/*--------------------------------*- C++ -*----------------------------------*\
  =========                 |
  \\      /  F ield         | OpenFOAM: The Open Source CFD Toolbox
   \\    /   O peration     | Website:  https://openfoam.org
    \\  /    A nd           | Version:  8
     \\/     M anipulation  |
\*---------------------------------------------------------------------------*/
FoamFile
{
    version     2.0;
    format      ascii;
    class       volScalarField;
    location    "1000/fluid";
    object      Qdot;
}
// * * * * * * * * * * * * * * * * * * * * * * * * * * * * * * * * * * * * * //

dimensions      [1 -1 -3 0 0 0 0];

internalField   nonuniform List<scalar> 
4000
(
0
2.79295e-07
0
-1.7894e-16
0
1.61936e-11
3.37779e-07
-1.63334e-15
0
-1.44125e-10
6.98034e-15
-1.41926e-14
6.05783e-10
-2.09177e-18
-8.46146e-18
-2.50784e-09
4.0043e-07
-9.30162e-09
2.82287e-08
9.73507e-08
4.33913e-06
5.73519e-05
0.000676462
0.00665769
0.0534603
0.349706
1.8806
8.43528
32.0803
105.133
301.296
764.714
1738.15
3573.74
6707.3
11618
18821.6
28905.6
42672.1
61302.1
86484.5
120467
166168
227446
309422
418992
565324
760559
1.02021e+06
1.36571e+06
1.82445e+06
2.43239e+06
3.23673e+06
4.29955e+06
5.70259e+06
7.55388e+06
9.99688e+06
1.31802e+07
1.73375e+07
2.29898e+07
3.0505e+07
6.94098e+07
3.78455e+08
2.95747e+07
2.12864e+07
1.51351e+07
1.06107e+07
7.3206e+06
4.96049e+06
3.29534e+06
2.14485e+06
1.37244e+06
877365
563672
150686
11363.6
314.373
4.4619
0.0424498
0.000433852
8.14671e-06
3.79412e-07
4.24215e-08
9.21975e-09
2.50402e-09
9.75249e-10
4.60037e-10
1.83178e-10
7.14302e-11
3.48171e-11
9.90461e-12
6.27057e-12
2.46095e-12
1.00058e-12
-5.44543e-12
-4.71398e-12
8.22296e-14
2.51939e-14
9.60044e-15
1.65553e-15
-7.00105e-22
2.04738e-17
2.91162e-07
0
1.55276e-11
1.30451e-11
0
-1.15415e-19
3.49638e-07
-3.35059e-15
0
0
0
0
9.76751e-10
-3.72223e-17
-2.92584e-16
4.03398e-09
2.22846e-08
2.84639e-07
3.91619e-06
5.10661e-05
0.000608639
0.00604045
0.0491001
0.325769
1.77793
8.09115
31.1958
103.536
300.152
769.601
1764
3651.6
6889.69
11974.1
19428.3
29834
43974.9
63005.1
88584
122925
168944
230506
312773
422677
569345
764355
1.0249e+06
1.37148e+06
1.83177e+06
2.4421e+06
3.25031e+06
4.31941e+06
5.7327e+06
7.60064e+06
1.00704e+07
1.32946e+07
1.75166e+07
2.32766e+07
3.0961e+07
1.09341e+08
3.43605e+08
2.94128e+07
2.10965e+07
1.49517e+07
1.04477e+07
7.18238e+06
4.84752e+06
3.20618e+06
2.07728e+06
1.32414e+06
846477
519623
113420
6860.76
164.432
2.10761
0.0196591
0.000220452
4.92725e-06
2.80429e-07
3.6561e-08
8.83156e-09
2.87093e-09
9.87413e-10
4.47782e-10
1.9281e-10
6.71762e-11
3.37801e-11
1.32612e-11
6.22745e-12
-3.65262e-12
6.25228e-14
3.84201e-13
1.02768e-12
-7.4642e-13
-4.57491e-12
8.844e-15
1.47538e-15
-2.65198e-07
2.77533e-07
2.9088e-12
0
0
0
-3.27051e-07
0
0
-3.25541e-15
-3.5114e-07
9.58165e-19
1.02904e-09
3.63728e-07
1.15495e-09
-3.57767e-17
-2.35435e-09
-3.80773e-07
2.62266e-08
6.49258e-08
3.63364e-06
4.74276e-05
0.000562067
0.00560345
0.045928
0.3081
1.70278
7.85254
30.6826
103.169
302.847
785.693
1819.45
3796.62
7212.34
12592.5
20479.3
31453.7
46281.6
66089.9
92511.5
127735
174691
237294
320791
432128
580171
777747
1.04117e+06
1.3917e+06
1.85743e+06
2.47544e+06
3.29467e+06
4.37996e+06
5.81732e+06
7.72135e+06
1.02455e+07
1.35476e+07
1.78865e+07
2.38248e+07
3.17596e+07
1.78799e+08
2.78073e+08
2.94804e+07
2.1003e+07
1.47847e+07
1.02603e+07
7.00411e+06
4.69296e+06
3.08102e+06
1.98216e+06
1.25729e+06
805564
445433
75734.2
3693.28
78.6375
0.95323
0.00923328
0.000118322
3.16389e-06
2.0815e-07
2.98371e-08
7.12845e-09
2.30722e-09
9.57256e-10
4.25566e-10
1.86302e-10
7.62666e-11
3.28183e-11
1.29258e-11
6.48424e-12
2.49144e-12
1.89153e-12
6.13331e-12
1.74977e-13
6.8765e-14
8.15726e-13
8.42538e-15
-7.43072e-13
0
-2.03088e-17
0
0
0
1.55617e-11
0
0
-2.25368e-19
-2.43066e-10
3.4263e-07
1.30121e-14
-5.52171e-10
1.89736e-18
-9.11889e-10
-3.46778e-17
1.85507e-09
-2.83688e-15
1.31185e-08
4.43251e-07
3.2112e-06
4.41282e-05
0.000526363
0.00528654
0.0437549
0.296892
1.66119
7.75856
30.7018
104.522
310.512
814.79
1906.37
4010.26
7663.47
13438.3
21898.2
33624.9
49367.3
70230.4
97826.7
134348
182777
247118
332564
445919
597113
799537
1.06888e+06
1.42703e+06
1.90281e+06
2.53434e+06
3.37205e+06
4.48287e+06
5.95586e+06
7.90997e+06
1.05047e+07
1.38983e+07
1.83651e+07
2.44925e+07
3.26984e+07
2.62351e+08
1.97045e+08
2.94708e+07
2.08378e+07
1.45517e+07
1.00154e+07
6.77916e+06
4.50332e+06
2.93159e+06
1.87186e+06
1.18227e+06
761154
357512
47073.2
1898.79
36.1882
0.417199
0.0042115
6.163e-05
1.96252e-06
1.52503e-07
2.43787e-08
6.33296e-09
2.25565e-09
8.67377e-10
3.59651e-10
1.88379e-10
7.47484e-11
2.87103e-11
1.27144e-11
-4.05305e-13
2.46007e-12
1.06659e-12
3.76595e-13
1.62525e-13
6.22884e-14
2.80399e-14
8.09876e-15
1.48108e-15
0
0
0
0
0
-1.53398e-11
-1.06832e-19
-1.08722e-19
0
-1.06538e-10
6.28253e-15
0
-3.3944e-07
8.78163e-10
-3.42964e-07
-3.35585e-17
-2.78185e-16
-2.77878e-15
1.63307e-08
5.89082e-08
3.05841e-06
4.20663e-05
0.000504061
0.00509563
0.0425641
0.291904
1.65207
7.80712
31.2583
107.648
323.376
857.574
2026.14
4294.26
8242.45
14502.8
23657.2
36284.9
53114.6
75236.8
104251
142386
192709
259196
347140
464247
621119
829876
1.10758e+06
1.47674e+06
1.9671e+06
2.61803e+06
3.48168e+06
4.62736e+06
6.14736e+06
8.16501e+06
1.08407e+07
1.43296e+07
1.89433e+07
2.5285e+07
3.37666e+07
3.44086e+08
1.15144e+08
2.92358e+07
2.0487e+07
1.4179e+07
9.67251e+06
6.48988e+06
4.2743e+06
2.75993e+06
1.75022e+06
1.10216e+06
712696
257498
28252.5
973.832
16.9092
0.189161
0.00202544
3.40484e-05
1.28139e-06
1.13389e-07
2.04802e-08
5.51732e-09
1.98512e-09
7.98029e-10
3.5154e-10
1.50821e-10
6.25777e-11
2.81966e-11
1.33737e-11
5.44656e-12
7.87707e-12
9.51899e-13
-4.53315e-13
5.67166e-12
6.20954e-14
2.4974e-14
8.10878e-15
1.66553e-15
-2.04115e-13
2.01423e-17
8.32653e-17
0
0
1.23114e-11
0
0
-3.01356e-15
0
2.10158e-10
0
-5.22358e-10
0
2.50404e-14
-3.25396e-17
-2.76707e-16
-3.44435e-07
3.55905e-07
5.85412e-08
2.95234e-06
4.11454e-05
0.000491283
0.00500288
0.042181
0.292291
1.67235
7.9905
32.3438
112.581
341.693
915.009
2181
4652.23
8957.15
15794.4
25758.9
39419.4
57480.5
81026.1
111669
151701
204130
273149
364804
487491
650656
867730
1.15643e+06
1.54016e+06
2.04984e+06
2.72642e+06
3.62413e+06
4.81501e+06
6.39487e+06
8.48797e+06
1.12654e+07
1.48808e+07
1.96625e+07
2.61993e+07
3.48994e+07
4.18192e+08
4.03641e+07
2.82594e+07
1.96209e+07
1.34738e+07
9.12755e+06
6.08483e+06
3.98339e+06
2.55822e+06
1.61603e+06
1.01789e+06
654969
195779
16760.9
508.332
8.16319
0.0897281
0.001025
1.96962e-05
8.627e-07
8.82151e-08
1.7685e-08
4.5902e-09
1.95081e-09
8.42602e-10
3.57367e-10
1.48278e-10
6.91949e-11
2.44163e-11
1.23441e-11
4.50375e-12
1.99038e-12
8.87325e-13
3.71389e-13
-4.52662e-12
6.19324e-14
2.36036e-14
8.12001e-15
1.31135e-15
0
0
0
0
0
3.54593e-16
0
0
0
0
0
0
-5.08436e-10
3.22109e-07
3.23959e-07
-3.85419e-17
-2.81923e-16
-3.38826e-09
1.1044e-08
3.98859e-07
2.91633e-06
4.02682e-05
0.000486516
0.00499427
0.0424952
0.297424
1.71941
8.30116
33.9473
119.347
365.713
988.155
2374.13
5094.24
9829.59
17322.1
28203.6
43004.6
62393.1
87438.3
119756
161599
216186
288707
385355
513616
684164
911061
1.21288e+06
1.61417e+06
2.14744e+06
2.85571e+06
3.79599e+06
5.04375e+06
6.69887e+06
8.89693e+06
1.18177e+07
1.55783e+07
2.07044e+07
2.74973e+07
3.64629e+07
4.51623e+08
3.56341e+07
2.53218e+07
1.77476e+07
1.22561e+07
8.32718e+06
5.55703e+06
3.63681e+06
2.33331e+06
1.473e+06
930505
581960
144049
10065
275.39
4.1549
0.0454595
0.000557262
1.21727e-05
6.15897e-07
7.17117e-08
1.41477e-08
4.51365e-09
1.79962e-09
7.17164e-10
3.06747e-10
1.32591e-10
6.06432e-11
2.40785e-11
1.0531e-11
3.66596e-12
2.06294e-12
9.35972e-13
5.04469e-12
1.47715e-13
5.42022e-12
2.27588e-14
7.39539e-15
1.31619e-15
2.63305e-07
2.71848e-07
0
-1.20815e-20
-2.9243e-07
-3.49766e-16
0
-3.05418e-07
-3.08166e-07
9.98196e-11
0
-4.02069e-10
0
3.13069e-07
-9.92752e-10
-3.73469e-17
1.62693e-09
-2.72478e-15
1.47179e-08
2.37722e-07
3.24086e-06
4.03726e-05
0.000488959
0.00505926
0.0434381
0.306965
1.79215
8.73787
36.0802
128.04
395.886
1078.6
2609.91
5627.59
10866.3
19097.6
30996
47033.4
67852.5
94496.8
128484
172307
230103
306233
407082
541048
719246
956393
1.272e+06
1.69196e+06
2.25075e+06
2.99428e+06
3.98386e+06
5.30153e+06
7.05744e+06
9.40001e+06
1.25125e+07
1.65623e+07
2.21426e+07
2.96146e+07
3.96148e+07
4.41903e+08
3.26795e+07
2.32277e+07
1.62957e+07
1.12662e+07
7.66288e+06
5.11927e+06
3.355e+06
2.15784e+06
1.36965e+06
875040
523929
108086
6353.95
158.543
2.26411
0.0248086
0.000326136
8.02076e-06
4.61292e-07
5.8176e-08
1.31465e-08
4.14709e-09
1.57571e-09
6.53656e-10
2.7641e-10
1.24953e-10
5.32499e-11
2.37576e-11
1.59874e-11
4.2663e-12
1.84142e-12
7.83056e-13
5.77326e-12
1.34743e-13
4.94614e-14
-5.21766e-12
6.67217e-15
1.23084e-15
0
-2.70706e-07
-8.15886e-17
-2.83787e-07
-1.42996e-11
0
-6.98459e-16
2.99931e-07
1.4197e-15
0
-3.04485e-07
0
4.81644e-10
0
-7.83347e-10
-1.56843e-09
3.07246e-07
3.16137e-09
1.41906e-08
3.85397e-07
2.94742e-06
4.10152e-05
0.000497823
0.00519031
0.0449601
0.320684
1.89001
9.30193
38.7645
138.799
432.811
1188.38
2893.83
6262.39
12077.1
21123.8
34111.5
51414.1
73620.4
101673
137295
183611
243972
323364
428383
567749
752972
999291
1.32692e+06
1.76275e+06
2.3426e+06
3.11427e+06
4.14173e+06
5.51078e+06
7.3368e+06
9.77564e+06
1.30235e+07
1.72791e+07
2.31768e+07
3.11402e+07
5.54343e+07
4.22473e+08
3.07631e+07
2.18436e+07
1.53082e+07
1.05702e+07
7.17838e+06
4.78643e+06
3.12997e+06
2.00902e+06
1.27466e+06
819135
462183
80891
4161.67
96.4001
1.31945
0.0145758
0.000205154
5.61877e-06
3.58314e-07
4.96354e-08
1.15471e-08
3.87752e-09
1.44805e-09
6.42127e-10
2.77171e-10
1.15713e-10
5.24654e-11
3.06925e-11
1.49733e-11
4.39927e-12
1.82402e-12
6.16642e-12
3.14937e-13
1.21928e-13
5.53439e-14
-7.46126e-13
6.6792e-15
-7.38905e-13
-4.82156e-18
6.78092e-13
0
-2.81174e-07
1.67924e-16
0
0
-5.82843e-11
-1.17127e-10
0
-2.34942e-10
5.57641e-15
3.81149e-10
0
-9.54712e-18
-3.81651e-17
1.51922e-09
-2.79242e-15
1.36644e-08
3.83634e-07
3.31216e-06
4.16954e-05
0.000512215
0.00538307
0.0470306
0.338478
2.01311
9.99776
42.0354
151.81
477.264
1320.09
3232.8
7012.21
13477.8
23411
37558.6
56170.8
79686.2
109091
146657
194892
257623
339980
448729
592781
783879
1.03754e+06
1.37435e+06
1.8216e+06
2.41561e+06
3.20476e+06
4.25355e+06
5.6482e+06
7.5041e+06
9.97611e+06
1.32469e+07
1.75179e+07
2.34039e+07
3.12761e+07
1.15874e+08
3.71974e+08
2.96519e+07
2.1034e+07
1.47319e+07
1.01702e+07
6.9085e+06
4.61004e+06
3.01886e+06
1.94215e+06
1.23724e+06
801425
412225
62930.6
2884.16
62.3888
0.822601
0.00919387
0.000137976
4.15888e-06
2.93544e-07
4.35683e-08
1.07903e-08
3.50598e-09
1.32398e-09
6.30406e-10
2.4764e-10
1.13846e-10
4.80703e-11
2.31093e-11
3.94004e-12
4.34973e-12
2.60084e-12
6.14994e-12
2.88463e-13
1.33407e-13
4.91716e-14
1.88946e-14
6.68227e-15
1.05857e-15
2.02635e-13
-1.50521e-12
0
-6.89035e-12
1.6598e-16
1.41222e-11
0
0
-1.95715e-19
-9.34121e-11
-2.8966e-07
-5.43072e-15
0
-1.54638e-18
2.86245e-07
-3.68831e-17
-2.94894e-16
-2.84915e-15
1.97062e-08
2.44318e-07
3.11119e-06
4.3002e-05
0.000531813
0.0056326
0.0496235
0.36027
2.16173
10.8307
45.9335
167.291
530.146
1476.73
3634.59
7890.46
15075.6
25938.9
41273
61128.4
85954
116930
156013
206052
270987
356046
468100
616161
812081
1.07149e+06
1.41506e+06
1.87015e+06
2.47308e+06
3.27206e+06
4.33121e+06
5.73593e+06
7.60018e+06
1.00758e+07
1.33382e+07
1.75854e+07
2.34181e+07
3.11925e+07
1.69722e+08
3.20947e+08
2.89524e+07
2.05078e+07
1.43423e+07
9.88697e+06
6.70688e+06
4.47021e+06
2.92527e+06
1.88283e+06
1.20282e+06
784777
375351
50127.4
2093.76
42.7416
0.546582
0.00618698
9.85886e-05
3.2379e-06
2.47902e-07
3.90972e-08
9.83531e-09
3.24783e-09
1.3928e-09
5.70348e-10
2.66699e-10
1.11927e-10
4.55764e-11
2.19224e-11
9.23566e-12
9.25358e-12
-3.5528e-12
6.61611e-13
2.86445e-13
1.20677e-13
4.60212e-14
5.1853e-12
5.95658e-15
1.06096e-15
6.90145e-22
0
3.36448e-12
1.16417e-20
-1.64046e-16
0
0
1.91612e-19
-1.12411e-10
2.66617e-15
-2.82507e-07
5.28541e-15
0
-2.78462e-07
-2.76852e-07
4.12925e-14
3.14706e-09
3.46952e-09
2.93414e-07
3.80973e-07
3.24244e-06
4.45722e-05
0.000556007
0.00593386
0.0527095
0.38595
2.33594
11.8053
50.4979
185.464
592.421
1661.59
4107.51
8909.23
16865.7
28660.5
45130.1
66112.6
92123.2
124540
165179
217005
284061
371653
486718
638318
838340
1.10242e+06
1.4512e+06
1.91192e+06
2.52065e+06
3.32515e+06
4.38882e+06
5.79562e+06
7.65657e+06
1.01207e+07
1.33627e+07
1.75747e+07
2.33444e+07
3.10146e+07
2.17504e+08
2.75772e+08
2.83828e+07
2.01144e+07
1.40743e+07
9.70725e+06
6.5883e+06
4.3936e+06
2.87718e+06
1.85417e+06
1.18795e+06
779869
340808
41187.4
1591.38
30.8922
0.385264
0.0044218
7.43094e-05
2.62702e-06
2.16202e-07
3.58218e-08
9.46151e-09
3.27896e-09
1.27069e-09
5.58955e-10
2.38611e-10
1.0996e-10
4.70095e-11
2.01419e-11
9.11101e-12
3.86269e-12
1.76852e-12
6.55674e-13
2.60417e-13
1.08077e-13
4.87878e-14
1.73517e-14
5.95442e-15
1.0627e-15
0
0
5.69867e-21
-2.73423e-07
-6.8232e-12
0
0
9.99866e-11
-2.78315e-07
0
0
0
-4.29078e-10
0
-8.63669e-18
-3.43171e-17
-3.02709e-09
7.6115e-14
2.8108e-07
3.91772e-07
3.38495e-06
4.64885e-05
0.000584196
0.00628105
0.0562427
0.415276
2.53496
12.9219
55.7525
206.51
664.997
1877.97
4659.9
10077.3
18824.3
31485.8
48972.4
71115.9
98476.4
132140
174214
227748
296841
386849
504735
659580
863262
1.13138e+06
1.48445e+06
1.94955e+06
2.56242e+06
3.37018e+06
4.43492e+06
5.83903e+06
7.69316e+06
1.01459e+07
1.33612e+07
1.75284e+07
2.32253e+07
3.07812e+07
2.57787e+08
2.38175e+08
2.78188e+07
1.97385e+07
1.38266e+07
9.54654e+06
6.48646e+06
4.33113e+06
2.84075e+06
1.83487e+06
1.18016e+06
779378
306696
34834
1261.2
23.4487
0.286525
0.00333483
5.87818e-05
2.21659e-06
1.92773e-07
3.35336e-08
8.88701e-09
3.20314e-09
1.33321e-09
5.93176e-10
2.33155e-10
1.07935e-10
4.11001e-11
2.05858e-11
9.73674e-12
3.64401e-12
1.65392e-12
6.96895e-13
2.82064e-13
5.29377e-12
4.26962e-14
-7.3534e-13
5.94939e-15
-5.01421e-12
0
0
0
0
1.25656e-12
1.10106e-11
-2.73804e-07
0
0
0
0
0
3.38445e-10
6.69507e-10
-2.58033e-07
-4.40405e-17
-1.30407e-09
-3.11258e-15
1.99108e-08
3.87829e-07
3.55119e-06
4.87121e-05
0.000615231
0.00666459
0.0601465
0.447748
2.75631
14.1715
61.6796
230.461
748.331
2128.02
5296.93
11392.2
20896.4
34286.7
52872.7
76106.1
104481
139313
182773
237982
309068
401414
521995
679882
886920
1.15863e+06
1.51541e+06
1.98397e+06
2.59934e+06
3.40777e+06
4.47095e+06
5.87184e+06
7.71846e+06
1.01527e+07
1.33352e+07
1.74515e+07
2.3066e+07
3.04942e+07
2.9155e+08
2.0703e+08
2.7256e+07
1.93759e+07
1.35972e+07
9.405e+06
6.40188e+06
4.28283e+06
2.81515e+06
1.82329e+06
1.17734e+06
780891
282772
30230.5
1037.59
18.6056
0.223693
0.00263901
4.84989e-05
1.93121e-06
1.77461e-07
3.1024e-08
8.662e-09
3.20244e-09
1.21314e-09
5.34985e-10
2.29035e-10
1.06583e-10
4.11069e-11
1.59983e-11
9.59331e-12
4.13729e-12
1.541e-12
1.40117e-12
2.79706e-13
1.18414e-13
4.54043e-14
1.72513e-14
5.5822e-15
9.75477e-16
0
2.78367e-21
2.66521e-07
0
0
0
2.69179e-07
0
-1.9111e-10
0
-7.04798e-19
6.96163e-19
-2.54475e-07
0
-2.48595e-07
-4.23206e-17
-1.24992e-09
-3.20489e-15
1.65199e-08
2.72015e-07
3.71982e-06
5.08428e-05
0.00064834
0.00707107
0.064297
0.482458
2.99461
15.5288
68.1823
257.025
841.703
2409.86
6009.41
12799.8
22876.2
36668.9
56088.8
80195.5
109528
145482
190307
247157
320186
414786
537934
698679
908785
1.1836e+06
1.54308e+06
2.01367e+06
2.63026e+06
3.43977e+06
4.50277e+06
5.89817e+06
7.73171e+06
1.01433e+07
1.3288e+07
1.73473e+07
2.28713e+07
3.0162e+07
3.19063e+08
1.82228e+08
2.66911e+07
1.90177e+07
1.3376e+07
9.27296e+06
6.32662e+06
4.24277e+06
2.79622e+06
1.81663e+06
1.17761e+06
783162
270636
26899.4
884.123
15.3875
0.182666
0.00218196
4.15599e-05
1.73188e-06
1.64086e-07
2.98059e-08
8.24197e-09
2.94844e-09
1.18285e-09
5.22459e-10
2.46398e-10
1.04431e-10
4.58343e-11
2.48907e-11
8.71444e-12
4.08052e-12
1.42984e-12
5.73899e-12
2.77252e-13
1.05956e-13
4.51643e-14
1.71914e-14
-5.03979e-12
9.75778e-16
2.60296e-07
0
0
0
2.6608e-07
0
0
0
-1.22401e-15
-2.42002e-15
-2.53926e-07
0
-3.89668e-10
7.66719e-10
6.14054e-10
2.34969e-07
-1.1957e-09
-3.29556e-15
1.80667e-08
2.76045e-07
3.66241e-06
5.34136e-05
0.00068144
0.00748106
0.0685083
0.517947
3.24054
16.9447
75.0484
285.436
942.743
2716.53
6773.12
14200.9
24466.3
38275.2
58210.3
82928.7
113034
149977
196062
254446
329281
425933
551320
714376
926778
1.2038e+06
1.56548e+06
2.03854e+06
2.65742e+06
3.4666e+06
4.5255e+06
5.91223e+06
7.72993e+06
1.0115e+07
1.32169e+07
1.72124e+07
2.26364e+07
2.97773e+07
3.41e+08
1.62763e+08
2.61258e+07
1.86635e+07
1.31612e+07
9.14803e+06
6.25825e+06
4.20877e+06
2.78224e+06
1.81369e+06
1.18033e+06
786880
261758
24569.7
779.791
13.2432
0.15562
0.00187868
3.68498e-05
1.59528e-06
1.56645e-07
2.92667e-08
8.50599e-09
3.03189e-09
1.1896e-09
5.33342e-10
2.40794e-10
1.01528e-10
4.72133e-11
2.01968e-11
8.57583e-12
3.65924e-12
1.50327e-12
6.29358e-13
2.51688e-13
1.10943e-13
4.20294e-14
1.71259e-14
5.03761e-12
9.75734e-16
6.85245e-22
-1.4678e-12
0
-1.18072e-11
5.28928e-12
-1.29473e-11
-2.09243e-11
0
1.19615e-15
2.50818e-07
0
-4.55762e-15
2.38139e-07
0
2.30245e-07
1.15898e-09
-3.49252e-16
5.02269e-09
2.3902e-07
2.90653e-07
3.82459e-06
5.52938e-05
0.000712503
0.00786869
0.0725217
0.552077
3.47958
18.3378
81.8963
314.171
1046.15
3030.72
7528.39
15380.9
25114.4
38173.9
58176.1
83069.6
113692
151432
198551
258172
334414
432610
559661
724522
939072
1.21848e+06
1.58262e+06
2.05694e+06
2.67529e+06
3.48189e+06
4.53482e+06
5.91038e+06
7.70902e+06
1.00633e+07
1.31173e+07
1.70422e+07
2.23567e+07
2.93354e+07
3.58267e+08
1.47905e+08
2.55598e+07
1.83117e+07
1.29502e+07
9.02761e+06
6.19432e+06
4.17873e+06
2.7715e+06
1.81315e+06
1.18456e+06
791467
255967
23020.1
710.779
11.8365
0.137966
0.00167941
3.37054e-05
1.4973e-06
1.51537e-07
2.86654e-08
8.38484e-09
2.94299e-09
1.20214e-09
5.38497e-10
2.35074e-10
1.04743e-10
4.62657e-11
1.91991e-11
7.72477e-12
2.88182e-12
2.30337e-12
6.22277e-13
2.49299e-13
-6.35066e-13
4.17801e-14
1.84861e-14
5.54994e-15
9.75403e-16
0
6.55714e-13
0
0
-2.18985e-20
-1.27522e-11
-2.52599e-11
4.06019e-11
0
0
0
2.34622e-07
0
2.24369e-07
2.19457e-07
-4.64186e-17
-3.55336e-16
4.76656e-09
2.82043e-08
2.99259e-07
3.98688e-06
5.73338e-05
0.00073926
0.0082033
0.0760109
0.582032
3.69173
19.5903
88.142
340.771
1142.94
3322.43
8174.65
16008.5
24126.6
35591.5
55314.4
80123.3
110788
148837
196505
256888
334080
433413
561795
728192
943981
1.22419e+06
1.58833e+06
2.06181e+06
2.6778e+06
3.47964e+06
4.52408e+06
5.8855e+06
7.66156e+06
9.98077e+06
1.29821e+07
1.68299e+07
2.20263e+07
2.88316e+07
3.71176e+08
1.37316e+08
2.49926e+07
1.79597e+07
1.27398e+07
8.90805e+06
6.13127e+06
4.14947e+06
2.76133e+06
1.81289e+06
1.18866e+06
795765
252828
22081.4
667.847
10.9549
0.126884
0.00155367
3.17006e-05
1.43933e-06
1.47381e-07
2.85569e-08
8.28016e-09
3.00874e-09
1.24755e-09
5.24084e-10
2.39708e-10
1.02359e-10
4.46175e-11
1.88336e-11
8.2901e-12
3.7268e-12
7.43571e-13
6.59952e-13
-4.83675e-13
1.03525e-13
4.15197e-14
-4.99295e-12
-7.30291e-13
9.74813e-16
0
6.52926e-13
-2.59204e-07
2.58122e-07
6.34005e-12
2.53855e-07
2.50691e-07
0
4.79949e-11
-7.65323e-11
4.37072e-15
0
2.21125e-07
-1.62058e-14
-6.64731e-10
-4.42471e-17
-3.59085e-16
4.50969e-09
2.21477e-07
3.07131e-07
3.99917e-06
5.85961e-05
0.00075892
0.00844989
0.0786036
0.604485
3.85235
20.5494
92.9836
361.611
1218.68
3539.25
8526.53
15492.6
23569.9
31253.3
48656.6
73008.7
103414
141333
188961
249340
326507
425722
553799
719547
934361
1.21303e+06
1.57478e+06
2.04461e+06
2.65507e+06
3.44863e+06
4.48074e+06
5.82388e+06
7.57298e+06
9.85256e+06
1.27966e+07
1.65625e+07
2.1635e+07
2.826e+07
3.79982e+08
1.30713e+08
2.44206e+07
1.76013e+07
1.2522e+07
8.78097e+06
6.06122e+06
4.11405e+06
2.74599e+06
1.80835e+06
1.18912e+06
797432
251504
21610.4
644.448
10.4593
0.120588
0.00148193
3.05565e-05
1.4057e-06
1.45721e-07
2.80988e-08
8.12834e-09
2.9115e-09
1.21005e-09
5.49338e-10
2.32907e-10
1.07487e-10
4.63107e-11
1.84625e-11
8.83667e-12
3.5901e-12
1.53143e-12
6.52066e-13
2.44337e-13
1.02668e-13
4.12533e-14
1.61218e-14
5.5213e-15
1.06274e-15
-2.58821e-07
0
0
0
-5.0929e-12
2.49908e-07
0
0
-1.11224e-15
7.44138e-11
0
0
0
-2.22966e-18
-5.16327e-10
-5.04842e-17
-3.6049e-16
-1.85138e-07
2.49581e-08
3.96598e-07
4.08474e-06
5.91418e-05
0.000768801
0.00857702
0.0799492
0.616229
3.93709
21.0599
95.5784
372.733
1256.96
3617.73
8338.68
15818.6
24556
32583.1
39274.2
60901.8
90182.1
126899
173197
232033
307353
404309
529587
691846
902298
1.17548e+06
1.53028e+06
1.99124e+06
2.5903e+06
3.36905e+06
4.38174e+06
5.69916e+06
7.41385e+06
9.64686e+06
1.25279e+07
1.62086e+07
2.11566e+07
2.76045e+07
3.84672e+08
1.27817e+08
2.38308e+07
1.72156e+07
1.2273e+07
8.62292e+06
5.96308e+06
4.05475e+06
2.71127e+06
1.78861e+06
1.17782e+06
790688
250331
21454.9
635.39
10.2538
0.117922
0.00145142
3.00744e-05
1.39216e-06
1.44749e-07
2.81266e-08
8.119e-09
3.10291e-09
1.20587e-09
5.50833e-10
2.36046e-10
1.07671e-10
4.78821e-11
1.80864e-11
7.31916e-12
-1.02433e-12
1.50972e-12
6.44085e-13
2.6397e-13
1.01799e-13
4.22439e-14
4.25206e-12
5.85999e-15
9.73172e-16
0
0
-2.5898e-12
0
0
1.0058e-11
0
3.88991e-11
2.36609e-07
-7.44138e-11
0
4.11933e-15
-2.13018e-07
-2.22966e-18
-8.65778e-18
-2.93531e-14
-1.90882e-07
-1.80885e-07
2.3092e-08
3.0156e-07
4.08473e-06
5.9231e-05
0.000768811
0.00857708
0.0799496
0.616232
3.9371
21.0599
95.5785
372.732
1256.95
3617.71
8338.61
15818.5
24555.9
32583
39274.2
60901.6
90182
126899
173197
232033
307353
404309
529587
691846
902298
1.17548e+06
1.53028e+06
1.99124e+06
2.5903e+06
3.36904e+06
4.38173e+06
5.69916e+06
7.41385e+06
9.64685e+06
1.25279e+07
1.62086e+07
2.11566e+07
2.76045e+07
3.84669e+08
1.2782e+08
2.38308e+07
1.72156e+07
1.2273e+07
8.62293e+06
5.96308e+06
4.05475e+06
2.71128e+06
1.78861e+06
1.17783e+06
790689
250333
21455.2
635.403
10.2541
0.117924
0.00145145
3.00755e-05
1.39336e-06
1.44749e-07
2.81267e-08
8.11908e-09
3.10686e-09
1.24822e-09
5.37554e-10
2.37262e-10
1.02571e-10
4.67136e-11
1.86815e-11
8.2977e-12
3.43737e-12
1.59657e-12
6.44084e-13
2.6397e-13
1.07389e-13
4.98607e-12
1.54133e-14
5.50586e-15
1.06175e-15
0
6.52945e-13
1.09335e-20
-2.58122e-07
-2.56329e-07
0
-2.01795e-11
-2.46951e-07
-3.90502e-11
9.4065e-11
0
0
0
-2.32634e-18
-9.06893e-18
-2.06177e-07
2.30044e-09
2.02314e-09
-1.68765e-07
4.00083e-07
4.10115e-06
5.85088e-05
0.00075884
0.00845007
0.078605
0.604495
3.85241
20.5497
92.9843
361.612
1218.67
3539.19
8526.25
15491.9
23569.6
31253.3
48656.5
73008.9
103415
141333
188961
249340
326507
425723
553799
719547
934361
1.21303e+06
1.57478e+06
2.04461e+06
2.65507e+06
3.44863e+06
4.48073e+06
5.82387e+06
7.57296e+06
9.85253e+06
1.27965e+07
1.65625e+07
2.16349e+07
2.82599e+07
3.79971e+08
1.30723e+08
2.44206e+07
1.76014e+07
1.25221e+07
8.781e+06
6.06123e+06
4.11407e+06
2.746e+06
1.80836e+06
1.18913e+06
797437
251511
21611.5
644.489
10.46
0.120597
0.00148202
3.05586e-05
1.40569e-06
1.45209e-07
2.80985e-08
8.13238e-09
2.91149e-09
1.21005e-09
5.49337e-10
2.48348e-10
1.02806e-10
4.51177e-11
1.8462e-11
8.14326e-12
3.5901e-12
1.49194e-12
6.07624e-13
5.16731e-12
-6.25459e-13
4.25226e-14
-4.97283e-12
5.5213e-15
4.98941e-12
3.63855e-13
-2.60665e-07
0
0
-2.18985e-20
-1.03753e-11
0
0
0
-2.44338e-07
-2.3975e-07
-2.34622e-07
2.95572e-10
0
2.20152e-07
-1.36095e-09
-1.33562e-09
4.76655e-09
2.35036e-08
2.97176e-07
3.87781e-06
5.72401e-05
0.000739294
0.00820335
0.0760128
0.582047
3.69182
19.5908
88.1445
340.783
1142.99
3322.65
8175.42
16010.5
24127.7
35592.1
55314.8
80123.2
110788
148837
196504
256887
334080
433413
561794
728191
943979
1.22419e+06
1.58833e+06
2.06181e+06
2.67779e+06
3.47963e+06
4.52406e+06
5.88547e+06
7.66152e+06
9.98072e+06
1.2982e+07
1.68298e+07
2.20261e+07
2.88314e+07
3.71158e+08
1.37334e+08
2.49927e+07
1.79598e+07
1.27399e+07
8.90809e+06
6.13131e+06
4.14949e+06
2.76135e+06
1.8129e+06
1.18867e+06
795773
252839
22083.3
667.918
10.9562
0.126899
0.00155383
3.1704e-05
1.43931e-06
1.47379e-07
2.8226e-08
8.11141e-09
3.00867e-09
1.2116e-09
5.24068e-10
2.3394e-10
1.02361e-10
4.73308e-11
1.74562e-11
8.28985e-12
4.26333e-12
8.32702e-13
6.15041e-13
2.4684e-13
1.03527e-13
4.15197e-14
-4.99437e-12
-7.30291e-13
9.74813e-16
-2.59927e-07
2.76037e-21
0
-2.6321e-07
1.17899e-11
-4.41599e-20
6.11039e-16
0
4.09608e-11
3.38552e-19
0
2.42387e-07
-8.94524e-15
-7.38561e-10
5.89708e-10
2.24964e-07
-1.14128e-09
5.02275e-09
1.98806e-08
4.02824e-07
3.82459e-06
5.54087e-05
0.000712649
0.00786913
0.0725245
0.552096
3.47969
18.3384
81.8986
314.179
1046.18
3030.75
7528.28
15380
25114
38173.9
58176.3
83069.8
113692
151432
198551
258172
334414
432611
559661
724521
939071
1.21848e+06
1.58262e+06
2.05693e+06
2.67527e+06
3.48188e+06
4.5348e+06
5.91034e+06
7.70897e+06
1.00632e+07
1.31172e+07
1.7042e+07
2.23565e+07
2.93352e+07
3.58239e+08
1.47932e+08
2.556e+07
1.83118e+07
1.29503e+07
9.02767e+06
6.19436e+06
4.17877e+06
2.77153e+06
1.81317e+06
1.18458e+06
791479
255983
23022.9
710.887
11.8384
0.137989
0.00167968
3.37112e-05
1.49974e-06
1.51533e-07
2.83266e-08
8.3848e-09
2.94297e-09
1.20211e-09
5.15323e-10
2.35073e-10
1.04745e-10
4.55666e-11
1.91986e-11
7.72476e-12
3.50645e-12
6.44537e-12
6.22292e-13
-4.00675e-12
5.13464e-12
4.17801e-14
1.70554e-14
5.54994e-15
1.06421e-15
-3.6489e-13
0
-1.11648e-20
0
0
4.48253e-20
0
0
9.34302e-11
8.28707e-11
0
-6.75268e-19
3.89668e-10
6.23827e-10
-2.38381e-07
1.21053e-09
-3.4084e-16
2.36793e-09
1.86049e-08
1.64995e-07
3.65776e-06
5.32958e-05
0.00068148
0.00748134
0.0685113
0.517969
3.24066
16.9453
75.0509
285.445
942.774
2716.62
6773.41
14201.7
24467.2
38276.2
58211.6
82929.9
113035
149978
196063
254446
329281
425933
551320
714376
926777
1.2038e+06
1.56547e+06
2.03853e+06
2.65741e+06
3.46658e+06
4.52547e+06
5.91219e+06
7.72987e+06
1.01149e+07
1.32167e+07
1.72122e+07
2.26362e+07
2.9777e+07
3.40961e+08
1.62801e+08
2.6126e+07
1.86637e+07
1.31613e+07
9.14811e+06
6.25831e+06
4.20882e+06
2.78228e+06
1.81372e+06
1.18035e+06
786896
261780
24573.7
779.948
13.2461
0.155656
0.00187907
3.68555e-05
1.59271e-06
1.55941e-07
2.92664e-08
8.32666e-09
2.95753e-09
1.23618e-09
5.3334e-10
2.40786e-10
1.01528e-10
4.65008e-11
1.95573e-11
8.57582e-12
4.39289e-12
1.50327e-12
6.29357e-13
2.74723e-13
1.05174e-13
4.49094e-14
1.71255e-14
5.92023e-15
1.06465e-15
2.60666e-07
-1.93916e-17
1.12421e-20
0
2.6934e-07
-2.69619e-07
0
2.68089e-07
1.9111e-10
3.5623e-19
-2.61077e-07
4.8496e-15
7.30582e-10
-2.71093e-18
1.8633e-14
-4.23206e-17
-1.53627e-09
2.48222e-09
1.65199e-08
2.74477e-07
3.48254e-06
5.09774e-05
0.000648378
0.0070714
0.0643005
0.482482
2.99475
15.5295
68.1851
257.035
841.736
2409.96
6009.67
12800.4
22877.4
36671.4
56094.4
80199.5
109531
145484
190308
247158
320187
414786
537934
698677
908783
1.1836e+06
1.54308e+06
2.01366e+06
2.63025e+06
3.43975e+06
4.50274e+06
5.89812e+06
7.73164e+06
1.01432e+07
1.32879e+07
1.73471e+07
2.2871e+07
3.01617e+07
3.19009e+08
1.82279e+08
2.66913e+07
1.90179e+07
1.33762e+07
9.27307e+06
6.32671e+06
4.24283e+06
2.79627e+06
1.81667e+06
1.17763e+06
783179
270663
26904.8
884.345
15.3918
0.182719
0.00218255
4.15683e-05
1.7304e-06
1.64086e-07
3.01688e-08
8.24183e-09
2.8546e-09
1.18285e-09
5.22457e-10
2.46398e-10
1.03715e-10
4.74173e-11
2.13584e-11
8.71442e-12
3.71199e-12
1.5224e-12
5.69255e-12
4.63596e-12
1.05956e-13
7.94279e-13
5.09259e-12
-5.03943e-12
7.36846e-13
3.6593e-13
1.48641e-12
0
-6.6995e-12
-5.48582e-12
0
0
4.40048e-11
1.27969e-15
0
0
0
0
-2.80658e-18
-1.93543e-14
1.61403e-09
-3.84044e-14
-3.10169e-15
1.73208e-08
2.59635e-07
3.54483e-06
4.87172e-05
0.000615276
0.00666496
0.0601501
0.447772
2.75644
14.1721
61.682
230.469
748.353
2128.07
5297.01
11392.3
20896.2
34285.5
52868.7
76104.1
104480
139313
182774
237982
309068
401415
521995
679882
886918
1.15863e+06
1.51541e+06
1.98396e+06
2.59932e+06
3.40774e+06
4.47091e+06
5.87179e+06
7.7184e+06
1.01526e+07
1.33351e+07
1.74513e+07
2.30658e+07
3.04939e+07
2.91481e+08
2.07094e+08
2.7256e+07
1.93759e+07
1.35973e+07
9.40507e+06
6.40196e+06
4.28291e+06
2.81522e+06
1.82336e+06
1.17739e+06
780930
282811
30238.4
1037.92
18.6121
0.223773
0.00263989
4.85143e-05
1.93267e-06
1.76715e-07
3.10237e-08
8.47252e-09
3.20236e-09
1.21313e-09
5.34984e-10
2.29027e-10
1.05853e-10
4.46513e-11
2.38422e-11
8.85033e-12
3.76367e-12
-3.60801e-12
6.42974e-13
2.79706e-13
1.06705e-13
4.54053e-14
4.36556e-12
5.94171e-15
7.37511e-13
-2.6141e-07
-2.8071e-21
0
0
-6.8232e-12
1.37284e-11
2.75467e-11
0
2.78116e-07
-2.7711e-07
0
-2.73331e-07
-7.78208e-10
0
-5.75779e-18
-3.43171e-17
-3.13108e-16
-3.01589e-15
1.81187e-08
2.60093e-07
3.38494e-06
4.65127e-05
0.000584231
0.0062813
0.0562465
0.415301
2.5351
12.9225
55.7548
206.517
665.016
1878.01
4659.98
10077.4
18824.5
31486.1
48971.9
71115.4
98476.2
132141
174215
227749
296843
386850
504737
659581
863262
1.13138e+06
1.48445e+06
1.94954e+06
2.5624e+06
3.37015e+06
4.43486e+06
5.83894e+06
7.69307e+06
1.01458e+07
1.33611e+07
1.75282e+07
2.3225e+07
3.07809e+07
2.57715e+08
2.38243e+08
2.78196e+07
1.97394e+07
1.38274e+07
9.54708e+06
6.4868e+06
4.33131e+06
2.84082e+06
1.83487e+06
1.18012e+06
779332
306741
34842.1
1261.62
23.4579
0.286645
0.00333614
5.88031e-05
2.21653e-06
1.91378e-07
3.3918e-08
8.88686e-09
3.10451e-09
1.38324e-09
5.52084e-10
2.33154e-10
1.07934e-10
4.62105e-11
1.54356e-11
7.46656e-12
3.81399e-12
1.65392e-12
6.75612e-13
-5.06692e-13
-6.54959e-13
4.56297e-14
-5.10288e-12
5.94939e-15
1.06382e-15
0
0
-3.36448e-12
0
-1.28673e-12
2.81496e-07
-2.8006e-11
4.57075e-11
0
-2.0351e-10
0
-5.28465e-15
0
-2.99743e-18
-1.58461e-09
-4.15346e-17
-3.07761e-16
-2.91707e-15
1.89138e-08
2.43896e-07
3.22973e-06
4.45664e-05
0.000556065
0.00593443
0.0527135
0.385976
2.33608
11.8059
50.5003
185.471
592.442
1661.64
4107.6
8909.36
16865.8
28659.9
45128.9
66112.6
92123.9
124541
165181
217007
284063
371656
486722
638323
838346
1.10243e+06
1.45121e+06
1.91193e+06
2.52065e+06
3.32516e+06
4.38883e+06
5.79564e+06
7.65653e+06
1.01207e+07
1.33627e+07
1.75748e+07
2.33444e+07
3.10146e+07
2.17477e+08
2.75807e+08
2.83814e+07
2.01122e+07
1.40721e+07
9.70548e+06
6.58714e+06
4.39301e+06
2.87704e+06
1.85431e+06
1.18818e+06
780072
340948
41205.6
1592.13
30.9074
0.385455
0.00442384
7.43393e-05
2.63273e-06
2.15412e-07
3.47087e-08
9.62355e-09
3.17715e-09
1.27069e-09
5.58938e-10
2.38618e-10
1.04802e-10