/*--------------------------------*- C++ -*----------------------------------*\
  =========                 |
  \\      /  F ield         | OpenFOAM: The Open Source CFD Toolbox
   \\    /   O peration     | Website:  https://openfoam.org
    \\  /    A nd           | Version:  8
     \\/     M anipulation  |
\*---------------------------------------------------------------------------*/
FoamFile
{
    version     2.0;
    format      ascii;
    class       volScalarField;
    location    "1000/fluid";
    object      rDeltaT;
}
// * * * * * * * * * * * * * * * * * * * * * * * * * * * * * * * * * * * * * //

dimensions      [0 0 -1 0 0 0 0];

internalField   nonuniform List<scalar> 
4000
(
513.507
539.558
564.413
588.221
610.917
632.401
652.542
671.199
688.238
703.558
717.12
728.978
739.312
748.452
756.894
765.139
773.575
782.383
791.462
800.423
808.662
815.485
820.237
822.397
821.648
817.803
810.754
800.472
786.995
770.412
750.844
741.659
765.368
810.027
853.858
896.748
938.614
979.384
1019
1057.43
1094.64
1130.61
1165.34
1198.81
1231.05
1262.05
1291.83
1320.4
1347.77
1373.95
1398.96
1422.82
1445.52
1467.08
1487.51
1506.79
1524.94
1541.8
1557.39
1571.92
1585.32
2744.5
15160.6
1575
1538.45
1497
1451.13
1401.37
1348.13
1291.79
1232.76
1171.51
1108.63
1044.63
980.25
916.922
856.651
801.853
755.489
720.203
696.993
684.426
679.257
677.96
677.709
676.734
674.044
669.284
662.482
653.825
643.546
631.88
619.047
605.239
590.62
575.323
559.453
543.081
526.244
508.882
513.03
538.421
562.483
585.151
606.394
626.135
644.281
660.742
675.451
688.391
699.622
709.305
717.726
725.314
732.551
739.911
747.777
756.336
765.5
774.882
783.858
791.685
797.631
801.098
801.633
798.93
792.832
783.3
770.383
754.193
734.881
712.623
715.495
753.283
798.329
842.633
886.09
928.609
970.12
1010.57
1049.91
1088.12
1125.18
1161.07
1195.81
1229.38
1261.8
1293.07
1323.22
1352.25
1380.19
1407.04
1432.83
1457.58
1481.31
1504.02
1525.73
1546.3
1565.77
1584.46
1602.25
4326.64
13781.5
1585.67
1544.39
1499.47
1450.82
1398.53
1342.77
1283.79
1221.84
1157.32
1090.68
1022.37
953.295
885.327
821.089
763.833
716.816
682.386
660.78
649.832
646.023
645.945
647.057
647.796
647.336
645.219
641.29
635.573
628.174
619.236
608.913
597.359
584.713
571.101
556.624
541.357
525.334
508.574
512.325
536.155
558.481
579.271
598.464
615.998
631.816
645.884
658.204
668.836
677.917
685.677
692.451
698.659
704.748
711.176
718.327
726.4
735.325
744.739
754.035
762.48
769.327
773.916
775.697
774.286
769.471
761.176
749.428
734.32
715.994
694.619
677.936
695.076
740.414
785.315
829.657
873.336
916.266
958.379
999.621
1039.95
1079.34
1117.78
1155.24
1191.73
1227.25
1261.81
1295.42
1328.1
1359.88
1390.76
1420.8
1450
1478.4
1506.01
1532.83
1558.66
1583.47
1607.41
1629.91
7083.92
11176.4
1604.7
1558.7
1508.96
1455.56
1398.58
1338.17
1274.51
1207.86
1138.63
1067.34
994.532
921.498
850.524
784.608
727.237
681.503
649.104
629.541
620.248
617.71
618.7
620.857
622.729
623.595
623.087
621.033
617.386
612.172
605.457
597.329
587.881
577.209
565.402
552.538
538.682
523.877
508.127
511.635
534.082
554.957
574.217
591.819
607.724
621.903
634.354
645.107
654.244
661.913
668.345
673.866
678.888
683.885
689.332
695.62
702.949
711.251
720.168
729.099
737.31
744.049
748.647
750.571
749.446
745.043
737.26
726.089
711.596
693.893
673.126
649.462
649.815
685.682
730.895
775.835
820.394
864.481
908.021
950.953
993.23
1034.82
1075.68
1115.82
1155.2
1193.84
1231.73
1268.89
1305.31
1341.02
1376.03
1410.35
1444
1476.95
1509.2
1540.66
1571.03
1600.15
1628.05
1653.94
10411
7940.23
1617.03
1567.18
1513.06
1454.97
1393.17
1327.92
1259.53
1188.39
1115.03
1040.13
964.447
889.619
818.157
753.077
697.576
654.312
624.454
607.047
599.337
597.905
599.745
602.698
605.415
607.173
607.626
606.632
604.155
600.214
594.851
588.124
580.094
570.822
560.367
548.783
536.117
522.401
507.647
510.897
531.841
551.166
568.836
584.814
599.074
611.605
622.423
631.579
639.177
645.385
650.452
654.714
658.592
662.558
667.082
672.546
679.145
686.812
695.198
703.711
711.624
718.184
722.715
724.674
723.671
719.465
711.937
701.065
686.898
669.532
649.096
625.743
612.378
633.898
679.28
724.658
769.922
814.981
859.757
904.185
948.213
991.799
1034.91
1077.53
1119.63
1161.19
1202.22
1242.7
1282.64
1322.02
1360.84
1399.08
1436.71
1473.68
1509.9
1545.19
1579.13
1611.56
1642.33
1670.43
13678
4652.19
1620.77
1568
1510.3
1448.24
1382.32
1312.97
1240.66
1165.93
1089.47
1012.02
934.513
858.834
787.562
723.67
670.147
629.264
601.709
586.142
579.698
579.089
581.534
585.068
588.465
591.048
592.471
592.569
591.282
588.599
584.54
579.138
572.433
564.469
555.287
544.931
533.437
520.833
507.133
510.158
529.627
547.468
563.648
578.137
590.921
602
611.403
619.193
625.481
630.445
634.333
637.482
640.305
643.266
646.828
651.366
657.078
663.903
671.504
679.306
686.595
692.628
696.733
698.365
697.128
692.77
685.16
674.262
660.108
642.782
622.397
599.089
574.972
585.316
630.78
676.481
722.314
768.184
814.014
859.736
905.295
950.644
995.744
1040.56
1085.06
1129.23
1173.03
1216.46
1259.48
1302.06
1344.16
1385.74
1426.71
1466.97
1506.34
1544.62
1581.24
1616
1648.64
1678
16652.6
1664.4
1616.48
1561.4
1500.7
1435.34
1366.05
1293.45
1218.15
1140.8
1062.23
983.212
904.866
829.229
758.913
696.811
645.686
607.444
582.344
568.732
563.654
563.934
566.976
570.982
574.843
577.948
579.982
580.794
580.317
578.533
575.445
571.069
565.43
558.555
550.472
541.21
530.8
519.262
506.61
509.412
527.393
543.749
558.452
571.478
582.82
592.485
600.511
606.968
611.977
615.718
618.445
620.492
622.27
624.236
626.845
630.464
635.288
641.258
648.042
655.077
661.657
667.047
670.578
671.706
670.032
665.3
657.369
646.196
631.804
614.265
593.681
570.177
543.891
545.722
584.667
630.611
676.902
723.449
770.171
816.998
863.872
910.74
957.551
1004.27
1050.84
1097.25
1143.44
1189.38
1235.02
1280.31
1325.17
1369.51
1413.21
1456.12
1498.02
1538.62
1577.13
1613.77
1647.44
1677.16
18016
1657.84
1606.29
1548.24
1484.8
1416.84
1345.11
1270.27
1193
1114.05
1034.3
954.579
876.137
801.115
732.117
671.947
623.158
587.336
564.392
552.442
548.507
549.537
553.112
557.572
561.9
565.533
568.174
569.674
569.963
569.011
566.814
563.378
558.715
552.844
545.783
537.556
528.186
517.692
506.086
508.668
525.172
540.067
553.327
564.934
574.885
583.196
589.908
595.099
598.89
601.465
603.076
604.055
604.805
605.774
607.409
610.069
613.946
618.983
624.856
631.012
636.754
641.357
644.157
644.61
642.319
637.022
628.575
616.928
602.097
584.145
563.168
539.279
512.606
507.979
540.482
586.584
633.225
680.312
727.763
775.508
823.48
871.619
919.871
968.187
1016.51
1064.8
1113
1161.04
1208.85
1256.37
1303.5
1350.1
1396.04
1441.11
1485.04
1527.41
1567.49
1605.26
1639.42
1668.58
17662.9
1643.83
1589.66
1529.36
1463.9
1394.13
1320.75
1244.49
1166.05
1086.26
1006.03
926.203
848.171
774.149
706.724
648.606
602.16
568.688
547.808
537.45
534.622
536.392
540.487
545.372
550.114
554.198
557.351
559.432
560.372
560.139
558.72
556.115
552.33
547.374
541.26
534.006
525.63
516.146
505.567
507.927
522.962
536.405
548.237
558.444
567.026
574.004
579.424
583.367
585.957
587.378
587.882
587.796
587.515
587.483
588.133
589.821
592.73
596.806
601.729
606.951
611.786
615.514
617.477
617.136
614.094
608.088
598.972
586.694
571.264
552.741
531.212
506.787
479.585
470.025
497.7
543.878
590.763
638.261
686.29
734.773
783.639
832.824
882.266
931.904
981.676
1031.52
1081.36
1131.12
1180.72
1230.05
1279
1327.42
1375.12
1421.87
1467.36
1511.11
1552.4
1591.12
1625.89
2191.17
16917.1
1624.67
1568.49
1506.52
1439.64
1368.64
1294.24
1217.16
1138.16
1058.09
977.872
898.382
821.116
748.327
682.583
626.505
582.286
550.983
531.969
523.039
521.213
523.672
528.276
533.593
538.76
543.301
546.963
549.61
551.175
551.625
550.942
549.121
546.164
542.076
536.865
530.544
523.128
514.629
505.057
507.191
520.766
532.771
543.189
552.011
559.242
564.905
569.052
571.763
573.166
573.445
572.847
571.697
570.383
569.339
568.99
569.683
571.596
574.675
578.601
582.834
586.694
589.47
590.509
589.276
585.376
578.548
568.646
555.615
539.464
520.248
498.052
472.978
445.141
431.838
455.933
502.105
549.132
596.919
645.382
694.439
744.016
794.042
844.448
895.163
946.115
997.226
1048.41
1099.59
1150.64
1201.45
1251.88
1301.77
1350.9
1399.02
1445.82
1490.75
1533.16
1572.97
1608.94
4583.65
14919
1600.42
1543.23
1480.37
1412.73
1341.09
1266.22
1188.84
1109.74
1029.81
949.962
871.11
794.84
723.43
659.419
605.347
563.249
533.972
516.685
509.079
508.197
511.325
516.438
522.194
527.792
532.788
536.946
540.141
542.307
543.407
543.426
542.353
540.188
536.931
532.588
527.169
520.684
513.143
504.557
506.459
518.583
529.158
538.172
545.618
551.507
555.864
558.743
560.228
560.447
559.582
557.881
555.661
553.305
551.239
549.878
549.56
550.458
552.514
555.413
558.618
561.455
563.222
563.269
561.069
556.229
548.491
537.711
523.835
506.869
486.87
463.917
438.111
409.563
393.414
414.859
460.946
508.019
555.984
604.751
654.237
704.363
755.053
806.228
857.812
909.721
961.869
1014.16
1066.49
1118.74
1170.78
1222.45
1273.56
1323.91
1373.21
1421.13
1467.13
1510.56
1551.34
1588.24
6720.2
12893.3
1572.61
1515.07
1451.89
1383.99
1312.19
1237.26
1159.97
1081.13
1001.65
922.444
844.447
769.32
699.361
637.08
584.939
544.834
517.426
501.718
495.326
495.328
499.104
504.731
510.944
516.991
522.459
527.126
530.873
533.637
535.381
536.088
535.748
534.354
531.907
528.41
523.869
518.293
511.69
504.068
505.731
516.413
525.566
533.183
539.26
543.811
546.867
548.481
548.741
547.775
545.764
542.954
539.657
536.251
533.151
530.765
529.42
529.285
530.296
532.14
534.283
536.058
536.767
535.77
532.543
526.7
517.985
506.258
491.465
473.616
452.764
428.991
402.394
373.084
354.759
374.241
420.168
467.2
515.24
564.197
613.984
664.518
715.716
767.495
819.771
872.452
925.443
978.639
1031.92
1085.17
1138.23
1190.93
1243.08
1294.45
1344.75
1393.64
1440.57
1484.89
1526.5
1564.16
8619.49
11093.6
1542.49
1484.99
1421.85
1354.04
1282.41
1207.75
1130.84
1052.53
973.727
895.345
818.345
744.459
675.988
615.41
565.116
526.878
501.198
486.942
481.675
482.514
486.926
493.077
499.764
506.282
512.241
517.43
521.739
525.104
527.492
528.883
529.266
528.633
526.983
524.316
520.636
515.951
510.267
503.589
505.008
514.253
521.991
528.215
532.928
536.144
537.899
538.248
537.281
535.125
531.964
528.038
523.656
519.19
515.046
511.622
509.239
508.054
508.003
508.77
509.825
510.506
510.121
508.038
503.739
496.842
487.099
474.372
458.61
439.826
418.074
393.435
366.007
335.899
315.889
333.9
379.599
426.51
474.534
523.58
573.556
624.376
675.952
728.196
781.015
834.314
887.989
941.924
995.997
1050.07
1103.98
1157.56
1210.59
1262.84
1314.01
1363.76
1411.51
1456.6
1498.95
1537.29
10223.6
9592.87
1510.82
1453.56
1390.72
1323.27
1252.06
1177.91
1101.62
1024.03
946.078
868.659
792.765
720.185
653.212
594.294
545.756
509.259
485.172
472.252
468.03
469.666
474.705
481.39
488.573
495.585
502.057
507.789
512.674
516.652
519.691
521.769
522.874
522.998
522.137
520.291
517.461
513.653
508.871
503.12
504.287
512.103
518.43
523.265
526.615
528.498
528.951
528.033
525.835
522.486
518.167
513.118
507.643
502.107
496.909
492.438
489.004
486.759
485.63
485.302
485.247
484.809
483.301
480.099
474.691
466.704
455.894
442.128
425.359
405.603
382.916
357.381
329.095
298.168
276.824
293.707
339.115
385.834
433.764
482.809
532.878
583.88
635.722
688.312
741.553
795.341
849.566
904.108
958.835
1013.6
1068.24
1122.56
1176.35
1229.37
1281.31
1331.81
1380.3
1426.11
1469.17
1508.17
11570.2
8346.82
1478.06
1421.22
1358.86
1291.95
1221.36
1147.9
1072.39
995.683
918.716
842.37
767.664
696.427
630.946
573.638
526.764
491.89
469.271
457.581
454.332
456.731
462.393
469.625
477.326
484.856
491.863
498.159
503.638
508.244
511.943
514.715
516.546
517.427
517.353
516.321
514.333
511.391
507.498
502.659
503.57
509.961
514.881
518.329
520.317
520.866
520.015
517.828
514.395
509.847
504.364
498.185
491.609
484.995
478.735
473.207
468.713
465.396
463.177
461.741
460.559
458.981
456.328
451.981
445.438
436.332
424.425
409.591
391.788
371.034
347.39
320.938
291.78
260.024
237.588
253.573
298.634
345.097
392.862
441.831
491.909
543.003
595.017
647.854
701.413
755.584
810.251
865.289
920.558
975.905
1031.16
1086.13
1140.59
1194.29
1246.92
1298.11
1347.28
1393.77
1437.52
1477.22
12668.7
7353.1
1444.56
1388.25
1326.5
1260.28
1190.45
1117.83
1043.24
967.528
891.646
816.454
742.995
673.124
609.118
553.365
508.069
474.709
453.444
442.884
440.54
443.672
449.955
457.747
465.987
474.06
481.628
488.508
494.601
499.85
504.223
507.697
510.26
511.902
512.615
512.396
511.244
509.16
506.146
502.204
502.854
507.825
511.34
513.403
514.029
513.243
511.087
507.626
502.954
497.202
490.549
483.232
475.549
467.85
460.519
453.928
448.365
443.967
440.65
438.092
435.771
433.037
429.221
423.71
416.011
405.764
392.74
376.818
357.961
336.193
311.577
284.199
254.161
221.572
198.206
213.437
258.101
304.253
351.791
400.617
450.633
501.743
553.848
606.848
660.637
715.102
770.121
825.564
881.287
937.132
992.922
1048.46
1103.51
1157.82
1211.08
1262.91
1312.73
1359.89
1404.32
1444.73
13545.6
6572.08
1410.52
1354.83
1293.8
1228.39
1159.44
1087.77
1014.2
939.578
864.857
790.88
718.706
650.209
587.656
533.405
489.609
457.675
437.677
428.158
426.625
430.463
437.368
445.737
454.538
463.176
471.327
478.814
485.539
491.448
496.508
500.697
504
506.407
507.91
508.503
508.185
506.954
504.811
501.756
502.141
505.694
507.805
508.484
507.747
505.624
502.161
497.423
491.507
484.545
476.717
468.257
459.459
450.668
442.261
434.599
427.962
422.477
418.052
414.366
410.893
406.992
401.998
395.309
386.438
375.036
360.879
343.855
323.933
301.141
275.545
247.236
216.317
182.899
158.704
173.263
217.484
263.275
310.533
359.157
409.049
460.109
512.237
565.328
619.274
673.957
729.254
785.028
841.132
897.403
953.658
1009.69
1065.28
1120.15
1173.99
1226.43
1276.87
1324.68
1369.79
1410.93
14236.5
5975.26
1376.08
1321.1
1260.88
1196.36
1128.39
1057.76
985.293
911.838
838.336
765.617
694.754
627.627
566.491
513.675
471.292
440.695
421.914
413.421
412.624
417.134
424.652
433.602
442.977
452.198
460.951
469.061
476.436
483.02
488.781
493.696
497.749
500.929
503.225
504.633
505.147
504.766
503.488
501.313
501.428
503.565
504.275
503.569
501.469
498.008
493.233
487.215
480.051
471.875
462.865
453.256
443.337
433.449
423.961
415.223
407.506
400.927
395.39
390.567
385.936
380.858
374.676
366.797
356.744
344.174
328.876
310.741
289.747
265.926
239.348
210.109
178.313
144.074
119.108
133.031
176.771
222.157
269.087
317.459
367.171
418.124
470.215
523.335
577.374
632.213
687.722
743.762
800.183
856.817
913.479
969.961
1026.03
1081.41
1135.8
1188.82
1239.87
1288.32
1334.11
1375.99
14753.3
5549.6
1341.35
1287.15
1227.82
1164.28
1097.35
1027.84
956.549
884.316
812.079
740.654
671.115
605.348
545.589
494.138
453.072
423.696
406.038
398.566
398.515
403.683
411.805
421.337
431.294
441.112
450.482
459.234
467.274
474.55
481.025
486.679
491.492
495.453
498.55
500.776
502.124
502.592
502.175
500.873
500.717
501.439
500.746
498.655
495.191
490.388
484.3
476.998
468.582
459.186
448.99
438.227
427.183
416.192
405.617
395.799
386.998
379.322
372.666
366.701
360.905
354.643
347.266
338.188
326.945
313.202
296.755
277.505
255.435
230.584
203.028
172.863
140.198
105.148
100
100
135.961
180.904
227.463
275.537
325.022
375.817
427.817
480.911
534.987
589.922
645.586
701.836
758.518
815.461
872.479
929.361
985.869
1041.73
1096.63
1150.2
1201.84
1250.93
1297.4
1340.02
15105.9
5284.09
1306.38
1253.03
1194.66
1132.17
1066.37
998.041
927.976
857.013
786.078
715.975
647.775
583.355
524.934
474.782
434.935
406.665
390.001
383.471
384.238
390.066
398.788
408.907
419.458
429.889
439.893
449.305
458.03
466.014
473.221
479.626
485.213
489.965
493.871
496.921
499.107
500.424
500.868
500.436
500.006
499.313
497.219
493.741
488.91
482.764
475.358
466.768
457.095
446.475
435.089
423.166
410.991
398.894
387.228
376.326
366.437
357.66
349.882
342.771
335.804
328.353
319.774
309.493
297.053
282.132
264.533
244.167
221.022
195.144
166.613
135.53
102.008
100
100
100
100
139.532
185.682
233.416
282.63
333.221
385.08
438.099
492.159
547.139
602.904
659.311
716.202
773.407
830.734
887.973
944.882
1001.19
1056.58
1110.68
1162.89
1212.59
1259.74
1303.09
15293.7
5167.64
1271.2
1218.78
1161.45
1100.07
1035.46
968.361
899.57
829.917
760.316
691.558
624.709
561.628
504.513
455.604
416.905
389.653
373.841
368.055
369.654
376.166
385.513
396.244
407.415
418.484
429.149
439.244
448.676
457.388
465.345
472.52
478.894
484.45
489.175
493.057
496.087
498.258
499.564
500
500.006
499.313
497.219
493.741
488.91
482.764
475.358
466.768
457.095
446.475
435.089
423.166
410.991
398.894
387.227
376.325
366.437
357.659
349.882
342.771
335.804
328.352
319.773
309.493
297.053
282.131
264.532
244.166
221.021
195.143
166.613
135.53
102.007
100
100
100
100
139.531
185.682
233.416
282.63
333.22
385.08
438.098
492.159
547.139
602.904
659.311
716.202
773.407
830.734
887.973
944.882
1001.19
1056.58
1110.68
1162.89
1212.59
1259.74
1303.09
15293.6
5167.77
1271.2
1218.78
1161.45
1100.07
1035.46
968.361
899.57
829.917
760.316
691.558
624.708
561.628
504.512
455.603
416.904
389.652
373.84
368.054
369.654
376.165
385.512
396.243
407.414
418.483
429.148
439.244
448.676
457.388
465.344
472.52
478.893
484.45
489.175
493.057
496.087
498.258
499.564
500
500.717
501.439
500.746
498.655
495.191
490.388
484.3
476.998
468.581
459.186
448.99
438.227
427.182
416.192
405.616
395.798
386.997
379.321
372.666
366.7
360.904
354.642
347.265
338.187
326.944
313.2
296.753
277.504
255.434
230.583
203.026
172.861
140.197
105.147
100
100
135.96
180.903
227.463
275.536
325.022
375.817
427.816
480.911
534.987
589.922
645.586
701.836
758.518
815.461
872.479
929.361
985.869
1041.73
1096.63
1150.2
1201.84
1250.93
1297.4
1340.02
15105.5
5284.5
1306.39
1253.03
1194.66
1132.17
1066.37
998.042
927.976
857.013
786.078
715.974
647.774
583.355
524.933
474.781
434.934
406.664
389.999
383.47
384.236
390.064
398.786
408.906
419.457
429.887
439.892
449.304
458.029
466.013
473.22
479.626
485.212
489.964
493.87
496.92
499.107
500.424
500.868
500.436
501.428
503.565
504.275
503.569
501.469
498.007
493.233
487.215
480.051
471.874
462.865
453.256
443.337
433.449
423.96
415.222
407.506
400.927
395.389
390.566
385.935
380.857
374.675
366.796
356.743
344.173
328.875
310.74
289.746
265.924
239.347
210.108
178.312
144.073
119.107
133.03
176.77
222.156
269.086
317.458
367.171
418.124
470.214
523.335
577.374
632.212
687.722
743.762
800.183
856.817
913.479
969.961
1026.03
1081.41
1135.8
1188.82
1239.87
1288.32
1334.12
1375.99
14752.6
5550.32
1341.36
1287.15
1227.82
1164.28
1097.36
1027.85
956.551
884.318
812.08
740.655
671.116
605.348
545.588
494.138
453.071
423.695
406.036
398.565
398.514
403.682
411.803
421.336
431.292
441.111
450.48
459.233
467.273
474.549
481.025
486.678
491.491
495.452
498.549
500.775
502.124
502.592
502.175
500.873
502.141
505.694
507.805
508.484
507.747
505.624
502.161
497.423
491.507
484.545
476.717
468.257
459.458
450.667
442.261
434.599
427.962
422.476
418.052
414.365
410.893
406.992
401.997
395.308
386.437
375.035
360.878
343.854
323.932
301.14
275.544
247.235
216.316
182.898
158.703
173.262
217.483
263.274
310.532
359.157
409.049
460.109
512.237
565.328
619.274
673.957
729.254
785.029
841.133
897.403
953.658
1009.69
1065.28
1120.15
1173.99
1226.43
1276.87
1324.68
1369.79
1410.93
14235.4
5976.34
1376.09
1321.11
1260.89
1196.37
1128.39
1057.76
985.296
911.84
838.338
765.619
694.755
627.628
566.491
513.675
471.292
440.694
421.912
413.419
412.622
417.132
424.65
433.601
442.975
452.197
460.949
469.06
476.435
483.02
488.78
493.695
497.748
500.928
503.225
504.633
505.147
504.766
503.488
501.313
502.854
507.825
511.34
513.403
514.029
513.242
511.087
507.626
502.954
497.201
490.549
483.232
475.548
467.849
460.519
453.927
448.365
443.966
440.649
438.092
435.77
433.037
429.22
423.709
416.01
405.763
392.739
376.817
357.96
336.192
311.576
284.198
254.159
221.571
198.205
213.436
258.1
304.252
351.79
400.616
450.633
501.742
553.848
606.848
660.637
715.102
770.122
825.565
881.288
937.133
992.923
1048.46
1103.51
1157.82
1211.08
1262.92
1312.73
1359.89
1404.32
1444.73
13544.1
6573.61
1410.52
1354.84
1293.81
1228.39
1159.44
1087.77
1014.2
939.581
864.86
790.882
718.709
650.211
587.658
533.406
489.609
457.674
437.676
428.156
426.623
430.461
437.366
445.735
454.536
463.175
471.326
478.812
485.538
491.447
496.507
500.696
503.999
506.406
507.909
508.503
508.184
506.954
504.811
501.756
503.57
509.961
514.881
518.329
520.317
520.865
520.015
517.828
514.395
509.847
504.364
498.184
491.609
484.995
478.734
473.207
468.713
465.395
463.177
461.74
460.558
458.98
456.327
451.98
445.437
436.331
424.424
409.59
391.787
371.033
347.388
320.937
291.779
260.023
237.587
253.572
298.633
345.097
392.862
441.831
491.909
543.003
595.017
647.855
701.413
755.584
810.252
865.29
920.559
975.906
1031.16
1086.13
1140.59
1194.29
1246.92
1298.11
1347.28
1393.78
1437.52
1477.22
12666.5
7355.17
1444.57
1388.26
1326.51
1260.28
1190.46
1117.84
1043.24
967.533
891.65
816.458
742.998
673.127
609.12
553.367
508.069
474.708
453.443
442.882
440.538
443.67
449.953
457.745
465.985
474.058
481.626
488.507
494.6
499.849
504.222
507.697
510.26
511.901
512.614
512.395
511.243
509.16
506.146
502.204
504.287
512.104
518.43
523.265
526.615
528.498
528.951
528.033
525.835
522.486
518.167
513.118
507.643
502.107
496.909
492.438
489.004
486.758
485.63
485.302
485.247
484.808
483.301
480.098
474.691
466.703
455.893
442.127
425.358
405.602
382.915
357.38
329.094
298.167
276.823
293.707
339.115
385.834
433.764
482.809
532.878
583.88
635.722
688.312
741.553
795.342
849.567
904.11
958.836
1013.6
1068.24
1122.56
1176.35
1229.37
1281.31
1331.82
1380.3
1426.11
1469.17
1508.18
11567.3
8349.44
1478.06
1421.23
1358.87
1291.96
1221.37
1147.91
1072.4
995.689
918.722
842.375
767.669
696.432
630.95
573.64
526.766
491.891
469.27
457.579
454.33
456.73
462.391
469.623
477.324
484.854
491.862
498.157
503.637
508.243
511.943
514.714
516.545
517.426
517.352
516.321
514.333
511.391
507.498
502.659
505.008
514.253
521.991
528.215
532.928
536.144
537.899
538.248
537.28
535.125
531.963
528.037
523.656
519.189
515.045
511.622
509.238
508.054
508.003
508.77
509.824
510.505
510.121
508.037
503.738
496.841
487.098
474.371
458.609
439.825
418.073
393.434
366.006
335.898
315.888
333.899
379.598
426.51
474.534
523.58
573.556
624.376
675.952
728.196
781.016
834.316
887.99
941.926
995.999
1050.07
1103.99
1157.56
1210.6
1262.84
1314.01
1363.76
1411.51
1456.6
1498.96
1537.29
10220.7
9595.56
1510.82
1453.57
1390.73
1323.28
1252.07
1177.92
1101.63
1024.04
946.084
868.666
792.772
720.191
653.216
594.298
545.759
509.261
485.171
472.251
468.028
469.664
474.703
481.388
488.572
495.583
502.055
507.787
512.673
516.652
519.69
521.768
522.873
522.997
522.137
520.29
517.461
513.653
508.871
503.12
505.731
516.413
525.566
533.183
539.26
543.811
546.867
548.481
548.741
547.774
545.764
542.954
539.657
536.251
533.151
530.764
529.42
529.285
530.296
532.14
534.282
536.058
536.767
535.77
532.543
526.699
517.984
506.257
491.464
473.615
452.764
428.99
402.393
373.083
354.758
374.241
420.168
467.2
515.24
564.197
613.984
664.518
715.716
767.496
819.772
872.454
925.445
978.641
1031.93
1085.17
1138.23
1190.93
1243.09
1294.45
1344.76
1393.64
1440.58
1484.89
1526.51
1564.16
8618.39
11095.2
1542.51
1485
1421.86
1354.05
1282.42
1207.76
1130.85
1052.54
973.736
895.354
818.353
744.467
675.994
615.415
565.119
526.88
501.198
486.942
481.674
482.513
486.924
493.075
499.763
506.28
512.239
517.429
521.738
525.103
527.492
528.883
529.265
528.633
526.983
524.316
520.636
515.951
510.267
503.589
506.459
518.583
529.158
538.172
545.618
551.507
555.864
558.743
560.228
560.446
559.582
557.88
555.661
553.305
551.238
549.877
549.559
550.458
552.514
555.413
558.617
561.455
563.221
563.269
561.069
556.228
548.49
537.711
523.834
506.869
486.869
463.916
438.11
409.562
393.413
414.859
460.946
508.02
555.985
604.751
654.237
704.364
755.053
806.229
857.812
909.722
961.87
1014.16
1066.49
1118.74
1170.78
1222.45
1273.57
1323.91
1373.21
1421.13
1467.13
1510.56
1551.35
1588.24
6720.23
12894.3
1572.62
1515.09
1451.91
1384.01
1312.21
1237.28
1159.98
1081.14
1001.66
922.455
844.457
769.33
699.369
637.086
584.943
544.837
517.427
501.718
495.325
495.326
499.102
504.73
510.942
516.989
522.458
527.125
530.872
533.636
535.381
536.088
535.747
534.354
531.907
528.41
523.869
518.293
511.69
504.068
507.191
520.766
532.771
543.189
552.011
559.241
564.905
569.051
571.763
573.166
573.444
572.847
571.697
570.383
569.338
568.99
569.683
571.596
574.675
578.601
582.834
586.694
589.47
590.509
589.276
585.376
578.547
568.645
555.614
539.463
520.247
498.051
472.977
445.14
431.837
455.933
502.105
549.132
596.92
645.382
694.439
744.017
794.043
844.449
895.164
946.115
997.227
1048.41
1099.59
1150.64
1201.45
1251.89
1301.77
1350.9
1399.03
1445.82
1490.76
1533.17
1572.98
1608.94
4584.96
14919.9
1600.43
1543.24
1480.38
1412.74
1341.11
1266.23
1188.85
1109.76
1029.82
949.975
871.121
794.85
723.439
659.426
605.353
563.253
533.974
516.686
509.078
508.196
511.323
516.437
522.193
527.79
532.787
536.945
540.14
542.306
543.407
543.425
542.353
540.188
536.931
532.588
527.169
520.684
513.143
504.557
507.927
522.962
536.405
548.237
558.443
567.026
574.004
579.424
583.366
585.957
587.378
587.882
587.795
587.515
587.482
588.133
589.821
592.73
596.806
601.729
606.951
611.785
615.514
617.477
617.136
614.093
608.087
598.972
586.693
571.263
552.74
531.212
506.786
479.584
470.025
497.7
543.879
590.763
638.262
686.291
734.774
783.64
832.825
882.267
931.905
981.676
1031.52
1081.36
1131.12
1180.72
1230.05
1279
1327.42
1375.12
1421.87
1467.36
1511.11
1552.4
1591.13
1625.9
2195.14
16913.4
1624.68
1568.5
1506.53
1439.66
1368.66
1294.26
1217.18
1138.18
1058.1
977.888
898.394
821.126
748.336
682.592
626.512
582.291
550.986
531.971
523.039
521.213
523.671
528.275
533.591
538.759
543.3
546.962
549.609
551.175
551.624
550.941
549.121
546.164
542.076
536.865
530.544
523.128
514.629
505.057
508.668
525.172
540.067
553.327
564.934
574.885
583.196
589.908
595.098
598.89
601.465
603.076
604.055
604.804
605.774
607.408
610.069
613.945
618.982
624.856
631.012
636.754
641.357
644.157
644.61
642.319
637.021
628.575
616.927
602.096
584.145
563.167
539.278
512.605
507.979
540.483
586.585
633.225
680.312
727.764
775.508
823.48
871.619
919.871
968.187
1016.51
1064.8
1113
1161.04
1208.85
1256.37
1303.5
1350.1
1396.04
1441.11
1485.04
1527.41
1567.49
1605.26
1639.42
1668.59
17662.6
1643.84
1589.67
1529.37
1463.92
1394.14
1320.77
1244.5
1166.07
1086.28
1006.05
926.222
848.191
774.165
706.737
648.615
602.166
568.692
547.81
537.45
534.622
536.391
540.486
545.371
550.113
554.197
557.35
559.431
560.372
560.139
558.72
556.115
552.33
547.374
541.26
534.006
525.63
516.146
505.567
509.412
527.393
543.749
558.452
571.478
582.82
592.485
600.51
606.968
611.977
615.718
618.444
620.492
622.269
624.236
626.844
630.464
635.288
641.258
648.042
655.077
661.657
667.047
670.578
671.706
670.032
665.299
657.369
646.196
631.804
614.264
593.68
570.177
543.891
545.722
584.668
630.611
676.903
723.45
770.171
816.999
863.873
910.74
957.551
1004.27
1050.84
1097.25
1143.44
1189.38
1235.02
1280.31
1325.16
1369.51
1413.21
1456.12
1498.02
1538.62
1577.13
1613.77
1647.45
1677.17
18016.3
1657.85
1606.31
1548.26
1484.81
1416.85
1345.12
1270.28
1193.01
1114.06
1034.32
954.595
876.152
801.127
732.128
671.956
623.166
587.341
564.395
552.443
548.507
549.536
553.111
557.571
561.899
565.532
568.173
569.674
569.962
569.011
566.814
563.378
558.715
552.844
545.783
537.557
528.186
517.692
506.086
510.158
529.627
547.468
563.648
578.137
590.921
602
611.403
619.192
625.481
630.444
634.333
637.482
640.305
643.266
646.828
651.366
657.078
663.903
671.504
679.306
686.595
692.628
696.733
698.365
697.128
692.77
685.16
674.261
660.108
642.781
622.396
599.089
574.972
585.317
630.781
676.482
722.314
768.185
814.014
859.736
905.295
950.644
995.744
1040.56
1085.06
1129.22
1173.03
1216.46
1259.47
1302.06
1344.16
1385.74
1426.71
1466.97
1506.34
1544.62
1581.24
1616
1648.64
1678
16652.4
1664.41
1616.49
1561.42
1500.71
1435.35
1366.07
1293.47
1218.16
1140.82
1062.24
983.226
904.881
829.244
758.926
696.821
645.695
607.45
582.348
568.734
563.654
563.933
566.975
570.981
574.842
577.947
579.982
580.793
580.317
578.533
575.445
571.069
565.43
558.555
550.472
541.21
530.8
519.262
506.61
510.897
531.841
551.166
568.836
584.814
599.074
611.605
622.423
631.579
639.177
645.385
650.451
654.714
658.592
662.558
667.082
672.546
679.145
686.812
695.198
703.711
711.624
718.184
722.715
724.674
723.671
719.465
711.937
701.065
686.897
669.531
649.096
625.742
612.378
633.9
679.282
724.659
769.923
814.982
859.758
904.185
948.213
991.8
1034.91
1077.53
1119.62
1161.19
1202.22
1242.7
1282.64
1322.02
1360.84
1399.08
1436.71
1473.68
1509.9
1545.19
1579.13
1611.56
1642.33
1670.44
13676.3
4653.8
1620.79
1568.01
1510.31
1448.25
1382.33
1312.99
1240.68
1165.95
1089.49
1012.03
934.527
858.847
787.574
723.681
670.156
629.271
601.712
586.144
579.698
579.089
581.533
585.068
588.464
591.048
592.47
592.569
591.282
588.599
584.54
579.138
572.434
564.469
555.288
544.931
533.437
520.833
507.133
511.635
534.082
554.957
574.217
591.819
607.724
621.903
634.354
645.107
654.244
661.912
668.345
673.866
678.888
683.885
689.332
695.62
702.949
711.251
720.168
729.099
737.31
744.05
748.647
750.571
749.446
745.043
737.259
726.089
711.596
693.892
673.125
649.461
649.816
685.684
730.896
775.837
820.396
864.482
908.022
950.954
993.23
1034.82
1075.68
1115.81
1155.2
1193.84
1231.73
1268.88
1305.31
1341.02
1376.03
1410.35
1443.99
1476.95
1509.2
1540.66
1571.03
1600.15
1628.06
1653.95
10408.3
7942.71
1617.04
1567.19
1513.07
1454.98
1393.18
1327.94
1259.55
1188.4
1115.05
1040.15
964.461
889.633
818.17
753.089
697.585
654.319
624.459
607.049
599.338
597.905
599.745
602.697
605.414
607.173
607.626
606.632
604.155
600.214
594.851
588.125
580.095
570.822
560.367
548.783
536.117
522.401
507.647
512.325
536.155
558.481
579.271
598.464
615.998
631.816
645.884
658.204
668.836
677.917
685.677
692.451
698.659
704.748
711.176
718.327
726.4
735.326
744.739