/*--------------------------------*- C++ -*----------------------------------*\
  =========                 |
  \\      /  F ield         | OpenFOAM: The Open Source CFD Toolbox
   \\    /   O peration     | Website:  https://openfoam.org
    \\  /    A nd           | Version:  8
     \\/     M anipulation  |
\*---------------------------------------------------------------------------*/
FoamFile
{
    version     2.0;
    format      ascii;
    class       volScalarField;
    location    "1000/fluid";
    object      rho;
}
// * * * * * * * * * * * * * * * * * * * * * * * * * * * * * * * * * * * * * //

dimensions      [1 -3 0 0 0 0 0];

internalField   nonuniform List<scalar> 
4000
(
0.658526
0.658499
0.658455
0.65838
0.658255
0.658047
0.657706
0.657149
0.656249
0.654816
0.652572
0.649127
0.643967
0.636472
0.625975
0.611896
0.59392
0.572167
0.547266
0.520261
0.492378
0.464772
0.438339
0.413653
0.390992
0.370416
0.351839
0.335104
0.320018
0.306388
0.294033
0.28279
0.272521
0.263109
0.254457
0.246468
0.239036
0.232101
0.225612
0.219527
0.213807
0.208421
0.203344
0.198551
0.194025
0.18975
0.185711
0.181898
0.178303
0.174918
0.171739
0.168763
0.165991
0.163426
0.161074
0.158949
0.157068
0.15548
0.154214
0.153275
0.152782
0.152849
0.154201
0.163073
0.173561
0.185881
0.200328
0.217296
0.237296
0.261
0.289276
0.323246
0.364349
0.414534
0.476169
0.551428
0.641462
0.744689
0.854592
0.95928
1.04571
1.10681
1.14428
1.16467
1.17489
1.17977
1.18202
1.18303
1.18348
1.18368
1.18376
1.1838
1.18381
1.18382
1.18382
1.18382
1.18382
1.18382
1.18382
1.18382
0.658526
0.658499
0.658454
0.658379
0.658254
0.658046
0.657703
0.657143
0.656241
0.654806
0.652563
0.649131
0.644007
0.636586
0.626221
0.612345
0.59464
0.573201
0.548614
0.52187
0.494164
0.466635
0.440189
0.415421
0.392635
0.37191
0.353178
0.336292
0.321065
0.307306
0.294835
0.283489
0.273129
0.263635
0.254911
0.246859
0.239372
0.232387
0.225855
0.219729
0.213974
0.208556
0.20345
0.198631
0.194082
0.189785
0.185728
0.181898
0.178288
0.174889
0.171698
0.168712
0.165931
0.163358
0.161
0.158869
0.156984
0.155393
0.154126
0.153187
0.152694
0.152768
0.15486
0.163898
0.174582
0.187144
0.201894
0.219247
0.239744
0.264095
0.293218
0.328302
0.370871
0.422995
0.487085
0.565203
0.658097
0.763306
0.873118
0.974998
1.05678
1.11328
1.14749
1.1661
1.17548
1.18
1.18211
1.18307
1.18349
1.18368
1.18376
1.1838
1.18381
1.18382
1.18382
1.18382
1.18382
1.18382
1.18382
1.18382
0.658526
0.658499
0.658454
0.658379
0.658253
0.658044
0.6577
0.657139
0.656235
0.654799
0.652559
0.649137
0.644041
0.636678
0.626413
0.612689
0.595189
0.573999
0.549673
0.523172
0.495655
0.468246
0.441848
0.417067
0.394219
0.373402
0.35456
0.337556
0.322212
0.308339
0.295761
0.284315
0.273861
0.264282
0.255479
0.247356
0.239805
0.232762
0.226174
0.219999
0.214197
0.208737
0.203591
0.198737
0.194154
0.189827
0.185741
0.181887
0.178254
0.174835
0.171626
0.168624
0.165828
0.163243
0.160875
0.158736
0.156845
0.155253
0.153985
0.153049
0.152567
0.152656
0.156057
0.165319
0.176289
0.189209
0.204408
0.222324
0.243532
0.268778
0.299034
0.335544
0.379906
0.434268
0.500961
0.581773
0.676866
0.782848
0.891145
0.989262
1.06634
1.11878
1.15028
1.16741
1.17606
1.18025
1.18221
1.18311
1.18351
1.18369
1.18376
1.1838
1.18381
1.18382
1.18382
1.18382
1.18382
1.18382
1.18382
1.18382
0.658526
0.658499
0.658454
0.658379
0.658254
0.658045
0.657702
0.657144
0.656245
0.654819
0.652599
0.649211
0.644172
0.636895
0.626754
0.613197
0.595901
0.574932
0.550822
0.524503
0.497114
0.469773
0.443386
0.418568
0.395652
0.374746
0.355806
0.3387
0.323254
0.309285
0.296614
0.285081
0.274547
0.264892
0.256017
0.24783
0.240219
0.23312
0.226481
0.220257
0.214409
0.208906
0.20372
0.198829
0.194211
0.189851
0.185736
0.181854
0.178196
0.174755
0.171526
0.168506
0.165697
0.163099
0.160722
0.158576
0.156681
0.155092
0.153831
0.152906
0.152438
0.152552
0.157574
0.167084
0.178375
0.191701
0.207408
0.225956
0.247948
0.274172
0.305642
0.343653
0.389878
0.446519
0.515801
0.599228
0.696381
0.802977
0.909649
1.00399
1.07639
1.12473
1.15343
1.16894
1.17677
1.18057
1.18235
1.18317
1.18354
1.1837
1.18377
1.1838
1.18381
1.18382
1.18382
1.18382
1.18382
1.18382
1.18382
1.18382
0.658526
0.658499
0.658455
0.65838
0.658255
0.658048
0.657707
0.657152
0.656259
0.654845
0.652644
0.649288
0.644299
0.637098
0.627066
0.613652
0.596528
0.575748
0.55182
0.525654
0.498373
0.471088
0.444708
0.419859
0.396883
0.3759
0.356875
0.339681
0.324149
0.310097
0.297347
0.285741
0.275137
0.265416
0.25648
0.248236
0.240574
0.233426
0.22674
0.220471
0.214582
0.20904
0.203817
0.19889
0.194239
0.189849
0.185706
0.181798
0.178117
0.174655
0.171408
0.168373
0.165551
0.162944
0.16056
0.158411
0.156519
0.154943
0.153692
0.152782
0.152342
0.152509
0.159196
0.168957
0.180581
0.194328
0.21056
0.229757
0.252551
0.279762
0.312447
0.351946
0.400013
0.458873
0.530607
0.616416
0.715271
0.822039
0.926727
1.01723
1.08522
1.1299
1.15614
1.17027
1.17739
1.18085
1.18247
1.18322
1.18356
1.18371
1.18377
1.1838
1.18381
1.18382
1.18382
1.18382
1.18382
1.18382
1.18382
1.18382
0.658526
0.6585
0.658455
0.658381
0.658257
0.658051
0.657713
0.657163
0.656279
0.654878
0.652699
0.649378
0.644442
0.637318
0.627391
0.614109
0.597139
0.57652
0.552741
0.526694
0.499492
0.472239
0.445852
0.420965
0.39793
0.376876
0.357774
0.340503
0.324896
0.310771
0.297954
0.286285
0.275621
0.265845
0.256856
0.248564
0.240857
0.233666
0.22694
0.220633
0.214708
0.209131
0.203875
0.198917
0.194238
0.189821
0.185653
0.181723
0.178022
0.174542
0.171281
0.168234
0.165404
0.162793
0.160408
0.158264
0.156378
0.154816
0.153578
0.152689
0.152274
0.152479
0.160684
0.170699
0.18267
0.196854
0.213619
0.233464
0.257046
0.28522
0.319081
0.360013
0.40985
0.470812
0.544841
0.632821
0.73313
0.839853
0.942494
1.02935
1.09329
1.13464
1.15867
1.17152
1.17798
1.18112
1.18259
1.18327
1.18358
1.18372
1.18378
1.1838
1.18381
1.18382
1.18382
1.18382
1.18382
1.18382
1.18382
1.18382
0.658526
0.6585
0.658456
0.658382
0.658259
0.658055
0.65772
0.657175
0.656298
0.654911
0.652753
0.649465
0.644578
0.637524
0.62769
0.614524
0.597687
0.577205
0.553552
0.527603
0.500461
0.47323
0.44683
0.421904
0.398813
0.377694
0.358523
0.341183
0.325509
0.311323
0.298447
0.286723
0.276009
0.266185
0.257152
0.248818
0.241072
0.233846
0.227085
0.220746
0.214789
0.209183
0.203899
0.198915
0.194212
0.189772
0.185583
0.181635
0.177917
0.174424
0.171152
0.168099
0.165265
0.162655
0.160278
0.158147
0.15628
0.154758
0.153524
0.152683
0.152318
0.152563
0.161419
0.171963
0.184426
0.199116
0.21644
0.236931
0.261279
0.290375
0.325354
0.367645
0.419157
0.482087
0.558229
0.648154
0.749656
0.856105
0.956633
1.04002
1.1003
1.13872
1.16084
1.17259
1.17849
1.18135
1.1827
1.18332
1.1836
1.18373
1.18378
1.1838
1.18381
1.18382
1.18382
1.18382
1.18382
1.18382
1.18382
1.18382
0.658526
0.6585
0.658456
0.658383
0.658261
0.658059
0.657727
0.657186
0.656318
0.654944
0.652806
0.649549
0.644706
0.637715
0.627965
0.614901
0.598179
0.577813
0.554264
0.528393
0.501296
0.474077
0.447659
0.422694
0.399551
0.378372
0.359139
0.341739
0.326008
0.311767
0.298842
0.287071
0.276313
0.266449
0.257377
0.249008
0.241231
0.233973
0.227183
0.220816
0.214833
0.209202
0.203895
0.19889
0.194166
0.189708
0.185502
0.181538
0.177808
0.174305
0.171025
0.167968
0.165135
0.16253
0.160164
0.158052
0.156225
0.154753
0.153594
0.152872
0.152694
0.15324
0.16241
0.173302
0.186148
0.20127
0.219094
0.240172
0.265224
0.295171
0.331183
0.374737
0.427803
0.492545
0.570613
0.66226
0.764729
0.870751
0.9692
1.04939
1.10639
1.14226
1.16272
1.17353
1.17894
1.18156
1.18279
1.18336
1.18362
1.18373
1.18378
1.18381
1.18381
1.18382
1.18382
1.18382
1.18382
1.18382
1.18382
1.18382
0.658526
0.6585
0.658457
0.658385
0.658263
0.658063
0.657733
0.657197
0.656336
0.654974
0.652854
0.649625
0.644822
0.637887
0.628209
0.615234
0.59861
0.578343
0.554879
0.529071
0.502008
0.474794
0.448357
0.423354
0.400163
0.378931
0.359644
0.342191
0.326409
0.312122
0.299153
0.287342
0.276548
0.266649
0.257545
0.249147
0.241342
0.234059
0.227245
0.220854
0.21485
0.209198
0.203872
0.198848
0.194108
0.189634
0.185415
0.181439
0.177699
0.174189
0.170904
0.167845
0.165013
0.162414
0.160059
0.157965
0.156171
0.154739
0.15364
0.153011
0.152983
0.154031
0.163469
0.174649
0.18782
0.203317
0.22158
0.243186
0.268874
0.299596
0.336554
0.381271
0.435764
0.502155
0.581951
0.675098
0.778323
0.883802
0.980238
1.0575
1.11162
1.14527
1.16431
1.17432
1.17932
1.18174
1.18287
1.1834
1.18363
1.18374
1.18379
1.18381
1.18382
1.18382
1.18382
1.18382
1.18382
1.18382
1.18382
1.18382
0.658526
0.658501
0.658458
0.658386
0.658265
0.658066
0.657739
0.657207
0.656353
0.655001
0.652898
0.649692
0.644925
0.638038
0.628423
0.615524
0.598984
0.578799
0.555406
0.529648
0.502611
0.475397
0.44894
0.423902
0.400667
0.379388
0.360054
0.342554
0.32673
0.312402
0.299396
0.287552
0.276726
0.266798
0.257668
0.249245
0.241417
0.234112
0.227277
0.220868
0.214846
0.209177
0.203835
0.198797
0.194043
0.189557
0.185327
0.181342
0.177594
0.174078
0.17079
0.167728
0.164897
0.162301
0.159951
0.157866
0.156085
0.154663
0.15357
0.152935
0.152873
0.154931
0.164566
0.175975
0.189415
0.20523
0.223877
0.245945
0.272199
0.303614
0.341421
0.387192
0.442979
0.510857
0.592196
0.686645
0.790453
0.895318
0.989857
1.06449
1.11607
1.14782
1.16566
1.175
1.17964
1.18189
1.18294
1.18343
1.18365
1.18375
1.18379
1.18381
1.18382
1.18382
1.18382
1.18382
1.18382
1.18382
1.18382
1.18382
0.658526
0.658501
0.658458
0.658387
0.658267
0.658069
0.657745
0.657216
0.656368
0.655025
0.652936
0.649752
0.645015
0.63817
0.628608
0.615773
0.599303
0.579187
0.555852
0.530135
0.503116
0.4759
0.449423
0.424354
0.40108
0.379759
0.360384
0.342845
0.326983
0.312622
0.299585
0.287711
0.27686
0.266908
0.257755
0.249311
0.241464
0.234141
0.22729
0.220866
0.214828
0.209146
0.203791
0.198741
0.193976
0.189481
0.185243
0.181251
0.177497
0.173976
0.170685
0.167622
0.164791
0.162197
0.15985
0.157769
0.155994
0.154576
0.153486
0.152851
0.152783
0.155839
0.165632
0.177231
0.190899
0.206991
0.225973
0.248451
0.275208
0.307241
0.345809
0.392524
0.449469
0.51867
0.601366
0.696928
0.801175
0.90539
0.998169
1.07046
1.11985
1.14998
1.1668
1.17556
1.17991
1.18201
1.183
1.18345
1.18366
1.18375
1.18379
1.18381
1.18382
1.18382
1.18382
1.18382
1.18382
1.18382
1.18382
1.18382
0.658526
0.658501
0.658459
0.658387
0.658269
0.658072
0.657749
0.657224
0.656381
0.655046
0.652969
0.649803
0.645092
0.638282
0.628766
0.615985
0.599573
0.579513
0.556226
0.530541
0.503536
0.476315
0.44982
0.424722
0.401415
0.380059
0.360648
0.343075
0.327183
0.312792
0.299729
0.287832
0.276958
0.266987
0.257815
0.249354
0.241492
0.234154
0.22729
0.220852
0.214803
0.20911
0.203745
0.198686
0.193912
0.18941
0.185165
0.181167
0.17741
0.173886
0.170593
0.16753
0.1647
0.162108
0.159765
0.157688
0.155918
0.154504
0.153416
0.152782
0.15271
0.156667
0.1666
0.178366
0.192233
0.208567
0.227842
0.25068
0.277878
0.310455
0.349694
0.39725
0.455227
0.525597
0.609476
0.705983
0.81055
0.914118
1.00529
1.07553
1.12303
1.15178
1.16775
1.17603
1.18014
1.18212
1.18305
1.18348
1.18367
1.18376
1.18379
1.18381
1.18382
1.18382
1.18382
1.18382
1.18382
1.18382
1.18382
1.18382
0.658526
0.658501
0.658459
0.658388
0.65827
0.658074
0.657753
0.657231
0.656392
0.655064
0.652997
0.649846
0.645158
0.638377
0.628899
0.616162
0.599799
0.579785
0.556536
0.530876
0.503881
0.476656
0.450144
0.425021
0.401686
0.380299
0.360858
0.343257
0.327338
0.312924
0.299839
0.287923
0.277031
0.267043
0.257856
0.249381
0.241506
0.234157
0.227281
0.220834
0.214775
0.209073
0.2037
0.198634
0.193854
0.189346
0.185096
0.181095
0.177335
0.173809
0.170516
0.167454
0.164625
0.162036
0.159697
0.157623
0.155858
0.154449
0.153365
0.152731
0.152657
0.157384
0.167447
0.179362
0.193405
0.209948
0.229478
0.252628
0.280212
0.313267
0.353095
0.40139
0.460271
0.531658
0.616559
0.713859
0.818654
0.921598
1.01135
1.0798
1.12569
1.15329
1.16854
1.17642
1.18033
1.18221
1.18309
1.18349
1.18368
1.18376
1.18379
1.18381
1.18382
1.18382
1.18382
1.18382
1.18382
1.18382
1.18382
1.18382
0.658526
0.658501
0.658459
0.658389
0.658271
0.658076
0.657757
0.657236
0.656401
0.655079
0.653021
0.649883
0.645212
0.638456
0.629009
0.616309
0.599985
0.580009
0.556791
0.53115
0.504162
0.476931
0.450405
0.425261
0.401901
0.380489
0.361023
0.343399
0.327459
0.313025
0.299923
0.28799
0.277084
0.267082
0.257883
0.249397
0.241512
0.234154
0.227269
0.220813
0.214748
0.209039
0.20366
0.198588
0.193803
0.189291
0.185038
0.181035
0.177273
0.173747
0.170454
0.167394
0.164568
0.161982
0.159646
0.157576
0.155816
0.154411
0.15333
0.152697
0.152618
0.157994
0.168172
0.180217
0.194413
0.211137
0.230888
0.254307
0.282223
0.315688
0.356025
0.404959
0.464619
0.536881
0.622651
0.72061
0.825562
0.927929
1.01643
1.08336
1.1279
1.15453
1.16919
1.17675
1.18048
1.18228
1.18312
1.18351
1.18368
1.18376
1.1838
1.18381
1.18382
1.18382
1.18382
1.18382
1.18382
1.18382
1.18382
1.18382
0.658526
0.658501
0.65846
0.658389
0.658272
0.658078
0.657759
0.657241
0.656409
0.655091
0.65304
0.649912
0.645256
0.63852
0.629098
0.616428
0.600136
0.58019
0.556996
0.531371
0.504387
0.477151
0.450612
0.425451
0.402071
0.380638
0.361152
0.343509
0.327552
0.313102
0.299986
0.28804
0.277122
0.26711
0.257901
0.249407
0.241513
0.234148
0.227257
0.220795
0.214723
0.209009
0.203626
0.19855
0.193762
0.189247
0.184992
0.180988
0.177226
0.173701
0.170409
0.167351
0.164527
0.161944
0.159612
0.157546
0.155791
0.15439
0.15331
0.152675
0.152591
0.158497
0.168778
0.180937
0.195263
0.212143
0.23208
0.255728
0.283924
0.317737
0.358503
0.407978
0.468296
0.541296
0.627793
0.726294
0.831352
0.933202
1.02063
1.08628
1.1297
1.15554
1.16972
1.17701
1.18061
1.18234
1.18315
1.18352
1.18369
1.18376
1.1838
1.18381
1.18382
1.18382
1.18382
1.18382
1.18382
1.18382
1.18382
1.18382
0.658526
0.658502
0.65846
0.65839
0.658273
0.658079
0.657762
0.657245
0.656415
0.655101
0.653055
0.649936
0.645292
0.638571
0.629169
0.616523
0.600255
0.580333
0.557157
0.531544
0.504564
0.477324
0.450774
0.425599
0.402203
0.380753
0.361252
0.343594
0.327622
0.31316
0.300032
0.288077
0.27715
0.267129
0.257914
0.249413
0.241513
0.234142
0.227246
0.22078
0.214704
0.208986
0.203599
0.198521
0.193731
0.189214
0.184959
0.180954
0.177193
0.173668
0.170378
0.167322
0.164501
0.161922
0.159594
0.157533
0.155782
0.154383
0.153304
0.152666
0.152576
0.158907
0.169276
0.181532
0.195968
0.212976
0.233067
0.256902
0.28533
0.319428
0.360549
0.41047
0.47133
0.544937
0.632027
0.730961
0.836089
0.937496
1.02404
1.08864
1.13115
1.15635
1.17014
1.17722
1.18071
1.18238
1.18317
1.18353
1.18369
1.18377
1.1838
1.18381
1.18382
1.18382
1.18382
1.18382
1.18382
1.18382
1.18382
1.18382
0.658526
0.658502
0.65846
0.65839
0.658274
0.65808
0.657763
0.657248
0.656419
0.655108
0.653067
0.649955
0.645319
0.638611
0.629224
0.616595
0.600347
0.580442
0.557281
0.531676
0.504698
0.477455
0.450897
0.425711
0.402302
0.38084
0.361326
0.343656
0.327674
0.313203
0.300067
0.288104
0.27717
0.267144
0.257923
0.249417
0.241514
0.234139
0.227239
0.220769
0.214691
0.208971
0.203582
0.198502
0.193711
0.189194
0.184938
0.180933
0.177172
0.17365
0.170362
0.167308
0.164491
0.161916
0.159591
0.157534
0.155787
0.15439
0.15331
0.152667
0.152567
0.159229
0.169673
0.182009
0.196534
0.213645
0.233859
0.257843
0.286454
0.320779
0.362179
0.412454
0.473744
0.547829
0.635385
0.734653
0.839822
0.940867
1.0267
1.09047
1.13228
1.15698
1.17047
1.17738
1.18079
1.18242
1.18319
1.18354
1.1837
1.18377
1.1838
1.18381
1.18382
1.18382
1.18382
1.18382
1.18382
1.18382
1.18382
1.18382
0.658526
0.658502
0.65846
0.65839
0.658274
0.658081
0.657765
0.65725
0.656423
0.655114
0.653076
0.649968
0.645339
0.63864
0.629264
0.616648
0.600413
0.580521
0.557371
0.531772
0.504795
0.477549
0.450985
0.425791
0.402373
0.380902
0.361379
0.343701
0.327712
0.313234
0.300092
0.288123
0.277185
0.267155
0.257931
0.249422
0.241516
0.234138
0.227236
0.220764
0.214684
0.208962
0.203572
0.198491
0.1937
0.189182
0.184927
0.180923
0.177164
0.173643
0.170358
0.167308
0.164494
0.161922
0.159602
0.157548
0.155803
0.154408
0.153326
0.152676
0.152563
0.159467
0.169974
0.182373
0.196967
0.214157
0.234463
0.258558
0.287305
0.321798
0.363408
0.413945
0.475554
0.549993
0.637891
0.737399
0.842588
0.943354
1.02866
1.09183
1.13311
1.15745
1.17072
1.1775
1.18084
1.18245
1.1832
1.18354
1.1837
1.18377
1.1838
1.18381
1.18382
1.18382
1.18382
1.18382
1.18382
1.18382
1.18382
1.18382
0.658526
0.658502
0.65846
0.65839
0.658274
0.658082
0.657765
0.657251
0.656425
0.655117
0.653082
0.649977
0.645352
0.638658
0.62929
0.616682
0.600456
0.580573
0.557428
0.531834
0.504858
0.47761
0.451042
0.425843
0.402419
0.380941
0.361412
0.343729
0.327735
0.313253
0.300108
0.288136
0.277195
0.267163
0.257937
0.249426
0.241518
0.23414
0.227236
0.220763
0.214682
0.20896
0.203569
0.198488
0.193696
0.18918
0.184925
0.180923
0.177165
0.173646
0.170364
0.167316
0.164506
0.161937
0.159621
0.15757
0.155827
0.154432
0.153348
0.15269
0.152562
0.159626
0.170181
0.182627
0.197269
0.214512
0.234881
0.25905
0.287887
0.322491
0.364239
0.41495
0.476768
0.551439
0.639558
0.739217
0.84441
0.944983
1.02993
1.0927
1.13365
1.15775
1.17087
1.17758
1.18088
1.18246
1.18321
1.18355
1.1837
1.18377
1.1838
1.18381
1.18382
1.18382
1.18382
1.18382
1.18382
1.18382
1.18382
1.18382
0.658526
0.658502
0.65846
0.658391
0.658274
0.658082
0.657766
0.657252
0.656426
0.655119
0.653084
0.649981
0.645358
0.638667
0.629302
0.616698
0.600477
0.580597
0.557456
0.531863
0.504888
0.477639
0.451069
0.425867
0.40244
0.38096
0.361429
0.343743
0.327747
0.313263
0.300116
0.288142
0.2772
0.267167
0.25794
0.249429
0.241521
0.234142
0.227238
0.220765
0.214683
0.208961
0.20357
0.198489
0.193697
0.189181
0.184928
0.180926
0.17717
0.173653
0.170372
0.167327
0.164519
0.161953
0.159639
0.157591
0.15585
0.154456
0.153369
0.152705
0.152561
0.159704
0.170291
0.182764
0.197433
0.214703
0.235101
0.259306
0.288187
0.322845
0.364658
0.415452
0.477368
0.552147
0.640369
0.740094
0.845281
0.945754
1.03053
1.09311
1.1339
1.15789
1.17095
1.17762
1.1809
1.18247
1.18321
1.18355
1.1837
1.18377
1.1838
1.18381
1.18382
1.18382
1.18382
1.18382
1.18382
1.18382
1.18382
1.18382
0.658526
0.658502
0.65846
0.658391
0.658274
0.658082
0.657766
0.657252
0.656426
0.655119
0.653084
0.649981
0.645358
0.638667
0.629302
0.616698
0.600477
0.580597
0.557456
0.531863
0.504888
0.477639
0.451069
0.425867
0.40244
0.38096
0.361429
0.343743
0.327747
0.313263
0.300115
0.288142
0.2772
0.267167
0.25794
0.249429
0.241521
0.234142
0.227238
0.220765
0.214683
0.208961
0.20357
0.198489
0.193697
0.189181
0.184927
0.180926
0.17717
0.173653
0.170372
0.167327
0.164519
0.161953
0.159639
0.157591
0.15585
0.154456
0.153369
0.152705
0.152561
0.159704
0.170291
0.182764
0.197432
0.214703
0.235101
0.259306
0.288187
0.322844
0.364658
0.415452
0.477368
0.552147
0.640368
0.740094
0.845281
0.945753
1.03053
1.09311
1.1339
1.15789
1.17095
1.17762
1.1809
1.18247
1.18321
1.18355
1.1837
1.18377
1.1838
1.18381
1.18382
1.18382
1.18382
1.18382
1.18382
1.18382
1.18382
1.18382
0.658526
0.658502
0.65846
0.65839
0.658274
0.658082
0.657765
0.657251
0.656425
0.655117
0.653082
0.649977
0.645352
0.638658
0.62929
0.616682
0.600456
0.580573
0.557428
0.531834
0.504858
0.47761
0.451042
0.425843
0.402419
0.380941
0.361412
0.343729
0.327735
0.313253
0.300108
0.288136
0.277195
0.267163
0.257936
0.249426
0.241518
0.234139
0.227236
0.220763
0.214682
0.20896
0.203569
0.198488
0.193696
0.189179
0.184925
0.180923
0.177165
0.173646
0.170364
0.167316
0.164506
0.161937
0.159621
0.15757
0.155827
0.154432
0.153348
0.15269
0.152562
0.159625
0.170181
0.182627
0.197269
0.214512
0.23488
0.259049
0.287886
0.322491
0.364238
0.414949
0.476767
0.551437
0.639557
0.739216
0.844408
0.944981
1.02993
1.0927
1.13365
1.15775
1.17087
1.17758
1.18088
1.18246
1.18321
1.18355
1.1837
1.18377
1.1838
1.18381
1.18382
1.18382
1.18382
1.18382
1.18382
1.18382
1.18382
1.18382
0.658526
0.658502
0.65846
0.65839
0.658274
0.658081
0.657765
0.65725
0.656423
0.655114
0.653076
0.649968
0.645339
0.63864
0.629264
0.616648
0.600413
0.580521
0.55737
0.531772
0.504795
0.477549
0.450985
0.425791
0.402373
0.380901
0.361378
0.343701
0.327711
0.313233
0.300091
0.288123
0.277185
0.267155
0.257931
0.249422
0.241515
0.234138
0.227236
0.220764
0.214684
0.208962
0.203572
0.198491
0.193699
0.189182
0.184927
0.180923
0.177164
0.173643
0.170358
0.167308
0.164494
0.161922
0.159602
0.157548
0.155803
0.154408
0.153326
0.152676
0.152563
0.159467
0.169974
0.182373
0.196967
0.214156
0.234462
0.258557
0.287304
0.321797
0.363407
0.413944
0.475552
0.549991
0.637888
0.737396
0.842585
0.943352
1.02866
1.09182
1.13311
1.15745
1.17072
1.1775
1.18084
1.18245
1.1832
1.18354
1.1837
1.18377
1.1838
1.18381
1.18382
1.18382
1.18382
1.18382
1.18382
1.18382
1.18382
1.18382
0.658526
0.658502
0.65846
0.65839
0.658274
0.65808
0.657763
0.657248
0.656419
0.655108
0.653067
0.649954
0.645319
0.638611
0.629224
0.616595
0.600347
0.580442
0.557281
0.531676
0.504698
0.477455
0.450897
0.425711
0.402302
0.38084
0.361325
0.343656
0.327674
0.313203
0.300067
0.288103
0.27717
0.267144
0.257923
0.249417
0.241514
0.234139
0.227239
0.220769
0.214691
0.208971
0.203582
0.198501
0.19371
0.189193
0.184938
0.180933
0.177172
0.17365
0.170362
0.167308
0.164491
0.161916
0.159591
0.157534
0.155787
0.15439
0.15331
0.152667
0.152567
0.159228
0.169673
0.182008
0.196533
0.213644
0.233858
0.257842
0.286452
0.320777
0.362178
0.412452
0.473741
0.547825
0.635381
0.734648
0.839818
0.940863
1.0267
1.09047
1.13228
1.15698
1.17047
1.17738
1.18079
1.18242
1.18319
1.18354
1.1837
1.18377
1.1838
1.18381
1.18382
1.18382
1.18382
1.18382
1.18382
1.18382
1.18382
1.18382
0.658526
0.658502
0.65846
0.65839
0.658273
0.658079
0.657762
0.657245
0.656415
0.655101
0.653055
0.649936
0.645292
0.638571
0.629169
0.616522
0.600255
0.580332
0.557157
0.531543
0.504563
0.477323
0.450774
0.425599
0.402202
0.380753
0.361251
0.343593
0.327622
0.31316
0.300032
0.288076
0.277149
0.267129
0.257913
0.249412
0.241513
0.234142
0.227246
0.220779
0.214703
0.208986
0.203599
0.19852
0.19373
0.189214
0.184959
0.180954
0.177192
0.173668
0.170378
0.167322
0.164501
0.161922
0.159594
0.157533
0.155782
0.154383
0.153304
0.152666
0.152576
0.158906
0.169275
0.181531
0.195967
0.212975
0.233066
0.256901
0.285328
0.319426
0.360546
0.410466
0.471327
0.544932
0.632022
0.730956
0.836083
0.937491
1.02403
1.08863
1.13115
1.15635
1.17014
1.17722
1.18071
1.18238
1.18317
1.18353
1.18369
1.18377
1.1838
1.18381
1.18382
1.18382
1.18382
1.18382
1.18382
1.18382
1.18382
1.18382
0.658526
0.658501
0.65846
0.658389
0.658272
0.658078
0.657759
0.657241
0.656409
0.655091
0.65304
0.649912
0.645256
0.63852
0.629098
0.616428
0.600135
0.580189
0.556995
0.53137
0.504386
0.477151
0.450612
0.425451
0.40207
0.380638
0.361152
0.343509
0.327551
0.313102
0.299985
0.288039
0.277121
0.267109
0.257901
0.249406
0.241513
0.234147
0.227256
0.220794
0.214723
0.209009
0.203625
0.198549
0.193761
0.189247
0.184992
0.180987
0.177225
0.1737
0.170409
0.16735
0.164527
0.161944
0.159611
0.157546
0.155791
0.15439
0.15331
0.152675
0.152591
0.158496
0.168777
0.180936
0.195262
0.212142
0.232078
0.255726
0.283922
0.317734
0.358499
0.407974
0.468291
0.541291
0.627787
0.726287
0.831344
0.933196
1.02063
1.08628
1.1297
1.15554
1.16972
1.17701
1.18061
1.18234
1.18315
1.18352
1.18369
1.18376
1.1838
1.18381
1.18382
1.18382
1.18382
1.18382
1.18382
1.18382
1.18382
1.18382
0.658526
0.658501
0.658459
0.658389
0.658271
0.658076
0.657757
0.657236
0.656401
0.655078
0.653021
0.649883
0.645212
0.638456
0.629008
0.616308
0.599984
0.580008
0.55679
0.531149
0.504161
0.47693
0.450404
0.42526
0.4019
0.380488
0.361023
0.343399
0.327458
0.313025
0.299922
0.287989
0.277083
0.267081
0.257882
0.249397
0.241511
0.234153
0.227269
0.220813
0.214747
0.209038
0.203659
0.198587
0.193803
0.18929
0.185038
0.181034
0.177272
0.173747
0.170454
0.167394
0.164568
0.161982
0.159646
0.157576
0.155816
0.154411
0.15333
0.152696
0.152618
0.157993
0.16817
0.180216
0.194411
0.211135
0.230886
0.254305
0.28222
0.315685
0.356021
0.404954
0.464613
0.536874
0.622643
0.720602
0.825554
0.927921
1.01642
1.08335
1.1279
1.15453
1.16919
1.17675
1.18048
1.18228
1.18312
1.18351
1.18368
1.18376
1.1838
1.18381
1.18382
1.18382
1.18382
1.18382
1.18382
1.18382
1.18382
1.18382
0.658526
0.658501
0.658459
0.658388
0.65827
0.658074
0.657753
0.657231
0.656392
0.655064
0.652997
0.649846
0.645157
0.638377
0.628898
0.616162
0.599798
0.579785
0.556535
0.530875
0.50388
0.476655
0.450143
0.42502
0.401685
0.380298
0.360857
0.343256
0.327338
0.312923
0.299839
0.287922
0.27703
0.267042
0.257855
0.249381
0.241505
0.234156
0.227281
0.220833
0.214775
0.209073
0.2037
0.198633
0.193853
0.189345
0.185095
0.181094
0.177334
0.173809
0.170515
0.167453
0.164625
0.162036
0.159696
0.157623
0.155858
0.154449
0.153364
0.152731
0.152657
0.157383
0.167445
0.17936
0.193403
0.209946
0.229476
0.252625
0.280208
0.313262
0.35309
0.401384
0.460264
0.53165
0.616549
0.713849
0.818643
0.921589
1.01134
1.07979
1.12569
1.15328
1.16854
1.17642
1.18033
1.18221
1.18309
1.18349
1.18368
1.18376
1.18379
1.18381
1.18382
1.18382
1.18382
1.18382
1.18382
1.18382
1.18382
1.18382
0.658526
0.658501
0.658459
0.658387
0.658269
0.658072
0.657749
0.657224
0.656381
0.655046
0.652969
0.649803
0.645092
0.638282
0.628766
0.615984
0.599573
0.579513
0.556225
0.53054
0.503534
0.476314
0.449819
0.424721
0.401414
0.380058
0.360647
0.343075
0.327182
0.312792
0.299729
0.287831
0.276958
0.266986
0.257814
0.249353
0.241491
0.234154
0.227289
0.220852
0.214803
0.209109
0.203744
0.198685
0.193912
0.189409
0.185164
0.181167
0.177409
0.173885
0.170592
0.167529
0.164699
0.162107
0.159764
0.157687
0.155917
0.154503
0.153415
0.152781
0.152709
0.156665
0.166598
0.178364
0.192231
0.208564
0.227839
0.250676
0.277874
0.31045
0.349689
0.397244
0.455219
0.525587
0.609465
0.705971
0.810538
0.914106
1.00529
1.07553
1.12303
1.15178
1.16775
1.17603
1.18014
1.18212
1.18305
1.18348
1.18367
1.18376
1.18379
1.18381
1.18382
1.18382
1.18382
1.18382
1.18382
1.18382
1.18382
1.18382
0.658526
0.658501
0.658458
0.658387
0.658267
0.658069
0.657745
0.657216
0.656368
0.655025
0.652936
0.649752
0.645015
0.638169
0.628608
0.615773
0.599303
0.579186
0.555851
0.530134
0.503115
0.475898
0.449422
0.424352
0.401079
0.379758
0.360383
0.342844
0.326982
0.312621
0.299584
0.28771
0.276859
0.266907
0.257754
0.24931
0.241463
0.23414
0.227289
0.220865
0.214828
0.209145
0.203791
0.19874
0.193976
0.18948
0.185242
0.18125
0.177496
0.173975
0.170684
0.167621
0.16479
0.162196
0.159849
0.157767
0.155992
0.154575
0.153484
0.152849
0.152781
0.155837
0.165629
0.177228
0.190895
0.206987
0.225968
0.248446
0.275203
0.307236
0.345803
0.392517
0.44946
0.51866
0.601354
0.696915
0.801161
0.905377
0.998158
1.07046
1.11985
1.14997
1.1668
1.17556
1.17991
1.18201
1.183
1.18345
1.18366
1.18375
1.18379
1.18381
1.18382
1.18382
1.18382
1.18382
1.18382
1.18382
1.18382
1.18382
0.658526
0.658501
0.658458
0.658386
0.658265
0.658066
0.657739
0.657207
0.656353
0.655001
0.652898
0.649692
0.644925
0.638038
0.628423
0.615523
0.598983
0.578798
0.555405
0.529647
0.502609
0.475396
0.448938
0.423901
0.400666
0.379387
0.360052
0.342553
0.326728
0.312401
0.299395
0.287551
0.276725
0.266797
0.257667
0.249244
0.241416
0.234111
0.227276
0.220867
0.214845
0.209176
0.203834
0.198796
0.194042
0.189556
0.185326
0.181341
0.177593
0.174077
0.170788
0.167727
0.164895
0.162299
0.15995
0.157864
0.156083
0.154661
0.153568
0.152933
0.15287
0.154929
0.164564
0.175973
0.189413
0.205228
0.223874
0.245942
0.272195
0.303609
0.341416
0.387185
0.442971
0.510847
0.592183
0.68663
0.790438
0.895304
0.989845
1.06448
1.11607
1.14782
1.16566
1.17499
1.17964
1.18189
1.18294
1.18343
1.18365
1.18375
1.18379
1.18381
1.18382
1.18382
1.18382
1.18382
1.18382
1.18382
1.18382
1.18382
0.658526
0.6585
0.658457
0.658385
0.658263
0.658063
0.657733
0.657197
0.656336
0.654974
0.652854
0.649624
0.644822
0.637886
0.628208
0.615233
0.598609
0.578342
0.554878
0.52907
0.502007
0.474792
0.448356
0.423353
0.400161
0.378929
0.359643
0.342189
0.326408
0.31212
0.299152
0.287341
0.276547
0.266648
0.257544
0.249146
0.241341
0.234058
0.227244
0.220853
0.214848
0.209197
0.203871
0.198847
0.194106
0.189633
0.185414
0.181438
0.177698
0.174187
0.170903
0.167843
0.165011
0.162412
0.160057
0.157963
0.156169
0.154737
0.153638
0.153008
0.15298
0.154029
0.163466
0.174646
0.187817
0.203313
0.221576
0.24318
0.268867
0.299587
0.336543
0.381259
0.435752
0.502142
0.581937
0.675082
0.778306
0.883786
0.980225
1.05749
1.11161
1.14526
1.16431
1.17432
1.17932
1.18174
1.18287
1.1834
1.18363
1.18374
1.18379
1.18381
1.18382
1.18382
1.18382
1.18382
1.18382
1.18382
1.18382
1.18382
0.658526
0.6585
0.658456
0.658383
0.658261
0.658059
0.657727
0.657186
0.656318
0.654944
0.652806
0.649549
0.644706
0.637715
0.627964
0.6149
0.598178
0.577812
0.554262
0.528391
0.501294
0.474075
0.447658
0.422692
0.399549
0.37837
0.359138
0.341738
0.326007
0.311766
0.29884
0.287069
0.276312
0.266448
0.257376
0.249007
0.241229
0.233972
0.227182
0.220815
0.214832
0.209201
0.203894
0.198888
0.194165
0.189706
0.185501
0.181537
0.177806
0.174303
0.171024
0.167967
0.165133
0.162528
0.160162
0.15805
0.156223
0.154751
0.153592
0.15287
0.152692
0.153239
0.162408
0.173299
0.186146
0.201268
0.219091
0.240169
0.26522
0.295167
0.331178
0.374731
0.427795
0.492534
0.5706
0.662244
0.764711
0.870734
0.969185
1.04938
1.10639
1.14225
1.16271
1.17353
1.17894
1.18156
1.18279
1.18336
1.18362
1.18373
1.18378
1.18381
1.18381
1.18382
1.18382
1.18382
1.18382
1.18382
1.18382
1.18382
0.658526
0.6585
0.658456
0.658382
0.658259
0.658055
0.65772
0.657175
0.656298
0.654911
0.652753
0.649465
0.644578
0.637523
0.627689
0.614523
0.597686
0.577204
0.55355
0.527601
0.500459
0.473228
0.446828
0.421902
0.398811
0.377692
0.358521
0.341181
0.325508
0.311321
0.298446
0.286722
0.276008
0.266184
0.25715
0.248817
0.241071
0.233844
0.227084
0.220745
0.214788
0.209181
0.203897
0.198914
0.19421
0.189771
0.185582
0.181633
0.177915
0.174423
0.17115
0.168097
0.165263
0.162654
0.160277
0.158145
0.156278
0.154756
0.153522
0.152681
0.152316
0.152561
0.161417
0.171961
0.184424
0.199113
0.216437
0.236927
0.261274
0.290369
0.325346