/*--------------------------------*- C++ -*----------------------------------*\
  =========                 |
  \\      /  F ield         | OpenFOAM: The Open Source CFD Toolbox
   \\    /   O peration     | Website:  https://openfoam.org
    \\  /    A nd           | Version:  8
     \\/     M anipulation  |
\*---------------------------------------------------------------------------*/
FoamFile
{
    version     2.0;
    format      ascii;
    class       volScalarField;
    location    "1000/fluid";
    object      T;
}
// * * * * * * * * * * * * * * * * * * * * * * * * * * * * * * * * * * * * * //

dimensions      [0 0 0 1 0 0 0];

internalField   nonuniform List<scalar> 
4000
(
293.004
293.017
293.039
293.076
293.138
293.241
293.41
293.686
294.134
294.849
295.977
297.726
300.384
304.332
310.043
318.054
328.919
343.125
361.016
382.727
408.176
437.101
469.129
503.853
540.882
579.881
620.583
662.778
706.309
751.054
796.913
843.796
891.606
940.24
989.574
1039.54
1090.17
1141.37
1193.03
1245.06
1297.35
1349.79
1402.27
1454.66
1506.86
1558.72
1610.13
1660.94
1711
1760.16
1808.25
1855.08
1900.41
1944.01
1985.55
2024.66
2060.86
2093.1
2120.76
2143.92
2160.44
2168.48
2157.73
2047.89
1930.98
1809.14
1684.15
1557.49
1430.45
1304.2
1179.85
1058.49
941.259
829.066
723.153
625.536
538.542
464.47
405.137
361.183
331.491
313.283
303.075
297.795
295.217
294.001
293.444
293.194
293.084
293.036
293.015
293.006
293.003
293.001
293
293
293
293
293
293
293.004
293.017
293.039
293.076
293.138
293.241
293.411
293.689
294.138
294.854
295.981
297.723
300.363
304.272
309.907
317.793
328.469
342.422
359.999
381.358
406.442
435.016
466.73
501.188
538.007
576.852
617.45
659.587
703.099
747.861
793.767
840.724
888.634
937.392
986.872
1037
1087.8
1139.18
1191.04
1243.28
1295.79
1348.45
1401.15
1453.78
1506.2
1558.3
1609.93
1660.96
1711.25
1760.62
1808.91
1855.92
1901.44
1945.2
1986.89
2026.14
2062.46
2094.79
2122.51
2145.72
2162.25
2170.2
2149.13
2038.16
1920.24
1797.47
1671.6
1544.11
1416.29
1289.33
1164.36
1042.52
924.998
812.728
707.148
610.45
525.049
453.227
396.596
355.395
328.038
311.472
302.232
297.432
295.069
293.945
293.423
293.186
293.081
293.035
293.015
293.006
293.003
293.001
293
293
293
293
293
293
293.004
293.017
293.039
293.077
293.139
293.242
293.413
293.691
294.141
294.858
295.984
297.72
300.345
304.223
309.801
317.592
328.127
341.881
359.204
380.259
405.006
433.229
464.598
498.733
535.263
573.86
614.252
656.227
699.619
744.302
790.17
837.128
885.078
933.914
983.511
1033.78
1084.75
1136.33
1188.42
1240.91
1293.7
1346.65
1399.67
1452.61
1505.37
1557.8
1609.78
1661.15
1711.77
1761.47
1810.08
1857.4
1903.2
1947.23
1989.16
2028.63
2065.14
2097.56
2125.35
2148.57
2164.95
2172.71
2133.58
2021.55
1902.53
1778.69
1651.83
1523.46
1394.93
1267.46
1142.23
1020.47
903.372
791.937
687.8
593.241
510.615
441.996
388.624
350.299
325.113
309.949
301.502
297.1
294.924
293.882
293.397
293.176
293.077
293.033
293.014
293.006
293.002
293.001
293
293
293
293
293
293
293.004
293.017
293.039
293.076
293.139
293.242
293.412
293.689
294.136
294.848
295.963
297.682
300.278
304.107
309.612
317.297
327.685
341.25
358.345
379.141
403.61
431.55
462.642
496.517
532.808
571.192
611.399
653.219
696.486
741.076
786.883
833.815
881.776
930.66
980.344
1030.73
1081.85
1133.61
1185.92
1238.66
1291.72
1344.98
1398.32
1451.61
1504.73
1557.54
1609.9
1661.65
1712.64
1762.72
1811.69
1859.35
1905.47
1949.79
1991.99
2031.68
2068.36
2100.82
2128.56
2151.67
2167.92
2175.32
2114.17
2001.29
1881.32
1756.54
1628.84
1499.79
1370.81
1243.16
1118.09
996.855
880.646
770.515
668.244
576.13
496.425
430.995
380.768
345.189
322.093
308.317
300.684
296.712
294.747
293.804
293.363
293.161
293.071
293.03
293.013
293.005
293.002
293.001
293
293
293
293
293
293
293.004
293.017
293.039
293.076
293.138
293.24
293.409
293.685
294.129
294.835
295.941
297.643
300.212
303.999
309.44
317.033
327.296
340.702
357.603
378.18
402.414
430.114
460.973
494.628
530.718
568.922
608.973
650.66
693.82
738.328
784.081
830.988
878.955
927.879
977.638
1028.13
1079.38
1131.31
1183.82
1236.79
1290.12
1343.67
1397.32
1450.95
1504.43
1557.61
1610.33
1662.47
1713.84
1764.28
1813.6
1861.59
1908.02
1952.6
1995.03
2034.89
2071.64
2103.98
2131.65
2154.64
2170.51
2177.1
2093.82
1980.24
1859.41
1733.79
1605.36
1475.79
1346.55
1218.95
1094.27
973.809
858.689
750.05
649.808
560.219
483.421
421.07
373.794
340.721
319.483
306.914
299.981
296.377
294.592
293.735
293.333
293.148
293.065
293.028
293.012
293.005
293.002
293.001
293
293
293
293
293
293
293.004
293.017
293.039
293.076
293.137
293.239
293.406
293.679
294.119
294.818
295.913
297.597
300.137
303.881
309.26
316.768
326.918
340.184
356.921
377.316
401.358
428.866
459.539
493.021
528.954
567.019
606.95
648.535
691.614
736.062
781.778
828.672
876.653
925.62
975.451
1026.04
1077.42
1129.51
1182.21
1235.4
1288.96
1342.78
1396.74
1450.69
1504.49
1558
1611.08
1663.56
1715.27
1766.04
1815.68
1863.95
1910.62
1955.41
1997.97
2037.88
2074.65
2106.87
2134.47
2157.21
2172.74
2178.71
2075.57
1961.11
1839.15
1712.47
1583.22
1453.12
1323.67
1196.2
1072.01
952.388
838.4
731.281
633.02
545.83
471.737
412.199
367.578
336.732
317.138
305.638
299.33
296.062
294.445
293.668
293.303
293.135
293.059
293.026
293.011
293.005
293.002
293.001
293
293
293
293
293
293
293.004
293.017
293.038
293.075
293.136
293.237
293.403
293.673
294.109
294.802
295.886
297.553
300.067
303.772
309.096
316.528
326.58
339.725
356.323
376.564
400.447
427.798
458.322
491.666
527.477
565.435
605.276
646.788
689.811
734.221
779.919
826.815
874.821
923.836
973.743
1024.43
1075.93
1128.17
1181.04
1234.43
1288.22
1342.29
1396.51
1450.74
1504.84
1558.66
1612.05
1664.84
1716.86
1767.92
1817.81
1866.3
1913.15
1958.03
2000.61
2040.45
2077.04
2108.67
2136.52
2158.55
2173.34
2178.67
2067.2
1947.7
1822.58
1693.87
1563.35
1432.54
1302.82
1175.48
1051.77
932.966
820.055
714.386
617.995
533.033
461.417
404.426
362.177
333.295
315.129
304.548
298.774
295.792
294.318
293.609
293.277
293.124
293.054
293.024
293.01
293.004
293.002
293.001
293
293
293
293
293
293
293.004
293.017
293.038
293.074
293.135
293.235
293.399
293.668
294.099
294.785
295.859
297.51
300
303.67
308.944
316.31
326.277
339.319
355.799
375.913
399.666
426.89
457.295
490.532
526.25
564.129
603.905
645.367
688.355
732.746
778.44
825.351
873.391
922.462
972.445
1023.23
1074.84
1127.22
1180.26
1233.84
1287.83
1342.13
1396.58
1451.06
1505.43
1559.52
1613.18
1666.24
1718.52
1769.81
1819.92
1868.59
1915.56
1960.51
2003.06
2042.75
2078.83
2109.8
2136.64
2156.98
2169.08
2170.11
2055.57
1933.58
1806.56
1676.51
1545.1
1413.81
1283.97
1156.83
1033.63
915.616
803.732
699.41
604.726
521.781
452.391
397.667
357.508
330.335
313.401
303.61
298.293
295.557
294.207
293.558
293.254
293.113
293.05
293.022
293.009
293.004
293.002
293.001
293
293
293
293
293
293
293.004
293.016
293.038
293.074
293.134
293.233
293.396
293.662
294.09
294.77
295.835
297.472
299.94
303.579
308.81
316.118
326.012
338.967
355.348
375.356
399.002
426.123
456.434
489.589
525.235
563.057
602.788
644.219
687.188
731.574
777.277
824.213
872.294
921.422
971.482
1022.36
1074.09
1126.6
1179.78
1233.52
1287.7
1342.19
1396.86
1451.57
1506.16
1560.49
1614.39
1667.68
1720.17
1771.67
1821.95
1870.76
1917.83
1962.81
2005.3
2044.81
2080.47
2110.93
2136.94
2155.97
2165.92
2159.89
2043.14
1919.47
1791.22
1660.31
1528.36
1396.82
1266.99
1140.11
1017.44
900.165
789.231
686.161
593.043
511.929
444.542
391.831
353.505
327.813
311.936
302.816
297.886
295.359
294.113
293.515
293.234
293.105
293.046
293.02
293.009
293.004
293.002
293.001
293
293
293
293
293
293
293.004
293.016
293.038
293.073
293.133
293.231
293.393
293.657
294.082
294.757
295.813
297.437
299.887
303.499
308.692
315.951
325.783
338.664
354.963
374.884
398.443
425.482
455.719
488.809
524.403
562.184
601.886
643.299
686.261
730.652
776.373
823.339
871.464
920.652
970.787
1021.75
1073.59
1126.22
1179.53
1233.43
1287.77
1342.43
1397.29
1452.19
1506.98
1561.51
1615.61
1669.09
1721.77
1773.44
1823.87
1872.81
1919.96
1964.99
2007.49
2046.97
2082.48
2112.82
2138.77
2157.88
2168.31
2148.16
2030.27
1905.72
1776.8
1645.42
1513.22
1381.61
1251.92
1125.37
1003.22
886.637
776.567
674.619
582.891
503.395
437.766
386.821
350.089
325.673
310.696
302.145
297.542
295.191
294.033
293.478
293.217
293.097
293.043
293.019
293.008
293.003
293.001
293.001
293
293
293
293
293
293
293.004
293.016
293.037
293.073
293.132
293.23
293.391
293.653
294.075
294.745
295.794
297.407
299.84
303.429
308.591
315.807
325.587
338.407
354.637
374.486
397.975
424.948
455.127
488.169
523.725
561.478
601.161
642.566
685.53
729.932
775.675
822.675
870.845
920.091
970.297
1021.35
1073.27
1126.01
1179.45
1233.47
1287.96
1342.78
1397.79
1452.86
1507.82
1562.52
1616.79
1670.44
1723.27
1775.08
1825.63
1874.67
1921.91
1967
2009.53
2049.01
2084.47
2114.78
2140.71
2159.82
2170.31
2136.36
2017.89
1892.84
1763.55
1631.93
1499.63
1368.06
1238.56
1112.36
990.72
874.777
765.507
664.576
574.092
496.032
431.952
382.544
347.189
323.865
309.654
301.581
297.254
295.049
293.966
293.446
293.203
293.091
293.04
293.017
293.007
293.003
293.001
293.001
293
293
293
293
293
293
293.004
293.016
293.037
293.072
293.131
293.228
293.388
293.649
294.068
294.734
295.777
297.381
299.8
303.369
308.504
315.685
325.422
338.191
354.364
374.156
397.587
424.509
454.642
487.648
523.176
560.91
600.583
641.986
684.957
729.375
775.143
822.177
870.392
919.692
969.963
1021.09
1073.1
1125.93
1179.48
1233.61
1288.22
1343.17
1398.32
1453.53
1508.64
1563.48
1617.89
1671.67
1724.63
1776.55
1827.2
1876.32
1923.61
1968.74
2011.27
2050.73
2086.16
2116.44
2142.35
2161.45
2171.98
2125.69
2006.74
1881.33
1751.79
1620.04
1487.7
1356.24
1226.95
1101.09
979.926
864.542
755.959
655.92
566.528
489.723
426.992
378.915
344.742
322.347
308.781
301.111
297.013
294.932
293.91
293.42
293.191
293.085
293.038
293.016
293.007
293.003
293.001
293.001
293
293
293
293
293
293
293.004
293.016
293.037
293.072
293.13
293.227
293.386
293.645
294.063
294.725
295.763
297.359
299.766
303.319
308.431
315.584
325.284
338.011
354.139
373.883
397.269
424.149
454.248
487.226
522.735
560.456
600.125
641.531
684.512
728.948
774.741
821.807
870.063
919.413
969.742
1020.93
1073.02
1125.94
1179.57
1233.81
1288.52
1343.58
1398.85
1454.17
1509.4
1564.36
1618.87
1672.76
1725.82
1777.82
1828.55
1877.72
1925.05
1970.18
2012.71
2052.17
2087.55
2117.78
2143.64
2162.73
2173.28
2116.54
1997.09
1871.34
1741.6
1609.75
1477.44
1346.08
1216.99
1091.43
970.668
855.771
747.788
648.527
560.083
484.364
422.796
375.859
342.691
321.079
308.054
300.72
296.813
294.834
293.863
293.399
293.181
293.081
293.036
293.016
293.007
293.003
293.001
293.001
293
293
293
293
293
293
293.004
293.016
293.037
293.072
293.13
293.226
293.385
293.643
294.058
294.718
295.751
297.34
299.738
303.277
308.371
315.499
325.171
337.863
353.954
373.66
397.011
423.859
453.931
486.889
522.383
560.098
599.766
641.177
684.169
728.622
774.438
821.535
869.828
919.221
969.602
1020.85
1073
1125.99
1179.7
1234.02
1288.82
1343.97
1399.33
1454.75
1510.07
1565.12
1619.72
1673.69
1726.82
1778.89
1829.65
1878.85
1926.19
1971.33
2013.87
2053.29
2088.62
2118.8
2144.62
2163.7
2174.3
2108.82
1988.9
1862.85
1732.93
1601.01
1468.71
1337.44
1208.53
1083.24
962.829
848.349
740.883
642.29
554.656
479.863
419.283
373.311
340.988
320.031
307.455
300.398
296.649
294.753
293.825
293.381
293.173
293.077
293.034
293.015
293.006
293.003
293.001
293
293
293
293
293
293
293
293.004
293.016
293.037
293.071
293.129
293.225
293.383
293.64
294.054
294.712
295.741
297.325
299.715
303.243
308.322
315.431
325.079
337.744
353.805
373.482
396.804
423.627
453.679
486.622
522.107
559.817
599.487
640.903
683.907
728.376
774.213
821.336
869.661
919.092
969.514
1020.81
1073.01
1126.06
1179.83
1234.22
1289.09
1344.31
1399.75
1455.24
1510.63
1565.75
1620.42
1674.45
1727.62
1779.73
1830.52
1879.74
1927.09
1972.22
2014.73
2054.11
2089.38
2119.52
2145.32
2164.42
2175.06
2102.5
1982.11
1855.77
1725.68
1593.69
1461.4
1330.22
1201.47
1076.4
956.295
842.169
735.142
637.109
550.155
476.138
416.383
371.215
339.591
319.174
306.967
300.136
296.515
294.688
293.794
293.366
293.166
293.074
293.033
293.014
293.006
293.003
293.001
293
293
293
293
293
293
293
293.004
293.016
293.037
293.071
293.129
293.225
293.382
293.639
294.051
294.707
295.733
297.313
299.697
303.216
308.283
315.377
325.006
337.65
353.688
373.341
396.642
423.446
453.483
486.415
521.893
559.602
599.273
640.696
683.709
728.192
774.047
821.192
869.543
919.004
969.461
1020.8
1073.04
1126.13
1179.95
1234.39
1289.32
1344.6
1400.09
1455.64
1511.08
1566.25
1620.96
1675.03
1728.23
1780.36
1831.17
1880.39
1927.73
1972.84
2015.3
2054.65
2089.86
2119.95
2145.75
2164.88
2175.58
2097.38
1976.56
1849.95
1719.71
1587.67
1455.4
1324.3
1195.69
1070.82
950.967
837.134
730.471
632.899
546.503
473.122
414.04
369.525
338.469
318.487
306.576
299.927
296.409
294.636
293.769
293.355
293.161
293.072
293.032
293.014
293.006
293.003
293.001
293
293
293
293
293
293
293
293.004
293.016
293.037
293.071
293.129
293.224
293.381
293.637
294.049
294.703
295.727
297.304
299.683
303.195
308.253
315.335
324.95
337.578
353.598
373.234
396.518
423.309
453.335
486.259
521.733
559.44
599.114
640.542
683.564
728.057
773.927
821.089
869.459
918.943
969.425
1020.79
1073.06
1126.19
1180.05
1234.52
1289.49
1344.81
1400.34
1455.92
1511.4
1566.61
1621.35
1675.44
1728.66
1780.8
1831.6
1880.81
1928.12
1973.19
2015.62
2054.91
2090.08
2120.14
2145.93
2165.12
2175.94
2093.38
1972.15
1845.3
1714.95
1582.87
1450.62
1319.6
1191.11
1066.41
946.761
833.168
726.797
629.594
543.642
470.763
412.212
368.209
337.595
317.953
306.272
299.764
296.326
294.595
293.749
293.346
293.157
293.07
293.031
293.013
293.006
293.002
293.001
293
293
293
293
293
293
293
293.004
293.016
293.036
293.071
293.129
293.224
293.381
293.636
294.047
294.7
295.723
297.297
299.673
303.18
308.231
315.305
324.91
337.525
353.534
373.157
396.429
423.21
453.228
486.147
521.618
559.325
599.001
640.433
683.461
727.963
773.842
821.016
869.401
918.9
969.4
1020.78
1073.08
1126.23
1180.11
1234.61
1289.6
1344.95
1400.5
1456.11
1511.62
1566.84
1621.6
1675.69
1728.92
1781.05
1831.84
1881.02
1928.3
1973.32
2015.7
2054.94
2090.06
2120.1
2145.91
2165.19
2176.18
2090.42
1968.82
1841.76
1711.31
1579.21
1446.99
1316.04
1187.66
1063.1
943.616
830.211
724.065
627.143
541.525
469.023
410.868
367.244
336.956
317.561
306.049
299.645
296.265
294.565
293.735
293.339
293.154
293.069
293.03
293.013
293.006
293.002
293.001
293
293
293
293
293
293
293
293.004
293.016
293.036
293.071
293.128
293.224
293.38
293.635
294.046
294.699
295.72
297.293
299.666
303.17
308.217
315.285
324.883
337.492
353.492
373.107
396.372
423.146
453.159
486.075
521.545
559.252
598.928
640.363
683.395
727.902
773.788
820.97
869.363
918.872
969.382
1020.77
1073.08
1126.24
1180.14
1234.66
1289.66
1345.02
1400.59
1456.22
1511.73
1566.96
1621.72
1675.81
1729.03
1781.14
1831.9
1881.05
1928.29
1973.27
2015.6
2054.79
2089.87
2119.9
2145.74
2165.12
2176.31
2088.46
1966.53
1839.3
1708.78
1576.67
1444.49
1313.61
1185.31
1060.86
941.5
828.23
722.244
625.516
540.126
467.878
409.987
366.615
336.541
317.307
305.904
299.566
296.225
294.546
293.726
293.335
293.152
293.068
293.03
293.013
293.006
293.002
293.001
293
293
293
293
293
293
293
293.004
293.016
293.036
293.071
293.128
293.224
293.38
293.635
294.045
294.698
295.719
297.29
299.663
303.166
308.211
315.276
324.871
337.476
353.472
373.083
396.345
423.116
453.127
486.041
521.51
559.217
598.894
640.33
683.364
727.873
773.762
820.947
869.344
918.858
969.372
1020.77
1073.08
1126.25
1180.15
1234.67
1289.68
1345.05
1400.62
1456.25
1511.76
1566.99
1621.75
1675.83
1729.04
1781.13
1831.88
1881
1928.2
1973.15
2015.43
2054.59
2089.64
2119.64
2145.51
2164.98
2176.37
2087.5
1965.32
1837.97
1707.41
1575.31
1443.17
1312.34
1184.1
1059.72
940.435
827.244
721.347
624.722
539.449
467.328
409.567
366.317
336.347
317.189
305.837
299.53
296.206
294.536
293.722
293.333
293.151
293.067
293.03
293.013
293.006
293.002
293.001
293
293
293
293
293
293
293
293.004
293.016
293.036
293.071
293.128
293.224
293.38
293.635
294.046
294.698
295.719
297.29
299.663
303.166
308.211
315.276
324.871
337.476
353.472
373.083
396.345
423.116
453.127
486.041
521.51
559.217
598.894
640.33
683.364
727.873
773.763
820.948
869.344
918.858
969.372
1020.77
1073.08
1126.25
1180.15
1234.67
1289.68
1345.05
1400.62
1456.25
1511.76
1566.99
1621.75
1675.83
1729.04
1781.13
1831.88
1881
1928.2
1973.15
2015.43
2054.59
2089.64
2119.64
2145.51
2164.98
2176.37
2087.5
1965.32
1837.97
1707.41
1575.31
1443.17
1312.34
1184.11
1059.72
940.436
827.244
721.348
624.722
539.449
467.329
409.568
366.318
336.347
317.189
305.837
299.53
296.206
294.536
293.722
293.333
293.151
293.067
293.03
293.013
293.006
293.002
293.001
293
293
293
293
293
293
293
293.004
293.016
293.036
293.071
293.128
293.224
293.38
293.635
294.046
294.699
295.72
297.293
299.666
303.17
308.217
315.285
324.883
337.492
353.492
373.107
396.372
423.146
453.16
486.075
521.545
559.252
598.928
640.363
683.395
727.903
773.789
820.97
869.363
918.872
969.382
1020.78
1073.08
1126.24
1180.14
1234.66
1289.66
1345.02
1400.59
1456.22
1511.73
1566.96
1621.72
1675.81
1729.03
1781.14
1831.9
1881.06
1928.29
1973.27
2015.6
2054.79
2089.87
2119.9
2145.74
2165.12
2176.31
2088.47
1966.54
1839.31
1708.78
1576.67
1444.49
1313.61
1185.31
1060.86
941.502
828.232
722.246
625.518
540.127
467.879
409.988
366.615
336.541
317.307
305.904
299.567
296.225
294.546
293.726
293.335
293.152
293.068
293.03
293.013
293.006
293.002
293.001
293
293
293
293
293
293
293
293.004
293.016
293.036
293.071
293.129
293.224
293.381
293.636
294.047
294.7
295.723
297.297
299.673
303.18
308.231
315.305
324.91
337.526
353.534
373.157
396.43
423.21
453.228
486.147
521.619
559.326
599.001
640.433
683.461
727.963
773.843
821.017
869.401
918.901
969.401
1020.78
1073.08
1126.23
1180.11
1234.61
1289.6
1344.95
1400.5
1456.11
1511.62
1566.84
1621.6
1675.69
1728.92
1781.05
1831.84
1881.02
1928.3
1973.32
2015.7
2054.94
2090.06
2120.1
2145.91
2165.19
2176.18
2090.42
1968.83
1841.77
1711.31
1579.21
1447
1316.05
1187.66
1063.1
943.619
830.214
724.068
627.146
541.527
469.025
410.869
367.245
336.957
317.562
306.049
299.645
296.265
294.565
293.735
293.339
293.154
293.069
293.03
293.013
293.006
293.002
293.001
293
293
293
293
293
293
293
293.004
293.016
293.037
293.071
293.129
293.224
293.381
293.637
294.049
294.703
295.727
297.304
299.683
303.195
308.253
315.335
324.95
337.578
353.599
373.235
396.519
423.309
453.335
486.259
521.734
559.441
599.114
640.543
683.565
728.058
773.928
821.09
869.46
918.944
969.426
1020.79
1073.07
1126.19
1180.05
1234.52
1289.49
1344.81
1400.34
1455.92
1511.4
1566.61
1621.35
1675.44
1728.66
1780.8
1831.61
1880.81
1928.13
1973.19
2015.62
2054.91
2090.08
2120.14
2145.93
2165.12
2175.94
2093.39
1972.16
1845.31
1714.95
1582.87
1450.62
1319.6
1191.11
1066.41
946.765
833.172
726.801
629.598
543.645
470.766
412.214
368.21
337.596
317.953
306.273
299.765
296.326
294.595
293.749
293.346
293.157
293.07
293.031
293.013
293.006
293.002
293.001
293
293
293
293
293
293
293
293.004
293.016
293.037
293.071
293.129
293.225
293.382
293.639
294.051
294.707
295.734
297.313
299.697
303.216
308.283
315.377
325.006
337.65
353.688
373.342
396.642
423.447
453.484
486.416
521.894
559.603
599.274
640.697
683.711
728.193
774.049
821.193
869.544
919.005
969.462
1020.8
1073.04
1126.13
1179.96
1234.39
1289.32
1344.6
1400.09
1455.64
1511.08
1566.25
1620.97
1675.03
1728.23
1780.36
1831.17
1880.4
1927.73
1972.84
2015.3
2054.65
2089.86
2119.95
2145.75
2164.88
2175.58
2097.39
1976.57
1849.96
1719.72
1587.68
1455.41
1324.31
1195.7
1070.83
950.973
837.141
730.476
632.904
546.507
473.125
414.043
369.527
338.47
318.488
306.576
299.927
296.409
294.636
293.769
293.355
293.161
293.072
293.032
293.014
293.006
293.003
293.001
293
293
293
293
293
293
293
293.004
293.016
293.037
293.071
293.129
293.225
293.383
293.64
294.054
294.712
295.741
297.325
299.715
303.244
308.322
315.431
325.079
337.744
353.806
373.482
396.805
423.628
453.68
486.623
522.108
559.819
599.488
640.905
683.908
728.377
774.215
821.338
869.662
919.093
969.516
1020.81
1073.02
1126.06
1179.83
1234.22
1289.09
1344.31
1399.75
1455.24
1510.63
1565.76
1620.43
1674.45
1727.63
1779.73
1830.52
1879.74
1927.09
1972.22
2014.73
2054.12
2089.39
2119.52
2145.32
2164.42
2175.06
2102.51
1982.12
1855.78
1725.69
1593.7
1461.41
1330.23
1201.48
1076.41
956.304
842.177
735.149
637.115
550.16
476.143
416.387
371.217
339.593
319.175
306.967
300.137
296.516
294.688
293.794
293.366
293.166
293.074
293.033
293.014
293.006
293.003
293.001
293
293
293
293
293
293
293
293.004
293.016
293.037
293.072
293.13
293.226
293.385
293.643
294.058
294.718
295.751
297.34
299.738
303.278
308.371
315.5
325.171
337.864
353.955
373.661
397.011
423.86
453.932
486.89
522.385
560.099
599.767
641.178
684.171
728.624
774.44
821.537
869.83
919.223
969.604
1020.85
1073
1125.99
1179.7
1234.02
1288.82
1343.97
1399.33
1454.75
1510.07
1565.12
1619.73
1673.69
1726.82
1778.89
1829.66
1878.86
1926.19
1971.33
2013.87
2053.29
2088.62
2118.8
2144.63
2163.7
2174.3
2108.84
1988.92
1862.87
1732.95
1601.03
1468.72
1337.46
1208.54
1083.25
962.84
848.359
740.892
642.298
554.663
479.869
419.287
373.314
340.99
320.032
307.456
300.399
296.649
294.753
293.825
293.381
293.173
293.077
293.034
293.015
293.006
293.003
293.001
293
293
293
293
293
293
293
293.004
293.016
293.037
293.072
293.13
293.227
293.386
293.645
294.063
294.725
295.763
297.359
299.767
303.319
308.432
315.584
325.285
338.011
354.139
373.884
397.27
424.15
454.25
487.228
522.736
560.458
600.127
641.533
684.514
728.95
774.743
821.809
870.065
919.415
969.744
1020.94
1073.02
1125.94
1179.57
1233.81
1288.52
1343.58
1398.85
1454.17
1509.4
1564.36
1618.88
1672.77
1725.82
1777.83
1828.55
1877.73
1925.05
1970.18
2012.72
2052.17
2087.56
2117.79
2143.65
2162.73
2173.28
2116.56
1997.11
1871.36
1741.61
1609.77
1477.46
1346.09
1217
1091.45
970.681
855.783
747.799
648.537
560.092
484.371
422.801
375.863
342.693
321.081
308.055
300.72
296.814
294.834
293.863
293.399
293.181
293.081
293.036
293.016
293.007
293.003
293.001
293.001
293
293
293
293
293
293
293.004
293.016
293.037
293.072
293.131
293.228
293.388
293.649
294.068
294.734
295.777
297.381
299.8
303.37
308.504
315.686
325.423
338.191
354.365
374.157
397.588
424.51
454.644
487.649
523.177
560.911
600.585
641.988
684.959
729.378
775.146
822.179
870.394
919.694
969.966
1021.09
1073.1
1125.94
1179.48
1233.62
1288.23
1343.18
1398.33
1453.54
1508.64
1563.49
1617.89
1671.68
1724.64
1776.56
1827.21
1876.33
1923.62
1968.75
2011.28
2050.74
2086.17
2116.45
2142.36
2161.47
2172
2125.71
2006.76
1881.35
1751.81
1620.06
1487.72
1356.26
1226.97
1101.11
979.942
864.557
755.972
655.932
566.538
489.731
426.999
378.92
344.745
322.349
308.782
301.111
297.013
294.932
293.91
293.42
293.191
293.085
293.038
293.016
293.007
293.003
293.001
293.001
293
293
293
293
293
293
293.004
293.016
293.037
293.073
293.132
293.23
293.391
293.653
294.075
294.745
295.794
297.407
299.84
303.429
308.591
315.808
325.588
338.408
354.638
374.487
397.976
424.95
455.129
488.171
523.727
561.48
601.163
642.568
685.532
729.935
775.678
822.678
870.849
920.094
970.3
1021.35
1073.28
1126.02
1179.45
1233.48
1287.96
1342.78
1397.8
1452.86
1507.83
1562.53
1616.8
1670.45
1723.28
1775.09
1825.65
1874.69
1921.92
1967.01
2009.54
2049.02
2084.49
2114.8
2140.73
2159.85
2170.34
2136.39
2017.92
1892.87
1763.58
1631.97
1499.66
1368.09
1238.58
1112.38
990.738
874.793
765.521
664.589
574.104
496.041
431.959
382.549
347.193
323.867
309.655
301.582
297.254
295.05
293.966
293.447
293.203
293.091
293.04
293.017
293.007
293.003
293.001
293.001
293
293
293
293
293
293
293.004
293.016
293.038
293.073
293.133
293.231
293.393
293.657
294.082
294.757
295.813
297.437
299.887
303.499
308.693
315.951
325.784
338.665
354.964
374.885
398.444
425.483
455.72
488.811
524.405
562.186
601.888
643.301
686.264
730.655
776.376
823.342
871.467
920.655
970.791
1021.76
1073.59
1126.22
1179.54
1233.43
1287.77
1342.44
1397.29
1452.19
1506.99
1561.52
1615.62
1669.1
1721.79
1773.45
1823.88
1872.82
1919.98
1965.01
2007.51
2046.99
2082.5
2112.85
2138.8
2157.91
2168.35
2148.19
2030.3
1905.74
1776.82
1645.44
1513.24
1381.63
1251.93
1125.39
1003.24
886.65
776.581
674.633
582.904
503.406
437.774
386.827
350.093
325.675
310.698
302.145
297.543
295.191
294.033
293.478
293.217
293.097
293.043
293.019
293.008
293.003
293.001
293.001
293
293
293
293
293
293
293.004
293.016
293.038
293.074
293.134
293.233
293.396
293.662
294.09
294.77
295.835
297.472
299.94
303.58
308.81
316.118
326.013
338.968
355.349
375.357
399.004
426.125
456.436
489.591
525.238
563.06
602.791
644.222
687.191
731.577
777.281
824.217
872.298
921.426
971.487
1022.36
1074.09
1126.6
1179.79
1233.53
1287.71
1342.2
1396.87
1451.58
1506.17
1560.5
1614.4
1667.69
1720.19
1771.69
1821.97
1870.78
1917.84
1962.83
2005.32
2044.83
2080.49
2110.96
2136.98
2156
2165.96
2159.92
2043.16
1919.5
1791.26
1660.34
1528.4
1396.86
1267.03
1140.15
1017.48
900.199
789.255
686.179
593.057
511.941
444.551
391.838
353.509
327.816
311.938
302.817
297.887
295.359
294.113
293.515
293.234
293.105
293.046
293.02
293.009
293.004
293.002
293.001
293
293
293
293
293
293
293.004
293.017
293.038
293.074
293.135
293.235
293.399
293.668
294.099
294.785
295.859
297.51
300
303.671
308.945
316.31
326.278
339.32
355.8
375.915
399.668
426.892
457.297
490.535
526.252
564.132
603.908
645.37
688.358
732.749
778.444
825.355
873.396
922.466
972.45
1023.23
1074.85
1127.23
1180.26
1233.84
1287.84
1342.13
1396.59
1451.07
1505.44
1559.53
1613.19
1666.25
1718.53
1769.83
1819.93
1868.61
1915.58
1960.53
2003.08
2042.77
2078.86
2109.83
2136.67
2157.01
2169.11
2170.13
2055.6
1933.6
1806.58
1676.53
1545.12
1413.83
1283.98
1156.84
1033.64
915.631
803.746
699.424
604.738
521.793
452.402
397.675
357.514
330.339
313.403
303.611
298.294
295.558
294.207
293.558
293.254
293.113
293.05
293.022
293.009
293.004
293.002
293.001
293
293
293
293
293
293
293.004
293.017
293.038
293.075
293.136
293.237
293.403
293.673
294.109
294.802
295.886
297.553
300.067
303.772
309.096
316.528
326.581
339.726
356.324
376.566
400.449
427.8
458.324
491.669
527.48
565.438
605.279
646.791
689.815
734.225
779.923
826.819
874.825
923.841
973.748
1024.43
1075.93
1128.17
1181.05
1234.44
1288.23
1342.3
1396.52
1450.75
1504.85
1558.67
1612.06
1664.85
1716.87
1767.93
1817.82
1866.32
1913.16
1958.05
2000.63
2040.47
2077.07
2108.69
2136.55
2158.58
2173.37
2178.7
2067.22
1947.73
1822.6
1693.9
1563.37
1432.56
1302.84
1175.5
1051.79
932.993
820.087
714.417
618.019
533.051
461.43
404.435
362.183
333.299
315.131
304.55
298.775
295.792
294.318
293.61
293.277
293.124
293.054
293.024
293.01
293.004
293.002
293.001
293
293
293
293
293
293
293.004
293.017
293.039
293.076
293.137
293.239
293.406
293.679
294.119
294.818
295.913
297.597
300.137
303.882
309.261
316.768
326.919
340.185
356.922
377.317
401.36
428.868
459.542
493.024
528.957
567.022
606.953
648.539
691.618
736.066
781.782
828.677
876.658
925.625
975.457
1026.04
1077.42
1129.51
1182.21
1235.4
1288.97
1342.79
1396.74
1450.69
1504.5
1558.01
1611.09
1663.57
1715.29
1766.06
1815.69
1863.97
1910.64
1955.43
1997.99
2037.9
2074.67
2106.89
2134.49
2157.23
2172.76
2178.73
2075.59
1961.13
1839.17
1712.49
1583.24
1453.14
1323.69
1196.22
1072.03
952.406
838.415
731.294
633.034
545.844
471.749
412.208
367.585
336.736
317.14
305.639
299.33
296.062
294.445
293.668
293.303
293.135
293.059
293.026
293.011
293.005
293.002
293.001
293
293
293
293
293
293
293.004
293.017
293.039
293.076
293.138
293.24
293.409
293.685
294.129
294.835
295.941
297.643
300.212
303.999
309.44
317.034
327.297
340.703
357.605
378.182
402.416
430.117
460.976
494.631
530.721
568.926
608.977
650.664
693.824
738.332
784.086
830.993
878.96
927.885
977.643
1028.13
1079.38
1131.32
1183.83
1236.8
1290.12
1343.68
1397.33
1450.97
1504.44
1557.62
1610.35
1662.48
1713.85
1764.29
1813.61
1861.6
1908.03
1952.62
1995.04
2034.91
2071.66
2103.99
2131.67
2154.65
2170.53
2177.11
2093.84
1980.26
1859.43
1733.81
1605.38
1475.82
1346.57
1218.97
1094.29
973.828
858.706
750.066
649.824
560.233
483.433
421.079
373.801
340.725
319.486
306.916
299.981
296.377
294.593
293.735
293.333
293.148
293.065
293.028
293.012
293.005
293.002
293.001
293
293
293
293
293
293
293.004
293.017
293.039
293.076
293.139
293.242
293.412
293.689
294.136
294.848
295.964
297.683
300.278
304.107
309.612
317.297
327.686
341.252
358.347
379.143
403.612
431.552
462.645
496.52
532.812
571.196
611.403
653.223
696.491
741.08
786.888
833.82
881.782
930.666
980.35
1030.73
1081.85
1133.62
1185.93
1238.67
1291.73
1344.99
1398.33
1451.62
1504.74
1557.55
1609.91
1661.66
1712.66
1762.73
1811.7
1859.36
1905.48
1949.81
1992
2031.69
2068.37
2100.83
2128.57
2151.68
2167.93
2175.33
2114.19
2001.32
1881.34
1756.56
1628.86
1499.82
1370.83
1243.18
1118.11
996.874
880.664
770.532
668.261
576.145
496.438
431.005
380.776
345.194
322.097
308.319
300.685
296.712
294.747
293.804
293.363
293.161
293.071
293.03
293.013
293.005
293.002
293.001
293
293
293
293
293
293
293.004
293.017
293.039
293.077
293.139
293.242
293.413
293.691
294.141
294.858
295.984
297.721
300.346
304.223
309.801
317.593
328.128
341.882
359.205
380.261
405.008
433.232
464.601
498.737
535.267
573.864
614.256
656.231
699.624
744.307
790.175
837.133
885.084
933.921
983.517
1033.78
1084.75
1136.34
1188.43
1240.92
1293.7
1346.66
1399.67
1452.62
1505.38
1557.82
1609.8
1661.17
1711.78
1761.48
1810.09
1857.41
1903.21
1947.24
1989.17
2028.64
2065.14
2097.57
2125.36
2148.57
2164.96
2172.72
2133.6
2021.58
1902.56
1778.72
1651.85
1523.48
1394.95
1267.48
1142.25
1020.49
903.391
791.956
687.817
593.256
510.629
442.007
388.633
350.305
325.116
309.951
301.503
297.1
294.924
293.883
293.397
293.176
293.077
293.033
293.014
293.006
293.002
293.001
293
293
293
293
293
293
293.004
293.017
293.039
293.076
293.138
293.241
293.411
293.689
294.138
294.854
295.981
297.724
300.363
304.272
309.907
317.793
328.47
342.423
360.001
381.36
406.444
435.019
466.733
501.191
538.011
576.856
617.454
659.591
703.104