/*--------------------------------*- C++ -*----------------------------------*\
  =========                 |
  \\      /  F ield         | OpenFOAM: The Open Source CFD Toolbox
   \\    /   O peration     | Website:  https://openfoam.org
    \\  /    A nd           | Version:  8
     \\/     M anipulation  |
\*---------------------------------------------------------------------------*/
FoamFile
{
    version     2.0;
    format      ascii;
    class       volVectorField;
    location    "1000/fluid";
    object      U;
}
// * * * * * * * * * * * * * * * * * * * * * * * * * * * * * * * * * * * * * //

dimensions      [0 1 -1 0 0 0 0];

internalField   nonuniform List<vector> 
4000
(
(0.0999452 -0.00706388 0)
(0.0996474 -0.0210172 0)
(0.0991666 -0.0348543 0)
(0.0985026 -0.0486153 0)
(0.0976471 -0.0623188 0)
(0.0965823 -0.0759663 0)
(0.0952874 -0.0895467 0)
(0.0937429 -0.10304 0)
(0.0919332 -0.116418 0)
(0.0898495 -0.129653 0)
(0.0874935 -0.142717 0)
(0.0848808 -0.155589 0)
(0.0820455 -0.16826 0)
(0.0790467 -0.180716 0)
(0.0759631 -0.193004 0)
(0.0728673 -0.205192 0)
(0.0698099 -0.217343 0)
(0.0668081 -0.229497 0)
(0.063838 -0.241668 0)
(0.0608352 -0.253827 0)
(0.0577075 -0.265912 0)
(0.0543537 -0.277833 0)
(0.0506844 -0.28948 0)
(0.0466434 -0.300724 0)
(0.0422059 -0.311472 0)
(0.0373647 -0.32166 0)
(0.0321262 -0.331222 0)
(0.0265083 -0.340103 0)
(0.0205374 -0.348254 0)
(0.0142451 -0.355642 0)
(0.00766563 -0.362242 0)
(0.000835077 -0.368042 0)
(-0.00620915 -0.373038 0)
(-0.0134307 -0.377236 0)
(-0.0207964 -0.380649 0)
(-0.0282762 -0.383297 0)
(-0.0358425 -0.385204 0)
(-0.0434693 -0.386403 0)
(-0.0511317 -0.386927 0)
(-0.0588063 -0.386818 0)
(-0.0664709 -0.386116 0)
(-0.0741048 -0.384866 0)
(-0.0816881 -0.383114 0)
(-0.0892017 -0.380909 0)
(-0.0966272 -0.378298 0)
(-0.103946 -0.375333 0)
(-0.111142 -0.372063 0)
(-0.118196 -0.368539 0)
(-0.12509 -0.364815 0)
(-0.131807 -0.360942 0)
(-0.138327 -0.356976 0)
(-0.144632 -0.352971 0)
(-0.1507 -0.348987 0)
(-0.156509 -0.345085 0)
(-0.162035 -0.341332 0)
(-0.167249 -0.337801 0)
(-0.172111 -0.334575 0)
(-0.17657 -0.33174 0)
(-0.180599 -0.329395 0)
(-0.184235 -0.327694 0)
(-0.187547 -0.326913 0)
(-0.189927 -0.327408 0)
(-0.189276 -0.329034 0)
(-0.184395 -0.330052 0)
(-0.177343 -0.329354 0)
(-0.169856 -0.32706 0)
(-0.162138 -0.323461 0)
(-0.154126 -0.318701 0)
(-0.14584 -0.31284 0)
(-0.137351 -0.305914 0)
(-0.128738 -0.297952 0)
(-0.120087 -0.288989 0)
(-0.111484 -0.279064 0)
(-0.103024 -0.268225 0)
(-0.0948529 -0.25653 0)
(-0.0872124 -0.24409 0)
(-0.08043 -0.231103 0)
(-0.0748742 -0.217847 0)
(-0.0709216 -0.204887 0)
(-0.0688695 -0.192734 0)
(-0.0687548 -0.181634 0)
(-0.0702812 -0.171503 0)
(-0.0729355 -0.162035 0)
(-0.0761796 -0.152895 0)
(-0.0795845 -0.143841 0)
(-0.0828674 -0.134728 0)
(-0.0858553 -0.125458 0)
(-0.0884802 -0.116075 0)
(-0.0907396 -0.106626 0)
(-0.0926581 -0.0971463 0)
(-0.0942693 -0.087665 0)
(-0.0956083 -0.0782097 0)
(-0.0967093 -0.0688015 0)
(-0.0976039 -0.0594544 0)
(-0.0983206 -0.0501755 0)
(-0.0988847 -0.040965 0)
(-0.0993181 -0.0318165 0)
(-0.0996379 -0.0227154 0)
(-0.0998559 -0.0136371 0)
(-0.0999822 -0.00455377 0)
(0.0999999 -0.00662382 0)
(0.0997931 -0.0198111 0)
(0.0993654 -0.0329113 0)
(0.0986929 -0.0459075 0)
(0.0977769 -0.0587816 0)
(0.0966129 -0.0715101 0)
(0.0951917 -0.0840644 0)
(0.0935051 -0.0964127 0)
(0.091551 -0.108522 0)
(0.0893365 -0.120363 0)
(0.0868812 -0.131916 0)
(0.0842194 -0.143179 0)
(0.0814018 -0.154181 0)
(0.0784953 -0.165009 0)
(0.0755729 -0.175721 0)
(0.0727013 -0.186377 0)
(0.0699266 -0.197051 0)
(0.0672611 -0.207812 0)
(0.0646738 -0.218699 0)
(0.0620916 -0.229712 0)
(0.0594106 -0.240804 0)
(0.0565153 -0.251895 0)
(0.0532998 -0.262892 0)
(0.0496818 -0.273714 0)
(0.0456138 -0.284242 0)
(0.0410774 -0.294342 0)
(0.0360758 -0.303913 0)
(0.030629 -0.312877 0)
(0.0247688 -0.321174 0)
(0.0185336 -0.328764 0)
(0.0119646 -0.33562 0)
(0.00510341 -0.341727 0)
(-0.0020089 -0.347079 0)
(-0.00933273 -0.351681 0)
(-0.0168306 -0.355545 0)
(-0.0244679 -0.358689 0)
(-0.0322128 -0.361137 0)
(-0.0400368 -0.362917 0)
(-0.0479127 -0.364061 0)
(-0.0558157 -0.364604 0)
(-0.0637221 -0.364584 0)
(-0.0716102 -0.364041 0)
(-0.0794593 -0.363019 0)
(-0.0872498 -0.361562 0)
(-0.0949633 -0.359714 0)
(-0.102582 -0.357522 0)
(-0.110088 -0.355033 0)
(-0.117465 -0.352296 0)
(-0.124695 -0.349359 0)
(-0.131763 -0.346272 0)
(-0.138652 -0.343084 0)
(-0.145344 -0.339848 0)
(-0.151824 -0.336614 0)
(-0.158072 -0.333437 0)
(-0.164072 -0.330371 0)
(-0.169803 -0.327473 0)
(-0.175231 -0.324798 0)
(-0.180316 -0.322401 0)
(-0.185056 -0.32033 0)
(-0.189552 -0.31864 0)
(-0.193916 -0.317381 0)
(-0.1972 -0.316542 0)
(-0.196769 -0.315631 0)
(-0.191456 -0.314055 0)
(-0.183896 -0.311596 0)
(-0.176033 -0.308147 0)
(-0.168031 -0.303661 0)
(-0.15976 -0.298111 0)
(-0.151205 -0.291484 0)
(-0.142417 -0.283771 0)
(-0.133455 -0.274972 0)
(-0.124385 -0.265101 0)
(-0.11527 -0.254199 0)
(-0.106182 -0.242345 0)
(-0.0972691 -0.229693 0)
(-0.0888083 -0.216524 0)
(-0.0811921 -0.203291 0)
(-0.0748817 -0.190625 0)
(-0.0703343 -0.178943 0)
(-0.0678438 -0.16852 0)
(-0.0673862 -0.159373 0)
(-0.0686074 -0.151231 0)
(-0.0709778 -0.143689 0)
(-0.0739802 -0.136382 0)
(-0.0772155 -0.129074 0)
(-0.0804234 -0.121657 0)
(-0.0834609 -0.114124 0)
(-0.0862417 -0.106387 0)
(-0.0887303 -0.0984219 0)
(-0.0909206 -0.0902585 0)
(-0.0928205 -0.0819365 0)
(-0.0944461 -0.0734941 0)
(-0.0958178 -0.0649648 0)
(-0.0969574 -0.056376 0)
(-0.0978873 -0.0477488 0)
(-0.0986281 -0.0390986 0)
(-0.0991977 -0.0304349 0)
(-0.0996078 -0.0217605 0)
(-0.0998664 -0.0130703 0)
(-0.0999951 -0.00436018 0)
(0.0999786 -0.00634383 0)
(0.0997133 -0.0189612 0)
(0.0991936 -0.0314888 0)
(0.0984006 -0.0439073 0)
(0.0973382 -0.0561948 0)
(0.0960073 -0.0683272 0)
(0.0944074 -0.080279 0)
(0.0925413 -0.0920252 0)
(0.0904194 -0.103542 0)
(0.0880618 -0.114812 0)
(0.0855009 -0.125822 0)
(0.0827826 -0.136574 0)
(0.0799655 -0.147084 0)
(0.0771143 -0.157384 0)
(0.0742945 -0.167528 0)
(0.0715681 -0.177591 0)
(0.0689802 -0.187652 0)
(0.0665435 -0.197783 0)
(0.0642277 -0.208028 0)
(0.06196 -0.218396 0)
(0.0596354 -0.22885 0)
(0.0571356 -0.239319 0)
(0.0543475 -0.249712 0)
(0.051175 -0.259924 0)
(0.0475481 -0.269856 0)
(0.0434292 -0.279416 0)
(0.0388105 -0.288522 0)
(0.0337058 -0.297105 0)
(0.0281434 -0.305106 0)
(0.0221598 -0.312484 0)
(0.0157959 -0.319206 0)
(0.00909352 -0.325251 0)
(0.00209459 -0.33061 0)
(-0.00516015 -0.33528 0)
(-0.012632 -0.339269 0)
(-0.020285 -0.342589 0)
(-0.0280859 -0.34526 0)
(-0.0360044 -0.347304 0)
(-0.0440127 -0.34875 0)
(-0.0520845 -0.349627 0)
(-0.0601955 -0.349972 0)
(-0.0683231 -0.349819 0)
(-0.076446 -0.349208 0)
(-0.0845445 -0.348178 0)
(-0.0926 -0.346771 0)
(-0.100595 -0.34503 0)
(-0.108513 -0.342998 0)
(-0.116337 -0.340719 0)
(-0.124054 -0.338236 0)
(-0.131648 -0.335595 0)
(-0.139107 -0.33284 0)
(-0.146417 -0.330016 0)
(-0.153567 -0.327166 0)
(-0.160545 -0.324334 0)
(-0.167339 -0.321562 0)
(-0.173937 -0.318889 0)
(-0.180307 -0.316349 0)
(-0.186411 -0.31397 0)
(-0.192265 -0.311769 0)
(-0.197981 -0.309763 0)
(-0.20355 -0.307955 0)
(-0.207463 -0.306285 0)
(-0.206763 -0.304122 0)
(-0.200846 -0.301189 0)
(-0.192786 -0.297567 0)
(-0.18437 -0.293174 0)
(-0.175746 -0.287911 0)
(-0.166812 -0.281715 0)
(-0.157564 -0.274558 0)
(-0.148047 -0.266434 0)
(-0.138315 -0.257362 0)
(-0.128427 -0.247391 0)
(-0.118442 -0.236608 0)
(-0.108446 -0.225146 0)
(-0.0986314 -0.213209 0)
(-0.0893378 -0.201083 0)
(-0.0810275 -0.189133 0)
(-0.0742284 -0.177766 0)
(-0.0694052 -0.16735 0)
(-0.0667822 -0.158095 0)
(-0.0662391 -0.149953 0)
(-0.0673605 -0.142639 0)
(-0.0696061 -0.135782 0)
(-0.0724759 -0.129065 0)
(-0.0755929 -0.122281 0)
(-0.0787149 -0.115324 0)
(-0.0817103 -0.108164 0)
(-0.0845124 -0.100809 0)
(-0.0870833 -0.0932794 0)
(-0.0894044 -0.085594 0)
(-0.0914708 -0.0777739 0)
(-0.0932858 -0.0698398 0)
(-0.0948576 -0.0618117 0)
(-0.096197 -0.0537077 0)
(-0.0973165 -0.0455435 0)
(-0.0982287 -0.0373325 0)
(-0.0989447 -0.0290851 0)
(-0.0994711 -0.0208081 0)
(-0.0998119 -0.0125026 0)
(-0.0999872 -0.00417162 0)
(0.0999835 -0.00598845 0)
(0.0997139 -0.0178989 0)
(0.0991771 -0.029715 0)
(0.0983533 -0.0414109 0)
(0.0972513 -0.0529598 0)
(0.0958778 -0.0643341 0)
(0.0942383 -0.0755067 0)
(0.0923413 -0.086452 0)
(0.0902016 -0.0971475 0)
(0.087842 -0.107577 0)
(0.0852956 -0.117731 0)
(0.0826067 -0.127617 0)
(0.0798317 -0.137257 0)
(0.0770368 -0.146693 0)
(0.0742926 -0.155988 0)
(0.0716639 -0.165219 0)
(0.0691962 -0.17447 0)
(0.0669012 -0.183813 0)
(0.0647475 -0.193298 0)
(0.0626604 -0.202938 0)
(0.0605326 -0.212705 0)
(0.0582423 -0.222536 0)
(0.0556726 -0.232346 0)
(0.0527265 -0.242039 0)
(0.0493348 -0.251516 0)
(0.0454575 -0.260684 0)
(0.0410807 -0.269462 0)
(0.0362109 -0.277779 0)
(0.0308693 -0.28558 0)
(0.0250865 -0.292819 0)
(0.018898 -0.299465 0)
(0.0123421 -0.305496 0)
(0.0054571 -0.3109 0)
(-0.00171857 -0.315672 0)
(-0.00914788 -0.319816 0)
(-0.0167959 -0.323342 0)
(-0.0246302 -0.326265 0)
(-0.0326212 -0.328604 0)
(-0.0407413 -0.330383 0)
(-0.0489649 -0.331629 0)
(-0.057268 -0.332372 0)
(-0.0656282 -0.332643 0)
(-0.0740248 -0.332476 0)
(-0.0824384 -0.331906 0)
(-0.090851 -0.330971 0)
(-0.0992455 -0.329708 0)
(-0.107606 -0.328154 0)
(-0.115917 -0.326348 0)
(-0.124166 -0.324327 0)
(-0.132339 -0.322131 0)
(-0.140424 -0.319795 0)
(-0.148409 -0.317355 0)
(-0.156285 -0.314846 0)
(-0.164038 -0.312299 0)
(-0.171659 -0.309742 0)
(-0.179129 -0.307199 0)
(-0.18641 -0.304685 0)
(-0.193452 -0.302208 0)
(-0.200277 -0.299766 0)
(-0.207005 -0.297361 0)
(-0.213465 -0.294985 0)
(-0.217512 -0.292583 0)
(-0.216103 -0.289434 0)
(-0.209481 -0.285475 0)
(-0.200978 -0.280902 0)
(-0.192035 -0.275671 0)
(-0.182749 -0.269689 0)
(-0.173065 -0.262897 0)
(-0.163016 -0.25527 0)
(-0.152666 -0.24681 0)
(-0.142087 -0.237546 0)
(-0.131359 -0.22754 0)
(-0.120562 -0.216892 0)
(-0.109825 -0.205744 0)
(-0.0993986 -0.194305 0)
(-0.0896745 -0.182858 0)
(-0.0811379 -0.171752 0)
(-0.0742881 -0.161362 0)
(-0.0695175 -0.151999 0)
(-0.0669671 -0.143799 0)
(-0.0664524 -0.136658 0)
(-0.0675345 -0.130275 0)
(-0.0696867 -0.124297 0)
(-0.0724389 -0.11843 0)
(-0.0754412 -0.112487 0)
(-0.078466 -0.10637 0)
(-0.0813819 -0.100039 0)
(-0.0841205 -0.0934864 0)
(-0.0866491 -0.0867219 0)
(-0.0889535 -0.0797644 0)
(-0.0910291 -0.0726357 0)
(-0.0928766 -0.0653582 0)
(-0.094499 -0.057953 0)
(-0.0959014 -0.0504397 0)
(-0.0970896 -0.042836 0)
(-0.0980698 -0.0351578 0)
(-0.0988471 -0.0274193 0)
(-0.0994226 -0.0196316 0)
(-0.099796 -0.0118016 0)
(-0.0999874 -0.00393853 0)
(0.0999805 -0.00563244 0)
(0.0996959 -0.0168334 0)
(0.0991338 -0.0279428 0)
(0.0982761 -0.0389347 0)
(0.0971338 -0.0497823 0)
(0.0957164 -0.060459 0)
(0.0940323 -0.0709393 0)
(0.0920935 -0.0812 0)
(0.0899182 -0.0912216 0)
(0.0875326 -0.10099 0)
(0.084973 -0.1105 0)
(0.0822867 -0.119756 0)
(0.0795324 -0.128781 0)
(0.0767781 -0.137612 0)
(0.0740949 -0.146305 0)
(0.0715475 -0.154931 0)
(0.0691807 -0.163567 0)
(0.067006 -0.172282 0)
(0.0649919 -0.181124 0)
(0.0630639 -0.19011 0)
(0.0611139 -0.19922 0)
(0.059018 -0.2084 0)
(0.0566558 -0.217578 0)
(0.0539257 -0.226666 0)
(0.0507536 -0.235577 0)
(0.0470944 -0.244225 0)
(0.0429296 -0.252536 0)
(0.038261 -0.260445 0)
(0.0331058 -0.267897 0)
(0.0274908 -0.274851 0)
(0.0214484 -0.281274 0)
(0.0150138 -0.287143 0)
(0.00822295 -0.292445 0)
(0.00111155 -0.297173 0)
(-0.00628516 -0.301328 0)
(-0.0139339 -0.304916 0)
(-0.0218039 -0.307949 0)
(-0.0298669 -0.310444 0)
(-0.0380965 -0.31242 0)
(-0.0464681 -0.313899 0)
(-0.0549588 -0.314906 0)
(-0.063547 -0.31547 0)
(-0.0722128 -0.315618 0)
(-0.0809375 -0.315382 0)
(-0.0897035 -0.314793 0)
(-0.098494 -0.313883 0)
(-0.107293 -0.312684 0)
(-0.116087 -0.311228 0)
(-0.124862 -0.309547 0)
(-0.133604 -0.307673 0)
(-0.1423 -0.305634 0)
(-0.150937 -0.303459 0)
(-0.159501 -0.301174 0)
(-0.167979 -0.298799 0)
(-0.176352 -0.296353 0)
(-0.184594 -0.293848 0)
(-0.192651 -0.291291 0)
(-0.200463 -0.288676 0)
(-0.208061 -0.285996 0)
(-0.215566 -0.283247 0)
(-0.222623 -0.280418 0)
(-0.226444 -0.277466 0)
(-0.224108 -0.273641 0)
(-0.216801 -0.269057 0)
(-0.207918 -0.263916 0)
(-0.198503 -0.258186 0)
(-0.1886 -0.251797 0)
(-0.178212 -0.244708 0)
(-0.167416 -0.236912 0)
(-0.156304 -0.228425 0)
(-0.144971 -0.219293 0)
(-0.133516 -0.20959 0)
(-0.122043 -0.19942 0)
(-0.110716 -0.188932 0)
(-0.0998258 -0.178329 0)
(-0.0897941 -0.167872 0)
(-0.0811089 -0.157863 0)
(-0.074245 -0.148608 0)
(-0.0695407 -0.140329 0)
(-0.0670682 -0.133084 0)
(-0.0665878 -0.126727 0)
(-0.0676401 -0.120971 0)
(-0.0697105 -0.115513 0)
(-0.0723553 -0.110113 0)
(-0.0752509 -0.104621 0)
(-0.0781879 -0.0989615 0)
(-0.0810431 -0.0931033 0)
(-0.0837486 -0.0870421 0)
(-0.0862682 -0.0807865 0)
(-0.0885833 -0.0743509 0)
(-0.0906851 -0.0677519 0)
(-0.0925701 -0.0610069 0)
(-0.0942379 -0.0541333 0)
(-0.0956897 -0.0471476 0)
(-0.0969281 -0.0400655 0)
(-0.0979561 -0.032902 0)
(-0.0987756 -0.0256716 0)
(-0.099385 -0.0183863 0)
(-0.099782 -0.0110551 0)
(-0.0999862 -0.00368952 0)
(0.0999811 -0.00526162 0)
(0.0996942 -0.0157255 0)
(0.0991263 -0.026102 0)
(0.0982597 -0.0363641 0)
(0.097107 -0.0464853 0)
(0.0956798 -0.0564393 0)
(0.0939884 -0.0662013 0)
(0.0920466 -0.0757493 0)
(0.0898742 -0.085065 0)
(0.0874989 -0.0941358 0)
(0.0849575 -0.102957 0)
(0.0822975 -0.111537 0)
(0.0795774 -0.119894 0)
(0.0768647 -0.128069 0)
(0.07423 -0.136115 0)
(0.071738 -0.144101 0)
(0.069434 -0.152102 0)
(0.0673305 -0.160186 0)
(0.0653981 -0.1684 0)
(0.063564 -0.176762 0)
(0.0617213 -0.185255 0)
(0.0597465 -0.193833 0)
(0.0575181 -0.202427 0)
(0.0549321 -0.210957 0)
(0.0519112 -0.219342 0)
(0.0484064 -0.227504 0)
(0.0443948 -0.235371 0)
(0.0398741 -0.242882 0)
(0.0348575 -0.249988 0)
(0.0293679 -0.256647 0)
(0.0234345 -0.262827 0)
(0.0170893 -0.268507 0)
(0.0103654 -0.273671 0)
(0.00329609 -0.278312 0)
(-0.00408538 -0.28243 0)
(-0.0117476 -0.286028 0)
(-0.0196618 -0.289116 0)
(-0.0278012 -0.291706 0)
(-0.0361407 -0.293815 0)
(-0.0446571 -0.295461 0)
(-0.0533282 -0.296666 0)
(-0.0621338 -0.297453 0)
(-0.0710544 -0.297846 0)
(-0.0800718 -0.297872 0)
(-0.0891684 -0.297556 0)
(-0.0983278 -0.296926 0)
(-0.107534 -0.296009 0)
(-0.116773 -0.294831 0)
(-0.126028 -0.293418 0)
(-0.135285 -0.291796 0)
(-0.144528 -0.289988 0)
(-0.153741 -0.288015 0)
(-0.162904 -0.285896 0)
(-0.171998 -0.283646 0)
(-0.180997 -0.281278 0)
(-0.189862 -0.278796 0)
(-0.198524 -0.2762 0)
(-0.206913 -0.273481 0)
(-0.215067 -0.270628 0)
(-0.223102 -0.267631 0)
(-0.230492 -0.264462 0)
(-0.233883 -0.261109 0)
(-0.230617 -0.256917 0)
(-0.222727 -0.252039 0)
(-0.213484 -0.246597 0)
(-0.20361 -0.240591 0)
(-0.193132 -0.233989 0)
(-0.182111 -0.226783 0)
(-0.17066 -0.218982 0)
(-0.158898 -0.210615 0)
(-0.146938 -0.201733 0)
(-0.134898 -0.192414 0)
(-0.122903 -0.182761 0)
(-0.111147 -0.172912 0)
(-0.0999603 -0.163056 0)
(-0.0897805 -0.153427 0)
(-0.0810935 -0.144292 0)
(-0.0743448 -0.135911 0)
(-0.069817 -0.128464 0)
(-0.0675152 -0.121974 0)
(-0.0671477 -0.116284 0)
(-0.0682361 -0.111123 0)
(-0.070275 -0.106214 0)
(-0.0728435 -0.101342 0)
(-0.0756412 -0.0963747 0)
(-0.0784762 -0.0912431 0)
(-0.0812366 -0.085919 0)
(-0.083861 -0.0803972 0)
(-0.0863159 -0.0746845 0)
(-0.0885832 -0.0687933 0)
(-0.0906532 -0.0627385 0)
(-0.0925204 -0.056536 0)
(-0.0941819 -0.0502017 0)
(-0.0956361 -0.0437513 0)
(-0.0968827 -0.0372003 0)
(-0.0979221 -0.0305635 0)
(-0.0987537 -0.0238559 0)
(-0.0993738 -0.0170904 0)
(-0.0997782 -0.0102774 0)
(-0.0999862 -0.00343002 0)
(0.0999807 -0.00489009 0)
(0.0996914 -0.0146153 0)
(0.0991199 -0.0242586 0)
(0.0982486 -0.0337945 0)
(0.0970909 -0.0431976 0)
(0.0956594 -0.0524429 0)
(0.0939653 -0.0615076 0)
(0.0920237 -0.0703713 0)
(0.0898553 -0.0790173 0)
(0.0874887 -0.0874345 0)
(0.0849615 -0.0956192 0)
(0.0823218 -0.103578 0)
(0.0796284 -0.111332 0)
(0.076949 -0.118914 0)
(0.0743542 -0.126377 0)
(0.0719087 -0.133783 0)
(0.0696583 -0.141201 0)
(0.0676161 -0.148696 0)
(0.0657534 -0.156312 0)
(0.0639984 -0.164068 0)
(0.0622447 -0.171952 0)
(0.0603686 -0.179924 0)
(0.0582474 -0.187921 0)
(0.0557751 -0.195874 0)
(0.0528715 -0.203707 0)
(0.0494848 -0.211347 0)
(0.0455888 -0.218732 0)
(0.0411781 -0.225802 0)
(0.0362627 -0.232512 0)
(0.0308629 -0.238822 0)
(0.025005 -0.244702 0)
(0.0187187 -0.25013 0)
(0.0120349 -0.255092 0)
(0.00498462 -0.259579 0)
(-0.0024009 -0.263589 0)
(-0.010092 -0.267123 0)
(-0.0180611 -0.270189 0)
(-0.026283 -0.272798 0)
(-0.034734 -0.274961 0)
(-0.0433918 -0.276695 0)
(-0.0522354 -0.278017 0)
(-0.061245 -0.278946 0)
(-0.0704016 -0.279504 0)
(-0.079687 -0.279712 0)
(-0.089084 -0.279591 0)
(-0.0985758 -0.279164 0)
(-0.108146 -0.278454 0)
(-0.117778 -0.277482 0)
(-0.127454 -0.27627 0)
(-0.137158 -0.274837 0)
(-0.146871 -0.273203 0)
(-0.156572 -0.271384 0)
(-0.166237 -0.269394 0)
(-0.175839 -0.267245 0)
(-0.185343 -0.264945 0)
(-0.1947 -0.262499 0)
(-0.203823 -0.259902 0)
(-0.212636 -0.257145 0)
(-0.221172 -0.254217 0)
(-0.229514 -0.251093 0)
(-0.237018 -0.247729 0)
(-0.240044 -0.244124 0)
(-0.236045 -0.239772 0)
(-0.227512 -0.234797 0)
(-0.217746 -0.229254 0)
(-0.207382 -0.223168 0)
(-0.196405 -0.216549 0)
(-0.184873 -0.209411 0)
(-0.17291 -0.201777 0)
(-0.160648 -0.193684 0)
(-0.148217 -0.185189 0)
(-0.135745 -0.176366 0)
(-0.123375 -0.167316 0)
(-0.111331 -0.158168 0)
(-0.0999661 -0.149095 0)
(-0.0897305 -0.140309 0)
(-0.0811011 -0.132043 0)
(-0.0744929 -0.124515 0)
(-0.0701382 -0.117857 0)
(-0.0679868 -0.112055 0)
(-0.0677097 -0.106942 0)
(-0.0688199 -0.102268 0)
(-0.0708257 -0.0977873 0)
(-0.0733274 -0.0933208 0)
(-0.0760439 -0.0887579 0)
(-0.0787968 -0.0840419 0)
(-0.0814819 -0.0791497 0)
(-0.0840412 -0.074077 0)
(-0.0864424 -0.0688295 0)
(-0.0886672 -0.0634171 0)
(-0.0907049 -0.0578524 0)
(-0.0925488 -0.0521488 0)
(-0.0941945 -0.04632 0)
(-0.0956392 -0.0403801 0)
(-0.0968809 -0.0343428 0)
(-0.0979186 -0.0282222 0)
(-0.0987506 -0.0220323 0)
(-0.0993718 -0.0157859 0)
(-0.0997773 -0.00949342 0)
(-0.0999861 -0.00316831 0)
(0.0999808 -0.00451719 0)
(0.0996923 -0.0135012 0)
(0.0991219 -0.0224094 0)
(0.0982524 -0.0312177 0)
(0.0970977 -0.0399021 0)
(0.0956708 -0.0484393 0)
(0.0939835 -0.0568078 0)
(0.0920514 -0.0649889 0)
(0.0898958 -0.0729672 0)
(0.0875454 -0.0807327 0)
(0.0850379 -0.0882822 0)
(0.0824215 -0.0956224 0)
(0.0797546 -0.102772 0)
(0.0771046 -0.109763 0)
(0.0745418 -0.116645 0)
(0.072131 -0.123474 0)
(0.0699183 -0.130317 0)
(0.0679179 -0.137233 0)
(0.0661025 -0.144266 0)
(0.0644015 -0.151433 0)
(0.0627095 -0.158726 0)
(0.060903 -0.166107 0)
(0.0588583 -0.173523 0)
(0.0564681 -0.180908 0)
(0.0536499 -0.188193 0)
(0.0503491 -0.195314 0)
(0.046537 -0.202209 0)
(0.0422054 -0.208826 0)
(0.0373618 -0.215122 0)
(0.032024 -0.221059 0)
(0.0262161 -0.22661 0)
(0.0199656 -0.231753 0)
(0.0133015 -0.236473 0)
(0.00625327 -0.240763 0)
(-0.00114981 -0.244617 0)
(-0.00887941 -0.248038 0)
(-0.0169093 -0.251029 0)
(-0.0252152 -0.2536 0)
(-0.0337746 -0.25576 0)
(-0.042566 -0.257522 0)
(-0.0515691 -0.258901 0)
(-0.0607644 -0.259913 0)
(-0.070133 -0.260575 0)
(-0.0796569 -0.260904 0)
(-0.0893186 -0.26092 0)
(-0.0991004 -0.26064 0)
(-0.108985 -0.260082 0)
(-0.118954 -0.259265 0)
(-0.128988 -0.258206 0)
(-0.139068 -0.256921 0)
(-0.149172 -0.255424 0)
(-0.159276 -0.25373 0)
(-0.16935 -0.251848 0)
(-0.179363 -0.249788 0)
(-0.189273 -0.247557 0)
(-0.199017 -0.245155 0)
(-0.208496 -0.242581 0)
(-0.217626 -0.239825 0)
(-0.226416 -0.23688 0)
(-0.234901 -0.233724 0)
(-0.242305 -0.23032 0)
(-0.244908 -0.226618 0)
(-0.240274 -0.222201 0)
(-0.231185 -0.217224 0)
(-0.220945 -0.211733 0)
(-0.210145 -0.20575 0)
(-0.198744 -0.199295 0)
(-0.186794 -0.19239 0)
(-0.174426 -0.185066 0)
(-0.161776 -0.177366 0)
(-0.148986 -0.169345 0)
(-0.136193 -0.161078 0)
(-0.123554 -0.152657 0)
(-0.111319 -0.144204 0)
(-0.0998595 -0.135874 0)
(-0.0896342 -0.12786 0)
(-0.08111 -0.120367 0)
(-0.0746735 -0.11358 0)
(-0.0705116 -0.107598 0)
(-0.0685255 -0.10239 0)
(-0.0683541 -0.0977885 0)
(-0.0695033 -0.0935618 0)
(-0.0714925 -0.0894934 0)
(-0.0739409 -0.0854262 0)
(-0.0765846 -0.0812651 0)
(-0.079258 -0.0769614 0)
(-0.0818652 -0.0724953 0)
(-0.0843525 -0.0678631 0)
(-0.0866899 -0.0630695 0)
(-0.0888598 -0.0581232 0)
(-0.0908514 -0.053035 0)
(-0.0926575 -0.047817 0)
(-0.094273 -0.0424814 0)
(-0.0956939 -0.0370409 0)
(-0.0969175 -0.0315082 0)
(-0.0979417 -0.0258964 0)
(-0.0987639 -0.0202188 0)
(-0.0993784 -0.0144875 0)
(-0.0997797 -0.00871278 0)
(-0.0999863 -0.00290768 0)
(0.0999809 -0.00414593 0)
(0.0996934 -0.0123919 0)
(0.0991253 -0.0205685 0)
(0.0982596 -0.0286534 0)
(0.0971101 -0.0366244 0)
(0.09569 -0.0444601 0)
(0.0940116 -0.0521409 0)
(0.0920905 -0.0596494 0)
(0.0899482 -0.0669718 0)
(0.0876135 -0.074099 0)
(0.0851242 -0.0810282 0)
(0.0825283 -0.0877656 0)
(0.0798841 -0.0943284 0)
(0.0772586 -0.100747 0)
(0.0747221 -0.107064 0)
(0.0723394 -0.113334 0)
(0.0701571 -0.119617 0)
(0.0681901 -0.125968 0)
(0.0664119 -0.132428 0)
(0.0647531 -0.139015 0)
(0.0631089 -0.145721 0)
(0.0613556 -0.152514 0)
(0.0593691 -0.159346 0)
(0.0570404 -0.166158 0)
(0.0542853 -0.172887 0)
(0.0510474 -0.179474 0)
(0.0472956 -0.185863 0)
(0.0430196 -0.192006 0)
(0.0382249 -0.197863 0)
(0.0329274 -0.203399 0)
(0.0271493 -0.208589 0)
(0.0209167 -0.213411 0)
(0.0142568 -0.217851 0)
(0.00719773 -0.221902 0)
(-0.000232543 -0.225557 0)
(-0.00800683 -0.228818 0)
(-0.0160999 -0.231687 0)
(-0.0244883 -0.23417 0)
(-0.0331504 -0.236277 0)
(-0.0420652 -0.238017 0)
(-0.0512126 -0.239401 0)
(-0.0605733 -0.240444 0)
(-0.0701286 -0.241159 0)
(-0.0798602 -0.241562 0)
(-0.0897498 -0.241666 0)
(-0.0997789 -0.241488 0)
(-0.109929 -0.241041 0)
(-0.120179 -0.240342 0)
(-0.130509 -0.239403 0)
(-0.140897 -0.238238 0)
(-0.151317 -0.236857 0)
(-0.161741 -0.235272 0)
(-0.172136 -0.233492 0)
(-0.182466 -0.231522 0)
(-0.192681 -0.229367 0)
(-0.20271 -0.227029 0)
(-0.212445 -0.224505 0)
(-0.221803 -0.221791 0)
(-0.230787 -0.218887 0)
(-0.239396 -0.215799 0)
(-0.246651 -0.212517 0)
(-0.248775 -0.208862 0)
(-0.243527 -0.204471 0)
(-0.233979 -0.199581 0)
(-0.22335 -0.194249 0)
(-0.212182 -0.18849 0)
(-0.200425 -0.182318 0)
(-0.188134 -0.175759 0)
(-0.175441 -0.168847 0)
(-0.16249 -0.161623 0)
(-0.149427 -0.154145 0)
(-0.136397 -0.14648 0)
(-0.123568 -0.138716 0)
(-0.11121 -0.130964 0)
(-0.099712 -0.123369 0)
(-0.089534 -0.116101 0)
(-0.0811333 -0.109343 0)
(-0.0748694 -0.103249 0)
(-0.0708889 -0.0978938 0)
(-0.0690525 -0.0932279 0)
(-0.0689741 -0.089089 0)
(-0.0701566 -0.085266 0)
(-0.0721315 -0.0815687 0)
(-0.0745345 -0.0778623 0)
(-0.0771161 -0.0740664 0)
(-0.0797214 -0.0701403 0)
(-0.0822609 -0.0660674 0)
(-0.0846844 -0.0618449 0)
(-0.0869636 -0.0574768 0)
(-0.0890815 -0.0529706 0)
(-0.0910275 -0.0483357 0)
(-0.0927944 -0.0435824 0)
(-0.0943765 -0.0387217 0)
(-0.0957696 -0.0337647 0)
(-0.0969703 -0.028723 0)
(-0.0979763 -0.0236084 0)
(-0.0987843 -0.018433 0)
(-0.0993886 -0.0132081 0)
(-0.0997833 -0.00794327 0)
(-0.0999865 -0.00265075 0)
(0.099981 -0.00377651 0)
(0.0996953 -0.011288 0)
(0.0991305 -0.0187367 0)
(0.0982698 -0.026102 0)
(0.097127 -0.0333636 0)
(0.0957155 -0.0405022 0)
(0.0940474 -0.0474998 0)
(0.0921385 -0.0543406 0)
(0.0900103 -0.0610121 0)
(0.0876915 -0.067506 0)
(0.0852197 -0.0738199 0)
(0.0826427 -0.0799595 0)
(0.0800183 -0.0859406 0)
(0.0774135 -0.0917905 0)
(0.0748982 -0.0975488 0)
(0.0725374 -0.103265 0)
(0.0703779 -0.108994 0)
(0.0684355 -0.114786 0)
(0.0666846 -0.120679 0)
(0.0650566 -0.126691 0)
(0.0634473 -0.132816 0)
(0.061733 -0.139025 0)
(0.059789 -0.145275 0)
(0.0575053 -0.151513 0)
(0.0547961 -0.157681 0)
(0.0516033 -0.163727 0)
(0.0478939 -0.1696 0)
(0.043656 -0.175255 0)
(0.0388935 -0.180656 0)
(0.0336205 -0.18577 0)
(0.0278582 -0.190574 0)
(0.0216309 -0.195049 0)
(0.0149649 -0.19918 0)
(0.00788712 -0.202959 0)
(0.000424506 -0.206381 0)
(-0.00739662 -0.209446 0)
(-0.0155517 -0.212155 0)
(-0.0240181 -0.214513 0)
(-0.0327745 -0.216526 0)
(-0.0418003 -0.218203 0)
(-0.0510756 -0.219554 0)
(-0.060581 -0.220588 0)
(-0.0702978 -0.221319 0)
(-0.080207 -0.221757 0)
(-0.0902896 -0.221916 0)
(-0.100526 -0.221808 0)
(-0.110896 -0.221445 0)
(-0.121378 -0.220838 0)
(-0.13195 -0.22 0)
(-0.142586 -0.218941 0)
(-0.153258 -0.21767 0)
(-0.163934 -0.216196 0)
(-0.17458 -0.214526 0)
(-0.185153 -0.212665 0)
(-0.1956 -0.210617 0)
(-0.205843 -0.208385 0)
(-0.215773 -0.205968 0)
(-0.225318 -0.203365 0)
(-0.234508 -0.200586 0)
(-0.243309 -0.197647 0)
(-0.250315 -0.194563 0)
(-0.251729 -0.190964 0)
(-0.245794 -0.186684 0)
(-0.23593 -0.181967 0)
(-0.225052 -0.176879 0)
(-0.213617 -0.171425 0)
(-0.201589 -0.165618 0)
(-0.189034 -0.15948 0)
(-0.17609 -0.153044 0)
(-0.162908 -0.146351 0)
(-0.149639 -0.139454 0)
(-0.136432 -0.132417 0)
(-0.123469 -0.12532 0)
(-0.111035 -0.118264 0)
(-0.0995337 -0.111379 0)
(-0.0894253 -0.104821 0)
(-0.0811569 -0.0987481 0)
(-0.0750635 -0.0932929 0)
(-0.0712558 -0.0885091 0)
(-0.0695598 -0.0843387 0)
(-0.0695693 -0.0806273 0)
(-0.0707857 -0.077184 0)
(-0.0727513 -0.073842 0)
(-0.0751161 -0.070485 0)
(-0.0776437 -0.0670444 0)
(-0.0801882 -0.0634858 0)
(-0.0826658 -0.0597953 0)
(-0.0850296 -0.0559707 0)
(-0.0872531 -0.0520156 0)
(-0.0893201 -0.0479364 0)
(-0.0912205 -0.0437415 0)
(-0.0929468 -0.0394399 0)
(-0.0944937 -0.0350413 0)
(-0.0958566 -0.0305556 0)
(-0.097032 -0.0259932 0)
(-0.0980171 -0.0213646 0)
(-0.0988088 -0.016681 0)
(-0.0994008 -0.0119526 0)
(-0.0997877 -0.00718807 0)
(-0.0999868 -0.00239862 0)
(0.0999811 -0.00340943 0)
(0.0996971 -0.0101911 0)
(0.0991357 -0.0169162 0)
(0.0982801 -0.0235664 0)
(0.0971443 -0.0301235 0)
(0.0957412 -0.0365697 0)
(0.0940832 -0.0428891 0)
(0.092186 -0.0490674 0)
(0.0900708 -0.0550934 0)
(0.0877664 -0.0609596 0)
(0.0853101 -0.066664 0)
(0.0827493 -0.0722117 0)
(0.0801417 -0.0776167 0)
(0.0775539 -0.0829039 0)
(0.0750558 -0.088109 0)
(0.0727123 -0.0932766 0)
(0.0705707 -0.0984562 0)
(0.0686471 -0.103694 0)
(0.0669169 -0.109025 0)
(0.0653122 -0.114465 0)
(0.0637291 -0.120009 0)
(0.062044 -0.125634 0)
(0.0601315 -0.1313 0)
(0.0578808 -0.136959 0)
(0.0552048 -0.142561 0)
(0.0520439 -0.148057 0)
(0.0483638 -0.153402 0)
(0.0441512 -0.158555 0)
(0.0394085 -0.163483 0)
(0.0341489 -0.168157 0)
(0.0283922 -0.172554 0)
(0.0221619 -0.176658 0)
(0.0154832 -0.180454 0)
(0.00838223 -0.183935 0)
(0.000885185 -0.187096 0)
(-0.00698226 -0.189934 0)
(-0.0151961 -0.192452 0)
(-0.0237341 -0.194653 0)
(-0.0325752 -0.196541 0)
(-0.0416991 -0.198123 0)
(-0.0510858 -0.199408 0)
(-0.0607161 -0.200404 0)
(-0.0705706 -0.20112 0)
(-0.0806299 -0.201567 0)
(-0.0908742 -0.201755 0)
(-0.101283 -0.201694 0)
(-0.111835 -0.201394 0)
(-0.122507 -0.200864 0)
(-0.133274 -0.200116 0)
(-0.14411 -0.199156 0)
(-0.154984 -0.197994 0)
(-0.165862 -0.196635 0)
(-0.176706 -0.195087 0)
(-0.18747 -0.193354 0)
(-0.1981 -0.19144 0)
(-0.208512 -0.189347 0)
(-0.218597 -0.187076 0)
(-0.228292 -0.184628 0)
(-0.237653 -0.182012 0)
(-0.246575 -0.179242 0)
(-0.253221 -0.176343 0)
(-0.253875 -0.172883 0)
(-0.247361 -0.16882 0)
(-0.237289 -0.16438 0)
(-0.226247 -0.159621 0)
(-0.214619 -0.154548 0)
(-0.202383 -0.14917 0)
(-0.189625 -0.14351 0)
(-0.176489 -0.1376 0)
(-0.163131 -0.131477 0)
(-0.149707 -0.125191 0)
(-0.13637 -0.1188 0)
(-0.123312 -0.112375 0)
(-0.110835 -0.10601 0)
(-0.0993506 -0.0998229 0)
(-0.0893209 -0.0939497 0)
(-0.0811826 -0.0885314 0)
(-0.0752483 -0.0836791 0)
(-0.0715972 -0.0794305 0)
(-0.0700262 -0.0757231 0)
(-0.0701131 -0.0724126 0)
(-0.0713594 -0.0693288 0)
(-0.0733175 -0.066326 0)
(-0.0756501 -0.0633045 0)
(-0.0781314 -0.0602064 0)
(-0.0806233 -0.0570026 0)
(-0.0830469 -0.0536819 0)
(-0.085358 -0.0502423 0)
(-0.0875314 -0.0466871 0)
(-0.089552 -0.043022 0)
(-0.09141 -0.0392543 0)
(-0.0930982 -0.0353919 0)
(-0.0946112 -0.0314431 0)
(-0.0959446 -0.0274169 0)
(-0.0970948 -0.0233223 0)
(-0.098059 -0.0191687 0)
(-0.0988339 -0.014966 0)
(-0.0994135 -0.0107234 0)
(-0.0997922 -0.00644865 0)
(-0.0999871 -0.00215178 0)
(0.0999812 -0.00304457 0)
(0.0996989 -0.00910068 0)
(0.0991407 -0.0151066 0)
(0.0982901 -0.0210459 0)
(0.0971608 -0.0269023 0)
(0.0957657 -0.0326603 0)
(0.0941171 -0.0383054 0)
(0.0922305 -0.043825 0)
(0.0901271 -0.0492091 0)
(0.0878354 -0.0544512 0)
(0.0853925 -0.0595493 0)
(0.0828456 -0.064508 0)
(0.0802521 -0.0693399 0)
(0.0776782 -0.0740671 0)
(0.0751938 -0.0787215 0)
(0.0728638 -0.083343 0)
(0.0707357 -0.0879758 0)
(0.0688263 -0.0926615 0)
(0.0671115 -0.0974315 0)
(0.065524 -0.102301 0)
(0.0639602 -0.107266 0)
(0.0622965 -0.112306 0)
(0.0604072 -0.117386 0)
(0.0581803 -0.122463 0)
(0.055528 -0.127493 0)
(0.0523893 -0.132432 0)
(0.0487289 -0.137239 0)
(0.0445323 -0.141878 0)
(0.0398009 -0.14632 0)
(0.034547 -0.150537 0)
(0.0287894 -0.154511 0)
(0.0225509 -0.158224 0)
(0.0158561 -0.161666 0)
(0.00873022 -0.164826 0)
(0.00119911 -0.167702 0)
(-0.00671209 -0.170291 0)
(-0.0149797 -0.172593 0)
(-0.0235818 -0.174611 0)
(-0.0324976 -0.176349 0)
(-0.0417066 -0.177813 0)
(-0.0511891 -0.179007 0)
(-0.0609254 -0.179941 0)
(-0.0708959 -0.180621 0)
(-0.0810806 -0.181055 0)
(-0.091459 -0.181253 0)
(-0.10201 -0.181222 0)
(-0.11271 -0.180972 0)
(-0.123536 -0.18051 0)
(-0.134462 -0.179843 0)
(-0.145458 -0.17898 0)
(-0.156492 -0.177926 0)
(-0.167529 -0.176689 0)
(-0.178528 -0.175272 0)
(-0.189442 -0.173681 0)
(-0.200212 -0.171918 0)
(-0.210753 -0.169986 0)
(-0.220953 -0.167886 0)
(-0.230763 -0.165618 0)
(-0.240251 -0.163191 0)
(-0.249249 -0.160616 0)
(-0.255516 -0.15794 0)
(-0.255465 -0.154711 0)
(-0.248464 -0.150951 0)
(-0.238237 -0.146861 0)
(-0.227078 -0.142494 0)
(-0.215303 -0.137854 0)
(-0.20291 -0.132953 0)
(-0.189995 -0.127813 0)
(-0.176713 -0.122462 0)
(-0.163222 -0.116936 0)
(-0.149681 -0.111279 0)
(-0.136247 -0.105543 0)
(-0.123124 -0.0997924 0)
(-0.110624 -0.0941116 0)
(-0.0991691 -0.0886054 0)
(-0.0892207 -0.083395 0)
(-0.0812058 -0.0786027 0)
(-0.075417 -0.0743218 0)
(-0.0719064 -0.0705777 0)
(-0.070446 -0.0673073 0)
(-0.0706012 -0.0643785 0)
(-0.0718744 -0.0616407 0)
(-0.0738268 -0.0589679 0)
(-0.0761322 -0.0562752 0)
(-0.0785739 -0.0535133 0)
(-0.0810204 -0.0506579 0)
(-0.0833968 -0.0476998 0)
(-0.0856613 -0.0446374 0)
(-0.0877902 -0.0414738 0)
(-0.089769 -0.0382139 0)
(-0.0915884 -0.0348639 0)
(-0.0932415 -0.0314308 0)
(-0.0947231 -0.027922 0)
(-0.0960288 -0.0243451 0)
(-0.0971551 -0.020708 0)
(-0.0980993 -0.0170192 0)