/*--------------------------------*- C++ -*----------------------------------*\
  =========                 |
  \\      /  F ield         | OpenFOAM: The Open Source CFD Toolbox
   \\    /   O peration     | Website:  https://openfoam.org
    \\  /    A nd           | Version:  8
     \\/     M anipulation  |
\*---------------------------------------------------------------------------*/
FoamFile
{
    version     2.0;
    format      ascii;
    class       volScalarField;
    location    "0.2/fluid";
    object      CH4;
}
// * * * * * * * * * * * * * * * * * * * * * * * * * * * * * * * * * * * * * //

dimensions      [0 0 0 0 0 0 0];

internalField   nonuniform List<scalar> 
4000
(
0.999997
0.999988
0.999973
0.999947
0.999904
0.999832
0.999713
0.999519
0.999203
0.998696
0.997894
0.996646
0.994739
0.991889
0.987733
0.981837
0.973739
0.962998
0.949247
0.932259
0.911972
0.888491
0.862061
0.833025
0.801788
0.768782
0.734445
0.699201
0.663317
0.62716
0.591193
0.555675
0.520833
0.48686
0.453915
0.422123
0.391583
0.362366
0.334515
0.308055
0.282989
0.259306
0.236983
0.215985
0.19627
0.177791
0.160496
0.144329
0.129235
0.115158
0.102043
0.0898341
0.0784798
0.0679308
0.0581424
0.0490752
0.0406974
0.0330047
0.0261397
0.0197559
0.0141025
0.00928976
0.0055237
0.00316845
0.00178232
0.000977092
0.000519012
0.000265549
0.000130019
6.05108e-05
2.65853e-05
1.09666e-05
4.31645e-06
1.88139e-06
1.19243e-06
9.13e-07
6.9267e-07
5.00708e-07
3.40954e-07
2.16832e-07
1.28227e-07
7.06583e-08
3.65625e-08
1.79639e-08
8.54193e-09
3.959e-09
1.79766e-09
8.02758e-10
3.53625e-10
1.54062e-10
6.65257e-11
2.8525e-11
1.2163e-11
5.16154e-12
2.17874e-12
9.11535e-13
3.73979e-13
1.4612e-13
4.96199e-14
8.77018e-15
0.999997
0.999988
0.999973
0.999947
0.999903
0.999831
0.999712
0.999516
0.999198
0.99869
0.997887
0.996641
0.994741
0.991909
0.987791
0.981971
0.973999
0.963432
0.949903
0.933175
0.91317
0.889972
0.863804
0.834992
0.803927
0.771033
0.736739
0.701359
0.66537
0.629307
0.593332
0.557738
0.522778
0.48866
0.455555
0.423595
0.392885
0.3635
0.335488
0.308874
0.283664
0.259848
0.237402
0.216292
0.196477
0.177908
0.160531
0.144293
0.129138
0.115008
0.101847
0.0895999
0.0782132
0.0676377
0.0578281
0.0487445
0.040355
0.0326662
0.0258089
0.0194345
0.0138003
0.00902147
0.00531183
0.00304425
0.00170941
0.000934648
0.000494701
0.000251947
0.000122637
5.66691e-05
2.46835e-05
1.00886e-05
3.96598e-06
1.8112e-06
1.19544e-06
9.14095e-07
6.85021e-07
4.88539e-07
3.28093e-07
2.05933e-07
1.20503e-07
6.59953e-08
3.41184e-08
1.68149e-08
8.03823e-09
3.74962e-09
1.71407e-09
7.70323e-10
3.41241e-10
1.49347e-10
6.47122e-11
2.78138e-11
1.18773e-11
5.0442e-12
2.12983e-12
8.9109e-13
3.6557e-13
1.42833e-13
4.8506e-14
8.57376e-15
0.999997
0.999988
0.999973
0.999946
0.999903
0.99983
0.99971
0.999513
0.999194
0.998685
0.997881
0.996634
0.994739
0.991919
0.987829
0.982065
0.974178
0.963736
0.95038
0.933868
0.914115
0.891191
0.865302
0.836756
0.805927
0.773227
0.739007
0.703705
0.667934
0.631873
0.595856
0.560182
0.525106
0.490845
0.457574
0.425433
0.394532
0.364952
0.336745
0.309939
0.284544
0.260552
0.23794
0.216677
0.196719
0.178018
0.160525
0.144184
0.128936
0.114726
0.101494
0.0891865
0.0777493
0.0671325
0.0572907
0.0481847
0.0397836
0.0321206
0.025266
0.0189065
0.0133098
0.0085996
0.00500499
0.00286181
0.00160131
0.000871428
0.000458499
0.000231797
0.000111815
5.11241e-05
2.19961e-05
8.8819e-06
3.50225e-06
1.71696e-06
1.18656e-06
9.04794e-07
6.70016e-07
4.71927e-07
3.13226e-07
1.94655e-07
1.13114e-07
6.1737e-08
3.19105e-08
1.57583e-08
7.55314e-09
3.53482e-09
1.62154e-09
7.31298e-10
3.25026e-10
1.42668e-10
6.19701e-11
2.66867e-11
1.14121e-11
4.85122e-12
2.04952e-12
8.57758e-13
3.51957e-13
1.37531e-13
4.67111e-14
8.25737e-15
0.999997
0.999988
0.999972
0.999946
0.999903
0.99983
0.99971
0.999513
0.999195
0.998686
0.997886
0.996649
0.99477
0.991979
0.987935
0.982234
0.974439
0.964123
0.950925
0.934602
0.915061
0.892361
0.866698
0.838366
0.80773
0.775165
0.741049
0.706008
0.670273
0.634213
0.598163
0.562423
0.527251
0.492867
0.459451
0.427149
0.396073
0.366311
0.337918
0.310927
0.285349
0.26118
0.238401
0.216977
0.196868
0.178032
0.160416
0.143963
0.128616
0.114317
0.101008
0.0886348
0.077142
0.0664798
0.0566023
0.0474703
0.0390533
0.0314232
0.0245896
0.0182623
0.0127258
0.00811811
0.00469406
0.00267231
0.00148721
0.000804083
0.000419811
0.000210308
0.000100356
4.53242e-05
1.92333e-05
7.67281e-06
3.06245e-06
1.63238e-06
1.16948e-06
8.85713e-07
6.4784e-07
4.50479e-07
2.95208e-07
1.81326e-07
1.04373e-07
5.65977e-08
2.91552e-08
1.43873e-08
6.90309e-09
3.23718e-09
1.48889e-09
6.73439e-10
3.00225e-10
1.32187e-10
5.75898e-11
2.48709e-11
1.06636e-11
4.54391e-12
1.92381e-12
8.06684e-13
3.31547e-13
1.29732e-13
4.41057e-14
7.80074e-15
0.999997
0.999988
0.999972
0.999946
0.999903
0.99983
0.99971
0.999514
0.999197
0.998691
0.997896
0.996666
0.994802
0.992034
0.988027
0.982382
0.974666
0.964455
0.95139
0.935225
0.915861
0.893349
0.867876
0.839728
0.809261
0.776787
0.742921
0.707941
0.672239
0.636182
0.600106
0.56431
0.529056
0.494567
0.461027
0.428583
0.397355
0.367431
0.338872
0.311713
0.28597
0.261639
0.238701
0.217127
0.196884
0.177922
0.160188
0.14363
0.128189
0.113807
0.100426
0.0879914
0.0764475
0.065744
0.0558352
0.0466816
0.0382536
0.0306761
0.0238633
0.0175737
0.0121077
0.00761837
0.00438852
0.00248622
0.00137543
0.000738408
0.000382328
0.000189667
8.95007e-05
3.99083e-05
1.66999e-05
6.59247e-06
2.68884e-06
1.53712e-06
1.13315e-06
8.54673e-07
6.1976e-07
4.26773e-07
2.76908e-07
1.68558e-07
9.63428e-08
5.20072e-08
2.67334e-08
1.31889e-08
6.33334e-09
2.9742e-09
1.37027e-09
6.20903e-10
2.773e-10
1.22303e-10
5.33697e-11
2.30832e-11
9.91115e-12
4.22892e-12
1.79274e-12
7.52635e-13
3.09683e-13
1.21297e-13
4.1269e-14
7.30187e-15
0.999997
0.999988
0.999973
0.999947
0.999903
0.999831
0.999711
0.999516
0.999201
0.998699
0.99791
0.99669
0.994841
0.992099
0.988129
0.982536
0.974892
0.964774
0.951822
0.935788
0.916567
0.894207
0.868885
0.840883
0.810522
0.778249
0.744445
0.70951
0.673831
0.637772
0.601669
0.565823
0.530497
0.495915
0.462266
0.4297
0.398338
0.368274
0.339571
0.312266
0.286377
0.261901
0.238827
0.217128
0.196764
0.177689
0.159854
0.143203
0.12768
0.113227
0.0997855
0.0872995
0.0757146
0.0649797
0.0550484
0.0458809
0.0374463
0.0299301
0.0231269
0.0168765
0.0114862
0.00712063
0.00408848
0.00230587
0.0012685
0.000676401
0.00034742
0.000170721
7.96968e-05
3.51021e-05
1.44984e-05
5.68459e-06
2.40687e-06
1.46632e-06
1.09853e-06
8.23969e-07
5.9252e-07
4.04236e-07
2.59779e-07
1.56716e-07
8.89072e-08
4.77326e-08
2.44521e-08
1.20437e-08
5.78198e-09
2.71662e-09
1.25284e-09
5.68439e-10
2.54257e-10
1.12324e-10
4.90983e-11
2.12719e-11
9.14875e-12
3.90999e-12
1.66014e-12
6.98005e-13
2.87594e-13
1.12774e-13
3.84017e-14
6.79741e-15
0.999997
0.999988
0.999973
0.999947
0.999903
0.999831
0.999713
0.999519
0.999206
0.998707
0.997924
0.996713
0.994879
0.992159
0.988222
0.982675
0.975093
0.965054
0.952197
0.936272
0.91717
0.894931
0.869726
0.841826
0.811549
0.779382
0.745649
0.710756
0.675094
0.639029
0.602898
0.567003
0.53161
0.496946
0.4632
0.430526
0.399048
0.368862
0.340034
0.312602
0.286586
0.261991
0.238803
0.216994
0.196527
0.177359
0.159438
0.14271
0.12712
0.112609
0.0991193
0.0865949
0.0749814
0.0642282
0.05429
0.0451288
0.0367172
0.0292759
0.0223349
0.0161671
0.0108731
0.00663895
0.00380207
0.00213607
0.00116921
0.000619625
0.000315914
0.000153878
7.11187e-05
3.09692e-05
1.26436e-05
4.94631e-06
2.20731e-06
1.41602e-06
1.06816e-06
7.95877e-07
5.67613e-07
3.83821e-07
2.44458e-07
1.46262e-07
8.24171e-08
4.40306e-08
2.24836e-08
1.10585e-08
5.30612e-09
2.49311e-09
1.15024e-09
5.22245e-10
2.33797e-10
1.03388e-10
4.52417e-11
1.96238e-11
8.45011e-12
3.6159e-12
1.53721e-12
6.47116e-13
2.66935e-13
1.04778e-13
3.57049e-14
6.32235e-15
0.999997
0.999988
0.999973
0.999947
0.999904
0.999832
0.999714
0.999522
0.999211
0.998716
0.997938
0.996736
0.994916
0.992216
0.988308
0.982802
0.975273
0.9653
0.952522
0.936685
0.917677
0.895533
0.87042
0.84258
0.812434
0.780312
0.746614
0.711742
0.676084
0.640005
0.603843
0.567901
0.532445
0.497705
0.463873
0.431105
0.399526
0.369235
0.340297
0.312756
0.286638
0.261943
0.238658
0.216758
0.196206
0.176959
0.158968
0.142179
0.126535
0.111978
0.0984518
0.0858986
0.0742645
0.0634989
0.0535564
0.0443992
0.0359999
0.0285809
0.0216613
0.0155413
0.0103236
0.00620521
0.00354463
0.00198419
0.00108104
0.000569655
0.000288471
0.000139381
6.38318e-05
2.75093e-05
1.11164e-05
4.34993e-06
2.04292e-06
1.36908e-06
1.03749e-06
7.69037e-07
5.44668e-07
3.6542e-07
2.30851e-07
1.37071e-07
7.67437e-08
4.07996e-08
2.07623e-08
1.01942e-08
4.88691e-09
2.29536e-09
1.05909e-09
4.8105e-10
2.15491e-10
9.53708e-11
4.1773e-11
1.81384e-11
7.81935e-12
3.34998e-12
1.42589e-12
6.00976e-13
2.48181e-13
9.75098e-14
3.32517e-14
5.89e-15
0.999997
0.999988
0.999973
0.999947
0.999904
0.999833
0.999716
0.999525
0.999216
0.998723
0.99795
0.996757
0.994949
0.992267
0.988384
0.982913
0.975429
0.965512
0.952799
0.937035
0.918104
0.896038
0.870996
0.843251
0.813145
0.781055
0.74738
0.712516
0.676852
0.640754
0.604557
0.568568
0.533053
0.498245
0.464336
0.431485
0.399818
0.369434
0.340405
0.312777
0.286571
0.261792
0.238426
0.21645
0.195829
0.17652
0.158472
0.141634
0.125948
0.111357
0.0978033
0.0852294
0.0735813
0.0628083
0.0528649
0.0437133
0.0353403
0.0279449
0.0210562
0.0149835
0.00983582
0.0058224
0.00331868
0.00185179
0.00100476
0.000526792
0.000265153
0.00012719
5.77739e-05
2.46703e-05
9.88546e-06
3.89017e-06
1.94092e-06
1.34144e-06
1.0149e-06
7.47111e-07
5.25126e-07
3.4951e-07
2.19055e-07
1.29126e-07
7.18595e-08
3.80275e-08
1.92881e-08
9.45403e-09
4.52748e-09
2.12547e-09
9.80578e-10
4.45462e-10
1.99627e-10
8.84005e-11
3.8748e-11
1.68392e-11
7.2662e-12
3.11621e-12
1.32782e-12
5.60252e-13
2.31601e-13
9.10758e-14
3.10778e-14
5.5067e-15
0.999997
0.999988
0.999973
0.999948
0.999905
0.999834
0.999717
0.999527
0.99922
0.99873
0.997962
0.996776
0.994978
0.992311
0.988451
0.983009
0.975563
0.965692
0.953033
0.937326
0.918453
0.896444
0.871442
0.843757
0.813695
0.781634
0.747974
0.713113
0.677438
0.641316
0.605085
0.56905
0.533482
0.498611
0.464635
0.43171
0.399966
0.369506
0.340402
0.312699
0.286419
0.261569
0.238137
0.2161
0.195424
0.176064
0.157973
0.141097
0.12538
0.110763
0.0971897
0.084602
0.0729459
0.0621703
0.05223
0.0430873
0.0347476
0.0273769
0.0205201
0.0144931
0.0094112
0.00549389
0.00312651
0.00174006
0.000940847
0.000491128
0.000245891
0.0001172
5.28524e-05
2.23867e-05
8.90802e-06
3.53308e-06
1.85441e-06
1.31286e-06
9.91601e-07
7.25887e-07
5.06934e-07
3.35074e-07
2.0855e-07
1.2215e-07
6.76155e-08
3.56348e-08
1.80206e-08
8.81873e-09
4.21912e-09
1.97965e-09
9.13127e-10
4.14848e-10
1.8596e-10
8.23862e-11
3.61339e-11
1.57148e-11
6.7868e-12
2.91335e-12
1.24262e-12
5.2483e-13
2.17165e-13
8.54695e-14
2.91825e-14
5.1724e-15
0.999997
0.999988
0.999973
0.999948
0.999905
0.999835
0.999719
0.999529
0.999224
0.998737
0.997972
0.996792
0.995003
0.99235
0.988508
0.983091
0.975676
0.965843
0.953227
0.937566
0.918741
0.896771
0.871832
0.844176
0.814137
0.782091
0.748436
0.713569
0.677879
0.641732
0.605466
0.569389
0.53377
0.498845
0.464807
0.431818
0.400011
0.369487
0.340318
0.312551
0.286211
0.261304
0.237819
0.215733
0.195012
0.175614
0.157489
0.140585
0.124844
0.110209
0.0966222
0.0840264
0.0723667
0.0615925
0.0516584
0.0425271
0.0342244
0.0268789
0.0200548
0.0140742
0.00905938
0.0052424
0.00297713
0.00165231
0.000890326
0.000462834
0.000230585
0.000109285
4.89638e-05
2.0591e-05
8.14578e-06
3.2586e-06
1.77523e-06
1.28107e-06
9.66847e-07
7.04965e-07
4.8987e-07
3.21976e-07
1.99241e-07
1.16073e-07
6.39624e-08
3.35918e-08
1.69435e-08
8.28016e-09
3.95792e-09
1.85612e-09
8.55936e-10
3.88857e-10
1.7434e-10
7.72643e-11
3.39041e-11
1.47541e-11
6.37659e-12
2.73952e-12
1.16952e-12
4.94405e-13
2.04754e-13
8.06456e-14
2.75509e-14
4.88456e-15
0.999997
0.999988
0.999973
0.999948
0.999906
0.999835
0.99972
0.999531
0.999227
0.998742
0.997981
0.996806
0.995025
0.992382
0.988555
0.983159
0.97577
0.965968
0.953388
0.937766
0.918981
0.897048
0.87214
0.844507
0.814483
0.782444
0.748788
0.713912
0.678204
0.642031
0.605732
0.569615
0.533952
0.498977
0.464888
0.431846
0.399984
0.369405
0.340182
0.312363
0.285974
0.26102
0.237492
0.215367
0.194612
0.175183
0.157033
0.140107
0.12435
0.109703
0.0961077
0.0835078
0.0718482
0.0610779
0.0511519
0.0420332
0.0337689
0.026448
0.0196558
0.0137204
0.00877114
0.00505293
0.00286327
0.00158481
0.000851188
0.000440804
0.000218628
0.000103097
4.59253e-05
1.91924e-05
7.55868e-06
3.05794e-06
1.71919e-06
1.25634e-06
9.46403e-07
6.87353e-07
4.75425e-07
3.10896e-07
1.91396e-07
1.10973e-07
6.0908e-08
3.18872e-08
1.60455e-08
7.8309e-09
3.73979e-09
1.75279e-09
8.08012e-10
3.67038e-10
1.64566e-10
7.29484e-11
3.20218e-11
1.39419e-11
6.02921e-12
2.59211e-12
1.10745e-12
4.68542e-13
1.94194e-13
7.65385e-14
2.61611e-14
4.63933e-15
0.999997
0.999988
0.999973
0.999948
0.999906
0.999836
0.999721
0.999533
0.99923
0.998747
0.997988
0.996817
0.995042
0.992409
0.988595
0.983215
0.975847
0.96607
0.953516
0.937922
0.91916
0.897263
0.872376
0.84476
0.814747
0.782712
0.749051
0.714164
0.678438
0.64224
0.605911
0.569759
0.534056
0.499038
0.464905
0.431817
0.399909
0.369285
0.340017
0.312156
0.285726
0.260735
0.237173
0.215018
0.194236
0.174784
0.156615
0.139674
0.123905
0.109249
0.09565
0.083049
0.0713916
0.0606269
0.0507098
0.0416039
0.0333772
0.0260791
0.0193165
0.0134226
0.00853348
0.0049058
0.00277447
0.00153198
0.000820475
0.000423486
0.000209221
9.82289e-05
4.35386e-05
1.80974e-05
7.10267e-06
2.90669e-06
1.67907e-06
1.2378e-06
9.30428e-07
6.73271e-07
4.63712e-07
3.01846e-07
1.84969e-07
1.06793e-07
5.8404e-08
3.04892e-08
1.53083e-08
7.4615e-09
3.56008e-09
1.66748e-09
7.68364e-10
3.48948e-10
1.56446e-10
6.93551e-11
3.04515e-11
1.3263e-11
5.73836e-12
2.46849e-12
1.05532e-12
4.46795e-13
1.85305e-13
7.30785e-14
2.49896e-14
4.43257e-15
0.999997
0.999988
0.999973
0.999948
0.999906
0.999836
0.999722
0.999534
0.999232
0.99875
0.997994
0.996827
0.995057
0.992431
0.988627
0.983261
0.975909
0.966152
0.95362
0.938051
0.919315
0.897434
0.872562
0.844956
0.814947
0.782912
0.749245
0.714346
0.678602
0.642381
0.606025
0.569842
0.534105
0.499051
0.46488
0.431754
0.399808
0.369145
0.339842
0.311946
0.285484
0.260463
0.236874
0.214696
0.193893
0.174424
0.156241
0.139289
0.123512
0.108852
0.0952507
0.0826505
0.0709967
0.0602382
0.0503302
0.0412365
0.0330448
0.0257669
0.0190305
0.013173
0.00833603
0.00478658
0.00270278
0.00148946
0.000795821
0.000409618
0.000201707
9.43519e-05
4.16443e-05
1.72334e-05
6.74987e-06
2.80309e-06
1.65415e-06
1.22559e-06
9.18767e-07
6.62439e-07
4.54456e-07
2.94595e-07
1.79785e-07
1.03411e-07
5.63754e-08
2.93554e-08
1.47097e-08
7.1611e-09
3.41369e-09
1.59786e-09
7.35942e-10
3.34125e-10
1.49779e-10
6.63994e-11
2.91575e-11
1.27025e-11
5.49782e-12
2.36609e-12
1.01207e-12
4.2873e-13
1.77914e-13
7.01989e-14
2.40141e-14
4.26035e-15
0.999997
0.999988
0.999973
0.999948
0.999906
0.999837
0.999722
0.999535
0.999234
0.998753
0.997999
0.996834
0.995069
0.992449
0.988653
0.983297
0.975958
0.966216
0.9537
0.938145
0.919428
0.897562
0.872702
0.845103
0.815097
0.783059
0.749385
0.714474
0.678714
0.642473
0.606093
0.569883
0.534117
0.499033
0.464831
0.431673
0.399695
0.369003
0.33967
0.311746
0.285259
0.260215
0.236606
0.214409
0.193591
0.174109
0.155916
0.138956
0.123174
0.108512
0.0949103
0.0823121
0.0706623
0.0599102
0.0500107
0.040928
0.0327674
0.0255071
0.018793
0.0129662
0.00817294
0.00468881
0.00264427
0.00145491
0.000775875
0.000398443
0.000195676
9.1252e-05
4.01357e-05
1.65475e-05
6.46852e-06
2.71416e-06
1.6319e-06
1.21448e-06
9.0885e-07
6.53518e-07
4.46926e-07
2.88724e-07
1.756e-07
1.00686e-07
5.47432e-08
2.8444e-08
1.42285e-08
6.91949e-09
3.29584e-09
1.54175e-09
7.09774e-10
3.22144e-10
1.44382e-10
6.40027e-11
2.81064e-11
1.22465e-11
5.30184e-12
2.28253e-12
9.7674e-13
4.13952e-13
1.7186e-13
6.78387e-14
2.32141e-14
4.11908e-15
0.999997
0.999988
0.999974
0.999948
0.999907
0.999837
0.999723
0.999536
0.999235
0.998756
0.998003
0.99684
0.995078
0.992463
0.988673
0.983325
0.975997
0.966266
0.953764
0.938224
0.919517
0.897661
0.872807
0.845212
0.815207
0.783165
0.749484
0.714562
0.678787
0.642529
0.606129
0.569897
0.534107
0.498999
0.464771
0.431588
0.399585
0.368868
0.339513
0.311568
0.28506
0.259999
0.236374
0.214163
0.193334
0.173843
0.155642
0.138678
0.122893
0.108229
0.0946285
0.0820327
0.0703871
0.0596407
0.0497488
0.0406758
0.0325417
0.0252958
0.0186002
0.0127985
0.00804093
0.0046099
0.00259719
0.0014272
0.000759934
0.000389544
0.000190891
8.88014e-05
3.89479e-05
1.601e-05
6.25035e-06
2.64859e-06
1.61576e-06
1.20593e-06
9.01012e-07
6.4641e-07
4.40909e-07
2.84033e-07
1.72259e-07
9.85162e-08
5.34465e-08
2.7721e-08
1.38472e-08
6.72808e-09
3.20246e-09
1.49727e-09
6.89017e-10
3.12632e-10
1.40092e-10
6.20959e-11
2.72693e-11
1.18829e-11
5.14537e-12
2.21574e-12
9.48465e-13
4.02114e-13
1.67007e-13
6.59452e-14
2.2572e-14
4.00565e-15
0.999997
0.999989
0.999974
0.999949
0.999907
0.999837
0.999723
0.999537
0.999236
0.998758
0.998006
0.996845
0.995085
0.992473
0.988688
0.983346
0.976025
0.966303
0.95381
0.93828
0.919581
0.897732
0.872883
0.845291
0.815284
0.78324
0.749552
0.71462
0.678833
0.642561
0.606145
0.569895
0.534087
0.498959
0.464711
0.431509
0.399487
0.368751
0.339378
0.311417
0.284895
0.25982
0.236183
0.213963
0.193125
0.173628
0.155422
0.138455
0.122668
0.108004
0.0944044
0.0818111
0.0701692
0.0594278
0.0495423
0.0404771
0.0323647
0.0251303
0.0184493
0.0126675
0.00793786
0.00454839
0.00256057
0.0014057
0.000747589
0.00038267
0.000187205
8.69197e-05
3.80389e-05
1.56008e-05
6.08626e-06
2.60254e-06
1.60509e-06
1.20006e-06
8.95327e-07
6.41096e-07
4.36339e-07
2.80441e-07
1.69691e-07
9.68443e-08
5.24463e-08
2.71631e-08
1.35529e-08
6.58038e-09
3.13041e-09
1.46294e-09
6.72998e-10
3.0529e-10
1.3678e-10
6.06229e-11
2.66222e-11
1.16017e-11
5.02428e-12
2.16402e-12
9.26556e-13
3.92936e-13
1.63243e-13
6.44757e-14
2.20735e-14
3.91759e-15
0.999997
0.999989
0.999974
0.999949
0.999907
0.999838
0.999723
0.999537
0.999237
0.998759
0.998008
0.996848
0.99509
0.992481
0.988699
0.983361
0.976046
0.966329
0.953843
0.938319
0.919626
0.897782
0.872936
0.845344
0.815337
0.783289
0.749596
0.714657
0.678861
0.642578
0.606149
0.569886
0.534065
0.498922
0.46466
0.431443
0.399407
0.368658
0.339273
0.3113
0.284767
0.259683
0.236038
0.213811
0.192967
0.173466
0.155257
0.138287
0.1225
0.107836
0.0942373
0.0816461
0.0700073
0.0592699
0.0493893
0.0403301
0.032234
0.0250083
0.0183381
0.0125709
0.00786202
0.00450317
0.00253368
0.00138994
0.000738558
0.000377651
0.00018452
8.55518e-05
3.73799e-05
1.53052e-05
5.96916e-06
2.57204e-06
1.59863e-06
1.19643e-06
8.91542e-07
6.37415e-07
4.33103e-07
2.77865e-07
1.67835e-07
9.56294e-08
5.17162e-08
2.67549e-08
1.33372e-08
6.47208e-09
3.07756e-09
1.43777e-09
6.61251e-10
2.99907e-10
1.34352e-10
5.95434e-11
2.61481e-11
1.13957e-11
4.93556e-12
2.12613e-12
9.10501e-13
3.8621e-13
1.60483e-13
6.33986e-14
2.17081e-14
3.85305e-15
0.999997
0.999989
0.999974
0.999949
0.999907
0.999838
0.999724
0.999538
0.999238
0.99876
0.998009
0.996851
0.995094
0.992486
0.988706
0.983371
0.976059
0.966347
0.953864
0.938344
0.919655
0.897813
0.872969
0.845378
0.81537
0.78332
0.749623
0.714679
0.678876
0.642586
0.606149
0.569878
0.534046
0.498894
0.464623
0.431397
0.399351
0.368594
0.3392
0.31122
0.28468
0.25959
0.23594
0.213708
0.192861
0.173357
0.155146
0.138176
0.122388
0.107724
0.0941265
0.0815368
0.0699001
0.0591654
0.0492881
0.040233
0.0321479
0.0249279
0.018265
0.0125075
0.00781216
0.00447347
0.00251604
0.0013796
0.000732645
0.000374369
0.000182766
8.46601e-05
3.69512e-05
1.51136e-05
5.89402e-06
2.55377e-06
1.59516e-06
1.19445e-06
8.89306e-07
6.35152e-07
4.31073e-07
2.76234e-07
1.66653e-07
9.48508e-08
5.12446e-08
2.64891e-08
1.31961e-08
6.40102e-09
3.04286e-09
1.42124e-09
6.53541e-10
2.96375e-10
1.32761e-10
5.88363e-11
2.58377e-11
1.12609e-11
4.87753e-12
2.10135e-12
9.00007e-13
3.81814e-13
1.58681e-13
6.2695e-14
2.14695e-14
3.81089e-15
0.999997
0.999989
0.999974
0.999949
0.999907
0.999838
0.999724
0.999538
0.999238
0.99876
0.99801
0.996852
0.995095
0.992488
0.988709
0.983376
0.976065
0.966355
0.953874
0.938356
0.919668
0.897828
0.872984
0.845393
0.815385
0.783333
0.749635
0.714688
0.678883
0.642589
0.606148
0.569872
0.534037
0.49888
0.464604
0.431373
0.399323
0.368562
0.339164
0.31118
0.284637
0.259544
0.235891
0.213658
0.192809
0.173303
0.155092
0.13812
0.122332
0.107669
0.0940717
0.0814828
0.0698471
0.0591138
0.0492382
0.040185
0.0321054
0.0248883
0.0182289
0.0124762
0.0077876
0.00445885
0.00250736
0.00137452
0.00072974
0.000372759
0.000181907
8.42241e-05
3.6742e-05
1.50203e-05
5.85772e-06
2.54534e-06
1.59366e-06
1.19359e-06
8.88295e-07
6.3411e-07
4.30134e-07
2.75478e-07
1.66108e-07
9.44924e-08
5.10265e-08
2.63649e-08
1.31296e-08
6.36744e-09
3.02643e-09
1.41341e-09
6.49884e-10
2.947e-10
1.32005e-10
5.85e-11
2.56899e-11
1.11966e-11
4.84981e-12
2.08949e-12
8.94972e-13
3.79701e-13
1.57812e-13
6.23554e-14
2.13541e-14
3.7905e-15
0.999997
0.999989
0.999974
0.999949
0.999907
0.999838
0.999724
0.999538
0.999238
0.99876
0.99801
0.996852
0.995095
0.992488
0.988709
0.983376
0.976065
0.966355
0.953874
0.938356
0.919668
0.897828
0.872984
0.845394
0.815385
0.783334
0.749635
0.714688
0.678883
0.642589
0.606148
0.569872
0.534037
0.49888
0.464604
0.431373
0.399323
0.368562
0.339164
0.31118
0.284637
0.259544
0.235891
0.213658
0.192809
0.173303
0.155092
0.13812
0.122332
0.107669
0.0940717
0.0814827
0.0698471
0.0591138
0.0492382
0.040185
0.0321054
0.0248883
0.0182289
0.0124762
0.00778759
0.00445884
0.00250735
0.00137452
0.000729739
0.000372759
0.000181907
8.42238e-05
3.67419e-05
1.50203e-05
5.8577e-06
2.54533e-06
1.59365e-06
1.19359e-06
8.88293e-07
6.34108e-07
4.30132e-07
2.75478e-07
1.66107e-07
9.44921e-08
5.10263e-08
2.63648e-08
1.31295e-08
6.3674e-09
3.02641e-09
1.4134e-09
6.4988e-10
2.94698e-10
1.32005e-10
5.84999e-11
2.56899e-11
1.11966e-11
4.84985e-12
2.08952e-12
8.94992e-13
3.79713e-13
1.57818e-13
6.23585e-14
2.13554e-14
3.79074e-15
0.999997
0.999989
0.999974
0.999949
0.999907
0.999838
0.999724
0.999538
0.999238
0.99876
0.998009
0.996851
0.995094
0.992486
0.988706
0.983371
0.976059
0.966347
0.953864
0.938344
0.919655
0.897813
0.872969
0.845378
0.81537
0.78332
0.749623
0.714679
0.678877
0.642586
0.60615
0.569878
0.534047
0.498895
0.464623
0.431397
0.399352
0.368594
0.3392
0.31122
0.28468
0.25959
0.23594
0.213708
0.192861
0.173357
0.155146
0.138175
0.122388
0.107724
0.0941264
0.0815367
0.0699
0.0591653
0.049288
0.0402329
0.0321478
0.0249278
0.0182649
0.0125074
0.00781211
0.00447344
0.00251602
0.00137959
0.000732638
0.000374366
0.000182764
8.46591e-05
3.69507e-05
1.51134e-05
5.89391e-06
2.55373e-06
1.59513e-06
1.19443e-06
8.89297e-07
6.35146e-07
4.31069e-07
2.76231e-07
1.66651e-07
9.48495e-08
5.12438e-08
2.64887e-08
1.31958e-08
6.40087e-09
3.04278e-09
1.4212e-09
6.53525e-10
2.96369e-10
1.32759e-10
5.88354e-11
2.58375e-11
1.12609e-11
4.87761e-12
2.10142e-12
9.00058e-13
3.81846e-13
1.58698e-13
6.27038e-14
2.1473e-14
3.81156e-15
0.999997
0.999989
0.999974
0.999949
0.999907
0.999838
0.999723
0.999537
0.999237
0.998759
0.998008
0.996848
0.99509
0.992481
0.988699
0.983362
0.976046
0.96633
0.953843
0.938319
0.919627
0.897782
0.872937
0.845345
0.815338
0.78329
0.749597
0.714658
0.678862
0.642578
0.60615
0.569887
0.534065
0.498922
0.46466
0.431443
0.399407
0.368659
0.339273
0.3113
0.284767
0.259683
0.236038
0.213811
0.192967
0.173466
0.155257
0.138287
0.1225
0.107836
0.0942372
0.081646
0.0700071
0.0592697
0.0493891
0.0403299
0.0322338
0.0250082
0.018338
0.0125709
0.00786194
0.00450313
0.00253365
0.00138992
0.000738548
0.000377645
0.000184516
8.55502e-05
3.73791e-05
1.53049e-05
5.969e-06
2.57197e-06
1.5986e-06
1.1964e-06
8.91526e-07
6.37404e-07
4.33096e-07
2.7786e-07
1.67832e-07
9.56273e-08
5.17148e-08
2.67541e-08
1.33368e-08
6.47185e-09
3.07745e-09
1.43771e-09
6.61226e-10
2.99896e-10
1.34348e-10
5.95421e-11
2.61478e-11
1.13958e-11
4.93571e-12
2.12626e-12
9.10593e-13
3.86266e-13
1.60515e-13
6.3414e-14
2.17142e-14
3.85421e-15
0.999997
0.999989
0.999974
0.999949
0.999907
0.999837
0.999723
0.999537
0.999236
0.998758
0.998006
0.996845
0.995085
0.992474
0.988688
0.983347
0.976026
0.966304
0.953811
0.93828
0.919582
0.897733
0.872884
0.845292
0.815286
0.783241
0.749553
0.714621
0.678835
0.642562
0.606145
0.569896
0.534088
0.498959
0.464712
0.431509
0.399487
0.368752
0.339378
0.311417
0.284895
0.25982
0.236183
0.213963
0.193125
0.173628
0.155422
0.138455
0.122668
0.108004
0.0944043
0.0818109
0.070169
0.0594277
0.0495422
0.0404769
0.0323645
0.0251302
0.0184492
0.0126673
0.00793776
0.00454833
0.00256053
0.00140567
0.000747575
0.000382662
0.000187201
8.69175e-05
3.80378e-05
1.56003e-05
6.08604e-06
2.60245e-06
1.60504e-06
1.20002e-06
8.95304e-07
6.4108e-07
4.36328e-07
2.80434e-07
1.69686e-07
9.68414e-08
5.24444e-08
2.71621e-08
1.35523e-08
6.58006e-09
3.13025e-09
1.46287e-09
6.72964e-10
3.05275e-10
1.36775e-10
6.06211e-11
2.66219e-11
1.16019e-11
5.02451e-12
2.16422e-12
9.26688e-13
3.93017e-13
1.63287e-13
6.44978e-14
2.20823e-14
3.91928e-15
0.999997
0.999988
0.999974
0.999948
0.999907
0.999837
0.999723
0.999536
0.999235
0.998756
0.998003
0.996841
0.995078
0.992463
0.988673
0.983325
0.975997
0.966267
0.953765
0.938225
0.919518
0.897662
0.872808
0.845214
0.815208
0.783167
0.749486
0.714563
0.678789
0.64253
0.60613
0.569898
0.534108
0.498999
0.464771
0.431589
0.399586
0.368869
0.339513
0.311568
0.285061
0.259999
0.236374
0.214163
0.193334
0.173843
0.155642
0.138678
0.122893
0.108229
0.0946283
0.0820325
0.0703868
0.0596405
0.0497486
0.0406755
0.0325415
0.0252956
0.0186
0.0127983
0.00804078
0.00460981
0.00259714
0.00142717
0.000759915
0.000389533
0.000190885
8.87984e-05
3.89465e-05
1.60094e-05
6.25006e-06
2.64847e-06
1.61569e-06
1.20588e-06
9.00979e-07
6.46387e-07
4.40894e-07
2.84023e-07
1.72253e-07
9.85123e-08
5.34441e-08
2.77196e-08
1.38464e-08
6.72768e-09
3.20226e-09
1.49717e-09
6.88973e-10
3.12613e-10
1.40085e-10
6.20936e-11
2.72688e-11
1.18831e-11
5.14565e-12
2.21599e-12
9.48635e-13
4.02219e-13
1.67066e-13
6.5974e-14
2.25835e-14
4.00786e-15
0.999997
0.999988
0.999973
0.999948
0.999906
0.999837
0.999722
0.999535
0.999234
0.998753
0.997999
0.996835
0.995069
0.992449
0.988653
0.983297
0.975959
0.966216
0.953701
0.938147
0.919429
0.897564
0.872703
0.845105
0.815099
0.783061
0.749387
0.714476
0.678715
0.642474
0.606094
0.569884
0.534118
0.499034
0.464832
0.431674
0.399696
0.369003
0.33967
0.311747
0.285259
0.260215
0.236606
0.214409
0.193591
0.174109
0.155916
0.138956
0.123174
0.108512
0.0949101
0.0823118
0.070662
0.0599098
0.0500104
0.0409277
0.0327671
0.0255068
0.0187927
0.0129659
0.00817275
0.00468869
0.0026442
0.00145486
0.000775849
0.000398429
0.000195669
9.12482e-05
4.01339e-05
1.65466e-05
6.46818e-06
2.714e-06
1.63181e-06
1.21441e-06
9.08804e-07
6.53487e-07
4.46906e-07
2.88712e-07
1.75592e-07
1.00682e-07
5.47404e-08
2.84423e-08
1.42276e-08
6.919e-09
3.29558e-09
1.54163e-09
7.09718e-10
3.2212e-10
1.44372e-10
6.39995e-11
2.81057e-11
1.22467e-11
5.30216e-12
2.28282e-12
9.76943e-13
4.14079e-13
1.71931e-13
6.7874e-14
2.32282e-14
4.12178e-15
0.999997
0.999988
0.999973
0.999948
0.999906
0.999836
0.999722
0.999534
0.999232
0.99875
0.997994
0.996827
0.995057
0.992432
0.988628
0.983261
0.97591
0.966153
0.953622
0.938053
0.919317
0.897436
0.872564
0.844958
0.81495
0.782914
0.749248
0.714348
0.678604
0.642383
0.606027
0.569843
0.534106
0.499053
0.464881
0.431755
0.399809
0.369146
0.339842
0.311946
0.285484
0.260463
0.236875
0.214696
0.193893
0.174424
0.156241
0.139289
0.123512
0.108852
0.0952503
0.0826501
0.0709963
0.0602378
0.0503298
0.0412361
0.0330444
0.0257666
0.0190302
0.0131727
0.00833579
0.00478643
0.00270269
0.0014894
0.000795792
0.000409602
0.000201699
9.43477e-05
4.16424e-05
1.72325e-05
6.74949e-06
2.80293e-06
1.65406e-06
1.22553e-06
9.18724e-07
6.62409e-07
4.54436e-07
2.94582e-07
1.79777e-07
1.03406e-07
5.63722e-08
2.93535e-08
1.47086e-08
7.1605e-09
3.41338e-09
1.59771e-09
7.35869e-10
3.34093e-10
1.49766e-10
6.63948e-11
2.91562e-11
1.27025e-11
5.49813e-12
2.3664e-12
1.0123e-12
4.28877e-13
1.77996e-13
7.02403e-14
2.40307e-14
4.26353e-15
0.999997
0.999988
0.999973
0.999948
0.999906
0.999836
0.999721
0.999533
0.99923
0.998747
0.997988
0.996817
0.995043
0.99241
0.988595
0.983216
0.975848
0.966071
0.953518
0.937924
0.919162
0.897266
0.872379
0.844763
0.81475
0.782715
0.749054
0.714167
0.67844
0.642242
0.605913
0.569761
0.534058
0.49904
0.464906
0.431819
0.39991
0.369286
0.340018
0.312156
0.285726
0.260735
0.237173
0.215018
0.194236
0.174784
0.156614
0.139673
0.123904
0.109249
0.0956495
0.0830485
0.071391
0.0606263
0.0507093
0.0416034
0.0333767
0.0260786
0.0193161
0.0134222
0.00853316
0.0049056
0.00277436
0.00153192
0.000820444
0.00042347
0.000209213
9.82251e-05
4.35368e-05
1.80966e-05
7.10231e-06
2.90655e-06
1.67901e-06
1.23776e-06
9.30399e-07
6.73248e-07
4.63695e-07
3.01834e-07
1.84961e-07
1.06787e-07
5.84003e-08
3.04869e-08
1.53069e-08
7.46075e-09
3.55968e-09
1.66728e-09
7.68268e-10
3.48904e-10
1.56427e-10
6.93484e-11
3.04495e-11
1.32627e-11
5.73861e-12
2.46881e-12
1.05557e-12
4.46958e-13
1.85399e-13
7.31256e-14
2.50086e-14
4.4362e-15
0.999997
0.999988
0.999973
0.999948
0.999906
0.999835
0.99972
0.999531
0.999227
0.998742
0.997981
0.996806
0.995025
0.992383
0.988556
0.98316
0.975771
0.96597
0.95339
0.937769
0.918985
0.897056
0.872145
0.844511
0.814486
0.782448
0.748791
0.713915
0.678207
0.642034
0.605735
0.569618
0.533955
0.498979
0.464889
0.431847
0.399985
0.369406
0.340183
0.312364
0.285974
0.26102
0.237492
0.215367
0.194612
0.175183
0.157033
0.140107
0.124349
0.109702
0.0961071
0.0835072
0.0718475
0.0610773
0.0511512
0.0420325
0.0337682
0.0264473
0.0196552
0.0137198
0.00877071
0.00505267
0.00286314
0.00158474
0.000851158
0.000440791
0.000218622
0.000103094
4.5924e-05
1.91918e-05
7.55842e-06
3.05783e-06
1.71915e-06
1.25631e-06
9.46374e-07
6.87329e-07
4.75407e-07
3.10883e-07
1.91387e-07
1.10967e-07
6.09034e-08
3.18842e-08
1.60437e-08
7.82991e-09
3.73926e-09
1.75252e-09
8.07882e-10
3.66979e-10
1.64541e-10