/*--------------------------------*- C++ -*----------------------------------*\
  =========                 |
  \\      /  F ield         | OpenFOAM: The Open Source CFD Toolbox
   \\    /   O peration     | Website:  https://openfoam.org
    \\  /    A nd           | Version:  8
     \\/     M anipulation  |
\*---------------------------------------------------------------------------*/
FoamFile
{
    version     2.0;
    format      ascii;
    class       volScalarField;
    location    "0.2/fluid";
    object      CO2;
}
// * * * * * * * * * * * * * * * * * * * * * * * * * * * * * * * * * * * * * //

dimensions      [0 0 0 0 0 0 0];

internalField   nonuniform List<scalar> 
4000
(
3.38516e-07
1.48253e-06
3.42049e-06
6.70127e-06
1.22387e-05
2.1539e-05
3.70552e-05
6.27261e-05
0.00010477
0.00017281
0.000281379
0.000451792
0.000714194
0.0011094
0.00168964
0.00251853
0.00366402
0.00519263
0.00716041
0.00960403
0.0125359
0.0159438
0.0197947
0.0240403
0.0286225
0.0334785
0.0385438
0.0437558
0.0490745
0.0544446
0.059797
0.0650925
0.0702961
0.0753783
0.0803144
0.0850847
0.0896737
0.0940698
0.0982654
0.102257
0.106042
0.109622
0.113
0.116181
0.11917
0.121974
0.1246
0.127056
0.129348
0.131484
0.133468
0.135307
0.137
0.138544
0.139931
0.14114
0.142136
0.142856
0.143196
0.143018
0.142054
0.139889
0.13583
0.128731
0.119668
0.109626
0.0992032
0.0887713
0.0785622
0.0687325
0.05939
0.0506036
0.0424408
0.0349569
0.0279832
0.0216625
0.016162
0.0114835
0.00769449
0.0048205
0.0028117
0.00153029
0.000783278
0.000381255
0.000179889
8.28606e-05
3.74491e-05
1.667e-05
7.33102e-06
3.19344e-06
1.381e-06
5.94016e-07
2.54525e-07
1.08725e-07
4.62688e-08
1.9538e-08
8.09379e-09
3.19085e-09
1.09107e-09
1.9352e-10
3.39467e-07
1.48702e-06
3.43228e-06
6.72823e-06
1.22958e-05
2.16524e-05
3.72663e-05
6.30917e-05
0.00010535
0.000173627
0.000282345
0.000452563
0.000713946
0.00110652
0.00168155
0.00249947
0.00362699
0.00513054
0.00706619
0.0094719
0.0123625
0.0157288
0.0195409
0.0237532
0.0283095
0.0331485
0.0382068
0.0434384
0.0487719
0.0541275
0.0594809
0.0647872
0.0700082
0.0751117
0.0800716
0.0848668
0.089481
0.093902
0.0981218
0.102136
0.105943
0.109543
0.11294
0.116137
0.119141
0.121959
0.124597
0.127063
0.129364
0.131507
0.133498
0.135342
0.137038
0.138584
0.139969
0.141174
0.142159
0.142861
0.143174
0.142951
0.141918
0.139644
0.135415
0.128057
0.118832
0.108685
0.0981938
0.087716
0.0774776
0.0676356
0.0582964
0.0495331
0.0414258
0.0340161
0.0271151
0.0208696
0.0153881
0.0107992
0.00714403
0.0044222
0.00255571
0.00138477
0.000709582
0.000347244
0.000165106
7.6721e-05
3.49851e-05
1.57047e-05
6.95815e-06
3.04996e-06
1.32549e-06
5.72283e-07
2.45879e-07
1.05232e-07
4.48409e-08
1.89531e-08
7.85742e-09
3.0997e-09
1.06049e-09
1.88155e-10
3.41492e-07
1.49608e-06
3.45396e-06
6.77226e-06
1.2378e-05
2.17966e-05
3.75047e-05
6.34625e-05
0.000105891
0.000174363
0.000283233
0.000453452
0.000714294
0.00110516
0.00167607
0.00248614
0.00360163
0.00508713
0.00699796
0.00937224
0.012226
0.015552
0.019323
0.0234958
0.0280168
0.0328265
0.0378735
0.0430926
0.048393
0.0537479
0.0591069
0.0644248
0.0696626
0.0747872
0.0797715
0.0845935
0.0892361
0.0936861
0.097935
0.101978
0.105812
0.109439
0.11286
0.116081
0.119107
0.121944
0.124599
0.127081
0.129396
0.13155
0.133551
0.135402
0.137103
0.13865
0.140033
0.141228
0.142196
0.142864
0.143127
0.142823
0.141659
0.139178
0.134617
0.126899
0.117451
0.107166
0.0965927
0.0860713
0.0758181
0.0659897
0.0566866
0.0479826
0.0399646
0.0326275
0.0257661
0.0196748
0.0144133
0.0100413
0.00659556
0.00405993
0.00233951
0.00126786
0.000651522
0.000320246
0.000152955
7.14035e-05
3.27073e-05
1.4745e-05
6.55846e-06
2.88465e-06
1.25729e-06
5.44115e-07
2.34205e-07
1.00373e-07
4.28138e-08
1.811e-08
7.51241e-09
2.96509e-09
1.01484e-09
1.801e-10
3.42311e-07
1.49958e-06
3.46168e-06
6.7864e-06
1.24012e-05
2.18307e-05
3.75473e-05
6.34984e-05
0.000105875
0.000174156
0.000282514
0.000451477
0.000709989
0.00109681
0.00166132
0.00246238
0.00356466
0.00503215
0.00692001
0.00926679
0.0120895
0.0153825
0.0191201
0.023261
0.0277532
0.0325424
0.0375732
0.0427529
0.0480476
0.0534019
0.0587653
0.0640927
0.0693445
0.0744872
0.0794927
0.0843387
0.0890072
0.0934843
0.097761
0.101831
0.105693
0.109346
0.112793
0.116038
0.119086
0.121944
0.124618
0.127116
0.129445
0.131613
0.133624
0.135482
0.137188
0.138736
0.140114
0.141296
0.14224
0.142863
0.143058
0.142643
0.141301
0.138531
0.133494
0.125433
0.115772
0.105361
0.0947206
0.0841766
0.073935
0.0641525
0.0549216
0.0463172
0.038432
0.0311957
0.0244787
0.0185572
0.0134847
0.00931088
0.00605951
0.00369792
0.0021163
0.00114193
0.000585852
0.00028817
0.000137936
6.45868e-05
2.96876e-05
1.3433e-05
5.99727e-06
2.6476e-06
1.15811e-06
5.02897e-07
2.17147e-07
9.3332e-08
3.9915e-08
1.69234e-08
7.03451e-09
2.78111e-09
9.53017e-10
1.69231e-10
3.42326e-07
1.49957e-06
3.46133e-06
6.78463e-06
1.23951e-05
2.18128e-05
3.74991e-05
6.33761e-05
0.000105574
0.000173501
0.000281205
0.000449067
0.000705632
0.0010892
0.00164851
0.00244172
0.00353278
0.00498514
0.00685379
0.00917762
0.0119744
0.0152398
0.0189492
0.0230628
0.0275297
0.0323048
0.037298
0.0424684
0.0477578
0.0531112
0.0584783
0.0638135
0.0690772
0.0742352
0.0792592
0.0841261
0.0888173
0.0933186
0.0976201
0.101716
0.105602
0.10928
0.11275
0.116018
0.119086
0.121963
0.124654
0.127168
0.129511
0.13169
0.133711
0.135576
0.137285
0.138833
0.140204
0.141371
0.142286
0.142858
0.142978
0.142438
0.140898
0.137806
0.13224
0.123853
0.113997
0.103476
0.0927867
0.0822392
0.0720333
0.0623172
0.0531789
0.0446944
0.0369518
0.0298257
0.0232655
0.0175179
0.0126319
0.00864949
0.00558195
0.00338104
0.00192409
0.00103483
0.000530343
0.000261041
0.000125153
5.87241e-05
2.70551e-05
1.22706e-05
5.49091e-06
2.42939e-06
1.06487e-06
4.63319e-07
2.00432e-07
8.6302e-08
3.69721e-08
1.57014e-08
6.53646e-09
2.58757e-09
8.87555e-10
1.57684e-10
3.41443e-07
1.49555e-06
3.45133e-06
6.76302e-06
1.2351e-05
2.17252e-05
3.73298e-05
6.30572e-05
0.000104994
0.000172458
0.000279361
0.000445877
0.00070025
0.00108037
0.0016345
0.00242024
0.00350107
0.00494014
0.00679245
0.00909723
0.011873
0.0151161
0.0188032
0.0228951
0.0273461
0.0320913
0.0370749
0.0422382
0.0475237
0.052877
0.0582476
0.0635901
0.0688644
0.0740359
0.079076
0.0839611
0.0886721
0.0931943
0.0975174
0.101635
0.105543
0.109243
0.112734
0.11602
0.119107
0.122
0.124707
0.127234
0.129589
0.131779
0.133807
0.135677
0.137388
0.138933
0.140296
0.141447
0.142332
0.142852
0.142896
0.142232
0.140493
0.137082
0.130992
0.122294
0.112257
0.101642
0.0909203
0.0803831
0.0702263
0.0605872
0.0515504
0.0431936
0.0355879
0.0285555
0.0221513
0.0165714
0.0118611
0.00805536
0.00515483
0.00309791
0.00175171
0.000937902
0.000479435
0.000235778
0.000113091
5.31233e-05
2.45129e-05
1.11381e-05
4.99423e-06
2.21432e-06
9.72695e-07
4.24124e-07
1.83867e-07
7.93342e-08
3.40556e-08
1.44904e-08
6.04281e-09
2.39565e-09
8.22592e-10
1.46219e-10
3.4012e-07
1.48964e-06
3.4372e-06
6.73394e-06
1.22946e-05
2.16197e-05
3.71362e-05
6.27081e-05
0.000104375
0.000171376
0.000277504
0.000442753
0.000695109
0.00107213
0.00162166
0.00240089
0.00347291
0.00490069
0.00673925
0.0090282
0.0117866
0.0150118
0.0186813
0.0227578
0.027196
0.0319252
0.0368983
0.0420553
0.0473382
0.0526922
0.0580669
0.0634163
0.0687004
0.0738842
0.0789385
0.0838396
0.0885679
0.0931084
0.0974502
0.101587
0.105514
0.109231
0.11274
0.116042
0.119145
0.122052
0.124772
0.127311
0.129675
0.131873
0.133907
0.13578
0.137492
0.139033
0.140386
0.141519
0.142375
0.142847
0.14282
0.142037
0.140109
0.136395
0.129811
0.120824
0.110626
0.0999335
0.0891897
0.0786715
0.0685694
0.0590099
0.0500747
0.0418455
0.0343608
0.0274036
0.0211488
0.0157261
0.0111779
0.00753333
0.00478307
0.00285384
0.00160435
0.000855516
0.000436262
0.000214393
0.000102841
4.83371e-05
2.23249e-05
1.01555e-05
4.55956e-06
2.02444e-06
8.90615e-07
3.8894e-07
1.68886e-07
7.29907e-08
3.13848e-08
1.33759e-08
5.58649e-09
2.21761e-09
7.62179e-10
1.35543e-10
3.38602e-07
1.48291e-06
3.42125e-06
6.70156e-06
1.22329e-05
2.15059e-05
3.69307e-05
6.23433e-05
0.000103737
0.000170281
0.000275657
0.000439698
0.000690173
0.00106436
0.00160978
0.00238329
0.00344774
0.00486599
0.00669322
0.00896937
0.0117141
0.0149254
0.0185815
0.022649
0.0270676
0.03179
0.0367576
0.0419112
0.0471933
0.0525492
0.0579282
0.0632847
0.0685779
0.0737728
0.0788399
0.0837551
0.0884985
0.0930547
0.0974129
0.101566
0.105509
0.109241
0.112764
0.11608
0.119195
0.122115
0.124845
0.127393
0.129765
0.131968
0.134007
0.135882
0.137593
0.13913
0.140473
0.141589
0.142417
0.142845
0.142748
0.141856
0.139754
0.135761
0.128729
0.119483
0.109143
0.0983849
0.0876273
0.0771318
0.0670845
0.0576018
0.0487628
0.0406528
0.0332777
0.0263813
0.0202652
0.0149852
0.0105824
0.007081
0.00446289
0.00264469
0.00147842
0.000785106
0.000399258
0.000195989
9.39777e-05
4.41774e-05
2.04142e-05
9.29368e-06
4.17676e-06
1.85663e-06
8.17838e-07
3.57655e-07
1.55531e-07
6.73224e-08
2.89931e-08
1.23757e-08
5.17624e-09
2.05728e-09
7.07707e-10
1.25911e-10
3.37069e-07
1.47613e-06
3.4053e-06
6.66941e-06
1.21722e-05
2.13949e-05
3.67324e-05
6.19951e-05
0.000103136
0.000169259
0.000273952
0.000436912
0.000685722
0.00105742
0.00159928
0.0023679
0.00342594
0.00483621
0.00665403
0.00891966
0.0116532
0.014853
0.0184986
0.022552
0.0269647
0.0316821
0.0366463
0.0417984
0.0470812
0.0524399
0.0578239
0.0631872
0.0684891
0.0736941
0.0787727
0.0837003
0.0884569
0.0930269
0.0973987
0.101565
0.105521
0.109266
0.112801
0.116129
0.119254
0.122183
0.124921
0.127477
0.129855
0.132063
0.134104
0.13598
0.137689
0.139221
0.140555
0.141654
0.142454
0.142842
0.14268
0.141688
0.139429
0.135185
0.127754
0.118281
0.107819
0.0970062
0.0862403
0.0757685
0.0657727
0.0563602
0.0476081
0.039606
0.0323106
0.0255067
0.0195053
0.0143473
0.0100706
0.00669366
0.0041902
0.00246761
0.00137232
0.000725959
0.000368203
0.000180529
8.65164e-05
4.06652e-05
1.87951e-05
8.56054e-06
3.84982e-06
1.71272e-06
7.55186e-07
3.30622e-07
1.43951e-07
6.23919e-08
2.69066e-08
1.15009e-08
4.81657e-09
1.91646e-09
6.59797e-10
1.17434e-10
3.35617e-07
1.46972e-06
3.39025e-06
6.6392e-06
1.21154e-05
2.12917e-05
3.6549e-05
6.1675e-05
0.000102586
0.000168333
0.000272419
0.000434425
0.000681781
0.00105134
0.00159015
0.00235463
0.00340731
0.004811
0.00662118
0.00887847
0.0116034
0.0147949
0.0184346
0.0224791
0.0268852
0.0315983
0.03656
0.0417118
0.046996
0.0523581
0.0577472
0.0631172
0.068427
0.0736413
0.07873
0.0836685
0.0884366
0.093018
0.097401
0.101578
0.105546
0.109301
0.112846
0.116183
0.119317
0.122254
0.124999
0.127559
0.129942
0.132153
0.134196
0.136072
0.137779
0.139305
0.140629
0.141712
0.142485
0.142834
0.142612
0.141526
0.139122
0.13465
0.126876
0.11721
0.106646
0.0957916
0.0850225
0.0745749
0.0646269
0.0552777
0.0466033
0.0386952
0.031467
0.0247545
0.0188525
0.0138001
0.00963267
0.00636368
0.00395906
0.00231824
0.00128316
0.000676355
0.000342163
0.000167554
8.02425e-05
3.77054e-05
1.74274e-05
7.93964e-06
3.57223e-06
1.59023e-06
7.01731e-07
3.07504e-07
1.34026e-07
5.81572e-08
2.5111e-08
1.07466e-08
4.50594e-09
1.79466e-09
6.18319e-10
1.10091e-10
3.34301e-07
1.46392e-06
3.37666e-06
6.61199e-06
1.20644e-05
2.11993e-05
3.63856e-05
6.13912e-05
0.000102102
0.000167519
0.00027108
0.000432267
0.000678383
0.00104612
0.00158238
0.0023434
0.00339163
0.00478992
0.00659388
0.00884445
0.0115626
0.0147483
0.0183787
0.0224188
0.0268215
0.0315324
0.0364933
0.0416458
0.0469323
0.0522981
0.0576922
0.0630685
0.0683858
0.0736083
0.078706
0.0836541
0.0884316
0.0930226
0.0974154
0.101602
0.105579
0.109343
0.112896
0.116241
0.119381
0.122323
0.125073
0.127638
0.130024
0.132237
0.13428
0.136156
0.137859
0.13938
0.140694
0.141761
0.142507
0.142818
0.142535
0.141354
0.1388
0.134084
0.126057
0.116248
0.105611
0.0947275
0.0839607
0.0735398
0.0636353
0.0543425
0.0457366
0.0379079
0.0307407
0.0241081
0.0182925
0.0133319
0.00925926
0.00608357
0.00376389
0.00219277
0.00120859
0.000634977
0.000320469
0.000156742
7.50103e-05
3.52335e-05
1.62831e-05
7.41913e-06
3.33904e-06
1.48712e-06
6.56634e-07
2.87959e-07
1.25618e-07
5.45628e-08
2.35841e-08
1.01041e-08
4.24092e-09
1.69061e-09
5.82856e-10
1.03811e-10
3.33147e-07
1.45883e-06
3.36476e-06
6.58821e-06
1.20198e-05
2.11189e-05
3.62437e-05
6.11455e-05
0.000101684
0.000166821
0.000269935
0.00043043
0.000675502
0.00104173
0.00157585
0.00233402
0.00337862
0.00477247
0.00657133
0.00881628
0.0115285
0.0147087
0.0183346
0.0223715
0.026772
0.0314817
0.0364427
0.0415966
0.0468856
0.0522552
0.0576542
0.0630363
0.0683602
0.0735901
0.0786956
0.0836515
0.0884372
0.0930364
0.0974374
0.101632
0.105616
0.109387
0.112947
0.116297
0.119443
0.12239
0.125143
0.127711
0.130099
0.132313
0.134357
0.136231
0.137931
0.139446
0.14075
0.141801
0.142521
0.142795
0.142453
0.141179
0.138475
0.133516
0.125307
0.115394
0.104704
0.0938038
0.0830435
0.0726491
0.0627842
0.0535414
0.0449962
0.0372349
0.0301167
0.0235542
0.0178138
0.0129329
0.00894225
0.00584685
0.00359979
0.0020878
0.00114643
0.000600577
0.000302455
0.000147766
7.0664e-05
3.31782e-05
1.53305e-05
6.98523e-06
3.14437e-06
1.4009e-06
6.18867e-07
2.71566e-07
1.18555e-07
5.15384e-08
2.22974e-08
9.56191e-09
4.017e-09
1.60261e-09
5.52839e-10
9.84936e-11
3.32161e-07
1.45449e-06
3.35461e-06
6.56793e-06
1.1982e-05
2.10506e-05
3.61235e-05
6.09377e-05
0.000101331
0.000166233
0.000268975
0.000428894
0.000673106
0.00103808
0.00157048
0.00232634
0.00336802
0.00475842
0.00655341
0.00879441
0.0115033
0.0146784
0.018301
0.0223354
0.0267343
0.0314435
0.0364051
0.0415606
0.0468523
0.0522255
0.057629
0.0630163
0.0683461
0.0735823
0.0786944
0.0836571
0.0884498
0.0930559
0.0974636
0.101665
0.105655
0.109432
0.112996
0.116351
0.119501
0.122451
0.125208
0.127778
0.130167
0.132382
0.134425
0.136297
0.137994
0.139503
0.140798
0.141835
0.14253
0.14277
0.142373
0.141013
0.138173
0.132989
0.124641
0.11465
0.103923
0.093012
0.0822603
0.0718904
0.0620606
0.0528616
0.044369
0.0366649
0.029585
0.0230832
0.0174078
0.0125953
0.008675
0.00564814
0.00346268
0.00200049
0.00109493
0.000572144
0.000287587
0.00014036
6.7077e-05
3.14808e-05
1.45431e-05
6.6262e-06
2.98309e-06
1.32938e-06
5.87499e-07
2.57932e-07
1.12673e-07
4.90165e-08
2.1223e-08
9.10866e-09
3.82961e-09
1.5289e-09
5.27682e-10
9.40355e-11
3.31339e-07
1.45087e-06
3.34614e-06
6.55104e-06
1.19504e-05
2.09938e-05
3.60236e-05
6.07655e-05
0.000101039
0.000165748
0.000268184
0.000427635
0.000671145
0.00103511
0.0015661
0.00232012
0.00335946
0.00474705
0.00653886
0.00877635
0.0114815
0.0146542
0.0182748
0.0223077
0.0267058
0.031415
0.0363776
0.0415348
0.0468291
0.0522057
0.0576132
0.0630052
0.0683401
0.0735816
0.0786993
0.0836678
0.0884662
0.093078
0.0974912
0.101698
0.105692
0.109474
0.113043
0.116401
0.119554
0.122507
0.125265
0.127837
0.130227
0.132442
0.134484
0.136355
0.138049
0.139552
0.140839
0.141862
0.142536
0.142746
0.142302
0.140867
0.137908
0.132531
0.12407
0.114018
0.103262
0.0923438
0.0816006
0.0712525
0.0614532
0.0522917
0.0438449
0.0361865
0.0291368
0.0226871
0.017067
0.0123127
0.00845197
0.00548294
0.00334918
0.00192849
0.0010526
0.000548827
0.00027541
0.000134296
6.414e-05
3.00905e-05
1.38977e-05
6.33167e-06
2.85066e-06
1.2706e-06
5.6169e-07
2.46703e-07
1.07822e-07
4.69346e-08
2.03352e-08
8.73372e-09
3.67446e-09
1.46783e-09
5.06825e-10
9.03391e-11
3.3067e-07
1.44792e-06
3.33925e-06
6.53729e-06
1.19248e-05
2.09477e-05
3.59426e-05
6.06258e-05
0.000100803
0.000165356
0.000267547
0.000426621
0.000669573
0.00103274
0.00156263
0.00231519
0.00335273
0.00473823
0.00652779
0.00876319
0.0114657
0.0146362
0.0182551
0.0222869
0.0266846
0.0313942
0.0363578
0.0415168
0.0468136
0.0521931
0.0576042
0.0630001
0.0683392
0.0735853
0.0787077
0.0836809
0.0884841
0.0931005
0.0975181
0.101729
0.105727
0.109512
0.113084
0.116446
0.119601
0.122555
0.125315
0.127887
0.130278
0.132493
0.134535
0.136404
0.138095
0.139593
0.140873
0.141885
0.14254
0.142725
0.142241
0.140744
0.137686
0.132148
0.123595
0.113492
0.102713
0.0917903
0.0810549
0.0707253
0.0609514
0.0518213
0.043412
0.0357928
0.0287657
0.0223594
0.0167855
0.0120798
0.00826858
0.00534753
0.00325646
0.00186988
0.00101824
0.000529938
0.000265557
0.000129392
6.17642e-05
2.89653e-05
1.33751e-05
6.09303e-06
2.74328e-06
1.2229e-06
5.40728e-07
2.37573e-07
1.03876e-07
4.52391e-08
1.96115e-08
8.42782e-09
3.54778e-09
1.41793e-09
4.89779e-10
8.73172e-11
3.30139e-07
1.44558e-06
3.3338e-06
6.52641e-06
1.19045e-05
2.09112e-05
3.58785e-05
6.05156e-05
0.000100617
0.000165048
0.000267047
0.000425826
0.000668341
0.00103088
0.00155991
0.00231134
0.00334747
0.00473129
0.00651895
0.00875228
0.0114533
0.0146224
0.0182403
0.0222716
0.0266693
0.0313793
0.036344
0.0415046
0.0468035
0.0521856
0.0575997
0.0629989
0.0683415
0.0735913
0.0787175
0.0836946
0.0885015
0.0931216
0.0975426
0.101756
0.105758
0.109546
0.11312
0.116483
0.11964
0.122596
0.125357
0.12793
0.130321
0.132535
0.134577
0.136444
0.138132
0.139627
0.140901
0.141904
0.142544
0.142709
0.142192
0.140644
0.137506
0.131837
0.123209
0.113067
0.102269
0.091343
0.0806142
0.0702998
0.0605468
0.0514421
0.0430636
0.0354754
0.0284655
0.0220946
0.0165583
0.0118921
0.00812111
0.00523889
0.00318227
0.0018231
0.000990874
0.000514919
0.000257729
0.000125496
5.98765e-05
2.80711e-05
1.29596e-05
5.90316e-06
2.6578e-06
1.1849e-06
5.24019e-07
2.30292e-07
1.00726e-07
4.3885e-08
1.90332e-08
8.18322e-09
3.44642e-09
1.37799e-09
4.76131e-10
8.4897e-11
3.29735e-07
1.4438e-06
3.32964e-06
6.51811e-06
1.1889e-05
2.08834e-05
3.58297e-05
6.04317e-05
0.000100475
0.000164814
0.000266667
0.000425224
0.00066741
0.00102948
0.00155787
0.00230847
0.00334356
0.00472618
0.00651254
0.00874454
0.0114443
0.0146125
0.0182297
0.0222606
0.0266584
0.031369
0.0363347
0.0414967
0.0467973
0.0521815
0.057598
0.0629998
0.0683452
0.073598
0.0787271
0.0837071
0.088517
0.0931398
0.0975635
0.10178
0.105784
0.109573
0.113149
0.116514
0.119672
0.122629
0.125391
0.127964
0.130355
0.132569
0.13461
0.136476
0.138162
0.139654
0.140923
0.141919
0.142547
0.142696
0.142154
0.140566
0.137365
0.131594
0.122909
0.112735
0.101924
0.0909945
0.0802709
0.0699686
0.0602319
0.0511473
0.0427931
0.0352283
0.0282311
0.0218882
0.0163815
0.0117462
0.00800666
0.00515472
0.00312487
0.00178695
0.000969736
0.000503319
0.000251684
0.000122487
5.84185e-05
2.73802e-05
1.26385e-05
5.75643e-06
2.59172e-06
1.15552e-06
5.11095e-07
2.24658e-07
9.82881e-08
4.28368e-08
1.85853e-08
7.99377e-09
3.36791e-09
1.34705e-09
4.65556e-10
8.30219e-11
3.29444e-07
1.44252e-06
3.32664e-06
6.51214e-06
1.18779e-05
2.08634e-05
3.57946e-05
6.03713e-05
0.000100374
0.000164645
0.000266394
0.000424793
0.000666744
0.00102848
0.00155641
0.00230642
0.00334079
0.00472259
0.00650808
0.00873915
0.0114381
0.0146056
0.0182224
0.0222532
0.0266511
0.0313622
0.0363286
0.0414917
0.0467937
0.0521795
0.0575978
0.0630016
0.0683491
0.073604
0.0787353
0.0837175
0.0885294
0.0931543
0.0975799
0.101798
0.105803
0.109595
0.113172
0.116538
0.119697
0.122654
0.125416
0.12799
0.130381
0.132595
0.134635
0.1365
0.138185
0.139674
0.140939
0.14193
0.142549
0.142686
0.142125
0.140509
0.137262
0.131416
0.122688
0.112491
0.101669
0.0907385
0.080019
0.0697256
0.060001
0.0509312
0.0425951
0.0350469
0.0280588
0.0217366
0.0162518
0.0116393
0.00792299
0.00509326
0.00308298
0.00176054
0.000954267
0.000494824
0.000247253
0.000120281
5.73493e-05
2.68736e-05
1.2403e-05
5.64882e-06
2.54327e-06
1.13398e-06
5.01622e-07
2.2053e-07
9.6502e-08
4.20689e-08
1.82574e-08
7.85506e-09
3.31044e-09
1.3244e-09
4.57817e-10
8.16499e-11
3.29257e-07
1.44169e-06
3.32472e-06
6.5083e-06
1.18707e-05
2.08505e-05
3.57721e-05
6.03326e-05
0.000100308
0.000164537
0.00026622
0.000424517
0.000666319
0.00102784
0.00155549
0.00230511
0.00333902
0.00472028
0.00650519
0.00873571
0.0114342
0.0146013
0.0182178
0.0222486
0.0266467
0.0313581
0.0363251
0.0414889
0.0467918
0.0521787
0.0575982
0.0630033
0.0683522
0.0736084
0.0787412
0.0837248
0.0885381
0.0931643
0.0975911
0.10181
0.105817
0.109609
0.113187
0.116553
0.119713
0.122671
0.125433
0.128007
0.130398
0.132612
0.134651
0.136516
0.138199
0.139687
0.14095
0.141937
0.142551
0.14268
0.142107
0.140471
0.137194
0.131299
0.122542
0.112331
0.101503
0.0905706
0.0798537
0.0695663
0.0598498
0.0507898
0.0424659
0.0349283
0.0279461
0.0216377
0.0161673
0.0115699
0.00786875
0.00505354
0.00305596
0.0017435
0.000944243
0.000489287
0.000244353
0.000118835
5.66479e-05
2.65412e-05
1.22486e-05
5.57828e-06
2.51152e-06
1.11988e-06
4.95423e-07
2.17829e-07
9.53343e-08
4.15671e-08
1.80431e-08
7.76448e-09
3.27293e-09
1.30962e-09
4.5277e-10
8.07553e-11
3.29167e-07
1.4413e-06
3.3238e-06
6.50647e-06
1.18673e-05
2.08444e-05
3.57614e-05
6.03143e-05
0.000100278
0.000164487
0.000266137
0.000424387
0.000666119
0.00102754
0.00155505
0.0023045
0.00333819
0.00471919
0.00650382
0.0087341
0.0114323
0.0145993
0.0182157
0.0222464
0.0266446
0.0313562
0.0363235
0.0414876
0.046791
0.0521784
0.0575985
0.0630042
0.0683538
0.0736108
0.0787442
0.0837285
0.0885425
0.0931693
0.0975967
0.101816
0.105824
0.109616
0.113194
0.116561
0.119721
0.122679
0.125442
0.128015
0.130406
0.13262
0.134659
0.136523
0.138207
0.139694
0.140955
0.14194
0.142552
0.142677
0.142098
0.140453
0.13716
0.131241
0.122471
0.112252
0.101421
0.0904882
0.0797727
0.0694883
0.0597759
0.0507209
0.042403
0.0348706
0.0278913
0.0215898
0.0161267
0.0115367
0.00784306
0.00503489
0.00304338
0.00173561
0.0009396
0.000486702
0.000242991
0.000118154
5.6317e-05
2.63842e-05
1.21756e-05
5.54491e-06
2.49649e-06
1.11319e-06
4.92481e-07
2.16546e-07
9.47783e-08
4.13278e-08
1.79408e-08
7.72114e-09
3.25495e-09
1.30253e-09
4.50346e-10
8.03255e-11
3.29168e-07
1.4413e-06
3.3238e-06
6.50649e-06
1.18673e-05
2.08445e-05
3.57615e-05
6.03145e-05
0.000100278
0.000164487
0.000266138
0.000424388
0.00066612
0.00102755
0.00155505
0.00230451
0.0033382
0.0047192
0.00650383
0.0087341
0.0114323
0.0145993
0.0182157
0.0222464
0.0266446
0.0313562
0.0363235
0.0414876
0.046791
0.0521784
0.0575984
0.0630042
0.0683537
0.0736107
0.0787442
0.0837285
0.0885425
0.0931693
0.0975967
0.101816
0.105823
0.109616
0.113194
0.116561
0.119721
0.122679
0.125442
0.128015
0.130406
0.13262
0.134659
0.136523
0.138207
0.139694
0.140955
0.14194
0.142551
0.142677
0.142098
0.140453
0.13716
0.131241
0.122471
0.112252
0.101421
0.0904882
0.0797727
0.0694883
0.0597759
0.0507209
0.042403
0.0348706
0.0278913
0.0215898
0.0161267
0.0115367
0.00784307
0.00503489
0.00304339
0.00173561
0.000939601
0.000486703
0.000242992
0.000118154
5.63173e-05
2.63844e-05
1.21757e-05
5.54497e-06
2.49652e-06
1.11321e-06
4.92491e-07
2.16551e-07
9.47816e-08
4.13296e-08
1.79418e-08
7.72168e-09
3.25522e-09
1.30266e-09
4.50395e-10
8.03348e-11
3.2926e-07
1.44171e-06
3.32475e-06
6.50836e-06
1.18708e-05
2.08507e-05
3.57724e-05
6.03332e-05
0.000100309
0.000164539
0.000266222
0.00042452
0.000666323
0.00102785
0.00155549
0.00230512
0.00333903
0.00472029
0.00650519
0.00873571
0.0114342
0.0146013
0.0182178
0.0222486
0.0266466
0.0313581
0.036325
0.0414888
0.0467918
0.0521786
0.0575981
0.0630032
0.0683521
0.0736083
0.0787411
0.0837247
0.088538
0.0931642
0.097591
0.10181
0.105817
0.109609
0.113187
0.116553
0.119713
0.122671
0.125433
0.128007
0.130398
0.132612
0.134651
0.136516
0.138199
0.139687
0.14095
0.141937
0.142551
0.14268
0.142107
0.140471
0.137194
0.131299
0.122542
0.112331
0.101502
0.0905705
0.0798536
0.0695662
0.0598497
0.0507898
0.0424658
0.0349283
0.0279461
0.0216377
0.0161673
0.0115699
0.00786876
0.00505355
0.00305597
0.00174351
0.00094425
0.000489292
0.000244356
0.000118836
5.66488e-05
2.65417e-05
1.22489e-05
5.57845e-06
2.51162e-06
1.11993e-06
4.95455e-07
2.17847e-07
9.53442e-08
4.15726e-08
1.80462e-08
7.76612e-09
3.27376e-09
1.31001e-09
4.5292e-10
8.07837e-11
3.29449e-07
1.44254e-06
3.32669e-06
6.51223e-06
1.18781e-05
2.08637e-05
3.57951e-05
6.03722e-05
0.000100375
0.000164647
0.000266397
0.000424797
0.000666751
0.00102849
0.00155643
0.00230643
0.00334081
0.00472261
0.0065081
0.00873916
0.0114381
0.0146056
0.0182224
0.0222531
0.0266511
0.0313621
0.0363285
0.0414916
0.0467936
0.0521794
0.0575976
0.0630014
0.0683489
0.0736038
0.0787351
0.0837173
0.0885293
0.0931541
0.0975797
0.101798
0.105803
0.109594
0.113172
0.116538
0.119697
0.122654
0.125416
0.12799
0.130381
0.132595
0.134635
0.1365
0.138185
0.139674
0.140939
0.14193
0.142549
0.142686
0.142125
0.140509
0.137262
0.131416
0.122688
0.112491
0.101669
0.0907384
0.0800188
0.0697255
0.0600009
0.0509311
0.0425951
0.0350469
0.0280588
0.0217366
0.0162518
0.0116393
0.00792301
0.00509328
0.003083
0.00176056
0.000954277
0.000494831
0.000247257
0.000120284
5.73509e-05
2.68745e-05
1.24036e-05
5.64911e-06
2.54343e-06
1.13407e-06
5.01675e-07
2.2056e-07
9.65189e-08
4.20783e-08
1.82626e-08
7.85786e-09
3.31187e-09
1.32507e-09
4.58075e-10
8.16986e-11
3.29741e-07
1.44383e-06
3.3297e-06
6.51824e-06
1.18892e-05
2.08838e-05
3.58304e-05
6.04328e-05
0.000100477
0.000164816
0.000266671
0.00042523
0.000667419
0.00102949
0.00155788
0.00230848
0.00334358
0.0047262
0.00651256
0.00874455
0.0114443
0.0146124
0.0182296
0.0222606
0.0266583
0.0313689
0.0363345
0.0414965
0.0467971
0.0521813
0.0575978
0.0629996
0.068345
0.0735977
0.0787269
0.0837069
0.0885167
0.0931396
0.0975633
0.10178
0.105784
0.109573
0.113149
0.116514
0.119672
0.122629
0.125391
0.127964
0.130355
0.132569
0.13461
0.136476
0.138162
0.139654
0.140923
0.141919
0.142547
0.142696
0.142154
0.140566
0.137365
0.131594
0.122909
0.112735
0.101923
0.0909943
0.0802708
0.0699685
0.0602318
0.0511472
0.042793
0.0352283
0.0282311
0.0218882
0.0163815
0.0117462
0.00800669
0.00515475
0.0031249
0.00178698
0.000969752
0.00050333
0.00025169
0.000122491
5.84208e-05
2.73816e-05
1.26393e-05
5.75685e-06
2.59196e-06
1.15565e-06
5.1117e-07
2.24701e-07
9.83121e-08
4.28503e-08
1.85928e-08
7.99779e-09
3.36997e-09
1.34801e-09
4.65927e-10
8.30921e-11
3.30147e-07
1.44562e-06
3.33388e-06
6.52657e-06
1.19048e-05
2.09117e-05
3.58794e-05
6.0517e-05
0.000100619
0.000165051
0.000267052
0.000425834
0.000668352
0.00103089
0.00155993
0.00231136
0.00334749
0.00473131
0.00651897
0.00875229
0.0114533
0.0146224
0.0182403
0.0222715
0.0266691
0.0313792
0.0363438
0.0415044
0.0468033
0.0521854
0.0575994
0.0629986
0.0683412
0.073591
0.0787172
0.0836943
0.0885012
0.0931213
0.0975423
0.101756
0.105758
0.109546
0.11312
0.116483
0.11964
0.122596
0.125357
0.12793
0.130321
0.132535
0.134576
0.136444
0.138132
0.139627
0.140901
0.141904
0.142544
0.142709
0.142192
0.140644
0.137506
0.131837
0.123209
0.113067
0.102269
0.0913428
0.080614
0.0702996
0.0605466
0.051442
0.0430635
0.0354753
0.0284655
0.0220946
0.0165583
0.0118921
0.00812115
0.00523893
0.00318231
0.00182314
0.000990897
0.000514934
0.000257738
0.000125501
5.98795e-05
2.80728e-05
1.29606e-05
5.90371e-06
2.65811e-06
1.18508e-06
5.24118e-07
2.30348e-07
1.00757e-07
4.39027e-08
1.90429e-08
8.18848e-09
3.44912e-09
1.37925e-09
4.76618e-10
8.49889e-11
3.30679e-07
1.44796e-06
3.33935e-06
6.53748e-06
1.19251e-05
2.09483e-05
3.59436e-05
6.06275e-05
0.000100806
0.00016536
0.000267553
0.00042663
0.000669585
0.00103275
0.00156265
0.00231521
0.00335275
0.00473824
0.0065278
0.00876318
0.0114657
0.0146361
0.018255
0.0222868
0.0266845
0.031394
0.0363576
0.0415165
0.0468132
0.0521928
0.0576038
0.0629997
0.0683388
0.0735849
0.0787073
0.0836805
0.0884837
0.0931002
0.0975178
0.101728
0.105727
0.109512
0.113084
0.116445
0.1196
0.122555
0.125315
0.127887
0.130278
0.132493
0.134535
0.136404
0.138095
0.139593
0.140873
0.141885
0.14254
0.142725
0.142241
0.140744
0.137686
0.132147
0.123594
0.113492
0.102713
0.09179
0.0810546
0.0707251
0.0609512
0.0518211
0.0434119
0.0357927
0.0287657
0.0223594
0.0167855
0.0120798
0.00826863
0.00534758
0.00325651
0.00186992
0.00101826
0.000529956
0.000265568
0.000129398
6.17679e-05
2.89675e-05
1.33764e-05
6.09372e-06
2.74367e-06
1.22312e-06
5.40851e-07
2.37643e-07
1.03915e-07
4.52612e-08
1.96237e-08
8.43436e-09
3.55112e-09
1.41949e-09
4.90381e-10
8.74305e-11
3.3135e-07
1.45091e-06
3.34626e-06
6.55126e-06
1.19508e-05
2.09945e-05
3.60248e-05
6.07674e-05
0.000101042
0.000165753
0.000268191
0.000427645
0.000671159
0.00103513
0.00156613
0.00232014
0.00335949
0.00474708
0.00653888
0.00877635
0.0114815
0.0146541
0.0182747
0.0223075
0.0267056
0.0314147
0.0363772
0.0415344
0.0468287
0.0522052
0.0576128
0.0630047
0.0683396
0.0735811
0.0786988
0.0836673
0.0884658
0.0930776
0.0974908
0.101697
0.105692
0.109474
0.113042
0.116401
0.119554
0.122506
0.125265
0.127836
0.130227
0.132441
0.134484
0.136355
0.138049
0.139552
0.140839
0.141862
0.142536
0.142746
0.142302
0.140867
0.137908
0.132531
0.124069
0.114018
0.103261
0.0923434
0.0816003
0.0712522
0.0614529
0.0522915
0.0438447
0.0361864
0.0291367
0.022687
0.017067
0.0123127
0.00845201
0.00548299
0.00334923
0.00192853
0.00105263
0.000548847
0.000275423
0.000134304
6.41445e-05
3.0093e-05
1.38992e-05
6.33249e-06
2.85113e-06
1.27087e-06
5.61839e-07
2.46786e-07
1.0787e-07
4.69611e-08
2.03498e-08
8.74155e-09
3.67846e-09
1.46969e-09
5.07546e-10
9.04745e-11
3.32174e-07
1.45454e-06
3.35474e-06
6.56818e-06
1.19824e-05
2.10514e-05
3.61248e-05
6.09399e-05
0.000101334
0.000166238
0.000268982
0.000428906
0.000673121
0.0010381
0.0015705
0.00232637
0.00336805
0.00475843
0.00655342
0.00879439
0.0115033
0.0146783
0.0183009
0.0223352
0.026734
0.0314431
0.0364047
0.0415601
0.0468518
0.052225
0.0576284
0.0630158
0.0683455
0.0735818
0.0786938
0.0836566
0.0884493
0.0930554
0.0974631
0.101664
0.105654
0.109431
0.112996
0.116351
0.119501
0.122451
0.125208
0.127777
0.130167
0.132381
0.134425
0.136297
0.137994
0.139503
0.140798
0.141835
0.14253
0.14277
0.142373
0.141013
0.138172
0.132989
0.12464
0.11465
0.103923
0.0930115
0.0822598
0.07189
0.0620603
0.0528613
0.0443688
0.0366647
0.0295848
0.0230831
0.0174077
0.0125953
0.00867503
0.00564818
0.00346273
0.00200053
0.00109496
0.000572165
0.000287601
0.000140368
6.70819e-05
3.14837e-05
1.45448e-05
6.62715e-06
2.98363e-06
1.32969e-06
5.87672e-07
2.5803e-07
1.12728e-07
4.90475e-08
2.12401e-08
9.11782e-09
3.83429e-09
1.53109e-09
5.28525e-10
9.41938e-11
3.33161e-07
1.45889e-06
3.36491e-06
6.58849e-06
1.20204e-05
2.11198e-05
3.62452e-05
6.1148e-05
0.000101688
0.000166827
0.000269943
0.000430442
0.000675519
0.00104175
0.00157588
0.00233405
0.00337864