/*--------------------------------*- C++ -*----------------------------------*\
  =========                 |
  \\      /  F ield         | OpenFOAM: The Open Source CFD Toolbox
   \\    /   O peration     | Website:  https://openfoam.org
    \\  /    A nd           | Version:  8
     \\/     M anipulation  |
\*---------------------------------------------------------------------------*/
FoamFile
{
    version     2.0;
    format      ascii;
    class       volScalarField;
    location    "0.2/fluid";
    object      H2O;
}
// * * * * * * * * * * * * * * * * * * * * * * * * * * * * * * * * * * * * * //

dimensions      [0 0 0 0 0 0 0];

internalField   nonuniform List<scalar> 
4000
(
2.7714e-07
1.21373e-06
2.80032e-06
5.48627e-06
1.00197e-05
1.76338e-05
3.03367e-05
5.13533e-05
8.57744e-05
0.000141478
0.000230363
0.000369879
0.000584704
0.000908252
0.0013833
0.0020619
0.0029997
0.00425116
0.00586216
0.00786274
0.010263
0.013053
0.0162058
0.0196816
0.023433
0.0274085
0.0315554
0.0358225
0.0401769
0.0445733
0.0489553
0.0532906
0.0575508
0.0617115
0.0657527
0.0696581
0.0734151
0.0770141
0.0804491
0.0837165
0.0868154
0.0897466
0.0925124
0.0951165
0.0975637
0.0998593
0.102009
0.104019
0.105896
0.107644
0.109269
0.110774
0.11216
0.113425
0.114561
0.11555
0.116365
0.116955
0.117233
0.117088
0.116299
0.114526
0.111203
0.105391
0.0979708
0.0897495
0.0812168
0.0726763
0.0643182
0.0562707
0.0486221
0.0414287
0.0347459
0.0286189
0.0229096
0.0177349
0.0132317
0.00940147
0.00629941
0.0039465
0.00230191
0.00125284
0.000641263
0.00031213
0.000147274
6.78372e-05
3.06592e-05
1.36476e-05
6.00185e-06
2.61444e-06
1.13061e-06
4.86315e-07
2.08377e-07
8.90123e-08
3.78798e-08
1.59956e-08
6.62631e-09
2.61232e-09
8.93252e-10
1.58433e-10
2.77919e-07
1.21741e-06
2.80998e-06
5.50835e-06
1.00665e-05
1.77267e-05
3.05096e-05
5.16526e-05
8.62495e-05
0.000142147
0.000231153
0.000370509
0.000584502
0.000905896
0.00137667
0.00204629
0.00296939
0.00420033
0.00578503
0.00775456
0.0101211
0.012877
0.015998
0.0194465
0.0231767
0.0271384
0.0312796
0.0355627
0.0399292
0.0443137
0.0486965
0.0530407
0.0573151
0.0614933
0.0655539
0.0694797
0.0732573
0.0768767
0.0803314
0.0836177
0.0867342
0.0896818
0.0924626
0.0950804
0.0975399
0.0998465
0.102006
0.104025
0.105909
0.107664
0.109294
0.110803
0.112192
0.113457
0.114592
0.115578
0.116385
0.116959
0.117215
0.117033
0.116187
0.114325
0.110863
0.104839
0.0972867
0.0889797
0.0803904
0.0718123
0.0634302
0.0553727
0.0477268
0.0405523
0.0339149
0.0278487
0.0221989
0.0170857
0.0125981
0.00884123
0.00584875
0.00362042
0.00209234
0.0011337
0.000580929
0.000284286
0.000135171
6.28108e-05
2.8642e-05
1.28573e-05
5.69658e-06
2.49698e-06
1.08517e-06
4.68523e-07
2.01299e-07
8.61521e-08
3.67109e-08
1.55167e-08
6.4328e-09
2.5377e-09
8.68212e-10
1.54041e-10
2.79577e-07
1.22483e-06
2.82773e-06
5.54439e-06
1.01338e-05
1.78447e-05
3.07048e-05
5.19562e-05
8.66924e-05
0.000142749
0.000231881
0.000371237
0.000584786
0.000904785
0.00137219
0.00203538
0.00294862
0.00416479
0.00572917
0.00767297
0.0100093
0.0127323
0.0158196
0.0192358
0.0229371
0.0268748
0.0310067
0.0352795
0.0396189
0.044003
0.0483903
0.052744
0.0570322
0.0612277
0.0653082
0.069256
0.0730568
0.0767
0.0801785
0.0834883
0.0866275
0.0895966
0.0923978
0.0950345
0.0975115
0.0998345
0.102008
0.10404
0.105935
0.107699
0.109337
0.110852
0.112245
0.113512
0.114644
0.115622
0.116415
0.116962
0.117177
0.116928
0.115975
0.113944
0.11021
0.103891
0.0961561
0.0877362
0.0790796
0.0704658
0.0620716
0.0540252
0.0464088
0.0392829
0.0327187
0.0267119
0.0210944
0.0161076
0.0118001
0.00822072
0.00539973
0.00332383
0.00191534
0.00103798
0.000533395
0.000262183
0.000125223
5.84574e-05
2.67772e-05
1.20716e-05
5.36936e-06
2.36164e-06
1.02933e-06
4.45462e-07
1.91742e-07
8.21743e-08
3.50513e-08
1.48265e-08
6.15035e-09
2.42749e-09
8.30841e-10
1.47447e-10
2.80247e-07
1.22769e-06
2.83405e-06
5.55596e-06
1.01528e-05
1.78726e-05
3.07396e-05
5.19856e-05
8.66792e-05
0.00014258
0.000231291
0.000369621
0.000581262
0.000897953
0.00136011
0.00201593
0.00291836
0.00411978
0.00566535
0.00758664
0.00989757
0.0125935
0.0156535
0.0190436
0.0227213
0.0266422
0.0307608
0.0350014
0.0393361
0.0437197
0.0481107
0.0524721
0.0567718
0.060982
0.06508
0.0690474
0.0728694
0.0765348
0.0800361
0.0833685
0.0865301
0.0895209
0.0923428
0.0949993
0.097495
0.0998343
0.102023
0.104069
0.105976
0.10775
0.109397
0.110918
0.112314
0.113582
0.11471
0.115678
0.11645
0.116961
0.11712
0.11678
0.115682
0.113414
0.109291
0.102691
0.0947818
0.0862582
0.0775469
0.0689147
0.0605299
0.0525211
0.0449638
0.0379195
0.031464
0.0255396
0.0200405
0.0151926
0.0110398
0.00762274
0.00496087
0.00302746
0.0017326
0.00093489
0.000479632
0.000235922
0.000112927
5.28766e-05
2.4305e-05
1.09974e-05
4.90991e-06
2.16757e-06
9.48138e-07
4.11717e-07
1.77777e-07
7.64101e-08
3.26781e-08
1.3855e-08
5.75909e-09
2.27687e-09
7.80227e-10
1.38548e-10
2.8026e-07
1.22769e-06
2.83376e-06
5.55451e-06
1.01478e-05
1.78579e-05
3.07002e-05
5.18854e-05
8.64325e-05
0.000142044
0.00023022
0.000367647
0.000577695
0.000891716
0.00134962
0.00199902
0.00289226
0.00408129
0.00561114
0.00751364
0.00980336
0.0124767
0.0155136
0.0188813
0.0225383
0.0264477
0.0305355
0.0347685
0.0390989
0.0434817
0.0478756
0.0522436
0.0565529
0.0607757
0.0648888
0.0688733
0.072714
0.0763991
0.0799207
0.0832737
0.0864556
0.0894664
0.0923077
0.0949827
0.0974948
0.0998498
0.102053
0.104111
0.10603
0.107814
0.109468
0.110995
0.112394
0.113661
0.114784
0.115739
0.116488
0.116957
0.117055
0.116613
0.115352
0.112821
0.108264
0.101398
0.093328
0.0847146
0.0759637
0.0673285
0.058973
0.0510185
0.0435371
0.0365909
0.0302521
0.0244181
0.0190473
0.0143417
0.0103417
0.00708126
0.0045699
0.00276803
0.00157524
0.000847205
0.000434187
0.000213712
0.000102462
4.80769e-05
2.21497e-05
1.00458e-05
4.49536e-06
1.98892e-06
8.71803e-07
3.79315e-07
1.64092e-07
7.06547e-08
3.02687e-08
1.28546e-08
5.35134e-09
2.11842e-09
7.26634e-10
1.29094e-10
2.79536e-07
1.22439e-06
2.82557e-06
5.53683e-06
1.01116e-05
1.77863e-05
3.05616e-05
5.16244e-05
8.59576e-05
0.00014119
0.00022871
0.000365036
0.000573288
0.000884491
0.00133815
0.00198143
0.00286629
0.00404445
0.00556092
0.00744782
0.00972029
0.0123754
0.015394
0.018744
0.022388
0.0262728
0.0303529
0.03458
0.0389073
0.04329
0.0476868
0.0520607
0.0563786
0.0606126
0.0647388
0.0687382
0.0725951
0.0762974
0.0798367
0.0832076
0.0864074
0.089436
0.0922941
0.0949844
0.0975115
0.0998803
0.102096
0.104166
0.106094
0.107886
0.109547
0.111078
0.112479
0.113743
0.114859
0.115801
0.116526
0.116952
0.116988
0.116444
0.115021
0.112228
0.107242
0.100121
0.0919036
0.0832138
0.0744356
0.0658089
0.0574937
0.0496022
0.0422038
0.0353622
0.0291355
0.0233781
0.0181351
0.0135668
0.00971054
0.00659485
0.00422021
0.00253623
0.00143411
0.000767852
0.000392509
0.000193029
9.25864e-05
4.34916e-05
2.00685e-05
9.11868e-06
4.08873e-06
1.81284e-06
7.96337e-07
3.47227e-07
1.5053e-07
6.49502e-08
2.7881e-08
1.18632e-08
4.9472e-09
1.9613e-09
6.73449e-10
1.19708e-10
2.78453e-07
1.21956e-06
2.814e-06
5.51302e-06
1.00655e-05
1.76999e-05
3.04031e-05
5.13386e-05
8.54505e-05
0.000140304
0.00022719
0.000362478
0.00056908
0.000877742
0.00132764
0.00196559
0.00284324
0.00401215
0.00551737
0.00739131
0.0096496
0.01229
0.0152942
0.0186316
0.0222651
0.0261369
0.0302083
0.0344303
0.0387554
0.0431387
0.0475388
0.0519184
0.0562444
0.0604883
0.0646263
0.0686387
0.0725098
0.076227
0.0797816
0.0831682
0.0863837
0.0894268
0.0922989
0.0950028
0.0975426
0.099923
0.10215
0.104228
0.106164
0.107963
0.109628
0.111162
0.112563
0.113825
0.114933
0.11586
0.116561
0.116947
0.116925
0.116285
0.114706
0.111665
0.106275
0.0989178
0.0905686
0.0818147
0.0730188
0.0644077
0.0561371
0.0483109
0.0409957
0.0342586
0.0281309
0.0224351
0.0173143
0.0128748
0.00915124
0.00616747
0.00391586
0.00233641
0.00131347
0.000700403
0.000357164
0.000175522
8.41952e-05
3.95731e-05
1.82772e-05
8.31425e-06
3.73287e-06
1.6574e-06
7.29139e-07
3.18422e-07
1.38265e-07
5.97569e-08
2.56945e-08
1.09507e-08
4.57361e-09
1.81554e-09
6.23989e-10
1.10968e-10
2.7721e-07
1.21404e-06
2.80095e-06
5.48651e-06
1.0015e-05
1.76067e-05
3.02348e-05
5.10399e-05
8.49288e-05
0.000139408
0.000225678
0.000359977
0.000565039
0.00087138
0.00131791
0.00195118
0.00282263
0.00398375
0.00547968
0.00734314
0.00959023
0.0122193
0.0152125
0.0185425
0.02216
0.0260262
0.0300931
0.0343123
0.0386367
0.0430215
0.0474253
0.0518106
0.0561441
0.0603971
0.0645455
0.0685696
0.072453
0.0761831
0.0797511
0.083151
0.086379
0.0894345
0.0923186
0.0950339
0.0975841
0.0999741
0.102209
0.104295
0.106238
0.108041
0.10971
0.111246
0.112646
0.113904
0.115004
0.115918
0.116595
0.116946
0.116867
0.116136
0.114416
0.111147
0.105389
0.0978198
0.0893544
0.0805469
0.0717397
0.0631471
0.0549215
0.0471581
0.0399217
0.0332821
0.0272442
0.0215981
0.0165909
0.0122683
0.00866376
0.00579715
0.00365373
0.00216519
0.00121037
0.000642759
0.000326869
0.000160454
7.69387e-05
3.61676e-05
1.67129e-05
7.60865e-06
3.41948e-06
1.52001e-06
6.69557e-07
2.92809e-07
1.27331e-07
5.51163e-08
2.37364e-08
1.01319e-08
4.23774e-09
1.68428e-09
5.79393e-10
1.03082e-10
2.75955e-07
1.20849e-06
2.78789e-06
5.46018e-06
9.96525e-06
1.75158e-05
3.00725e-05
5.07549e-05
8.44364e-05
0.000138571
0.000224282
0.000357696
0.000561395
0.000865705
0.00130932
0.00193858
0.00280479
0.00395937
0.00544759
0.00730245
0.00954038
0.0121601
0.0151447
0.0184631
0.0220757
0.0259379
0.030002
0.03422
0.038545
0.0429321
0.0473399
0.0517308
0.0560714
0.0603328
0.0644905
0.0685247
0.0724189
0.0761603
0.0797395
0.0831501
0.0863889
0.089455
0.092349
0.0950736
0.0976324
0.10003
0.102272
0.104364
0.106311
0.108119
0.10979
0.111326
0.112725
0.113979
0.115071
0.115971
0.116626
0.116943
0.116811
0.115998
0.114149
0.110674
0.104591
0.0968356
0.0882701
0.0794181
0.0706042
0.062031
0.0538476
0.0461416
0.0389764
0.0324251
0.0264524
0.0208821
0.0159688
0.011746
0.00824468
0.00548004
0.00343048
0.00202021
0.00112351
0.000594336
0.000301444
0.000147798
7.08302e-05
3.32922e-05
1.53874e-05
7.00844e-06
3.15181e-06
1.40219e-06
6.18264e-07
2.70677e-07
1.17851e-07
5.10797e-08
2.20282e-08
9.41568e-09
3.94329e-09
1.56899e-09
5.4017e-10
9.61419e-11
2.74766e-07
1.20325e-06
2.77557e-06
5.43546e-06
9.91874e-06
1.74313e-05
2.99223e-05
5.04928e-05
8.39866e-05
0.000137812
0.000223027
0.00035566
0.000558168
0.000860722
0.00130184
0.00192771
0.00278953
0.00393872
0.0054207
0.00726872
0.00949962
0.0121125
0.0150922
0.0184034
0.0220107
0.0258692
0.0299314
0.0341491
0.0384752
0.0428651
0.0472771
0.0516735
0.0560206
0.0602895
0.0644556
0.0684987
0.0724023
0.076153
0.0797414
0.0831613
0.0864093
0.089484
0.0923862
0.0951184
0.097684
0.100088
0.102335
0.104432
0.106382
0.108192
0.109865
0.111401
0.112798
0.114048
0.115132
0.116018
0.116651
0.116937
0.116755
0.115866
0.113898
0.110236
0.103872
0.0959587
0.0873103
0.0784237
0.0696072
0.0610538
0.0529095
0.0452554
0.0381537
0.0316795
0.0257618
0.0202663
0.0154344
0.011298
0.00788619
0.00520989
0.00324125
0.00189792
0.00105052
0.000553726
0.000280126
0.000137175
6.56938e-05
3.08691e-05
1.42677e-05
6.50011e-06
2.92456e-06
1.30191e-06
5.74501e-07
2.51751e-07
1.09726e-07
4.76128e-08
2.05582e-08
8.79817e-09
3.68897e-09
1.46927e-09
5.06212e-10
9.01306e-11
2.73689e-07
1.1985e-06
2.76444e-06
5.41318e-06
9.87698e-06
1.73557e-05
2.97886e-05
5.02604e-05
8.35898e-05
0.000137147
0.000221931
0.000353894
0.000555386
0.000856453
0.00129548
0.00191852
0.0027767
0.00392146
0.00539835
0.00724087
0.00946621
0.0120743
0.0150465
0.0183541
0.0219586
0.0258153
0.0298768
0.0340951
0.0384231
0.042816
0.0472321
0.0516336
0.0559868
0.0602625
0.0644359
0.0684868
0.0723982
0.0761568
0.0797531
0.0831809
0.0864363
0.0895181
0.092427
0.0951652
0.0977363
0.100145
0.102396
0.104496
0.106449
0.108261
0.109934
0.11147
0.112864
0.114109
0.115185
0.116059
0.116669
0.116924
0.116692
0.115725
0.113634
0.109773
0.103202
0.0951715
0.0864626
0.0775525
0.0687379
0.0602064
0.0520977
0.0444897
0.0374442
0.0310349
0.0251671
0.0197371
0.0149759
0.0109147
0.00758047
0.00498056
0.00308146
0.00179521
0.000989462
0.00051985
0.000262365
0.000128323
6.14102e-05
2.88453e-05
1.33308e-05
6.07398e-06
2.73365e-06
1.21749e-06
5.3758e-07
2.3575e-07
1.02842e-07
4.46701e-08
1.93081e-08
8.27214e-09
3.47201e-09
1.38409e-09
4.77179e-10
8.49889e-11
2.72745e-07
1.19433e-06
2.7547e-06
5.39371e-06
9.84054e-06
1.72899e-05
2.96724e-05
5.00593e-05
8.32475e-05
0.000136575
0.000220993
0.000352389
0.000553028
0.000852852
0.00129014
0.00191085
0.00276604
0.00390718
0.00537989
0.00721781
0.0094383
0.0120419
0.0150104
0.0183153
0.021918
0.0257738
0.0298354
0.0340547
0.0383849
0.0427808
0.047201
0.0516072
0.0559659
0.0602475
0.0644274
0.0684847
0.0724028
0.0761681
0.0797712
0.0832054
0.0864669
0.0895545
0.0924686
0.0952116
0.097787
0.100199
0.102454
0.104556
0.106511
0.108324
0.109997
0.111531
0.112923
0.114163
0.115231
0.116092
0.11668
0.116905
0.116625
0.115582
0.113369
0.109309
0.102587
0.0944721
0.0857206
0.0767963
0.067987
0.0594772
0.0514009
0.0438339
0.036838
0.0304839
0.0246563
0.0192836
0.014584
0.010588
0.00732094
0.00478676
0.00294711
0.00170926
0.000938576
0.000491687
0.000247618
0.000120975
5.7852e-05
2.71627e-05
1.2551e-05
5.71875e-06
2.57426e-06
1.1469e-06
5.06661e-07
2.22329e-07
9.70598e-08
4.2194e-08
1.82547e-08
7.82825e-09
3.28869e-09
1.31205e-09
4.52605e-10
8.06359e-11
2.71938e-07
1.19078e-06
2.74639e-06
5.37711e-06
9.80952e-06
1.7234e-05
2.9574e-05
4.98891e-05
8.29588e-05
0.000136094
0.000220207
0.000351132
0.000551066
0.000849869
0.00128573
0.00190456
0.00275737
0.00389567
0.00536522
0.00719991
0.00941768
0.0120171
0.0149829
0.0182858
0.0218871
0.0257425
0.0298045
0.0340253
0.0383576
0.0427565
0.0471803
0.0515909
0.0559543
0.0602412
0.0644264
0.0684893
0.0724131
0.0761841
0.0797926
0.0832321
0.0864986
0.0895908
0.0925092
0.0952559
0.0978346
0.10025
0.102507
0.10461
0.106567
0.10838
0.110052
0.111585
0.112975
0.11421
0.11527
0.116119
0.116688
0.116884
0.11656
0.115446
0.113121
0.108877
0.102042
0.0938633
0.085081
0.0761481
0.0673458
0.058856
0.0508085
0.0432773
0.0363245
0.0300172
0.024221
0.018898
0.0142516
0.0103117
0.00710215
0.00462408
0.00283487
0.00163778
0.000896409
0.000468409
0.000235445
0.000114911
5.49153e-05
2.57731e-05
1.19063e-05
5.42481e-06
2.44223e-06
1.08835e-06
4.8098e-07
2.11167e-07
9.22441e-08
4.01293e-08
1.73751e-08
7.45718e-09
3.13527e-09
1.2517e-09
4.32008e-10
7.69861e-11
2.71264e-07
1.18781e-06
2.73946e-06
5.36328e-06
9.78371e-06
1.71875e-05
2.94922e-05
4.97481e-05
8.272e-05
0.000135697
0.00021956
0.000350101
0.00054946
0.000847437
0.00128216
0.00189946
0.00275036
0.00388637
0.00535331
0.00718512
0.00939983
0.0119973
0.0149614
0.0182631
0.0218638
0.0257192
0.029782
0.0340042
0.0383386
0.0427403
0.0471674
0.0515818
0.0559494
0.0602406
0.0644304
0.0684981
0.0724265
0.0762022
0.0798152
0.0832589
0.0865295
0.0896253
0.092547
0.0952967
0.0978779
0.100295
0.102554
0.104659
0.106616
0.108429
0.110101
0.111633
0.113019
0.11425
0.115303
0.116141
0.116693
0.116865
0.116501
0.115327
0.112904
0.108502
0.101575
0.0933455
0.0845395
0.0756011
0.0668057
0.0583338
0.0503112
0.0428108
0.0358954
0.0296256
0.023854
0.0185737
0.0139726
0.0100803
0.00691955
0.00448883
0.00274194
0.00157884
0.000861752
0.00044932
0.000225476
0.000109947
5.25109e-05
2.46348e-05
1.1378e-05
5.18368e-06
2.33381e-06
1.04023e-06
4.59851e-07
2.01973e-07
8.82733e-08
3.8425e-08
1.66483e-08
7.15022e-09
3.00825e-09
1.2017e-09
4.14933e-10
7.39599e-11
2.70716e-07
1.1854e-06
2.73382e-06
5.35202e-06
9.76271e-06
1.71497e-05
2.94259e-05
4.96338e-05
8.25267e-05
0.000135376
0.000219039
0.000349271
0.000548173
0.000845493
0.00127931
0.00189542
0.00274485
0.00387914
0.00534424
0.00717435
0.00938685
0.0119825
0.0149453
0.0182461
0.0218465
0.0257022
0.0297658
0.0339894
0.0383258
0.04273
0.04716
0.0515776
0.0559487
0.0602436
0.0644373
0.0685088
0.0724412
0.0762206
0.0798372
0.0832844
0.0865581
0.0896568
0.092581
0.0953329
0.097916
0.100335
0.102594
0.1047
0.106658
0.108471
0.110142
0.111673
0.113057
0.114284
0.115331
0.11616
0.116696
0.116848
0.116452
0.115226
0.112722
0.108188
0.101186
0.0929152
0.0840903
0.0751479
0.0663589
0.0579022
0.0499004
0.0424256
0.035541
0.0293033
0.0235502
0.0183054
0.0137421
0.0098896
0.00676942
0.00437798
0.00266604
0.00153086
0.000833621
0.000433856
0.000217409
0.000105932
5.05658e-05
2.37137e-05
1.09501e-05
4.98831e-06
2.2459e-06
1.00118e-06
4.42689e-07
1.94499e-07
8.50422e-08
3.70369e-08
1.60558e-08
6.89978e-09
2.90453e-09
1.16084e-09
4.00978e-10
7.14858e-11
2.70282e-07
1.18348e-06
2.72935e-06
5.34312e-06
9.7461e-06
1.71198e-05
2.93734e-05
4.95436e-05
8.23743e-05
0.000135123
0.000218629
0.00034862
0.000547165
0.000843973
0.00127708
0.00189227
0.00274054
0.00387346
0.00533701
0.00716542
0.00937668
0.0119712
0.0149332
0.0182335
0.0218339
0.02569
0.0297545
0.0339795
0.0383176
0.0427239
0.0471564
0.0515766
0.0559506
0.0602486
0.0644453
0.06852
0.0724554
0.0762378
0.0798573
0.0833071
0.0865832
0.0896841
0.0926103
0.0953639
0.0979484
0.100368
0.102629
0.104735
0.106693
0.108506
0.110177
0.111706
0.113088
0.114312
0.115354
0.116175
0.1167
0.116834
0.116411
0.115144
0.112575
0.107934
0.10087
0.092567
0.0837271
0.0747817
0.0659981
0.0575538
0.0495691
0.0421152
0.0352558
0.0290434
0.0233045
0.0180887
0.0135562
0.00973593
0.00664868
0.00428903
0.00260529
0.00149256
0.00081122
0.00042156
0.000211001
0.000102742
4.90204e-05
2.29815e-05
1.06099e-05
4.83287e-06
2.17592e-06
9.70068e-07
4.29009e-07
1.88538e-07
8.24633e-08
3.59283e-08
1.55823e-08
6.69953e-09
2.82156e-09
1.12815e-09
3.89804e-10
6.95044e-11
2.69951e-07
1.18203e-06
2.72594e-06
5.33632e-06
9.73343e-06
1.7097e-05
2.93334e-05
4.94749e-05
8.22583e-05
0.000134931
0.000218318
0.000348127
0.000546403
0.000842827
0.00127541
0.00188992
0.00273735
0.00386928
0.00533176
0.00715908
0.00936935
0.0119631
0.0149245
0.0182246
0.021825
0.0256815
0.0297469
0.0339729
0.0383125
0.0427206
0.047155
0.0515774
0.0559537
0.060254
0.0644532
0.0685303
0.0724681
0.0762528
0.0798744
0.0833262
0.0866042
0.0897068
0.0926344
0.0953892
0.0979747
0.100395
0.102656
0.104763
0.106721
0.108533
0.110204
0.111732
0.113112
0.114334
0.115372
0.116188
0.116702
0.116824
0.11638
0.11508
0.11246
0.107735
0.100624
0.0922952
0.0834439
0.0744964
0.0657171
0.0572827
0.0493113
0.0418738
0.0350343
0.0288411
0.0231126
0.0179197
0.0134114
0.00961647
0.00655498
0.00422012
0.00255831
0.00146296
0.000793914
0.000412063
0.000206051
0.000100279
4.78267e-05
2.2416e-05
1.0347e-05
4.71273e-06
2.12182e-06
9.46014e-07
4.18429e-07
1.83926e-07
8.04676e-08
3.50701e-08
1.52157e-08
6.54443e-09
2.75728e-09
1.10281e-09
3.81147e-10
6.79693e-11
2.69713e-07
1.18098e-06
2.72349e-06
5.33143e-06
9.72432e-06
1.70807e-05
2.93047e-05
4.94255e-05
8.2175e-05
0.000134794
0.000218094
0.000347774
0.000545858
0.000842009
0.00127422
0.00188825
0.00273508
0.00386634
0.00532811
0.00715466
0.00936426
0.0119575
0.0149185
0.0182185
0.021819
0.025676
0.0297419
0.0339689
0.0383096
0.0427189
0.0471548
0.0515788
0.0559568
0.0602589
0.0644599
0.0685388
0.0724783
0.0762646
0.0798878
0.0833411
0.0866203
0.0897241
0.0926527
0.0954084
0.0979946
0.100416
0.102677
0.104784
0.106742
0.108554
0.110224
0.111751
0.113131
0.11435
0.115386
0.116197
0.116704
0.116816
0.116357
0.115033
0.112375
0.107589
0.100443
0.0920955
0.0832358
0.0742868
0.0655108
0.0570837
0.0491223
0.0416969
0.0348723
0.0286926
0.0229715
0.0177956
0.0133052
0.00952901
0.00648648
0.00416981
0.00252401
0.00144134
0.00078125
0.000405108
0.000202424
9.8473e-05
4.69514e-05
2.20012e-05
1.01543e-05
4.62464e-06
2.08215e-06
9.28379e-07
4.10674e-07
1.80546e-07
7.90053e-08
3.44414e-08
1.49471e-08
6.43087e-09
2.71023e-09
1.08427e-09
3.74811e-10
6.68461e-11
2.6956e-07
1.1803e-06
2.72192e-06
5.32829e-06
9.71846e-06
1.70701e-05
2.92863e-05
4.93938e-05
8.21216e-05
0.000134705
0.000217952
0.000347548
0.000545509
0.000841486
0.00127346
0.00188718
0.00273363
0.00386445
0.00532574
0.00715185
0.00936105
0.0119539
0.0149148
0.0182147
0.0218154
0.0256726
0.029739
0.0339666
0.0383081
0.0427183
0.0471551
0.0515802
0.0559593
0.0602626
0.0644647
0.0685448
0.0724854
0.0762728
0.079897
0.0833512
0.0866313
0.0897358
0.0926651
0.0954213
0.098008
0.10043
0.102691
0.104798
0.106756
0.108568
0.110238
0.111764
0.113143
0.114361
0.115394
0.116202
0.116705
0.116811
0.116342
0.115003
0.112319
0.107493
0.100324
0.0919644
0.0830992
0.0741494
0.0653755
0.0569533
0.0489985
0.0415812
0.0347664
0.0285955
0.0228792
0.0177146
0.013236
0.00947216
0.00644208
0.00413729
0.00250189
0.00142739
0.000773044
0.000400575
0.00020005
9.72889e-05
4.63771e-05
2.1729e-05
1.00278e-05
4.56689e-06
2.05616e-06
9.16833e-07
4.05599e-07
1.78335e-07
7.80494e-08
3.40306e-08
1.47717e-08
6.35671e-09
2.67952e-09
1.07218e-09
3.70679e-10
6.61136e-11
2.69486e-07
1.17998e-06
2.72116e-06
5.32679e-06
9.71567e-06
1.70651e-05
2.92775e-05
4.93788e-05
8.20964e-05
0.000134664
0.000217884
0.000347442
0.000545346
0.000841241
0.00127311
0.00188668
0.00273295
0.00386356
0.00532462
0.00715053
0.00935955
0.0119523
0.0149131
0.018213
0.0218137
0.0256711
0.0297377
0.0339656
0.0383074
0.042718
0.0471554
0.051581
0.0559606
0.0602645
0.0644672
0.0685478
0.072489
0.0762769
0.0799016
0.0833562
0.0866368
0.0897416
0.0926712
0.0954277
0.0980146
0.100436
0.102698
0.104805
0.106763
0.108575
0.110244
0.111771
0.113149
0.114366
0.115399
0.116205
0.116706
0.116808
0.116334
0.114987
0.112292
0.107446
0.100266
0.0919
0.0830322
0.0740819
0.0653092
0.0568895
0.048938
0.0415247
0.0347149
0.0285483
0.0228344
0.0176754
0.0132028
0.00944502
0.00642105
0.00412202
0.00249159
0.00142093
0.000769242
0.000398459
0.000198935
9.67313e-05
4.61063e-05
2.16005e-05
9.96807e-06
4.53957e-06
2.04386e-06
9.11359e-07
4.0319e-07
1.77284e-07
7.75942e-08
3.38347e-08
1.46879e-08
6.32123e-09
2.6648e-09
1.06637e-09
3.68695e-10
6.57618e-11
2.69487e-07
1.17998e-06
2.72117e-06
5.3268e-06
9.71569e-06
1.70652e-05
2.92776e-05
4.93789e-05
8.20966e-05
0.000134664
0.000217885
0.000347443
0.000545347
0.000841242
0.00127311
0.00188668
0.00273295
0.00386357
0.00532463
0.00715053
0.00935955
0.0119523
0.0149131
0.018213
0.0218137
0.025671
0.0297377
0.0339656
0.0383074
0.042718
0.0471553
0.051581
0.0559606
0.0602644
0.0644672
0.0685478
0.0724889
0.0762769
0.0799016
0.0833562
0.0866367
0.0897416
0.0926712
0.0954277
0.0980146
0.100436
0.102698
0.104805
0.106763
0.108575
0.110244
0.111771
0.113149
0.114366
0.115399
0.116205
0.116706
0.116808
0.116334
0.114987
0.112292
0.107446
0.100266
0.0919
0.0830321
0.0740819
0.0653092
0.0568895
0.048938
0.0415247
0.0347149
0.0285483
0.0228344
0.0176754
0.0132028
0.00944502
0.00642105
0.00412202
0.00249159
0.00142093
0.000769243
0.00039846
0.000198935
9.67317e-05
4.61065e-05
2.16007e-05
9.96815e-06
4.53962e-06
2.04388e-06
9.11374e-07
4.03198e-07
1.77289e-07
7.75968e-08
3.38362e-08
1.46888e-08
6.32167e-09
2.66502e-09
1.06648e-09
3.68734e-10
6.57694e-11
2.69562e-07
1.18031e-06
2.72194e-06
5.32834e-06
9.71855e-06
1.70703e-05
2.92865e-05
4.93942e-05
8.21223e-05
0.000134706
0.000217953
0.000347551
0.000545513
0.000841491
0.00127347
0.00188718
0.00273364
0.00386446
0.00532574
0.00715185
0.00936105
0.0119539
0.0149148
0.0182147
0.0218154
0.0256726
0.029739
0.0339665
0.038308
0.0427182
0.047155
0.0515801
0.0559592
0.0602625
0.0644646
0.0685447
0.0724853
0.0762727
0.0798969
0.0833511
0.0866313
0.0897357
0.092665
0.0954213
0.0980079
0.100429
0.102691
0.104798
0.106756
0.108568
0.110238
0.111764
0.113143
0.114361
0.115394
0.116202
0.116705
0.116811
0.116341
0.115003
0.112319
0.107493
0.100324
0.0919644
0.0830992
0.0741493
0.0653755
0.0569533
0.0489984
0.0415811
0.0347664
0.0285955
0.0228792
0.0177146
0.013236
0.00947217
0.00644209
0.0041373
0.0025019
0.00142739
0.000773049
0.000400579
0.000200052
9.72902e-05
4.63779e-05
2.17295e-05
1.00281e-05
4.56703e-06
2.05624e-06
9.16878e-07
4.05624e-07
1.78349e-07
7.80575e-08
3.40352e-08
1.47742e-08
6.35805e-09
2.6802e-09
1.0725e-09
3.70802e-10
6.61369e-11
2.69717e-07
1.18099e-06
2.72353e-06
5.33151e-06
9.72446e-06
1.70809e-05
2.93051e-05
4.94262e-05
8.21761e-05
0.000134795
0.000218097
0.000347778
0.000545863
0.000842016
0.00127423
0.00188826
0.00273509
0.00386636
0.00532813
0.00715468
0.00936426
0.0119575
0.0149185
0.0182184
0.021819
0.0256759
0.0297419
0.0339688
0.0383095
0.0427188
0.0471547
0.0515787
0.0559567
0.0602588
0.0644597
0.0685386
0.0724781
0.0762645
0.0798877
0.0833409
0.0866202
0.089724
0.0926526
0.0954083
0.0979946
0.100416
0.102677
0.104784
0.106742
0.108554
0.110224
0.111751
0.113131
0.11435
0.115386
0.116196
0.116704
0.116816
0.116357
0.115033
0.112375
0.107589
0.100443
0.0920954
0.0832357
0.0742867
0.0655107
0.0570836
0.0491222
0.0416969
0.0348722
0.0286926
0.0229715
0.0177955
0.0133052
0.00952902
0.00648649
0.00416982
0.00252402
0.00144135
0.000781259
0.000405114
0.000202427
9.84752e-05
4.69527e-05
2.20019e-05
1.01547e-05
4.62488e-06
2.08229e-06
9.28456e-07
4.10717e-07
1.8057e-07
7.90191e-08
3.44492e-08
1.49514e-08
6.43316e-09
2.7114e-09
1.08482e-09
3.75022e-10
6.68859e-11
2.69956e-07
1.18205e-06
2.726e-06
5.33643e-06
9.73362e-06
1.70974e-05
2.9334e-05
4.94758e-05
8.22598e-05
0.000134934
0.000218321
0.000348132
0.00054641
0.000842837
0.00127543
0.00188994
0.00273736
0.0038693
0.00533178
0.00715909
0.00936935
0.0119631
0.0149245
0.0182245
0.0218249
0.0256814
0.0297468
0.0339728
0.0383124
0.0427204
0.0471548
0.0515772
0.0559535
0.0602538
0.064453
0.0685301
0.0724679
0.0762526
0.0798742
0.083326
0.086604
0.0897066
0.0926342
0.0953891
0.0979746
0.100395
0.102656
0.104763
0.106721
0.108533
0.110204
0.111732
0.113112
0.114334
0.115372
0.116188
0.116702
0.116824
0.11638
0.11508
0.11246
0.107735
0.100624
0.0922951
0.0834437
0.0744962
0.065717
0.0572826
0.0493112
0.0418737
0.0350343
0.0288411
0.0231126
0.0179197
0.0134114
0.00961649
0.00655501
0.00422015
0.00255833
0.00146298
0.000793928
0.000412072
0.000206057
0.000100282
4.78286e-05
2.2417e-05
1.03477e-05
4.71308e-06
2.12201e-06
9.46123e-07
4.18491e-07
1.8396e-07
8.04873e-08
3.50811e-08
1.52218e-08
6.54772e-09
2.75896e-09
1.1036e-09
3.8145e-10
6.80268e-11
2.70289e-07
1.18351e-06
2.72942e-06
5.34325e-06
9.74634e-06
1.71202e-05
2.93741e-05
4.95448e-05
8.23761e-05
0.000135126
0.000218633
0.000348627
0.000547174
0.000843984
0.0012771
0.00189229
0.00274056
0.00387348
0.00533702
0.00716542
0.00937668
0.0119712
0.0149331
0.0182335
0.0218338
0.0256899
0.0297544
0.0339793
0.0383174
0.0427237
0.0471561
0.0515764
0.0559504
0.0602483
0.0644451
0.0685198
0.0724552
0.0762376
0.0798571
0.0833069
0.086583
0.089684
0.0926102
0.0953638
0.0979483
0.100368
0.102629
0.104735
0.106693
0.108506
0.110177
0.111706
0.113088
0.114312
0.115354
0.116175
0.116699
0.116834
0.116411
0.115144
0.112575
0.107934
0.10087
0.0925667
0.0837269
0.0747815
0.0659979
0.0575537
0.049569
0.0421151
0.0352557
0.0290434
0.0233044
0.0180887
0.0135562
0.00973596
0.00664872
0.00428907
0.00260533
0.00149259
0.000811238
0.000421572
0.000211008
0.000102747
4.90229e-05
2.2983e-05
1.06107e-05
4.83332e-06
2.17617e-06
9.70212e-07
4.2909e-07
1.88583e-07
8.24892e-08
3.59428e-08
1.55903e-08
6.70384e-09
2.82376e-09
1.12918e-09
3.90203e-10
6.95797e-11
2.70724e-07
1.18543e-06
2.7339e-06
5.35218e-06
9.763e-06
1.71502e-05
2.94267e-05
4.96352e-05
8.25289e-05
0.000135379
0.000219044
0.000349278
0.000548183
0.000845506
0.00127932
0.00189544
0.00274487
0.00387916
0.00534425
0.00717434
0.00938683
0.0119825
0.0149452
0.018246
0.0218463
0.025702
0.0297656
0.0339892
0.0383256
0.0427298
0.0471597
0.0515773
0.0559484
0.0602433
0.064437
0.0685085
0.0724409
0.0762203
0.0798369
0.0832841
0.0865578
0.0896565
0.0925808
0.0953327
0.0979159
0.100335
0.102594
0.1047
0.106658
0.108471
0.110142
0.111672
0.113057
0.114284
0.115331
0.11616
0.116696
0.116848
0.116452
0.115226
0.112722
0.108188
0.101185
0.0929149
0.0840901
0.0751477
0.0663587
0.057902
0.0499002
0.0424255
0.0355409
0.0293032
0.0235502
0.0183054
0.0137421
0.00988962
0.00676946
0.00437802
0.00266608
0.00153089
0.000833644
0.00043387
0.000217418
0.000105937
5.05689e-05
2.37154e-05
1.09511e-05
4.98887e-06
2.24622e-06
1.00136e-06
4.4279e-07
1.94556e-07
8.50743e-08
3.70549e-08
1.60657e-08
6.90513e-09
2.90727e-09
1.16212e-09
4.01471e-10
7.15786e-11
2.71273e-07
1.18785e-06
2.73955e-06
5.36346e-06
9.78404e-06
1.71881e-05
2.94932e-05
4.97497e-05
8.27225e-05
0.0001357
0.000219566
0.000350109
0.000549472
0.000847452
0.00128217
0.00189948
0.00275038
0.00388639
0.00535332
0.00718512
0.0093998
0.0119972
0.0149613
0.018263
0.0218636
0.025719
0.0297817
0.0340039
0.0383383
0.04274
0.0471671
0.0515814
0.055949
0.0602402
0.06443
0.0684977
0.0724262
0.0762018
0.0798149
0.0832586
0.0865292
0.0896251
0.0925467
0.0952964
0.0978777
0.100295
0.102553
0.104658
0.106615
0.108429
0.110101
0.111633
0.113019
0.11425
0.115303
0.116141
0.116693
0.116865
0.116501
0.115326
0.112904
0.108502
0.101575
0.0933451
0.0845391
0.0756007
0.0668054
0.0583336
0.0503109
0.0428106
0.0358953
0.0296255
0.0238539
0.0185737
0.0139726
0.0100803
0.00691959
0.00448888
0.00274198
0.00157887
0.000861777
0.000449336
0.000225486
0.000109954
5.25145e-05
2.46369e-05
1.13791e-05
5.18436e-06
2.33419e-06
1.04045e-06
4.59972e-07
2.02042e-07
8.83119e-08
3.84466e-08
1.66602e-08
7.15663e-09
3.01152e-09
1.20322e-09
4.15523e-10
7.40707e-11
2.71948e-07
1.19082e-06
2.74649e-06
5.37731e-06
9.8099e-06
1.72346e-05
2.95751e-05
4.98909e-05
8.29616e-05
0.000136098
0.000220214
0.000351141
0.000551078
0.000849886
0.00128575
0.00190458
0.00275739
0.00389569
0.00536522
0.00719989
0.00941762
0.012017
0.0149828
0.0182856
0.0218869
0.0257422
0.0298042
0.0340249
0.0383572
0.0427561
0.0471799
0.0515904
0.0559539
0.0602408
0.0644259
0.0684889
0.0724126
0.0761836
0.0797922
0.0832317
0.0864983
0.0895905
0.0925089
0.0952556
0.0978344
0.10025
0.102506
0.10461
0.106566
0.10838
0.110052
0.111585
0.112975
0.11421
0.11527
0.116119
0.116688
0.116884
0.11656
0.115446
0.113121
0.108877
0.102042
0.0938628
0.0850805
0.0761477
0.0673454
0.0588557
0.0508082
0.0432771
0.0363243
0.0300171
0.0242209
0.018898
0.0142516
0.0103117
0.00710217
0.00462412
0.00283491
0.00163781
0.000896435
0.000468427
0.000235456
0.000114918
5.49194e-05
2.57754e-05
1.19077e-05
5.42559e-06
2.44267e-06
1.08861e-06