/*--------------------------------*- C++ -*----------------------------------*\
  =========                 |
  \\      /  F ield         | OpenFOAM: The Open Source CFD Toolbox
   \\    /   O peration     | Website:  https://openfoam.org
    \\  /    A nd           | Version:  8
     \\/     M anipulation  |
\*---------------------------------------------------------------------------*/
FoamFile
{
    version     2.0;
    format      ascii;
    class       volScalarField;
    location    "0.2/fluid";
    object      N2;
}
// * * * * * * * * * * * * * * * * * * * * * * * * * * * * * * * * * * * * * //

dimensions      [0 0 0 0 0 0 0];

internalField   nonuniform List<scalar> 
4000
(
2.09279e-06
9.14372e-06
2.09947e-05
4.08485e-05
7.39653e-05
0.000128903
0.000219425
0.000367358
0.000606751
0.000989675
0.00159387
0.002532
0.0039616
0.00609335
0.00919372
0.0135827
0.0195966
0.0275577
0.0377294
0.0502735
0.0652284
0.0825108
0.101937
0.123251
0.146154
0.170328
0.195452
0.221217
0.247427
0.273817
0.300049
0.325937
0.351314
0.376044
0.400011
0.423127
0.445321
0.466543
0.486762
0.505963
0.524145
0.541315
0.557493
0.572705
0.586982
0.600358
0.612874
0.624569
0.635485
0.645662
0.655143
0.663969
0.672179
0.679813
0.686907
0.693498
0.69962
0.705293
0.710439
0.715361
0.719942
0.724215
0.728215
0.731983
0.735557
0.738959
0.742201
0.745289
0.748224
0.751001
0.753616
0.75606
0.758324
0.760395
0.762321
0.764065
0.76558
0.766867
0.767906
0.768693
0.769241
0.769589
0.769791
0.769899
0.769953
0.769978
0.76999
0.769996
0.769998
0.769999
0.77
0.77
0.77
0.77
0.77
0.77
0.77
0.77
0.77
0.77
2.09772e-06
9.1674e-06
2.1058e-05
4.09954e-05
7.42801e-05
0.000129532
0.000220596
0.000369383
0.000609954
0.000994166
0.00159914
0.0025362
0.00396029
0.00607813
0.00915106
0.013483
0.0194042
0.0272366
0.0372448
0.0495974
0.0643453
0.0814208
0.100655
0.121806
0.144584
0.168677
0.193771
0.219636
0.245924
0.272247
0.298486
0.324429
0.349893
0.374728
0.398813
0.422051
0.444369
0.465714
0.486051
0.505364
0.52365
0.540918
0.557185
0.572478
0.586828
0.60027
0.612845
0.624591
0.635551
0.645768
0.655282
0.664136
0.67237
0.680024
0.687135
0.69374
0.699873
0.705549
0.710697
0.715623
0.72021
0.724487
0.728491
0.732264
0.735844
0.739252
0.742499
0.745591
0.748529
0.751308
0.75392
0.756357
0.758604
0.760654
0.76256
0.764283
0.765793
0.767055
0.768057
0.768802
0.769311
0.769628
0.769811
0.769908
0.769957
0.76998
0.769991
0.769996
0.769998
0.769999
0.77
0.77
0.77
0.77
0.77
0.77
0.77
0.77
0.77
0.77
2.10929e-06
9.2192e-06
2.11819e-05
4.12466e-05
7.47478e-05
0.000130349
0.000221939
0.000371459
0.000612963
0.000998227
0.00160402
0.00254108
0.00396232
0.00607109
0.00912234
0.0134132
0.0192717
0.0270112
0.0368926
0.049086
0.0636487
0.0805233
0.0995539
0.120511
0.143116
0.167069
0.19211
0.217919
0.24405
0.270372
0.296642
0.322644
0.348193
0.373134
0.397339
0.42071
0.443167
0.464654
0.485133
0.504586
0.523007
0.540403
0.556791
0.572195
0.586648
0.600186
0.612845
0.624667
0.635694
0.645969
0.655535
0.664433
0.672705
0.680389
0.687526
0.69415
0.700298
0.705963
0.711123
0.716061
0.720654
0.724937
0.728946
0.732724
0.736309
0.739721
0.74297
0.746062
0.748997
0.751768
0.754367
0.756786
0.759009
0.761038
0.762933
0.764612
0.766061
0.767263
0.768208
0.768901
0.769369
0.76966
0.769826
0.769915
0.76996
0.769981
0.769992
0.769996
0.769998
0.769999
0.77
0.77
0.77
0.77
0.77
0.77
0.77
0.77
0.77
0.77
2.11371e-06
9.23803e-06
2.12234e-05
4.13226e-05
7.48718e-05
0.000130529
0.000222161
0.000371635
0.000612844
0.000997052
0.00160004
0.0025303
0.003939
0.00602623
0.00904363
0.0132872
0.0190771
0.0267241
0.0364885
0.0485432
0.0629506
0.079661
0.0985269
0.119327
0.141793
0.165647
0.190614
0.216234
0.242339
0.26866
0.294955
0.321006
0.346627
0.371657
0.395969
0.419458
0.442042
0.463662
0.484276
0.503864
0.522418
0.539942
0.556452
0.571973
0.586536
0.600171
0.61292
0.624823
0.635922
0.646262
0.655883
0.66483
0.673142
0.680862
0.688027
0.694675
0.700841
0.706494
0.711656
0.716601
0.721198
0.725483
0.729493
0.733275
0.736861
0.740272
0.743519
0.746603
0.749527
0.75228
0.754857
0.757248
0.759432
0.761433
0.763288
0.76492
0.766317
0.767464
0.768355
0.769
0.76943
0.769694
0.769844
0.769924
0.769964
0.769983
0.769992
0.769997
0.769999
0.769999
0.77
0.77
0.77
0.77
0.77
0.77
0.77
0.77
0.77
0.77
2.11331e-06
9.23593e-06
2.12169e-05
4.13044e-05
7.48235e-05
0.000130406
0.000221854
0.000370892
0.00061107
0.00099328
0.00159262
0.0025168
0.00391492
0.00598464
0.00897448
0.0131769
0.0189085
0.0264776
0.0361441
0.0480827
0.0623602
0.0789328
0.0976594
0.118326
0.140668
0.164457
0.189242
0.214818
0.2409
0.26722
0.293535
0.319627
0.345307
0.370415
0.394818
0.41841
0.441106
0.462843
0.483579
0.503288
0.521962
0.539604
0.556229
0.571859
0.58652
0.600247
0.61308
0.62506
0.636227
0.646627
0.656301
0.665292
0.673643
0.681395
0.688585
0.695254
0.701437
0.707064
0.712231
0.717181
0.72178
0.726064
0.730074
0.733854
0.737438
0.740845
0.744083
0.747156
0.750062
0.752792
0.755341
0.757697
0.759842
0.761812
0.763622
0.765207
0.766551
0.767645
0.768485
0.769086
0.769483
0.769723
0.769859
0.769931
0.769967
0.769985
0.769993
0.769997
0.769999
0.769999
0.77
0.77
0.77
0.77
0.77
0.77
0.77
0.77
0.77
0.77
2.10739e-06
9.20916e-06
2.11515e-05
4.11657e-05
7.45459e-05
0.000129867
0.000220832
0.000369001
0.000607683
0.000987272
0.00158215
0.00249892
0.00388513
0.00593637
0.00889867
0.0130618
0.0187403
0.026241
0.0358242
0.0476664
0.0618382
0.0783003
0.0969163
0.117476
0.139741
0.163384
0.188124
0.213668
0.239734
0.266056
0.292391
0.31852
0.344254
0.369429
0.393912
0.417593
0.440386
0.462226
0.483066
0.502882
0.521662
0.539409
0.556133
0.571854
0.586602
0.600411
0.613318
0.625364
0.636591
0.647043
0.656761
0.66579
0.674172
0.681948
0.689158
0.695842
0.702038
0.707633
0.712814
0.717769
0.722365
0.726643
0.730648
0.734423
0.738002
0.7414
0.744626
0.747684
0.75057
0.753275
0.755793
0.758113
0.760219
0.762162
0.76393
0.765468
0.766763
0.767808
0.768602
0.769164
0.769529
0.76975
0.769873
0.769938
0.769971
0.769986
0.769994
0.769997
0.769999
0.769999
0.77
0.77
0.77
0.77
0.77
0.77
0.77
0.77
0.77
0.77
2.09877e-06
9.17086e-06
2.10607e-05
4.09811e-05
7.41939e-05
0.000129218
0.00021966
0.000366921
0.000604048
0.000981018
0.00157156
0.00248135
0.00385657
0.00589112
0.00882899
0.0129579
0.0185905
0.026033
0.0355459
0.047308
0.061393
0.077766
0.0962963
0.116782
0.138988
0.162553
0.187241
0.212754
0.238808
0.265135
0.291491
0.317656
0.343439
0.368675
0.393228
0.416988
0.439866
0.461794
0.482725
0.502634
0.521506
0.53934
0.556146
0.571947
0.586769
0.600646
0.613616
0.625717
0.636993
0.647486
0.65724
0.666298
0.674701
0.682492
0.68971
0.696394
0.702581
0.708132
0.713438
0.718362
0.722938
0.7272
0.731193
0.73496
0.738529
0.741916
0.74513
0.748171
0.751035
0.753714
0.756203
0.758486
0.760558
0.76248
0.764206
0.7657
0.766951
0.767951
0.768704
0.76923
0.769569
0.769772
0.769884
0.769944
0.769973
0.769988
0.769994
0.769997
0.769999
0.77
0.77
0.77
0.77
0.77
0.77
0.77
0.77
0.77
0.77
0.77
2.08895e-06
9.12748e-06
2.09588e-05
4.07766e-05
7.38092e-05
0.000128519
0.000218417
0.000364748
0.000600307
0.000974682
0.00156102
0.00246414
0.0038291
0.00584837
0.00876432
0.0128631
0.0184562
0.0258495
0.0353044
0.0470015
0.0610176
0.077321
0.0957842
0.116226
0.138336
0.161869
0.186531
0.21203
0.238081
0.264419
0.290798
0.316998
0.342827
0.368118
0.392734
0.416563
0.439514
0.461519
0.48253
0.502517
0.521464
0.53937
0.556247
0.572114
0.586998
0.600932
0.613952
0.626098
0.637413
0.647939
0.65772
0.666799
0.675219
0.68302
0.690244
0.69693
0.703115
0.708661
0.71397
0.718889
0.723454
0.727705
0.731689
0.735447
0.739007
0.742383
0.745583
0.748608
0.751451
0.754107
0.756567
0.758816
0.760857
0.762762
0.76445
0.765904
0.767115
0.768075
0.768791
0.769287
0.769604
0.769791
0.769894
0.769949
0.769976
0.769989
0.769995
0.769998
0.769999
0.77
0.77
0.77
0.77
0.77
0.77
0.77
0.77
0.77
0.77
0.77
2.07904e-06
9.08385e-06
2.08569e-05
4.05734e-05
7.34303e-05
0.000127836
0.000217216
0.000362669
0.000596769
0.000968754
0.00155126
0.0024484
0.00380426
0.00581013
0.00870707
0.01278
0.0183396
0.0256916
0.0350982
0.046742
0.0607017
0.0769478
0.0953591
0.115732
0.137812
0.161322
0.185969
0.211461
0.237517
0.263869
0.290273
0.316508
0.34238
0.367721
0.392393
0.416282
0.439298
0.46137
0.482447
0.502498
0.521508
0.539476
0.556412
0.572333
0.587267
0.601246
0.614307
0.626489
0.637834
0.648385
0.658187
0.667281
0.675712
0.68352
0.690748
0.697434
0.703606
0.709146
0.714449
0.71936
0.723915
0.728156
0.732131
0.735881
0.739432
0.742798
0.745985
0.748995
0.751819
0.754452
0.756887
0.759106
0.761124
0.763004
0.764659
0.76608
0.767255
0.768181
0.768866
0.769335
0.769632
0.769807
0.769903
0.769953
0.769978
0.76999
0.769995
0.769998
0.769999
0.77
0.77
0.77
0.77
0.77
0.77
0.77
0.77
0.77
0.77
0.77
2.06964e-06
9.04251e-06
2.07606e-05
4.03822e-05
7.30753e-05
0.0001272
0.000216102
0.000360754
0.000593529
0.000963366
0.00154246
0.00243431
0.00378221
0.00577646
0.00865709
0.0127081
0.0182396
0.0255574
0.0349249
0.0465262
0.0604426
0.0766472
0.0950295
0.115358
0.137407
0.160895
0.185531
0.211022
0.237086
0.263456
0.289885
0.316153
0.342064
0.367451
0.392172
0.416115
0.439187
0.461314
0.482446
0.502552
0.521615
0.539634
0.556617
0.572583
0.587557
0.601573
0.614665
0.626874
0.638242
0.648812
0.658628
0.667733
0.676171
0.683983
0.691211
0.697894
0.704049
0.70958
0.714876
0.719778
0.724323
0.728554
0.73252
0.736262
0.739805
0.743162
0.746337
0.749333
0.75214
0.754753
0.757166
0.759358
0.761357
0.763211
0.764839
0.76623
0.767376
0.768272
0.768929
0.769376
0.769656
0.76982
0.76991
0.769956
0.769979
0.76999
0.769996
0.769998
0.769999
0.77
0.77
0.77
0.77
0.77
0.77
0.77
0.77
0.77
0.77
0.77
2.0611e-06
9.00499e-06
2.06734e-05
4.02094e-05
7.27554e-05
0.000126629
0.000215106
0.000359049
0.00059066
0.00095862
0.00153476
0.00242204
0.00376312
0.00574751
0.00861439
0.012647
0.0181552
0.0254449
0.0347803
0.0463473
0.0602294
0.0764047
0.0947412
0.115049
0.13708
0.160558
0.185191
0.210686
0.236761
0.263149
0.289604
0.315903
0.341851
0.367278
0.392043
0.416033
0.439151
0.461325
0.482504
0.502655
0.521763
0.539823
0.556845
0.572846
0.587852
0.601896
0.615013
0.627243
0.638628
0.649211
0.659037
0.668148
0.676589
0.684402
0.691628
0.698307
0.704441
0.709963
0.715251
0.720144
0.72468
0.728902
0.73286
0.736596
0.740131
0.743478
0.746643
0.749625
0.752417
0.755013
0.757406
0.759575
0.761558
0.763389
0.764993
0.766359
0.767478
0.768348
0.768982
0.76941
0.769677
0.769831
0.769915
0.769959
0.769981
0.769991
0.769996
0.769998
0.769999
0.77
0.77
0.77
0.77
0.77
0.77
0.77
0.77
0.77
0.77
0.77
2.05358e-06
8.97194e-06
2.05967e-05
4.00577e-05
7.24752e-05
0.00012613
0.000214239
0.000357569
0.000588177
0.000954529
0.00152814
0.00241156
0.00374689
0.00572301
0.00857844
0.0125959
0.0180848
0.0253514
0.0346604
0.0461986
0.0600507
0.0761994
0.0945128
0.114804
0.136825
0.160297
0.18493
0.210433
0.236521
0.262928
0.289407
0.315735
0.341715
0.367178
0.391982
0.41601
0.439168
0.461381
0.4826
0.502789
0.521932
0.540026
0.557079
0.573108
0.58814
0.602205
0.61534
0.627586
0.638983
0.649575
0.659407
0.668522
0.676964
0.684775
0.691998
0.698672
0.704784
0.710298
0.715578
0.720462
0.724989
0.729204
0.733155
0.736884
0.740411
0.74375
0.746906
0.749877
0.752655
0.755236
0.757611
0.759761
0.76173
0.763542
0.765125
0.766469
0.767565
0.768413
0.769027
0.769438
0.769693
0.76984
0.76992
0.769961
0.769982
0.769992
0.769996
0.769998
0.769999
0.77
0.77
0.77
0.77
0.77
0.77
0.77
0.77
0.77
0.77
0.77
2.04711e-06
8.94357e-06
2.05308e-05
3.99277e-05
7.22354e-05
0.000125704
0.0002135
0.000356311
0.000586074
0.000951073
0.00152257
0.00240277
0.00373334
0.00570265
0.00854871
0.0125538
0.0180274
0.0252758
0.0345648
0.0460827
0.0599178
0.0760402
0.0943378
0.114616
0.136629
0.160099
0.184736
0.210246
0.236348
0.262773
0.289274
0.315628
0.341637
0.367131
0.391967
0.416028
0.439219
0.461466
0.482717
0.502937
0.52211
0.540231
0.557308
0.573359
0.58841
0.602492
0.615641
0.627897
0.639303
0.649902
0.659737
0.668853
0.677294
0.685103
0.692321
0.698989
0.705079
0.710585
0.715858
0.720734
0.725254
0.729462
0.733407
0.73713
0.740651
0.743983
0.74713
0.75009
0.752857
0.755425
0.757785
0.759919
0.761877
0.763672
0.765237
0.766561
0.767638
0.768468
0.769064
0.769462
0.769707
0.769848
0.769924
0.769963
0.769983
0.769992
0.769996
0.769998
0.769999
0.77
0.77
0.77
0.77
0.77
0.77
0.77
0.77
0.77
0.77
0.77
2.04169e-06
8.91976e-06
2.04756e-05
3.98188e-05
7.20348e-05
0.000125348
0.000212883
0.000355263
0.000584326
0.000948209
0.00151797
0.00239553
0.0037222
0.00568597
0.00852444
0.0125196
0.0179807
0.0252145
0.0344868
0.0459866
0.0598027
0.0759129
0.0942002
0.114471
0.13648
0.159951
0.184592
0.210111
0.236226
0.262668
0.289189
0.315565
0.341599
0.367119
0.391983
0.416072
0.439291
0.461565
0.482842
0.503087
0.522283
0.540426
0.557522
0.573591
0.588656
0.602751
0.61591
0.628174
0.639586
0.650188
0.660025
0.669141
0.67758
0.685385
0.692599
0.699261
0.705331
0.710829
0.716095
0.720964
0.725478
0.729679
0.73362
0.737337
0.740853
0.744178
0.747318
0.75027
0.753026
0.755583
0.75793
0.760051
0.762
0.763781
0.765331
0.766639
0.767699
0.768513
0.769095
0.769482
0.769719
0.769854
0.769928
0.769965
0.769983
0.769992
0.769997
0.769998
0.769999
0.77
0.77
0.77
0.77
0.77
0.77
0.77
0.77
0.77
0.77
0.77
2.03724e-06
8.90024e-06
2.04304e-05
3.97296e-05
7.18706e-05
0.000125057
0.00021238
0.00035441
0.000582904
0.000945884
0.00151424
0.00238968
0.00371324
0.00567259
0.00850505
0.0124924
0.0179439
0.0251666
0.0344273
0.0459162
0.0597185
0.0758174
0.0940962
0.114362
0.136369
0.159841
0.184487
0.210016
0.236142
0.262599
0.289138
0.315533
0.341588
0.367131
0.392017
0.416129
0.439371
0.461667
0.482965
0.50323
0.522445
0.540604
0.557715
0.573797
0.588873
0.602977
0.616144
0.628413
0.639828
0.650432
0.66027
0.669385
0.677822
0.685624
0.692833
0.69949
0.70554
0.711033
0.716293
0.721156
0.725663
0.72986
0.733796
0.737509
0.74102
0.74434
0.747474
0.750418
0.753166
0.755714
0.758049
0.76016
0.762103
0.763871
0.765408
0.766703
0.76775
0.76855
0.769121
0.769498
0.769728
0.769859
0.76993
0.769966
0.769984
0.769993
0.769997
0.769998
0.769999
0.77
0.77
0.77
0.77
0.77
0.77
0.77
0.77
0.77
0.77
0.77
2.03369e-06
8.88468e-06
2.03944e-05
3.96585e-05
7.17399e-05
0.000124825
0.00021198
0.000353732
0.000581778
0.000944045
0.00151129
0.00238506
0.00370618
0.00566207
0.00848984
0.0124711
0.0179151
0.0251288
0.0343795
0.0458578
0.0596522
0.0757442
0.0940178
0.114281
0.136288
0.159762
0.184414
0.20995
0.236087
0.262557
0.28911
0.315522
0.341594
0.367154
0.392059
0.416189
0.439449
0.461763
0.483078
0.503358
0.522587
0.540759
0.557882
0.573973
0.589058
0.603169
0.61634
0.628614
0.640031
0.650636
0.660473
0.669587
0.678021
0.685819
0.693024
0.699677
0.705711
0.711198
0.716453
0.721311
0.725813
0.730006
0.733939
0.737648
0.741155
0.744471
0.747599
0.750538
0.753279
0.755819
0.758146
0.760248
0.762186
0.763944
0.765471
0.766755
0.76779
0.768579
0.769141
0.76951
0.769735
0.769863
0.769932
0.769967
0.769985
0.769993
0.769997
0.769999
0.769999
0.77
0.77
0.77
0.77
0.77
0.77
0.77
0.77
0.77
0.77
0.77
2.03097e-06
8.87272e-06
2.03667e-05
3.96039e-05
7.16395e-05
0.000124648
0.000211673
0.000353213
0.000580915
0.000942639
0.00150905
0.00238155
0.00370082
0.00565411
0.00847836
0.0124551
0.0178935
0.0251009
0.0343447
0.0458159
0.059604
0.0756909
0.0939609
0.114222
0.136229
0.159707
0.184363
0.209906
0.236052
0.262532
0.289097
0.315522
0.341608
0.367182
0.392101
0.416246
0.43952
0.461847
0.483174
0.503467
0.522706
0.540888
0.558019
0.574117
0.589208
0.603323
0.616499
0.628774
0.640193
0.650798
0.660634
0.669746
0.678179
0.685974
0.693175
0.699824
0.705845
0.711328
0.716578
0.721432
0.725931
0.73012
0.73405
0.737756
0.741261
0.744573
0.747697
0.750631
0.753367
0.755901
0.758221
0.760316
0.76225
0.764001
0.765519
0.766795
0.767821
0.768602
0.769156
0.76952
0.769741
0.769867
0.769934
0.769968
0.769985
0.769993
0.769997
0.769999
0.769999
0.77
0.77
0.77
0.77
0.77
0.77
0.77
0.77
0.77
0.77
0.77
2.02899e-06
8.86405e-06
2.03466e-05
3.95643e-05
7.15668e-05
0.000124519
0.000211451
0.000352838
0.000580292
0.000941623
0.00150743
0.00237902
0.00369696
0.00564839
0.00847012
0.0124436
0.0178781
0.0250811
0.0343202
0.0457866
0.0595704
0.0756537
0.0939215
0.114182
0.13619
0.159669
0.18433
0.209878
0.236031
0.262519
0.289092
0.315527
0.341623
0.367208
0.392137
0.416293
0.439577
0.461913
0.48325
0.503551
0.522798
0.540986
0.558123
0.574227
0.589322
0.60344
0.616618
0.628895
0.640314
0.650919
0.660755
0.669866
0.678296
0.686089
0.693287
0.699933
0.705944
0.711423
0.716671
0.721522
0.726017
0.730204
0.734131
0.737836
0.741338
0.744647
0.747769
0.750699
0.753431
0.755961
0.758276
0.760366
0.762298
0.764043
0.765555
0.766824
0.767844
0.768619
0.769168
0.769527
0.769745
0.769869
0.769935
0.769969
0.769985
0.769993
0.769997
0.769999
0.769999
0.77
0.77
0.77
0.77
0.77
0.77
0.77
0.77
0.77
0.77
0.77
2.02771e-06
8.85843e-06
2.03335e-05
3.95386e-05
7.15196e-05
0.000124436
0.000211307
0.000352594
0.000579888
0.000940966
0.00150638
0.00237738
0.00369447
0.0056447
0.00846481
0.0124362
0.0178682
0.0250683
0.0343044
0.0457678
0.0595489
0.0756302
0.0938967
0.114157
0.136165
0.159647
0.18431
0.209862
0.236019
0.262512
0.289092
0.315533
0.341635
0.367227
0.392164
0.416326
0.439616
0.46196
0.483302
0.503608
0.52286
0.541053
0.558194
0.574301
0.589398
0.603518
0.616697
0.628975
0.640395
0.651
0.660835
0.669944
0.678373
0.686165
0.693361
0.700005
0.706009
0.711486
0.716732
0.72158
0.726074
0.730259
0.734185
0.737888
0.741389
0.744696
0.747816
0.750744
0.753474
0.756
0.758311
0.760399
0.762329
0.76407
0.765578
0.766843
0.767859
0.76863
0.769175
0.769532
0.769748
0.76987
0.769936
0.769969
0.769985
0.769993
0.769997
0.769999
0.769999
0.77
0.77
0.77
0.77
0.77
0.77
0.77
0.77
0.77
0.77
0.77
2.02708e-06
8.85569e-06
2.03272e-05
3.95262e-05
7.14967e-05
0.000124395
0.000211237
0.000352477
0.000579694
0.000940652
0.00150588
0.0023766
0.00369329
0.00564295
0.0084623
0.0124327
0.0178635
0.0250622
0.0342968
0.0457589
0.0595388
0.0756192
0.0938851
0.114145
0.136154
0.159636
0.1843
0.209854
0.236014
0.26251
0.289092
0.315536
0.341642
0.367237
0.392177
0.416343
0.439636
0.461983
0.483328
0.503637
0.522891
0.541086
0.558229
0.574337
0.589436
0.603557
0.616737
0.629015
0.640435
0.65104
0.660874
0.669983
0.678412
0.686202
0.693398
0.70004
0.706041
0.711517
0.716762
0.721609
0.726102
0.730286
0.734211
0.737914
0.741413
0.74472
0.747839
0.750766
0.753494
0.756019
0.758329
0.760415
0.762344
0.764083
0.765589
0.766852
0.767866
0.768635
0.769179
0.769534
0.769749
0.769871
0.769936
0.769969
0.769986
0.769993
0.769997
0.769999
0.769999
0.77
0.77
0.77
0.77
0.77
0.77
0.77
0.77
0.77
0.77
0.77
2.02707e-06
8.85565e-06
2.03271e-05
3.9526e-05
7.14964e-05
0.000124395
0.000211236
0.000352476
0.000579692
0.000940647
0.00150587
0.00237659
0.00369327
0.00564293
0.00846227
0.0124327
0.0178635
0.0250621
0.0342967
0.0457588
0.0595387
0.0756191
0.093885
0.114145
0.136154
0.159636
0.1843
0.209854
0.236014
0.26251
0.289092
0.315536
0.341642
0.367237
0.392177
0.416343
0.439636
0.461983
0.483328
0.503637
0.522891
0.541086
0.558229
0.574337
0.589436
0.603557
0.616737
0.629015
0.640435
0.65104
0.660874
0.669984
0.678412
0.686202
0.693398
0.70004
0.706041
0.711517
0.716762
0.721609
0.726102
0.730286
0.734211
0.737914
0.741413
0.74472
0.747839
0.750766
0.753494
0.756019
0.758329
0.760415
0.762344
0.764083
0.765589
0.766852
0.767866
0.768635
0.769179
0.769534
0.769749
0.769871
0.769936
0.769969
0.769986
0.769993
0.769997
0.769999
0.769999
0.77
0.77
0.77
0.77
0.77
0.77
0.77
0.77
0.77
0.77
0.77
2.02768e-06
8.85832e-06
2.03333e-05
3.95381e-05
7.15186e-05
0.000124434
0.000211303
0.000352589
0.000579879
0.000940951
0.00150635
0.00237735
0.00369442
0.00564462
0.00846471
0.0124361
0.017868
0.025068
0.034304
0.0457674
0.0595485
0.0756298
0.0938963
0.114156
0.136165
0.159646
0.184309
0.209861
0.236019
0.262512
0.289092
0.315533
0.341635
0.367227
0.392164
0.416326
0.439616
0.46196
0.483302
0.503608
0.52286
0.541053
0.558194
0.574301
0.589398
0.603518
0.616697
0.628975
0.640395
0.651
0.660835
0.669945
0.678373
0.686165
0.693362
0.700005
0.706009
0.711486
0.716732
0.72158
0.726074
0.730259
0.734185
0.737888
0.741389
0.744696
0.747816
0.750744
0.753474
0.756
0.758311
0.760399
0.762329
0.76407
0.765578
0.766843
0.767859
0.76863
0.769175
0.769532
0.769748
0.76987
0.769936
0.769969
0.769985
0.769993
0.769997
0.769999
0.769999
0.77
0.77
0.77
0.77
0.77
0.77
0.77
0.77
0.77
0.77
0.77
2.02895e-06
8.86387e-06
2.03461e-05
3.95634e-05
7.15651e-05
0.000124516
0.000211445
0.000352828
0.000580276
0.000941598
0.00150739
0.00237896
0.00369687
0.00564826
0.00846994
0.0124434
0.0178778
0.0250807
0.0343199
0.0457861
0.0595698
0.0756531
0.0939208
0.114181
0.136189
0.159669
0.184329
0.209878
0.23603
0.262518
0.289092
0.315527
0.341623
0.367208
0.392137
0.416293
0.439577
0.461914
0.48325
0.503551
0.522798
0.540986
0.558124
0.574227
0.589322
0.60344
0.616618
0.628895
0.640314
0.650919
0.660755
0.669866
0.678296
0.686089
0.693288
0.699933
0.705944
0.711423
0.716671
0.721522
0.726017
0.730204
0.734131
0.737836
0.741338
0.744647
0.747769
0.750699
0.753431
0.755961
0.758276
0.760366
0.762298
0.764043
0.765555
0.766824
0.767844
0.768619
0.769168
0.769527
0.769745
0.769869
0.769935
0.769969
0.769985
0.769993
0.769997
0.769999
0.769999
0.77
0.77
0.77
0.77
0.77
0.77
0.77
0.77
0.77
0.77
0.77
2.03091e-06
8.87245e-06
2.0366e-05
3.96026e-05
7.16371e-05
0.000124643
0.000211665
0.0003532
0.000580894
0.000942604
0.00150899
0.00238147
0.0037007
0.00565393
0.0084781
0.0124547
0.0178931
0.0251003
0.034344
0.0458151
0.0596032
0.07569
0.0939599
0.114221
0.136228
0.159706
0.184362
0.209905
0.236051
0.262531
0.289096
0.315521
0.341607
0.367182
0.392101
0.416246
0.43952
0.461847
0.483174
0.503467
0.522706
0.540888
0.558019
0.574118
0.589209
0.603324
0.616499
0.628775
0.640193
0.650798
0.660635
0.669747
0.678179
0.685974
0.693176
0.699824
0.705845
0.711328
0.716579
0.721432
0.725931
0.73012
0.73405
0.737757
0.741261
0.744573
0.747697
0.750631
0.753367
0.755901
0.758221
0.760316
0.76225
0.764001
0.765519
0.766795
0.767821
0.768602
0.769156
0.76952
0.769741
0.769867
0.769934
0.769968
0.769985
0.769993
0.769997
0.769999
0.769999
0.77
0.77
0.77
0.77
0.77
0.77
0.77
0.77
0.77
0.77
0.77
2.03361e-06
8.88432e-06
2.03935e-05
3.96568e-05
7.17367e-05
0.00012482
0.000211969
0.000353715
0.000581749
0.000943999
0.00151122
0.00238495
0.00370602
0.00566184
0.0084895
0.0124707
0.0179145
0.0251281
0.0343786
0.0458568
0.0596511
0.075743
0.0940165
0.114279
0.136286
0.159761
0.184412
0.209949
0.236086
0.262556
0.289109
0.315521
0.341593
0.367154
0.392059
0.416189
0.439449
0.461763
0.483078
0.503359
0.522587
0.540759
0.557882
0.573974
0.589059
0.603169
0.616341
0.628614
0.640031
0.650636
0.660473
0.669587
0.678021
0.68582
0.693025
0.699677
0.705712
0.711198
0.716453
0.721311
0.725814
0.730006
0.733939
0.737648
0.741155
0.744471
0.747599
0.750538
0.753279
0.755819
0.758146
0.760248
0.762186
0.763944
0.765471
0.766755
0.76779
0.768579
0.769141
0.76951
0.769735
0.769863
0.769932
0.769967
0.769985
0.769993
0.769997
0.769999
0.769999
0.77
0.77
0.77
0.77
0.77
0.77
0.77
0.77
0.77
0.77
0.77
2.03714e-06
8.89979e-06
2.04293e-05
3.97274e-05
7.18665e-05
0.00012505
0.000212367
0.000354388
0.000582869
0.000945826
0.00151415
0.00238953
0.00371303
0.00567228
0.00850462
0.0124919
0.0179432
0.0251657
0.0344262
0.045915
0.059717
0.0758158
0.0940945
0.11436
0.136367
0.15984
0.184486
0.210014
0.236141
0.262598
0.289137
0.315533
0.341588
0.36713
0.392016
0.416129
0.439371
0.461667
0.482965
0.50323
0.522445
0.540604
0.557716
0.573797
0.588874
0.602977
0.616144
0.628414
0.639829
0.650433
0.66027
0.669385
0.677822
0.685624
0.692833
0.69949
0.705541
0.711033
0.716293
0.721156
0.725663
0.72986
0.733796
0.737509
0.74102
0.74434
0.747474
0.750418
0.753166
0.755714
0.75805
0.76016
0.762103
0.763871
0.765408
0.766703
0.76775
0.76855
0.769121
0.769498
0.769728
0.769859
0.76993
0.769966
0.769984
0.769993
0.769997
0.769998
0.769999
0.77
0.77
0.77
0.77
0.77
0.77
0.77
0.77
0.77
0.77
0.77
2.04156e-06
8.9192e-06
2.04743e-05
3.98161e-05
7.20298e-05
0.000125339
0.000212867
0.000355237
0.000584282
0.000948138
0.00151785
0.00239535
0.00372195
0.0056856
0.00852393
0.0125189
0.0179798
0.0252133
0.0344855
0.045985
0.0598009
0.075911
0.0941982
0.114469
0.136478
0.159949
0.18459
0.210109
0.236224
0.262666
0.289188
0.315564
0.341598
0.367119
0.391982
0.416072
0.439291
0.461565
0.482842
0.503088
0.522284
0.540426
0.557523
0.573591
0.588657
0.602751
0.61591
0.628175
0.639586
0.650188
0.660025
0.669141
0.67758
0.685386
0.692599
0.699262
0.705331
0.71083
0.716096
0.720965
0.725478
0.72968
0.73362
0.737338
0.740853
0.744179
0.747318
0.75027
0.753027
0.755583
0.75793
0.760051
0.762
0.763781
0.765331
0.766639
0.767699
0.768513
0.769095
0.769482
0.769719
0.769854
0.769928
0.769965
0.769983
0.769992
0.769997
0.769998
0.769999
0.77
0.77
0.77
0.77
0.77
0.77
0.77
0.77
0.77
0.77
0.77
2.04696e-06
8.94289e-06
2.05292e-05
3.99245e-05
7.22294e-05
0.000125693
0.000213481
0.000356279
0.000586021
0.000950988
0.00152244
0.00240257
0.00373303
0.00570221
0.0085481
0.012553
0.0180263
0.0252745
0.0345632
0.0460808
0.0599158
0.0760377
0.0943353
0.114614
0.136627
0.160097
0.184733
0.210244
0.236346
0.262772
0.289273
0.315627
0.341636
0.36713
0.391966
0.416028
0.439219
0.461466
0.482717
0.502937
0.52211
0.540231
0.557309
0.57336
0.588411
0.602493
0.615642
0.627898
0.639304
0.649902
0.659738
0.668854
0.677295
0.685104
0.692322
0.69899
0.70508
0.710586
0.715858
0.720735
0.725254
0.729462
0.733407
0.73713
0.740651
0.743983
0.74713
0.75009
0.752857
0.755425
0.757785
0.759919
0.761877
0.763672
0.765237
0.766561
0.767638
0.768468
0.769064
0.769462
0.769707
0.769848
0.769924
0.769963
0.769983
0.769992
0.769996
0.769998
0.769999
0.77
0.77
0.77
0.77
0.77
0.77
0.77
0.77
0.77
0.77
0.77
2.0534e-06
8.97113e-06
2.05948e-05
4.00539e-05
7.24681e-05
0.000126117
0.000214217
0.000357532
0.000588116
0.000954429
0.00152798
0.00241132
0.00374654
0.0057225
0.00857772
0.0125949
0.0180835
0.0253498
0.0346584
0.0461962
0.0600475
0.0761932
0.0945091
0.114801
0.136822
0.160294
0.184928
0.21043
0.236519
0.262926
0.289406
0.315734
0.341714
0.367177
0.391982
0.41601
0.439167
0.461381
0.4826
0.502789
0.521933
0.540027
0.55708
0.573109
0.588141
0.602206
0.615341
0.627587
0.638984
0.649576
0.659408
0.668523
0.676965
0.684776
0.691999
0.698673
0.704785
0.710298
0.715578
0.720462
0.72499
0.729204
0.733155
0.736884
0.740412
0.743751
0.746906
0.749877
0.752655
0.755236
0.757611
0.759762
0.76173
0.763542
0.765125
0.766469
0.767565
0.768413
0.769027
0.769438
0.769693
0.76984
0.76992
0.769961
0.769982
0.769992
0.769996
0.769998
0.769999
0.77
0.77
0.77
0.77
0.77
0.77
0.77
0.77
0.77
0.77
0.77
2.06089e-06
9.00404e-06
2.06712e-05
4.0205e-05
7.27471e-05
0.000126614
0.000215081
0.000359006
0.000590589
0.000958505
0.00153457
0.00242176
0.00376271
0.00574692
0.00861356
0.0126459
0.0181537
0.025443
0.0347781
0.0463448
0.0602271
0.0764053
0.0947387
0.115046
0.137077
0.160555
0.185188
0.210683
0.236759
0.263147
0.289603
0.315902
0.34185
0.367277
0.392043
0.416033
0.439151
0.461325
0.482504
0.502656
0.521763
0.539824
0.556846
0.572847
0.587853
0.601897
0.615014
0.627244
0.638629
0.649212
0.659038
0.668149
0.67659
0.684403
0.691629
0.698308
0.704442
0.709964
0.715252
0.720145
0.724681
0.728903
0.732861
0.736596
0.740131
0.743478
0.746643
0.749626
0.752417
0.755014
0.757406
0.759576
0.761558
0.763389
0.764993
0.766359
0.767478
0.768348
0.768982
0.76941
0.769677
0.769831
0.769915
0.769959
0.769981
0.769991
0.769996
0.769998
0.769999
0.77
0.77
0.77
0.77
0.77
0.77
0.77
0.77
0.77
0.77
0.77
2.0694e-06
9.04141e-06
2.0758e-05
4.03771e-05
7.30657e-05
0.000127183
0.000216072
0.000360704
0.000593447
0.000963234
0.00154225
0.00243399
0.00378173
0.00577578
0.00865614
0.0127068
0.0182379
0.0255553
0.0349224
0.0465232
0.0604393
0.0766438
0.0950261
0.115354
0.137403
0.160891
0.185528
0.211019
0.237083
0.263453
0.289883
0.316152
0.342063
0.36745
0.392172
0.416115
0.439187
0.461315
0.482446
0.502552
0.521616
0.539635
0.556618
0.572584
0.587559
0.601574
0.614666
0.626875
0.638244
0.648814
0.658629
0.667734
0.676172
0.683984
0.691212
0.697895
0.70405
0.709581
0.714877
0.719778
0.724324
0.728555
0.732521
0.736263
0.739806
0.743162
0.746337
0.749333
0.75214
0.754754
0.757166
0.759358
0.761357
0.763211
0.764839
0.76623
0.767376
0.768272
0.768929
0.769376
0.769656
0.76982
0.76991
0.769956
0.769979
0.76999
0.769996
0.769998
0.769999
0.77
0.77
0.77
0.77
0.77
0.77
0.77
0.77
0.77
0.77
0.77
2.07875e-06
9.08257e-06
2.08539e-05
4.05675e-05
7.34193e-05
0.000127817
0.000217182
0.000362612
0.000596675
0.000968604
0.00155103
0.00244804
0.00380373
0.00580936
0.00870599
0.0127785
0.0183377
0.0256892
0.0350954
0.0467386
0.060698
0.0769438
0.0953551
0.115727
0.137808
0.161318
0.185965
0.211458
0.237514
0.263867
0.290271
0.316507
0.342379
0.36772
0.392393
0.416282
0.439298
0.46137
0.482448
0.502499
0.521509
0.539477
0.556413
0.572334
0.587269
0.601248
0.614308
0.62649
0.637835
0.648387
0.658188
0.667283
0.675713
0.683522
0.690749
0.697435
0.703608
0.709147
0.71445
0.719361
0.723916
0.728157
0.732131
0.735881
0.739433
0.742799
0.745985
0.748995
0.751819
0.754453
0.756887
0.759106
0.761124
0.763004
0.764659
0.76608
0.767255
0.768181
0.768866
0.769335
0.769632
0.769807
0.769903
0.769953
0.769978
0.76999
0.769995
0.769998
0.769999
0.77
0.77
0.77
0.77
0.77
0.77
0.77
0.77
0.77
0.77
0.77
2.08862e-06
9.12602e-06
2.09554e-05
4.07698e-05
7.37966e-05
0.000128496
0.000218379
0.000364683
0.000600201
0.000974512
0.00156075
0.00246373
0.0038285
0.00584751
0.00876312
0.0128615
0.0184541
0.0258468
0.0353012
0.0469978
0.0610135
0.0773165
0.0957794
0.116222
0.13833
0.161864
0.186527
0.212026
0.238078
0.264416
0.290796
0.316997
0.342826
0.368117
0.392734
0.416563
0.439515
0.46152
0.482531
0.502519
0.521465
0.539371
0.556248
0.572116
0.587
0.600933
0.613953
0.6261
0.637415
0.647941
0.657722
0.666801
0.67522
0.683022
0.690246
0.696932
0.703116
0.708662
0.713971
0.71889
0.723455
0.727706
0.73169
0.735448
0.739008
0.742384
0.745584
0.748609
0.751452
0.754107