/*--------------------------------*- C++ -*----------------------------------*\
  =========                 |
  \\      /  F ield         | OpenFOAM: The Open Source CFD Toolbox
   \\    /   O peration     | Website:  https://openfoam.org
    \\  /    A nd           | Version:  8
     \\/     M anipulation  |
\*---------------------------------------------------------------------------*/
FoamFile
{
    version     2.0;
    format      ascii;
    class       volScalarField;
    location    "0.2/fluid";
    object      O2;
}
// * * * * * * * * * * * * * * * * * * * * * * * * * * * * * * * * * * * * * //

dimensions      [0 0 0 0 0 0 0];

internalField   nonuniform List<scalar> 
4000
(
3.71904e-11
1.62621e-10
3.73996e-10
7.29337e-10
1.32435e-09
2.31534e-09
3.95458e-09
6.64341e-09
1.10097e-08
1.80159e-08
2.91019e-08
4.63587e-08
7.27138e-08
1.12052e-07
1.69322e-07
2.50352e-07
3.61335e-07
5.08101e-07
6.95266e-07
9.25445e-07
1.19886e-06
1.51338e-06
1.86496e-06
2.2482e-06
2.6569e-06
3.08453e-06
3.52455e-06
3.9707e-06
4.41739e-06
4.85897e-06
5.29073e-06
5.70869e-06
6.10979e-06
6.49226e-06
6.85619e-06
7.20449e-06
7.54407e-06
7.88754e-06
8.25522e-06
8.67749e-06
9.19794e-06
9.87804e-06
1.08048e-05
1.2104e-05
1.39641e-05
1.66778e-05
2.07157e-05
2.68458e-05
3.63837e-05
5.15278e-05
7.59582e-05
0.000115742
0.000180723
0.000286669
0.000458622
0.000736136
0.00118147
0.00189088
0.00299142
0.00477771
0.00760206
0.0120807
0.0192282
0.0307267
0.0450218
0.0606884
0.0768596
0.0929978
0.108766
0.123935
0.138346
0.151896
0.164485
0.176028
0.186785
0.196537
0.205026
0.212248
0.2181
0.22254
0.225646
0.227628
0.228785
0.229408
0.22972
0.229871
0.229942
0.229974
0.229989
0.229995
0.229998
0.229999
0.23
0.23
0.23
0.23
0.23
0.23
0.23
0.23
3.73436e-11
1.63335e-10
3.75824e-10
7.33406e-10
1.33278e-09
2.33183e-09
3.98515e-09
6.69692e-09
1.10973e-08
1.81477e-08
2.92805e-08
4.65652e-08
7.28835e-08
1.12105e-07
1.6906e-07
2.49409e-07
3.59251e-07
5.04414e-07
6.89573e-07
9.17517e-07
1.18872e-06
1.50137e-06
1.85168e-06
2.23448e-06
2.64374e-06
3.07299e-06
3.51574e-06
3.96588e-06
4.41696e-06
4.86385e-06
5.30173e-06
5.72648e-06
6.13492e-06
6.52514e-06
6.89716e-06
7.25379e-06
7.60194e-06
7.95427e-06
8.33136e-06
8.76412e-06
9.29705e-06
9.99314e-06
1.09418e-05
1.22726e-05
1.41803e-05
1.69677e-05
2.11101e-05
2.74394e-05
3.73026e-05
5.29927e-05
7.83449e-05
0.000119677
0.000187231
0.000297404
0.000476224
0.0007648
0.00122782
0.0019642
0.0031052
0.00495763
0.0078846
0.0125225
0.0199189
0.0317955
0.0463277
0.0621482
0.0784217
0.0946283
0.11044
0.125627
0.140033
0.153548
0.166051
0.177479
0.188124
0.197761
0.20622
0.213305
0.21895
0.223155
0.226041
0.227853
0.228899
0.22946
0.229743
0.22988
0.229945
0.229975
0.229989
0.229995
0.229998
0.229999
0.23
0.23
0.23
0.23
0.23
0.23
0.23
0.23
3.76304e-11
1.64612e-10
3.78855e-10
7.39501e-10
1.34407e-09
2.35157e-09
4.01789e-09
6.74857e-09
1.1175e-08
1.82602e-08
2.9434e-08
4.67595e-08
7.31041e-08
1.12277e-07
1.69059e-07
2.49032e-07
3.58216e-07
5.02364e-07
6.86161e-07
9.12489e-07
1.18201e-06
1.49314e-06
1.84239e-06
2.22484e-06
2.63467e-06
3.0656e-06
3.51138e-06
3.96547e-06
4.42205e-06
4.87569e-06
5.3215e-06
5.75527e-06
6.17372e-06
6.57485e-06
6.95855e-06
7.32756e-06
7.68878e-06
8.05501e-06
8.44723e-06
8.89719e-06
9.45093e-06
1.01739e-05
1.11597e-05
1.25447e-05
1.4534e-05
1.74389e-05
2.17887e-05
2.84466e-05
3.88648e-05
5.54969e-05
8.24477e-05
0.000126473
0.000198509
0.000316049
0.000506831
0.000814618
0.00130818
0.00209002
0.00330741
0.00528245
0.00840103
0.0133415
0.0212224
0.0336244
0.0484824
0.0645048
0.0808987
0.0971687
0.113001
0.128166
0.142516
0.155939
0.168305
0.179621
0.190206
0.199604
0.207725
0.214475
0.219797
0.223715
0.226376
0.228034
0.228989
0.229502
0.229762
0.229889
0.229949
0.229977
0.22999
0.229995
0.229998
0.229999
0.23
0.23
0.23
0.23
0.23
0.23
0.23
0.23
3.77878e-11
1.65291e-10
3.80382e-10
7.42395e-10
1.34911e-09
2.35984e-09
4.03072e-09
6.7671e-09
1.11989e-08
1.82845e-08
2.94438e-08
4.67182e-08
7.29407e-08
1.11874e-07
1.68249e-07
2.47619e-07
3.55967e-07
4.99048e-07
6.81601e-07
9.06625e-07
1.17495e-06
1.4852e-06
1.83409e-06
2.21692e-06
2.62803e-06
3.06136e-06
3.51051e-06
3.96928e-06
4.43185e-06
4.89277e-06
5.34712e-06
5.79065e-06
6.22003e-06
6.63319e-06
7.02996e-06
7.41303e-06
7.78932e-06
8.17185e-06
8.58211e-06
9.0529e-06
9.6321e-06
1.03883e-05
1.14199e-05
1.28699e-05
1.49498e-05
1.80111e-05
2.2627e-05
2.97145e-05
4.08518e-05
5.87065e-05
8.77385e-05
0.00013528
0.000213195
0.000340443
0.000547096
0.000880604
0.00141558
0.00225916
0.00357549
0.00571409
0.00909331
0.0144544
0.0230276
0.035929
0.0510974
0.0673042
0.0837942
0.100095
0.115908
0.131001
0.145238
0.158508
0.170669
0.18183
0.192192
0.201329
0.209158
0.215602
0.220625
0.224275
0.226721
0.228229
0.22909
0.229552
0.229785
0.229899
0.229954
0.229979
0.229991
0.229996
0.229998
0.229999
0.23
0.23
0.23
0.23
0.23
0.23
0.23
0.23
3.78617e-11
1.65606e-10
3.81074e-10
7.43643e-10
1.35112e-09
2.36274e-09
4.03426e-09
6.76994e-09
1.1197e-08
1.82677e-08
2.93928e-08
4.65999e-08
7.2701e-08
1.11429e-07
1.67478e-07
2.46366e-07
3.54054e-07
4.96304e-07
6.77907e-07
9.01966e-07
1.16946e-06
1.4792e-06
1.82809e-06
2.2116e-06
2.62425e-06
3.06011e-06
3.51282e-06
3.9764e-06
4.44501e-06
4.9132e-06
5.37607e-06
5.82937e-06
6.26972e-06
6.69501e-06
7.10503e-06
7.50246e-06
7.8943e-06
8.29383e-06
8.72311e-06
9.21609e-06
9.82264e-06
1.06147e-05
1.1694e-05
1.32112e-05
1.5405e-05
1.86555e-05
2.3555e-05
3.11165e-05
4.30566e-05
6.22815e-05
9.36483e-05
0.000145135
0.000229638
0.000367758
0.000592167
0.000954415
0.00153555
0.00244585
0.00387344
0.00619423
0.00986299
0.0156913
0.0250343
0.0384088
0.0538618
0.0702264
0.0867845
0.103087
0.118842
0.133832
0.147926
0.161011
0.172952
0.183943
0.194064
0.202933
0.210474
0.216624
0.221363
0.224764
0.227018
0.228395
0.229176
0.229594
0.229805
0.229908
0.229958
0.229981
0.229991
0.229996
0.229998
0.229999
0.23
0.23
0.23
0.23
0.23
0.23
0.23
0.23
3.78462e-11
1.65525e-10
3.80827e-10
7.42983e-10
1.34949e-09
2.35895e-09
4.02592e-09
6.75243e-09
1.11619e-08
1.82008e-08
2.92701e-08
4.63831e-08
7.23324e-08
1.10826e-07
1.66534e-07
2.44953e-07
3.5204e-07
4.93582e-07
6.74434e-07
8.978e-07
1.1648e-06
1.47438e-06
1.82363e-06
2.20815e-06
2.62267e-06
3.06111e-06
3.51753e-06
3.98589e-06
4.46039e-06
4.93563e-06
5.40671e-06
5.86939e-06
6.32027e-06
6.75721e-06
7.17999e-06
7.59132e-06
7.99829e-06
8.41446e-06
8.86254e-06
9.3776e-06
1.0011e-05
1.08356e-05
1.19602e-05
1.35569e-05
1.5876e-05
1.93052e-05
2.44961e-05
3.25436e-05
4.5307e-05
6.59355e-05
9.96885e-05
0.000155194
0.000246383
0.000395506
0.000637858
0.00102917
0.00165722
0.00263361
0.00417554
0.00667871
0.0106354
0.0169268
0.0270295
0.040856
0.0565694
0.0730674
0.0896705
0.105953
0.121631
0.136501
0.150438
0.163326
0.175056
0.185903
0.195783
0.204393
0.211664
0.217541
0.222022
0.225202
0.227285
0.228545
0.229255
0.229633
0.229824
0.229917
0.229962
0.229983
0.229992
0.229997
0.229998
0.229999
0.23
0.23
0.23
0.23
0.23
0.23
0.23
0.23
3.77719e-11
1.65188e-10
3.79995e-10
7.41208e-10
1.34592e-09
2.35204e-09
4.01285e-09
6.72829e-09
1.11183e-08
1.81238e-08
2.91374e-08
4.61604e-08
7.1969e-08
1.10253e-07
1.6566e-07
2.43678e-07
3.50264e-07
4.91235e-07
6.71507e-07
8.94383e-07
1.1611e-06
1.47076e-06
1.82057e-06
2.20627e-06
2.62263e-06
3.06384e-06
3.52392e-06
3.99691e-06
4.47705e-06
4.95897e-06
5.43779e-06
5.90926e-06
6.36999e-06
6.81782e-06
7.25252e-06
7.67684e-06
8.09803e-06
8.52997e-06
8.99607e-06
9.53184e-06
1.01893e-05
1.10487e-05
1.22319e-05
1.39045e-05
1.63312e-05
1.99341e-05
2.54095e-05
3.39315e-05
4.74969e-05
6.94867e-05
0.000105538
0.000164876
0.000262365
0.000421699
0.000680375
0.00109746
0.00176569
0.00279818
0.00448237
0.00714875
0.0113738
0.0181016
0.0289195
0.0431621
0.0591071
0.0757157
0.092346
0.108596
0.124188
0.138934
0.152714
0.165405
0.176948
0.18768
0.19733
0.205698
0.212719
0.218348
0.222597
0.22558
0.227513
0.228672
0.229322
0.229666
0.22984
0.229925
0.229965
0.229984
0.229993
0.229997
0.229999
0.229999
0.23
0.23
0.23
0.23
0.23
0.23
0.23
0.23
3.76661e-11
1.64715e-10
3.78862e-10
7.38874e-10
1.34141e-09
2.3436e-09
3.99747e-09
6.70083e-09
1.10703e-08
1.80414e-08
2.89992e-08
4.59344e-08
7.16099e-08
1.097e-07
1.6484e-07
2.4251e-07
3.48679e-07
4.89195e-07
6.69039e-07
8.91601e-07
1.15823e-06
1.46815e-06
1.81867e-06
2.20569e-06
2.62398e-06
3.06791e-06
3.53152e-06
4.0089e-06
4.49435e-06
4.98251e-06
5.46851e-06
5.9481e-06
6.41788e-06
6.87569e-06
7.32129e-06
7.75748e-06
8.19163e-06
8.6379e-06
9.11945e-06
9.67264e-06
1.03556e-05
1.12544e-05
1.24847e-05
1.42268e-05
1.67599e-05
2.05317e-05
2.62826e-05
3.52641e-05
4.96069e-05
7.29161e-05
0.000111193
0.000174242
0.000277838
0.000447095
0.000721743
0.00116434
0.00187313
0.00296755
0.00475402
0.00757821
0.0120526
0.0191816
0.0306493
0.045266
0.0614145
0.0781151
0.0947614
0.110974
0.126479
0.141106
0.154738
0.167245
0.178619
0.189257
0.198693
0.206842
0.213639
0.219046
0.223092
0.225903
0.227708
0.228781
0.229379
0.229695
0.229853
0.229931
0.229968
0.229985
0.229993
0.229997
0.229999
0.229999
0.23
0.23
0.23
0.23
0.23
0.23
0.23
0.23
3.75509e-11
1.64204e-10
3.77652e-10
7.36417e-10
1.33673e-09
2.33502e-09
3.9821e-09
6.67386e-09
1.10239e-08
1.79632e-08
2.88701e-08
4.57268e-08
7.12851e-08
1.09208e-07
1.64121e-07
2.41504e-07
3.47336e-07
4.87502e-07
6.67041e-07
8.89427e-07
1.15611e-06
1.46641e-06
1.81776e-06
2.20608e-06
2.62634e-06
3.07289e-06
3.53986e-06
4.02138e-06
4.51177e-06
5.0057e-06
5.49831e-06
5.98533e-06
6.46338e-06
6.93027e-06
7.38575e-06
7.83267e-06
8.27835e-06
8.73652e-06
9.23167e-06
9.80436e-06
1.05149e-05
1.14448e-05
1.27194e-05
1.45275e-05
1.71624e-05
2.10959e-05
2.71113e-05
3.65348e-05
5.16252e-05
7.62026e-05
0.000116615
0.000183216
0.000292638
0.000471334
0.00076111
0.00122775
0.00197324
0.00312447
0.00500303
0.0079707
0.0126711
0.0201624
0.0322059
0.047151
0.0634747
0.0802509
0.0969054
0.113079
0.128503
0.143021
0.156519
0.168859
0.180111
0.190606
0.199866
0.207826
0.214429
0.219645
0.223513
0.226177
0.227872
0.228873
0.229428
0.229719
0.229865
0.229936
0.229971
0.229987
0.229994
0.229997
0.229999
0.229999
0.23
0.23
0.23
0.23
0.23
0.23
0.23
0.23
3.74382e-11
1.63705e-10
3.76477e-10
7.34049e-10
1.33227e-09
2.32689e-09
3.96767e-09
6.64876e-09
1.09811e-08
1.78917e-08
2.87536e-08
4.55413e-08
7.09984e-08
1.08779e-07
1.63503e-07
2.40651e-07
3.46219e-07
4.86125e-07
6.65462e-07
8.8778e-07
1.15461e-06
1.46538e-06
1.81759e-06
2.20726e-06
2.62942e-06
3.07848e-06
3.54861e-06
4.03397e-06
4.52891e-06
5.02813e-06
5.52676e-06
6.02055e-06
6.50611e-06
6.98124e-06
7.44573e-06
7.90223e-06
8.35764e-06
8.82689e-06
9.33801e-06
9.93049e-06
1.0662e-05
1.16207e-05
1.29369e-05
1.48074e-05
1.7539e-05
2.16269e-05
2.78953e-05
3.77422e-05
5.35498e-05
7.93431e-05
0.000121801
0.000191797
0.000306777
0.000494456
0.000798593
0.00128798
0.00206747
0.00327196
0.00523636
0.00833709
0.0132453
0.0210658
0.0336058
0.048829
0.0652972
0.082132
0.0987875
0.114921
0.130271
0.144691
0.158069
0.170264
0.181412
0.191767
0.200873
0.208671
0.215105
0.220154
0.22387
0.226408
0.22801
0.22895
0.229468
0.229739
0.229875
0.229941
0.229973
0.229988
0.229994
0.229997
0.229999
0.23
0.23
0.23
0.23
0.23
0.23
0.23
0.23
0.23
3.73348e-11
1.63249e-10
3.75405e-10
7.31899e-10
1.32823e-09
2.31959e-09
3.95478e-09
6.62649e-09
1.09434e-08
1.78293e-08
2.86525e-08
4.53819e-08
7.07542e-08
1.08417e-07
1.62988e-07
2.39952e-07
3.45318e-07
4.85039e-07
6.64259e-07
8.86594e-07
1.15366e-06
1.46495e-06
1.81803e-06
2.20902e-06
2.63298e-06
3.08438e-06
3.55743e-06
4.04632e-06
4.54541e-06
5.04941e-06
5.55348e-06
6.05335e-06
6.54564e-06
7.02816e-06
7.50052e-06
7.96508e-06
8.43015e-06
8.91299e-06
9.43753e-06
1.00446e-05
1.07956e-05
1.17814e-05
1.31368e-05
1.50663e-05
1.78894e-05
2.21239e-05
2.86334e-05
3.88848e-05
5.5379e-05
8.23383e-05
0.000126759
0.00020002
0.000320352
0.000516706
0.000834764
0.00134631
0.00215882
0.00341605
0.00546635
0.00870235
0.0138264
0.0219981
0.034903
0.0503323
0.0669057
0.0837794
0.100428
0.116519
0.131801
0.146134
0.159405
0.171479
0.182533
0.192764
0.201738
0.209394
0.215682
0.220587
0.224172
0.226602
0.228125
0.229014
0.229502
0.229756
0.229883
0.229945
0.229974
0.229988
0.229995
0.229998
0.229999
0.23
0.23
0.23
0.23
0.23
0.23
0.23
0.23
0.23
3.72442e-11
1.62849e-10
3.74468e-10
7.30022e-10
1.32472e-09
2.31326e-09
3.94365e-09
6.60734e-09
1.09111e-08
1.77762e-08
2.8567e-08
4.52481e-08
7.05509e-08
1.08119e-07
1.62569e-07
2.3939e-07
3.44608e-07
4.84206e-07
6.63373e-07
8.85785e-07
1.15312e-06
1.46494e-06
1.8189e-06
2.21114e-06
2.63679e-06
3.09036e-06
3.56607e-06
4.05815e-06
4.56097e-06
5.06926e-06
5.57816e-06
6.08343e-06
6.58167e-06
7.07057e-06
7.54949e-06
8.02201e-06
8.49746e-06
8.9899e-06
9.52573e-06
1.01467e-05
1.09158e-05
1.19267e-05
1.33186e-05
1.53029e-05
1.82115e-05
2.25834e-05
2.93194e-05
3.99519e-05
5.70943e-05
8.51561e-05
0.000131437
0.000207793
0.000333214
0.000537839
0.000869214
0.00140205
0.00224611
0.00355452
0.00568862
0.00905755
0.0143954
0.0229182
0.0360876
0.0516654
0.0683123
0.0852087
0.101845
0.117894
0.133114
0.147369
0.160547
0.172517
0.183495
0.193619
0.202476
0.21001
0.216171
0.220953
0.224426
0.226764
0.228222
0.229067
0.22953
0.22977
0.22989
0.229948
0.229976
0.229989
0.229995
0.229998
0.229999
0.23
0.23
0.23
0.23
0.23
0.23
0.23
0.23
0.23
3.71673e-11
1.6251e-10
3.73674e-10
7.28436e-10
1.32175e-09
2.30792e-09
3.93431e-09
6.59134e-09
1.08843e-08
1.77321e-08
2.84966e-08
4.51385e-08
7.03858e-08
1.07879e-07
1.62235e-07
2.38949e-07
3.44063e-07
4.83587e-07
6.6275e-07
8.8528e-07
1.15292e-06
1.46527e-06
1.82005e-06
2.21346e-06
2.64066e-06
3.09618e-06
3.57429e-06
4.06921e-06
4.57535e-06
5.08741e-06
5.60057e-06
6.11057e-06
6.61394e-06
7.1082e-06
7.5936e-06
8.07419e-06
8.55705e-06
9.0579e-06
9.60367e-06
1.0237e-05
1.10224e-05
1.2056e-05
1.34809e-05
1.55151e-05
1.85016e-05
2.29989e-05
2.99423e-05
4.09243e-05
5.8662e-05
8.77369e-05
0.000135726
0.000214927
0.000345026
0.000557253
0.000900877
0.0014533
0.0023261
0.00368163
0.00589286
0.00938419
0.0149191
0.0237658
0.0371356
0.0528245
0.0695242
0.0864336
0.103055
0.119065
0.13423
0.148418
0.161515
0.173396
0.184316
0.194346
0.203103
0.210531
0.216584
0.22126
0.224638
0.226899
0.228301
0.229111
0.229553
0.229781
0.229895
0.229951
0.229977
0.22999
0.229995
0.229998
0.229999
0.23
0.23
0.23
0.23
0.23
0.23
0.23
0.23
0.23
3.7104e-11
1.62231e-10
3.73021e-10
7.27132e-10
1.31932e-09
2.30355e-09
3.92667e-09
6.57827e-09
1.08625e-08
1.76965e-08
2.84399e-08
4.50507e-08
7.02545e-08
1.0769e-07
1.61976e-07
2.38612e-07
3.43657e-07
4.83143e-07
6.62335e-07
8.85006e-07
1.15294e-06
1.46581e-06
1.82136e-06
2.21583e-06
2.64441e-06
3.10168e-06
3.58189e-06
4.07931e-06
4.58833e-06
5.10369e-06
5.62053e-06
6.13461e-06
6.64233e-06
7.14171e-06
7.63334e-06
8.11965e-06
8.60886e-06
9.11696e-06
9.67134e-06
1.03154e-05
1.11152e-05
1.21686e-05
1.36226e-05
1.57008e-05
1.87563e-05
2.33647e-05
3.04921e-05
4.17844e-05
6.00506e-05
9.00244e-05
0.000139528
0.000221247
0.000355478
0.000574414
0.000928825
0.00149847
0.00239621
0.00379292
0.00607134
0.00966898
0.0153745
0.024501
0.0380325
0.0538097
0.0705497
0.0874671
0.104074
0.120049
0.135168
0.149297
0.162323
0.174134
0.185007
0.194957
0.203629
0.210967
0.216929
0.221515
0.224813
0.227011
0.228367
0.229147
0.229572
0.229791
0.2299
0.229953
0.229978
0.22999
0.229996
0.229998
0.229999
0.23
0.23
0.23
0.23
0.23
0.23
0.23
0.23
0.23
3.70532e-11
1.62007e-10
3.72498e-10
7.26088e-10
1.31737e-09
2.30006e-09
3.92057e-09
6.56788e-09
1.08451e-08
1.76683e-08
2.83952e-08
4.49821e-08
7.01525e-08
1.07545e-07
1.61779e-07
2.38361e-07
3.43362e-07
4.82836e-07
6.62079e-07
8.84901e-07
1.15312e-06
1.46646e-06
1.82269e-06
2.2181e-06
2.6479e-06
3.10667e-06
3.58871e-06
4.08827e-06
4.59978e-06
5.11795e-06
5.63795e-06
6.15547e-06
6.66707e-06
7.17118e-06
7.66721e-06
8.15833e-06
8.65288e-06
9.16707e-06
9.72871e-06
1.03819e-05
1.11937e-05
1.22642e-05
1.37428e-05
1.58587e-05
1.89732e-05
2.36769e-05
3.09619e-05
4.25204e-05
6.12396e-05
9.1983e-05
0.000142781
0.000226648
0.000364398
0.000589031
0.000952584
0.00153679
0.00245535
0.00388667
0.00622137
0.00990784
0.0157557
0.0251151
0.0387794
0.0546282
0.0714003
0.0883231
0.104917
0.120863
0.135942
0.150023
0.162991
0.174741
0.18558
0.195463
0.204063
0.211327
0.217212
0.221724
0.224957
0.227102
0.22842
0.229177
0.229587
0.229798
0.229904
0.229955
0.229979
0.22999
0.229996
0.229998
0.229999
0.23
0.23
0.23
0.23
0.23
0.23
0.23
0.23
0.23
3.70138e-11
1.61833e-10
3.72091e-10
7.25276e-10
1.31586e-09
2.29735e-09
3.91584e-09
6.55983e-09
1.08317e-08
1.76466e-08
2.8361e-08
4.49298e-08
7.00754e-08
1.07436e-07
1.61633e-07
2.38179e-07
3.43155e-07
4.82634e-07
6.61935e-07
8.84898e-07
1.15338e-06
1.46713e-06
1.82396e-06
2.22017e-06
2.65099e-06
3.11104e-06
3.5946e-06
4.09596e-06
4.60953e-06
5.13005e-06
5.65266e-06
6.17303e-06
6.68815e-06
7.19558e-06
7.69521e-06
8.19026e-06
8.68917e-06
9.20832e-06
9.77587e-06
1.04365e-05
1.12583e-05
1.23426e-05
1.38417e-05
1.59886e-05
1.91517e-05
2.39342e-05
3.13496e-05
4.31282e-05
6.22218e-05
9.36006e-05
0.000145465
0.0002311
0.000371739
0.000601042
0.000972074
0.00156817
0.00250354
0.00396299
0.00634337
0.0101018
0.0160648
0.025613
0.0393844
0.0552907
0.0720882
0.0890149
0.105598
0.12152
0.136566
0.150608
0.163528
0.175231
0.186043
0.195871
0.204414
0.211617
0.21744
0.221892
0.225072
0.227174
0.228462
0.2292
0.229599
0.229804
0.229907
0.229956
0.22998
0.229991
0.229996
0.229998
0.229999
0.23
0.23
0.23
0.23
0.23
0.23
0.23
0.23
0.23
3.69843e-11
1.61703e-10
3.71787e-10
7.24668e-10
1.31473e-09
2.29532e-09
3.91231e-09
6.55383e-09
1.08218e-08
1.76305e-08
2.83357e-08
4.48912e-08
7.0019e-08
1.07357e-07
1.61529e-07
2.38052e-07
3.43016e-07
4.82508e-07
6.61868e-07
8.84959e-07
1.15367e-06
1.46776e-06
1.82508e-06
2.22194e-06
2.65359e-06
3.11466e-06
3.59945e-06
4.10225e-06
4.61747e-06
5.13986e-06
5.66456e-06
6.18739e-06
6.70491e-06
7.21495e-06
7.71741e-06
8.21555e-06
8.71786e-06
9.24089e-06
9.81307e-06
1.04795e-05
1.13091e-05
1.24044e-05
1.39195e-05
1.60909e-05
1.92926e-05
2.41372e-05
3.16559e-05
4.36086e-05
6.29984e-05
9.48792e-05
0.000147586
0.000234614
0.000377526
0.0006105
0.000987403
0.00159282
0.00254126
0.00402271
0.00643877
0.0102534
0.0163064
0.0260018
0.0398567
0.0558075
0.0726245
0.0895539
0.106128
0.122031
0.137052
0.151063
0.163946
0.175612
0.186404
0.19619
0.204687
0.211842
0.217616
0.222022
0.22516
0.22723
0.228495
0.229218
0.229608
0.229809
0.229909
0.229957
0.22998
0.229991
0.229996
0.229998
0.229999
0.23
0.23
0.23
0.23
0.23
0.23
0.23
0.23
0.23
3.69634e-11
1.61611e-10
3.71571e-10
7.24237e-10
1.31393e-09
2.29389e-09
3.90981e-09
6.54958e-09
1.08147e-08
1.76191e-08
2.83179e-08
4.48643e-08
6.99799e-08
1.07303e-07
1.61458e-07
2.37967e-07
3.42926e-07
4.82434e-07
6.61845e-07
8.85039e-07
1.15392e-06
1.46828e-06
1.82597e-06
2.22332e-06
2.65561e-06
3.11745e-06
3.60316e-06
4.10703e-06
4.62348e-06
5.14725e-06
5.67349e-06
6.19803e-06
6.71737e-06
7.22936e-06
7.73392e-06
8.23433e-06
8.73914e-06
9.26503e-06
9.8406e-06
1.05114e-05
1.13466e-05
1.245e-05
1.39771e-05
1.61665e-05
1.93967e-05
2.42876e-05
3.18828e-05
4.39647e-05
6.35742e-05
9.58271e-05
0.000149158
0.000237216
0.00038181
0.000617494
0.00099873
0.00161102
0.00256902
0.00406667
0.00650897
0.0103649
0.0164841
0.0262878
0.0402039
0.0561873
0.0730185
0.0899497
0.106517
0.122406
0.137408
0.151396
0.164251
0.175892
0.18667
0.196424
0.204887
0.212007
0.217746
0.222117
0.225225
0.227271
0.228519
0.229231
0.229615
0.229813
0.22991
0.229958
0.229981
0.229991
0.229996
0.229998
0.229999
0.23
0.23
0.23
0.23
0.23
0.23
0.23
0.23
0.23
3.69501e-11
1.61552e-10
3.71434e-10
7.23963e-10
1.31342e-09
2.29297e-09
3.90822e-09
6.54689e-09
1.08103e-08
1.7612e-08
2.83067e-08
4.48475e-08
6.99554e-08
1.07269e-07
1.61415e-07
2.37916e-07
3.42874e-07
4.82394e-07
6.61841e-07
8.85107e-07
1.15411e-06
1.46865e-06
1.82659e-06
2.22428e-06
2.65698e-06
3.11934e-06
3.60566e-06
4.11025e-06
4.62752e-06
5.15221e-06
5.67948e-06
6.20511e-06
6.72564e-06
7.23891e-06
7.74484e-06
8.24674e-06
8.7532e-06
9.28096e-06
9.85876e-06
1.05323e-05
1.13714e-05
1.248e-05
1.40149e-05
1.62164e-05
1.94654e-05
2.43867e-05
3.20326e-05
4.41998e-05
6.39544e-05
9.64531e-05
0.000150195
0.000238933
0.000384634
0.000622105
0.00100619
0.00162301
0.00258727
0.00409556
0.0065551
0.0104382
0.0166008
0.0264757
0.040432
0.0564367
0.0732771
0.0902095
0.106772
0.122652
0.137641
0.151614
0.16445
0.176075
0.186844
0.196576
0.205018
0.212114
0.217829
0.222179
0.225267
0.227297
0.228535
0.22924
0.22962
0.229815
0.229912
0.229958
0.229981
0.229991
0.229996
0.229998
0.229999
0.23
0.23
0.23
0.23
0.23
0.23
0.23
0.23
0.23
3.69437e-11
1.61524e-10
3.71368e-10
7.23833e-10
1.31317e-09
2.29254e-09
3.90747e-09
6.54561e-09
1.08082e-08
1.76086e-08
2.83014e-08
4.48395e-08
6.9944e-08
1.07254e-07
1.61395e-07
2.37892e-07
3.4285e-07
4.82377e-07
6.61842e-07
8.85144e-07
1.15421e-06
1.46883e-06
1.8269e-06
2.22474e-06
2.65765e-06
3.12026e-06
3.60689e-06
4.11183e-06
4.6295e-06
5.15465e-06
5.68242e-06
6.20857e-06
6.72967e-06
7.24357e-06
7.75017e-06
8.2528e-06
8.76007e-06
9.28874e-06
9.86763e-06
1.05426e-05
1.13834e-05
1.24947e-05
1.40335e-05
1.62408e-05
1.94991e-05
2.44355e-05
3.21062e-05
4.43155e-05
6.41416e-05
9.67614e-05
0.000150706
0.000239779
0.000386026
0.000624376
0.00100987
0.00162891
0.00259625
0.00410978
0.0065778
0.0104742
0.0166582
0.0265681
0.0405442
0.0565593
0.0734041
0.0903369
0.106897
0.122772
0.137755
0.15172
0.164547
0.176164
0.186929
0.19665
0.20508
0.212165
0.217869
0.222208
0.225286
0.227309
0.228542
0.229244
0.229622
0.229816
0.229912
0.229959
0.229981
0.229991
0.229996
0.229998
0.229999
0.23
0.23
0.23
0.23
0.23
0.23
0.23
0.23
0.23
3.69437e-11
1.61524e-10
3.71368e-10
7.23833e-10
1.31317e-09
2.29254e-09
3.90747e-09
6.54561e-09
1.08082e-08
1.76086e-08
2.83014e-08
4.48395e-08
6.9944e-08
1.07254e-07
1.61395e-07
2.37892e-07
3.4285e-07
4.82377e-07
6.61842e-07
8.85142e-07
1.1542e-06
1.46883e-06
1.82689e-06
2.22474e-06
2.65765e-06
3.12026e-06
3.60688e-06
4.11182e-06
4.6295e-06
5.15464e-06
5.68241e-06
6.20857e-06
6.72967e-06
7.24356e-06
7.75017e-06
8.2528e-06
8.76006e-06
9.28873e-06
9.86762e-06
1.05426e-05
1.13834e-05
1.24947e-05
1.40335e-05
1.62408e-05
1.94991e-05
2.44354e-05
3.21062e-05
4.43155e-05
6.41416e-05
9.67613e-05
0.000150706
0.000239779
0.000386026
0.000624376
0.00100987
0.00162892
0.00259625
0.00410979
0.00657781
0.0104743
0.0166583
0.0265681
0.0405442
0.0565593
0.0734041
0.0903369
0.106897
0.122772
0.137755
0.15172
0.164547
0.176164
0.186929
0.19665
0.20508
0.212165
0.217869
0.222208
0.225286
0.227309
0.228542
0.229244
0.229622
0.229816
0.229912
0.229959
0.229981
0.229991
0.229996
0.229998
0.229999
0.23
0.23
0.23
0.23
0.23
0.23
0.23
0.23
0.23
3.69501e-11
1.61552e-10
3.71434e-10
7.23963e-10
1.31342e-09
2.29297e-09
3.90822e-09
6.54688e-09
1.08103e-08
1.7612e-08
2.83067e-08
4.48474e-08
6.99554e-08
1.07269e-07
1.61415e-07
2.37915e-07
3.42873e-07
4.82393e-07
6.61839e-07
8.85104e-07
1.15411e-06
1.46864e-06
1.82658e-06
2.22427e-06
2.65697e-06
3.11932e-06
3.60565e-06
4.11023e-06
4.6275e-06
5.15218e-06
5.67945e-06
6.20509e-06
6.72561e-06
7.23888e-06
7.74482e-06
8.24672e-06
8.75318e-06
9.28094e-06
9.85874e-06
1.05323e-05
1.13713e-05
1.248e-05
1.40149e-05
1.62164e-05
1.94654e-05
2.43867e-05
3.20325e-05
4.41997e-05
6.39542e-05
9.64529e-05
0.000150195
0.000238933
0.000384634
0.000622105
0.00100619
0.00162301
0.00258727
0.00409557
0.00655512
0.0104382
0.0166009
0.0264758
0.0404321
0.0564368
0.0732772
0.0902096
0.106772
0.122652
0.137641
0.151614
0.164451
0.176075
0.186844
0.196576
0.205018
0.212114
0.217829
0.222179
0.225267
0.227297
0.228535
0.22924
0.22962
0.229815
0.229912
0.229958
0.229981
0.229991
0.229996
0.229998
0.229999
0.23
0.23
0.23
0.23
0.23
0.23
0.23
0.23
0.23
3.69633e-11
1.6161e-10
3.7157e-10
7.24236e-10
1.31393e-09
2.29388e-09
3.9098e-09
6.54957e-09
1.08147e-08
1.76191e-08
2.83179e-08
4.48643e-08
6.99797e-08
1.07303e-07
1.61458e-07
2.37966e-07
3.42925e-07
4.82431e-07
6.61841e-07
8.85034e-07
1.15392e-06
1.46827e-06
1.82596e-06
2.22331e-06
2.65559e-06
3.11743e-06
3.60314e-06
4.10701e-06
4.62345e-06
5.14721e-06
5.67346e-06
6.19799e-06
6.71733e-06
7.22932e-06
7.73388e-06
8.23429e-06
8.73911e-06
9.26499e-06
9.84057e-06
1.05113e-05
1.13466e-05
1.24499e-05
1.3977e-05
1.61665e-05
1.93967e-05
2.42875e-05
3.18827e-05
4.39645e-05
6.35739e-05
9.58268e-05
0.000149157
0.000237216
0.000381809
0.000617495
0.000998732
0.00161103
0.00256903
0.00406669
0.006509
0.010365
0.0164842
0.026288
0.0402041
0.0561875
0.0730187
0.0899499
0.106517
0.122406
0.137408
0.151396
0.164251
0.175892
0.18667
0.196424
0.204887
0.212007
0.217746
0.222117
0.225225
0.227271
0.228519
0.229231
0.229615
0.229813
0.22991
0.229958
0.229981
0.229991
0.229996
0.229998
0.229999
0.23
0.23
0.23
0.23
0.23
0.23
0.23
0.23
0.23
3.69841e-11
1.61702e-10
3.71785e-10
7.24666e-10
1.31473e-09
2.29532e-09
3.9123e-09
6.55382e-09
1.08218e-08
1.76304e-08
2.83356e-08
4.48911e-08
7.00188e-08
1.07357e-07
1.61528e-07
2.3805e-07
3.43014e-07
4.82504e-07
6.61863e-07
8.84952e-07
1.15366e-06
1.46775e-06
1.82506e-06
2.22191e-06
2.65357e-06
3.11463e-06
3.59942e-06
4.10221e-06
4.61743e-06
5.13981e-06
5.6645e-06
6.18734e-06
6.70486e-06
7.2149e-06
7.71736e-06
8.21549e-06
8.7178e-06
9.24084e-06
9.81301e-06
1.04795e-05
1.1309e-05
1.24043e-05
1.39194e-05
1.60908e-05
1.92924e-05
2.41371e-05
3.16557e-05
4.36083e-05
6.29981e-05
9.48789e-05
0.000147586
0.000234614
0.000377527
0.000610501
0.000987407
0.00159283
0.00254127
0.00402274
0.00643882
0.0102535
0.0163066
0.0260021
0.039857
0.0558078
0.0726248
0.0895542
0.106128
0.122031
0.137052
0.151063
0.163946
0.175612
0.186404
0.19619
0.204687
0.211842
0.217616
0.222022
0.22516
0.22723
0.228495
0.229218
0.229608
0.229809
0.229909
0.229957
0.22998
0.229991
0.229996
0.229998
0.229999
0.23
0.23
0.23
0.23
0.23
0.23
0.23
0.23
0.23
3.70136e-11
1.61832e-10
3.7209e-10
7.25273e-10
1.31586e-09
2.29734e-09
3.91583e-09
6.55982e-09
1.08317e-08
1.76465e-08
2.83609e-08
4.49296e-08
7.00751e-08
1.07435e-07
1.61632e-07
2.38177e-07
3.43152e-07
4.82629e-07
6.61928e-07
8.84889e-07
1.15337e-06
1.46711e-06
1.82394e-06
2.22014e-06
2.65096e-06
3.111e-06
3.59456e-06
4.09591e-06
4.60948e-06
5.12999e-06
5.6526e-06
6.17296e-06
6.68808e-06
7.19551e-06
7.69514e-06
8.19019e-06
8.68909e-06
9.20824e-06
9.77579e-06
1.04364e-05
1.12582e-05
1.23425e-05
1.38416e-05
1.59884e-05
1.91516e-05
2.39339e-05
3.13493e-05
4.31278e-05
6.22214e-05
9.36001e-05
0.000145465
0.0002311
0.000371739
0.000601043
0.000972078
0.00156818
0.00250356
0.00396303
0.00634344
0.0101019
0.0160651
0.0256133
0.0393848
0.0552911
0.0720886
0.0890152
0.105598
0.12152
0.136566
0.150608
0.163529
0.175231
0.186043
0.195871
0.204414
0.211617
0.21744
0.221892
0.225071
0.227174
0.228462
0.2292
0.229599
0.229804
0.229907
0.229956
0.22998
0.229991
0.229996
0.229998
0.229999
0.23
0.23
0.23
0.23
0.23
0.23
0.23
0.23
0.23
3.7053e-11
1.62006e-10
3.72496e-10
7.26084e-10
1.31737e-09
2.30005e-09
3.92055e-09
6.56785e-09
1.08451e-08
1.76682e-08
2.83951e-08
4.49818e-08
7.01521e-08
1.07544e-07
1.61777e-07
2.38359e-07
3.43358e-07
4.8283e-07
6.6207e-07
8.84888e-07
1.15311e-06
1.46644e-06
1.82267e-06
2.21807e-06
2.64786e-06
3.10662e-06
3.58865e-06
4.08821e-06
4.59971e-06
5.11788e-06
5.63787e-06
6.15537e-06
6.66698e-06
7.17109e-06
7.66711e-06
8.15823e-06
8.65278e-06
9.16697e-06
9.7286e-06
1.03818e-05
1.11936e-05
1.2264e-05
1.37427e-05
1.58585e-05
1.89729e-05
2.36766e-05
3.09615e-05
4.25199e-05
6.12389e-05
9.19822e-05
0.00014278
0.000226648
0.000364398
0.000589032
0.000952588
0.0015368
0.00245537
0.00388671
0.00622145
0.00990799
0.015756
0.0251155
0.0387799
0.0546287
0.0714008
0.0883236
0.104917
0.120864
0.135942
0.150023
0.162991
0.174741
0.18558
0.195463
0.204063
0.211327
0.217212
0.221724
0.224957
0.227102
0.22842
0.229177
0.229587
0.229798
0.229904
0.229955
0.229979
0.22999
0.229996
0.229998
0.229999
0.23
0.23
0.23
0.23
0.23
0.23
0.23
0.23
0.23
3.71037e-11
1.62229e-10
3.73018e-10
7.27127e-10
1.31931e-09
2.30354e-09
3.92664e-09
6.57824e-09
1.08624e-08
1.76964e-08
2.84397e-08
4.50504e-08
7.02539e-08
1.07689e-07
1.61974e-07
2.38609e-07
3.43652e-07
4.83135e-07
6.62324e-07
8.8499e-07
1.15292e-06
1.46578e-06
1.82132e-06
2.21579e-06
2.64436e-06
3.10162e-06
3.58182e-06
4.07923e-06
4.58825e-06
5.1036e-06
5.62044e-06
6.13451e-06
6.64221e-06
7.14158e-06
7.63322e-06
8.11953e-06
8.60874e-06
9.11683e-06
9.67121e-06
1.03153e-05
1.1115e-05
1.21685e-05
1.36223e-05
1.57005e-05
1.87559e-05
2.33643e-05
3.04915e-05
4.17836e-05
6.00496e-05
9.00231e-05
0.000139526
0.000221246
0.000355477
0.000574414
0.000928829
0.00149848
0.00239624
0.00379297
0.00607144
0.00966917
0.0153749
0.0245016
0.0380332
0.0538104
0.0705504
0.0874677
0.104075
0.12005
0.135168
0.149297
0.162324
0.174134
0.185007
0.194957
0.203629
0.210967
0.216929
0.221515
0.224813
0.227011
0.228367
0.229147
0.229572
0.229791
0.2299
0.229953
0.229978
0.22999
0.229996
0.229998
0.229999
0.23
0.23
0.23
0.23
0.23
0.23
0.23
0.23
0.23
3.71669e-11
1.62508e-10
3.73671e-10
7.2843e-10
1.32174e-09
2.30791e-09
3.93428e-09
6.59129e-09
1.08842e-08
1.7732e-08
2.84964e-08
4.5138e-08
7.0385e-08
1.07878e-07
1.62233e-07
2.38945e-07
3.44057e-07
4.83578e-07
6.62736e-07
8.85261e-07
1.15289e-06
1.46524e-06
1.82001e-06
2.21341e-06
2.6406e-06
3.09612e-06
3.57421e-06
4.06912e-06
4.57525e-06
5.08731e-06
5.60046e-06
6.11045e-06
6.61382e-06
7.10805e-06
7.59345e-06
8.07404e-06
8.55689e-06
9.05773e-06
9.6035e-06
1.02368e-05
1.10222e-05
1.20558e-05
1.34806e-05
1.55147e-05
1.85012e-05
2.29983e-05
2.99415e-05
4.09233e-05
5.86606e-05
8.77351e-05
0.000135724
0.000214925
0.000345023
0.000557252
0.000900879
0.00145331
0.00232613
0.00368169
0.00589298
0.00938442
0.0149195
0.0237665
0.0371364
0.0528254
0.069525
0.0864343
0.103056
0.119066
0.134231
0.148418
0.161515
0.173396
0.184316
0.194346
0.203103
0.210531
0.216584
0.22126
0.224638
0.226899
0.228301
0.229111
0.229553
0.229781
0.229895
0.229951
0.229977
0.22999
0.229995
0.229998
0.229999
0.23
0.23
0.23
0.23
0.23
0.23
0.23
0.23
0.23
3.72437e-11
1.62847e-10
3.74464e-10
7.30015e-10
1.32471e-09
2.31324e-09
3.94362e-09
6.60729e-09
1.0911e-08
1.7776e-08
2.85667e-08
4.52475e-08
7.055e-08
1.08117e-07
1.62566e-07
2.39385e-07
3.44601e-07
4.84195e-07
6.63357e-07
8.85763e-07