/*--------------------------------*- C++ -*----------------------------------*\
  =========                 |
  \\      /  F ield         | OpenFOAM: The Open Source CFD Toolbox
   \\    /   O peration     | Website:  https://openfoam.org
    \\  /    A nd           | Version:  8
     \\/     M anipulation  |
\*---------------------------------------------------------------------------*/
FoamFile
{
    version     2.0;
    format      ascii;
    class       surfaceScalarField;
    location    "0.2/fluid";
    object      phi;
}
// * * * * * * * * * * * * * * * * * * * * * * * * * * * * * * * * * * * * * //

dimensions      [1 0 -1 0 0 0 0];

internalField   nonuniform List<scalar> 
7860
(
6.5723e-07
-1.76579e-08
6.54469e-07
-5.30923e-08
6.50496e-07
-8.83652e-08
6.45245e-07
-1.23318e-07
6.38605e-07
-1.57954e-07
6.30429e-07
-1.92231e-07
6.20543e-07
-2.26071e-07
6.08756e-07
-2.59362e-07
5.94873e-07
-2.91949e-07
5.78709e-07
-3.23634e-07
5.60124e-07
-3.54165e-07
5.39115e-07
-3.83233e-07
5.15722e-07
-4.10423e-07
4.90047e-07
-4.35216e-07
4.6229e-07
-4.56998e-07
4.32757e-07
-4.75115e-07
4.01865e-07
-4.88979e-07
3.7011e-07
-4.9821e-07
3.38011e-07
-5.02771e-07
3.06058e-07
-5.03026e-07
2.74651e-07
-4.99676e-07
2.44082e-07
-4.93605e-07
2.14534e-07
-4.85701e-07
1.86101e-07
-4.76719e-07
1.58819e-07
-4.67222e-07
1.32707e-07
-4.5758e-07
1.07782e-07
-4.47999e-07
8.39959e-08
-4.38566e-07
6.12814e-08
-4.29301e-07
3.95687e-08
-4.2018e-07
1.88061e-08
-4.11173e-07
-1.0516e-09
-4.02245e-07
-2.0053e-08
-3.93365e-07
-3.82204e-08
-3.84526e-07
-5.55836e-08
-3.75717e-07
-7.21674e-08
-3.66937e-07
-8.79894e-08
-3.58143e-07
-1.03067e-07
-3.49328e-07
-1.17417e-07
-3.4051e-07
-1.31055e-07
-3.31707e-07
-1.44e-07
-3.2294e-07
-1.56268e-07
-3.14234e-07
-1.67876e-07
-3.05611e-07
-1.78843e-07
-2.97097e-07
-1.89185e-07
-2.88717e-07
-1.98923e-07
-2.80496e-07
-2.08073e-07
-2.7246e-07
-2.16655e-07
-2.64632e-07
-2.24687e-07
-2.57036e-07
-2.32188e-07
-2.49698e-07
-2.39176e-07
-2.42641e-07
-2.45671e-07
-2.35891e-07
-2.51696e-07
-2.29478e-07
-2.57273e-07
-2.23435e-07
-2.62432e-07
-2.17803e-07
-2.67209e-07
-2.12634e-07
-2.71653e-07
-2.07997e-07
-2.75829e-07
-2.03989e-07
-2.79825e-07
-2.00776e-07
-2.83762e-07
-1.98446e-07
-2.87819e-07
-1.97346e-07
-2.92303e-07
-1.97916e-07
-2.97615e-07
-2.0088e-07
-3.03963e-07
-2.07748e-07
-3.11382e-07
-2.17614e-07
-3.19832e-07
-2.29787e-07
-3.29318e-07
-2.43965e-07
-3.39904e-07
-2.60072e-07
-3.51713e-07
-2.78183e-07
-3.64933e-07
-2.98488e-07
-3.79827e-07
-3.21277e-07
-3.96753e-07
-3.46929e-07
-4.1619e-07
-3.75902e-07
-4.38757e-07
-4.08774e-07
-4.65219e-07
-4.46215e-07
-4.9642e-07
-4.88556e-07
-5.33074e-07
-5.35294e-07
-5.75373e-07
-5.84405e-07
-6.23244e-07
-6.31533e-07
-6.7595e-07
-6.70191e-07
-7.31818e-07
-6.93928e-07
-7.88384e-07
-6.99714e-07
-8.43114e-07
-6.89212e-07
-8.94156e-07
-6.66747e-07
-9.40526e-07
-6.3656e-07
-9.81927e-07
-6.01813e-07
-1.01839e-06
-5.64361e-07
-1.05005e-06
-5.25222e-07
-1.077e-06
-4.8496e-07
-1.09965e-06
-4.43845e-07
-1.11855e-06
-4.02122e-07
-1.13417e-06
-3.60005e-07
-1.14698e-06
-3.17663e-07
-1.15734e-06
-2.75223e-07
-1.16562e-06
-2.32773e-07
-1.17209e-06
-1.90364e-07
-1.177e-06
-1.48013e-07
-1.18054e-06
-1.05703e-07
-1.18284e-06
-6.33753e-08
-2.10909e-08
6.57976e-07
-1.71003e-08
6.55892e-07
-5.10078e-08
6.52169e-07
-8.46417e-08
6.46833e-07
-1.17982e-07
6.39837e-07
-1.50956e-07
6.31097e-07
-1.83489e-07
6.20514e-07
-2.15484e-07
6.07983e-07
-2.46823e-07
5.9341e-07
-2.77363e-07
5.76719e-07
-3.06923e-07
5.57875e-07
-3.35288e-07
5.36907e-07
-3.62214e-07
5.13886e-07
-3.87323e-07
4.88931e-07
-4.10147e-07
4.62237e-07
-4.3014e-07
4.34072e-07
-4.4673e-07
4.04784e-07
-4.59406e-07
3.74771e-07
-4.67848e-07
3.44445e-07
-4.72041e-07
3.14188e-07
-4.72325e-07
2.84318e-07
-4.6934e-07
2.55067e-07
-4.63887e-07
2.26589e-07
-4.56767e-07
1.98968e-07
-4.48666e-07
1.72243e-07
-4.40094e-07
1.46435e-07
-4.31399e-07
1.21558e-07
-4.22781e-07
9.76063e-08
-4.14302e-07
7.45497e-08
-4.05959e-07
5.23672e-08
-3.97737e-07
3.10411e-08
-3.89607e-07
1.05531e-08
-3.81537e-07
-9.10968e-09
-3.735e-07
-2.79661e-08
-3.65482e-07
-4.6033e-08
-3.57477e-07
-6.33242e-08
-3.49486e-07
-7.98502e-08
-3.41467e-07
-9.56243e-08
-3.33414e-07
-1.10661e-07
-3.25342e-07
-1.24974e-07
-3.1727e-07
-1.38581e-07
-3.09218e-07
-1.51499e-07
-3.01207e-07
-1.63744e-07
-2.93263e-07
-1.75337e-07
-2.85408e-07
-1.86296e-07
-2.77667e-07
-1.96641e-07
-2.70065e-07
-2.06394e-07
-2.62626e-07
-2.15574e-07
-2.55374e-07
-2.24206e-07
-2.48333e-07
-2.3231e-07
-2.41525e-07
-2.39912e-07
-2.34974e-07
-2.47039e-07
-2.28704e-07
-2.53718e-07
-2.22742e-07
-2.59985e-07
-2.17115e-07
-2.6588e-07
-2.1186e-07
-2.71451e-07
-2.07018e-07
-2.76763e-07
-2.02645e-07
-2.81891e-07
-1.98827e-07
-2.86943e-07
-1.95697e-07
-2.92049e-07
-1.93322e-07
-2.97382e-07
-1.92011e-07
-3.03122e-07
-1.92194e-07
-3.09429e-07
-1.94627e-07
-3.16474e-07
-2.0081e-07
-3.24473e-07
-2.09764e-07
-3.33534e-07
-2.20917e-07
-3.43731e-07
-2.34e-07
-3.55155e-07
-2.48927e-07
-3.67931e-07
-2.65742e-07
-3.82227e-07
-2.84594e-07
-3.98261e-07
-3.05726e-07
-4.16313e-07
-3.29463e-07
-4.36725e-07
-3.56205e-07
-4.59886e-07
-3.86495e-07
-4.86258e-07
-4.20934e-07
-5.16357e-07
-4.59797e-07
-5.50664e-07
-5.02593e-07
-5.89458e-07
-5.47444e-07
-6.32821e-07
-5.90095e-07
-6.80266e-07
-6.2454e-07
-7.30454e-07
-6.45183e-07
-7.81405e-07
-6.49762e-07
-8.31156e-07
-6.40069e-07
-8.78289e-07
-6.19949e-07
-9.21999e-07
-5.93021e-07
-9.61967e-07
-5.61928e-07
-9.98129e-07
-5.2824e-07
-1.03052e-06
-4.92853e-07
-1.05915e-06
-4.56336e-07
-1.08415e-06
-4.18845e-07
-1.10572e-06
-3.80554e-07
-1.12409e-06
-3.41636e-07
-1.13951e-06
-3.02241e-07
-1.15225e-06
-2.62492e-07
-1.16254e-06
-2.22484e-07
-1.17061e-06
-1.82293e-07
-1.17665e-06
-1.4197e-07
-1.18081e-06
-1.01547e-07
-1.18314e-06
-6.10417e-08
-2.0409e-08
6.57592e-07
-1.61588e-08
6.54901e-07
-4.83167e-08
6.5048e-07
-8.02196e-08
6.44292e-07
-1.11793e-07
6.36304e-07
-1.42966e-07
6.26475e-07
-1.73657e-07
6.14769e-07
-2.03774e-07
6.01162e-07
-2.33208e-07
5.85646e-07
-2.61834e-07
5.68238e-07
-2.89495e-07
5.48976e-07
-3.15993e-07
5.27886e-07
-3.41073e-07
5.05042e-07
-3.64405e-07
4.80581e-07
-3.85575e-07
4.54697e-07
-4.04101e-07
4.27651e-07
-4.19472e-07
3.99752e-07
-4.31235e-07
3.71341e-07
-4.39104e-07
3.42753e-07
-4.43067e-07
3.1429e-07
-4.43435e-07
2.86189e-07
-4.40793e-07
2.58625e-07
-4.35872e-07
2.31708e-07
-4.2941e-07
2.05499e-07
-4.22037e-07
1.80023e-07
-4.14226e-07
1.55275e-07
-4.06289e-07
1.31232e-07
-3.98405e-07
1.0788e-07
-3.90645e-07
8.52245e-08
-3.83024e-07
6.32735e-08
-3.7553e-07
4.20319e-08
-3.68131e-07
2.15037e-08
-3.60792e-07
1.69047e-09
-3.53487e-07
-1.74122e-08
-3.46196e-07
-3.58041e-08
-3.38915e-07
-5.34896e-08
-3.31642e-07
-7.04701e-08
-3.24339e-07
-8.67516e-08
-3.16995e-07
-1.02342e-07
-3.09623e-07
-1.17251e-07
-3.0224e-07
-1.31489e-07
-2.94865e-07
-1.45072e-07
-2.87518e-07
-1.58013e-07
-2.80221e-07
-1.7033e-07
-2.72995e-07
-1.82042e-07
-2.65865e-07
-1.93168e-07
-2.58854e-07
-2.0373e-07
-2.51983e-07
-2.13753e-07
-2.45276e-07
-2.23262e-07
-2.38753e-07
-2.32284e-07
-2.32435e-07
-2.40851e-07
-2.26343e-07
-2.48997e-07
-2.20499e-07
-2.5676e-07
-2.14923e-07
-2.64184e-07
-2.0964e-07
-2.71317e-07
-2.04678e-07
-2.78218e-07
-2.00073e-07
-2.84951e-07
-1.95872e-07
-2.91584e-07
-1.92162e-07
-2.98212e-07
-1.89045e-07
-3.04924e-07
-1.86596e-07
-3.11814e-07
-1.85124e-07
-3.18969e-07
-1.85066e-07
-3.2643e-07
-1.87239e-07
-3.34434e-07
-1.92925e-07
-3.43223e-07
-2.01134e-07
-3.52962e-07
-2.11375e-07
-3.63784e-07
-2.23418e-07
-3.7581e-07
-2.37188e-07
-3.89165e-07
-2.5273e-07
-4.03986e-07
-2.70185e-07
-4.20424e-07
-2.89785e-07
-4.38645e-07
-3.11845e-07
-4.58824e-07
-3.36764e-07
-4.81121e-07
-3.65107e-07
-5.0574e-07
-3.97436e-07
-5.32961e-07
-4.33945e-07
-5.6321e-07
-4.73966e-07
-5.97141e-07
-5.15332e-07
-6.35228e-07
-5.53878e-07
-6.77416e-07
-5.84051e-07
-7.22768e-07
-6.01167e-07
-7.69595e-07
-6.03846e-07
-8.16088e-07
-5.94128e-07
-8.6085e-07
-5.7549e-07
-9.03014e-07
-5.51012e-07
-9.42152e-07
-5.22867e-07
-9.78094e-07
-4.92333e-07
-1.01083e-06
-4.6013e-07
-1.0405e-06
-4.2668e-07
-1.06711e-06
-3.92237e-07
-1.09069e-06
-3.56973e-07
-1.11131e-06
-3.2102e-07
-1.12906e-06
-2.84487e-07
-1.14408e-06
-2.47473e-07
-1.1565e-06
-2.10064e-07
-1.16646e-06
-1.72334e-07
-1.17408e-06
-1.34347e-07
-1.17947e-06
-9.61558e-08
-1.18272e-06
-5.78e-08
-1.9304e-08
6.57636e-07
-1.52612e-08
6.5491e-07
-4.55909e-08
6.50351e-07
-7.56602e-08
6.43959e-07
-1.054e-07
6.35728e-07
-1.34734e-07
6.2565e-07
-1.63577e-07
6.1372e-07
-1.9184e-07
5.9994e-07
-2.1942e-07
5.84317e-07
-2.462e-07
5.66877e-07
-2.72036e-07
5.47659e-07
-2.96745e-07
5.26731e-07
-3.20098e-07
5.04193e-07
-3.41795e-07
4.80191e-07
-3.61467e-07
4.54915e-07
-3.78676e-07
4.28606e-07
-3.92961e-07
4.01541e-07
-4.0391e-07
3.74019e-07
-4.11263e-07
3.46333e-07
-4.1501e-07
3.18743e-07
-4.15435e-07
2.91456e-07
-4.13074e-07
2.64622e-07
-4.08603e-07
2.3834e-07
-4.02702e-07
2.12666e-07
-3.95957e-07
1.87629e-07
-3.88808e-07
1.63241e-07
-3.81547e-07
1.39495e-07
-3.74334e-07
1.16388e-07
-3.6724e-07
9.3922e-08
-3.60285e-07
7.20962e-08
-3.53454e-07
5.09106e-08
-3.46715e-07
3.03658e-08
-3.40036e-07
1.04628e-08
-3.33389e-07
-8.79651e-09
-3.26756e-07
-2.74133e-08
-3.20131e-07
-4.53901e-08
-3.13511e-07
-6.27247e-08
-3.0686e-07
-7.94196e-08
-3.00164e-07
-9.54791e-08
-2.93437e-07
-1.1091e-07
-2.8669e-07
-1.25721e-07
-2.79942e-07
-1.39923e-07
-2.7321e-07
-1.5353e-07
-2.66514e-07
-1.66557e-07
-2.59875e-07
-1.79022e-07
-2.53313e-07
-1.90943e-07
-2.46849e-07
-2.02344e-07
-2.40504e-07
-2.13249e-07
-2.34297e-07
-2.23685e-07
-2.28247e-07
-2.33682e-07
-2.22372e-07
-2.43273e-07
-2.1669e-07
-2.52494e-07
-2.11219e-07
-2.61385e-07
-2.05976e-07
-2.69991e-07
-2.00982e-07
-2.7836e-07
-1.96261e-07
-2.86546e-07
-1.91844e-07
-2.94606e-07
-1.87773e-07
-3.02593e-07
-1.84144e-07
-3.1058e-07
-1.81035e-07
-3.18625e-07
-1.7854e-07
-3.26779e-07
-1.76976e-07
-3.35075e-07
-1.76806e-07
-3.43484e-07
-1.78917e-07
-3.52325e-07
-1.84213e-07
-3.61829e-07
-1.91796e-07
-3.7217e-07
-2.01239e-07
-3.83488e-07
-2.12345e-07
-3.9591e-07
-2.25061e-07
-4.09554e-07
-2.39439e-07
-4.24539e-07
-2.55623e-07
-4.4099e-07
-2.73843e-07
-4.59046e-07
-2.94409e-07
-4.78854e-07
-3.17713e-07
-5.00575e-07
-3.44318e-07
-5.24451e-07
-3.74708e-07
-5.50828e-07
-4.08959e-07
-5.80168e-07
-4.46257e-07
-6.1298e-07
-4.84318e-07
-6.49598e-07
-5.19067e-07
-6.89821e-07
-5.45429e-07
-7.32689e-07
-5.59528e-07
-7.76718e-07
-5.60639e-07
-8.20432e-07
-5.50904e-07
-8.62721e-07
-5.3347e-07
-9.02877e-07
-5.10994e-07
-9.40506e-07
-4.85306e-07
-9.75401e-07
-4.5747e-07
-1.00747e-06
-4.28074e-07
-1.0367e-06
-3.97457e-07
-1.06311e-06
-3.6583e-07
-1.08675e-06
-3.33343e-07
-1.10765e-06
-3.00117e-07
-1.12588e-06
-2.66255e-07
-1.14151e-06
-2.31849e-07
-1.15459e-06
-1.96982e-07
-1.16519e-06
-1.6173e-07
-1.17338e-06
-1.26163e-07
-1.17919e-06
-9.03421e-08
-1.18267e-06
-5.43239e-08
-1.81486e-08
6.57567e-07
-1.42947e-08
6.54698e-07
-4.27216e-08
6.49941e-07
-7.09031e-08
6.43304e-07
-9.87626e-08
6.34795e-07
-1.26223e-07
6.24425e-07
-1.53204e-07
6.1221e-07
-1.7962e-07
5.98172e-07
-2.05376e-07
5.82345e-07
-2.30362e-07
5.64776e-07
-2.54448e-07
5.45528e-07
-2.77468e-07
5.24689e-07
-2.99213e-07
5.02372e-07
-3.1941e-07
4.78727e-07
-3.37721e-07
4.53942e-07
-3.53748e-07
4.28242e-07
-3.67068e-07
4.01883e-07
-3.77301e-07
3.75132e-07
-3.84206e-07
3.48249e-07
-3.8777e-07
3.2146e-07
-3.88252e-07
2.94945e-07
-3.86144e-07
2.68833e-07
-3.82069e-07
2.43205e-07
-3.76661e-07
2.18111e-07
-3.70467e-07
1.93573e-07
-3.63899e-07
1.69599e-07
-3.57229e-07
1.46188e-07
-3.50606e-07
1.23346e-07
-3.44107e-07
1.01073e-07
-3.37745e-07
7.93685e-08
-3.31506e-07
5.82364e-08
-3.25359e-07
3.76793e-08
-3.19273e-07
1.77004e-08
-3.1322e-07
-1.69792e-09
-3.07182e-07
-2.05172e-08
-3.01149e-07
-3.8755e-08
-2.95121e-07
-5.64085e-08
-2.89065e-07
-7.34785e-08
-2.82962e-07
-8.99677e-08
-2.76823e-07
-1.05881e-07
-2.7066e-07
-1.21225e-07
-2.64488e-07
-1.3601e-07
-2.58322e-07
-1.50247e-07
-2.5218e-07
-1.63951e-07
-2.4608e-07
-1.77136e-07
-2.40041e-07
-1.89822e-07
-2.34081e-07
-2.02031e-07
-2.28217e-07
-2.13786e-07
-2.22468e-07
-2.25113e-07
-2.1685e-07
-2.36042e-07
-2.11378e-07
-2.46603e-07
-2.06067e-07
-2.56832e-07
-2.00932e-07
-2.66764e-07
-1.95989e-07
-2.76441e-07
-1.91254e-07
-2.85906e-07
-1.8675e-07
-2.95203e-07
-1.82504e-07
-3.04381e-07
-1.78558e-07
-3.13476e-07
-1.7502e-07
-3.22549e-07
-1.7194e-07
-3.31636e-07
-1.69443e-07
-3.40768e-07
-1.67852e-07
-3.49959e-07
-1.67653e-07
-3.59168e-07
-1.69798e-07
-3.68731e-07
-1.74781e-07
-3.78871e-07
-1.81825e-07
-3.89755e-07
-1.90562e-07
-4.01522e-07
-2.00829e-07
-4.14291e-07
-2.12591e-07
-4.28177e-07
-2.25912e-07
-4.4329e-07
-2.40942e-07
-4.59742e-07
-2.57911e-07
-4.77658e-07
-2.77125e-07
-4.97165e-07
-2.9898e-07
-5.18415e-07
-3.24019e-07
-5.41633e-07
-3.52656e-07
-5.6714e-07
-3.84856e-07
-5.95347e-07
-4.19676e-07
-6.26699e-07
-4.54732e-07
-6.61473e-07
-4.86029e-07
-6.99476e-07
-5.08928e-07
-7.39864e-07
-5.20267e-07
-7.81366e-07
-5.19879e-07
-8.22723e-07
-5.09986e-07
-8.62975e-07
-4.93456e-07
-9.01495e-07
-4.72596e-07
-9.37909e-07
-4.48952e-07
-9.72e-07
-4.23408e-07
-1.00364e-06
-3.9645e-07
-1.03274e-06
-3.68358e-07
-1.05927e-06
-3.39304e-07
-1.0832e-06
-3.09415e-07
-1.10453e-06
-2.78791e-07
-1.12326e-06
-2.47521e-07
-1.13942e-06
-2.15686e-07
-1.15304e-06
-1.83365e-07
-1.16414e-06
-1.5063e-07
-1.17275e-06
-1.17553e-07
-1.17889e-06
-8.41997e-08
-1.18258e-06
-5.06332e-08
-1.69117e-08
6.57567e-07
-1.3328e-08
6.54675e-07
-3.9829e-08
6.4987e-07
-6.60981e-08
6.4317e-07
-9.2062e-08
6.34594e-07
-1.17646e-07
6.24165e-07
-1.42773e-07
6.11909e-07
-1.67361e-07
5.97863e-07
-1.91322e-07
5.82067e-07
-2.14556e-07
5.64578e-07
-2.36941e-07
5.45465e-07
-2.58327e-07
5.24818e-07
-2.78522e-07
5.02752e-07
-2.97277e-07
4.79412e-07
-3.14285e-07
4.54981e-07
-3.2918e-07
4.29673e-07
-3.41575e-07
4.03731e-07
-3.5112e-07
3.77412e-07
-3.57592e-07
3.50962e-07
-3.60976e-07
3.24596e-07
-3.61506e-07
2.98485e-07
-3.59631e-07
2.72753e-07
-3.55928e-07
2.47477e-07
-3.50984e-07
2.227e-07
-3.45306e-07
1.98446e-07
-3.39282e-07
1.74713e-07
-3.3316e-07
1.51507e-07
-3.27091e-07
1.28825e-07
-3.21142e-07
1.06667e-07
-3.15327e-07
8.50299e-08
-3.09631e-07
6.39159e-08
-3.04026e-07
4.33266e-08
-2.98482e-07
2.3264e-08
-2.92971e-07
3.73011e-09
-2.87476e-07
-1.52735e-08
-2.81985e-07
-3.37472e-08
-2.765e-07
-5.16878e-08
-2.70986e-07
-6.9095e-08
-2.65425e-07
-8.59703e-08
-2.59826e-07
-1.02317e-07
-2.54199e-07
-1.18142e-07
-2.48556e-07
-1.33452e-07
-2.42911e-07
-1.48257e-07
-2.3728e-07
-1.62569e-07
-2.31678e-07
-1.76403e-07
-2.26121e-07
-1.89777e-07
-2.20626e-07
-2.02709e-07
-2.15209e-07
-2.15221e-07
-2.09884e-07
-2.27337e-07
-2.04666e-07
-2.39083e-07
-1.99568e-07
-2.50486e-07
-1.94604e-07
-2.61577e-07
-1.89785e-07
-2.72388e-07
-1.85125e-07
-2.82952e-07
-1.80641e-07
-2.93305e-07
-1.76351e-07
-3.03483e-07
-1.72284e-07
-3.13523e-07
-1.68481e-07
-3.23457e-07
-1.65056e-07
-3.33347e-07
-1.62029e-07
-3.43199e-07
-1.59582e-07
-3.53043e-07
-1.58016e-07
-3.62896e-07
-1.57837e-07
-3.72739e-07
-1.60045e-07
-3.82887e-07
-1.64764e-07
-3.9355e-07
-1.71332e-07
-4.04885e-07
-1.79436e-07
-4.17024e-07
-1.88943e-07
-4.30081e-07
-1.99837e-07
-4.44164e-07
-2.12191e-07
-4.5938e-07
-2.26162e-07
-4.75841e-07
-2.41977e-07
-4.93671e-07
-2.59935e-07
-5.13003e-07
-2.80432e-07
-5.34012e-07
-3.03975e-07
-5.56945e-07
-3.30901e-07
-5.82145e-07
-3.61065e-07
-6.10027e-07
-3.93408e-07
-6.40992e-07
-4.25491e-07
-6.75215e-07
-4.53467e-07
-7.1237e-07
-4.73178e-07
-7.5155e-07
-4.82121e-07
-7.91545e-07
-4.80554e-07
-8.31241e-07
-4.70681e-07
-8.69829e-07
-4.55081e-07
-9.06789e-07
-4.35744e-07
-9.41813e-07
-4.13982e-07
-9.74713e-07
-3.90534e-07
-1.00537e-06
-3.65805e-07
-1.0337e-06
-3.40029e-07
-1.05966e-06
-3.13351e-07
-1.0832e-06
-2.8588e-07
-1.10429e-06
-2.57702e-07
-1.12291e-06
-2.28897e-07
-1.13906e-06
-1.99538e-07
-1.15273e-06
-1.69697e-07
-1.16391e-06
-1.39445e-07
-1.17261e-06
-1.0885e-07
-1.17883e-06
-7.79787e-08
-1.18257e-06
-4.68954e-08
-1.56629e-08
6.57557e-07
-1.23511e-08
6.54642e-07
-3.69139e-08
6.49807e-07
-6.12624e-08
6.43071e-07
-8.53256e-08
6.34459e-07
-1.09033e-07
6.23999e-07
-1.32311e-07
6.11727e-07
-1.55085e-07
5.97685e-07
-1.77273e-07
5.81922e-07
-1.98783e-07
5.645e-07
-2.19503e-07
5.45497e-07
-2.39297e-07
5.25005e-07
-2.57988e-07
5.03142e-07
-2.75351e-07
4.80054e-07
-2.91104e-07
4.55919e-07
-3.04913e-07
4.30942e-07
-3.1642e-07
4.05357e-07
-3.25304e-07
3.79406e-07
-3.31356e-07
3.53319e-07
-3.34558e-07
3.27303e-07
-3.35122e-07
3.01519e-07
-3.33459e-07
2.76085e-07
-3.30099e-07
2.51073e-07
-3.25586e-07
2.26529e-07
-3.20393e-07
2.02469e-07
-3.14875e-07
1.78901e-07
-3.09269e-07
1.55825e-07
-3.03717e-07
1.33238e-07
-2.9828e-07
1.11137e-07
-2.92972e-07
8.95187e-08
-2.8778e-07
6.83838e-08
-2.82677e-07
4.77327e-08
-2.77633e-07
2.75669e-08
-2.72623e-07
7.8882e-09
-2.67628e-07
-1.13023e-08
-2.62639e-07
-3.00047e-08
-2.57652e-07
-4.82163e-08
-2.52639e-07
-6.59361e-08
-2.47579e-07
-8.31649e-08
-2.42479e-07
-9.99055e-08
-2.37347e-07
-1.16162e-07
-2.32195e-07
-1.3194e-07
-2.27034e-07
-1.47249e-07
-2.21878e-07
-1.62098e-07
-2.1674e-07
-1.76502e-07
-2.11634e-07
-1.90475e-07
-2.06575e-07
-2.04033e-07
-2.01577e-07
-2.17195e-07
-1.96652e-07
-2.29981e-07
-1.91814e-07
-2.42414e-07
-1.87073e-07
-2.54517e-07
-1.82441e-07
-2.66316e-07
-1.7793e-07
-2.77837e-07
-1.73552e-07
-2.89107e-07
-1.69321e-07
-3.00156e-07
-1.65257e-07
-3.11012e-07
-1.61388e-07
-3.21705e-07
-1.57753e-07
-3.3226e-07
-1.54472e-07
-3.4273e-07
-1.51538e-07
-3.53128e-07
-1.49173e-07
-3.63485e-07
-1.47668e-07
-3.73825e-07
-1.47534e-07
-3.84164e-07
-1.49796e-07
-3.94787e-07
-1.54272e-07
-4.0589e-07
-1.60399e-07
-4.17618e-07
-1.67917e-07
-4.30095e-07
-1.76718e-07
-4.43433e-07
-1.86803e-07
-4.57736e-07
-1.98253e-07
-4.73113e-07
-2.11224e-07
-4.89679e-07
-2.25942e-07
-5.07567e-07
-2.42693e-07
-5.2692e-07
-2.61871e-07
-5.4793e-07
-2.83936e-07
-5.70858e-07
-3.09155e-07
-5.96037e-07
-3.37291e-07
-6.23836e-07
-3.67203e-07
-6.54564e-07
-3.96441e-07
-6.8827e-07
-4.21347e-07
-7.24537e-07
-4.38226e-07
-7.62479e-07
-4.45129e-07
-8.01019e-07
-4.42621e-07
-8.39203e-07
-4.32849e-07
-8.76344e-07
-4.18129e-07
-9.11995e-07
-4.0019e-07
-9.45877e-07
-3.80148e-07
-9.77808e-07
-3.58625e-07
-1.00766e-06
-3.3596e-07
-1.03535e-06
-3.12347e-07
-1.0608e-06
-2.87908e-07
-1.08395e-06
-2.62733e-07
-1.10475e-06
-2.36898e-07
-1.12318e-06
-2.10471e-07
-1.1392e-06
-1.83519e-07
-1.15279e-06
-1.56107e-07
-1.16393e-06
-1.28301e-07
-1.17262e-06
-1.00164e-07
-1.17883e-06
-7.17619e-08
-1.18257e-06
-4.31567e-08
-1.44127e-08
6.5756e-07
-1.13771e-08
6.5465e-07
-3.4004e-08
6.49822e-07
-5.64339e-08
6.43098e-07
-7.86009e-08
6.34505e-07
-1.00439e-07
6.24077e-07
-1.2188e-07
6.1185e-07
-1.42855e-07
5.97872e-07
-1.63289e-07
5.82196e-07
-1.83096e-07
5.64886e-07
-2.02177e-07
5.4602e-07
-2.20404e-07
5.25691e-07
-2.37619e-07
5.04017e-07
-2.53616e-07
4.81139e-07
-2.68137e-07
4.5723e-07
-2.80877e-07
4.3249e-07
-2.91508e-07
4.07145e-07
-2.99736e-07
3.81429e-07
-3.05365e-07
3.55569e-07
-3.08377e-07
3.29765e-07
-3.08961e-07
3.04178e-07
-3.07493e-07
2.78921e-07
-3.04458e-07
2.54068e-07
-3.00357e-07
2.29662e-07
-2.95624e-07
2.05718e-07
-2.9059e-07
1.82245e-07
-2.85479e-07
1.59239e-07
-2.80418e-07
1.36695e-07
-2.75467e-07
1.14609e-07
-2.70639e-07
9.29761e-08
-2.6592e-07
7.17951e-08
-2.61287e-07
5.10655e-08
-2.56711e-07
3.07881e-08
-2.52168e-07
1.09639e-08
-2.47639e-07
-8.40645e-09
-2.43116e-07
-2.73229e-08
-2.38594e-07
-4.57829e-08
-2.34046e-07
-6.37853e-08
-2.29452e-07
-8.13299e-08
-2.24818e-07
-9.84179e-08
-2.2015e-07
-1.15052e-07
-2.15458e-07
-1.31238e-07
-2.10751e-07
-1.46982e-07
-2.06042e-07
-1.62294e-07
-2.01342e-07
-1.77182e-07
-1.96664e-07
-1.91661e-07
-1.9202e-07
-2.05743e-07
-1.87422e-07
-2.19444e-07
-1.82882e-07
-2.32781e-07
-1.78411e-07
-2.45773e-07
-1.7402e-07
-2.58439e-07
-1.69717e-07
-2.708e-07
-1.65515e-07
-2.82878e-07
-1.61424e-07
-2.94694e-07
-1.57457e-07
-3.06273e-07
-1.53635e-07
-3.17637e-07
-1.49984e-07
-3.2881e-07
-1.46546e-07
-3.39824e-07
-1.43429e-07
-3.50705e-07
-1.40636e-07
-3.61484e-07
-1.38385e-07
-3.72197e-07
-1.36963e-07
-3.82887e-07
-1.36882e-07
-3.93605e-07
-1.39166e-07
-4.04609e-07
-1.43398e-07
-4.16076e-07
-1.49102e-07
-4.28141e-07
-1.5606e-07
-4.40921e-07
-1.6419e-07
-4.54523e-07
-1.73503e-07
-4.69054e-07
-1.84087e-07
-4.84622e-07
-1.96094e-07
-5.01352e-07
-2.09744e-07
-5.19382e-07
-2.2531e-07
-5.3887e-07
-2.43176e-07
-5.60029e-07
-2.63751e-07
-5.83131e-07
-2.87234e-07
-6.08504e-07
-3.13315e-07
-6.36478e-07
-3.40797e-07
-6.67279e-07
-3.67268e-07
-7.00839e-07
-3.89302e-07
-7.36642e-07
-4.03654e-07
-7.73793e-07
-4.08854e-07
-8.1129e-07
-4.05677e-07
-8.48296e-07
-3.96161e-07
-8.84226e-07
-3.8237e-07
-9.18701e-07
-3.658e-07
-9.51486e-07
-3.47405e-07
-9.82423e-07
-3.27709e-07
-1.0114e-06
-3.06997e-07
-1.03831e-06
-2.85432e-07
-1.0631e-06
-2.63119e-07
-1.0857e-06
-2.40135e-07
-1.10606e-06
-2.16544e-07
-1.12412e-06
-1.92409e-07
-1.13985e-06
-1.67787e-07
-1.15322e-06
-1.42739e-07
-1.1642e-06
-1.17323e-07
-1.17276e-06
-9.15987e-08
-1.1789e-06
-6.56269e-08
-1.18259e-06
-3.94667e-08
-1.31796e-08
6.57563e-07
-1.04062e-08
6.54663e-07
-3.11038e-08
6.49852e-07
-5.16224e-08
6.43152e-07
-7.1901e-08
6.34593e-07
-9.18788e-08
6.24209e-07
-1.11494e-07
6.12041e-07
-1.30683e-07
5.98134e-07
-1.49377e-07
5.82546e-07
-1.67499e-07
5.65342e-07
-1.84956e-07
5.46599e-07
-2.01637e-07
5.26413e-07
-2.17394e-07
5.04898e-07
-2.32043e-07
4.82194e-07
-2.45347e-07
4.58469e-07
-2.57029e-07
4.3392e-07
-2.66793e-07
4.08764e-07
-2.74365e-07
3.83232e-07
-2.79567e-07
3.57543e-07
-2.82377e-07
3.31895e-07
-2.82967e-07
3.06445e-07
-2.81676e-07
2.81308e-07
-2.78947e-07
2.56558e-07
-2.75237e-07
2.32234e-07
-2.70946e-07
2.08356e-07
-2.66379e-07
1.84929e-07
-2.61742e-07
1.6195e-07
-2.57152e-07
1.39412e-07
-2.52665e-07
1.17308e-07
-2.48293e-07
9.5635e-08
-2.44025e-07
7.43889e-08
-2.39836e-07
5.35686e-08
-2.35702e-07
3.3174e-08
-2.31599e-07
1.32056e-08
-2.2751e-07
-6.33617e-09
-2.23425e-07
-2.54513e-08
-2.1934e-07
-4.41374e-08
-2.1523e-07
-6.23926e-08
-2.11076e-07
-8.02155e-08
-2.06881e-07
-9.76066e-08
-2.02652e-07
-1.14568e-07
-1.98395e-07
-1.31104e-07
-1.94121e-07
-1.47219e-07
-1.89838e-07
-1.62919e-07
-1.85557e-07
-1.78213e-07
-1.8129e-07
-1.93111e-07
-1.77046e-07
-2.07624e-07
-1.72838e-07
-2.21765e-07
-1.68674e-07
-2.35547e-07
-1.64565e-07
-2.48986e-07
-1.60521e-07
-2.62097e-07
-1.5655e-07
-2.74897e-07
-1.52661e-07
-2.87405e-07
-1.48867e-07
-2.99637e-07
-1.45179e-07
-3.11613e-07
-1.41616e-07
-3.23353e-07
-1.38205e-07
-3.34876e-07
-1.3499e-07
-3.46213e-07
-1.32066e-07
-3.57386e-07
-1.29443e-07
-3.6843e-07
-1.27334e-07
-3.7939e-07
-1.26014e-07
-3.90328e-07
-1.25985e-07
-4.01338e-07
-1.28246e-07
-4.12649e-07
-1.32216e-07
-4.24421e-07
-1.37497e-07
-4.3678e-07
-1.43908e-07
-4.49836e-07
-1.51384e-07
-4.63696e-07
-1.59945e-07
-4.78464e-07
-1.69681e-07
-4.94256e-07
-1.8074e-07
-5.11201e-07
-1.9333e-07
-5.29447e-07
-2.0771e-07
-5.4917e-07
-2.24247e-07
-5.70593e-07
-2.433e-07
-5.93996e-07
-2.65008e-07
-6.19688e-07
-2.89006e-07
-6.47949e-07
-3.14078e-07
-6.78908e-07
-3.3789e-07
-7.12382e-07
-3.57273e-07
-7.47784e-07
-3.69411e-07
-7.84229e-07
-3.73219e-07
-8.20811e-07
-3.69601e-07
-8.56799e-07
-3.60461e-07
-8.91693e-07
-3.47631e-07
-9.25165e-07
-3.32406e-07
-9.5701e-07
-3.156e-07
-9.87082e-07
-2.97656e-07
-1.01527e-06
-2.78816e-07
-1.04149e-06
-2.59217e-07
-1.06566e-06
-2.38948e-07
-1.08772e-06
-2.18075e-07
-1.10762e-06
-1.96654e-07
-1.12529e-06
-1.74739e-07
-1.14069e-06
-1.52382e-07
-1.15379e-06
-1.29637e-07
-1.16456e-06
-1.06555e-07
-1.17297e-06
-8.3193e-08
-1.17899e-06
-5.96041e-08
-1.18261e-06
-3.58437e-08
-1.19689e-08
6.57568e-07
-9.44065e-09
6.54683e-07
-2.82188e-08
6.49897e-07
-4.68357e-08
6.43232e-07
-6.52358e-08
6.34719e-07
-8.33638e-08
6.2439e-07
-1.01164e-07
6.12289e-07
-1.18578e-07
5.98462e-07
-1.35545e-07
5.82966e-07
-1.51993e-07
5.65866e-07
-1.67841e-07
5.4724e-07
-1.82987e-07
5.27182e-07
-1.97298e-07
5.05803e-07
-2.10607e-07
4.83242e-07
-2.22702e-07
4.59663e-07
-2.33332e-07
4.35258e-07
-2.42226e-07
4.10241e-07
-2.49138e-07
3.84837e-07
-2.53903e-07
3.59264e-07
-2.56501e-07
3.33716e-07
-2.57082e-07
3.08352e-07
-2.55953e-07
2.83286e-07
-2.53515e-07
2.58591e-07
-2.50182e-07
2.3431e-07
-2.46319e-07
2.10461e-07
-2.42204e-07
1.87047e-07
-2.38025e-07
1.64066e-07
-2.3389e-07
1.41509e-07
-2.2985e-07
1.1937e-07
-2.25917e-07
9.76427e-08
-2.22079e-07
7.63227e-08
-2.18316e-07
5.54081e-08
-2.14603e-07
3.48983e-08
-2.10918e-07
1.47933e-08
-2.07247e-07
-4.90654e-09
-2.03578e-07
-2.42013e-08
-1.99909e-07
-4.30884e-08
-1.96216e-07
-6.15648e-08
-1.9248e-07
-7.96292e-08
-1.88705e-07
-9.72811e-08
-1.84895e-07
-1.14521e-07
-1.81056e-07
-1.31352e-07
-1.77197e-07
-1.47777e-07
-1.73325e-07
-1.638e-07
-1.69451e-07
-1.79428e-07
-1.65583e-07
-1.94669e-07
-1.61731e-07
-2.09531e-07
-1.57905e-07
-2.24025e-07
-1.54114e-07
-2.38162e-07
-1.50366e-07
-2.51953e-07
-1.46671e-07
-2.65412e-07
-1.43035e-07
-2.78552e-07
-1.39469e-07
-2.91388e-07
-1.35982e-07
-3.03935e-07
-1.32587e-07
-3.16209e-07
-1.29301e-07
-3.28227e-07
-1.2615e-07
-3.40005e-07
-1.2318e-07
-3.51572e-07
-1.20473e-07
-3.62951e-07
-1.18048e-07
-3.74177e-07
-1.16104e-07
-3.85302e-07
-1.14904e-07
-3.96406e-07
-1.1493e-07
-4.07642e-07
-1.17104e-07
-4.19204e-07
-1.20786e-07
-4.31234e-07
-1.25636e-07
-4.43848e-07
-1.315e-07
-4.57154e-07
-1.38328e-07
-4.71254e-07
-1.46145e-07
-4.86257e-07
-1.55039e-07
-5.02282e-07
-1.65151e-07
-5.19465e-07
-1.76677e-07
-5.37963e-07
-1.89858e-07
-5.57964e-07
-2.05038e-07
-5.79706e-07
-2.22528e-07
-6.03469e-07
-2.42417e-07
-6.29542e-07
-2.64302e-07
-6.58154e-07
-2.8698e-07
-6.89345e-07
-3.08232e-07
-7.22833e-07
-3.2517e-07
-7.57964e-07
-3.35372e-07
-7.93873e-07
-3.38066e-07
-8.29723e-07
-3.34218e-07
-8.64874e-07
-3.25577e-07
-8.98889e-07
-3.13755e-07
-9.31492e-07
-2.99874e-07
-9.625e-07
-2.84626e-07
-9.91785e-07
-2.68388e-07
-1.01925e-06
-2.51363e-07
-1.0448e-06
-2.33668e-07
-1.06837e-06
-2.15379e-07
-1.08989e-06
-1.96552e-07
-1.10931e-06
-1.77236e-07
-1.12657e-06
-1.57479e-07
-1.14163e-06
-1.37327e-07
-1.15444e-06
-1.16825e-07
-1.16497e-06
-9.60229e-08
-1.1732e-06
-7.49681e-08
-1.17909e-06
-5.371e-08
-1.18264e-06
-3.2298e-08
-1.07843e-08
6.57574e-07
-8.48047e-09
6.54705e-07
-2.53496e-08
6.49944e-07
-4.20749e-08
6.43315e-07
-5.86063e-08
6.34847e-07
-7.48946e-08
6.24574e-07
-9.08894e-08
6.12538e-07
-1.06539e-07
5.98786e-07
-1.21787e-07
5.83375e-07
-1.36573e-07
5.66368e-07
-1.5082e-07
5.47844e-07
-1.64439e-07
5.27894e-07
-1.77312e-07
5.0663e-07
-1.89288e-07
4.84186e-07
-2.00177e-07
4.60723e-07
-2.09754e-07
4.36431e-07
-2.17776e-07
4.11519e-07
-2.24022e-07
3.86209e-07
-2.28342e-07
3.60718e-07
-2.30714e-07
3.35238e-07
-2.31272e-07
3.09928e-07
-2.30291e-07
2.84905e-07
-2.2813e-07
2.60238e-07
-2.25161e-07
2.35973e-07
-2.21714e-07
2.12128e-07
-2.18039e-07
1.88707e-07
-2.14306e-07
1.65706e-07
-2.10614e-07
1.43116e-07
-2.07008e-07
1.20931e-07
-2.03498e-07
9.91416e-08
-2.00076e-07
7.77447e-08
-1.96722e-07
5.67371e-08
-1.93414e-07
3.61179e-08
-1.90131e-07
1.58867e-08
-1.8686e-07
-3.95604e-09
-1.83592e-07
-2.34102e-08
-1.80322e-07
-4.24728e-08
-1.77029e-07
-6.11408e-08
-1.73695e-07
-7.94121e-08
-1.70324e-07
-9.72851e-08
-1.66919e-07
-1.14759e-07
-1.63485e-07
-1.31836e-07
-1.60029e-07
-1.48517e-07
-1.56558e-07
-1.64805e-07
-1.53081e-07
-1.80705e-07
-1.49606e-07
-1.96223e-07
-1.46141e-07
-2.11366e-07
-1.42694e-07
-2.2614e-07
-1.39274e-07
-2.40557e-07
-1.35889e-07
-2.54624e-07
-1.32545e-07
-2.68353e-07
-1.29252e-07
-2.81755e-07
-1.26016e-07
-2.94842e-07
-1.22847e-07
-3.07627e-07
-1.19758e-07
-3.20123e-07
-1.16764e-07
-3.32347e-07
-1.13891e-07
-3.44314e-07
-1.11183e-07
-3.56053e-07
-1.08711e-07
-3.67586e-07
-1.06501e-07
-3.78954e-07
-1.04737e-07
-3.90207e-07
-1.03675e-07
-4.01433e-07
-1.03764e-07
-4.1284e-07
-1.05798e-07
-4.24599e-07
-1.09163e-07
-4.36837e-07
-1.13568e-07
-4.49665e-07
-1.18879e-07
-4.63187e-07
-1.25056e-07
-4.77505e-07
-1.32127e-07
-4.92729e-07
-1.40175e-07
-5.08981e-07
-1.49333e-07
-5.26405e-07
-1.5978e-07
-5.45166e-07
-1.7174e-07
-5.65465e-07
-1.85529e-07
-5.87547e-07
-2.01413e-07
-6.1169e-07
-2.19438e-07
-6.38161e-07
-2.39187e-07
-6.67135e-07
-2.59494e-07
-6.98569e-07
-2.7829e-07
-7.3209e-07
-2.92979e-07
-7.67001e-07
-3.01497e-07
-8.02456e-07
-3.0332e-07
-8.3769e-07
-2.9942e-07
-8.72132e-07
-2.9138e-07
-9.05406e-07
-2.8061e-07
-9.37269e-07
-2.68076e-07
-9.67559e-07
-2.54367e-07
-9.96161e-07
-2.39801e-07
-1.02298e-06
-2.2455e-07
-1.04794e-06
-2.08713e-07
-1.07097e-06
-1.92354e-07
-1.09199e-06
-1.75523e-07
-1.11097e-06
-1.58261e-07
-1.12784e-06
-1.40609e-07
-1.14256e-06
-1.22608e-07
-1.15509e-06
-1.04299e-07
-1.16539e-06
-8.5723e-08
-1.17343e-06
-6.69239e-08
-1.1792e-06
-4.79451e-08
-1.18266e-06
-2.88303e-08
-9.62599e-09
6.57579e-07
-7.52553e-09
6.54725e-07
-2.24958e-08
6.4999e-07
-3.7339e-08
6.43395e-07
-5.20113e-08
6.3497e-07
-6.64687e-08
6.2475e-07
-8.0667e-08
6.12774e-07
-9.45601e-08
5.9909e-07
-1.08099e-07
5.83754e-07
-1.21228e-07
5.6683e-07
-1.33882e-07
5.48394e-07
-1.4598e-07
5.28536e-07
-1.57418e-07
5.07365e-07
-1.68063e-07
4.85015e-07
-1.77747e-07
4.61644e-07
-1.8627e-07
4.37438e-07
-1.93417e-07
4.12605e-07
-1.98989e-07
3.87363e-07
-2.02854e-07
3.61929e-07
-2.0499e-07
3.36494e-07
-2.05515e-07
3.11215e-07
-2.0467e-07
2.86205e-07
-2.02775e-07
2.61548e-07
-2.0016e-07
2.37283e-07
-1.97117e-07
2.13429e-07
-1.93872e-07
1.89989e-07
-1.90574e-07
1.66959e-07
-1.87313e-07
1.4433e-07
-1.8413e-07
1.22093e-07
-1.81033e-07
1.00241e-07
-1.78015e-07
7.87695e-08
-1.75057e-07
5.76745e-08
-1.7214e-07
3.69549e-08
-1.69247e-07
1.66105e-08
-1.66363e-07
-3.35847e-09
-1.63481e-07
-2.29514e-08
-1.60598e-07
-4.21653e-08
-1.57692e-07
-6.09968e-08
-1.54749e-07
-7.94426e-08
-1.5177e-07
-9.75005e-08
-1.48759e-07
-1.15169e-07
-1.45721e-07
-1.32448e-07
-1.4266e-07
-1.49339e-07
-1.39583e-07
-1.65842e-07
-1.36498e-07
-1.81961e-07
-1.33411e-07
-1.97701e-07
-1.3033e-07
-2.13066e-07
-1.27262e-07
-2.28063e-07
-1.24214e-07
-2.42698e-07
-1.21193e-07
-2.5698e-07
-1.18207e-07
-2.70917e-07
-1.15261e-07
-2.8452e-07
-1.12363e-07
-2.97797e-07
-1.09523e-07
-3.10761e-07
-1.0675e-07
-3.23425e-07
-1.04061e-07
-3.35802e-07
-1.01478e-07
-3.4791e-07
-9.90465e-08
-3.59776e-07
-9.68242e-08
-3.71424e-07