/*--------------------------------*- C++ -*----------------------------------*\
  =========                 |
  \\      /  F ield         | OpenFOAM: The Open Source CFD Toolbox
   \\    /   O peration     | Website:  https://openfoam.org
    \\  /    A nd           | Version:  8
     \\/     M anipulation  |
\*---------------------------------------------------------------------------*/
FoamFile
{
    version     2.0;
    format      ascii;
    class       volScalarField;
    location    "0.2/fluid";
    object      rho;
}
// * * * * * * * * * * * * * * * * * * * * * * * * * * * * * * * * * * * * * //

dimensions      [1 -3 0 0 0 0 0];

internalField   nonuniform List<scalar> 
4000
(
0.658527
0.658506
0.65847
0.65841
0.658308
0.658139
0.657859
0.657398
0.656651
0.655451
0.653557
0.650625
0.64619
0.639669
0.630404
0.617769
0.601329
0.581024
0.557287
0.531019
0.503398
0.475627
0.448708
0.423337
0.399899
0.378529
0.359194
0.341758
0.326048
0.311867
0.299022
0.287347
0.276695
0.266942
0.257984
0.24973
0.242069
0.234927
0.22825
0.221993
0.216115
0.210582
0.205366
0.200443
0.19579
0.19139
0.187228
0.183289
0.179563
0.17604
0.172711
0.169573
0.16662
0.163855
0.161284
0.15892
0.15679
0.154944
0.153489
0.152473
0.152152
0.152896
0.15539
0.16098
0.16931
0.180071
0.193249
0.209028
0.227763
0.249987
0.276433
0.308079
0.346195
0.392452
0.449026
0.518217
0.601757
0.699441
0.807082
0.91503
1.01018
1.08234
1.12953
1.15676
1.17091
1.17785
1.18113
1.18262
1.1833
1.18359
1.18372
1.18378
1.1838
1.18381
1.18382
1.18382
1.18382
1.18382
1.18382
1.18382
0.658527
0.658506
0.65847
0.658409
0.658307
0.658137
0.657855
0.657392
0.65664
0.655436
0.65354
0.650612
0.646196
0.639724
0.630555
0.618075
0.601853
0.581817
0.558367
0.532359
0.504932
0.47727
0.450374
0.424958
0.401426
0.379936
0.360467
0.342903
0.327065
0.312754
0.299796
0.28802
0.277279
0.267447
0.258419
0.250103
0.242389
0.235199
0.228479
0.222183
0.21627
0.210706
0.205462
0.200513
0.195837
0.191417
0.187235
0.183279
0.179538
0.176001
0.172661
0.169513
0.166552
0.163781
0.161206
0.158841
0.156715
0.154881
0.153447
0.152464
0.152198
0.153034
0.155687
0.161559
0.170143
0.18117
0.194652
0.210798
0.229992
0.252802
0.280008
0.312647
0.352063
0.400039
0.458829
0.530716
0.61719
0.71742
0.826133
0.932641
1.02391
1.09127
1.13445
1.15912
1.17196
1.17829
1.1813
1.18269
1.18332
1.18361
1.18373
1.18378
1.1838
1.18381
1.18382
1.18382
1.18382
1.18382
1.18382
1.18382
0.658527
0.658506
0.65847
0.658408
0.658306
0.658134
0.65785
0.657385
0.65663
0.655422
0.653523
0.650595
0.646188
0.639743
0.630633
0.618256
0.60219
0.582359
0.559143
0.533368
0.506143
0.478626
0.451811
0.426415
0.402854
0.381299
0.361748
0.344086
0.328136
0.313723
0.300666
0.288797
0.277969
0.268057
0.258954
0.25057
0.242795
0.235548
0.228777
0.222432
0.216475
0.210869
0.205587
0.200602
0.195894
0.191442
0.187233
0.183252
0.179488
0.17593
0.172572
0.169407
0.166434
0.163653
0.161073
0.158709
0.156592
0.154785
0.153385
0.152464
0.152301
0.153315
0.156282
0.162572
0.171545
0.18298
0.196924
0.21362
0.233483
0.257124
0.285371
0.319316
0.360364
0.410386
0.471629
0.546219
0.635204
0.73695
0.845211
0.948847
1.03561
1.09847
1.13832
1.161
1.17283
1.17868
1.18147
1.18276
1.18335
1.18362
1.18373
1.18378
1.18381
1.18381
1.18382
1.18382
1.18382
1.18382
1.18382
1.18382
0.658527
0.658506
0.658469
0.658408
0.658305
0.658134
0.65785
0.657384
0.65663
0.655426
0.653536
0.650627
0.646255
0.639868
0.630847
0.618598
0.602696
0.583055
0.560037
0.534442
0.507358
0.47993
0.453152
0.427747
0.404142
0.382521
0.36289
0.34513
0.329092
0.314592
0.301452
0.289505
0.278602
0.268619
0.25945
0.251005
0.243174
0.235875
0.229054
0.222663
0.216661
0.211015
0.205693
0.200672
0.195928
0.191445
0.187206
0.183197
0.179408
0.175827
0.172449
0.169267
0.166279
0.163489
0.160903
0.158542
0.156436
0.154665
0.153316
0.15248
0.152463
0.15373
0.157156
0.163886
0.17329
0.185189
0.199662
0.216981
0.237596
0.262156
0.291536
0.326878
0.369648
0.421797
0.485548
0.562843
0.654285
0.757451
0.865164
0.965877
1.04812
1.10639
1.14275
1.16325
1.1739
1.17917
1.18169
1.18286
1.18339
1.18363
1.18374
1.18379
1.18381
1.18382
1.18382
1.18382
1.18382
1.18382
1.18382
1.18382
0.658527
0.658506
0.658469
0.658408
0.658305
0.658134
0.65785
0.657386
0.656635
0.655436
0.653556
0.650666
0.646325
0.639989
0.631045
0.618902
0.603136
0.583653
0.560799
0.535353
0.508385
0.481031
0.454283
0.428868
0.405225
0.383551
0.363841
0.346009
0.329897
0.315325
0.302115
0.290101
0.279136
0.269093
0.259867
0.251369
0.243489
0.236144
0.229279
0.222846
0.216805
0.21112
0.205762
0.200706
0.195931
0.191417
0.18715
0.183115
0.179302
0.175699
0.172301
0.169103
0.166102
0.163303
0.160714
0.158357
0.156267
0.154539
0.153246
0.152507
0.152654
0.154206
0.158155
0.165336
0.175186
0.187567
0.202587
0.220549
0.241935
0.267431
0.297954
0.334695
0.37918
0.433421
0.49959
0.579407
0.672987
0.777115
0.883792
0.981304
1.05912
1.11322
1.14652
1.16516
1.17482
1.17959
1.18188
1.18294
1.18343
1.18365
1.18375
1.18379
1.18381
1.18382
1.18382
1.18382
1.18382
1.18382
1.18382
1.18382
0.658527
0.658506
0.65847
0.658408
0.658306
0.658135
0.657853
0.657391
0.656645
0.655454
0.653587
0.650719
0.646414
0.640131
0.631263
0.61922
0.603577
0.584229
0.561507
0.536177
0.509293
0.481987
0.45525
0.429816
0.406134
0.384397
0.364628
0.346732
0.330555
0.315921
0.302652
0.290581
0.279562
0.269469
0.260195
0.251652
0.243731
0.236346
0.229443
0.222975
0.216899
0.21118
0.205791
0.200705
0.195901
0.191361
0.187069
0.18301
0.179175
0.175553
0.172139
0.168926
0.165915
0.163109
0.16052
0.158169
0.156096
0.154414
0.153175
0.152533
0.152847
0.154687
0.159168
0.166801
0.177095
0.189951
0.20551
0.224101
0.246239
0.272646
0.304277
0.342368
0.388509
0.444754
0.513209
0.59536
0.690834
0.795664
0.901137
0.995502
1.06919
1.11947
1.15
1.16694
1.17568
1.17999
1.18206
1.18302
1.18347
1.18367
1.18375
1.18379
1.18381
1.18382
1.18382
1.18382
1.18382
1.18382
1.18382
1.18382
0.658527
0.658506
0.65847
0.658409
0.658307
0.658137
0.657857
0.657397
0.656655
0.655473
0.653619
0.650772
0.646499
0.640265
0.631463
0.619507
0.603969
0.584735
0.562125
0.536888
0.51007
0.482797
0.456063
0.430608
0.406887
0.385097
0.365271
0.347317
0.331085
0.316396
0.303076
0.290957
0.279893
0.269757
0.260443
0.251861
0.243905
0.236487
0.229552
0.223052
0.216946
0.2112
0.205784
0.200673
0.195845
0.191281
0.186967
0.182889
0.179036
0.175398
0.171969
0.168746
0.165727
0.162918
0.160331
0.157991
0.15594
0.154303
0.153089
0.152548
0.153026
0.155146
0.160142
0.168211
0.178931
0.192241
0.208312
0.227501
0.250352
0.27762
0.3103
0.349666
0.397378
0.455506
0.526085
0.610356
0.707457
0.81271
0.9168
1.00808
1.07795
1.12483
1.15296
1.16846
1.17642
1.18034
1.18222
1.1831
1.1835
1.18368
1.18376
1.18379
1.18381
1.18382
1.18382
1.18382
1.18382
1.18382
1.18382
1.18382
0.658527
0.658506
0.65847
0.65841
0.658308
0.658139
0.65786
0.657404
0.656666
0.655492
0.653651
0.650823
0.646581
0.640391
0.631649
0.61977
0.604321
0.585183
0.562663
0.537499
0.510731
0.483479
0.456741
0.431264
0.407499
0.385664
0.365788
0.347784
0.331502
0.316768
0.303403
0.291243
0.280141
0.269969
0.260621
0.252008
0.244022
0.236576
0.229613
0.223087
0.216957
0.211188
0.205749
0.200617
0.195768
0.191185
0.186853
0.182758
0.17889
0.175239
0.171799
0.168567
0.165543
0.162732
0.160149
0.157819
0.155787
0.154183
0.153021
0.152569
0.153195
0.155575
0.161049
0.169525
0.180641
0.194374
0.210921
0.230664
0.254177
0.282244
0.315897
0.356448
0.40562
0.46549
0.538011
0.624179
0.722659
0.828121
0.930763
1.01913
1.08556
1.12946
1.15552
1.16977
1.17706
1.18064
1.18236
1.18316
1.18353
1.18369
1.18376
1.1838
1.18381
1.18382
1.18382
1.18382
1.18382
1.18382
1.18382
1.18382
0.658527
0.658506
0.65847
0.65841
0.658309
0.658141
0.657864
0.65741
0.656677
0.655509
0.65368
0.650871
0.646655
0.640503
0.631813
0.619999
0.604627
0.585568
0.563121
0.538017
0.511285
0.484046
0.457299
0.431794
0.407994
0.386119
0.366199
0.348151
0.331827
0.317053
0.303651
0.291456
0.280322
0.27012
0.260744
0.252103
0.244093
0.236623
0.229638
0.223091
0.216941
0.211152
0.205694
0.200544
0.195678
0.19108
0.186733
0.182624
0.178744
0.175082
0.171634
0.168396
0.165368
0.162556
0.159977
0.157656
0.155647
0.154073
0.152962
0.152592
0.153354
0.155971
0.161879
0.170725
0.182203
0.196321
0.213301
0.23355
0.257666
0.286464
0.321006
0.362643
0.413155
0.474616
0.548891
0.636734
0.736366
0.841865
0.943041
1.0287
1.09206
1.13338
1.15768
1.17087
1.1776
1.1809
1.18247
1.18321
1.18355
1.1837
1.18377
1.1838
1.18381
1.18382
1.18382
1.18382
1.18382
1.18382
1.18382
1.18382
0.658528
0.658506
0.658471
0.658411
0.65831
0.658143
0.657867
0.657416
0.656687
0.655525
0.653707
0.650913
0.646721
0.640602
0.631956
0.620198
0.604888
0.585895
0.563508
0.538449
0.511745
0.484513
0.457757
0.432226
0.408393
0.386479
0.366521
0.348436
0.332076
0.317267
0.303834
0.291611
0.280449
0.270222
0.260822
0.25216
0.244128
0.236639
0.229636
0.223072
0.216904
0.211099
0.205626
0.200461
0.195582
0.19097
0.186611
0.182492
0.178602
0.174933
0.171478
0.168235
0.165204
0.162394
0.159819
0.157509
0.155523
0.153979
0.152915
0.152623
0.153512
0.156346
0.162638
0.171813
0.183613
0.198074
0.215442
0.236145
0.260805
0.290261
0.325606
0.368225
0.41995
0.482844
0.558683
0.647991
0.748572
0.853983
0.953733
1.03693
1.0976
1.1367
1.15949
1.1718
1.17805
1.18111
1.18257
1.18326
1.18357
1.18371
1.18377
1.1838
1.18381
1.18382
1.18382
1.18382
1.18382
1.18382
1.18382
1.18382
0.658528
0.658506
0.658471
0.658411
0.658311
0.658145
0.65787
0.657421
0.656695
0.65554
0.65373
0.65095
0.646778
0.640687
0.632078
0.620366
0.605108
0.586168
0.563829
0.538806
0.512121
0.484893
0.458122
0.432569
0.408707
0.386762
0.36677
0.348653
0.332262
0.317425
0.303966
0.291718
0.280534
0.270286
0.260867
0.252186
0.244138
0.236634
0.229616
0.223036
0.216855
0.211037
0.205551
0.200374
0.195484
0.190862
0.186494
0.182366
0.178468
0.174793
0.171333
0.168087
0.165056
0.162247
0.159678
0.15738
0.155417
0.153903
0.152888
0.152675
0.153696
0.156766
0.16336
0.172807
0.184881
0.199641
0.217349
0.238453
0.263595
0.293637
0.329698
0.373197
0.426006
0.490177
0.567395
0.657971
0.759325
0.86456
0.96296
1.04395
1.10228
1.13948
1.16101
1.17257
1.17843
1.18129
1.18266
1.18329
1.18359
1.18372
1.18378
1.1838
1.18381
1.18382
1.18382
1.18382
1.18382
1.18382
1.18382
1.18382
0.658528
0.658507
0.658471
0.658412
0.658312
0.658146
0.657872
0.657425
0.656702
0.655552
0.653749
0.650981
0.646826
0.640758
0.632181
0.620506
0.605291
0.586394
0.564092
0.539095
0.512424
0.485195
0.458413
0.43284
0.408953
0.386979
0.36696
0.348815
0.332399
0.317539
0.304058
0.29179
0.280587
0.270322
0.260887
0.252192
0.244131
0.236613
0.229582
0.222991
0.216799
0.21097
0.205474
0.200288
0.195388
0.190758
0.186383
0.182248
0.178345
0.174665
0.171202
0.167954
0.164923
0.162117
0.159554
0.157267
0.155328
0.153844
0.152877
0.152742
0.153896
0.157202
0.164034
0.173704
0.186009
0.201025
0.219029
0.240483
0.266047
0.296605
0.333297
0.377574
0.431341
0.496635
0.575058
0.66672
0.768699
0.873704
0.970856
1.0499
1.10621
1.14181
1.16227
1.17321
1.17874
1.18144
1.18272
1.18332
1.1836
1.18372
1.18378
1.1838
1.18381
1.18382
1.18382
1.18382
1.18382
1.18382
1.18382
1.18382
0.658528
0.658507
0.658471
0.658412
0.658313
0.658147
0.657875
0.657429
0.656709
0.655562
0.653766
0.651007
0.646866
0.640818
0.632265
0.620622
0.605441
0.586577
0.564305
0.539329
0.512668
0.485436
0.458642
0.433051
0.409142
0.387145
0.367102
0.348935
0.332497
0.317618
0.304119
0.291835
0.280617
0.270338
0.260891
0.252184
0.244112
0.236583
0.229543
0.222942
0.21674
0.210903
0.205399
0.200205
0.195299
0.190662
0.186281
0.182142
0.178234
0.174551
0.171085
0.167837
0.164806
0.162004
0.159447
0.157171
0.155254
0.153797
0.152875
0.152813
0.154089
0.157617
0.164641
0.174495
0.186995
0.20223
0.220488
0.242245
0.268176
0.299182
0.336423
0.38138
0.435982
0.502253
0.581715
0.674297
0.776775
0.881523
0.977547
1.05489
1.10948
1.14373
1.16332
1.17374
1.179
1.18156
1.18278
1.18335
1.18361
1.18373
1.18378
1.1838
1.18381
1.18382
1.18382
1.18382
1.18382
1.18382
1.18382
1.18382
0.658528
0.658507
0.658472
0.658412
0.658313
0.658148
0.657876
0.657432
0.656714
0.65557
0.65378
0.651029
0.646899
0.640866
0.632334
0.620715
0.605561
0.586724
0.564474
0.539514
0.512858
0.485624
0.45882
0.433213
0.409285
0.387269
0.367206
0.34902
0.332566
0.317671
0.304157
0.29186
0.280631
0.270341
0.260883
0.252167
0.244086
0.236549
0.2295
0.222892
0.216683
0.210839
0.205329
0.200129
0.195217
0.190576
0.18619
0.182047
0.178136
0.17445
0.170984
0.167735
0.164706
0.161906
0.159355
0.157089
0.155192
0.15376
0.152877
0.152878
0.154261
0.157981
0.165166
0.175176
0.187841
0.203261
0.221735
0.243751
0.269996
0.301386
0.339098
0.384639
0.439959
0.507066
0.587411
0.680765
0.783638
0.888125
0.983153
1.05905
1.11218
1.14532
1.16417
1.17418
1.17921
1.18166
1.18283
1.18337
1.18362
1.18373
1.18378
1.1838
1.18381
1.18382
1.18382
1.18382
1.18382
1.18382
1.18382
1.18382
0.658528
0.658507
0.658472
0.658413
0.658314
0.658149
0.657878
0.657434
0.656718
0.655577
0.653791
0.651046
0.646925
0.640905
0.632389
0.620789
0.605656
0.58684
0.564607
0.539659
0.513006
0.485768
0.458955
0.433335
0.409392
0.38736
0.367281
0.349081
0.332613
0.317705
0.30418
0.291872
0.280634
0.270335
0.260869
0.252146
0.244057
0.236513
0.229459
0.222845
0.21663
0.210781
0.205266
0.200061
0.195145
0.1905
0.186111
0.181965
0.178052
0.174365
0.170897
0.167648
0.16462
0.161824
0.159278
0.15702
0.155141
0.153729
0.152879
0.152933
0.154406
0.158288
0.165608
0.175747
0.18855
0.204125
0.222781
0.245013
0.271521
0.303234
0.341343
0.387378
0.443302
0.511111
0.592195
0.686184
0.789367
0.893606
0.987775
1.06245
1.11439
1.1466
1.16487
1.17453
1.17938
1.18174
1.18287
1.18339
1.18363
1.18374
1.18378
1.18381
1.18381
1.18382
1.18382
1.18382
1.18382
1.18382
1.18382
1.18382
0.658528
0.658507
0.658472
0.658413
0.658314
0.65815
0.657879
0.657436
0.656721
0.655583
0.653799
0.651059
0.646946
0.640935
0.632432
0.620846
0.60573
0.586929
0.564709
0.539768
0.513118
0.485877
0.459056
0.433425
0.40947
0.387425
0.367334
0.349122
0.332643
0.317725
0.304192
0.291876
0.28063
0.270325
0.260853
0.252123
0.244029
0.23648
0.229421
0.222802
0.216584
0.21073
0.205212
0.200003
0.195084
0.190436
0.186045
0.181896
0.177982
0.174293
0.170825
0.167576
0.16455
0.161756
0.159215
0.156964
0.1551
0.153704
0.152881
0.152978
0.154524
0.158539
0.165968
0.176213
0.189128
0.20483
0.223634
0.246043
0.272767
0.304744
0.343179
0.389618
0.446038
0.514422
0.596107
0.690609
0.794031
0.898049
0.991504
1.06518
1.11615
1.14763
1.16542
1.17481
1.17952
1.18181
1.1829
1.1834
1.18363
1.18374
1.18379
1.18381
1.18381
1.18382
1.18382
1.18382
1.18382
1.18382
1.18382
1.18382
0.658528
0.658507
0.658472
0.658413
0.658314
0.65815
0.65788
0.657438
0.656724
0.655587
0.653806
0.65107
0.646961
0.640958
0.632464
0.62089
0.605785
0.586996
0.564785
0.539849
0.5132
0.485956
0.459129
0.43349
0.409525
0.38747
0.36737
0.349149
0.332662
0.317737
0.304196
0.291875
0.280623
0.270313
0.260836
0.252103
0.244004
0.236452
0.229389
0.222767
0.216545
0.210688
0.205167
0.199956
0.195035
0.190385
0.185991
0.181842
0.177926
0.174236
0.170768
0.16752
0.164494
0.161702
0.159165
0.15692
0.155067
0.153685
0.152882
0.153013
0.154616
0.158735
0.16625
0.176578
0.189582
0.205383
0.224303
0.246853
0.273746
0.305931
0.344623
0.391381
0.448192
0.517028
0.599185
0.694085
0.797685
0.901519
0.994406
1.06729
1.11751
1.14842
1.16584
1.17502
1.17962
1.18186
1.18292
1.18341
1.18364
1.18374
1.18379
1.18381
1.18382
1.18382
1.18382
1.18382
1.18382
1.18382
1.18382
1.18382
0.658528
0.658507
0.658472
0.658413
0.658315
0.658151
0.65788
0.657439
0.656725
0.65559
0.653811
0.651077
0.646972
0.640974
0.632487
0.62092
0.605824
0.587043
0.564838
0.539906
0.513258
0.486012
0.45918
0.433534
0.409562
0.3875
0.367393
0.349166
0.332673
0.317742
0.304197
0.291871
0.280616
0.270302
0.260822
0.252085
0.243984
0.236429
0.229363
0.222739
0.216515
0.210656
0.205133
0.19992
0.194997
0.190346
0.185951
0.1818
0.177884
0.174194
0.170726
0.167477
0.164453
0.161663
0.159128
0.156887
0.155043
0.15367
0.152884
0.153039
0.154685
0.15888
0.166459
0.176848
0.189917
0.205792
0.224798
0.247451
0.27447
0.306809
0.34569
0.392686
0.449785
0.518955
0.601458
0.696649
0.800376
0.904068
0.996534
1.06884
1.11851
1.149
1.16616
1.17518
1.1797
1.18189
1.18294
1.18342
1.18364
1.18374
1.18379
1.18381
1.18382
1.18382
1.18382
1.18382
1.18382
1.18382
1.18382
1.18382
0.658528
0.658507
0.658472
0.658413
0.658315
0.658151
0.657881
0.657439
0.656727
0.655592
0.653814
0.651082
0.646979
0.640985
0.632501
0.62094
0.605849
0.587072
0.564872
0.539942
0.513294
0.486046
0.459211
0.433561
0.409585
0.387518
0.367407
0.349175
0.332679
0.317745
0.304197
0.291868
0.28061
0.270294
0.260812
0.252073
0.24397
0.236413
0.229346
0.22272
0.216494
0.210634
0.20511
0.199896
0.194972
0.190319
0.185924
0.181773
0.177856
0.174166
0.170697
0.167449
0.164425
0.161636
0.159104
0.156866
0.155027
0.153661
0.152884
0.153056
0.15473
0.158975
0.166596
0.177026
0.190138
0.206062
0.225125
0.247845
0.274947
0.307388
0.346394
0.393545
0.450833
0.520222
0.602951
0.698327
0.802131
0.905725
0.997912
1.06985
1.11916
1.14938
1.16636
1.17528
1.17975
1.18192
1.18295
1.18343
1.18365
1.18374
1.18379
1.18381
1.18382
1.18382
1.18382
1.18382
1.18382
1.18382
1.18382
1.18382
0.658528
0.658507
0.658472
0.658413
0.658315
0.658151
0.657881
0.65744
0.656727
0.655593
0.653815
0.651084
0.646983
0.640989
0.632508
0.620949
0.60586
0.587086
0.564888
0.539959
0.513311
0.486062
0.459226
0.433574
0.409596
0.387527
0.367413
0.349179
0.332681
0.317746
0.304196
0.291866
0.280607
0.27029
0.260807
0.252067
0.243963
0.236405
0.229337
0.22271
0.216484
0.210623
0.205098
0.199884
0.194959
0.190307
0.185911
0.181759
0.177842
0.174152
0.170683
0.167435
0.164412
0.161623
0.159092
0.156855
0.155019
0.153656
0.152885
0.153065
0.154752
0.159022
0.166664
0.177114
0.190247
0.206194
0.225285
0.248039
0.275181
0.307671
0.346737
0.393963
0.451342
0.520834
0.603668
0.699129
0.802963
0.906503
0.998554
1.07031
1.11946
1.14955
1.16646
1.17533
1.17977
1.18193
1.18295
1.18343
1.18365
1.18374
1.18379
1.18381
1.18382
1.18382
1.18382
1.18382
1.18382
1.18382
1.18382
1.18382
0.658528
0.658507
0.658472
0.658413
0.658315
0.658151
0.657881
0.65744
0.656727
0.655593
0.653815
0.651084
0.646983
0.640989
0.632508
0.620949
0.60586
0.587086
0.564887
0.539959
0.513311
0.486062
0.459226
0.433574
0.409596
0.387527
0.367413
0.34918
0.332681
0.317746
0.304196
0.291866
0.280607
0.27029
0.260807
0.252067
0.243963
0.236405
0.229337
0.222711
0.216484
0.210623
0.205098
0.199884
0.194959
0.190307
0.185911
0.181759
0.177842
0.174152
0.170683
0.167435
0.164412
0.161623
0.159092
0.156855
0.155019
0.153656
0.152885
0.153065
0.154752
0.159022
0.166664
0.177114
0.190247
0.206194
0.225285
0.248039
0.275181
0.307671
0.346737
0.393963
0.451342
0.520834
0.603668
0.699129
0.802963
0.906503
0.998553
1.07031
1.11946
1.14955
1.16646
1.17533
1.17977
1.18193
1.18295
1.18343
1.18365
1.18374
1.18379
1.18381
1.18382
1.18382
1.18382
1.18382
1.18382
1.18382
1.18382
1.18382
0.658528
0.658507
0.658472
0.658413
0.658315
0.658151
0.657881
0.657439
0.656727
0.655592
0.653814
0.651082
0.646979
0.640984
0.632501
0.62094
0.605849
0.587072
0.564872
0.539942
0.513294
0.486046
0.459211
0.433561
0.409585
0.387518
0.367407
0.349175
0.332679
0.317745
0.304197
0.291868
0.28061
0.270294
0.260812
0.252073
0.24397
0.236413
0.229346
0.22272
0.216494
0.210634
0.20511
0.199896
0.194972
0.190319
0.185924
0.181773
0.177856
0.174166
0.170697
0.167449
0.164425
0.161636
0.159104
0.156866
0.155027
0.153661
0.152884
0.153056
0.15473
0.158975
0.166596
0.177026
0.190138
0.206062
0.225125
0.247845
0.274947
0.307388
0.346394
0.393545
0.450834
0.520222
0.602951
0.698327
0.802131
0.905724
0.997911
1.06985
1.11916
1.14938
1.16636
1.17528
1.17975
1.18192
1.18295
1.18343
1.18365
1.18374
1.18379
1.18381
1.18382
1.18382
1.18382
1.18382
1.18382
1.18382
1.18382
1.18382
0.658528
0.658507
0.658472
0.658413
0.658315
0.658151
0.65788
0.657439
0.656725
0.65559
0.653811
0.651077
0.646972
0.640974
0.632486
0.62092
0.605824
0.587043
0.564838
0.539906
0.513258
0.486012
0.45918
0.433534
0.409563
0.3875
0.367394
0.349166
0.332673
0.317743
0.304198
0.291872
0.280616
0.270302
0.260822
0.252086
0.243984
0.236429
0.229363
0.222739
0.216515
0.210656
0.205133
0.19992
0.194997
0.190346
0.185951
0.1818
0.177884
0.174194
0.170726
0.167477
0.164453
0.161663
0.159128
0.156887
0.155043
0.15367
0.152884
0.153039
0.154685
0.15888
0.166459
0.176849
0.189918
0.205792
0.224799
0.247451
0.27447
0.30681
0.345691
0.392686
0.449785
0.518955
0.601458
0.696648
0.800375
0.904067
0.996533
1.06884
1.11851
1.149
1.16616
1.17518
1.1797
1.18189
1.18294
1.18342
1.18364
1.18374
1.18379
1.18381
1.18382
1.18382
1.18382
1.18382
1.18382
1.18382
1.18382
1.18382
0.658528
0.658507
0.658472
0.658413
0.658314
0.65815
0.65788
0.657438
0.656724
0.655587
0.653806
0.65107
0.646961
0.640958
0.632463
0.620889
0.605785
0.586995
0.564785
0.539849
0.5132
0.485957
0.45913
0.43349
0.409525
0.38747
0.36737
0.349149
0.332662
0.317737
0.304197
0.291875
0.280623
0.270313
0.260837
0.252103
0.244005
0.236452
0.229389
0.222767
0.216545
0.210688
0.205167
0.199956
0.195035
0.190385
0.185991
0.181842
0.177926
0.174236
0.170768
0.16752
0.164494
0.161702
0.159165
0.15692
0.155067
0.153685
0.152882
0.153013
0.154617
0.158735
0.16625
0.176579
0.189582
0.205384
0.224304
0.246853
0.273747
0.305932
0.344623
0.391382
0.448192
0.517028
0.599185
0.694084
0.797684
0.901518
0.994404
1.06729
1.11751
1.14842
1.16584
1.17502
1.17962
1.18186
1.18292
1.18341
1.18364
1.18374
1.18379
1.18381
1.18382
1.18382
1.18382
1.18382
1.18382
1.18382
1.18382
1.18382
0.658528
0.658507
0.658472
0.658413
0.658314
0.65815
0.657879
0.657436
0.656721
0.655583
0.653799
0.651059
0.646946
0.640935
0.632431
0.620846
0.60573
0.586929
0.564709
0.539768
0.513118
0.485877
0.459057
0.433426
0.40947
0.387425
0.367335
0.349122
0.332644
0.317726
0.304192
0.291877
0.28063
0.270325
0.260853
0.252124
0.24403
0.236481
0.229421
0.222803
0.216584
0.21073
0.205212
0.200003
0.195084
0.190436
0.186045
0.181897
0.177982
0.174293
0.170825
0.167576
0.16455
0.161756
0.159215
0.156964
0.1551
0.153704
0.152881
0.152978
0.154524
0.158539
0.165968
0.176213
0.189128
0.20483
0.223634
0.246044
0.272768
0.304744
0.34318
0.389619
0.446038
0.514422
0.596107
0.690608
0.794029
0.898047
0.991502
1.06517
1.11614
1.14763
1.16542
1.17481
1.17952
1.18181
1.1829
1.1834
1.18363
1.18374
1.18379
1.18381
1.18381
1.18382
1.18382
1.18382
1.18382
1.18382
1.18382
1.18382
0.658528
0.658507
0.658472
0.658413
0.658314
0.658149
0.657878
0.657434
0.656718
0.655577
0.653791
0.651046
0.646925
0.640905
0.632389
0.620789
0.605656
0.58684
0.564607
0.539659
0.513006
0.485769
0.458956
0.433336
0.409393
0.38736
0.367282
0.349081
0.332613
0.317705
0.304181
0.291873
0.280634
0.270336
0.26087
0.252146
0.244058
0.236514
0.229459
0.222845
0.216631
0.210781
0.205266
0.200061
0.195145
0.1905
0.186111
0.181965
0.178052
0.174365
0.170897
0.167648
0.16462
0.161824
0.159278
0.15702
0.155141
0.153729
0.152879
0.152933
0.154406
0.158289
0.165608
0.175748
0.18855
0.204126
0.222781
0.245014
0.271522
0.303234
0.341344
0.387378
0.443302
0.511111
0.592195
0.686183
0.789365
0.893604
0.987773
1.06244
1.11438
1.1466
1.16487
1.17453
1.17938
1.18174
1.18287
1.18339
1.18363
1.18374
1.18378
1.18381
1.18381
1.18382
1.18382
1.18382
1.18382
1.18382
1.18382
1.18382
0.658528
0.658507
0.658472
0.658412
0.658313
0.658148
0.657876
0.657432
0.656714
0.65557
0.65378
0.651029
0.646899
0.640866
0.632334
0.620715
0.605561
0.586724
0.564474
0.539514
0.512858
0.485624
0.458821
0.433214
0.409286
0.38727
0.367207
0.349021
0.332567
0.317672
0.304158
0.291861
0.280632
0.270342
0.260884
0.252168
0.244086
0.236549
0.229501
0.222893
0.216684
0.210839
0.205329
0.200129
0.195217
0.190576
0.18619
0.182047
0.178136
0.17445
0.170984
0.167735
0.164706
0.161906
0.159355
0.157089
0.155192
0.15376
0.152877
0.152878
0.154261
0.157982
0.165167
0.175177
0.187842
0.203262
0.221736
0.243752
0.269997
0.301386
0.339099
0.38464
0.43996
0.507066
0.587412
0.680765
0.783637
0.888123
0.98315
1.05904
1.11218
1.14532
1.16417
1.17418
1.17921
1.18166
1.18283
1.18337
1.18362
1.18373
1.18378
1.1838
1.18381
1.18382
1.18382
1.18382
1.18382
1.18382
1.18382
1.18382
0.658528
0.658507
0.658471
0.658412
0.658313
0.658147
0.657874
0.657429
0.656709
0.655562
0.653766
0.651007
0.646866
0.640818
0.632265
0.620621
0.605441
0.586577
0.564305
0.539329
0.512668
0.485437
0.458643
0.433052
0.409143
0.387146
0.367103
0.348936
0.332499
0.317619
0.30412
0.291836
0.280618
0.270339
0.260892
0.252185
0.244112
0.236584
0.229543
0.222943
0.216741
0.210903
0.2054
0.200205
0.195299
0.190663
0.186281
0.182142
0.178234
0.174551
0.171086
0.167837
0.164806
0.162004
0.159447
0.157171
0.155254
0.153797
0.152875
0.152813
0.154089
0.157617
0.164642
0.174496
0.186996
0.202231
0.220489
0.242246
0.268177
0.299183
0.336424
0.381381
0.435983
0.502254
0.581715
0.674297
0.776774
0.881522
0.977545
1.05489
1.10948
1.14373
1.16332
1.17374
1.179
1.18156
1.18278
1.18335
1.18361
1.18373
1.18378
1.1838
1.18381
1.18382
1.18382
1.18382
1.18382
1.18382
1.18382
1.18382
0.658528
0.658507
0.658471
0.658412
0.658312
0.658146
0.657872
0.657425
0.656702
0.655552
0.653749
0.650981
0.646826
0.640758
0.632181
0.620506
0.605291
0.586394
0.564092
0.539096
0.512424
0.485195
0.458414
0.432841
0.408954
0.386981
0.366961
0.348816
0.3324
0.31754
0.304059
0.291791
0.280588
0.270323
0.260888
0.252193
0.244132
0.236614
0.229583
0.222992
0.216799
0.21097
0.205475
0.200288
0.195389
0.190759
0.186383
0.182249
0.178345
0.174665
0.171202
0.167954
0.164923
0.162117
0.159554
0.157267
0.155328
0.153844
0.152877
0.152742
0.153896
0.157203
0.164035
0.173705
0.18601
0.201026
0.21903
0.240484
0.266049
0.296607
0.333299
0.377576
0.431343
0.496637
0.57506
0.666721
0.768699
0.873703
0.970854
1.0499
1.1062
1.14181
1.16227
1.17321
1.17874
1.18144
1.18272
1.18332
1.1836
1.18372
1.18378
1.1838
1.18381
1.18382
1.18382
1.18382
1.18382
1.18382
1.18382
1.18382
0.658528
0.658506
0.658471
0.658411
0.658311
0.658145
0.65787
0.657421
0.656695
0.655539
0.65373
0.65095
0.646778
0.640687
0.632078
0.620366
0.605108
0.586168
0.563829
0.538806
0.512122
0.484894
0.458124
0.43257
0.408709
0.386763
0.366772
0.348654
0.332263
0.317427
0.303967
0.291719
0.280535
0.270287
0.260868
0.252187
0.244139
0.236634
0.229616
0.223037
0.216856
0.211037
0.205552
0.200374
0.195484
0.190862
0.186494
0.182366
0.178469
0.174793
0.171333
0.168087
0.165056
0.162247
0.159678
0.157379
0.155416
0.153903
0.152888
0.152675
0.153697
0.156766
0.163361
0.172808
0.184882
0.199642
0.217351
0.238455
0.263597
0.293639
0.3297
0.373199
0.426009
0.49018
0.567398
0.657974
0.759327
0.86456
0.962959
1.04395
1.10228
1.13948
1.16101
1.17257
1.17843
1.18129
1.18266
1.18329
1.18359
1.18372
1.18378
1.1838
1.18381
1.18382
1.18382
1.18382
1.18382
1.18382
1.18382
1.18382
0.658528
0.658506
0.658471
0.658411
0.65831
0.658143
0.657867
0.657416
0.656686
0.655525
0.653706
0.650913
0.646721
0.640602
0.631956
0.620197
0.604888
0.585895
0.563508
0.53845
0.511746
0.484514
0.457758
0.432227
0.408395
0.386481
0.366523
0.348437
0.332077
0.317269
0.303836
0.291612
0.28045
0.270223
0.260823
0.252161
0.244129
0.23664
0.229637
0.223072
0.216905
0.2111
0.205627
0.200461
0.195582
0.19097
0.186611
0.182492
0.178602
0.174933
0.171478
0.168235
0.165204
0.162394
0.159819
0.157509
0.155522
0.153979
0.152915
0.152623
0.153512
0.156347
0.162639
0.171814
0.183614
0.198076
0.215444
0.236147
0.260807
0.290264
0.325609
0.368229
0.419954
0.482849
0.558688
0.647995
0.748575
0.853984
0.953733
1.03693
1.0976
1.1367
1.15949
1.1718
1.17805
1.18111
1.18257
1.18326
1.18357
1.18371
1.18377
1.1838
1.18381
1.18382
1.18382
1.18382
1.18382
1.18382
1.18382
1.18382
0.658527
0.658506
0.65847
0.65841
0.658309
0.658141
0.657864
0.65741
0.656677
0.655509
0.65368
0.650871
0.646655
0.640503
0.631813
0.619999
0.604626
0.585568
0.563122
0.538017
0.511286
0.484047
0.457301
0.431795
0.407996
0.386121
0.366201
0.348153
0.331829
0.317055
0.303653
0.291458
0.280323
0.270121
0.260745
0.252105
0.244094
0.236624
0.229639
0.223092
0.216941
0.211152
0.205695
0.200544
0.195678
0.19108
0.186733
0.182624
0.178744
0.175083
0.171634
0.168396
0.165367
0.162556
0.159977
0.157656
0.155647
0.154073
0.152962
0.152592
0.153355
0.155971
0.16188
0.170727
0.182205
0.196323
0.213304
0.233553
0.25767
0.286468
0.321011
0.362648
0.413161
0.474622
0.548897
0.636741
0.736371
0.841869
0.943043
1.0287
1.09206
1.13338
1.15767
1.17087
1.1776
1.1809
1.18247
1.18321
1.18355
1.1837
1.18377
1.1838
1.18381
1.18382
1.18382
1.18382
1.18382
1.18382
1.18382
1.18382
0.658527
0.658506
0.65847
0.65841
0.658308
0.658139
0.65786
0.657404
0.656666
0.655491
0.653651
0.650823
0.646581
0.64039
0.631648
0.619769
0.604321
0.585183
0.562663
0.5375
0.510732
0.483481
0.456743
0.431266
0.407501
0.385666
0.36579
0.347786
0.331505
0.31677
0.303405
0.291245
0.280142
0.269971
0.260623
0.252009
0.244023
0.236577
0.229614
0.223088
0.216958
0.211189
0.20575
0.200617
0.195768
0.191186
0.186853
0.182758
0.17889
0.175239
0.171799
0.168567
0.165543
0.162732
0.160149
0.157818
0.155787
0.154183
0.153021
0.152569
0.153196
0.155575
0.16105
0.169527
0.180644
0.194377
0.210924
0.230668
0.254181
0.282249
0.315903
0.356454
0.405628
0.465498
0.53802
0.624188
0.722668
0.828128
0.930767
1.01913
1.08556
1.12946
1.15552
1.16977
1.17706
1.18064
1.18236
1.18316
1.18353
1.18369
1.18376
1.1838
1.18381
1.18382
1.18382
1.18382
1.18382
1.18382
1.18382
1.18382
0.658527
0.658506
0.65847
0.658409
0.658307
0.658137
0.657856
0.657397
0.656655
0.655472
0.653619
0.650772
0.646499
0.640264
0.631462
0.619507
0.603969
0.584735
0.562125
0.536888
0.510071
0.482799
0.456065
0.43061
0.406889
0.385099
0.365273
0.34732
0.331087
0.316399
0.303078
0.290959
0.279894
0.269758
0.260444
0.251863
0.243906
0.236488
0.229553
0.223053
0.216947
0.211201
0.205785
0.200673
0.195845
0.191282
0.186968
0.182889
0.179036
0.175398
0.171969
0.168746
0.165727
0.162918
0.160331
0.157991
0.15594
0.154303
0.153089
0.152549
0.153026
0.155147
0.160144
0.168213
0.178934
0.192245
0.208316
0.227505
0.250358
0.277626