/*--------------------------------*- C++ -*----------------------------------*\
  =========                 |
  \\      /  F ield         | OpenFOAM: The Open Source CFD Toolbox
   \\    /   O peration     | Website:  https://openfoam.org
    \\  /    A nd           | Version:  8
     \\/     M anipulation  |
\*---------------------------------------------------------------------------*/
FoamFile
{
    version     2.0;
    format      ascii;
    class       volScalarField;
    location    "0.2/fluid";
    object      T;
}
// * * * * * * * * * * * * * * * * * * * * * * * * * * * * * * * * * * * * * //

dimensions      [0 0 0 1 0 0 0];

internalField   nonuniform List<scalar> 
4000
(
293.003
293.014
293.032
293.062
293.112
293.196
293.336
293.565
293.939
294.539
295.492
296.98
299.258
302.672
307.66
314.736
324.452
337.329
353.772
373.998
398.007
425.603
456.448
490.144
526.291
564.531
604.568
646.166
689.178
733.475
778.917
825.413
872.874
921.2
970.277
1019.99
1070.38
1121.37
1172.88
1224.81
1277.04
1329.48
1382.03
1434.56
1486.97
1539.16
1591
1642.38
1693.18
1743.29
1792.57
1840.89
1888.07
1933.92
1978.15
2020.37
2060.02
2096.15
2126.73
2151.33
2165.7
2164.35
2138.15
2071.74
1976.94
1865.22
1743.77
1617.22
1488.66
1360.2
1233.4
1109.51
989.674
874.91
766.219
665.131
573.707
494.253
428.807
378.536
343.082
320.328
307.012
299.821
296.214
294.477
293.666
293.295
293.129
293.056
293.024
293.01
293.004
293.002
293.001
293
293
293
293
293
293.003
293.014
293.032
293.062
293.113
293.197
293.338
293.569
293.944
294.547
295.501
296.987
299.255
302.644
307.578
314.562
324.134
336.807
352.988
372.909
396.591
423.861
454.406
487.841
523.775
561.854
601.781
643.341
686.346
730.613
776.066
822.609
870.146
918.575
967.78
1017.64
1068.18
1119.35
1171.05
1223.17
1275.61
1328.26
1381.02
1433.78
1486.42
1538.83
1590.9
1642.5
1693.53
1743.85
1793.33
1841.84
1889.19
1935.19
1979.54
2021.85
2061.52
2097.52
2127.86
2152.02
2165.62
2162.99
2134.67
2064.91
1967.82
1854.45
1731.72
1604.14
1474.7
1345.48
1218.03
1093.63
973.462
858.55
750.036
649.616
559.486
481.963
418.986
371.431
338.508
317.722
305.689
299.214
295.95
294.368
293.622
293.278
293.122
293.053
293.023
293.01
293.004
293.002
293.001
293
293
293
293
293
293.003
293.014
293.032
293.062
293.113
293.199
293.34
293.572
293.949
294.554
295.51
296.995
299.259
302.634
307.535
314.457
323.928
336.45
352.427
372.092
395.48
422.434
452.659
485.788
521.442
559.275
599.008
640.409
683.251
727.43
772.833
819.363
866.926
915.418
964.721
1014.71
1065.41
1116.76
1168.67
1221.03
1273.73
1326.67
1379.73
1432.8
1485.76
1538.52
1590.92
1642.87
1694.23
1744.88
1794.69
1843.5
1891.14
1937.38
1981.92
2024.34
2064
2099.69
2129.62
2152.96
2165.11
2159.99
2127.51
2052.99
1952.67
1836.99
1712.56
1583.72
1453.35
1323.49
1195.7
1071.27
951.439
837.239
729.965
631.396
543.773
469.294
409.593
365.126
334.703
315.649
304.654
298.732
295.733
294.273
293.581
293.261
293.115
293.05
293.022
293.009
293.004
293.002
293.001
293
293
293
293
293
293.003
293.014
293.032
293.063
293.114
293.199
293.341
293.573
293.949
294.552
295.503
296.979
299.225
302.567
307.417
314.261
323.62
335.993
351.782
371.227
394.37
421.069
451.039
483.924
519.353
556.988
596.549
637.768
680.49
724.577
769.919
816.419
863.985
912.515
961.894
1011.99
1062.83
1114.35
1166.46
1219.05
1272.02
1325.25
1378.62
1432.03
1485.36
1538.48
1591.26
1643.59
1695.34
1746.38
1796.56
1845.72
1893.69
1940.21
1984.97
2027.51
2067.15
2102.41
2131.7
2153.88
2163.98
2155.35
2116.86
2037.67
1934.09
1816.09
1690.03
1560.05
1428.97
1298.78
1171.01
1046.99
927.953
814.926
709.304
612.946
528.058
456.689
400.21
358.726
330.732
313.4
303.478
298.157
295.464
294.151
293.527
293.237
293.105
293.046
293.02
293.009
293.004
293.002
293.001
293
293
293
293
293
293.003
293.014
293.032
293.063
293.114
293.199
293.34
293.571
293.947
294.547
295.493
296.959
299.188
302.503
307.309
314.087
323.353
335.601
351.234
370.496
393.436
419.923
449.681
482.363
517.602
555.075
594.465
635.559
678.179
722.188
767.477
813.951
861.52
910.084
959.53
1009.73
1060.69
1112.37
1164.67
1217.48
1270.7
1324.21
1377.9
1431.65
1485.33
1538.81
1591.97
1644.69
1696.82
1748.25
1798.8
1848.32
1896.61
1943.42
1988.38
2031.02
2070.59
2105.3
2133.89
2154.75
2162.53
2149.95
2104.71
2020.98
1914.27
1794.12
1666.59
1535.68
1404.12
1273.83
1146.36
1023.01
905.013
793.383
689.61
595.602
513.511
445.219
391.829
353.119
327.312
311.488
302.485
297.671
295.235
294.046
293.48
293.217
293.096
293.042
293.018
293.008
293.003
293.001
293.001
293
293
293
293
293
293.003
293.014
293.032
293.062
293.113
293.198
293.339
293.569
293.942
294.538
295.477
296.932
299.142
302.427
307.19
313.905
323.086
335.225
350.726
369.836
392.614
418.932
448.525
481.049
516.147
553.478
592.758
633.76
676.305
720.259
765.513
811.976
859.558
908.162
957.676
1007.97
1059.05
1110.88
1163.36
1216.39
1269.84
1323.63
1377.61
1431.66
1485.66
1539.49
1593.01
1646.09
1698.59
1750.38
1801.28
1851.13
1899.71
1946.76
1991.9
2034.6
2074.08
2108.2
2136.11
2155.64
2161.07
2144.51
2092.53
2004.39
1894.73
1772.6
1643.8
1512.16
1380.29
1250.09
1123.06
1000.52
883.628
773.451
671.526
579.802
500.357
434.915
384.335
348.112
324.248
309.759
301.575
297.218
295.019
293.946
293.435
293.196
293.087
293.038
293.017
293.007
293.003
293.001
293.001
293
293
293
293
293
293.003
293.014
293.032
293.062
293.113
293.197
293.337
293.566
293.936
294.528
295.461
296.905
299.098
302.357
307.081
313.741
322.848
334.895
350.284
369.27
391.913
418.096
447.558
479.961
514.951
552.182
591.38
632.314
674.81
718.73
763.969
810.437
858.044
906.696
956.282
1006.68
1057.87
1109.85
1162.5
1215.72
1269.41
1323.43
1377.67
1432.01
1486.31
1540.46
1594.3
1647.71
1700.55
1752.65
1803.87
1854
1902.83
1950.06
1995.31
2037.99
2077.26
2110.74
2138.63
2156.7
2159.78
2139.36
2080.95
1988.67
1876.29
1752.41
1622.53
1490.31
1358.27
1228.25
1101.73
980.016
864.214
755.445
655.28
565.695
488.696
425.857
377.809
343.794
321.627
308.289
300.803
296.834
294.835
293.86
293.395
293.179
293.08
293.035
293.015
293.007
293.003
293.001
293
293
293
293
293
293
293.003
293.014
293.032
293.062
293.112
293.196
293.335
293.563
293.931
294.519
295.445
296.878
299.055
302.29
306.979
313.592
322.636
334.603
349.901
368.783
391.32
417.396
446.756
479.069
513.97
551.134
590.276
631.168
673.635
717.541
762.782
809.267
856.91
905.617
955.279
1005.77
1057.08
1109.19
1162.01
1215.42
1269.3
1323.54
1378.03
1432.62
1487.2
1541.63
1595.76
1649.47
1702.59
1754.98
1806.46
1856.84
1905.88
1953.28
1998.61
2041.28
2080.39
2113.49
2140.71
2157.54
2158.51
2134.55
2070.26
1974.23
1859.43
1734
1603.2
1470.53
1338.41
1208.62
1082.62
961.702
846.916
739.461
640.919
553.287
478.499
417.987
372.177
340.087
319.385
307.032
300.141
296.503
294.676
293.785
293.361
293.164
293.073
293.032
293.014
293.006
293.003
293.001
293
293
293
293
293
293
293.003
293.014
293.032
293.062
293.112
293.195
293.333
293.56
293.925
294.51
295.43
296.854
299.017
302.23
306.889
313.461
322.451
334.353
349.574
368.373
390.823
416.815
446.097
478.336
513.18
550.296
589.402
630.27
672.724
716.631
761.885
808.398
856.085
904.852
954.591
1005.18
1056.6
1108.85
1161.81
1215.38
1269.45
1323.89
1378.59
1433.42
1488.24
1542.91
1597.31
1651.27
1704.65
1757.28
1809
1859.59
1908.81
1956.34
2001.74
2044.39
2083.27
2116.01
2142.55
2158.22
2157.26
2130.1
2060.57
1961.21
1844.29
1717.54
1585.97
1452.94
1320.78
1191.24
1065.74
945.557
831.702
725.426
628.353
542.477
469.662
411.21
367.36
336.94
317.491
305.974
299.585
296.224
294.542
293.722
293.332
293.15
293.067
293.03
293.013
293.006
293.002
293.001
293
293
293
293
293
293
293.003
293.014
293.031
293.061
293.111
293.194
293.332
293.557
293.921
294.502
295.417
296.833
298.983
302.178
306.811
313.348
322.294
334.141
349.3
368.031
390.413
416.339
445.562
477.75
512.551
549.635
588.719
629.576
672.03
715.947
761.224
807.771
855.505
904.334
954.15
1004.83
1056.36
1108.72
1161.82
1215.54
1269.78
1324.4
1379.29
1434.32
1489.35
1544.25
1598.86
1653.04
1706.64
1759.49
1811.4
1862.16
1911.53
1959.16
2004.61
2047.22
2085.84
2118.21
2144.11
2158.69
2155.93
2125.83
2051.76
1949.55
1830.83
1702.97
1570.77
1437.47
1305.32
1176.03
1050.99
931.467
818.445
713.219
617.457
533.138
462.063
405.414
363.266
334.279
315.898
305.085
299.118
295.991
294.429
293.669
293.308
293.139
293.062
293.027
293.012
293.005
293.002
293.001
293
293
293
293
293
293
293.003
293.014
293.031
293.061
293.111
293.194
293.33
293.554
293.916
294.495
295.405
296.814
298.953
302.133
306.745
313.252
322.161
333.964
349.072
367.75
390.077
415.953
445.13
477.281
512.053
549.118
588.192
629.047
671.509
715.444
760.748
807.333
855.117
904.007
953.897
1004.66
1056.29
1108.76
1161.98
1215.84
1270.22
1325.01
1380.07
1435.27
1490.49
1545.57
1600.37
1654.74
1708.53
1761.55
1813.62
1864.53
1914.01
1961.73
2007.19
2049.73
2088.07
2120.06
2145.29
2158.74
2154.11
2120.89
2043.4
1938.99
1818.87
1690.15
1557.48
1423.99
1291.88
1162.82
1038.21
919.268
806.98
702.682
608.075
525.123
455.569
400.486
359.806
332.043
314.564
304.344
298.729
295.797
294.335
293.625
293.287
293.13
293.058
293.026
293.011
293.005
293.002
293.001
293
293
293
293
293
293
293.003
293.014
293.031
293.061
293.11
293.193
293.329
293.552
293.913
294.489
295.395
296.798
298.928
302.095
306.689
313.172
322.051
333.817
348.885
367.52
389.806
415.643
444.787
476.911
511.665
548.719
587.791
628.652
671.127
715.083
760.417
807.041
854.873
903.822
953.781
1004.62
1056.34
1108.91
1162.24
1216.22
1270.73
1325.66
1380.86
1436.22
1491.59
1546.84
1601.8
1656.33
1710.27
1763.43
1815.64
1866.67
1916.24
1964
2009.47
2051.92
2089.96
2121.58
2146.14
2158.48
2151.99
2115.64
2035.6
1929.54
1808.36
1678.98
1545.95
1412.33
1280.28
1151.45
1027.22
908.788
797.143
693.655
600.055
518.292
450.055
396.323
356.897
330.173
313.453
303.728
298.406
295.636
294.257
293.588
293.27
293.122
293.055
293.024
293.011
293.005
293.002
293.001
293
293
293
293
293
293
293.003
293.014
293.031
293.061
293.11
293.192
293.328
293.55
293.91
294.483
295.387
296.785
298.908
302.064
306.642
313.106
321.961
333.699
348.734
367.336
389.59
415.398
444.518
476.624
511.367
548.417
587.491
628.361
670.852
714.831
760.195
806.857
854.735
903.739
953.759
1004.67
1056.46
1109.13
1162.56
1216.64
1271.26
1326.31
1381.64
1437.13
1492.63
1548.01
1603.11
1657.77
1711.84
1765.13
1817.44
1868.56
1918.2
1966
2011.45
2053.82
2091.57
2122.82
2146.77
2158.07
2149.86
2110.63
2028.62
1921.27
1799.26
1669.37
1536.07
1402.37
1270.38
1141.75
1017.85
899.867
788.778
685.99
593.259
512.518
445.41
392.83
354.468
328.618
312.533
303.219
298.139
295.504
294.193
293.558
293.256
293.116
293.052
293.023
293.01
293.004
293.002
293.001
293
293
293
293
293
293
293.003
293.013
293.031
293.06
293.11
293.192
293.327
293.549
293.907
294.479
295.38
296.774
298.891
302.038
306.605
313.053
321.888
333.603
348.614
367.19
389.42
415.206
444.309
476.404
511.141
548.191
587.27
628.152
670.66
714.662
760.055
806.753
854.672
903.723
953.799
1004.77
1056.64
1109.38
1162.89
1217.06
1271.78
1326.93
1382.37
1437.96
1493.58
1549.07
1604.28
1659.05
1713.22
1766.61
1819.02
1870.21
1919.9
1967.72
2013.15
2055.43
2092.91
2123.85
2147.25
2157.65
2147.95
2106.22
2022.6
1914.21
1791.53
1661.24
1527.73
1393.96
1262.04
1133.59
1009.98
892.363
781.749
679.556
587.563
507.691
441.538
389.928
352.459
327.337
311.777
302.801
297.921
295.395
294.141
293.533
293.245
293.111
293.049
293.022
293.01
293.004
293.002
293.001
293
293
293
293
293
293
293.003
293.013
293.031
293.06
293.11
293.191
293.326
293.547
293.905
294.476
295.374
296.765
298.877
302.018
306.575
313.011
321.831
333.528
348.52
367.077
389.288
415.059
444.151
476.238
510.973
548.025
587.112
628.005
670.53
714.553
759.973
806.702
854.658
903.752
953.876
1004.9
1056.83
1109.63
1163.22
1217.47
1272.27
1327.49
1383.02
1438.71
1494.42
1550
1605.3
1660.16
1714.42
1767.88
1820.36
1871.61
1921.34
1969.18
2014.58
2056.79
2094.04
2124.7
2147.64
2157.28
2146.33
2102.51
2017.57
1908.32
1785.1
1654.48
1520.8
1386.99
1255.13
1126.84
1003.46
886.156
775.937
674.242
582.865
503.715
438.357
387.552
350.819
326.294
311.164
302.464
297.745
295.307
294.098
293.513
293.236
293.107
293.048
293.021
293.009
293.004
293.002
293.001
293
293
293
293
293
293
293.003
293.013
293.031
293.06
293.109
293.191
293.326
293.546
293.903
294.473
295.37
296.758
298.866
302.002
306.552
312.979
321.787
333.471
348.447
366.99
389.188
414.948
444.032
476.116
510.85
547.906
587
627.905
670.445
714.487
759.93
806.686
854.674
903.804
953.968
1005.04
1057.01
1109.87
1163.51
1217.83
1272.69
1327.99
1383.58
1439.35
1495.13
1550.78
1606.16
1661.09
1715.42
1768.94
1821.47
1872.77
1922.53
1970.37
2015.76
2057.9
2094.95
2125.39
2147.96
2156.98
2145.01
2099.5
2013.48
1903.55
1779.89
1649.01
1515.2
1381.36
1249.55
1121.37
998.191
881.141
771.245
669.954
579.077
500.515
435.801
385.647
349.507
325.463
310.676
302.195
297.604
295.238
294.064
293.497
293.228
293.103
293.046
293.02
293.009
293.004
293.002
293.001
293
293
293
293
293
293
293.003
293.013
293.031
293.06
293.109
293.191
293.325
293.546
293.902
294.471
295.366
296.753
298.858
301.99
306.534
312.954
321.753
333.427
348.394
366.926
389.115
414.867
443.946
476.028
510.764
547.823
586.924
627.839
670.392
714.45
759.912
806.69
854.704
903.862
954.059
1005.17
1057.18
1110.08
1163.77
1218.13
1273.05
1328.4
1384.05
1439.87
1495.71
1551.42
1606.85
1661.84
1716.21
1769.79
1822.36
1873.69
1923.47
1971.32
2016.69
2058.78
2095.67
2125.94
2148.21
2156.74
2143.98
2097.15
2010.29
1899.82
1775.81
1644.74
1510.83
1376.96
1245.19
1117.12
994.087
877.234
767.59
666.617
576.133
498.03
433.819
384.172
348.493
324.82
310.299
301.988
297.496
295.184
294.038
293.485
293.223
293.101
293.045
293.02
293.009
293.004
293.002
293.001
293
293
293
293
293
293
293.003
293.013
293.031
293.06
293.109
293.191
293.325
293.545
293.901
294.469
295.364
296.749
298.853
301.981
306.522
312.937
321.73
333.397
348.356
366.881
389.063
414.811
443.887
475.968
510.705
547.768
586.875
627.797
670.36
714.431
759.907
806.703
854.736
903.916
954.137
1005.27
1057.31
1110.25
1163.97
1218.37
1273.32
1328.71
1384.4
1440.26
1496.14
1551.9
1607.37
1662.4
1716.81
1770.42
1823.02
1874.37
1924.17
1972.02
2017.38
2059.43
2096.2
2126.34
2148.39
2156.57
2143.22
2095.41
2007.94
1897.07
1772.82
1641.59
1507.61
1373.73
1241.99
1113.99
991.073
874.366
764.91
664.171
573.977
496.212
432.371
383.096
347.753
324.351
310.023
301.836
297.417
295.144
294.019
293.476
293.218
293.099
293.044
293.019
293.008
293.004
293.002
293.001
293
293
293
293
293
293
293.003
293.013
293.031
293.06
293.109
293.19
293.325
293.545
293.9
294.468
295.362
296.746
298.849
301.975
306.514
312.925
321.715
333.378
348.332
366.853
389.031
414.776
443.851
475.931
510.669
547.735
586.846
627.774
670.343
714.423
759.909
806.716
854.762
903.957
954.193
1005.35
1057.41
1110.36
1164.11
1218.53
1273.51
1328.92
1384.64
1440.53
1496.44
1552.22
1607.72
1662.77
1717.21
1770.84
1823.46
1874.82
1924.63
1972.49
2017.83
2059.85
2096.55
2126.6
2148.51
2156.45
2142.72
2094.27
2006.39
1895.26
1770.85
1639.53
1505.5
1371.61
1239.89
1111.94
989.098
872.487
763.155
662.572
572.57
495.029
431.432
382.399
347.276
324.049
309.844
301.737
297.365
295.118
294.007
293.47
293.216
293.098
293.044
293.019
293.008
293.004
293.002
293.001
293
293
293
293
293
293
293.003
293.013
293.031
293.06
293.109
293.19
293.325
293.545
293.9
294.468
295.362
296.745
298.847
301.973
306.51
312.92
321.708
333.369
348.321
366.839
389.016
414.76
443.833
475.914
510.652
547.72
586.832
627.763
670.336
714.42
759.911
806.723
854.776
903.978
954.222
1005.38
1057.45
1110.42
1164.17
1218.61
1273.6
1329.03
1384.76
1440.66
1496.58
1552.38
1607.89
1662.96
1717.4
1771.05
1823.68
1875.05
1924.86
1972.72
2018.06
2060.07
2096.72
2126.73
2148.57
2156.4
2142.48
2093.71
2005.63
1894.38
1769.88
1638.52
1504.46
1370.57
1238.86
1110.94
988.136
871.575
762.307
661.802
571.896
494.466
430.988
382.073
347.054
323.909
309.762
301.691
297.341
295.106
294.001
293.467
293.214
293.097
293.043
293.019
293.008
293.004
293.002
293.001
293
293
293
293
293
293
293.003
293.013
293.031
293.06
293.109
293.19
293.325
293.545
293.9
294.468
295.362
296.745
298.847
301.973
306.51
312.92
321.708
333.369
348.321
366.839
389.016
414.76
443.833
475.914
510.652
547.719
586.832
627.763
670.336
714.419
759.91
806.723
854.775
903.978
954.222
1005.38
1057.45
1110.42
1164.17
1218.61
1273.6
1329.03
1384.76
1440.66
1496.58
1552.38
1607.89
1662.96
1717.4
1771.05
1823.68
1875.05
1924.86
1972.72
2018.06
2060.07
2096.72
2126.73
2148.57
2156.4
2142.48
2093.71
2005.63
1894.37
1769.88
1638.52
1504.46
1370.57
1238.86
1110.94
988.136
871.575
762.307
661.802
571.896
494.466
430.988
382.073
347.054
323.909
309.762
301.691
297.341
295.106
294.001
293.467
293.214
293.097
293.043
293.019
293.008
293.004
293.002
293.001
293
293
293
293
293
293
293.003
293.013
293.031
293.06
293.109
293.19
293.325
293.545
293.9
294.468
295.362
296.746
298.849
301.975
306.514
312.925
321.715
333.378
348.332
366.853
389.031
414.776
443.85
475.931
510.669
547.735
586.845
627.773
670.343
714.422
759.908
806.715
854.761
903.956
954.193
1005.35
1057.41
1110.36
1164.11
1218.53
1273.51
1328.92
1384.64
1440.53
1496.44
1552.22
1607.72
1662.77
1717.21
1770.84
1823.46
1874.82
1924.63
1972.49
2017.83
2059.85
2096.55
2126.6
2148.51
2156.45
2142.72
2094.27
2006.39
1895.26
1770.85
1639.53
1505.5
1371.61
1239.89
1111.94
989.097
872.487
763.155
662.572
572.57
495.029
431.432
382.4
347.276
324.049
309.844
301.737
297.365
295.118
294.007
293.47
293.216
293.098
293.044
293.019
293.008
293.004
293.002
293.001
293
293
293
293
293
293
293.003
293.013
293.031
293.06
293.109
293.191
293.325
293.545
293.901
294.469
295.364
296.749
298.853
301.981
306.522
312.937
321.73
333.397
348.356
366.881
389.063
414.811
443.887
475.968
510.704
547.768
586.874
627.797
670.36
714.43
759.906
806.702
854.735
903.915
954.136
1005.27
1057.31
1110.25
1163.97
1218.36
1273.32
1328.71
1384.4
1440.26
1496.14
1551.9
1607.37
1662.4
1716.81
1770.42
1823.02
1874.37
1924.17
1972.02
2017.38
2059.43
2096.2
2126.34
2148.39
2156.57
2143.22
2095.41
2007.94
1897.07
1772.82
1641.59
1507.61
1373.73
1241.99
1113.99
991.072
874.365
764.909
664.171
573.977
496.212
432.372
383.096
347.753
324.352
310.023
301.836
297.417
295.144
294.019
293.476
293.218
293.099
293.044
293.019
293.008
293.004
293.002
293.001
293
293
293
293
293
293
293.003
293.013
293.031
293.06
293.109
293.191
293.325
293.546
293.902
294.471
295.366
296.753
298.858
301.99
306.534
312.954
321.753
333.428
348.394
366.926
389.115
414.867
443.946
476.028
510.763
547.822
586.923
627.838
670.39
714.449
759.911
806.689
854.703
903.861
954.057
1005.17
1057.18
1110.08
1163.77
1218.13
1273.05
1328.4
1384.05
1439.87
1495.71
1551.42
1606.85
1661.84
1716.21
1769.79
1822.36
1873.69
1923.47
1971.32
2016.69
2058.78
2095.67
2125.94
2148.21
2156.74
2143.98
2097.14
2010.29
1899.81
1775.81
1644.73
1510.82
1376.96
1245.19
1117.12
994.086
877.233
767.59
666.617
576.133
498.03
433.82
384.173
348.493
324.821
310.299
301.988
297.496
295.184
294.038
293.485
293.223
293.101
293.045
293.02
293.009
293.004
293.002
293.001
293
293
293
293
293
293
293.003
293.013
293.031
293.06
293.109
293.191
293.326
293.546
293.903
294.473
295.37
296.758
298.866
302.002
306.552
312.979
321.787
333.471
348.447
366.99
389.188
414.948
444.032
476.115
510.849
547.905
586.999
627.903
670.443
714.486
759.928
806.685
854.672
903.802
953.966
1005.04
1057.01
1109.87
1163.51
1217.82
1272.69
1327.99
1383.58
1439.34
1495.13
1550.78
1606.16
1661.09
1715.42
1768.94
1821.47
1872.77
1922.53
1970.37
2015.76
2057.9
2094.95
2125.39
2147.96
2156.98
2145.01
2099.5
2013.48
1903.54
1779.88
1649.01
1515.2
1381.35
1249.55
1121.37
998.19
881.14
771.244
669.954
579.078
500.516
435.802
385.648
349.508
325.463
310.676
302.195
297.605
295.238
294.064
293.497
293.228
293.103
293.046
293.02
293.009
293.004
293.002
293.001
293
293
293
293
293
293
293.003
293.013
293.031
293.06
293.11
293.191
293.326
293.547
293.905
294.476
295.374
296.765
298.877
302.018
306.575
313.011
321.831
333.528
348.519
367.076
389.288
415.058
444.15
476.237
510.972
548.024
587.11
628.003
670.528
714.551
759.97
806.7
854.656
903.749
953.873
1004.9
1056.82
1109.63
1163.21
1217.46
1272.26
1327.49
1383.02
1438.71
1494.42
1550
1605.3
1660.16
1714.42
1767.88
1820.36
1871.61
1921.34
1969.18
2014.58
2056.79
2094.04
2124.7
2147.64
2157.28
2146.33
2102.51
2017.56
1908.32
1785.09
1654.48
1520.8
1386.99
1255.13
1126.83
1003.46
886.155
775.936
674.242
582.865
503.716
438.358
387.553
350.82
326.295
311.164
302.464
297.745
295.307
294.098
293.513
293.236
293.107
293.048
293.021
293.009
293.004
293.002
293.001
293
293
293
293
293
293
293.003
293.013
293.031
293.06
293.11
293.192
293.327
293.549
293.907
294.479
295.38
296.774
298.891
302.038
306.605
313.053
321.888
333.603
348.614
367.19
389.419
415.205
444.308
476.403
511.14
548.189
587.268
628.149
670.657
714.659
760.052
806.75
854.67
903.721
953.796
1004.77
1056.63
1109.37
1162.89
1217.06
1271.78
1326.93
1382.36
1437.96
1493.58
1549.07
1604.28
1659.05
1713.22
1766.61
1819.02
1870.21
1919.9
1967.72
2013.15
2055.43
2092.91
2123.85
2147.25
2157.65
2147.95
2106.21
2022.59
1914.2
1791.52
1661.23
1527.72
1393.96
1262.04
1133.59
1009.97
892.361
781.747
679.556
587.563
507.691
441.539
389.929
352.46
327.337
311.777
302.802
297.921
295.395
294.141
293.533
293.245
293.111
293.049
293.022
293.01
293.004
293.002
293.001
293
293
293
293
293
293
293.003
293.014
293.031
293.061
293.11
293.192
293.328
293.55
293.91
294.483
295.387
296.785
298.908
302.064
306.643
313.107
321.961
333.698
348.734
367.336
389.589
415.397
444.516
476.623
511.365
548.415
587.488
628.358
670.849
714.828
760.192
806.854
854.732
903.735
953.755
1004.67
1056.46
1109.12
1162.55
1216.64
1271.26
1326.3
1381.64
1437.13
1492.63
1548.01
1603.11
1657.77
1711.84
1765.13
1817.44
1868.56
1918.2
1966
2011.45
2053.82
2091.57
2122.82
2146.77
2158.07
2149.86
2110.62
2028.61
1921.27
1799.25
1669.37
1536.07
1402.36
1270.38
1141.75
1017.85
899.863
788.775
685.988
593.258
512.518
445.411
392.831
354.469
328.619
312.533
303.219
298.139
295.504
294.193
293.558
293.256
293.116
293.052
293.023
293.01
293.004
293.002
293.001
293
293
293
293
293
293
293.003
293.014
293.031
293.061
293.11
293.193
293.329
293.552
293.913
294.489
295.395
296.798
298.929
302.095
306.689
313.172
322.051
333.817
348.885
367.52
389.805
415.641
444.785
476.909
511.663
548.717
587.788
628.648
671.123
715.079
760.413
807.037
854.869
903.818
953.777
1004.62
1056.33
1108.91
1162.24
1216.22
1270.73
1325.65
1380.86
1436.22
1491.59
1546.83
1601.8
1656.33
1710.27
1763.43
1815.64
1866.67
1916.24
1964.01
2009.47
2051.92
2089.97
2121.58
2146.14
2158.48
2151.99
2115.64
2035.6
1929.54
1808.35
1678.98
1545.95
1412.33
1280.27
1151.44
1027.21
908.783
797.139
693.652
600.053
518.291
450.055
396.323
356.898
330.173
313.454
303.728
298.406
295.636
294.257
293.588
293.27
293.122
293.055
293.024
293.011
293.005
293.002
293.001
293
293
293
293
293
293
293.003
293.014
293.031
293.061
293.111
293.194
293.33
293.554
293.916
294.495
295.405
296.814
298.953
302.133
306.745
313.252
322.161
333.963
349.071
367.749
390.076
415.952
445.128
477.278
512.05
549.115
588.188
629.044
671.505
715.44
760.744
807.329
855.112
904.002
953.892
1004.66
1056.28
1108.76
1161.98
1215.84
1270.22
1325
1380.07
1435.27
1490.49
1545.57
1600.37
1654.74
1708.53
1761.55
1813.62
1864.53
1914.02
1961.73
2007.19
2049.73
2088.07
2120.06
2145.29
2158.74
2154.11
2120.88
2043.39
1938.98
1818.87
1690.14
1557.47
1423.98
1291.87
1162.81
1038.2
919.262
806.975
702.677
608.072
525.121
455.568
400.486
359.806
332.044
314.565
304.344
298.729
295.797
294.335
293.625
293.287
293.13
293.058
293.026
293.011
293.005
293.002
293.001
293
293
293
293
293
293
293.003
293.014
293.031
293.061
293.111
293.194
293.332
293.557
293.921
294.502
295.417
296.833
298.983
302.178
306.811
313.348
322.293
334.141
349.299
368.03
390.412
416.337
445.56
477.747
512.547
549.631
588.715
629.572
672.025
715.942
761.219
807.766
855.5
904.329
954.145
1004.82
1056.35
1108.72
1161.82
1215.54
1269.77
1324.4
1379.29
1434.32
1489.35
1544.25
1598.86
1653.04
1706.64
1759.49
1811.4
1862.16
1911.53
1959.17
2004.61
2047.22
2085.85
2118.22
2144.11
2158.69
2155.93
2125.83
2051.75
1949.53
1830.81
1702.95
1570.76
1437.46
1305.31
1176.01
1050.98
931.458
818.437
713.212
617.452
533.134
462.061
405.413
363.266
334.28
315.898
305.086
299.118
295.991
294.429
293.669
293.308
293.139
293.062
293.027
293.012
293.005
293.002
293.001
293
293
293
293
293
293
293.003
293.014
293.032
293.062
293.112
293.195
293.333
293.56
293.925
294.51
295.43
296.854
299.017
302.23
306.889
313.461
322.451
334.353
349.574
368.372
390.822
416.813
446.094
478.333
513.176
550.292
589.397
630.265
672.719
716.625
761.88
808.392
856.079
904.846
954.586
1005.17
1056.59
1108.84
1161.81
1215.38
1269.44
1323.89
1378.59
1433.41
1488.24
1542.91
1597.3
1651.27
1704.65
1757.28
1809
1859.59
1908.81
1956.34
2001.74
2044.39
2083.27
2116.01
2142.56
2158.22
2157.26
2130.09
2060.56
1961.19
1844.27
1717.52
1585.95
1452.92
1320.77
1191.22
1065.73
945.544
831.691
725.416
628.346
542.472
469.659
411.208
367.359
336.939
317.491
305.974
299.585
296.225
294.542
293.722
293.332
293.15
293.067
293.03
293.013
293.006
293.002
293.001
293
293
293
293
293
293
293.003
293.014
293.032
293.062
293.112
293.196
293.335
293.563
293.931
294.519
295.445
296.878
299.055
302.29
306.979
313.592
322.636
334.603
349.9
368.782
391.318
417.394
446.753
479.065
513.966
551.129
590.271
631.163
673.629
717.535
762.775
809.26
856.904
905.611
955.273
1005.76
1057.07
1109.19
1162.01
1215.42
1269.3
1323.54
1378.02
1432.62
1487.2
1541.62
1595.76
1649.47
1702.59
1754.98
1806.47
1856.85
1905.89
1953.28
1998.62
2041.29
2080.39
2113.5
2140.71
2157.54
2158.5
2134.54
2070.25
1974.21
1859.41
1733.98
1603.18
1470.51
1338.38
1208.6
1082.6
961.684
846.901
739.448
640.908
553.279
478.494
417.984
372.175
340.086
319.384
307.032
300.142
296.503
294.676
293.785
293.361
293.164
293.073
293.032
293.014
293.006
293.003
293.001
293
293
293
293
293
293
293.003
293.014
293.032
293.062
293.113
293.197
293.337
293.566
293.936
294.528
295.461
296.905
299.098
302.357
307.081
313.741
322.848
334.894
350.284
369.268
391.912
418.094
447.555
479.957
514.946
552.177
591.374
632.308
674.803
718.723
763.963
810.43
858.037
906.69
956.276
1006.67
1057.87
1109.84
1162.49
1215.72
1269.4
1323.43
1377.67
1432
1486.31
1540.46
1594.3
1647.71
1700.55
1752.66
1803.87
1854
1902.83
1950.07
1995.31
2037.99
2077.26
2110.75
2138.63
2156.7
2159.78
2139.35
2080.93
1988.64
1876.26
1752.38
1622.49
1490.28
1358.24
1228.22
1101.71
979.993
864.193
755.427
655.265
565.683
488.688
425.852
377.806
343.793
321.627
308.289
300.803
296.834
294.835
293.86
293.396
293.179
293.08
293.035
293.015
293.007
293.003
293.001
293
293
293
293
293
293
293.003
293.014
293.032
293.062
293.113
293.198
293.339
293.569
293.942
294.538
295.477
296.932
299.142
302.427
307.19
313.905
323.086
335.225
350.725
369.835
392.612
418.93
448.522
481.045
516.143
553.473
592.753
633.753
676.299
720.252
765.506
811.969
859.551
908.155
957.669
1007.97
1059.04
1110.87
1163.36
1216.38
1269.84
1323.62
1377.61
1431.66
1485.66
1539.49
1593.01
1646.09
1698.6
1750.38
1801.28
1851.13
1899.72
1946.76
1991.9
2034.61
2074.09
2108.2
2136.11
2155.64
2161.07
2144.5
2092.51
2004.36
1894.69
1772.56
1643.76
1512.12
1380.26
1250.06
1123.03
1000.49
883.601
773.427
671.506
579.786
500.345
434.907
384.33
348.109
324.246
309.759
301.575
297.218
295.019
293.946
293.435
293.196
293.088
293.038
293.017
293.007
293.003
293.001
293.001
293
293
293
293
293
293.003
293.014
293.032
293.063
293.114
293.199
293.34
293.572
293.947
294.547
295.493
296.959
299.188
302.503
307.309
314.087
323.353
335.601
351.233
370.494
393.434
419.92
449.678
482.359
517.598
555.069
594.459
635.553
678.172
722.181
767.469
813.944
861.512
910.077
959.523
1009.72
1060.68
1112.36
1164.66
1217.48
1270.7
1324.21
1377.9
1431.65
1485.33
1538.81
1591.97
1644.69
1696.83
1748.25
1798.81
1848.33
1896.62
1943.42
1988.39
2031.03
2070.6
2105.31
2133.89
2154.75
2162.53
2149.94
2104.68
2020.94
1914.23
1794.07
1666.54
1535.63
1404.07
1273.79
1146.31
1022.97
904.978
793.352
689.583
595.581
513.494
445.207
391.822
353.115
327.31
311.487
302.485
297.671
295.235
294.046
293.48
293.217
293.096
293.042
293.018
293.008
293.003
293.001
293.001
293
293
293
293
293
293.003
293.014
293.032
293.063
293.114
293.199
293.341
293.573
293.949
294.552
295.503
296.979
299.225
302.567
307.418
314.261
323.62
335.993
351.781
371.225
394.368
421.066
451.035
483.919
519.347
556.982
596.542
637.761
680.482
724.569
769.911
816.411
863.977
912.507
961.886
1011.99
1062.82
1114.34
1166.45
1219.05
1272.02
1325.24
1378.62
1432.03
1485.37
1538.48
1591.27
1643.6
1695.35
1746.38
1796.56
1845.73
1893.7
1940.22
1984.98
2027.52
2067.16
2102.42
2131.71
2153.89
2163.97
2155.34
2116.82
2037.62
1934.03
1816.03
1689.97
1559.99
1428.91
1298.72
1170.95
1046.94
927.91
814.887
709.271
612.918
528.036
456.674
400.199
358.72
330.728
313.398
303.477
298.157
295.464
294.151
293.527
293.237
293.105
293.046
293.02
293.009
293.004
293.002
293.001
293
293
293
293
293
293.003
293.014
293.032
293.062
293.113
293.199
293.34
293.572
293.949
294.554
295.51
296.995
299.26
302.634
307.536
314.457
323.928
336.45
352.426
372.09
395.477
422.431
452.655
485.783
521.436
559.268
599.001
640.401
683.243
727.421
772.824
819.355
866.917
915.41
964.714
1014.71
1065.4
1116.76
1168.67
1221.02
1273.73
1326.67
1379.73
1432.8
1485.76
1538.52
1590.93
1642.87
1694.23
1744.89
1794.7
1843.51
1891.15
1937.39
1981.94
2024.35
2064.01
2099.7
2129.62
2152.97
2165.1
2159.98
2127.48
2052.94
1952.6
1836.92
1712.49
1583.64
1453.28
1323.43
1195.63
1071.21
951.385
837.19
729.923
631.361
543.745
469.273
409.579
365.117
334.699
315.647
304.653
298.732
295.733
294.273
293.581
293.261
293.115
293.05
293.022
293.009
293.004
293.002
293.001
293
293
293
293
293
293.003
293.014
293.032
293.062
293.113
293.197
293.338
293.569
293.944
294.547
295.501
296.987
299.256
302.644
307.579
314.562
324.134
336.807