/*--------------------------------*- C++ -*----------------------------------*\
  =========                 |
  \\      /  F ield         | OpenFOAM: The Open Source CFD Toolbox
   \\    /   O peration     | Website:  https://openfoam.org
    \\  /    A nd           | Version:  8
     \\/     M anipulation  |
\*---------------------------------------------------------------------------*/
FoamFile
{
    version     2.0;
    format      ascii;
    class       volVectorField;
    location    "0.2/fluid";
    object      U;
}
// * * * * * * * * * * * * * * * * * * * * * * * * * * * * * * * * * * * * * //

dimensions      [0 1 -1 0 0 0 0];

internalField   nonuniform List<vector> 
4000
(
(0.0999475 -0.00709639 0)
(0.0996396 -0.0210815 0)
(0.099141 -0.034921 0)
(0.0984518 -0.0486603 0)
(0.0975674 -0.0623222 0)
(0.0964727 -0.0759112 0)
(0.0951482 -0.0894178 0)
(0.0935745 -0.102823 0)
(0.0917348 -0.1161 0)
(0.0896187 -0.129218 0)
(0.0872275 -0.142143 0)
(0.0845839 -0.154827 0)
(0.0817342 -0.167271 0)
(0.078737 -0.179496 0)
(0.0756592 -0.19154 0)
(0.0725684 -0.203453 0)
(0.0695205 -0.215295 0)
(0.0665445 -0.22712 0)
(0.0636307 -0.238958 0)
(0.0607269 -0.250801 0)
(0.0577478 -0.262603 0)
(0.0545911 -0.274286 0)
(0.0511585 -0.285755 0)
(0.0473701 -0.29691 0)
(0.043174 -0.307652 0)
(0.0385519 -0.317878 0)
(0.0335179 -0.327497 0)
(0.0280964 -0.336474 0)
(0.0223149 -0.344769 0)
(0.0162022 -0.352344 0)
(0.00978951 -0.359172 0)
(0.00310809 -0.365235 0)
(-0.00379928 -0.370527 0)
(-0.0108995 -0.375043 0)
(-0.018168 -0.378793 0)
(-0.0255708 -0.381794 0)
(-0.0330786 -0.384064 0)
(-0.0406648 -0.385632 0)
(-0.0483045 -0.386527 0)
(-0.0559736 -0.386784 0)
(-0.0636495 -0.386441 0)
(-0.071311 -0.385539 0)
(-0.0789377 -0.384121 0)
(-0.0865102 -0.382231 0)
(-0.0940099 -0.379915 0)
(-0.101419 -0.377219 0)
(-0.108719 -0.374193 0)
(-0.115894 -0.370885 0)
(-0.122926 -0.367346 0)
(-0.129799 -0.363629 0)
(-0.136495 -0.359787 0)
(-0.142998 -0.355878 0)
(-0.149289 -0.351963 0)
(-0.155348 -0.348108 0)
(-0.161153 -0.344388 0)
(-0.166676 -0.340883 0)
(-0.171876 -0.337688 0)
(-0.17669 -0.3349 0)
(-0.181043 -0.332623 0)
(-0.184839 -0.330975 0)
(-0.187878 -0.330074 0)
(-0.189628 -0.329968 0)
(-0.189406 -0.330424 0)
(-0.186584 -0.330786 0)
(-0.181526 -0.330324 0)
(-0.175029 -0.328673 0)
(-0.167664 -0.325742 0)
(-0.159742 -0.321551 0)
(-0.151447 -0.316146 0)
(-0.142909 -0.309578 0)
(-0.134228 -0.301897 0)
(-0.125497 -0.293154 0)
(-0.116803 -0.283404 0)
(-0.108228 -0.272706 0)
(-0.0998801 -0.261121 0)
(-0.0919383 -0.248729 0)
(-0.0846764 -0.235663 0)
(-0.0784438 -0.222153 0)
(-0.0736503 -0.208762 0)
(-0.0706698 -0.196028 0)
(-0.0696375 -0.184319 0)
(-0.0703602 -0.173675 0)
(-0.0724063 -0.163843 0)
(-0.0752683 -0.154471 0)
(-0.0784894 -0.145274 0)
(-0.081732 -0.136078 0)
(-0.0847901 -0.126802 0)
(-0.087556 -0.117415 0)
(-0.0899712 -0.107894 0)
(-0.0920327 -0.098319 0)
(-0.0937676 -0.0887372 0)
(-0.0952121 -0.0791776 0)
(-0.0964025 -0.0696621 0)
(-0.0973728 -0.0602061 0)
(-0.0981534 -0.0508172 0)
(-0.0987709 -0.0414957 0)
(-0.099248 -0.0322346 0)
(-0.0996019 -0.0230193 0)
(-0.0998437 -0.0138263 0)
(-0.0999824 -0.00462387 0)
(0.100007 -0.00657881 0)
(0.099808 -0.0196899 0)
(0.0993847 -0.032716 0)
(0.0987115 -0.0456327 0)
(0.0977921 -0.0584175 0)
(0.0966249 -0.0710449 0)
(0.0952019 -0.0834852 0)
(0.0935156 -0.0957058 0)
(0.0915633 -0.107674 0)
(0.0893507 -0.119362 0)
(0.0868952 -0.130761 0)
(0.0842311 -0.141904 0)
(0.0814075 -0.152796 0)
(0.0784857 -0.163461 0)
(0.0755342 -0.173948 0)
(0.0726207 -0.18433 0)
(0.069799 -0.194692 0)
(0.0670947 -0.205115 0)
(0.0644933 -0.215656 0)
(0.061937 -0.226334 0)
(0.0593324 -0.237122 0)
(0.0565669 -0.247952 0)
(0.0535292 -0.258728 0)
(0.050126 -0.269343 0)
(0.0462922 -0.279694 0)
(0.0419938 -0.289701 0)
(0.0372255 -0.299291 0)
(0.0320066 -0.308351 0)
(0.0263639 -0.316805 0)
(0.020331 -0.324598 0)
(0.0139463 -0.331696 0)
(0.0072501 -0.338077 0)
(0.00028361 -0.34373 0)
(-0.00691309 -0.348656 0)
(-0.0143037 -0.352862 0)
(-0.0218538 -0.356361 0)
(-0.0295306 -0.359173 0)
(-0.0373045 -0.361321 0)
(-0.0451483 -0.362834 0)
(-0.0530363 -0.363743 0)
(-0.0609447 -0.364083 0)
(-0.068851 -0.363891 0)
(-0.0767343 -0.363205 0)
(-0.0845747 -0.362069 0)
(-0.0923534 -0.360523 0)
(-0.100053 -0.358613 0)
(-0.107655 -0.356383 0)
(-0.115145 -0.353881 0)
(-0.122506 -0.351154 0)
(-0.129722 -0.348251 0)
(-0.13678 -0.345223 0)
(-0.143664 -0.342123 0)
(-0.150362 -0.339003 0)
(-0.156856 -0.335921 0)
(-0.163132 -0.332933 0)
(-0.169168 -0.330097 0)
(-0.174928 -0.32747 0)
(-0.180352 -0.3251 0)
(-0.185373 -0.323025 0)
(-0.189897 -0.321265 0)
(-0.193692 -0.319802 0)
(-0.196139 -0.31856 0)
(-0.196305 -0.317279 0)
(-0.193482 -0.315646 0)
(-0.18817 -0.313352 0)
(-0.181348 -0.310195 0)
(-0.173653 -0.30605 0)
(-0.16541 -0.300844 0)
(-0.156794 -0.294532 0)
(-0.147918 -0.287094 0)
(-0.138868 -0.278526 0)
(-0.129715 -0.268843 0)
(-0.120524 -0.258081 0)
(-0.111355 -0.246314 0)
(-0.102308 -0.233679 0)
(-0.0935911 -0.220424 0)
(-0.0855471 -0.206964 0)
(-0.078634 -0.193881 0)
(-0.0733523 -0.18158 0)
(-0.070069 -0.170446 0)
(-0.0688389 -0.160638 0)
(-0.0693817 -0.151999 0)
(-0.0712277 -0.144153 0)
(-0.0738824 -0.136697 0)
(-0.0769236 -0.12933 0)
(-0.0800437 -0.121876 0)
(-0.0830517 -0.114264 0)
(-0.085844 -0.106486 0)
(-0.0883745 -0.0985758 0)
(-0.0906161 -0.0904777 0)
(-0.0925696 -0.0821996 0)
(-0.0942473 -0.0737774 0)
(-0.0956672 -0.0652483 0)
(-0.0968501 -0.0566438 0)
(-0.0978172 -0.0479885 0)
(-0.0985887 -0.0393007 0)
(-0.0991816 -0.0305923 0)
(-0.0996069 -0.0218694 0)
(-0.0998721 -0.0131332 0)
(-0.0999992 -0.00438224 0)
(0.0999773 -0.00632255 0)
(0.0997105 -0.0188943 0)
(0.0991889 -0.0313724 0)
(0.0983959 -0.0437359 0)
(0.0973354 -0.0559618 0)
(0.0960085 -0.0680258 0)
(0.094415 -0.0799026 0)
(0.0925582 -0.0915667 0)
(0.0904485 -0.102994 0)
(0.0881051 -0.114163 0)
(0.0855579 -0.12506 0)
(0.0828449 -0.13568 0)
(0.0800142 -0.146032 0)
(0.0771265 -0.156148 0)
(0.0742509 -0.166079 0)
(0.0714556 -0.175894 0)
(0.0687942 -0.185677 0)
(0.0662918 -0.195504 0)
(0.0639334 -0.205436 0)
(0.0616604 -0.215496 0)
(0.0593774 -0.225666 0)
(0.0569682 -0.235892 0)
(0.0543157 -0.246089 0)
(0.0513195 -0.256159 0)
(0.0479053 -0.266 0)
(0.0440263 -0.275518 0)
(0.0396594 -0.284629 0)
(0.034804 -0.293263 0)
(0.029479 -0.301362 0)
(0.023717 -0.308879 0)
(0.0175566 -0.315779 0)
(0.0110383 -0.322035 0)
(0.00420165 -0.327633 0)
(-0.00290869 -0.332569 0)
(-0.0102541 -0.336842 0)
(-0.017802 -0.340463 0)
(-0.0255171 -0.343446 0)
(-0.0333678 -0.34581 0)
(-0.0413258 -0.34758 0)
(-0.0493644 -0.348782 0)
(-0.0574588 -0.349448 0)
(-0.0655861 -0.349609 0)
(-0.0737246 -0.349303 0)
(-0.0818543 -0.348566 0)
(-0.0899568 -0.347437 0)
(-0.0980145 -0.345956 0)
(-0.106011 -0.344166 0)
(-0.113931 -0.342109 0)
(-0.121761 -0.339827 0)
(-0.12949 -0.337366 0)
(-0.137105 -0.334771 0)
(-0.144597 -0.332086 0)
(-0.151957 -0.329357 0)
(-0.159176 -0.326628 0)
(-0.166242 -0.323943 0)
(-0.173137 -0.321341 0)
(-0.179823 -0.318857 0)
(-0.186231 -0.316513 0)
(-0.192278 -0.314316 0)
(-0.197828 -0.312253 0)
(-0.202542 -0.310275 0)
(-0.205665 -0.30827 0)
(-0.206063 -0.306007 0)
(-0.203071 -0.303268 0)
(-0.197346 -0.299888 0)
(-0.189979 -0.29575 0)
(-0.181656 -0.290755 0)
(-0.172729 -0.284833 0)
(-0.163391 -0.277939 0)
(-0.153762 -0.270054 0)
(-0.143923 -0.261189 0)
(-0.133941 -0.251382 0)
(-0.123874 -0.240711 0)
(-0.113784 -0.229295 0)
(-0.1038 -0.217312 0)
(-0.0941845 -0.205014 0)
(-0.0853634 -0.192736 0)
(-0.077883 -0.180876 0)
(-0.0722712 -0.169838 0)
(-0.0688354 -0.159917 0)
(-0.0675329 -0.151175 0)
(-0.0680109 -0.143417 0)
(-0.0697748 -0.136291 0)
(-0.0723371 -0.129448 0)
(-0.0752946 -0.122628 0)
(-0.0783562 -0.115685 0)
(-0.0813403 -0.108552 0)
(-0.0841498 -0.101213 0)
(-0.0867422 -0.0936829 0)
(-0.0890987 -0.0859872 0)
(-0.0912085 -0.0781501 0)
(-0.0930693 -0.0701929 0)
(-0.0946856 -0.0621359 0)
(-0.096066 -0.0539975 0)
(-0.0972217 -0.0457941 0)
(-0.0981645 -0.0375397 0)
(-0.0989051 -0.0292456 0)
(-0.0994507 -0.0209201 0)
(-0.0998057 -0.0125694 0)
(-0.0999871 -0.00419669 0)
(0.0999843 -0.0059646 0)
(0.0997167 -0.0178264 0)
(0.0991823 -0.0295903 0)
(0.0983631 -0.0412292 0)
(0.0972675 -0.0527161 0)
(0.0959019 -0.0640236 0)
(0.0942713 -0.0751244 0)
(0.0923833 -0.0859929 0)
(0.0902514 -0.0966061 0)
(0.0878962 -0.106947 0)
(0.0853475 -0.117005 0)
(0.0826463 -0.126783 0)
(0.0798452 -0.136299 0)
(0.0770083 -0.145586 0)
(0.0742055 -0.154701 0)
(0.0715045 -0.163716 0)
(0.068958 -0.172715 0)
(0.0665902 -0.181778 0)
(0.0643853 -0.190967 0)
(0.062284 -0.20031 0)
(0.0601897 -0.209796 0)
(0.0579841 -0.219376 0)
(0.0555465 -0.228975 0)
(0.0527715 -0.238502 0)
(0.0495795 -0.247861 0)
(0.0459205 -0.256961 0)
(0.0417709 -0.265722 0)
(0.0371286 -0.27407 0)
(0.0320092 -0.281946 0)
(0.026439 -0.289301 0)
(0.0204509 -0.296099 0)
(0.0140808 -0.302313 0)
(0.00736538 -0.307928 0)
(0.000342487 -0.312935 0)
(-0.00695048 -0.317335 0)
(-0.0144794 -0.321132 0)
(-0.0222121 -0.324338 0)
(-0.0301181 -0.326969 0)
(-0.0381696 -0.329046 0)
(-0.0463406 -0.330591 0)
(-0.054607 -0.331631 0)
(-0.0629462 -0.332195 0)
(-0.0713372 -0.332314 0)
(-0.0797609 -0.332021 0)
(-0.0881992 -0.33135 0)
(-0.0966349 -0.330338 0)
(-0.105053 -0.329019 0)
(-0.11344 -0.327431 0)
(-0.121783 -0.325612 0)
(-0.130073 -0.323598 0)
(-0.138299 -0.321428 0)
(-0.146454 -0.319137 0)
(-0.154529 -0.316761 0)
(-0.162515 -0.314331 0)
(-0.1704 -0.311877 0)
(-0.178159 -0.309424 0)
(-0.18574 -0.306988 0)
(-0.193055 -0.304573 0)
(-0.199997 -0.302169 0)
(-0.206375 -0.299752 0)
(-0.21174 -0.297259 0)
(-0.215192 -0.29457 0)
(-0.215497 -0.291483 0)
(-0.21213 -0.287834 0)
(-0.205892 -0.283544 0)
(-0.197914 -0.278548 0)
(-0.188896 -0.272782 0)
(-0.179206 -0.266196 0)
(-0.169058 -0.258762 0)
(-0.158587 -0.250473 0)
(-0.147894 -0.241349 0)
(-0.137063 -0.231443 0)
(-0.126173 -0.220843 0)
(-0.115319 -0.209676 0)
(-0.10468 -0.198128 0)
(-0.0945798 -0.186454 0)
(-0.0854821 -0.174981 0)
(-0.0779223 -0.164083 0)
(-0.0723677 -0.154111 0)
(-0.0690383 -0.145286 0)
(-0.0678102 -0.137599 0)
(-0.0682917 -0.130817 0)
(-0.0699919 -0.124594 0)
(-0.0724479 -0.118603 0)
(-0.0752852 -0.112611 0)
(-0.0782365 -0.106485 0)
(-0.0811331 -0.100163 0)
(-0.0838807 -0.093627 0)
(-0.0864311 -0.0868815 0)
(-0.0887626 -0.0799396 0)
(-0.0908672 -0.0728203 0)
(-0.0927434 -0.065545 0)
(-0.0943935 -0.0581347 0)
(-0.0958213 -0.0506096 0)
(-0.0970321 -0.0429882 0)
(-0.0980315 -0.0352871 0)
(-0.0988243 -0.0275213 0)
(-0.0994119 -0.0197037 0)
(-0.0997944 -0.0118454 0)
(-0.0999885 -0.00395597 0)
(0.0999808 -0.00561222 0)
(0.0996974 -0.0167718 0)
(0.0991372 -0.0278373 0)
(0.0982838 -0.0387817 0)
(0.0971478 -0.0495781 0)
(0.0957381 -0.0602001 0)
(0.0940627 -0.0706223 0)
(0.0921323 -0.080821 0)
(0.0899638 -0.0907758 0)
(0.087581 -0.100471 0)
(0.0850172 -0.109899 0)
(0.082316 -0.119061 0)
(0.0795324 -0.127973 0)
(0.0767314 -0.136668 0)
(0.0739832 -0.145197 0)
(0.0713553 -0.153627 0)
(0.0688999 -0.162034 0)
(0.0666409 -0.170494 0)
(0.0645627 -0.179066 0)
(0.0626062 -0.187779 0)
(0.0606747 -0.196628 0)
(0.0586487 -0.205575 0)
(0.0564049 -0.214553 0)
(0.0538341 -0.223483 0)
(0.0508515 -0.232279 0)
(0.0474016 -0.240856 0)
(0.0434559 -0.24914 0)
(0.0390089 -0.257062 0)
(0.034072 -0.264567 0)
(0.0286679 -0.27161 0)
(0.0228261 -0.278154 0)
(0.0165798 -0.284175 0)
(0.00996302 -0.289654 0)
(0.00300935 -0.294583 0)
(-0.00424282 -0.298958 0)
(-0.0117607 -0.302783 0)
(-0.0195168 -0.306066 0)
(-0.0274813 -0.30882 0)
(-0.0356272 -0.311061 0)
(-0.0439298 -0.312808 0)
(-0.0523663 -0.314086 0)
(-0.0609151 -0.314916 0)
(-0.0695565 -0.315328 0)
(-0.0782715 -0.315347 0)
(-0.0870427 -0.315005 0)
(-0.0958543 -0.31433 0)
(-0.104692 -0.313354 0)
(-0.113542 -0.312107 0)
(-0.122394 -0.310622 0)
(-0.131236 -0.308928 0)
(-0.14006 -0.307055 0)
(-0.148854 -0.305031 0)
(-0.157611 -0.302883 0)
(-0.166315 -0.300633 0)
(-0.17495 -0.298302 0)
(-0.18348 -0.295903 0)
(-0.191834 -0.293443 0)
(-0.199903 -0.290917 0)
(-0.207556 -0.288309 0)
(-0.214549 -0.285592 0)
(-0.220324 -0.282705 0)
(-0.223839 -0.279527 0)
(-0.223841 -0.275878 0)
(-0.219988 -0.271632 0)
(-0.213205 -0.266759 0)
(-0.204625 -0.26123 0)
(-0.194944 -0.255011 0)
(-0.184542 -0.248077 0)
(-0.173647 -0.24042 0)
(-0.162414 -0.23205 0)
(-0.150963 -0.223003 0)
(-0.139396 -0.213344 0)
(-0.127812 -0.203167 0)
(-0.116333 -0.192607 0)
(-0.105177 -0.181844 0)
(-0.0947083 -0.171119 0)
(-0.0854089 -0.160722 0)
(-0.0778033 -0.150969 0)
(-0.0723092 -0.142129 0)
(-0.069073 -0.134334 0)
(-0.0679083 -0.127516 0)
(-0.0683964 -0.121435 0)
(-0.0700498 -0.115781 0)
(-0.0724239 -0.110284 0)
(-0.0751667 -0.104755 0)
(-0.07803 -0.0990888 0)
(-0.0808582 -0.0932368 0)
(-0.0835622 -0.0871848 0)
(-0.0860938 -0.0809368 0)
(-0.0884279 -0.0745055 0)
(-0.0905517 -0.0679068 0)
(-0.0924596 -0.061158 0)
(-0.0941497 -0.0542763 0)
(-0.0956223 -0.0472786 0)
(-0.0968793 -0.0401811 0)
(-0.097923 -0.032999 0)
(-0.0987554 -0.0257471 0)
(-0.0993753 -0.0184388 0)
(-0.0997805 -0.0110869 0)
(-0.0999871 -0.00370284 0)
(0.0999816 -0.00524352 0)
(0.0996962 -0.0156708 0)
(0.0991306 -0.0260084 0)
(0.0982686 -0.0362289 0)
(0.0971222 -0.0463052 0)
(0.0957024 -0.0562113 0)
(0.0940188 -0.0659225 0)
(0.0920839 -0.0754164 0)
(0.0899161 -0.0846737 0)
(0.0875405 -0.0936805 0)
(0.084991 -0.10243 0)
(0.0823119 -0.110925 0)
(0.0795583 -0.119183 0)
(0.0767949 -0.127236 0)
(0.0740916 -0.135134 0)
(0.0715154 -0.142942 0)
(0.0691187 -0.150734 0)
(0.0669262 -0.158584 0)
(0.0649234 -0.166547 0)
(0.0630529 -0.174655 0)
(0.0612194 -0.182904 0)
(0.0593038 -0.19126 0)
(0.0571825 -0.199663 0)
(0.0547442 -0.20804 0)
(0.0519016 -0.216311 0)
(0.0485952 -0.224398 0)
(0.0447929 -0.232229 0)
(0.0404855 -0.239744 0)
(0.0356807 -0.246887 0)
(0.0303975 -0.253617 0)
(0.0246623 -0.259899 0)
(0.0185051 -0.265707 0)
(0.0119575 -0.271025 0)
(0.00505109 -0.275842 0)
(-0.00218002 -0.280153 0)
(-0.00970475 -0.283961 0)
(-0.0174956 -0.287271 0)
(-0.0255252 -0.290094 0)
(-0.0337684 -0.292442 0)
(-0.042202 -0.294333 0)
(-0.0508042 -0.295784 0)
(-0.0595547 -0.296816 0)
(-0.068434 -0.297452 0)
(-0.0774241 -0.297715 0)
(-0.0865084 -0.29763 0)
(-0.0956715 -0.297221 0)
(-0.104899 -0.296516 0)
(-0.114178 -0.295539 0)
(-0.123494 -0.294315 0)
(-0.132838 -0.29287 0)
(-0.142197 -0.291225 0)
(-0.151558 -0.289403 0)
(-0.160909 -0.287424 0)
(-0.170229 -0.285304 0)
(-0.179493 -0.283055 0)
(-0.188655 -0.280685 0)
(-0.197622 -0.278196 0)
(-0.20627 -0.275577 0)
(-0.214449 -0.272816 0)
(-0.221861 -0.269888 0)
(-0.227845 -0.266728 0)
(-0.231229 -0.263225 0)
(-0.230787 -0.259213 0)
(-0.226377 -0.254596 0)
(-0.219039 -0.249374 0)
(-0.209889 -0.243543 0)
(-0.199608 -0.237095 0)
(-0.188577 -0.230024 0)
(-0.177037 -0.222336 0)
(-0.165158 -0.214055 0)
(-0.153077 -0.205225 0)
(-0.140914 -0.195917 0)
(-0.128785 -0.186223 0)
(-0.116841 -0.176272 0)
(-0.105336 -0.166233 0)
(-0.0946636 -0.156324 0)
(-0.0853204 -0.146806 0)
(-0.0778114 -0.137953 0)
(-0.0724996 -0.129986 0)
(-0.0694568 -0.122999 0)
(-0.0684361 -0.116901 0)
(-0.0689936 -0.111456 0)
(-0.0706454 -0.106378 0)
(-0.0729648 -0.101422 0)
(-0.0756216 -0.0964235 0)
(-0.0783875 -0.0912879 0)
(-0.0811205 -0.0859718 0)
(-0.0837396 -0.0804619 0)
(-0.0862007 -0.0747606 0)
(-0.0884798 -0.0688783 0)
(-0.0905641 -0.062829 0)
(-0.0924463 -0.0566282 0)
(-0.0941225 -0.0502919 0)
(-0.0955906 -0.0438361 0)
(-0.0968496 -0.0372764 0)
(-0.0978997 -0.0306282 0)
(-0.09874 -0.0239063 0)
(-0.0993674 -0.0171252 0)
(-0.0997781 -0.0102986 0)
(-0.0999873 -0.0034397 0)
(0.0999811 -0.00487455 0)
(0.0996933 -0.0145684 0)
(0.0991235 -0.0241788 0)
(0.0982562 -0.0336792 0)
(0.0971042 -0.0430441 0)
(0.0956789 -0.0522489 0)
(0.0939912 -0.0612706 0)
(0.0920548 -0.0700882 0)
(0.0898888 -0.0786843 0)
(0.0875195 -0.0870463 0)
(0.0849816 -0.0951682 0)
(0.0823201 -0.103054 0)
(0.0795903 -0.110718 0)
(0.0768573 -0.118192 0)
(0.0741908 -0.125521 0)
(0.0716581 -0.132766 0)
(0.0693114 -0.139995 0)
(0.0671757 -0.147276 0)
(0.0652373 -0.154662 0)
(0.0634395 -0.162185 0)
(0.0616874 -0.169844 0)
(0.0598622 -0.177608 0)
(0.0578389 -0.185427 0)
(0.0555047 -0.193233 0)
(0.0527698 -0.200953 0)
(0.0495727 -0.208519 0)
(0.0458785 -0.215862 0)
(0.0416749 -0.222926 0)
(0.0369666 -0.229662 0)
(0.0317698 -0.236027 0)
(0.0261081 -0.241991 0)
(0.0200094 -0.247528 0)
(0.013503 -0.252622 0)
(0.00661886 -0.257261 0)
(-0.000612165 -0.261441 0)
(-0.00816041 -0.26516 0)
(-0.015999 -0.268424 0)
(-0.0241025 -0.27124 0)
(-0.0324474 -0.273619 0)
(-0.0410117 -0.275573 0)
(-0.0497746 -0.277118 0)
(-0.058716 -0.278272 0)
(-0.0678175 -0.279053 0)
(-0.0770617 -0.27948 0)
(-0.0864322 -0.279574 0)
(-0.0959135 -0.279355 0)
(-0.10549 -0.278845 0)
(-0.115149 -0.278064 0)
(-0.124875 -0.277033 0)
(-0.134654 -0.275771 0)
(-0.144473 -0.274297 0)
(-0.154315 -0.272626 0)
(-0.164162 -0.270774 0)
(-0.173989 -0.268753 0)
(-0.183761 -0.26657 0)
(-0.193419 -0.264231 0)
(-0.202857 -0.261733 0)
(-0.211944 -0.259069 0)
(-0.220509 -0.256226 0)
(-0.228188 -0.253177 0)
(-0.234231 -0.249863 0)
(-0.237363 -0.246183 0)
(-0.236402 -0.241986 0)
(-0.231418 -0.237196 0)
(-0.223552 -0.231834 0)
(-0.213894 -0.225916 0)
(-0.203099 -0.219448 0)
(-0.191545 -0.212438 0)
(-0.17948 -0.204906 0)
(-0.167085 -0.196883 0)
(-0.154512 -0.188421 0)
(-0.141893 -0.179588 0)
(-0.129358 -0.170479 0)
(-0.117082 -0.161212 0)
(-0.105349 -0.151946 0)
(-0.0945728 -0.142881 0)
(-0.0852542 -0.134247 0)
(-0.0778739 -0.126279 0)
(-0.0727427 -0.119153 0)
(-0.0698698 -0.112915 0)
(-0.0689646 -0.107453 0)
(-0.0695709 -0.102539 0)
(-0.0712133 -0.0979188 0)
(-0.0734824 -0.0933828 0)
(-0.0760665 -0.088793 0)
(-0.0787525 -0.0840722 0)
(-0.0814084 -0.0791851 0)
(-0.0839589 -0.0741206 0)
(-0.0863618 -0.0688811 0)
(-0.0885937 -0.0634751 0)
(-0.090641 -0.0579144 0)
(-0.0924954 -0.0522122 0)
(-0.0941517 -0.0463823 0)
(-0.0956063 -0.0404387 0)
(-0.096857 -0.0343955 0)
(-0.0979023 -0.0282669 0)
(-0.0987406 -0.0220669 0)
(-0.0993672 -0.0158093 0)
(-0.0997778 -0.0095078 0)
(-0.0999872 -0.00317555 0)
(0.0999813 -0.00450385 0)
(0.099694 -0.0134612 0)
(0.0991251 -0.0223413 0)
(0.0982592 -0.0311194 0)
(0.0971092 -0.0397713 0)
(0.0956876 -0.0482738 0)
(0.0940053 -0.0566054 0)
(0.0920767 -0.0647469 0)
(0.0899215 -0.072682 0)
(0.0875662 -0.0803992 0)
(0.0850459 -0.0878934 0)
(0.0824053 -0.0951682 0)
(0.0796998 -0.102238 0)
(0.0769939 -0.109132 0)
(0.0743575 -0.115893 0)
(0.0718572 -0.122577 0)
(0.0695458 -0.129247 0)
(0.0674489 -0.135969 0)
(0.0655536 -0.142791 0)
(0.0638046 -0.149744 0)
(0.0621078 -0.156829 0)
(0.0603447 -0.164019 0)
(0.0583902 -0.171268 0)
(0.05613 -0.178515 0)
(0.0534728 -0.185693 0)
(0.0503544 -0.192739 0)
(0.0467377 -0.199591 0)
(0.0426077 -0.206196 0)
(0.0379665 -0.212508 0)
(0.0328282 -0.21849 0)
(0.0272142 -0.22411 0)
(0.0211503 -0.229346 0)
(0.0146641 -0.23418 0)
(0.00778366 -0.238603 0)
(0.000537856 -0.242606 0)
(-0.00704487 -0.246191 0)
(-0.0149386 -0.249359 0)
(-0.0231198 -0.252116 0)
(-0.0315658 -0.254469 0)
(-0.0402554 -0.256431 0)
(-0.0491682 -0.258014 0)
(-0.0582852 -0.25923 0)
(-0.0675883 -0.260097 0)
(-0.0770604 -0.260629 0)
(-0.0866846 -0.260844 0)
(-0.0964448 -0.260759 0)
(-0.106325 -0.26039 0)
(-0.11631 -0.259755 0)
(-0.126384 -0.25887 0)
(-0.13653 -0.257751 0)
(-0.146733 -0.256412 0)
(-0.156971 -0.254865 0)
(-0.167221 -0.253123 0)
(-0.177454 -0.251194 0)
(-0.187626 -0.249084 0)
(-0.19767 -0.246795 0)
(-0.207468 -0.244326 0)
(-0.216875 -0.241669 0)
(-0.225697 -0.23881 0)
(-0.233524 -0.235722 0)
(-0.239534 -0.232356 0)
(-0.242352 -0.22862 0)
(-0.240851 -0.224379 0)
(-0.235307 -0.219572 0)
(-0.226958 -0.214234 0)
(-0.216857 -0.20839 0)
(-0.20563 -0.202057 0)
(-0.193649 -0.195254 0)
(-0.181163 -0.188006 0)
(-0.168363 -0.18035 0)
(-0.155409 -0.17234 0)
(-0.142445 -0.164043 0)
(-0.129612 -0.155547 0)
(-0.117105 -0.146963 0)
(-0.105232 -0.138438 0)
(-0.0944254 -0.130151 0)
(-0.0851856 -0.122309 0)
(-0.0779696 -0.115114 0)
(-0.0730398 -0.108708 0)
(-0.0703502 -0.103111 0)
(-0.0695734 -0.0982047 0)
(-0.0702428 -0.0937722 0)
(-0.0718902 -0.0895846 0)
(-0.0741213 -0.0854586 0)
(-0.0766412 -0.0812749 0)
(-0.0792509 -0.0769675 0)
(-0.0818285 -0.0725062 0)
(-0.0843046 -0.0678816 0)
(-0.0866402 -0.0630956 0)
(-0.0888132 -0.0581557 0)
(-0.0908102 -0.0530721 0)
(-0.0926228 -0.0478566 0)
(-0.0942449 -0.0425214 0)
(-0.0956723 -0.0370793 0)
(-0.0969017 -0.0315433 0)
(-0.0979309 -0.0259264 0)
(-0.0987572 -0.0202418 0)
(-0.0993755 -0.0145028 0)
(-0.0997808 -0.00872227 0)
(-0.0999874 -0.00291313 0)
(0.0999813 -0.00413461 0)
(0.099695 -0.0123581 0)
(0.099128 -0.020511 0)
(0.0982651 -0.0285705 0)
(0.0971195 -0.036514 0)
(0.0957036 -0.0443203 0)
(0.0940289 -0.0519696 0)
(0.0921097 -0.0594442 0)
(0.089966 -0.0667294 0)
(0.0876246 -0.0738147 0)
(0.0851205 -0.0806955 0)
(0.0824984 -0.0873753 0)
(0.0798137 -0.0938676 0)
(0.0771306 -0.100199 0)
(0.0745188 -0.106408 0)
(0.072045 -0.112547 0)
(0.0697622 -0.118674 0)
(0.0676962 -0.124849 0)
(0.0658351 -0.131118 0)
(0.0641241 -0.137509 0)
(0.06247 -0.144025 0)
(0.0607543 -0.150643 0)
(0.0588516 -0.15732 0)
(0.0566466 -0.164003 0)
(0.0540461 -0.170631 0)
(0.0509845 -0.177145 0)
(0.0474224 -0.18349 0)
(0.0433431 -0.189617 0)
(0.0387466 -0.195483 0)
(0.0336453 -0.201055 0)
(0.028059 -0.206302 0)
(0.0220116 -0.211203 0)
(0.0155294 -0.215742 0)
(0.00863901 -0.219909 0)
(0.00136768 -0.223696 0)
(-0.00625699 -0.227102 0)
(-0.0142101 -0.230128 0)
(-0.0224692 -0.232778 0)
(-0.0310124 -0.235058 0)
(-0.039819 -0.236978 0)
(-0.0488692 -0.238547 0)
(-0.0581446 -0.239776 0)
(-0.0676271 -0.240679 0)
(-0.0772991 -0.241268 0)
(-0.0871437 -0.241557 0)
(-0.0971438 -0.241561 0)
(-0.107283 -0.241292 0)
(-0.117543 -0.240765 0)
(-0.127908 -0.239994 0)
(-0.138358 -0.238989 0)
(-0.148874 -0.237764 0)
(-0.159433 -0.236328 0)
(-0.170006 -0.234691 0)
(-0.18056 -0.232858 0)
(-0.191045 -0.230836 0)
(-0.201383 -0.228624 0)
(-0.211446 -0.226222 0)
(-0.221079 -0.22362 0)
(-0.230067 -0.220806 0)
(-0.237967 -0.217758 0)
(-0.243884 -0.21443 0)
(-0.246362 -0.210739 0)
(-0.244335 -0.206563 0)
(-0.238272 -0.201863 0)
(-0.229493 -0.196674 0)
(-0.219016 -0.191032 0)
(-0.207434 -0.184957 0)
(-0.195109 -0.178474 0)
(-0.182292 -0.171611 0)
(-0.16918 -0.16441 0)
(-0.155939 -0.15692 0)
(-0.142719 -0.149209 0)
(-0.129671 -0.141358 0)
(-0.117008 -0.133471 0)
(-0.105058 -0.12568 0)
(-0.0942673 -0.11815 0)
(-0.0851322 -0.111063 0)
(-0.0780858 -0.104594 0)
(-0.0733465 -0.0988549 0)
(-0.0708224 -0.0938456 0)
(-0.0701578 -0.0894415 0)
(-0.0708807 -0.0854418 0)
(-0.0725316 -0.0816428 0)
(-0.0747298 -0.0778861 0)
(-0.0771947 -0.0740704 0)
(-0.079739 -0.0701402 0)
(-0.0822489 -0.0660705 0)
(-0.0846596 -0.0618537 0)
(-0.0869347 -0.0574915 0)
(-0.089053 -0.0529904 0)
(-0.0910018 -0.0483594 0)
(-0.0927723 -0.0436085 0)
(-0.0943585 -0.0387486 0)
(-0.0957557 -0.0337909 0)
(-0.0969602 -0.0287472 0)
(-0.0979693 -0.0236291 0)
(-0.0987799 -0.0184487 0)
(-0.0993869 -0.0132182 0)
(-0.0997848 -0.00794965 0)
(-0.0999877 -0.00265499 0)
(0.0999815 -0.00376697 0)
(0.0996967 -0.0112596 0)
(0.0991326 -0.0186885 0)
(0.0982742 -0.0260324 0)
(0.0971346 -0.0332709 0)
(0.0957262 -0.0403846 0)
(0.0940606 -0.0473555 0)
(0.0921522 -0.0541673 0)
(0.0900212 -0.0608067 0)
(0.087694 -0.0672642 0)
(0.0852057 -0.0735359 0)
(0.0826008 -0.0796247 0)
(0.0799345 -0.0855433 0)
(0.0772707 -0.0913154 0)
(0.0746789 -0.0969771 0)
(0.0722258 -0.102575 0)
(0.0699644 -0.108164 0)
(0.0679211 -0.113797 0)
(0.0660847 -0.119519 0)
(0.0644012 -0.125354 0)
(0.0627778 -0.131305 0)
(0.0610963 -0.137354 0)
(0.0592307 -0.143463 0)
(0.0570651 -0.149581 0)
(0.0545051 -0.155656 0)
(0.0514833 -0.161633 0)
(0.0479588 -0.167462 0)
(0.0439132 -0.173099 0)
(0.0393451 -0.178504 0)
(0.0342654 -0.183646 0)
(0.0286925 -0.188499 0)
(0.0226491 -0.193041 0)
(0.0161601 -0.197258 0)
(0.00925119 -0.201138 0)
(0.00194829 -0.204676 0)
(-0.00572154 -0.207869 0)
(-0.0137341 -0.210717 0)
(-0.0220679 -0.213223 0)
(-0.0307015 -0.215392 0)
(-0.0396147 -0.217231 0)
(-0.0487882 -0.218748 0)
(-0.0582035 -0.219952 0)
(-0.0678423 -0.220853 0)
(-0.0776869 -0.221462 0)
(-0.0877196 -0.221791 0)
(-0.0979228 -0.22185 0)
(-0.108278 -0.221652 0)
(-0.118768 -0.221207 0)
(-0.129372 -0.220527 0)
(-0.140071 -0.219621 0)
(-0.150841 -0.218499 0)
(-0.161657 -0.217169 0)
(-0.172487 -0.215638 0)
(-0.183293 -0.213913 0)
(-0.194019 -0.211997 0)
(-0.204579 -0.20989 0)
(-0.214836 -0.20759 0)
(-0.224627 -0.205091 0)
(-0.233719 -0.20238 0)
(-0.241635 -0.199437 0)
(-0.247419 -0.196218 0)
(-0.249548 -0.192643 0)
(-0.247027 -0.188615 0)
(-0.240502 -0.184113 0)
(-0.231355 -0.179176 0)
(-0.220565 -0.173833 0)
(-0.208694 -0.16811 0)
(-0.196096 -0.162031 0)
(-0.183022 -0.155629 0)
(-0.169669 -0.148942 0)
(-0.15621 -0.14202 0)
(-0.1428 -0.134925 0)
(-0.129597 -0.127733 0)
(-0.116831 -0.120539 0)
(-0.104847 -0.113464 0)
(-0.0940992 -0.106656 0)
(-0.0850818 -0.100277 0)
(-0.0782044 -0.0944774 0)
(-0.0736464 -0.0893476 0)
(-0.0712765 -0.0848726 0)
(-0.0707166 -0.0809291 0)
(-0.0714911 -0.0773331 0)
(-0.0731483 -0.0739035 0)
(-0.0753196 -0.0705031 0)
(-0.0777369 -0.067045 0)
(-0.0802231 -0.0634824 0)
(-0.0826715 -0.059794 0)
(-0.0850217 -0.0559738 0)
(-0.0872395 -0.0520234 0)
(-0.0893051 -0.0479485 0)
(-0.0912061 -0.0437569 0)
(-0.0929342 -0.0394575 0)
(-0.0944832 -0.0350599 0)
(-0.0958484 -0.0305741 0)
(-0.0970259 -0.0260104 0)
(-0.0980129 -0.0213795 0)
(-0.098806 -0.0166922 0)
(-0.0994 -0.0119596 0)
(-0.0997894 -0.00719253 0)
(-0.0999879 -0.00240205 0)
(0.0999816 -0.00340144 0)
(0.0996983 -0.0101674 0)
(0.0991374 -0.0168761 0)
(0.0982836 -0.0235085 0)
(0.0971501 -0.0300462 0)
(0.0957493 -0.0364715 0)
(0.0940927 -0.0427683 0)
(0.0921947 -0.048922 0)
(0.0900754 -0.0549205 0)
(0.0877612 -0.0607554 0)
(0.0852869 -0.066423 0)
(0.0826969 -0.0719261 0)
(0.0800461 -0.0772762 0)
(0.0773983 -0.0824946 0)
(0.0748226 -0.0876139 0)
(0.0723859 -0.0926766 0)
(0.0701412 -0.0977314 0)
(0.0681155 -0.102827 0)
(0.0662978 -0.108004 0)
(0.0646347 -0.113285 0)
(0.063034 -0.118674 0)
(0.0613779 -0.124154 0)
(0.0595397 -0.129691 0)
(0.0574023 -0.135242 0)
(0.0548706 -0.140757 0)
(0.0518761 -0.146189 0)
(0.0483766 -0.151492 0)
(0.0443523 -0.156626 0)
(0.0398007 -0.161556 0)
(0.0347315 -0.166251 0)
(0.029162 -0.170689 0)
(0.023114 -0.17485 0)
(0.0166114 -0.17872 0)
(0.00967902 -0.18229 0)
(0.00234177 -0.185551 0)
(-0.00537344 -0.188503 0)
(-0.0134429 -0.191144 0)
(-0.0218461 -0.193476 0)
(-0.030562 -0.195502 0)
(-0.0395705 -0.197229 0)
(-0.0488525 -0.198663 0)
(-0.0583892 -0.19981 0)
(-0.0681624 -0.200681 0)
(-0.0781538 -0.201282 0)
(-0.0883452 -0.201624 0)
(-0.0987181 -0.201716 0)
(-0.109253 -0.201567 0)
(-0.119932 -0.201187 0)
(-0.130732 -0.200583 0)
(-0.141631 -0.199766 0)
(-0.152606 -0.198742 0)
(-0.163627 -0.197519 0)
(-0.17466 -0.196102 0)
(-0.185662 -0.194495 0)
(-0.196574 -0.192704 0)
(-0.207301 -0.190727 0)
(-0.2177 -0.188562 0)
(-0.227599 -0.186203 0)
(-0.236751 -0.183641 0)
(-0.24464 -0.180853 0)
(-0.250247 -0.177801 0)
(-0.252027 -0.174404 0)
(-0.249078 -0.170592 0)
(-0.242177 -0.166366 0)
(-0.232729 -0.161757 0)
(-0.22168 -0.15679 0)
(-0.209575 -0.151489 0)
(-0.196758 -0.14588 0)
(-0.183479 -0.139993 0)
(-0.16994 -0.133866 0)
(-0.156315 -0.127546 0)
(-0.142763 -0.121091 0)
(-0.129449 -0.11457 0)
(-0.116616 -0.108069 0)
(-0.104624 -0.101699 0)
(-0.0939349 -0.0955911 0)
(-0.0850368 -0.08989 0)
(-0.0783184 -0.0847247 0)
(-0.0739248 -0.080166 0)
(-0.0716917 -0.0761895 0)
(-0.0712236 -0.0726767 0)
(-0.0720433 -0.0694607 0)
(-0.0737065 -0.0663823 0)
(-0.0758553 -0.0633231 0)
(-0.078232 -0.0602092 0)
(-0.0806683 -0.0570012 0)
(-0.0830635 -0.0536814 0)
(-0.0853606 -0.0502448 0)
(-0.0875276 -0.0466931 0)
(-0.0895456 -0.0430312 0)
(-0.091403 -0.039266 0)
(-0.0930917 -0.0354053 0)
(-0.0946057 -0.0314574 0)
(-0.0959402 -0.0274311 0)
(-0.0970915 -0.0233356 0)
(-0.0980566 -0.0191802 0)
(-0.0988323 -0.0149746 0)
(-0.0994132 -0.0107286 0)
(-0.099794 -0.00645205 0)
(-0.0999882 -0.00215467 0)
(0.0999817 -0.00303794 0)
(0.0997 -0.00908109 0)
(0.099142 -0.0150735 0)
(0.0982927 -0.020998 0)
(0.0971651 -0.0268384 0)
(0.0957714 -0.0325789 0)
(0.0941232 -0.038205 0)
(0.0922349 -0.0437038 0)
(0.0901262 -0.0490646 0)
(0.0878235 -0.0542797 0)
(0.0853614 -0.0593461 0)
(0.0827842 -0.0642661 0)
(0.0801463 -0.06905 0)
(0.0775116 -0.073717 0)
(0.0749488 -0.0782959 0)
(0.0725249 -0.0828248 0)
(0.070293 -0.0873474 0)
(0.0682803 -0.0919074 0)
(0.0664766 -0.0965407 0)
(0.0648288 -0.101269 0)
(0.0632448 -0.106096 0)
(0.0616061 -0.111006 0)
(0.0597866 -0.115971 0)
(0.0576691 -0.12095 0)
(0.0551572 -0.125902 0)
(0.0521811 -0.130782 0)
(0.0486976 -0.13555 0)
(0.0446859 -0.14017 0)
(0.0401426 -0.144611 0)
(0.0350765 -0.148846 0)
(0.0295039 -0.152853 0)
(0.0234461 -0.156616 0)
(0.0169261 -0.16012 0)
(0.00996816 -0.163358 0)
(0.00259647 -0.166321 0)
(-0.00516212 -0.169009 0)
(-0.0132844 -0.171419 0)
(-0.0217505 -0.173553 0)
(-0.0305396 -0.175413 0)
(-0.0396316 -0.177004 0)
(-0.0490073 -0.17833 0)
(-0.0586479 -0.179399 0)
(-0.068535 -0.180216 0)
(-0.0786497 -0.180789 0)
(-0.0889735 -0.181125 0)
(-0.0994868 -0.181232 0)
(-0.11017 -0.181118 0)
(-0.121002 -0.18079 0)
(-0.131961 -0.180256 0)
(-0.143022 -0.179522 0)
(-0.15416 -0.178595 0)
(-0.165343 -0.177481 0)
(-0.176535 -0.176185 0)
(-0.187691 -0.17471 0)
(-0.198745 -0.17306 0)
(-0.209598 -0.171235 0)
(-0.220099 -0.169231 0)
(-0.23007 -0.167044 0)
(-0.239247 -0.164665 0)
(-0.247083 -0.162073 0)
(-0.252482 -0.159246 0)
(-0.253938 -0.156085 0)
(-0.250634 -0.152553 0)
(-0.243433 -0.148662 0)
(-0.233741 -0.144437 0)
(-0.222482 -0.1399 0)
(-0.210186 -0.135071 0)
(-0.197192 -0.129976 0)
(-0.183751 -0.124642 0)
(-0.170066 -0.119107 0)
(-0.156314 -0.113413 0)
(-0.142655 -0.107612 0)
(-0.129261 -0.101768 0)
(-0.116386 -0.0959584 0)
(-0.104402 -0.0902813 0)
(-0.0937774 -0.0848545 0)
(-0.0849941 -0.0798046 0)
(-0.0784215 -0.075242 0)
(-0.074175 -0.0712224 0)
(-0.0720628 -0.0677158 0)
(-0.0716754 -0.0646112 0)
(-0.0725353 -0.0617594 0)
(-0.0742046 -0.0590215 0)
(-0.0763346 -0.0562958 0)
(-0.0786769 -0.0535198 0)
(-0.0810704 -0.05066 0)
(-0.0834194 -0.0477019 0)
(-0.0856701 -0.0446415 0)
(-0.0877922 -0.0414802 0)
(-0.0897679 -0.0382225 0)
(-0.0915859 -0.0348744 0)
(-0.0932387 -0.0314426 0)
(-0.0947205 -0.0279343 0)
(-0.0960266 -0.0243572 0)
(-0.0971534 -0.0207194 0)