/*--------------------------------*- C++ -*----------------------------------*\
  =========                 |
  \\      /  F ield         | OpenFOAM: The Open Source CFD Toolbox
   \\    /   O peration     | Website:  https://openfoam.org
    \\  /    A nd           | Version:  8
     \\/     M anipulation  |
\*---------------------------------------------------------------------------*/
FoamFile
{
    version     2.0;
    format      ascii;
    class       volScalarField;
    location    "780/fluid";
    object      CH4;
}
// * * * * * * * * * * * * * * * * * * * * * * * * * * * * * * * * * * * * * //

dimensions      [0 0 0 0 0 0 0];

internalField   nonuniform List<scalar> 
4000
(
0.999997
0.999986
0.999968
0.999938
0.999888
0.999804
0.999667
0.999442
0.999078
0.998496
0.997578
0.996156
0.993994
0.990779
0.986126
0.979587
0.970695
0.959023
0.944241
0.926175
0.904819
0.880326
0.852975
0.823133
0.791212
0.757646
0.722861
0.68727
0.651255
0.615164
0.579306
0.543953
0.509332
0.475633
0.443006
0.411571
0.38142
0.352614
0.325191
0.299167
0.274541
0.251297
0.229407
0.208835
0.189535
0.171459
0.154553
0.138763
0.124032
0.110306
0.097529
0.0856483
0.0746133
0.0643765
0.054894
0.046126
0.0380381
0.0307026
0.0240657
0.0178549
0.0122573
0.00728465
0.00327389
0.00229655
0.0015904
0.00108533
0.000728457
0.000479852
0.000309531
0.000195117
0.000120076
7.23627e-05
4.33862e-05
2.73242e-05
1.99074e-05
1.52743e-05
1.13231e-05
7.95604e-06
5.24416e-06
3.21872e-06
1.83632e-06
9.78626e-07
4.91728e-07
2.36734e-07
1.10627e-07
5.04824e-08
2.25932e-08
9.94932e-09
4.32209e-09
1.85596e-09
7.89157e-10
3.3273e-10
1.3926e-10
5.78917e-11
2.38917e-11
9.75958e-12
3.90981e-12
1.49545e-12
5.00092e-13
8.77672e-14
0.999997
0.999986
0.999968
0.999938
0.999887
0.999803
0.999665
0.999439
0.999074
0.99849
0.997573
0.996155
0.994005
0.990821
0.986225
0.979783
0.971039
0.959569
0.945042
0.927267
0.906219
0.882028
0.854953
0.825343
0.7936
0.760152
0.725428
0.689842
0.653784
0.617607
0.581632
0.546135
0.511351
0.477478
0.444671
0.413054
0.382723
0.353742
0.326153
0.299972
0.2752
0.251821
0.229808
0.209124
0.189725
0.17156
0.154574
0.138715
0.123924
0.110146
0.097325
0.0854069
0.0743405
0.0640778
0.0545742
0.0457895
0.0376886
0.0303475
0.0237076
0.0174922
0.0118934
0.00692915
0.00322368
0.00225893
0.00156181
0.00106355
0.000711969
0.00046755
0.000300541
0.000188728
0.000115707
6.95511e-05
4.17822e-05
2.66934e-05
1.97193e-05
1.5035e-05
1.10252e-05
7.65628e-06
4.98854e-06
3.03254e-06
1.72056e-06
9.16867e-07
4.63161e-07
2.24663e-07
1.05924e-07
4.87804e-08
2.20198e-08
9.7696e-09
4.26988e-09
1.84198e-09
7.85685e-10
3.31881e-10
1.39009e-10
5.77794e-11
2.38267e-11
9.72158e-12
3.8894e-12
1.48575e-12
4.96332e-13
8.7153e-14
0.999997
0.999986
0.999968
0.999938
0.999887
0.999803
0.999664
0.999437
0.999071
0.998487
0.997569
0.996154
0.994015
0.990853
0.9863
0.979931
0.971297
0.959984
0.945661
0.928134
0.907367
0.883474
0.856696
0.827363
0.795863
0.762613
0.728034
0.692538
0.656513
0.62032
0.584281
0.548679
0.513759
0.479723
0.446734
0.414922
0.384388
0.355202
0.32741
0.301031
0.27607
0.252512
0.230332
0.209493
0.189952
0.171655
0.154555
0.138593
0.123711
0.109854
0.0969642
0.0849874
0.0738716
0.0635679
0.0540309
0.0452201
0.0370997
0.0297539
0.0231118
0.0169017
0.0113219
0.00636803
0.00318358
0.00221867
0.00152581
0.00103352
0.000688119
0.000449371
0.000287206
0.000179331
0.000109396
6.5598e-05
3.96266e-05
2.59381e-05
1.94242e-05
1.46954e-05
1.06604e-05
7.32369e-06
4.72602e-06
2.85208e-06
1.61176e-06
8.58447e-07
4.34696e-07
2.11617e-07
1.00228e-07
4.63902e-08
2.10495e-08
9.38616e-09
4.1214e-09
1.78524e-09
7.6412e-10
3.23659e-10
1.3584e-10
5.65375e-11
2.33315e-11
9.52165e-12
3.80888e-12
1.45446e-12
4.85643e-13
8.53295e-14
0.999997
0.999986
0.999968
0.999938
0.999887
0.999803
0.999664
0.999438
0.999074
0.998493
0.997584
0.996182
0.994065
0.99094
0.986443
0.980157
0.971638
0.960474
0.946334
0.929019
0.908484
0.884831
0.85829
0.82918
0.79788
0.764798
0.730348
0.69494
0.65896
0.622769
0.58669
0.551013
0.515984
0.481812
0.448665
0.416679
0.38596
0.356582
0.328595
0.302024
0.276874
0.253135
0.230783
0.209782
0.190088
0.171658
0.154435
0.138362
0.123383
0.109439
0.0964749
0.0844344
0.073265
0.0629173
0.0533453
0.0445077
0.0363685
0.0290308
0.0224041
0.016202
0.0106209
0.00568609
0.00314408
0.00217678
0.00148683
0.00100017
0.000661315
0.000428892
0.000272259
0.000168907
0.000102494
6.13524e-05
3.7369e-05
2.51749e-05
1.90142e-05
1.42575e-05
1.02289e-05
6.9482e-06
4.43603e-06
2.65332e-06
1.4903e-06
7.91446e-07
4.00764e-07
1.95486e-07
9.28754e-08
4.31467e-08
1.96559e-08
8.80041e-09
3.87964e-09
1.6869e-09
7.24551e-10
3.07857e-10
1.29557e-10
5.40447e-11
2.23437e-11
9.13154e-12
3.65662e-12
1.39723e-12
4.6666e-13
8.20914e-14
0.999997
0.999986
0.999968
0.999938
0.999887
0.999804
0.999666
0.999441
0.999079
0.998503
0.9976
0.996211
0.994114
0.991021
0.986574
0.980358
0.971936
0.960898
0.946913
0.929776
0.909435
0.885984
0.859642
0.83072
0.799587
0.766645
0.732305
0.696971
0.66103
0.624842
0.588732
0.552992
0.517872
0.483584
0.450301
0.418163
0.38728
0.357731
0.32957
0.302824
0.277503
0.253599
0.231087
0.209933
0.190103
0.171544
0.154204
0.138026
0.122954
0.108929
0.095895
0.0837957
0.072578
0.0621917
0.0525899
0.0437303
0.0355878
0.0282797
0.0216525
0.0154429
0.0098779
0.00500618
0.00310339
0.00212684
0.00143938
0.000960112
0.000629887
0.000405541
0.000255692
0.000157668
9.52441e-05
5.69933e-05
3.51293e-05
2.44689e-05
1.85143e-05
1.37547e-05
9.77043e-06
6.57323e-06
4.16065e-06
2.472e-06
1.38276e-06
7.33256e-07
3.71559e-07
1.81615e-07
8.65196e-08
4.0313e-08
1.84193e-08
8.26995e-09
3.65521e-09
1.593e-09
6.85617e-10
2.91826e-10
1.22993e-10
5.13694e-11
2.12585e-11
8.69452e-12
3.48344e-12
1.33144e-12
4.44693e-13
7.83197e-14
0.999997
0.999986
0.999968
0.999938
0.999888
0.999805
0.999668
0.999445
0.999086
0.998515
0.997621
0.996245
0.994171
0.99111
0.98671
0.980561
0.972227
0.961299
0.947444
0.930455
0.910272
0.886982
0.860798
0.832022
0.801018
0.768184
0.733926
0.698646
0.662731
0.626538
0.590397
0.554598
0.519397
0.485006
0.451605
0.419334
0.388308
0.358611
0.330296
0.303397
0.277924
0.253871
0.231218
0.209938
0.189985
0.171314
0.153872
0.137602
0.122449
0.108355
0.0952619
0.0831146
0.0718595
0.0614461
0.0518273
0.0429626
0.0348118
0.0275176
0.0208801
0.0146825
0.00913842
0.00432631
0.00296436
0.00201517
0.00135519
0.000899183
0.000587153
0.000376393
0.000236357
0.000145231
8.75419e-05
5.24769e-05
3.27576e-05
2.33903e-05
1.7775e-05
1.31544e-05
9.29224e-06
6.21213e-06
3.90741e-06
2.30911e-06
1.28678e-06
6.80996e-07
3.44917e-07
1.68747e-07
8.05105e-08
3.75829e-08
1.72069e-08
7.74179e-09
3.42889e-09
1.49735e-09
6.45648e-10
2.7528e-10
1.16194e-10
4.85927e-11
2.01311e-11
8.24048e-12
3.30355e-12
1.26311e-12
4.21891e-13
7.44048e-14
0.999997
0.999986
0.999969
0.999939
0.999889
0.999806
0.999671
0.99945
0.999094
0.998528
0.997642
0.996279
0.994224
0.991193
0.986836
0.980744
0.972486
0.961652
0.947908
0.931043
0.91099
0.887832
0.861773
0.833113
0.802209
0.769455
0.735256
0.700012
0.664108
0.627903
0.591726
0.555871
0.520594
0.486112
0.452605
0.420218
0.389068
0.359242
0.330798
0.303767
0.278163
0.253983
0.231213
0.209819
0.189761
0.170994
0.153464
0.137118
0.121898
0.107747
0.0946074
0.0824235
0.071142
0.0607129
0.0510901
0.0422305
0.0340931
0.0268782
0.0201009
0.0139695
0.00848555
0.00374471
0.00261706
0.00180261
0.00122285
0.000816012
0.000534786
0.000343602
0.000216093
0.000132987
8.0412e-05
4.85988e-05
3.10001e-05
2.26389e-05
1.72128e-05
1.26776e-05
8.90877e-06
5.92305e-06
3.70563e-06
2.17982e-06
1.21069e-06
6.39469e-07
3.23619e-07
1.58369e-07
7.56101e-08
3.53269e-08
1.61903e-08
7.29218e-09
3.23323e-09
1.4134e-09
6.10071e-10
2.6036e-10
1.09992e-10
4.60351e-11
1.90842e-11
7.81603e-12
3.1345e-12
1.19864e-12
4.00319e-13
7.0703e-14
0.999997
0.999986
0.999969
0.999939
0.99989
0.999808
0.999673
0.999454
0.999101
0.99854
0.997662
0.996311
0.994274
0.991271
0.986951
0.98091
0.972718
0.961965
0.948313
0.931549
0.911603
0.88855
0.862591
0.834019
0.803191
0.770495
0.736336
0.701112
0.665208
0.628984
0.592769
0.556859
0.521511
0.486946
0.453344
0.420855
0.389595
0.359655
0.331095
0.303951
0.278239
0.253959
0.231088
0.209601
0.189456
0.17061
0.15301
0.136601
0.121328
0.107132
0.0939557
0.0817438
0.0704421
0.0599999
0.0503697
0.0415086
0.0334196
0.0262333
0.0194864
0.0134177
0.00803455
0.00345373
0.00241042
0.00166057
0.00112734
0.000752868
0.000493671
0.000317244
0.000199494
0.000122773
7.43481e-05
4.52474e-05
2.94436e-05
2.19762e-05
1.67787e-05
1.23429e-05
8.64265e-06
5.7187e-06
3.55897e-06
2.08322e-06
1.15239e-06
6.06905e-07
3.06547e-07
1.49896e-07
7.15415e-08
3.34258e-08
1.53225e-08
6.90398e-09
3.06266e-09
1.33962e-09
5.78589e-10
2.47083e-10
1.04449e-10
4.37402e-11
1.8142e-11
7.43316e-12
2.98172e-12
1.14029e-12
3.80776e-13
6.7358e-14
0.999997
0.999986
0.999969
0.99994
0.999891
0.999809
0.999676
0.999458
0.999108
0.998551
0.99768
0.996341
0.99432
0.99134
0.987053
0.981057
0.972921
0.962235
0.948661
0.931981
0.912121
0.889152
0.863271
0.834767
0.803994
0.77134
0.737206
0.701991
0.666079
0.62983
0.593576
0.557613
0.5222
0.487559
0.453874
0.421296
0.389945
0.35991
0.331253
0.304013
0.278209
0.253838
0.230883
0.209317
0.189102
0.170191
0.152534
0.136076
0.120762
0.106532
0.0933294
0.0810988
0.0697861
0.0593405
0.0497157
0.04087
0.0328217
0.025657
0.0189385
0.0129095
0.00757765
0.00328814
0.00229284
0.00157854
0.00107128
0.000715439
0.00046933
0.000301897
0.000190183
0.00011741
7.15048e-05
4.39801e-05
2.9181e-05
2.19663e-05
1.67107e-05
1.22343e-05
8.51797e-06
5.59924e-06
3.46269e-06
2.0155e-06
1.10978e-06
5.8239e-07
2.93396e-07
1.43253e-07
6.83019e-08
3.18909e-08
1.46131e-08
6.58313e-09
2.92027e-09
1.27748e-09
5.51866e-10
2.35736e-10
9.96835e-11
4.17582e-11
1.73252e-11
7.10017e-12
2.84853e-12
1.08933e-12
3.63687e-13
6.44412e-14
0.999997
0.999987
0.999969
0.99994
0.999891
0.999811
0.999678
0.999462
0.999114
0.998561
0.997697
0.996367
0.99436
0.991401
0.987143
0.981184
0.973095
0.962466
0.948956
0.932345
0.912555
0.889653
0.863832
0.83538
0.804648
0.772021
0.737901
0.702685
0.666759
0.630484
0.59419
0.558176
0.522703
0.487994
0.454234
0.421576
0.390142
0.360024
0.331288
0.303971
0.278091
0.253647
0.230624
0.208995
0.188722
0.16976
0.152059
0.135563
0.120217
0.105962
0.0927409
0.0804977
0.0691781
0.0587313
0.04911
0.040272
0.0322513
0.0251077
0.0184057
0.0123893
0.00706359
0.00321487
0.00223727
0.00153745
0.00104158
0.000694442
0.000454831
0.000292135
0.000183817
0.000113457
6.92685e-05
4.30127e-05
2.91427e-05
2.2145e-05
1.68064e-05
1.22457e-05
8.48106e-06
5.54279e-06
3.40508e-06
1.97019e-06
1.07941e-06
5.64189e-07
2.83344e-07
1.38072e-07
6.57344e-08
3.06584e-08
1.40371e-08
6.32011e-09
2.80261e-09
1.22579e-09
5.29508e-10
2.26198e-10
9.56625e-11
4.00805e-11
1.66319e-11
6.81701e-12
2.73508e-12
1.04587e-12
3.49109e-13
6.19624e-14
0.999997
0.999987
0.999969
0.99994
0.999892
0.999812
0.99968
0.999465
0.99912
0.998571
0.997711
0.99639
0.994396
0.991454
0.987219
0.981292
0.973243
0.962661
0.949205
0.932649
0.912915
0.890065
0.864292
0.835878
0.805174
0.772565
0.738451
0.70323
0.667286
0.630982
0.594651
0.55859
0.523063
0.488294
0.454471
0.421747
0.390243
0.360055
0.33125
0.303865
0.27792
0.253416
0.230338
0.208658
0.188339
0.169337
0.151601
0.135076
0.119707
0.105434
0.0921999
0.0799488
0.0686261
0.0581803
0.0485637
0.0397344
0.0317335
0.024609
0.01792
0.0119206
0.00661408
0.00318472
0.00221417
0.00152065
0.0010299
0.000686651
0.000449845
0.000289092
0.000182071
0.000112558
6.89416e-05
4.31158e-05
2.96745e-05
2.26242e-05
1.70949e-05
1.23854e-05
8.5226e-06
5.53316e-06
3.37835e-06
1.94257e-06
1.05882e-06
5.5113e-07
2.75867e-07
1.34129e-07
6.37453e-08
2.969e-08
1.35793e-08
6.10909e-09
2.70746e-09
1.1837e-09
5.11204e-10
2.18353e-10
9.23426e-11
3.86912e-11
1.60566e-11
6.58157e-12
2.64061e-12
1.00964e-12
3.36943e-13
5.99124e-14
0.999997
0.999987
0.99997
0.999941
0.999893
0.999813
0.999682
0.999468
0.999124
0.998578
0.997724
0.996409
0.994426
0.991499
0.987285
0.981384
0.973368
0.962825
0.949411
0.932901
0.913211
0.890403
0.864665
0.83628
0.805596
0.772997
0.738883
0.703652
0.667689
0.631358
0.59499
0.558887
0.523311
0.488489
0.454609
0.421826
0.390264
0.36002
0.331157
0.303718
0.277721
0.253167
0.230044
0.208323
0.187969
0.168935
0.151173
0.134627
0.11924
0.104954
0.0917127
0.0794578
0.0681352
0.0576935
0.0480867
0.0392719
0.0312853
0.0241712
0.0174975
0.0115141
0.00622315
0.00316279
0.00220013
0.00151169
0.0010243
0.000683268
0.000447899
0.000288073
0.000181651
0.000112539
6.92215e-05
4.36677e-05
3.05342e-05
2.33011e-05
1.75191e-05
1.26171e-05
8.62568e-06
5.56195e-06
3.37367e-06
1.92897e-06
1.04594e-06
5.42172e-07
2.7048e-07
1.31204e-07
6.2239e-08
2.89451e-08
1.32229e-08
5.94325e-09
2.63209e-09
1.15015e-09
4.96536e-10
2.12039e-10
8.96607e-11
3.75655e-11
1.55894e-11
6.39024e-12
2.56374e-12
9.80113e-13
3.27e-13
5.82602e-14
0.999997
0.999987
0.99997
0.999941
0.999893
0.999814
0.999683
0.999471
0.999129
0.998585
0.997734
0.996426
0.994451
0.991536
0.987339
0.98146
0.973472
0.96296
0.949581
0.933107
0.913452
0.890676
0.864965
0.836601
0.80593
0.773336
0.739218
0.703976
0.667995
0.631637
0.595237
0.559095
0.523478
0.48861
0.454683
0.42185
0.39024
0.359946
0.331035
0.30355
0.27751
0.252918
0.229758
0.208005
0.187623
0.168565
0.150783
0.134221
0.118822
0.104529
0.0912825
0.0790266
0.0677072
0.0572732
0.0476748
0.0388643
0.030893
0.0237952
0.017137
0.0111694
0.00589401
0.00314444
0.00219073
0.00150751
0.00102298
0.000683396
0.000448681
0.00028907
0.000182655
0.000113479
7.0115e-05
4.45944e-05
3.16109e-05
2.40942e-05
1.80207e-05
1.29028e-05
8.7664e-06
5.61682e-06
3.38598e-06
1.92549e-06
1.03937e-06
5.36595e-07
2.66832e-07
1.29142e-07
6.11485e-08
2.83952e-08
1.29558e-08
5.81741e-09
2.57435e-09
1.12424e-09
4.85129e-10
2.07101e-10
8.75537e-11
3.66778e-11
1.52199e-11
6.23853e-12
2.50281e-12
9.56653e-13
3.1908e-13
5.6961e-14
0.999997
0.999987
0.99997
0.999941
0.999893
0.999814
0.999684
0.999473
0.999132
0.998591
0.997743
0.99644
0.994472
0.991568
0.987384
0.981523
0.973556
0.96307
0.949719
0.933274
0.913647
0.890895
0.865204
0.836855
0.806192
0.773599
0.739477
0.704223
0.668223
0.631841
0.595412
0.559237
0.523583
0.488676
0.454708
0.421835
0.390183
0.359849
0.3309
0.303378
0.277304
0.25268
0.229492
0.207714
0.18731
0.168234
0.150437
0.133864
0.118457
0.104159
0.0909114
0.0786592
0.0673459
0.0569158
0.0473206
0.0385194
0.0305637
0.023479
0.0168331
0.0108777
0.00562301
0.00312911
0.00218443
0.0015062
0.00102418
0.000685639
0.000451148
0.000291352
0.000184592
0.00011506
7.14067e-05
4.57095e-05
3.26565e-05
2.48825e-05
1.85378e-05
1.32104e-05
8.92835e-06
5.68914e-06
3.41109e-06
1.93018e-06
1.03762e-06
5.33934e-07
2.64704e-07
1.27841e-07
6.04229e-08
2.8016e-08
1.27667e-08
5.72657e-09
2.53201e-09
1.105e-09
4.7658e-10
2.03371e-10
8.59519e-11
3.59995e-11
1.49363e-11
6.12178e-12
2.45579e-12
9.38521e-13
3.12942e-13
5.59685e-14
0.999997
0.999987
0.99997
0.999941
0.999894
0.999815
0.999685
0.999474
0.999135
0.998595
0.997751
0.996451
0.994489
0.991593
0.987421
0.981574
0.973625
0.963159
0.94983
0.933407
0.913801
0.891068
0.865392
0.837053
0.806395
0.773802
0.739673
0.704407
0.668391
0.631988
0.595534
0.559331
0.523646
0.488707
0.454706
0.4218
0.390114
0.359747
0.330766
0.303215
0.277113
0.252464
0.229254
0.207457
0.187036
0.167947
0.150139
0.133558
0.118147
0.103848
0.0906019
0.0783506
0.0670372
0.0566115
0.0470247
0.0382329
0.0302915
0.0232179
0.0165822
0.0106361
0.00540353
0.00311674
0.00218106
0.00150757
0.00102768
0.000689767
0.000455096
0.000294755
0.000187346
0.000117209
7.30743e-05
4.7051e-05
3.38093e-05
2.57314e-05
1.90994e-05
1.35517e-05
9.11559e-06
5.7797e-06
3.44861e-06
1.94273e-06
1.04027e-06
5.33554e-07
2.63843e-07
1.27173e-07
6.00092e-08
2.77824e-08
1.26439e-08
5.66534e-09
2.50271e-09
1.09143e-09
4.70453e-10
2.00666e-10
8.47796e-11
3.54998e-11
1.47261e-11
6.03511e-12
2.42059e-12
9.25077e-13
3.08351e-13
5.52423e-14
0.999997
0.999987
0.99997
0.999942
0.999894
0.999815
0.999686
0.999476
0.999137
0.998599
0.997756
0.99646
0.994503
0.991613
0.98745
0.981614
0.973679
0.963229
0.949917
0.933511
0.913921
0.891203
0.865537
0.837205
0.806549
0.773955
0.73982
0.704544
0.668513
0.632092
0.595617
0.559391
0.523681
0.488715
0.454687
0.421753
0.390041
0.359648
0.330643
0.303068
0.276946
0.252278
0.229051
0.207239
0.186806
0.167708
0.149894
0.133309
0.117896
0.103595
0.0903477
0.0780962
0.0667867
0.0563666
0.0467867
0.0380027
0.0300733
0.0230091
0.0163817
0.010443
0.0052279
0.00310684
0.0021802
0.00151126
0.0010332
0.000695568
0.000460371
0.00029917
0.000190844
0.000119886
7.50982e-05
4.86155e-05
3.50777e-05
2.66504e-05
1.971e-05
1.39278e-05
9.32723e-06
5.88696e-06
3.49705e-06
1.96204e-06
1.04688e-06
5.3529e-07
2.64003e-07
1.26985e-07
5.98147e-08
2.76544e-08
1.25712e-08
5.62713e-09
2.48369e-09
1.08238e-09
4.66282e-10
1.98799e-10
8.39602e-11
3.51488e-11
1.4576e-11
5.97476e-12
2.39534e-12
9.15773e-13
3.05109e-13
5.4745e-14
0.999997
0.999987
0.99997
0.999942
0.999894
0.999816
0.999687
0.999477
0.999139
0.998602
0.997761
0.996467
0.994513
0.991629
0.987472
0.981645
0.97372
0.963282
0.949983
0.93359
0.914012
0.891304
0.865646
0.837318
0.806664
0.774067
0.739927
0.704642
0.668599
0.632164
0.595672
0.559428
0.523698
0.488712
0.454663
0.421708
0.389975
0.359562
0.330538
0.302946
0.276808
0.252126
0.228887
0.207065
0.186624
0.167519
0.1497
0.13311
0.117693
0.103391
0.0901444
0.0778966
0.0665917
0.0561769
0.0466032
0.0378259
0.0299048
0.0228481
0.0162272
0.0102942
0.00509249
0.0030988
0.00218114
0.00151655
0.00104008
0.00070249
0.000466553
0.000304299
0.000194887
0.000122961
7.73961e-05
5.03513e-05
3.64278e-05
2.7617e-05
2.03531e-05
1.43266e-05
9.55493e-06
6.00542e-06
3.55293e-06
1.98598e-06
1.05618e-06
5.38515e-07
2.64941e-07
1.27186e-07
5.98099e-08
2.76135e-08
1.25379e-08
5.60712e-09
2.47287e-09
1.07701e-09
4.63701e-10
1.97621e-10
8.34284e-11
3.49249e-11
1.44771e-11
5.9364e-12
2.3787e-12
9.09769e-13
3.02983e-13
5.44339e-14
0.999997
0.999987
0.99997
0.999942
0.999894
0.999816
0.999687
0.999478
0.99914
0.998604
0.997764
0.996472
0.994521
0.99164
0.987488
0.981667
0.97375
0.96332
0.95003
0.933646
0.914077
0.891376
0.865723
0.837398
0.806745
0.774146
0.740001
0.704709
0.668658
0.632211
0.595707
0.559449
0.523705
0.488705
0.45464
0.42167
0.389923
0.359496
0.330459
0.302854
0.276705
0.252013
0.228765
0.206936
0.186488
0.167377
0.149553
0.132961
0.117543
0.103242
0.089997
0.0777521
0.0664509
0.0560407
0.046472
0.0377001
0.0297812
0.0227286
0.016109
0.0101732
0.00497102
0.00309327
0.00218443
0.00152387
0.00104862
0.000710706
0.000473707
0.000310136
0.000199429
0.000126374
7.99052e-05
5.2192e-05
3.78019e-05
2.85831e-05
2.0991e-05
1.47212e-05
9.78117e-06
6.12452e-06
3.61035e-06
2.01138e-06
1.06654e-06
5.42412e-07
2.66277e-07
1.27609e-07
5.99239e-08
2.76312e-08
1.2533e-08
5.60032e-09
2.46807e-09
1.07441e-09
4.62332e-10
1.97015e-10
8.31337e-11
3.48047e-11
1.44216e-11
5.91471e-12
2.36914e-12
9.06319e-13
3.01733e-13
5.42638e-14
0.999997
0.999987
0.99997
0.999942
0.999895
0.999816
0.999688
0.999478
0.999141
0.998605
0.997766
0.996475
0.994526
0.991647
0.987498
0.981682
0.973769
0.963345
0.950061
0.933683
0.914119
0.891422
0.865773
0.83745
0.806796
0.774196
0.740048
0.704751
0.668694
0.63224
0.595728
0.559461
0.523707
0.488697
0.454623
0.421643
0.389885
0.35945
0.330404
0.302792
0.276635
0.251936
0.228682
0.206847
0.186396
0.167282
0.149456
0.132863
0.117446
0.103145
0.0899024
0.0776598
0.0663616
0.0559549
0.04639
0.0376222
0.0297053
0.0226562
0.0160384
0.0101026
0.00490259
0.00308957
0.00218884
0.00153189
0.00105759
0.000719183
0.000481009
0.00031605
0.000204003
0.000129787
8.23872e-05
5.39696e-05
3.90689e-05
2.94476e-05
2.15506e-05
1.50625e-05
9.97516e-06
6.22645e-06
3.65971e-06
2.03343e-06
1.07568e-06
5.45947e-07
2.67557e-07
1.28033e-07
6.00858e-08
2.76788e-08
1.2542e-08
5.6034e-09
2.46721e-09
1.07398e-09
4.6184e-10
1.96807e-10
8.30067e-11
3.47539e-11
1.43955e-11
5.90473e-12
2.36445e-12
9.04669e-13
3.01105e-13
5.41877e-14
0.999997
0.999987
0.99997
0.999942
0.999895
0.999816
0.999688
0.999478
0.999141
0.998606
0.997767
0.996477
0.994528
0.991651
0.987503
0.981689
0.973778
0.963357
0.950075
0.9337
0.914139
0.891444
0.865796
0.837474
0.806821
0.774219
0.74007
0.704771
0.668711
0.632254
0.595737
0.559466
0.523708
0.488692
0.454613
0.421628
0.389867
0.359426
0.330376
0.30276
0.276599
0.251897
0.228641
0.206804
0.186351
0.167236
0.14941
0.132817
0.117399
0.103099
0.0898578
0.0776167
0.0663204
0.0559157
0.0463531
0.0375874
0.0296724
0.0226252
0.0160083
0.0100717
0.00487002
0.00308806
0.00219387
0.00153936
0.00106537
0.000726224
0.000486905
0.000320731
0.000207572
0.000132419
8.42729e-05
5.52807e-05
3.99382e-05
3.00072e-05
2.18977e-05
1.52674e-05
1.00888e-05
6.28514e-06
3.68785e-06
2.04598e-06
1.08089e-06
5.47981e-07
2.68307e-07
1.28294e-07
6.01797e-08
2.77151e-08
1.25506e-08
5.60696e-09
2.4676e-09
1.0741e-09
4.61729e-10
1.96759e-10
8.29656e-11
3.47375e-11
1.43861e-11
5.90112e-12
2.36266e-12
9.04039e-13
3.00857e-13
5.41608e-14
0.999997
0.999987
0.99997
0.999942
0.999895
0.999816
0.999688
0.999478
0.999141
0.998606
0.997767
0.996477
0.994528
0.991651
0.987503
0.981689
0.973778
0.963356
0.950075
0.9337
0.914138
0.891444
0.865796
0.837474
0.80682
0.774219
0.74007
0.704771
0.66871
0.632253
0.595737
0.559466
0.523707
0.488692
0.454613
0.421628
0.389866
0.359426
0.330376
0.30276
0.276599
0.251897
0.228641
0.206804
0.186351
0.167236
0.14941
0.132817
0.117399
0.103099
0.0898577
0.0776166
0.0663203
0.0559155
0.0463529
0.0375871
0.029672
0.0226248
0.016008
0.0100715
0.00487003
0.00308817
0.00219404
0.00153956
0.00106554
0.00072636
0.000487003
0.000320797
0.000207614
0.000132445
8.42877e-05
5.52888e-05
3.99423e-05
3.00091e-05
2.18984e-05
1.52677e-05
1.00889e-05
6.28514e-06
3.68785e-06
2.04598e-06
1.08089e-06
5.47979e-07
2.68304e-07
1.28309e-07
6.01694e-08
2.77177e-08
1.2551e-08
5.60695e-09
2.46761e-09
1.07409e-09
4.61731e-10
1.96757e-10
8.29655e-11
3.4737e-11
1.4386e-11
5.90102e-12
2.36265e-12
9.04e-13
3.00851e-13
5.41588e-14
0.999997
0.999987
0.99997
0.999942
0.999895
0.999816
0.999688
0.999478
0.999141
0.998605
0.997766
0.996475
0.994526
0.991647
0.987498
0.981682
0.973769
0.963345
0.950061
0.933683
0.914118
0.891422
0.865772
0.837449
0.806796
0.774195
0.740047
0.704751
0.668693
0.63224
0.595728
0.559461
0.523707
0.488696
0.454622
0.421642
0.389885
0.359449
0.330404
0.302791
0.276634
0.251935
0.228682
0.206847
0.186395
0.167282
0.149456
0.132863
0.117446
0.103145
0.0899023
0.0776597
0.0663615
0.0559547
0.0463897
0.0376216
0.0297047
0.0226558
0.0160382
0.0101026
0.00490266
0.00308973
0.00218899
0.00153199
0.00105766
0.000719229
0.000481041
0.000316073
0.00020402
0.000129799
8.23947e-05
5.39744e-05
3.90717e-05
2.94491e-05
2.15511e-05
1.50627e-05
9.97516e-06
6.22643e-06
3.6597e-06
2.03343e-06
1.07568e-06
5.45944e-07
2.67551e-07
1.28063e-07
6.00661e-08
2.76838e-08
1.25427e-08
5.6034e-09
2.46728e-09
1.07396e-09
4.61846e-10
1.96802e-10
8.30067e-11
3.47527e-11
1.43953e-11
5.90444e-12
2.36443e-12
9.04555e-13
3.01087e-13
5.41814e-14
0.999997
0.999987
0.99997
0.999942
0.999894
0.999816
0.999687
0.999478
0.99914
0.998604
0.997764
0.996472
0.994521
0.99164
0.987488
0.981667
0.973749
0.96332
0.95003
0.933646
0.914076
0.891375
0.865723
0.837397
0.806744
0.774145
0.74
0.704708
0.668657
0.63221
0.595706
0.559449
0.523704
0.488704
0.45464
0.42167
0.389922
0.359495
0.330458
0.302854
0.276705
0.252013
0.228765
0.206935
0.186488
0.167377
0.149553
0.132961
0.117543
0.103241
0.089997
0.077752
0.0664509
0.0560406
0.0464719
0.0377001
0.0297811
0.0227286
0.016109
0.0101731
0.00497098
0.00309326
0.00218443
0.00152388
0.00104864
0.000710725
0.000473724
0.00031015
0.000199439
0.000126381
7.99101e-05
5.21949e-05
3.78033e-05
2.85837e-05
2.09912e-05
1.47213e-05
9.78116e-06
6.12453e-06
3.61036e-06
2.01139e-06
1.06655e-06
5.42417e-07
2.66281e-07
1.27612e-07
5.99231e-08
2.76322e-08
1.25332e-08
5.60032e-09
2.46812e-09
1.07441e-09
4.6234e-10
1.97012e-10
8.31345e-11
3.48037e-11
1.44215e-11
5.91437e-12
2.36916e-12
9.06159e-13
3.0171e-13
5.42553e-14
0.999997
0.999987
0.99997
0.999942
0.999894
0.999816
0.999687
0.999477
0.999139
0.998602
0.997761
0.996467
0.994513
0.991628
0.987472
0.981645
0.97372
0.963281
0.949982
0.933589
0.914011
0.891303
0.865645
0.837317
0.806663
0.774066
0.739925
0.70464
0.668598
0.632162
0.595671
0.559427
0.523697
0.488711
0.454662
0.421707
0.389974
0.359561
0.330537
0.302946
0.276807
0.252125
0.228886
0.207065
0.186624
0.167519
0.1497
0.13311
0.117692
0.10339
0.0901442
0.0778965
0.0665916
0.0561769
0.0466033
0.0378263
0.0299053
0.0228484
0.0162273
0.0102942
0.00509236
0.00309868
0.00218102
0.00151648
0.00104005
0.000702479
0.000466551
0.000304301
0.000194889
0.000122963
7.73975e-05
5.03521e-05
3.64278e-05
2.76169e-05
2.0353e-05
1.43266e-05
9.55501e-06
6.0055e-06
3.55299e-06
1.98601e-06
1.0562e-06
5.38527e-07
2.64947e-07
1.27189e-07
5.98113e-08
2.76142e-08
1.25383e-08
5.60728e-09
2.47294e-09
1.07704e-09
4.63714e-10
1.97626e-10
8.34309e-11
3.49251e-11
1.44775e-11
5.93603e-12
2.37888e-12
9.09573e-13
3.0296e-13
5.44246e-14
0.999997
0.999987
0.99997
0.999942
0.999894
0.999815
0.999686
0.999476
0.999137
0.998599
0.997756
0.99646
0.994503
0.991613
0.987449
0.981614
0.973678
0.963228
0.949916
0.93351
0.91392
0.891201
0.865536
0.837203
0.806548
0.773953
0.739818
0.704542
0.668511
0.63209
0.595615
0.559389
0.523679
0.488714
0.454686
0.421752
0.390039
0.359647
0.330642
0.303068
0.276945
0.252277
0.22905
0.207239
0.186806
0.167707
0.149893
0.133309
0.117896
0.103595
0.0903475
0.078096
0.0667866
0.0563665
0.0467867
0.0380029
0.0300735
0.0230093
0.0163819
0.010443
0.00522779
0.00310675
0.00218001
0.00151103
0.001033
0.000695413
0.000460263
0.000299101
0.000190804
0.000119864
7.5087e-05
4.86104e-05
3.50757e-05
2.665e-05
1.97102e-05
1.39281e-05
9.32748e-06
5.88713e-06
3.49716e-06
1.9621e-06
1.04691e-06
5.35307e-07
2.64012e-07
1.26989e-07
5.98168e-08
2.76555e-08
1.25716e-08
5.62735e-09
2.4838e-09
1.08243e-09
4.66304e-10
1.98808e-10
8.39642e-11
3.51502e-11
1.45772e-11
5.97437e-12
2.39561e-12
9.156e-13
3.05097e-13
5.47369e-14
0.999997
0.999987
0.99997
0.999941
0.999894
0.999815
0.999685
0.999474
0.999135
0.998595
0.997751
0.996451
0.994489
0.991593
0.98742
0.981574
0.973624
0.963158
0.949829
0.933406
0.9138
0.891067
0.865391
0.837051
0.806393
0.7738
0.739671
0.704405
0.668389
0.631986
0.595532
0.559329
0.523644
0.488706
0.454705
0.421798
0.390113
0.359746
0.330765
0.303214
0.277113
0.252464
0.229254
0.207457
0.187036
0.167947
0.150139
0.133558
0.118147
0.103848
0.0906017
0.0783504
0.067037
0.0566113
0.0470246
0.0382327
0.0302914
0.0232178
0.0165821
0.010636
0.00540333
0.00311673
0.00218103
0.00150752
0.00102764
0.000689745
0.000455085
0.000294752
0.000187347
0.000117212
7.3077e-05
4.70532e-05
3.38109e-05
2.57326e-05
1.91002e-05
1.35523e-05
9.11594e-06
5.77991e-06
3.44873e-06
1.9428e-06
1.04031e-06
5.33574e-07
2.63854e-07
1.27178e-07
6.00118e-08
2.77836e-08
1.26445e-08
5.66563e-09
2.50284e-09
1.09149e-09
4.70481e-10
2.00678e-10
8.4785e-11
3.5502e-11
1.47272e-11
6.03537e-12
2.42089e-12
9.25016e-13
3.0836e-13
5.52368e-14
0.999997
0.999987
0.99997
0.999941
0.999893
0.999814
0.999684
0.999473
0.999132
0.998591
0.997743
0.996439
0.994472
0.991567
0.987384
0.981523
0.973556
0.963069
0.949718
0.933272
0.913645
0.890894
0.865203
0.836853
0.80619
0.773597
0.739474
0.70422
0.668221
0.631839
0.59541
0.559235
0.523581
0.488675
0.454707
0.421834
0.390182
0.359848
0.330899
0.303377
0.277303
0.252679
0.229491
0.207714
0.187309
0.168234
0.150437
0.133863
0.118456
0.104158
0.0909111
0.0786589
0.0673456
0.0569155
0.0473203
0.0385191
0.0305634
0.0234787
0.0168328
0.0108774
0.0056227
0.00312914
0.00218446
0.00150623
0.0010242
0.000685661
0.000451167
0.000291369
0.000184607
0.000115071
7.1416e-05
4.57162e-05
3.26606e-05
2.48848e-05
1.8539e-05
1.3211e-05
8.92868e-06
5.68933e-06
3.4112e-06
1.93025e-06
1.03766e-06
5.33956e-07
2.64716e-07
1.27847e-07
6.04258e-08
2.80175e-08
1.27674e-08
5.72692e-09
2.53217e-09
1.10508e-09
4.76614e-10
2.03386e-10
8.59584e-11
3.60023e-11
1.49376e-11
6.12225e-12
2.45603e-12
9.38586e-13
3.12965e-13
5.59665e-14
0.999997
0.999987
0.99997
0.999941
0.999893
0.999814
0.999683
0.999471
0.999129
0.998585
0.997734
0.996426
0.994451
0.991536
0.987339
0.98146
0.973471
0.962959
0.94958
0.933105
0.91345
0.890674
0.864963
0.836598
0.805927
0.773333
0.739216
0.703974
0.667992
0.631634
0.595234
0.559093
0.523475
0.488608
0.454681
0.421848
0.390238
0.359944
0.331034
0.303549
0.277509
0.252917
0.229757
0.208005
0.187622
0.168565
0.150782
0.13422
0.118822
0.104528
0.091282
0.0790262
0.0677069
0.057273
0.0476745
0.038864
0.0308927
0.0237949
0.0171366
0.011169
0.00589357
0.00314446
0.00219074
0.00150751
0.00102298
0.000683395
0.000448678
0.000289065
0.000182646
0.000113469
7.0104e-05
4.45853e-05
3.16056e-05
2.40919e-05
1.80199e-05
1.29027e-05
8.76649e-06
5.61694e-06
3.38608e-06
1.92556e-06
1.03941e-06
5.36619e-07
2.66846e-07
1.29149e-07
6.1152e-08
2.83969e-08
1.29566e-08
5.81783e-09
2.57454e-09
1.12433e-09
4.85169e-10
2.07118e-10
8.75613e-11
3.66811e-11
1.52213e-11
6.23911e-12
2.50306e-12
9.56747e-13
3.19104e-13
5.69615e-14
0.999997
0.999987
0.99997
0.999941
0.999893
0.999813
0.999682
0.999468
0.999124
0.998578
0.997724
0.996409
0.994425
0.991498
0.987284
0.981383
0.973367
0.962824
0.94941
0.932899
0.913209
0.890401
0.864662
0.836277
0.805593
0.772994
0.73888
0.703649
0.667687
0.631355
0.594988
0.558885
0.523309
0.488488
0.454608
0.421825
0.390263
0.360018
0.331156
0.303716
0.277719
0.253166
0.230043
0.208322
0.187968
0.168935
0.151172
0.134626
0.119239
0.104954
0.0917122
0.0794573
0.0681347
0.057693
0.0480863
0.0392715
0.0312848
0.0241707
0.0174971
0.0115137
0.00622266
0.00316286
0.00220024
0.00151183
0.00102444
0.0006834
0.000448015
0.000288173
0.000181737
0.000112611
6.92774e-05
4.37038e-05
3.05528e-05
2.33089e-05
1.75219e-05
1.26181e-05
8.62605e-06
5.56214e-06
3.37378e-06
1.92904e-06
1.04598e-06
5.42199e-07
2.70495e-07
1.31212e-07
6.2243e-08
2.89471e-08
1.32239e-08
5.94371e-09
2.63231e-09
1.15025e-09
4.9658e-10
2.12058e-10
8.96692e-11