/*--------------------------------*- C++ -*----------------------------------*\
  =========                 |
  \\      /  F ield         | OpenFOAM: The Open Source CFD Toolbox
   \\    /   O peration     | Website:  https://openfoam.org
    \\  /    A nd           | Version:  8
     \\/     M anipulation  |
\*---------------------------------------------------------------------------*/
FoamFile
{
    version     2.0;
    format      ascii;
    class       volScalarField;
    location    "780/fluid";
    object      CO2;
}
// * * * * * * * * * * * * * * * * * * * * * * * * * * * * * * * * * * * * * //

dimensions      [0 0 0 0 0 0 0];

internalField   nonuniform List<scalar> 
4000
(
4.74412e-07
2.073e-06
4.76085e-06
9.26591e-06
1.67845e-05
2.9263e-05
4.98311e-05
8.34492e-05
0.000137846
0.000224818
0.000361921
0.000574495
0.000897713
0.00137812
0.00207362
0.00305098
0.00437997
0.0061247
0.00833408
0.0110345
0.0142268
0.0178881
0.0219765
0.0264376
0.0312094
0.0362275
0.0414277
0.0467487
0.0521333
0.0575294
0.0628906
0.0681767
0.0733533
0.0783923
0.0832709
0.0879713
0.0924796
0.0967863
0.100886
0.104775
0.108454
0.111924
0.115189
0.118253
0.121123
0.123804
0.126301
0.128621
0.130769
0.132747
0.134559
0.136204
0.137679
0.138979
0.140093
0.141002
0.141681
0.14209
0.142189
0.14191
0.141158
0.139806
0.137034
0.126492
0.115778
0.105069
0.0945062
0.0841969
0.0742283
0.0646715
0.0555861
0.047025
0.0390379
0.0317108
0.0250162
0.01906
0.0139065
0.00961881
0.00624357
0.00377498
0.00212241
0.00111528
0.000552939
0.00026289
0.000121436
5.48268e-05
2.42983e-05
1.06046e-05
4.56907e-06
1.94739e-06
8.2242e-07
3.44631e-07
1.43448e-07
5.93417e-08
2.43855e-08
9.92498e-09
3.96421e-09
1.51283e-09
5.05146e-10
8.85807e-11
4.75047e-07
2.07628e-06
4.77059e-06
9.29085e-06
1.68418e-05
2.93829e-05
5.00602e-05
8.38477e-05
0.000138467
0.000225648
0.000362756
0.00057471
0.000895989
0.00137193
0.00205884
0.00302166
0.00432859
0.00604301
0.00821446
0.0108713
0.0140175
0.0176335
0.0216807
0.0261071
0.0308522
0.0358524
0.0410436
0.0463637
0.0517547
0.0571634
0.0625423
0.0678498
0.0730507
0.0781157
0.0830213
0.0877488
0.092284
0.0966167
0.100741
0.104653
0.108354
0.111844
0.115127
0.118208
0.121092
0.123786
0.126295
0.128624
0.13078
0.132765
0.134582
0.136231
0.137711
0.139013
0.140128
0.141037
0.141717
0.142125
0.142221
0.141938
0.14118
0.139817
0.136185
0.125576
0.114808
0.104056
0.0934568
0.0831182
0.0731272
0.0635555
0.0544643
0.0459081
0.0379394
0.0306492
0.0240135
0.0181448
0.0131088
0.00896711
0.0057557
0.00344769
0.0019285
0.001014
0.0005059
0.000242613
0.000113204
5.16412e-05
2.31098e-05
1.01722e-05
4.41371e-06
1.89151e-06
8.02026e-07
3.36986e-07
1.40486e-07
5.81563e-08
2.38998e-08
9.72418e-09
3.88212e-09
1.48077e-09
4.94249e-10
8.67235e-11
4.76344e-07
2.08221e-06
4.78541e-06
9.32251e-06
1.69039e-05
2.94966e-05
5.02544e-05
8.41553e-05
0.000138911
0.000226206
0.000363282
0.000574779
0.000894549
0.0013671
0.00204761
0.00299964
0.00429
0.005981
0.00812184
0.0107416
0.0138457
0.0174172
0.02142
0.0258048
0.0305135
0.0354841
0.0406535
0.0459602
0.0513459
0.0567571
0.0621454
0.0674684
0.0726897
0.077779
0.0827117
0.0874684
0.0920338
0.096397
0.100551
0.104493
0.108222
0.111738
0.115046
0.11815
0.121054
0.123767
0.126292
0.128635
0.130803
0.132798
0.134624
0.13628
0.137764
0.13907
0.140186
0.141096
0.141774
0.142178
0.142268
0.141975
0.141202
0.139816
0.134691
0.124034
0.113223
0.102435
0.0918109
0.0814609
0.0714737
0.0619226
0.052871
0.0443758
0.036492
0.0292993
0.0228043
0.0171035
0.0122576
0.00831754
0.00530121
0.00316014
0.00176457
0.000929044
0.000465275
0.000224135
0.000105109
4.81975e-05
2.16794e-05
9.58878e-06
4.1789e-06
1.79777e-06
7.64728e-07
3.22132e-07
1.34547e-07
5.57683e-08
2.29355e-08
9.33483e-09
3.72681e-09
1.42134e-09
4.7429e-10
8.32587e-11
4.7608e-07
2.08104e-06
4.78261e-06
9.31638e-06
1.68898e-05
2.94622e-05
5.01694e-05
8.39502e-05
0.000138438
0.000225174
0.000361157
0.00057066
0.000887053
0.00135414
0.0020262
0.00296586
0.00423909
0.00590776
0.00802121
0.0106092
0.0136787
0.0172142
0.0211815
0.0255328
0.0302116
0.0351571
0.0403069
0.0456003
0.0509793
0.0563901
0.0617841
0.0671183
0.0723558
0.0774653
0.0824215
0.0872041
0.0917971
0.096189
0.100372
0.104343
0.108099
0.111642
0.114975
0.118102
0.121029
0.12376
0.126302
0.12866
0.13084
0.132846
0.13468
0.136342
0.137831
0.139138
0.140254
0.141161
0.141834
0.142228
0.142305
0.141995
0.141197
0.139778
0.132835
0.122163
0.111332
0.100532
0.089907
0.0795714
0.0696168
0.0601189
0.0511424
0.0427459
0.0349856
0.0279135
0.0215881
0.016073
0.0114241
0.00768347
0.00485467
0.00287261
0.00159588
0.000838276
0.000419913
0.000202685
9.53318e-05
4.38676e-05
1.98061e-05
8.79402e-06
3.84715e-06
1.66109e-06
7.08977e-07
2.99557e-07
1.2545e-07
5.21152e-08
2.14729e-08
8.75249e-09
3.49824e-09
1.33519e-09
4.45707e-10
7.83106e-11
4.74439e-07
2.07377e-06
4.76549e-06
9.28172e-06
1.68236e-05
2.93385e-05
4.99405e-05
8.35291e-05
0.000137669
0.000223785
0.000358687
0.000566353
0.00087972
0.001342
0.00200676
0.00293582
0.0041945
0.0058443
0.00793465
0.010496
0.0135364
0.0170416
0.020979
0.0253022
0.029956
0.0348803
0.0400137
0.0452958
0.0506688
0.056079
0.0614776
0.0668212
0.0720722
0.0771989
0.0821753
0.0869805
0.0915979
0.0960151
0.100224
0.10422
0.108002
0.111569
0.114925
0.118074
0.12102
0.123769
0.126327
0.128699
0.13089
0.132905
0.134745
0.136411
0.137901
0.139207
0.140319
0.141218
0.141878
0.142255
0.142312
0.141975
0.14114
0.139677
0.130883
0.120225
0.109392
0.0985902
0.087975
0.0776666
0.0677591
0.0583291
0.0494415
0.0411544
0.0335369
0.0266109
0.0204535
0.0151215
0.010664
0.00711351
0.00445946
0.00262183
0.0014504
0.000760453
0.000381001
0.000184179
8.6815e-05
4.00469e-05
1.81268e-05
8.06819e-06
3.53775e-06
1.53072e-06
6.54569e-07
2.77028e-07
1.16181e-07
4.83229e-08
1.99301e-08
8.13004e-09
3.25135e-09
1.24139e-09
4.14434e-10
7.28748e-11
4.71711e-07
2.06172e-06
4.73724e-06
9.22509e-06
1.67171e-05
2.91445e-05
4.95932e-05
8.29157e-05
0.000136599
0.000221942
0.000355565
0.000561164
0.00087129
0.00132867
0.00198629
0.00290543
0.00415099
0.00578433
0.00785511
0.0103944
0.0134111
0.0168921
0.0208059
0.0251072
0.0297415
0.0346496
0.0397706
0.0450445
0.0504136
0.0558242
0.0612274
0.0665796
0.0718426
0.0769845
0.0819786
0.0868034
0.0914419
0.0958813
0.100113
0.104131
0.107935
0.111524
0.1149
0.118067
0.12103
0.123794
0.126365
0.128748
0.130948
0.132969
0.134813
0.136479
0.137966
0.139266
0.140367
0.141252
0.141893
0.142244
0.142272
0.141899
0.141026
0.139538
0.129264
0.118526
0.107629
0.0967909
0.0861683
0.0758803
0.0660188
0.056658
0.0478606
0.0396823
0.0322015
0.0254144
0.0194199
0.0142628
0.009983
0.00660565
0.00410835
0.00239876
0.00132012
0.00068989
0.000345116
0.00016684
7.8708e-05
3.63567e-05
1.64843e-05
7.35089e-06
3.22953e-06
1.40008e-06
5.99823e-07
2.54301e-07
1.06818e-07
4.44905e-08
1.83712e-08
7.50134e-09
3.00207e-09
1.14672e-09
3.82873e-10
6.73872e-11
4.68505e-07
2.04764e-06
4.70449e-06
9.16025e-06
1.6597e-05
2.89296e-05
4.92166e-05
8.22653e-05
0.00013549
0.00022008
0.000352482
0.000556151
0.00086331
0.00131627
0.00196755
0.002878
0.00411219
0.00573142
0.00778561
0.0103064
0.0133035
0.0167649
0.0206597
0.0249436
0.0295629
0.0344588
0.0395708
0.0448392
0.0502065
0.0556189
0.0610272
0.0663876
0.0716619
0.0768173
0.0818271
0.0866692
0.0913261
0.0957845
0.100035
0.104073
0.107896
0.111503
0.114896
0.118078
0.121055
0.123831
0.126412
0.128804
0.13101
0.133034
0.134879
0.136543
0.138022
0.139311
0.140395
0.141254
0.141862
0.142167
0.142139
0.141693
0.140735
0.139169
0.128298
0.117222
0.106137
0.0952021
0.0845443
0.0742641
0.0644431
0.0551488
0.0464395
0.0383684
0.0310244
0.0243768
0.0185177
0.0135063
0.00938498
0.00616292
0.00380489
0.0022075
0.00120907
0.000629914
0.0003146
0.000152044
7.17523e-05
3.31676e-05
1.50528e-05
6.71991e-06
2.9558e-06
1.28295e-06
5.50297e-07
2.3357e-07
9.82152e-08
4.09466e-08
1.6922e-08
6.91431e-09
2.76849e-09
1.05776e-09
3.53168e-10
6.22186e-11
4.65151e-07
2.03292e-06
4.67041e-06
9.09306e-06
1.64733e-05
2.87096e-05
4.88339e-05
8.16105e-05
0.000134386
0.000218244
0.000349481
0.000551336
0.000855748
0.00130468
0.00195029
0.00285309
0.00407745
0.00568467
0.00772494
0.0102305
0.0132117
0.0166572
0.0205371
0.0248076
0.0294155
0.0343025
0.0394085
0.0446737
0.0500407
0.0554558
0.0608697
0.0662382
0.0715228
0.0766905
0.0817142
0.0865714
0.0912443
0.0957193
0.0999869
0.104041
0.10788
0.111501
0.114908
0.118103
0.121091
0.123877
0.126466
0.128863
0.131073
0.133099
0.134941
0.1366
0.138071
0.139345
0.140407
0.141235
0.141793
0.142033
0.141904
0.141305
0.140107
0.138165
0.127099
0.11588
0.104705
0.0937255
0.0830597
0.0728015
0.0630272
0.0537999
0.0451745
0.0372011
0.029955
0.0234327
0.0177141
0.0128435
0.00886375
0.00578084
0.00354487
0.00204413
0.00111419
0.000578494
0.000288288
0.000139211
6.56813e-05
3.03673e-05
1.37888e-05
6.16002e-06
2.71183e-06
1.17816e-06
5.0584e-07
2.14909e-07
9.04523e-08
3.77425e-08
1.56096e-08
6.38193e-09
2.5564e-09
9.76921e-10
3.26156e-10
5.75191e-11
4.61892e-07
2.01865e-06
4.63743e-06
9.02828e-06
1.63545e-05
2.84996e-05
4.8471e-05
8.09939e-05
0.000133354
0.000216543
0.000346724
0.000546953
0.000848927
0.00129433
0.001935
0.00283121
0.00404716
0.00564423
0.00767287
0.0101658
0.013134
0.0165668
0.020435
0.0246952
0.0292946
0.0341753
0.0392774
0.0445411
0.0499092
0.0553278
0.0607474
0.0661236
0.0714178
0.0765967
0.0816326
0.0865031
0.0911897
0.0956787
0.0999605
0.104029
0.10788
0.111513
0.114932
0.118137
0.121134
0.123927
0.126522
0.128924
0.131136
0.133161
0.135001
0.136655
0.138117
0.139379
0.140423
0.141228
0.141753
0.141952
0.141766
0.141089
0.139781
0.137052
0.125865
0.114571
0.103357
0.0923682
0.0817195
0.0715018
0.0617888
0.052642
0.0441142
0.0362522
0.0291314
0.0227319
0.0171266
0.0123582
0.0084561
0.00546432
0.00332611
0.00190632
0.0010341
0.000535065
0.000266029
0.000128328
6.05161e-05
2.79762e-05
1.27052e-05
5.67809e-06
2.50098e-06
1.08724e-06
4.67127e-07
1.98603e-07
8.36487e-08
3.49269e-08
1.44537e-08
5.91214e-09
2.36897e-09
9.05394e-10
3.02243e-10
5.33578e-11
4.58856e-07
2.00536e-06
4.60679e-06
8.96821e-06
1.62447e-05
2.83061e-05
4.81378e-05
8.04301e-05
0.000132415
0.000215004
0.000344245
0.000543034
0.00084287
0.00128519
0.00192162
0.00281218
0.00402103
0.00560958
0.00762858
0.0101112
0.0130689
0.0164916
0.0203506
0.0246029
0.0291962
0.0340726
0.0391724
0.044436
0.049806
0.0552284
0.0606536
0.0660373
0.0713402
0.076529
0.0815758
0.0864578
0.0911563
0.0956574
0.0999507
0.10403
0.107892
0.111535
0.114963
0.118176
0.12118
0.123979
0.126578
0.128982
0.131195
0.13322
0.135058
0.136707
0.138163
0.139415
0.140449
0.141242
0.141753
0.141939
0.141744
0.14107
0.139791
0.135864
0.124638
0.113321
0.102099
0.0911194
0.0804953
0.0703159
0.0606535
0.0515692
0.0431159
0.035343
0.0282772
0.0219694
0.0164738
0.0118348
0.00808462
0.00519434
0.00313722
0.00178821
0.000965842
0.000498145
0.000247115
0.000119075
5.61191e-05
2.59371e-05
1.17793e-05
5.2654e-06
2.32003e-06
1.00904e-06
4.33762e-07
1.84524e-07
7.77642e-08
3.2488e-08
1.3451e-08
5.50421e-09
2.20607e-09
8.43187e-10
2.81445e-10
4.97375e-11
4.56116e-07
1.99338e-06
4.57918e-06
8.9142e-06
1.61461e-05
2.81329e-05
4.78405e-05
7.99288e-05
0.000131583
0.000213647
0.000342068
0.000539611
0.000837605
0.0012773
0.0019101
0.00279591
0.00399879
0.00558026
0.00759132
0.0100655
0.0130147
0.0164295
0.0202814
0.0245278
0.0291166
0.0339902
0.0390889
0.0443532
0.0497255
0.0551519
0.0605827
0.0659731
0.0712839
0.0764814
0.0815376
0.0864294
0.0911381
0.095649
0.0999519
0.10404
0.107911
0.111563
0.114997
0.118217
0.121225
0.124028
0.12663
0.129036
0.131249
0.133272
0.135108
0.136753
0.138203
0.139449
0.140475
0.141259
0.141762
0.141941
0.141741
0.141066
0.139793
0.134715
0.123485
0.112175
0.100973
0.0900233
0.0794419
0.0693153
0.0597143
0.0506987
0.0423053
0.0345823
0.0275714
0.021339
0.0159314
0.0113871
0.00773222
0.00495856
0.00298038
0.00168791
0.000908092
0.000466986
0.000231173
0.000111278
5.2412e-05
2.42161e-05
1.09968e-05
4.91606e-06
2.1666e-06
9.42626e-07
4.05375e-07
1.72526e-07
7.27418e-08
3.04037e-08
1.25933e-08
5.1549e-09
2.06648e-09
7.89856e-10
2.63611e-10
4.66391e-11
4.53701e-07
1.98282e-06
4.55488e-06
8.86671e-06
1.60596e-05
2.79812e-05
4.75807e-05
7.94919e-05
0.000130861
0.000212471
0.000340189
0.000536667
0.000833095
0.00127056
0.00190032
0.00278214
0.00398008
0.00555572
0.00756028
0.0100276
0.0129701
0.0163786
0.020225
0.0244671
0.0290527
0.0339247
0.0390231
0.0442885
0.0496635
0.0550938
0.0605296
0.0659261
0.0712438
0.076449
0.0815133
0.0864135
0.0911305
0.0956495
0.0999603
0.104056
0.107934
0.111592
0.115032
0.118256
0.121268
0.124074
0.126677
0.129083
0.131295
0.133317
0.135149
0.13679
0.138235
0.139475
0.140494
0.141269
0.141764
0.141936
0.141731
0.141053
0.139782
0.133694
0.12246
0.111158
0.099979
0.0890658
0.0785245
0.0684349
0.0588677
0.0498794
0.0415331
0.0338734
0.0269427
0.0207908
0.0154657
0.0110057
0.00743441
0.00473876
0.0028449
0.00160467
0.00085928
0.000440734
0.000217785
0.000104739
4.9305e-05
2.27737e-05
1.03406e-05
4.62288e-06
2.0377e-06
8.86761e-07
3.81469e-07
1.62409e-07
6.85019e-08
2.86422e-08
1.18677e-08
4.85928e-09
1.94829e-09
7.44702e-10
2.48507e-10
4.40255e-11
4.51616e-07
1.97371e-06
4.53392e-06
8.82579e-06
1.59852e-05
2.78508e-05
4.73578e-05
7.9118e-05
0.000130244
0.000211469
0.000338593
0.000534175
0.00082929
0.0012649
0.00189213
0.00277066
0.00396452
0.0055354
0.0075347
0.00999656
0.0129337
0.0163373
0.0201796
0.0244183
0.0290019
0.0338728
0.0389715
0.0442384
0.049616
0.0550499
0.0604903
0.0658922
0.0712159
0.0764276
0.0814987
0.0864058
0.0911296
0.0956553
0.0999725
0.104074
0.107957
0.11162
0.115064
0.118291
0.121306
0.124113
0.126717
0.129122
0.131333
0.133352
0.135181
0.136817
0.138256
0.139489
0.140501
0.141269
0.141756
0.141921
0.141711
0.141031
0.139762
0.132816
0.121572
0.110277
0.0991147
0.0882159
0.0776892
0.0676284
0.0581021
0.049168
0.0408776
0.0332774
0.0264103
0.0203264
0.0150723
0.0106852
0.00718641
0.00455836
0.00272195
0.00153537
0.00081981
0.000419039
0.000206682
9.93269e-05
4.67346e-05
2.15801e-05
9.79722e-06
4.37983e-06
1.93071e-06
8.40326e-07
3.6157e-07
1.53977e-07
6.49633e-08
2.71702e-08
1.12608e-08
4.61178e-09
1.84935e-09
7.06874e-10
2.35848e-10
4.18379e-11
4.49851e-07
1.96599e-06
4.51619e-06
8.79121e-06
1.59224e-05
2.77409e-05
4.71703e-05
7.88038e-05
0.000129726
0.000210632
0.000337261
0.0005321
0.00082613
0.0012602
0.00188536
0.00276121
0.00395176
0.00551879
0.00751387
0.00997138
0.0129043
0.0163041
0.0201432
0.0243796
0.0289618
0.0338323
0.0389315
0.0441999
0.0495799
0.0550171
0.0604615
0.065868
0.0711968
0.0764139
0.0814907
0.0864033
0.0911325
0.0956636
0.0999859
0.104092
0.107979
0.111646
0.115092
0.118322
0.121338
0.124145
0.126748
0.129152
0.131361
0.133377
0.135201
0.136832
0.138266
0.139492
0.140497
0.141258
0.141737
0.141896
0.14168
0.140999
0.139737
0.132075
0.120814
0.10952
0.0983595
0.087477
0.0769792
0.0669517
0.0574634
0.0485722
0.0403285
0.0327786
0.0259649
0.0199381
0.014744
0.0104187
0.00698146
0.00441077
0.00262305
0.00147333
0.000787354
0.000402016
0.000197809
9.49421e-05
4.46438e-05
2.06066e-05
9.35293e-06
4.18066e-06
1.84286e-06
8.02137e-07
3.4518e-07
1.47022e-07
6.20412e-08
2.59534e-08
1.07586e-08
4.40685e-09
1.76738e-09
6.75527e-10
2.2536e-10
4.0026e-11
4.48388e-07
1.9596e-06
4.50151e-06
8.76259e-06
1.58704e-05
2.76501e-05
4.70155e-05
7.8545e-05
0.000129301
0.000209944
0.00033617
0.000530403
0.000823552
0.00125639
0.00187987
0.00275355
0.00394146
0.00550541
0.00749715
0.00995124
0.0128809
0.0162778
0.0201145
0.0243493
0.0289304
0.0338008
0.0389007
0.0441706
0.0495527
0.0549927
0.0604405
0.0658508
0.0711838
0.0764052
0.0814863
0.0864033
0.091137
0.0956722
0.0999982
0.104108
0.107998
0.111667
0.115115
0.118345
0.121362
0.124169
0.126771
0.129173
0.131379
0.133392
0.135211
0.136837
0.138265
0.139485
0.140482
0.141236
0.141708
0.141861
0.141642
0.14096
0.139708
0.131458
0.12018
0.108879
0.0977288
0.0868637
0.0763895
0.0663904
0.0569345
0.0480791
0.0398744
0.0323664
0.0255971
0.0196177
0.0144735
0.0101998
0.00681371
0.00429071
0.00254334
0.00142411
0.000758641
0.000387693
0.000190894
9.15019e-05
4.29656e-05
1.9818e-05
8.99199e-06
4.01869e-06
1.77134e-06
7.71016e-07
3.31812e-07
1.41345e-07
5.96545e-08
2.49592e-08
1.0348e-08
4.23936e-09
1.70035e-09
6.49948e-10
2.16803e-10
3.85483e-11
4.47208e-07
1.95445e-06
4.48966e-06
8.73951e-06
1.58286e-05
2.75771e-05
4.68911e-05
7.83371e-05
0.000128959
0.000209393
0.000335297
0.000529049
0.000821497
0.00125335
0.00187551
0.00274749
0.00393332
0.00549487
0.00748401
0.00993546
0.0128627
0.0162573
0.0200923
0.0243258
0.0289064
0.0337768
0.0388774
0.0441485
0.0495325
0.0549748
0.0604252
0.0658386
0.0711748
0.0763996
0.0814841
0.0864044
0.0911412
0.0956794
0.100008
0.10412
0.108012
0.111682
0.115132
0.118362
0.121379
0.124185
0.126785
0.129185
0.131388
0.133396
0.135212
0.136833
0.138254
0.139468
0.140459
0.141205
0.141671
0.14182
0.141598
0.140918
0.139678
0.130957
0.119662
0.108357
0.0972137
0.0863629
0.0759085
0.0659332
0.0565043
0.0476787
0.0395061
0.0320324
0.0252994
0.0193586
0.0142551
0.0100233
0.00667888
0.00419455
0.00247982
0.00138515
0.000736139
0.000375125
0.000184495
8.8577e-05
4.16134e-05
1.91872e-05
8.70212e-06
3.8883e-06
1.71377e-06
7.4599e-07
3.21068e-07
1.36785e-07
5.77382e-08
2.41616e-08
1.00185e-08
4.10566e-09
1.64671e-09
6.29625e-10
2.09997e-10
3.73738e-11
4.4629e-07
1.95044e-06
4.48046e-06
8.72159e-06
1.57961e-05
2.75204e-05
4.67946e-05
7.81761e-05
0.000128695
0.000208967
0.000334623
0.000528004
0.000819915
0.00125102
0.00187216
0.00274284
0.00392709
0.00548683
0.00747401
0.00992347
0.0128488
0.0162419
0.0200755
0.0243082
0.0288885
0.033759
0.0388601
0.0441323
0.0495177
0.0549618
0.0604143
0.0658298
0.0711684
0.0763956
0.0814825
0.0864051
0.0911441
0.0956843
0.100015
0.104128
0.108021
0.111692
0.115142
0.118372
0.121388
0.124192
0.126791
0.129188
0.131388
0.133392
0.135203
0.136819
0.138235
0.139443
0.140428
0.141169
0.141631
0.141777
0.141556
0.14088
0.139651
0.130563
0.119249
0.10794
0.0968027
0.0859642
0.0755266
0.0655712
0.0561647
0.0473633
0.0392166
0.0317703
0.0250661
0.0191559
0.0140846
0.00988585
0.00657413
0.00412006
0.00243079
0.00135527
0.000719128
0.000365953
0.000179763
8.62028e-05
4.05213e-05
1.86958e-05
8.47944e-06
3.78811e-06
1.66931e-06
7.26617e-07
3.12735e-07
1.33251e-07
5.6253e-08
2.35468e-08
9.76451e-09
4.00325e-09
1.60558e-09
6.14076e-10
2.04789e-10
3.64763e-11
4.45618e-07
1.94751e-06
4.47372e-06
8.70847e-06
1.57723e-05
2.74789e-05
4.67241e-05
7.80585e-05
0.000128502
0.000208656
0.000334132
0.000527243
0.000818764
0.00124932
0.00186973
0.00273947
0.00392258
0.00548101
0.00746678
0.00991483
0.0128388
0.0162308
0.0200636
0.0242957
0.0288757
0.0337463
0.0388479
0.0441208
0.0495073
0.0549526
0.0604065
0.0658236
0.0711639
0.0763926
0.0814809
0.0864049
0.0911452
0.0956865
0.100018
0.104132
0.108026
0.111697
0.115146
0.118376
0.12139
0.124193
0.12679
0.129184
0.131381
0.133381
0.135188
0.136799
0.13821
0.139412
0.140393
0.141131
0.141591
0.141739
0.141527
0.140872
0.139683
0.130264
0.118934
0.107623
0.0964899
0.0856617
0.0752379
0.0652986
0.0559099
0.0471275
0.0390009
0.0315756
0.0248932
0.0190061
0.0139588
0.00978473
0.00649731
0.00406562
0.00239505
0.00133351
0.00070675
0.000359302
0.000176347
8.45067e-05
3.96871e-05
1.83053e-05
8.30744e-06
3.71344e-06
1.63693e-06
7.12654e-07
3.06762e-07
1.30738e-07
5.51956e-08
2.31104e-08
9.58383e-09
3.93014e-09
1.5762e-09
6.02944e-10
2.01057e-10
3.58338e-11
4.4518e-07
1.94559e-06
4.46932e-06
8.6999e-06
1.57567e-05
2.74518e-05
4.66781e-05
7.79818e-05
0.000128377
0.000208454
0.000333812
0.000526749
0.000818016
0.00124822
0.00186815
0.00273729
0.00391966
0.00547725
0.00746211
0.00990925
0.0128324
0.0162236
0.0200559
0.0242876
0.0288675
0.0337382
0.0388401
0.0441135
0.0495006
0.0549467
0.0604016
0.0658196
0.0711607
0.0763903
0.0814794
0.086404
0.0911448
0.0956865
0.100018
0.104133
0.108026
0.111697
0.115146
0.118375
0.121388
0.124189
0.126784
0.129176
0.131369
0.133366
0.135169
0.136776
0.138182
0.13938
0.140356
0.14109
0.141549
0.141698
0.141492
0.140849
0.139683
0.130076
0.118725
0.107407
0.0962755
0.0854544
0.0750406
0.0651133
0.0557376
0.0469689
0.0388565
0.0314458
0.0247784
0.018907
0.0138759
0.00971833
0.00644711
0.00403022
0.00237191
0.00131944
0.000698734
0.000354996
0.000174142
8.34229e-05
3.91776e-05
1.80658e-05
8.19478e-06
3.66355e-06
1.61508e-06
7.03456e-07
3.02832e-07
1.29103e-07
5.45086e-08
2.28286e-08
9.46727e-09
3.88312e-09
1.55732e-09
5.95805e-10
1.98662e-10
3.54219e-11
4.44966e-07
1.94466e-06
4.46718e-06
8.69575e-06
1.57492e-05
2.74388e-05
4.6656e-05
7.7945e-05
0.000128317
0.000208358
0.00033366
0.000526514
0.000817661
0.00124769
0.00186741
0.00273626
0.00391827
0.00547547
0.0074599
0.00990661
0.0128294
0.0162202
0.0200522
0.0242838
0.0288636
0.0337343
0.0388364
0.04411
0.0494974
0.0549439
0.0603991
0.0658176
0.0711591
0.0763891
0.0814784
0.0864032
0.0911439
0.0956855
0.100017
0.104132
0.108025
0.111695
0.115143
0.118372
0.121384
0.124184
0.126777
0.129167
0.131359
0.133354
0.135153
0.136757
0.13816
0.139354
0.140327
0.141058
0.141514
0.141663
0.141459
0.140823
0.139674
0.129982
0.118614
0.107291
0.096161
0.0853445
0.0749373
0.0650174
0.0556493
0.0468885
0.0387839
0.0313812
0.0247219
0.0188586
0.0138357
0.00968646
0.0064232
0.0040135
0.00236108
0.00131291
0.000695028
0.000353004
0.000173121
8.29243e-05
3.89422e-05
1.79579e-05
8.14443e-06
3.6412e-06
1.60489e-06
6.99058e-07
3.00925e-07
1.28307e-07
5.41735e-08
2.26911e-08
9.41042e-09
3.8602e-09
1.54812e-09
5.92324e-10
1.97494e-10
3.52211e-11
4.44967e-07
1.94466e-06
4.4672e-06
8.69577e-06
1.57493e-05
2.74389e-05
4.66561e-05
7.79452e-05
0.000128317
0.000208358
0.000333661
0.000526515
0.000817663
0.0012477
0.00186741
0.00273626
0.00391828
0.00547548
0.00745991
0.00990663
0.0128294
0.0162202
0.0200522
0.0242838
0.0288636
0.0337343
0.0388364
0.04411
0.0494974
0.0549439
0.0603991
0.0658176
0.0711591
0.0763891
0.0814784
0.0864032
0.0911439
0.0956855
0.100017
0.104132
0.108025
0.111695
0.115143
0.118372
0.121384
0.124184
0.126777
0.129167
0.131359
0.133354
0.135154
0.136757
0.13816
0.139355
0.140327
0.141058
0.141515
0.141663
0.141459
0.140823
0.139674
0.129982
0.118614
0.107291
0.0961609
0.0853444
0.0749372
0.0650173
0.0556493
0.0468884
0.0387839
0.0313812
0.0247219
0.0188586
0.0138357
0.00968646
0.0064232
0.00401351
0.00236109
0.00131291
0.000695029
0.000353005
0.000173119
8.2929e-05
3.8939e-05
1.79585e-05
8.14459e-06
3.64123e-06
1.6049e-06
6.99057e-07
3.00924e-07
1.28306e-07
5.41731e-08
2.26908e-08
9.41032e-09
3.86013e-09
1.54809e-09
5.92305e-10
1.97488e-10
3.52202e-11
4.45184e-07
1.94561e-06
4.46936e-06
8.69998e-06
1.57569e-05
2.74521e-05
4.66785e-05
7.79824e-05
0.000128378
0.000208456
0.000333815
0.000526753
0.000818022
0.00124823
0.00186817
0.00273731
0.00391968
0.00547728
0.00746215
0.0099093
0.0128325
0.0162237
0.0200559
0.0242877
0.0288675
0.0337383
0.0388402
0.0441136
0.0495007
0.0549468
0.0604016
0.0658197
0.0711608
0.0763904
0.0814794
0.0864041
0.0911448
0.0956865
0.100018
0.104133
0.108026
0.111697
0.115146
0.118375
0.121388
0.124189
0.126784
0.129176
0.131369
0.133366
0.135169
0.136776
0.138182
0.13938
0.140356
0.141091
0.141549
0.141699
0.141492
0.140849
0.139683
0.130076
0.118725
0.107406
0.0962755
0.0854543
0.0750406
0.0651133
0.0557376
0.0469689
0.0388564
0.0314458
0.0247784
0.018907
0.0138759
0.00971835
0.00644713
0.00403023
0.00237192
0.00131945
0.000698739
0.000354997
0.00017414
8.34323e-05
3.91717e-05
1.8067e-05
8.1951e-06
3.66362e-06
1.6151e-06
7.0345e-07
3.0283e-07
1.29101e-07
5.45078e-08
2.28279e-08
9.46702e-09
3.88295e-09
1.55726e-09
5.95751e-10
1.98645e-10
3.54192e-11
4.45625e-07
1.94754e-06
4.47379e-06
8.7086e-06
1.57725e-05
2.74793e-05
4.67248e-05
7.80596e-05
0.000128504
0.000208659
0.000334137
0.00052725
0.000818774
0.00124933
0.00186975
0.00273951
0.00392262
0.00548106
0.00746685
0.00991491
0.0128389
0.0162309
0.0200637
0.0242958
0.0288758
0.0337464
0.038848
0.044121
0.0495074
0.0549527
0.0604067
0.0658238
0.071164
0.0763927
0.081481
0.086405
0.0911453
0.0956865
0.100018
0.104132
0.108026
0.111697
0.115146
0.118376
0.12139
0.124193
0.12679
0.129184
0.131381
0.133381
0.135188
0.136799
0.13821
0.139412
0.140393
0.141131
0.141591
0.141739
0.141527
0.140872
0.139683
0.130264
0.118934
0.107623
0.0964897
0.0856615
0.0752377
0.0652985
0.0559098
0.0471274
0.0390009
0.0315756
0.0248932
0.0190061
0.0139588
0.00978476
0.00649734
0.00406565
0.00239507
0.00133352
0.000706758
0.000359307
0.00017635
8.45081e-05
3.96873e-05
1.83055e-05
8.30755e-06
3.71346e-06
1.63694e-06
7.1265e-07
3.0676e-07
1.30735e-07
5.51946e-08
2.31096e-08
9.5835e-09
3.9299e-09
1.57612e-09
6.02863e-10
2.01032e-10
3.58299e-11
4.463e-07
1.95048e-06
4.48055e-06
8.72177e-06
1.57964e-05
2.75209e-05
4.67956e-05
7.81777e-05
0.000128698
0.000208971
0.000334629
0.000528014
0.000819929
0.00125104
0.00187219
0.00274289
0.00392714
0.0054869
0.00747409
0.00992358
0.0128489
0.016242
0.0200757
0.0243084
0.0288886
0.0337592
0.0388603
0.0441325
0.0495179
0.0549619
0.0604144
0.06583
0.0711686
0.0763958
0.0814826
0.0864053
0.0911442
0.0956844
0.100015
0.104129
0.108021
0.111692
0.115142
0.118372
0.121388
0.124192
0.126791
0.129188
0.131388
0.133392
0.135203
0.136819
0.138235
0.139443
0.140428
0.141169
0.141631
0.141777
0.141555
0.14088
0.139651
0.130563
0.119248
0.10794
0.0968024
0.0859639
0.0755263
0.0655709
0.0561644
0.0473631
0.0392165
0.0317702
0.025066
0.0191559
0.0140846
0.00988587
0.00657416
0.0041201
0.00243082
0.00135529
0.00071914
0.000365959
0.000179766
8.62044e-05
4.0522e-05
1.8696e-05
8.47954e-06
3.78816e-06
1.66933e-06
7.26624e-07
3.12738e-07
1.33252e-07
5.62534e-08
2.35467e-08
9.76444e-09
4.00302e-09
1.60554e-09
6.13981e-10
2.04761e-10
3.64719e-11
4.4722e-07
1.9545e-06
4.48978e-06
8.73974e-06
1.5829e-05
2.75777e-05
4.68923e-05
7.8339e-05
0.000128962
0.000209398
0.000335305
0.00052906
0.000821515
0.00125338
0.00187554
0.00274754
0.00393338
0.00549496
0.00748412
0.00993559
0.0128628
0.0162575
0.0200925
0.024326
0.0289066
0.0337771
0.0388776
0.0441488
0.0495327
0.054975
0.0604255
0.0658388
0.071175
0.0763998
0.0814842
0.0864046
0.0911414
0.0956795
0.100008
0.104121
0.108012
0.111682
0.115132
0.118362
0.121379
0.124185
0.126785
0.129185
0.131388
0.133396
0.135212
0.136833
0.138254
0.139468
0.140458
0.141205
0.141671
0.14182
0.141598
0.140918
0.139678
0.130956
0.119662
0.108357
0.0972132
0.0863624
0.075908
0.0659327
0.0565039
0.0476784
0.0395058
0.0320322
0.0252992
0.0193585
0.014255
0.0100233
0.00667891
0.00419458
0.00247985
0.00138517
0.000736151
0.000375132
0.000184499
8.85789e-05
4.16142e-05
1.91876e-05
8.7023e-06
3.88839e-06
1.71383e-06
7.46011e-07
3.21078e-07
1.36789e-07
5.77399e-08
2.41622e-08
1.00189e-08
4.1055e-09
1.64674e-09
6.29547e-10
2.09975e-10
3.73706e-11
4.48402e-07
1.95966e-06
4.50164e-06
8.76285e-06
1.58709e-05
2.76509e-05
4.70169e-05
7.85473e-05
0.000129304
0.00020995
0.000336179
0.000530417
0.000823573
0.00125642
0.00187991
0.00275361
0.00394154
0.00550552
0.00749728
0.0099514
0.0128811
0.016278
0.0201147
0.0243495
0.0289307
0.0338011
0.038901
0.0441709
0.049553
0.054993
0.0604407
0.065851
0.071184
0.0764054
0.0814865
0.0864035
0.0911372
0.0956723
0.0999984
0.104108
0.107998
0.111667
0.115115
0.118346
0.121362
0.124169
0.126771
0.129174
0.131379
0.133392
0.135211
0.136837
0.138265
0.139485
0.140482
0.141236
0.141708
0.141861
0.141642
0.14096
0.139708
0.131457
0.120179
0.108878
0.0977277
0.0868627
0.0763886
0.0663895
0.0569337
0.0480784
0.0398739
0.032366
0.0255968
0.0196175
0.0144734
0.0101997
0.00681371
0.00429073
0.00254337
0.00142412
0.000758654
0.0003877
0.000190898
9.15039e-05
4.29669e-05
1.98186e-05
8.99232e-06
4.01883e-06
1.77141e-06
7.71046e-07
3.31825e-07
1.4135e-07
5.96569e-08
2.49602e-08
1.03484e-08
4.23949e-09
1.70043e-09
6.49926e-10
2.16797e-10
3.85475e-11
4.49867e-07
1.96606e-06
4.51635e-06
8.79152e-06
1.59229e-05
2.77419e-05
4.71719e-05
7.88064e-05
0.00012973
0.000210638
0.000337272
0.000532116
0.000826154
0.00126024
0.00188541
0.00276128
0.00395185
0.00551891
0.00751402
0.00997156
0.0129046
0.0163044
0.0201435
0.0243799
0.0289621
0.0338326
0.0389318
0.0442003
0.0495802
0.0550174
0.0604618
0.0658683
0.0711971
0.0764142
0.0814909
0.0864035
0.0911327
0.0956638
0.0999861
0.104093
0.10798
0.111646
0.115092
0.118322
0.121338
0.124145
0.126749
0.129153
0.131361
0.133377
0.135201
0.136833
0.138266
0.139492
0.140497
0.141258
0.141737
0.141896
0.14168
0.140999
0.139737
0.132073
0.120813
0.109518
0.0983572
0.0874745
0.0769771
0.06695
0.0574621
0.0485712
0.0403276
0.032778
0.0259644
0.0199377
0.0147437
0.0104186
0.0069814
0.00441076
0.00262306
0.00147334
0.000787364
0.000402021
0.000197812
9.49445e-05
4.46451e-05
2.06073e-05
9.35327e-06
4.18083e-06
1.84294e-06
8.02171e-07
3.45195e-07
1.47028e-07
6.2044e-08
2.59546e-08
1.07591e-08
4.40705e-09
1.76746e-09
6.75557e-10
2.25368e-10
4.00275e-11
4.51635e-07
1.97379e-06
4.5341e-06
8.82614e-06
1.59858e-05
2.78519e-05
4.73597e-05
7.9121e-05
0.000130248
0.000211477
0.000338605
0.000534193
0.000829317
0.00126494
0.00189218
0.00277074
0.00396463
0.00553553
0.00753487
0.00999677
0.012934
0.0163376
0.0201799
0.0244187
0.0290022
0.0338732
0.0389719
0.0442388
0.0496163
0.0550503
0.0604906
0.0658925
0.0712163
0.0764279
0.081499
0.0864061
0.0911298
0.0956555
0.0999728
0.104075
0.107958
0.11162
0.115064
0.118291
0.121306
0.124113
0.126717
0.129122
0.131333
0.133352
0.135181
0.136817
0.138256
0.139489
0.140501
0.141269
0.141756
0.141921
0.141711
0.141031
0.139762
0.132815
0.12157
0.110273
0.0991097
0.0882076
0.0776845
0.0676258
0.0581008
0.0491676
0.0408771
0.0332769
0.0264098
0.020326
0.015072
0.010685
0.00718631
0.00455832
0.00272194
0.00153537
0.000819815
0.000419044
0.000206686
9.93293e-05
4.67359e-05
2.15808e-05
9.79757e-06
4.38e-06
1.93079e-06
8.40363e-07
3.61586e-07
1.53984e-07
6.49664e-08
2.71715e-08
1.12613e-08
4.61201e-09
1.84944e-09
7.06911e-10
2.3586e-10
4.18397e-11
4.53722e-07
1.98291e-06
4.55508e-06
8.8671e-06
1.60603e-05
2.79824e-05
4.75827e-05
7.94952e-05
0.000130866
0.000212479
0.000340202
0.000536687
0.000833125
0.0012706
0.00190038
0.00278223