/*--------------------------------*- C++ -*----------------------------------*\
  =========                 |
  \\      /  F ield         | OpenFOAM: The Open Source CFD Toolbox
   \\    /   O peration     | Website:  https://openfoam.org
    \\  /    A nd           | Version:  8
     \\/     M anipulation  |
\*---------------------------------------------------------------------------*/
FoamFile
{
    version     2.0;
    format      ascii;
    class       volScalarField;
    location    "780/fluid";
    object      H2O;
}
// * * * * * * * * * * * * * * * * * * * * * * * * * * * * * * * * * * * * * //

dimensions      [0 0 0 0 0 0 0];

internalField   nonuniform List<scalar> 
4000
(
3.88397e-07
1.69715e-06
3.89766e-06
7.58592e-06
1.37413e-05
2.39573e-05
4.07963e-05
6.83192e-05
0.000112853
0.000184056
0.000296302
0.000470334
0.00073495
0.00112825
0.00169765
0.00249781
0.00358584
0.00501424
0.00682304
0.00903385
0.0116473
0.0146448
0.017992
0.0216442
0.0255509
0.0296591
0.0339165
0.0382728
0.0426811
0.0470988
0.051488
0.0558156
0.0600537
0.0641791
0.0681732
0.0720213
0.0757122
0.0792381
0.0825942
0.0857782
0.0887899
0.091631
0.0943041
0.0968131
0.0991625
0.101357
0.103402
0.105301
0.107059
0.108679
0.110162
0.111509
0.112717
0.113781
0.114693
0.115437
0.115993
0.116328
0.116409
0.11618
0.115565
0.114458
0.112189
0.103558
0.0947861
0.0860194
0.0773714
0.0689312
0.0607701
0.052946
0.0455079
0.038499
0.03196
0.0259614
0.0204805
0.0156043
0.0113851
0.00787483
0.00511156
0.00309054
0.0017376
0.000913069
0.000452686
0.000215226
9.94184e-05
4.48862e-05
1.98928e-05
8.68187e-06
3.74065e-06
1.59431e-06
6.73308e-07
2.82146e-07
1.1744e-07
4.85825e-08
1.99642e-08
8.1255e-09
3.24546e-09
1.23854e-09
4.13559e-10
7.25203e-11
3.88916e-07
1.69983e-06
3.90564e-06
7.60634e-06
1.37883e-05
2.40556e-05
4.09839e-05
6.86454e-05
0.000113362
0.000184736
0.000296985
0.00047051
0.000733538
0.00112319
0.00168555
0.0024738
0.00354378
0.00494736
0.00672511
0.00890026
0.011476
0.0144364
0.0177498
0.0213736
0.0252584
0.0293521
0.033602
0.0379576
0.0423712
0.0467992
0.0512028
0.0555481
0.059806
0.0639526
0.0679688
0.0718392
0.0755521
0.0790992
0.0824756
0.0856788
0.0887083
0.0915656
0.0942536
0.0967759
0.0991372
0.101342
0.103396
0.105303
0.107068
0.108693
0.110181
0.111531
0.112742
0.113809
0.114721
0.115466
0.116022
0.116356
0.116435
0.116204
0.115583
0.114467
0.111494
0.102808
0.0939925
0.0851899
0.0765123
0.0680481
0.0598686
0.0520324
0.0445894
0.0375845
0.0310607
0.0250922
0.0196597
0.014855
0.010732
0.0073413
0.00471214
0.00282259
0.00157885
0.000830153
0.000414176
0.000198625
9.26794e-05
4.22782e-05
1.89198e-05
8.32786e-06
3.61346e-06
1.54857e-06
6.56612e-07
2.75887e-07
1.15015e-07
4.7612e-08
1.95666e-08
7.9611e-09
3.17825e-09
1.21229e-09
4.04638e-10
7.09998e-11
3.89979e-07
1.70469e-06
3.91777e-06
7.63226e-06
1.38391e-05
2.41486e-05
4.11428e-05
6.88972e-05
0.000113725
0.000185193
0.000297415
0.000470566
0.000732359
0.00111924
0.00167636
0.00245578
0.00351219
0.00489659
0.00664928
0.00879403
0.0113354
0.0142593
0.0175364
0.0211262
0.0249812
0.0290505
0.0332827
0.0376272
0.0420365
0.0464665
0.0508779
0.0552358
0.0595104
0.063677
0.0677154
0.0716096
0.0753472
0.0789194
0.0823205
0.0855477
0.0886002
0.0914791
0.0941872
0.0967281
0.0991062
0.101327
0.103394
0.105313
0.107087
0.108721
0.110215
0.111571
0.112786
0.113855
0.114769
0.115514
0.116069
0.1164
0.116473
0.116234
0.1156
0.114466
0.110271
0.101546
0.0926943
0.0838625
0.0751648
0.0666913
0.0585149
0.0506955
0.043285
0.0363301
0.0298757
0.0239871
0.0186697
0.0140025
0.0100352
0.0068095
0.00434005
0.00258718
0.00144463
0.0007606
0.000380917
0.000183497
8.60514e-05
3.94589e-05
1.77487e-05
7.85025e-06
3.42123e-06
1.47182e-06
6.26076e-07
2.63727e-07
1.10152e-07
4.5657e-08
1.87771e-08
7.64235e-09
3.05111e-09
1.16364e-09
3.88297e-10
6.81631e-11
3.89762e-07
1.70373e-06
3.91548e-06
7.62724e-06
1.38276e-05
2.41205e-05
4.10733e-05
6.87293e-05
0.000113338
0.000184348
0.000295676
0.000467194
0.000726222
0.00110862
0.00165883
0.00242812
0.0034705
0.00483663
0.00656689
0.00868569
0.0111987
0.0140931
0.0173411
0.0209035
0.024734
0.0287828
0.0329989
0.0373326
0.0417363
0.0461661
0.0505821
0.0549492
0.059237
0.0634201
0.0674777
0.0713932
0.0751535
0.0787491
0.0821739
0.0854244
0.0884996
0.0914003
0.0941289
0.0966889
0.099085
0.101321
0.103402
0.105333
0.107118
0.10876
0.110261
0.111622
0.112841
0.113911
0.114825
0.115568
0.116118
0.116441
0.116504
0.11625
0.115597
0.114435
0.108751
0.100013
0.0911469
0.0823048
0.0736061
0.0651444
0.0569947
0.0492188
0.0418699
0.0349957
0.0286424
0.0228526
0.017674
0.0131589
0.00935281
0.00629039
0.00397448
0.00235178
0.00130653
0.000686289
0.000343779
0.000165937
7.80473e-05
3.5914e-05
1.62151e-05
7.19959e-06
3.14963e-06
1.35992e-06
5.80433e-07
2.45244e-07
1.02705e-07
4.26662e-08
1.75797e-08
7.16558e-09
2.86398e-09
1.0931e-09
3.64897e-10
6.41122e-11
3.88419e-07
1.69778e-06
3.90146e-06
7.59886e-06
1.37733e-05
2.40192e-05
4.08858e-05
6.83845e-05
0.000112708
0.000183211
0.000293654
0.000463668
0.000720219
0.00109868
0.00164291
0.00240353
0.003434
0.00478468
0.00649603
0.00859299
0.0110821
0.0139518
0.0171753
0.0207147
0.0245247
0.0285562
0.0327589
0.0370833
0.0414821
0.0459114
0.0503312
0.0547059
0.0590048
0.063202
0.0672762
0.0712102
0.0749904
0.0786068
0.0820527
0.0853243
0.0884202
0.0913407
0.0940883
0.0966664
0.0990782
0.101329
0.103422
0.105364
0.107158
0.108808
0.110315
0.111679
0.112898
0.113967
0.114878
0.115614
0.116155
0.116463
0.11651
0.116234
0.11555
0.114352
0.107153
0.0984273
0.0895584
0.0807149
0.0720244
0.063585
0.0554738
0.0477535
0.0404773
0.0336927
0.0274564
0.0217861
0.0167451
0.0123799
0.00873055
0.00582377
0.00365092
0.00214647
0.00118743
0.000622576
0.000311922
0.000150786
7.10747e-05
3.2786e-05
1.48403e-05
6.60536e-06
2.89633e-06
1.25319e-06
5.3589e-07
2.268e-07
9.51165e-08
3.95615e-08
1.63166e-08
6.656e-09
2.66185e-09
1.01632e-09
3.39294e-10
5.96619e-11
3.86186e-07
1.68792e-06
3.87833e-06
7.5525e-06
1.36861e-05
2.38603e-05
4.06015e-05
6.78824e-05
0.000111832
0.000181702
0.000291098
0.00045942
0.000713318
0.00108777
0.00162615
0.00237865
0.00339838
0.00473558
0.00643091
0.0085098
0.0109795
0.0138294
0.0170336
0.020555
0.0243491
0.0283673
0.0325598
0.0368775
0.0412731
0.0457028
0.0501264
0.0545081
0.0588169
0.0630265
0.0671151
0.0710652
0.0748627
0.0784972
0.0819615
0.0852515
0.0883655
0.0913037
0.094068
0.0966607
0.0990862
0.101349
0.103454
0.105405
0.107206
0.10886
0.11037
0.111735
0.112952
0.114016
0.114917
0.115641
0.116166
0.116454
0.116477
0.116172
0.115457
0.114239
0.105827
0.0970359
0.0881151
0.0792418
0.0705453
0.0621225
0.054049
0.0463854
0.0391831
0.0324876
0.0263631
0.0208066
0.0158989
0.0116768
0.00817299
0.00540799
0.00336347
0.00196385
0.00108077
0.000564807
0.000282543
0.00013659
6.44376e-05
2.97649e-05
1.34956e-05
6.01811e-06
2.64399e-06
1.14623e-06
4.9107e-07
2.08194e-07
8.74513e-08
3.6424e-08
1.50404e-08
6.14128e-09
2.45777e-09
9.38807e-10
3.13455e-10
5.51693e-11
3.83561e-07
1.67638e-06
3.85153e-06
7.49942e-06
1.35878e-05
2.36844e-05
4.02932e-05
6.73499e-05
0.000110925
0.000180177
0.000288574
0.000455316
0.000706784
0.00107762
0.00161081
0.00235619
0.00336662
0.00469227
0.00637401
0.00843777
0.0108915
0.0137252
0.016914
0.0204211
0.0242029
0.0282111
0.0323963
0.0367095
0.0411036
0.0455347
0.0499624
0.054351
0.0586689
0.0628897
0.0669911
0.0709553
0.0747679
0.0784179
0.0818981
0.0852039
0.0883335
0.0912866
0.0940642
0.0966696
0.0991066
0.10138
0.103493
0.10545
0.107257
0.108914
0.110424
0.111786
0.112998
0.114052
0.11494
0.115644
0.116141
0.116391
0.116368
0.116003
0.115218
0.113937
0.105036
0.0959683
0.0868932
0.0779412
0.0692157
0.0607994
0.052759
0.0451498
0.0380196
0.0314119
0.0253994
0.0199571
0.0151602
0.0110575
0.0076834
0.00504553
0.00311503
0.00180726
0.000989858
0.000515705
0.00025756
0.000124477
5.87429e-05
2.7154e-05
1.23236e-05
5.50153e-06
2.41988e-06
1.05034e-06
4.50523e-07
1.91222e-07
8.04079e-08
3.35227e-08
1.38539e-08
5.66068e-09
2.26654e-09
8.65981e-10
2.89135e-10
5.09378e-11
3.80815e-07
1.66434e-06
3.82362e-06
7.44441e-06
1.34865e-05
2.35043e-05
3.99799e-05
6.68138e-05
0.000110021
0.000178674
0.000286117
0.000451374
0.000700593
0.00106813
0.00159669
0.0023358
0.00333817
0.00465399
0.00632434
0.0083756
0.0108163
0.0136371
0.0168136
0.0203098
0.0240822
0.0280832
0.0322634
0.0365739
0.0409679
0.0454012
0.0498335
0.0542286
0.0585551
0.0627859
0.0668987
0.0708753
0.0747009
0.0783645
0.0818584
0.0851778
0.0883202
0.091285
0.094074
0.0966899
0.0991361
0.101417
0.103537
0.105499
0.107308
0.108967
0.110475
0.111833
0.113037
0.11408
0.11495
0.115627
0.116085
0.116281
0.116175
0.115685
0.114704
0.113114
0.104055
0.09487
0.0857212
0.0767323
0.0680002
0.059602
0.0515998
0.0440455
0.036984
0.0304562
0.0245239
0.0191841
0.0145024
0.0105149
0.00725667
0.00473272
0.00290216
0.00167351
0.000912177
0.000473608
0.000236019
0.000113971
5.37727e-05
2.48614e-05
1.12888e-05
5.04315e-06
2.22015e-06
9.64549e-07
4.14127e-07
1.75944e-07
7.40525e-08
3.08995e-08
1.27794e-08
5.22483e-09
2.09291e-09
7.99797e-10
2.67021e-10
4.70904e-11
3.78147e-07
1.65265e-06
3.79662e-06
7.39137e-06
1.33893e-05
2.33324e-05
3.96828e-05
6.6309e-05
0.000109176
0.000177282
0.00028386
0.000447785
0.000695009
0.00105965
0.00158417
0.00231788
0.00331338
0.00462088
0.00628171
0.00832264
0.0107527
0.0135631
0.01673
0.0202177
0.0239832
0.027979
0.032156
0.0364654
0.0408602
0.0452964
0.0497333
0.0541348
0.0584691
0.062709
0.0668319
0.0708193
0.0746562
0.0783313
0.0818368
0.0851673
0.0883201
0.0912951
0.0940934
0.0967177
0.0991712
0.101458
0.103583
0.105549
0.10736
0.109018
0.110524
0.111878
0.113075
0.114108
0.114963
0.115622
0.116052
0.116215
0.116063
0.115508
0.114437
0.112203
0.103045
0.0937983
0.0846173
0.075621
0.0669031
0.0585379
0.050586
0.0430975
0.0361159
0.0296794
0.0238496
0.0186104
0.0140214
0.0101176
0.00692294
0.00447359
0.00272306
0.00156068
0.000846612
0.000438053
0.000217795
0.000105061
4.9544e-05
2.29038e-05
1.04017e-05
4.64861e-06
2.04753e-06
8.90115e-07
3.82433e-07
1.62595e-07
6.84825e-08
2.85944e-08
1.18331e-08
4.84022e-09
1.93946e-09
7.41238e-10
2.47444e-10
4.36835e-11
3.75662e-07
1.64177e-06
3.77154e-06
7.3422e-06
1.32994e-05
2.31739e-05
3.941e-05
6.58474e-05
0.000108407
0.000176022
0.00028183
0.000444577
0.00069005
0.00105218
0.00157321
0.00230231
0.00329198
0.00459251
0.00624545
0.00827792
0.0106994
0.0135015
0.0166609
0.0201422
0.0239026
0.0278949
0.0320701
0.0363793
0.0407757
0.045215
0.0496566
0.0540641
0.0584056
0.0626536
0.0667854
0.0707822
0.0746289
0.0783139
0.0818288
0.0851683
0.0883299
0.0913131
0.0941188
0.0967496
0.0992088
0.1015
0.103628
0.105596
0.107408
0.109066
0.11057
0.111921
0.113113
0.114138
0.114985
0.115633
0.116052
0.116204
0.116045
0.115493
0.114446
0.11123
0.10204
0.0927746
0.0835876
0.0745987
0.0659008
0.057567
0.0496565
0.0422192
0.0352986
0.028935
0.0231503
0.0179862
0.013487
0.00968902
0.00661881
0.00425256
0.00256841
0.00146399
0.000790727
0.000407827
0.000202311
9.74855e-05
4.59442e-05
2.12345e-05
9.64365e-06
4.31073e-06
1.89939e-06
8.26095e-07
3.55117e-07
1.51068e-07
6.36649e-08
2.65976e-08
1.10123e-08
4.50625e-09
1.80609e-09
6.9031e-10
2.30416e-10
4.07196e-11
3.73418e-07
1.63196e-06
3.74893e-06
7.29797e-06
1.32187e-05
2.30321e-05
3.91666e-05
6.5437e-05
0.000107726
0.000174911
0.000280048
0.000441775
0.00068574
0.00104571
0.00156378
0.00228898
0.00327377
0.00456851
0.00621495
0.00824052
0.0106551
0.0134507
0.0166042
0.0200807
0.0238375
0.0278275
0.0320018
0.0363116
0.0407099
0.0451524
0.0495985
0.0540116
0.0583595
0.0626147
0.0667541
0.070759
0.0746139
0.078307
0.0818297
0.0851769
0.0883457
0.0913354
0.094147
0.0967829
0.0992462
0.101541
0.103671
0.10564
0.107452
0.109109
0.110611
0.111958
0.113146
0.114166
0.115006
0.115648
0.116059
0.116206
0.116042
0.11549
0.114447
0.11029
0.101096
0.0918371
0.0826658
0.0737013
0.0650384
0.0567478
0.0488876
0.0415066
0.034635
0.0283122
0.0225725
0.0174701
0.0130429
0.0093225
0.0063303
0.00405953
0.00244001
0.00138188
0.000743447
0.000382317
0.000189259
9.11021e-05
4.29092e-05
1.98255e-05
9.00301e-06
4.02474e-06
1.77378e-06
7.7172e-07
3.31877e-07
1.41245e-07
5.95531e-08
2.48913e-08
1.031e-08
4.22027e-09
1.69181e-09
6.46649e-10
2.15816e-10
3.8183e-11
3.71441e-07
1.62332e-06
3.72904e-06
7.2591e-06
1.31479e-05
2.29079e-05
3.89539e-05
6.50793e-05
0.000107134
0.000173948
0.000278509
0.000439364
0.000682047
0.0010402
0.00155577
0.00227772
0.00325845
0.00454842
0.00618954
0.00820952
0.0106185
0.013409
0.0165581
0.020031
0.0237852
0.0277738
0.0319479
0.0362586
0.0406591
0.0451048
0.049555
0.0539731
0.0583267
0.0625881
0.0667342
0.070746
0.0746077
0.0783074
0.0818366
0.08519
0.0883645
0.0913593
0.0941753
0.0968149
0.0992812
0.101578
0.103709
0.105679
0.10749
0.109145
0.110645
0.111989
0.113172
0.114187
0.115021
0.115656
0.116061
0.116202
0.116034
0.115479
0.114438
0.109454
0.100257
0.0910043
0.0818519
0.0729174
0.0642874
0.056027
0.0481945
0.0408358
0.0340027
0.0277318
0.0220578
0.0170213
0.0126616
0.00901024
0.00608649
0.00387958
0.00232909
0.00131373
0.000703485
0.000360825
0.000178299
8.57491e-05
4.03655e-05
1.86446e-05
8.46578e-06
3.78471e-06
1.66825e-06
7.25984e-07
3.12305e-07
1.32963e-07
5.60819e-08
2.34491e-08
9.71598e-09
3.97825e-09
1.59505e-09
6.09681e-10
2.0345e-10
3.60433e-11
3.69734e-07
1.61586e-06
3.71188e-06
7.2256e-06
1.3087e-05
2.28012e-05
3.87714e-05
6.47732e-05
0.000106629
0.000173128
0.000277203
0.000437325
0.000678933
0.00103556
0.00154907
0.00226832
0.00324572
0.00453178
0.00616859
0.0081841
0.0105887
0.0133752
0.0165208
0.0199911
0.0237436
0.0277314
0.0319057
0.0362176
0.0406202
0.0450689
0.0495229
0.0539453
0.0583039
0.0625706
0.0667223
0.0707397
0.074607
0.0783121
0.0818466
0.0852049
0.0883838
0.0913825
0.0942018
0.096844
0.0993123
0.10161
0.103742
0.105711
0.107521
0.109174
0.110671
0.112011
0.113189
0.114198
0.115027
0.115656
0.116054
0.11619
0.116017
0.115461
0.114422
0.108736
0.0995302
0.0902825
0.0811443
0.0722216
0.0636034
0.0553668
0.0475677
0.0402534
0.0334661
0.027244
0.0216219
0.016641
0.0123395
0.00874789
0.00588345
0.00373189
0.00222843
0.00125699
0.000671171
0.000343063
0.000169208
8.1318e-05
3.82612e-05
1.76674e-05
8.0209e-06
3.58572e-06
1.58065e-06
6.87968e-07
2.96014e-07
1.26059e-07
5.31849e-08
2.2244e-08
9.21908e-09
3.77563e-09
1.51404e-09
5.78711e-10
1.93087e-10
3.42523e-11
3.68289e-07
1.60954e-06
3.69736e-06
7.19728e-06
1.30355e-05
2.27112e-05
3.86179e-05
6.4516e-05
0.000106206
0.000172442
0.000276113
0.000435626
0.000676345
0.00103172
0.00154353
0.00226058
0.00323527
0.00451818
0.00615154
0.00816348
0.0105647
0.013348
0.0164911
0.0199594
0.0237107
0.0276982
0.0318729
0.0361861
0.0405906
0.045042
0.0494993
0.0539255
0.0582882
0.0625594
0.0667157
0.0707376
0.0746094
0.0783189
0.0818575
0.0852195
0.0884017
0.0914033
0.0942249
0.0968688
0.0993381
0.101636
0.103768
0.105736
0.107544
0.109195
0.110688
0.112024
0.113197
0.114201
0.115024
0.115647
0.116039
0.116169
0.115992
0.115435
0.114402
0.108128
0.0989097
0.0896628
0.080526
0.0716166
0.0630222
0.0548128
0.0470448
0.0397656
0.0330165
0.0268356
0.0212573
0.0163231
0.0120708
0.00852974
0.00571566
0.00361106
0.00214747
0.0012062
0.0006446
0.000329127
0.000161944
7.77282e-05
3.65495e-05
1.68704e-05
7.65716e-06
3.42267e-06
1.50873e-06
6.56703e-07
2.82596e-07
1.20365e-07
5.07925e-08
2.12478e-08
8.80793e-09
3.60785e-09
1.44694e-09
5.53048e-10
1.845e-10
3.27689e-11
3.67092e-07
1.60431e-06
3.68534e-06
7.17385e-06
1.2993e-05
2.26369e-05
3.84912e-05
6.43041e-05
0.000105857
0.000171879
0.000275219
0.000434236
0.000674234
0.00102859
0.00153903
0.00225431
0.00322684
0.00450723
0.00613785
0.00814699
0.0105455
0.0133265
0.0164676
0.0199345
0.0236851
0.0276724
0.0318477
0.0361621
0.0405684
0.0450221
0.0494821
0.0539114
0.0582775
0.0625523
0.0667121
0.0707377
0.074613
0.078326
0.0818677
0.0852324
0.088417
0.0914205
0.0942436
0.0968884
0.099358
0.101656
0.103787
0.105753
0.107559
0.109207
0.110696
0.112028
0.113196
0.114195
0.115012
0.115629
0.116015
0.11614
0.115961
0.115403
0.114378
0.107624
0.0983901
0.0891384
0.0800097
0.0711145
0.0625395
0.0543532
0.0466118
0.0393619
0.0326448
0.0264981
0.0209561
0.0160608
0.0118493
0.00835047
0.00557833
0.00351277
0.00208221
0.0011659
0.000621093
0.0003174
0.000156283
7.49118e-05
3.51756e-05
1.62248e-05
7.36167e-06
3.29006e-06
1.45018e-06
6.31224e-07
2.71652e-07
1.15718e-07
4.88386e-08
2.04338e-08
8.47183e-09
3.47073e-09
1.39206e-09
5.32107e-10
1.77495e-10
3.15591e-11
3.66125e-07
1.60009e-06
3.67565e-06
7.15496e-06
1.29587e-05
2.25771e-05
3.83893e-05
6.41339e-05
0.000105578
0.000171428
0.000274505
0.000433127
0.000672552
0.00102611
0.00153546
0.00224935
0.00322017
0.00449861
0.0061271
0.00813408
0.0105305
0.0133097
0.0164494
0.0199153
0.0236654
0.0276528
0.0318286
0.036144
0.0405518
0.0450074
0.0494696
0.0539014
0.0582702
0.0625477
0.0667103
0.0707385
0.0746165
0.0783319
0.0818758
0.0852424
0.0884286
0.0914333
0.0942572
0.0969023
0.0993717
0.101669
0.103798
0.105763
0.107566
0.10921
0.110697
0.112024
0.113187
0.114181
0.114992
0.115604
0.115985
0.116107
0.115925
0.115369
0.114353
0.107213
0.0979666
0.0887112
0.079588
0.0707045
0.0621456
0.0539789
0.0462596
0.0390341
0.0323433
0.0262247
0.0207124
0.0158487
0.0116705
0.008206
0.00546794
0.00343404
0.00203021
0.00113401
0.00060267
0.000307111
0.000151044
7.25172e-05
3.40686e-05
1.57084e-05
7.12435e-06
3.18332e-06
1.40305e-06
6.10735e-07
2.62856e-07
1.11985e-07
4.72697e-08
1.97809e-08
8.2021e-09
3.36127e-09
1.34815e-09
5.15469e-10
1.71923e-10
3.05976e-11
3.65374e-07
1.59681e-06
3.66811e-06
7.14029e-06
1.29321e-05
2.25307e-05
3.83104e-05
6.40021e-05
0.000105362
0.00017108
0.000273953
0.000432272
0.000671257
0.0010242
0.00153272
0.00224554
0.00321507
0.00449202
0.0061189
0.00812426
0.0105192
0.0132971
0.0164357
0.0199009
0.0236507
0.0276382
0.0318145
0.0361307
0.0405397
0.0449967
0.0494606
0.0538943
0.058265
0.0625444
0.066709
0.0707391
0.0746189
0.0783359
0.0818812
0.0852491
0.0884362
0.0914414
0.0942654
0.0969103
0.099379
0.101675
0.103803
0.105765
0.107566
0.109207
0.11069
0.112013
0.113172
0.11416
0.114967
0.115574
0.115952
0.116071
0.11589
0.115337
0.114331
0.106891
0.0976279
0.0883699
0.0792515
0.0703782
0.061833
0.0536826
0.0459815
0.0387759
0.0321063
0.0260101
0.0205214
0.0156828
0.0115309
0.00809345
0.00538218
0.00337306
0.00199007
0.00110955
0.000588744
0.000299602
0.00014717
7.05735e-05
3.31745e-05
1.53061e-05
6.94204e-06
3.1013e-06
1.36665e-06
5.94875e-07
2.56033e-07
1.09092e-07
4.60539e-08
1.92776e-08
7.99412e-09
3.27743e-09
1.31447e-09
5.02738e-10
1.67659e-10
2.98628e-11
3.64824e-07
1.59441e-06
3.6626e-06
7.12955e-06
1.29126e-05
2.24967e-05
3.82526e-05
6.39058e-05
0.000105204
0.000170825
0.000273551
0.000431649
0.000670315
0.00102281
0.00153073
0.00224278
0.00321138
0.00448726
0.00611299
0.00811719
0.010511
0.013288
0.0164259
0.0198907
0.0236403
0.0276278
0.0318044
0.0361213
0.0405312
0.0449892
0.0494543
0.0538892
0.0582612
0.062542
0.0667077
0.070739
0.0746198
0.0783377
0.0818838
0.0852522
0.0884397
0.091445
0.0942688
0.0969132
0.099381
0.101676
0.103802
0.105762
0.10756
0.109198
0.110677
0.111996
0.113151
0.114136
0.114938
0.115542
0.115919
0.116041
0.115867
0.11533
0.114357
0.106646
0.0973706
0.0881098
0.0789954
0.0701305
0.0615966
0.0534594
0.0457729
0.0385829
0.0319297
0.0258507
0.0203799
0.0155601
0.0114279
0.00801067
0.00531929
0.00332849
0.00196081
0.00109173
0.00057861
0.000294158
0.000144374
6.91849e-05
3.24915e-05
1.49864e-05
6.80123e-06
3.04016e-06
1.34014e-06
5.83443e-07
2.51144e-07
1.07034e-07
4.51882e-08
1.89203e-08
7.84619e-09
3.21757e-09
1.29042e-09
4.93625e-10
1.64604e-10
2.93369e-11
3.64465e-07
1.59284e-06
3.65899e-06
7.12253e-06
1.28999e-05
2.24746e-05
3.8215e-05
6.3843e-05
0.000105101
0.00017066
0.000273289
0.000431245
0.000669702
0.0010219
0.00152944
0.002241
0.00320899
0.00448417
0.00610916
0.00811262
0.0105058
0.0132821
0.0164196
0.0198841
0.0236335
0.0276212
0.031798
0.0361153
0.0405257
0.0449844
0.0494502
0.0538859
0.0582587
0.0625401
0.0667065
0.0707382
0.0746194
0.0783377
0.0818841
0.0852527
0.0884401
0.0914452
0.0942686
0.0969123
0.0993791
0.101673
0.103797
0.105755
0.107551
0.109186
0.110662
0.111977
0.113128
0.114109
0.114908
0.11551
0.115885
0.116007
0.115838
0.115312
0.114357
0.106492
0.0971991
0.0879328
0.0788199
0.0699607
0.0614351
0.0533077
0.0456319
0.038453
0.0318114
0.0257444
0.0202859
0.015479
0.01136
0.00795631
0.00527819
0.0032995
0.00194186
0.00108021
0.000572048
0.000290632
0.000142568
6.82976e-05
3.20743e-05
1.47903e-05
6.70899e-06
2.99932e-06
1.32225e-06
5.75913e-07
2.47926e-07
1.05696e-07
4.46257e-08
1.86896e-08
7.75077e-09
3.17908e-09
1.27496e-09
4.87781e-10
1.62643e-10
2.89996e-11
3.6429e-07
1.59207e-06
3.65724e-06
7.11913e-06
1.28938e-05
2.24639e-05
3.81969e-05
6.38129e-05
0.000105052
0.000170581
0.000273165
0.000431052
0.000669412
0.00102148
0.00152883
0.00224015
0.00320786
0.00448272
0.00610735
0.00811045
0.0105033
0.0132793
0.0164166
0.0198809
0.0236303
0.027618
0.031795
0.0361125
0.0405231
0.0449821
0.0494482
0.0538843
0.0582573
0.0625391
0.0667057
0.0707375
0.0746187
0.0783369
0.0818832
0.0852517
0.088439
0.0914439
0.0942668
0.0969099
0.099376
0.101669
0.103791
0.105748
0.107542
0.109175
0.110649
0.111962
0.11311
0.114088
0.114885
0.115483
0.115857
0.115979
0.115811
0.115291
0.11435
0.106415
0.0971086
0.087838
0.0787262
0.0698708
0.0613505
0.0532291
0.0455596
0.0383872
0.0317521
0.0256915
0.0202396
0.0154394
0.0113272
0.00793022
0.00525862
0.00328582
0.001933
0.00107487
0.000569013
0.000289002
0.000141732
6.78894e-05
3.18816e-05
1.4702e-05
6.66777e-06
2.98102e-06
1.31391e-06
5.72313e-07
2.46365e-07
1.05044e-07
4.43513e-08
1.8577e-08
7.70423e-09
3.16031e-09
1.26743e-09
4.8493e-10
1.61686e-10
2.88352e-11
3.64291e-07
1.59208e-06
3.65725e-06
7.11915e-06
1.28938e-05
2.2464e-05
3.8197e-05
6.38131e-05
0.000105052
0.000170581
0.000273165
0.000431053
0.000669413
0.00102148
0.00152883
0.00224015
0.00320786
0.00448272
0.00610737
0.00811047
0.0105033
0.0132794
0.0164166
0.0198809
0.0236304
0.027618
0.031795
0.0361125
0.0405231
0.0449821
0.0494483
0.0538843
0.0582574
0.0625391
0.0667057
0.0707375
0.0746187
0.0783369
0.0818833
0.0852518
0.088439
0.0914439
0.0942669
0.0969099
0.099376
0.101669
0.103791
0.105748
0.107542
0.109175
0.110649
0.111962
0.11311
0.114088
0.114885
0.115483
0.115857
0.115979
0.115811
0.115291
0.11435
0.106415
0.0971085
0.0878379
0.0787261
0.0698707
0.0613505
0.0532291
0.0455596
0.0383872
0.0317521
0.0256915
0.0202396
0.0154394
0.0113272
0.00793022
0.00525862
0.00328582
0.001933
0.00107487
0.000569014
0.000289002
0.000141731
6.78932e-05
3.1879e-05
1.47025e-05
6.6679e-06
2.98104e-06
1.31392e-06
5.72312e-07
2.46364e-07
1.05043e-07
4.4351e-08
1.85767e-08
7.70414e-09
3.16026e-09
1.26741e-09
4.84915e-10
1.61681e-10
2.88344e-11
3.64468e-07
1.59285e-06
3.65903e-06
7.12259e-06
1.29e-05
2.24748e-05
3.82153e-05
6.38435e-05
0.000105102
0.000170661
0.000273291
0.000431248
0.000669707
0.00102191
0.00152945
0.00224101
0.00320901
0.0044842
0.0061092
0.00811266
0.0105058
0.0132822
0.0164196
0.0198841
0.0236336
0.0276212
0.0317981
0.0361154
0.0405258
0.0449845
0.0494503
0.053886
0.0582587
0.0625401
0.0667065
0.0707382
0.0746195
0.0783377
0.0818841
0.0852527
0.0884401
0.0914453
0.0942687
0.0969123
0.0993791
0.101673
0.103797
0.105755
0.107551
0.109186
0.110662
0.111977
0.113128
0.114109
0.114908
0.11551
0.115885
0.116007
0.115838
0.115312
0.114357
0.106492
0.0971991
0.0879328
0.0788199
0.0699607
0.0614351
0.0533077
0.0456318
0.038453
0.0318114
0.0257444
0.0202859
0.015479
0.0113601
0.00795633
0.00527821
0.00329952
0.00194187
0.00108022
0.000572052
0.000290633
0.000142567
6.83053e-05
3.20695e-05
1.47913e-05
6.70926e-06
2.99937e-06
1.32227e-06
5.75908e-07
2.47925e-07
1.05694e-07
4.4625e-08
1.8689e-08
7.75056e-09
3.17894e-09
1.27491e-09
4.87736e-10
1.62629e-10
2.89974e-11
3.6483e-07
1.59443e-06
3.66265e-06
7.12965e-06
1.29128e-05
2.24971e-05
3.82532e-05
6.39067e-05
0.000105205
0.000170828
0.000273555
0.000431655
0.000670323
0.00102282
0.00153075
0.00224281
0.00321141
0.0044873
0.00611304
0.00811725
0.0105111
0.0132881
0.016426
0.0198908
0.0236404
0.0276279
0.0318046
0.0361214
0.0405313
0.0449893
0.0494544
0.0538893
0.0582613
0.062542
0.0667078
0.070739
0.0746198
0.0783377
0.0818838
0.0852523
0.0884397
0.091445
0.0942689
0.0969132
0.099381
0.101676
0.103802
0.105762
0.10756
0.109198
0.110677
0.111996
0.113151
0.114136
0.114938
0.115542
0.115919
0.116041
0.115867
0.11533
0.114357
0.106646
0.0973704
0.0881097
0.0789953
0.0701303
0.0615965
0.0534593
0.0457729
0.0385828
0.0319297
0.0258507
0.0203799
0.0155602
0.011428
0.0080107
0.00531932
0.00332851
0.00196082
0.00109174
0.000578617
0.000294162
0.000144376
6.91861e-05
3.24916e-05
1.49865e-05
6.80132e-06
3.04018e-06
1.34015e-06
5.8344e-07
2.51142e-07
1.07032e-07
4.51873e-08
1.89196e-08
7.84593e-09
3.21737e-09
1.29035e-09
4.93559e-10
1.64583e-10
2.93336e-11
3.65382e-07
1.59684e-06
3.66819e-06
7.14043e-06
1.29324e-05
2.25311e-05
3.83111e-05
6.40034e-05
0.000105364
0.000171083
0.000273958
0.00043228
0.000671269
0.00102421
0.00153275
0.00224558
0.00321512
0.00449208
0.00611898
0.00812435
0.0105193
0.0132972
0.0164358
0.0199011
0.0236509
0.0276383
0.0318146
0.0361309
0.0405398
0.0449969
0.0494608
0.0538944
0.0582651
0.0625445
0.0667091
0.0707392
0.074619
0.078336
0.0818813
0.0852492
0.0884362
0.0914414
0.0942655
0.0969103
0.099379
0.101675
0.103803
0.105765
0.107566
0.109207
0.11069
0.112012
0.113172
0.11416
0.114967
0.115574
0.115952
0.116071
0.11589
0.115337
0.114331
0.106891
0.0976277
0.0883696
0.0792513
0.0703779
0.0618327
0.0536823
0.0459813
0.0387757
0.0321062
0.02601
0.0205214
0.0156828
0.0115309
0.00809348
0.00538221
0.00337309
0.00199009
0.00110956
0.000588753
0.000299608
0.000147173
7.05748e-05
3.3175e-05
1.53063e-05
6.94213e-06
3.10134e-06
1.36666e-06
5.94881e-07
2.56036e-07
1.09092e-07
4.60542e-08
1.92775e-08
7.99406e-09
3.27724e-09
1.31444e-09
5.02661e-10
1.67636e-10
2.98592e-11
3.66135e-07
1.60013e-06
3.67574e-06
7.15515e-06
1.2959e-05
2.25777e-05
3.83903e-05
6.41355e-05
0.00010558
0.000171432
0.000274511
0.000433137
0.000672567
0.00102613
0.00153549
0.00224939
0.00322023
0.00449868
0.00612719
0.00813418
0.0105307
0.0133099
0.0164495
0.0199155
0.0236656
0.027653
0.0318288
0.0361442
0.040552
0.0450076
0.0494698
0.0539016
0.0582703
0.0625479
0.0667104
0.0707387
0.0746167
0.078332
0.0818759
0.0852425
0.0884287
0.0914334
0.0942572
0.0969023
0.0993717
0.101669
0.103798
0.105763
0.107566
0.10921
0.110697
0.112024
0.113187
0.114181
0.114992
0.115603
0.115985
0.116106
0.115925
0.115369
0.114353
0.107213
0.0979662
0.0887109
0.0795876
0.0707042
0.0621453
0.0539786
0.0462593
0.0390339
0.0323431
0.0262245
0.0207122
0.0158486
0.0116705
0.008206
0.00546796
0.00343407
0.00203023
0.00113402
0.000602681
0.000307117
0.000151048
7.25187e-05
3.40691e-05
1.57087e-05
7.1245e-06
3.18339e-06
1.40309e-06
6.10753e-07
2.62864e-07
1.11988e-07
4.72711e-08
1.97814e-08
8.20241e-09
3.36114e-09
1.34817e-09
5.15405e-10
1.71905e-10
3.0595e-11
3.67103e-07
1.60436e-06
3.68546e-06
7.17407e-06
1.29934e-05
2.26376e-05
3.84923e-05
6.4306e-05
0.00010586
0.000171884
0.000275227
0.000434248
0.000674252
0.00102862
0.00153907
0.00225436
0.0032269
0.00450732
0.00613796
0.00814712
0.0105457
0.0133267
0.0164678
0.0199347
0.0236853
0.0276727
0.0318479
0.0361623
0.0405686
0.0450223
0.0494823
0.0539116
0.0582777
0.0625524
0.0667123
0.0707378
0.0746132
0.0783261
0.0818678
0.0852325
0.0884171
0.0914206
0.0942437
0.0968885
0.0993581
0.101656
0.103787
0.105753
0.107559
0.109207
0.110696
0.112028
0.113196
0.114195
0.115012
0.115629
0.116015
0.11614
0.115961
0.115403
0.114378
0.107623
0.0983893
0.0891376
0.0800088
0.0711137
0.0625386
0.0543525
0.0466111
0.0393614
0.0326444
0.0264977
0.0209559
0.0160606
0.0118492
0.00835043
0.00557832
0.00351278
0.00208223
0.00116592
0.000621103
0.000317407
0.000156287
7.49135e-05
3.51766e-05
1.62253e-05
7.36193e-06
3.29018e-06
1.45024e-06
6.31249e-07
2.71662e-07
1.15722e-07
4.88406e-08
2.04347e-08
8.47218e-09
3.47083e-09
1.39213e-09
5.32088e-10
1.77489e-10
3.15585e-11
3.68302e-07
1.6096e-06
3.6975e-06
7.19754e-06
1.3036e-05
2.2712e-05
3.86192e-05
6.45181e-05
0.000106209
0.000172448
0.000276121
0.000435639
0.000676365
0.00103175
0.00154357
0.00226063
0.00323535
0.00451828
0.00615166
0.00816363
0.0105648
0.0133482
0.0164913
0.0199596
0.023711
0.0276984
0.0318731
0.0361864
0.0405909
0.0450423
0.0494995
0.0539258
0.0582884
0.0625596
0.0667159
0.0707378
0.0746096
0.0783191
0.0818577
0.0852197
0.0884019
0.0914034
0.094225
0.0968689
0.0993382
0.101637
0.103768
0.105736
0.107544
0.109195
0.110688
0.112024
0.113197
0.114201
0.115024
0.115646
0.116039
0.116169
0.115992
0.115434
0.114402
0.108127
0.0989084
0.0896612
0.0805241
0.0716146
0.0630205
0.0548114
0.0470437
0.0397648
0.0330159
0.0268351
0.0212569
0.0163228
0.0120706
0.00852964
0.00571561
0.00361105
0.00214747
0.00120621
0.000644608
0.000329131
0.000161947
7.77302e-05
3.65506e-05
1.6871e-05
7.65744e-06
3.4228e-06
1.5088e-06
6.56731e-07
2.82608e-07
1.20371e-07
5.07949e-08
2.12488e-08
8.80835e-09
3.60801e-09
1.44701e-09
5.53073e-10
1.84507e-10
3.27701e-11
3.69749e-07
1.61592e-06
3.71203e-06
7.22589e-06
1.30875e-05
2.28021e-05
3.87729e-05
6.47757e-05
0.000106633
0.000173134
0.000277213
0.00043734
0.000678955
0.00103559
0.00154911
0.00226838
0.00324581
0.00453189
0.00616873
0.00818427
0.0105889
0.0133754
0.0165211
0.0199913
0.0237439
0.0277317
0.031906
0.0362179
0.0406205
0.0450692
0.0495232
0.0539456
0.0583041
0.0625709
0.0667225
0.0707399
0.0746072
0.0783123
0.0818468
0.085205
0.0883839
0.0913826
0.0942019
0.0968441
0.0993124
0.10161
0.103742
0.105711
0.107521
0.109174
0.110671
0.112011
0.113189
0.114198
0.115027
0.115656
0.116054
0.11619
0.116017
0.11546
0.114422
0.108734
0.0995282
0.0902797
0.0811402
0.0722148
0.0635996
0.0553647
0.0475666
0.0402531
0.0334657
0.0272435
0.0216215
0.0166407
0.0123393
0.00874774
0.00588337
0.00373186
0.00222842
0.00125699
0.000671175
0.000343068
0.000169212
8.132e-05
3.82623e-05
1.7668e-05
8.02119e-06
3.58586e-06
1.58072e-06
6.87998e-07
2.96028e-07
1.26065e-07
5.31874e-08
2.22451e-08