/*--------------------------------*- C++ -*----------------------------------*\
  =========                 |
  \\      /  F ield         | OpenFOAM: The Open Source CFD Toolbox
   \\    /   O peration     | Website:  https://openfoam.org
    \\  /    A nd           | Version:  8
     \\/     M anipulation  |
\*---------------------------------------------------------------------------*/
FoamFile
{
    version     2.0;
    format      ascii;
    class       volScalarField;
    location    "780/fluid";
    object      N2;
}
// * * * * * * * * * * * * * * * * * * * * * * * * * * * * * * * * * * * * * //

dimensions      [0 0 0 0 0 0 0];

internalField   nonuniform List<scalar> 
4000
(
2.31092e-06
1.00979e-05
2.31907e-05
4.51355e-05
8.17595e-05
0.000142544
0.000242735
0.000406495
0.000671473
0.00109513
0.00176298
0.00279847
0.00437292
0.00671303
0.0101009
0.0148616
0.0213351
0.0298335
0.040595
0.053748
0.0692964
0.0871285
0.107041
0.128767
0.152007
0.176445
0.201769
0.227681
0.253901
0.280177
0.306282
0.332021
0.357226
0.38176
0.405513
0.428398
0.45035
0.471321
0.491287
0.510233
0.528163
0.545086
0.561025
0.576005
0.590061
0.603227
0.615543
0.62705
0.63779
0.647804
0.657134
0.66582
0.673903
0.68142
0.688409
0.694905
0.700942
0.706476
0.711558
0.716419
0.72094
0.725149
0.729015
0.732727
0.736278
0.739672
0.742912
0.745997
0.748926
0.751697
0.754305
0.756745
0.759009
0.761078
0.762963
0.764638
0.766088
0.767294
0.768243
0.768938
0.769403
0.769686
0.769844
0.769926
0.769966
0.769985
0.769993
0.769997
0.769999
0.769999
0.77
0.77
0.77
0.77
0.77
0.77
0.77
0.77
0.77
0.77
2.31396e-06
1.01136e-05
2.32376e-05
4.52559e-05
8.20369e-05
0.000143125
0.000243845
0.000408426
0.000674481
0.00109915
0.00176701
0.00279946
0.00436444
0.00668279
0.0100288
0.0147187
0.0210847
0.0294355
0.0400122
0.0529532
0.0682772
0.0858891
0.105601
0.127158
0.150268
0.17462
0.1999
0.225808
0.25206
0.278398
0.304589
0.330432
0.355756
0.380416
0.404301
0.427319
0.449401
0.4705
0.490586
0.509647
0.527683
0.544705
0.560733
0.575795
0.589923
0.603154
0.615529
0.627087
0.63787
0.647922
0.657284
0.665998
0.674104
0.681641
0.688646
0.695154
0.701201
0.706739
0.711825
0.71669
0.721214
0.725419
0.729292
0.733013
0.736572
0.739973
0.743219
0.746309
0.749242
0.752015
0.754623
0.75706
0.759319
0.761376
0.763244
0.764895
0.766312
0.767477
0.768381
0.76903
0.769457
0.769715
0.769858
0.769932
0.769968
0.769985
0.769993
0.769997
0.769999
0.769999
0.77
0.77
0.77
0.77
0.77
0.77
0.77
0.77
0.77
0.77
2.32023e-06
1.01422e-05
2.33093e-05
4.54092e-05
8.23377e-05
0.000143676
0.000244787
0.000409918
0.000676632
0.00110185
0.00176955
0.00279976
0.00435737
0.0066592
0.00997397
0.0146113
0.0208966
0.0291334
0.0395611
0.0523213
0.0674408
0.0848361
0.104332
0.125688
0.14862
0.172828
0.198003
0.223846
0.250073
0.276423
0.302661
0.32858
0.354003
0.378782
0.4028
0.42596
0.448189
0.469437
0.489672
0.508876
0.52705
0.544203
0.560353
0.575527
0.589759
0.603086
0.615544
0.627177
0.638028
0.648138
0.65755
0.666307
0.67445
0.682017
0.689047
0.695576
0.701639
0.707182
0.712271
0.717135
0.721648
0.725852
0.729742
0.733476
0.737045
0.740452
0.7437
0.746789
0.749717
0.752481
0.755075
0.757494
0.759726
0.761756
0.763584
0.765188
0.766551
0.76766
0.768508
0.769111
0.769503
0.769739
0.769869
0.769937
0.76997
0.769986
0.769994
0.769997
0.769999
0.769999
0.77
0.77
0.77
0.77
0.77
0.77
0.77
0.77
0.77
0.77
2.31887e-06
1.01362e-05
2.3295e-05
4.53779e-05
8.22666e-05
0.000143505
0.000244366
0.000408908
0.000674313
0.0010968
0.00175917
0.00277965
0.0043208
0.00659598
0.00986961
0.0144467
0.0206486
0.0287766
0.039071
0.051677
0.0666278
0.0838481
0.103171
0.124364
0.147152
0.171238
0.196318
0.222097
0.248292
0.27464
0.300907
0.326881
0.352383
0.377262
0.401393
0.42468
0.447045
0.468433
0.488809
0.508155
0.526466
0.54375
0.560026
0.575318
0.589661
0.603086
0.615634
0.627348
0.63827
0.648443
0.657911
0.666716
0.674898
0.682499
0.689556
0.696107
0.702185
0.707724
0.712805
0.717668
0.722189
0.726387
0.730293
0.734034
0.737605
0.741011
0.744255
0.747335
0.75025
0.752995
0.755566
0.757954
0.760151
0.762145
0.763926
0.765477
0.766785
0.767838
0.768634
0.769192
0.769551
0.769764
0.769882
0.769943
0.769973
0.769988
0.769994
0.769998
0.769999
0.77
0.77
0.77
0.77
0.77
0.77
0.77
0.77
0.77
0.77
0.77
2.31082e-06
1.01006e-05
2.32109e-05
4.5208e-05
8.19421e-05
0.000142899
0.000243246
0.00040685
0.000670557
0.00109002
0.00174712
0.00275865
0.00428505
0.00653683
0.00977487
0.0143004
0.0204314
0.0284676
0.0386497
0.0511259
0.065935
0.0830083
0.102186
0.123243
0.145909
0.169893
0.194894
0.220618
0.246785
0.273131
0.29942
0.325441
0.351009
0.375972
0.400203
0.423601
0.446085
0.467597
0.4881
0.507572
0.526008
0.543413
0.559805
0.57521
0.589652
0.603171
0.615805
0.627596
0.638586
0.64882
0.65834
0.667188
0.675408
0.683039
0.69012
0.696689
0.702774
0.708295
0.713382
0.718258
0.722777
0.726939
0.730873
0.734616
0.738186
0.741587
0.744821
0.747887
0.750784
0.753506
0.756049
0.758404
0.760559
0.762512
0.764245
0.765745
0.766999
0.767998
0.768745
0.769262
0.769592
0.769786
0.769893
0.769948
0.769976
0.769989
0.769995
0.769998
0.769999
0.77
0.77
0.77
0.77
0.77
0.77
0.77
0.77
0.77
0.77
0.77
2.29748e-06
1.00417e-05
2.30729e-05
4.49314e-05
8.14221e-05
0.000141951
0.000241551
0.000403857
0.000665337
0.00108103
0.0017319
0.00273336
0.00424398
0.00647187
0.00967516
0.0141524
0.0202196
0.0281757
0.0382626
0.0506315
0.0653256
0.0822815
0.101345
0.122295
0.144867
0.168772
0.193714
0.219399
0.245547
0.271896
0.298209
0.324271
0.3499
0.374937
0.399254
0.422748
0.445336
0.466958
0.487572
0.507157
0.525703
0.543217
0.559712
0.575209
0.58974
0.603341
0.61605
0.627908
0.638959
0.649244
0.658808
0.667694
0.675943
0.683596
0.690693
0.697271
0.703367
0.708885
0.713988
0.718865
0.723379
0.727502
0.731434
0.735179
0.738746
0.742139
0.745361
0.748411
0.751287
0.753985
0.756498
0.758821
0.760936
0.762848
0.764535
0.765986
0.767191
0.768141
0.768844
0.769325
0.769628
0.769806
0.769903
0.769953
0.769978
0.76999
0.769995
0.769998
0.769999
0.77
0.77
0.77
0.77
0.77
0.77
0.77
0.77
0.77
0.77
0.77
2.28183e-06
9.97291e-06
2.29131e-05
4.46149e-05
8.08361e-05
0.000140903
0.000239714
0.000400686
0.000659934
0.00107195
0.00171687
0.00270894
0.00420511
0.00641148
0.00958394
0.0140188
0.0200308
0.0279183
0.0379245
0.0502036
0.0648028
0.081663
0.100635
0.121501
0.144
0.167847
0.192745
0.218404
0.244544
0.270903
0.297241
0.323345
0.349028
0.374133
0.398527
0.422106
0.444784
0.466498
0.487207
0.506887
0.52553
0.543136
0.559717
0.575297
0.589906
0.603577
0.61635
0.628265
0.639366
0.649694
0.659294
0.668208
0.676479
0.684148
0.691253
0.697834
0.703929
0.709399
0.714625
0.719471
0.723963
0.728053
0.731973
0.735709
0.739267
0.742649
0.745857
0.74889
0.751745
0.754418
0.756903
0.759193
0.761268
0.76314
0.764789
0.766199
0.767359
0.768266
0.768929
0.769379
0.76966
0.769823
0.769911
0.769957
0.76998
0.769991
0.769996
0.769998
0.769999
0.77
0.77
0.77
0.77
0.77
0.77
0.77
0.77
0.77
0.77
0.77
2.26547e-06
9.90114e-06
2.27469e-05
4.42872e-05
8.02327e-05
0.000139831
0.00023785
0.000397495
0.000654553
0.00106301
0.00170226
0.00268549
0.00416829
0.00635509
0.00949997
0.0138977
0.0198618
0.0276909
0.0376296
0.0498345
0.0643565
0.0811402
0.10004
0.120841
0.143286
0.16709
0.191959
0.217604
0.243743
0.270116
0.296482
0.322626
0.348361
0.373526
0.397989
0.421643
0.444401
0.4662
0.486993
0.506756
0.525476
0.543156
0.559809
0.575458
0.59013
0.60386
0.616685
0.628647
0.639787
0.650149
0.659778
0.668715
0.677005
0.684688
0.691805
0.698395
0.704467
0.709933
0.715164
0.720005
0.724487
0.728559
0.732469
0.736195
0.739742
0.743112
0.746306
0.749321
0.752155
0.754804
0.757263
0.759523
0.761569
0.763406
0.765015
0.766385
0.767505
0.768373
0.769002
0.769425
0.769686
0.769837
0.769919
0.769961
0.769982
0.769991
0.769996
0.769998
0.769999
0.77
0.77
0.77
0.77
0.77
0.77
0.77
0.77
0.77
0.77
0.77
2.24958e-06
9.83154e-06
2.25861e-05
4.39715e-05
7.9654e-05
0.000138808
0.000236082
0.000394492
0.000649527
0.00105473
0.00168884
0.00266415
0.0041351
0.00630471
0.00942559
0.0137912
0.0197145
0.0274943
0.0373766
0.0495204
0.0639795
0.0807019
0.0995447
0.120297
0.142701
0.166475
0.191326
0.216965
0.24311
0.269501
0.295896
0.322079
0.347861
0.37308
0.397604
0.421322
0.444147
0.466013
0.486878
0.506711
0.525499
0.543245
0.55996
0.575667
0.590391
0.604169
0.617036
0.629034
0.640206
0.650594
0.660243
0.669197
0.677497
0.685186
0.692304
0.698889
0.704938
0.7104
0.715625
0.720457
0.72493
0.728999
0.732905
0.736625
0.740164
0.743522
0.746701
0.749697
0.75251
0.755133
0.757562
0.75979
0.761801
0.763602
0.76518
0.766522
0.76762
0.768462
0.769064
0.769463
0.769709
0.769849
0.769925
0.769964
0.769983
0.769992
0.769996
0.769998
0.769999
0.77
0.77
0.77
0.77
0.77
0.77
0.77
0.77
0.77
0.77
0.77
2.23479e-06
9.76681e-06
2.24368e-05
4.36789e-05
7.91191e-05
0.000137865
0.000234459
0.000391747
0.000644957
0.00104724
0.00167677
0.00264509
0.00410564
0.00626029
0.00936049
0.0136988
0.0195875
0.027326
0.0371616
0.0492554
0.0636637
0.0803375
0.0991362
0.119851
0.142225
0.165979
0.190821
0.216459
0.242615
0.269026
0.295449
0.321669
0.347495
0.372765
0.397343
0.42112
0.444006
0.465933
0.486855
0.506743
0.525587
0.543386
0.560152
0.575904
0.590671
0.604486
0.617386
0.629413
0.640608
0.651016
0.660681
0.669645
0.677952
0.685645
0.692763
0.699346
0.705378
0.710826
0.716041
0.720863
0.725323
0.729389
0.733293
0.737008
0.74054
0.743889
0.747055
0.750038
0.752834
0.755438
0.757844
0.760046
0.76204
0.763816
0.765363
0.766669
0.767724
0.768538
0.769117
0.769497
0.769728
0.76986
0.76993
0.769966
0.769984
0.769993
0.769997
0.769999
0.769999
0.77
0.77
0.77
0.77
0.77
0.77
0.77
0.77
0.77
0.77
0.77
2.22144e-06
9.70846e-06
2.23024e-05
4.34159e-05
7.86394e-05
0.000137022
0.000233012
0.000389308
0.000640911
0.00104064
0.00166619
0.00262845
0.00408004
0.00622191
0.00930454
0.0136197
0.0194796
0.0271838
0.0369809
0.049034
0.0634017
0.080037
0.0988017
0.119488
0.141842
0.165583
0.190421
0.216063
0.242232
0.268663
0.295114
0.321368
0.347233
0.372546
0.397171
0.420996
0.443933
0.465911
0.486883
0.506822
0.525713
0.543556
0.560362
0.576152
0.590953
0.604798
0.617724
0.629773
0.640986
0.651408
0.661083
0.670055
0.678366
0.686059
0.693176
0.699755
0.705774
0.71121
0.716416
0.721225
0.725668
0.729734
0.733634
0.737342
0.740865
0.744202
0.747355
0.750321
0.753098
0.755683
0.758072
0.76026
0.762238
0.763993
0.765515
0.766794
0.767823
0.768604
0.769161
0.769525
0.769744
0.769868
0.769935
0.769969
0.769985
0.769993
0.769997
0.769999
0.769999
0.77
0.77
0.77
0.77
0.77
0.77
0.77
0.77
0.77
0.77
0.77
2.20969e-06
9.65708e-06
2.21841e-05
4.31849e-05
7.82186e-05
0.000136284
0.000231749
0.000387183
0.000637397
0.00103492
0.00165705
0.00261414
0.00405813
0.0061892
0.00925706
0.0135529
0.0193888
0.0270648
0.0368305
0.0488508
0.0631861
0.0797914
0.0985301
0.119196
0.141536
0.16527
0.190107
0.215756
0.241939
0.268391
0.294868
0.321153
0.347054
0.372406
0.397072
0.42094
0.443919
0.465938
0.486952
0.506931
0.52586
0.54374
0.560579
0.576399
0.591226
0.605094
0.618041
0.630106
0.641333
0.651765
0.661447
0.670422
0.678735
0.686427
0.693538
0.700108
0.706119
0.711548
0.716744
0.721542
0.725973
0.730038
0.733933
0.737635
0.741148
0.744474
0.747614
0.750569
0.753336
0.755913
0.758289
0.760458
0.762414
0.764146
0.765645
0.766901
0.767907
0.768666
0.769199
0.769548
0.769758
0.769876
0.769939
0.76997
0.769986
0.769994
0.769997
0.769999
0.769999
0.77
0.77
0.77
0.77
0.77
0.77
0.77
0.77
0.77
0.77
0.77
2.19955e-06
9.61276e-06
2.20822e-05
4.2986e-05
7.78568e-05
0.000135651
0.000230666
0.000385367
0.0006344
0.00103006
0.00164931
0.00260204
0.00403967
0.00616172
0.00921733
0.0134973
0.0193134
0.0269665
0.0367068
0.0487008
0.0630105
0.0795925
0.0983116
0.118963
0.141293
0.165023
0.189863
0.215521
0.241717
0.268188
0.294689
0.321002
0.346933
0.372319
0.39702
0.420923
0.443938
0.465994
0.487043
0.507055
0.526016
0.543924
0.56079
0.576634
0.591482
0.605368
0.61833
0.630408
0.641644
0.652083
0.661769
0.670747
0.679059
0.686747
0.693853
0.700422
0.706423
0.711842
0.717028
0.721814
0.726231
0.730298
0.734189
0.737885
0.741392
0.744712
0.747848
0.750795
0.753551
0.756112
0.758472
0.760625
0.762562
0.764276
0.765755
0.766991
0.767976
0.768716
0.769233
0.769568
0.769769
0.769882
0.769942
0.769972
0.769987
0.769994
0.769997
0.769999
0.769999
0.77
0.77
0.77
0.77
0.77
0.77
0.77
0.77
0.77
0.77
0.77
2.19097e-06
9.57529e-06
2.19961e-05
4.2818e-05
7.75516e-05
0.000135117
0.000229755
0.000383841
0.000631888
0.00102599
0.00164284
0.00259198
0.00402434
0.00613898
0.00918455
0.0134515
0.0192517
0.0268862
0.0366062
0.0485794
0.0628691
0.0794332
0.0981377
0.118778
0.141102
0.164832
0.189675
0.215342
0.241552
0.26804
0.294563
0.3209
0.346858
0.372272
0.397002
0.420936
0.44398
0.466066
0.487143
0.507182
0.526168
0.5441
0.560987
0.576849
0.591714
0.605614
0.618587
0.630674
0.641917
0.652361
0.662049
0.671025
0.679334
0.687021
0.694127
0.70069
0.706682
0.712092
0.71727
0.722047
0.726447
0.730518
0.734406
0.738099
0.741603
0.744918
0.748045
0.750983
0.753728
0.756278
0.758625
0.760764
0.762687
0.764384
0.765847
0.767065
0.768033
0.768758
0.769261
0.769585
0.769778
0.769887
0.769944
0.769973
0.769987
0.769994
0.769997
0.769999
0.769999
0.77
0.77
0.77
0.77
0.77
0.77
0.77
0.77
0.77
0.77
0.77
2.18387e-06
9.54427e-06
2.19248e-05
4.2679e-05
7.72995e-05
0.000134677
0.000229004
0.000382586
0.000629824
0.00102266
0.00163755
0.00258376
0.00401186
0.0061205
0.00915797
0.0134145
0.0192019
0.0268217
0.0365257
0.0484825
0.0627568
0.0793074
0.098001
0.118634
0.140955
0.164685
0.189533
0.215208
0.24143
0.267934
0.294475
0.320832
0.346813
0.37225
0.397005
0.420963
0.444033
0.466142
0.487243
0.507304
0.52631
0.54426
0.561164
0.577041
0.591918
0.605829
0.61881
0.630903
0.642151
0.652596
0.662285
0.671262
0.679572
0.687257
0.694359
0.700917
0.7069
0.712303
0.717474
0.722244
0.726624
0.730701
0.734587
0.738278
0.741777
0.745087
0.748208
0.751138
0.753875
0.756414
0.758751
0.760879
0.762789
0.764474
0.765923
0.767127
0.76808
0.768791
0.769283
0.769599
0.769786
0.769891
0.769946
0.769974
0.769988
0.769994
0.769997
0.769999
0.77
0.77
0.77
0.77
0.77
0.77
0.77
0.77
0.77
0.77
0.77
0.77
2.17815e-06
9.51928e-06
2.18674e-05
4.25672e-05
7.70966e-05
0.000134322
0.000228401
0.000381579
0.000628171
0.00101999
0.00163333
0.0025772
0.00400192
0.00610582
0.00913691
0.0133852
0.0191627
0.0267709
0.0364626
0.0484069
0.0626694
0.0792098
0.0978957
0.118524
0.140843
0.164574
0.189426
0.21511
0.241342
0.267859
0.294415
0.32079
0.346789
0.372246
0.397021
0.420999
0.444088
0.466217
0.487336
0.507414
0.526435
0.5444
0.561316
0.577204
0.592091
0.606009
0.618996
0.631092
0.642341
0.652789
0.66248
0.671459
0.679768
0.687451
0.694549
0.701103
0.707078
0.712475
0.717641
0.722404
0.726768
0.730849
0.734733
0.738421
0.741917
0.745223
0.748339
0.751263
0.753993
0.756525
0.758853
0.760971
0.762872
0.764546
0.765984
0.767176
0.768118
0.768818
0.769301
0.76961
0.769793
0.769894
0.769948
0.769975
0.769988
0.769995
0.769998
0.769999
0.77
0.77
0.77
0.77
0.77
0.77
0.77
0.77
0.77
0.77
0.77
0.77
2.17371e-06
9.49987e-06
2.18228e-05
4.24804e-05
7.69393e-05
0.000134048
0.000227935
0.0003808
0.000626894
0.00101793
0.00163007
0.00257216
0.00399428
0.00609455
0.00912077
0.0133628
0.0191327
0.0267323
0.0364146
0.0483496
0.0626034
0.0791365
0.0978168
0.118441
0.14076
0.164492
0.189349
0.215039
0.24128
0.267808
0.294376
0.320764
0.346778
0.37225
0.39704
0.421033
0.444138
0.466281
0.487414
0.507505
0.526539
0.544514
0.56144
0.577335
0.592229
0.606152
0.619143
0.631245
0.642498
0.652948
0.662639
0.671616
0.679924
0.687604
0.694699
0.701249
0.707219
0.712611
0.717772
0.72253
0.72688
0.730966
0.734848
0.738534
0.742027
0.74533
0.748441
0.75136
0.754085
0.756611
0.758933
0.761044
0.762936
0.764602
0.766031
0.767214
0.768147
0.768839
0.769315
0.769618
0.769797
0.769897
0.769949
0.769976
0.769989
0.769995
0.769998
0.769999
0.77
0.77
0.77
0.77
0.77
0.77
0.77
0.77
0.77
0.77
0.77
0.77
2.17046e-06
9.48569e-06
2.17903e-05
4.2417e-05
7.68244e-05
0.000133848
0.000227594
0.000380232
0.000625963
0.00101643
0.0016277
0.00256849
0.00398873
0.00608638
0.00910907
0.0133466
0.0191111
0.0267044
0.0363801
0.0483084
0.0625562
0.0790841
0.0977607
0.118383
0.140701
0.164435
0.189295
0.21499
0.241238
0.267774
0.294351
0.320749
0.346774
0.372257
0.397058
0.421063
0.444178
0.466332
0.487475
0.507575
0.526617
0.5446
0.561532
0.577434
0.592333
0.606261
0.619257
0.63136
0.642615
0.653066
0.662757
0.671733
0.680039
0.687717
0.69481
0.701357
0.707326
0.712714
0.717871
0.722626
0.726965
0.731054
0.734934
0.738618
0.742109
0.745408
0.748517
0.751432
0.754153
0.756674
0.758991
0.761097
0.762984
0.764643
0.766066
0.767242
0.768169
0.768854
0.769325
0.769624
0.769801
0.769899
0.76995
0.769976
0.769989
0.769995
0.769998
0.769999
0.77
0.77
0.77
0.77
0.77
0.77
0.77
0.77
0.77
0.77
0.77
0.77
2.16834e-06
9.47644e-06
2.1769e-05
4.23757e-05
7.67495e-05
0.000133717
0.000227372
0.000379863
0.000625358
0.00101546
0.00162616
0.00256611
0.00398514
0.00608109
0.00910151
0.0133362
0.0190971
0.0266864
0.0363578
0.048282
0.0625258
0.0790506
0.0977248
0.118346
0.140664
0.164399
0.189261
0.21496
0.241212
0.267753
0.294337
0.320742
0.346773
0.372263
0.397072
0.421084
0.444207
0.466368
0.487517
0.507623
0.526671
0.544659
0.561596
0.577503
0.592405
0.606335
0.619333
0.631438
0.642694
0.653144
0.662835
0.671811
0.680116
0.687792
0.694883
0.701428
0.707395
0.712781
0.717935
0.722686
0.727017
0.73111
0.734989
0.738672
0.742162
0.74546
0.748566
0.75148
0.754198
0.756716
0.75903
0.761132
0.763015
0.76467
0.766089
0.767261
0.768183
0.768864
0.769331
0.769628
0.769803
0.7699
0.769951
0.769976
0.769989
0.769995
0.769998
0.769999
0.77
0.77
0.77
0.77
0.77
0.77
0.77
0.77
0.77
0.77
0.77
0.77
2.16731e-06
9.47195e-06
2.17588e-05
4.23557e-05
7.67135e-05
0.000133655
0.000227266
0.000379686
0.00062507
0.001015
0.00162543
0.00256498
0.00398344
0.00607859
0.00909794
0.0133312
0.0190905
0.026678
0.0363474
0.0482695
0.0625115
0.0790347
0.0977078
0.118329
0.140646
0.164382
0.189246
0.214946
0.2412
0.267744
0.29433
0.320738
0.346773
0.372267
0.39708
0.421096
0.444222
0.466386
0.487539
0.507648
0.526699
0.544689
0.561629
0.577537
0.59244
0.606372
0.619371
0.631476
0.642732
0.653183
0.662874
0.671849
0.680154
0.68783
0.69492
0.701464
0.70743
0.712815
0.717967
0.722717
0.727045
0.731137
0.735017
0.738699
0.742188
0.745485
0.748591
0.751503
0.75422
0.756737
0.759049
0.761149
0.76303
0.764683
0.7661
0.767269
0.768189
0.768869
0.769334
0.76963
0.769804
0.7699
0.769951
0.769977
0.769989
0.769995
0.769998
0.769999
0.77
0.77
0.77
0.77
0.77
0.77
0.77
0.77
0.77
0.77
0.77
0.77
2.16732e-06
9.472e-06
2.17588e-05
4.23559e-05
7.67138e-05
0.000133655
0.000227267
0.000379688
0.000625072
0.001015
0.00162544
0.00256499
0.00398345
0.00607861
0.00909797
0.0133313
0.0190906
0.026678
0.0363474
0.0482696
0.0625116
0.0790348
0.097708
0.118329
0.140646
0.164382
0.189246
0.214946
0.2412
0.267744
0.29433
0.320738
0.346773
0.372267
0.39708
0.421096
0.444222
0.466386
0.487539
0.507648
0.526699
0.544689
0.561629
0.577537
0.59244
0.606372
0.619371
0.631476
0.642732
0.653183
0.662874
0.671849
0.680154
0.68783
0.69492
0.701464
0.707431
0.712815
0.717967
0.722717
0.727045
0.731137
0.735016
0.738699
0.742188
0.745485
0.748591
0.751503
0.75422
0.756737
0.759049
0.761149
0.76303
0.764683
0.7661
0.767269
0.768189
0.768869
0.769334
0.76963
0.769804
0.7699
0.769951
0.769977
0.769989
0.769995
0.769998
0.769999
0.77
0.77
0.77
0.77
0.77
0.77
0.77
0.77
0.77
0.77
0.77
0.77
2.16837e-06
9.47657e-06
2.17693e-05
4.23763e-05
7.67505e-05
0.000133719
0.000227375
0.000379868
0.000625366
0.00101547
0.00162618
0.00256614
0.00398518
0.00608115
0.00910159
0.0133363
0.0190972
0.0266866
0.0363581
0.0482822
0.0625261
0.0790509
0.0977252
0.118346
0.140664
0.1644
0.189262
0.21496
0.241213
0.267753
0.294337
0.320742
0.346773
0.372264
0.397072
0.421085
0.444207
0.466368
0.487517
0.507623
0.526671
0.544659
0.561597
0.577503
0.592405
0.606335
0.619333
0.631438
0.642694
0.653144
0.662835
0.671811
0.680116
0.687793
0.694883
0.701429
0.707396
0.712782
0.717935
0.722686
0.727017
0.73111
0.734989
0.738672
0.742162
0.74546
0.748566
0.75148
0.754198
0.756716
0.75903
0.761132
0.763015
0.76467
0.766089
0.767261
0.768183
0.768864
0.769331
0.769628
0.769803
0.7699
0.769951
0.769976
0.769989
0.769995
0.769998
0.769999
0.77
0.77
0.77
0.77
0.77
0.77
0.77
0.77
0.77
0.77
0.77
0.77
2.17051e-06
9.4859e-06
2.17907e-05
4.2418e-05
7.68261e-05
0.000133851
0.000227599
0.00038024
0.000625976
0.00101645
0.00162773
0.00256854
0.0039888
0.00608648
0.00910922
0.0133468
0.0191113
0.0267047
0.0363805
0.0483089
0.0625567
0.0790847
0.0977613
0.118384
0.140702
0.164436
0.189296
0.214991
0.241239
0.267774
0.294352
0.32075
0.346774
0.372257
0.397058
0.421063
0.444178
0.466332
0.487475
0.507575
0.526617
0.5446
0.561532
0.577434
0.592333
0.606261
0.619257
0.631361
0.642615
0.653066
0.662757
0.671733
0.680039
0.687717
0.69481
0.701357
0.707326
0.712714
0.717871
0.722626
0.726965
0.731054
0.734934
0.738618
0.742109
0.745408
0.748517
0.751432
0.754153
0.756674
0.758991
0.761097
0.762984
0.764643
0.766066
0.767242
0.768169
0.768854
0.769325
0.769624
0.769801
0.769899
0.76995
0.769976
0.769989
0.769995
0.769998
0.769999
0.77
0.77
0.77
0.77
0.77
0.77
0.77
0.77
0.77
0.77
0.77
0.77
2.17377e-06
9.50016e-06
2.18235e-05
4.24817e-05
7.69416e-05
0.000134052
0.000227941
0.000380811
0.000626911
0.00101796
0.00163011
0.00257222
0.00399438
0.00609469
0.00912096
0.0133631
0.0191331
0.0267327
0.0364151
0.0483502
0.0626041
0.0791373
0.0978176
0.118442
0.14076
0.164493
0.18935
0.21504
0.241281
0.267808
0.294377
0.320765
0.346779
0.37225
0.39704
0.421034
0.444138
0.466282
0.487415
0.507506
0.526539
0.544514
0.56144
0.577336
0.592229
0.606152
0.619143
0.631245
0.642499
0.652948
0.662639
0.671616
0.679924
0.687604
0.694699
0.701249
0.707219
0.712611
0.717772
0.72253
0.72688
0.730966
0.734849
0.738534
0.742028
0.74533
0.748441
0.75136
0.754085
0.756611
0.758933
0.761044
0.762936
0.764602
0.766031
0.767214
0.768147
0.768839
0.769315
0.769618
0.769797
0.769897
0.769949
0.769976
0.769989
0.769995
0.769998
0.769999
0.77
0.77
0.77
0.77
0.77
0.77
0.77
0.77
0.77
0.77
0.77
0.77
2.17823e-06
9.51964e-06
2.18682e-05
4.25688e-05
7.70995e-05
0.000134327
0.00022841
0.000381593
0.000628193
0.00102003
0.00163338
0.00257728
0.00400204
0.00610599
0.00913715
0.0133855
0.0191631
0.0267714
0.0364632
0.0484077
0.0626703
0.0792108
0.0978967
0.118525
0.140844
0.164575
0.189427
0.215111
0.241343
0.26786
0.294416
0.320791
0.34679
0.372247
0.397022
0.421
0.444089
0.466217
0.487336
0.507414
0.526436
0.5444
0.561316
0.577204
0.592091
0.606009
0.618996
0.631092
0.642341
0.652789
0.66248
0.671459
0.679768
0.687451
0.694549
0.701103
0.707078
0.712475
0.717641
0.722404
0.726768
0.730849
0.734733
0.738422
0.741918
0.745223
0.748339
0.751263
0.753993
0.756525
0.758853
0.760971
0.762872
0.764546
0.765984
0.767176
0.768118
0.768818
0.769301
0.76961
0.769793
0.769894
0.769948
0.769975
0.769988
0.769995
0.769998
0.769999
0.77
0.77
0.77
0.77
0.77
0.77
0.77
0.77
0.77
0.77
0.77
0.77
2.18397e-06
9.54471e-06
2.19258e-05
4.2681e-05
7.73029e-05
0.000134682
0.000229014
0.000382602
0.00062985
0.0010227
0.00163762
0.00258385
0.004012
0.0061207
0.00915825
0.0134149
0.0192024
0.0268223
0.0365265
0.0484835
0.0627578
0.0793085
0.0980022
0.118635
0.140956
0.164686
0.189534
0.21521
0.241432
0.267935
0.294476
0.320834
0.346814
0.372252
0.397006
0.420964
0.444034
0.466143
0.487244
0.507305
0.526311
0.544261
0.561164
0.577041
0.591918
0.605829
0.618811
0.630904
0.642151
0.652596
0.662285
0.671262
0.679572
0.687258
0.694359
0.700917
0.7069
0.712303
0.717474
0.722244
0.726624
0.730701
0.734587
0.738278
0.741777
0.745087
0.748208
0.751138
0.753875
0.756414
0.758751
0.760879
0.762789
0.764474
0.765923
0.767127
0.76808
0.768791
0.769283
0.769599
0.769786
0.769891
0.769946
0.769974
0.769988
0.769994
0.769997
0.769999
0.77
0.77
0.77
0.77
0.77
0.77
0.77
0.77
0.77
0.77
0.77
0.77
2.19109e-06
9.5758e-06
2.19972e-05
4.28202e-05
7.75556e-05
0.000135124
0.000229766
0.00038386
0.000631917
0.00102604
0.00164291
0.00259209
0.0040245
0.00613921
0.00918487
0.0134519
0.0192523
0.0268869
0.0366071
0.0485804
0.0628703
0.0794345
0.0981391
0.11878
0.141104
0.164833
0.189677
0.215344
0.241554
0.268042
0.294564
0.320901
0.346859
0.372273
0.397004
0.420937
0.443981
0.466067
0.487144
0.507183
0.526169
0.5441
0.560988
0.57685
0.591715
0.605615
0.618588
0.630674
0.641917
0.652361
0.662049
0.671026
0.679334
0.687021
0.694127
0.700691
0.706682
0.712093
0.71727
0.722047
0.726447
0.730519
0.734407
0.738099
0.741603
0.744919
0.748046
0.750983
0.753729
0.756278
0.758625
0.760764
0.762687
0.764384
0.765847
0.767065
0.768033
0.768758
0.769261
0.769585
0.769778
0.769887
0.769944
0.769973
0.769987
0.769994
0.769997
0.769999
0.769999
0.77
0.77
0.77
0.77
0.77
0.77
0.77
0.77
0.77
0.77
0.77
2.19968e-06
9.61333e-06
2.20835e-05
4.29885e-05
7.78613e-05
0.000135658
0.000230678
0.000385387
0.000634433
0.00103011
0.00164939
0.00260217
0.00403985
0.00616198
0.00921769
0.0134977
0.0193141
0.0269673
0.0367078
0.0487019
0.0630118
0.079594
0.0983132
0.118964
0.141295
0.165025
0.189864
0.215523
0.241719
0.26819
0.294691
0.321004
0.346935
0.37232
0.397021
0.420925
0.443939
0.465995
0.487044
0.507056
0.526017
0.543925
0.560791
0.576634
0.591483
0.605369
0.61833
0.630408
0.641644
0.652083
0.661769
0.670747
0.679059
0.686747
0.693854
0.700422
0.706423
0.711842
0.717028
0.721814
0.726232
0.730299
0.734189
0.737886
0.741393
0.744715
0.747849
0.750795
0.753551
0.756112
0.758472
0.760625
0.762563
0.764276
0.765756
0.766991
0.767976
0.768716
0.769233
0.769568
0.769769
0.769882
0.769942
0.769972
0.769987
0.769994
0.769997
0.769999
0.769999
0.77
0.77
0.77
0.77
0.77
0.77
0.77
0.77
0.77
0.77
0.77
2.20984e-06
9.65771e-06
2.21856e-05
4.31876e-05
7.82236e-05
0.000136293
0.000231763
0.000387206
0.000637434
0.00103498
0.00165714
0.00261428
0.00405833
0.00618948
0.00925746
0.0135535
0.0193895
0.0270657
0.0368316
0.0488521
0.0631876
0.079793
0.0985319
0.119198
0.141538
0.165272
0.190109
0.215758
0.241941
0.268392
0.29487
0.321155
0.347055
0.372407
0.397073
0.420941
0.443919
0.465939
0.486953
0.506932
0.525861
0.54374
0.56058
0.5764
0.591227
0.605095
0.618041
0.630106
0.641333
0.651765
0.661447
0.670423
0.678735
0.686427
0.693539
0.700108
0.706119
0.711548
0.716745
0.721542
0.725973
0.730038
0.733933
0.737635
0.741148
0.744473
0.747614
0.750569
0.753336
0.755911
0.758288
0.760458
0.762414
0.764146
0.765645
0.766901
0.767907
0.768666
0.769199
0.769548
0.769758
0.769876
0.769939
0.76997
0.769986
0.769994
0.769997
0.769999
0.769999
0.77
0.77
0.77
0.77
0.77
0.77
0.77
0.77
0.77
0.77
0.77
2.2216e-06
9.70914e-06
2.23039e-05
4.34189e-05
7.86448e-05
0.000137031
0.000233028
0.000389333
0.000640951
0.0010407
0.00166628
0.00262859
0.00408026
0.00622222
0.00930497
0.0136203
0.0194803
0.0271848
0.036982
0.0490354
0.0634033
0.0800388
0.0988037
0.11949
0.141844
0.165586
0.190423
0.216066
0.242234
0.268665
0.295117
0.32137
0.347236
0.372549
0.397174
0.420999
0.443935
0.465913
0.486885
0.506823
0.525714
0.543557
0.560363
0.576153
0.590954
0.604798
0.617725
0.629773
0.640987
0.651409
0.661083
0.670055
0.678366
0.68606
0.693176
0.699755
0.705775
0.71121
0.716417
0.721226
0.725669
0.729735
0.733635
0.737344
0.740866
0.744205
0.747358
0.750325
0.753103
0.755688
0.758075
0.760263
0.762239
0.763993
0.765515
0.766794
0.767823
0.768604
0.769161
0.769525
0.769744
0.769868
0.769935
0.769969
0.769985
0.769993
0.769997
0.769999
0.769999
0.77
0.77
0.77
0.77
0.77
0.77
0.77
0.77
0.77
0.77
0.77
2.23496e-06
9.76754e-06
2.24385e-05
4.36821e-05
7.91248e-05
0.000137875
0.000234476
0.000391774
0.000644999
0.00104731
0.00167688
0.00264525
0.00410587
0.00626062
0.00936096
0.0136994
0.0195883
0.0273271
0.0371628
0.0492569
0.0636655
0.0803394
0.0991383
0.119853
0.142228
0.165982
0.190823
0.216462
0.242618
0.269028
0.295451
0.321671
0.347497
0.372766
0.397344
0.42112
0.444005
0.465932
0.486855
0.506744
0.525588
0.543387
0.560152
0.575905
0.590671
0.604486
0.617387
0.629413
0.640609
0.651017
0.660681
0.669645
0.677953
0.685645
0.692763
0.699346
0.705378
0.710826
0.716041
0.720863
0.725323
0.729389
0.733292
0.737006
0.740537
0.743884
0.74705
0.750031
0.752825
0.755429
0.757836
0.760038
0.762033
0.763813
0.765362
0.766668
0.767724
0.768538
0.769117
0.769497
0.769728
0.76986
0.76993
0.769966
0.769984
0.769993
0.769997
0.769999
0.769999
0.77
0.77
0.77
0.77
0.77
0.77
0.77
0.77
0.77
0.77
0.77
2.24976e-06
9.83232e-06
2.25879e-05
4.39749e-05
7.966e-05
0.000138818
0.000236099
0.00039452
0.000649572
0.0010548
0.00168895
0.00266432
0.00413534
0.00630506
0.00942608
0.0137919
0.0197154
0.0274954
0.0373779
0.049522
0.0639814
0.0807039
0.099547
0.120299
0.142703
0.166477
0.191329
0.216967
0.243113
0.269504
0.295898
0.322081
0.347863
0.373083
0.397607
0.421325
0.444151
0.466018
0.486882
0.506714
0.525501
0.543247
0.559962
0.575668
0.590392
0.604169
0.617037
0.629035
0.640206
0.650594
0.660244
0.669197
0.677497
0.685186
0.692304
0.698889
0.704939
0.7104
0.715625
0.720457
0.72493
0.728999
0.732906
0.736627
0.740166
0.743526
0.746705
0.749703
0.752517
0.755142
0.757573
0.759799
0.761808
0.763604
0.76518
0.766522
0.76762
0.768462
0.769064
0.769463
0.769709
0.769849
0.769925
0.769964
0.769983
0.769992
0.769996
0.769998
0.769999
0.77
0.77
0.77
0.77
0.77
0.77
0.77
0.77
0.77
0.77
0.77
2.26566e-06
9.90195e-06
2.27487e-05
4.42908e-05
8.02391e-05
0.000139842
0.000237868
0.000397525
0.0006546
0.00106309
0.00170237
0.00268566
0.00416855
0.00635546
0.00950049
0.0138984
0.0198627
0.0276921
0.037631
0.0498363
0.0643585
0.0811424
0.100042
0.120844
0.143289
0.167092
0.191962
0.217607
0.243746
0.270119
0.296485
0.322629
0.348363
0.373528
0.397991
0.421644
0.444402
0.466198
0.486991
0.506754
0.525476
0.543156
0.55981
0.575459
0.590131
0.603861
0.616686
0.628648
0.639788
0.65015
0.659778
0.668716
0.677005
0.684688
0.691805
0.698395
0.704467
0.709933
0.715164
0.720005
0.724486
0.728559
0.732468
0.736194
0.739741
0.743112
0.746305
0.74932
0.752154
0.754802
0.757259
0.759518
0.761561
0.763398
0.765009
0.766382
0.767504
0.768372
0.769002