/*--------------------------------*- C++ -*----------------------------------*\
  =========                 |
  \\      /  F ield         | OpenFOAM: The Open Source CFD Toolbox
   \\    /   O peration     | Website:  https://openfoam.org
    \\  /    A nd           | Version:  8
     \\/     M anipulation  |
\*---------------------------------------------------------------------------*/
FoamFile
{
    version     2.0;
    format      ascii;
    class       volScalarField;
    location    "780/fluid";
    object      O2;
}
// * * * * * * * * * * * * * * * * * * * * * * * * * * * * * * * * * * * * * //

dimensions      [0 0 0 0 0 0 0];

internalField   nonuniform List<scalar> 
4000
(
4.57987e-10
1.99976e-09
4.58494e-09
8.8994e-09
1.6059e-08
2.78582e-08
4.71421e-08
7.83484e-08
1.28261e-07
2.07006e-07
3.29269e-07
5.15628e-07
7.92818e-07
1.19618e-06
1.76635e-06
2.54638e-06
3.57589e-06
4.88359e-06
6.48048e-06
8.35599e-06
1.04783e-05
1.27986e-05
1.52568e-05
1.77881e-05
2.03276e-05
2.2814e-05
2.51922e-05
2.74144e-05
2.94413e-05
3.12426e-05
3.2799e-05
3.41052e-05
3.51766e-05
3.60587e-05
3.68408e-05
3.76697e-05
3.87619e-05
4.04142e-05
4.30142e-05
4.70564e-05
5.31717e-05
6.21722e-05
7.51104e-05
9.33562e-05
0.000118697
0.000153472
0.000200749
0.000264418
0.000349961
0.000464356
0.00061678
0.000819289
0.00108771
0.00144279
0.00191173
0.00253024
0.00334515
0.00440351
0.00577873
0.00763586
0.0100794
0.0133022
0.018488
0.0349269
0.0515682
0.0681536
0.0844819
0.100395
0.115766
0.13049
0.144481
0.157659
0.16995
0.181222
0.191521
0.200682
0.208609
0.215204
0.220396
0.224193
0.226735
0.228284
0.229149
0.229596
0.229813
0.229916
0.229963
0.229984
0.229993
0.229997
0.229999
0.229999
0.23
0.23
0.23
0.23
0.23
0.23
0.23
0.23
4.65142e-10
2.03242e-09
4.66554e-09
9.07049e-09
1.63979e-08
2.85002e-08
4.83156e-08
8.04234e-08
1.31809e-07
2.12858e-07
3.3852e-07
5.29433e-07
8.13409e-07
1.22606e-06
1.80827e-06
2.60346e-06
3.65186e-06
4.98315e-06
6.6096e-06
8.52204e-06
1.06898e-05
1.30646e-05
1.55864e-05
1.81891e-05
2.08065e-05
2.33751e-05
2.58376e-05
2.81438e-05
3.02522e-05
3.21308e-05
3.37584e-05
3.51288e-05
3.62571e-05
3.71899e-05
3.80194e-05
3.88982e-05
4.00519e-05
4.17899e-05
4.45142e-05
4.87357e-05
5.51018e-05
6.44402e-05
7.78176e-05
9.66175e-05
0.000122642
0.000158247
0.000206344
0.00027111
0.000357923
0.000473763
0.00062781
0.000832131
0.00110256
0.00145985
0.00193125
0.00255251
0.00337061
0.00443224
0.00581162
0.00767577
0.0101296
0.0133673
0.0198054
0.0363442
0.0530656
0.0697168
0.0860996
0.102057
0.117461
0.132208
0.146207
0.159377
0.17164
0.182855
0.193063
0.20209
0.209836
0.216207
0.221147
0.224697
0.227034
0.22844
0.229222
0.229627
0.229826
0.229921
0.229964
0.229984
0.229993
0.229997
0.229999
0.229999
0.23
0.23
0.23
0.23
0.23
0.23
0.23
0.23
4.7464e-10
2.07393e-09
4.76139e-09
9.25865e-09
1.67417e-08
2.91026e-08
4.93406e-08
8.21264e-08
1.34586e-07
2.17333e-07
3.45744e-07
5.41393e-07
8.33495e-07
1.25642e-06
1.85198e-06
2.66472e-06
3.73616e-06
5.09755e-06
6.76295e-06
8.72494e-06
1.09543e-05
1.34037e-05
1.60128e-05
1.87152e-05
2.14427e-05
2.41298e-05
2.67165e-05
2.91497e-05
3.13849e-05
3.33871e-05
3.51327e-05
3.66137e-05
3.78441e-05
3.88716e-05
3.97924e-05
4.07677e-05
4.20368e-05
4.39279e-05
4.68661e-05
5.13879e-05
5.81667e-05
6.80554e-05
8.21439e-05
0.000101837
0.000128952
0.000165681
0.00021526
0.000282034
0.000371099
0.000489499
0.00064647
0.000854121
0.00112834
0.00148996
0.00196632
0.00259335
0.00341834
0.00448721
0.00587632
0.00775471
0.0102279
0.0134983
0.0221126
0.0387247
0.0555128
0.0722175
0.0886366
0.10461
0.120007
0.134722
0.148659
0.161735
0.173866
0.184932
0.194923
0.203691
0.211145
0.217206
0.221846
0.225139
0.227286
0.228571
0.229284
0.229655
0.229838
0.229926
0.229967
0.229985
0.229994
0.229997
0.229999
0.23
0.23
0.23
0.23
0.23
0.23
0.23
0.23
0.23
4.85993e-10
2.12416e-09
4.8791e-09
9.49316e-09
1.7176e-08
2.98729e-08
5.06646e-08
8.43412e-08
1.38196e-07
2.23056e-07
3.54532e-07
5.5433e-07
8.51342e-07
1.28197e-06
1.889e-06
2.71833e-06
3.81326e-06
5.20715e-06
6.91632e-06
8.93547e-06
1.1237e-05
1.37743e-05
1.6487e-05
1.93075e-05
2.2166e-05
2.49945e-05
2.77301e-05
3.03167e-05
3.27066e-05
3.48617e-05
3.67557e-05
3.8378e-05
3.97419e-05
4.08963e-05
4.19428e-05
4.30531e-05
4.44838e-05
4.65869e-05
4.98167e-05
5.47417e-05
6.20694e-05
7.26858e-05
8.7713e-05
0.000108576
0.00013696
0.000175414
0.000227381
0.000296725
0.000388872
0.000510937
0.000672251
0.000885043
0.00116535
0.0015342
0.00201921
0.0026567
0.0034945
0.0045764
0.00598193
0.00788534
0.0103957
0.0137138
0.0249765
0.0416132
0.0584287
0.0751516
0.091571
0.107521
0.122867
0.137498
0.151319
0.164243
0.176184
0.187063
0.196793
0.205276
0.212427
0.218181
0.222533
0.225581
0.227545
0.228711
0.229354
0.229688
0.229853
0.229933
0.22997
0.229986
0.229994
0.229997
0.229999
0.23
0.23
0.23
0.23
0.23
0.23
0.23
0.23
0.23
4.96072e-10
2.1682e-09
4.98027e-09
9.69e-09
1.75318e-08
3.04901e-08
5.17065e-08
8.60642e-08
1.40996e-07
2.2754e-07
3.61608e-07
5.65351e-07
8.683e-07
1.30776e-06
1.92776e-06
2.77578e-06
3.89712e-06
5.32745e-06
7.08553e-06
9.16829e-06
1.15498e-05
1.41844e-05
1.70118e-05
1.99632e-05
2.29672e-05
2.59533e-05
2.88558e-05
3.16153e-05
3.41807e-05
3.65107e-05
3.85759e-05
4.03633e-05
4.18853e-05
4.3193e-05
4.43945e-05
4.56744e-05
4.73103e-05
4.96826e-05
5.32799e-05
5.87091e-05
6.67189e-05
7.82392e-05
9.43915e-05
0.000116526
0.000146694
0.000187647
0.000242355
0.000315058
0.00041131
0.000538384
0.000705803
0.000926045
0.00121545
0.00159546
0.00209421
0.0027487
0.00360577
0.00470701
0.00614318
0.00809061
0.0106553
0.014025
0.0279885
0.0446044
0.0614237
0.0781475
0.0945495
0.110456
0.125728
0.140254
0.153937
0.166692
0.178412
0.189067
0.198538
0.20674
0.213596
0.219058
0.22314
0.225967
0.227769
0.22883
0.229414
0.229717
0.229866
0.229938
0.229972
0.229988
0.229995
0.229998
0.229999
0.23
0.23
0.23
0.23
0.23
0.23
0.23
0.23
0.23
5.04823e-10
2.20632e-09
5.06744e-09
9.85873e-09
1.78356e-08
3.10163e-08
5.25965e-08
8.75451e-08
1.43429e-07
2.31491e-07
3.67963e-07
5.7547e-07
8.84247e-07
1.33262e-06
1.96601e-06
2.83378e-06
3.98352e-06
5.45353e-06
7.26528e-06
9.41808e-06
1.18878e-05
1.46296e-05
1.7583e-05
2.06784e-05
2.38424e-05
2.70021e-05
3.00886e-05
3.30394e-05
3.57998e-05
3.8325e-05
4.05823e-05
4.25566e-05
4.42593e-05
4.57445e-05
4.71287e-05
4.86119e-05
5.04963e-05
5.31949e-05
5.72345e-05
6.3263e-05
7.20719e-05
8.45948e-05
0.000101955
0.000125817
0.000158404
0.000202046
0.000260107
0.000336987
0.000438442
0.000572003
0.000747525
0.000977902
0.00128
0.00167591
0.00219453
0.00287341
0.00376195
0.00489959
0.00638327
0.00838219
0.0110006
0.0143949
0.0305103
0.0472441
0.0641546
0.0809288
0.0973381
0.11321
0.128409
0.142827
0.15637
0.168957
0.180467
0.190907
0.200128
0.208061
0.214644
0.219839
0.22368
0.22631
0.227969
0.228939
0.229469
0.229743
0.229879
0.229944
0.229975
0.229989
0.229995
0.229998
0.229999
0.23
0.23
0.23
0.23
0.23
0.23
0.23
0.23
0.23
5.1289e-10
2.24151e-09
5.14808e-09
1.00154e-08
1.81192e-08
3.15113e-08
5.34417e-08
8.89672e-08
1.45795e-07
2.35388e-07
3.74319e-07
5.85733e-07
9.00635e-07
1.35846e-06
2.00618e-06
2.89518e-06
4.07557e-06
5.58851e-06
7.45837e-06
9.68706e-06
1.22524e-05
1.51105e-05
1.8201e-05
2.14532e-05
2.47916e-05
2.81411e-05
3.14295e-05
3.45907e-05
3.75665e-05
4.03082e-05
4.27797e-05
4.49633e-05
4.68701e-05
4.85576e-05
5.01527e-05
5.1874e-05
5.40517e-05
5.71366e-05
6.17018e-05
6.84317e-05
7.81077e-05
9.17044e-05
0.000110609
0.000136651
0.000171678
0.000218392
0.00028032
0.000362072
0.000469687
0.000611075
0.000796595
0.00103981
0.00135847
0.00177581
0.00232218
0.0030376
0.00397511
0.00516429
0.00676682
0.00886238
0.011598
0.0150966
0.0320758
0.0492986
0.0664805
0.0833915
0.0998479
0.115703
0.130837
0.145151
0.158558
0.170978
0.182277
0.192503
0.201516
0.209224
0.215564
0.22052
0.224147
0.226604
0.22814
0.229031
0.229516
0.229766
0.22989
0.229949
0.229977
0.22999
0.229995
0.229998
0.229999
0.23
0.23
0.23
0.23
0.23
0.23
0.23
0.23
0.23
5.20603e-10
2.27519e-09
5.22539e-09
1.0166e-08
1.83927e-08
3.19905e-08
5.4264e-08
9.03592e-08
1.48127e-07
2.39259e-07
3.80688e-07
5.96111e-07
9.17363e-07
1.38508e-06
2.04792e-06
2.95949e-06
4.17262e-06
5.73158e-06
7.66389e-06
9.97432e-06
1.26428e-05
1.56266e-05
1.88654e-05
2.22876e-05
2.58159e-05
2.93725e-05
3.28821e-05
3.62749e-05
3.94887e-05
4.24708e-05
4.51815e-05
4.76001e-05
4.97373e-05
5.1655e-05
5.34916e-05
5.54863e-05
5.79975e-05
6.15117e-05
6.66413e-05
7.40872e-05
8.47139e-05
9.96594e-05
0.000120455
0.000148588
0.00018624
0.000236245
0.000302302
0.000389259
0.000503474
0.000653303
0.000849727
0.00110721
0.0014448
0.0018877
0.00246931
0.00323408
0.00423581
0.0055198
0.00726998
0.00958668
0.0126675
0.0167081
0.0339677
0.0513945
0.0687042
0.085677
0.102141
0.117958
0.133018
0.147227
0.160505
0.172774
0.183922
0.193956
0.202752
0.210244
0.216366
0.221108
0.224547
0.226856
0.228286
0.22911
0.229557
0.229786
0.229899
0.229953
0.229979
0.229991
0.229996
0.229998
0.229999
0.23
0.23
0.23
0.23
0.23
0.23
0.23
0.23
0.23
5.28171e-10
2.30826e-09
5.30143e-09
1.03145e-08
1.86632e-08
3.24663e-08
5.50843e-08
9.17551e-08
1.50479e-07
2.43188e-07
3.87194e-07
6.0678e-07
9.34664e-07
1.41277e-06
2.09155e-06
3.02697e-06
4.27482e-06
5.88267e-06
7.88148e-06
1.02791e-05
1.30579e-05
1.61766e-05
1.95751e-05
2.3181e-05
2.69155e-05
3.0698e-05
3.445e-05
3.80981e-05
4.15759e-05
4.48263e-05
4.78056e-05
5.04902e-05
5.28905e-05
5.50735e-05
5.7192e-05
5.95095e-05
6.24197e-05
6.64341e-05
7.21374e-05
8.03086e-05
9.21074e-05
0.000108667
0.000131209
0.000161508
0.000201837
0.000255144
0.000325276
0.000417272
0.000537741
0.000695364
0.00090155
0.00117132
0.00152448
0.00198719
0.00259409
0.00339119
0.00443403
0.00577621
0.00760787
0.0100362
0.0132743
0.0184579
0.0358918
0.0534268
0.070791
0.0877733
0.104208
0.119961
0.134925
0.14901
0.162136
0.174234
0.185189
0.195033
0.203655
0.21099
0.216993
0.221595
0.224884
0.227068
0.228409
0.229177
0.229591
0.229803
0.229907
0.229957
0.22998
0.229991
0.229996
0.229998
0.229999
0.23
0.23
0.23
0.23
0.23
0.23
0.23
0.23
0.23
5.35663e-10
2.34102e-09
5.37683e-09
1.04619e-08
1.89324e-08
3.29412e-08
5.59057e-08
9.31579e-08
1.52852e-07
2.47171e-07
3.93818e-07
6.17692e-07
9.52439e-07
1.44134e-06
2.13674e-06
3.09712e-06
4.3814e-06
6.04071e-06
8.10971e-06
1.05997e-05
1.34957e-05
1.67581e-05
2.03277e-05
2.41315e-05
2.80891e-05
3.21176e-05
3.61355e-05
4.00656e-05
4.3837e-05
4.73886e-05
5.0672e-05
5.36605e-05
5.63642e-05
5.88555e-05
6.13015e-05
6.39884e-05
6.73373e-05
7.18709e-05
7.82848e-05
8.76126e-05
0.000100672
0.000118644
0.000142962
0.000175448
0.000218438
0.000274966
0.000348986
0.000445667
0.000571773
0.000736164
0.000950459
0.0012299
0.00159453
0.00207069
0.00269313
0.00350772
0.00456593
0.0059224
0.00776355
0.0101847
0.0133768
0.0203023
0.0377921
0.0553592
0.072732
0.0896986
0.106094
0.121787
0.136673
0.150661
0.163672
0.175633
0.186503
0.196206
0.204659
0.211795
0.217564
0.22201
0.225174
0.227249
0.228514
0.229234
0.22962
0.229817
0.229914
0.22996
0.229982
0.229992
0.229996
0.229998
0.229999
0.23
0.23
0.23
0.23
0.23
0.23
0.23
0.23
0.23
5.43074e-10
2.37343e-09
5.45152e-09
1.06082e-08
1.92e-08
3.34142e-08
5.67259e-08
9.45631e-08
1.55238e-07
2.51187e-07
4.00522e-07
6.28775e-07
9.70554e-07
1.47055e-06
2.18308e-06
3.16929e-06
4.49135e-06
6.20421e-06
8.34648e-06
1.09332e-05
1.39526e-05
1.73672e-05
2.11188e-05
2.51344e-05
2.93326e-05
3.36284e-05
3.79374e-05
4.21788e-05
4.62778e-05
5.01685e-05
5.37983e-05
5.71377e-05
6.01973e-05
6.30579e-05
6.59066e-05
6.90563e-05
7.28965e-05
7.80285e-05
8.54201e-05
9.57806e-05
0.00011012
0.000129644
0.000155837
0.00019057
0.00023624
0.00029595
0.000373736
0.000474854
0.000606165
0.000776629
0.000997953
0.00128545
0.00165918
0.00214544
0.00277876
0.00360445
0.00467179
0.00603507
0.00788075
0.0102987
0.0134771
0.0220758
0.0395707
0.0571244
0.0744665
0.0913863
0.107715
0.123327
0.138118
0.152
0.164919
0.176803
0.187588
0.197175
0.205494
0.212484
0.218106
0.222372
0.225415
0.227404
0.228603
0.229282
0.229644
0.229829
0.229919
0.229963
0.229983
0.229992
0.229997
0.229999
0.229999
0.23
0.23
0.23
0.23
0.23
0.23
0.23
0.23
0.23
5.5034e-10
2.40522e-09
5.5248e-09
1.07519e-08
1.94632e-08
3.38804e-08
5.75362e-08
9.59547e-08
1.57606e-07
2.55186e-07
4.07218e-07
6.39878e-07
9.88756e-07
1.49999e-06
2.22993e-06
3.24245e-06
4.60315e-06
6.37095e-06
8.58875e-06
1.12757e-05
1.44235e-05
1.79975e-05
2.19411e-05
2.61818e-05
3.06377e-05
3.52224e-05
3.9849e-05
4.44335e-05
4.88972e-05
5.31697e-05
5.71944e-05
6.09385e-05
6.44139e-05
6.77109e-05
7.10373e-05
7.47033e-05
7.91753e-05
8.5183e-05
9.34974e-05
0.000105002
0.00012073
0.000141919
0.00017009
0.000207159
0.000255579
0.000318515
0.000400067
0.000505566
0.000641945
0.000818228
0.00104618
0.00134113
0.00172312
0.00221829
0.0028606
0.00369496
0.00477115
0.00614261
0.00799331
0.0104118
0.0135839
0.0236505
0.0411508
0.0586908
0.0759968
0.0928597
0.109126
0.124681
0.13942
0.15326
0.166106
0.177893
0.188555
0.198018
0.20621
0.21307
0.218564
0.222711
0.225624
0.227532
0.228678
0.229322
0.229665
0.229839
0.229924
0.229965
0.229984
0.229993
0.229997
0.229999
0.229999
0.23
0.23
0.23
0.23
0.23
0.23
0.23
0.23
0.23
5.57353e-10
2.43592e-09
5.59561e-09
1.08908e-08
1.97181e-08
3.43326e-08
5.83237e-08
9.73101e-08
1.59919e-07
2.59101e-07
4.13788e-07
6.50803e-07
1.00672e-06
1.52911e-06
2.27642e-06
3.31528e-06
4.71479e-06
6.53805e-06
8.83243e-06
1.16216e-05
1.49012e-05
1.864e-05
2.27835e-05
2.72608e-05
3.19901e-05
3.68843e-05
4.1855e-05
4.68156e-05
5.16838e-05
5.63853e-05
6.08591e-05
6.50696e-05
6.90307e-05
7.28442e-05
7.6725e-05
8.09767e-05
8.61903e-05
9.31898e-05
0.000102629
0.000115443
0.000132706
0.000155693
0.000185969
0.000225498
0.000276786
0.000343057
0.000428478
0.000538444
0.000679956
0.000862098
0.00109668
0.00139905
0.00178908
0.00229262
0.00294404
0.00378891
0.00487366
0.00625187
0.00810739
0.0105259
0.0136899
0.025005
0.0425179
0.0600478
0.0773264
0.0941668
0.110411
0.125921
0.140597
0.154354
0.167114
0.178809
0.189374
0.198733
0.206815
0.213563
0.218945
0.222988
0.225813
0.227638
0.228739
0.229355
0.229682
0.229847
0.229928
0.229967
0.229985
0.229993
0.229997
0.229999
0.229999
0.23
0.23
0.23
0.23
0.23
0.23
0.23
0.23
0.23
5.6398e-10
2.46492e-09
5.66256e-09
1.10223e-08
1.99596e-08
3.47616e-08
5.90721e-08
9.86008e-08
1.62126e-07
2.62845e-07
4.20089e-07
6.61306e-07
1.02403e-06
1.55727e-06
2.3215e-06
3.38612e-06
4.82378e-06
6.70178e-06
9.0722e-06
1.19634e-05
1.53758e-05
1.92816e-05
2.36299e-05
2.83517e-05
3.33668e-05
3.85885e-05
4.39279e-05
4.9297e-05
5.46114e-05
5.97933e-05
6.47779e-05
6.95267e-05
7.40535e-05
7.8468e-05
8.29657e-05
8.81201e-05
9.43569e-05
0.000102392
0.000113057
0.000127302
0.000146229
0.000171147
0.000203661
0.000245785
0.000300079
0.000369829
0.000459263
0.000573844
0.000720638
0.000908769
0.00114999
0.00145942
0.00185712
0.00236983
0.00303147
0.00388582
0.00497876
0.00636388
0.00822398
0.0106419
0.0137908
0.0261495
0.043685
0.0612123
0.0784876
0.0953027
0.111502
0.126961
0.141579
0.15527
0.167958
0.179576
0.190058
0.19933
0.20732
0.213973
0.21926
0.223215
0.225965
0.227734
0.228789
0.229382
0.229696
0.229854
0.229931
0.229968
0.229986
0.229994
0.229997
0.229999
0.229999
0.23
0.23
0.23
0.23
0.23
0.23
0.23
0.23
0.23
5.70067e-10
2.49157e-09
5.7241e-09
1.11432e-08
2.01819e-08
3.51572e-08
5.97633e-08
9.97949e-08
1.64171e-07
2.66323e-07
4.25956e-07
6.71109e-07
1.04023e-06
1.5837e-06
2.36394e-06
3.45304e-06
4.9271e-06
6.85765e-06
9.30146e-06
1.22919e-05
1.58342e-05
1.99052e-05
2.44578e-05
2.94263e-05
3.47332e-05
4.02937e-05
4.60204e-05
5.18259e-05
5.76256e-05
6.33415e-05
6.89083e-05
7.4289e-05
7.95061e-05
8.46842e-05
9.00762e-05
9.61202e-05
0.000103476
0.000112748
0.000124804
0.000140628
0.000161356
0.000188335
0.000223216
0.000268064
0.000325496
0.000398861
0.00049245
0.000611764
0.000763866
0.000957828
0.00120559
0.00152269
0.00192944
0.00245128
0.00312194
0.00398535
0.00508602
0.00647744
0.00834113
0.0107571
0.013886
0.0271006
0.044662
0.0621973
0.0794569
0.0962451
0.112408
0.127824
0.142392
0.156027
0.168656
0.18021
0.190624
0.199822
0.207735
0.21431
0.219518
0.2234
0.226088
0.227809
0.228833
0.229404
0.229706
0.229859
0.229934
0.22997
0.229986
0.229994
0.229997
0.229999
0.229999
0.23
0.23
0.23
0.23
0.23
0.23
0.23
0.23
0.23
5.75455e-10
2.51516e-09
5.77859e-09
1.12504e-08
2.03792e-08
3.55085e-08
6.03778e-08
1.00858e-07
1.65997e-07
2.69433e-07
4.31212e-07
6.79914e-07
1.05482e-06
1.60757e-06
2.40239e-06
3.51386e-06
5.02137e-06
7.00042e-06
9.51244e-06
1.25958e-05
1.62606e-05
2.04888e-05
2.52377e-05
3.04462e-05
3.60403e-05
4.19392e-05
4.80584e-05
5.43136e-05
6.06226e-05
6.69094e-05
7.31109e-05
7.91938e-05
8.5189e-05
9.12273e-05
9.77394e-05
0.000105046
0.000113602
0.000124222
0.00013779
0.000155311
0.000177951
0.000207098
0.000244448
0.000292116
0.000352766
0.000429774
0.00052743
0.000651286
0.00080851
0.00100866
0.0012636
0.00158876
0.00200365
0.00253403
0.00321335
0.00408513
0.00519258
0.0065889
0.00845421
0.0108656
0.0139729
0.0278739
0.0454578
0.0629988
0.0802478
0.097014
0.113147
0.128526
0.143053
0.156643
0.169222
0.180723
0.191082
0.20022
0.208071
0.214581
0.219726
0.223547
0.226185
0.227869
0.228868
0.229423
0.229716
0.229864
0.229936
0.22997
0.229987
0.229994
0.229997
0.229999
0.23
0.23
0.23
0.23
0.23
0.23
0.23
0.23
0.23
0.23
5.79985e-10
2.535e-09
5.82444e-09
1.13406e-08
2.05453e-08
3.58047e-08
6.08968e-08
1.01758e-07
1.67543e-07
2.72071e-07
4.35681e-07
6.87416e-07
1.06728e-06
1.62801e-06
2.43541e-06
3.56627e-06
5.10289e-06
7.12442e-06
9.69649e-06
1.28622e-05
1.66365e-05
2.10064e-05
2.59342e-05
3.13636e-05
3.72259e-05
4.34449e-05
4.99418e-05
5.66376e-05
6.3456e-05
7.03274e-05
7.71966e-05
8.40415e-05
9.09129e-05
9.79794e-05
0.000105587
0.000114106
0.000124142
0.000136323
0.00015154
0.000170846
0.000195447
0.000226778
0.000266575
0.000317002
0.000380785
0.000461379
0.000563208
0.000692077
0.000855211
0.00106165
0.00132331
0.00165551
0.00207793
0.00261607
0.00330295
0.00418149
0.00529372
0.00669209
0.0085554
0.0109588
0.0140455
0.028481
0.0460938
0.0636389
0.0808782
0.0976255
0.113733
0.129082
0.143574
0.157127
0.169667
0.181126
0.19144
0.200532
0.208333
0.214792
0.219887
0.223662
0.226261
0.227915
0.228894
0.229437
0.229723
0.229867
0.229938
0.229971
0.229987
0.229994
0.229997
0.229999
0.23
0.23
0.23
0.23
0.23
0.23
0.23
0.23
0.23
0.23
5.83515e-10
2.55046e-09
5.86017e-09
1.1411e-08
2.06749e-08
3.6036e-08
6.13025e-08
1.02462e-07
1.68755e-07
2.74143e-07
4.39196e-07
6.93329e-07
1.07713e-06
1.64419e-06
2.46162e-06
3.608e-06
5.16803e-06
7.22384e-06
9.84468e-06
1.30776e-05
1.69421e-05
2.14297e-05
2.65073e-05
3.21238e-05
3.82157e-05
4.47129e-05
5.15428e-05
5.86339e-05
6.59184e-05
7.33364e-05
8.08448e-05
8.84377e-05
9.61886e-05
0.000104323
0.000113175
0.000123064
0.000134425
0.000148093
0.000164929
0.00018598
0.000212485
0.000245924
0.000288097
0.000341303
0.000408325
0.000492695
0.00059891
0.000732522
0.000900798
0.00111299
0.00138093
0.00171983
0.00214918
0.00269412
0.00338705
0.00426991
0.00538341
0.0067771
0.00862608
0.010999
0.0140238
0.0289415
0.0465763
0.0641257
0.0813574
0.0980889
0.114175
0.129499
0.143965
0.157489
0.169998
0.181425
0.191706
0.200762
0.208527
0.214948
0.220005
0.223746
0.226316
0.227949
0.228913
0.229447
0.229729
0.22987
0.229939
0.229972
0.229987
0.229994
0.229997
0.229999
0.23
0.23
0.23
0.23
0.23
0.23
0.23
0.23
0.23
0.23
5.85925e-10
2.56102e-09
5.88457e-09
1.1459e-08
2.07635e-08
3.6194e-08
6.15796e-08
1.02943e-07
1.69583e-07
2.75561e-07
4.41604e-07
6.97385e-07
1.08389e-06
1.65533e-06
2.47971e-06
3.63687e-06
5.21321e-06
7.29304e-06
9.94821e-06
1.32288e-05
1.71575e-05
2.17294e-05
2.69155e-05
3.26685e-05
3.89299e-05
4.56348e-05
5.2717e-05
6.01122e-05
6.77619e-05
7.56176e-05
8.36512e-05
9.18785e-05
0.000100407
0.000109514
0.000119509
0.000130761
0.000143562
0.000158618
0.000176907
0.000199525
0.000227762
0.000263159
0.000307589
0.000363283
0.000433099
0.000520619
0.000630353
0.000768014
0.000940867
0.00115817
0.00143175
0.0017767
0.00221239
0.00276362
0.00346233
0.00434966
0.00546549
0.00685699
0.00869719
0.0110512
0.0140396
0.0292325
0.0468975
0.0644564
0.0816851
0.0984059
0.114477
0.129783
0.144229
0.157732
0.17022
0.181624
0.191882
0.200914
0.208654
0.21505
0.220082
0.2238
0.226351
0.22797
0.228925
0.229454
0.229732
0.229872
0.22994
0.229972
0.229987
0.229994
0.229998
0.229999
0.23
0.23
0.23
0.23
0.23
0.23
0.23
0.23
0.23
0.23
5.8713e-10
2.56629e-09
5.89672e-09
1.14829e-08
2.08073e-08
3.62721e-08
6.17161e-08
1.03179e-07
1.69989e-07
2.76254e-07
4.42779e-07
6.99362e-07
1.08718e-06
1.66076e-06
2.48853e-06
3.65097e-06
5.23534e-06
7.32704e-06
9.99927e-06
1.33037e-05
1.72648e-05
2.18795e-05
2.7121e-05
3.29447e-05
3.92944e-05
4.61088e-05
5.33255e-05
6.08853e-05
6.87357e-05
7.68365e-05
8.51707e-05
9.37695e-05
0.00010276
0.000112401
0.000123086
0.000135249
0.000149271
0.000165468
0.000184828
0.000208521
0.000237893
0.000274525
0.000320317
0.000377588
0.000449222
0.000538832
0.000650967
0.000791384
0.000967384
0.00118825
0.00146582
0.00181517
0.00225559
0.00281176
0.00351534
0.00440704
0.00552601
0.00691809
0.00875459
0.0110974
0.0140608
0.0293777
0.0470665
0.0646328
0.0818594
0.0985732
0.114634
0.12993
0.144364
0.157855
0.170331
0.181723
0.191969
0.200989
0.208716
0.215099
0.220119
0.223826
0.226368
0.22798
0.228931
0.229457
0.229734
0.229872
0.22994
0.229972
0.229987
0.229994
0.229998
0.229999
0.23
0.23
0.23
0.23
0.23
0.23
0.23
0.23
0.23
0.23
5.87132e-10
2.5663e-09
5.89674e-09
1.14829e-08
2.08074e-08
3.62722e-08
6.17163e-08
1.03179e-07
1.6999e-07
2.76255e-07
4.42781e-07
6.99364e-07
1.08719e-06
1.66076e-06
2.48854e-06
3.65098e-06
5.23536e-06
7.32707e-06
9.9993e-06
1.33037e-05
1.72648e-05
2.18796e-05
2.71211e-05
3.29448e-05
3.92945e-05
4.61089e-05
5.33256e-05
6.08854e-05
6.87359e-05
7.68367e-05
8.51709e-05
9.37695e-05
0.00010276
0.000112401
0.000123085
0.000135248
0.000149269
0.000165466
0.000184826
0.000208519
0.000237891
0.000274522
0.000320313
0.000377583
0.000449217
0.000538824
0.000650957
0.000791368
0.000967362
0.00118822
0.00146577
0.00181511
0.0022555
0.00281164
0.0035152
0.00440687
0.00552581
0.00691789
0.00875442
0.0110973
0.0140608
0.0293778
0.0470667
0.0646329
0.0818596
0.0985733
0.114635
0.12993
0.144364
0.157855
0.170331
0.181723
0.191969
0.200989
0.208716
0.215099
0.220119
0.223826
0.226368
0.22798
0.228931
0.229457
0.229734
0.229872
0.22994
0.229972
0.229987
0.229994
0.229998
0.229999
0.23
0.23
0.23
0.23
0.23
0.23
0.23
0.23
0.23
0.23
5.85929e-10
2.56104e-09
5.88461e-09
1.14591e-08
2.07636e-08
3.61943e-08
6.15802e-08
1.02944e-07
1.69585e-07
2.75564e-07
4.41609e-07
6.97391e-07
1.0839e-06
1.65535e-06
2.47973e-06
3.6369e-06
5.21326e-06
7.2931e-06
9.94829e-06
1.32289e-05
1.71576e-05
2.17296e-05
2.69156e-05
3.26688e-05
3.89302e-05
4.56351e-05
5.27173e-05
6.01126e-05
6.77623e-05
7.56181e-05
8.36518e-05
9.18791e-05
0.000100407
0.000109513
0.000119507
0.000130757
0.000143558
0.000158612
0.000176901
0.000199518
0.000227754
0.000263151
0.00030758
0.000363273
0.000433089
0.000520606
0.000630337
0.000767992
0.000940838
0.00115813
0.0014317
0.00177664
0.0022123
0.00276351
0.0034622
0.00434951
0.00546531
0.0068568
0.00869701
0.0110511
0.0140396
0.0292328
0.0468976
0.0644565
0.0816851
0.098406
0.114477
0.129783
0.144229
0.157732
0.17022
0.181624
0.191882
0.200914
0.208654
0.21505
0.220082
0.2238
0.226351
0.22797
0.228925
0.229454
0.229732
0.229872
0.22994
0.229972
0.229987
0.229994
0.229998
0.229999
0.23
0.23
0.23
0.23
0.23
0.23
0.23
0.23
0.23
0.23
5.83521e-10
2.55049e-09
5.86023e-09
1.14111e-08
2.06752e-08
3.60364e-08
6.13031e-08
1.02463e-07
1.68756e-07
2.74146e-07
4.39201e-07
6.93336e-07
1.07714e-06
1.64421e-06
2.46164e-06
3.60803e-06
5.16807e-06
7.22389e-06
9.84473e-06
1.30777e-05
1.69422e-05
2.14297e-05
2.65073e-05
3.21237e-05
3.82156e-05
4.47127e-05
5.15425e-05
5.86334e-05
6.59177e-05
7.33354e-05
8.08436e-05
8.84366e-05
9.61884e-05
0.000104321
0.000113172
0.000123059
0.000134418
0.000148083
0.000164914
0.000185964
0.000212468
0.000245907
0.000288082
0.000341288
0.00040831
0.000492681
0.000598897
0.000732511
0.000900789
0.00111298
0.00138093
0.00171983
0.00214919
0.00269413
0.00338707
0.00426992
0.00538343
0.00677712
0.00862609
0.010999
0.0140238
0.0289416
0.0465766
0.064126
0.0813576
0.0980892
0.114176
0.1295
0.143965
0.157489
0.169998
0.181425
0.191706
0.200762
0.208527
0.214948
0.220005
0.223746
0.226316
0.227949
0.228913
0.229447
0.229729
0.22987
0.229939
0.229972
0.229987
0.229994
0.229997
0.229999
0.23
0.23
0.23
0.23
0.23
0.23
0.23
0.23
0.23
0.23
5.79994e-10
2.53504e-09
5.82452e-09
1.13408e-08
2.05456e-08
3.58052e-08
6.08977e-08
1.01759e-07
1.67545e-07
2.72076e-07
4.35688e-07
6.87426e-07
1.0673e-06
1.62803e-06
2.43544e-06
3.56631e-06
5.10295e-06
7.12449e-06
9.69657e-06
1.28622e-05
1.66366e-05
2.10065e-05
2.59343e-05
3.13636e-05
3.72258e-05
4.34447e-05
4.99414e-05
5.66369e-05
6.3455e-05
7.0326e-05
7.71948e-05
8.40394e-05
9.09105e-05
9.79765e-05
0.000105583
0.000114101
0.000124135
0.000136318
0.000151538
0.000170844
0.000195444
0.000226772
0.000266565
0.000316989
0.00038077
0.000461366
0.000563204
0.000692082
0.000855229
0.00106168
0.00132337
0.00165559
0.00207805
0.00261623
0.00330315
0.00418173
0.00529398
0.00669236
0.00855566
0.010959
0.0140455
0.0284811
0.0460942
0.0636394
0.0808788
0.097626
0.113733
0.129082
0.143574
0.157127
0.169667
0.181126
0.19144
0.200532
0.208333
0.214792
0.219887
0.223662
0.226261
0.227915
0.228894
0.229437
0.229723
0.229867
0.229938
0.229971
0.229987
0.229994
0.229997
0.229999
0.23
0.23
0.23
0.23
0.23
0.23
0.23
0.23
0.23
0.23
5.75466e-10
2.51521e-09
5.7787e-09
1.12506e-08
2.03795e-08
3.55092e-08
6.0379e-08
1.0086e-07
1.66e-07
2.69438e-07
4.3122e-07
6.79927e-07
1.05484e-06
1.6076e-06
2.40243e-06
3.51391e-06
5.02144e-06
7.00052e-06
9.51256e-06
1.25959e-05
1.62608e-05
2.04889e-05
2.52379e-05
3.04463e-05
3.60404e-05
4.19391e-05
4.80583e-05
5.43133e-05
6.06222e-05
6.69088e-05
7.31101e-05
7.91925e-05
8.51869e-05
9.12266e-05
9.77397e-05
0.000105048
0.000113607
0.000124226
0.000137793
0.000155313
0.000177952
0.000207098
0.000244448
0.000292116
0.000352767
0.000429776
0.000527434
0.000651299
0.000808543
0.00100872
0.0012637
0.0015889
0.00200384
0.0025343
0.00321369
0.00408554
0.00519304
0.00658937
0.00845463
0.0108659
0.0139731
0.0278749
0.0454586
0.0629996
0.0802485
0.0970147
0.113148
0.128527
0.143053
0.156643
0.169223
0.180723
0.191082
0.200221
0.208071
0.214581
0.219726
0.223547
0.226185
0.227869
0.228868
0.229423
0.229716
0.229864
0.229936
0.22997
0.229987
0.229994
0.229997
0.229999
0.23
0.23
0.23
0.23
0.23
0.23
0.23
0.23
0.23
0.23
5.7008e-10
2.49163e-09
5.72423e-09
1.11435e-08
2.01824e-08
3.5158e-08
5.97647e-08
9.97972e-08
1.64175e-07
2.66329e-07
4.25966e-07
6.71125e-07
1.04025e-06
1.58374e-06
2.364e-06
3.45311e-06
4.9272e-06
6.85777e-06
9.30162e-06
1.22921e-05
1.58344e-05
1.99054e-05
2.4458e-05
2.94265e-05
3.47334e-05
4.02939e-05
4.60206e-05
5.18261e-05
5.76259e-05
6.33417e-05
6.89086e-05
7.42895e-05
7.95068e-05
8.46859e-05
9.00773e-05
9.61205e-05
0.000103476
0.000112747
0.000124803
0.000140627
0.000161353
0.000188332
0.000223213
0.000268061
0.000325494
0.000398863
0.000492456
0.000611776
0.000763884
0.000957859
0.00120564
0.00152277
0.00192957
0.00245145
0.00312215
0.00398561
0.00508631
0.00647774
0.00834142
0.0107573
0.0138862
0.0271019
0.0446634
0.0621988
0.0794584
0.0962467
0.11241
0.127825
0.142393
0.156028
0.168657
0.18021
0.190624
0.199822
0.207736
0.21431
0.219518
0.2234
0.226088
0.227809
0.228833
0.229404
0.229706
0.229859
0.229934
0.22997
0.229986
0.229994
0.229997
0.229999
0.229999
0.23
0.23
0.23
0.23
0.23
0.23
0.23
0.23
0.23
5.63995e-10
2.46499e-09
5.66271e-09
1.10226e-08
1.99601e-08
3.47626e-08
5.90737e-08
9.86035e-08
1.6213e-07
2.62852e-07
4.20101e-07
6.61324e-07
1.02406e-06
1.55731e-06
2.32156e-06
3.3862e-06
4.82389e-06
6.70193e-06
9.07238e-06
1.19637e-05
1.5376e-05
1.92819e-05
2.36302e-05
2.83521e-05
3.33672e-05
3.85889e-05
4.39283e-05
4.92975e-05
5.46119e-05
5.97939e-05
6.47786e-05
6.95274e-05
7.40542e-05
7.84689e-05
8.29659e-05
8.81193e-05
9.43552e-05
0.00010239
0.000113055
0.0001273
0.000146227
0.000171145
0.000203659
0.000245784
0.000300079
0.00036983
0.000459268
0.000573852
0.000720652
0.00090879
0.00115002
0.00145946
0.00185718
0.00236992
0.00303159
0.00388598
0.00497895
0.0063641
0.00822424
0.0106423
0.0137912
0.0261517
0.0436875
0.0612154
0.0784912
0.0953066
0.111506
0.126964
0.141581
0.155271
0.16796
0.179577
0.190059
0.19933
0.20732
0.213973
0.219261
0.223215
0.225965
0.227734
0.228789
0.229382
0.229696
0.229854
0.229931
0.229968
0.229986
0.229994
0.229997
0.229999
0.229999
0.23
0.23
0.23
0.23
0.23
0.23
0.23
0.23
0.23
5.5737e-10
2.43599e-09
5.59578e-09
1.08911e-08
1.97187e-08
3.43336e-08
5.83254e-08
9.73131e-08
1.59924e-07
2.59108e-07
4.13801e-07
6.50823e-07
1.00675e-06
1.52916e-06
2.27649e-06
3.31537e-06
4.71492e-06
6.53822e-06
8.83265e-06
1.16218e-05
1.49015e-05
1.86403e-05
2.27839e-05
2.72613e-05
3.19906e-05
3.68849e-05
4.18557e-05
4.68163e-05
5.16846e-05
5.63862e-05
6.086e-05
6.50704e-05
6.90309e-05
7.28429e-05
7.67229e-05
8.09758e-05
8.61893e-05
9.3188e-05
0.000102627
0.000115441
0.000132704
0.000155691
0.000185967
0.000225496
0.000276785
0.000343057
0.00042848
0.000538449
0.000679965
0.000862112
0.0010967
0.00139908
0.00178912
0.00229267
0.00294411
0.00378902
0.00487379
0.00625203
0.0081076
0.0105262
0.0136903
0.0250079
0.0425217
0.0600531
0.0773341
0.0941796
0.110418
0.125925
0.140599
0.154354
0.167115
0.17881
0.189374
0.198733
0.206815
0.213563
0.218945
0.222988
0.225813
0.227638
0.228739
0.229355
0.229682
0.229847
0.229928
0.229967
0.229985
0.229993
0.229997
0.229999
0.229999
0.23
0.23
0.23
0.23
0.23
0.23
0.23
0.23
0.23
5.50358e-10
2.4053e-09
5.52498e-09
1.07522e-08
1.94638e-08
3.38815e-08
5.75381e-08
9.59579e-08
1.57612e-07
2.55195e-07
4.07232e-07
6.399e-07
9.88789e-07
1.50004e-06
2.23e-06
3.24255e-06
4.60329e-06
6.37114e-06
8.58899e-06
1.1276e-05
1.44239e-05
1.79979e-05
2.19415e-05
2.61823e-05
3.06382e-05
3.52229e-05
3.98494e-05
4.44338e-05
4.88973e-05
5.31696e-05
5.7194e-05
6.09379e-05
6.44137e-05
6.77121e-05
7.10423e-05
7.47088e-05
7.91776e-05
8.51844e-05
9.34983e-05
0.000105002
0.00012073
0.000141919