/*--------------------------------*- C++ -*----------------------------------*\
  =========                 |
  \\      /  F ield         | OpenFOAM: The Open Source CFD Toolbox
   \\    /   O peration     | Website:  https://openfoam.org
    \\  /    A nd           | Version:  8
     \\/     M anipulation  |
\*---------------------------------------------------------------------------*/
FoamFile
{
    version     2.0;
    format      ascii;
    class       surfaceScalarField;
    location    "780/fluid";
    object      phi;
}
// * * * * * * * * * * * * * * * * * * * * * * * * * * * * * * * * * * * * * //

dimensions      [1 0 -1 0 0 0 0];

internalField   nonuniform List<scalar> 
7860
(
6.57262e-07
-1.7785e-08
6.54575e-07
-5.33307e-08
6.50752e-07
-8.86976e-08
6.45681e-07
-1.2379e-07
6.39228e-07
-1.58604e-07
6.3123e-07
-1.93094e-07
6.21501e-07
-2.27176e-07
6.09841e-07
-2.60727e-07
5.96046e-07
-2.93581e-07
5.79921e-07
-3.25514e-07
5.61294e-07
-3.56239e-07
5.40044e-07
-3.85388e-07
5.16146e-07
-4.12504e-07
4.89775e-07
-4.37043e-07
4.61213e-07
-4.58364e-07
4.30825e-07
-4.75804e-07
3.99083e-07
-4.88808e-07
3.66531e-07
-4.97081e-07
3.33731e-07
-5.00712e-07
3.01194e-07
-5.00189e-07
2.69324e-07
-4.963e-07
2.38408e-07
-4.89952e-07
2.08623e-07
-4.82004e-07
1.80103e-07
-4.73152e-07
1.52894e-07
-4.63879e-07
1.26958e-07
-4.54483e-07
1.02229e-07
-4.45125e-07
7.8628e-08
-4.35873e-07
5.6086e-08
-4.26738e-07
3.45404e-08
-4.17701e-07
1.39387e-08
-4.08734e-07
-5.76009e-09
-3.99809e-07
-2.45843e-08
-3.90907e-07
-4.25624e-08
-3.82019e-07
-5.97256e-08
-3.73149e-07
-7.60972e-08
-3.64285e-07
-9.16965e-08
-3.55387e-07
-1.06543e-07
-3.4647e-07
-1.20654e-07
-3.37553e-07
-1.34049e-07
-3.28659e-07
-1.46746e-07
-3.19812e-07
-1.58765e-07
-3.11038e-07
-1.70123e-07
-3.02363e-07
-1.80842e-07
-2.93816e-07
-1.9094e-07
-2.85422e-07
-2.00438e-07
-2.77211e-07
-2.09356e-07
-2.69208e-07
-2.17715e-07
-2.61439e-07
-2.25536e-07
-2.53932e-07
-2.32841e-07
-2.46711e-07
-2.3965e-07
-2.39803e-07
-2.45986e-07
-2.33237e-07
-2.51874e-07
-2.2704e-07
-2.57338e-07
-2.21247e-07
-2.62408e-07
-2.15894e-07
-2.67118e-07
-2.11026e-07
-2.71512e-07
-2.06696e-07
-2.75642e-07
-2.02998e-07
-2.79567e-07
-2.00001e-07
-2.83361e-07
-1.97767e-07
-2.87159e-07
-1.96537e-07
-2.914e-07
-1.9648e-07
-2.96337e-07
-1.98793e-07
-3.03209e-07
-2.09923e-07
-3.11126e-07
-2.22367e-07
-3.19901e-07
-2.36102e-07
-3.29584e-07
-2.5131e-07
-3.40296e-07
-2.6823e-07
-3.52195e-07
-2.87135e-07
-3.655e-07
-3.08352e-07
-3.80504e-07
-3.32276e-07
-3.97605e-07
-3.59373e-07
-4.17329e-07
-3.90178e-07
-4.40364e-07
-4.25415e-07
-4.67572e-07
-4.65739e-07
-4.99927e-07
-5.11171e-07
-5.38323e-07
-5.60637e-07
-5.83038e-07
-6.11209e-07
-6.33831e-07
-6.57404e-07
-6.89504e-07
-6.92119e-07
-7.47702e-07
-7.0973e-07
-8.055e-07
-7.09158e-07
-8.6039e-07
-6.93636e-07
-9.10822e-07
-6.67838e-07
-9.5614e-07
-6.3579e-07
-9.96161e-07
-6.001e-07
-1.03077e-06
-5.62209e-07
-1.06031e-06
-5.22807e-07
-1.08532e-06
-4.82329e-07
-1.10633e-06
-4.41108e-07
-1.12385e-06
-3.99395e-07
-1.13832e-06
-3.57385e-07
-1.15015e-06
-3.15226e-07
-1.15969e-06
-2.73028e-07
-1.16727e-06
-2.30865e-07
-1.17317e-06
-1.88776e-07
-1.17763e-06
-1.46771e-07
-1.18082e-06
-1.04831e-07
-1.18292e-06
-6.29173e-08
-2.10033e-08
6.57907e-07
-1.71581e-08
6.55768e-07
-5.11917e-08
6.52039e-07
-8.49685e-08
6.46718e-07
-1.18469e-07
6.39737e-07
-1.51624e-07
6.30997e-07
-1.84354e-07
6.20383e-07
-2.16562e-07
6.07779e-07
-2.48124e-07
5.93081e-07
-2.78883e-07
5.76208e-07
-3.08641e-07
5.57115e-07
-3.37145e-07
5.35803e-07
-3.64076e-07
5.12341e-07
-3.89041e-07
4.86891e-07
-4.11592e-07
4.59683e-07
-4.31156e-07
4.31015e-07
-4.47135e-07
4.01253e-07
-4.59045e-07
3.70817e-07
-4.66643e-07
3.40131e-07
-4.70025e-07
3.09582e-07
-4.69638e-07
2.79479e-07
-4.66195e-07
2.50044e-07
-4.60514e-07
2.21418e-07
-4.53376e-07
1.93699e-07
-4.45431e-07
1.66939e-07
-4.37116e-07
1.41149e-07
-4.2869e-07
1.16317e-07
-4.20291e-07
9.24253e-08
-4.11979e-07
6.9452e-08
-4.03763e-07
4.73758e-08
-3.95623e-07
2.61763e-08
-3.87533e-07
5.83386e-09
-3.79465e-07
-1.36699e-08
-3.71402e-07
-3.23521e-08
-3.63336e-07
-5.02302e-08
-3.5527e-07
-6.73183e-08
-3.47195e-07
-8.363e-08
-3.39074e-07
-9.91807e-08
-3.30918e-07
-1.13986e-07
-3.22747e-07
-1.28063e-07
-3.14581e-07
-1.4143e-07
-3.06444e-07
-1.54105e-07
-2.98361e-07
-1.66108e-07
-2.90359e-07
-1.7746e-07
-2.82463e-07
-1.88181e-07
-2.747e-07
-1.98294e-07
-2.67097e-07
-2.07822e-07
-2.59679e-07
-2.16787e-07
-2.52473e-07
-2.25215e-07
-2.45503e-07
-2.3313e-07
-2.38795e-07
-2.40559e-07
-2.32373e-07
-2.47532e-07
-2.26264e-07
-2.54079e-07
-2.20493e-07
-2.60235e-07
-2.15089e-07
-2.66044e-07
-2.10085e-07
-2.71552e-07
-2.05517e-07
-2.76823e-07
-2.01425e-07
-2.81932e-07
-1.97889e-07
-2.86983e-07
-1.94951e-07
-2.92118e-07
-1.92632e-07
-2.97569e-07
-1.91085e-07
-3.03616e-07
-1.90433e-07
-3.09384e-07
-1.93027e-07
-3.16421e-07
-2.02886e-07
-3.24688e-07
-2.141e-07
-3.34084e-07
-2.26706e-07
-3.446e-07
-2.40793e-07
-3.56313e-07
-2.56516e-07
-3.69354e-07
-2.74092e-07
-3.83907e-07
-2.93798e-07
-4.00206e-07
-3.15974e-07
-4.18545e-07
-3.41031e-07
-4.39268e-07
-3.69451e-07
-4.62758e-07
-4.0192e-07
-4.89488e-07
-4.39002e-07
-5.19993e-07
-4.80657e-07
-5.54785e-07
-5.25836e-07
-5.94183e-07
-5.71801e-07
-6.38266e-07
-6.13311e-07
-6.86451e-07
-6.43925e-07
-7.37195e-07
-6.58979e-07
-7.88362e-07
-6.57986e-07
-8.38003e-07
-6.43992e-07
-8.84804e-07
-6.21036e-07
-9.28121e-07
-5.92472e-07
-9.67697e-07
-5.60524e-07
-1.00337e-06
-5.26532e-07
-1.03515e-06
-4.91036e-07
-1.06311e-06
-4.54362e-07
-1.08745e-06
-4.1677e-07
-1.10838e-06
-3.78467e-07
-1.12615e-06
-3.39614e-07
-1.14103e-06
-3.00345e-07
-1.15329e-06
-2.6077e-07
-1.16318e-06
-2.20975e-07
-1.17093e-06
-1.81023e-07
-1.17674e-06
-1.40958e-07
-1.18077e-06
-1.00806e-07
-1.18309e-06
-6.05956e-08
-2.02729e-08
6.57608e-07
-1.62323e-08
6.5493e-07
-4.85138e-08
6.50512e-07
-8.055e-08
6.44317e-07
-1.12275e-07
6.36306e-07
-1.43612e-07
6.26428e-07
-1.74476e-07
6.14637e-07
-2.04771e-07
6.00896e-07
-2.34383e-07
5.85187e-07
-2.63173e-07
5.67517e-07
-2.90971e-07
5.47928e-07
-3.17556e-07
5.26499e-07
-3.42647e-07
5.03341e-07
-3.65883e-07
4.78569e-07
-3.86821e-07
4.52365e-07
-4.04952e-07
4.24992e-07
-4.19762e-07
3.96775e-07
-4.30828e-07
3.68068e-07
-4.37936e-07
3.39221e-07
-4.41177e-07
3.10541e-07
-4.40957e-07
2.82268e-07
-4.37921e-07
2.54573e-07
-4.32818e-07
2.27554e-07
-4.26356e-07
2.0124e-07
-4.19115e-07
1.75636e-07
-4.11512e-07
1.50752e-07
-4.03805e-07
1.26596e-07
-3.96134e-07
1.03174e-07
-3.88557e-07
8.04918e-08
-3.81079e-07
5.85514e-08
-3.73682e-07
3.73543e-08
-3.66335e-07
1.68998e-08
-3.5901e-07
-2.81402e-09
-3.51688e-07
-2.17916e-08
-3.44358e-07
-4.00393e-08
-3.37022e-07
-5.75619e-08
-3.29672e-07
-7.43645e-08
-3.22271e-07
-9.04556e-08
-3.14826e-07
-1.05845e-07
-3.07356e-07
-1.20546e-07
-2.9988e-07
-1.3457e-07
-2.92419e-07
-1.47934e-07
-2.84997e-07
-1.60655e-07
-2.77637e-07
-1.72753e-07
-2.70365e-07
-1.84246e-07
-2.63206e-07
-1.95159e-07
-2.56184e-07
-2.05514e-07
-2.49324e-07
-2.15336e-07
-2.4265e-07
-2.24655e-07
-2.36185e-07
-2.33499e-07
-2.29951e-07
-2.41901e-07
-2.23971e-07
-2.49897e-07
-2.18267e-07
-2.57528e-07
-2.12862e-07
-2.6484e-07
-2.07778e-07
-2.71885e-07
-2.0304e-07
-2.78725e-07
-1.98677e-07
-2.85432e-07
-1.94718e-07
-2.9209e-07
-1.91231e-07
-2.98804e-07
-1.88237e-07
-3.05694e-07
-1.85741e-07
-3.129e-07
-1.8388e-07
-3.20583e-07
-1.8275e-07
-3.27331e-07
-1.86276e-07
-3.35117e-07
-1.951e-07
-3.43979e-07
-2.05237e-07
-3.53943e-07
-2.16741e-07
-3.65055e-07
-2.2968e-07
-3.77391e-07
-2.44179e-07
-3.91052e-07
-2.60428e-07
-4.06165e-07
-2.78681e-07
-4.22875e-07
-2.99261e-07
-4.41343e-07
-3.22558e-07
-4.61723e-07
-3.49065e-07
-4.84166e-07
-3.79468e-07
-5.08903e-07
-4.14255e-07
-5.36264e-07
-4.53285e-07
-5.66754e-07
-4.95333e-07
-6.01159e-07
-5.37383e-07
-6.40035e-07
-5.74423e-07
-6.83162e-07
-6.00788e-07
-7.29269e-07
-6.12864e-07
-7.76439e-07
-6.10812e-07
-8.22853e-07
-5.97576e-07
-8.6722e-07
-5.76667e-07
-9.0882e-07
-5.50871e-07
-9.47348e-07
-5.21996e-07
-9.82807e-07
-4.91072e-07
-1.01517e-06
-4.58677e-07
-1.04439e-06
-4.25141e-07
-1.07048e-06
-3.90675e-07
-1.09352e-06
-3.55432e-07
-1.11359e-06
-3.19537e-07
-1.13084e-06
-2.83097e-07
-1.14541e-06
-2.46206e-07
-1.15743e-06
-2.08947e-07
-1.16707e-06
-1.71389e-07
-1.17444e-06
-1.3359e-07
-1.17964e-06
-9.56001e-08
-1.18276e-06
-5.7473e-08
-1.92163e-08
6.57627e-07
-1.53258e-08
6.54884e-07
-4.5771e-08
6.503e-07
-7.59654e-08
6.4387e-07
-1.05846e-07
6.35586e-07
-1.35328e-07
6.25437e-07
-1.64326e-07
6.13413e-07
-1.92747e-07
5.99512e-07
-2.20481e-07
5.83741e-07
-2.47402e-07
5.66122e-07
-2.73353e-07
5.46698e-07
-2.98132e-07
5.25537e-07
-3.21486e-07
5.02741e-07
-3.43087e-07
4.78457e-07
-3.62537e-07
4.52883e-07
-3.79379e-07
4.2627e-07
-3.93149e-07
3.98907e-07
-4.03465e-07
3.71104e-07
-4.10133e-07
3.43158e-07
-4.13232e-07
3.15334e-07
-4.13133e-07
2.8784e-07
-4.10428e-07
2.60826e-07
-4.05804e-07
2.34388e-07
-3.99918e-07
2.0858e-07
-3.93307e-07
1.83426e-07
-3.86358e-07
1.58936e-07
-3.79314e-07
1.35112e-07
-3.72309e-07
1.11952e-07
-3.65397e-07
8.94556e-08
-3.58583e-07
6.76226e-08
-3.51849e-07
4.64532e-08
-3.45165e-07
2.59481e-08
-3.38505e-07
6.10734e-09
-3.31847e-07
-1.307e-08
-3.2518e-07
-3.15866e-08
-3.18505e-07
-4.94437e-08
-3.11815e-07
-6.66426e-08
-3.05072e-07
-8.3188e-08
-2.98281e-07
-9.90863e-08
-2.91458e-07
-1.14346e-07
-2.84619e-07
-1.28979e-07
-2.77786e-07
-1.42997e-07
-2.70978e-07
-1.56416e-07
-2.64218e-07
-1.69254e-07
-2.57527e-07
-1.81529e-07
-2.5093e-07
-1.93263e-07
-2.44449e-07
-2.04481e-07
-2.38106e-07
-2.15208e-07
-2.31922e-07
-2.25474e-07
-2.25919e-07
-2.35309e-07
-2.20116e-07
-2.44749e-07
-2.14531e-07
-2.53831e-07
-2.09185e-07
-2.62598e-07
-2.04095e-07
-2.71097e-07
-1.99279e-07
-2.7938e-07
-1.94756e-07
-2.87509e-07
-1.90548e-07
-2.95548e-07
-1.86679e-07
-3.03569e-07
-1.83209e-07
-3.11662e-07
-1.80145e-07
-3.19915e-07
-1.77488e-07
-3.28425e-07
-1.75369e-07
-3.37283e-07
-1.73893e-07
-3.45025e-07
-1.78529e-07
-3.53634e-07
-1.8649e-07
-3.63162e-07
-1.95707e-07
-3.7367e-07
-2.0623e-07
-3.8523e-07
-2.18118e-07
-3.97919e-07
-2.31486e-07
-4.11826e-07
-2.46517e-07
-4.2705e-07
-2.63452e-07
-4.43702e-07
-2.82603e-07
-4.61905e-07
-3.04348e-07
-4.81776e-07
-3.29185e-07
-5.03471e-07
-3.57763e-07
-5.27263e-07
-3.90451e-07
-5.53549e-07
-4.26986e-07
-5.82869e-07
-4.65999e-07
-6.15829e-07
-5.04407e-07
-6.52805e-07
-5.37434e-07
-6.93502e-07
-5.6008e-07
-7.36785e-07
-5.69573e-07
-7.8105e-07
-5.66542e-07
-8.24802e-07
-5.53821e-07
-8.66959e-07
-5.34509e-07
-9.06858e-07
-5.10971e-07
-9.44143e-07
-4.84711e-07
-9.78649e-07
-4.56566e-07
-1.01032e-06
-4.27002e-07
-1.03917e-06
-3.96298e-07
-1.06521e-06
-3.64637e-07
-1.08848e-06
-3.32156e-07
-1.10905e-06
-2.9897e-07
-1.12697e-06
-2.65176e-07
-1.14231e-06
-2.30863e-07
-1.15515e-06
-1.96111e-07
-1.16555e-06
-1.6099e-07
-1.17357e-06
-1.25565e-07
-1.17927e-06
-8.98989e-08
-1.18268e-06
-5.40611e-08
-1.80792e-08
6.57564e-07
-1.43564e-08
6.54683e-07
-4.28896e-08
6.49902e-07
-7.11847e-08
6.43227e-07
-9.91708e-08
6.34665e-07
-1.26765e-07
6.24222e-07
-1.53884e-07
6.11913e-07
-1.80438e-07
5.97759e-07
-2.06327e-07
5.81791e-07
-2.31434e-07
5.64055e-07
-2.55617e-07
5.44618e-07
-2.78695e-07
5.23568e-07
-3.00436e-07
5.01025e-07
-3.20544e-07
4.77141e-07
-3.38654e-07
4.52111e-07
-3.54349e-07
4.26163e-07
-3.67203e-07
3.9956e-07
-3.76863e-07
3.72574e-07
-3.83148e-07
3.45467e-07
-3.86125e-07
3.18465e-07
-3.86133e-07
2.91751e-07
-3.83714e-07
2.65452e-07
-3.79506e-07
2.39651e-07
-3.74118e-07
2.14397e-07
-3.68054e-07
1.89714e-07
-3.61675e-07
1.65612e-07
-3.55214e-07
1.42098e-07
-3.48796e-07
1.19172e-07
-3.42472e-07
9.68369e-08
-3.36248e-07
7.50937e-08
-3.30106e-07
5.3945e-08
-3.24017e-07
3.33934e-08
-3.17953e-07
1.34407e-08
-3.11894e-07
-5.91203e-09
-3.05828e-07
-2.46649e-08
-2.99752e-07
-4.28185e-08
-2.93661e-07
-6.03722e-08
-2.87518e-07
-7.73283e-08
-2.81325e-07
-9.36912e-08
-2.75095e-07
-1.09468e-07
-2.68843e-07
-1.24667e-07
-2.62587e-07
-1.393e-07
-2.56346e-07
-1.5338e-07
-2.50138e-07
-1.66923e-07
-2.43985e-07
-1.79947e-07
-2.37907e-07
-1.92472e-07
-2.31924e-07
-2.04522e-07
-2.26056e-07
-2.16122e-07
-2.20323e-07
-2.27298e-07
-2.14743e-07
-2.38082e-07
-2.09332e-07
-2.48507e-07
-2.04107e-07
-2.58608e-07
-1.99084e-07
-2.68424e-07
-1.94279e-07
-2.77997e-07
-1.89706e-07
-2.87374e-07
-1.8538e-07
-2.96604e-07
-1.81318e-07
-3.05744e-07
-1.77539e-07
-3.14847e-07
-1.74106e-07
-3.23988e-07
-1.71004e-07
-3.33234e-07
-1.68243e-07
-3.42663e-07
-1.65941e-07
-3.52343e-07
-1.64213e-07
-3.61088e-07
-1.69779e-07
-3.70511e-07
-1.77065e-07
-3.80686e-07
-1.8553e-07
-3.91705e-07
-1.95208e-07
-4.03656e-07
-2.06163e-07
-4.16624e-07
-2.18513e-07
-4.30697e-07
-2.32439e-07
-4.45965e-07
-2.48178e-07
-4.62526e-07
-2.66034e-07
-4.80488e-07
-2.86377e-07
-4.99948e-07
-3.09715e-07
-5.21055e-07
-3.36643e-07
-5.44066e-07
-3.67425e-07
-5.69352e-07
-4.01684e-07
-5.97409e-07
-4.37924e-07
-6.28785e-07
-4.73015e-07
-6.638e-07
-5.02404e-07
-7.02169e-07
-5.21699e-07
-7.42883e-07
-5.28851e-07
-7.84565e-07
-5.24855e-07
-8.25948e-07
-5.12436e-07
-8.6611e-07
-4.94345e-07
-9.04467e-07
-4.72613e-07
-9.40676e-07
-4.48502e-07
-9.74533e-07
-4.22709e-07
-1.00591e-06
-3.95622e-07
-1.03475e-06
-3.67465e-07
-1.06099e-06
-3.3839e-07
-1.08464e-06
-3.08508e-07
-1.10569e-06
-2.77915e-07
-1.12417e-06
-2.46697e-07
-1.14011e-06
-2.14932e-07
-1.15352e-06
-1.82696e-07
-1.16445e-06
-1.50059e-07
-1.17293e-06
-1.17089e-07
-1.17897e-06
-8.38535e-08
-1.1826e-06
-5.04295e-08
-1.68625e-08
6.57562e-07
-1.33843e-08
6.54653e-07
-3.99812e-08
6.49821e-07
-6.63527e-08
6.43081e-07
-9.24304e-08
6.3445e-07
-1.18134e-07
6.23949e-07
-1.43383e-07
6.11605e-07
-1.68094e-07
5.97451e-07
-1.92173e-07
5.81529e-07
-2.15513e-07
5.63895e-07
-2.37983e-07
5.44618e-07
-2.59418e-07
5.23789e-07
-2.79607e-07
5.01524e-07
-2.9828e-07
4.77974e-07
-3.15104e-07
4.53323e-07
-3.29698e-07
4.2779e-07
-3.41671e-07
4.01624e-07
-3.50698e-07
3.75084e-07
-3.56609e-07
3.48419e-07
-3.59462e-07
3.21847e-07
-3.59563e-07
2.9554e-07
-3.5741e-07
2.69621e-07
-3.5359e-07
2.44169e-07
-3.48668e-07
2.19229e-07
-3.43115e-07
1.94822e-07
-3.3727e-07
1.70957e-07
-3.3135e-07
1.47635e-07
-3.25475e-07
1.24856e-07
-3.19694e-07
1.02618e-07
-3.14011e-07
8.09218e-08
-3.0841e-07
5.97682e-08
-3.02864e-07
3.91588e-08
-2.97345e-07
1.90957e-08
-2.91832e-07
-4.20012e-10
-2.86313e-07
-1.93894e-08
-2.80783e-07
-3.78111e-08
-2.7524e-07
-5.56841e-08
-2.69646e-07
-7.30094e-08
-2.64e-07
-8.97903e-08
-2.58314e-07
-1.06032e-07
-2.52602e-07
-1.21741e-07
-2.46878e-07
-1.36928e-07
-2.41158e-07
-1.51605e-07
-2.35461e-07
-1.65784e-07
-2.29805e-07
-1.79483e-07
-2.24208e-07
-1.92721e-07
-2.18687e-07
-2.05517e-07
-2.13261e-07
-2.17895e-07
-2.07946e-07
-2.29879e-07
-2.02758e-07
-2.41498e-07
-1.97714e-07
-2.52779e-07
-1.92826e-07
-2.63754e-07
-1.88109e-07
-2.74457e-07
-1.83577e-07
-2.8492e-07
-1.79242e-07
-2.95181e-07
-1.75119e-07
-3.05277e-07
-1.71222e-07
-3.15248e-07
-1.67569e-07
-3.25132e-07
-1.64223e-07
-3.34994e-07
-1.61141e-07
-3.44863e-07
-1.58374e-07
-3.54815e-07
-1.55988e-07
-3.6493e-07
-1.54096e-07
-3.74686e-07
-1.60022e-07
-3.84848e-07
-1.669e-07
-3.95593e-07
-1.74781e-07
-4.07056e-07
-1.83741e-07
-4.19341e-07
-1.93872e-07
-4.32541e-07
-2.05307e-07
-4.46747e-07
-2.18226e-07
-4.62049e-07
-2.32867e-07
-4.78547e-07
-2.49527e-07
-4.96349e-07
-2.68564e-07
-5.15564e-07
-2.90486e-07
-5.3637e-07
-3.15821e-07
-5.59049e-07
-3.4473e-07
-5.83985e-07
-3.76729e-07
-6.11671e-07
-4.10218e-07
-6.42593e-07
-4.42074e-07
-6.76949e-07
-4.68032e-07
-7.14332e-07
-4.84305e-07
-7.53709e-07
-4.89465e-07
-7.93804e-07
-4.84756e-07
-8.335e-07
-4.72737e-07
-8.72013e-07
-4.55831e-07
-9.08849e-07
-4.35776e-07
-9.43718e-07
-4.13632e-07
-9.76445e-07
-3.89983e-07
-1.00692e-06
-3.65149e-07
-1.03506e-06
-3.39321e-07
-1.06082e-06
-3.12627e-07
-1.08417e-06
-2.85161e-07
-1.10508e-06
-2.57008e-07
-1.12353e-06
-2.28244e-07
-1.13952e-06
-1.9894e-07
-1.15305e-06
-1.69166e-07
-1.16412e-06
-1.38991e-07
-1.17273e-06
-1.08479e-07
-1.17889e-06
-7.76991e-08
-1.18259e-06
-4.67314e-08
-1.56262e-08
6.57552e-07
-1.24025e-08
6.54622e-07
-3.70516e-08
6.49761e-07
-6.14915e-08
6.42987e-07
-8.56564e-08
6.34324e-07
-1.0947e-07
6.23798e-07
-1.32858e-07
6.11444e-07
-1.5574e-07
5.97304e-07
-1.78033e-07
5.81427e-07
-1.99636e-07
5.63874e-07
-2.20431e-07
5.44723e-07
-2.40267e-07
5.24068e-07
-2.58953e-07
5.02029e-07
-2.76241e-07
4.78752e-07
-2.91828e-07
4.54417e-07
-3.05365e-07
4.29236e-07
-3.16491e-07
4.03443e-07
-3.24907e-07
3.77283e-07
-3.30451e-07
3.50991e-07
-3.33172e-07
3.24772e-07
-3.33347e-07
2.98792e-07
-3.31432e-07
2.73168e-07
-3.27969e-07
2.47977e-07
-3.2348e-07
2.23263e-07
-3.18403e-07
1.99047e-07
-3.13056e-07
1.75336e-07
-3.07642e-07
1.52133e-07
-3.02273e-07
1.29433e-07
-2.96996e-07
1.07236e-07
-2.91816e-07
8.55405e-08
-2.86716e-07
6.43458e-08
-2.8167e-07
4.36532e-08
-2.76653e-07
2.34638e-08
-2.71643e-07
3.77869e-09
-2.66628e-07
-1.54017e-08
-2.61603e-07
-3.40777e-08
-2.56565e-07
-5.22476e-08
-2.51476e-07
-6.99118e-08
-2.46337e-07
-8.70722e-08
-2.41155e-07
-1.03733e-07
-2.35942e-07
-1.199e-07
-2.30712e-07
-1.3558e-07
-2.25479e-07
-1.50785e-07
-2.20258e-07
-1.65525e-07
-2.15066e-07
-1.79815e-07
-2.09918e-07
-1.93672e-07
-2.04831e-07
-2.07114e-07
-1.9982e-07
-2.2016e-07
-1.949e-07
-2.32833e-07
-1.90086e-07
-2.45156e-07
-1.85391e-07
-2.57154e-07
-1.80829e-07
-2.68853e-07
-1.76411e-07
-2.80281e-07
-1.7215e-07
-2.91466e-07
-1.68058e-07
-3.02436e-07
-1.6415e-07
-3.13219e-07
-1.6044e-07
-3.23837e-07
-1.56951e-07
-3.34313e-07
-1.53747e-07
-3.44687e-07
-1.50767e-07
-3.54955e-07
-1.48106e-07
-3.65131e-07
-1.45811e-07
-3.75206e-07
-1.43994e-07
-3.85568e-07
-1.49656e-07
-3.96327e-07
-1.56137e-07
-4.07606e-07
-1.63497e-07
-4.19521e-07
-1.7182e-07
-4.32177e-07
-1.8121e-07
-4.4567e-07
-1.91806e-07
-4.60094e-07
-2.03793e-07
-4.75546e-07
-2.17405e-07
-4.92133e-07
-2.32929e-07
-5.09971e-07
-2.50714e-07
-5.2919e-07
-2.71256e-07
-5.49987e-07
-2.95011e-07
-5.72647e-07
-3.22052e-07
-5.97544e-07
-3.51812e-07
-6.25116e-07
-3.82625e-07
-6.55745e-07
-4.11425e-07
-6.89501e-07
-4.3426e-07
-7.25903e-07
-4.4789e-07
-7.63974e-07
-4.51386e-07
-8.02584e-07
-4.46141e-07
-8.40777e-07
-4.34542e-07
-8.77879e-07
-4.18728e-07
-9.13457e-07
-4.00197e-07
-9.47243e-07
-3.79846e-07
-9.79062e-07
-3.58164e-07
-1.00879e-06
-3.35418e-07
-1.03635e-06
-3.11768e-07
-1.06165e-06
-2.87318e-07
-1.08467e-06
-2.6215e-07
-1.10534e-06
-2.36337e-07
-1.12364e-06
-2.09944e-07
-1.13954e-06
-1.83036e-07
-1.15303e-06
-1.55678e-07
-1.16409e-06
-1.27932e-07
-1.1727e-06
-9.98613e-08
-1.17887e-06
-7.1532e-08
-1.18258e-06
-4.30225e-08
-1.43857e-08
6.57555e-07
-1.14238e-08
6.54631e-07
-3.41275e-08
6.49778e-07
-5.66388e-08
6.43018e-07
-7.88964e-08
6.34377e-07
-1.00829e-07
6.23887e-07
-1.22368e-07
6.11586e-07
-1.43439e-07
5.97518e-07
-1.63965e-07
5.81738e-07
-1.83856e-07
5.64308e-07
-2.03002e-07
5.45308e-07
-2.21267e-07
5.24832e-07
-2.38476e-07
5.02995e-07
-2.54405e-07
4.79944e-07
-2.68777e-07
4.5585e-07
-2.81272e-07
4.30919e-07
-2.91562e-07
4.05377e-07
-2.99368e-07
3.79462e-07
-3.04539e-07
3.53403e-07
-3.07116e-07
3.27402e-07
-3.07349e-07
3.0162e-07
-3.05654e-07
2.76174e-07
-3.02526e-07
2.5114e-07
-2.9845e-07
2.26561e-07
-2.93827e-07
2.02456e-07
-2.88955e-07
1.78833e-07
-2.84021e-07
1.5569e-07
-2.79132e-07
1.33023e-07
-2.74331e-07
1.10828e-07
-2.69623e-07
8.91032e-08
-2.64993e-07
6.78467e-08
-2.60415e-07
4.70583e-08
-2.55866e-07
2.67387e-08
-2.51325e-07
6.88866e-09
-2.46779e-07
-1.24919e-08
-2.42224e-07
-3.1403e-08
-2.37655e-07
-4.98429e-08
-2.33037e-07
-6.7811e-08
-2.28369e-07
-8.53083e-08
-2.23658e-07
-1.02338e-07
-2.18913e-07
-1.18904e-07
-2.14147e-07
-1.35012e-07
-2.09371e-07
-1.50671e-07
-2.046e-07
-1.65891e-07
-1.99847e-07
-1.80685e-07
-1.95126e-07
-1.95064e-07
-1.90452e-07
-2.09046e-07
-1.85839e-07
-2.22648e-07
-1.813e-07
-2.35887e-07
-1.76848e-07
-2.48785e-07
-1.72495e-07
-2.61362e-07
-1.68253e-07
-2.73641e-07
-1.64132e-07
-2.85646e-07
-1.60146e-07
-2.97401e-07
-1.56304e-07
-3.0893e-07
-1.52622e-07
-3.20257e-07
-1.49114e-07
-3.314e-07
-1.45809e-07
-3.42389e-07
-1.42758e-07
-3.53235e-07
-1.39922e-07
-3.63933e-07
-1.37407e-07
-3.74448e-07
-1.35294e-07
-3.84514e-07
-1.33895e-07
-3.95041e-07
-1.39124e-07
-4.06065e-07
-1.45107e-07
-4.1765e-07
-1.51906e-07
-4.29873e-07
-1.5959e-07
-4.42814e-07
-1.68259e-07
-4.56561e-07
-1.78049e-07
-4.71202e-07
-1.89139e-07
-4.86837e-07
-2.01755e-07
-5.03578e-07
-2.16171e-07
-5.2155e-07
-2.32722e-07
-5.40902e-07
-2.51882e-07
-5.61854e-07
-2.74036e-07
-5.84701e-07
-2.99183e-07
-6.09802e-07
-3.26688e-07
-6.37547e-07
-3.54858e-07
-6.68219e-07
-3.80733e-07
-7.01766e-07
-4.00697e-07
-7.37625e-07
-4.1202e-07
-7.74833e-07
-4.14169e-07
-8.12358e-07
-4.08612e-07
-8.49359e-07
-3.97538e-07
-8.85257e-07
-3.82828e-07
-9.19684e-07
-3.6577e-07
-9.52406e-07
-3.47124e-07
-9.83269e-07
-3.27301e-07
-1.01216e-06
-3.06528e-07
-1.03899e-06
-2.84937e-07
-1.06369e-06
-2.62619e-07
-1.0862e-06
-2.39644e-07
-1.10646e-06
-2.16073e-07
-1.12444e-06
-1.91967e-07
-1.14009e-06
-1.67383e-07
-1.15339e-06
-1.42379e-07
-1.16431e-06
-1.17013e-07
-1.17283e-06
-9.13432e-08
-1.17893e-06
-6.54317e-08
-1.18259e-06
-3.93533e-08
-1.31589e-08
6.57558e-07
-1.04483e-08
6.54645e-07
-3.12141e-08
6.49811e-07
-5.18048e-08
6.43078e-07
-7.21638e-08
6.34475e-07
-9.22259e-08
6.24034e-07
-1.11927e-07
6.11796e-07
-1.31201e-07
5.97808e-07
-1.49977e-07
5.82125e-07
-1.68172e-07
5.64811e-07
-1.85688e-07
5.45946e-07
-2.02402e-07
5.25623e-07
-2.18154e-07
5.03958e-07
-2.32742e-07
4.81093e-07
-2.45913e-07
4.57195e-07
-2.57377e-07
4.32465e-07
-2.66833e-07
4.07121e-07
-2.74027e-07
3.81396e-07
-2.78817e-07
3.55513e-07
-2.81237e-07
3.2967e-07
-2.8151e-07
3.04027e-07
-2.80015e-07
2.78701e-07
-2.77204e-07
2.53767e-07
-2.7352e-07
2.29268e-07
-2.69332e-07
2.05224e-07
-2.64914e-07
1.81641e-07
-2.60442e-07
1.58516e-07
-2.56011e-07
1.35846e-07
-2.51664e-07
1.13625e-07
-2.47404e-07
9.18478e-08
-2.43218e-07
7.05134e-08
-2.39083e-07
4.96204e-08
-2.34975e-07
2.91688e-08
-2.30875e-07
9.15895e-09
-2.26771e-07
-1.04092e-08
-2.22657e-07
-2.95356e-08
-2.18529e-07
-4.82184e-08
-2.14356e-07
-6.64564e-08
-2.10133e-07
-8.42496e-08
-2.05866e-07
-1.01599e-07
-2.01565e-07
-1.18508e-07
-1.97239e-07
-1.34982e-07
-1.92899e-07
-1.51026e-07
-1.88557e-07
-1.66649e-07
-1.84225e-07
-1.81861e-07
-1.79916e-07
-1.96672e-07
-1.75642e-07
-2.11095e-07
-1.71416e-07
-2.25146e-07
-1.67251e-07
-2.38839e-07
-1.63156e-07
-2.52191e-07
-1.59144e-07
-2.6522e-07
-1.55225e-07
-2.77945e-07
-1.51409e-07
-2.90385e-07
-1.47706e-07
-3.02562e-07
-1.44128e-07
-3.14497e-07
-1.40688e-07
-3.2621e-07
-1.37402e-07
-3.37721e-07
-1.34299e-07
-3.49059e-07
-1.31421e-07
-3.60241e-07
-1.28741e-07
-3.7128e-07
-1.26369e-07
-3.8218e-07
-1.24396e-07
-3.92369e-07
-1.23664e-07
-4.0307e-07
-1.28418e-07
-4.143e-07
-1.33873e-07
-4.26109e-07
-1.40092e-07
-4.38563e-07
-1.47132e-07
-4.51732e-07
-1.55085e-07
-4.65698e-07
-1.64078e-07
-4.8055e-07
-1.74282e-07
-4.96389e-07
-1.8591e-07
-5.13333e-07
-1.99218e-07
-5.31516e-07
-2.14528e-07
-5.51102e-07
-2.32279e-07
-5.72327e-07
-2.52791e-07
-5.95483e-07
-2.76005e-07
-6.20907e-07
-3.01241e-07
-6.48927e-07
-3.26816e-07
-6.79721e-07
-3.49919e-07
-7.13122e-07
-3.6728e-07
-7.4851e-07
-3.76619e-07
-7.84962e-07
-3.7771e-07
-8.21544e-07
-3.72026e-07
-8.57521e-07
-3.61558e-07
-8.92393e-07
-3.47955e-07
-9.25835e-07
-3.32327e-07
-9.57641e-07
-3.15318e-07
-9.87666e-07
-2.97276e-07
-1.0158e-06
-2.78391e-07
-1.04196e-06
-2.58776e-07
-1.06607e-06
-2.38508e-07
-1.08807e-06
-2.17646e-07
-1.1079e-06
-1.96245e-07
-1.12551e-06
-1.74357e-07
-1.14086e-06
-1.52034e-07
-1.15391e-06
-1.29326e-07
-1.16464e-06
-1.06288e-07
-1.17301e-06
-8.29714e-08
-1.17901e-06
-5.94339e-08
-1.18262e-06
-3.57452e-08
-1.19527e-08
6.57564e-07
-9.47839e-09
6.54667e-07
-2.83169e-08
6.49859e-07
-4.69972e-08
6.43163e-07
-6.54682e-08
6.34608e-07
-8.36706e-08
6.24228e-07
-1.01546e-07
6.12062e-07
-1.19036e-07
5.9816e-07
-1.36074e-07
5.82576e-07
-1.52588e-07
5.65375e-07
-1.68488e-07
5.46635e-07
-1.83662e-07
5.26449e-07
-1.97969e-07
5.04931e-07
-2.11224e-07
4.82218e-07
-2.23201e-07
4.58475e-07
-2.33635e-07
4.33896e-07
-2.42256e-07
4.08697e-07
-2.48831e-07
3.83106e-07
-2.53229e-07
3.57342e-07
-2.55477e-07
3.31602e-07
-2.55775e-07
3.06046e-07
-2.54464e-07
2.80791e-07
-2.51953e-07
2.55912e-07
-2.48645e-07
2.31453e-07
-2.44878e-07
2.07434e-07
-2.40899e-07
1.8386e-07
-2.36871e-07
1.60729e-07
-2.32883e-07
1.38033e-07
-2.28971e-07
1.15768e-07
-2.25141e-07
9.39279e-08
-2.2138e-07
7.25094e-08
-2.17666e-07
5.15111e-08
-2.13978e-07
3.09323e-08
-2.10298e-07
1.07734e-08
-2.06613e-07
-8.96575e-09
-2.02919e-07
-2.82851e-08
-1.99211e-07
-4.71822e-08
-1.9546e-07
-6.56552e-08
-1.91661e-07
-8.37032e-08
-1.8782e-07
-1.01326e-07
-1.83943e-07
-1.18526e-07
-1.8004e-07
-1.35307e-07
-1.7612e-07
-1.51672e-07
-1.72193e-07
-1.67628e-07
-1.6827e-07
-1.83183e-07
-1.64363e-07
-1.98345e-07
-1.60482e-07
-2.13125e-07
-1.56638e-07
-2.27534e-07
-1.52843e-07
-2.41585e-07
-1.49106e-07
-2.55293e-07
-1.45438e-07
-2.68671e-07
-1.41848e-07
-2.81736e-07
-1.38345e-07
-2.94504e-07
-1.34939e-07
-3.06992e-07
-1.31641e-07
-3.1922e-07
-1.28462e-07
-3.31205e-07
-1.25417e-07
-3.42969e-07
-1.22537e-07
-3.54535e-07
-1.19856e-07
-3.65928e-07
-1.1735e-07
-3.77179e-07
-1.15118e-07
-3.88338e-07
-1.1324e-07
-3.98751e-07
-1.13198e-07
-4.09672e-07
-1.17489e-07
-4.21113e-07
-1.22424e-07
-4.33131e-07
-1.28063e-07
-4.45791e-07
-1.34459e-07
-4.59166e-07
-1.41696e-07
-4.73334e-07
-1.49894e-07
-4.88389e-07
-1.59211e-07
-5.04436e-07
-1.69844e-07
-5.21602e-07
-1.82033e-07
-5.40029e-07
-1.96081e-07
-5.59899e-07
-2.12388e-07
-5.81456e-07
-2.31214e-07
-6.04985e-07
-2.52452e-07
-6.30798e-07
-2.75405e-07
-6.5916e-07
-2.98432e-07
-6.90154e-07
-3.18905e-07
-7.23513e-07
-3.33906e-07
-7.5857e-07
-3.41551e-07
-7.94433e-07
-3.4184e-07
-8.30253e-07
-3.36202e-07
-8.65379e-07
-3.2643e-07
-8.99372e-07
-3.13961e-07
-9.31952e-07
-2.99747e-07
-9.62935e-07
-2.84335e-07
-9.92189e-07
-2.68021e-07
-1.01962e-06
-2.50965e-07
-1.04513e-06
-2.33262e-07
-1.06866e-06
-2.14978e-07
-1.09014e-06
-1.96165e-07
-1.10951e-06
-1.7687e-07
-1.12673e-06
-1.57139e-07
-1.14175e-06
-1.37017e-07
-1.15453e-06
-1.1655e-07
-1.16503e-06
-9.57855e-08
-1.17323e-06
-7.47708e-08
-1.17911e-06
-5.35579e-08
-1.18264e-06
-3.22104e-08
-1.0771e-08
6.57569e-07
-8.51404e-09
6.54689e-07
-2.54361e-08
6.49908e-07
-4.22169e-08
6.43251e-07
-5.88105e-08
6.34744e-07
-7.51639e-08
6.24423e-07
-9.12251e-08
6.12327e-07
-1.0694e-07
5.98505e-07
-1.22252e-07
5.83011e-07
-1.37094e-07
5.6591e-07
-1.51387e-07
5.4728e-07
-1.65032e-07
5.2721e-07
-1.779e-07
5.05814e-07
-1.89828e-07
4.83225e-07
-2.00613e-07
4.59606e-07
-2.10018e-07
4.35146e-07
-2.17799e-07
4.10058e-07
-2.23746e-07
3.84565e-07
-2.2774e-07
3.58886e-07
-2.29803e-07
3.33217e-07
-2.30111e-07
3.07717e-07
-2.28969e-07
2.82503e-07
-2.26744e-07
2.57651e-07
-2.23799e-07
2.33207e-07
-2.20438e-07
2.09191e-07
-2.16887e-07
1.85606e-07
-2.13291e-07
1.6245e-07
-2.09731e-07
1.39717e-07
-2.06241e-07
1.17399e-07
-2.02826e-07
9.54896e-08
-1.99474e-07
7.3986e-08
-1.96165e-07
5.28858e-08
-1.9288e-07
3.21883e-08
-1.89602e-07
1.18933e-08
-1.8632e-07
-7.99882e-09
-1.83028e-07
-2.74881e-08
-1.79723e-07
-4.65717e-08
-1.76378e-07
-6.52468e-08
-1.72987e-07
-8.35118e-08
-1.69556e-07
-1.01366e-07
-1.66091e-07
-1.1881e-07
-1.62598e-07
-1.35845e-07
-1.59086e-07
-1.52475e-07
-1.55565e-07
-1.68704e-07
-1.52043e-07
-1.84537e-07
-1.48531e-07
-1.99982e-07
-1.45038e-07
-2.15047e-07
-1.41575e-07
-2.29741e-07
-1.3815e-07
-2.44076e-07
-1.34774e-07
-2.58061e-07
-1.31454e-07
-2.7171e-07
-1.282e-07
-2.85037e-07
-1.2502e-07
-2.98054e-07
-1.21923e-07
-3.10779e-07
-1.18918e-07
-3.23226e-07
-1.16017e-07
-3.35413e-07
-1.13232e-07
-3.47361e-07
-1.10591e-07
-3.59094e-07
-1.08124e-07
-3.70634e-07
-1.05811e-07
-3.82018e-07
-1.03736e-07
-3.93282e-07
-1.01983e-07
-4.03943e-07
-1.0249e-07
-4.15087e-07
-1.06338e-07
-4.26736e-07
-1.10768e-07
-4.38955e-07
-1.15837e-07
-4.5181e-07
-1.21595e-07
-4.65378e-07
-1.2812e-07
-4.7974e-07
-1.35521e-07
-4.94995e-07
-1.43944e-07
-5.11253e-07
-1.53572e-07
-5.28648e-07
-1.64623e-07
-5.47335e-07
-1.77378e-07
-5.67506e-07
-1.92198e-07
-5.89411e-07
-2.09287e-07
-6.13332e-07
-2.28509e-07
-6.39547e-07
-2.49166e-07
-6.6826e-07
-2.69697e-07
-6.99463e-07
-2.87683e-07
-7.32804e-07
-3.0055e-07
-7.67585e-07
-3.0676e-07
-8.02951e-07
-3.06468e-07
-8.38125e-07
-3.01025e-07
-8.72528e-07
-2.92025e-07
-9.05775e-07
-2.80713e-07
-9.37615e-07
-2.67906e-07
-9.67884e-07
-2.54066e-07
-9.96463e-07
-2.39442e-07
-1.02326e-06
-2.24171e-07
-1.04819e-06
-2.08332e-07
-1.07118e-06
-1.91983e-07
-1.09218e-06
-1.75167e-07
-1.11112e-06
-1.57926e-07
-1.12796e-06
-1.403e-07
-1.14265e-06
-1.22327e-07
-1.15515e-06
-1.0405e-07
-1.16543e-06
-8.55082e-08
-1.17346e-06
-6.67454e-08
-1.17921e-06
-4.78073e-08
-1.18267e-06
-2.87511e-08
-9.61467e-09
6.57575e-07
-7.5551e-09
6.5471e-07
-2.25713e-08
6.49956e-07
-3.74627e-08
6.43334e-07
-5.2189e-08
6.34873e-07
-6.6703e-08
6.24607e-07
-8.09589e-08
6.12576e-07
-9.49092e-08
5.98826e-07
-1.08503e-07
5.83413e-07
-1.21681e-07
5.664e-07
-1.34375e-07
5.47863e-07
-1.46495e-07
5.27892e-07
-1.5793e-07
5.06596e-07
-1.68533e-07
4.84107e-07
-1.78126e-07
4.60585e-07
-1.86498e-07
4.36217e-07
-1.93433e-07
4.11212e-07
-1.98744e-07
3.85791e-07
-2.02323e-07
3.6017e-07
-2.04187e-07
3.34547e-07
-2.04492e-07
3.09079e-07
-2.03506e-07
2.83885e-07
-2.01556e-07
2.59043e-07
-1.98962e-07
2.34598e-07
-1.95998e-07
2.1057e-07
-1.92863e-07
1.86963e-07
-1.89688e-07
1.63774e-07
-1.86546e-07
1.40997e-07
-1.83467e-07
1.18622e-07
-1.80455e-07
9.66449e-08
-1.77499e-07
7.50602e-08
-1.74582e-07
5.38656e-08
-1.71687e-07
3.30603e-08
-1.68798e-07
1.26443e-08
-1.65905e-07
-7.38207e-09
-1.63003e-07
-2.70184e-08
-1.60088e-07
-4.62616e-08
-1.57136e-07
-6.51083e-08
-1.54142e-07
-8.35559e-08
-1.5111e-07
-1.01603e-07
-1.48045e-07
-1.19249e-07
-1.44954e-07
-1.36493e-07
-1.41843e-07
-1.53339e-07
-1.38721e-07
-1.69789e-07
-1.35595e-07
-1.85847e-07
-1.32474e-07
-2.01519e-07
-1.29368e-07
-2.16811e-07
-1.26285e-07
-2.3173e-07
-1.23233e-07
-2.46286e-07
-1.2022e-07
-2.60488e-07
-1.17254e-07
-2.74346e-07
-1.14343e-07
-2.87873e-07
-1.11495e-07
-3.01081e-07
-1.08717e-07
-3.13983e-07
-1.06018e-07
-3.26594e-07
-1.03408e-07
-3.3893e-07
-1.00897e-07
-3.5101e-07
-9.85127e-08