/*--------------------------------*- C++ -*----------------------------------*\
  =========                 |
  \\      /  F ield         | OpenFOAM: The Open Source CFD Toolbox
   \\    /   O peration     | Website:  https://openfoam.org
    \\  /    A nd           | Version:  8
     \\/     M anipulation  |
\*---------------------------------------------------------------------------*/
FoamFile
{
    version     2.0;
    format      ascii;
    class       volScalarField;
    location    "780/fluid";
    object      Qdot;
}
// * * * * * * * * * * * * * * * * * * * * * * * * * * * * * * * * * * * * * //

dimensions      [1 -1 -3 0 0 0 0];

internalField   nonuniform List<scalar> 
4000
(
3.72611e-13
0
-2.92148e-07
0
0
2.93693e-11
0
-1.17249e-19
0
1.44145e-10
-2.39104e-10
0
3.82842e-07
3.88841e-07
-3.93038e-07
-2.9959e-17
2.06469e-09
-3.11674e-15
1.884e-08
9.74735e-08
4.35393e-06
5.68046e-05
0.000673186
0.00662383
0.0532014
0.348161
1.87336
8.40855
32.0035
104.972
301.111
764.975
1740.36
3581.7
6728.33
11663.9
18908.7
29054.2
42905.1
61643.8
86959.7
121100
166986
228480
310713
420588
567272
762462
1.02261e+06
1.36859e+06
1.82781e+06
2.4362e+06
3.24094e+06
4.30403e+06
5.70711e+06
7.55808e+06
1.00002e+07
1.31818e+07
1.73365e+07
2.29842e+07
3.04924e+07
7.30482e+07
3.75493e+08
2.94791e+07
2.12247e+07
1.50955e+07
1.05854e+07
7.30453e+06
4.95034e+06
3.28901e+06
2.141e+06
1.37026e+06
876396
561892
148362
11027.8
302.329
4.2607
0.0404085
0.000414259
7.83844e-06
3.7302e-07
4.14583e-08
9.22563e-09
2.64409e-09
1.15776e-09
3.9759e-10
1.68322e-10
7.83608e-11
3.40852e-11
1.44571e-11
5.8618e-12
2.26061e-12
1.06165e-12
4.12653e-13
1.66328e-13
7.30784e-14
2.69063e-14
9.60565e-15
1.65657e-15
0
2.0473e-17
0
7.49168e-12
3.13891e-07
2.98812e-12
7.8402e-16
0
0
2.5581e-10
0
4.73066e-10
2.00683e-18
-9.67678e-10
-8.19492e-18
-3.72523e-17
4.44927e-09
-3.96891e-07
4.29092e-07
4.96022e-07
4.12523e-06
5.11125e-05
0.000608659
0.00604222
0.0490995
0.325719
1.77771
8.09165
31.208
103.624
300.579
771.219
1768.95
3664.14
6918.13
12031.1
19531.1
30003.6
44234.8
63380.3
89100.5
123610
169828
231633
314207
424519
571258
767012
1.02796e+06
1.3751e+06
1.83603e+06
2.44706e+06
3.25597e+06
4.32572e+06
5.73953e+06
7.60769e+06
1.00772e+07
1.33004e+07
1.75207e+07
2.3277e+07
3.09552e+07
1.14329e+08
3.38971e+08
2.93451e+07
2.105e+07
1.49198e+07
1.04259e+07
7.16759e+06
4.83751e+06
3.19949e+06
2.07294e+06
1.32154e+06
845269
516070
111001
6609.7
156.791
1.99409
0.0185527
0.000209044
4.72176e-06
2.70201e-07
3.45843e-08
8.352e-09
2.76987e-09
9.87829e-10
4.14529e-10
1.80387e-10
8.20967e-11
3.21396e-11
1.32681e-11
6.6332e-12
8.48667e-12
9.8697e-13
4.08244e-13
1.65052e-13
6.92298e-14
2.82061e-14
8.84957e-15
1.47641e-15
-4.87028e-18
-2.77525e-07
3.57505e-12
-7.41662e-12
3.09798e-07
1.28348e-11
-2.63298e-11
0
0
3.46313e-07
0
3.55091e-07
-1.34888e-14
0
-3.65087e-07
-3.58091e-17
2.35686e-09
-2.95937e-15
4.1132e-07
2.66007e-07
3.45198e-06
4.763e-05
0.000566185
0.00563859
0.0461811
0.309596
1.71021
7.88435
30.8025
103.574
304.088
789.156
1828.14
3815.97
7252.14
12667.1
20607.5
31658.4
46588.5
66526
93105
128513
175683
238530
322308
433552
581969
780628
1.04505e+06
1.39663e+06
1.86353e+06
2.48285e+06
3.30355e+06
4.39043e+06
5.82944e+06
7.73509e+06
1.02606e+07
1.35633e+07
1.79027e+07
2.38387e+07
3.17696e+07
1.85259e+08
2.71861e+08
2.94273e+07
2.09628e+07
1.47543e+07
1.02374e+07
6.98713e+06
4.68056e+06
3.07219e+06
1.97612e+06
1.25347e+06
803622
439034
73443.9
3523.29
74.189
0.892483
0.00863673
0.000111497
3.0157e-06
2.02193e-07
2.89563e-08
7.34039e-09
2.31476e-09
1.01522e-09
3.67833e-10
1.57443e-10
8.04424e-11
3.28337e-11
1.29328e-11
6.48697e-12
2.49283e-12
1.03066e-12
4.32177e-13
1.63578e-13
6.88088e-14
2.81063e-14
8.84033e-15
1.65819e-15
0
-2.03113e-17
0
-2.97244e-07
2.58455e-20
3.14639e-07
-2.59175e-11
0
0
-2.49886e-11
0
5.47914e-10
-3.49472e-07
0
-7.65155e-18
-3.47108e-17
-2.80257e-16
-2.8797e-15
-3.43269e-07
4.43913e-07
3.25892e-06
4.48276e-05
0.000533837
0.00535113
0.0442364
0.299823
1.67597
7.82147
30.9324
105.265
312.646
820.337
1919.52
4038.26
7716.83
13534
22057.6
33873.8
49735.3
70751.8
98539.3
135297
184021
248667
334150
448040
600697
803979
1.0745e+06
1.43415e+06
1.9118e+06
2.54563e+06
3.38611e+06
4.50022e+06
5.97704e+06
7.93548e+06
1.05349e+07
1.39318e+07
1.84022e+07
2.45326e+07
3.27396e+07
2.70142e+08
1.89413e+08
2.94108e+07
2.07861e+07
1.45088e+07
9.98107e+06
6.75275e+06
4.48373e+06
2.91759e+06
1.86227e+06
1.1761e+06
757567
350028
45120.2
1790.24
33.7296
0.386206
0.0039038
5.77258e-05
1.86957e-06
1.47478e-07
2.40067e-08
6.33845e-09
2.257e-09
9.298e-10
4.16206e-10
1.54177e-10
6.38591e-11
2.87263e-11
8.48216e-12
5.52716e-12
2.2261e-12
9.61894e-13
-5.31199e-12
1.88037e-13
6.2331e-14
-7.62087e-13
7.74194e-13
1.66203e-15
-3.70723e-13
0
0
0
0
1.53421e-11
5.68157e-11
0
0
-1.06572e-10
0
0
-5.36808e-10
0
8.84175e-10
-5.20345e-14
2.20677e-09
-2.82788e-15
1.26853e-08
4.28533e-07
3.31289e-06
4.31964e-05
0.000513948
0.00518672
0.0432567
0.296194
1.67398
7.90094
31.6016
108.741
326.458
865.366
2044
4331.05
8310.41
14621
23849.1
36578.8
53544.3
75842.5
105080
143496
194098
260685
349196
467761
625556
835585
1.11499e+06
1.4864e+06
1.97968e+06
2.63435e+06
3.50278e+06
4.65447e+06
6.18197e+06
8.20888e+06
1.08949e+07
1.43939e+07
1.90206e+07
2.53759e+07
3.38695e+07
3.52936e+08
1.04928e+08
2.91318e+07
2.03866e+07
1.40956e+07
9.60826e+06
6.44278e+06
4.24103e+06
2.73723e+06
1.73528e+06
1.09279e+06
706708
250662
26740.9
906.951
15.5696
0.173227
0.00186234
3.17296e-05
1.21596e-06
1.10189e-07
2.05081e-08
5.95994e-09
2.08389e-09
7.98445e-10
2.95953e-10
1.50893e-10
6.17414e-11
3.01041e-11
1.66748e-11
5.44938e-12
3.16396e-12
9.52501e-13
1.25216e-12
-6.76927e-13
5.59624e-14
2.19669e-14
7.70751e-15
1.30727e-15
3.70187e-13
-2.74154e-07
0
0
2.99294e-07
2.74466e-11
3.11731e-07
1.06822e-19
-2.16379e-19
1.04293e-10
0
0
-5.22682e-10
-1.79083e-18
8.58457e-10
-3.61906e-17
-5.10673e-14
-2.8022e-15
1.14499e-08
2.39866e-07
3.22142e-06
4.18111e-05
0.000503386
0.00511923
0.0430774
0.297917
1.7014
8.11583
32.8038
114.042
345.78
925.197
2203.87
4698.2
9039.82
15934.3
25980.5
39752.7
57962.6
81703.7
112595
152831
205400
274934
367885
491404
655759
874483
1.16544e+06
1.55222e+06
2.06602e+06
2.74809e+06
3.65312e+06
4.85361e+06
6.4459e+06
8.5571e+06
1.13572e+07
1.49963e+07
1.98105e+07
2.63821e+07
3.51093e+07
4.23032e+08
3.96484e+07
2.78121e+07
1.93351e+07
1.32888e+07
9.00714e+06
6.00655e+06
3.93288e+06
2.52609e+06
1.59605e+06
1.00592e+06
646166
188521
15678.2
467.993
7.43276
0.0813922
0.00093626
1.82896e-05
8.21744e-07
8.41411e-08
1.68713e-08
5.01046e-09
1.73909e-09
7.36222e-10
3.03002e-10
1.34886e-10
5.66955e-11
2.7801e-11
1.23506e-11
4.54982e-12
2.08465e-12
8.41877e-13
3.71638e-13
5.63463e-12
5.45252e-12
2.49699e-14
7.3901e-15
5.05095e-12
-6.95165e-22
2.00546e-17
-5.93643e-21
2.89102e-07
-1.73866e-16
0
1.03513e-19
3.11034e-07
-3.14408e-07
0
0
0
4.13934e-10
-1.02052e-09
1.85692e-09
1.67328e-09
-2.89292e-16
-2.78746e-15
1.52686e-08
2.31481e-07
3.20005e-06
4.14958e-05
0.000501373
0.00513535
0.0435956
0.304409
1.75584
8.45954
34.5313
121.203
370.884
1000.92
2402.31
5150.09
9928.23
17480.5
28447.4
43363.7
62907.9
88169.7
120686
162746
217912
291286
388490
517654
689521
918279
1.22269e+06
1.62758e+06
2.16587e+06
2.88117e+06
3.83137e+06
5.09325e+06
6.76869e+06
8.99395e+06
1.19522e+07
1.57668e+07
2.09743e+07
2.78854e+07
3.70198e+07
4.51105e+08
3.5037e+07
2.49098e+07
1.74673e+07
1.20675e+07
8.20174e+06
5.47479e+06
3.58391e+06
2.30027e+06
1.45344e+06
919696
573078
137581
9331.74
251.12
3.7471
0.0409108
0.00050642
1.12771e-05
5.85243e-07
6.77139e-08
1.49807e-08
4.51776e-09
1.70783e-09
6.83184e-10
3.1306e-10
1.3266e-10
5.49983e-11
2.40949e-11
1.09085e-11
9.25821e-14
1.85998e-12
6.30196e-12
3.55417e-13
1.35449e-13
-5.29574e-12
-5.24144e-12
5.16713e-12
1.22764e-15
0
1.99702e-17
-3.45746e-12
0
1.71876e-16
0
0
4.91735e-11
0
1.22728e-10
0
0
-4.02961e-10
-3.13287e-07
9.93558e-10
-3.39836e-17
-3.63042e-09
-2.80368e-15
2.21067e-08
2.29866e-07
3.19584e-06
4.16558e-05
0.000506231
0.00522566
0.0447495
0.315376
1.83643
8.93189
36.7995
130.333
402.262
1094.23
2643.9
5693.13
10977.8
19269
31247
47386.8
68321.6
95014.8
129114
173305
231557
308265
409837
544765
724269
963202
1.28125e+06
1.70459e+06
2.26805e+06
3.01807e+06
4.01674e+06
5.34728e+06
7.12157e+06
9.49077e+06
1.26432e+07
1.67538e+07
2.2432e+07
3.0064e+07
4.03352e+07
4.38931e+08
3.22104e+07
2.29009e+07
1.60702e+07
1.11119e+07
7.55827e+06
5.04903e+06
3.30832e+06
2.12718e+06
1.3497e+06
862741
511013
101935
5828.71
143.167
2.02416
0.022177
0.000295209
7.41749e-06
4.34924e-07
5.55673e-08
1.25475e-08
4.15648e-09
1.48102e-09
6.54097e-10
2.82119e-10
1.30584e-10
5.24662e-11
2.70258e-11
1.04109e-11
1.00194e-11
1.84293e-12
-4.67592e-12
3.1721e-13
-5.25955e-12
4.95085e-14
1.89528e-14
6.67856e-15
1.14245e-15
3.68571e-13
0
-8.15925e-17
0
0
-1.45218e-11
0
4.82993e-11
-2.03858e-19
9.76977e-11
0
0
8.74018e-10
-1.64307e-18
-1.74747e-09
1.56984e-09
-1.57456e-09
-2.83273e-15
1.73964e-08
3.99535e-07
3.23928e-06
4.23883e-05
0.000517462
0.00538348
0.0464945
0.330622
1.9428
9.53514
39.6348
141.585
440.569
1207.34
2934.6
6339.09
12202.6
21307.3
34359.6
51724
73907.4
101904
137846
184506
245272
325169
430840
571060
757414
1.00524e+06
1.33486e+06
1.77334e+06
2.35669e+06
3.133e+06
4.16653e+06
5.54346e+06
7.37958e+06
9.83097e+06
1.3092e+07
1.73643e+07
2.32762e+07
3.12408e+07
7.28611e+07
4.07545e+08
3.04745e+07
2.1632e+07
1.51558e+07
1.04627e+07
7.10422e+06
4.73653e+06
3.09736e+06
1.98848e+06
1.26248e+06
812969
449010
75989.4
3795.46
86.4278
1.17133
0.012959
0.000185129
5.19333e-06
3.41689e-07
4.74253e-08
1.13903e-08
3.57636e-09
1.54841e-09
5.97903e-10
2.77372e-10
1.28496e-10
5.53673e-11
2.25699e-11
1.0283e-11
4.00306e-12
1.02103e-12
7.77432e-13
3.15222e-13
1.22045e-13
5.2693e-14
2.04212e-14
6.68549e-15
1.14617e-15
2.62541e-07
0
0
0
-1.15021e-11
0
-2.89353e-11
5.82991e-11
1.17157e-10
-2.96883e-07
2.9714e-07
0
0
1.59509e-18
2.95858e-07
1.51866e-09
-2.99618e-16
-2.89789e-15
-2.81092e-07
2.44885e-07
3.31853e-06
4.34657e-05
0.000534535
0.00560394
0.0488034
0.350069
2.07524
10.2745
43.0755
155.161
486.632
1343.01
3281.84
7103.05
13623.2
23621
37831.6
56414
79891.2
109653
147369
195837
258892
341682
451003
595804
787880
1.04282e+06
1.38127e+06
1.83066e+06
2.4274e+06
3.22004e+06
4.27324e+06
5.6734e+06
7.53612e+06
1.00164e+07
1.32961e+07
1.75785e+07
2.3475e+07
3.1359e+07
1.35052e+08
3.52878e+08
2.9508e+07
2.09148e+07
1.46366e+07
1.0096e+07
6.85208e+06
4.56828e+06
2.98896e+06
1.92177e+06
1.22445e+06
794401
400396
58595.9
2611.53
55.5385
0.725416
0.00813391
0.000124182
3.84384e-06
2.76504e-07
4.21653e-08
1.00534e-08
3.51012e-09
1.32536e-09
5.81906e-10
2.47858e-10
1.13941e-10
4.46577e-11
2.15543e-11
9.36523e-12
4.35341e-12
1.61101e-12
7.16951e-13
1.08631e-12
1.3353e-13
4.92229e-14
-4.4078e-12
-4.35672e-12
1.05985e-15
0
-2.68443e-07
0
6.89092e-12
1.65975e-16
4.81742e-20
-2.84726e-11
5.7242e-11
2.90067e-07
2.90308e-07
2.29342e-10
0
3.70634e-10
-1.54725e-18
-9.24978e-18
-4.30642e-17
-3.07463e-16
-3.6121e-09
1.97293e-08
2.57175e-07
3.12291e-06
4.50249e-05
0.000557031
0.00588286
0.0516524
0.373652
2.23408
11.1555
47.1639
171.282
541.37
1504.29
3693.44
7997.78
15242
26169.1
41505.5
61292.9
86288.3
117445
156721
207000
272249
357723
470325
619102
815953
1.07657e+06
1.42168e+06
1.87877e+06
2.48423e+06
3.28644e+06
4.34968e+06
5.75953e+06
7.63018e+06
1.01138e+07
1.33845e+07
1.76427e+07
2.34927e+07
3.12873e+07
1.90949e+08
2.99639e+08
2.88744e+07
2.04386e+07
1.42846e+07
9.84109e+06
6.6717e+06
4.44414e+06
2.90661e+06
1.87006e+06
1.19478e+06
780726
361503
46402.2
1884.53
37.8044
0.47921
0.00545063
8.85211e-05
2.98318e-06
2.35625e-07
3.77255e-08
9.4873e-09
3.25235e-09
1.29939e-09
5.22922e-10
2.67704e-10
9.97961e-11
4.78342e-11
2.12481e-11
9.24503e-12
8.47145e-12
2.3799e-12
7.10833e-13
2.86762e-13
1.20807e-13
4.90436e-14
1.74106e-14
5.96337e-15
1.15159e-15
3.66979e-13
0
5.73799e-21
2.76017e-07
1.64063e-16
1.13315e-11
0
0
0
-9.13238e-11
0
-5.2873e-15
-1.05111e-14
-2.08942e-14
-7.11329e-10
-4.15644e-17
4.09502e-14
-3.05613e-15
2.24145e-08
2.56855e-07
3.56308e-06
4.68482e-05
0.000584111
0.00621569
0.0550127
0.401267
2.41942
12.183
51.9386
190.167
605.723
1694.39
4177.73
9037.2
17067.2
28929.9
45430.7
66549.5
92764.4
125231
165992
218024
285381
373392
489021
641366
842366
1.10772e+06
1.45815e+06
1.92102e+06
2.53253e+06
3.34063e+06
4.40892e+06
5.82178e+06
7.69069e+06
1.0165e+07
1.34185e+07
1.76473e+07
2.34399e+07
3.114e+07
2.39355e+08
2.53681e+08
2.83144e+07
2.00531e+07
1.40222e+07
9.66462e+06
6.55475e+06
4.36816e+06
2.85873e+06
1.8416e+06
1.18035e+06
776173
323346
37902.1
1424.09
27.1597
0.335967
0.00388079
6.66019e-05
2.4224e-06
2.0356e-07
3.40912e-08
9.28098e-09
3.10061e-09
1.27236e-09
5.59597e-10
2.15112e-10
9.80678e-11
4.70638e-11
2.17044e-11
9.1211e-12
-1.40427e-12
1.42941e-12
6.56475e-13
2.60748e-13
1.20106e-13
-5.14033e-12
1.59117e-14
-7.41645e-13
-5.01865e-12
0
1.49268e-12
-5.69894e-21
0
-1.36477e-11
-1.11715e-11
0
-2.78718e-07
1.3078e-15
0
7.43558e-19
0
1.01974e-14
-2.90333e-18
-2.66747e-07
-4.00623e-17
-2.63801e-07
-3.14363e-15
1.81369e-08
1.3461e-07
3.45096e-06
4.92066e-05
0.000615419
0.00659607
0.058838
0.432675
2.63051
13.3572
57.4226
211.983
680.484
1915.93
4739.67
10216.4
19024
31720
49299
71627.8
99045.6
132803
175028
228791
298212
388673
507171
662831
867593
1.13713e+06
1.49208e+06
1.95962e+06
2.57568e+06
3.38771e+06
4.45819e+06
5.86967e+06
7.73325e+06
1.01985e+07
1.34281e+07
1.76161e+07
2.33411e+07
3.09331e+07
2.80184e+08
2.1542e+08
2.77539e+07
1.96816e+07
1.37786e+07
9.50727e+06
6.45541e+06
4.30741e+06
2.82338e+06
1.82293e+06
1.17291e+06
775445
286753
31856.4
1121.8
20.4912
0.248557
0.00291602
5.25692e-05
2.04034e-06
1.81845e-07
3.19226e-08
8.71159e-09
3.28872e-09
1.24428e-09
5.47877e-10
2.34203e-10
1.02173e-10
4.62683e-11
2.0611e-11
9.755e-12
-1.38191e-12
-3.65043e-12
6.50314e-13
2.82411e-13
1.19358e-13
5.2033e-12
1.73282e-14
5.59642e-15
4.27877e-12
-2.61038e-07
0
0
2.70879e-07
0
-1.35344e-11
-2.20433e-11
2.73367e-07
0
0
2.68278e-07
0
7.54626e-10
-6.69732e-10
-5.55755e-18
-2.55046e-07
1.30495e-09
-3.25664e-15
2.05227e-08
4.0554e-07
3.64228e-06
5.15643e-05
0.000649716
0.00701441
0.06305
0.467371
2.86494
14.6702
63.6056
236.802
766.27
2171.48
5384.66
11528.8
21030.2
34474.8
53168.4
76498.6
104971
139928
183566
239028
310469
403303
524545
683324
891555
1.16485e+06
1.52373e+06
1.99514e+06
2.61442e+06
3.4278e+06
4.49736e+06
5.90678e+06
7.76477e+06
1.02141e+07
1.3414e+07
1.75557e+07
2.32048e+07
3.06782e+07
3.14002e+08
1.84244e+08
2.71931e+07
1.93202e+07
1.35499e+07
9.3662e+06
6.37108e+06
4.2592e+06
2.79773e+06
1.81114e+06
1.16967e+06
775609
270495
27444.5
916.94
16.1622
0.1931
0.00229983
4.32947e-05
1.77462e-06
1.68051e-07
3.01393e-08
8.33863e-09
2.85915e-09
1.21516e-09
5.35789e-10
2.29366e-10
9.94865e-11
4.40949e-11
2.02791e-11
8.11896e-12
3.76887e-12
1.54316e-12
6.43873e-13
5.43671e-12
1.06858e-13
4.25507e-14
1.72753e-14
5.59e-15
9.76889e-16
-2.60667e-07
1.48019e-12
0
1.1318e-20
0
2.69652e-07
2.69204e-07
-2.68075e-07
0
0
7.04907e-19
6.96291e-19
3.27829e-10
-2.71171e-18
1.86426e-14
-4.23403e-17
2.42763e-07
6.91736e-14
1.95718e-08
1.66096e-07
3.82922e-06
5.39728e-05
0.00068613
0.00745595
0.0675178
0.504409
3.11721
16.0971
70.4006
264.419
862.93
2462.22
6117.56
12971.9
23096.7
37037.6
56516.8
80647.3
110037
146094
191088
248192
321582
416681
540504
702171
913558
1.19015e+06
1.55216e+06
2.026e+06
2.64688e+06
3.46141e+06
4.53147e+06
5.93646e+06
7.78293e+06
1.02119e+07
1.33768e+07
1.74657e+07
2.30303e+07
3.03743e+07
3.41537e+08
1.59257e+08
2.66316e+07
1.89641e+07
1.333e+07
9.23483e+06
6.29612e+06
4.21921e+06
2.77873e+06
1.80434e+06
1.16976e+06
777304
257764
24302.7
777.735
13.3083
0.157119
0.00189704
3.70546e-05
1.59292e-06
1.56402e-07
2.92456e-08
8.44724e-09
2.87818e-09
1.23275e-09
5.23318e-10
2.24394e-10
1.03874e-10
4.74851e-11
1.99375e-11
7.99543e-12
3.71739e-12
1.52465e-12
6.37203e-13
-4.85514e-12
1.06117e-13
4.23287e-14
1.78635e-14
7.47536e-13
9.77283e-16
0
-2.77205e-21
7.77783e-17
0
2.24482e-20
-4.4828e-20
-2.61754e-11
0
2.60367e-07
-8.28753e-11
-4.77574e-15
-6.75349e-19
-9.25993e-15
-2.42993e-07
-1.79445e-14
2.36545e-07
-3.56047e-16
-2.91203e-09
2.38602e-08
4.1345e-07
4.03743e-06
5.64643e-05
0.00072221
0.00789983
0.0720393
0.542198
3.3771
17.5832
77.5633
293.892
967.183
2776.69
6893.76
14369.5
24700.2
38663.7
58642.2
83351.2
113498
150543
196795
255427
330620
427776
553883
717971
931740
1.21054e+06
1.57451e+06
2.05021e+06
2.67275e+06
3.48774e+06
4.55429e+06
5.9513e+06
7.78291e+06
1.01868e+07
1.3311e+07
1.73399e+07
2.28103e+07
3.00128e+07
3.63574e+08
1.39549e+08
2.60734e+07
1.86148e+07
1.31181e+07
9.11167e+06
6.22872e+06
4.18569e+06
2.76495e+06
1.80145e+06
1.17249e+06
780326
248516
22120.3
683.649
11.4171
0.133513
0.00163079
3.28329e-05
1.46574e-06
1.47245e-07
2.78013e-08
8.02363e-09
2.94701e-09
1.23853e-09
5.34272e-10
2.30238e-10
1.04192e-10
4.09363e-11
1.88017e-11
3.64655e-12
3.66484e-12
6.52958e-12
6.30338e-13
2.52086e-13
8.56178e-13
4.20935e-14
1.57144e-14
5.92811e-15
-5.0004e-12
0
1.92295e-17
-2.62864e-07
0
1.54442e-16
2.61739e-07
0
0
-2.5443e-07
8.07639e-11
-2.46934e-07
-4.55785e-15
3.06344e-10
7.38634e-10
-7.41756e-18
1.15926e-09
1.40322e-09
5.02512e-09
2.48648e-08
3.12764e-07
3.99439e-06
5.8928e-05
0.000756112
0.00831867
0.0763372
0.578456
3.62919
19.0428
84.6966
323.676
1073.89
3099.44
7665.11
15562.1
25336
38550.9
58680.7
83715.7
114399
152229
199502
259368
335963
434645
562356
728088
943555
1.22429e+06
1.59021e+06
2.06745e+06
2.68961e+06
3.5014e+06
4.56135e+06
5.94646e+06
7.7582e+06
1.01306e+07
1.32064e+07
1.71654e+07
2.25297e+07
2.95793e+07
3.80369e+08
1.24757e+08
2.5527e+07
1.82772e+07
1.29169e+07
8.99757e+06
6.16867e+06
4.15792e+06
2.75549e+06
1.80161e+06
1.17712e+06
784028
242491
20673.5
621.623
10.1808
0.118154
0.0014563
3.00184e-05
1.37708e-06
1.43013e-07
2.78101e-08
8.09219e-09
2.87754e-09
1.20463e-09
5.39497e-10
2.35494e-10
9.94763e-11
4.16369e-11
1.92315e-11
7.73176e-12
3.43188e-12
6.44797e-12
5.61672e-12
2.49708e-13
1.04535e-13
4.47084e-14
1.62925e-14
5.20113e-15
9.76947e-16
2.00623e-13
1.46163e-12
2.61035e-07
0
0
-2.57803e-07
2.52601e-11
0
0
3.29692e-19
2.39744e-07
4.41216e-15
-3.63273e-10
-2.42289e-18
-1.26021e-09
-5.10688e-17
-3.73654e-16
2.13913e-09
2.56236e-08
3.13342e-07
4.26841e-06
6.09734e-05
0.000784847
0.00867857
0.0800633
0.610194
3.85227
20.3505
91.1753
351.091
1172.92
3394.97
8306.61
16142.1
24264
35954.7
55732.8
80638.4
111450
149651
197483
258052
335456
435120
563959
730946
947749
1.22925e+06
1.5951e+06
2.07088e+06
2.68993e+06
3.49584e+06
4.54569e+06
5.91429e+06
7.69986e+06
1.00317e+07
1.30472e+07
1.69163e+07
2.21416e+07
2.89848e+07
3.98289e+08
1.11388e+08
2.49749e+07
1.79309e+07
1.27084e+07
8.87847e+06
6.10568e+06
4.12862e+06
2.74527e+06
1.8013e+06
1.18117e+06
788240
239121
19793.1
583.015
9.40693
0.108528
0.00134638
2.82279e-05
1.32357e-06
1.3918e-07
2.71936e-08
7.9664e-09
3.01601e-09
1.17005e-09
5.25146e-10
2.25e-10
9.72165e-11
4.46979e-11
1.88683e-11
7.99096e-12
3.55639e-12
1.55542e-12
6.40868e-13
5.21703e-12
1.06834e-13
4.15867e-14
1.62226e-14
5.348e-15
-4.25784e-12
0
2.59564e-07
0
0
0
1.02168e-11
2.50685e-07
0
2.4254e-07
-9.4058e-11
-1.83937e-10
0
3.50008e-10
-2.32621e-18
-6.64708e-10
2.04891e-07
-3.76443e-16
4.51071e-09
2.21594e-08
3.27084e-07
4.39053e-06
6.23904e-05
0.000806144
0.00894362
0.0828271
0.63394
4.02089
21.3504
96.1903
372.541
1250.33
3613.94
8648.49
15553.1
23644.6
31240.5
49095.5
73473.9
103922
141911
189654
250216
327669
427238
555771
722119
937739
1.21747e+06
1.58061e+06
2.05224e+06
2.66504e+06
3.46163e+06
4.49762e+06
5.84569e+06
7.60101e+06
9.88828e+06
1.28401e+07
1.66165e+07
2.17004e+07
2.83352e+07
4.0705e+08
1.04288e+08
2.43851e+07
1.75642e+07
1.24867e+07
8.74958e+06
6.03475e+06
4.09276e+06
2.72969e+06
1.79662e+06
1.18153e+06
789766
237644
19346.6
561.895
8.97143
0.103062
0.00128372
2.72087e-05
1.29232e-06
1.37336e-07
2.7308e-08
7.86073e-09
2.91846e-09
1.2908e-09
5.10541e-10
2.34657e-10
1.03014e-10
4.37351e-11
1.8499e-11
8.15822e-12
4.3776e-12
1.534e-12
6.53184e-13
2.44753e-13
1.0285e-13
4.288e-14
1.69318e-14
5.17458e-15
8.86978e-16
0
0
3.183e-12
0
6.25949e-12
0
1.98058e-11
-1.13585e-15
-1.11213e-15
1.65856e-10
6.07902e-19
5.91236e-19
0
-1.55299e-14
-8.65682e-18
-5.04815e-17
-3.80979e-16
1.89408e-07
2.4962e-08
3.30147e-07
4.38086e-06
6.3119e-05
0.000816877
0.00908024
0.0842617
0.646369
4.10995
21.8837
98.886
384.032
1289.56
3692.08
8437.41
15949.8
24630.8
32568.9
39180.8
61454
90783.3
127573
173981
232982
308535
405806
531504
694313
905484
1.1796e+06
1.5356e+06
1.9981e+06
2.59911e+06
3.38034e+06
4.39614e+06
5.71744e+06
7.4369e+06
9.67571e+06
1.25624e+07
1.6251e+07
2.12086e+07
2.76668e+07
4.11421e+08
1.01262e+08
2.37881e+07
1.71742e+07
1.22353e+07
8.59025e+06
5.93598e+06
4.03317e+06
2.69484e+06
1.77682e+06
1.17019e+06
782945
236502
19196.1
553.647
8.79038
0.100743
0.00125705
2.67805e-05
1.27844e-06
1.37327e-07
2.71203e-08
7.85824e-09
2.9677e-09
1.21657e-09
5.34611e-10
2.27774e-10
1.05601e-10
4.27589e-11
1.81254e-11
8.01005e-12
3.69262e-12
1.56026e-12
6.45241e-13
2.42219e-13
1.01984e-13
-4.90143e-12
1.54409e-14
5.35532e-15
9.2592e-16
4.75257e-18
1.89867e-17
-1.08564e-20
-6.32142e-12
0
1.00576e-11
-5.78391e-16
0
0
-7.44062e-11
4.23475e-15
4.11865e-15
-2.12098e-07
2.07104e-07
1.15079e-09
-5.04813e-17
1.20104e-09
4.2526e-09
2.06102e-07
4.14801e-07
4.46776e-06
6.31152e-05
0.00081691
0.00908043
0.0842631
0.64638
4.11002
21.884
98.8876
384.038
1289.57
3692.11
8437.4
15949.8
24630.7
32568.7
39180.5
61452.6
90781.6
127571
173979
232980
308533
405805
531503
694313
905484
1.1796e+06
1.53561e+06
1.9981e+06
2.59912e+06
3.38035e+06
4.39615e+06
5.71746e+06
7.43692e+06
9.67573e+06
1.25624e+07
1.6251e+07
2.12086e+07
2.76668e+07
4.11423e+08
1.0126e+08
2.37882e+07
1.71741e+07
1.22351e+07
8.59006e+06
5.9358e+06
4.03302e+06
2.69473e+06
1.77674e+06
1.17013e+06
782910
236494
19195.7
553.642
8.79039
0.100744
0.00125706
2.67772e-05
1.28063e-06
1.37819e-07
2.71205e-08
7.85823e-09
2.9677e-09
1.25051e-09
5.34611e-10
2.32247e-10
1.05602e-10
4.41963e-11
1.94529e-11
8.01004e-12
3.44423e-12
1.59924e-12
6.45241e-13
2.42212e-13
1.07574e-13
-6.84625e-13
1.54409e-14
5.51425e-15
8.86211e-16
-2.00338e-13
2.59564e-07
0
0
-5.15845e-12
0
0
4.88536e-11
1.14012e-15
7.65285e-11
-2.32393e-07
0
-8.31494e-15
-2.3262e-18
-6.80159e-18
-5.30992e-17
-3.7644e-16
4.51068e-09
2.19553e-07
2.25375e-07
4.39049e-06
6.23063e-05
0.000806184
0.00894424
0.0828313
0.633971
4.02108
21.3515
96.195
372.559
1250.39
3614.1
8648.67
15552.9
23644.4
31239.8
49092.9
73470
103917
141905
189647
250208
327661
427230
555763
722112
937732
1.21746e+06
1.5806e+06
2.05224e+06
2.66505e+06
3.46164e+06
4.49764e+06
5.84574e+06
7.60107e+06
9.88836e+06
1.28402e+07
1.66166e+07
2.17005e+07
2.83353e+07
4.07057e+08
1.04285e+08
2.43909e+07
1.75693e+07
1.24905e+07
8.75204e+06
6.03624e+06
4.09361e+06
2.73013e+06
1.79684e+06
1.18162e+06
789797
237649
19347
561.912
8.9718
0.103067
0.00128378
2.72109e-05
1.29232e-06
1.37963e-07
2.70476e-08
8.15308e-09
2.91915e-09
1.21281e-09
5.10553e-10
2.29428e-10
1.05355e-10
4.37359e-11
1.84994e-11
8.15821e-12
4.3776e-12
-3.3032e-12
-1.09257e-13
2.67152e-13
1.08486e-13
7.75495e-13
1.55133e-14
5.17458e-15
8.86978e-16
0
0
2.6104e-07
0
-2.59588e-07
0
0
1.70208e-19
2.48488e-07
-3.29691e-19
-2.39744e-07
-4.41214e-15
2.29849e-07
-2.42288e-18
2.20736e-07
-5.10685e-17
-1.08697e-09
-3.64964e-15
2.14039e-08
3.15901e-07
4.16431e-06
6.08742e-05
0.000784915
0.00867928
0.080068
0.610226
3.85246
20.3515
91.1792
351.106
1172.98
3395.19
8307.41
16142.4
24263.1
35952.5
55728.3
80629.6
111438
149636
197466
258034
335439
435103
563939
730923
947722
1.22922e+06
1.59507e+06
2.07084e+06
2.68989e+06
3.4958e+06
4.54566e+06
5.91426e+06
7.69985e+06
1.00317e+07
1.30472e+07
1.69163e+07
2.21417e+07
2.89849e+07
3.98298e+08
1.11382e+08
2.49751e+07
1.7931e+07
1.27084e+07
8.87848e+06
6.10565e+06
4.12858e+06
2.74522e+06
1.80126e+06
1.18114e+06
788217
239124
19794.3
583.064
9.40791
0.108541
0.00134652
2.82324e-05
1.32461e-06
1.39297e-07
2.74625e-08
7.99793e-09
2.85941e-09
1.21424e-09
5.25131e-10
2.29691e-10
1.02548e-10
4.34806e-11
1.88683e-11
8.30417e-12
3.55632e-12
1.55542e-12
6.61044e-13
2.47252e-13
1.09381e-13
4.44332e-14
-4.99284e-12
5.38468e-15
7.34797e-13
0
0
1.10878e-20
0
-1.17905e-11
4.41615e-20
4.66431e-11
1.21059e-15
0
2.50925e-07
0
0
3.06342e-10
-2.33309e-07
-7.41752e-18
-4.37377e-17
3.29813e-14
5.02509e-09
1.98916e-08
4.17862e-07
4.20719e-06
5.90469e-05
0.000755974
0.00831934
0.0763431
0.578496
3.62941
19.0437
84.7002
323.686
1073.9
3099.4
7664.67
15561.6
25335.3
38549.8
58678.5
83715.1
114398
152227
199498
259359
335944
434615
562315
728035
943496
1.22422e+06
1.59012e+06
2.06734e+06
2.6895e+06
3.50127e+06
4.5612e+06
5.94632e+06
7.75807e+06
1.01305e+07
1.32064e+07
1.71654e+07
2.25297e+07
2.95794e+07
3.8038e+08
1.24744e+08
2.55211e+07
1.82719e+07
1.2913e+07
8.99497e+06
6.16707e+06
4.15699e+06
2.75497e+06
1.80133e+06
1.17698e+06
783966
242495
20675.6
621.715
10.1825
0.118175
0.00145654
3.00204e-05
1.37817e-06
1.42465e-07
2.78098e-08
8.09206e-09
2.94982e-09
1.20463e-09
5.39496e-10
2.24784e-10
1.04923e-10
4.21786e-11
1.92315e-11
8.44777e-12
3.61101e-12
1.48615e-12
6.23298e-13
2.497e-13
1.04535e-13
-4.99343e-12
1.70814e-14
5.20125e-15
1.06576e-15
2.60297e-07
0
0
1.12103e-20
2.66094e-07
0
8.92798e-20
1.23546e-15
1.7572e-19
0
0
0
-2.46515e-07
0
-6.14221e-10
-5.07639e-17
-3.56045e-16
-3.47625e-15
2.62118e-08
2.97102e-07
4.0374e-06
5.64741e-05
0.000722078
0.00790089
0.0720464
0.542246
3.37736
17.5844
77.5679
293.907
967.223
2776.78
6893.95
14370
24701.2
38665.7
58646.5
83356.2
113503
150546
196795
255424
330610
427758
553852
717923
931664
1.21043e+06
1.57439e+06
2.05006e+06
2.67257e+06
3.48754e+06
4.55407e+06
5.95108e+06
7.7827e+06
1.01866e+07
1.33109e+07
1.73399e+07
2.28104e+07
3.00129e+07
3.63597e+08
1.39533e+08
2.60738e+07
1.86154e+07
1.31189e+07
9.11238e+06
6.2293e+06
4.18613e+06
2.76525e+06
1.80164e+06
1.1726e+06
780396
248550
22124.6
683.798
11.4198
0.133544
0.00163112
3.28387e-05
1.46458e-06
1.47244e-07
2.74524e-08
8.02361e-09
2.94695e-09
1.23853e-09
5.10547e-10
2.24198e-10
9.92019e-11
4.37551e-11
1.95882e-11
7.86844e-12
4.3985e-12
1.59706e-12
6.30337e-13
2.52086e-13
9.95731e-14
4.20945e-14
1.57144e-14
5.57052e-15
9.77244e-16
4.78715e-18
-1.93891e-17
0
-1.1318e-20
5.42059e-12
-2.69641e-07
2.6634e-11
-1.26034e-15
-1.91132e-10
0
0
0
0
-2.7117e-18
-5.35381e-18
1.55168e-09
-1.25067e-09
-3.36328e-15
1.6533e-08
2.83241e-07
3.84507e-06
5.4118e-05
0.000686115
0.00745694
0.0675262
0.504465
3.11753
16.0985
70.4064
264.438
862.988
2462.38
6117.91
12973
23098.3
37039.6
56519.1
80649.5
110038
146094
191086
248185
321569
416661
540475
702129
913498
1.19006e+06
1.55204e+06
2.02584e+06
2.64669e+06
3.46121e+06
4.53125e+06
5.93624e+06
7.78274e+06
1.02117e+07
1.33767e+07
1.74658e+07
2.30305e+07
3.03745e+07
3.41573e+08
1.59231e+08
2.66324e+07
1.89649e+07
1.33308e+07
9.23546e+06
6.29661e+06
4.21956e+06
2.77897e+06
1.8045e+06
1.16985e+06
777365
257799
24307.7
777.918
13.3117
0.157159
0.00189749
3.70619e-05
1.5929e-06
1.55678e-07
2.89495e-08
8.59721e-09
3.12455e-09
1.18502e-09
5.23332e-10
2.24394e-10
1.07e-10
4.74841e-11
1.84861e-11
7.25636e-12
4.08578e-12
1.52462e-12
6.37218e-13
2.77646e-13
4.46269e-12
4.23287e-14
1.72156e-14
5.58137e-15
9.77253e-16
6.88177e-22
2.6509e-07
0
-2.70884e-07
1.22292e-11
0
0
-2.7342e-07
0
8.71004e-11
0
7.17205e-19
-2.6319e-07
1.95582e-14
1.93491e-14
-3.84145e-14
-3.3369e-16
-3.25662e-15
2.05226e-08
2.82993e-07
3.64225e-06
5.14383e-05
0.000649831
0.00701551
0.0630596
0.467435
2.86529
14.6719
63.6121
236.824
766.331
2171.63
5384.91
11528.9
21030.7
34475.9
53169.8
76499.9
104972
139927
183563
239022
310459
403289
524524
683293
891514
1.1648e+06
1.52367e+06
1.99506e+06
2.61431e+06
3.42767e+06
4.49722e+06
5.90666e+06
7.76468e+06
1.02141e+07
1.3414e+07
1.75558e+07
2.32051e+07
3.06787e+07
3.14057e+08
1.84203e+08
2.71933e+07
1.93205e+07
1.35502e+07
9.36644e+06
6.37127e+06
4.25932e+06
2.79778e+06
1.81115e+06
1.16964e+06
775579
270506
27448.7
917.139
16.1664
0.193153
0.00230044
4.33034e-05
1.77731e-06
1.68048e-07
2.97646e-08
8.14908e-09
3.03361e-09
1.21442e-09
5.10943e-10
2.29373e-10
1.00214e-10
4.8376e-11
2.0279e-11
8.86187e-12
8.89914e-12
1.44943e-12
-3.70847e-12
1.03808e-12
4.49671e-12
4.54653e-14
5.11447e-12
5.59e-15
9.76859e-16
2.61412e-07
-1.49266e-12
-5.69894e-21
0
2.32745e-20
1.37304e-11
4.99673e-11
2.78663e-07
-1.30761e-15
0
-7.43556e-19
5.14176e-15
2.71161e-07
-2.68868e-07
-8.64123e-18
-2.68045e-07
-3.24739e-16
-3.14929e-15
1.81368e-08
2.69771e-07
3.72728e-06
4.91941e-05
0.000615416
0.00659731
0.0588483
0.432745
2.6309
13.359
57.4297
212.007
680.553
1916.1
4740.08
10217.3
19025.8
31721.8
49300.9
71629.6
99047.2
132804
175028
228790
298209
388668
507163
662821
867579
1.13711e+06
1.49206e+06
1.9596e+06
2.57566e+06
3.38769e+06
4.45817e+06
5.86967e+06
7.7333e+06
1.01986e+07
1.34283e+07
1.76164e+07
2.33415e+07
3.09337e+07
2.80259e+08
2.15364e+08
2.77544e+07
1.96822e+07
1.37791e+07
9.5077e+06
6.45578e+06
4.30774e+06
2.82369e+06
1.82322e+06
1.17317e+06
775649
286837
31866.5
1122.16
20.4977
0.248635
0.00291687
5.25853e-05
2.04059e-06
1.81843e-07
3.1922e-08
8.71146e-09
3.28865e-09
1.1535e-09
5.01849e-10
2.39207e-10
1.0217e-10
4.62683e-11
2.0611e-11
8.99333e-12
3.8186e-12
-3.65046e-12
6.50298e-13
2.82419e-13
1.19358e-13
4.56884e-14
5.13699e-12
7.51526e-13
9.76092e-16
0
0
7.99381e-17
0
-1.64039e-16
3.30904e-16
2.27908e-11
0
0
-2.66686e-15
2.82592e-07
-7.58992e-19
-1.50887e-18
-2.99893e-18
-2.76855e-07
1.74089e-09
2.7569e-07
-3.05019e-15
2.93734e-07
4.01079e-07
3.41759e-06
4.69996e-05
0.00058426
0.00621713
0.0550236
0.401342
2.41984
12.1849
51.9463
190.193
605.799
1694.58
4178.15
9037.85
17067.7
28930.3
45432.6
66552
92767.1
125233
165995
218026
285384
373395
489024
641370
842371
1.10773e+06
1.45816e+06
1.92104e+06
2.53255e+06
3.34067e+06
4.40898e+06
5.82186e+06
7.69079e+06
1.01651e+07
1.34186e+07
1.76475e+07
2.34401e+07
3.11402e+07
2.39439e+08
2.53611e+08
2.83137e+07
2.00518e+07
1.40206e+07
9.66305e+06
6.55326e+06
4.36679e+06
2.85747e+06
1.84049e+06