/*--------------------------------*- C++ -*----------------------------------*\
  =========                 |
  \\      /  F ield         | OpenFOAM: The Open Source CFD Toolbox
   \\    /   O peration     | Website:  https://openfoam.org
    \\  /    A nd           | Version:  8
     \\/     M anipulation  |
\*---------------------------------------------------------------------------*/
FoamFile
{
    version     2.0;
    format      ascii;
    class       volScalarField;
    location    "780/fluid";
    object      rDeltaT;
}
// * * * * * * * * * * * * * * * * * * * * * * * * * * * * * * * * * * * * * //

dimensions      [0 0 -1 0 0 0 0];

internalField   nonuniform List<scalar> 
4000
(
513.494
539.533
564.389
588.202
610.907
632.403
652.561
671.241
688.311
703.67
717.28
729.196
739.597
748.815
757.343
765.683
774.222
783.141
792.341
801.433
809.811
816.784
821.695
824.023
823.445
819.776
812.905
802.803
789.507
773.102
753.71
741.63
762.178
806.72
850.449
893.252
935.048
975.765
1015.35
1053.76
1090.96
1126.95
1161.7
1195.22
1227.51
1258.57
1288.42
1317.06
1344.51
1370.79
1395.89
1419.83
1442.62
1464.27
1484.78
1504.14
1522.37
1539.31
1554.96
1569.57
1583.04
2887.22
15044.8
1572.55
1536.03
1494.62
1448.8
1399.09
1345.91
1289.64
1230.68
1169.51
1106.71
1042.8
978.51
915.297
855.165
800.531
754.357
719.278
696.266
683.866
678.818
677.605
677.407
676.467
673.803
669.062
662.278
653.636
643.372
631.72
618.9
605.105
590.499
575.214
559.353
542.987
526.163
508.845
513.019
538.399
562.464
585.139
606.394
626.151
644.32
660.809
675.553
688.538
699.821
709.566
718.058
725.725
733.051
740.508
748.479
757.149
766.429
775.932
785.033
792.989
799.071
802.678
803.358
800.806
794.863
785.489
772.732
756.702
737.549
715.447
715.577
750.38
795.308
839.509
882.878
925.326
966.781
1007.19
1046.51
1084.71
1121.78
1157.7
1192.47
1226.09
1258.57
1289.91
1320.14
1349.25
1377.27
1404.21
1430.09
1454.93
1478.75
1501.55
1523.34
1543.99
1563.55
1582.32
1600.21
4523.2
13598.8
1583.27
1542.02
1497.14
1448.53
1396.28
1340.56
1281.62
1219.72
1155.24
1088.66
1020.4
951.404
883.534
819.428
762.348
715.546
681.353
659.972
649.208
645.535
645.55
646.724
647.505
647.077
644.984
641.076
635.378
627.996
619.073
608.765
597.225
584.592
570.992
556.525
541.265
525.254
508.537
512.316
536.14
558.473
579.277
598.486
616.041
631.887
645.988
658.349
669.028
678.163
685.986
692.83
699.117
705.296
711.82
719.075
727.257
736.293
745.819
755.229
763.787
770.747
775.45
777.349
776.058
771.366
763.197
751.575
736.594
718.395
697.144
678.137
692.742
737.966
782.764
827.015
870.615
913.48
955.543
996.751
1037.06
1076.45
1114.89
1152.37
1188.9
1224.46
1259.08
1292.75
1325.5
1357.35
1388.32
1418.43
1447.72
1476.21
1503.9
1530.8
1556.7
1581.6
1605.61
1628.19
7339.86
10929.8
1602.36
1556.38
1506.66
1453.28
1396.31
1335.91
1272.27
1205.64
1136.44
1065.18
992.409
919.444
848.577
782.814
725.65
680.165
648.03
628.708
619.608
617.209
618.292
620.512
622.426
623.324
622.843
620.811
617.184
611.988
605.29
597.177
587.745
577.087
565.292
552.439
538.59
523.798
508.091
511.628
534.072
554.958
574.233
591.855
607.783
621.992
634.477
645.27
654.454
662.176
668.671
674.261
679.362
684.445
689.987
696.377
703.811
712.221
721.244
730.281
738.593
745.431
750.125
752.145
751.114
746.805
739.116
728.04
713.64
696.03
675.354
651.778
650.126
683.822
728.943
773.8
818.286
862.31
905.799
948.692
990.942
1032.51
1073.38
1113.53
1152.94
1191.61
1229.55
1266.75
1303.23
1339
1374.08
1408.48
1442.2
1475.23
1507.55
1539.08
1569.5
1598.69
1626.64
1652.59
10721.3
7635
1614.75
1564.91
1510.79
1452.69
1390.87
1325.6
1257.2
1186.04
1112.69
1037.81
962.16
887.409
816.074
751.179
695.919
652.937
623.366
606.213
598.7
597.407
599.34
602.353
605.112
606.902
607.381
606.408
603.951
600.028
594.683
587.972
579.957
570.699
560.257
548.684
536.026
522.323
507.611
510.892
531.837
551.175
568.863
584.862
599.147
611.708
622.561
631.758
639.401
645.661
650.787
655.117
659.07
663.12
667.736
673.298
679.999
687.769
696.255
704.865
712.867
719.511
724.121
726.153
725.221
721.083
713.621
702.813
688.708
671.402
651.025
627.728
612.784
632.604
677.911
723.219
768.422
813.426
858.157
902.55
946.553
990.125
1033.24
1075.86
1117.97
1159.56
1200.62
1241.15
1281.13
1320.57
1359.45
1397.75
1435.44
1472.47
1508.74
1544.09
1578.06
1610.51
1641.29
1669.38
14032.4
4240.52
1618.62
1565.86
1508.11
1445.98
1379.99
1310.57
1238.21
1163.45
1086.98
1009.53
932.067
856.481
785.362
721.689
668.442
627.872
600.624
585.321
579.076
578.605
581.14
584.733
588.17
590.783
592.23
592.35
591.081
588.416
584.374
578.987
572.298
564.347
555.179
544.833
533.347
520.756
507.098
510.155
529.628
547.484
563.682
578.194
591.003
602.112
611.548
619.376
625.709
630.721
634.665
637.878
640.772
643.813
647.463
652.097
657.906
664.83
672.525
680.416
687.784
693.888
698.055
699.742
698.554
694.24
686.67
675.809
661.689
644.394
624.037
600.755
575.455
584.535
629.945
675.596
721.381
767.21
813.005
858.699
904.239
949.578
994.672
1039.49
1084.01
1128.19
1172.03
1215.49
1258.54
1301.17
1343.33
1384.95
1425.97
1466.28
1505.7
1544.01
1580.64
1615.39
1647.98
1677.24
16849.4
1662.91
1614.64
1559.33
1498.44
1432.95
1363.55
1290.87
1215.51
1138.13
1059.55
980.547
902.263
826.745
756.614
694.767
643.956
606.056
581.283
567.942
563.063
563.477
566.605
570.666
574.563
577.696
579.752
580.583
580.124
578.356
575.283
570.923
565.298
558.436
550.365
541.115
530.712
519.187
506.576
509.41
527.396
543.769
558.492
571.541
582.908
592.601
600.659
607.152
612.201
615.988
618.766
620.873
622.718
624.76
627.452
631.163
636.08
642.143
649.016
656.131
662.78
668.228
671.806
672.971
671.327
666.617
658.703
647.543
633.159
615.624
595.041
571.534
545.242
546.241
584.314
630.225
676.487
723.007
769.706
816.517
863.38
910.239
957.049
1003.77
1050.36
1096.78
1143
1188.97
1234.64
1279.96
1324.86
1369.24
1412.99
1455.95
1497.88
1538.5
1577.01
1613.61
1647.17
1676.64
17999.9
1656.29
1604.36
1546.04
1482.39
1414.28
1342.42
1267.5
1190.17
1111.19
1031.45
951.757
873.393
798.516
729.74
669.864
621.424
585.97
563.367
551.693
547.955
549.115
552.771
557.282
561.643
565.3
567.96
569.477
569.781
568.844
566.661
563.238
558.588
552.729
545.681
537.464
528.101
517.619
506.053
508.667
525.179
540.091
553.371
565
574.976
583.313
590.055
595.277
599.105
601.722
603.381
604.414
605.226
606.266
607.98
610.727
614.692
619.818
625.773
632.001
637.803
642.451
645.284
645.759
643.479
638.184
629.733
618.076
603.23
585.259
564.258
540.342
513.638
508.534
540.553
586.64
633.268
680.343
727.786
775.525
823.491
871.63
919.887
968.21
1016.55
1064.85
1113.07
1161.13
1208.97
1256.52
1303.66
1350.3
1396.26
1441.35
1485.29
1527.66
1567.72
1605.43
1639.46
1668.34
17550.5
1642.29
1587.69
1527.08
1461.4
1391.44
1317.93
1241.57
1163.08
1083.26
1003.04
923.258
845.33
771.481
704.306
646.513
600.444
567.362
546.834
536.753
534.119
536.013
540.184
545.114
549.885
553.989
557.158
559.253
560.206
559.985
558.578
555.984
552.21
547.265
541.163
533.918
525.548
516.077
505.535
507.927
522.97
536.432
548.283
558.511
567.115
574.118
579.564
583.536
586.159
587.617
588.164
588.127
587.904
587.938
588.663
590.432
593.425
597.584
602.582
607.868
612.752
616.515
618.498
618.163
615.115
609.094
599.956
587.647
572.182
553.618
532.045
507.571
480.316
470.597
498.138
544.32
591.208
638.71
686.743
735.229
784.101
833.294
882.745
932.395
982.18
1032.04
1081.89
1131.67
1181.29
1230.64
1279.6
1328.03
1375.74
1422.5
1468
1511.74
1553.04
1591.79
1626.65
2882.67
16324.6
1622.76
1566.26
1504.04
1436.97
1365.8
1291.28
1214.11
1135.06
1054.96
974.764
895.329
818.189
745.605
680.144
624.423
580.607
549.711
531.056
522.401
520.764
523.34
528.014
533.371
538.563
543.121
546.794
549.452
551.027
551.486
550.812
549.001
546.054
541.975
536.774
530.461
523.051
514.562
505.027
507.192
520.776
532.798
543.235
552.076
559.328
565.013
569.183
571.92
573.351
573.662
573.103
571.996
570.735
569.752
569.473
570.242
572.234
575.389
579.385
583.674
587.575
590.374
591.42
590.179
586.258
579.399
569.457
556.379
540.174
520.9
498.64
473.498
445.59
432.411
456.683
502.875
549.921
597.726
646.204
695.277
744.871
794.913
845.336
896.068
947.036
998.165
1049.37
1100.56
1151.63
1202.46
1252.9
1302.8
1351.94
1400.07
1446.87
1491.81
1534.23
1574.05
1610.04
5346.75
14159.1
1598.22
1540.79
1477.73
1409.92
1338.15
1263.16
1185.7
1106.55
1026.6
946.788
868.009
791.88
720.692
656.988
603.296
561.623
532.764
515.839
508.505
507.806
511.045
516.222
522.013
527.63
532.639
536.806
540.008
542.18
543.287
543.312
542.247
540.089
536.839
532.504
527.091
520.612
513.081
504.529
506.46
518.594
529.186
538.217
545.681
551.587
555.964
558.862
560.369
560.612
559.775
558.107
555.926
553.617
551.607
550.31
550.063
551.035
553.162
556.123
559.377
562.246
564.025
564.068
561.847
556.973
549.189
538.354
524.415
507.38
487.305
464.273
438.384
409.749
393.974
415.871
461.993
509.1
557.094
605.89
655.403
705.555
756.269
807.468
859.074
911.005
963.173
1015.48
1067.83
1120.1
1172.15
1223.82
1274.95
1325.29
1374.59
1422.51
1468.49
1511.9
1552.67
1589.55
7566.48
12042.1
1570.25
1512.53
1449.18
1381.12
1309.18
1234.14
1156.77
1077.89
998.403
919.232
841.314
766.345
696.629
634.676
582.937
543.272
516.29
500.944
494.82
494.997
498.878
504.563
510.805
516.868
522.344
527.016
530.766
533.533
535.281
535.992
535.656
534.267
531.826
528.335
523.799
518.227
511.632
504.042
505.733
516.424
525.593
533.225
539.318
543.885
546.956
548.587
548.864
547.918
545.93
543.148
539.886
536.521
533.472
531.145
529.867
529.8
530.876
532.775
534.959
536.757
537.469
536.457
533.197
527.307
518.533
506.738
491.868
473.936
452.996
429.13
402.437
373.026
355.294
375.467
421.443
468.521
516.603
565.6
615.424
665.993
717.224
769.034
821.338
874.045
927.058
980.274
1033.58
1086.83
1139.9
1192.61
1244.76
1296.12
1346.41
1395.28
1442.18
1486.45
1528.02
1565.6
9492.44
10208.9
1540.05
1482.37
1419.07
1351.11
1279.35
1204.59
1127.61
1049.26
970.458
892.115
815.206
741.493
673.282
613.051
563.175
525.388
500.139
486.243
481.237
482.245
486.755
492.958
499.67
506.198
512.161
517.351
521.66
525.025
527.414
528.806
529.19
528.56
526.913
524.25
520.574
515.892
510.214
503.565
505.01
514.264
522.016
528.254
532.979
536.209
537.976
538.338
537.384
535.244
532.101
528.198
523.846
519.417
515.318
511.949
509.626
508.505
508.513
509.329
510.417
511.112
510.722
508.613
504.27
497.316
487.502
474.695
458.845
439.966
418.114
393.371
365.836
335.617
316.388
335.296
381.056
428.025
476.103
525.199
575.222
626.086
677.702
729.983
782.836
836.164
889.864
943.821
997.911
1051.99
1105.91
1159.49
1212.52
1264.75
1315.9
1365.62
1413.31
1458.34
1500.62
1538.85
11119.7
8679.3
1508.33
1450.91
1387.91
1320.32
1248.98
1174.73
1098.37
1020.75
942.81
865.437
789.644
717.25
650.552
591.995
543.886
507.847
484.192
471.628
467.66
469.458
474.589
481.32
488.523
495.541
502.013
507.742
512.624
516.599
519.635
521.712
522.816
522.94
522.08
520.235
517.407
513.6
508.824
503.098
504.289
512.114
518.453
523.299
526.659
528.552
529.014
528.106
525.917
522.58
518.275
513.244
507.795
502.291
497.134
492.712
489.333
487.145
486.07
485.784
485.756
485.324
483.801
480.564
475.104
467.048
456.157
442.301
425.434
405.573
382.777
357.128
328.727
297.681
277.278
295.234
340.714
387.501
435.495
484.6
534.725
585.778
637.668
690.301
743.58
797.402
851.656
906.221
960.965
1015.74
1070.38
1124.7
1178.48
1231.48
1283.39
1333.85
1382.26
1428
1470.95
1509.84
12469.5
7430.24
1475.58
1418.57
1356.05
1289
1218.29
1144.73
1069.16
992.423
915.473
839.18
764.585
693.543
628.347
571.409
524.971
490.559
468.37
457.03
454.03
456.584
462.331
469.604
477.32
484.852
491.856
498.145
503.618
508.218
511.911
514.679
516.506
517.384
517.309
516.277
514.289
511.347
507.458
502.639
503.572
509.97
514.9
518.358
520.353
520.909
520.064
517.882
514.455
509.915
504.442
498.277
491.721
485.135
478.911
473.428
468.984
465.718
463.547
462.147
460.985
459.405
456.729
452.339
445.735
436.551
424.555
409.622
391.712
370.846
347.084
320.513
291.232
259.351
237.989
255.194
300.337
346.878
394.716
443.753
493.896
545.048
597.117
650.003
703.605
757.813
812.513
867.576
922.864
978.223
1033.48
1088.44
1142.89
1196.57
1249.16
1300.3
1349.39
1395.79
1439.42
1478.98
13569.6
6427.24
1442.1
1385.61
1323.71
1257.34
1187.4
1114.69
1040.04
964.309
888.449
813.315
739.973
670.304
606.59
551.214
506.357
473.459
452.621
442.406
440.303
443.583
449.945
457.774
466.025
474.096
481.657
488.527
494.61
499.85
504.215
507.682
510.239
511.876
512.585
512.364
511.21
509.124
506.112
502.188
502.856
507.833
511.355
513.425
514.056
513.274
511.121
507.662
502.992
497.243
490.597
483.29
475.622
467.946
460.647
454.095
448.579
444.227
440.951
438.424
436.115
433.374
429.527
423.965
416.196
405.865
392.744
376.715
357.745
335.858
311.119
283.615
253.449
220.732
198.549
215.119
259.873
306.111
353.731
402.633
452.721
503.897
556.064
609.119
662.956
717.463
772.518
827.989
883.732
939.588
995.382
1050.91
1105.95
1160.24
1213.46
1265.24
1314.97
1362.04
1406.33
1446.58
14449.5
5634.34
1408.09
1352.23
1291.04
1225.49
1156.43
1084.68
1011.05
936.42
861.726
787.81
715.758
647.468
585.21
531.337
487.983
456.509
436.933
427.749
426.451
430.431
437.41
445.811
454.618
463.252
471.392
478.866
485.578
491.475
496.524
500.703
503.998
506.398
507.895
508.484
508.161
506.927
504.784
501.743
502.142
505.699
507.817
508.5
507.765
505.643
502.179
497.44
491.523
484.561
476.735
468.281
459.494
450.723
442.343
434.716
428.12
422.676
418.288
414.625
411.159
407.244
402.212
395.465
386.518
375.024
360.765
343.628
323.587
300.671
274.947
246.509
215.459
181.911
158.985
174.975
219.295
265.18
312.527
361.236
411.206
462.34
514.534
567.686
621.686
676.416
731.751
787.556
843.682
899.965
956.224
1012.25
1067.82
1122.67
1176.47
1228.86
1279.23
1326.96
1371.95
1412.9
15116.1
5036.6
1373.7
1318.53
1258.17
1193.52
1125.45
1054.75
982.231
908.764
835.289
762.633
691.891
624.971
564.131
511.693
469.75
439.609
421.248
413.08
412.509
417.155
424.742
433.72
443.098
452.311
461.05
469.145
476.505
483.074
488.821
493.724
497.766
500.936
503.225
504.626
505.135
504.749
503.469
501.303
501.429
503.569
504.282
503.578
501.477
498.014
493.236
487.213
480.045
471.865
462.854
453.247
443.337
433.464
423.998
415.291
407.611
401.068
395.562
390.757
386.126
381.028
374.803
366.859
356.724
344.058
328.651
310.399
289.281
265.332
238.625
209.254
177.326
142.955
119.322
134.747
178.592
224.079
271.105
319.568
369.367
420.4
472.563
525.751
579.849
634.738
690.291
746.366
802.811
859.459
916.124
972.598
1028.64
1083.99
1138.33
1191.28
1242.24
1290.61
1336.33
1378.18
15775.3
4492.91
1339
1284.7
1225.24
1161.56
1094.53
1024.93
953.586
881.339
809.126
737.761
668.343
602.782
543.316
492.241
451.608
422.682
405.439
398.289
398.458
403.755
411.941
421.497
431.454
441.261
450.614
459.348
467.371
474.629
481.089
486.728
491.528
495.477
498.564
500.782
502.123
502.584
502.163
500.867
500.717
501.441
500.749
498.657
495.189
490.382
484.287
476.978
468.554
459.151
448.951
438.187
427.147
416.168
405.613
395.821
387.052
379.407
372.778
366.826
361.024
354.736
347.31
338.163
326.832
312.988
296.428
277.058
254.862
229.881
202.193
171.895
139.098
103.917
100
100
137.766
182.816
229.479
277.65
327.228
378.109
430.189
483.357
537.498
592.491
648.204
704.494
761.207
818.172
875.2
932.081
988.577
1044.42
1099.28
1152.81
1204.38
1253.39
1299.76
1342.24
16183.2
4212.5
1304
1250.53
1192.05
1129.46
1063.58
995.183
925.079
854.112
783.208
713.168
645.09
580.876
522.747
472.966
433.547
405.72
389.46
383.245
384.227
390.181
398.964
409.105
419.654
430.071
440.057
449.449
458.154
466.118
473.307
479.696
485.267
490.006
493.9
496.939
499.117
500.426
500.864
500.433
500.006
499.313
497.217
493.736
488.899
482.745
475.331
466.73
457.047
446.418
435.024
423.097
410.924
398.835
387.185
376.305
366.444
357.694
349.937
342.834
335.857
328.374
319.742
309.387
296.856
281.829
264.115
243.626
220.353
194.344
165.681
134.467
100.813
100
100
100
100
141.409
187.669
235.506
284.819
335.502
387.449
440.547
494.68
549.724
605.545
661.999
718.928
776.161
833.505
890.75
947.654
1003.94
1059.3
1113.36
1165.5
1215.13
1262.19
1305.43
16365.1
4092.43
1268.92
1216.36
1158.91
1097.44
1032.73
965.577
896.753
827.099
757.532
688.839
622.112
559.235
502.408
453.866
415.59
388.774
373.358
367.882
369.69
376.323
385.728
396.477
407.644
418.698
429.342
439.415
448.825
457.516
465.453
472.609
478.966
484.507
489.218
493.088
496.108
498.269
499.567
500
500.006
499.313
497.217
493.736
488.899
482.745
475.33
466.73
457.046
446.417
435.023
423.096
410.923
398.834
387.183
376.304
366.443
357.693
349.936
342.832
335.855
328.372
319.74
309.385
296.854
281.827
264.113
243.623
220.351
194.342
165.679
134.464
100.81
100
100
100
100
141.407
187.667
235.505
284.818
335.501
387.447
440.546
494.679
549.723
605.544
661.998
718.928
776.16
833.505
890.749
947.654
1003.94
1059.3
1113.36
1165.5
1215.13
1262.18
1305.43
16365.1
4092.32
1268.92
1216.36
1158.91
1097.44
1032.73
965.578
896.754
827.099
757.532
688.839
622.111
559.235
502.408
453.866
415.589
388.773
373.357
367.881
369.69
376.323
385.728
396.477
407.644
418.697
429.342
439.415
448.825
457.516
465.452
472.609
478.966
484.507
489.218
493.088
496.108
498.269
499.567
500
500.717
501.44
500.749
498.657
495.189
490.381
484.286
476.977
468.553
459.15
448.95
438.185
427.145
416.166
405.61
395.819
387.049
379.405
372.775
366.823
361.021
354.732
347.306
338.159
326.828
312.983
296.423
277.053
254.857
229.876
202.187
171.89
139.092
103.912
100
100
137.762
182.813
229.475
277.647
327.225
378.106
430.186
483.354
537.496
592.49
648.203
704.493
761.206
818.171
875.199
932.081
988.577
1044.42
1099.29
1152.81
1204.38
1253.39
1299.76
1342.24
16183.4
4211.83
1304
1250.53
1192.05
1129.46
1063.58
995.183
925.079
854.111
783.207
713.167
645.09
580.876
522.746
472.965
433.547
405.719
389.459
383.244
384.226
390.18
398.963
409.104
419.653
430.07
440.056
449.448
458.153
466.117
473.306
479.696
485.267
490.005
493.899
496.939
499.116
500.426
500.864
500.433
501.429
503.569
504.281
503.577
501.477
498.013
493.235
487.212
480.044
471.863
462.853
453.246
443.335
433.462
423.996
415.289
407.608
401.065
395.559
390.754
386.123
381.024
374.799
366.855
356.719
344.053
328.646
310.394
289.276
265.327
238.619
209.248
177.32
142.949
119.317
134.743
178.588
224.076
271.102
319.565
369.364
420.397
472.561
525.749
579.847
634.737
690.29
746.365
802.811
859.459
916.124
972.599
1028.65
1084
1138.33
1191.28
1242.24
1290.61
1336.34
1378.18
15775.7
4492.61
1339
1284.69
1225.23
1161.56
1094.52
1024.93
953.584
881.336
809.124
737.76
668.342
602.781
543.315
492.24
451.607
422.681
405.438
398.288
398.456
403.754
411.939
421.496
431.453
441.26
450.613
459.347
467.37
474.629
481.088
486.727
491.528
495.477
498.564
500.781
502.123
502.584
502.163
500.867
502.142
505.699
507.816
508.499
507.765
505.642
502.178
497.439
491.522
484.56
476.733
468.279
459.492
450.72
442.341
434.714
428.117
422.673
418.285
414.622
411.156
407.24
402.208
395.461
386.514
375.019
360.759
343.623
323.581
300.665
274.941
246.503
215.453
181.904
158.98
174.972
219.292
265.177
312.525
361.233
411.204
462.338
514.533
567.685
621.685
676.415
731.75
787.555
843.682
899.965
956.224
1012.25
1067.82
1122.67
1176.47
1228.86
1279.23
1326.96
1371.95
1412.91
15116.7
5036.75
1373.7
1318.53
1258.16
1193.52
1125.44
1054.74
982.227
908.761
835.287
762.631
691.89
624.97
564.13
511.693
469.749
439.609
421.247
413.079
412.508
417.154
424.741
433.719
443.097
452.31
461.049
469.145
476.504
483.074
488.821
493.723
497.766
500.936
503.225
504.626
505.135
504.749
503.469
501.303
502.856
507.832
511.355
513.425
514.056
513.273
511.12
507.661
502.991
497.242
490.595
483.288
475.62
467.944
460.645
454.093
448.576
444.224
440.948
438.421
436.112
433.37
429.523
423.961
416.192
405.86
392.739
376.71
357.739
335.852
311.112
283.608
253.442
220.725
198.545
215.116
259.871
306.109
353.729
402.632
452.72
503.896
556.063
609.118
662.955
717.462
772.517
827.989
883.732
939.589
995.382
1050.91
1105.95
1160.24
1213.46
1265.24
1314.98
1362.04
1406.34
1446.59
14450.5
5633.68
1408.09
1352.22
1291.04
1225.48
1156.42
1084.67
1011.05
936.418
861.724
787.809
715.757
647.467
585.21
531.338
487.983
456.508
436.932
427.748
426.45
430.43
437.409
445.809
454.617
463.251
471.391
478.865
485.577
491.474
496.523
500.702
503.997
506.397
507.894
508.483
508.161
506.927
504.784
501.743
503.571
509.97
514.899
518.357
520.352
520.908
520.063
517.881
514.454
509.913
504.44
498.275
491.719
485.133
478.908
473.425
468.981
465.715
463.544
462.144
460.981
459.402
456.725
452.335
445.73
436.546
424.55
409.616
391.706
370.84
347.078
320.506
291.225
259.344
237.985
255.192
300.335
346.876
394.714
443.752
493.895
545.048
597.116
650.003
703.605
757.814
812.513
867.577
922.865
978.224
1033.48
1088.44
1142.89
1196.57
1249.16
1300.3
1349.39
1395.8
1439.43
1478.99
13571.1
6426.07
1442.1
1385.61
1323.71
1257.34
1187.4
1114.69
1040.04
964.308
888.448
813.315
739.974
670.305
606.591
551.215
506.358
473.459
452.621
442.405
440.301
443.582
449.944
457.773
466.024
474.095
481.656
488.527
494.61
499.85
504.214
507.682
510.239
511.875
512.585
512.363
511.21
509.124
506.112
502.188
504.289
512.113
518.452
523.299
526.659
528.551
529.013
528.105
525.916
522.579
518.273
513.243
507.792
502.288
497.131
492.709
489.331
487.142
486.067
485.781
485.752
485.32
483.797
480.56
475.099
467.043
456.152
442.295
425.428
405.567
382.77
357.121
328.72
297.674
277.274
295.233
340.713
387.5
435.494
484.6
534.725
585.778
637.668
690.301
743.581
797.403
851.657
906.222
960.966
1015.74
1070.38
1124.7
1178.48
1231.48
1283.39
1333.85
1382.27
1428
1470.96
1509.85
12471.7
7428.54
1475.58
1418.57
1356.05
1289
1218.29
1144.73
1069.16
992.424
915.474
839.181
764.586
693.545
628.349
571.41
524.972
490.559
468.37
457.03
454.029
456.583
462.33
469.603
477.319
484.851
491.855
498.144
503.617
508.217
511.911
514.678
516.505
517.384
517.309
516.277
514.289
511.347
507.458
502.639
505.009
514.264
522.016
528.254
532.979
536.208
537.975
538.337
537.383
535.243
532.1
528.197
523.844
519.415
515.316
511.947
509.624
508.502
508.51
509.326
510.414
511.109
510.718
508.609
504.266
497.311
487.497
474.689
458.839
439.96
418.107
393.364
365.828
335.609
316.384
335.296
381.056
428.025
476.103
525.199
575.223
626.086
677.703
729.984
782.837
836.166
889.866
943.823
997.913
1052
1105.92
1159.5
1212.52
1264.76
1315.91
1365.62
1413.32
1458.35
1500.63
1538.86
11122.7
8676.94
1508.33
1450.91
1387.91
1320.32
1248.99
1174.74
1098.37
1020.75
942.812
865.44
789.647
717.253
650.555
591.997
543.887
507.848
484.192
471.628
467.659
469.457
474.587
481.319
488.522
495.54
502.012
507.741
512.623
516.599
519.635
521.711
522.815
522.939
522.08
520.235
517.407
513.6
508.824
503.098
505.733
516.423
525.593
533.225
539.318
543.884
546.955
548.586
548.863
547.916
545.929
543.146
539.884
536.519
533.47
531.143
529.864
529.797
530.873
532.772
534.956
536.753
537.465
536.453
533.193
527.302
518.528
506.732
491.862
473.93
452.989
429.123
402.429
373.018
355.29
375.467
421.444
468.522
516.604
565.601
615.426
665.995
717.226
769.036
821.34
874.047
927.061
980.276
1033.58
1086.84
1139.9
1192.61
1244.76
1296.13
1346.42
1395.29
1442.19
1486.46
1528.03
1565.61
9495.94
10206.1
1540.05
1482.37
1419.07
1351.11
1279.35
1204.59
1127.61
1049.26
970.461
892.118
815.209
741.497
673.286
613.054
563.177
525.389
500.139
486.243
481.237
482.244
486.754
492.957
499.669
506.197
512.16
517.351
521.659
525.025
527.413
528.806
529.19
528.56
526.913
524.25
520.574
515.892
510.214
503.565
506.46
518.593
529.186
538.217
545.681
551.587
555.963
558.862
560.368
560.611
559.774
558.105
555.924
553.615
551.604
550.308
550.061
551.033
553.16
556.12
559.373
562.242
564.021
564.064
561.842
556.968
549.184
538.348
524.408
507.373
487.298
464.265
438.376
409.741
393.97
415.872
461.994
509.101
557.096
605.891
655.405
705.557
756.271
807.47
859.076
911.007
963.175
1015.49
1067.83
1120.1
1172.15
1223.83
1274.95
1325.29
1374.59
1422.51
1468.5
1511.91
1552.68
1589.55
7569.65
12039.3
1570.25
1512.53
1449.17
1381.12
1309.18
1234.14
1156.77
1077.89
998.403
919.232
841.316
766.347
696.632
634.679
582.939
543.274
516.291
500.944
494.819
494.997
498.877
504.562
510.805
516.867
522.343
527.015
530.766
533.532
535.281
535.992
535.656
534.267
531.826
528.335
523.799
518.227
511.632
504.042
507.192
520.776
532.798
543.235
552.076
559.327
565.013
569.182
571.919
573.35
573.661
573.101
571.995
570.733
569.749
569.47
570.239
572.232
575.387
579.382
583.671
587.571
590.37
591.416
590.175
586.253
579.393
569.451
556.372
540.167
520.892
498.632
473.49
445.581
432.407
456.685
502.877
549.923
597.729
646.207
695.28
744.873
794.916
845.339
896.071
947.04
998.168
1049.37
1100.56
1151.63
1202.46
1252.9
1302.8
1351.94
1400.07
1446.87
1491.81
1534.23
1574.06
1610.06
5349.48
14155.6
1598.22
1540.8
1477.74
1409.93
1338.15
1263.16
1185.7
1106.55
1026.6
946.788
868.008
791.88
720.695
656.99
603.299
561.625
532.765
515.84
508.505
507.806
511.044
516.222
522.013
527.63
532.639
536.806
540.008
542.179
543.287
543.312
542.247
540.089
536.839
532.504
527.091
520.611
513.081
504.529
507.927
522.97
536.432
548.283
558.51
567.115
574.117
579.564
583.535
586.158
587.616
588.162
588.125
587.902
587.935
588.661
590.429
593.423
597.581
602.579
607.865
612.749
616.511
618.494
618.158
615.11
609.088
599.949
587.64
572.174
553.61
532.036
507.562
480.306
470.593
498.141
544.323
591.211
638.713
686.746
735.232
784.104
833.297
882.749
932.399
982.184
1032.04
1081.9
1131.68
1181.29
1230.64
1279.61
1328.04
1375.75
1422.5
1468
1511.74
1553.04
1591.79
1626.66
2881.51
16326.7
1622.77
1566.26
1504.04
1436.97
1365.81
1291.28
1214.12
1135.06
1054.97
974.775
895.339
818.195
745.608
680.146
624.425
580.609
549.712
531.056
522.401
520.764
523.34
528.014
533.371
538.563
543.121
546.794
549.452
551.027
551.486
550.812
549.001
546.054
541.975
536.774
530.461
523.051
514.562
505.027
508.667
525.179
540.091
553.371
565
574.975
583.313
590.054
595.277
599.104
601.72
603.379
604.412
605.224
606.264
607.978
610.725
614.69
619.815
625.771
631.998
637.799
642.448
645.28
645.754
643.473
638.178
629.726
618.069
603.222
585.251
564.249
540.332
513.628
508.53
540.557
586.645
633.273
680.348
727.791
775.53
823.496
871.635
919.892
968.215
1016.55
1064.86
1113.07
1161.13
1208.97
1256.52
1303.67
1350.3
1396.26
1441.35
1485.3
1527.66
1567.72
1605.43
1639.47
1668.35
17550.7
1642.3
1587.69
1527.08
1461.4
1391.44
1317.93
1241.57
1163.08
1083.26
1003.04
923.261
845.332
771.484
704.309
646.516
600.447
567.364
546.835
536.753
534.119
536.012
540.183
545.114
549.884
553.989
557.158
559.253
560.206
559.985
558.578
555.984
552.21
547.265
541.163
533.918
525.548
516.077
505.535
509.41
527.396
543.769
558.492
571.541
582.907
592.601
600.658
607.151
612.2
615.987
618.765
620.871
622.716
624.758
627.45
631.161
636.078
642.141
649.014
656.128
662.777
668.224
671.802
672.967
671.322
666.611
658.696
647.535
633.15
615.614
595.031
571.524
545.23
546.238
584.32
630.231
676.493
723.013
769.712
816.523
863.386
910.245
957.055
1003.77
1050.37
1096.79
1143.01
1188.97
1234.65
1279.97
1324.86
1369.25
1413
1455.95
1497.88
1538.5
1577.01
1613.61
1647.17
1676.64
17999.9
1656.29
1604.37
1546.04
1482.39
1414.28
1342.43
1267.5
1190.17
1111.2
1031.45
951.763
873.402
798.525
729.747
669.869
621.428
585.972
563.369
551.694
547.955
549.115
552.771
557.282
561.643
565.3
567.96
569.477
569.781
568.844
566.661
563.238
558.588
552.729
545.681
537.464
528.102
517.619
506.053
510.155
529.628
547.484
563.682
578.194
591.003
602.112
611.548
619.376
625.708
630.72
634.664
637.876
640.77
643.811
647.462
652.095
657.904
664.828
672.523
680.413
687.781
693.885
698.051
699.737
698.548
694.234
686.663
675.8
661.68
644.384
624.026
600.743
575.453
584.543
629.953
675.603
721.389
767.218
813.013
858.707
904.247
949.586
994.68
1039.5
1084.01
1128.2
1172.03
1215.49
1258.55
1301.18
1343.33
1384.96
1425.98
1466.28
1505.7
1544.01
1580.64
1615.39
1647.98
1677.24
16849.2
1662.91
1614.64
1559.33
1498.45
1432.95
1363.56
1290.87
1215.51
1138.13
1059.55
980.55
902.266
826.749
756.618
694.771
643.96
606.059
581.285
567.943
563.064
563.477
566.605
570.666
574.563
577.696
579.752
580.583
580.124
578.356
575.283
570.923
565.298
558.436
550.366
541.115
530.712
519.187
506.576
510.892
531.837
551.175
568.863
584.862
599.147
611.708
622.561
631.757
639.4
645.66
650.786
655.115
659.068
663.118
667.734
673.296
679.997
687.767
696.253
704.862
712.864
719.508
724.116
726.148
725.215
721.076
713.613
702.804
688.698
671.391
651.013
627.715
612.781
632.613
677.92
723.229
768.431
813.436
858.167
902.559
946.562
990.134
1033.25
1075.87
1117.98
1159.57
1200.63
1241.15
1281.14
1320.57
1359.45
1397.75
1435.45
1472.48
1508.75
1544.09
1578.06
1610.51
1641.29
1669.38
14032.1
4240.54
1618.62
1565.86
1508.11
1445.98
1379.99
1310.58
1238.22
1163.45
1086.98
1009.53
932.071
856.485
785.366
721.692
668.445
627.874
600.626
585.322
579.077
578.605
581.141
584.734
588.17
590.783
592.23
592.35
591.081
588.416
584.374
578.988
572.298
564.347
555.179
544.833
533.347
520.756
507.098
511.628
534.073
554.958
574.234
591.855
607.783
621.992
634.477
645.27
654.453
662.176
668.67
674.26
679.36
684.444
689.986
696.375
703.809
712.219
721.242
730.278
738.59
745.427
750.121
752.139
751.107
746.797
739.107
728.03
713.629
696.018
675.341
651.763
650.124
683.834
728.955
773.812
818.297
862.322
905.81
948.704
990.954
1032.53
1073.39
1113.54
1152.95
1191.62
1229.55
1266.76
1303.24
1339.01
1374.09
1408.49
1442.2
1475.23
1507.55
1539.08
1569.51
1598.69
1626.65
1652.59
10721.1
7634.96
1614.75
1564.91
1510.79
1452.69
1390.87
1325.6
1257.2
1186.04
1112.69
1037.81
962.162
887.412
816.077
751.182
695.922
652.939
623.368
606.215
598.702
597.408
599.341
602.354
605.112
606.902
607.381
606.409
603.952
600.028
594.683
587.972
579.957
570.7
560.258
548.685
536.026
522.323
507.611
512.316
536.14
558.474
579.277
598.487
616.042
631.887
645.988
658.348
669.027
678.162
685.985
692.829
699.116
705.295
711.819
719.073
727.255
736.292
745.817
755.226
763.784