/*--------------------------------*- C++ -*----------------------------------*\
  =========                 |
  \\      /  F ield         | OpenFOAM: The Open Source CFD Toolbox
   \\    /   O peration     | Website:  https://openfoam.org
    \\  /    A nd           | Version:  8
     \\/     M anipulation  |
\*---------------------------------------------------------------------------*/
FoamFile
{
    version     2.0;
    format      ascii;
    class       volScalarField;
    location    "780/fluid";
    object      rho;
}
// * * * * * * * * * * * * * * * * * * * * * * * * * * * * * * * * * * * * * //

dimensions      [1 -3 0 0 0 0 0];

internalField   nonuniform List<scalar> 
4000
(
0.658526
0.658499
0.658454
0.658379
0.658254
0.658046
0.657704
0.657146
0.656245
0.65481
0.652563
0.649114
0.643951
0.636453
0.625954
0.611874
0.5939
0.572152
0.54726
0.520264
0.492392
0.464794
0.438368
0.413687
0.39103
0.370454
0.351879
0.335143
0.320056
0.306424
0.294067
0.282822
0.272551
0.263137
0.254483
0.246491
0.239057
0.23212
0.225629
0.219541
0.213819
0.208431
0.203351
0.198557
0.194029
0.189751
0.185711
0.181897
0.1783
0.174913
0.171733
0.168756
0.165983
0.163417
0.161065
0.158939
0.157057
0.15547
0.154203
0.153265
0.152772
0.15284
0.154259
0.16315
0.173657
0.185999
0.200471
0.217468
0.237504
0.261252
0.289584
0.323624
0.364815
0.415115
0.476893
0.552318
0.642524
0.745886
0.855822
0.96039
1.04657
1.10738
1.14461
1.16484
1.17498
1.17981
1.18204
1.18304
1.18349
1.18368
1.18376
1.1838
1.18381
1.18382
1.18382
1.18382
1.18382
1.18382
1.18382
1.18382
0.658526
0.658499
0.658454
0.658379
0.658253
0.658044
0.6577
0.657139
0.656234
0.654796
0.652549
0.649111
0.643979
0.636548
0.626173
0.612286
0.594572
0.573128
0.54854
0.521801
0.494102
0.466583
0.440148
0.41539
0.392613
0.371896
0.35317
0.336289
0.321065
0.307309
0.294839
0.283494
0.273134
0.263641
0.254917
0.246864
0.239376
0.232391
0.225857
0.219731
0.213974
0.208555
0.203447
0.198628
0.194077
0.189779
0.18572
0.18189
0.178278
0.174879
0.171687
0.1687
0.165919
0.163345
0.160987
0.158856
0.15697
0.15538
0.154113
0.153174
0.152682
0.152757
0.154942
0.163996
0.1747
0.187284
0.202062
0.219448
0.239987
0.26439
0.293579
0.328746
0.371421
0.423684
0.487946
0.566262
0.659355
0.764707
0.874529
0.976239
1.05771
1.11389
1.14784
1.16628
1.17557
1.18004
1.18213
1.18308
1.1835
1.18368
1.18376
1.1838
1.18381
1.18382
1.18382
1.18382
1.18382
1.18382
1.18382
1.18382
0.658526
0.658499
0.658454
0.658378
0.658252
0.658042
0.657697
0.657134
0.656227
0.654787
0.652541
0.64911
0.644002
0.636623
0.62634
0.612596
0.595078
0.573872
0.549536
0.523032
0.495518
0.468119
0.441733
0.416965
0.394131
0.373325
0.354495
0.337501
0.322164
0.308298
0.295725
0.284283
0.273833
0.264257
0.255456
0.247335
0.239785
0.232743
0.226156
0.219981
0.214179
0.208719
0.203573
0.198719
0.194136
0.189808
0.185723
0.181867
0.178234
0.174815
0.171606
0.168604
0.165809
0.163224
0.160856
0.158718
0.156827
0.155236
0.153969
0.153035
0.152554
0.152643
0.156167
0.165447
0.176439
0.189385
0.204616
0.222573
0.24383
0.26914
0.299477
0.336089
0.380582
0.435111
0.502008
0.583048
0.678356
0.784471
0.892734
0.990618
1.06733
1.11942
1.15064
1.1676
1.17616
1.18029
1.18223
1.18312
1.18351
1.18369
1.18377
1.1838
1.18381
1.18382
1.18382
1.18382
1.18382
1.18382
1.18382
1.18382
0.658526
0.658499
0.658454
0.658378
0.658252
0.658043
0.657699
0.657138
0.656235
0.654804
0.652576
0.649176
0.644121
0.636823
0.626658
0.613072
0.595747
0.574753
0.550624
0.524294
0.496905
0.469571
0.443197
0.418396
0.395497
0.374607
0.355683
0.33859
0.323157
0.309198
0.296536
0.285011
0.274483
0.264833
0.255963
0.24778
0.240172
0.233076
0.226439
0.220217
0.214371
0.208869
0.203684
0.198793
0.194176
0.189817
0.185703
0.181821
0.178164
0.174724
0.171496
0.168477
0.165668
0.163072
0.160696
0.158552
0.156658
0.155072
0.153814
0.152891
0.152424
0.15254
0.157716
0.167245
0.178561
0.191918
0.207664
0.226261
0.248316
0.274617
0.306184
0.344319
0.390702
0.447543
0.517063
0.600747
0.698126
0.804834
0.911417
1.00546
1.07743
1.12539
1.1538
1.16913
1.17687
1.18061
1.18237
1.18318
1.18354
1.1837
1.18377
1.1838
1.18381
1.18382
1.18382
1.18382
1.18382
1.18382
1.18382
1.18382
0.658526
0.658499
0.658454
0.658379
0.658253
0.658045
0.657702
0.657145
0.656248
0.654827
0.652616
0.649246
0.644237
0.63701
0.626947
0.613496
0.596334
0.575519
0.551564
0.525381
0.498096
0.470816
0.44445
0.419619
0.396664
0.375702
0.356696
0.33952
0.324004
0.309965
0.297228
0.285632
0.275037
0.265324
0.256395
0.248157
0.240499
0.233355
0.226673
0.220408
0.214522
0.208982
0.203761
0.198836
0.194187
0.189799
0.185657
0.181751
0.178072
0.174612
0.171366
0.168333
0.165513
0.162909
0.160528
0.158382
0.156492
0.154921
0.153674
0.152768
0.152331
0.152503
0.159372
0.169148
0.180799
0.194585
0.210865
0.230123
0.252992
0.280297
0.3131
0.352747
0.401002
0.460096
0.532102
0.618192
0.717277
0.824127
0.928662
1.01879
1.08631
1.13057
1.15652
1.17046
1.17749
1.18089
1.18249
1.18323
1.18356
1.18371
1.18377
1.1838
1.18381
1.18382
1.18382
1.18382
1.18382
1.18382
1.18382
1.18382
0.658526
0.658499
0.658455
0.65838
0.658255
0.658048
0.657708
0.657155
0.656265
0.654858
0.652667
0.64933
0.644371
0.637216
0.627251
0.613925
0.596909
0.576245
0.552431
0.526361
0.49915
0.471902
0.445529
0.420661
0.39765
0.37662
0.357542
0.340292
0.324704
0.310597
0.297795
0.286139
0.275487
0.265721
0.256741
0.248456
0.240755
0.23357
0.226849
0.220547
0.214626
0.209052
0.203799
0.198845
0.194169
0.189755
0.185589
0.181662
0.177963
0.174486
0.171228
0.168184
0.165357
0.16275
0.16037
0.15823
0.15635
0.154795
0.153564
0.152682
0.152274
0.152482
0.160774
0.170858
0.182891
0.197136
0.213968
0.233891
0.257566
0.285853
0.319853
0.360958
0.411014
0.472244
0.546577
0.634861
0.735396
0.842161
0.944581
1.03099
1.09441
1.13532
1.15904
1.17171
1.17808
1.18116
1.18261
1.18328
1.18358
1.18372
1.18378
1.1838
1.18381
1.18382
1.18382
1.18382
1.18382
1.18382
1.18382
1.18382
0.658526
0.6585
0.658455
0.658381
0.658257
0.658052
0.657714
0.657166
0.656284
0.654888
0.652717
0.649411
0.644497
0.637408
0.62753
0.614314
0.597422
0.576888
0.553191
0.527213
0.500059
0.472831
0.446445
0.421541
0.398477
0.377385
0.358241
0.340926
0.325275
0.311109
0.298251
0.286543
0.275842
0.266031
0.257008
0.248683
0.240946
0.233726
0.226972
0.220638
0.214686
0.209084
0.203805
0.198825
0.194126
0.18969
0.185505
0.181559
0.177845
0.174356
0.171087
0.168038
0.165208
0.162604
0.160232
0.158108
0.156251
0.154741
0.153523
0.152704
0.152371
0.15266
0.161574
0.172176
0.184699
0.199455
0.216855
0.237434
0.261888
0.291114
0.326252
0.368742
0.420504
0.483733
0.56021
0.650455
0.752174
0.858619
0.958854
1.04173
1.10144
1.1394
1.16121
1.17278
1.17859
1.1814
1.18272
1.18333
1.18361
1.18373
1.18378
1.1838
1.18381
1.18382
1.18382
1.18382
1.18382
1.18382
1.18382
1.18382
0.658526
0.6585
0.658456
0.658382
0.658259
0.658056
0.657721
0.657176
0.656302
0.654918
0.652767
0.649489
0.644617
0.637587
0.627788
0.614667
0.597883
0.577457
0.553858
0.527952
0.500839
0.473621
0.447218
0.422277
0.399163
0.378014
0.358812
0.34144
0.325734
0.311516
0.298611
0.286858
0.276117
0.266266
0.257207
0.248849
0.241081
0.233831
0.227049
0.220688
0.214711
0.209086
0.203785
0.198784
0.194065
0.189611
0.185409
0.18145
0.177724
0.174225
0.17095
0.167897
0.165068
0.162469
0.160109
0.158004
0.156189
0.15473
0.15359
0.152898
0.152769
0.153403
0.162629
0.173578
0.186486
0.201679
0.219584
0.24076
0.26593
0.296022
0.332214
0.375992
0.429338
0.494411
0.57284
0.664818
0.767485
0.873452
0.971536
1.05115
1.10755
1.14294
1.16308
1.17372
1.17903
1.1816
1.18281
1.18337
1.18362
1.18374
1.18378
1.18381
1.18381
1.18382
1.18382
1.18382
1.18382
1.18382
1.18382
1.18382
0.658526
0.6585
0.658456
0.658383
0.658261
0.658059
0.657727
0.657187
0.656319
0.654947
0.652812
0.64956
0.644726
0.637748
0.628016
0.614977
0.598285
0.577951
0.554431
0.528584
0.501501
0.474287
0.447865
0.422888
0.399728
0.378529
0.359275
0.341853
0.3261
0.311838
0.298892
0.287101
0.276324
0.266441
0.257352
0.248965
0.241171
0.233897
0.227091
0.220708
0.214711
0.209066
0.203746
0.198728
0.193992
0.189524
0.18531
0.181339
0.177603
0.174097
0.170818
0.167763
0.164936
0.162342
0.159992
0.157904
0.156117
0.15469
0.153596
0.152968
0.152935
0.154276
0.163761
0.174994
0.188227
0.203796
0.222147
0.243857
0.269674
0.300555
0.33771
0.382673
0.437476
0.504227
0.584407
0.677893
0.781296
0.886666
0.982669
1.0593
1.11278
1.14594
1.16467
1.17451
1.17941
1.18178
1.18289
1.18341
1.18364
1.18374
1.18379
1.18381
1.18382
1.18382
1.18382
1.18382
1.18382
1.18382
1.18382
1.18382
0.658526
0.6585
0.658457
0.658384
0.658263
0.658062
0.657732
0.657196
0.656335
0.654972
0.652852
0.649623
0.644822
0.637889
0.628216
0.615248
0.598633
0.578375
0.55492
0.529118
0.502059
0.474843
0.448401
0.423391
0.400189
0.378946
0.359647
0.342182
0.326388
0.312088
0.299107
0.287284
0.276478
0.266568
0.257453
0.249043
0.241226
0.233932
0.227106
0.220706
0.214691
0.20903
0.203695
0.198663
0.193915
0.189435
0.18521
0.181231
0.177488
0.173977
0.170694
0.167637
0.164811
0.16222
0.159876
0.157795
0.15602
0.154602
0.153514
0.152884
0.152827
0.155246
0.164922
0.176382
0.189884
0.205775
0.224514
0.246696
0.27309
0.304679
0.342702
0.388742
0.444862
0.513125
0.594865
0.689655
0.793617
0.898321
0.992362
1.06631
1.11724
1.14849
1.16602
1.17517
1.17973
1.18193
1.18296
1.18344
1.18365
1.18375
1.18379
1.18381
1.18382
1.18382
1.18382
1.18382
1.18382
1.18382
1.18382
1.18382
0.658526
0.658501
0.658457
0.658385
0.658265
0.658065
0.657737
0.657204
0.656349
0.654994
0.652888
0.649678
0.644906
0.638012
0.628388
0.61548
0.598929
0.578734
0.555332
0.529567
0.502523
0.475304
0.448843
0.423802
0.400564
0.379282
0.359944
0.342441
0.326613
0.312281
0.299271
0.287421
0.27659
0.266657
0.25752
0.249091
0.241257
0.233945
0.227104
0.220689
0.21466
0.208986
0.203638
0.198595
0.193837
0.189348
0.185115
0.181129
0.177381
0.173866
0.170581
0.167524
0.164698
0.162109
0.159768
0.157692
0.155924
0.154512
0.153427
0.152798
0.152737
0.156199
0.166033
0.177684
0.191417
0.207589
0.22667
0.24927
0.276177
0.308397
0.347196
0.3942
0.451503
0.521112
0.604225
0.700128
0.804502
0.908505
1.00073
1.0723
1.12101
1.15064
1.16715
1.17574
1.18
1.18205
1.18302
1.18346
1.18366
1.18375
1.18379
1.18381
1.18382
1.18382
1.18382
1.18382
1.18382
1.18382
1.18382
1.18382
0.658526
0.658501
0.658458
0.658386
0.658266
0.658068
0.657742
0.657212
0.656361
0.655014
0.652919
0.649726
0.644977
0.638116
0.628535
0.615676
0.599179
0.579035
0.555676
0.529939
0.502907
0.475683
0.449203
0.424135
0.400865
0.379549
0.360179
0.342644
0.326787
0.312428
0.299393
0.287521
0.27667
0.266718
0.257564
0.249119
0.241269
0.233944
0.22709
0.220663
0.214623
0.208938
0.203581
0.198529
0.193763
0.189267
0.185029
0.181038
0.177286
0.173769
0.170482
0.167425
0.164601
0.162015
0.159678
0.157607
0.155845
0.154438
0.153358
0.152731
0.15267
0.157054
0.167033
0.178855
0.192792
0.20921
0.22859
0.251557
0.278915
0.311691
0.351176
0.39904
0.457395
0.528191
0.612501
0.709345
0.814013
0.917323
1.0079
1.07737
1.12419
1.15244
1.16809
1.1762
1.18022
1.18216
1.18306
1.18348
1.18367
1.18376
1.18379
1.18381
1.18382
1.18382
1.18382
1.18382
1.18382
1.18382
1.18382
1.18382
0.658526
0.658501
0.658458
0.658387
0.658267
0.65807
0.657745
0.657218
0.656371
0.65503
0.652945
0.649766
0.645038
0.638204
0.628657
0.615839
0.599387
0.579285
0.55596
0.530245
0.50322
0.475991
0.449495
0.424403
0.401106
0.379762
0.360363
0.342802
0.32692
0.312539
0.299484
0.287594
0.276726
0.266758
0.25759
0.249132
0.241271
0.233934
0.22707
0.220633
0.214584
0.208891
0.203527
0.198468
0.193696
0.189195
0.184952
0.180958
0.177204
0.173686
0.170399
0.167343
0.164521
0.161939
0.159606
0.15754
0.155783
0.154382
0.153307
0.152683
0.152621
0.157793
0.167904
0.179878
0.193995
0.210628
0.230268
0.253555
0.281307
0.314571
0.354657
0.403277
0.462554
0.534384
0.619723
0.717356
0.822227
0.924872
1.01398
1.08164
1.12684
1.15393
1.16888
1.17659
1.18041
1.18224
1.1831
1.1835
1.18368
1.18376
1.1838
1.18381
1.18382
1.18382
1.18382
1.18382
1.18382
1.18382
1.18382
1.18382
0.658526
0.658501
0.658459
0.658387
0.658268
0.658072
0.657749
0.657223
0.656379
0.655044
0.652967
0.6498
0.645088
0.638277
0.628759
0.615974
0.599557
0.57949
0.556192
0.530494
0.503474
0.476239
0.449728
0.424616
0.401296
0.379928
0.360506
0.342924
0.327022
0.312623
0.299552
0.287646
0.276764
0.266784
0.257605
0.249137
0.241266
0.233921
0.227048
0.220604
0.214548
0.208848
0.203478
0.198414
0.193638
0.189133
0.184888
0.180892
0.177137
0.173618
0.170333
0.167279
0.16446
0.161881
0.159553
0.157491
0.15574
0.154344
0.153273
0.152651
0.152588
0.158417
0.168646
0.180754
0.195027
0.211846
0.231712
0.255274
0.283366
0.31705
0.357655
0.406927
0.466996
0.539714
0.62593
0.724217
0.829223
0.931254
1.01907
1.08519
1.12903
1.15516
1.16952
1.17691
1.18056
1.18231
1.18314
1.18352
1.18369
1.18376
1.1838
1.18381
1.18382
1.18382
1.18382
1.18382
1.18382
1.18382
1.18382
1.18382
0.658526
0.658501
0.658459
0.658388
0.658269
0.658073
0.657751
0.657227
0.656386
0.655055
0.652984
0.649827
0.645129
0.638336
0.628841
0.616083
0.599695
0.579654
0.556378
0.530693
0.503677
0.476435
0.449913
0.424784
0.401445
0.380058
0.360617
0.343017
0.327099
0.312685
0.299601
0.287683
0.276791
0.266801
0.257613
0.249136
0.241258
0.233906
0.227028
0.220577
0.214516
0.208812
0.203437
0.19837
0.193591
0.189084
0.184837
0.18084
0.177085
0.173567
0.170283
0.167232
0.164416
0.161841
0.159516
0.15746
0.155715
0.154323
0.153255
0.152633
0.152568
0.158935
0.169268
0.181493
0.195899
0.212877
0.232934
0.256729
0.285108
0.319146
0.360191
0.410014
0.470754
0.544221
0.631169
0.729991
0.835082
0.936566
1.02329
1.08811
1.13082
1.15617
1.17005
1.17717
1.18069
1.18237
1.18316
1.18353
1.18369
1.18377
1.1838
1.18381
1.18382
1.18382
1.18382
1.18382
1.18382
1.18382
1.18382
1.18382
0.658526
0.658501
0.658459
0.658388
0.65827
0.658074
0.657753
0.657231
0.656392
0.655064
0.652999
0.649849
0.645162
0.638383
0.628906
0.61617
0.599804
0.579784
0.556524
0.530849
0.503835
0.476589
0.450056
0.424914
0.40156
0.380157
0.360701
0.343087
0.327157
0.312731
0.299637
0.28771
0.276809
0.266812
0.257617
0.249135
0.241251
0.233893
0.22701
0.220555
0.214491
0.208783
0.203406
0.198336
0.193555
0.189047
0.184799
0.180802
0.177049
0.173532
0.17025
0.167201
0.164388
0.161817
0.159497
0.157445
0.155705
0.154317
0.15325
0.152627
0.152559
0.159357
0.169781
0.182103
0.196621
0.21373
0.233945
0.257932
0.286547
0.320877
0.362284
0.412563
0.473855
0.547936
0.635482
0.734731
0.839874
0.940889
1.0267
1.09046
1.13226
1.15697
1.17047
1.17738
1.18079
1.18242
1.18318
1.18354
1.1837
1.18377
1.1838
1.18381
1.18382
1.18382
1.18382
1.18382
1.18382
1.18382
1.18382
1.18382
0.658526
0.658501
0.658459
0.658388
0.658271
0.658075
0.657755
0.657234
0.656396
0.655071
0.65301
0.649866
0.645187
0.63842
0.628957
0.616236
0.599888
0.579884
0.556636
0.530968
0.503955
0.476705
0.450164
0.425011
0.401645
0.38023
0.360763
0.343139
0.327199
0.312765
0.299662
0.287729
0.276822
0.26682
0.25762
0.249133
0.241245
0.233885
0.226998
0.22054
0.214473
0.208763
0.203384
0.198313
0.193531
0.189022
0.184775
0.180778
0.177025
0.173511
0.170231
0.167185
0.164375
0.161808
0.159492
0.157443
0.155707
0.154321
0.153254
0.152628
0.152555
0.159688
0.170188
0.182592
0.197201
0.214415
0.234756
0.258895
0.287697
0.322258
0.363951
0.414592
0.47632
0.550886
0.638899
0.738477
0.843647
0.94428
1.02936
1.09229
1.13338
1.15759
1.17079
1.17754
1.18086
1.18246
1.1832
1.18354
1.1837
1.18377
1.1838
1.18381
1.18382
1.18382
1.18382
1.18382
1.18382
1.18382
1.18382
1.18382
0.658526
0.658501
0.658459
0.658389
0.658271
0.658076
0.657756
0.657236
0.6564
0.655077
0.653018
0.649879
0.645206
0.638446
0.628993
0.616285
0.599948
0.579955
0.556717
0.531054
0.504041
0.476788
0.450242
0.425081
0.401707
0.380283
0.360808
0.343176
0.327229
0.312789
0.299681
0.287743
0.276831
0.266825
0.257623
0.249133
0.241243
0.23388
0.226991
0.220532
0.214463
0.208752
0.203371
0.198299
0.193517
0.189009
0.184762
0.180766
0.177015
0.173502
0.170225
0.167182
0.164376
0.161811
0.159499
0.157453
0.155717
0.154329
0.153255
0.152613
0.152509
0.159938
0.1705
0.182968
0.197646
0.21494
0.235374
0.259626
0.288567
0.3233
0.365207
0.416115
0.478168
0.553092
0.641448
0.741262
0.846441
0.946779
1.03132
1.09364
1.1342
1.15805
1.17103
1.17766
1.18092
1.18248
1.18321
1.18355
1.1837
1.18377
1.1838
1.18381
1.18382
1.18382
1.18382
1.18382
1.18382
1.18382
1.18382
1.18382
0.658526
0.658501
0.658459
0.658389
0.658271
0.658077
0.657757
0.657237
0.656402
0.65508
0.653023
0.649887
0.645217
0.638463
0.629017
0.616316
0.599987
0.580002
0.556769
0.531109
0.504097
0.476842
0.450291
0.425126
0.401746
0.380317
0.360836
0.343199
0.327248
0.312804
0.299693
0.287752
0.276838
0.26683
0.257626
0.249135
0.241243
0.233879
0.226989
0.220528
0.214458
0.208747
0.203366
0.198294
0.193512
0.189004
0.184758
0.180764
0.177014
0.173503
0.170228
0.167188
0.164385
0.161824
0.159515
0.157471
0.155736
0.154348
0.153269
0.152617
0.152496
0.160096
0.170709
0.183225
0.197953
0.215302
0.235799
0.260127
0.289161
0.324007
0.366054
0.41714
0.479406
0.554564
0.643143
0.743105
0.848279
0.948414
1.03259
1.09451
1.13474
1.15835
1.17119
1.17773
1.18096
1.1825
1.18322
1.18355
1.1837
1.18377
1.1838
1.18381
1.18382
1.18382
1.18382
1.18382
1.18382
1.18382
1.18382
1.18382
0.658526
0.658501
0.658459
0.658389
0.658271
0.658077
0.657757
0.657237
0.656403
0.655082
0.653026
0.64989
0.645223
0.638471
0.629028
0.616331
0.600006
0.580024
0.556794
0.531135
0.504124
0.476868
0.450315
0.425147
0.401765
0.380333
0.36085
0.34321
0.327257
0.312811
0.299699
0.287756
0.276841
0.266832
0.257627
0.249136
0.241244
0.23388
0.226989
0.220529
0.214458
0.208747
0.203366
0.198294
0.193512
0.189005
0.184759
0.180766
0.177018
0.173509
0.170236
0.167198
0.164397
0.161839
0.159532
0.157491
0.155758
0.154369
0.153289
0.152631
0.152496
0.160176
0.170821
0.183365
0.198119
0.215495
0.236023
0.260388
0.289466
0.324367
0.366481
0.417651
0.480017
0.555285
0.643966
0.743993
0.849158
0.949188
1.03319
1.09492
1.13499
1.15849
1.17126
1.17777
1.18097
1.18251
1.18323
1.18356
1.1837
1.18377
1.1838
1.18381
1.18382
1.18382
1.18382
1.18382
1.18382
1.18382
1.18382
1.18382
0.658526
0.658501
0.658459
0.658389
0.658271
0.658077
0.657757
0.657237
0.656403
0.655082
0.653026
0.64989
0.645223
0.638471
0.629028
0.616331
0.600006
0.580024
0.556794
0.531135
0.504124
0.476868
0.450315
0.425147
0.401764
0.380332
0.360849
0.34321
0.327257
0.312811
0.299698
0.287756
0.276841
0.266832
0.257627
0.249136
0.241244
0.233879
0.226989
0.220528
0.214458
0.208746
0.203366
0.198294
0.193512
0.189005
0.184759
0.180766
0.177018
0.173509
0.170236
0.167198
0.164397
0.161839
0.159532
0.157491
0.155757
0.154369
0.153289
0.15263
0.152496
0.160176
0.170821
0.183365
0.198119
0.215495
0.236023
0.260388
0.289466
0.324367
0.366481
0.417651
0.480017
0.555285
0.643966
0.743992
0.849157
0.949188
1.03319
1.09492
1.13499
1.15849
1.17126
1.17777
1.18097
1.18251
1.18323
1.18356
1.1837
1.18377
1.1838
1.18381
1.18382
1.18382
1.18382
1.18382
1.18382
1.18382
1.18382
1.18382
0.658526
0.658501
0.658459
0.658389
0.658271
0.658077
0.657757
0.657237
0.656402
0.65508
0.653023
0.649887
0.645217
0.638463
0.629017
0.616316
0.599987
0.580002
0.556769
0.531109
0.504097
0.476842
0.450291
0.425125
0.401745
0.380316
0.360836
0.343199
0.327247
0.312804
0.299692
0.287751
0.276838
0.26683
0.257625
0.249134
0.241243
0.233879
0.226989
0.220528
0.214458
0.208747
0.203366
0.198294
0.193512
0.189004
0.184758
0.180763
0.177014
0.173503
0.170228
0.167188
0.164385
0.161824
0.159515
0.157471
0.155736
0.154347
0.153269
0.152617
0.152496
0.160096
0.170709
0.183224
0.197953
0.215301
0.235798
0.260127
0.28916
0.324006
0.366053
0.417139
0.479405
0.554563
0.643141
0.743103
0.848278
0.948413
1.03259
1.09451
1.13474
1.15835
1.17119
1.17773
1.18096
1.1825
1.18322
1.18355
1.1837
1.18377
1.1838
1.18381
1.18382
1.18382
1.18382
1.18382
1.18382
1.18382
1.18382
1.18382
0.658526
0.658501
0.658459
0.658389
0.658271
0.658076
0.657756
0.657236
0.6564
0.655077
0.653018
0.649878
0.645205
0.638446
0.628993
0.616284
0.599948
0.579955
0.556716
0.531053
0.504041
0.476788
0.450241
0.42508
0.401706
0.380282
0.360807
0.343175
0.327228
0.312788
0.29968
0.287742
0.276831
0.266825
0.257623
0.249133
0.241243
0.23388
0.226991
0.220531
0.214462
0.208751
0.203371
0.198299
0.193517
0.189008
0.184761
0.180766
0.177014
0.173502
0.170224
0.167181
0.164375
0.161811
0.159498
0.157452
0.155717
0.154329
0.153254
0.152612
0.152509
0.159938
0.1705
0.182967
0.197646
0.214939
0.235373
0.259626
0.288566
0.323299
0.365205
0.416114
0.478166
0.55309
0.641446
0.741259
0.846438
0.946777
1.03132
1.09364
1.1342
1.15805
1.17103
1.17766
1.18092
1.18248
1.18321
1.18355
1.1837
1.18377
1.1838
1.18381
1.18382
1.18382
1.18382
1.18382
1.18382
1.18382
1.18382
1.18382
0.658526
0.658501
0.658459
0.658388
0.658271
0.658075
0.657755
0.657234
0.656396
0.655071
0.65301
0.649866
0.645187
0.638419
0.628956
0.616236
0.599887
0.579883
0.556635
0.530967
0.503954
0.476704
0.450163
0.42501
0.401645
0.38023
0.360763
0.343138
0.327198
0.312764
0.299662
0.287728
0.276821
0.266819
0.25762
0.249133
0.241245
0.233884
0.226997
0.22054
0.214472
0.208763
0.203383
0.198312
0.19353
0.189022
0.184774
0.180778
0.177025
0.17351
0.17023
0.167184
0.164375
0.161807
0.159491
0.157443
0.155707
0.154321
0.153254
0.152628
0.152554
0.159687
0.170188
0.182592
0.197201
0.214415
0.234755
0.258894
0.287696
0.322257
0.36395
0.41459
0.476318
0.550883
0.638896
0.738473
0.843643
0.944276
1.02936
1.09229
1.13338
1.15759
1.17079
1.17754
1.18086
1.18246
1.1832
1.18354
1.1837
1.18377
1.1838
1.18381
1.18382
1.18382
1.18382
1.18382
1.18382
1.18382
1.18382
1.18382
0.658526
0.658501
0.658459
0.658388
0.65827
0.658074
0.657753
0.657231
0.656392
0.655064
0.652999
0.649849
0.645162
0.638383
0.628906
0.616169
0.599804
0.579783
0.556523
0.530848
0.503834
0.476588
0.450055
0.424913
0.401559
0.380156
0.3607
0.343086
0.327156
0.312731
0.299636
0.287709
0.276808
0.266811
0.257617
0.249134
0.24125
0.233893
0.22701
0.220555
0.21449
0.208783
0.203405
0.198335
0.193554
0.189046
0.184799
0.180802
0.177048
0.173532
0.170249
0.167201
0.164388
0.161816
0.159496
0.157444
0.155705
0.154316
0.15325
0.152627
0.152558
0.159356
0.16978
0.182102
0.19662
0.213729
0.233943
0.25793
0.286545
0.320875
0.362281
0.41256
0.473851
0.547932
0.635477
0.734726
0.839869
0.940884
1.02669
1.09046
1.13226
1.15697
1.17047
1.17738
1.18079
1.18242
1.18318
1.18354
1.1837
1.18377
1.1838
1.18381
1.18382
1.18382
1.18382
1.18382
1.18382
1.18382
1.18382
1.18382
0.658526
0.658501
0.658459
0.658388
0.658269
0.658073
0.657751
0.657227
0.656386
0.655055
0.652984
0.649827
0.645129
0.638336
0.62884
0.616083
0.599694
0.579653
0.556377
0.530691
0.503675
0.476434
0.449911
0.424783
0.401444
0.380056
0.360616
0.343016
0.327098
0.312684
0.2996
0.287682
0.27679
0.2668
0.257612
0.249136
0.241257
0.233905
0.227027
0.220576
0.214515
0.208811
0.203437
0.198369
0.19359
0.189083
0.184836
0.180839
0.177084
0.173567
0.170283
0.167232
0.164415
0.16184
0.159516
0.157459
0.155714
0.154322
0.153254
0.152632
0.152567
0.158934
0.169267
0.181492
0.195898
0.212875
0.232932
0.256727
0.285106
0.319144
0.360188
0.410011
0.47075
0.544216
0.631164
0.729985
0.835076
0.936561
1.02328
1.08811
1.13082
1.15617
1.17005
1.17717
1.18069
1.18237
1.18316
1.18353
1.18369
1.18377
1.1838
1.18381
1.18382
1.18382
1.18382
1.18382
1.18382
1.18382
1.18382
1.18382
0.658526
0.658501
0.658459
0.658387
0.658268
0.658072
0.657749
0.657223
0.656379
0.655044
0.652966
0.6498
0.645088
0.638276
0.628758
0.615973
0.599556
0.579488
0.55619
0.530492
0.503472
0.476237
0.449726
0.424615
0.401295
0.379927
0.360505
0.342923
0.327021
0.312622
0.29955
0.287645
0.276763
0.266783
0.257604
0.249136
0.241265
0.23392
0.227047
0.220603
0.214547
0.208848
0.203477
0.198414
0.193637
0.189133
0.184887
0.180891
0.177136
0.173618
0.170332
0.167278
0.164459
0.16188
0.159552
0.15749
0.155739
0.154343
0.153271
0.152649
0.152586
0.158416
0.168645
0.180753
0.195026
0.211845
0.231711
0.255273
0.283364
0.317047
0.357652
0.406923
0.466992
0.53971
0.625925
0.724211
0.829216
0.931248
1.01907
1.08519
1.12903
1.15516
1.16952
1.17691
1.18056
1.18231
1.18314
1.18352
1.18369
1.18376
1.1838
1.18381
1.18382
1.18382
1.18382
1.18382
1.18382
1.18382
1.18382
1.18382
0.658526
0.658501
0.658458
0.658387
0.658267
0.65807
0.657745
0.657218
0.656371
0.65503
0.652945
0.649766
0.645038
0.638203
0.628657
0.615838
0.599386
0.579284
0.555959
0.530243
0.503218
0.475989
0.449493
0.424401
0.401104
0.37976
0.360361
0.342801
0.326919
0.312538
0.299483
0.287593
0.276724
0.266757
0.257589
0.249131
0.24127
0.233934
0.227069
0.220632
0.214583
0.20889
0.203526
0.198467
0.193695
0.189194
0.184951
0.180957
0.177203
0.173685
0.170398
0.167342
0.16452
0.161938
0.159605
0.157538
0.155782
0.154381
0.153305
0.152682
0.15262
0.157793
0.167903
0.179877
0.193993
0.210626
0.230267
0.253553
0.281305
0.314568
0.354654
0.403273
0.46255
0.534379
0.619717
0.717349
0.82222
0.924865
1.01397
1.08164
1.12683
1.15393
1.16888
1.17659
1.18041
1.18224
1.1831
1.1835
1.18368
1.18376
1.1838
1.18381
1.18382
1.18382
1.18382
1.18382
1.18382
1.18382
1.18382
1.18382
0.658526
0.658501
0.658458
0.658386
0.658266
0.658068
0.657742
0.657212
0.656361
0.655014
0.652918
0.649726
0.644977
0.638116
0.628534
0.615675
0.599178
0.579034
0.555674
0.529937
0.502904
0.47568
0.449201
0.424133
0.400863
0.379548
0.360177
0.342643
0.326785
0.312427
0.299392
0.28752
0.276668
0.266717
0.257563
0.249118
0.241268
0.233943
0.227089
0.220662
0.214622
0.208937
0.20358
0.198528
0.193762
0.189266
0.185028
0.181037
0.177285
0.173768
0.170481
0.167424
0.1646
0.162014
0.159677
0.157606
0.155843
0.154436
0.153356
0.15273
0.152668
0.157054
0.167032
0.178854
0.192791
0.209209
0.228589
0.251556
0.278914
0.31169
0.351173
0.399037
0.457391
0.528186
0.612494
0.709338
0.814006
0.917316
1.00789
1.07737
1.12418
1.15243
1.16809
1.1762
1.18022
1.18216
1.18306
1.18348
1.18367
1.18376
1.18379
1.18381
1.18382
1.18382
1.18382
1.18382
1.18382
1.18382
1.18382
1.18382
0.658526
0.658501
0.658457
0.658385
0.658265
0.658065
0.657737
0.657204
0.656349
0.654994
0.652888
0.649678
0.644905
0.638011
0.628387
0.615478
0.598928
0.578732
0.55533
0.529564
0.50252
0.475302
0.44884
0.423799
0.400562
0.37928
0.359942
0.342439
0.326611
0.312279
0.299269
0.287419
0.276588
0.266655
0.257519
0.24909
0.241255
0.233944
0.227103
0.220688
0.214659
0.208985
0.203637
0.198594
0.193836
0.189347
0.185114
0.181128
0.17738
0.173865
0.17058
0.167523
0.164697
0.162108
0.159767
0.157691
0.155922
0.154511
0.153426
0.152797
0.152735
0.156198
0.166032
0.177683
0.191416
0.207587
0.226668
0.249267
0.276174
0.308393
0.347192
0.394196
0.451498
0.521106
0.604218
0.70012
0.804494
0.908498
1.00072
1.07229
1.12101
1.15064
1.16715
1.17574
1.18
1.18205
1.18302
1.18346
1.18366
1.18375
1.18379
1.18381
1.18382
1.18382
1.18382
1.18382
1.18382
1.18382
1.18382
1.18382
0.658526
0.6585
0.658457
0.658384
0.658263
0.658062
0.657732
0.657196
0.656335
0.654972
0.652852
0.649623
0.644822
0.637889
0.628215
0.615247
0.598631
0.578373
0.554918
0.529116
0.502056
0.47484
0.448399
0.423388
0.400187
0.378944
0.359645
0.34218
0.326386
0.312086
0.299105
0.287283
0.276476
0.266566
0.257451
0.249042
0.241225
0.23393
0.227105
0.220705
0.21469
0.209029
0.203694
0.198662
0.193914
0.189434
0.185209
0.18123
0.177487
0.173976
0.170692
0.167636
0.16481
0.162219
0.159875
0.157794
0.156018
0.154601
0.153513
0.152883
0.152826
0.155247
0.164922
0.176383
0.189885
0.205776
0.224516
0.246698
0.273092
0.304681
0.342703
0.388742
0.44486
0.513121
0.59486
0.689648
0.79361
0.898313
0.992356
1.06631
1.11723
1.14849
1.16602
1.17517
1.17973
1.18193
1.18296
1.18344
1.18365
1.18375
1.18379
1.18381
1.18382
1.18382
1.18382
1.18382
1.18382
1.18382
1.18382
1.18382
0.658526
0.6585
0.658456
0.658383
0.658261
0.658059
0.657727
0.657187
0.656319
0.654946
0.652811
0.649559
0.644725
0.637747
0.628015
0.614976
0.598283
0.577949
0.554428
0.528581
0.501499
0.474284
0.447862
0.422885
0.399725
0.378526
0.359273
0.341851
0.326098
0.311836
0.29889
0.287099
0.276322
0.26644
0.25735
0.248964
0.241169
0.233895
0.22709
0.220707
0.21471
0.209065
0.203745
0.198726
0.193991
0.189523
0.185309
0.181338
0.177602
0.174096
0.170817
0.167762
0.164935
0.162341
0.159991
0.157903
0.156116
0.154689
0.153595
0.152968
0.152934
0.154275
0.163759
0.174993
0.188225
0.203793
0.222143
0.243853
0.269669
0.300549
0.337703
0.382666
0.437468
0.504221
0.584401
0.677886
0.781288
0.886659
0.982663
1.05929
1.11278
1.14594
1.16467
1.17451
1.17941
1.18178
1.18289
1.18341
1.18364
1.18374
1.18379
1.18381
1.18382
1.18382
1.18382
1.18382
1.18382
1.18382
1.18382
1.18382
0.658526
0.6585
0.658456
0.658382
0.658259
0.658056
0.657721
0.657176
0.656302
0.654918
0.652766
0.649488
0.644617
0.637587
0.627787
0.614665
0.597881
0.577455
0.553855
0.527949
0.500836
0.473618
0.447215
0.422274
0.39916
0.378012
0.35881
0.341438
0.325732
0.311514
0.298609
0.286856
0.276115
0.266265
0.257206
0.248848
0.241079
0.23383
0.227048
0.220687
0.21471
0.209085
0.203784
0.198783
0.194064
0.18961
0.185409
0.181449
0.177723
0.174224
0.170949
0.167896
0.165067
0.162468
0.160108
0.158004
0.156188
0.154729
0.15359
0.152897
0.152769
0.153402
0.162628
0.173577
0.186486
0.201678
0.219583
0.240759
0.26593
0.296022
0.332213
0.375992
0.429337
0.494409
0.572835
0.664811
0.767478
0.873445
0.971529
1.05114
1.10755
1.14293
1.16308
1.17372
1.17903
1.1816
1.18281
1.18337
1.18362
1.18374
1.18378
1.18381
1.18381
1.18382
1.18382
1.18382
1.18382
1.18382
1.18382
1.18382
0.658526
0.6585
0.658455
0.658381
0.658257
0.658052
0.657714
0.657165
0.656284
0.654888
0.652717
0.64941
0.644497
0.637407
0.627529
0.614312
0.59742
0.576885
0.553188
0.52721
0.500056
0.472827
0.446442
0.421538
0.398474
0.377382
0.358238
0.340924
0.325273
0.311107
0.298249
0.286541
0.275841
0.266029
0.257006
0.248682
0.240944
0.233725
0.226971
0.220637
0.214685
0.209083
0.203804
0.198824
0.194125
0.189689
0.185504
0.181558
0.177844
0.174355
0.171086
0.168037
0.165208
0.162603
0.160231
0.158107
0.15625
0.15474
0.153522
0.152704
0.15237
0.15266
0.161573
0.172175
0.184699
0.199455
0.216854
0.237433
0.261887
0.291111