/*--------------------------------*- C++ -*----------------------------------*\
  =========                 |
  \\      /  F ield         | OpenFOAM: The Open Source CFD Toolbox
   \\    /   O peration     | Website:  https://openfoam.org
    \\  /    A nd           | Version:  8
     \\/     M anipulation  |
\*---------------------------------------------------------------------------*/
FoamFile
{
    version     2.0;
    format      ascii;
    class       volScalarField;
    location    "780/fluid";
    object      T;
}
// * * * * * * * * * * * * * * * * * * * * * * * * * * * * * * * * * * * * * //

dimensions      [0 0 0 1 0 0 0];

internalField   nonuniform List<scalar> 
4000
(
293.004
293.017
293.039
293.076
293.138
293.241
293.411
293.688
294.136
294.852
295.982
297.732
300.392
304.343
310.055
318.067
328.931
343.135
361.021
382.724
408.163
437.076
469.091
503.8
540.815
579.801
620.489
662.671
706.19
750.925
796.775
843.649
891.453
940.082
989.414
1039.38
1090.01
1141.21
1192.88
1244.92
1297.22
1349.68
1402.17
1454.58
1506.8
1558.68
1610.11
1660.95
1711.03
1760.22
1808.33
1855.18
1900.54
1944.15
1985.71
2024.83
2061.05
2093.3
2120.97
2144.13
2160.64
2168.67
2156.97
2046.98
1929.96
1808.05
1683
1556.3
1429.24
1302.98
1178.63
1057.28
940.078
827.924
722.069
624.538
537.66
463.73
404.558
360.769
331.221
313.123
302.988
297.751
295.195
293.991
293.439
293.192
293.083
293.035
293.015
293.006
293.003
293.001
293
293
293
293
293
293
293.004
293.017
293.039
293.077
293.139
293.242
293.413
293.691
294.141
294.859
295.988
297.734
300.378
304.292
309.933
317.827
328.511
342.471
360.055
381.417
406.501
435.073
466.781
501.232
538.043
576.879
617.467
659.594
703.096
747.849
793.747
840.696
888.601
937.354
986.831
1036.95
1087.75
1139.14
1191.01
1243.25
1295.77
1348.44
1401.16
1453.8
1506.24
1558.36
1610.01
1661.06
1711.37
1760.76
1809.07
1856.1
1901.63
1945.41
1987.12
2026.37
2062.71
2095.03
2122.76
2145.97
2162.49
2170.43
2148.06
2037
1919
1796.18
1670.27
1542.74
1414.9
1287.93
1162.96
1041.15
923.652
811.427
705.917
609.321
524.057
452.403
395.96
354.945
327.749
311.303
302.14
297.385
295.047
293.934
293.418
293.184
293.08
293.034
293.014
293.006
293.003
293.001
293
293
293
293
293
293
293.004
293.017
293.039
293.077
293.139
293.243
293.414
293.693
294.145
294.864
295.993
297.734
300.366
304.252
309.841
317.646
328.196
341.967
359.306
380.376
405.136
433.369
464.745
498.883
535.415
574.01
614.4
656.372
699.761
744.44
790.305
837.259
885.208
934.042
983.638
1033.91
1084.88
1136.46
1188.56
1241.06
1293.85
1346.82
1399.84
1452.8
1505.57
1558.02
1610.01
1661.4
1712.04
1761.75
1810.37
1857.7
1903.51
1947.55
1989.49
2028.96
2065.47
2097.89
2125.67
2148.87
2165.24
2172.98
2132.16
2020.07
1901
1777.11
1650.21
1521.82
1393.27
1265.8
1140.59
1018.85
901.797
790.425
686.383
591.957
509.503
441.088
387.937
349.822
324.811
309.774
301.407
297.052
294.9
293.871
293.392
293.173
293.076
293.032
293.014
293.006
293.002
293.001
293
293
293
293
293
293
293.004
293.017
293.039
293.077
293.139
293.243
293.413
293.692
294.141
294.855
295.975
297.7
300.304
304.145
309.665
317.369
327.78
341.371
358.493
379.315
403.809
431.77
462.88
496.769
533.072
571.464
611.679
653.503
696.775
741.368
787.179
834.114
882.079
930.966
980.653
1031.04
1082.17
1133.94
1186.25
1239
1292.07
1345.34
1398.69
1452
1505.13
1557.95
1610.32
1662.08
1713.09
1763.17
1812.14
1859.81
1905.93
1950.25
1992.45
2032.12
2068.79
2101.22
2128.93
2152.02
2168.24
2175.6
2112.38
1999.47
1879.46
1754.64
1626.9
1497.84
1368.85
1241.2
1116.16
994.965
878.819
768.775
666.632
574.688
495.195
430.007
380.034
344.689
321.782
308.138
300.588
296.664
294.723
293.793
293.358
293.159
293.07
293.03
293.013
293.005
293.002
293.001
293
293
293
293
293
293
293.004
293.017
293.039
293.076
293.139
293.242
293.412
293.688
294.134
294.844
295.955
297.665
300.244
304.045
309.505
317.123
327.416
340.855
357.793
378.407
402.676
430.41
461.297
494.977
531.088
569.311
609.377
651.078
694.25
738.77
784.534
831.451
879.429
928.362
978.13
1028.63
1079.89
1131.84
1184.36
1237.34
1290.67
1344.23
1397.9
1451.55
1505.03
1558.22
1610.95
1663.09
1714.47
1764.91
1814.23
1862.22
1908.64
1953.21
1995.61
2035.45
2072.16
2104.44
2132.07
2155
2170.82
2177.32
2091.63
1978.13
1857.28
1731.6
1603.12
1473.53
1344.27
1216.68
1092.04
971.64
856.604
748.083
648.004
558.625
482.08
420.011
373.02
340.202
319.165
306.733
299.884
296.328
294.569
293.724
293.327
293.146
293.064
293.028
293.012
293.005
293.002
293.001
293
293
293
293
293
293
293.004
293.017
293.039
293.076
293.138
293.24
293.409
293.683
294.125
294.829
295.929
297.622
300.174
303.936
309.337
316.874
327.06
340.367
357.15
377.591
401.68
429.231
459.943
493.46
529.424
567.516
607.47
649.078
692.177
736.645
782.379
829.291
877.289
926.272
976.118
1026.72
1078.12
1130.22
1182.93
1236.14
1289.72
1343.56
1397.53
1451.48
1505.29
1558.81
1611.9
1664.38
1716.1
1766.87
1816.49
1864.75
1911.4
1956.16
1998.68
2038.54
2075.24
2107.35
2134.86
2157.49
2172.92
2178.83
2074.56
1959.43
1837.07
1710.14
1580.74
1450.56
1321.08
1193.62
1069.48
949.941
836.061
729.091
631.032
544.094
470.295
411.077
366.771
336.199
316.815
305.456
299.233
296.014
294.422
293.657
293.298
293.133
293.058
293.025
293.011
293.005
293.002
293.001
293
293
293
293
293
293
293.004
293.017
293.039
293.075
293.137
293.238
293.406
293.678
294.116
294.813
295.904
297.581
300.108
303.834
309.183
316.649
326.743
339.937
356.588
376.885
400.824
428.227
458.8
492.188
528.038
566.032
605.904
647.446
690.497
734.934
780.657
827.578
875.608
924.646
974.574
1025.28
1076.8
1129.06
1181.95
1235.36
1289.17
1343.26
1397.49
1451.73
1505.84
1559.67
1613.07
1665.86
1717.87
1768.92
1818.8
1867.28
1914.09
1958.94
2001.46
2041.22
2077.69
2109.14
2136.76
2158.47
2172.8
2177.48
2065.4
1945.46
1820.03
1691.12
1560.47
1429.61
1299.88
1172.57
1048.93
930.243
817.473
711.988
615.836
531.166
459.885
403.249
361.343
332.752
314.804
304.367
298.679
295.745
294.295
293.599
293.272
293.121
293.053
293.023
293.01
293.004
293.002
293.001
293
293
293
293
293
293
293.004
293.017
293.038
293.075
293.136
293.237
293.402
293.672
294.107
294.798
295.879
297.541
300.046
303.738
309.042
316.445
326.459
339.557
356.097
376.275
400.092
427.378
457.84
491.129
526.894
564.816
604.632
646.131
689.154
733.578
779.305
826.247
874.318
923.417
973.427
1024.24
1075.88
1128.29
1181.35
1234.95
1288.96
1343.27
1397.74
1452.24
1506.61
1560.71
1614.38
1667.44
1719.71
1770.99
1821.08
1869.73
1916.67
1961.57
2004.06
2043.66
2079.6
2110.39
2136.96
2156.87
2168.25
2168.03
2053.01
1930.69
1803.45
1673.26
1541.78
1410.47
1280.65
1153.58
1030.49
912.615
800.901
696.802
602.399
519.79
450.778
396.445
356.653
329.786
313.076
303.43
298.199
295.511
294.185
293.548
293.249
293.111
293.049
293.021
293.009
293.004
293.002
293.001
293
293
293
293
293
293
293.004
293.017
293.038
293.074
293.135
293.235
293.399
293.667
294.099
294.784
295.856
297.505
299.99
303.653
308.916
316.266
326.212
339.227
355.676
375.756
399.474
426.665
457.041
490.255
525.956
563.828
603.605
645.079
688.09
732.515
778.257
825.229
873.346
922.509
972.6
1023.51
1075.27
1127.81
1181.02
1234.79
1288.99
1343.5
1398.19
1452.91
1507.52
1561.85
1615.75
1669.04
1721.53
1773.02
1823.28
1872.07
1919.1
1964.04
2006.48
2045.93
2081.5
2111.9
2137.85
2156.83
2166.85
2156.7
2039.71
1915.88
1787.53
1656.56
1524.6
1393.09
1263.33
1136.56
1014.03
896.926
786.189
683.375
590.575
509.836
442.862
390.573
352.635
327.261
311.612
302.638
297.794
295.313
294.091
293.504
293.229
293.102
293.045
293.02
293.008
293.004
293.002
293.001
293
293
293
293
293
293
293.004
293.017
293.038
293.074
293.134
293.233
293.397
293.663
294.091
294.771
295.836
297.473
299.94
303.578
308.806
316.11
325.998
338.945
355.318
375.317
398.955
426.071
456.38
489.537
525.192
563.029
602.783
644.245
687.254
731.69
777.455
824.464
872.63
921.857
972.029
1023.03
1074.9
1127.57
1180.92
1234.84
1289.2
1343.89
1398.77
1453.68
1508.49
1563.03
1617.13
1670.61
1723.28
1774.94
1825.35
1874.26
1921.38
1966.37
2008.83
2048.25
2083.69
2113.98
2139.85
2158.88
2169.23
2144.06
2026.13
1901.54
1772.6
1641.23
1509.07
1377.53
1247.94
1121.53
999.547
883.157
773.326
671.673
580.302
501.217
436.034
385.536
349.21
325.12
310.375
301.969
297.452
295.146
294.011
293.468
293.212
293.095
293.042
293.018
293.008
293.003
293.001
293.001
293
293
293
293
293
293
293.004
293.016
293.038
293.073
293.133
293.232
293.394
293.659
294.084
294.76
295.818
297.444
299.897
303.513
308.711
315.976
325.816
338.707
355.016
374.95
398.524
425.581
455.838
488.952
524.575
562.389
602.13
643.589
686.605
731.057
776.849
823.896
872.112
921.402
971.648
1022.74
1074.71
1127.48
1180.96
1235.01
1289.52
1344.37
1399.4
1454.49
1509.47
1564.18
1618.44
1672.09
1724.91
1776.71
1827.24
1876.25
1923.45
1968.5
2010.98
2050.4
2085.78
2116
2141.85
2160.87
2171.25
2131.72
2013.26
1888.23
1758.97
1627.41
1495.17
1363.7
1234.32
1108.28
986.839
871.118
762.107
661.499
571.403
493.784
430.178
381.24
346.306
323.314
309.335
301.409
297.165
295.006
293.945
293.437
293.198
293.089
293.039
293.017
293.007
293.003
293.001
293.001
293
293
293
293
293
293
293.004
293.016
293.038
293.073
293.132
293.231
293.392
293.655
294.078
294.75
295.802
297.42
299.86
303.457
308.631
315.863
325.663
338.507
354.765
374.646
398.169
425.179
455.397
488.48
524.08
561.88
601.615
643.077
686.105
730.577
776.398
823.483
871.748
921.096
971.411
1022.58
1074.64
1127.51
1181.09
1235.26
1289.9
1344.88
1400.06
1455.28
1510.4
1565.26
1619.66
1673.44
1726.39
1778.29
1828.92
1878.01
1925.26
1970.33
2012.81
2052.2
2087.53
2117.72
2143.52
2162.49
2172.86
2120.74
2001.81
1876.43
1746.93
1615.24
1483
1351.64
1222.5
1096.83
975.872
860.728
752.425
652.735
563.758
487.421
425.189
377.6
343.857
321.799
308.466
300.941
296.926
294.889
293.889
293.411
293.187
293.083
293.037
293.016
293.007
293.003
293.001
293.001
293
293
293
293
293
293
293.004
293.016
293.037
293.073
293.132
293.229
293.39
293.652
294.073
294.742
295.789
297.4
299.828
303.411
308.564
315.769
325.536
338.342
354.558
374.396
397.879
424.853
455.041
488.101
523.686
561.478
601.213
642.681
685.722
730.216
776.065
823.187
871.496
920.897
971.274
1022.51
1074.65
1127.61
1181.28
1235.56
1290.3
1345.39
1400.68
1456.02
1511.26
1566.23
1620.75
1674.63
1727.68
1779.66
1830.36
1879.5
1926.78
1971.86
2014.33
2053.7
2088.98
2119.1
2144.83
2163.75
2174.11
2111.36
1991.93
1866.22
1736.52
1604.75
1472.54
1341.3
1212.37
1087.01
966.473
851.831
744.147
645.258
557.251
482.023
420.971
374.537
341.808
320.536
307.744
300.553
296.728
294.792
293.843
293.389
293.177
293.079
293.035
293.015
293.007
293.003
293.001
293
293
293
293
293
293
293
293.004
293.016
293.037
293.072
293.131
293.229
293.389
293.649
294.069
294.735
295.778
297.382
299.802
303.372
308.508
315.692
325.432
338.206
354.389
374.194
397.645
424.591
454.756
487.8
523.375
561.163
600.901
642.377
685.433
729.947
775.823
822.978
871.327
920.775
971.206
1022.5
1074.7
1127.74
1181.49
1235.85
1290.68
1345.87
1401.25
1456.69
1512.02
1567.08
1621.69
1675.65
1728.76
1780.81
1831.55
1880.71
1928
1973.07
2015.54
2054.88
2090.08
2120.13
2145.81
2164.71
2175.05
2103.51
1983.6
1857.57
1727.7
1595.86
1463.65
1332.52
1203.78
1078.69
958.522
844.311
737.162
638.956
551.777
477.493
417.445
371.986
340.108
319.492
307.148
300.234
296.565
294.712
293.805
293.372
293.169
293.075
293.033
293.014
293.006
293.003
293.001
293
293
293
293
293
293
293
293.004
293.016
293.037
293.072
293.131
293.228
293.387
293.647
294.065
294.73
295.769
297.368
299.781
303.341
308.463
315.629
325.348
338.097
354.254
374.032
397.458
424.383
454.531
487.564
523.132
560.92
600.661
642.146
685.216
729.749
775.649
822.832
871.216
920.703
971.178
1022.53
1074.78
1127.87
1181.69
1236.12
1291.03
1346.28
1401.74
1457.26
1512.66
1567.79
1622.46
1676.48
1729.64
1781.72
1832.48
1881.65
1928.95
1974.02
2016.44
2055.73
2090.86
2120.86
2146.5
2165.39
2175.72
2097.04
1976.66
1850.35
1720.31
1588.4
1456.22
1325.18
1196.6
1071.75
951.898
838.051
731.354
633.723
547.24
473.746
414.536
369.889
338.715
318.64
306.664
299.974
296.433
294.648
293.774
293.357
293.162
293.072
293.032
293.014
293.006
293.003
293.001
293
293
293
293
293
293
293
293.004
293.016
293.037
293.072
293.13
293.227
293.386
293.645
294.062
294.725
295.762
297.357
299.764
303.316
308.427
315.579
325.281
338.012
354.148
373.905
397.312
424.221
454.357
487.382
522.946
560.734
600.48
641.973
685.055
729.604
775.524
822.731
871.143
920.662
971.173
1022.56
1074.86
1128
1181.87
1236.35
1291.31
1346.63
1402.14
1457.71
1513.17
1568.35
1623.06
1677.11
1730.3
1782.4
1833.17
1882.35
1929.64
1974.67
2017.06
2056.3
2091.35
2121.3
2146.91
2165.81
2176.16
2091.79
1970.98
1844.41
1714.23
1582.28
1450.12
1319.17
1190.74
1066.09
946.497
832.953
726.63
629.474
543.56
470.714
412.187
368.2
337.596
317.957
306.276
299.767
296.327
294.596
293.75
293.346
293.157
293.07
293.031
293.013
293.006
293.002
293.001
293
293
293
293
293
293
293
293.004
293.016
293.037
293.072
293.13
293.227
293.386
293.644
294.06
294.722
295.756
297.349
299.751
303.297
308.4
315.541
325.23
337.946
354.067
373.809
397.202
424.099
454.227
487.245
522.807
560.596
600.346
641.847
684.938
729.5
775.435
822.662
871.094
920.638
971.176
1022.59
1074.93
1128.1
1182.01
1236.53
1291.53
1346.88
1402.44
1458.05
1513.54
1568.75
1623.49
1677.57
1730.77
1782.88
1833.65
1882.82
1930.07
1975.07
2017.41
2056.61
2091.61
2121.53
2147.13
2166.06
2176.45
2087.7
1966.49
1839.68
1709.38
1577.39
1445.26
1314.39
1186.09
1061.62
942.236
828.939
722.917
626.139
540.679
468.344
410.356
366.886
336.727
317.427
305.975
299.606
296.245
294.556
293.731
293.337
293.153
293.068
293.03
293.013
293.006
293.002
293.001
293
293
293
293
293
293
293
293.004
293.016
293.037
293.072
293.13
293.226
293.385
293.643
294.059
294.719
295.752
297.342
299.742
303.283
308.38
315.513
325.193
337.899
354.008
373.74
397.123
424.011
454.133
487.148
522.709
560.498
600.251
641.757
684.857
729.427
775.374
822.614
871.062
920.622
971.179
1022.62
1074.97
1128.17
1182.1
1236.65
1291.68
1347.06
1402.64
1458.27
1513.79
1569.01
1623.77
1677.86
1731.06
1783.17
1833.92
1883.06
1930.28
1975.24
2017.54
2056.7
2091.7
2121.63
2147.33
2166.49
2177.29
2084.61
1963.06
1836.06
1705.67
1573.67
1441.57
1310.78
1182.59
1058.26
939.054
825.949
720.159
623.668
538.55
466.598
409.01
365.923
336.091
317.038
305.754
299.488
296.185
294.526
293.717
293.33
293.15
293.067
293.03
293.013
293.006
293.002
293.001
293
293
293
293
293
293
293
293.004
293.016
293.037
293.072
293.13
293.226
293.385
293.642
294.058
294.717
295.75
297.338
299.735
303.274
308.367
315.495
325.169
337.868
353.97
373.695
397.071
423.955
454.073
487.085
522.645
560.436
600.191
641.701
684.805
729.382
775.336
822.584
871.041
920.611
971.179
1022.63
1074.99
1128.21
1182.15
1236.71
1291.76
1347.15
1402.75
1458.39
1513.92
1569.16
1623.91
1678
1731.19
1783.28
1834.01
1883.12
1930.3
1975.22
2017.48
2056.6
2091.58
2121.52
2147.27
2166.56
2177.59
2082.67
1960.77
1833.58
1703.12
1571.1
1439.05
1308.32
1180.22
1056
936.917
823.95
718.323
622.03
537.143
465.45
408.13
365.296
335.678
316.787
305.611
299.411
296.146
294.507
293.708
293.326
293.148
293.066
293.029
293.013
293.005
293.002
293.001
293
293
293
293
293
293
293
293.004
293.016
293.037
293.072
293.13
293.226
293.384
293.642
294.057
294.716
295.748
297.336
299.733
303.269
308.361
315.487
325.158
337.853
353.952
373.674
397.047
423.928
454.044
487.055
522.615
560.406
600.162
641.674
684.78
729.36
775.317
822.569
871.031
920.606
971.178
1022.63
1075
1128.22
1182.17
1236.74
1291.79
1347.19
1402.79
1458.44
1513.97
1569.2
1623.96
1678.03
1731.22
1783.29
1834
1883.08
1930.23
1975.12
2017.33
2056.41
2091.37
2121.29
2147.06
2166.43
2177.65
2081.68
1959.53
1832.23
1701.74
1569.73
1437.72
1307.04
1179
1054.85
935.843
822.955
717.419
621.23
536.463
464.899
407.71
365
335.486
316.67
305.545
299.375
296.128
294.498
293.703
293.324
293.147
293.066
293.029
293.013
293.005
293.002
293.001
293
293
293
293
293
293
293
293.004
293.016
293.037
293.072
293.13
293.226
293.384
293.642
294.057
294.716
295.748
297.336
299.733
303.269
308.361
315.487
325.158
337.854
353.952
373.674
397.047
423.928
454.044
487.056
522.615
560.406
600.163
641.674
684.78
729.36
775.318
822.569
871.031
920.606
971.178
1022.63
1075
1128.22
1182.17
1236.74
1291.79
1347.19
1402.79
1458.44
1513.97
1569.2
1623.96
1678.03
1731.22
1783.29
1834
1883.08
1930.23
1975.12
2017.34
2056.42
2091.37
2121.29
2147.06
2166.43
2177.65
2081.68
1959.53
1832.23
1701.74
1569.73
1437.72
1307.04
1179
1054.85
935.844
822.956
717.419
621.231
536.463
464.899
407.711
365
335.486
316.67
305.545
299.375
296.128
294.498
293.703
293.324
293.147
293.066
293.029
293.013
293.005
293.002
293.001
293
293
293
293
293
293
293
293.004
293.016
293.037
293.072
293.13
293.226
293.385
293.642
294.058
294.717
295.75
297.338
299.736
303.274
308.367
315.495
325.17
337.868
353.971
373.695
397.072
423.956
454.073
487.086
522.646
560.436
600.192
641.701
684.805
729.382
775.337
822.585
871.042
920.612
971.18
1022.63
1074.99
1128.21
1182.15
1236.72
1291.76
1347.15
1402.75
1458.4
1513.92
1569.16
1623.92
1678
1731.2
1783.28
1834.02
1883.12
1930.31
1975.23
2017.48
2056.6
2091.59
2121.52
2147.27
2166.56
2177.59
2082.67
1960.77
1833.58
1703.12
1571.11
1439.05
1308.33
1180.22
1056
936.919
823.952
718.324
622.031
537.145
465.451
408.13
365.297
335.679
316.787
305.611
299.411
296.146
294.507
293.708
293.326
293.148
293.066
293.029
293.013
293.005
293.002
293.001
293
293
293
293
293
293
293
293.004
293.016
293.037
293.072
293.13
293.226
293.385
293.643
294.059
294.719
295.752
297.342
299.742
303.283
308.38
315.514
325.194
337.899
354.009
373.74
397.123
424.012
454.134
487.149
522.71
560.499
600.253
641.759
684.858
729.429
775.376
822.615
871.064
920.624
971.181
1022.62
1074.97
1128.17
1182.1
1236.65
1291.68
1347.06
1402.64
1458.27
1513.79
1569.02
1623.77
1677.86
1731.07
1783.17
1833.92
1883.06
1930.28
1975.24
2017.54
2056.7
2091.7
2121.64
2147.34
2166.5
2177.3
2084.62
1963.06
1836.06
1705.68
1573.67
1441.58
1310.79
1182.6
1058.27
939.058
825.952
720.161
623.67
538.552
466.6
409.012
365.924
336.092
317.039
305.755
299.488
296.185
294.526
293.717
293.33
293.15
293.067
293.03
293.013
293.006
293.002
293.001
293
293
293
293
293
293
293
293.004
293.016
293.037
293.072
293.13
293.227
293.386
293.644
294.06
294.722
295.756
297.349
299.751
303.297
308.4
315.541
325.231
337.947
354.067
373.81
397.203
424.1
454.228
487.247
522.809
560.598
600.347
641.848
684.94
729.502
775.437
822.664
871.097
920.64
971.179
1022.6
1074.93
1128.11
1182.01
1236.53
1291.54
1346.89
1402.44
1458.05
1513.55
1568.75
1623.49
1677.57
1730.78
1782.89
1833.66
1882.82
1930.08
1975.08
2017.42
2056.61
2091.62
2121.53
2147.14
2166.07
2176.46
2087.7
1966.49
1839.68
1709.38
1577.39
1445.27
1314.4
1186.09
1061.62
942.241
828.943
722.921
626.142
540.682
468.347
410.358
366.887
336.728
317.427
305.976
299.606
296.246
294.556
293.731
293.337
293.153
293.068
293.03
293.013
293.006
293.002
293.001
293
293
293
293
293
293
293
293.004
293.016
293.037
293.072
293.13
293.227
293.386
293.645
294.062
294.725
295.762
297.357
299.764
303.316
308.427
315.579
325.282
338.012
354.148
373.906
397.314
424.223
454.359
487.383
522.948
560.736
600.482
641.976
685.058
729.606
775.526
822.734
871.146
920.665
971.176
1022.56
1074.86
1128.01
1181.88
1236.36
1291.32
1346.63
1402.15
1457.72
1513.18
1568.35
1623.07
1677.12
1730.3
1782.41
1833.18
1882.36
1929.64
1974.68
2017.06
2056.3
2091.36
2121.31
2146.92
2165.82
2176.17
2091.8
1970.99
1844.42
1714.24
1582.29
1450.13
1319.18
1190.75
1066.1
946.504
832.959
726.635
629.478
543.564
470.717
412.189
368.202
337.597
317.958
306.277
299.767
296.328
294.596
293.75
293.346
293.157
293.07
293.031
293.013
293.006
293.002
293.001
293
293
293
293
293
293
293
293.004
293.016
293.037
293.072
293.131
293.228
293.387
293.647
294.065
294.73
295.769
297.369
299.781
303.341
308.463
315.629
325.348
338.098
354.255
374.033
397.459
424.385
454.533
487.566
523.134
560.922
600.663
642.149
685.219
729.752
775.652
822.836
871.219
920.706
971.182
1022.53
1074.79
1127.88
1181.7
1236.13
1291.03
1346.29
1401.75
1457.26
1512.67
1567.8
1622.47
1676.49
1729.65
1781.73
1832.49
1881.66
1928.96
1974.03
2016.45
2055.75
2090.87
2120.87
2146.51
2165.41
2175.73
2097.05
1976.67
1850.36
1720.32
1588.41
1456.23
1325.19
1196.61
1071.76
951.905
838.058
731.36
633.729
547.244
473.75
414.539
369.892
338.716
318.641
306.664
299.975
296.433
294.648
293.774
293.357
293.162
293.072
293.032
293.014
293.006
293.003
293.001
293
293
293
293
293
293
293
293.004
293.016
293.037
293.072
293.131
293.229
293.389
293.649
294.069
294.735
295.778
297.383
299.802
303.372
308.508
315.692
325.433
338.207
354.39
374.195
397.646
424.593
454.758
487.802
523.377
561.166
600.904
642.38
685.436
729.95
775.827
822.982
871.331
920.779
971.21
1022.51
1074.71
1127.74
1181.5
1235.85
1290.69
1345.87
1401.26
1456.7
1512.03
1567.09
1621.7
1675.66
1728.77
1780.82
1831.56
1880.72
1928.01
1973.09
2015.55
2054.89
2090.09
2120.15
2145.83
2164.73
2175.07
2103.52
1983.61
1857.58
1727.71
1595.87
1463.67
1332.53
1203.79
1078.7
958.53
844.318
737.168
638.962
551.782
477.497
417.448
371.989
340.109
319.493
307.149
300.234
296.565
294.712
293.805
293.372
293.169
293.075
293.033
293.014
293.006
293.003
293.001
293
293
293
293
293
293
293
293.004
293.016
293.037
293.073
293.132
293.229
293.39
293.652
294.073
294.742
295.789
297.4
299.829
303.411
308.564
315.77
325.537
338.343
354.559
374.398
397.881
424.855
455.043
488.104
523.688
561.481
601.216
642.684
685.726
730.22
776.069
823.191
871.501
920.902
971.279
1022.52
1074.65
1127.61
1181.29
1235.56
1290.31
1345.4
1400.69
1456.03
1511.27
1566.24
1620.76
1674.64
1727.69
1779.67
1830.37
1879.51
1926.79
1971.87
2014.34
2053.72
2088.99
2119.12
2144.85
2163.78
2174.13
2111.37
1991.94
1866.24
1736.54
1604.77
1472.55
1341.31
1212.38
1087.01
966.481
851.838
744.154
645.264
557.256
482.027
420.975
374.54
341.809
320.537
307.744
300.553
296.728
294.792
293.843
293.389
293.177
293.079
293.035
293.015
293.007
293.003
293.001
293
293
293
293
293
293
293
293.004
293.016
293.038
293.073
293.132
293.231
293.392
293.655
294.078
294.75
295.802
297.42
299.86
303.458
308.631
315.864
325.664
338.508
354.767
374.648
398.171
425.181
455.399
488.483
524.083
561.883
601.619
643.081
686.109
730.581
776.402
823.488
871.752
921.101
971.416
1022.59
1074.64
1127.52
1181.1
1235.27
1289.91
1344.89
1400.06
1455.29
1510.41
1565.26
1619.67
1673.45
1726.4
1778.3
1828.93
1878.02
1925.27
1970.35
2012.83
2052.22
2087.55
2117.74
2143.54
2162.52
2172.89
2120.75
2001.81
1876.44
1746.94
1615.24
1483
1351.65
1222.51
1096.83
975.878
860.735
752.432
652.742
563.764
487.426
425.192
377.603
343.859
321.8
308.467
300.941
296.926
294.889
293.889
293.411
293.187
293.083
293.037
293.016
293.007
293.003
293.001
293.001
293
293
293
293
293
293
293.004
293.016
293.038
293.073
293.133
293.232
293.394
293.659
294.084
294.76
295.818
297.444
299.897
303.513
308.712
315.977
325.817
338.708
355.018
374.952
398.526
425.583
455.841
488.956
524.579
562.393
602.134
643.593
686.609
731.062
776.854
823.901
872.118
921.408
971.654
1022.74
1074.71
1127.49
1180.96
1235.02
1289.53
1344.38
1399.41
1454.5
1509.48
1564.19
1618.45
1672.1
1724.93
1776.72
1827.25
1876.27
1923.47
1968.51
2010.99
2050.41
2085.79
2116.02
2141.87
2160.89
2171.28
2131.72
2013.27
1888.24
1758.99
1627.42
1495.19
1363.72
1234.34
1108.3
986.854
871.132
762.115
661.506
571.409
493.789
430.182
381.243
346.308
323.315
309.336
301.409
297.165
295.006
293.945
293.437
293.198
293.089
293.039
293.017
293.007
293.003
293.001
293.001
293
293
293
293
293
293
293.004
293.017
293.038
293.074
293.134
293.233
293.397
293.663
294.091
294.771
295.836
297.473
299.94
303.578
308.807
316.11
325.999
338.947
355.32
375.319
398.958
426.074
456.383
489.541
525.196
563.033
602.788
644.249
687.259
731.695
777.46
824.469
872.636
921.863
972.035
1023.04
1074.91
1127.57
1180.92
1234.84
1289.21
1343.9
1398.77
1453.69
1508.5
1563.04
1617.14
1670.62
1723.29
1774.95
1825.36
1874.27
1921.39
1966.39
2008.85
2048.27
2083.71
2113.99
2139.87
2158.9
2169.25
2144.05
2026.12
1901.53
1772.59
1641.22
1509.05
1377.51
1247.92
1121.51
999.535
883.149
773.323
671.676
580.307
501.222
436.038
385.539
349.212
325.121
310.375
301.97
297.452
295.146
294.011
293.468
293.212
293.095
293.042
293.018
293.008
293.003
293.001
293.001
293
293
293
293
293
293
293.004
293.017
293.038
293.074
293.135
293.235
293.399
293.667
294.099
294.784
295.856
297.505
299.99
303.653
308.917
316.266
326.213
339.229
355.678
375.758
399.477
426.668
457.044
490.259
525.96
563.832
603.61
645.084
688.095
732.52
778.263
825.236
873.352
922.515
972.608
1023.52
1075.28
1127.82
1181.03
1234.8
1289
1343.51
1398.2
1452.92
1507.53
1561.86
1615.76
1669.05
1721.54
1773.03
1823.29
1872.08
1919.11
1964.05
2006.49
2045.94
2081.52
2111.91
2137.86
2156.85
2166.87
2156.72
2039.73
1915.9
1787.55
1656.59
1524.63
1393.12
1263.36
1136.6
1014.06
896.951
786.208
683.384
590.582
509.842
442.867
390.576
352.637
327.262
311.613
302.638
297.794
295.313
294.091
293.504
293.229
293.102
293.045
293.02
293.008
293.004
293.002
293.001
293
293
293
293
293
293
293.004
293.017
293.038
293.075
293.136
293.237
293.402
293.672
294.107
294.798
295.879
297.541
300.046
303.739
309.042
316.446
326.461
339.558
356.1
376.278
400.095
427.381
457.844
491.134
526.899
564.821
604.637
646.137
689.16
733.584
779.311
826.254
874.324
923.423
973.434
1024.24
1075.89
1128.29
1181.35
1234.95
1288.97
1343.28
1397.75
1452.25
1506.62
1560.72
1614.39
1667.45
1719.72
1771.01
1821.09
1869.74
1916.68
1961.58
2004.07
2043.67
2079.61
2110.4
2136.97
2156.88
2168.26
2168.04
2053.02
1930.69
1803.45
1673.26
1541.78
1410.47
1280.65
1153.58
1030.49
912.61
800.895
696.799
602.4
519.794
450.782
396.448
356.656
329.788
313.077
303.431
298.199
295.511
294.185
293.548
293.249
293.111
293.049
293.021
293.009
293.004
293.002
293.001
293
293
293
293
293
293
293.004
293.017
293.039
293.075
293.137
293.238
293.406
293.678
294.116
294.813
295.904
297.581
300.109
303.834
309.184
316.65
326.745
339.939
356.59
376.888
400.827
428.231
458.804
492.192
528.043
566.037
605.91
647.452
690.504
734.941
780.664
827.585
875.615
924.654
974.581
1025.29
1076.81
1129.07
1181.96
1235.37
1289.18
1343.27
1397.5
1451.74
1505.85
1559.68
1613.08
1665.87
1717.88
1768.93
1818.81
1867.29
1914.1
1958.95
2001.47
2041.23
2077.69
2109.15
2136.77
2158.48
2172.81
2177.49
2065.41
1945.47
1820.03
1691.13
1560.48
1429.61
1299.88
1172.58
1048.95
930.258
817.494
712.009
615.85
531.174
459.89
403.253
361.346
332.754
314.805
304.368
298.679
295.745
294.295
293.599
293.272
293.121
293.053
293.023
293.01
293.004
293.002
293.001
293
293
293
293
293
293
293.004
293.017
293.039
293.076
293.138
293.24
293.409
293.683
294.126
294.829
295.929
297.622
300.175
303.936
309.338
316.875
327.062
340.369
357.153
377.594
401.683
429.235
459.948
493.465
529.429
567.521
607.476
649.084
692.184
736.652
782.386
829.299
877.297
926.28
976.127
1026.73
1078.12
1130.23
1182.94
1236.15
1289.73
1343.57
1397.53
1451.49
1505.3
1558.82
1611.91
1664.39
1716.11
1766.87
1816.5
1864.76
1911.41
1956.16
1998.68
2038.55
2075.25
2107.36
2134.86
2157.5
2172.93
2178.84
2074.56
1959.43
1837.07
1710.14
1580.74
1450.56
1321.08
1193.62
1069.48
949.947
836.065
729.094
631.036
544.099
470.299
411.08
366.773
336.201
316.816
305.457
299.234
296.014
294.422
293.657
293.298
293.133
293.058
293.025
293.011
293.005
293.002
293.001
293
293
293
293
293
293
293.004
293.017
293.039
293.076
293.139
293.242
293.412
293.688
294.134
294.844
295.955
297.665
300.244
304.046
309.506
317.124
327.417
340.857
357.796
378.41
402.68
430.414
461.302
494.982
531.094
569.317
609.384
651.085
694.257
738.777
784.542
831.459
879.437
928.371
978.139
1028.64
1079.9
1131.84
1184.37
1237.35
1290.68
1344.24
1397.91
1451.56
1505.05
1558.23
1610.96
1663.1
1714.48
1764.92
1814.24
1862.22
1908.64
1953.22
1995.62
2035.45
2072.16
2104.44
2132.07
2155
2170.82
2177.32
2091.63
1978.13
1857.28
1731.6
1603.13
1473.53
1344.27
1216.69
1092.05
971.644
856.608
748.086
648.008
558.629
482.083
420.013
373.022
340.203
319.166
306.734
299.884
296.328
294.569
293.724
293.327
293.146
293.064
293.028
293.012
293.005
293.002
293.001
293
293
293
293
293
293
293.004
293.017
293.039
293.077
293.139
293.243
293.413
293.692
294.141
294.855
295.975
297.7
300.304
304.146
309.666
317.371
327.782
341.374
358.496
379.319
403.812
431.775
462.885
496.775
533.078
571.471
611.686
653.51
696.783
741.376
787.187
834.123
882.087
930.975
980.663
1031.05
1082.18
1133.95
1186.26
1239.01
1292.08
1345.35
1398.7
1452
1505.14
1557.96
1610.32
1662.09
1713.09
1763.18
1812.15
1859.81
1905.94
1950.26
1992.45
2032.13
2068.79
2101.22
2128.93
2152.02
2168.23
2175.6
2112.38
1999.47
1879.45
1754.64
1626.9
1497.84
1368.85
1241.21
1116.16
994.967
878.821
768.778
666.635
574.691
495.198
430.01
380.036
344.69
321.783
308.139
300.588
296.664
294.723
293.793
293.358
293.159
293.07
293.03
293.013
293.005
293.002
293.001
293
293
293
293
293
293
293.004
293.017
293.039
293.077
293.139
293.243
293.414
293.693
294.145
294.864
295.993
297.734
300.366
304.252
309.842
317.648
328.198
341.969
359.309
380.38
405.14
433.374
464.75
498.889
535.421
574.017
614.408
656.38
699.769
744.449
790.313
837.268
885.217
934.052
983.648
1033.92
1084.89
1136.47
1188.57
1241.07
1293.86
1346.83
1399.85
1452.81
1505.58
1558.03
1610.02
1661.41
1712.04
1761.76
1810.38
1857.71
1903.52
1947.55
1989.5
2028.96
2065.47
2097.89
2125.67
2148.86
2165.24
2172.98
2132.15
2020.07
1900.99
1777.11
1650.21
1521.82
1393.27
1265.8
1140.59
1018.85
901.798
790.427
686.385
591.959
509.505
441.09
387.938
349.823
324.812
309.774
301.408
297.052
294.9
293.871
293.392
293.173
293.076
293.032
293.014
293.006
293.002
293.001
293
293
293
293
293
293
293.004
293.017
293.039
293.077
293.139
293.242
293.413
293.691
294.141
294.859
295.989
297.734
300.378
304.292
309.934
317.828
328.513
342.474
360.058
381.42
406.505
435.078
466.787
501.239
538.05
576.886
617.475
659.602
703.105
747.858
793.756
840.706
888.611
937.364
986.841
1036.97