/*--------------------------------*- C++ -*----------------------------------*\
  =========                 |
  \\      /  F ield         | OpenFOAM: The Open Source CFD Toolbox
   \\    /   O peration     | Website:  https://openfoam.org
    \\  /    A nd           | Version:  8
     \\/     M anipulation  |
\*---------------------------------------------------------------------------*/
FoamFile
{
    version     2.0;
    format      ascii;
    class       volVectorField;
    location    "780/fluid";
    object      U;
}
// * * * * * * * * * * * * * * * * * * * * * * * * * * * * * * * * * * * * * //

dimensions      [0 1 -1 0 0 0 0];

internalField   nonuniform List<vector> 
4000
(
(0.0999454 -0.00706364 0)
(0.0996486 -0.0210093 0)
(0.0991697 -0.0348395 0)
(0.0985081 -0.0485957 0)
(0.0976558 -0.0622946 0)
(0.096595 -0.0759372 0)
(0.0953052 -0.0895128 0)
(0.0937668 -0.103001 0)
(0.0919644 -0.116375 0)
(0.0898894 -0.129606 0)
(0.0875437 -0.142667 0)
(0.0849428 -0.155537 0)
(0.082121 -0.168207 0)
(0.0791371 -0.180664 0)
(0.0760698 -0.192953 0)
(0.0729917 -0.205144 0)
(0.0699536 -0.217297 0)
(0.0669728 -0.229455 0)
(0.0640256 -0.241628 0)
(0.0610476 -0.25379 0)
(0.0579469 -0.265877 0)
(0.0546222 -0.277798 0)
(0.0509842 -0.289447 0)
(0.0469759 -0.300692 0)
(0.0425722 -0.311441 0)
(0.0377655 -0.321629 0)
(0.0325621 -0.331193 0)
(0.0269793 -0.340076 0)
(0.0210431 -0.348231 0)
(0.0147849 -0.355623 0)
(0.00823855 -0.362229 0)
(0.00143945 -0.368036 0)
(-0.00557531 -0.373042 0)
(-0.0127694 -0.377252 0)
(-0.0201099 -0.380679 0)
(-0.0275669 -0.383343 0)
(-0.0351131 -0.385268 0)
(-0.0427224 -0.386486 0)
(-0.0503702 -0.387031 0)
(-0.0580331 -0.386944 0)
(-0.0656891 -0.386264 0)
(-0.0733172 -0.385037 0)
(-0.0808977 -0.383307 0)
(-0.0884113 -0.381123 0)
(-0.0958396 -0.378533 0)
(-0.103164 -0.375586 0)
(-0.110368 -0.372332 0)
(-0.117432 -0.368823 0)
(-0.124338 -0.36511 0)
(-0.131069 -0.361246 0)
(-0.137605 -0.357285 0)
(-0.143927 -0.353282 0)
(-0.150014 -0.349297 0)
(-0.155842 -0.34539 0)
(-0.161387 -0.341629 0)
(-0.166622 -0.338088 0)
(-0.171504 -0.334849 0)
(-0.175983 -0.331998 0)
(-0.180033 -0.329636 0)
(-0.183692 -0.327919 0)
(-0.187024 -0.327124 0)
(-0.189407 -0.327606 0)
(-0.188742 -0.329199 0)
(-0.183865 -0.33017 0)
(-0.176837 -0.329421 0)
(-0.169378 -0.32708 0)
(-0.161687 -0.32344 0)
(-0.153701 -0.318642 0)
(-0.145441 -0.312747 0)
(-0.136977 -0.30579 0)
(-0.128389 -0.297802 0)
(-0.119761 -0.288817 0)
(-0.111181 -0.278875 0)
(-0.102744 -0.268022 0)
(-0.0945956 -0.256318 0)
(-0.08698 -0.243874 0)
(-0.0802252 -0.230889 0)
(-0.0747 -0.217641 0)
(-0.0707805 -0.204696 0)
(-0.0687621 -0.192562 0)
(-0.0686784 -0.181483 0)
(-0.0702301 -0.171371 0)
(-0.0729027 -0.161917 0)
(-0.0761589 -0.152787 0)
(-0.0795711 -0.143742 0)
(-0.0828584 -0.134635 0)
(-0.085849 -0.12537 0)
(-0.0884755 -0.115992 0)
(-0.090736 -0.10655 0)
(-0.0926554 -0.0970748 0)
(-0.0942672 -0.087599 0)
(-0.0956068 -0.0781492 0)
(-0.0967082 -0.0687465 0)
(-0.0976031 -0.059405 0)
(-0.0983201 -0.0501316 0)
(-0.0988844 -0.0409261 0)
(-0.0993179 -0.0317815 0)
(-0.0996378 -0.0226852 0)
(-0.0998558 -0.0136203 0)
(-0.0999821 -0.00455544 0)
(0.0999999 -0.00662495 0)
(0.0997937 -0.0198073 0)
(0.0993674 -0.0329032 0)
(0.0986971 -0.0458975 0)
(0.0977841 -0.05877 0)
(0.0966242 -0.071497 0)
(0.0952079 -0.0840504 0)
(0.0935273 -0.0963983 0)
(0.0915803 -0.108508 0)
(0.0893743 -0.120351 0)
(0.0869287 -0.131906 0)
(0.0842781 -0.143173 0)
(0.081473 -0.15418 0)
(0.0785803 -0.165013 0)
(0.075673 -0.175732 0)
(0.0728179 -0.186396 0)
(0.0700608 -0.197079 0)
(0.067414 -0.207848 0)
(0.0648466 -0.218744 0)
(0.0622854 -0.229765 0)
(0.0596268 -0.240863 0)
(0.0567554 -0.251959 0)
(0.0535654 -0.262959 0)
(0.0499747 -0.273781 0)
(0.0459353 -0.284307 0)
(0.041429 -0.294407 0)
(0.0364584 -0.303976 0)
(0.0310434 -0.312938 0)
(0.0252152 -0.321233 0)
(0.0190118 -0.328822 0)
(0.0124741 -0.335678 0)
(0.00564335 -0.341785 0)
(-0.00143988 -0.347139 0)
(-0.00873631 -0.351744 0)
(-0.0162087 -0.355613 0)
(-0.0238226 -0.358763 0)
(-0.0315468 -0.361219 0)
(-0.0393524 -0.363008 0)
(-0.047213 -0.364162 0)
(-0.0551034 -0.364717 0)
(-0.0630003 -0.364709 0)
(-0.0708818 -0.364179 0)
(-0.0787274 -0.36317 0)
(-0.0865174 -0.361725 0)
(-0.0942331 -0.35989 0)
(-0.101857 -0.357709 0)
(-0.10937 -0.35523 0)
(-0.116757 -0.352502 0)
(-0.124 -0.349571 0)
(-0.131083 -0.346489 0)
(-0.137987 -0.343303 0)
(-0.144698 -0.340067 0)
(-0.151196 -0.336831 0)
(-0.157464 -0.333649 0)
(-0.163484 -0.330576 0)
(-0.169237 -0.327669 0)
(-0.174686 -0.324983 0)
(-0.179792 -0.322572 0)
(-0.184556 -0.320488 0)
(-0.189078 -0.318784 0)
(-0.193464 -0.317511 0)
(-0.196744 -0.316656 0)
(-0.196282 -0.315717 0)
(-0.190959 -0.314103 0)
(-0.18342 -0.311602 0)
(-0.175583 -0.308114 0)
(-0.167604 -0.30359 0)
(-0.159355 -0.298006 0)
(-0.150822 -0.291347 0)
(-0.142053 -0.283604 0)
(-0.133111 -0.274779 0)
(-0.12406 -0.264886 0)
(-0.114962 -0.253966 0)
(-0.105891 -0.242098 0)
(-0.0969969 -0.229437 0)
(-0.0885573 -0.216265 0)
(-0.0809666 -0.203037 0)
(-0.0746869 -0.190384 0)
(-0.0701747 -0.178725 0)
(-0.067721 -0.168329 0)
(-0.0672976 -0.159208 0)
(-0.0685465 -0.151088 0)
(-0.0709373 -0.143562 0)
(-0.0739533 -0.136266 0)
(-0.0771974 -0.128967 0)
(-0.0804108 -0.121558 0)
(-0.0834519 -0.114032 0)
(-0.0862352 -0.106301 0)
(-0.0887255 -0.0983421 0)
(-0.090917 -0.0901846 0)
(-0.0928179 -0.0818684 0)
(-0.0944443 -0.0734319 0)
(-0.0958165 -0.0649085 0)
(-0.0969566 -0.0563255 0)
(-0.0978868 -0.0477041 0)
(-0.0986279 -0.0390592 0)
(-0.0991975 -0.0303998 0)
(-0.0996076 -0.0217303 0)
(-0.0998663 -0.0130531 0)
(-0.0999951 -0.0043614 0)
(0.0999787 -0.00634576 0)
(0.0997142 -0.0189598 0)
(0.0991961 -0.0314849 0)
(0.0984055 -0.0439033 0)
(0.0973463 -0.0561909 0)
(0.0960195 -0.0683236 0)
(0.0944246 -0.0802762 0)
(0.0925646 -0.0920237 0)
(0.0904497 -0.103543 0)
(0.0881002 -0.114815 0)
(0.0855484 -0.12583 0)
(0.0828404 -0.136587 0)
(0.0800347 -0.147104 0)
(0.0771961 -0.157411 0)
(0.0743902 -0.167565 0)
(0.0716787 -0.177639 0)
(0.0691068 -0.187711 0)
(0.0666868 -0.197854 0)
(0.0643884 -0.208112 0)
(0.0621384 -0.218491 0)
(0.0598321 -0.228955 0)
(0.0573512 -0.239433 0)
(0.0545828 -0.249832 0)
(0.0514311 -0.260049 0)
(0.0478263 -0.269984 0)
(0.0437307 -0.279546 0)
(0.0391364 -0.288652 0)
(0.034057 -0.297233 0)
(0.0285204 -0.305233 0)
(0.022563 -0.312608 0)
(0.0162251 -0.319327 0)
(0.0095484 -0.32537 0)
(0.00257431 -0.330727 0)
(-0.00465663 -0.335396 0)
(-0.012106 -0.339385 0)
(-0.0197382 -0.342705 0)
(-0.0275202 -0.345377 0)
(-0.035422 -0.347424 0)
(-0.0434159 -0.348874 0)
(-0.0514759 -0.349757 0)
(-0.0595777 -0.350106 0)
(-0.0676988 -0.34996 0)
(-0.0758181 -0.349355 0)
(-0.0839157 -0.348331 0)
(-0.0919731 -0.346931 0)
(-0.0999727 -0.345195 0)
(-0.107897 -0.343167 0)
(-0.115731 -0.340891 0)
(-0.123459 -0.338411 0)
(-0.131067 -0.33577 0)
(-0.138542 -0.333014 0)
(-0.145869 -0.330187 0)
(-0.153037 -0.327333 0)
(-0.160034 -0.324495 0)
(-0.166848 -0.321714 0)
(-0.173466 -0.319031 0)
(-0.179857 -0.31648 0)
(-0.185982 -0.314088 0)
(-0.191858 -0.311873 0)
(-0.197599 -0.309852 0)
(-0.203189 -0.308029 0)
(-0.207083 -0.306341 0)
(-0.206328 -0.304147 0)
(-0.200386 -0.301176 0)
(-0.192343 -0.297514 0)
(-0.183949 -0.293083 0)
(-0.175343 -0.287784 0)
(-0.166425 -0.281555 0)
(-0.157192 -0.274367 0)
(-0.147689 -0.266215 0)
(-0.137971 -0.257119 0)
(-0.128096 -0.247128 0)
(-0.118123 -0.236329 0)
(-0.108141 -0.224858 0)
(-0.0983418 -0.212917 0)
(-0.089069 -0.200794 0)
(-0.0807861 -0.188857 0)
(-0.0740212 -0.177509 0)
(-0.0692375 -0.16712 0)
(-0.0666551 -0.157895 0)
(-0.0661486 -0.14978 0)
(-0.0672991 -0.142488 0)
(-0.0695653 -0.135649 0)
(-0.0724487 -0.128944 0)
(-0.0755741 -0.122169 0)
(-0.0787014 -0.11522 0)
(-0.0817004 -0.108067 0)
(-0.0845049 -0.100719 0)
(-0.0870776 -0.0931961 0)
(-0.0894001 -0.0855173 0)
(-0.0914676 -0.0777036 0)
(-0.0932835 -0.0697758 0)
(-0.0948559 -0.061754 0)
(-0.0961959 -0.0536561 0)
(-0.0973158 -0.0454979 0)
(-0.0982284 -0.0372924 0)
(-0.0989445 -0.0290496 0)
(-0.099471 -0.0207778 0)
(-0.0998118 -0.0124854 0)
(-0.0999872 -0.00417279 0)
(0.0999835 -0.00599131 0)
(0.0997147 -0.0179005 0)
(0.0991792 -0.0297161 0)
(0.0983576 -0.0414138 0)
(0.0972586 -0.052965 0)
(0.0958889 -0.0643419 0)
(0.0942539 -0.0755176 0)
(0.0923624 -0.0864665 0)
(0.0902289 -0.0971665 0)
(0.0878766 -0.107601 0)
(0.0853383 -0.117762 0)
(0.0826588 -0.127655 0)
(0.0798942 -0.137304 0)
(0.0771108 -0.146751 0)
(0.0743792 -0.156058 0)
(0.0717642 -0.165302 0)
(0.069311 -0.174567 0)
(0.0670309 -0.183925 0)
(0.0648925 -0.193426 0)
(0.0628207 -0.20308 0)
(0.0607082 -0.212861 0)
(0.0584332 -0.222704 0)
(0.055879 -0.232524 0)
(0.0529489 -0.242224 0)
(0.0495736 -0.251706 0)
(0.0457136 -0.260877 0)
(0.0413548 -0.269656 0)
(0.0365037 -0.277972 0)
(0.0311815 -0.285771 0)
(0.0254183 -0.293007 0)
(0.0192497 -0.299649 0)
(0.0127135 -0.305675 0)
(0.00584792 -0.311074 0)
(-0.00130908 -0.315841 0)
(-0.00872063 -0.31998 0)
(-0.016352 -0.323502 0)
(-0.0241712 -0.32642 0)
(-0.0321488 -0.328757 0)
(-0.0402574 -0.330533 0)
(-0.0484716 -0.331778 0)
(-0.0567674 -0.332519 0)
(-0.0651228 -0.332789 0)
(-0.0735169 -0.332621 0)
(-0.0819305 -0.332052 0)
(-0.0903456 -0.331116 0)
(-0.0987449 -0.329852 0)
(-0.107112 -0.328297 0)
(-0.115433 -0.326488 0)
(-0.123693 -0.324465 0)
(-0.131879 -0.322265 0)
(-0.139979 -0.319924 0)
(-0.147981 -0.317479 0)
(-0.155873 -0.314962 0)
(-0.163645 -0.312407 0)
(-0.171284 -0.30984 0)
(-0.178773 -0.307286 0)
(-0.186071 -0.30476 0)
(-0.193131 -0.30227 0)
(-0.199975 -0.299812 0)
(-0.206724 -0.297391 0)
(-0.2132 -0.294998 0)
(-0.217206 -0.292571 0)
(-0.215717 -0.289384 0)
(-0.209059 -0.285389 0)
(-0.200569 -0.28078 0)
(-0.191643 -0.275516 0)
(-0.182368 -0.269503 0)
(-0.172692 -0.26268 0)
(-0.16265 -0.255025 0)
(-0.152307 -0.246539 0)
(-0.141736 -0.237253 0)
(-0.131015 -0.22723 0)
(-0.120227 -0.216569 0)
(-0.109501 -0.205416 0)
(-0.0990897 -0.193978 0)
(-0.0893886 -0.18254 0)
(-0.0808832 -0.171452 0)
(-0.0740725 -0.161087 0)
(-0.0693462 -0.151755 0)
(-0.0668399 -0.143589 0)
(-0.0663637 -0.136477 0)
(-0.0674754 -0.130118 0)
(-0.0696482 -0.124157 0)
(-0.0724137 -0.118303 0)
(-0.0754241 -0.11237 0)
(-0.0784539 -0.106261 0)
(-0.081373 -0.0999384 0)
(-0.0841138 -0.0933931 0)
(-0.0866439 -0.0866357 0)
(-0.0889495 -0.0796851 0)
(-0.0910262 -0.0725632 0)
(-0.0928744 -0.0652923 0)
(-0.0944975 -0.0578937 0)
(-0.0959003 -0.0503869 0)
(-0.0970889 -0.0427895 0)
(-0.0980695 -0.0351171 0)
(-0.0988469 -0.0273834 0)
(-0.0994225 -0.0196012 0)
(-0.0997959 -0.0117844 0)
(-0.0999874 -0.00393953 0)
(0.0999805 -0.00563609 0)
(0.0996965 -0.0168374 0)
(0.0991358 -0.0279482 0)
(0.0982801 -0.0389435 0)
(0.0971405 -0.0497951 0)
(0.0957264 -0.0604759 0)
(0.0940464 -0.0709609 0)
(0.0921124 -0.0812268 0)
(0.0899427 -0.0912543 0)
(0.0875635 -0.10103 0)
(0.0850112 -0.110547 0)
(0.0823331 -0.119812 0)
(0.0795882 -0.128847 0)
(0.0768443 -0.137689 0)
(0.0741725 -0.146396 0)
(0.0716375 -0.155036 0)
(0.0692838 -0.163688 0)
(0.0671226 -0.17242 0)
(0.0651219 -0.18128 0)
(0.063207 -0.190283 0)
(0.0612694 -0.199408 0)
(0.0591854 -0.208604 0)
(0.0568347 -0.217794 0)
(0.0541159 -0.226892 0)
(0.0509551 -0.23581 0)
(0.0473077 -0.244464 0)
(0.0431549 -0.252778 0)
(0.0384989 -0.260687 0)
(0.0333568 -0.268138 0)
(0.0277552 -0.275089 0)
(0.0217265 -0.281507 0)
(0.0153056 -0.287371 0)
(0.00852819 -0.292666 0)
(0.00142984 -0.297386 0)
(-0.00595438 -0.301534 0)
(-0.0135914 -0.305114 0)
(-0.0214508 -0.30814 0)
(-0.0295045 -0.310627 0)
(-0.0377262 -0.312596 0)
(-0.0460917 -0.314068 0)
(-0.0545779 -0.315069 0)
(-0.0631637 -0.315626 0)
(-0.0718292 -0.315768 0)
(-0.0805556 -0.315526 0)
(-0.0893252 -0.314931 0)
(-0.0981212 -0.314014 0)
(-0.106928 -0.312809 0)
(-0.115732 -0.311346 0)
(-0.124517 -0.309658 0)
(-0.133272 -0.307775 0)
(-0.141982 -0.305728 0)
(-0.150635 -0.303544 0)
(-0.159215 -0.301248 0)
(-0.167709 -0.298862 0)
(-0.176099 -0.296405 0)
(-0.184356 -0.293889 0)
(-0.192427 -0.291319 0)
(-0.20025 -0.288691 0)
(-0.20786 -0.285996 0)
(-0.215377 -0.28323 0)
(-0.222434 -0.280379 0)
(-0.226189 -0.277397 0)
(-0.22376 -0.273543 0)
(-0.216424 -0.268933 0)
(-0.207552 -0.26376 0)
(-0.198143 -0.257997 0)
(-0.188239 -0.251574 0)
(-0.177848 -0.244452 0)
(-0.167049 -0.236627 0)
(-0.155937 -0.228116 0)
(-0.144606 -0.218963 0)
(-0.133154 -0.209245 0)
(-0.121687 -0.199067 0)
(-0.11037 -0.188577 0)
(-0.0994971 -0.17798 0)
(-0.0894916 -0.167537 0)
(-0.0808425 -0.157552 0)
(-0.0740231 -0.148326 0)
(-0.0693679 -0.140082 0)
(-0.0669429 -0.132871 0)
(-0.0665026 -0.126543 0)
(-0.0675851 -0.12081 0)
(-0.0696758 -0.115369 0)
(-0.0723335 -0.109981 0)
(-0.0752368 -0.1045 0)
(-0.0781783 -0.0988494 0)
(-0.0810362 -0.0929993 0)
(-0.0837435 -0.0869458 0)
(-0.0862644 -0.0806977 0)
(-0.0885805 -0.0742693 0)
(-0.090683 -0.0676775 0)
(-0.0925686 -0.0609395 0)
(-0.0942368 -0.0540728 0)
(-0.0956891 -0.0470938 0)
(-0.0969278 -0.0400182 0)
(-0.0979559 -0.0328608 0)
(-0.0987756 -0.0256355 0)
(-0.099385 -0.0183559 0)
(-0.0997819 -0.0110378 0)
(-0.0999861 -0.00369036 0)
(0.0999811 -0.00526596 0)
(0.0996947 -0.0157319 0)
(0.099128 -0.0261111 0)
(0.0982631 -0.0363782 0)
(0.0971127 -0.0465049 0)
(0.0956882 -0.0564644 0)
(0.0940003 -0.0662325 0)
(0.0920625 -0.0757871 0)
(0.0898949 -0.08511 0)
(0.0875251 -0.0941888 0)
(0.0849899 -0.103019 0)
(0.0823371 -0.111608 0)
(0.0796252 -0.119977 0)
(0.0769217 -0.128164 0)
(0.0742974 -0.136224 0)
(0.0718166 -0.144226 0)
(0.0695246 -0.152244 0)
(0.0674334 -0.160346 0)
(0.0655129 -0.168579 0)
(0.0636899 -0.17696 0)
(0.0618574 -0.185471 0)
(0.0598917 -0.194065 0)
(0.0576713 -0.202673 0)
(0.0550926 -0.211215 0)
(0.0520785 -0.21961 0)
(0.0485804 -0.227778 0)
(0.0445755 -0.235649 0)
(0.0400619 -0.243163 0)
(0.0350525 -0.250268 0)
(0.0295705 -0.256923 0)
(0.0236448 -0.263099 0)
(0.0173076 -0.268772 0)
(0.0105915 -0.273929 0)
(0.00352929 -0.278562 0)
(-0.00384498 -0.28267 0)
(-0.0115002 -0.286258 0)
(-0.0194085 -0.289335 0)
(-0.027543 -0.291914 0)
(-0.0358788 -0.294012 0)
(-0.0443926 -0.295648 0)
(-0.0530627 -0.296842 0)
(-0.0618687 -0.297618 0)
(-0.0707913 -0.298 0)
(-0.0798122 -0.298015 0)
(-0.0889139 -0.297689 0)
(-0.0980801 -0.297048 0)
(-0.107295 -0.296119 0)
(-0.116543 -0.29493 0)
(-0.12581 -0.293506 0)
(-0.135079 -0.291872 0)
(-0.144336 -0.290051 0)
(-0.153563 -0.288066 0)
(-0.162742 -0.285934 0)
(-0.171852 -0.283672 0)
(-0.180865 -0.281291 0)
(-0.189744 -0.278797 0)
(-0.198416 -0.27619 0)
(-0.206812 -0.27346 0)
(-0.214968 -0.270597 0)
(-0.223 -0.267588 0)
(-0.23037 -0.264401 0)
(-0.233699 -0.261016 0)
(-0.230349 -0.256798 0)
(-0.222407 -0.251892 0)
(-0.213135 -0.246416 0)
(-0.203244 -0.240372 0)
(-0.192754 -0.233734 0)
(-0.181725 -0.226494 0)
(-0.170269 -0.218663 0)
(-0.158504 -0.210272 0)
(-0.146545 -0.201372 0)
(-0.134509 -0.192042 0)
(-0.12252 -0.182383 0)
(-0.110777 -0.172537 0)
(-0.0996106 -0.162691 0)
(-0.0894621 -0.153081 0)
(-0.0808172 -0.143973 0)
(-0.074119 -0.135626 0)
(-0.0696454 -0.128215 0)
(-0.0673944 -0.121759 0)
(-0.0670686 -0.116098 0)
(-0.0681873 -0.11096 0)
(-0.0702461 -0.106067 0)
(-0.0728267 -0.101208 0)
(-0.0756313 -0.0962516 0)
(-0.0784701 -0.091129 0)
(-0.0812327 -0.0858131 0)
(-0.0838584 -0.0802992 0)
(-0.0863141 -0.0745941 0)
(-0.088582 -0.0687104 0)
(-0.0906525 -0.062663 0)
(-0.09252 -0.0564676 0)
(-0.0941816 -0.0501403 0)
(-0.095636 -0.0436969 0)
(-0.0968828 -0.0371525 0)
(-0.0979222 -0.0305221 0)
(-0.0987538 -0.0238197 0)
(-0.0993739 -0.0170601 0)
(-0.0997781 -0.0102602 0)
(-0.0999861 -0.00343071 0)
(0.0999807 -0.00489496 0)
(0.0996919 -0.0146234 0)
(0.0991212 -0.0242708 0)
(0.0982513 -0.0338129 0)
(0.0970955 -0.0432224 0)
(0.0956662 -0.0524745 0)
(0.093975 -0.0615463 0)
(0.0920366 -0.0704175 0)
(0.0898722 -0.0790716 0)
(0.0875101 -0.0874975 0)
(0.0849881 -0.0956918 0)
(0.0823545 -0.103661 0)
(0.0796682 -0.111426 0)
(0.076997 -0.119022 0)
(0.0744115 -0.126499 0)
(0.0719763 -0.133921 0)
(0.0697367 -0.141357 0)
(0.0677055 -0.14887 0)
(0.0658534 -0.156506 0)
(0.0641079 -0.164282 0)
(0.0623624 -0.172185 0)
(0.0604927 -0.180174 0)
(0.0583764 -0.188187 0)
(0.0559078 -0.196153 0)
(0.053007 -0.203996 0)
(0.0496225 -0.211645 0)
(0.0457284 -0.219035 0)
(0.0413197 -0.226108 0)
(0.0364064 -0.232818 0)
(0.0310088 -0.239125 0)
(0.0251533 -0.245001 0)
(0.0188694 -0.250423 0)
(0.0121881 -0.255377 0)
(0.00514015 -0.259854 0)
(-0.00224321 -0.263852 0)
(-0.00993243 -0.267375 0)
(-0.0179003 -0.270429 0)
(-0.0261216 -0.273024 0)
(-0.0345728 -0.275174 0)
(-0.0432318 -0.276894 0)
(-0.0520777 -0.278202 0)
(-0.0610906 -0.279117 0)
(-0.0702515 -0.279661 0)
(-0.0795425 -0.279854 0)
(-0.0889463 -0.279718 0)
(-0.0984462 -0.279277 0)
(-0.108026 -0.278552 0)
(-0.117668 -0.277565 0)
(-0.127356 -0.276337 0)
(-0.137072 -0.274889 0)
(-0.146799 -0.273239 0)
(-0.156514 -0.271404 0)
(-0.166193 -0.269399 0)
(-0.17581 -0.267234 0)
(-0.185329 -0.264919 0)
(-0.194699 -0.262457 0)
(-0.203832 -0.259846 0)
(-0.212651 -0.257075 0)
(-0.221185 -0.254135 0)
(-0.229511 -0.251002 0)
(-0.236964 -0.247627 0)
(-0.239899 -0.24399 0)
(-0.235797 -0.239604 0)
(-0.2272 -0.234592 0)
(-0.217395 -0.229013 0)
(-0.207005 -0.222893 0)
(-0.19601 -0.216242 0)
(-0.184466 -0.209076 0)
(-0.172495 -0.201418 0)
(-0.160229 -0.193307 0)
(-0.147797 -0.184799 0)
(-0.135329 -0.175971 0)
(-0.122966 -0.16692 0)
(-0.110937 -0.15778 0)
(-0.0995976 -0.148722 0)
(-0.0893986 -0.139959 0)
(-0.0808173 -0.131723 0)
(-0.0742656 -0.124231 0)
(-0.0699697 -0.11761 0)
(-0.0678719 -0.111843 0)
(-0.0676375 -0.106759 0)
(-0.0687781 -0.102105 0)
(-0.0708032 -0.0976411 0)
(-0.0733162 -0.093187 0)
(-0.0760389 -0.0886342 0)
(-0.0787949 -0.0839271 0)
(-0.0814816 -0.0790431 0)
(-0.0840416 -0.0739784 0)
(-0.0864432 -0.0687386 0)
(-0.0886681 -0.0633338 0)
(-0.0907058 -0.0577765 0)
(-0.0925497 -0.0520801 0)
(-0.0941953 -0.0462585 0)
(-0.0956399 -0.0403255 0)
(-0.0968815 -0.0342951 0)
(-0.0979192 -0.0281808 0)
(-0.0987509 -0.0219964 0)
(-0.099372 -0.015756 0)
(-0.0997773 -0.00947652 0)
(-0.099986 -0.00316886 0)
(0.0999808 -0.00452245 0)
(0.0996926 -0.0135107 0)
(0.0991229 -0.022424 0)
(0.0982545 -0.0312393 0)
(0.0971012 -0.0399311 0)
(0.095676 -0.0484758 0)
(0.0939909 -0.0568522 0)
(0.0920613 -0.0650415 0)
(0.0899086 -0.0730285 0)
(0.0875618 -0.0808032 0)
(0.0850586 -0.0883626 0)
(0.0824473 -0.0957135 0)
(0.0797865 -0.102875 0)
(0.0771436 -0.109879 0)
(0.0745891 -0.116775 0)
(0.0721876 -0.123621 0)
(0.0699848 -0.130482 0)
(0.0679944 -0.137416 0)
(0.0661884 -0.144469 0)
(0.0644954 -0.151656 0)
(0.0628098 -0.158968 0)
(0.0610074 -0.166368 0)
(0.058965 -0.1738 0)
(0.0565752 -0.181199 0)
(0.0537561 -0.188496 0)
(0.0504537 -0.195625 0)
(0.0466392 -0.202527 0)
(0.0423051 -0.209148 0)
(0.0374589 -0.215444 0)
(0.0321184 -0.221379 0)
(0.026308 -0.226926 0)
(0.0200551 -0.232062 0)
(0.0133887 -0.236774 0)
(0.00633804 -0.241053 0)
(-0.00106752 -0.244896 0)
(-0.00879978 -0.248304 0)
(-0.0168327 -0.251282 0)
(-0.025142 -0.253838 0)
(-0.0337054 -0.255982 0)
(-0.0425015 -0.257729 0)
(-0.05151 -0.259092 0)
(-0.0607111 -0.260087 0)
(-0.0700864 -0.260732 0)
(-0.079618 -0.261044 0)
(-0.0892881 -0.261042 0)
(-0.0990792 -0.260745 0)
(-0.108974 -0.260169 0)
(-0.118953 -0.259335 0)
(-0.128999 -0.258258 0)
(-0.139091 -0.256954 0)
(-0.149207 -0.255439 0)
(-0.159322 -0.253726 0)
(-0.169409 -0.251826 0)
(-0.179434 -0.249747 0)
(-0.189355 -0.247496 0)
(-0.199108 -0.245075 0)
(-0.208593 -0.242481 0)
(-0.217726 -0.239708 0)
(-0.226515 -0.236748 0)
(-0.234983 -0.233589 0)
(-0.242322 -0.230193 0)
(-0.244803 -0.226466 0)
(-0.240038 -0.222004 0)
(-0.230879 -0.21698 0)
(-0.220595 -0.211449 0)
(-0.209763 -0.205434 0)
(-0.198338 -0.198951 0)
(-0.186372 -0.192022 0)
(-0.173991 -0.184679 0)
(-0.161336 -0.176966 0)
(-0.148544 -0.168938 0)
(-0.135754 -0.160669 0)
(-0.123124 -0.152253 0)
(-0.110905 -0.143811 0)
(-0.0994755 -0.1355 0)
(-0.0892923 -0.127512 0)
(-0.0808222 -0.120052 0)
(-0.0744475 -0.113301 0)
(-0.0703484 -0.107357 0)
(-0.0684181 -0.102183 0)
(-0.0682902 -0.0976086 0)
(-0.0694693 -0.0934025 0)
(-0.0714771 -0.0893495 0)
(-0.073936 -0.0852941 0)
(-0.076585 -0.0811427 0)
(-0.0792608 -0.0768477 0)
(-0.0818688 -0.0723897 0)
(-0.0843563 -0.0677654 0)
(-0.0866934 -0.0629794 0)
(-0.088863 -0.0580405 0)
(-0.0908542 -0.0529598 0)
(-0.0926599 -0.0477489 0)
(-0.094275 -0.0424204 0)
(-0.0956955 -0.0369869 0)
(-0.0969188 -0.031461 0)
(-0.0979427 -0.0258556 0)
(-0.0987645 -0.0201834 0)
(-0.0993787 -0.0144583 0)
(-0.0997797 -0.00869628 0)
(-0.0999862 -0.00290812 0)
(0.0999809 -0.00415143 0)
(0.0996937 -0.0124024 0)
(0.099126 -0.0205847 0)
(0.098261 -0.0286772 0)
(0.0971125 -0.0366562 0)
(0.0956936 -0.0445 0)
(0.0940167 -0.052189 0)
(0.0920973 -0.0597061 0)
(0.0899572 -0.0670375 0)
(0.0876252 -0.0741741 0)
(0.0851392 -0.0811133 0)
(0.0825474 -0.0878615 0)
(0.0799083 -0.094436 0)
(0.077289 -0.100867 0)
(0.0747599 -0.107199 0)
(0.0723856 -0.113485 0)
(0.0702124 -0.119785 0)
(0.0682544 -0.126155 0)
(0.0664846 -0.132634 0)
(0.0648325 -0.139241 0)
(0.063193 -0.145966 0)
(0.0614419 -0.152778 0)
(0.0594551 -0.159627 0)
(0.057124 -0.166453 0)
(0.054365 -0.173194 0)
(0.0511218 -0.17979 0)
(0.0473638 -0.186186 0)
(0.0430813 -0.192333 0)
(0.0382798 -0.198191 0)
(0.0329754 -0.203725 0)
(0.0271905 -0.208911 0)
(0.0209511 -0.213727 0)
(0.0142845 -0.218159 0)
(0.00721877 -0.222199 0)
(-0.000218144 -0.225842 0)
(-0.00799911 -0.22909 0)
(-0.016099 -0.231944 0)
(-0.0244946 -0.234412 0)
(-0.0331642 -0.236503 0)
(-0.0420868 -0.238225 0)
(-0.0512423 -0.239592 0)
(-0.0606115 -0.240617 0)
(-0.0701759 -0.241314 0)
(-0.079917 -0.241698 0)
(-0.0898165 -0.241783 0)
(-0.0998558 -0.241586 0)
(-0.110016 -0.24112 0)
(-0.120277 -0.240401 0)
(-0.130618 -0.239443 0)
(-0.141017 -0.238258 0)
(-0.151447 -0.236859 0)
(-0.161882 -0.235255 0)
(-0.172287 -0.233455 0)
(-0.182625 -0.231466 0)
(-0.192847 -0.229293 0)
(-0.202882 -0.226938 0)
(-0.212621 -0.224398 0)
(-0.221986 -0.22167 0)
(-0.230988 -0.218757 0)
(-0.239618 -0.215671 0)
(-0.246775 -0.212403 0)
(-0.248677 -0.208696 0)
(-0.243229 -0.204254 0)
(-0.233623 -0.199313 0)
(-0.222969 -0.193942 0)
(-0.211776 -0.188151 0)
(-0.199998 -0.181953 0)
(-0.18769 -0.175374 0)
(-0.174985 -0.168446 0)
(-0.162028 -0.161213 0)
(-0.148963 -0.15373 0)
(-0.135936 -0.146068 0)
(-0.123117 -0.138312 0)
(-0.110779 -0.130575 0)
(-0.0993143 -0.123002 0)
(-0.0891839 -0.115762 0)
(-0.0808429 -0.109038 0)
(-0.074646 -0.102981 0)
(-0.0707319 -0.0976622 0)
(-0.0689531 -0.0930288 0)
(-0.0689186 -0.0889157 0)
(-0.0701307 -0.085112 0)
(-0.0721234 -0.0814291 0)
(-0.0745359 -0.0777338 0)
(-0.077122 -0.0739472 0)
(-0.079729 -0.0700294 0)
(-0.0822687 -0.0659644 0)
(-0.0846917 -0.0617494 0)
(-0.0869701 -0.0573887 0)
(-0.0890871 -0.0528898 0)
(-0.0910323 -0.0482621 0)
(-0.0927983 -0.0435159 0)
(-0.0943797 -0.0386621 0)
(-0.0957721 -0.033712 0)
(-0.0969723 -0.0286769 0)
(-0.0979777 -0.0235686 0)
(-0.0987853 -0.0183986 0)
(-0.099389 -0.0131798 0)
(-0.0997834 -0.00792736 0)
(-0.0999864 -0.00265112 0)
(0.099981 -0.0037821 0)
(0.0996954 -0.0112992 0)
(0.0991308 -0.018754 0)
(0.0982705 -0.0261271 0)
(0.0971283 -0.033397 0)
(0.0957175 -0.0405439 0)
(0.0940503 -0.0475499 0)
(0.0921425 -0.0543994 0)
(0.0900157 -0.06108 0)
(0.0876987 -0.0675832 0)
(0.0852294 -0.073907 0)
(0.0826555 -0.0800572 0)
(0.0800354 -0.0860496 0)
(0.0774358 -0.0919119 0)
(0.0749271 -0.097684 0)
(0.0725739 -0.103416 0)
(0.0704227 -0.109161 0)
(0.0684885 -0.114971 0)
(0.066745 -0.120883 0)
(0.0651225 -0.126915 0)
(0.0635164 -0.133058 0)
(0.0618026 -0.139285 0)
(0.0598562 -0.145552 0)
(0.0575676 -0.151804 0)
(0.0548516 -0.157985 0)
(0.0516504 -0.16404 0)
(0.0479315 -0.16992 0)
(0.0436836 -0.175579 0)
(0.0389105 -0.180981 0)
(0.033627 -0.186094 0)
(0.0278539 -0.190895 0)
(0.021616 -0.195363 0)
(0.0149395 -0.199486 0)
(0.00785122 -0.203255 0)
(0.000378254 -0.206665 0)
(-0.00745315 -0.209717 0)
(-0.0156186 -0.212411 0)
(-0.0240954 -0.214753 0)
(-0.0328623 -0.21675 0)
(-0.0418987 -0.218409 0)
(-0.0511847 -0.219741 0)
(-0.0607011 -0.220757 0)
(-0.070429 -0.221469 0)
(-0.0803494 -0.221888 0)
(-0.0904434 -0.222027 0)
(-0.100691 -0.221899 0)
(-0.111073 -0.221515 0)
(-0.121566 -0.220889 0)
(-0.132149 -0.220031 0)
(-0.142795 -0.218953 0)
(-0.153477 -0.217662 0)
(-0.164164 -0.216169 0)
(-0.174818 -0.214481 0)
(-0.185399 -0.212602 0)
(-0.195853 -0.210538 0)
(-0.206102 -0.20829 0)
(-0.216037 -0.205858 0)
(-0.225589 -0.203243 0)
(-0.234799 -0.200453 0)
(-0.243606 -0.197507 0)
(-0.250463 -0.194415 0)
(-0.251587 -0.190761 0)
(-0.245444 -0.186437 0)
(-0.23554 -0.181677 0)
(-0.224647 -0.176556 0)
(-0.213193 -0.171075 0)
(-0.201143 -0.165245 0)
(-0.188571 -0.15909 0)
(-0.175615 -0.152643 0)
(-0.162426 -0.145944 0)
(-0.149155 -0.139046 0)
(-0.135952 -0.132014 0)
(-0.123 -0.124927 0)
(-0.11059 -0.117887 0)
(-0.0991264 -0.111026 0)
(-0.0890704 -0.104497 0)
(-0.0808666 -0.0984579 0)
(-0.0748443 -0.093039 0)
(-0.0711059 -0.0882904 0)
(-0.0694688 -0.0841505 0)
(-0.0695223 -0.080463 0)
(-0.0707677 -0.0770375 0)
(-0.0727502 -0.0737088 0)
(-0.0751238 -0.0703621 0)
(-0.077655 -0.0669301 0)
(-0.0802004 -0.0633793 0)
(-0.0826776 -0.0596963 0)
(-0.0850403 -0.0558789 0)
(-0.0872625 -0.0519308 0)
(-0.0893282 -0.0478586 0)
(-0.0912272 -0.0436706 0)
(-0.0929524 -0.0393758 0)
(-0.0944982 -0.0349839 0)
(-0.0958601 -0.0305048 0)
(-0.0970346 -0.0259488 0)
(-0.098019 -0.0213264 0)
(-0.09881 -0.0166481 0)
(-0.0994014 -0.0119256 0)
(-0.0997878 -0.00717291 0)
(-0.0999867 -0.00239894 0)
(0.0999811 -0.00341496 0)
(0.0996971 -0.0102024 0)
(0.0991358 -0.0169339 0)
(0.0982803 -0.023592 0)
(0.0971446 -0.0301573 0)
(0.0957417 -0.0366118 0)
(0.0940841 -0.0429396 0)
(0.0921873 -0.0491265 0)
(0.0900728 -0.0551613 0)
(0.0877694 -0.0610367 0)
(0.0853147 -0.0667506 0)
(0.0827563 -0.0723083 0)
(0.0801521 -0.0777242 0)
(0.0775688 -0.0830232 0)
(0.0750765 -0.0882412 0)
(0.0727399 -0.0934233 0)
(0.0706058 -0.0986187 0)
(0.0686897 -0.103874 0)
(0.0669661 -0.109222 0)
(0.0653659 -0.114681 0)
(0.0637848 -0.120244 0)
(0.0620985 -0.125886 0)
(0.0601818 -0.131567 0)
(0.057924 -0.137241 0)
(0.0552387 -0.142855 0)
(0.0520666 -0.14836 0)
(0.0483741 -0.153711 0)
(0.0441483 -0.158869 0)
(0.0393919 -0.163798 0)
(0.0341183 -0.168471 0)
(0.0283476 -0.172865 0)
(0.0221032 -0.176963 0)
(0.0154107 -0.180751 0)
(0.00829591 -0.184223 0)
(0.000785281 -0.187372 0)
(-0.00709558 -0.190197 0)
(-0.0153228 -0.192701 0)
(-0.023874 -0.194885 0)
(-0.0327284 -0.196757 0)
(-0.0418653 -0.198322 0)
(-0.0512652 -0.199588 0)
(-0.0609084 -0.200565 0)
(-0.0707758 -0.201263 0)
(-0.0808479 -0.20169 0)
(-0.0911048 -0.201858 0)
(-0.101526 -0.201777 0)
(-0.11209 -0.201457 0)
(-0.122773 -0.200907 0)
(-0.133552 -0.200139 0)
(-0.144398 -0.19916 0)
(-0.155281 -0.197978 0)
(-0.166168 -0.196601 0)
(-0.17702 -0.195034 0)
(-0.187791 -0.193283 0)
(-0.198426 -0.191352 0)
(-0.208841 -0.189243 0)
(-0.218926 -0.186956 0)
(-0.228627 -0.184492 0)
(-0.238002 -0.181862 0)
(-0.246921 -0.179078 0)
(-0.253382 -0.176166 0)
(-0.253706 -0.172666 0)
(-0.24698 -0.168566 0)
(-0.236873 -0.16409 0)
(-0.225822 -0.159301 0)
(-0.214175 -0.154204 0)
(-0.201919 -0.148806 0)
(-0.189143 -0.143132 0)
(-0.175994 -0.137212 0)
(-0.162629 -0.131085 0)
(-0.149204 -0.1248 0)
(-0.135871 -0.118416 0)
(-0.122828 -0.112003 0)
(-0.110377 -0.105656 0)
(-0.0989345 -0.0994912 0)
(-0.0889619 -0.0936465 0)
(-0.080893 -0.088261 0)
(-0.0750337 -0.0834431 0)
(-0.0714544 -0.0792274 0)
(-0.0699433 -0.0755481 0)
(-0.0700742 -0.0722595 0)
(-0.0713488 -0.0691917 0)
(-0.073323 -0.0662009 0)
(-0.0756635 -0.0631888 0)
(-0.0781478 -0.0600987 0)
(-0.0806399 -0.0569022 0)
(-0.0830624 -0.0535883 0)
(-0.0853719 -0.0501554 0)
(-0.0875436 -0.0466069 0)
(-0.0895624 -0.0429484 0)
(-0.0914187 -0.0391872 0)
(-0.0931053 -0.0353312 0)
(-0.0946169 -0.0313888 0)
(-0.095949 -0.0273688 0)
(-0.0970981 -0.0232803 0)
(-0.0980613 -0.0191325 0)
(-0.0988353 -0.014935 0)
(-0.0994142 -0.010698 0)
(-0.0997923 -0.00643442 0)
(-0.099987 -0.00215207 0)
(0.0999812 -0.00304991 0)
(0.0996988 -0.00911182 0)
(0.0991406 -0.015124 0)
(0.0982898 -0.0210711 0)
(0.0971602 -0.0269355 0)
(0.0957649 -0.0327015 0)
(0.094116 -0.0383547 0)
(0.0922293 -0.0438826 0)
(0.090126 -0.0492752 0)
(0.0878346 -0.0545259 0)
(0.0853926 -0.0596329 0)
(0.0828473 -0.0646011 0)
(0.0802565 -0.0694431 0)
(0.0776864 -0.0741813 0)
(0.0752071 -0.0788478 0)
(0.0728833 -0.0834827 0)
(0.0707622 -0.0881302 0)
(0.0688596 -0.0928318 0)
(0.0671506 -0.0976187 0)
(0.0655667 -0.102505 0)
(0.0640038 -0.107488 0)
(0.0623376 -0.112544 0)
(0.0604423 -0.117638 0)
(0.0582065 -0.122729 0)
(0.0555426 -0.12777 0)
(0.0523904 -0.132717 0)
(0.048715 -0.137531 0)
(0.0445025 -0.142175 0)
(0.0397546 -0.146618 0)
(0.0344838 -0.150835 0)
(0.0287093 -0.154805 0)
(0.0224538 -0.158513 0)
(0.0157422 -0.161947 0)
(0.00859967 -0.165099 0)
(0.00105216 -0.167964 0)
(-0.00687516 -0.17054 0)
(-0.0151587 -0.172828 0)
(-0.0237766 -0.174832 0)
(-0.0327078 -0.176554 0)
(-0.0419322 -0.178 0)
(-0.0514298 -0.179177 0)
(-0.0611809 -0.180092 0)
(-0.0711658 -0.180753 0)
(-0.0813645 -0.181169 0)
(-0.0917566 -0.181347 0)
(-0.10232 -0.181297 0)
(-0.113033 -0.181027 0)
(-0.123871 -0.180546 0)
(-0.134807 -0.17986 0)
(-0.145813 -0.178978 0)
(-0.156857 -0.177906 0)
(-0.167901 -0.17665 0)
(-0.178906 -0.175216 0)
(-0.189825 -0.173607 0)
(-0.200598 -0.171828 0)
(-0.211139 -0.169879 0)
(-0.221336 -0.167763 0)
(-0.231147 -0.16548 0)
(-0.240643 -0.163038 0)
(-0.249626 -0.160447 0)
(-0.25568 -0.157757 0)
(-0.255277 -0.154493 0)
(-0.24806 -0.150704 0)
(-0.237801 -0.146583 0)
(-0.226633 -0.142189 0)
(-0.21484 -0.137528 0)
(-0.202425 -0.132609 0)
(-0.189494 -0.127456 0)
(-0.176199 -0.122098 0)
(-0.162702 -0.116569 0)
(-0.14916 -0.110914 0)
(-0.135732 -0.105185 0)
(-0.122624 -0.0994473 0)
(-0.110155 -0.0937838 0)
(-0.0987457 -0.0883 0)
(-0.0888589 -0.0831169 0)
(-0.0809176 -0.0783554 0)
(-0.0752071 -0.0741065 0)
(-0.0717703 -0.0703925 0)
(-0.0703706 -0.0671475 0)
(-0.0705696 -0.0642382 0)
(-0.0718705 -0.0615147 0)
(-0.0738384 -0.0588527 0)
(-0.0761509 -0.0561683 0)
(-0.0785949 -0.0534136 0)
(-0.081041 -0.0505648 0)
(-0.0834158 -0.047613 0)
(-0.0856783 -0.0445568 0)
(-0.0878049 -0.0413993 0)
(-0.0897815 -0.0381454 0)
(-0.0915988 -0.0348015 0)
(-0.09325 -0.0313744 0)
(-0.0947299 -0.0278714 0)
(-0.096034 -0.0243003 0)
(-0.097159 -0.020669 0)