/*--------------------------------*- C++ -*----------------------------------*\
  =========                 |
  \\      /  F ield         | OpenFOAM: The Open Source CFD Toolbox
   \\    /   O peration     | Website:  https://openfoam.org
    \\  /    A nd           | Version:  8
     \\/     M anipulation  |
\*---------------------------------------------------------------------------*/
FoamFile
{
    version     2.0;
    format      ascii;
    class       volScalarField;
    location    "400/fluid";
    object      CH4;
}
// * * * * * * * * * * * * * * * * * * * * * * * * * * * * * * * * * * * * * //

dimensions      [0 0 0 0 0 0 0];

internalField   nonuniform List<scalar> 
4000
(
0.999997
0.999987
0.999971
0.999943
0.999896
0.99982
0.999693
0.999487
0.999154
0.998622
0.997785
0.996488
0.994515
0.99158
0.987322
0.98132
0.973122
0.962303
0.94851
0.931534
0.911329
0.888007
0.861806
0.833058
0.802152
0.769503
0.735526
0.700624
0.665175
0.629527
0.593992
0.558842
0.524315
0.490605
0.457874
0.426247
0.395823
0.366676
0.338853
0.312377
0.287258
0.263491
0.241055
0.21992
0.20005
0.1814
0.163922
0.147567
0.132282
0.118015
0.104713
0.0923245
0.0808001
0.0700925
0.060157
0.0509527
0.0424425
0.0345941
0.0275453
0.021111
0.0151117
0.00972251
0.00498068
0.00303779
0.00210975
0.00144368
0.000971911
0.000642549
0.000416303
0.00026376
0.000163157
9.86186e-05
5.8776e-05
3.57327e-05
2.42749e-05
1.83555e-05
1.36857e-05
9.71544e-06
6.48971e-06
4.04268e-06
2.33886e-06
1.26023e-06
6.37789e-07
3.07605e-07
1.43713e-07
6.54849e-08
2.92435e-08
1.28445e-08
5.56431e-09
2.38269e-09
1.01036e-09
4.24899e-10
1.77419e-10
7.36013e-11
3.03207e-11
1.23674e-11
4.94855e-12
1.89091e-12
6.31804e-13
1.10786e-13
0.999997
0.999987
0.99997
0.999942
0.999895
0.999817
0.999689
0.999479
0.999141
0.998601
0.997753
0.996442
0.994454
0.991507
0.987245
0.981255
0.973097
0.962349
0.948672
0.931851
0.911824
0.888683
0.862653
0.834054
0.803264
0.770693
0.736755
0.701855
0.666374
0.630665
0.595047
0.559797
0.525158
0.491329
0.458477
0.42673
0.396188
0.366923
0.338987
0.312415
0.28721
0.263364
0.240858
0.219661
0.199736
0.18104
0.163523
0.147136
0.131825
0.117537
0.104219
0.0918201
0.0802896
0.0695798
0.0596461
0.050447
0.0419453
0.0341085
0.0270734
0.0206327
0.0146353
0.00925301
0.00453989
0.0029704
0.0020416
0.00138621
0.000927428
0.000609856
0.00039316
0.000247891
0.000152618
9.18789e-05
5.47003e-05
3.3575e-05
2.34379e-05
1.77007e-05
1.3042e-05
9.13536e-06
6.01831e-06
3.70162e-06
2.12202e-06
1.13945e-06
5.78336e-07
2.80903e-07
1.3245e-07
6.09567e-08
2.74864e-08
1.21787e-08
5.31493e-09
2.28935e-09
9.75087e-10
4.11341e-10
1.72098e-10
7.14711e-11
2.9456e-11
1.2015e-11
4.80681e-12
1.83637e-12
6.13458e-13
1.0759e-13
0.999997
0.999987
0.99997
0.999941
0.999893
0.999814
0.999684
0.999471
0.999127
0.998581
0.997723
0.9964
0.9944
0.991441
0.987173
0.981188
0.973051
0.962342
0.948731
0.932004
0.912098
0.8891
0.863221
0.834769
0.804111
0.771646
0.737783
0.702923
0.667449
0.631714
0.59604
0.56071
0.525968
0.492019
0.459033
0.427141
0.396456
0.367063
0.339009
0.312317
0.286998
0.263047
0.240443
0.21916
0.199158
0.180394
0.16282
0.146384
0.131033
0.116714
0.103373
0.0909581
0.0794183
0.0687059
0.0587758
0.0495869
0.041102
0.0332927
0.0263219
0.019782
0.0138425
0.00850343
0.00383562
0.00267842
0.00184728
0.00125602
0.000840209
0.000551764
0.00035489
0.000223091
0.000136916
8.22706e-05
4.91376e-05
3.07245e-05
2.21237e-05
1.67421e-05
1.22454e-05
8.50276e-06
5.55339e-06
3.39174e-06
1.93648e-06
1.0392e-06
5.28728e-07
2.57799e-07
1.22119e-07
5.64799e-08
2.5594e-08
1.13939e-08
4.99401e-09
2.15928e-09
9.2261e-10
3.90182e-10
1.63547e-10
6.80035e-11
2.80464e-11
1.14433e-11
4.57805e-12
1.74868e-12
5.84011e-13
1.02417e-13
0.999997
0.999987
0.99997
0.999941
0.999892
0.999812
0.999681
0.999466
0.99912
0.99857
0.997708
0.996381
0.994376
0.991414
0.987148
0.981173
0.973058
0.962393
0.948842
0.93219
0.912371
0.889466
0.863683
0.835322
0.804744
0.772344
0.738525
0.703686
0.668206
0.632439
0.596707
0.561296
0.526455
0.492395
0.459294
0.427294
0.396497
0.366982
0.338803
0.31199
0.286556
0.262497
0.239795
0.218422
0.198341
0.179508
0.161874
0.145388
0.129998
0.115647
0.102283
0.0898538
0.0783075
0.0675963
0.0576753
0.0485035
0.0400448
0.0323219
0.0253768
0.0188778
0.0130273
0.00783407
0.00340199
0.00238841
0.00165263
0.00112531
0.000752775
0.000493764
0.000316922
0.000198704
0.00012167
7.31225e-05
4.40439e-05
2.83595e-05
2.09891e-05
1.58543e-05
1.15017e-05
7.90799e-06
5.11091e-06
3.09096e-06
1.75118e-06
9.353e-07
4.75036e-07
2.31806e-07
1.10042e-07
5.10439e-08
2.32091e-08
1.03696e-08
4.56178e-09
1.9795e-09
8.4867e-10
3.60023e-10
1.51318e-10
6.30649e-11
2.60594e-11
1.06488e-11
4.2651e-12
1.63041e-12
5.44724e-13
9.55542e-14
0.999997
0.999987
0.999969
0.99994
0.999892
0.999811
0.999679
0.999463
0.999115
0.998563
0.997698
0.996367
0.994358
0.991394
0.987129
0.98116
0.973058
0.962417
0.948901
0.932297
0.912535
0.889692
0.863971
0.835666
0.805135
0.772766
0.738962
0.70412
0.668617
0.63281
0.597023
0.561546
0.526633
0.492493
0.459299
0.427189
0.396276
0.366644
0.338349
0.311426
0.285887
0.261731
0.238939
0.217486
0.197333
0.178438
0.160752
0.144223
0.128798
0.114422
0.101042
0.0886035
0.0770562
0.0663513
0.0564438
0.0472928
0.0388625
0.0312217
0.0243505
0.0179133
0.0121407
0.00705334
0.00318666
0.00222551
0.00153196
0.00103789
0.00069081
0.000450825
0.000287899
0.000179646
0.000109607
6.58937e-05
4.0149e-05
2.67867e-05
2.01646e-05
1.51375e-05
1.08745e-05
7.39624e-06
4.72842e-06
2.83215e-06
1.59295e-06
8.47115e-07
4.29533e-07
2.0969e-07
9.969e-08
4.63365e-08
2.11171e-08
9.45701e-09
4.16977e-09
1.81323e-09
7.78877e-10
3.30978e-10
1.39314e-10
5.81336e-11
2.40459e-11
9.83366e-12
3.94083e-12
1.50695e-12
5.0351e-13
8.83336e-14
0.999997
0.999987
0.999969
0.99994
0.999891
0.99981
0.999677
0.999461
0.999112
0.998559
0.997692
0.99636
0.99435
0.991386
0.987122
0.981157
0.973064
0.962437
0.948942
0.932362
0.912629
0.889816
0.864124
0.835843
0.805327
0.772965
0.739157
0.704298
0.66877
0.632929
0.597095
0.561556
0.526564
0.492331
0.459037
0.426825
0.395808
0.366073
0.337678
0.310659
0.28503
0.26079
0.237923
0.216402
0.19619
0.177244
0.159517
0.142956
0.127507
0.113116
0.0997278
0.0872893
0.0757487
0.065057
0.0551684
0.0460412
0.0376388
0.0300428
0.0232168
0.0168338
0.0111027
0.00602397
0.00311872
0.00215317
0.00146716
0.000984822
0.000649915
0.000420785
0.000266747
0.000165364
0.000100414
6.03627e-05
3.72554e-05
2.58254e-05
1.95399e-05
1.45289e-05
1.03211e-05
6.93855e-06
4.38544e-06
2.60018e-06
1.45093e-06
7.67472e-07
3.87988e-07
1.89274e-07
9.00209e-08
4.18904e-08
1.91217e-08
8.57955e-09
3.7905e-09
1.65165e-09
7.10863e-10
3.02629e-10
1.27592e-10
5.33191e-11
2.20812e-11
9.03888e-12
3.62484e-12
1.38668e-12
4.63364e-13
8.12998e-14
0.999997
0.999987
0.999969
0.99994
0.999891
0.99981
0.999676
0.99946
0.99911
0.998556
0.997688
0.996355
0.994344
0.991379
0.987115
0.981152
0.973064
0.962443
0.948956
0.932387
0.912665
0.889864
0.86418
0.835905
0.805391
0.773023
0.739199
0.704314
0.668746
0.632849
0.596949
0.561334
0.52626
0.491942
0.458558
0.426254
0.395147
0.365323
0.336843
0.309743
0.284039
0.25973
0.236802
0.215227
0.19497
0.175987
0.158231
0.141649
0.126187
0.111791
0.0984046
0.0859751
0.07445
0.0637798
0.0539183
0.0448235
0.0364642
0.0289515
0.022169
0.0158119
0.0101068
0.00510891
0.00304473
0.00208527
0.00140967
0.000938995
0.000615114
0.000395457
0.000249038
0.000153481
9.28117e-05
5.58102e-05
3.4893e-05
2.48639e-05
1.88514e-05
1.3909e-05
9.78954e-06
6.51639e-06
4.07881e-06
2.39793e-06
1.32946e-06
7.00254e-07
3.53192e-07
1.72217e-07
8.1935e-08
3.81581e-08
1.74367e-08
7.83309e-09
3.46517e-09
1.51186e-09
6.51518e-10
2.77695e-10
1.17207e-10
4.90266e-11
2.03199e-11
8.32316e-12
3.33923e-12
1.27765e-12
4.26896e-13
7.49035e-14
0.999997
0.999986
0.999969
0.99994
0.999891
0.999809
0.999676
0.999459
0.999109
0.998554
0.997686
0.996351
0.994339
0.991373
0.987108
0.981145
0.973057
0.962438
0.948953
0.932386
0.912665
0.889862
0.864172
0.835885
0.80535
0.772954
0.739094
0.704163
0.668542
0.632586
0.596619
0.560933
0.525783
0.491386
0.457922
0.425538
0.394352
0.364453
0.335901
0.308733
0.282968
0.258605
0.235629
0.214014
0.193724
0.174717
0.156943
0.140351
0.124886
0.110494
0.097119
0.084707
0.0732054
0.0625644
0.0527371
0.0436805
0.0353647
0.0279097
0.0211467
0.0148256
0.00916621
0.00424475
0.00290539
0.00197291
0.00132529
0.000878371
0.000572965
0.000366973
0.000230325
0.000141575
8.55477e-05
5.16708e-05
3.28809e-05
2.39736e-05
1.81775e-05
1.33305e-05
9.31309e-06
6.14901e-06
3.81776e-06
2.22841e-06
1.22859e-06
6.44634e-07
3.24366e-07
1.58042e-07
7.51818e-08
3.50236e-08
1.60135e-08
7.19919e-09
3.1875e-09
1.39199e-09
6.00426e-10
2.56152e-10
1.08207e-10
4.52967e-11
1.87862e-11
7.69873e-12
3.08965e-12
1.18225e-12
3.94958e-13
6.92993e-14
0.999997
0.999986
0.999969
0.999939
0.99989
0.999809
0.999675
0.999458
0.999108
0.998552
0.997683
0.996347
0.994333
0.991365
0.987098
0.981131
0.97304
0.962415
0.948923
0.932348
0.912615
0.889796
0.864087
0.835774
0.805209
0.772775
0.738871
0.703891
0.668214
0.632197
0.596165
0.56041
0.52519
0.490721
0.457186
0.424732
0.393478
0.363515
0.334903
0.307682
0.281868
0.257463
0.234451
0.212807
0.192496
0.173473
0.155692
0.139098
0.123639
0.109259
0.0959023
0.0835146
0.0720438
0.0614405
0.0516589
0.0426583
0.0343903
0.0270717
0.0201997
0.0139901
0.00844483
0.00366565
0.00256189
0.00176433
0.00119653
0.000798134
0.000522843
0.000335802
0.000211166
0.000130045
7.8864e-05
4.80803e-05
3.12973e-05
2.3253e-05
1.76198e-05
1.2861e-05
8.93188e-06
5.85723e-06
3.6114e-06
2.09482e-06
1.14918e-06
6.008e-07
3.01571e-07
1.46778e-07
6.97842e-08
3.2502e-08
1.48609e-08
6.68233e-09
2.95962e-09
1.29302e-09
5.58004e-10
2.38175e-10
1.00664e-10
4.21587e-11
1.74917e-11
7.17028e-12
2.87797e-12
1.10122e-12
3.67825e-13
6.4535e-14
0.999997
0.999986
0.999969
0.999939
0.99989
0.999809
0.999675
0.999457
0.999107
0.99855
0.99768
0.996343
0.994327
0.991356
0.987085
0.981113
0.973014
0.96238
0.948875
0.932284
0.912531
0.889689
0.863951
0.835605
0.805001
0.772525
0.738572
0.703539
0.667805
0.631728
0.595633
0.559814
0.524529
0.489996
0.456398
0.423883
0.392571
0.362554
0.333894
0.306629
0.280778
0.256341
0.233304
0.211641
0.191317
0.172288
0.154505
0.137918
0.12247
0.108106
0.0947703
0.0824088
0.0709685
0.0603997
0.0506559
0.0416952
0.0335276
0.0262681
0.0194573
0.013344
0.00793776
0.0033653
0.00235335
0.00162377
0.00110373
0.000737899
0.00048437
0.000311655
0.000196332
0.000121203
7.38542e-05
4.5548e-05
3.04139e-05
2.29081e-05
1.73241e-05
1.25799e-05
8.68057e-06
5.65389e-06
3.4623e-06
1.99594e-06
1.08939e-06
5.67328e-07
2.83951e-07
1.37981e-07
6.55298e-08
3.04976e-08
1.39378e-08
6.2656e-09
2.7748e-09
1.21233e-09
5.2326e-10
2.23394e-10
9.44406e-11
3.95624e-11
1.6418e-11
6.73114e-12
2.70186e-12
1.0338e-12
3.4525e-13
6.05682e-14
0.999997
0.999986
0.999969
0.999939
0.99989
0.999809
0.999675
0.999456
0.999106
0.998549
0.997678
0.996339
0.994321
0.991346
0.98707
0.981091
0.972982
0.962335
0.948814
0.932202
0.912425
0.889554
0.863782
0.835399
0.804753
0.77223
0.738227
0.703141
0.667351
0.631216
0.595062
0.559184
0.52384
0.489249
0.455596
0.423029
0.391669
0.361608
0.332908
0.305609
0.279729
0.255269
0.232215
0.210541
0.190211
0.171181
0.153404
0.136827
0.121394
0.107049
0.0937374
0.0814037
0.069995
0.0594615
0.0497571
0.0408406
0.0327485
0.0255395
0.0187744
0.0127067
0.00734625
0.00321848
0.00224792
0.00154958
0.00105266
0.00070351
0.000461746
0.000297147
0.00018731
0.00011583
7.08853e-05
4.41819e-05
3.01455e-05
2.28882e-05
1.72575e-05
1.24723e-05
8.55388e-06
5.53085e-06
3.36319e-06
1.92652e-06
1.04596e-06
5.42443e-07
2.7062e-07
1.3124e-07
6.22333e-08
2.89301e-08
1.32101e-08
5.93478e-09
2.62719e-09
1.14755e-09
4.95237e-10
2.11425e-10
8.93846e-11
3.74473e-11
1.55415e-11
6.37212e-12
2.55778e-12
9.7864e-13
3.26797e-13
5.7326e-14
0.999997
0.999986
0.999969
0.999939
0.99989
0.999808
0.999674
0.999456
0.999104
0.998547
0.997675
0.996334
0.994313
0.991335
0.987053
0.981066
0.972946
0.962284
0.948745
0.93211
0.912306
0.889403
0.863596
0.835173
0.804484
0.771914
0.737862
0.702724
0.666881
0.630691
0.594483
0.558552
0.523155
0.488514
0.454813
0.422202
0.390802
0.360704
0.331973
0.304648
0.278746
0.25427
0.231206
0.209526
0.189195
0.17017
0.152401
0.135836
0.12042
0.106096
0.0928084
0.0805013
0.0691219
0.0586198
0.0489483
0.0400652
0.0320077
0.0248348
0.0181051
0.0120677
0.00672283
0.00317021
0.00220791
0.00151881
0.00103018
0.00068775
0.000451103
0.000290231
0.000183021
0.000113351
6.96497e-05
4.38277e-05
3.05006e-05
2.32213e-05
1.74179e-05
1.25075e-05
8.52112e-06
5.47162e-06
3.30303e-06
1.88003e-06
1.01529e-06
5.24289e-07
2.60675e-07
1.26134e-07
5.97065e-08
2.77168e-08
1.26422e-08
5.67485e-09
2.51054e-09
1.0961e-09
4.72889e-10
2.01846e-10
8.53262e-11
3.57454e-11
1.48349e-11
6.08228e-12
2.44134e-12
9.34057e-13
3.1189e-13
5.47113e-14
0.999997
0.999986
0.999969
0.999939
0.99989
0.999808
0.999674
0.999455
0.999103
0.998545
0.997672
0.996329
0.994306
0.991323
0.987035
0.981039
0.972907
0.96223
0.948672
0.932013
0.912181
0.889246
0.863403
0.834941
0.804209
0.771595
0.737496
0.702309
0.666417
0.630178
0.593921
0.557942
0.522499
0.487815
0.454073
0.421425
0.389991
0.359865
0.331109
0.303764
0.277847
0.253361
0.23029
0.208609
0.188281
0.169263
0.151505
0.134955
0.119556
0.105253
0.0919888
0.0797076
0.0683562
0.0578838
0.0482434
0.0393931
0.0313776
0.024244
0.0175485
0.0115407
0.00622333
0.00314192
0.00218776
0.00150467
0.00102048
0.000681322
0.00044701
0.000287755
0.000181635
0.0001127
6.95274e-05
4.41532e-05
3.1271e-05
2.37902e-05
1.77383e-05
1.26525e-05
8.55848e-06
5.45688e-06
3.27217e-06
1.85085e-06
9.94437e-07
5.11396e-07
2.53416e-07
1.22339e-07
5.78032e-08
2.6793e-08
1.2206e-08
5.47379e-09
2.41976e-09
1.05586e-09
4.55334e-10
1.94294e-10
8.2117e-11
3.43963e-11
1.42736e-11
5.85174e-12
2.34865e-12
8.9856e-13
3.00019e-13
5.26289e-14
0.999997
0.999986
0.999969
0.999939
0.99989
0.999808
0.999673
0.999454
0.999102
0.998543
0.997669
0.996324
0.994298
0.991311
0.987017
0.981013
0.972869
0.962177
0.948599
0.931917
0.912058
0.889092
0.863215
0.834715
0.803944
0.771288
0.737146
0.701915
0.665979
0.629696
0.593396
0.557375
0.521893
0.487172
0.453396
0.420717
0.389256
0.359107
0.330332
0.302972
0.277045
0.252551
0.229478
0.207798
0.187476
0.168466
0.15072
0.134185
0.118804
0.104521
0.0912793
0.0790223
0.0676969
0.0572519
0.0476412
0.0388239
0.0308457
0.0237392
0.0170674
0.0110869
0.00579883
0.00311666
0.00217315
0.0014965
0.0010162
0.000679294
0.000446245
0.000287668
0.000181901
0.000113151
7.00949e-05
4.48386e-05
3.20845e-05
2.44048e-05
1.8114e-05
1.28493e-05
8.63854e-06
5.47279e-06
3.26224e-06
1.83538e-06
9.81373e-07
5.0272e-07
2.48335e-07
1.19619e-07
5.64141e-08
2.61094e-08
1.18797e-08
5.32202e-09
2.35074e-09
1.02507e-09
4.41833e-10
1.88462e-10
7.96295e-11
3.33476e-11
1.38364e-11
5.6719e-12
2.27636e-12
8.70857e-13
2.90754e-13
5.10009e-14
0.999997
0.999986
0.999969
0.999939
0.99989
0.999808
0.999673
0.999454
0.999101
0.998541
0.997666
0.99632
0.994291
0.9913
0.987
0.980988
0.972833
0.962126
0.94853
0.931827
0.911942
0.888948
0.86304
0.834506
0.8037
0.771006
0.736826
0.701556
0.665581
0.62926
0.592923
0.556867
0.521351
0.486599
0.452795
0.420091
0.388609
0.358441
0.329652
0.302281
0.276347
0.25185
0.228777
0.2071
0.186784
0.167784
0.15005
0.133529
0.118165
0.1039
0.0906786
0.0784435
0.0671414
0.0567224
0.0471385
0.0383445
0.0303935
0.0233111
0.0166644
0.0107073
0.00545906
0.00309551
0.00216247
0.00149198
0.00101508
0.000679897
0.000447583
0.000289192
0.000183344
0.000114418
7.11976e-05
4.58517e-05
3.30587e-05
2.51137e-05
1.85597e-05
1.3099e-05
8.75768e-06
5.51638e-06
3.26986e-06
1.83083e-06
9.75011e-07
4.97657e-07
2.45088e-07
1.17801e-07
5.54565e-08
2.56274e-08
1.16456e-08
5.21162e-09
2.29998e-09
1.00223e-09
4.31749e-10
1.84081e-10
7.77532e-11
3.25539e-11
1.35048e-11
5.53551e-12
2.22148e-12
8.49804e-13
2.8371e-13
4.97612e-14
0.999997
0.999986
0.999969
0.999939
0.999889
0.999807
0.999673
0.999453
0.9991
0.99854
0.997663
0.996316
0.994285
0.99129
0.986985
0.980965
0.972801
0.962081
0.948469
0.931746
0.91184
0.88882
0.862885
0.834322
0.803484
0.770758
0.736545
0.701243
0.665235
0.628882
0.592514
0.556429
0.520886
0.486109
0.452283
0.419559
0.388059
0.357878
0.329078
0.301699
0.275761
0.251262
0.22819
0.206518
0.186208
0.167217
0.149494
0.132986
0.117637
0.103389
0.0901853
0.0779704
0.0666903
0.0562923
0.0467268
0.0379506
0.0300266
0.0229653
0.0163387
0.0104009
0.00518838
0.00307641
0.00215433
0.00149012
0.00101643
0.000682619
0.000450622
0.000292017
0.000185737
0.000116351
7.27446e-05
4.71374e-05
3.41743e-05
2.59116e-05
1.90707e-05
1.33967e-05
8.91126e-06
5.58382e-06
3.29315e-06
1.83542e-06
9.73725e-07
4.95486e-07
2.43346e-07
1.16725e-07
5.48536e-08
2.53109e-08
1.14873e-08
5.13535e-09
2.26434e-09
9.85999e-10
4.24517e-10
1.80917e-10
7.63913e-11
3.19768e-11
1.32637e-11
5.43607e-12
2.18137e-12
8.34394e-13
2.78549e-13
4.88518e-14
0.999997
0.999986
0.999969
0.999939
0.999889
0.999807
0.999672
0.999453
0.999099
0.998539
0.997661
0.996312
0.994279
0.991282
0.986972
0.980946
0.972773
0.962043
0.948418
0.931679
0.911753
0.888713
0.862755
0.834168
0.803305
0.770553
0.736313
0.700984
0.66495
0.628571
0.592178
0.55607
0.520506
0.485709
0.451865
0.419126
0.387614
0.357422
0.328615
0.301231
0.275289
0.250791
0.227721
0.206052
0.185748
0.166765
0.149052
0.132556
0.11722
0.102986
0.089799
0.0776006
0.0663349
0.0559506
0.0464012
0.0376429
0.0297393
0.0226944
0.0160816
0.0101543
0.00496134
0.00305305
0.00214606
0.00148957
0.00101948
0.000686945
0.000455015
0.000295904
0.000188923
0.000118847
7.46699e-05
4.86567e-05
3.54012e-05
2.6777e-05
1.96295e-05
1.37289e-05
9.08981e-06
5.6688e-06
3.32809e-06
1.84726e-06
9.76479e-07
4.95373e-07
2.42711e-07
1.16203e-07
5.45223e-08
2.51236e-08
1.13889e-08
5.08636e-09
2.24091e-09
9.75171e-10
4.19648e-10
1.78777e-10
7.54671e-11
3.15831e-11
1.30981e-11
5.36744e-12
2.15358e-12
8.23686e-13
2.74957e-13
4.82177e-14
0.999997
0.999986
0.999969
0.999939
0.999889
0.999807
0.999672
0.999452
0.999099
0.998538
0.997659
0.99631
0.994275
0.991275
0.986962
0.980932
0.972752
0.962013
0.948378
0.931626
0.911687
0.888631
0.862655
0.834049
0.803166
0.770394
0.736134
0.700785
0.664731
0.628333
0.591922
0.555796
0.520216
0.485405
0.451548
0.418798
0.387277
0.357078
0.328265
0.300878
0.274935
0.250437
0.227369
0.205704
0.185406
0.166429
0.148725
0.132238
0.116912
0.10269
0.0895133
0.0773249
0.0660713
0.0557009
0.0461654
0.0374213
0.0295323
0.0225007
0.0158995
0.00998187
0.00480707
0.00305038
0.00214907
0.00149558
0.00102653
0.000693834
0.000461089
0.00030091
0.000192853
0.000121829
7.68948e-05
5.03349e-05
3.66789e-05
2.76618e-05
2.01991e-05
1.40694e-05
9.27622e-06
5.76095e-06
3.3688e-06
1.86311e-06
9.81744e-07
4.96689e-07
2.42852e-07
1.1607e-07
5.4383e-08
2.50308e-08
1.13363e-08
5.05895e-09
2.22743e-09
9.68794e-10
4.16721e-10
1.77466e-10
7.48921e-11
3.13351e-11
1.29928e-11
5.32345e-12
2.13566e-12
8.1675e-13
2.72625e-13
4.78049e-14
0.999997
0.999986
0.999969
0.999939
0.999889
0.999807
0.999672
0.999452
0.999098
0.998537
0.997658
0.996308
0.994272
0.991271
0.986956
0.980922
0.972738
0.961994
0.948351
0.931591
0.911642
0.888575
0.862587
0.833969
0.803073
0.770287
0.736014
0.700651
0.664583
0.628172
0.591749
0.555612
0.520021
0.485201
0.451336
0.418579
0.387052
0.356849
0.328033
0.300643
0.2747
0.250202
0.227136
0.205474
0.18518
0.166208
0.148509
0.132028
0.116709
0.102494
0.0893243
0.0771449
0.0659006
0.0555397
0.0460139
0.0372792
0.0294016
0.0223785
0.0157845
0.00987245
0.00470741
0.00304522
0.00215245
0.00150271
0.0010347
0.00070159
0.000467777
0.000306324
0.000197037
0.000124951
7.9172e-05
5.1982e-05
3.78665e-05
2.84621e-05
2.07063e-05
1.43701e-05
9.44088e-06
5.84333e-06
3.40621e-06
1.87845e-06
9.87338e-07
4.98438e-07
2.43354e-07
1.16165e-07
5.43707e-08
2.50035e-08
1.13156e-08
5.04667e-09
2.2209e-09
9.65542e-10
4.15175e-10
1.76756e-10
7.45745e-11
3.1196e-11
1.2933e-11
5.29825e-12
2.12532e-12
8.12726e-13
2.71267e-13
4.7564e-14
0.999997
0.999986
0.999969
0.999939
0.999889
0.999807
0.999672
0.999452
0.999098
0.998537
0.997658
0.996307
0.994271
0.991269
0.986952
0.980917
0.972731
0.961984
0.948337
0.931574
0.91162
0.888547
0.862554
0.833929
0.803027
0.770235
0.735954
0.700584
0.66451
0.628093
0.591664
0.555521
0.519925
0.4851
0.451231
0.41847
0.386941
0.356735
0.327917
0.300527
0.274583
0.250086
0.227021
0.20536
0.185068
0.166098
0.148402
0.131924
0.116609
0.102398
0.0892329
0.0770583
0.0658191
0.0554633
0.0459427
0.0372132
0.0293421
0.0223233
0.0157325
0.00982165
0.00465795
0.00304194
0.00215634
0.00150938
0.00104187
0.000708162
0.000473303
0.000310714
0.00020038
0.000127413
8.09343e-05
5.32083e-05
3.86832e-05
2.89828e-05
2.10237e-05
1.45531e-05
9.53913e-06
5.89198e-06
3.42833e-06
1.88765e-06
9.90808e-07
4.99602e-07
2.43732e-07
1.1627e-07
5.43896e-08
2.50004e-08
1.13098e-08
5.0424e-09
2.2184e-09
9.64235e-10
4.14534e-10
1.76455e-10
7.44376e-11
3.11353e-11
1.29067e-11
5.28705e-12
2.1207e-12
8.10919e-13
2.70656e-13
4.74552e-14
0.999997
0.999986
0.999969
0.999939
0.999889
0.999807
0.999672
0.999452
0.999098
0.998536
0.997658
0.996307
0.994271
0.991269
0.986952
0.980917
0.972731
0.961983
0.948337
0.931573
0.911619
0.888546
0.862553
0.833928
0.803026
0.770233
0.735953
0.700583
0.664509
0.628091
0.591662
0.555519
0.519924
0.485098
0.451229
0.418469
0.386939
0.356734
0.327916
0.300526
0.274582
0.250085
0.22702
0.205359
0.185067
0.166098
0.148401
0.131924
0.116608
0.102397
0.0892323
0.0770578
0.0658186
0.0554629
0.0459424
0.0372129
0.0293419
0.0223231
0.0157323
0.00982144
0.00465776
0.00304191
0.0021563
0.00150934
0.00104183
0.000708133
0.000473281
0.000310699
0.00020037
0.000127407
8.09308e-05
5.32065e-05
3.86824e-05
2.89824e-05
2.10235e-05
1.4553e-05
9.53906e-06
5.89193e-06
3.4283e-06
1.88763e-06
9.90796e-07
4.99595e-07
2.43729e-07
1.16268e-07
5.43889e-08
2.5e-08
1.13096e-08
5.04233e-09
2.21837e-09
9.64222e-10
4.14528e-10
1.76452e-10
7.44366e-11
3.11349e-11
1.29065e-11
5.28698e-12
2.12067e-12
8.10907e-13
2.70652e-13
4.74545e-14
0.999997
0.999986
0.999969
0.999939
0.999889
0.999807
0.999672
0.999452
0.999098
0.998537
0.997658
0.996308
0.994272
0.991271
0.986955
0.980921
0.972737
0.961992
0.948349
0.931589
0.911639
0.888572
0.862584
0.833965
0.803069
0.770284
0.73601
0.700647
0.664579
0.628168
0.591745
0.555608
0.520017
0.485197
0.451332
0.418575
0.387048
0.356845
0.328029
0.30064
0.274697
0.250199
0.227133
0.205471
0.185177
0.166206
0.148507
0.132026
0.116707
0.102492
0.0893227
0.0771434
0.0658993
0.0555385
0.0460128
0.0372783
0.0294009
0.0223779
0.0157839
0.00987182
0.00470683
0.00304515
0.00215234
0.00150259
0.00103459
0.000701507
0.00046772
0.000306288
0.000197015
0.00012494
7.91659e-05
5.19792e-05
3.78653e-05
2.84615e-05
2.07059e-05
1.43699e-05
9.44069e-06
5.84319e-06
3.40612e-06
1.87839e-06
9.87304e-07
4.9842e-07
2.43344e-07
1.16161e-07
5.43686e-08
2.50025e-08
1.13152e-08
5.04647e-09
2.22081e-09
9.65504e-10
4.15159e-10
1.76749e-10
7.45715e-11
3.11948e-11
1.29325e-11
5.29803e-12
2.12523e-12
8.12692e-13
2.71256e-13
4.75619e-14
0.999997
0.999986
0.999969
0.999939
0.999889
0.999807
0.999672
0.999452
0.999099
0.998537
0.997659
0.99631
0.994275
0.991275
0.986962
0.98093
0.972751
0.962012
0.948375
0.931623
0.911683
0.888626
0.86265
0.834044
0.80316
0.770388
0.736128
0.700778
0.664724
0.628326
0.591915
0.555789
0.520209
0.485398
0.451542
0.418792
0.387271
0.357072
0.328259
0.300872
0.27493
0.250432
0.227364
0.205699
0.185401
0.166425
0.148721
0.132234
0.116909
0.102687
0.0895105
0.0773222
0.0660689
0.0556986
0.0461633
0.0374193
0.0295305
0.022499
0.0158979
0.00998046
0.00480612
0.00305046
0.00214916
0.00149565
0.00102657
0.000693848
0.000461091
0.000300908
0.000192849
0.000121826
7.68925e-05
5.03338e-05
3.66786e-05
2.76616e-05
2.01988e-05
1.40691e-05
9.27595e-06
5.76073e-06
3.36864e-06
1.86302e-06
9.81689e-07
4.96659e-07
2.42837e-07
1.16062e-07
5.43795e-08
2.50292e-08
1.13355e-08
5.05861e-09
2.22728e-09
9.68728e-10
4.16692e-10
1.77454e-10
7.48869e-11
3.13329e-11
1.29918e-11
5.32307e-12
2.13551e-12
8.16691e-13
2.72605e-13
4.78013e-14
0.999997
0.999986
0.999969
0.999939
0.999889
0.999807
0.999672
0.999453
0.999099
0.998538
0.997661
0.996312
0.994279
0.991281
0.986971
0.980945
0.972771
0.96204
0.948414
0.931674
0.911748
0.888707
0.862748
0.83416
0.803296
0.770544
0.736304
0.700974
0.66494
0.628561
0.592168
0.55606
0.520496
0.485699
0.451856
0.419117
0.387605
0.357414
0.328606
0.301223
0.275282
0.250783
0.227714
0.206046
0.185742
0.166759
0.149047
0.132551
0.117215
0.102982
0.0897951
0.0775969
0.0663315
0.0559475
0.0463983
0.0376403
0.029737
0.0226923
0.0160797
0.0101527
0.00495997
0.00305296
0.00214598
0.0014895
0.00101943
0.000686912
0.000454991
0.000295887
0.000188911
0.00011884
7.4665e-05
4.86543e-05
3.54003e-05
2.67763e-05
1.96289e-05
1.37283e-05
9.08937e-06
5.66846e-06
3.32786e-06
1.84712e-06
9.76399e-07
4.9533e-07
2.4269e-07
1.16193e-07
5.45173e-08
2.51213e-08
1.13879e-08
5.08587e-09
2.24069e-09
9.75076e-10
4.19607e-10
1.78759e-10
7.54596e-11
3.15799e-11
1.30968e-11
5.3669e-12
2.15336e-12
8.23601e-13
2.74929e-13
4.82125e-14
0.999997
0.999986
0.999969
0.999939
0.999889
0.999807
0.999673
0.999453
0.9991
0.99854
0.997663
0.996315
0.994284
0.991289
0.986984
0.980963
0.972798
0.962078
0.948465
0.931741
0.911833
0.888813
0.862876
0.834312
0.803473
0.770747
0.736533
0.701231
0.665222
0.628869
0.592501
0.556416
0.520873
0.486096
0.45227
0.419546
0.388048
0.357867
0.329067
0.301689
0.275751
0.251253
0.228181
0.206509
0.1862
0.167209
0.149487
0.13298
0.117631
0.103383
0.09018
0.0779655
0.0666858
0.0562882
0.0467231
0.0379473
0.0300237
0.0229628
0.0163365
0.0103989
0.00518657
0.00307617
0.0021541
0.00148995
0.00101632
0.000682544
0.000450575
0.000291987
0.000185719
0.00011634
7.27375e-05
4.71336e-05
3.41727e-05
2.59105e-05
1.90698e-05
1.33959e-05
8.91066e-06
5.58338e-06
3.29285e-06
1.83524e-06
9.73621e-07
4.95431e-07
2.43318e-07
1.16712e-07
5.4847e-08
2.53078e-08
1.14859e-08
5.1347e-09
2.26405e-09
9.85872e-10
4.24462e-10
1.80893e-10
7.63813e-11
3.19726e-11
1.32619e-11
5.43534e-12
2.18108e-12
8.34281e-13
2.78511e-13
4.88448e-14
0.999997
0.999986
0.999969
0.999939
0.99989
0.999808
0.999673
0.999454
0.999101
0.998541
0.997665
0.996319
0.99429
0.991299
0.986999
0.980985
0.97283
0.962122
0.948525
0.93182
0.911934
0.888939
0.863029
0.834495
0.803687
0.770992
0.736811
0.701541
0.665565
0.629244
0.592907
0.556851
0.521335
0.486584
0.45278
0.420076
0.388594
0.358427
0.329639
0.302268
0.276335
0.251838
0.228766
0.20709
0.186774
0.167774
0.150041
0.133521
0.118157
0.103893
0.0906719
0.0784372
0.0671356
0.056717
0.0471335
0.03834
0.0303894
0.0233073
0.0166611
0.0107045
0.00545676
0.00309541
0.00216243
0.00149199
0.0010151
0.000679917
0.000447593
0.000289195
0.000183341
0.000114414
7.11938e-05
4.58493e-05
3.30579e-05
2.51129e-05
1.85588e-05
1.30982e-05
8.757e-06
5.51587e-06
3.2695e-06
1.8306e-06
9.74885e-07
4.97588e-07
2.45053e-07
1.17783e-07
5.54481e-08
2.56234e-08
1.16438e-08
5.2108e-09
2.29961e-09
1.00207e-09
4.31679e-10
1.84051e-10
7.77402e-11
3.25484e-11
1.35026e-11
5.53456e-12
2.2211e-12
8.49658e-13
2.83661e-13
4.97521e-14
0.999997
0.999986
0.999969
0.999939
0.99989
0.999808
0.999673
0.999454
0.999102
0.998543
0.997668
0.996324
0.994297
0.99131
0.987015
0.98101
0.972866
0.962172
0.948593
0.931909
0.912048
0.889081
0.863202
0.834701
0.803929
0.771272
0.737129
0.701897
0.66596
0.629677
0.593377
0.557356
0.521874
0.487153
0.453378
0.420699
0.389239
0.35909
0.330316
0.302956
0.27703
0.252537
0.229465
0.207786
0.187464
0.168455
0.15071
0.134175
0.118795
0.104513
0.0912713
0.079015
0.0676901
0.0572457
0.0476355
0.0388188
0.030841
0.0237349
0.0170635
0.0110834
0.00579588
0.00311649
0.00217301
0.0014964
0.00101612
0.000679242
0.000446206
0.00028764
0.000181882
0.000113137
7.0086e-05
4.48336e-05
3.20824e-05
2.44034e-05
1.81127e-05
1.28483e-05
8.6377e-06
5.47217e-06
3.26181e-06
1.83512e-06
9.8122e-07
5.02637e-07
2.48292e-07
1.19598e-07
5.64038e-08
2.61046e-08
1.18775e-08
5.321e-09
2.35028e-09
1.02486e-09
4.41744e-10
1.88423e-10
7.96131e-11
3.33407e-11
1.38335e-11
5.67069e-12
2.27588e-12
8.70671e-13
2.90692e-13
5.09893e-14
0.999997
0.999986
0.999969
0.999939
0.99989
0.999808
0.999674
0.999455
0.999103
0.998545
0.997671
0.996328
0.994305
0.991322
0.987033
0.981036
0.972903
0.962225
0.948664
0.932004
0.91217
0.889233
0.863389
0.834925
0.804192
0.771576
0.737476
0.702288
0.666395
0.630156
0.593899
0.55792
0.522477
0.487793
0.454052
0.421404
0.389971
0.359845
0.33109
0.303746
0.27783
0.253344
0.230274
0.208594
0.188267
0.169249
0.151493
0.134943
0.119545
0.105243
0.0919793
0.0796988
0.068348
0.0578762
0.0482364
0.0393867
0.0313718
0.0242388
0.0175438
0.0115366
0.00621976
0.00314169
0.00218756
0.0015045
0.00102035
0.000681226
0.000446942
0.000287709
0.000181605
0.000112682
6.95166e-05
4.41477e-05
3.12691e-05
2.3789e-05
1.77371e-05
1.26514e-05
8.55757e-06
5.45618e-06
3.27169e-06
1.85054e-06
9.94254e-07
5.11296e-07
2.53365e-07
1.22314e-07
5.77907e-08
2.6787e-08
1.22033e-08
5.47252e-09
2.41919e-09
1.0556e-09
4.55223e-10
1.94246e-10
8.20964e-11
3.43875e-11
1.427e-11
5.85023e-12
2.34804e-12
8.98324e-13
2.99941e-13
5.26144e-14
0.999997
0.999986
0.999969
0.999939
0.99989
0.999808
0.999674
0.999456
0.999104
0.998546
0.997674
0.996333
0.994312
0.991333
0.98705
0.981062
0.972941
0.962278
0.948736
0.9321
0.912293
0.889388
0.863579
0.835154
0.804463
0.771892
0.737839
0.7027
0.666856
0.630666
0.594458
0.558526
0.52313
0.488489
0.454789
0.422178
0.390778
0.360681
0.331951
0.304627
0.278726
0.254251
0.231188
0.209509
0.189179
0.170154
0.152387
0.135823
0.120408
0.106085
0.0927973
0.080491
0.0691122
0.0586107
0.0489397
0.0400571
0.0320004
0.0248281
0.0180991
0.0120626
0.00671848
0.00316994
0.00220769
0.00151862
0.00103002
0.000687629
0.000451021
0.00029018
0.000182992
0.000113335
6.96425e-05
4.38257e-05
3.05024e-05
2.32223e-05
1.74178e-05
1.25069e-05
8.52031e-06
5.4709e-06
3.30248e-06
1.87967e-06
1.01508e-06
5.24169e-07
2.60613e-07
1.26102e-07
5.96912e-08
2.77095e-08
1.26388e-08
5.67329e-09
2.50984e-09
1.09578e-09
4.72751e-10
2.01786e-10