/*--------------------------------*- C++ -*----------------------------------*\
  =========                 |
  \\      /  F ield         | OpenFOAM: The Open Source CFD Toolbox
   \\    /   O peration     | Website:  https://openfoam.org
    \\  /    A nd           | Version:  8
     \\/     M anipulation  |
\*---------------------------------------------------------------------------*/
FoamFile
{
    version     2.0;
    format      ascii;
    class       volScalarField;
    location    "400/fluid";
    object      CO2;
}
// * * * * * * * * * * * * * * * * * * * * * * * * * * * * * * * * * * * * * //

dimensions      [0 0 0 0 0 0 0];

internalField   nonuniform List<scalar> 
4000
(
4.39035e-07
1.9179e-06
4.40199e-06
8.55972e-06
1.5487e-05
2.69629e-05
4.58425e-05
7.66433e-05
0.000126395
0.000205823
0.000330895
0.000524696
0.000819401
0.00125785
0.00189393
0.00279065
0.00401531
0.00563167
0.00769215
0.0102282
0.0132465
0.0167305
0.0206446
0.0249391
0.0295559
0.0344333
0.039509
0.0447231
0.0500189
0.0553447
0.060654
0.0659059
0.0710652
0.0761025
0.0809939
0.0857205
0.0902674
0.0946235
0.0987813
0.102737
0.10649
0.110038
0.113386
0.116536
0.119494
0.122264
0.124851
0.127262
0.129501
0.131572
0.133478
0.135221
0.136799
0.13821
0.139444
0.140492
0.141333
0.141942
0.142274
0.142294
0.141926
0.141072
0.139605
0.131231
0.120684
0.110002
0.0993575
0.0888874
0.0786998
0.0688822
0.0595068
0.0506351
0.0423225
0.0346248
0.0275868
0.0212734
0.0157527
0.0110909
0.00734585
0.00453579
0.00260017
0.00138788
0.000695743
0.00033242
0.00015391
6.95324e-05
3.0802e-05
1.34282e-05
5.77718e-06
2.45828e-06
1.03645e-06
4.33626e-07
1.80228e-07
7.44619e-08
3.05664e-08
1.243e-08
4.96136e-09
1.89227e-09
6.31477e-10
1.10665e-10
4.42925e-07
1.93567e-06
4.44607e-06
8.65413e-06
1.56757e-05
2.73227e-05
4.65005e-05
7.77984e-05
0.000128338
0.000208944
0.000335654
0.000531517
0.000828468
0.0012688
0.00190546
0.00280024
0.00401904
0.00562466
0.00766789
0.0101807
0.0131726
0.0166295
0.020518
0.0247903
0.0293898
0.0342555
0.0393255
0.0445394
0.0498401
0.055175
0.0604966
0.0657634
0.0709395
0.0759945
0.0809039
0.0856485
0.090213
0.0945866
0.0987612
0.102732
0.106497
0.110057
0.113415
0.116574
0.119538
0.122314
0.124907
0.127321
0.129563
0.131635
0.133541
0.135282
0.136857
0.138262
0.13949
0.140528
0.141358
0.141954
0.14227
0.142274
0.14189
0.141025
0.139556
0.130131
0.119572
0.108849
0.0981578
0.0876448
0.0774229
0.0675813
0.0581932
0.0493217
0.0410244
0.033378
0.0263957
0.0201692
0.0147691
0.0102627
0.00670061
0.00408126
0.00231571
0.00123052
0.000618164
0.00029731
0.000138907
6.33911e-05
2.83647e-05
1.24803e-05
5.41232e-06
2.31817e-06
9.82417e-07
4.12605e-07
1.71965e-07
7.11821e-08
2.92568e-08
1.19077e-08
4.75596e-09
1.81488e-09
6.05895e-10
1.06239e-10
4.4892e-07
1.96239e-06
4.50971e-06
8.78339e-06
1.59196e-05
2.77614e-05
4.72591e-05
7.90619e-05
0.000130362
0.000212046
0.000340182
0.00053779
0.00083664
0.00127866
0.0019162
0.00281024
0.00402593
0.00562564
0.00765899
0.0101578
0.0131314
0.0165671
0.0204331
0.0246835
0.0292634
0.0341132
0.039172
0.0443799
0.0496797
0.0550186
0.0603486
0.0656274
0.0708187
0.0758917
0.0808213
0.0855873
0.0901731
0.0945659
0.0987582
0.102746
0.106528
0.110103
0.113475
0.116646
0.119622
0.122406
0.125006
0.127425
0.12967
0.131743
0.133649
0.135386
0.136956
0.138351
0.139566
0.140585
0.141389
0.14195
0.142224
0.142177
0.141736
0.140823
0.139367
0.128828
0.118006
0.107113
0.0963146
0.0857401
0.0754923
0.0656548
0.0562984
0.0474856
0.039275
0.031759
0.0249235
0.0188784
0.0136893
0.00941444
0.00608632
0.00367779
0.00207715
0.00110279
0.000555308
0.000268118
0.000125856
5.77215e-05
2.59565e-05
1.14748e-05
4.99783e-06
2.14875e-06
9.13517e-07
3.84644e-07
1.60619e-07
6.65746e-08
2.73866e-08
1.1152e-08
4.45529e-09
1.70033e-09
5.67639e-10
9.95373e-11
4.53502e-07
1.9824e-06
4.55561e-06
8.8723e-06
1.60785e-05
2.80314e-05
4.76995e-05
7.97539e-05
0.000131409
0.000213572
0.000342315
0.000540616
0.000840137
0.00128258
0.00191991
0.00281252
0.00402477
0.00561796
0.00764233
0.0101299
0.0130906
0.0165123
0.020364
0.0246008
0.0291688
0.0340091
0.0390614
0.0442662
0.0495669
0.0549107
0.0602495
0.0655404
0.0707467
0.0758363
0.080783
0.0855655
0.0901681
0.094579
0.0987899
0.102796
0.106594
0.110185
0.11357
0.116754
0.11974
0.122534
0.12514
0.127565
0.129812
0.131886
0.13379
0.135523
0.137084
0.138467
0.139662
0.140654
0.141417
0.141915
0.1421
0.141913
0.141253
0.13999
0.137973
0.127081
0.11603
0.104995
0.0941168
0.0835123
0.0732748
0.0634824
0.0542026
0.0454957
0.037419
0.0300613
0.0234135
0.0175804
0.0126209
0.00858405
0.00548678
0.00328135
0.00183854
0.000971459
0.000488381
0.000236045
0.000111067
5.11025e-05
2.30641e-05
1.02356e-05
4.47558e-06
1.93157e-06
8.24144e-07
3.48153e-07
1.45803e-07
6.05843e-08
2.49743e-08
1.01869e-08
4.07507e-09
1.55668e-09
5.19951e-10
9.12077e-11
4.56825e-07
1.99685e-06
4.58853e-06
8.93558e-06
1.61911e-05
2.82223e-05
4.8012e-05
8.0249e-05
0.000132168
0.000214693
0.000343898
0.000542727
0.000842754
0.00128552
0.00192273
0.00281444
0.00402466
0.0056143
0.00763337
0.0101139
0.0130661
0.0164785
0.0203209
0.0245493
0.0291105
0.0339461
0.0389963
0.0442017
0.0495059
0.0548558
0.0602029
0.065504
0.070721
0.0758228
0.0807836
0.0855825
0.0902024
0.0946307
0.0988584
0.10288
0.106694
0.110299
0.113697
0.116891
0.119887
0.122688
0.1253
0.127729
0.129978
0.132052
0.133952
0.13568
0.137233
0.138603
0.139782
0.14075
0.141482
0.141932
0.142056
0.141777
0.140977
0.139488
0.13593
0.124893
0.11374
0.102648
0.0917538
0.0811684
0.0709821
0.0612705
0.0520994
0.0435277
0.0356122
0.0284114
0.0219709
0.0163602
0.0116333
0.00783049
0.00495345
0.0029356
0.00163393
0.000860134
0.000431933
0.000208947
9.84974e-05
4.54247e-05
2.05529e-05
9.14405e-06
4.00785e-06
1.73354e-06
7.41135e-07
3.13644e-07
1.31554e-07
5.47356e-08
2.2588e-08
9.22159e-09
3.69134e-09
1.41069e-09
4.71253e-10
8.26771e-11
4.59002e-07
2.00626e-06
4.6097e-06
8.9756e-06
1.62608e-05
2.83377e-05
4.81958e-05
8.05315e-05
0.000132587
0.000215287
0.000344701
0.000543752
0.00084396
0.00128677
0.00192376
0.0028148
0.00402373
0.00561127
0.00762736
0.0101041
0.0130521
0.01646
0.0202982
0.0245232
0.0290819
0.0339167
0.0389677
0.0441757
0.0494836
0.0548388
0.0601931
0.0655035
0.0707326
0.0758483
0.080824
0.0856381
0.0902734
0.0947168
0.0989592
0.102995
0.106821
0.110438
0.113847
0.11705
0.120053
0.12286
0.125476
0.127906
0.130156
0.132228
0.134125
0.135847
0.137391
0.138751
0.139916
0.140869
0.141584
0.142017
0.142127
0.141846
0.141073
0.13968
0.133436
0.122433
0.111302
0.100236
0.0893815
0.0788551
0.068749
0.0591396
0.0500921
0.0416651
0.0339193
0.026893
0.0206516
0.0152526
0.0107445
0.0071584
0.00448166
0.00263136
0.00145393
0.000761645
0.000381452
0.000184433
8.69881e-05
4.01661e-05
1.82039e-05
8.1146e-06
3.56395e-06
1.54475e-06
6.61756e-07
2.80583e-07
1.17891e-07
4.91257e-08
2.02993e-08
8.29599e-09
3.32344e-09
1.2707e-09
4.24553e-10
7.4495e-11
4.6049e-07
2.01268e-06
4.62414e-06
9.00288e-06
1.63083e-05
2.84165e-05
4.8322e-05
8.07272e-05
0.00013288
0.000215711
0.000345289
0.000544525
0.000844909
0.00128783
0.00192477
0.00281551
0.00402376
0.00561035
0.00762519
0.0101004
0.0130467
0.016453
0.0202899
0.0245139
0.0290727
0.0339084
0.0389617
0.0441738
0.049488
0.0548516
0.0602159
0.0655376
0.0707788
0.0759074
0.0808963
0.085724
0.0903727
0.0948292
0.099084
0.103131
0.106968
0.110595
0.114011
0.117221
0.120229
0.12304
0.125658
0.128088
0.130336
0.132404
0.134295
0.136009
0.137543
0.13889
0.14004
0.140975
0.14167
0.14208
0.142168
0.141865
0.141065
0.139635
0.13104
0.120074
0.108975
0.0979469
0.0871442
0.0766863
0.0666673
0.0571636
0.0482397
0.0399531
0.0323809
0.0255236
0.0194676
0.0142651
0.00995895
0.00657089
0.00407436
0.00237194
0.00130202
0.000679091
0.000339267
0.000163933
7.73334e-05
3.57327e-05
1.62108e-05
7.2347e-06
3.18158e-06
1.38084e-06
5.92314e-07
2.51456e-07
1.05777e-07
4.41244e-08
1.82494e-08
7.46367e-09
2.99155e-09
1.14411e-09
3.82249e-10
6.70761e-11
4.61545e-07
2.01723e-06
4.63435e-06
9.02208e-06
1.63416e-05
2.84716e-05
4.84097e-05
8.08628e-05
0.000133084
0.000216007
0.000345704
0.000545084
0.000845629
0.00128871
0.00192577
0.00281656
0.00402474
0.00561109
0.00762558
0.0101005
0.0130466
0.0164533
0.0202912
0.0245172
0.029079
0.033919
0.0389778
0.0441967
0.0495188
0.0548913
0.0602655
0.065598
0.0708506
0.0759908
0.0809917
0.0858312
0.0904916
0.0949591
0.0992243
0.103281
0.107127
0.11076
0.114183
0.117398
0.120409
0.12322
0.125838
0.128267
0.130511
0.132573
0.134455
0.136158
0.137677
0.139007
0.140135
0.141044
0.141708
0.142083
0.142137
0.1418
0.140983
0.13959
0.129021
0.118029
0.106917
0.0958972
0.0851283
0.0747282
0.0647885
0.0553834
0.0465751
0.0384191
0.030998
0.024298
0.0184141
0.0133933
0.00927218
0.00606282
0.00372593
0.00215202
0.00117398
0.000609642
0.000303727
0.000146606
6.91386e-05
3.19525e-05
1.45037e-05
6.47788e-06
2.85142e-06
1.23881e-06
5.31957e-07
2.26072e-07
9.51946e-08
3.97468e-08
1.64519e-08
6.73282e-09
2.69977e-09
1.03271e-09
3.45e-10
6.05412e-11
4.62369e-07
2.02079e-06
4.64236e-06
9.03724e-06
1.6368e-05
2.85157e-05
4.84812e-05
8.09756e-05
0.000133258
0.00021627
0.000346093
0.000545646
0.000846423
0.00128981
0.00192726
0.00281854
0.00402734
0.00561448
0.00762998
0.0101062
0.0130541
0.0164631
0.020304
0.0245337
0.0291002
0.0339458
0.0390112
0.0442375
0.049568
0.0549496
0.0603335
0.0656761
0.0709393
0.0760902
0.0811017
0.0859515
0.0906218
0.0950986
0.0993723
0.103437
0.107289
0.110927
0.114354
0.117572
0.120584
0.123396
0.126011
0.128436
0.130674
0.132729
0.1346
0.136289
0.13779
0.139097
0.140195
0.141065
0.141678
0.141984
0.141949
0.141488
0.140503
0.138897
0.127771
0.116479
0.105215
0.0941345
0.083363
0.0730003
0.063127
0.0538098
0.0451058
0.037066
0.0297618
0.0231995
0.0174765
0.0126272
0.00867794
0.0056288
0.00343166
0.00196803
0.00106759
0.000552152
0.000274339
0.000132263
6.2339e-05
2.88061e-05
1.30777e-05
5.84323e-06
2.57347e-06
1.11879e-06
4.80771e-07
2.04473e-07
8.6164e-08
3.60012e-08
1.49106e-08
6.10495e-09
2.44873e-09
9.36764e-10
3.1292e-10
5.49106e-11
4.63073e-07
2.02384e-06
4.64925e-06
9.05033e-06
1.63911e-05
2.85546e-05
4.8545e-05
8.10782e-05
0.00013342
0.000216523
0.000346482
0.000546236
0.000847305
0.00129111
0.00192915
0.00282125
0.00403114
0.00561973
0.0076371
0.0101157
0.0130665
0.016479
0.0203242
0.0245589
0.0291311
0.0339831
0.0390558
0.04429
0.049629
0.0550195
0.0604128
0.065765
0.0710377
0.0761982
0.081219
0.0860778
0.0907564
0.0952409
0.0995214
0.103592
0.107449
0.111091
0.11452
0.117739
0.120751
0.123561
0.126174
0.128594
0.130825
0.132871
0.134731
0.136405
0.137888
0.13917
0.140237
0.141064
0.141615
0.14184
0.141683
0.141036
0.139755
0.137674
0.126366
0.114956
0.103629
0.0925322
0.08178
0.0714646
0.0616611
0.0524324
0.0438332
0.0359146
0.0287344
0.0223255
0.0167298
0.012001
0.00818132
0.00526634
0.00318679
0.00181549
0.000979608
0.000504649
0.000250039
0.000120382
5.66937e-05
2.61872e-05
1.18877e-05
5.31232e-06
2.34039e-06
1.01792e-06
4.37656e-07
1.86244e-07
7.85288e-08
3.28294e-08
1.36036e-08
5.57188e-09
2.23546e-09
8.55268e-10
2.85674e-10
5.01262e-11
4.6372e-07
2.02666e-06
4.65563e-06
9.06255e-06
1.64128e-05
2.85917e-05
4.86068e-05
8.11795e-05
0.000133584
0.000216785
0.000346897
0.000546883
0.000848303
0.00129262
0.00193142
0.00282456
0.0040359
0.00562638
0.00764619
0.0101278
0.0130823
0.0164991
0.0203492
0.0245896
0.029168
0.034027
0.039107
0.0443491
0.0496964
0.0550956
0.0604976
0.0658585
0.07114
0.0763089
0.0813378
0.0862042
0.0908898
0.0953804
0.0996663
0.103741
0.107601
0.111246
0.114676
0.117895
0.120906
0.123714
0.126323
0.128738
0.130962
0.132999
0.134849
0.136511
0.137979
0.139243
0.140287
0.141089
0.141607
0.141796
0.141595
0.1409
0.139573
0.136317
0.124939
0.113492
0.102157
0.091076
0.0803606
0.0701008
0.0603699
0.0512299
0.0427354
0.0349409
0.0278918
0.0216029
0.0161298
0.0115154
0.00778582
0.00496678
0.00298345
0.00168885
0.000906685
0.000465334
0.000229941
0.000110552
5.20195e-05
2.40164e-05
1.09e-05
4.87094e-06
2.14631e-06
9.33784e-07
4.01636e-07
1.70991e-07
7.21302e-08
3.01678e-08
1.25056e-08
5.12378e-09
2.05612e-09
7.86743e-10
2.62783e-10
4.61071e-11
4.64339e-07
2.02935e-06
4.66176e-06
9.07435e-06
1.6434e-05
2.86281e-05
4.86683e-05
8.12815e-05
0.000133751
0.000217057
0.000347333
0.000547576
0.000849387
0.00129429
0.00193394
0.00282829
0.00404128
0.00563394
0.00765652
0.0101416
0.0131001
0.0165216
0.0203769
0.0246232
0.029208
0.0340739
0.0391613
0.044411
0.0497662
0.0551733
0.0605833
0.0659521
0.0712412
0.0764175
0.0814533
0.086326
0.0910173
0.0955129
0.0998029
0.103881
0.107743
0.111389
0.11482
0.118038
0.121047
0.123852
0.126457
0.128866
0.131084
0.133114
0.134955
0.136606
0.138062
0.139314
0.140345
0.141133
0.14164
0.141822
0.141625
0.140955
0.139692
0.134884
0.123528
0.112107
0.100805
0.0897656
0.0791024
0.0689051
0.0592475
0.0501892
0.0417816
0.0340695
0.0270753
0.0208715
0.0155055
0.0110166
0.00742986
0.00470978
0.00280893
0.00158159
0.000845502
0.000432557
0.000213252
0.000102407
4.815e-05
2.22197e-05
1.00823e-05
4.50533e-06
1.9854e-06
8.63959e-07
3.71711e-07
1.58305e-07
6.68032e-08
2.79498e-08
1.15899e-08
4.74981e-09
1.90638e-09
7.29526e-10
2.43676e-10
4.2756e-11
4.64934e-07
2.03194e-06
4.66768e-06
9.08581e-06
1.64546e-05
2.8664e-05
4.87291e-05
8.13835e-05
0.00013392
0.000217334
0.000347781
0.000548292
0.000850517
0.00129605
0.0019366
0.00283223
0.00404697
0.00564192
0.0076674
0.010156
0.0131186
0.0165449
0.0204055
0.0246576
0.0292487
0.0341212
0.0392155
0.0444723
0.0498347
0.055249
0.0606662
0.066042
0.0713377
0.0765202
0.0815618
0.0864398
0.0911355
0.0956349
0.0999279
0.104008
0.107872
0.111518
0.114948
0.118165
0.121171
0.123973
0.126573
0.128978
0.13119
0.133211
0.135044
0.136686
0.138132
0.139373
0.140394
0.141171
0.141667
0.141841
0.14164
0.140969
0.139709
0.133614
0.12227
0.110874
0.0996086
0.0886185
0.0780154
0.0678851
0.0582976
0.0493024
0.0409516
0.0332905
0.0263771
0.0202609
0.0149882
0.010596
0.00710433
0.00449263
0.00266406
0.00149187
0.000794686
0.000405476
0.00019951
9.57105e-05
4.4971e-05
2.07439e-05
9.4104e-06
4.20476e-06
1.85303e-06
8.0647e-07
3.4705e-07
1.47841e-07
6.24051e-08
2.6117e-08
1.08326e-08
4.44037e-09
1.78243e-09
6.8216e-10
2.27858e-10
3.99813e-11
4.65499e-07
2.0344e-06
4.67332e-06
9.09676e-06
1.64744e-05
2.86985e-05
4.87881e-05
8.14827e-05
0.000134085
0.000217606
0.000348223
0.000549004
0.000851642
0.00129779
0.00193925
0.00283617
0.00405265
0.00564988
0.00767821
0.0101702
0.0131369
0.0165677
0.0204335
0.024691
0.0292879
0.0341665
0.0392671
0.0445304
0.0498992
0.0553199
0.0607433
0.066125
0.0714264
0.0766141
0.0816604
0.0865425
0.0912418
0.095744
0.100039
0.10412
0.107985
0.111631
0.11506
0.118274
0.121278
0.124076
0.126672
0.129071
0.131277
0.133292
0.135116
0.13675
0.138186
0.139417
0.140427
0.141193
0.141679
0.141844
0.141634
0.140958
0.139697
0.132518
0.121183
0.10981
0.0985816
0.0876376
0.0770769
0.0669864
0.0574349
0.0484904
0.0402028
0.0326189
0.0257826
0.0197461
0.0145553
0.0102463
0.00683612
0.00429935
0.00254634
0.00141998
0.000753275
0.000383386
0.000188327
9.02666e-05
4.23876e-05
1.95444e-05
8.86415e-06
3.96025e-06
1.74526e-06
7.59625e-07
3.26938e-07
1.39299e-07
5.88119e-08
2.46185e-08
1.02131e-08
4.18711e-09
1.68102e-09
6.43398e-10
2.14912e-10
3.77085e-11
4.6602e-07
2.03668e-06
4.67854e-06
9.1069e-06
1.64928e-05
2.87307e-05
4.88432e-05
8.15758e-05
0.000134241
0.000217862
0.000348642
0.000549678
0.00085271
0.00129945
0.00194177
0.00283991
0.00405803
0.00565741
0.00768842
0.0101837
0.0131541
0.0165891
0.0204595
0.024722
0.0293241
0.0342082
0.0393143
0.0445832
0.0499576
0.0553837
0.0608123
0.066199
0.0715049
0.0766969
0.0817469
0.0866321
0.091334
0.0958382
0.100134
0.104216
0.108081
0.111726
0.115153
0.118366
0.121366
0.12416
0.126752
0.129146
0.131345
0.133353
0.135171
0.136795
0.138223
0.139444
0.140443
0.141199
0.141674
0.14183
0.141612
0.14093
0.139672
0.131607
0.12027
0.10891
0.0977045
0.0867812
0.0762532
0.0662052
0.0567066
0.0478165
0.0395864
0.0320635
0.0252908
0.0193209
0.014199
0.00995977
0.00661799
0.00414387
0.002443
0.00136188
0.000720851
0.000365848
0.000179381
8.59089e-05
4.03187e-05
1.85832e-05
8.42604e-06
3.76397e-06
1.65868e-06
7.2196e-07
3.10754e-07
1.32421e-07
5.5917e-08
2.34107e-08
9.71369e-09
3.98309e-09
1.59931e-09
6.12161e-10
2.0448e-10
3.58756e-11
4.66483e-07
2.03869e-06
4.68317e-06
9.11591e-06
1.65092e-05
2.87594e-05
4.88924e-05
8.16591e-05
0.00013438
0.000218093
0.000349019
0.000550285
0.000853672
0.00130095
0.00194405
0.00284327
0.00406287
0.00566416
0.00769756
0.0101956
0.0131694
0.0166081
0.0204824
0.0247493
0.0293559
0.0342446
0.0393555
0.044629
0.050008
0.0554387
0.0608715
0.0662622
0.0715718
0.0767669
0.0818197
0.0867073
0.0914109
0.0959162
0.100213
0.104295
0.108159
0.111803
0.115229
0.118438
0.121436
0.124226
0.126813
0.129202
0.131396
0.133397
0.135207
0.136824
0.138243
0.139455
0.140445
0.141192
0.141658
0.141806
0.141582
0.140896
0.139641
0.130869
0.119524
0.108172
0.0969786
0.0860811
0.0755848
0.0655736
0.0561162
0.0472705
0.0390876
0.0316143
0.0248934
0.0189777
0.013912
0.00972986
0.00644384
0.00402066
0.00236203
0.00131216
0.000694556
0.000352261
0.000172426
8.24936e-05
3.86917e-05
1.78264e-05
8.0808e-06
3.60918e-06
1.59036e-06
6.92232e-07
2.97979e-07
1.26992e-07
5.36324e-08
2.24585e-08
9.32049e-09
3.82245e-09
1.53497e-09
5.87558e-10
1.96263e-10
3.44317e-11
4.6687e-07
2.04039e-06
4.68705e-06
9.12348e-06
1.65229e-05
2.87835e-05
4.89339e-05
8.17293e-05
0.000134498
0.000218288
0.000349338
0.000550798
0.000854486
0.00130221
0.00194597
0.00284611
0.00406696
0.00566986
0.00770525
0.0102057
0.0131822
0.0166239
0.0205016
0.024772
0.0293823
0.0342748
0.0393894
0.0446668
0.0500494
0.0554836
0.0609197
0.0663134
0.0716257
0.0768232
0.0818779
0.0867669
0.0914716
0.0959776
0.100275
0.104356
0.108219
0.111862
0.115285
0.118493
0.121487
0.124274
0.126857
0.12924
0.131428
0.133424
0.135227
0.136836
0.138247
0.139451
0.140434
0.141173
0.141633
0.141778
0.141556
0.140882
0.139658
0.13031
0.118943
0.107585
0.0964038
0.0855269
0.0750569
0.065076
0.0556519
0.0468419
0.0386966
0.0312627
0.0245827
0.01871
0.0136886
0.00955142
0.00630921
0.00392588
0.00230015
0.00127455
0.000672977
0.000341308
0.000167113
7.99003e-05
3.745e-05
1.72462e-05
7.81579e-06
3.49042e-06
1.538e-06
6.69487e-07
2.88226e-07
1.22856e-07
5.18961e-08
2.17354e-08
9.02176e-09
3.70037e-09
1.48606e-09
5.68853e-10
1.90016e-10
3.33335e-11
4.6717e-07
2.0417e-06
4.69005e-06
9.12934e-06
1.65336e-05
2.88022e-05
4.8966e-05
8.17838e-05
0.000134589
0.000218439
0.000349585
0.000551198
0.000855119
0.0013032
0.00194746
0.00284832
0.00407013
0.00567428
0.00771122
0.0102135
0.0131921
0.0166362
0.0205165
0.0247895
0.0294026
0.0342979
0.0394154
0.0446956
0.050081
0.0555177
0.0609562
0.066352
0.0716662
0.0768651
0.081921
0.0868108
0.0915159
0.096022
0.100319
0.1044
0.108262
0.111903
0.115325
0.11853
0.121521
0.124304
0.126883
0.129262
0.131445
0.133435
0.135232
0.136834
0.138238
0.139435
0.14041
0.141142
0.141596
0.141737
0.141515
0.140845
0.139636
0.129859
0.118487
0.107136
0.0959678
0.0851088
0.0746603
0.0647035
0.0553054
0.0465229
0.0384064
0.0310022
0.024353
0.0185125
0.0135242
0.00942052
0.00621082
0.00385691
0.00225532
0.00124742
0.000657497
0.000332811
0.000162841
7.79104e-05
3.65281e-05
1.6823e-05
7.62427e-06
3.405e-06
1.50045e-06
6.53191e-07
2.8124e-07
1.19894e-07
5.06513e-08
2.12166e-08
8.8074e-09
3.61275e-09
1.45095e-09
5.55425e-10
1.85532e-10
3.25449e-11
4.67374e-07
2.04259e-06
4.6921e-06
9.13331e-06
1.65408e-05
2.88149e-05
4.89878e-05
8.18207e-05
0.000134651
0.000218541
0.000349753
0.000551468
0.000855547
0.00130386
0.00194847
0.00284982
0.00407228
0.00567727
0.00771526
0.0102188
0.0131988
0.0166445
0.0205265
0.0248014
0.0294164
0.0343136
0.039433
0.044715
0.0501022
0.0555405
0.0609805
0.0663777
0.0716929
0.0768927
0.0819491
0.0868391
0.0915442
0.09605
0.100346
0.104427
0.108287
0.111927
0.115347
0.11855
0.12154
0.12432
0.126896
0.129271
0.13145
0.133434
0.135226
0.136823
0.13822
0.13941
0.140378
0.141104
0.141552
0.141689
0.141465
0.140798
0.139601
0.129574
0.118186
0.106833
0.0956714
0.0848246
0.0743915
0.0644521
0.0550726
0.0463094
0.0382128
0.0308291
0.024201
0.0183821
0.013416
0.00933472
0.00614663
0.00381217
0.00222641
0.00123003
0.000647655
0.000327525
0.000160188
7.66017e-05
3.59197e-05
1.65459e-05
7.49956e-06
3.3497e-06
1.47625e-06
6.42728e-07
2.76763e-07
1.17997e-07
4.98541e-08
2.08843e-08
8.67002e-09
3.55656e-09
1.42842e-09
5.46806e-10
1.82652e-10
3.20384e-11
4.67478e-07
2.04304e-06
4.69313e-06
9.13531e-06
1.65444e-05
2.88211e-05
4.89986e-05
8.18389e-05
0.000134681
0.000218591
0.000349834
0.000551599
0.000855754
0.00130418
0.00194896
0.00285054
0.00407332
0.00567872
0.00771722
0.0102214
0.0132021
0.0166486
0.0205314
0.0248071
0.0294231
0.0343213
0.0394416
0.0447245
0.0501126
0.0555518
0.0609925
0.0663903
0.071706
0.0769062
0.0819627
0.0868526
0.0915574
0.0960629
0.100359
0.104439
0.108299
0.111938
0.115357
0.118559
0.121546
0.124325
0.126898
0.129271
0.131447
0.133429
0.135217
0.13681
0.138203
0.139389
0.140352
0.141073
0.141517
0.141651
0.141427
0.140765
0.139584
0.129437
0.118032
0.106675
0.0955168
0.084677
0.074253
0.0643236
0.0549545
0.046202
0.0381163
0.0307435
0.0241263
0.0183186
0.0133638
0.00929357
0.00611609
0.00379106
0.0022129
0.00122196
0.000643112
0.000325093
0.000158974
7.60076e-05
3.56321e-05
1.64121e-05
7.43911e-06
3.32289e-06
1.46454e-06
6.37673e-07
2.74604e-07
1.17083e-07
4.94705e-08
2.07245e-08
8.60389e-09
3.52949e-09
1.41755e-09
5.42641e-10
1.81259e-10
3.17932e-11
4.67485e-07
2.04307e-06
4.6932e-06
9.13545e-06
1.65446e-05
2.88216e-05
4.89993e-05
8.18401e-05
0.000134683
0.000218594
0.000349839
0.000551606
0.000855766
0.0013042
0.00194898
0.00285058
0.00407337
0.00567879
0.0077173
0.0102215
0.0132022
0.0166487
0.0205315
0.0248073
0.0294233
0.0343214
0.0394418
0.0447247
0.0501128
0.055552
0.0609927
0.0663905
0.0717062
0.0769063
0.0819629
0.0868528
0.0915576
0.0960631
0.100359
0.104439
0.108299
0.111938
0.115357
0.118559
0.121547
0.124325
0.126899
0.129271
0.131447
0.133429
0.135217
0.13681
0.138204
0.139389
0.140352
0.141073
0.141517
0.141651
0.141427
0.140765
0.139584
0.129436
0.118032
0.106675
0.0955163
0.0846765
0.0742525
0.0643232
0.0549542
0.0462017
0.038116
0.0307433
0.0241261
0.0183184
0.0133636
0.00929346
0.00611601
0.00379101
0.00221286
0.00122194
0.0006431
0.000325087
0.000158971
7.6006e-05
3.56314e-05
1.64118e-05
7.43897e-06
3.32283e-06
1.46451e-06
6.37661e-07
2.74599e-07
1.17081e-07
4.94695e-08
2.0724e-08
8.60372e-09
3.52942e-09
1.41752e-09
5.4263e-10
1.81255e-10
3.17925e-11
4.67395e-07
2.04268e-06
4.6923e-06
9.13372e-06
1.65415e-05
2.88161e-05
4.89899e-05
8.18243e-05
0.000134657
0.000218551
0.000349767
0.00055149
0.000855582
0.00130391
0.00194854
0.00284992
0.00407242
0.00567746
0.00771549
0.0102191
0.0131992
0.0166449
0.0205269
0.0248018
0.0294169
0.0343141
0.0394335
0.0447156
0.0501028
0.0555411
0.0609811
0.0663783
0.0716935
0.0768933
0.0819496
0.0868396
0.0915447
0.0960505
0.100347
0.104427
0.108288
0.111928
0.115348
0.118551
0.12154
0.12432
0.126896
0.129271
0.13145
0.133435
0.135226
0.136823
0.138221
0.139411
0.140379
0.141104
0.141552
0.141689
0.141465
0.140798
0.139601
0.129573
0.118184
0.106831
0.0956698
0.0848231
0.0743902
0.0644509
0.0550715
0.0463085
0.038212
0.0308285
0.0242004
0.0183816
0.0134156
0.00933441
0.0061464
0.00381201
0.00222631
0.00122997
0.000647622
0.000327507
0.000160179
7.65976e-05
3.59178e-05
1.65451e-05
7.49922e-06
3.34954e-06
1.47618e-06
6.42696e-07
2.76749e-07
1.1799e-07
4.98513e-08
2.08831e-08
8.66952e-09
3.55636e-09
1.42834e-09
5.46773e-10
1.82641e-10
3.20364e-11
4.67205e-07
2.04185e-06
4.6904e-06
9.13001e-06
1.65348e-05
2.88043e-05
4.89696e-05
8.17898e-05
0.000134599
0.000218455
0.00034961
0.000551237
0.000855178
0.00130328
0.00194759
0.0028485
0.00407037
0.00567459
0.00771161
0.010214
0.0131927
0.0166369
0.0205172
0.0247903
0.0294035
0.0342988
0.0394164
0.0446966
0.050082
0.0555187
0.0609572
0.066353
0.0716672
0.0768661
0.0819219
0.0868117
0.0915168
0.0960229
0.10032
0.104401
0.108262
0.111904
0.115325
0.11853
0.121522
0.124305
0.126884
0.129263
0.131446
0.133435
0.135232
0.136835
0.138239
0.139435
0.14041
0.141142
0.141596
0.141737
0.141515
0.140845
0.139636
0.129857
0.118485
0.107134
0.0959658
0.0851069
0.0746585
0.0647018
0.0553039
0.0465215
0.0384051
0.0310011
0.0243521
0.0185116
0.0135235
0.00941998
0.00621042
0.00385663
0.00225514
0.00124731
0.000657437
0.00033278
0.000162826
7.79032e-05
3.65249e-05
1.68215e-05
7.62355e-06
3.40467e-06
1.5003e-06
6.53127e-07
2.81212e-07
1.19882e-07
5.06462e-08
2.12145e-08
8.80649e-09
3.61238e-09
1.4508e-09
5.55367e-10
1.85512e-10
3.25413e-11
4.66918e-07
2.04059e-06
4.68753e-06
9.12441e-06
1.65246e-05
2.87864e-05
4.89388e-05
8.17376e-05
0.000134511
0.000218309
0.000349372
0.000550852
0.000854568
0.00130233
0.00194614
0.00284636
0.00406729
0.00567029
0.0077058
0.0102064
0.013183
0.0166248
0.0205027
0.0247731
0.0293835
0.0342761
0.0393908
0.0446682
0.0500509
0.055485
0.0609211
0.0663148
0.0716271
0.0768246
0.0818793
0.0867682
0.0914729
0.0959788
0.100276
0.104357
0.10822
0.111863
0.115286
0.118494
0.121488
0.124275
0.126857
0.129241
0.131429
0.133424
0.135227
0.136836
0.138248
0.139452
0.140434
0.141173
0.141633
0.141778
0.141556
0.140882
0.139658
0.130307
0.118939
0.107582
0.0964006
0.085524
0.0750542
0.0650735
0.0556497
0.0468398
0.0386948
0.0312611
0.0245813
0.0187088
0.0136876
0.00955065
0.00630863
0.00392548
0.00229989
0.0012744
0.000672893
0.000341265
0.000167092
7.98904e-05
3.74451e-05
1.72439e-05
7.81472e-06
3.48993e-06
1.53779e-06
6.69392e-07
2.88185e-07
1.22839e-07
5.18888e-08
2.17323e-08
9.02048e-09
3.69984e-09
1.48585e-09
5.68771e-10
1.89989e-10
3.33284e-11
4.66543e-07
2.03896e-06
4.68377e-06
9.11709e-06
1.65113e-05
2.87631e-05
4.88987e-05
8.16695e-05
0.000134397
0.00021812
0.000349063
0.000550353
0.000853775
0.0013011
0.00194427
0.00284358
0.00406329
0.00566472
0.00769826
0.0101965
0.0131704
0.0166092
0.0204838
0.0247507
0.0293575
0.0342462
0.0393572
0.0446308
0.0500099
0.0554405
0.0608733
0.066264
0.0715736
0.0767687
0.0818215
0.086709
0.0914125
0.0959178
0.100215
0.104297
0.10816
0.111804
0.11523
0.11844
0.121437
0.124227
0.126814
0.129203
0.131396
0.133398
0.135208
0.136824
0.138243
0.139455
0.140446
0.141192
0.141658
0.141806
0.141582
0.140896
0.139641
0.130864
0.119519
0.108167
0.0969741
0.0860771
0.0755812
0.0655704
0.0561133
0.0472679
0.0390853
0.0316122
0.0248915
0.0189762
0.0139107
0.00972884
0.00644307
0.00402012
0.00236169
0.00131195
0.000694447
0.000352208
0.0001724
8.248e-05
3.8685e-05
1.78233e-05
8.07936e-06
3.60854e-06
1.59008e-06
6.92107e-07
2.97926e-07
1.26969e-07
5.36227e-08
2.24544e-08
9.31879e-09
3.82175e-09
1.53469e-09
5.87449e-10
1.96227e-10
3.44249e-11
4.66094e-07
2.037e-06
4.67927e-06
9.10833e-06
1.64954e-05
2.87352e-05
4.88508e-05
8.15884e-05
0.000134261
0.000217895
0.000348695
0.00054976
0.000852835
0.00129964
0.00194204
0.00284028
0.00405854
0.00565808
0.00768927
0.0101847
0.0131553
0.0165905
0.0204611
0.0247237
0.029326
0.0342102
0.0393164
0.0445854
0.0499598
0.055386
0.0608145
0.0662012
0.0715072
0.0766991
0.0817491
0.0866343
0.091336
0.0958401
0.100136
0.104218
0.108082
0.111727
0.115155
0.118367
0.121368
0.124162
0.126753
0.129147
0.131346
0.133354
0.135171
0.136796
0.138223
0.139444
0.140444
0.141199
0.141674
0.14183
0.141612
0.140929
0.139671
0.131601
0.120264
0.108904
0.0976996
0.0867767
0.0762491
0.0662014
0.0567031
0.0478133
0.0395835
0.0320609
0.0252886
0.0193189
0.0141973
0.00995848
0.00661701
0.00414319
0.00244256
0.00136162
0.000720713
0.000365772
0.000179342
8.58899e-05
4.03097e-05
1.8579e-05
8.42415e-06
3.76313e-06
1.65831e-06
7.21799e-07
3.10685e-07
1.32391e-07
5.59045e-08
2.34054e-08
9.71151e-09
3.98219e-09
1.59895e-09
6.12021e-10
2.04434e-10
3.5867e-11
4.65584e-07
2.03478e-06
4.67418e-06
9.09843e-06
1.64774e-05
2.87037e-05
4.8797e-05
8.14975e-05
0.000134109
0.000217645
0.000348285
0.0005491
0.000851788
0.00129801
0.00193957
0.00283661
0.00405325
0.00565067
0.00767921
0.0101715
0.0131384
0.0165694
0.0204354
0.0246931
0.0292902
0.0341689
0.0392696
0.044533
0.0499019
0.0553226
0.060746
0.0661277
0.071429
0.0766167
0.081663
0.086545
0.0912442
0.0957463
0.100041
0.104123
0.107987
0.111633
0.115061
0.118276
0.12128
0.124077
0.126673
0.129072
0.131278
0.133293
0.135117
0.136751
0.138187
0.139418
0.140427
0.141194
0.141679
0.141844
0.141634
0.140958
0.139697
0.13251
0.121176
0.109804
0.098576
0.0876322
0.0770718
0.0669817
0.0574306
0.0484865
0.0401993
0.0326157
0.0257799
0.0197437
0.0145534
0.0102447
0.00683491
0.0042985
0.00254579
0.00141966
0.000753091
0.000383287
0.000188277
9.02425e-05
4.23762e-05
1.95392e-05
8.86176e-06
3.95918e-06
1.74479e-06
7.59422e-07
3.2685e-07
1.39262e-07
5.87962e-08
2.4612e-08
1.02104e-08
4.18599e-09
1.68057e-09
6.43225e-10
2.14855e-10
3.76978e-11
4.65032e-07
2.03236e-06
4.66866e-06
9.08772e-06
1.6458e-05
2.867e-05
4.87393e-05
8.14004e-05
0.000133948
0.000217378
0.000347851
0.000548402
0.000850685
0.00129629
0.00193696
0.00283274
0.00404765
0.00564283
0.00766854
0.0101574
0.0131203
0.0165468
0.0204077
0.02466
0.0292513
0.034124
0.0392184
0.0444753
0.0498378
0.0552522
0.0606693
0.0660451
0.0713408
0.0765233
0.0815648
0.0864427
0.0911384
0.0956377
0.0999306
0.104011
0.107874
0.11152
0.11495
0.118167
0.121173
0.123974
0.126575
0.128979
0.131191
0.133213
0.135045
0.136687
0.138133
0.139374
0.140395
0.141172
0.141668
0.141842
0.14164
0.140969
0.139709
0.133605
0.122261
0.110866
0.0996013
0.0886119
0.0780093
0.0678795
0.0582925
0.0492977
0.0409474
0.0332868
0.0263738
0.020258
0.0149859
0.0105941
0.00710286
0.00449159
0.00266339
0.00149146
0.000794452
0.000405352
0.000199448
9.56805e-05
4.49568e-05
2.07373e-05
9.40744e-06
4.20345e-06
1.85245e-06
8.06219e-07
3.46943e-07
1.47795e-07
6.23858e-08
2.6109e-08
1.08293e-08
4.43901e-09
1.78188e-09
6.8195e-10
2.27788e-10
3.99684e-11
4.64449e-07
2.02983e-06
4.66286e-06
9.0765e-06
1.64378e-05
2.86349e-05
4.86797e-05
8.13005e-05
0.000133782
0.000217107
0.000347412
0.000547699
0.000849576
0.00129457
0.00193434
0.00282886
0.00404205
0.00563496
0.00765781
0.0101431
0.013102
0.0165237