/*--------------------------------*- C++ -*----------------------------------*\
  =========                 |
  \\      /  F ield         | OpenFOAM: The Open Source CFD Toolbox
   \\    /   O peration     | Website:  https://openfoam.org
    \\  /    A nd           | Version:  8
     \\/     M anipulation  |
\*---------------------------------------------------------------------------*/
FoamFile
{
    version     2.0;
    format      ascii;
    class       volScalarField;
    location    "400/fluid";
    object      H2O;
}
// * * * * * * * * * * * * * * * * * * * * * * * * * * * * * * * * * * * * * //

dimensions      [0 0 0 0 0 0 0];

internalField   nonuniform List<scalar> 
4000
(
3.59434e-07
1.57017e-06
3.60387e-06
7.00777e-06
1.2679e-05
2.20743e-05
3.75309e-05
6.27472e-05
0.000103479
0.000168506
0.000270901
0.000429564
0.000670836
0.00102979
0.00155054
0.00228468
0.0032873
0.0046106
0.0062975
0.00837373
0.0108448
0.0136971
0.0169016
0.0204174
0.0241972
0.0281902
0.0323457
0.0366144
0.04095
0.0453102
0.0496569
0.0539565
0.0581804
0.0623044
0.066309
0.0701786
0.0739011
0.0774674
0.0808714
0.0841102
0.0871821
0.0900874
0.0928282
0.0954073
0.0978285
0.100096
0.102215
0.104188
0.106021
0.107717
0.109277
0.110704
0.111996
0.113151
0.114162
0.115019
0.115708
0.116207
0.116478
0.116495
0.116193
0.115494
0.114294
0.107438
0.0988026
0.0900575
0.0813431
0.0727713
0.0644308
0.0563933
0.0487177
0.0414545
0.0346491
0.028347
0.0225851
0.0174164
0.0128966
0.00908
0.00601398
0.00371341
0.00212874
0.00113625
0.000569598
0.00027215
0.000126005
5.69255e-05
2.52173e-05
1.09936e-05
4.72973e-06
2.01257e-06
8.48535e-07
3.55006e-07
1.47551e-07
6.09613e-08
2.50244e-08
1.01763e-08
4.06182e-09
1.54918e-09
5.16984e-10
9.06007e-11
3.62619e-07
1.58471e-06
3.63996e-06
7.08506e-06
1.28335e-05
2.23689e-05
3.80696e-05
6.36929e-05
0.00010507
0.000171061
0.000274797
0.000435148
0.000678259
0.00103875
0.00155998
0.00229253
0.00329035
0.00460486
0.00627763
0.00833487
0.0107843
0.0136145
0.0167979
0.0202956
0.0240612
0.0280447
0.0321954
0.036464
0.0408036
0.0451712
0.0495281
0.05384
0.0580775
0.062216
0.0662353
0.0701197
0.0738566
0.0774372
0.080855
0.0841055
0.0871878
0.0901025
0.0928515
0.0954378
0.0978651
0.100138
0.10226
0.104237
0.106072
0.107768
0.109329
0.110754
0.112044
0.113194
0.114199
0.115049
0.115729
0.116216
0.116475
0.116478
0.116164
0.115456
0.114254
0.106537
0.0978926
0.0891138
0.0803609
0.071754
0.0633855
0.0553282
0.0476423
0.0403792
0.0335864
0.0273263
0.0216099
0.0165124
0.0120914
0.00840197
0.00548573
0.00334129
0.00189586
0.00100742
0.000506086
0.000243405
0.000113722
5.18977e-05
2.32219e-05
1.02175e-05
4.43102e-06
1.89786e-06
8.04296e-07
3.37796e-07
1.40786e-07
5.82762e-08
2.39523e-08
9.74871e-09
3.89366e-09
1.48583e-09
4.96041e-10
8.69773e-11
3.67526e-07
1.60659e-06
3.69206e-06
7.19088e-06
1.30332e-05
2.2728e-05
3.86906e-05
6.47273e-05
0.000106726
0.0001736
0.000278504
0.000440284
0.00068495
0.00104683
0.00156878
0.00230072
0.003296
0.00460566
0.00627035
0.00831606
0.0107506
0.0135634
0.0167284
0.0202081
0.0239577
0.0279282
0.0320698
0.0363334
0.0406723
0.0450433
0.0494068
0.0537286
0.0579787
0.0621319
0.0661677
0.0700696
0.0738239
0.0774202
0.0808525
0.0841174
0.0872134
0.0901406
0.0929009
0.0954972
0.0979331
0.100213
0.102341
0.104322
0.10616
0.107857
0.109417
0.11084
0.112124
0.113267
0.114261
0.115096
0.115754
0.116213
0.116437
0.116399
0.116038
0.115291
0.114098
0.10547
0.0966102
0.0876924
0.0788519
0.0701947
0.0618049
0.053751
0.046091
0.0388761
0.0321541
0.0260008
0.0204046
0.0154556
0.0112073
0.00770752
0.00498281
0.00301098
0.00170054
0.000902848
0.000454626
0.000219506
0.000103037
4.72561e-05
2.12503e-05
9.39433e-06
4.09168e-06
1.75916e-06
7.47888e-07
3.14905e-07
1.31497e-07
5.45041e-08
2.24212e-08
9.13007e-09
3.64751e-09
1.39204e-09
4.64721e-10
8.14903e-11
3.71278e-07
1.62297e-06
3.72964e-06
7.26367e-06
1.31633e-05
2.2949e-05
3.90512e-05
6.52938e-05
0.000107584
0.00017485
0.00028025
0.000442598
0.000687813
0.00105004
0.00157181
0.00230259
0.00329504
0.00459937
0.00625671
0.00829328
0.0107172
0.0135184
0.0166718
0.0201405
0.0238802
0.0278429
0.0319792
0.0362404
0.04058
0.0449549
0.0493257
0.0536574
0.0579197
0.0620865
0.0661363
0.0700517
0.0738198
0.077431
0.0808784
0.0841579
0.0872675
0.0902074
0.0929792
0.0955855
0.0980302
0.100317
0.102451
0.104436
0.106276
0.107974
0.109532
0.110951
0.112229
0.113362
0.11434
0.115152
0.115777
0.116185
0.116336
0.116183
0.115643
0.114608
0.112957
0.10404
0.094993
0.0859581
0.0770526
0.0683708
0.0599894
0.0519725
0.0443752
0.0372469
0.0306346
0.0246109
0.0191684
0.0143929
0.0103326
0.00702769
0.00449198
0.00268641
0.00150519
0.000795325
0.000399833
0.000193248
9.09294e-05
4.18372e-05
1.88823e-05
8.37981e-06
3.66412e-06
1.58136e-06
6.74719e-07
2.8503e-07
1.19367e-07
4.95998e-08
2.04463e-08
8.33993e-09
3.33623e-09
1.27444e-09
4.2568e-10
7.46709e-11
3.73998e-07
1.6348e-06
3.75659e-06
7.31548e-06
1.32555e-05
2.31053e-05
3.9307e-05
6.56991e-05
0.000108205
0.000175767
0.000281546
0.000444326
0.000689955
0.00105244
0.00157412
0.00230416
0.00329496
0.00459638
0.00624937
0.00828015
0.0106971
0.0134908
0.0166366
0.0200983
0.0238325
0.0277914
0.0319259
0.0361875
0.04053
0.0449099
0.0492876
0.0536276
0.0578987
0.0620755
0.0661368
0.0700656
0.0738479
0.0774733
0.0809345
0.0842272
0.0873492
0.0903005
0.0930825
0.0956979
0.0981502
0.100444
0.102582
0.10457
0.106412
0.10811
0.109666
0.11108
0.112351
0.113473
0.114438
0.115231
0.11583
0.116199
0.1163
0.116072
0.115416
0.114197
0.111285
0.102249
0.0931179
0.0840369
0.075118
0.0664518
0.0581124
0.0501616
0.0426533
0.0356358
0.0291554
0.0232602
0.0179874
0.0133939
0.0095241
0.00641075
0.00405534
0.00240335
0.00133768
0.000704184
0.00035362
0.000171063
8.0639e-05
3.71888e-05
1.68265e-05
7.48615e-06
3.28119e-06
1.41924e-06
6.06761e-07
2.56777e-07
1.07702e-07
4.48115e-08
1.84926e-08
7.54964e-09
3.02207e-09
1.15492e-09
3.85811e-10
6.7687e-11
3.75781e-07
1.6425e-06
3.77392e-06
7.34824e-06
1.33125e-05
2.31998e-05
3.94575e-05
6.59304e-05
0.000108547
0.000176254
0.000282204
0.000445165
0.000690943
0.00105347
0.00157496
0.00230445
0.00329419
0.0045939
0.00624445
0.00827216
0.0106856
0.0134757
0.016618
0.0200769
0.0238091
0.0277673
0.0319025
0.0361662
0.0405118
0.0448961
0.0492796
0.0536271
0.0579082
0.0620964
0.0661699
0.0701112
0.0739061
0.0775438
0.081017
0.0843211
0.0874537
0.0904146
0.0932052
0.0958279
0.0982862
0.100584
0.102726
0.104716
0.106557
0.108254
0.109807
0.111216
0.112481
0.113594
0.114548
0.115328
0.115914
0.116268
0.116359
0.116128
0.115495
0.114354
0.109243
0.100235
0.0911219
0.082062
0.0731758
0.0645579
0.0562842
0.0484171
0.04101
0.0341109
0.0277694
0.0220171
0.0169073
0.0124872
0.00879642
0.00586052
0.00366909
0.00215427
0.00119032
0.000623552
0.000312292
0.000150993
7.12164e-05
3.28836e-05
1.49034e-05
6.64335e-06
2.91778e-06
1.26467e-06
5.41774e-07
2.29711e-07
9.65161e-08
4.02188e-08
1.66189e-08
6.79185e-09
2.72087e-09
1.04031e-09
3.47578e-10
6.09884e-11
3.76999e-07
1.64776e-06
3.78574e-06
7.37058e-06
1.33514e-05
2.32644e-05
3.95608e-05
6.60906e-05
0.000108788
0.000176601
0.000282685
0.000445797
0.000691719
0.00105434
0.00157579
0.00230503
0.00329422
0.00459315
0.00624267
0.00826913
0.0106812
0.0134699
0.0166111
0.0200693
0.0238015
0.0277605
0.0318976
0.0361647
0.0405154
0.0449065
0.0492982
0.053655
0.057946
0.0621447
0.0662291
0.0701815
0.0739873
0.0776358
0.0811192
0.0844328
0.0875741
0.0905428
0.09334
0.0959682
0.0984307
0.100732
0.102875
0.104865
0.106705
0.108398
0.109946
0.111349
0.112605
0.113708
0.11465
0.115415
0.115984
0.116319
0.116392
0.116143
0.115489
0.114318
0.107281
0.0983037
0.0892171
0.0801883
0.0713442
0.0627824
0.0545799
0.0467993
0.0394934
0.0327093
0.02651
0.020896
0.0159379
0.0116787
0.0081533
0.00537953
0.00333565
0.00194188
0.00106595
0.000555966
0.000277755
0.00013421
6.33122e-05
2.92541e-05
1.32716e-05
5.92299e-06
2.60473e-06
1.13048e-06
4.84922e-07
2.05865e-07
8.65986e-08
3.61243e-08
1.49406e-08
6.11044e-09
2.44916e-09
9.36673e-10
3.12944e-10
5.49146e-11
3.77863e-07
1.65149e-06
3.7941e-06
7.3863e-06
1.33787e-05
2.33094e-05
3.96326e-05
6.62017e-05
0.000108954
0.000176843
0.000283025
0.000446256
0.000692309
0.00105506
0.00157661
0.0023059
0.00329502
0.00459375
0.00624299
0.00826919
0.0106812
0.0134702
0.0166122
0.020072
0.0238067
0.0277692
0.0319108
0.0361834
0.0405406
0.044939
0.0493389
0.0537045
0.0580047
0.062213
0.0663072
0.0702693
0.0740846
0.0777422
0.0812341
0.0845555
0.0877037
0.0906783
0.0934804
0.0961123
0.0985774
0.100879
0.103023
0.105011
0.106848
0.108536
0.110077
0.111471
0.112715
0.113804
0.114727
0.115472
0.116015
0.116322
0.116367
0.116091
0.115421
0.114281
0.105629
0.0966297
0.0875316
0.0785102
0.0696938
0.0611793
0.0530418
0.0453419
0.0381306
0.0314534
0.0253778
0.0198925
0.0150754
0.0109649
0.00759105
0.00496358
0.00305039
0.00176184
0.000961131
0.000499108
0.000248658
0.000120025
5.66032e-05
2.61593e-05
1.18741e-05
5.30338e-06
2.33443e-06
1.0142e-06
4.35508e-07
1.85083e-07
7.7935e-08
3.25403e-08
1.3469e-08
5.5121e-09
2.21028e-09
8.45471e-10
2.82448e-10
4.95646e-11
3.78537e-07
1.65441e-06
3.80066e-06
7.39871e-06
1.34004e-05
2.33456e-05
3.96911e-05
6.6294e-05
0.000109097
0.000177058
0.000283343
0.000446716
0.000692959
0.00105595
0.00157783
0.00230752
0.00329715
0.00459652
0.0062466
0.00827388
0.0106873
0.0134782
0.0166227
0.0200856
0.023824
0.0277911
0.0319381
0.0362168
0.0405809
0.0449867
0.0493945
0.0537685
0.0580773
0.0622943
0.0663972
0.0703678
0.0741913
0.0778564
0.0813553
0.0846828
0.0878364
0.0908153
0.0936207
0.0962549
0.098721
0.101023
0.103164
0.10515
0.106982
0.108664
0.110196
0.111579
0.112808
0.113877
0.114777
0.115489
0.11599
0.116241
0.116212
0.115835
0.115028
0.113714
0.104605
0.0953604
0.0861384
0.077067
0.0682486
0.0597647
0.0516815
0.0440536
0.0369277
0.0303456
0.0243657
0.0189932
0.0143078
0.0103378
0.00710456
0.00460825
0.00280947
0.00161121
0.000874028
0.000452042
0.000224599
0.000108282
5.10364e-05
2.35833e-05
1.07066e-05
4.7838e-06
2.10688e-06
9.15948e-07
3.93603e-07
1.674e-07
7.05417e-08
2.94739e-08
1.22072e-08
4.99807e-09
2.00476e-09
7.6692e-10
2.56185e-10
4.49548e-11
3.79114e-07
1.6569e-06
3.8063e-06
7.40943e-06
1.34193e-05
2.33774e-05
3.97434e-05
6.6378e-05
0.00010923
0.000177266
0.000283662
0.000447199
0.000693682
0.00105702
0.00157938
0.00230973
0.00330026
0.00460082
0.00625243
0.00828165
0.0106975
0.0134912
0.0166392
0.0201062
0.0238493
0.0278217
0.0319746
0.0362598
0.0406308
0.045044
0.0494594
0.0538412
0.0581579
0.0623828
0.0664933
0.0704711
0.0743015
0.0779729
0.0814773
0.0848097
0.0879672
0.0909491
0.0937566
0.0963917
0.0988577
0.101158
0.103297
0.105279
0.107106
0.10878
0.110303
0.111674
0.112887
0.113937
0.114811
0.115488
0.115939
0.116123
0.115994
0.115465
0.114416
0.112713
0.103455
0.0941131
0.0848403
0.0757553
0.0669525
0.0585074
0.0504814
0.042926
0.0358858
0.0294029
0.0235246
0.0182777
0.0136965
0.00982515
0.00669797
0.0043115
0.002609
0.00148633
0.000801997
0.000413151
0.000204704
9.85554e-05
4.64146e-05
2.14393e-05
9.73238e-06
4.34915e-06
1.91606e-06
8.33364e-07
3.58305e-07
1.52477e-07
6.42908e-08
2.68771e-08
1.11371e-08
4.56165e-09
1.83015e-09
7.002e-10
2.33879e-10
4.10379e-11
3.79644e-07
1.6592e-06
3.81152e-06
7.41943e-06
1.3437e-05
2.34078e-05
3.9794e-05
6.6461e-05
0.000109364
0.00017748
0.000284001
0.000447728
0.000694499
0.00105826
0.00158123
0.00231245
0.00330415
0.00460627
0.00625987
0.00829157
0.0107104
0.0135077
0.0166597
0.0201313
0.0238796
0.0278576
0.0320166
0.0363083
0.040686
0.0451063
0.0495288
0.0539178
0.0582417
0.0624734
0.0665905
0.0705746
0.0744106
0.0780871
0.081596
0.0849319
0.0880922
0.0910761
0.0938845
0.0965197
0.0989848
0.101283
0.103419
0.105396
0.107218
0.108885
0.1104
0.11176
0.112962
0.113997
0.114852
0.115508
0.115932
0.116087
0.115923
0.115354
0.114267
0.111601
0.102287
0.0929152
0.0836353
0.0745632
0.0657905
0.0573909
0.0494243
0.0419415
0.0349871
0.0286058
0.0228348
0.0176861
0.0132053
0.00942754
0.00637418
0.00406626
0.00244252
0.00138265
0.000742295
0.000380965
0.00018825
9.05082e-05
4.25879e-05
1.9662e-05
8.92372e-06
3.9878e-06
1.75716e-06
7.6448e-07
3.28816e-07
1.39989e-07
5.90524e-08
2.46981e-08
1.02382e-08
4.1948e-09
1.68333e-09
6.44099e-10
2.15138e-10
3.77475e-11
3.8015e-07
1.66141e-06
3.81654e-06
7.42909e-06
1.34543e-05
2.34376e-05
3.98443e-05
6.65445e-05
0.000109501
0.000177703
0.000284358
0.000448295
0.000695386
0.00105963
0.0015833
0.0023155
0.00330856
0.00461246
0.00626832
0.0083028
0.0107249
0.0135261
0.0166824
0.0201588
0.0239124
0.027896
0.032061
0.0363589
0.0407431
0.0451699
0.049599
0.0539944
0.0583246
0.0625623
0.0666851
0.0706744
0.0745151
0.0781956
0.0817078
0.0850463
0.0882084
0.0911933
0.0940019
0.0966365
0.0991
0.101396
0.103529
0.105502
0.107318
0.108979
0.110486
0.111838
0.11303
0.114055
0.114899
0.115545
0.115959
0.116109
0.115948
0.115399
0.114364
0.110428
0.101131
0.0917808
0.082528
0.0734903
0.0647604
0.056412
0.0485054
0.0410894
0.0342063
0.0278924
0.0221663
0.0170873
0.0126942
0.00901918
0.00608276
0.00385586
0.00229964
0.00129483
0.000692205
0.00035413
0.000174587
8.38398e-05
3.942e-05
1.81911e-05
8.25427e-06
3.68847e-06
1.62543e-06
7.07316e-07
3.04317e-07
1.29603e-07
5.46912e-08
2.28823e-08
9.48854e-09
3.88863e-09
1.56073e-09
5.97256e-10
1.99496e-10
3.50039e-11
3.80637e-07
1.66353e-06
3.82139e-06
7.43848e-06
1.34712e-05
2.3467e-05
3.98941e-05
6.66279e-05
0.000109639
0.000177929
0.000284725
0.000448882
0.000696311
0.00106106
0.00158548
0.00231873
0.00331322
0.00461899
0.00627723
0.00831459
0.0107401
0.0135451
0.0167058
0.020187
0.0239457
0.0279347
0.0321054
0.0364091
0.0407992
0.0452319
0.0496669
0.054068
0.0584035
0.0626464
0.0667739
0.0707675
0.0746119
0.0782955
0.0818101
0.0851504
0.0883136
0.0912988
0.094107
0.0967403
0.0992019
0.101495
0.103624
0.105593
0.107404
0.109059
0.11056
0.111904
0.113088
0.114104
0.114939
0.115575
0.115982
0.116124
0.115959
0.11541
0.114378
0.109388
0.100101
0.0907714
0.0815487
0.0725512
0.0638705
0.0555769
0.0477278
0.0403634
0.0335267
0.0272546
0.0215947
0.0165874
0.0122707
0.00867488
0.00581625
0.00367807
0.00218104
0.00122138
0.000650603
0.00033196
0.000163337
7.83573e-05
3.68173e-05
1.69828e-05
7.70421e-06
3.4424e-06
1.51706e-06
6.6025e-07
2.84127e-07
1.21036e-07
5.10905e-08
2.13818e-08
8.86858e-09
3.63529e-09
1.45926e-09
5.58479e-10
1.86545e-10
3.27324e-11
3.811e-07
1.66555e-06
3.82601e-06
7.44744e-06
1.34874e-05
2.34952e-05
3.99424e-05
6.67092e-05
0.000109774
0.000178152
0.000285087
0.000449464
0.000697232
0.00106249
0.00158765
0.00232195
0.00331787
0.00462551
0.00628609
0.00832627
0.0107551
0.0135639
0.0167287
0.0202143
0.0239778
0.0279719
0.0321477
0.0364567
0.0408521
0.0452899
0.04973
0.054136
0.0584761
0.0627233
0.0668546
0.0708516
0.0746988
0.0783847
0.0819011
0.0852424
0.088406
0.091391
0.0941983
0.09683
0.0992893
0.10158
0.103705
0.105669
0.107475
0.109125
0.110619
0.111956
0.113132
0.11414
0.114966
0.115594
0.115991
0.116126
0.115955
0.115401
0.114369
0.108491
0.0992114
0.0899005
0.0807079
0.0717481
0.0631022
0.0548412
0.0470214
0.0396987
0.0329137
0.0267048
0.021108
0.0161659
0.0119163
0.00838855
0.00559667
0.00351984
0.00208467
0.00116253
0.0006167
0.000313875
0.000154182
7.39005e-05
3.47023e-05
1.60008e-05
7.257e-06
3.24222e-06
1.42883e-06
6.21898e-07
2.67661e-07
1.14043e-07
4.81488e-08
2.0155e-08
8.36138e-09
3.42795e-09
1.37624e-09
5.26744e-10
1.75947e-10
3.08716e-11
3.81527e-07
1.66741e-06
3.83028e-06
7.45574e-06
1.35025e-05
2.35216e-05
3.99875e-05
6.67854e-05
0.000109902
0.000178362
0.00028543
0.000450016
0.000698106
0.00106385
0.00158971
0.00232501
0.00332228
0.00463167
0.00629444
0.00833727
0.0107691
0.0135813
0.01675
0.0202397
0.0240074
0.0280059
0.0321863
0.0364999
0.0408998
0.0453421
0.0497865
0.0541965
0.0585405
0.062791
0.0669255
0.070925
0.0747743
0.0784619
0.0819792
0.0853211
0.0884846
0.0914689
0.094275
0.0969048
0.0993617
0.101649
0.103771
0.10573
0.107531
0.109175
0.110663
0.111993
0.113162
0.114161
0.11498
0.115599
0.115988
0.116115
0.115937
0.115378
0.114348
0.107745
0.0984638
0.0891634
0.0799898
0.071047
0.0624278
0.0542016
0.0464252
0.039147
0.032409
0.0262501
0.0207054
0.0158178
0.0116246
0.00815398
0.00541809
0.00339255
0.00200006
0.00111496
0.000590155
0.000299517
0.000146857
7.03329e-05
3.30086e-05
1.52139e-05
6.89833e-06
3.08153e-06
1.35794e-06
5.91062e-07
2.54412e-07
1.08412e-07
4.57787e-08
1.91661e-08
7.95251e-09
3.26092e-09
1.30934e-09
5.0117e-10
1.67406e-10
2.93711e-11
3.81905e-07
1.66906e-06
3.83407e-06
7.46312e-06
1.35159e-05
2.3545e-05
4.00278e-05
6.68536e-05
0.000110016
0.000178551
0.000285739
0.000450513
0.000698894
0.00106507
0.00159157
0.00232776
0.00332624
0.0046372
0.00630192
0.00834708
0.0107816
0.0135969
0.0167688
0.020262
0.0240334
0.0280357
0.03222
0.0365374
0.0409411
0.0453871
0.0498349
0.0542482
0.0585952
0.0628484
0.0669851
0.0709865
0.0748373
0.0785258
0.0820437
0.0853856
0.0885487
0.091532
0.0943366
0.0969645
0.0994187
0.101703
0.103821
0.105776
0.107572
0.109211
0.110693
0.112016
0.113178
0.11417
0.114981
0.115593
0.115974
0.116095
0.115912
0.11535
0.114323
0.107142
0.0978531
0.0885595
0.0793955
0.0704738
0.0618806
0.0536846
0.0459419
0.0387
0.0320007
0.0258823
0.02038
0.0155369
0.0113896
0.00796575
0.00527551
0.00329168
0.00193377
0.00107425
0.000568627
0.000288393
0.000141164
6.75368e-05
3.16765e-05
1.45944e-05
6.61568e-06
2.95481e-06
1.30202e-06
5.66724e-07
2.43953e-07
1.03967e-07
4.39084e-08
1.83866e-08
7.6306e-09
3.12941e-09
1.25667e-09
4.81029e-10
1.60679e-10
2.81889e-11
3.82222e-07
1.67045e-06
3.83724e-06
7.46931e-06
1.35272e-05
2.35648e-05
4.00617e-05
6.69111e-05
0.000110112
0.00017871
0.000286
0.000450934
0.00069956
0.00106611
0.00159315
0.00233009
0.00332958
0.00464186
0.00630822
0.00835533
0.0107921
0.0136099
0.0167845
0.0202806
0.024055
0.0280605
0.0322478
0.0365683
0.040975
0.0454239
0.0498744
0.0542902
0.0586393
0.0628945
0.0670327
0.0710353
0.074887
0.078576
0.082094
0.0854356
0.088598
0.0915802
0.0943832
0.097009
0.0994607
0.101742
0.103857
0.105808
0.107599
0.109233
0.110709
0.112026
0.113182
0.114167
0.114972
0.115577
0.115954
0.116072
0.115891
0.115339
0.114337
0.106684
0.0973773
0.0880791
0.078925
0.0700202
0.0614484
0.0532771
0.0455617
0.038349
0.0316806
0.0255945
0.0201256
0.0153177
0.0112067
0.00781966
0.00516529
0.00321408
0.00188311
0.00104346
0.00055096
0.000279426
0.000136814
6.54137e-05
3.066e-05
1.41193e-05
6.39872e-06
2.85758e-06
1.25915e-06
5.48103e-07
2.35968e-07
1.00581e-07
4.24869e-08
1.77945e-08
7.38604e-09
3.02946e-09
1.21662e-09
4.65715e-10
1.55565e-10
2.72898e-11
3.82468e-07
1.67152e-06
3.83971e-06
7.47411e-06
1.35359e-05
2.35801e-05
4.00881e-05
6.69557e-05
0.000110187
0.000178834
0.000286202
0.000451261
0.000700079
0.00106691
0.00159437
0.0023319
0.00333218
0.00464548
0.0063131
0.00836172
0.0108003
0.0136199
0.0167966
0.0202949
0.0240717
0.0280794
0.0322691
0.0365919
0.0410009
0.0454518
0.0499043
0.0543218
0.0586724
0.0629288
0.067068
0.0710712
0.0749233
0.0786124
0.0821302
0.0854713
0.0886328
0.0916138
0.0944152
0.0970391
0.0994885
0.101767
0.103878
0.105826
0.107613
0.109242
0.110713
0.112025
0.113175
0.114154
0.114952
0.115552
0.115923
0.116039
0.115857
0.115309
0.114319
0.106314
0.0970045
0.0877115
0.078568
0.0696778
0.0611237
0.0529722
0.0452781
0.0380879
0.031443
0.0253812
0.0199376
0.015156
0.0110722
0.0077125
0.00508474
0.00315762
0.00184641
0.00102125
0.000538287
0.00027247
0.000133317
6.37846e-05
2.99052e-05
1.37729e-05
6.24192e-06
2.78764e-06
1.2284e-06
5.34762e-07
2.30249e-07
9.81561e-08
4.14678e-08
1.73699e-08
7.21054e-09
2.95773e-09
1.18788e-09
4.54721e-10
1.51893e-10
2.66442e-11
3.82635e-07
1.67225e-06
3.84138e-06
7.47736e-06
1.35418e-05
2.35905e-05
4.01059e-05
6.69859e-05
0.000110237
0.000178918
0.000286339
0.000451482
0.000700429
0.00106746
0.0015952
0.00233312
0.00333394
0.00464793
0.00631641
0.00836605
0.0108058
0.0136267
0.0168049
0.0203046
0.0240829
0.0280922
0.0322834
0.0366078
0.0410182
0.0454705
0.0499242
0.0543428
0.0586944
0.0629514
0.067091
0.0710944
0.0749464
0.0786353
0.0821527
0.0854933
0.0886539
0.0916339
0.094434
0.0970562
0.0995036
0.10178
0.103888
0.105833
0.107617
0.109242
0.110708
0.112016
0.11316
0.114134
0.114926
0.115521
0.115887
0.115999
0.115816
0.11527
0.11429
0.106081
0.0967579
0.0874633
0.0783253
0.0694451
0.0609037
0.0527664
0.0450874
0.0379131
0.0312845
0.0252395
0.0198131
0.0150492
0.0109836
0.00764225
0.00503219
0.00312099
0.00182275
0.00100701
0.000530229
0.000268142
0.000131144
6.27132e-05
2.94071e-05
1.3546e-05
6.13983e-06
2.74237e-06
1.20859e-06
5.26196e-07
2.26584e-07
9.66027e-08
4.08151e-08
1.70978e-08
7.09807e-09
2.91173e-09
1.16944e-09
4.47665e-10
1.49536e-10
2.62296e-11
3.8272e-07
1.67262e-06
3.84222e-06
7.479e-06
1.35447e-05
2.35956e-05
4.01147e-05
6.70008e-05
0.000110262
0.000178959
0.000286406
0.000451589
0.000700599
0.00106772
0.0015956
0.00233371
0.00333479
0.00464912
0.00631802
0.00836815
0.0108084
0.01363
0.0168089
0.0203094
0.0240884
0.0280985
0.0322905
0.0366156
0.0410267
0.0454797
0.049934
0.0543531
0.0587051
0.0629624
0.0671021
0.0711055
0.0749573
0.0786459
0.0821629
0.085503
0.0886632
0.0916424
0.0944416
0.0970628
0.099509
0.101784
0.103891
0.105833
0.107615
0.109237
0.110701
0.112005
0.113146
0.114116
0.114905
0.115495
0.115858
0.115968
0.115785
0.115243
0.114276
0.105969
0.0966319
0.0873341
0.0781988
0.0693243
0.0607902
0.0526611
0.0449908
0.0378252
0.0312054
0.0251694
0.019752
0.0149973
0.0109408
0.00760856
0.00500719
0.00310371
0.00181168
0.00100041
0.00052651
0.000266151
0.000130151
6.22267e-05
2.91717e-05
1.34364e-05
6.09033e-06
2.72042e-06
1.199e-06
5.22057e-07
2.24816e-07
9.58547e-08
4.05011e-08
1.69669e-08
7.04393e-09
2.88957e-09
1.16054e-09
4.44256e-10
1.48395e-10
2.60288e-11
3.82726e-07
1.67264e-06
3.84228e-06
7.47911e-06
1.35449e-05
2.3596e-05
4.01153e-05
6.70018e-05
0.000110264
0.000178961
0.00028641
0.000451595
0.000700608
0.00106774
0.00159562
0.00233374
0.00333483
0.00464917
0.00631808
0.00836823
0.0108085
0.0136301
0.016809
0.0203095
0.0240886
0.0280987
0.0322907
0.0366158
0.0410269
0.0454799
0.0499342
0.0543533
0.0587052
0.0629626
0.0671023
0.0711056
0.0749574
0.078646
0.0821631
0.0855032
0.0886633
0.0916426
0.0944417
0.0970629
0.0995091
0.101784
0.103891
0.105833
0.107615
0.109237
0.110701
0.112005
0.113146
0.114116
0.114905
0.115495
0.115858
0.115968
0.115785
0.115243
0.114276
0.105968
0.0966314
0.0873337
0.0781983
0.0693239
0.0607899
0.0526608
0.0449905
0.0378249
0.0312052
0.0251692
0.0197519
0.0149971
0.0109407
0.00760848
0.00500712
0.00310366
0.00181165
0.00100039
0.000526501
0.000266146
0.000130148
6.22255e-05
2.91711e-05
1.34362e-05
6.09022e-06
2.72037e-06
1.19898e-06
5.22048e-07
2.24812e-07
9.58528e-08
4.05003e-08
1.69666e-08
7.04379e-09
2.88951e-09
1.16052e-09
4.44246e-10
1.48392e-10
2.60283e-11
3.82652e-07
1.67232e-06
3.84155e-06
7.47769e-06
1.35424e-05
2.35915e-05
4.01076e-05
6.69888e-05
0.000110242
0.000178925
0.000286351
0.0004515
0.000700457
0.0010675
0.00159526
0.00233321
0.00333405
0.00464808
0.0063166
0.00836628
0.010806
0.013627
0.0168052
0.020305
0.0240833
0.0280927
0.0322839
0.0366083
0.0410187
0.045471
0.0499247
0.0543433
0.0586948
0.0629518
0.0670914
0.0710948
0.0749468
0.0786357
0.0821531
0.0854936
0.0886543
0.0916343
0.0944343
0.0970565
0.0995039
0.10178
0.103889
0.105833
0.107617
0.109242
0.110709
0.112016
0.11316
0.114134
0.114927
0.115521
0.115888
0.116
0.115816
0.11527
0.11429
0.10608
0.0967566
0.0874619
0.078324
0.0694439
0.0609026
0.0527654
0.0450866
0.0379123
0.0312838
0.025239
0.0198126
0.0150488
0.0109833
0.007642
0.005032
0.00312086
0.00182266
0.00100696
0.000530202
0.000268127
0.000131137
6.27098e-05
2.94056e-05
1.35453e-05
6.13954e-06
2.74224e-06
1.20853e-06
5.26169e-07
2.26572e-07
9.65975e-08
4.08129e-08
1.70968e-08
7.09766e-09
2.91156e-09
1.16937e-09
4.47638e-10
1.49527e-10
2.62279e-11
3.82496e-07
1.67164e-06
3.83999e-06
7.47466e-06
1.35369e-05
2.35818e-05
4.0091e-05
6.69606e-05
0.000110195
0.000178847
0.000286223
0.000451293
0.000700127
0.00106699
0.00159447
0.00233204
0.00333238
0.00464574
0.00631343
0.00836212
0.0108007
0.0136204
0.0167972
0.0202956
0.0240724
0.0280802
0.0322699
0.0365927
0.0410017
0.0454527
0.0499051
0.0543226
0.0586733
0.0629296
0.0670688
0.071072
0.074924
0.0786131
0.0821308
0.0854719
0.0886334
0.0916144
0.0944158
0.0970396
0.099489
0.101767
0.103879
0.105826
0.107613
0.109242
0.110713
0.112025
0.113175
0.114154
0.114952
0.115552
0.115923
0.116039
0.115857
0.115308
0.114318
0.106312
0.0970028
0.0877099
0.0785663
0.0696763
0.0611222
0.0529708
0.0452768
0.0380867
0.0314419
0.0253803
0.0199368
0.0151553
0.0110716
0.00771206
0.00508441
0.00315739
0.00184626
0.00102117
0.000538238
0.000272444
0.000133304
6.37787e-05
2.99026e-05
1.37716e-05
6.24133e-06
2.78737e-06
1.22828e-06
5.34709e-07
2.30226e-07
9.81462e-08
4.14636e-08
1.73681e-08
7.2098e-09
2.95742e-09
1.18776e-09
4.54674e-10
1.51877e-10
2.66413e-11
3.82262e-07
1.67062e-06
3.83764e-06
7.47007e-06
1.35285e-05
2.35672e-05
4.00658e-05
6.69178e-05
0.000110123
0.000178728
0.000286028
0.000450978
0.000699627
0.00106621
0.00159329
0.00233029
0.00332985
0.00464222
0.00630867
0.00835588
0.0107928
0.0136106
0.0167854
0.0202815
0.024056
0.0280615
0.0322489
0.0365694
0.0409762
0.0454251
0.0498756
0.0542914
0.0586405
0.0628956
0.0670338
0.0710364
0.074888
0.078577
0.082095
0.0854365
0.0885988
0.091581
0.0943839
0.0970097
0.0994614
0.101743
0.103857
0.105808
0.1076
0.109233
0.110709
0.112027
0.113182
0.114168
0.114972
0.115577
0.115954
0.116072
0.115891
0.115339
0.114337
0.106681
0.0973743
0.0880763
0.0789223
0.0700177
0.0614462
0.0532751
0.0455599
0.0383474
0.0316791
0.0255932
0.0201245
0.0153167
0.0112059
0.00781903
0.00516482
0.00321375
0.0018829
0.00104334
0.000550891
0.000279391
0.000136796
6.54055e-05
3.0656e-05
1.41174e-05
6.39784e-06
2.85718e-06
1.25897e-06
5.48025e-07
2.35934e-07
1.00567e-07
4.24809e-08
1.7792e-08
7.38498e-09
3.02903e-09
1.21645e-09
4.65648e-10
1.55542e-10
2.72856e-11
3.81955e-07
1.66928e-06
3.83456e-06
7.46408e-06
1.35176e-05
2.35481e-05
4.00329e-05
6.68621e-05
0.00011003
0.000178573
0.000285775
0.000450569
0.000698978
0.0010652
0.00159175
0.00232802
0.00332658
0.00463765
0.00630249
0.00834778
0.0107825
0.0135978
0.0167699
0.0202632
0.0240347
0.0280371
0.0322214
0.0365389
0.0409426
0.0453886
0.0498365
0.0542498
0.0585967
0.0628499
0.0669865
0.0709879
0.0748386
0.0785271
0.0820449
0.0853868
0.0885498
0.0915331
0.0943376
0.0969654
0.0994196
0.101704
0.103822
0.105777
0.107573
0.109212
0.110693
0.112017
0.113178
0.114171
0.114982
0.115593
0.115974
0.116096
0.115912
0.11535
0.114323
0.107137
0.0978488
0.0885555
0.0793918
0.0704705
0.0618777
0.0536819
0.0459395
0.0386978
0.0319988
0.0258806
0.0203785
0.0155356
0.0113886
0.00796492
0.00527489
0.00329124
0.00193349
0.00107409
0.000568538
0.00028835
0.000141142
6.75257e-05
3.16711e-05
1.45918e-05
6.6145e-06
2.95428e-06
1.30178e-06
5.66622e-07
2.43909e-07
1.03948e-07
4.39004e-08
1.83833e-08
7.62921e-09
3.12883e-09
1.25644e-09
4.8094e-10
1.60649e-10
2.81834e-11
3.81587e-07
1.66767e-06
3.83088e-06
7.45691e-06
1.35046e-05
2.35252e-05
3.99937e-05
6.67957e-05
0.000109919
0.000178389
0.000285474
0.000450084
0.000698208
0.001064
0.00158993
0.00232532
0.00332269
0.00463222
0.00629514
0.00833812
0.0107701
0.0135825
0.0167513
0.0202411
0.024009
0.0280076
0.032188
0.0365017
0.0409016
0.045344
0.0497883
0.0541984
0.0585423
0.0627929
0.0669272
0.0709267
0.074776
0.0784635
0.0819808
0.0853226
0.088486
0.0914703
0.0942762
0.096906
0.0993628
0.10165
0.103772
0.105731
0.107532
0.109176
0.110663
0.111994
0.113162
0.114162
0.11498
0.115599
0.115987
0.116115
0.115936
0.115378
0.114348
0.10774
0.098459
0.0891588
0.0799858
0.0710433
0.0624245
0.0541985
0.0464224
0.0391444
0.0324067
0.026248
0.0207035
0.0158162
0.0116232
0.00815292
0.00541729
0.00339199
0.0019997
0.00111475
0.000590041
0.000299454
0.000146825
7.03173e-05
3.30012e-05
1.52105e-05
6.89678e-06
3.08084e-06
1.35764e-06
5.9093e-07
2.54355e-07
1.08388e-07
4.57685e-08
1.91618e-08
7.95073e-09
3.26018e-09
1.30905e-09
5.01056e-10
1.67368e-10
2.9364e-11
3.8117e-07
1.66585e-06
3.82671e-06
7.4488e-06
1.34899e-05
2.34995e-05
3.99496e-05
6.67213e-05
0.000109794
0.000178184
0.000285138
0.000449543
0.000697352
0.00106267
0.00158791
0.00232231
0.00331836
0.00462615
0.0062869
0.00832728
0.0107563
0.0135652
0.0167303
0.020216
0.0239796
0.0279738
0.0321497
0.0364588
0.0408542
0.0452921
0.0497322
0.0541382
0.0584783
0.0627254
0.0668568
0.0708536
0.0747008
0.0783867
0.0819029
0.0852442
0.0884077
0.0913926
0.0941998
0.0968314
0.0992906
0.101581
0.103706
0.10567
0.107476
0.109125
0.110619
0.111956
0.113133
0.11414
0.114967
0.115594
0.115991
0.116126
0.115955
0.115401
0.114369
0.108485
0.0992058
0.0898956
0.0807033
0.0717437
0.063098
0.0548374
0.0470179
0.0396955
0.0329108
0.0267022
0.0211057
0.016164
0.0119147
0.00838724
0.00559568
0.00351914
0.00208422
0.00116227
0.000616549
0.000313794
0.000154141
7.38807e-05
3.4693e-05
1.59965e-05
7.25505e-06
3.24135e-06
1.42845e-06
6.21732e-07
2.67589e-07
1.14012e-07
4.8136e-08
2.01496e-08
8.35915e-09
3.42703e-09
1.37587e-09
5.26602e-10
1.759e-10
3.08628e-11
3.80717e-07
1.66388e-06
3.82219e-06
7.44003e-06
1.34741e-05
2.34719e-05
3.99024e-05
6.66418e-05
0.000109662
0.000177966
0.000284783
0.000448972
0.000696448
0.00106126
0.00158577
0.00231914
0.00331378
0.00461973
0.00627817
0.00831574
0.0107415
0.0135467
0.0167076
0.0201889
0.0239478
0.027937
0.0321077
0.0364116
0.0408018
0.0452345
0.0496694
0.0540705
0.0584061
0.0626489
0.0667764
0.0707699
0.0746142
0.0782977
0.0818123
0.0851525
0.0883156
0.0913007
0.0941088
0.096742
0.0992035
0.101497
0.103626
0.105594
0.107405
0.10906
0.110561
0.111905
0.113089
0.114104
0.11494
0.115576
0.115982
0.116125
0.11596
0.11541
0.114378
0.109381
0.100094
0.090765
0.0815427
0.0725457
0.0638655
0.0555724
0.0477235
0.0403596
0.0335233
0.0272516
0.021592
0.0165851
0.0122688
0.0086733
0.00581505
0.00367723
0.0021805
0.00122104
0.000650411
0.000331859
0.000163286
7.83328e-05
3.68058e-05
1.69775e-05
7.70179e-06
3.44132e-06
1.51658e-06
6.60044e-07
2.84039e-07
1.20998e-07
5.10747e-08
2.13752e-08
8.86586e-09
3.63418e-09