/*--------------------------------*- C++ -*----------------------------------*\
  =========                 |
  \\      /  F ield         | OpenFOAM: The Open Source CFD Toolbox
   \\    /   O peration     | Website:  https://openfoam.org
    \\  /    A nd           | Version:  8
     \\/     M anipulation  |
\*---------------------------------------------------------------------------*/
FoamFile
{
    version     2.0;
    format      ascii;
    class       volScalarField;
    location    "400/fluid";
    object      N2;
}
// * * * * * * * * * * * * * * * * * * * * * * * * * * * * * * * * * * * * * //

dimensions      [0 0 0 0 0 0 0];

internalField   nonuniform List<scalar> 
4000
(
2.13997e-06
9.34833e-06
2.14564e-05
4.17222e-05
7.54871e-05
0.000131423
0.000223446
0.000373575
0.000616075
0.00100322
0.00161284
0.00255745
0.0039939
0.00613101
0.0092314
0.0136023
0.0195718
0.0274506
0.0374945
0.0498565
0.0645694
0.0815531
0.100633
0.121568
0.144075
0.167851
0.192594
0.218011
0.243826
0.269786
0.295664
0.32126
0.346404
0.370951
0.394785
0.417815
0.439968
0.461191
0.48145
0.500728
0.519017
0.536322
0.552658
0.568047
0.582516
0.596098
0.608828
0.620743
0.631882
0.642284
0.651989
0.661036
0.669464
0.67731
0.684611
0.691401
0.697714
0.703584
0.708915
0.71386
0.71858
0.722965
0.727025
0.730868
0.73454
0.738048
0.741395
0.744584
0.747615
0.750485
0.753191
0.755728
0.75809
0.760266
0.762248
0.764022
0.765574
0.766884
0.767936
0.768726
0.769269
0.76961
0.769805
0.769907
0.769957
0.76998
0.769991
0.769996
0.769998
0.769999
0.77
0.77
0.77
0.77
0.77
0.77
0.77
0.77
0.77
0.77
2.15887e-06
9.43472e-06
2.16709e-05
4.2182e-05
7.64068e-05
0.000133177
0.000226656
0.000379211
0.000625558
0.00101845
0.00163608
0.00259077
0.00403821
0.00618452
0.00928783
0.0136493
0.0195902
0.0274166
0.0373763
0.0496252
0.0642093
0.0810608
0.100016
0.120843
0.143264
0.166983
0.191698
0.217114
0.242952
0.268956
0.294894
0.320563
0.345788
0.370422
0.394344
0.417462
0.439701
0.46101
0.481351
0.500699
0.519051
0.536413
0.5528
0.568235
0.582744
0.59636
0.609119
0.621058
0.632216
0.642634
0.652351
0.661407
0.66984
0.677689
0.68499
0.691779
0.698089
0.703953
0.709278
0.714233
0.718955
0.723339
0.727377
0.731228
0.734903
0.738415
0.741765
0.744958
0.747991
0.750862
0.753568
0.756102
0.758457
0.760617
0.762582
0.764332
0.76585
0.767116
0.768117
0.768853
0.769349
0.769654
0.769826
0.769916
0.769961
0.769982
0.769992
0.769996
0.769998
0.769999
0.77
0.77
0.77
0.77
0.77
0.77
0.77
0.77
0.77
0.77
2.18823e-06
9.56554e-06
2.19823e-05
4.28142e-05
7.75994e-05
0.000135322
0.000230363
0.000385384
0.000635442
0.0010336
0.00165819
0.0026214
0.00407811
0.00623269
0.00934029
0.0136982
0.019624
0.0274217
0.0373334
0.0495137
0.0640091
0.0807569
0.0996021
0.120321
0.142647
0.166288
0.190948
0.216334
0.242168
0.268191
0.294169
0.319897
0.345196
0.369917
0.393938
0.41716
0.439503
0.460906
0.481333
0.500768
0.519202
0.536642
0.5531
0.568598
0.583164
0.596829
0.609631
0.621605
0.632793
0.643235
0.65297
0.66204
0.670482
0.678336
0.685638
0.692425
0.698729
0.704581
0.709869
0.714914
0.719608
0.723972
0.727972
0.731818
0.735492
0.739001
0.742349
0.745536
0.748561
0.751421
0.754111
0.756624
0.758951
0.761073
0.762996
0.764695
0.766153
0.767354
0.76829
0.768966
0.769416
0.76969
0.769844
0.769925
0.769965
0.769984
0.769993
0.769997
0.769999
0.769999
0.77
0.77
0.77
0.77
0.77
0.77
0.77
0.77
0.77
0.77
2.21068e-06
9.66357e-06
2.22072e-05
4.32497e-05
7.83777e-05
0.000136644
0.000232519
0.000388773
0.000640573
0.00104108
0.00166865
0.00263527
0.00409529
0.00625198
0.00935862
0.0137096
0.0196187
0.0273847
0.0372526
0.0493784
0.0638104
0.0804896
0.0992651
0.119918
0.142185
0.165779
0.190407
0.215777
0.241614
0.26766
0.293681
0.319467
0.344839
0.36964
0.393744
0.417045
0.43947
0.46096
0.481478
0.501001
0.51952
0.537039
0.553569
0.569132
0.583756
0.597473
0.610318
0.62233
0.633548
0.644014
0.653767
0.662849
0.671299
0.679155
0.686456
0.693237
0.699533
0.705336
0.710629
0.715683
0.720369
0.724719
0.728695
0.73253
0.736195
0.739695
0.743032
0.746205
0.749212
0.752048
0.75471
0.757188
0.759475
0.76155
0.76342
0.765059
0.766453
0.767587
0.768458
0.769078
0.769483
0.769727
0.769863
0.769934
0.769969
0.769986
0.769994
0.769997
0.769999
0.769999
0.77
0.77
0.77
0.77
0.77
0.77
0.77
0.77
0.77
0.77
2.22698e-06
9.73445e-06
2.23687e-05
4.35601e-05
7.89296e-05
0.00013758
0.000234051
0.000391199
0.000644291
0.00104657
0.0016764
0.00264561
0.00410811
0.00626636
0.00937241
0.0137191
0.0196183
0.027367
0.037209
0.0493004
0.063691
0.0803248
0.0990548
0.119666
0.1419
0.165471
0.190087
0.215459
0.241312
0.267387
0.293448
0.319282
0.344705
0.369565
0.393735
0.417116
0.439625
0.461202
0.481804
0.501408
0.520003
0.537592
0.554188
0.569811
0.584487
0.59825
0.611134
0.623178
0.634422
0.644907
0.654674
0.663765
0.672218
0.680073
0.687368
0.69414
0.700423
0.706177
0.71143
0.716462
0.721128
0.72546
0.729433
0.733268
0.736929
0.74042
0.743742
0.746894
0.749876
0.752683
0.755308
0.757745
0.759985
0.762014
0.763825
0.765402
0.76673
0.767799
0.768608
0.769175
0.769541
0.769758
0.769879
0.769941
0.769972
0.769987
0.769994
0.769997
0.769999
0.77
0.77
0.77
0.77
0.77
0.77
0.77
0.77
0.77
0.77
0.77
2.23769e-06
9.78074e-06
2.24728e-05
4.37569e-05
7.92724e-05
0.000138148
0.000234955
0.000392589
0.00064635
0.0010495
0.00168036
0.00265067
0.00411407
0.0062726
0.00937759
0.013721
0.0196138
0.0273522
0.0371795
0.0492523
0.0636219
0.0802337
0.0989429
0.119537
0.141758
0.165324
0.189944
0.215328
0.241199
0.267298
0.293392
0.31927
0.344751
0.369678
0.393921
0.417377
0.439962
0.461613
0.482288
0.501962
0.520623
0.538273
0.554925
0.570597
0.585317
0.599116
0.612031
0.6241
0.635362
0.64586
0.655634
0.664726
0.673177
0.681025
0.68831
0.695067
0.701334
0.707058
0.71228
0.717271
0.721898
0.726197
0.730183
0.734012
0.737662
0.741136
0.744438
0.747566
0.750518
0.753291
0.755878
0.758271
0.760461
0.76244
0.764195
0.765713
0.76698
0.767988
0.76874
0.76926
0.769591
0.769786
0.769893
0.769948
0.769976
0.769989
0.769995
0.769998
0.769999
0.77
0.77
0.77
0.77
0.77
0.77
0.77
0.77
0.77
0.77
0.77
2.24504e-06
9.81245e-06
2.25441e-05
4.38915e-05
7.95069e-05
0.000138536
0.000235577
0.000393553
0.000647797
0.00105159
0.00168326
0.00265448
0.00411876
0.00627784
0.00938265
0.0137246
0.0196141
0.0273478
0.0371689
0.0492342
0.0635953
0.0801988
0.098901
0.11949
0.141711
0.165281
0.189911
0.215313
0.241213
0.267353
0.293495
0.319428
0.344968
0.369957
0.394266
0.417788
0.440438
0.462154
0.482892
0.502624
0.521341
0.539041
0.555738
0.571449
0.586203
0.60003
0.612967
0.625051
0.636324
0.646827
0.656602
0.665689
0.674131
0.681967
0.689235
0.695972
0.702211
0.707878
0.713073
0.71805
0.722665
0.726912
0.73091
0.734724
0.738357
0.741812
0.745091
0.748193
0.751115
0.753853
0.756402
0.758755
0.760894
0.762824
0.764527
0.76599
0.7672
0.768153
0.768855
0.769333
0.769634
0.769809
0.769905
0.769954
0.769978
0.76999
0.769995
0.769998
0.769999
0.77
0.77
0.77
0.77
0.77
0.77
0.77
0.77
0.77
0.77
0.77
2.25026e-06
9.83498e-06
2.25946e-05
4.39866e-05
7.96717e-05
0.000138809
0.000236012
0.000394225
0.000648804
0.00105305
0.00168531
0.00265725
0.00412233
0.0062822
0.00938762
0.0137298
0.019619
0.0273515
0.0371708
0.0492343
0.0635945
0.0801992
0.0989059
0.119504
0.141738
0.165329
0.189985
0.21542
0.241359
0.267541
0.293731
0.319717
0.345312
0.370358
0.394725
0.418305
0.441013
0.462784
0.483574
0.503355
0.522116
0.539857
0.556588
0.57233
0.587107
0.600954
0.613904
0.625997
0.637274
0.647775
0.657544
0.666621
0.675049
0.682867
0.690115
0.696831
0.703045
0.708678
0.713868
0.718826
0.723411
0.727589
0.731583
0.735384
0.738999
0.742433
0.745688
0.748763
0.751655
0.754361
0.756874
0.759188
0.761283
0.763169
0.764823
0.766235
0.767393
0.768295
0.768952
0.769395
0.76967
0.769829
0.769915
0.769959
0.769981
0.769991
0.769996
0.769998
0.769999
0.77
0.77
0.77
0.77
0.77
0.77
0.77
0.77
0.77
0.77
0.77
2.25434e-06
9.85265e-06
2.26343e-05
4.40617e-05
7.98028e-05
0.000139027
0.000236365
0.000394783
0.000649664
0.00105435
0.00168723
0.00266003
0.00412625
0.00628761
0.00939495
0.0137395
0.0196317
0.027368
0.0371922
0.0492621
0.0636307
0.0802464
0.0989673
0.119583
0.14184
0.165457
0.190145
0.215617
0.241595
0.267822
0.294059
0.320094
0.345741
0.370839
0.395257
0.418888
0.441646
0.463463
0.484297
0.504118
0.522914
0.540686
0.557443
0.573206
0.588
0.601858
0.614815
0.62691
0.638184
0.648679
0.658437
0.667499
0.675908
0.683704
0.690925
0.697609
0.703801
0.709348
0.714646
0.719554
0.724098
0.728227
0.732197
0.735978
0.739574
0.742988
0.746221
0.749271
0.752136
0.754811
0.757291
0.759569
0.761631
0.763477
0.765086
0.76645
0.76756
0.768417
0.769035
0.769447
0.7697
0.769845
0.769923
0.769963
0.769982
0.769992
0.769996
0.769998
0.769999
0.77
0.77
0.77
0.77
0.77
0.77
0.77
0.77
0.77
0.77
0.77
2.25783e-06
9.86776e-06
2.26685e-05
4.41266e-05
7.9917e-05
0.00013922
0.000236681
0.00039529
0.000650466
0.0010556
0.00168915
0.00266293
0.00413059
0.006294
0.00940422
0.0137528
0.0196503
0.0273937
0.037227
0.0493083
0.0636912
0.0803241
0.0990655
0.119706
0.14199
0.165639
0.190361
0.215871
0.241891
0.268162
0.294444
0.320526
0.346219
0.371364
0.395829
0.419504
0.442303
0.46416
0.485028
0.504881
0.523706
0.541501
0.558277
0.574054
0.588858
0.602721
0.61568
0.627772
0.639039
0.649524
0.659269
0.668316
0.676706
0.684483
0.691684
0.698349
0.704481
0.710005
0.715291
0.720178
0.724697
0.7288
0.73275
0.736512
0.740089
0.743483
0.746693
0.749719
0.752558
0.755203
0.757652
0.759894
0.761919
0.763722
0.765296
0.766625
0.767699
0.768519
0.769104
0.769489
0.769725
0.769858
0.76993
0.769966
0.769984
0.769993
0.769997
0.769999
0.769999
0.77
0.77
0.77
0.77
0.77
0.77
0.77
0.77
0.77
0.77
0.77
2.26104e-06
9.88166e-06
2.27e-05
4.41869e-05
8.00242e-05
0.000139403
0.000236986
0.000395789
0.000651273
0.00105689
0.00169119
0.00266611
0.00413548
0.00630143
0.00941531
0.013769
0.0196736
0.0274262
0.0372714
0.0493674
0.0637681
0.0804219
0.0991875
0.119855
0.14217
0.165852
0.190611
0.21616
0.24222
0.268532
0.294858
0.320982
0.346718
0.371905
0.396409
0.420123
0.442957
0.464846
0.485744
0.505622
0.524467
0.542279
0.559068
0.574854
0.589663
0.603527
0.616483
0.628569
0.639827
0.650299
0.660028
0.669057
0.677428
0.685182
0.692359
0.698998
0.705081
0.710577
0.71584
0.720705
0.725202
0.729292
0.73323
0.736979
0.74054
0.743917
0.747108
0.750112
0.752926
0.755544
0.757961
0.760168
0.762155
0.763925
0.765464
0.766761
0.76781
0.768603
0.769161
0.769525
0.769745
0.769869
0.769935
0.769969
0.769985
0.769993
0.769997
0.769999
0.769999
0.77
0.77
0.77
0.77
0.77
0.77
0.77
0.77
0.77
0.77
0.77
2.26408e-06
9.89492e-06
2.27302e-05
4.4245e-05
8.01282e-05
0.000139582
0.000237287
0.00039629
0.000652094
0.00105822
0.00169333
0.0026695
0.00414079
0.00630959
0.00942764
0.0137872
0.0196999
0.0274631
0.0373217
0.0494344
0.0638547
0.0805314
0.0993228
0.120019
0.142365
0.166081
0.190876
0.216462
0.242561
0.268913
0.295278
0.321441
0.347215
0.372438
0.396977
0.420723
0.443587
0.465502
0.486422
0.50632
0.525181
0.543005
0.559802
0.575593
0.590403
0.604265
0.617215
0.629292
0.640539
0.650998
0.660711
0.669723
0.678074
0.685808
0.692963
0.69958
0.70564
0.71111
0.716345
0.721179
0.725647
0.72973
0.733656
0.73739
0.740936
0.744296
0.747469
0.750453
0.753244
0.755838
0.758229
0.760412
0.762384
0.764129
0.765639
0.766901
0.76791
0.768675
0.76921
0.769555
0.769762
0.769878
0.76994
0.769971
0.769986
0.769994
0.769997
0.769999
0.769999
0.77
0.77
0.77
0.77
0.77
0.77
0.77
0.77
0.77
0.77
0.77
2.26701e-06
9.90765e-06
2.27593e-05
4.43013e-05
8.02295e-05
0.000139758
0.000237586
0.000396789
0.00065292
0.00105958
0.00169551
0.002673
0.0041463
0.00631814
0.0094406
0.0138064
0.0197276
0.027502
0.0373748
0.0495046
0.0639452
0.0806451
0.0994625
0.120187
0.142564
0.166312
0.191141
0.216763
0.242897
0.269285
0.295685
0.321883
0.347691
0.372946
0.397514
0.421287
0.444175
0.466111
0.48705
0.506962
0.525834
0.543666
0.560469
0.576261
0.591069
0.604927
0.61787
0.629938
0.641173
0.651617
0.661315
0.670309
0.678642
0.686356
0.693491
0.700085
0.706116
0.711558
0.716768
0.72158
0.726026
0.730107
0.734024
0.737746
0.741278
0.744622
0.747776
0.75074
0.753511
0.756087
0.758462
0.76063
0.762579
0.7643
0.765783
0.767019
0.768001
0.768736
0.76925
0.76958
0.769776
0.769886
0.769944
0.769973
0.769987
0.769994
0.769997
0.769999
0.769999
0.77
0.77
0.77
0.77
0.77
0.77
0.77
0.77
0.77
0.77
0.77
2.26977e-06
9.91971e-06
2.27869e-05
4.43548e-05
8.03262e-05
0.000139926
0.000237873
0.000397273
0.000653725
0.0010609
0.00169767
0.00267646
0.00415178
0.00632665
0.00945353
0.0138256
0.0197553
0.0275408
0.0374275
0.0495742
0.0640345
0.0807568
0.099599
0.120351
0.142756
0.166535
0.191395
0.217048
0.243215
0.269635
0.296066
0.322295
0.348131
0.373413
0.398006
0.421801
0.444709
0.466662
0.487615
0.507538
0.526419
0.544256
0.56106
0.576852
0.591657
0.605509
0.618444
0.630502
0.641725
0.652156
0.661839
0.670817
0.679133
0.686829
0.693944
0.700516
0.706521
0.711945
0.717139
0.721931
0.726355
0.730433
0.734339
0.73805
0.741569
0.744898
0.74804
0.750992
0.753752
0.756314
0.758671
0.760818
0.762745
0.764444
0.765904
0.767117
0.768076
0.76879
0.769283
0.7696
0.769788
0.769892
0.769947
0.769975
0.769988
0.769995
0.769998
0.769999
0.77
0.77
0.77
0.77
0.77
0.77
0.77
0.77
0.77
0.77
0.77
0.77
2.27232e-06
9.9308e-06
2.28123e-05
4.44042e-05
8.04158e-05
0.000140083
0.000238141
0.000397725
0.00065448
0.00106215
0.00169971
0.00267974
0.00415697
0.00633471
0.0094658
0.0138438
0.0197815
0.0275775
0.0374773
0.0496397
0.0641183
0.0808612
0.0997261
0.120502
0.142934
0.16674
0.191628
0.217309
0.243504
0.269951
0.29641
0.322664
0.348524
0.373829
0.398442
0.422256
0.44518
0.467146
0.48811
0.508041
0.526927
0.544767
0.561572
0.577362
0.592163
0.606009
0.618936
0.630985
0.642197
0.652616
0.662285
0.671249
0.679549
0.687227
0.694325
0.700882
0.706869
0.712277
0.717454
0.722231
0.726623
0.730704
0.734603
0.738305
0.741815
0.745137
0.748269
0.751209
0.753955
0.756502
0.758843
0.760973
0.762882
0.764562
0.766004
0.767197
0.768137
0.768834
0.769312
0.769617
0.769797
0.769897
0.76995
0.769976
0.769989
0.769995
0.769998
0.769999
0.77
0.77
0.77
0.77
0.77
0.77
0.77
0.77
0.77
0.77
0.77
0.77
2.27456e-06
9.94059e-06
2.28347e-05
4.44479e-05
8.04951e-05
0.000140222
0.00023838
0.000398129
0.000655156
0.00106327
0.00170153
0.00268268
0.00416163
0.00634196
0.00947682
0.0138601
0.019805
0.0276103
0.0375218
0.0496982
0.0641929
0.080954
0.0998388
0.120636
0.14309
0.166919
0.191831
0.217536
0.243755
0.270226
0.296707
0.322982
0.348862
0.374185
0.398815
0.422643
0.44558
0.467557
0.488528
0.508465
0.527355
0.545196
0.562001
0.577788
0.592585
0.606425
0.619345
0.631385
0.642587
0.652996
0.662653
0.671604
0.67989
0.687554
0.69464
0.701186
0.707155
0.712549
0.717712
0.722475
0.726839
0.730925
0.734817
0.738513
0.742017
0.745331
0.748454
0.751384
0.754119
0.756653
0.758982
0.761097
0.762992
0.764658
0.766084
0.767261
0.768186
0.768868
0.769335
0.769631
0.769804
0.769901
0.769951
0.769977
0.769989
0.769995
0.769998
0.769999
0.77
0.77
0.77
0.77
0.77
0.77
0.77
0.77
0.77
0.77
0.77
0.77
2.27643e-06
9.94876e-06
2.28535e-05
4.44845e-05
8.05615e-05
0.000140338
0.00023858
0.000398468
0.000655723
0.00106421
0.00170307
0.00268516
0.00416557
0.00634808
0.00948612
0.0138739
0.0198248
0.027638
0.0375592
0.0497472
0.0642555
0.0810316
0.0999329
0.120748
0.143221
0.167069
0.192
0.217725
0.243963
0.270452
0.296951
0.323243
0.349139
0.374476
0.399119
0.422959
0.445904
0.467889
0.488866
0.508808
0.527699
0.545542
0.562345
0.57813
0.592923
0.606758
0.619672
0.631704
0.642898
0.653297
0.662944
0.671884
0.680161
0.687817
0.694893
0.701428
0.707383
0.712765
0.717917
0.722668
0.727008
0.7311
0.734987
0.738678
0.742176
0.745483
0.748598
0.75152
0.754246
0.756771
0.75909
0.761195
0.763079
0.764732
0.766146
0.767311
0.768224
0.768895
0.769352
0.769641
0.769811
0.769904
0.769953
0.769978
0.769989
0.769995
0.769998
0.769999
0.77
0.77
0.77
0.77
0.77
0.77
0.77
0.77
0.77
0.77
0.77
0.77
2.27787e-06
9.95506e-06
2.28679e-05
4.45126e-05
8.06126e-05
0.000140428
0.000238734
0.000398729
0.000656162
0.00106493
0.00170426
0.00268708
0.00416861
0.00635282
0.00949332
0.0138846
0.0198402
0.0276594
0.0375881
0.0497852
0.0643038
0.0810916
0.100006
0.120834
0.143321
0.167183
0.19213
0.217869
0.244122
0.270625
0.297137
0.323442
0.34935
0.374697
0.39935
0.423198
0.44615
0.46814
0.489122
0.509066
0.527959
0.545802
0.562604
0.578387
0.593177
0.607007
0.619916
0.631942
0.643129
0.653521
0.663162
0.672096
0.680366
0.688014
0.695081
0.701606
0.707552
0.712924
0.718068
0.722811
0.727133
0.731228
0.735112
0.738799
0.742293
0.745595
0.748705
0.751621
0.75434
0.756858
0.759169
0.761266
0.763142
0.764787
0.766192
0.767347
0.768251
0.768914
0.769365
0.769649
0.769815
0.769906
0.769954
0.769978
0.76999
0.769995
0.769998
0.769999
0.77
0.77
0.77
0.77
0.77
0.77
0.77
0.77
0.77
0.77
0.77
0.77
2.27885e-06
9.9593e-06
2.28777e-05
4.45315e-05
8.0647e-05
0.000140488
0.000238838
0.000398905
0.000656456
0.00106542
0.00170506
0.00268837
0.00417066
0.006356
0.00949817
0.0138917
0.0198505
0.0276738
0.0376077
0.0498109
0.0643365
0.0811322
0.100055
0.120893
0.143389
0.167261
0.192217
0.217967
0.244229
0.270742
0.297263
0.323576
0.349492
0.374846
0.399505
0.423358
0.446315
0.468309
0.489293
0.509238
0.528133
0.545975
0.562776
0.578557
0.593345
0.607173
0.620078
0.632101
0.643284
0.653672
0.663309
0.672237
0.680502
0.688144
0.695206
0.701726
0.707664
0.713032
0.71817
0.722908
0.727219
0.731311
0.735193
0.738878
0.742369
0.745668
0.748775
0.751687
0.754402
0.756916
0.759222
0.761314
0.763184
0.764823
0.766222
0.767371
0.768269
0.768926
0.769373
0.769654
0.769818
0.769908
0.769955
0.769978
0.76999
0.769995
0.769998
0.769999
0.77
0.77
0.77
0.77
0.77
0.77
0.77
0.77
0.77
0.77
0.77
0.77
2.27933e-06
9.96141e-06
2.28825e-05
4.45408e-05
8.06639e-05
0.000140518
0.000238888
0.00039899
0.000656598
0.00106565
0.00170544
0.00268899
0.00417164
0.00635753
0.00950049
0.0138952
0.0198555
0.0276808
0.0376171
0.0498233
0.0643524
0.0811519
0.100079
0.120921
0.143422
0.167299
0.19226
0.218015
0.244282
0.270799
0.297325
0.323643
0.349562
0.37492
0.399582
0.423438
0.446397
0.468392
0.489378
0.509324
0.528219
0.546061
0.562862
0.578643
0.593429
0.607256
0.620159
0.63218
0.643362
0.653747
0.663381
0.672307
0.680569
0.688209
0.695268
0.701785
0.70772
0.713085
0.718221
0.722956
0.727262
0.731352
0.735233
0.738917
0.742407
0.745705
0.748809
0.75172
0.754433
0.756944
0.759247
0.761337
0.763204
0.76484
0.766236
0.767382
0.768277
0.768932
0.769377
0.769656
0.769819
0.769908
0.769955
0.769979
0.76999
0.769995
0.769998
0.769999
0.77
0.77
0.77
0.77
0.77
0.77
0.77
0.77
0.77
0.77
0.77
0.77
2.27935e-06
9.9615e-06
2.28827e-05
4.45413e-05
8.06646e-05
0.000140519
0.000238891
0.000398994
0.000656604
0.00106567
0.00170546
0.00268902
0.00417168
0.00635759
0.00950058
0.0138953
0.0198557
0.0276811
0.0376175
0.0498237
0.0643529
0.0811525
0.100079
0.120922
0.143423
0.1673
0.192261
0.218016
0.244283
0.2708
0.297326
0.323644
0.349563
0.374921
0.399583
0.423439
0.446398
0.468393
0.489379
0.509325
0.52822
0.546062
0.562863
0.578643
0.59343
0.607256
0.62016
0.632181
0.643362
0.653748
0.663382
0.672308
0.680569
0.688209
0.695268
0.701786
0.70772
0.713085
0.718221
0.722956
0.727262
0.731353
0.735234
0.738917
0.742407
0.745705
0.748809
0.75172
0.754433
0.756944
0.759248
0.761337
0.763204
0.76484
0.766236
0.767382
0.768277
0.768932
0.769377
0.769656
0.769819
0.769908
0.769955
0.769979
0.76999
0.769995
0.769998
0.769999
0.77
0.77
0.77
0.77
0.77
0.77
0.77
0.77
0.77
0.77
0.77
0.77
2.27891e-06
9.95959e-06
2.28783e-05
4.45328e-05
8.06494e-05
0.000140493
0.000238845
0.000398917
0.000656476
0.00106545
0.00170511
0.00268846
0.00417079
0.0063562
0.00949846
0.0138922
0.0198511
0.0276746
0.0376087
0.0498121
0.064338
0.0811339
0.100057
0.120895
0.143391
0.167264
0.19222
0.217969
0.244232
0.270745
0.297266
0.323579
0.349495
0.374849
0.399508
0.423361
0.446318
0.468312
0.489295
0.509241
0.528135
0.545977
0.562779
0.578559
0.593347
0.607175
0.620079
0.632102
0.643286
0.653673
0.66331
0.672238
0.680503
0.688145
0.695206
0.701727
0.707665
0.713032
0.718171
0.722908
0.72722
0.731312
0.735194
0.738879
0.74237
0.745669
0.748775
0.751687
0.754402
0.756916
0.759222
0.761314
0.763184
0.764823
0.766222
0.767371
0.768269
0.768926
0.769373
0.769654
0.769818
0.769908
0.769955
0.769978
0.76999
0.769995
0.769998
0.769999
0.77
0.77
0.77
0.77
0.77
0.77
0.77
0.77
0.77
0.77
0.77
0.77
2.27799e-06
9.95556e-06
2.28691e-05
4.45149e-05
8.06168e-05
0.000140435
0.000238747
0.000398751
0.000656197
0.00106499
0.00170435
0.00268723
0.00416884
0.00635317
0.00949383
0.0138853
0.0198412
0.0276607
0.0375899
0.0497874
0.0643065
0.0810947
0.100009
0.120838
0.143325
0.167188
0.192134
0.217874
0.244127
0.27063
0.297142
0.323447
0.349355
0.374703
0.399355
0.423203
0.446155
0.468145
0.489126
0.50907
0.527963
0.545806
0.562608
0.57839
0.59318
0.607011
0.619919
0.631945
0.643132
0.653523
0.663164
0.672098
0.680367
0.688015
0.695082
0.701608
0.707553
0.712926
0.718069
0.722812
0.727134
0.731228
0.735112
0.738799
0.742293
0.745595
0.748705
0.751621
0.754341
0.756859
0.75917
0.761267
0.763142
0.764787
0.766192
0.767347
0.768251
0.768914
0.769365
0.769649
0.769815
0.769906
0.769954
0.769978
0.76999
0.769995
0.769998
0.769999
0.77
0.77
0.77
0.77
0.77
0.77
0.77
0.77
0.77
0.77
0.77
0.77
2.2766e-06
9.94949e-06
2.28552e-05
4.44877e-05
8.05675e-05
0.000140349
0.000238598
0.000398498
0.000655774
0.00106429
0.0017032
0.00268537
0.00416589
0.00634857
0.00948684
0.0138749
0.0198262
0.0276399
0.0375616
0.0497503
0.0642591
0.0810359
0.0999378
0.120754
0.143227
0.167075
0.192007
0.217732
0.24397
0.270459
0.296958
0.32325
0.349146
0.374483
0.399127
0.422966
0.445911
0.467896
0.488873
0.508814
0.527705
0.545547
0.562351
0.578135
0.592928
0.606763
0.619676
0.631708
0.642902
0.6533
0.662947
0.671887
0.680164
0.68782
0.694895
0.70143
0.707384
0.712766
0.717918
0.72267
0.72701
0.731101
0.734988
0.738679
0.742177
0.745484
0.748599
0.751521
0.754247
0.756772
0.75909
0.761195
0.763079
0.764733
0.766146
0.767311
0.768224
0.768895
0.769352
0.769641
0.769811
0.769904
0.769953
0.769978
0.769989
0.769995
0.769998
0.769999
0.77
0.77
0.77
0.77
0.77
0.77
0.77
0.77
0.77
0.77
0.77
0.77
2.27478e-06
9.94154e-06
2.28369e-05
4.44522e-05
8.05029e-05
0.000140236
0.000238404
0.000398169
0.000655222
0.00106337
0.00170171
0.00268296
0.00416206
0.0063426
0.00947775
0.0138614
0.0198068
0.0276128
0.0375249
0.0497021
0.0641976
0.0809595
0.0998451
0.120643
0.143098
0.166928
0.19184
0.217546
0.243765
0.270235
0.296716
0.322992
0.348872
0.374194
0.398825
0.422653
0.445588
0.467565
0.488536
0.508473
0.527362
0.545204
0.562008
0.577795
0.592591
0.606431
0.619351
0.63139
0.642592
0.653
0.662657
0.671607
0.679893
0.687557
0.694643
0.701189
0.707157
0.712551
0.717714
0.722476
0.72684
0.730927
0.734819
0.738515
0.742019
0.745332
0.748455
0.751385
0.754119
0.756654
0.758982
0.761098
0.762993
0.764658
0.766084
0.767261
0.768186
0.768868
0.769335
0.769631
0.769805
0.769901
0.769951
0.769977
0.769989
0.769995
0.769998
0.769999
0.77
0.77
0.77
0.77
0.77
0.77
0.77
0.77
0.77
0.77
0.77
0.77
2.27259e-06
9.93198e-06
2.2815e-05
4.44096e-05
8.04255e-05
0.0001401
0.000238171
0.000397775
0.000654562
0.00106228
0.00169992
0.00268008
0.00415749
0.0063355
0.00946695
0.0138454
0.0197837
0.0275805
0.0374811
0.0496445
0.0641241
0.080868
0.0997339
0.120511
0.142944
0.16675
0.191639
0.21732
0.243516
0.269963
0.296422
0.322676
0.348536
0.37384
0.398454
0.422267
0.44519
0.467157
0.48812
0.508051
0.526936
0.544776
0.56158
0.57737
0.59217
0.606016
0.618943
0.630991
0.642202
0.652621
0.66229
0.671253
0.679554
0.687232
0.694329
0.700886
0.706872
0.71228
0.717457
0.722233
0.726625
0.730706
0.734604
0.738307
0.741817
0.745139
0.74827
0.75121
0.753956
0.756502
0.758844
0.760973
0.762883
0.764563
0.766004
0.767197
0.768138
0.768834
0.769313
0.769617
0.769797
0.769897
0.76995
0.769976
0.769989
0.769995
0.769998
0.769999
0.77
0.77
0.77
0.77
0.77
0.77
0.77
0.77
0.77
0.77
0.77
0.77
2.2701e-06
9.92114e-06
2.27902e-05
4.43612e-05
8.03379e-05
0.000139947
0.000237909
0.000397332
0.000653823
0.00106106
0.00169793
0.00267687
0.0041524
0.00632758
0.0094549
0.0138276
0.019758
0.0275444
0.0374321
0.0495799
0.0640414
0.0807649
0.0996082
0.120361
0.142768
0.166547
0.191408
0.217062
0.243229
0.269649
0.296081
0.322309
0.348145
0.373427
0.39802
0.421815
0.444722
0.466675
0.487627
0.50755
0.52643
0.544266
0.56107
0.576861
0.591666
0.605517
0.618452
0.630509
0.641732
0.652163
0.661845
0.670823
0.679138
0.686833
0.693948
0.70052
0.706525
0.711948
0.717142
0.721934
0.726357
0.730436
0.734341
0.738052
0.741571
0.7449
0.748041
0.750993
0.753753
0.756315
0.758672
0.760819
0.762746
0.764444
0.765905
0.767117
0.768077
0.76879
0.769284
0.769601
0.769788
0.769892
0.769947
0.769975
0.769988
0.769995
0.769998
0.769999
0.77
0.77
0.77
0.77
0.77
0.77
0.77
0.77
0.77
0.77
0.77
0.77
2.26739e-06
9.90933e-06
2.27631e-05
4.43089e-05
8.02433e-05
0.000139782
0.000237627
0.000396858
0.000653034
0.00105976
0.00169581
0.00267347
0.00414703
0.00631922
0.00944219
0.0138087
0.0197307
0.0275062
0.0373801
0.0495112
0.0639532
0.0806544
0.0994731
0.120199
0.142577
0.166326
0.191156
0.216778
0.242913
0.269301
0.295702
0.3219
0.347707
0.372962
0.39753
0.421302
0.44419
0.466126
0.487064
0.506976
0.525847
0.543679
0.56048
0.576272
0.59108
0.604937
0.617879
0.629946
0.641181
0.651625
0.661322
0.670316
0.678648
0.686362
0.693496
0.70009
0.70612
0.711562
0.716771
0.721583
0.726029
0.73011
0.734026
0.737748
0.741281
0.744624
0.747778
0.750742
0.753512
0.756088
0.758463
0.760631
0.76258
0.764301
0.765784
0.767019
0.768002
0.768736
0.769251
0.76958
0.769776
0.769886
0.769944
0.769973
0.769987
0.769994
0.769997
0.769999
0.769999
0.77
0.77
0.77
0.77
0.77
0.77
0.77
0.77
0.77
0.77
0.77
2.26453e-06
9.89687e-06
2.27347e-05
4.42538e-05
8.01442e-05
0.00013961
0.000237335
0.00039637
0.000652227
0.00105844
0.00169367
0.00267004
0.00414162
0.00631084
0.00942946
0.0137898
0.0197034
0.0274678
0.0373278
0.0494419
0.0638638
0.080542
0.0993349
0.120033
0.14238
0.166097
0.190893
0.21648
0.242579
0.268931
0.295296
0.32146
0.347234
0.372457
0.396996
0.420741
0.443604
0.465519
0.486439
0.506335
0.525196
0.543019
0.559816
0.575606
0.590415
0.604276
0.617225
0.629302
0.640549
0.651007
0.66072
0.66973
0.678082
0.685815
0.69297
0.699586
0.705646
0.711115
0.716349
0.721183
0.725651
0.729733
0.733659
0.737393
0.740939
0.744298
0.747471
0.750455
0.753246
0.755839
0.758231
0.760413
0.762385
0.76413
0.765639
0.766902
0.767911
0.768676
0.76921
0.769555
0.769762
0.769878
0.76994
0.769971
0.769986
0.769994
0.769997
0.769999
0.769999
0.77
0.77
0.77
0.77
0.77
0.77
0.77
0.77
0.77
0.77
0.77
2.26155e-06
9.88389e-06
2.27051e-05
4.41969e-05
8.00424e-05
0.000139435
0.00023704
0.00039588
0.000651424
0.00105714
0.00169158
0.00266672
0.00413643
0.00630284
0.00941737
0.0137719
0.0196776
0.0274316
0.0372782
0.049376
0.0637783
0.080434
0.0992012
0.11987
0.142187
0.16587
0.19063
0.21618
0.242241
0.268553
0.294879
0.321004
0.346739
0.371926
0.39643
0.420143
0.442977
0.464865
0.485762
0.505639
0.524484
0.542295
0.559083
0.574868
0.589677
0.60354
0.616495
0.62858
0.639837
0.650309
0.660038
0.669066
0.677437
0.68519
0.692367
0.699005
0.705087
0.710582
0.715844
0.720709
0.725206
0.729296
0.733234
0.736982
0.740543
0.74392
0.747111
0.750115
0.752928
0.755546
0.757963
0.760169
0.762157
0.763926
0.765465
0.766762
0.767811
0.768603
0.769161
0.769525
0.769745
0.769869
0.769935
0.769969
0.769985
0.769993
0.769997
0.769999
0.769999
0.77
0.77
0.77
0.77
0.77
0.77
0.77
0.77
0.77
0.77
0.77
2.25841e-06
9.87029e-06
2.26743e-05
4.41379e-05
7.99375e-05
0.000139256
0.000236742
0.000395393
0.000650636
0.00105588
0.00168959
0.00266362
0.00413165
0.00629559
0.00940654
0.013756
0.0196549
0.0273997
0.0372347
0.0493179
0.0637027
0.0803376
0.0990809
0.119723
0.142009
0.165659
0.190383
0.215894
0.241914
0.268185
0.294468
0.32055
0.346243
0.371388
0.395852
0.419526
0.442325
0.464181
0.485049
0.504901
0.523724
0.541518
0.558294
0.57407
0.588873
0.602736
0.615693
0.627785
0.639051
0.649535
0.659279
0.668325
0.676715
0.68449
0.691691
0.698355
0.704486
0.71001
0.715295
0.720181
0.724702
0.728804
0.732754
0.736516
0.740093
0.743487
0.746697
0.749722
0.75256
0.755206
0.757654
0.759896
0.761921
0.763723
0.765297
0.766626
0.7677
0.76852
0.769104
0.76949
0.769725
0.769858
0.76993
0.769966
0.769984
0.769993
0.769997
0.769999
0.769999
0.77
0.77
0.77
0.77
0.77
0.77
0.77
0.77
0.77
0.77
0.77
2.25499e-06
9.85548e-06
2.26409e-05
4.40744e-05
7.98259e-05
0.000139068
0.000236434
0.000394897
0.000649854
0.00105466
0.00168772
0.0026608
0.00412743
0.00628938
0.00939752
0.0137432
0.0196368
0.0273747
0.0372007
0.0492727
0.0636435
0.0802614
0.0989843
0.119602
0.141861
0.165479
0.190169
0.215641
0.241621
0.267848
0.294086
0.320121
0.345767
0.370865
0.395283
0.418914
0.44167
0.463487
0.484319
0.50414
0.522935
0.540706
0.557462
0.573224
0.588017
0.601874
0.61483
0.626924
0.638197
0.648691
0.658448
0.66751
0.675918
0.683714
0.690935
0.697618
0.70381
0.709356
0.714654
0.719562
0.724105
0.728231
0.7322
0.73598
0.739576
0.742991
0.746223
0.749273
0.752138
0.754813
0.757293
0.759571
0.761632
0.763479
0.765087
0.766451
0.767561
0.768418
0.769035
0.769447
0.7697
0.769845
0.769923
0.769963
0.769982
0.769992
0.769996
0.769998
0.769999
0.77
0.77
0.77
0.77
0.77
0.77
0.77
0.77
0.77
0.77
0.77
2.25098e-06
9.83814e-06
2.26019e-05
4.40007e-05
7.96973e-05
0.000138853
0.000236088
0.000394352
0.000649014
0.00105339
0.00168586
0.0026581
0.00412363
0.00628415
0.00939047
0.0137338
0.0196245
0.0273588
0.0371802
0.049246
0.0636087
0.0802158
0.0989247
0.119525
0.141761
0.165353
0.190011
0.215448
0.241387
0.26757
0.29376
0.319746
0.345341
0.370387
0.394753
0.418332
0.44104
0.46281
0.483599
0.503379
0.522139
0.539879
0.556609
0.572349
0.587126
0.600971
0.61392
0.626012
0.637287
0.647788
0.657555
0.666632
0.675058
0.682875
0.690122
0.696837
0.703051
0.708683
0.713873
0.718832
0.723416
0.727593
0.731588
0.735388
0.739003
0.742437
0.745691
0.748766
0.751658
0.754364
0.756877
0.75919
0.761285
0.76317
0.764824
0.766236
0.767394
0.768296
0.768953
0.769395
0.76967
0.769829
0.769915