/*--------------------------------*- C++ -*----------------------------------*\
  =========                 |
  \\      /  F ield         | OpenFOAM: The Open Source CFD Toolbox
   \\    /   O peration     | Website:  https://openfoam.org
    \\  /    A nd           | Version:  8
     \\/     M anipulation  |
\*---------------------------------------------------------------------------*/
FoamFile
{
    version     2.0;
    format      ascii;
    class       volScalarField;
    location    "400/fluid";
    object      O2;
}
// * * * * * * * * * * * * * * * * * * * * * * * * * * * * * * * * * * * * * //

dimensions      [0 0 0 0 0 0 0];

internalField   nonuniform List<scalar> 
4000
(
4.26075e-10
1.85991e-09
4.26175e-09
8.26488e-09
1.48977e-08
2.58116e-08
4.36225e-08
7.24094e-08
1.18413e-07
1.9097e-07
3.03668e-07
4.75628e-07
7.32656e-07
1.10778e-06
1.64044e-06
2.3737e-06
3.34897e-06
4.59981e-06
6.12749e-06
7.93903e-06
1.0013e-05
1.23063e-05
1.47623e-05
1.73182e-05
1.99102e-05
2.24769e-05
2.4962e-05
2.73163e-05
2.94981e-05
3.14743e-05
3.32211e-05
3.47273e-05
3.59989e-05
3.70682e-05
3.8006e-05
3.89362e-05
4.00499e-05
4.16184e-05
4.40072e-05
4.7637e-05
5.30791e-05
6.11227e-05
7.26875e-05
8.89582e-05
0.000111465
0.00014219
0.000183709
0.000239383
0.000313599
0.000412087
0.000542323
0.000714059
0.000940003
0.00123671
0.00162573
0.00213518
0.00280178
0.0036736
0.00478755
0.00624059
0.00818993
0.0107457
0.0140954
0.0274248
0.0438643
0.0604496
0.0769322
0.0931143
0.108838
0.123976
0.138421
0.152083
0.16488
0.176727
0.187556
0.19727
0.205763
0.212936
0.218698
0.223021
0.225999
0.227865
0.22893
0.229489
0.229763
0.229893
0.229953
0.229979
0.229991
0.229996
0.229998
0.229999
0.23
0.23
0.23
0.23
0.23
0.23
0.23
0.23
4.35789e-10
1.90371e-09
4.36793e-09
8.48583e-09
1.53271e-08
2.66114e-08
4.50642e-08
7.49321e-08
1.22702e-07
1.98056e-07
3.15035e-07
4.93295e-07
7.59238e-07
1.14652e-06
1.6952e-06
2.44868e-06
3.4469e-06
4.71269e-06
6.27497e-06
8.13605e-06
1.02653e-05
1.26181e-05
1.51385e-05
1.77635e-05
2.04282e-05
2.30701e-05
2.56312e-05
2.80603e-05
3.03144e-05
3.23588e-05
3.41692e-05
3.57333e-05
3.70576e-05
3.81767e-05
3.91676e-05
4.01584e-05
4.13457e-05
4.29884e-05
4.54548e-05
4.92499e-05
5.50549e-05
6.35479e-05
7.56849e-05
9.26864e-05
0.000116122
0.000148023
0.000191029
0.000248584
0.000325186
0.00042671
0.000560821
0.000737513
0.000969793
0.00127457
0.00167383
0.00219607
0.00287832
0.00376866
0.00490373
0.00638225
0.00835465
0.0109276
0.0142726
0.0291337
0.0455902
0.0622364
0.0787884
0.0950336
0.110808
0.125981
0.140444
0.154106
0.166878
0.178645
0.189389
0.198968
0.207277
0.21421
0.219691
0.223721
0.226437
0.228107
0.229049
0.229543
0.229786
0.229902
0.229956
0.229981
0.229992
0.229996
0.229998
0.229999
0.23
0.23
0.23
0.23
0.23
0.23
0.23
0.23
4.5034e-10
1.96813e-09
4.51934e-09
8.78876e-09
1.58908e-08
2.76159e-08
4.67977e-08
7.78407e-08
1.2745e-07
2.05584e-07
3.26612e-07
5.10602e-07
7.84389e-07
1.18202e-06
1.74396e-06
2.51456e-06
3.53865e-06
4.8425e-06
6.46355e-06
8.38349e-06
1.05791e-05
1.30082e-05
1.56152e-05
1.83364e-05
2.11058e-05
2.38586e-05
2.65345e-05
2.90796e-05
3.14481e-05
3.36044e-05
3.5524e-05
3.71907e-05
3.86074e-05
3.98091e-05
4.08664e-05
4.1896e-05
4.31299e-05
4.48846e-05
4.76423e-05
5.19056e-05
5.82232e-05
6.73923e-05
8.04135e-05
9.85583e-05
0.000123458
0.000157226
0.000202608
0.000263197
0.00034369
0.000450238
0.000590884
0.000776139
0.00101972
0.00133952
0.00175881
0.00230782
0.00302572
0.00396263
0.00514815
0.00672831
0.00877512
0.0114105
0.0147273
0.0312055
0.048045
0.0649376
0.0816443
0.0979774
0.113787
0.12895
0.143363
0.156932
0.169571
0.181137
0.191654
0.200955
0.208938
0.215515
0.220636
0.224341
0.226804
0.228303
0.229146
0.229587
0.229806
0.229911
0.22996
0.229982
0.229992
0.229997
0.229999
0.229999
0.23
0.23
0.23
0.23
0.23
0.23
0.23
0.23
4.64689e-10
2.03096e-09
4.66421e-09
9.07186e-09
1.64048e-08
2.8511e-08
4.83134e-08
8.03529e-08
1.31541e-07
2.12146e-07
3.37e-07
5.2682e-07
8.09356e-07
1.21988e-06
1.80034e-06
2.59622e-06
3.64865e-06
4.99878e-06
6.66498e-06
8.64414e-06
1.09133e-05
1.34301e-05
1.61385e-05
1.89738e-05
2.1869e-05
2.47567e-05
2.75732e-05
3.02603e-05
3.27669e-05
3.50534e-05
3.70887e-05
3.88546e-05
4.03387e-05
4.15927e-05
4.27083e-05
4.38503e-05
4.53255e-05
4.74583e-05
5.05934e-05
5.52842e-05
6.22037e-05
7.21873e-05
8.62809e-05
0.000105812
0.000132483
0.000168499
0.000216739
0.000280969
0.000366133
0.000478729
0.000627294
0.000823062
0.00108081
0.00142003
0.00186643
0.00245402
0.00322796
0.00424143
0.0055577
0.0073439
0.00970744
0.0128487
0.0169726
0.0339607
0.0511293
0.068227
0.0850458
0.101418
0.117207
0.132298
0.146591
0.159996
0.172427
0.183749
0.193977
0.202952
0.210582
0.216793
0.221558
0.224951
0.227171
0.228505
0.229249
0.229637
0.229829
0.229921
0.229965
0.229984
0.229993
0.229997
0.229999
0.229999
0.23
0.23
0.23
0.23
0.23
0.23
0.23
0.23
4.78317e-10
2.09052e-09
4.80107e-09
9.33843e-09
1.68877e-08
2.93519e-08
4.974e-08
8.27249e-08
1.35414e-07
2.18355e-07
3.46753e-07
5.41777e-07
8.31716e-07
1.25254e-06
1.84724e-06
2.66362e-06
3.75224e-06
5.15164e-06
6.87416e-06
8.92218e-06
1.12744e-05
1.38892e-05
1.67093e-05
1.96683e-05
2.2695e-05
2.57204e-05
2.86779e-05
3.15045e-05
3.41359e-05
3.65363e-05
3.86751e-05
4.05342e-05
4.21264e-05
4.3564e-05
4.49262e-05
4.63884e-05
4.81242e-05
5.05078e-05
5.40097e-05
5.92147e-05
6.6838e-05
7.77586e-05
9.30712e-05
0.00011416
0.000142798
0.000181283
0.000232613
0.000300714
0.000390745
0.000509487
0.000665873
0.000871678
0.00114245
0.00149879
0.00196802
0.00258659
0.00340335
0.00447049
0.00586363
0.00777622
0.0103382
0.0138016
0.0201652
0.0373647
0.0546812
0.0718578
0.0886958
0.105034
0.120741
0.135706
0.14983
0.163025
0.175208
0.186288
0.196197
0.204829
0.212101
0.217952
0.222379
0.225483
0.227486
0.228677
0.229335
0.229679
0.229848
0.22993
0.229968
0.229986
0.229994
0.229997
0.229999
0.23
0.23
0.23
0.23
0.23
0.23
0.23
0.23
0.23
4.91059e-10
2.14614e-09
4.9287e-09
9.58665e-09
1.73371e-08
3.01349e-08
5.1072e-08
8.49519e-08
1.39084e-07
2.24322e-07
3.56328e-07
5.56928e-07
8.5529e-07
1.28841e-06
1.90023e-06
2.7387e-06
3.85065e-06
5.2903e-06
7.06791e-06
9.18561e-06
1.16227e-05
1.43372e-05
1.72709e-05
2.03553e-05
2.35167e-05
2.66808e-05
2.97752e-05
3.27319e-05
3.54897e-05
3.80757e-05
4.04426e-05
4.25741e-05
4.44922e-05
4.61613e-05
4.77035e-05
4.931e-05
5.12614e-05
5.39513e-05
5.78867e-05
6.36921e-05
7.21251e-05
8.41099e-05
0.00010079
0.000123608
0.000154409
0.000195578
0.000250223
0.000322408
0.000417459
0.000542358
0.000706272
0.000921239
0.00120309
0.00157267
0.00205745
0.00269378
0.00352975
0.00461327
0.00601674
0.00792066
0.0104304
0.013745
0.0240186
0.041167
0.0584472
0.0755813
0.0923551
0.1086
0.124182
0.138987
0.15292
0.165892
0.177813
0.188624
0.198227
0.206533
0.213469
0.218986
0.223105
0.225951
0.227763
0.228828
0.229413
0.229716
0.229866
0.229938
0.229972
0.229988
0.229995
0.229998
0.229999
0.23
0.23
0.23
0.23
0.23
0.23
0.23
0.23
0.23
5.03212e-10
2.19922e-09
5.05061e-09
9.82417e-09
1.77683e-08
3.08893e-08
5.23623e-08
8.71245e-08
1.42695e-07
2.30254e-07
3.65954e-07
5.72343e-07
8.79604e-07
1.32607e-06
1.95726e-06
2.82262e-06
3.96948e-06
5.43465e-06
7.25424e-06
9.43093e-06
1.19446e-05
1.47543e-05
1.78029e-05
2.10232e-05
2.43439e-05
2.76949e-05
3.10118e-05
3.42415e-05
3.73494e-05
4.02117e-05
4.28064e-05
4.5122e-05
4.71679e-05
4.89916e-05
5.07092e-05
5.25255e-05
5.47503e-05
5.78138e-05
6.22644e-05
6.87703e-05
7.81348e-05
9.13303e-05
0.000109556
0.000134318
0.000167542
0.000211716
0.000270076
0.00034684
0.000447522
0.00057933
0.000751686
0.000976914
0.00127114
0.00165546
0.00215756
0.00281376
0.00367109
0.00477143
0.00619767
0.00812987
0.010675
0.0140258
0.0277232
0.0448126
0.0620411
0.0791138
0.0958058
0.111943
0.127389
0.14203
0.155772
0.168527
0.18018
0.190731
0.200048
0.208053
0.214678
0.21989
0.223731
0.226351
0.227997
0.228955
0.229478
0.229748
0.229881
0.229945
0.229975
0.229989
0.229995
0.229998
0.229999
0.23
0.23
0.23
0.23
0.23
0.23
0.23
0.23
0.23
5.14912e-10
2.25034e-09
5.16806e-09
1.00532e-08
1.81846e-08
3.16188e-08
5.36131e-08
8.92373e-08
1.46222e-07
2.3608e-07
3.75478e-07
5.87748e-07
9.04247e-07
1.36504e-06
2.01814e-06
2.91657e-06
4.1128e-06
5.65115e-06
7.55997e-06
9.84529e-06
1.24888e-05
1.54497e-05
1.86701e-05
2.20807e-05
2.56071e-05
2.91738e-05
3.27085e-05
3.61436e-05
3.94176e-05
4.24745e-05
4.52729e-05
4.77907e-05
5.00351e-05
5.20618e-05
5.40003e-05
5.60783e-05
5.86368e-05
6.21469e-05
6.72019e-05
7.45166e-05
8.49431e-05
9.95067e-05
0.000119468
0.000146413
0.000182364
0.000229938
0.000292534
0.000374585
0.000481872
0.000621943
0.000804651
0.00104285
0.00135331
0.00175792
0.00228523
0.0029725
0.00386617
0.00500689
0.00648198
0.00845669
0.011019
0.0142961
0.0308614
0.0479844
0.0652279
0.0822814
0.0989171
0.114963
0.130284
0.144772
0.158334
0.170888
0.182308
0.192617
0.201669
0.209394
0.215734
0.220672
0.224267
0.226689
0.228194
0.229062
0.229533
0.229774
0.229894
0.229951
0.229978
0.22999
0.229996
0.229998
0.229999
0.23
0.23
0.23
0.23
0.23
0.23
0.23
0.23
0.23
5.26275e-10
2.29999e-09
5.28223e-09
1.0276e-08
1.85901e-08
3.23305e-08
5.48356e-08
9.13063e-08
1.49683e-07
2.41804e-07
3.84839e-07
6.02876e-07
9.28365e-07
1.40291e-06
2.07658e-06
3.00502e-06
4.24379e-06
5.84045e-06
7.82628e-06
1.02098e-05
1.29744e-05
1.608e-05
1.94682e-05
2.30682e-05
2.68027e-05
3.0593e-05
3.43622e-05
3.80383e-05
4.15558e-05
4.48584e-05
4.79021e-05
5.06628e-05
5.31484e-05
5.54215e-05
5.76279e-05
6.00212e-05
6.29772e-05
6.70103e-05
7.27606e-05
8.09909e-05
9.2603e-05
0.000108678
0.000130545
0.000159876
0.000198809
0.000250113
0.000317388
0.000405334
0.000520092
0.000669688
0.000864624
0.00111863
0.00144969
0.00188132
0.0024443
0.0031789
0.00414067
0.00535607
0.00699291
0.00913242
0.0119258
0.0154968
0.0328656
0.0504187
0.0678765
0.0850125
0.101645
0.117628
0.132845
0.147196
0.160596
0.172971
0.184211
0.194307
0.203112
0.210573
0.216649
0.22134
0.22472
0.226972
0.228357
0.22915
0.229578
0.229796
0.229904
0.229956
0.22998
0.229991
0.229996
0.229998
0.229999
0.23
0.23
0.23
0.23
0.23
0.23
0.23
0.23
0.23
5.37332e-10
2.34832e-09
5.39342e-09
1.04932e-08
1.89858e-08
3.30261e-08
5.60327e-08
9.33366e-08
1.53086e-07
2.47447e-07
3.94094e-07
6.17867e-07
9.5232e-07
1.44059e-06
2.13482e-06
3.09324e-06
4.37447e-06
6.02942e-06
8.0926e-06
1.05754e-05
1.34633e-05
1.67173e-05
2.02791e-05
2.40769e-05
2.80318e-05
3.20621e-05
3.60878e-05
4.0033e-05
4.38285e-05
4.74138e-05
5.07418e-05
5.37858e-05
5.65553e-05
5.91207e-05
6.16463e-05
6.44141e-05
6.78363e-05
7.2472e-05
7.90069e-05
8.82503e-05
0.000101151
0.000118845
0.000142727
0.000174556
0.000216585
0.000271734
0.000343804
0.000437767
0.000560128
0.000719419
0.000926844
0.00119714
0.00154974
0.00201035
0.00261308
0.00340348
0.00443663
0.00576331
0.00757435
0.00997833
0.0131936
0.0174481
0.035076
0.0527957
0.0703379
0.0874918
0.10409
0.119997
0.135104
0.149317
0.162556
0.174743
0.185792
0.195652
0.204261
0.211536
0.217413
0.221897
0.225097
0.227207
0.228493
0.229224
0.229615
0.229815
0.229913
0.22996
0.229982
0.229992
0.229996
0.229998
0.229999
0.23
0.23
0.23
0.23
0.23
0.23
0.23
0.23
0.23
5.48062e-10
2.39524e-09
5.50141e-09
1.07043e-08
1.9371e-08
3.37044e-08
5.72024e-08
9.53251e-08
1.56429e-07
2.53007e-07
4.03241e-07
6.32736e-07
9.76161e-07
1.47823e-06
2.1932e-06
3.182e-06
4.50645e-06
6.22095e-06
8.36357e-06
1.09488e-05
1.39647e-05
1.73737e-05
2.11183e-05
2.51262e-05
2.9317e-05
3.36071e-05
3.79134e-05
4.21567e-05
4.62636e-05
5.01695e-05
5.38233e-05
5.71958e-05
6.02981e-05
6.32098e-05
6.61156e-05
6.93277e-05
7.32946e-05
7.8619e-05
8.60297e-05
9.63769e-05
0.000110652
0.000130037
0.000155988
0.000190337
0.000235432
0.000294316
0.000370944
0.000470481
0.000599683
0.000767391
0.000985205
0.00126836
0.0016369
0.00211729
0.00274451
0.00356502
0.00463131
0.00600129
0.00786776
0.0103346
0.0136118
0.0195709
0.0372954
0.0550643
0.0726145
0.0897404
0.106279
0.122099
0.137092
0.151168
0.164245
0.176241
0.187088
0.196764
0.205184
0.212283
0.218021
0.222358
0.22541
0.227402
0.228605
0.229284
0.229646
0.22983
0.22992
0.229963
0.229983
0.229993
0.229997
0.229999
0.229999
0.23
0.23
0.23
0.23
0.23
0.23
0.23
0.23
0.23
5.58383e-10
2.44038e-09
5.60537e-09
1.09078e-08
1.97426e-08
3.43598e-08
5.83349e-08
9.72551e-08
1.59681e-07
2.58433e-07
4.12196e-07
6.47342e-07
9.99668e-07
1.51548e-06
2.25121e-06
3.27056e-06
4.63868e-06
6.41371e-06
8.63748e-06
1.13281e-05
1.44764e-05
1.80471e-05
2.19837e-05
2.62142e-05
3.06574e-05
3.52282e-05
3.98412e-05
4.44138e-05
4.88689e-05
5.31378e-05
5.71653e-05
6.092e-05
6.44146e-05
6.77395e-05
7.1102e-05
7.48447e-05
7.9451e-05
8.55641e-05
9.39512e-05
0.000105498
0.000121231
0.000142374
0.000170433
0.0002073
0.000255401
0.000317863
0.000398748
0.000503339
0.000638522
0.000813277
0.00103933
0.00133202
0.00171142
0.00220384
0.00284386
0.00367691
0.00475304
0.00612469
0.00797725
0.0103993
0.0135736
0.0217876
0.039477
0.0572037
0.074701
0.0917606
0.108217
0.12394
0.13882
0.15277
0.165713
0.177582
0.188344
0.197889
0.206144
0.213051
0.218569
0.222754
0.225678
0.227567
0.228699
0.229334
0.229672
0.229842
0.229926
0.229966
0.229984
0.229993
0.229997
0.229999
0.229999
0.23
0.23
0.23
0.23
0.23
0.23
0.23
0.23
0.23
5.68174e-10
2.4832e-09
5.70405e-09
1.1101e-08
2.00961e-08
3.49842e-08
5.94158e-08
9.91011e-08
1.628e-07
2.6365e-07
4.20833e-07
6.61476e-07
1.0225e-06
1.5518e-06
2.30799e-06
3.35759e-06
4.7692e-06
6.60485e-06
8.91044e-06
1.1708e-05
1.49917e-05
1.87291e-05
2.28654e-05
2.73297e-05
3.20408e-05
3.69128e-05
4.18586e-05
4.67933e-05
5.16365e-05
5.63159e-05
6.07725e-05
6.49729e-05
6.89326e-05
7.27546e-05
7.66709e-05
8.1053e-05
8.64149e-05
9.34358e-05
0.000102916
0.000115771
0.00013306
0.000156045
0.000186273
0.000225693
0.000276791
0.000342766
0.000427757
0.000537129
0.000677847
0.000858962
0.00109225
0.00139305
0.00178135
0.00228327
0.00293298
0.00377519
0.00485762
0.00623241
0.00808449
0.0105006
0.0136637
0.0237489
0.0414178
0.0591042
0.0765439
0.0935271
0.109891
0.12551
0.140282
0.154135
0.16699
0.178781
0.189418
0.198828
0.20694
0.213698
0.21907
0.223088
0.225901
0.227705
0.228777
0.229376
0.229693
0.229853
0.229931
0.229968
0.229986
0.229994
0.229997
0.229999
0.229999
0.23
0.23
0.23
0.23
0.23
0.23
0.23
0.23
0.23
5.77281e-10
2.52305e-09
5.79591e-09
1.12811e-08
2.04258e-08
3.55673e-08
6.04269e-08
1.00831e-07
1.65731e-07
2.68565e-07
4.28993e-07
6.74872e-07
1.0442e-06
1.58646e-06
2.36239e-06
3.44135e-06
4.89539e-06
6.79054e-06
9.177e-06
1.2081e-05
1.55007e-05
1.94069e-05
2.37475e-05
2.84534e-05
3.34446e-05
3.86354e-05
4.39383e-05
4.9267e-05
5.45392e-05
5.96797e-05
6.4627e-05
6.93465e-05
7.38584e-05
7.82806e-05
8.28711e-05
8.80262e-05
9.42827e-05
0.000102351
0.000113058
0.000127347
0.000146307
0.000171236
0.000203726
0.000245777
0.000299932
0.000369455
0.000458554
0.000572662
0.000718811
0.00090611
0.00114637
0.00145495
0.00185179
0.0023629
0.00302207
0.00387333
0.00496363
0.00634631
0.00820516
0.0106231
0.0137804
0.0254413
0.0430936
0.0607431
0.0781253
0.0950369
0.111335
0.126893
0.14161
0.155384
0.168142
0.179814
0.190332
0.19962
0.207606
0.214236
0.219482
0.223385
0.226082
0.227815
0.228841
0.22941
0.22971
0.229861
0.229935
0.22997
0.229986
0.229994
0.229997
0.229999
0.229999
0.23
0.23
0.23
0.23
0.23
0.23
0.23
0.23
0.23
5.85533e-10
2.55916e-09
5.87919e-09
1.14444e-08
2.07252e-08
3.60976e-08
6.13479e-08
1.02411e-07
1.68411e-07
2.73072e-07
4.36495e-07
6.87225e-07
1.06429e-06
1.61865e-06
2.41311e-06
3.51977e-06
5.01409e-06
6.96608e-06
9.43034e-06
1.24376e-05
1.59903e-05
2.00632e-05
2.46076e-05
2.95574e-05
3.48347e-05
4.03558e-05
4.6034e-05
5.17836e-05
5.75219e-05
6.3173e-05
6.86744e-05
7.3993e-05
7.91559e-05
8.42991e-05
8.97074e-05
9.57914e-05
0.000103101
0.000112369
0.000124446
0.000140301
0.000161054
0.000188043
0.000222906
0.000267694
0.000325011
0.000398184
0.000491487
0.00061042
0.000762081
0.000955637
0.00120295
0.00151938
0.00192481
0.00244496
0.00311361
0.00397523
0.00507544
0.00646703
0.00833302
0.0107547
0.0138985
0.026848
0.0445013
0.0621296
0.0794751
0.0963546
0.112602
0.128095
0.14273
0.156421
0.16909
0.180668
0.191089
0.200274
0.208154
0.214676
0.219818
0.223624
0.226241
0.227905
0.228891
0.229437
0.229724
0.229868
0.229938
0.229971
0.229987
0.229994
0.229997
0.229999
0.23
0.23
0.23
0.23
0.23
0.23
0.23
0.23
0.23
0.23
5.92753e-10
2.59075e-09
5.95209e-09
1.15875e-08
2.09876e-08
3.6563e-08
6.21576e-08
1.03801e-07
1.70776e-07
2.77057e-07
4.43148e-07
6.98211e-07
1.08221e-06
1.64746e-06
2.45869e-06
3.59053e-06
5.12167e-06
7.12599e-06
9.66236e-06
1.2766e-05
1.64441e-05
2.06757e-05
2.54163e-05
3.06036e-05
3.61634e-05
4.2015e-05
4.80751e-05
5.42604e-05
6.04906e-05
6.66918e-05
7.2804e-05
7.8799e-05
8.4715e-05
9.07107e-05
9.70946e-05
0.000104275
0.000112798
0.000123416
0.000136997
0.000154538
0.000177195
0.000206346
0.00024368
0.000291304
0.000351883
0.000428806
0.000526413
0.000650269
0.00080753
0.00100741
0.00126177
0.00158584
0.00199942
0.00252841
0.00320683
0.00407847
0.00518635
0.00658462
0.00845531
0.0108782
0.0140084
0.0279875
0.0456513
0.0632653
0.080592
0.0974312
0.11363
0.129066
0.143638
0.15726
0.169857
0.181359
0.1917
0.200802
0.208595
0.21503
0.220086
0.223814
0.226366
0.227981
0.228931
0.229458
0.229735
0.229873
0.22994
0.229973
0.229988
0.229994
0.229998
0.229999
0.23
0.23
0.23
0.23
0.23
0.23
0.23
0.23
0.23
0.23
5.98767e-10
2.61707e-09
6.01283e-09
1.17068e-08
2.12066e-08
3.69518e-08
6.28348e-08
1.04966e-07
1.72761e-07
2.8041e-07
4.48756e-07
7.07497e-07
1.0974e-06
1.67196e-06
2.49759e-06
3.65117e-06
5.21426e-06
7.26426e-06
9.86402e-06
1.30532e-05
1.68433e-05
2.12181e-05
2.61376e-05
3.15441e-05
3.73681e-05
4.35337e-05
4.99625e-05
5.65764e-05
6.33006e-05
7.00671e-05
7.68232e-05
8.35509e-05
9.03067e-05
9.72768e-05
0.000104787
0.000113215
0.000123091
0.000135174
0.000150356
0.00016966
0.000194281
0.000225646
0.000265498
0.000316001
0.000379883
0.000460598
0.000562552
0.000691364
0.00085422
0.00106032
0.00132147
0.00165304
0.00207512
0.00261328
0.00330028
0.00417918
0.00529166
0.00669056
0.00855444
0.0109568
0.0140345
0.028853
0.0465473
0.0641682
0.0814757
0.0982829
0.114441
0.129831
0.144351
0.157919
0.170458
0.181899
0.192178
0.201213
0.208939
0.215304
0.220293
0.22396
0.226461
0.228039
0.228965
0.229475
0.229743
0.229877
0.229942
0.229973
0.229988
0.229995
0.229998
0.229999
0.23
0.23
0.23
0.23
0.23
0.23
0.23
0.23
0.23
0.23
6.03418e-10
2.63743e-09
6.05984e-09
1.17991e-08
2.13763e-08
3.72533e-08
6.33605e-08
1.05872e-07
1.74306e-07
2.83024e-07
4.53139e-07
7.1477e-07
1.10933e-06
1.69127e-06
2.52833e-06
3.69924e-06
5.28796e-06
7.37478e-06
1.0026e-05
1.32849e-05
1.71673e-05
2.1661e-05
2.67307e-05
3.23232e-05
3.83743e-05
4.48137e-05
5.15693e-05
5.85703e-05
6.57501e-05
7.30508e-05
8.04324e-05
8.78946e-05
9.55207e-05
0.000103533
0.000112263
0.00012203
0.000133323
0.00014691
0.0001637
0.000184749
0.000211296
0.000244818
0.000287113
0.000340407
0.000407486
0.000491866
0.000598003
0.000731571
0.000899794
0.00111197
0.00138018
0.00171973
0.00215006
0.00269652
0.0033918
0.00427827
0.00539648
0.00679812
0.00866025
0.0110536
0.0141055
0.0295487
0.0472476
0.0648579
0.0821451
0.0989248
0.11505
0.130403
0.144884
0.158409
0.170904
0.1823
0.192531
0.201517
0.209192
0.215506
0.220444
0.224066
0.22653
0.228081
0.228988
0.229488
0.229749
0.22988
0.229944
0.229974
0.229988
0.229995
0.229998
0.229999
0.23
0.23
0.23
0.23
0.23
0.23
0.23
0.23
0.23
0.23
6.06579e-10
2.65127e-09
6.09179e-09
1.18619e-08
2.14916e-08
3.74583e-08
6.37181e-08
1.06488e-07
1.75359e-07
2.84807e-07
4.56132e-07
7.19744e-07
1.1175e-06
1.70452e-06
2.54949e-06
3.73245e-06
5.33904e-06
7.45168e-06
1.01391e-05
1.34476e-05
1.73959e-05
2.19752e-05
2.71538e-05
3.28827e-05
3.91021e-05
4.57468e-05
5.2751e-05
6.00512e-05
6.75901e-05
7.53211e-05
8.32195e-05
9.13069e-05
9.96988e-05
0.000108652
0.000118494
0.00012959
0.000142243
0.000157223
0.000175462
0.000198056
0.000226286
0.000261683
0.000306099
0.000361816
0.000431683
0.00051928
0.000629139
0.000767023
0.000940293
0.00115831
0.00143293
0.00177942
0.00221738
0.00277197
0.00347563
0.00437022
0.00549509
0.0069013
0.00876417
0.0111514
0.0141825
0.0299876
0.0477102
0.0653229
0.0825993
0.0993603
0.115462
0.130788
0.145241
0.158737
0.171202
0.182566
0.192765
0.201717
0.209358
0.215638
0.220543
0.224135
0.226574
0.228107
0.229004
0.229496
0.229754
0.229882
0.229945
0.229975
0.229988
0.229995
0.229998
0.229999
0.23
0.23
0.23
0.23
0.23
0.23
0.23
0.23
0.23
0.23
6.08156e-10
2.65816e-09
6.10766e-09
1.1893e-08
2.15486e-08
3.75591e-08
6.38935e-08
1.0679e-07
1.75873e-07
2.85675e-07
4.57586e-07
7.22159e-07
1.12147e-06
1.71095e-06
2.55978e-06
3.74861e-06
5.36396e-06
7.48932e-06
1.01947e-05
1.35279e-05
1.75093e-05
2.2132e-05
2.73662e-05
3.31652e-05
3.9472e-05
4.62246e-05
5.33608e-05
6.08217e-05
6.8556e-05
7.65246e-05
8.47128e-05
9.31562e-05
0.000101988
0.000111471
0.000121998
0.000133989
0.000147809
0.000163837
0.00018309
0.000206725
0.000236075
0.000272713
0.000318536
0.000375873
0.000447617
0.0005374
0.000649802
0.000790627
0.00096725
0.00118905
0.00146799
0.00181934
0.00226269
0.0028231
0.00353284
0.0044334
0.00556316
0.00697245
0.00883459
0.0112134
0.0142202
0.0302004
0.0479463
0.0655641
0.0828355
0.0995859
0.115674
0.130985
0.145422
0.158902
0.17135
0.182697
0.192879
0.201815
0.209438
0.215701
0.22059
0.224167
0.226595
0.22812
0.22901
0.2295
0.229755
0.229883
0.229945
0.229975
0.229989
0.229995
0.229998
0.229999
0.23
0.23
0.23
0.23
0.23
0.23
0.23
0.23
0.23
0.23
6.08162e-10
2.65819e-09
6.10772e-09
1.18931e-08
2.15488e-08
3.75595e-08
6.3894e-08
1.06791e-07
1.75874e-07
2.85676e-07
4.57589e-07
7.22163e-07
1.12147e-06
1.71096e-06
2.55978e-06
3.74861e-06
5.36397e-06
7.48931e-06
1.01947e-05
1.35279e-05
1.75092e-05
2.21319e-05
2.7366e-05
3.31651e-05
3.94718e-05
4.62243e-05
5.33604e-05
6.08213e-05
6.85555e-05
7.6524e-05
8.47122e-05
9.31555e-05
0.000101987
0.00011147
0.000121997
0.000133988
0.000147808
0.000163835
0.000183089
0.000206723
0.000236072
0.000272709
0.00031853
0.000375865
0.000447607
0.000537386
0.000649784
0.000790606
0.000967224
0.00118902
0.00146795
0.00181929
0.00226262
0.00282302
0.00353274
0.00443329
0.00556304
0.00697235
0.00883455
0.0112135
0.0142203
0.0302012
0.0479471
0.0655649
0.0828363
0.0995866
0.115675
0.130986
0.145422
0.158902
0.17135
0.182698
0.192879
0.201815
0.209439
0.215701
0.22059
0.224167
0.226595
0.22812
0.229011
0.2295
0.229755
0.229883
0.229945
0.229975
0.229989
0.229995
0.229998
0.229999
0.23
0.23
0.23
0.23
0.23
0.23
0.23
0.23
0.23
0.23
6.06599e-10
2.65136e-09
6.09198e-09
1.18623e-08
2.14923e-08
3.74593e-08
6.37197e-08
1.06491e-07
1.75363e-07
2.84812e-07
4.5614e-07
7.19755e-07
1.11752e-06
1.70454e-06
2.54951e-06
3.73246e-06
5.33905e-06
7.45166e-06
1.01391e-05
1.34475e-05
1.73957e-05
2.19749e-05
2.71534e-05
3.28822e-05
3.91014e-05
4.5746e-05
5.275e-05
6.005e-05
6.75887e-05
7.53195e-05
8.32177e-05
9.1305e-05
9.96966e-05
0.00010865
0.000118492
0.000129587
0.00014224
0.000157219
0.000175457
0.000198049
0.000226278
0.000261672
0.000306084
0.000361795
0.000431654
0.000519241
0.000629087
0.000766953
0.000940201
0.00115819
0.00143276
0.00177919
0.00221708
0.00277159
0.00347516
0.00436969
0.00549453
0.00690083
0.00876393
0.0111515
0.0141829
0.0299899
0.0477127
0.0653254
0.0826017
0.0993626
0.115464
0.13079
0.145242
0.158738
0.171203
0.182567
0.192765
0.201718
0.209359
0.215638
0.220543
0.224135
0.226575
0.228108
0.229004
0.229496
0.229754
0.229882
0.229945
0.229975
0.229988
0.229995
0.229998
0.229999
0.23
0.23
0.23
0.23
0.23
0.23
0.23
0.23
0.23
0.23
6.03457e-10
2.6376e-09
6.06023e-09
1.17999e-08
2.13777e-08
3.72557e-08
6.33645e-08
1.05879e-07
1.74317e-07
2.83041e-07
4.53166e-07
7.14812e-07
1.10939e-06
1.69135e-06
2.52846e-06
3.69941e-06
5.28818e-06
7.37505e-06
1.00263e-05
1.32853e-05
1.71677e-05
2.16614e-05
2.6731e-05
3.23235e-05
3.83745e-05
4.48139e-05
5.15693e-05
5.85702e-05
6.57499e-05
7.30506e-05
8.04321e-05
8.78942e-05
9.55204e-05
0.000103532
0.000112262
0.00012203
0.000133323
0.00014691
0.000163699
0.000184747
0.000211294
0.000244814
0.000287108
0.000340399
0.000407475
0.00049185
0.000597981
0.000731543
0.000899758
0.00111193
0.00138015
0.00171971
0.00215007
0.00269658
0.00339196
0.00427858
0.00539699
0.00679891
0.00866131
0.0110548
0.0141061
0.0295522
0.0472509
0.064861
0.0821482
0.0989278
0.115053
0.130405
0.144886
0.158411
0.170906
0.182302
0.192532
0.201518
0.209193
0.215506
0.220445
0.224066
0.22653
0.228081
0.228988
0.229488
0.229749
0.22988
0.229944
0.229974
0.229988
0.229995
0.229998
0.229999
0.23
0.23
0.23
0.23
0.23
0.23
0.23
0.23
0.23
0.23
5.98819e-10
2.6173e-09
6.01336e-09
1.17078e-08
2.12085e-08
3.6955e-08
6.28401e-08
1.04975e-07
1.72775e-07
2.80432e-07
4.48791e-07
7.07549e-07
1.09748e-06
1.67208e-06
2.49775e-06
3.65137e-06
5.21452e-06
7.26457e-06
9.86438e-06
1.30536e-05
1.68437e-05
2.12184e-05
2.61379e-05
3.15443e-05
3.73682e-05
4.35337e-05
4.99623e-05
5.6576e-05
6.33e-05
7.00664e-05
7.68223e-05
8.355e-05
9.03058e-05
9.7276e-05
0.000104786
0.000113215
0.000123091
0.000135174
0.000150356
0.000169661
0.000194283
0.00022565
0.000265502
0.000316008
0.000379891
0.000460609
0.000562568
0.000691385
0.000854248
0.00106035
0.00132152
0.0016531
0.00207521
0.0026134
0.00330044
0.00417939
0.00529194
0.00669093
0.00855493
0.0109575
0.0140352
0.0288589
0.046553
0.0641735
0.0814806
0.0982875
0.114445
0.129834
0.144355
0.157922
0.170461
0.181902
0.19218
0.201215
0.208941
0.215306
0.220294
0.22396
0.226461
0.228039
0.228965
0.229475
0.229743
0.229877
0.229942
0.229973
0.229988
0.229995
0.229998
0.229999
0.23
0.23
0.23
0.23
0.23
0.23
0.23
0.23
0.23
0.23
5.92817e-10
2.59103e-09
5.95273e-09
1.15887e-08
2.09899e-08
3.65669e-08
6.2164e-08
1.03812e-07
1.70793e-07
2.77084e-07
4.43189e-07
6.98274e-07
1.0823e-06
1.64759e-06
2.45887e-06
3.59077e-06
5.12198e-06
7.12635e-06
9.66277e-06
1.27665e-05
1.64445e-05
2.06761e-05
2.54166e-05
3.06037e-05
3.61634e-05
4.20148e-05
4.80747e-05
5.42597e-05
6.04897e-05
6.66907e-05
7.28029e-05
7.87978e-05
8.47139e-05
9.07098e-05
9.70941e-05
0.000104275
0.000112799
0.000123418
0.000137002
0.000154545
0.000177204
0.000206359
0.000243698
0.00029133
0.000351917
0.000428851
0.000526471
0.000650344
0.000807623
0.00100753
0.0012619
0.001586
0.00199958
0.00252858
0.00320698
0.00407856
0.00518637
0.00658454
0.0084552
0.0108783
0.0140093
0.0279958
0.0456593
0.0632728
0.0805989
0.0974374
0.113636
0.129071
0.143642
0.157264
0.169861
0.181362
0.191703
0.200804
0.208597
0.215031
0.220087
0.223815
0.226366
0.227981
0.228932
0.229458
0.229735
0.229873
0.22994
0.229973
0.229988
0.229994
0.229998
0.229999
0.23
0.23
0.23
0.23
0.23
0.23
0.23
0.23
0.23
0.23
5.85609e-10
2.55949e-09
5.87994e-09
1.14459e-08
2.07278e-08
3.61021e-08
6.13555e-08
1.02423e-07
1.68431e-07
2.73103e-07
4.36544e-07
6.87299e-07
1.0644e-06
1.6188e-06
2.41333e-06
3.52005e-06
5.01444e-06
6.96651e-06
9.43082e-06
1.24381e-05
1.59907e-05
2.00636e-05
2.46079e-05
2.95575e-05
3.48347e-05
4.03555e-05
4.60335e-05
5.17828e-05
5.75209e-05
6.31718e-05
6.86732e-05
7.39918e-05
7.91547e-05
8.42983e-05
8.97072e-05
9.57921e-05
0.000103103
0.000112373
0.000124452
0.000140311
0.000161069
0.000188064
0.000222935
0.000267735
0.000325066
0.000398259
0.000491587
0.000610554
0.000762259
0.000955872
0.00120326
0.00151978
0.00192533
0.00244562
0.00311443
0.00397622
0.00507656
0.00646824
0.00833422
0.0107558
0.0138995
0.0268574
0.0445103
0.0621383
0.0794828
0.0963615
0.112609
0.1281
0.142735
0.156425
0.169095
0.180672
0.191092
0.200277
0.208157
0.214678
0.219819
0.223625
0.226242
0.227905
0.228891
0.229437
0.229724
0.229868
0.229938
0.229971
0.229987
0.229994
0.229997
0.229999
0.23
0.23
0.23
0.23
0.23
0.23
0.23
0.23
0.23
0.23
5.77368e-10
2.52342e-09
5.79677e-09
1.12827e-08
2.04288e-08
3.55725e-08
6.04356e-08
1.00846e-07
1.65754e-07
2.68601e-07
4.29049e-07
6.74956e-07
1.04433e-06
1.58664e-06
2.36264e-06
3.44168e-06
4.8958e-06
6.79104e-06
9.17756e-06
1.20816e-05
1.55013e-05
1.94074e-05
2.37479e-05
2.84537e-05
3.34446e-05
3.86352e-05
4.39378e-05
4.92663e-05
5.45383e-05
5.96786e-05
6.46257e-05
6.93453e-05
7.38573e-05
7.82799e-05
8.28711e-05
8.80272e-05
9.42853e-05
0.000102356
0.000113066
0.000127359
0.000146324
0.000171259
0.000203758
0.00024582
0.000299988
0.000369529
0.000458648
0.000572781
0.000718961
0.000906296
0.0011466
0.00145522
0.00185211
0.00236328
0.00302251
0.00387384
0.00496423
0.00634701
0.00820595
0.0106239
0.0137812
0.0254526
0.043104
0.0607523
0.0781339
0.0950452
0.111343
0.1269
0.141616
0.15539
0.168148
0.179819
0.190337
0.199623
0.207609
0.214238
0.219484
0.223386
0.226083
0.227816
0.228841
0.22941
0.22971
0.229861
0.229935
0.22997
0.229986
0.229994
0.229997
0.229999
0.229999
0.23
0.23
0.23
0.23
0.23
0.23
0.23
0.23
0.23
5.68271e-10
2.48363e-09
5.70502e-09
1.11029e-08
2.00995e-08
3.49901e-08
5.94255e-08
9.91171e-08
1.62826e-07
2.63691e-07
4.20896e-07
6.61572e-07
1.02264e-06
1.552e-06
2.30826e-06
3.35796e-06
4.76967e-06
6.60541e-06
8.91108e-06
1.17087e-05
1.49924e-05
1.87297e-05
2.28659e-05
2.733e-05
3.2041e-05
3.69127e-05
4.18583e-05
4.67927e-05
5.16357e-05
5.63149e-05
6.07714e-05
6.49717e-05
6.89316e-05
7.2754e-05
7.66709e-05
8.10542e-05
8.64177e-05
9.34409e-05
0.000102924
0.000115784
0.000133078
0.000156069
0.000186307
0.000225738
0.000276848
0.00034284
0.00042785
0.000537245
0.00067799
0.000859134
0.00109245
0.00139328
0.00178162
0.00228357
0.00293332
0.00377557
0.00485803
0.00623292
0.00808515
0.0105015
0.0136647
0.0237623
0.0414306
0.0591163
0.0765552
0.0935373
0.1099
0.125519
0.14029
0.154142
0.166997
0.178786
0.189423
0.198832
0.206944
0.2137
0.219072
0.223089
0.225902
0.227705
0.228778
0.229376
0.229693
0.229853
0.229931
0.229968
0.229986
0.229994
0.229997
0.229999
0.229999
0.23
0.23
0.23
0.23
0.23
0.23
0.23
0.23
0.23
5.5849e-10
2.44084e-09
5.60644e-09
1.09098e-08
1.97464e-08
3.43663e-08
5.83457e-08
9.72729e-08
1.5971e-07
2.58478e-07
4.12266e-07
6.47449e-07
9.99826e-07
1.51571e-06
2.25153e-06
3.27098e-06
4.63921e-06
6.41435e-06
8.63822e-06
1.13289e-05
1.44772e-05
1.80479e-05
2.19844e-05
2.62147e-05
3.06578e-05
3.52283e-05
3.9841e-05
4.44134e-05
4.88682e-05
5.3137e-05
5.71643e-05
6.09189e-05
6.44136e-05
6.77388e-05
7.1102e-05
7.48457e-05
7.94536e-05
8.55688e-05
9.3959e-05
0.000105509
0.000121248