/*--------------------------------*- C++ -*----------------------------------*\
  =========                 |
  \\      /  F ield         | OpenFOAM: The Open Source CFD Toolbox
   \\    /   O peration     | Website:  https://openfoam.org
    \\  /    A nd           | Version:  8
     \\/     M anipulation  |
\*---------------------------------------------------------------------------*/
FoamFile
{
    version     2.0;
    format      ascii;
    class       surfaceScalarField;
    location    "400/fluid";
    object      phi;
}
// * * * * * * * * * * * * * * * * * * * * * * * * * * * * * * * * * * * * * //

dimensions      [1 0 -1 0 0 0 0];

internalField   nonuniform List<scalar> 
7860
(
6.57357e-07
-1.74688e-08
6.54871e-07
-5.23178e-08
6.51333e-07
-8.6957e-08
6.46642e-07
-1.21321e-07
6.40677e-07
-1.5542e-07
6.33288e-07
-1.89217e-07
6.24305e-07
-2.22642e-07
6.13542e-07
-2.55584e-07
6.0081e-07
-2.87892e-07
5.85923e-07
-3.19365e-07
5.68713e-07
-3.49739e-07
5.4905e-07
-3.78673e-07
5.26876e-07
-4.05737e-07
5.02273e-07
-4.30412e-07
4.75502e-07
-4.52096e-07
4.46877e-07
-4.70129e-07
4.16806e-07
-4.83925e-07
3.8578e-07
-4.93116e-07
3.54337e-07
-4.97676e-07
3.22988e-07
-4.97975e-07
2.9216e-07
-4.94703e-07
2.62168e-07
-4.88719e-07
2.33217e-07
-4.80881e-07
2.05435e-07
-4.71915e-07
1.78917e-07
-4.62366e-07
1.53649e-07
-4.52582e-07
1.2957e-07
-4.42772e-07
1.06606e-07
-4.33042e-07
8.46827e-08
-4.23436e-07
6.37308e-08
-4.13961e-07
4.36904e-08
-4.04606e-07
2.45096e-08
-3.9536e-07
6.14344e-09
-3.86216e-07
-1.14412e-08
-3.77172e-07
-2.82715e-08
-3.68238e-07
-4.4378e-08
-3.59424e-07
-5.97875e-08
-3.50699e-07
-7.45239e-08
-3.42062e-07
-8.86096e-08
-3.33531e-07
-1.02064e-07
-3.25125e-07
-1.14907e-07
-3.16863e-07
-1.27158e-07
-3.08762e-07
-1.38836e-07
-3.00838e-07
-1.49959e-07
-2.93108e-07
-1.60543e-07
-2.85584e-07
-1.70606e-07
-2.78281e-07
-1.80164e-07
-2.7121e-07
-1.89232e-07
-2.64381e-07
-1.97827e-07
-2.57806e-07
-2.05962e-07
-2.51494e-07
-2.13652e-07
-2.45457e-07
-2.20912e-07
-2.39707e-07
-2.27756e-07
-2.34258e-07
-2.342e-07
-2.29127e-07
-2.40262e-07
-2.24338e-07
-2.45963e-07
-2.19919e-07
-2.5133e-07
-2.15908e-07
-2.56404e-07
-2.12354e-07
-2.61233e-07
-2.09366e-07
-2.65873e-07
-2.06979e-07
-2.70425e-07
-2.05308e-07
-2.75201e-07
-2.04585e-07
-2.80729e-07
-2.04829e-07
-2.8781e-07
-2.1398e-07
-2.95944e-07
-2.25915e-07
-3.04992e-07
-2.39187e-07
-3.14924e-07
-2.53863e-07
-3.25837e-07
-2.70127e-07
-3.37878e-07
-2.8821e-07
-3.5124e-07
-3.08396e-07
-3.66185e-07
-3.31037e-07
-3.83066e-07
-3.56564e-07
-4.02356e-07
-3.85476e-07
-4.24672e-07
-4.18407e-07
-4.50816e-07
-4.56126e-07
-4.81748e-07
-4.98944e-07
-5.18451e-07
-5.46256e-07
-5.61566e-07
-5.9588e-07
-6.11017e-07
-6.43238e-07
-6.6604e-07
-6.81479e-07
-7.24667e-07
-7.04029e-07
-7.83988e-07
-7.08159e-07
-8.41144e-07
-6.96018e-07
-8.94147e-07
-6.72186e-07
-9.42025e-07
-6.4105e-07
-9.84458e-07
-6.05665e-07
-1.02133e-06
-5.67754e-07
-1.0528e-06
-5.28187e-07
-1.07942e-06
-4.87433e-07
-1.10177e-06
-4.45857e-07
-1.12037e-06
-4.03735e-07
-1.13572e-06
-3.61282e-07
-1.14824e-06
-3.18665e-07
-1.15834e-06
-2.7601e-07
-1.16635e-06
-2.33406e-07
-1.17258e-06
-1.90905e-07
-1.17728e-06
-1.48517e-07
-1.18066e-06
-1.06205e-07
-1.18287e-06
-6.38804e-08
-2.14143e-08
6.57947e-07
-1.68819e-08
6.5595e-07
-5.03214e-08
6.52475e-07
-8.34812e-08
6.4752e-07
-1.16366e-07
6.41022e-07
-1.48922e-07
6.32891e-07
-1.81085e-07
6.23017e-07
-2.12768e-07
6.11292e-07
-2.43857e-07
5.97611e-07
-2.74211e-07
5.81894e-07
-3.03645e-07
5.64085e-07
-3.31927e-07
5.44172e-07
-3.58755e-07
5.22196e-07
-3.83753e-07
4.98274e-07
-4.06476e-07
4.72604e-07
-4.26406e-07
4.45437e-07
-4.42934e-07
4.17092e-07
-4.55543e-07
3.87942e-07
-4.6392e-07
3.58395e-07
-4.68075e-07
3.28843e-07
-4.6836e-07
2.9962e-07
-4.6541e-07
2.70978e-07
-4.60005e-07
2.43093e-07
-4.52921e-07
2.16075e-07
-4.44824e-07
1.9e-07
-4.3622e-07
1.6489e-07
-4.27405e-07
1.4074e-07
-4.18558e-07
1.17527e-07
-4.0977e-07
9.52229e-08
-4.01077e-07
7.37995e-08
-3.92486e-07
5.32274e-08
-3.83986e-07
3.34784e-08
-3.75567e-07
1.45253e-08
-3.67221e-07
-3.65829e-09
-3.5895e-07
-2.10959e-08
-3.50762e-07
-3.78105e-08
-3.42671e-07
-5.38229e-08
-3.34648e-07
-6.91532e-08
-3.26692e-07
-8.38217e-08
-3.18822e-07
-9.78486e-08
-3.11057e-07
-1.11254e-07
-3.03415e-07
-1.24059e-07
-2.95914e-07
-1.36284e-07
-2.88571e-07
-1.47947e-07
-2.81401e-07
-1.59069e-07
-2.74419e-07
-1.69669e-07
-2.67638e-07
-1.79765e-07
-2.6107e-07
-1.89376e-07
-2.54727e-07
-1.98521e-07
-2.48618e-07
-2.07219e-07
-2.42755e-07
-2.15487e-07
-2.37148e-07
-2.23345e-07
-2.31809e-07
-2.30814e-07
-2.26751e-07
-2.37915e-07
-2.21989e-07
-2.44677e-07
-2.17543e-07
-2.51129e-07
-2.13436e-07
-2.57313e-07
-2.09697e-07
-2.63285e-07
-2.06363e-07
-2.69113e-07
-2.03521e-07
-2.74933e-07
-2.01147e-07
-2.80915e-07
-1.99319e-07
-2.87375e-07
-1.98123e-07
-2.94615e-07
-1.97608e-07
-3.02156e-07
-2.06743e-07
-3.10659e-07
-2.17589e-07
-3.20256e-07
-2.29784e-07
-3.30943e-07
-2.43391e-07
-3.42788e-07
-2.58524e-07
-3.55912e-07
-2.75356e-07
-3.70484e-07
-2.94128e-07
-3.86719e-07
-3.15147e-07
-4.04884e-07
-3.38788e-07
-4.25303e-07
-3.65497e-07
-4.48324e-07
-3.95887e-07
-4.74374e-07
-4.30643e-07
-5.03976e-07
-4.69974e-07
-5.3768e-07
-5.13236e-07
-5.7595e-07
-5.5831e-07
-6.19014e-07
-6.00832e-07
-6.66641e-07
-6.34403e-07
-7.17627e-07
-6.53444e-07
-7.69883e-07
-6.56157e-07
-8.2121e-07
-6.44835e-07
-8.69972e-07
-6.23498e-07
-9.15278e-07
-5.9578e-07
-9.56751e-07
-5.64209e-07
-9.94213e-07
-5.30299e-07
-1.0276e-06
-4.948e-07
-1.05701e-06
-4.58028e-07
-1.0826e-06
-4.20264e-07
-1.10461e-06
-3.81729e-07
-1.12329e-06
-3.42602e-07
-1.13892e-06
-3.03031e-07
-1.15179e-06
-2.63139e-07
-1.16217e-06
-2.23028e-07
-1.1703e-06
-1.82774e-07
-1.1764e-06
-1.42422e-07
-1.18062e-06
-1.01984e-07
-1.18305e-06
-6.14444e-08
-2.06472e-08
6.57667e-07
-1.60156e-08
6.55161e-07
-4.78146e-08
6.51025e-07
-7.93453e-08
6.45227e-07
-1.10568e-07
6.37729e-07
-1.41424e-07
6.28483e-07
-1.71839e-07
6.17442e-07
-2.01726e-07
6.04567e-07
-2.30981e-07
5.89832e-07
-2.59475e-07
5.73235e-07
-2.87047e-07
5.54805e-07
-3.13493e-07
5.34599e-07
-3.38545e-07
5.12712e-07
-3.61858e-07
4.89254e-07
-3.83007e-07
4.64356e-07
-4.01492e-07
4.38237e-07
-4.16792e-07
4.1118e-07
-4.28456e-07
3.83514e-07
-4.36215e-07
3.55574e-07
-4.40089e-07
3.27675e-07
-4.40407e-07
3.00079e-07
-4.37757e-07
2.72988e-07
-4.32853e-07
2.46534e-07
-4.26406e-07
2.20786e-07
-4.19015e-07
1.95756e-07
-4.11131e-07
1.71458e-07
-4.0305e-07
1.47899e-07
-3.94945e-07
1.25084e-07
-3.86903e-07
1.0301e-07
-3.78956e-07
8.16742e-08
-3.71105e-07
6.10685e-08
-3.63338e-07
4.11842e-08
-3.55643e-07
2.20104e-08
-3.48011e-07
3.5352e-09
-3.40441e-07
-1.42536e-08
-3.32941e-07
-3.13684e-08
-3.25524e-07
-4.78227e-08
-3.1816e-07
-6.36313e-08
-3.10848e-07
-7.88102e-08
-3.03607e-07
-9.33771e-08
-2.96453e-07
-1.0735e-07
-2.89405e-07
-1.20747e-07
-2.82479e-07
-1.33587e-07
-2.75692e-07
-1.4589e-07
-2.69059e-07
-1.57675e-07
-2.62594e-07
-1.68964e-07
-2.56309e-07
-1.79777e-07
-2.50217e-07
-1.90136e-07
-2.44328e-07
-2.00063e-07
-2.38651e-07
-2.09583e-07
-2.33196e-07
-2.18719e-07
-2.27973e-07
-2.27499e-07
-2.22991e-07
-2.35951e-07
-2.18261e-07
-2.4411e-07
-2.13795e-07
-2.5201e-07
-2.09608e-07
-2.59694e-07
-2.05719e-07
-2.67211e-07
-2.02151e-07
-2.74608e-07
-1.98938e-07
-2.81964e-07
-1.96148e-07
-2.89367e-07
-1.93738e-07
-2.96885e-07
-1.9181e-07
-3.04629e-07
-1.90411e-07
-3.13307e-07
-1.89581e-07
-3.21714e-07
-1.98444e-07
-3.30973e-07
-2.08474e-07
-3.412e-07
-2.19731e-07
-3.52499e-07
-2.32297e-07
-3.64968e-07
-2.46289e-07
-3.78718e-07
-2.61872e-07
-3.93874e-07
-2.79273e-07
-4.10573e-07
-2.98786e-07
-4.28967e-07
-3.20776e-07
-4.49208e-07
-3.45688e-07
-4.71416e-07
-3.74165e-07
-4.95771e-07
-4.06832e-07
-5.22559e-07
-4.43783e-07
-5.52225e-07
-4.84201e-07
-5.85504e-07
-5.2566e-07
-6.23249e-07
-5.63662e-07
-6.65645e-07
-5.92472e-07
-7.11754e-07
-6.07667e-07
-7.59686e-07
-6.08432e-07
-8.07409e-07
-5.97229e-07
-8.53367e-07
-5.77599e-07
-8.96638e-07
-5.52538e-07
-9.36794e-07
-5.24068e-07
-9.73749e-07
-4.9335e-07
-1.00751e-06
-4.61039e-07
-1.03804e-06
-4.27507e-07
-1.06531e-06
-3.92987e-07
-1.0894e-06
-3.57642e-07
-1.1104e-06
-3.21605e-07
-1.12844e-06
-2.84993e-07
-1.14366e-06
-2.47913e-07
-1.15623e-06
-2.10457e-07
-1.1663e-06
-1.72707e-07
-1.174e-06
-1.34723e-07
-1.17944e-06
-9.65411e-08
-1.18271e-06
-5.81756e-08
-1.95374e-08
6.57677e-07
-1.51587e-08
6.55088e-07
-4.52257e-08
6.50763e-07
-7.50206e-08
6.447e-07
-1.04505e-07
6.36888e-07
-1.33612e-07
6.27315e-07
-1.62266e-07
6.1597e-07
-1.90381e-07
6.02847e-07
-2.17857e-07
5.87947e-07
-2.44574e-07
5.71284e-07
-2.70383e-07
5.52888e-07
-2.95095e-07
5.32813e-07
-3.18466e-07
5.11141e-07
-3.40179e-07
4.8799e-07
-3.59846e-07
4.63526e-07
-3.77015e-07
4.37965e-07
-3.91213e-07
4.11569e-07
-4.02035e-07
3.84626e-07
-4.09242e-07
3.5743e-07
-4.12855e-07
3.3025e-07
-4.13185e-07
3.03315e-07
-4.10775e-07
2.76801e-07
-4.0629e-07
2.5083e-07
-4.00384e-07
2.25478e-07
-3.93612e-07
2.00785e-07
-3.86389e-07
1.76768e-07
-3.78986e-07
1.53435e-07
-3.71566e-07
1.30782e-07
-3.64208e-07
1.08804e-07
-3.56938e-07
8.7496e-08
-3.49759e-07
6.68503e-08
-3.42658e-07
4.68604e-08
-3.35621e-07
2.75197e-08
-3.2864e-07
8.82005e-09
-3.21713e-07
-9.24755e-09
-3.14846e-07
-2.6693e-08
-3.0805e-07
-4.35268e-08
-3.01297e-07
-5.97612e-08
-2.94584e-07
-7.54097e-08
-2.87927e-07
-9.04862e-08
-2.81345e-07
-1.05007e-07
-2.74852e-07
-1.18987e-07
-2.68465e-07
-1.32447e-07
-2.62199e-07
-1.45403e-07
-2.56068e-07
-1.57878e-07
-2.50084e-07
-1.69891e-07
-2.4426e-07
-1.81465e-07
-2.38606e-07
-1.92624e-07
-2.33132e-07
-2.03393e-07
-2.27846e-07
-2.13798e-07
-2.22755e-07
-2.23867e-07
-2.17868e-07
-2.33632e-07
-2.13191e-07
-2.43125e-07
-2.08733e-07
-2.52383e-07
-2.04503e-07
-2.61448e-07
-2.00512e-07
-2.70362e-07
-1.96775e-07
-2.79175e-07
-1.93311e-07
-2.87925e-07
-1.90165e-07
-2.9668e-07
-1.87378e-07
-3.05481e-07
-1.84933e-07
-3.14338e-07
-1.82969e-07
-3.23214e-07
-1.81583e-07
-3.32558e-07
-1.81382e-07
-3.4156e-07
-1.89577e-07
-3.514e-07
-1.98793e-07
-3.62161e-07
-2.09153e-07
-3.73929e-07
-2.20736e-07
-3.86796e-07
-2.33656e-07
-4.00851e-07
-2.48079e-07
-4.16191e-07
-2.64229e-07
-4.32916e-07
-2.82393e-07
-4.51133e-07
-3.0293e-07
-4.70947e-07
-3.26288e-07
-4.92467e-07
-3.5311e-07
-5.15909e-07
-3.83905e-07
-5.41628e-07
-4.18622e-07
-5.70149e-07
-4.56258e-07
-6.02154e-07
-4.9422e-07
-6.38234e-07
-5.28082e-07
-6.78407e-07
-5.52693e-07
-7.21757e-07
-5.6459e-07
-7.66669e-07
-5.63687e-07
-8.11481e-07
-5.52509e-07
-8.54922e-07
-5.34205e-07
-8.96185e-07
-5.11298e-07
-9.34826e-07
-4.85437e-07
-9.7063e-07
-4.57551e-07
-1.00352e-06
-4.28154e-07
-1.03348e-06
-3.9755e-07
-1.06053e-06
-3.65934e-07
-1.08472e-06
-3.33454e-07
-1.10609e-06
-3.0023e-07
-1.12472e-06
-2.66368e-07
-1.14066e-06
-2.31967e-07
-1.154e-06
-1.97117e-07
-1.16481e-06
-1.61899e-07
-1.17315e-06
-1.26381e-07
-1.17908e-06
-9.06112e-08
-1.18263e-06
-5.46219e-08
-1.8349e-08
6.57613e-07
-1.42379e-08
6.54877e-07
-4.249e-08
6.5034e-07
-7.04833e-08
6.44006e-07
-9.81708e-08
6.35879e-07
-1.25485e-07
6.25966e-07
-1.52353e-07
6.14275e-07
-1.7869e-07
6.00823e-07
-2.04404e-07
5.85633e-07
-2.29383e-07
5.68743e-07
-2.53492e-07
5.50205e-07
-2.76556e-07
5.30095e-07
-2.98352e-07
5.08511e-07
-3.18591e-07
4.85585e-07
-3.36913e-07
4.61482e-07
-3.52902e-07
4.36408e-07
-3.66125e-07
4.10597e-07
-3.76205e-07
3.84307e-07
-3.82928e-07
3.57795e-07
-3.86314e-07
3.31298e-07
-3.86654e-07
3.05015e-07
-3.84455e-07
2.79097e-07
-3.80334e-07
2.53653e-07
-3.749e-07
2.28748e-07
-3.68668e-07
2.04422e-07
-3.62024e-07
1.80694e-07
-3.55221e-07
1.57572e-07
-3.48409e-07
1.3506e-07
-3.41661e-07
1.13156e-07
-3.35002e-07
9.18586e-08
-3.28431e-07
7.11644e-08
-3.21935e-07
5.10694e-08
-3.15498e-07
3.15685e-08
-3.09113e-07
1.26552e-08
-3.02775e-07
-5.67759e-09
-2.9649e-07
-2.34384e-08
-2.90266e-07
-4.06352e-08
-2.84076e-07
-5.7277e-08
-2.77917e-07
-7.33745e-08
-2.71804e-07
-8.89402e-08
-2.65752e-07
-1.03988e-07
-2.59776e-07
-1.18534e-07
-2.5389e-07
-1.32595e-07
-2.48108e-07
-1.46188e-07
-2.42443e-07
-1.59335e-07
-2.36906e-07
-1.72056e-07
-2.31508e-07
-1.84372e-07
-2.26257e-07
-1.96308e-07
-2.21163e-07
-2.07889e-07
-2.16232e-07
-2.19142e-07
-2.1147e-07
-2.30093e-07
-2.06883e-07
-2.40775e-07
-2.02476e-07
-2.51219e-07
-1.98256e-07
-2.6146e-07
-1.94229e-07
-2.71536e-07
-1.90403e-07
-2.81487e-07
-1.86792e-07
-2.91356e-07
-1.8341e-07
-3.01185e-07
-1.80306e-07
-3.11026e-07
-1.77507e-07
-3.20924e-07
-1.75003e-07
-3.30908e-07
-1.72951e-07
-3.40935e-07
-1.71451e-07
-3.50742e-07
-1.72919e-07
-3.60186e-07
-1.80294e-07
-3.70491e-07
-1.88661e-07
-3.8169e-07
-1.98144e-07
-3.93841e-07
-2.08794e-07
-4.07016e-07
-2.20714e-07
-4.21287e-07
-2.34066e-07
-4.36732e-07
-2.49072e-07
-4.53429e-07
-2.66016e-07
-4.71465e-07
-2.85249e-07
-4.90918e-07
-3.07232e-07
-5.11885e-07
-3.32583e-07
-5.34579e-07
-3.61693e-07
-5.59339e-07
-3.94376e-07
-5.86665e-07
-4.29457e-07
-6.17187e-07
-4.64196e-07
-6.51429e-07
-4.94271e-07
-6.89361e-07
-5.1509e-07
-7.3013e-07
-5.24044e-07
-7.72327e-07
-5.21623e-07
-8.14548e-07
-5.10362e-07
-8.55727e-07
-4.93064e-07
-8.95173e-07
-4.71871e-07
-9.32478e-07
-4.48141e-07
-9.67403e-07
-4.2263e-07
-9.99804e-07
-3.95755e-07
-1.02959e-06
-3.6776e-07
-1.05673e-06
-3.38802e-07
-1.08118e-06
-3.09e-07
-1.10296e-06
-2.78452e-07
-1.12208e-06
-2.47251e-07
-1.13856e-06
-2.15485e-07
-1.15244e-06
-1.83238e-07
-1.16375e-06
-1.50589e-07
-1.17252e-06
-1.17608e-07
-1.17878e-06
-8.43482e-08
-1.18255e-06
-5.08531e-08
-1.70811e-08
6.57603e-07
-1.33075e-08
6.54823e-07
-3.97093e-08
6.50205e-07
-6.58655e-08
6.43764e-07
-9.17302e-08
6.35516e-07
-1.17237e-07
6.25478e-07
-1.42315e-07
6.13673e-07
-1.66885e-07
6.00128e-07
-1.90858e-07
5.84878e-07
-2.14133e-07
5.67969e-07
-2.36582e-07
5.49461e-07
-2.58046e-07
5.2943e-07
-2.78319e-07
5.07977e-07
-2.97134e-07
4.8523e-07
-3.14161e-07
4.61352e-07
-3.29016e-07
4.36539e-07
-3.41301e-07
4.11021e-07
-3.50672e-07
3.85043e-07
-3.56931e-07
3.5885e-07
-3.601e-07
3.32669e-07
-3.60448e-07
3.06689e-07
-3.58448e-07
2.81054e-07
-3.5467e-07
2.55865e-07
-3.4968e-07
2.31183e-07
-3.43956e-07
2.07045e-07
-3.37856e-07
1.83468e-07
-3.31615e-07
1.60457e-07
-3.2537e-07
1.38013e-07
-3.19189e-07
1.16133e-07
-3.13095e-07
9.48124e-08
-3.07085e-07
7.40483e-08
-3.01146e-07
5.38363e-08
-2.95263e-07
3.41712e-08
-2.89427e-07
1.50481e-08
-2.83632e-07
-3.53914e-09
-2.77884e-07
-2.15967e-08
-2.7219e-07
-3.91309e-08
-2.66522e-07
-5.61497e-08
-2.60877e-07
-7.26622e-08
-2.55269e-07
-8.86798e-08
-2.49711e-07
-1.04215e-07
-2.44216e-07
-1.19282e-07
-2.38798e-07
-1.33897e-07
-2.33467e-07
-1.48077e-07
-2.28236e-07
-1.6184e-07
-2.23115e-07
-1.75207e-07
-2.18113e-07
-1.88198e-07
-2.13237e-07
-2.00835e-07
-2.08496e-07
-2.13142e-07
-2.03894e-07
-2.25144e-07
-1.99437e-07
-2.36866e-07
-1.9513e-07
-2.48336e-07
-1.90975e-07
-2.59582e-07
-1.86979e-07
-2.70633e-07
-1.83145e-07
-2.81522e-07
-1.79482e-07
-2.92281e-07
-1.76e-07
-3.02945e-07
-1.72713e-07
-3.13547e-07
-1.6967e-07
-3.24134e-07
-1.66884e-07
-3.34747e-07
-1.64354e-07
-3.45451e-07
-1.62211e-07
-3.56256e-07
-1.60472e-07
-3.66246e-07
-1.63737e-07
-3.76291e-07
-1.70398e-07
-3.87103e-07
-1.7801e-07
-3.98734e-07
-1.8669e-07
-4.11242e-07
-1.96484e-07
-4.24687e-07
-2.0749e-07
-4.39134e-07
-2.19864e-07
-4.54653e-07
-2.33825e-07
-4.7132e-07
-2.4965e-07
-4.89224e-07
-2.67681e-07
-5.08441e-07
-2.88386e-07
-5.291e-07
-3.12334e-07
-5.51447e-07
-3.3979e-07
-5.75851e-07
-3.7044e-07
-6.02828e-07
-4.02949e-07
-6.32967e-07
-4.34493e-07
-6.66661e-07
-4.60944e-07
-7.03707e-07
-4.78319e-07
-7.43167e-07
-4.84766e-07
-7.83708e-07
-4.81189e-07
-8.24096e-07
-4.70033e-07
-8.63432e-07
-4.53758e-07
-9.01144e-07
-4.34174e-07
-9.36895e-07
-4.12397e-07
-9.70483e-07
-3.89045e-07
-1.00178e-06
-3.64458e-07
-1.03071e-06
-3.38837e-07
-1.0572e-06
-3.12313e-07
-1.08121e-06
-2.84985e-07
-1.10272e-06
-2.56941e-07
-1.12171e-06
-2.28261e-07
-1.13817e-06
-1.99024e-07
-1.1521e-06
-1.69309e-07
-1.1635e-06
-1.39191e-07
-1.17237e-06
-1.08736e-07
-1.17872e-06
-7.80013e-08
-1.18254e-06
-4.70319e-08
-1.57981e-08
6.57588e-07
-1.23619e-08
6.54769e-07
-3.68902e-08
6.50093e-07
-6.11896e-08
6.43578e-07
-8.5215e-08
6.35244e-07
-1.08904e-07
6.25117e-07
-1.32187e-07
6.13224e-07
-1.54992e-07
5.99602e-07
-1.77236e-07
5.84295e-07
-1.98824e-07
5.67354e-07
-2.19641e-07
5.48846e-07
-2.39538e-07
5.28855e-07
-2.58326e-07
5.07484e-07
-2.75761e-07
4.84864e-07
-2.91537e-07
4.61155e-07
-3.05302e-07
4.36551e-07
-3.16689e-07
4.11269e-07
-3.2538e-07
3.85545e-07
-3.31193e-07
3.59613e-07
-3.3415e-07
3.33685e-07
-3.34501e-07
3.07943e-07
-3.32683e-07
2.82522e-07
-3.29225e-07
2.57518e-07
-3.24651e-07
2.32989e-07
-3.19403e-07
2.08971e-07
-3.13813e-07
1.85478e-07
-3.08097e-07
1.62515e-07
-3.02383e-07
1.40081e-07
-2.96733e-07
1.18173e-07
-2.91166e-07
9.67876e-08
-2.85679e-07
7.59199e-08
-2.80259e-07
5.55665e-08
-2.74892e-07
3.57237e-08
-2.69567e-07
1.63868e-08
-2.64279e-07
-2.44936e-09
-2.59033e-07
-2.07909e-08
-2.53833e-07
-3.86436e-08
-2.48653e-07
-5.6014e-08
-2.43489e-07
-7.29103e-08
-2.38354e-07
-8.93424e-08
-2.33259e-07
-1.05322e-07
-2.28216e-07
-1.20861e-07
-2.23237e-07
-1.35975e-07
-2.18331e-07
-1.50679e-07
-2.13509e-07
-1.64991e-07
-2.08779e-07
-1.78927e-07
-2.04151e-07
-1.92509e-07
-1.99631e-07
-2.05755e-07
-1.95224e-07
-2.18687e-07
-1.90935e-07
-2.31327e-07
-1.8677e-07
-2.43698e-07
-1.8273e-07
-2.55823e-07
-1.78821e-07
-2.67728e-07
-1.75044e-07
-2.79438e-07
-1.71405e-07
-2.90978e-07
-1.6791e-07
-3.02375e-07
-1.64567e-07
-3.13658e-07
-1.61391e-07
-3.24854e-07
-1.58432e-07
-3.35995e-07
-1.55689e-07
-3.47109e-07
-1.53173e-07
-3.58229e-07
-1.51014e-07
-3.68893e-07
-1.49231e-07
-3.7912e-07
-1.53745e-07
-3.89834e-07
-1.59771e-07
-4.01203e-07
-1.6675e-07
-4.13292e-07
-1.74738e-07
-4.26167e-07
-1.83773e-07
-4.39896e-07
-1.93953e-07
-4.54548e-07
-2.05431e-07
-4.702e-07
-2.18421e-07
-4.86935e-07
-2.33192e-07
-5.04849e-07
-2.50075e-07
-5.24035e-07
-2.69541e-07
-5.44655e-07
-2.9209e-07
-5.66967e-07
-3.17882e-07
-5.91339e-07
-3.46488e-07
-6.18248e-07
-3.76455e-07
-6.48182e-07
-4.04937e-07
-6.81377e-07
-4.2806e-07
-7.17504e-07
-4.4242e-07
-7.55632e-07
-4.46786e-07
-7.94575e-07
-4.42331e-07
-8.33284e-07
-4.3137e-07
-8.71005e-07
-4.16062e-07
-9.07247e-07
-3.97942e-07
-9.4171e-07
-3.77939e-07
-9.74199e-07
-3.56559e-07
-1.00458e-06
-3.34079e-07
-1.03275e-06
-3.10664e-07
-1.05865e-06
-2.86421e-07
-1.0822e-06
-2.61433e-07
-1.10336e-06
-2.35776e-07
-1.1221e-06
-2.09519e-07
-1.1384e-06
-1.82733e-07
-1.15222e-06
-1.55489e-07
-1.16355e-06
-1.27856e-07
-1.17239e-06
-9.98978e-08
-1.17872e-06
-7.16689e-08
-1.18254e-06
-4.32155e-08
-1.45154e-08
6.57585e-07
-1.14129e-08
6.54752e-07
-3.40578e-08
6.50054e-07
-5.64913e-08
6.4351e-07
-7.8671e-08
6.35144e-07
-1.00538e-07
6.24985e-07
-1.22028e-07
6.13066e-07
-1.43073e-07
5.99427e-07
-1.63597e-07
5.84115e-07
-1.83513e-07
5.67187e-07
-2.02712e-07
5.48712e-07
-2.21062e-07
5.28773e-07
-2.38386e-07
5.07475e-07
-2.54461e-07
4.84948e-07
-2.69008e-07
4.6135e-07
-2.81701e-07
4.36869e-07
-2.92203e-07
4.11721e-07
-3.00225e-07
3.86135e-07
-3.05598e-07
3.60339e-07
-3.08343e-07
3.34543e-07
-3.08692e-07
3.08922e-07
-3.07047e-07
2.83609e-07
-3.03895e-07
2.58694e-07
-2.99719e-07
2.34236e-07
-2.94928e-07
2.10266e-07
-2.89824e-07
1.86796e-07
-2.84609e-07
1.6383e-07
-2.794e-07
1.41366e-07
-2.74253e-07
1.194e-07
-2.69184e-07
9.79281e-08
-2.64191e-07
7.69446e-08
-2.59261e-07
5.64459e-08
-2.54379e-07
3.6428e-08
-2.49535e-07
1.68865e-08
-2.44725e-07
-2.18367e-09
-2.39951e-07
-2.07882e-08
-2.35216e-07
-3.8932e-08
-2.30496e-07
-5.66207e-08
-2.25786e-07
-7.38615e-08
-2.21098e-07
-9.06628e-08
-2.16442e-07
-1.07035e-07
-2.11827e-07
-1.22989e-07
-2.07264e-07
-1.38538e-07
-2.02763e-07
-1.53696e-07
-1.98331e-07
-1.68478e-07
-1.93977e-07
-1.829e-07
-1.89707e-07
-1.96979e-07
-1.85529e-07
-2.10733e-07
-1.81446e-07
-2.24182e-07
-1.77463e-07
-2.37343e-07
-1.73584e-07
-2.50238e-07
-1.69811e-07
-2.62886e-07
-1.66147e-07
-2.75308e-07
-1.62595e-07
-2.87526e-07
-1.59158e-07
-2.99562e-07
-1.55842e-07
-3.11439e-07
-1.52652e-07
-3.23183e-07
-1.49598e-07
-3.34822e-07
-1.46728e-07
-3.46424e-07
-1.43996e-07
-3.58031e-07
-1.41426e-07
-3.69774e-07
-1.39042e-07
-3.7786e-07
-1.37039e-07
-3.89278e-07
-1.42179e-07
-4.00897e-07
-1.48117e-07
-4.12914e-07
-1.54774e-07
-4.2549e-07
-1.62255e-07
-4.38739e-07
-1.70657e-07
-4.52756e-07
-1.80102e-07
-4.67629e-07
-1.90753e-07
-4.83451e-07
-2.02823e-07
-5.00318e-07
-2.16576e-07
-5.18339e-07
-2.32334e-07
-5.37631e-07
-2.50559e-07
-5.58384e-07
-2.71677e-07
-5.80873e-07
-2.95755e-07
-6.05464e-07
-3.2227e-07
-6.32592e-07
-3.49689e-07
-6.62646e-07
-3.75208e-07
-6.9571e-07
-3.95257e-07
-7.31329e-07
-4.06988e-07
-7.6856e-07
-4.09675e-07
-8.06315e-07
-4.04645e-07
-8.43683e-07
-3.94039e-07
-8.80025e-07
-3.79738e-07
-9.14933e-07
-3.63044e-07
-9.4815e-07
-3.44726e-07
-9.79508e-07
-3.25203e-07
-1.00888e-06
-3.04705e-07
-1.03618e-06
-2.83367e-07
-1.06132e-06
-2.61279e-07
-1.08424e-06
-2.38512e-07
-1.10489e-06
-2.15131e-07
-1.12321e-06
-1.91198e-07
-1.13917e-06
-1.66776e-07
-1.15273e-06
-1.41927e-07
-1.16387e-06
-1.16717e-07
-1.17256e-06
-9.12014e-08
-1.1788e-06
-6.54331e-08
-1.18256e-06
-3.9456e-08
-1.32521e-08
6.57582e-07
-1.04611e-08
6.54742e-07
-3.12183e-08
6.50033e-07
-5.1782e-08
6.43475e-07
-7.2113e-08
6.35094e-07
-9.21566e-08
6.2492e-07
-1.11854e-07
6.1299e-07
-1.31143e-07
5.99345e-07
-1.49952e-07
5.84035e-07
-1.68203e-07
5.67119e-07
-1.85796e-07
5.48667e-07
-2.0261e-07
5.28765e-07
-2.18484e-07
5.07517e-07
-2.33214e-07
4.85054e-07
-2.46544e-07
4.61532e-07
-2.58177e-07
4.37137e-07
-2.67806e-07
4.12079e-07
-2.75164e-07
3.86585e-07
-2.80099e-07
3.60879e-07
-2.8263e-07
3.35164e-07
-2.8297e-07
3.09614e-07
-2.81487e-07
2.84357e-07
-2.78628e-07
2.59485e-07
-2.74835e-07
2.35051e-07
-2.70483e-07
2.11087e-07
-2.65848e-07
1.87604e-07
-2.61114e-07
1.64605e-07
-2.56389e-07
1.42087e-07
-2.51722e-07
1.20044e-07
-2.4713e-07
9.84722e-08
-2.42607e-07
7.73654e-08
-2.38143e-07
5.67197e-08
-2.33722e-07
3.6531e-08
-2.29336e-07
1.67951e-08
-2.24979e-07
-2.49272e-09
-2.20653e-07
-2.13378e-08
-2.16362e-07
-3.97444e-08
-2.12079e-07
-5.77171e-08
-2.07802e-07
-7.5262e-08
-2.03541e-07
-9.23864e-08
-1.99304e-07
-1.09099e-07
-1.951e-07
-1.2541e-07
-1.90938e-07
-1.4133e-07
-1.86826e-07
-1.56871e-07
-1.82772e-07
-1.72047e-07
-1.78783e-07
-1.86871e-07
-1.74864e-07
-2.01359e-07
-1.71021e-07
-2.15527e-07
-1.67259e-07
-2.29389e-07
-1.6358e-07
-2.42963e-07
-1.59989e-07
-2.56264e-07
-1.56487e-07
-2.69311e-07
-1.53078e-07
-2.82118e-07
-1.49765e-07
-2.94702e-07
-1.46551e-07
-3.07078e-07
-1.43443e-07
-3.19259e-07
-1.40448e-07
-3.31249e-07
-1.37582e-07
-3.4305e-07
-1.34895e-07
-3.54674e-07
-1.32338e-07
-3.66077e-07
-1.29989e-07
-3.77204e-07
-1.27889e-07
-3.88078e-07
-1.26266e-07
-3.99254e-07
-1.31028e-07
-4.1091e-07
-1.36513e-07
-4.23093e-07
-1.42671e-07
-4.3588e-07
-1.49576e-07
-4.49352e-07
-1.5732e-07
-4.63586e-07
-1.66025e-07
-4.78668e-07
-1.75853e-07
-4.94689e-07
-1.87008e-07
-5.11752e-07
-1.99742e-07
-5.29974e-07
-2.14366e-07
-5.49495e-07
-2.31318e-07
-5.70526e-07
-2.5095e-07
-5.93349e-07
-2.73254e-07
-6.1831e-07
-2.97636e-07
-6.45785e-07
-3.22528e-07
-6.76046e-07
-3.45224e-07
-7.09033e-07
-3.62489e-07
-7.44198e-07
-3.71976e-07
-7.8062e-07
-3.73349e-07
-8.17324e-07
-3.67996e-07
-8.53522e-07
-3.5787e-07
-8.88674e-07
-3.44601e-07
-9.2243e-07
-3.29295e-07
-9.54566e-07
-3.12594e-07
-9.84927e-07
-2.94843e-07
-1.0134e-06
-2.76234e-07
-1.03989e-06
-2.56878e-07
-1.06431e-06
-2.36852e-07
-1.08661e-06
-2.16217e-07
-1.10671e-06
-1.95026e-07
-1.12458e-06
-1.73336e-07
-1.14015e-06
-1.51201e-07
-1.1534e-06
-1.28679e-07
-1.16429e-06
-1.05825e-07
-1.1728e-06
-8.26928e-08
-1.1789e-06
-5.93291e-08
-1.18258e-06
-3.57749e-08
-1.20149e-08
6.57582e-07
-9.50911e-09
6.54741e-07
-2.83775e-08
6.5003e-07
-4.70706e-08
6.43469e-07
-6.55525e-08
6.35086e-07
-8.37734e-08
6.24912e-07
-1.0168e-07
6.12983e-07
-1.19214e-07
5.99344e-07
-1.36313e-07
5.84044e-07
-1.52903e-07
5.67144e-07
-1.68896e-07
5.48714e-07
-1.8418e-07
5.28841e-07
-1.98611e-07
5.07629e-07
-2.12002e-07
4.85207e-07
-2.24121e-07
4.6173e-07
-2.347e-07
4.37383e-07
-2.43458e-07
4.12374e-07
-2.50154e-07
3.86926e-07
-2.5465e-07
3.61261e-07
-2.56964e-07
3.35583e-07
-2.57289e-07
3.1006e-07
-2.5596e-07
2.84821e-07
-2.53384e-07
2.59954e-07
-2.49963e-07
2.35514e-07
-2.46036e-07
2.1153e-07
-2.41856e-07
1.88012e-07
-2.37588e-07
1.64961e-07
-2.3333e-07
1.42375e-07
-2.29127e-07
1.20246e-07
-2.24993e-07
9.85702e-08
-2.20923e-07
7.73408e-08
-2.16905e-07
5.65538e-08
-2.12927e-07
3.6205e-08
-2.08979e-07
1.62904e-08
-2.05057e-07
-3.19443e-09
-2.01161e-07
-2.22543e-08
-1.97294e-07
-4.08928e-08
-1.93432e-07
-5.91136e-08
-1.89572e-07
-7.69217e-08
-1.85723e-07
-9.43232e-08
-1.81892e-07
-1.11325e-07
-1.78086e-07
-1.27937e-07
-1.74314e-07
-1.44167e-07
-1.70583e-07
-1.60026e-07
-1.66899e-07
-1.75525e-07
-1.63268e-07
-1.90677e-07
-1.59696e-07
-2.05494e-07
-1.56187e-07
-2.1999e-07
-1.52746e-07
-2.34178e-07
-1.49374e-07
-2.48072e-07
-1.46077e-07
-2.61686e-07
-1.42854e-07
-2.75034e-07
-1.39711e-07
-2.88131e-07
-1.36649e-07
-3.00989e-07
-1.33673e-07
-3.1362e-07
-1.30791e-07
-3.26037e-07
-1.2801e-07
-3.38244e-07
-1.25357e-07
-3.50258e-07
-1.22869e-07
-3.62072e-07
-1.20516e-07
-3.73661e-07
-1.18403e-07
-3.84962e-07
-1.16613e-07
-3.96376e-07
-1.15581e-07
-4.07584e-07
-1.19897e-07
-4.19337e-07
-1.24849e-07
-4.31669e-07
-1.30442e-07
-4.44633e-07
-1.3673e-07
-4.58295e-07
-1.43793e-07
-4.72727e-07
-1.51745e-07
-4.88012e-07
-1.60738e-07
-5.04242e-07
-1.70966e-07
-5.2153e-07
-1.82663e-07
-5.4e-07
-1.96124e-07
-5.59812e-07
-2.11756e-07
-5.81192e-07
-2.29839e-07
-6.04424e-07
-2.50306e-07
-6.2983e-07
-2.72516e-07
-6.5772e-07
-2.94907e-07
-6.88254e-07
-3.14924e-07
-7.21247e-07
-3.29679e-07
-7.56077e-07
-3.37271e-07
-7.91852e-07
-3.37652e-07
-8.27689e-07
-3.32203e-07
-8.62905e-07
-3.22679e-07
-8.97034e-07
-3.10484e-07
-9.29778e-07
-2.96556e-07
-9.60944e-07
-2.81431e-07
-9.90393e-07
-2.65395e-07
-1.01802e-06
-2.48608e-07
-1.04374e-06
-2.31163e-07
-1.06746e-06
-2.13125e-07
-1.08914e-06
-1.94545e-07
-1.10869e-06
-1.75471e-07
-1.12608e-06
-1.55951e-07
-1.14124e-06
-1.36034e-07
-1.15415e-06
-1.15769e-07
-1.16477e-06
-9.52072e-08
-1.17307e-06
-7.43949e-08
-1.17902e-06
-5.33747e-08
-1.18261e-06
-3.21837e-08
-1.0808e-08
6.57582e-07
-8.55727e-09
6.54742e-07
-2.55373e-08
6.50031e-07
-4.236e-08
6.43472e-07
-5.89933e-08
6.35091e-07
-7.53922e-08
6.24919e-07
-9.15083e-08
6.12995e-07
-1.0729e-07
5.99362e-07
-1.2268e-07
5.84071e-07
-1.37613e-07
5.67183e-07
-1.52008e-07
5.48768e-07
-1.65766e-07
5.28913e-07
-1.78757e-07
5.07722e-07
-1.90812e-07
4.85324e-07
-2.01724e-07
4.61871e-07
-2.11249e-07
4.37549e-07
-2.19137e-07
4.12564e-07
-2.25171e-07
3.87138e-07
-2.29225e-07
3.6149e-07
-2.31318e-07
3.35823e-07
-2.31622e-07
3.10303e-07
-2.3044e-07
2.8506e-07
-2.28139e-07
2.60179e-07
-2.25081e-07
2.35715e-07
-2.21569e-07
2.11694e-07
-2.17832e-07
1.88128e-07
-2.14018e-07
1.65017e-07
-2.10215e-07
1.42357e-07
-2.06461e-07
1.2014e-07
-2.02771e-07
9.83613e-08
-1.99138e-07
7.70146e-08
-1.95553e-07
5.60956e-08
-1.92002e-07
3.56001e-08
-1.88478e-07
1.55245e-08
-1.84976e-07
-4.13542e-09
-1.81496e-07
-2.3384e-08
-1.7804e-07
-4.22239e-08
-1.74585e-07
-6.06582e-08
-1.71131e-07
-7.86907e-08
-1.67682e-07
-9.63263e-08
-1.64247e-07
-1.13571e-07
-1.60832e-07
-1.30432e-07
-1.57442e-07
-1.46917e-07
-1.54086e-07
-1.63035e-07
-1.50768e-07
-1.78796e-07
-1.47494e-07
-1.94209e-07
-1.44269e-07
-2.09285e-07
-1.41096e-07
-2.24036e-07
-1.37979e-07
-2.38473e-07
-1.34922e-07
-2.52607e-07
-1.31926e-07
-2.66451e-07
-1.28994e-07
-2.80017e-07
-1.26129e-07
-2.93315e-07
-1.23334e-07
-3.06358e-07
-1.20613e-07
-3.19157e-07
-1.17974e-07
-3.31724e-07
-1.15426e-07
-3.44071e-07
-1.12994e-07
-3.56213e-07
-1.1071e-07
-3.68159e-07
-1.08552e-07
-3.79915e-07
-1.06624e-07
-3.9144e-07
-1.05014e-07
-4.03069e-07
-1.04765e-07
-4.14445e-07
-1.08611e-07
-4.26364e-07
-1.13028e-07
-4.38866e-07
-1.18047e-07
-4.52006e-07
-1.23707e-07
-4.65849e-07
-1.30079e-07
-4.80468e-07
-1.37267e-07
-4.9595e-07
-1.45412e-07
-5.12392e-07
-1.54694e-07
-5.29916e-07
-1.65326e-07
-5.48656e-07
-1.77588e-07
-5.68789e-07
-1.91845e-07
-5.90551e-07
-2.08315e-07
-6.14219e-07
-2.26885e-07
-6.40088e-07
-2.46894e-07
-6.68399e-07
-2.66827e-07
-6.99203e-07
-2.84317e-07
-7.32207e-07
-2.96825e-07
-7.66744e-07
-3.02837e-07
-8.01956e-07
-3.02503e-07
-8.37047e-07
-2.97148e-07
-8.71419e-07
-2.88325e-07
-9.04671e-07
-2.77241e-07
-9.36544e-07
-2.64688e-07
-9.66867e-07
-2.5111e-07
-9.95515e-07
-2.36748e-07
-1.02239e-06
-2.21734e-07
-1.04741e-06
-2.06145e-07
-1.0705e-06
-1.90036e-07
-1.09159e-06
-1.73452e-07
-1.11063e-06
-1.56433e-07
-1.12756e-06
-1.39022e-07
-1.14233e-06
-1.2126e-07
-1.15491e-06
-1.03192e-07
-1.16525e-06
-8.48608e-08
-1.17334e-06
-6.6308e-08
-1.17914e-06
-4.75712e-08
-1.18265e-06
-2.86833e-08
-9.6317e-09
6.57582e-07
-7.60594e-09
6.54744e-07
-2.26985e-08
6.50035e-07
-3.76515e-08
6.43479e-07
-5.24368e-08
6.35101e-07
-6.70142e-08
6.24933e-07
-8.13408e-08
6.13014e-07
-9.53706e-08
5.99386e-07
-1.09053e-07
5.84102e-07
-1.22329e-07
5.67222e-07
-1.35128e-07
5.48816e-07
-1.47361e-07
5.2897e-07
-1.58912e-07
5.07789e-07
-1.69632e-07
4.85401e-07
-1.79336e-07
4.61958e-07
-1.87809e-07
4.37644e-07
-1.94826e-07
4.12664e-07
-2.00195e-07
3.87241e-07
-2.03806e-07
3.61592e-07
-2.05673e-07
3.35918e-07
-2.05952e-07
3.10387e-07
-2.04912e-07
2.85125e-07
-2.0288e-07
2.60218e-07
-2.00175e-07
2.3572e-07
-1.97071e-07
2.11656e-07
-1.93768e-07
1.88037e-07
-1.90398e-07
1.64863e-07
-1.87038e-07
1.42128e-07
-1.83724e-07
1.19826e-07
-1.80466e-07
9.79507e-08
-1.77259e-07
7.64958e-08
-1.74094e-07
5.54571e-08
-1.7096e-07
3.48306e-08
-1.67848e-07
1.46129e-08
-1.64754e-07
-5.19966e-09
-1.6168e-07
-2.46111e-08
-1.58624e-07
-4.36235e-08
-1.55568e-07
-6.22388e-08
-1.5251e-07
-8.046e-08
-1.49455e-07
-9.8291e-08
-1.46409e-07
-1.15737e-07
-1.43378e-07
-1.32803e-07
-1.40368e-07
-1.49496e-07
-1.37383e-07
-1.65823e-07
-1.34431e-07
-1.81792e-07
-1.31514e-07
-1.97413e-07
-1.28637e-07
-2.12693e-07
-1.25803e-07
-2.27642e-07
-1.23017e-07
-2.42271e-07
-1.2028e-07
-2.56587e-07
-1.17595e-07
-2.70603e-07
-1.14964e-07
-2.84327e-07
-1.1239e-07
-2.9777e-07
-1.09876e-07
-3.10942e-07
-1.07426e-07
-3.23853e-07
-1.05047e-07
-3.36516e-07
-1.02748e-07
-3.48944e-07
-1.00552e-07
-3.61154e-07
-9.8485e-08