/*--------------------------------*- C++ -*----------------------------------*\
  =========                 |
  \\      /  F ield         | OpenFOAM: The Open Source CFD Toolbox
   \\    /   O peration     | Website:  https://openfoam.org
    \\  /    A nd           | Version:  8
     \\/     M anipulation  |
\*---------------------------------------------------------------------------*/
FoamFile
{
    version     2.0;
    format      ascii;
    class       volScalarField;
    location    "400/fluid";
    object      Qdot;
}
// * * * * * * * * * * * * * * * * * * * * * * * * * * * * * * * * * * * * * //

dimensions      [1 -1 -3 0 0 0 0];

internalField   nonuniform List<scalar> 
4000
(
-4.87906e-18
2.78904e-07
0
0
-7.79898e-12
-3.00877e-12
3.3682e-07
0
0
0
3.71081e-07
0
-3.82992e-07
0
-1.24394e-09
-2.1467e-17
-2.07302e-09
-1.70683e-15
1.89523e-08
1.53546e-07
1.94454e-06
2.73219e-05
0.000326752
0.00333157
0.0279837
0.192254
1.0869
5.1209
20.4215
70.0375
209.676
555.145
1313.9
2805.25
5454.88
9752.26
16213.6
25386.4
37943.3
54743.8
77085.8
106906
146596
199332
269336
362276
485672
649438
866548
1.15396e+06
1.53378e+06
2.0349e+06
2.69498e+06
3.56327e+06
4.70416e+06
6.20218e+06
8.1687e+06
1.07514e+07
1.40719e+07
1.84338e+07
2.43384e+07
3.21855e+07
3.30308e+08
1.19867e+08
2.75495e+07
1.96626e+07
1.38388e+07
9.58818e+06
6.52737e+06
4.35797e+06
2.84985e+06
1.82758e+06
1.16026e+06
753261
322964
38611.6
1401.03
23.6317
0.235434
0.00209043
2.89907e-05
9.59936e-07
8.20683e-08
1.47071e-08
4.13615e-09
1.36882e-09
6.05564e-10
2.25874e-10
9.8112e-11
4.49217e-11
1.98844e-11
1.38465e-11
1.94161e-12
6.46664e-12
5.14943e-13
2.14311e-13
8.0582e-14
3.38008e-14
5.25864e-12
1.97859e-15
0
-1.56081e-12
2.92426e-12
0
7.74441e-12
0
5.61388e-20
6.75429e-11
0
-2.55556e-10
-2.86661e-10
0
4.795e-10
-2.03354e-18
3.82012e-07
-2.07887e-17
4.47323e-09
-1.78013e-15
9.17741e-09
1.48812e-07
1.94297e-06
2.67021e-05
0.000321864
0.00328768
0.0277018
0.191327
1.08868
5.16504
20.7409
71.6065
215.698
574.276
1365.78
2925.93
5698.34
10198.6
16948.8
26461.6
39347.4
56539.6
79531.6
110036
150476
204102
275246
369726
495256
662006
883304
1.1766e+06
1.56472e+06
2.07751e+06
2.75398e+06
3.64519e+06
4.81796e+06
6.35998e+06
8.38663e+06
1.10506e+07
1.44702e+07
1.89714e+07
2.50492e+07
3.30994e+07
3.79939e+08
6.93301e+07
2.69978e+07
1.90924e+07
1.33407e+07
9.18637e+06
6.21835e+06
4.12847e+06
2.68459e+06
1.71263e+06
1.08425e+06
703854
237124
22540.1
672.664
9.79127
0.0907858
0.000852949
1.41489e-05
5.87075e-07
5.93847e-08
1.18245e-08
3.36129e-09
1.38057e-09
4.89098e-10
2.34369e-10
1.09849e-10
4.03585e-11
1.65836e-11
8.29529e-12
2.80497e-12
1.3979e-12
4.81274e-13
2.13112e-13
8.03538e-14
3.2078e-14
1.08899e-14
1.98261e-15
0
-1.59757e-13
8.48268e-17
-6.02451e-12
1.81752e-16
-1.57499e-11
0
-1.12739e-19
0
-3.25775e-15
-2.78197e-10
3.56426e-07
-4.63352e-10
-3.63367e-07
3.67875e-07
1.9096e-09
-1.94247e-16
-1.8843e-15
3.96072e-09
-3.77592e-08
2.02448e-06
2.73131e-05
0.000328629
0.00334565
0.0282153
0.195487
1.11764
5.33298
21.5498
74.8829
227.04
608.214
1454.43
3128.33
6097.64
10891.1
18040.2
28074.1
41737
60012.2
84132.8
115937
157927
213482
287135
384976
515080
688113
918108
1.22352e+06
1.62862e+06
2.16532e+06
2.8756e+06
3.81469e+06
5.05522e+06
6.69269e+06
8.85259e+06
1.16986e+07
1.53523e+07
2.02756e+07
2.67397e+07
3.51733e+07
4.40951e+08
3.49633e+07
2.49988e+07
1.76704e+07
1.23218e+07
8.4573e+06
5.70058e+06
3.76565e+06
2.43544e+06
1.54671e+06
979320
622789
160564
11113
280.648
3.70868
0.0345345
0.000368991
7.55698e-06
3.87816e-07
4.58627e-08
9.7664e-09
3.14196e-09
1.26817e-09
4.72515e-10
2.10848e-10
9.21492e-11
3.56945e-11
1.69864e-11
6.85176e-12
3.19127e-12
2.13316e-12
5.05417e-13
2.11648e-13
9.25958e-14
3.23575e-14
1.09048e-14
1.89007e-15
4.86241e-18
1.549e-12
2.88742e-12
0
0
2.81964e-11
0
0
0
-1.092e-10
2.71829e-10
-3.47128e-07
4.51266e-10
-3.53371e-07
-1.12822e-09
-3.10625e-17
-2.11794e-16
-1.99946e-15
8.54566e-09
-3.26516e-08
1.71865e-06
2.83765e-05
0.000338653
0.00345729
0.0292487
0.203561
1.17002
5.61518
22.8224
79.7522
243.035
653.855
1568.09
3377.09
6572.03
11742.4
19508
30468.6
45217
64670.4
90184.4
123639
167649
225762
302768
405083
541236
722513
963841
1.28497e+06
1.71207e+06
2.2799e+06
3.03466e+06
4.03801e+06
5.37236e+06
7.14837e+06
9.5153e+06
1.26556e+07
1.67924e+07
2.24757e+07
3.01066e+07
4.03647e+07
4.28324e+08
3.1802e+07
2.27962e+07
1.61192e+07
1.12242e+07
7.68182e+06
5.15711e+06
3.39044e+06
2.18252e+06
1.3827e+06
880341
516117
97976.7
5100.72
110.642
1.34188
0.0127118
0.00015577
3.94068e-06
2.4782e-07
3.47206e-08
8.51892e-09
2.85316e-09
1.02362e-09
4.38202e-10
2.06901e-10
9.05285e-11
4.05679e-11
9.21122e-12
8.02484e-12
2.73087e-12
1.05118e-12
4.73948e-13
1.85459e-13
6.75281e-14
2.76677e-14
9.45505e-15
5.06224e-12
0
2.75147e-07
6.01272e-21
0
0
1.24769e-11
1.0684e-19
-1.08791e-19
-1.53887e-15
-2.37982e-10
0
0
0
0
1.09372e-09
-2.63183e-17
-3.51375e-07
3.55152e-07
8.25641e-09
3.57757e-07
2.03791e-06
2.95753e-05
0.000355317
0.00363301
0.0308225
0.215296
1.2427
5.99034
24.44
85.7086
261.978
706.198
1703.26
3696.73
7257.67
12986.5
21537.4
33447.4
49347.6
70152.9
97236.5
132555
178858
239881
320679
427999
570805
760969
1.01423e+06
1.35147e+06
1.80048e+06
2.39832e+06
3.19454e+06
4.2556e+06
5.67105e+06
7.56212e+06
1.0094e+07
1.3453e+07
1.7909e+07
2.41154e+07
3.25724e+07
1.00855e+08
3.6123e+08
3.0119e+07
2.14594e+07
1.50823e+07
1.04366e+07
7.09625e+06
4.73194e+06
3.09026e+06
1.97806e+06
1.25072e+06
803348
399429
56042.6
2308.92
43.9421
0.501289
0.00496609
7.09425e-05
2.20791e-06
1.6671e-07
2.65541e-08
7.07485e-09
2.48625e-09
9.37741e-10
3.99254e-10
1.75466e-10
7.44793e-11
3.54543e-11
1.40322e-11
4.98462e-12
2.37887e-12
1.02182e-13
1.24676e-12
1.84932e-13
6.7533e-14
2.77185e-14
9.16105e-15
-5.05365e-12
-3.70132e-13
0
8.32324e-17
1.71392e-16
2.52405e-20
3.5955e-16
0
0
0
4.38142e-19
0
0
5.25192e-10
-3.34451e-07
-3.62267e-18
-2.91715e-17
-5.14378e-14
-2.21189e-15
1.59652e-08
3.58146e-07
2.36715e-06
3.10684e-05
0.000375416
0.00384704
0.0327426
0.229456
1.32858
6.42316
26.2992
92.8945
286.77
783.416
1904.16
4146.18
8119.56
14465
23883.6
36879.5
54063.2
76355.6
105157
142521
191351
255584
340540
453281
603173
802592
1.06793e+06
1.42094e+06
1.89049e+06
2.51501e+06
3.34573e+06
4.45108e+06
5.92267e+06
7.88345e+06
1.0499e+07
1.39455e+07
1.84841e+07
2.47302e+07
3.31032e+07
2.41149e+08
2.3497e+08
2.9493e+07
2.07907e+07
1.44674e+07
9.91662e+06
6.68148e+06
4.41649e+06
2.86085e+06
1.81926e+06
1.14795e+06
742894
280940
31078.6
1058.73
17.9801
0.196375
0.00206362
3.44082e-05
1.30074e-06
1.17172e-07
2.09673e-08
5.73014e-09
2.12311e-09
8.76314e-10
3.40011e-10
1.3878e-10
7.04969e-11
3.32117e-11
1.22076e-11
5.32717e-12
2.4757e-12
9.81243e-13
3.90725e-13
1.70729e-13
6.47949e-14
2.17495e-14
8.79196e-15
-5.04847e-12
2.63667e-07
-2.00501e-17
2.83151e-12
0
-1.73863e-16
1.21479e-11
0
3.11341e-07
0
1.02291e-10
0
0
3.2339e-07
0
-3.51565e-18
-3.53382e-17
-1.69727e-09
-2.34655e-15
7.70963e-09
3.68977e-07
2.33841e-06
3.28966e-05
0.000397646
0.00409048
0.0349973
0.246865
1.44106
7.03844
29.1877
103.89
322.206
881.516
2146.52
4676.35
9133.46
16184.5
26577.8
40769.7
59343.1
83230.5
113875
153459
205049
272821
362364
481084
638760
848305
1.12679e+06
1.49682e+06
1.98836e+06
2.64116e+06
3.50805e+06
4.65929e+06
6.1885e+06
8.22068e+06
1.0921e+07
1.44509e+07
1.90969e+07
2.54851e+07
3.40305e+07
3.47371e+08
1.27981e+08
2.87769e+07
2.01148e+07
1.38777e+07
9.43218e+06
6.30274e+06
4.13319e+06
2.65792e+06
1.68071e+06
1.05922e+06
682013
203781
17027.3
497.999
7.69814
0.0821419
0.000929192
1.80913e-05
8.17996e-07
8.5918e-08
1.70785e-08
4.84055e-09
1.88066e-09
8.1653e-10
3.64047e-10
1.44233e-10
7.02628e-11
2.71453e-11
1.20864e-11
5.05479e-12
2.04851e-12
8.28999e-13
3.89258e-13
1.46858e-13
5.86952e-14
2.18119e-14
-5.15163e-12
1.39907e-15
0
1.99684e-17
0
-2.86453e-07
-1.71916e-16
2.74535e-12
0
-3.05922e-07
-3.08742e-07
3.11026e-07
4.48592e-10
0
0
1.7012e-18
-6.82224e-18
-3.42357e-17
2.01816e-09
4.06546e-09
1.82168e-08
4.26791e-08
2.75096e-06
3.61897e-05
0.000437788
0.00452048
0.038824
0.274881
1.61
7.88348
32.7191
116.776
363.347
997.066
2433.05
5300.95
10315.3
18160.9
29630.1
45110.5
65157.9
90712.5
123297
165243
219809
291426
385987
511280
677568
898403
1.19169e+06
1.58114e+06
2.09815e+06
2.78435e+06
3.69495e+06
4.9032e+06
6.50634e+06
8.63353e+06
1.14497e+07
1.51172e+07
1.99601e+07
2.65583e+07
3.52927e+07
4.51612e+08
3.92223e+07
2.74455e+07
1.90303e+07
1.30422e+07
8.8127e+06
5.85749e+06
3.82244e+06
2.44787e+06
1.54436e+06
976095
608650
144542
9473.8
244.622
3.50426
0.037134
0.000455791
1.02922e-05
5.44266e-07
6.49557e-08
1.41689e-08
4.6028e-09
1.70318e-09
6.98023e-10
3.05067e-10
1.29506e-10
5.93467e-11
2.44284e-11
1.03465e-11
-7.26482e-13
1.83323e-12
8.24802e-13
-5.0848e-12
5.52512e-12
-5.26457e-12
2.03648e-14
7.38526e-15
1.22777e-15
3.68567e-13
0
-3.43427e-12
-2.83874e-07
0
-1.45318e-11
0
-1.4126e-15
1.42301e-15
0
1.96522e-10
0
0
-9.68777e-10
-7.88875e-10
-1.58093e-09
3.53727e-09
-3.16918e-07
3.33675e-07
5.55444e-08
3.024e-06
3.9395e-05
0.00047911
0.00497095
0.0428843
0.304976
1.79401
8.82138
36.7619
131.743
411.541
1133.18
2771.05
6033.66
11681.4
20404.5
33034.6
49865.2
71426.2
98671.5
133234
177608
235260
310885
410694
542882
718252
951083
1.26028e+06
1.67092e+06
2.21629e+06
2.94067e+06
3.90293e+06
5.18144e+06
6.88053e+06
9.1392e+06
1.21426e+07
1.60168e+07
2.13118e+07
2.83429e+07
3.76318e+07
4.60594e+08
3.41962e+07
2.43202e+07
1.70474e+07
1.17663e+07
7.98605e+06
5.32209e+06
3.4784e+06
2.23053e+06
1.41131e+06
899628
527876
101036
5459.82
127.15
1.71493
0.0182833
0.000244405
6.34646e-06
3.871e-07
5.21308e-08
1.16477e-08
3.73631e-09
1.43764e-09
6.82601e-10
2.8108e-10
1.15175e-10
5.86192e-11
2.65473e-11
9.44813e-12
4.38929e-12
1.93029e-12
7.21084e-13
5.71187e-12
1.33984e-13
5.53076e-14
1.89113e-14
6.67744e-15
7.41148e-13
-2.62549e-07
0
0
1.18651e-20
-1.41444e-11
2.89777e-07
2.89695e-11
-2.95089e-07
-1.17394e-10
0
-1.91827e-10
-4.71357e-10
0
7.64937e-10
-6.40689e-18
1.52869e-09
1.53184e-09
-3.0236e-07
1.37987e-08
2.40151e-07
3.29375e-06
4.30386e-05
0.000525455
0.00547657
0.0474664
0.339133
2.00421
9.90064
41.4499
149.217
468.113
1293.53
3169.07
6889.24
13245.4
22915.5
36765.6
54967.3
78027.8
106929
143433
190189
250874
330417
435321
574151
758204
1.00243e+06
1.32668e+06
1.75732e+06
2.32954e+06
3.09029e+06
4.10242e+06
5.4503e+06
7.24747e+06
9.64743e+06
1.28505e+07
1.70415e+07
2.28453e+07
3.06756e+07
4.1273e+07
4.42958e+08
3.11386e+07
2.21751e+07
1.55745e+07
1.07711e+07
7.32326e+06
4.8874e+06
3.19858e+06
2.05499e+06
1.30571e+06
841371
447445
71397.4
3308.86
70.6503
0.908555
0.0098297
0.000142962
4.21047e-06
2.91685e-07
4.25763e-08
1.03598e-08
3.49101e-09
1.41585e-09
6.28478e-10
2.71719e-10
1.20734e-10
5.16078e-11
2.15199e-11
9.35412e-12
3.95586e-12
1.7186e-12
6.9486e-13
3.13117e-13
1.21487e-13
4.92465e-14
1.74511e-14
5.96706e-15
7.40414e-13
0
0
0
0
-2.82651e-07
0
2.85058e-11
0
-1.15014e-10
0
0
0
1.55998e-18
-9.11532e-10
-2.87972e-07
-4.33246e-17
-4.34464e-14
2.87325e-07
1.98842e-08
4.14763e-07
3.3045e-06
4.70065e-05
0.000577144
0.006046
0.0526559
0.378021
2.24483
11.1432
46.8797
169.575
534.373
1481.98
3636.29
7882.06
15014.1
25677.4
40772.7
60329.2
84821.7
115295
153641
202650
266177
349332
458836
603517
795012
1.04871e+06
1.38501e+06
1.83105e+06
2.42295e+06
3.20895e+06
4.25356e+06
5.64324e+06
7.49429e+06
9.96363e+06
1.32372e+07
1.75296e+07
2.34699e+07
3.14653e+07
9.81586e+07
3.90485e+08
2.94486e+07
2.09399e+07
1.46903e+07
1.01511e+07
6.89754e+06
4.60167e+06
3.01185e+06
1.9372e+06
1.23547e+06
803868
388061
51695.5
2117.16
42.0141
0.521083
0.00575295
9.06841e-05
2.99035e-06
2.3184e-07
3.68807e-08
9.45934e-09
3.43277e-09
1.29235e-09
5.70307e-10
2.19116e-10
1.12009e-10
5.09196e-11
2.05663e-11
8.4775e-12
4.70275e-12
1.40339e-12
-1.18415e-13
2.87326e-13
1.14454e-13
4.32159e-14
-5.14668e-12
5.97925e-15
1.06515e-15
-3.67002e-13
0
0
-2.76141e-07
0
-2.81776e-07
0
0
1.92082e-19
-2.67257e-15
1.82452e-10
0
0
-3.01134e-18
-8.78406e-10
-3.17428e-09
3.16857e-09
-3.33244e-15
1.9067e-08
4.19645e-07
3.79635e-06
5.13326e-05
0.000634516
0.00667972
0.0584642
0.421821
2.51761
12.5615
53.1206
193.14
611.566
1702.45
4181.88
9023.61
16979.9
28646.2
44970.4
65821.5
91651.1
123597
163665
214776
280914
367314
480836
630457
827986
1.089e+06
1.43409e+06
1.89057e+06
2.49466e+06
3.29453e+06
4.35428e+06
5.75933e+06
7.6237e+06
1.00999e+07
1.33647e+07
1.76143e+07
2.34458e+07
3.12111e+07
1.79335e+08
3.1663e+08
2.85762e+07
2.02701e+07
1.41929e+07
9.79252e+06
6.64627e+06
4.4307e+06
2.89946e+06
1.86667e+06
1.19459e+06
783309
333200
38885.8
1438.79
26.7816
0.322464
0.00364388
6.18659e-05
2.25555e-06
1.90315e-07
3.1278e-08
8.56729e-09
3.18596e-09
1.18128e-09
5.12681e-10
2.15571e-10
9.82944e-11
4.71678e-11
1.57607e-11
8.3808e-12
4.652e-12
1.48758e-12
5.10063e-12
2.72463e-13
1.08645e-13
4.60689e-14
1.74442e-14
5.98605e-15
9.79222e-16
0
0
-6.06254e-12
0
2.76059e-07
0
0
0
1.99957e-10
-8.93753e-11
-2.76036e-07
7.40004e-19
1.02296e-14
-5.827e-18
-8.67612e-18
-5.1745e-17
-3.55043e-16
-3.57868e-15
2.43286e-08
3.01312e-07
4.03477e-06
5.62227e-05
0.00069663
0.00737142
0.064851
0.470349
2.82224
14.1586
60.2099
220.141
700.724
1958.38
4813.4
10316.7
19106.1
31728.1
49214.4
71258.2
98317.4
131639
173328
226417
294973
384318
501387
655234
857735
1.12451e+06
1.47616e+06
1.93991e+06
2.55177e+06
3.35941e+06
4.4261e+06
5.83579e+06
7.70014e+06
1.01677e+07
1.34069e+07
1.761e+07
2.33637e+07
3.10084e+07
2.40669e+08
2.57459e+08
2.79163e+07
1.97935e+07
1.38533e+07
9.55512e+06
6.484e+06
4.32272e+06
2.82996e+06
1.8242e+06
1.17133e+06
772515
281923
30328.6
1032
18.199
0.214242
0.00247853
4.50202e-05
1.79002e-06
1.63583e-07
2.92934e-08
8.04292e-09
2.94237e-09
1.15734e-09
5.08753e-10
2.11808e-10
9.66954e-11
4.34827e-11
1.91975e-11
1.34512e-11
3.45708e-12
1.47362e-12
6.53467e-13
-5.04339e-13
5.27903e-12
4.43753e-12
-4.34982e-12
5.26729e-15
7.38048e-13
0
0
0
0
0
-1.10197e-11
2.74074e-07
2.73653e-07
1.95634e-10
-1.9444e-10
0
7.18678e-19
0
-2.81548e-18
-8.3635e-18
-4.97587e-17
2.54367e-07
-2.61034e-09
-2.29632e-07
4.51468e-07
4.42714e-06
6.11712e-05
0.000762202
0.00810835
0.0717144
0.522962
3.15563
15.9239
68.1277
250.618
802.319
2251.67
5533.33
11744.3
21300.7
34745.2
53275
76359.2
104531
139140
182372
237347
308185
400261
520548
678136
884915
1.15649e+06
1.51338e+06
1.98263e+06
2.59994e+06
3.41245e+06
4.48255e+06
5.89288e+06
7.75265e+06
1.02067e+07
1.34192e+07
1.75832e+07
2.32724e+07
3.08098e+07
2.91898e+08
2.08272e+08
2.72803e+07
1.93637e+07
1.35657e+07
9.36497e+06
6.36039e+06
4.24426e+06
2.782e+06
1.79674e+06
1.15771e+06
765131
256648
24426.2
776.953
13.1075
0.151805
0.00179827
3.46689e-05
1.48265e-06
1.44863e-07
2.6618e-08
7.51899e-09
2.87719e-09
1.13347e-09
4.93697e-10
2.07835e-10
9.50131e-11
4.57076e-11
1.89178e-11
8.16882e-12
3.41687e-12
1.45865e-12
6.00885e-13
-4.99267e-13
8.57795e-13
-4.33128e-12
1.59347e-14
5.26729e-15
8.94441e-16
2.01493e-13
0
0
0
-1.08463e-11
4.55208e-20
9.09039e-20
0
0
2.64237e-07
0
0
0
-2.7173e-18
-8.05029e-18
-1.26612e-09
1.54215e-09
-4.04426e-15
2.21292e-08
2.26857e-07
4.81799e-06
6.61628e-05
0.000829521
0.0088695
0.0788689
0.578361
3.51048
17.8246
76.7563
284.241
915.641
2580.67
6332.7
13249.9
23376.9
37390.1
56756.6
80699.5
109858
145655
190361
247135
320135
414761
538009
698979
909546
1.18526e+06
1.54654e+06
2.02021e+06
2.64161e+06
3.45734e+06
4.52878e+06
5.93675e+06
7.78898e+06
1.02293e+07
1.34161e+07
1.75384e+07
2.3157e+07
3.05843e+07
3.33109e+08
1.69315e+08
2.66542e+07
1.8952e+07
1.32992e+07
9.19605e+06
6.25618e+06
4.18223e+06
2.74695e+06
1.77872e+06
1.15043e+06
760052
236597
20392.8
614.048
9.98924
0.114316
0.00138433
2.80907e-05
1.27916e-06
1.30854e-07
2.55985e-08
7.33342e-09
2.73178e-09
1.15526e-09
4.83093e-10
2.21024e-10
9.32523e-11
4.20595e-11
1.86243e-11
3.03883e-12
3.19045e-12
-3.64041e-12
5.95332e-13
2.33055e-13
-5.00411e-12
3.97485e-14
-7.31383e-13
4.5468e-15
8.9565e-16
0
1.93137e-17
-2.64757e-07
-1.19255e-11
1.56434e-16
0
8.93215e-20
0
1.75823e-19
-1.84859e-10
3.6481e-10
0
-9.26974e-15
-2.43305e-07
-7.56099e-10
1.49117e-09
2.32716e-07
-2.30522e-07
2.62817e-08
2.62506e-07
5.08291e-06
7.09777e-05
0.000895225
0.00962289
0.0860235
0.634372
3.87353
19.7943
85.8214
320.057
1037.82
2936.84
7180.54
14706.5
24999.9
39188.8
59094
83667.6
113646
150508
196571
255008
329994
426935
552832
716773
930598
1.20978e+06
1.57456e+06
2.05154e+06
2.67553e+06
3.49224e+06
4.5619e+06
5.96466e+06
7.80728e+06
1.023e+07
1.33822e+07
1.74541e+07
2.29928e+07
3.03e+07
3.65257e+08
1.38948e+08
2.60257e+07
1.85486e+07
1.30463e+07
9.0421e+06
6.16591e+06
4.13199e+06
2.7212e+06
1.76754e+06
1.14776e+06
757996
221494
17660.8
508.873
8.03786
0.0911731
0.00112543
2.38309e-05
1.13869e-06
1.22964e-07
2.46103e-08
7.46126e-09
2.73556e-09
1.08046e-09
4.72038e-10
2.03559e-10
9.14234e-11
4.00382e-11
1.76803e-11
7.53884e-12
3.14863e-12
1.42629e-12
1.37715e-12
5.29224e-12
9.46711e-14
-5.02457e-12
5.0666e-12
-5.02636e-12
8.07391e-16
2.00913e-13
0
7.72532e-17
-1.18099e-11
0
-1.05371e-11
0
-1.7382e-19
1.71751e-19
0
-6.66344e-19
0
0
1.75564e-14
2.29128e-07
2.2523e-07
-4.40824e-16
-4.44764e-15
2.98798e-08
5.02303e-07
5.31884e-06
7.55594e-05
0.000956151
0.0103257
0.0927665
0.687769
4.22402
21.7222
94.8255
356.168
1162.49
3299.99
8007.83
15871.9
25627.6
39437.8
59527.4
84457.5
115021
152742
199939
259778
336427
435281
563331
729634
945975
1.2277e+06
1.59481e+06
2.07345e+06
2.69781e+06
3.51308e+06
4.57934e+06
5.9748e+06
7.80177e+06
1.01966e+07
1.33034e+07
1.73083e+07
2.27417e+07
2.9891e+07
3.94593e+08
1.15955e+08
2.53745e+07
1.81411e+07
1.27977e+07
8.89546e+06
6.08347e+06
4.08884e+06
2.70127e+06
1.76073e+06
1.148e+06
756922
210860
15855
441.366
6.81125
0.0767498
0.00096221
2.10698e-05
1.04805e-06
1.16821e-07
2.35331e-08
6.92943e-09
2.66017e-09
1.05241e-09
4.81637e-10
2.11482e-10
9.25367e-11
4.24617e-11
1.73754e-11
7.81308e-12
3.10512e-12
1.31873e-12
5.37886e-13
2.29141e-13
5.12326e-12
3.93528e-14
1.4361e-14
4.89221e-15
8.52094e-16
2.00629e-13
0
0
-2.60695e-07
2.59603e-07
-1.03762e-11
4.58119e-11
0
0
-9.66404e-11
2.39709e-07
2.34538e-07
-3.63147e-10
-2.24307e-07
-2.20125e-07
-2.16062e-07
2.42319e-09
4.76905e-09
3.08136e-08
4.13887e-07
5.62041e-06
7.9358e-05
0.0010076
0.0109252
0.0985782
0.734303
4.53324
23.4464
102.999
389.426
1278.34
3632.28
8685.99
16330.4
24479.3
37253.4
57147.5
82080.4
112889
151106
199015
259758
337469
437519
566859
734487
952077
1.23481e+06
1.60245e+06
2.08087e+06
2.70401e+06
3.5164e+06
4.57558e+06
5.95766e+06
7.76256e+06
1.01219e+07
1.31741e+07
1.70957e+07
2.23972e+07
2.93439e+07
4.13006e+08
9.72109e+07
2.48012e+07
1.77772e+07
1.25748e+07
8.76489e+06
6.01141e+06
4.05253e+06
2.68582e+06
1.7567e+06
1.14964e+06
756727
204126
14728.6
399.562
6.05846
0.0679312
0.000861554
1.93366e-05
9.87457e-07
1.1178e-07
2.31055e-08
6.88394e-09
2.58308e-09
1.10381e-09
4.80682e-10
2.11195e-10
9.29223e-11
3.97166e-11
1.70612e-11
7.68613e-12
3.23673e-12
1.39112e-12
5.31982e-13
9.57563e-13
8.32725e-13
3.62847e-14
7.50672e-13
-5.00051e-12
8.51962e-16
0
0
-3.20568e-12
0
1.50628e-16
0
2.5064e-07
8.857e-11
0
2.37516e-07
-1.83789e-10
0
2.21228e-07
2.1519e-07
6.64002e-10
-2.35047e-09
-2.0142e-07
2.48461e-09
2.90014e-08
4.26731e-07
5.84636e-06
8.20345e-05
0.00104514
0.0113652
0.102881
0.769085
4.76688
24.7649
109.327
415.436
1368.52
3873.9
9004.2
15707.3
23860.4
31695.5
51031
75512
106034
144103
191960
252690
330375
430328
559435
726616
943438
1.22494e+06
1.59074e+06
2.06635e+06
2.68506e+06
3.49009e+06
4.53817e+06
5.90359e+06
7.68373e+06
1.00065e+07
1.30052e+07
1.68513e+07
2.20392e+07
2.88234e+07
4.2489e+08
8.69179e+07
2.42199e+07
1.74112e+07
1.23507e+07
8.63265e+06
5.9372e+06
4.01385e+06
2.66796e+06
1.7503e+06
1.1488e+06
756630
200438
14108.8
376.082
5.63338
0.0629446
0.000804338
1.83413e-05
9.54108e-07
1.1003e-07
2.28846e-08
7.08761e-09
2.6548e-09
1.07193e-09
4.70039e-10
2.05967e-10
9.08105e-11
3.889e-11
1.7347e-11
6.51833e-12
3.18789e-12
1.28461e-12
5.50387e-13
2.47251e-13
9.82184e-14
-6.9372e-13
1.42467e-14
4.99746e-12
8.9591e-16
-6.82332e-22
-1.89864e-17
0
0
2.13449e-20
-2.24113e-11
4.41277e-11
0
0
-7.43266e-11
-1.77997e-10
2.18683e-07
2.12689e-07
-2.22527e-18
-2.01185e-07
-5.87787e-17
-9.75244e-10
1.90368e-09
2.90517e-08
4.3077e-07
5.88821e-06
8.33592e-05
0.00106424
0.0115906
0.105101
0.787187
4.88954
25.4632
112.699
429.191
1412.94
3948.38
8830.49
16365.4
24848.8
32511.1
40581.4
64017
93423.7
130307
176854
236071
311949
409703
536105
699929
912563
1.18879e+06
1.54785e+06
2.01476e+06
2.62213e+06
3.41249e+06
4.4414e+06
5.78148e+06
7.52782e+06
9.80507e+06
1.27421e+07
1.65055e+07
2.15733e+07
2.81864e+07
4.31237e+08
8.22793e+07
2.36216e+07
1.70209e+07
1.20993e+07
8.4734e+06
5.8385e+06
3.9543e+06
2.63314e+06
1.73051e+06
1.13745e+06
749894
198488
13863.3
366.302
5.45227
0.0608062
0.000779754
1.79088e-05
9.38729e-07
1.10094e-07
2.31516e-08
6.83876e-09
2.56783e-09
1.11524e-09
4.63367e-10
2.06129e-10
9.09448e-11
4.06548e-11
1.6335e-11
7.42289e-12
3.13787e-12
2.05613e-12
5.63577e-13
2.22599e-13
9.74195e-14
3.58398e-14
1.41834e-14
-7.27153e-13
8.95245e-16
-2.00053e-13
0
1.08558e-20
0
1.4867e-16
0
4.41273e-11
0
2.36377e-07
0
-4.22925e-15
2.1868e-07
-2.73489e-10
-5.30809e-10
-1.08e-17
-5.87771e-17
-2.89486e-14
4.24326e-09
3.13389e-08
4.30753e-07
5.97099e-06
8.33675e-05
0.00106432
0.0115912
0.105107
0.787224
4.88974
25.4641
112.703
429.202
1412.97
3948.39
8830.57
16365.4
24848.8
32511
40578
64013.2
93419.4
130302
176849
236064
311941
409693
536092
699913
912542
1.18877e+06
1.54781e+06
2.01471e+06
2.62204e+06
3.41236e+06
4.4412e+06
5.78121e+06
7.52749e+06
9.80468e+06
1.27417e+07
1.65052e+07
2.15732e+07
2.81865e+07
4.31257e+08
8.22583e+07
2.36214e+07
1.70206e+07
1.20991e+07
8.47324e+06
5.83841e+06
3.95426e+06
2.63312e+06
1.7305e+06
1.13745e+06
749898
198480
13862.1
366.264
5.45164
0.060799
0.000779672
1.79126e-05
9.40941e-07
1.09601e-07
2.31519e-08
6.83884e-09
2.56781e-09
1.11525e-09
4.74126e-10
2.10621e-10
9.37646e-11
4.0655e-11
1.83368e-11
7.42293e-12
3.21493e-12
1.4408e-12
5.19611e-13
2.44793e-13
9.18298e-14
3.58398e-14
4.25108e-12
5.21249e-15
-4.9832e-12
-3.6334e-13
-2.73725e-21
0
1.15788e-11
-1.50626e-16
-2.53819e-07
0
0
0
7.64759e-11
0
0
-8.30725e-15
-2.32359e-18
5.40228e-10
-1.29593e-09
1.26725e-09
4.50589e-09
-1.61742e-07
3.31912e-07
5.75267e-06
8.21489e-05
0.00104545
0.0113673
0.102897
0.769194
4.76746
24.7675
109.337
415.467
1368.6
3874.02
9003.95
15707.4
23860.3
31691.1
51025.7
75505.7
106027
144094
191949
252677
330357
430304
559403
726572
943381
1.22487e+06
1.59067e+06
2.06629e+06
2.68483e+06
3.48969e+06
4.5376e+06
5.90282e+06
7.68277e+06
1.00054e+07
1.30041e+07
1.68503e+07
2.20389e+07
2.8824e+07
4.24948e+08
8.68549e+07
2.42188e+07
1.74098e+07
1.23494e+07
8.63161e+06
5.93645e+06
4.01335e+06
2.66766e+06
1.75012e+06
1.1487e+06
756573
200400
14104.6
375.953
5.63128
0.0629211
0.000804073
1.8333e-05
9.54151e-07
1.10035e-07
2.32062e-08
6.79029e-09
2.57078e-09
1.07195e-09
4.76789e-10
2.10571e-10
9.36939e-11
4.0359e-11
1.73476e-11
7.55622e-12
3.2661e-12
2.08409e-12
5.50405e-13
-4.6891e-12
9.82187e-14
-6.92453e-13
7.47494e-13
5.06687e-15
7.34144e-13
2.59566e-07
0
1.10117e-20
0
0
0
4.58111e-11
-1.18558e-15
0
0
6.46581e-19
-2.34529e-07
2.95448e-10
-1.28789e-09
2.1942e-07
-5.57045e-17
1.33602e-09
4.76875e-09
2.82184e-08
4.08736e-07
5.6241e-06
7.94108e-05
0.00100816
0.0109294
0.0986121
0.73453
4.53449
23.4522
103.021
389.501
1278.55
3632.76
8686.63
16329.7
24477
37252.6
57146.4
82079
112888
151104
199012
259754
337462
437509
566843
734461
952035
1.23474e+06
1.60233e+06
2.08065e+06
2.70388e+06
3.51634e+06
4.57563e+06
5.95788e+06
7.7631e+06
1.0123e+07
1.31759e+07
1.70985e+07
2.24011e+07
2.93482e+07
4.13109e+08
9.71046e+07
2.4802e+07
1.7778e+07
1.25753e+07
8.76517e+06
6.01155e+06
4.05259e+06
2.68583e+06
1.75669e+06
1.14963e+06
756707
204075
14721.8
399.336
6.05466
0.0678879
0.000861055
1.93271e-05
9.88575e-07
1.11784e-07
2.31064e-08
7.02186e-09
2.58251e-09
1.10383e-09
4.80697e-10
2.06497e-10
9.29236e-11
4.09354e-11
1.76807e-11
6.98117e-12
3.41346e-12
1.39112e-12
5.32e-13
2.27042e-13
-4.89257e-12
3.62848e-14
1.43064e-14
-5.00032e-12
8.96342e-16
0
0
0
0
2.35858e-11
0
0
0
0
-2.50955e-07
0
0
3.0644e-10
-2.52048e-18
-7.42224e-18
-1.16026e-09
-4.40799e-16
2.19074e-07
-1.8968e-07
4.04698e-07
5.21195e-06
7.57267e-05
0.000956752
0.0103309
0.0928097
0.688057
4.22559
21.7294
94.8533
356.26
1162.75
3300.59
8008.82
15872.3
25627.1
39438.9
59528.5
84458.5
115022
152744
199940
259780
336429
435284
563334
729638
945980
1.2277e+06
1.59482e+06
2.07347e+06
2.69787e+06
3.5132e+06
4.57954e+06
5.97509e+06
7.80218e+06
1.01972e+07
1.33042e+07
1.73093e+07
2.27432e+07
2.98929e+07
3.94744e+08
1.15795e+08
2.5374e+07
1.81406e+07
1.27973e+07
8.89521e+06
6.08328e+06
4.0887e+06
2.70116e+06
1.76066e+06
1.14796e+06
756862
210784
15844.6
441.013
6.80521
0.0766808
0.000961422
2.10554e-05
1.04677e-06
1.16828e-07
2.32558e-08
7.24581e-09
2.66033e-09
1.05243e-09
4.81653e-10
1.94862e-10
9.4985e-11
4.12216e-11
1.80053e-11
7.81316e-12
3.28434e-12
1.35922e-12
5.83335e-13
2.51968e-13
9.97322e-14
3.64897e-14
1.4361e-14
4.89233e-15
8.52094e-16
6.86262e-22
-1.93136e-17
-5.93827e-12
1.19254e-11
0
3.12404e-16
4.74944e-11
0
8.3883e-11
-1.01926e-10
0
0
0
6.24732e-10
-1.0315e-17
-5.08575e-17
-3.54365e-14
-4.2514e-15
2.39221e-08
3.8094e-07
5.07683e-06
7.11513e-05
0.000895919
0.00962901
0.0860742
0.634709
3.87537
19.8027
85.8534
320.162
1038.11
2937.54
7181.81
14707.8
25000.9
39191.7
59097.3
83671.5
113651
150514
196581
255022
330014
426964
552873
716831
930680
1.20989e+06
1.57472e+06
2.05174e+06
2.67579e+06
3.49256e+06
4.56226e+06
5.96501e+06
7.80754e+06
1.023e+07
1.33818e+07
1.74531e+07
2.29915e+07
3.02991e+07
3.65457e+08
1.38733e+08
2.60236e+07
1.85468e+07
1.30451e+07
9.04125e+06
6.16535e+06
4.13162e+06
2.72097e+06
1.76739e+06
1.14767e+06
757919
221390
17645.6
508.341
8.02853
0.0910655
0.00112422
2.38086e-05
1.13878e-06
1.22403e-07
2.46114e-08
7.31573e-09
2.66131e-09
1.08048e-09
4.72046e-10
2.04257e-10
9.14265e-11
4.05927e-11
1.61735e-11
6.48832e-12
3.14872e-12
1.33493e-12
1.33124e-12
2.31164e-13
9.46714e-14
3.95614e-14
1.44108e-14
4.90011e-15
-5.00045e-12
-6.87244e-22
0
0
0
-1.58366e-16
-4.55202e-20
6.33244e-16
-5.3086e-11
0
0
0
6.97301e-19
0
0
-8.04992e-18
1.26605e-09
3.62293e-14
-4.04404e-15
2.46096e-08
3.53e-07
4.81766e-06
6.63491e-05
0.000830187
0.0088765
0.0789259
0.578736
3.51252
17.8338
76.7914
284.355
915.963
2581.43
6334.19
13251.9
23379.2
37394.3
56761.8
80705.9
109866
145666
190377
247157
320168
414810
538081
699083
909697
1.18548e+06
1.54685e+06
2.02065e+06
2.64224e+06
3.45821e+06
4.52997e+06
5.93832e+06
7.79101e+06
1.02318e+07
1.34191e+07
1.75416e+07
2.31603e+07
3.05873e+07
3.33366e+08
1.6905e+08
2.66541e+07
1.89524e+07
1.32999e+07
9.19662e+06
6.25658e+06
4.18247e+06
2.74707e+06
1.77876e+06
1.15044e+06
760008
236478
20371.9
613.262
9.97488
0.114148
0.00138247
2.80616e-05
1.27665e-06
1.30996e-07
2.59632e-08
7.3338e-09
2.80817e-09
1.19414e-09
4.82406e-10
2.21028e-10
9.3971e-11
3.91912e-11
1.71745e-11
7.32374e-12
3.19053e-12
1.3504e-12
-4.45804e-12
-5.17665e-13
1.01094e-13
3.97505e-14
1.58953e-14
4.90552e-15
8.95649e-16
-6.88226e-22
1.94772e-17
-1.13235e-20
2.70998e-07
0
4.61943e-20
0
0
-2.72568e-07
0
0
0
0
6.71586e-10
-8.36314e-18
-4.97564e-17
1.61055e-09
-3.80781e-15
2.90365e-08
3.3668e-07
4.3005e-06
6.12365e-05
0.000763053
0.00811595
0.0717758
0.523366
3.15782
15.9338
68.1651
250.74
802.662
2252.5
5534.98
11746.8
21304
34750.8
53282
76368
104542
139155
182393
237376
308225
400318
520627
678248
885070
1.1567e+06
1.51367e+06
1.98303e+06
2.60047e+06
3.41314e+06
4.48344e+06
5.89402e+06
7.75406e+06
1.02084e+07
1.34212e+07
1.75856e+07
2.3275e+07
3.08126e+07
2.92228e+08
2.07927e+08
2.72791e+07
1.93628e+07
1.35649e+07
9.36435e+06
6.35989e+06
4.24386e+06
2.78169e+06
1.79651e+06
1.15755e+06
765019
256482
24395.3
775.736
13.0845
0.151532
0.0017953
3.46219e-05
1.48158e-06
1.44738e-07
2.72972e-08
7.70867e-09
2.78121e-09
1.13349e-09
4.48733e-10
2.07842e-10
1.00792e-10
4.70664e-11
2.32352e-11
8.16914e-12
3.41696e-12
1.45872e-12
5.54007e-13
2.58268e-13
1.01697e-13
3.99166e-14
1.59352e-14
5.62708e-15
8.94441e-16
-3.6648e-13
0
0
0
0
2.49213e-11
0
0
-2.78589e-07
0
2.76029e-07
-4.33911e-10
0
-2.91339e-18
2.6935e-07
-5.17427e-17
2.6819e-07
-2.64692e-07
2.43273e-08
3.04654e-07
3.91379e-06
5.62923e-05
0.000697533
0.0073793
0.0649158
0.470774
2.82454
14.1689
60.249
220.269
701.081
1959.25
4815.19
10319.7
19110.3
31735
49223.4
71269.6
98332
131659
173354
226452
295021
384384
501476
655355
857896
1.12472e+06
1.47644e+06
1.94027e+06
2.55222e+06
3.35998e+06
4.42679e+06
5.83663e+06
7.70116e+06
1.0169e+07
1.34083e+07
1.76118e+07
2.3366e+07
3.1011e+07
2.41059e+08
2.5704e+08
2.7914e+07
1.97915e+07
1.38517e+07
9.55378e+06
6.48299e+06
4.32198e+06
2.82944e+06
1.82386e+06
1.17112e+06
772387
281726
30284.5
1030.11
18.1614
0.213783
0.00247362
4.49441e-05
1.78465e-06
1.64362e-07
2.89118e-08
8.04332e-09
2.94255e-09
1.1581e-09
5.03847e-10
2.24649e-10
9.66967e-11
4.34852e-11
1.99541e-11
8.278e-12
3.45723e-12
-3.73275e-12
6.53486e-13
1.02453e-12
1.08132e-13
4.29901e-14
1.59648e-14
-5.06567e-12
9.81746e-16
3.67002e-13
0
5.73968e-21
0
0
0
9.5645e-20
-5.62682e-11
-1.92079e-19
-1.1248e-10
2.83311e-07
1.06065e-14
0
2.09738e-14
8.78371e-10
-2.76403e-07
-3.3964e-16
-6.33956e-09
1.9066e-08
2.80727e-07
3.82176e-06
5.15465e-05
0.000635451
0.00668816
0.0585311
0.422259
2.51997
12.5721
53.1607
193.27
611.933
1703.35
4183.77
9026.9
16984.9
28654.2
44981.2
65835.6
91669.7
123622
163699
214822
280978
367402
480957
630625
828216
1.08931e+06
1.43452e+06
1.89114e+06
2.49544e+06
3.29557e+06
4.35564e+06
5.76108e+06
7.62591e+06
1.01026e+07
1.33677e+07
1.76175e+07
2.34489e+07
3.12135e+07
1.79805e+08
3.16113e+08
2.85735e+07
2.02676e+07
1.41907e+07
9.79073e+06
6.64489e+06
4.4297e+06
2.89876e+06
1.86622e+06
1.19431e+06
783158
332842
38823.1
1435.77
26.7175
0.321655
0.00363532
6.17405e-05
2.25427e-06
1.91123e-07
3.16012e-08
8.56854e-09
3.00347e-09
1.18131e-09
5.13445e-10
2.40062e-10
9.39118e-11
4.71704e-11
2.09861e-11
7.60924e-12
4.65216e-12
1.54049e-12
6.58764e-13
2.85638e-13
1.08649e-13
4.60709e-14
1.74447e-14
5.6248e-15