/*--------------------------------*- C++ -*----------------------------------*\
  =========                 |
  \\      /  F ield         | OpenFOAM: The Open Source CFD Toolbox
   \\    /   O peration     | Website:  https://openfoam.org
    \\  /    A nd           | Version:  8
     \\/     M anipulation  |
\*---------------------------------------------------------------------------*/
FoamFile
{
    version     2.0;
    format      ascii;
    class       volScalarField;
    location    "400/fluid";
    object      rDeltaT;
}
// * * * * * * * * * * * * * * * * * * * * * * * * * * * * * * * * * * * * * //

dimensions      [0 0 -1 0 0 0 0];

internalField   nonuniform List<scalar> 
4000
(
513.239
538.804
563.249
586.716
609.156
630.479
650.572
669.306
686.56
702.241
716.309
728.807
739.887
749.831
759.069
768.107
777.346
787.006
797.062
807.199
816.863
825.383
832.091
836.422
837.982
836.568
832.052
824.389
813.608
799.793
783.068
763.587
741.523
738.078
766.432
806.067
845.09
883.481
921.227
958.323
994.763
1030.55
1065.67
1100.13
1133.93
1167.05
1199.47
1231.17
1262.13
1292.29
1321.64
1350.1
1377.64
1404.19
1429.69
1454.07
1477.27
1499.25
1519.74
1538.86
1556.86
1574.17
13026
4957.28
1546.57
1510.65
1469.37
1423.23
1372.72
1318.29
1260.39
1199.55
1136.4
1071.61
1005.85
940.405
877.238
818.796
767.983
727.823
700.09
684.134
677.025
675.011
674.846
674.35
672.305
668.168
661.888
653.634
643.646
632.175
619.455
605.697
591.082
575.756
559.834
543.387
526.451
508.961
512.794
537.738
561.432
583.824
604.893
624.573
642.78
659.431
674.465
687.863
699.678
710.052
719.238
727.617
735.664
743.834
752.509
761.893
771.937
782.312
792.457
801.662
809.203
814.449
816.941
816.349
812.492
805.31
794.841
781.19
764.508
744.973
722.781
704.596
718.313
759.114
799.438
839.249
878.52
917.229
955.368
992.933
1029.92
1066.33
1102.14
1137.36
1171.97
1205.94
1239.25
1271.88
1303.78
1334.92
1365.25
1394.72
1423.28
1450.87
1477.44
1502.92
1527.05
1550.04
1572.21
1593.49
15021.1
2914.26
1555.42
1515.68
1471.11
1421.94
1368.47
1310.99
1249.86
1185.47
1118.38
1049.11
978.408
907.954
840.303
778.735
726.839
687.51
661.772
648.016
642.765
642.268
643.577
644.795
644.908
643.388
639.998
634.737
627.705
619.048
608.927
597.508
584.943
571.368
556.893
541.594
525.503
508.639
512.137
535.625
557.696
578.326
597.465
615.058
631.055
645.422
658.159
669.317
679.02
687.477
694.996
701.975
708.856
716.068
723.991
732.844
742.582
752.88
763.172
772.749
780.875
786.89
790.255
790.559
787.57
781.2
771.467
758.465
742.337
723.259
701.428
677.049
677.482
711.735
752.934
793.816
834.347
874.503
914.269
953.631
992.58
1031.11
1069.21
1106.87
1144.08
1180.83
1217.09
1252.85
1288.07
1322.74
1356.82
1390.26
1423.04
1455.09
1486.34
1516.67
1545.7
1573.76
1600.28
1624.8
17582.8
1614.19
1573.91
1528.4
1478.13
1423.44
1364.57
1301.79
1235.41
1165.85
1093.69
1019.53
944.445
870.582
800.931
739.08
688.587
651.759
628.705
617.174
613.564
614.32
616.746
619.117
620.543
620.603
619.084
615.917
611.115
604.743
596.887
587.65
577.133
565.433
552.635
538.805
523.982
508.173
511.488
533.669
554.36
573.528
591.137
607.154
621.555
634.334
645.52
655.189
663.478
670.603
676.868
682.663
688.437
694.649
701.681
709.745
718.798
728.517
738.33
747.52
755.345
761.131
764.337
764.579
761.62
755.353
745.774
732.952
717.009
698.1
676.404
652.111
642.9
667.45
709.363
751.185
792.873
834.394
875.726
916.851
957.755
998.427
1038.86
1079.04
1118.95
1158.58
1197.92
1236.94
1275.61
1313.91
1351.81
1389.24
1426.16
1462.46
1498.02
1532.53
1565.61
1597.18
1626.2
1651.3
17166.8
1632.84
1586.44
1535
1478.92
1418.53
1354.1
1285.97
1214.53
1140.34
1064.13
986.65
909.359
834.737
765.885
706.207
658.75
625.188
605.009
595.619
593.455
595.221
598.482
601.687
603.993
604.988
604.499
602.476
598.931
593.906
587.46
579.657
570.564
560.246
548.761
536.153
522.454
507.675
510.79
531.545
550.758
568.4
584.443
598.863
611.652
622.822
632.424
640.552
647.365
653.098
658.07
662.68
667.383
672.634
678.807
686.103
694.469
703.577
712.857
721.593
729.041
734.521
737.486
737.541
734.44
728.066
718.404
705.512
689.498
670.507
648.701
624.261
607.97
625.56
668.131
710.823
753.589
796.393
839.207
882.009
924.782
967.511
1010.18
1052.78
1095.29
1137.69
1179.95
1222.06
1263.96
1305.62
1346.98
1387.96
1428.47
1468.36
1507.44
1545.26
1581.43
1615.74
1646.98
3845.17
14629.1
1641.3
1589.76
1533.31
1472.27
1406.99
1337.85
1265.29
1189.8
1112.1
1033.01
953.414
875.072
800.619
733.153
675.891
631.451
600.918
583.241
575.597
574.529
577.009
580.861
584.708
587.788
589.706
590.274
589.417
587.12
583.397
578.282
571.818
564.052
555.03
544.798
533.391
520.835
507.144
510.085
529.429
547.213
563.411
577.999
590.967
602.314
612.068
620.289
627.082
632.615
637.128
640.941
644.452
648.109
652.363
657.579
663.954
671.432
679.688
688.16
696.138
702.887
707.73
710.123
709.669
706.117
699.341
689.312
676.079
659.739
640.425
618.288
593.493
572.692
586.052
629.21
672.684
716.426
760.396
804.562
848.899
893.383
937.996
982.716
1027.52
1072.39
1117.29
1162.18
1207.02
1251.76
1296.33
1340.65
1384.61
1428.07
1470.85
1512.71
1553.15
1591.76
1628.37
1662.05
9461.49
9571.75
1637.25
1582.61
1522.65
1457.93
1388.94
1316.21
1240.3
1161.89
1081.79
1000.91
920.295
841.957
768.599
703.267
648.945
607.824
580.448
565.32
559.455
559.504
562.673
567.004
571.278
574.826
577.299
578.527
578.436
577
574.223
570.119
564.714
558.037
550.121
540.996
530.69
519.222
506.607
509.368
527.28
543.625
558.382
571.533
583.071
593.005
601.371
608.236
613.715
617.983
621.283
623.941
626.352
628.963
632.214
636.467
641.908
648.479
655.85
663.461
670.606
676.554
680.634
682.303
681.167
676.973
669.593
658.994
645.215
628.344
608.503
585.834
560.492
537.028
548.14
591.816
635.987
680.601
725.613
770.988
816.695
862.707
908.996
955.534
1002.29
1049.23
1096.31
1143.48
1190.69
1237.85
1284.88
1331.66
1378.07
1423.91
1468.98
1512.96
1555.27
1595.52
1633.54
1668.21
13721.7
5264.45
1624.55
1567.93
1505.51
1438.08
1366.35
1291.02
1212.77
1132.42
1050.89
969.112
888.306
810.644
738.851
675.877
624.467
586.42
561.822
548.847
544.438
545.393
549.14
553.904
558.596
562.611
565.631
567.493
568.121
567.481
565.565
562.379
557.937
552.258
545.365
537.281
528.026
517.619
506.07
508.649
525.129
540.048
553.387
565.131
575.28
583.85
590.88
596.445
600.664
603.715
605.845
607.376
608.702
610.262
612.49
615.738
620.184
625.766
632.156
638.795
644.985
650.001
653.178
653.979
652.009
647.016
638.871
627.536
613.046
595.484
574.962
551.616
525.59
500.933
511.346
555.456
600.22
645.581
691.493
737.914
784.809
832.142
879.879
927.983
976.414
1025.13
1074.06
1123.16
1172.34
1221.5
1270.55
1319.33
1367.67
1415.37
1462.15
1507.65
1551.21
1592.48
1631.11
1665.85
17367.6
1656.2
1606.18
1548.1
1483.71
1414.19
1340.44
1263.27
1183.49
1101.99
1019.77
937.768
857.368
780.854
710.939
650.474
601.971
566.873
544.877
533.896
530.841
532.649
536.94
542.101
547.154
551.559
555.028
557.413
558.641
558.675
557.502
555.119
551.533
546.756
540.803
533.69
525.434
516.047
505.542
507.928
522.974
536.468
548.394
558.743
567.517
574.737
580.447
584.726
587.697
589.54
590.503
590.908
591.145
591.646
592.839
595.065
598.495
603.06
608.43
614.047
619.218
623.223
625.406
625.234
622.317
616.408
607.375
595.181
579.857
561.481
540.163
516.028
489.217
464.389
475.173
519.627
564.875
610.857
657.523
704.826
752.723
801.172
850.133
899.557
949.396
999.59
1050.07
1100.76
1151.57
1202.37
1253.04
1303.42
1353.29
1402.41
1450.47
1497.05
1541.26
1583.2
1621.6
1655.23
18398.9
1639.08
1585.36
1524.71
1458.29
1387.06
1311.9
1233.61
1153.02
1071.08
988.8
907.126
827.589
752.541
684.67
626.721
580.989
548.599
528.927
519.697
517.828
520.4
525.203
530.759
536.182
540.982
544.898
547.793
549.595
550.267
549.791
548.162
545.381
541.454
536.391
530.205
522.909
514.512
505.025
507.207
520.82
532.893
543.413
552.375
559.785
565.667
570.07
573.076
574.81
575.454
575.255
574.534
573.676
573.109
573.249
574.429
576.812
580.324
584.629
589.172
593.264
596.193
597.308
596.083
592.135
585.22
575.209
562.064
545.817
526.543
504.346
479.349
451.684
427.394
439.27
483.971
529.591
576.067
623.342
671.366
720.088
769.46
819.433
869.95
920.953
972.371
1024.12
1076.12
1128.25
1180.39
1232.38
1284.05
1335.15
1385.43
1434.52
1481.9
1526.77
1568.96
1607.02
1639.21
17751.7
1616.5
1560.22
1497.7
1429.87
1357.57
1281.62
1202.81
1121.99
1040.13
958.227
877.264
798.892
725.502
659.747
604.266
561.159
531.27
513.708
506.061
505.275
508.564
513.868
519.823
525.621
530.817
535.172
538.559
540.91
542.188
542.375
541.461
539.445
536.328
532.118
526.824
520.453
513.016
504.521
506.486
518.667
529.32
538.437
546.015
552.064
556.613
559.712
561.447
561.945
561.389
560.026
558.174
556.214
554.566
553.639
553.756
555.072
557.504
560.714
564.147
567.12
568.923
568.917
566.582
561.542
553.557
542.502
528.343
511.11
490.877
467.746
441.838
413.28
389.963
403.359
448.212
494.096
540.942
588.691
637.285
686.668
736.786
787.579
838.986
890.935
943.349
996.136
1049.19
1102.39
1155.6
1208.64
1261.32
1313.39
1364.57
1414.47
1462.52
1507.99
1550.72
1589.3
3791.73
15738
1589.36
1531.67
1468.11
1399.51
1326.68
1250.43
1171.55
1090.92
1009.49
928.284
848.29
771.27
699.632
635.988
582.876
542.213
514.604
498.939
492.71
492.909
496.874
502.675
509.044
515.239
520.85
525.658
529.544
532.445
534.323
535.16
534.945
533.673
531.343
527.961
523.532
518.062
511.559
504.029
505.766
516.515
525.75
533.464
539.66
544.351
547.567
549.364
549.828
549.089
547.331
544.8
541.81
538.739
536
533.994
533.032
533.261
534.591
536.681
538.975
540.793
541.435
540.267
536.779
530.602
521.501
509.358
494.141
475.88
454.651
430.555
403.708
374.237
352.125
367.246
412.159
458.203
505.306
553.403
602.431
652.329
703.035
754.484
806.606
859.321
912.542
966.168
1020.09
1074.16
1128.24
1182.15
1235.67
1288.55
1340.49
1391.11
1439.85
1485.98
1529.4
1568.87
7035.06
12794.3
1558.31
1500.32
1436.47
1367.71
1294.86
1218.73
1140.17
1060.04
979.337
899.043
820.2
744.645
674.79
613.207
562.342
523.943
498.409
484.456
479.51
480.619
485.234
491.535
498.337
504.951
511
516.278
520.676
524.132
526.612
528.096
528.571
528.031
526.474
523.902
520.319
515.729
510.137
503.55
505.046
514.364
522.181
528.493
533.307
536.638
538.521
539.014
538.205
536.227
533.263
529.558
525.425
521.236
517.397
514.299
512.246
511.374
511.585
512.534
513.667
514.307
513.76
511.402
506.73
499.385
489.139
475.878
459.575
440.262
418.016
392.937
365.142
334.753
313.916
330.795
375.682
421.79
469.045
517.377
566.718
617.002
668.161
720.123
772.811
826.14
880.015
934.326
988.952
1043.75
1098.56
1153.2
1207.44
1261.03
1313.65
1364.93
1414.28
1461
1505.01
1545.03
9484.26
10424.2
1525.18
1467.3
1403.61
1335.07
1262.54
1186.87
1108.89
1029.52
949.751
870.537
792.957
718.93
650.852
591.258
542.501
506.187
482.536
470.125
466.345
468.301
473.544
480.353
487.609
494.671
501.183
506.955
511.883
515.91
519
521.134
522.299
522.488
521.696
519.924
517.173
513.446
508.748
503.082
504.326
512.213
518.612
523.522
526.953
528.923
529.472
528.659
526.575
523.354
519.18
514.297
509.015
503.701
498.754
494.557
491.402
489.416
488.495
488.289
488.243
487.687
485.932
482.364
476.489
467.956
456.546
442.15
424.745
404.369
381.097
355.033
326.29
294.992
275.378
293.917
338.696
384.781
432.094
480.56
530.107
580.663
632.156
684.508
737.637
791.451
845.849
900.715
955.921
1011.32
1066.74
1122
1176.85
1231.05
1284.27
1336.13
1386.03
1433.29
1477.81
1518.27
11533.1
8451
1490.87
1433.33
1370.03
1301.97
1230.02
1155.04
1077.88
999.45
920.759
842.737
766.508
694.034
627.705
570.012
523.225
488.821
466.875
455.856
453.139
455.89
461.75
469.077
476.812
484.348
491.351
497.642
503.122
507.735
511.449
514.242
516.102
517.02
516.99
516.011
514.083
511.208
507.387
502.624
503.606
510.063
515.043
518.55
520.597
521.206
520.418
518.296
514.935
510.469
505.081
499.016
492.58
486.136
480.075
474.771
470.507
467.399
465.336
463.963
462.728
460.962
457.987
453.196
446.106
436.374
423.79
408.251
389.741
368.299
344.004
316.96
287.281
255.089
236.553
256.558
301.155
347.138
394.422
442.931
492.589
543.318
595.042
647.679
701.14
755.33
810.141
865.454
921.135
977.03
1032.97
1088.75
1144.14
1198.87
1252.62
1305.02
1355.43
1403.19
1448.19
1489.1
13187.5
6882.8
1455.86
1398.78
1336.06
1268.66
1197.49
1123.38
1047.19
969.843
892.345
815.604
740.78
669.868
605.245
549.36
504.409
471.755
451.35
441.585
439.837
443.339
449.809
457.669
465.906
473.944
481.466
488.302
494.356
499.575
503.927
507.392
509.954
511.605
512.338
512.15
511.039
509.005
506.05
502.174
502.886
507.912
511.473
513.577
514.238
513.484
511.359
507.927
503.287
497.572
490.968
483.718
476.126
468.548
461.369
454.953
449.574
445.337
442.124
439.578
437.144
434.162
429.959
423.939
415.628
404.693
390.933
374.252
354.639
332.137
306.828
278.817
248.219
215.155
197.486
218.692
263.04
308.846
356.026
404.497
454.18
504.995
556.859
609.688
663.389
717.861
772.993
828.661
884.727
941.034
997.405
1053.64
1109.49
1164.71
1218.96
1271.86
1322.78
1371.07
1416.6
1458.05
14486.2
5659.78
1420.3
1363.83
1301.84
1235.28
1165.04
1091.94
1016.86
940.712
864.492
789.095
715.706
646.346
583.375
529.204
485.964
454.924
435.932
427.293
426.401
430.618
437.695
446.104
454.868
463.435
471.504
478.908
485.559
491.404
496.412
500.56
503.835
506.225
507.724
508.327
508.03
506.831
504.732
501.731
502.166
505.761
507.903
508.602
507.878
505.76
502.295
497.553
491.631
484.667
476.846
468.409
459.657
450.943
442.643
435.113
428.614
423.245
418.878
415.153
411.518
407.315
401.881
394.629
385.098
372.962
358.029
340.212
319.504
295.954
269.646
240.687
209.192
175.283
158.221
180.314
224.349
269.913
316.918
365.279
414.912
465.734
517.66
570.6
624.458
679.131
734.503
790.448
846.823
903.468
960.202
1016.82
1073.09
1128.74
1183.45
1236.83
1288.25
1337.1
1383.29
1425.54
15586.6
4738.07
1384.06
1328.53
1267.51
1201.96
1132.78
1060.83
986.954
912.074
837.189
763.172
691.229
623.391
562.002
509.436
467.773
438.212
420.552
412.996
412.863
417.749
425.422
434.386
443.693
452.811
461.447
469.444
476.712
483.202
488.881
493.727
497.726
500.864
503.135
504.53
505.046
504.679
503.429
501.293
501.446
503.61
504.332
503.627
501.516
498.033
493.229
487.175
479.972
471.758
462.718
453.094
443.182
433.33
423.908
415.261
407.641
401.137
395.614
390.708
385.869
380.445
373.781
365.301
354.552
341.221
325.124
306.182
284.392
259.81
232.523
202.638
170.273
135.549
118.8
141.433
185.098
230.359
277.126
325.31
374.825
425.584
477.5
530.48
584.424
639.225
694.767
750.919
807.536
864.456
921.496
978.449
1035.08
1091.1
1146.2
1199.97
1251.8
1301.04
1347.59
1390.12
16404
3972.08
1348.62
1293.73
1233.55
1168.99
1100.9
1030.13
957.508
883.945
810.428
737.812
667.311
600.959
541.075
490.003
449.77
421.523
405.057
398.568
399.193
404.728
412.986
422.506
432.368
442.053
451.278
459.887
467.794
474.947
481.315
486.874
491.609
495.506
498.555
500.748
502.079
502.543
502.137
500.86
500.726
501.458
500.761
498.65
495.153
490.306
484.162
476.796
468.311
458.847
448.589
437.777
426.706
415.717
405.172
395.408
386.667
379.026
372.346
366.26
360.218
353.575
345.685
335.981
324.022
309.505
292.256
272.202
249.349
223.754
195.51
164.726
131.52
100
100
102.071
145.313
190.215
236.685
284.631
333.966
384.599
436.44
489.393
543.358
598.225
653.875
710.175
766.98
824.124
881.424
938.67
995.622
1052
1107.48
1161.68
1213.95
1263.69
1310.79
1353.98
16876.5
3553.17
1313.02
1258.97
1199.74
1136.26
1069.34
999.814
928.502
856.298
784.177
712.977
643.912
579.008
520.558
470.872
431.934
404.848
389.401
383.867
385.309
391.494
400.336
410.422
420.855
431.129
440.964
450.209
458.776
466.614
473.69
479.98
485.466
490.133
493.971
496.968
499.118
500.414
500.853
500.429
500.006
499.307
497.189
493.674
488.79
482.579
475.096
466.419
456.653
445.939
434.464
422.466
410.235
398.109
386.443
375.562
365.699
356.924
349.088
341.823
334.581
326.723
317.611
306.691
293.532
277.842
259.455
238.306
214.409
187.825
158.65
126.995
100
100
100
100
105.028
149.519
195.637
243.289
292.384
342.831
394.536
447.403
501.329
556.202
611.902
668.297
725.238
782.561
840.081
897.588
954.842
1011.57
1067.44
1122.07
1174.82
1225.09
1272.8
1316.66
17130.9
3364.91
1277.2
1224.13
1166
1103.7
1038.04
969.829
899.881
829.08
758.384
688.618
620.986
557.494
500.414
452.022
414.266
388.219
373.627
368.834
371.094
377.945
387.393
398.071
409.104
419.995
430.471
440.378
449.632
458.178
465.984
473.023
479.277
484.73
489.368
493.179
496.155
498.288
499.571
500
500.006
499.306
497.188
493.672
488.787
482.575
475.092
466.414
456.647
445.933
434.457
422.458
410.227
398.1
386.433
375.551
365.688
356.912
349.075
341.809
334.567
326.708
317.596
306.675
293.515
277.825
259.437
238.289
214.391
187.807
158.631
126.977
100
100
100
100
105.018
149.509
195.628
243.281
292.377
342.824
394.53
447.398
501.324
556.198
611.899
668.294
725.235
782.559
840.079
897.586
954.841
1011.57
1067.44
1122.06
1174.82
1225.09
1272.8
1316.66
17131.7
3364.06
1277.2
1224.13
1166
1103.7
1038.04
969.831
899.884
829.083
758.388
688.623
620.99
557.499
500.419
452.026
414.271
388.224
373.632
368.839
371.098
377.95
387.398
398.075
409.108
419.999
430.474
440.382
449.634
458.181
465.986
473.025
479.279
484.731
489.369
493.18
496.156
498.288
499.571
500
500.726
501.456
500.757
498.646
495.147
490.299
484.154
476.787
468.3
458.834
448.575
437.762
426.689
415.698
405.152
395.387
386.644
379.002
372.321
366.233
360.19
353.545
345.653
335.948
323.987
309.47
292.22
272.165
249.311
223.716
195.471
164.687
131.481
100
100
102.054
145.297
190.201
236.672
284.62
333.956
384.59
436.433
489.387
543.354
598.222
653.873
710.174
766.979
824.125
881.426
938.672
995.625
1052.01
1107.49
1161.68
1213.96
1263.69
1310.8
1353.98
16878.9
3550.65
1313.01
1258.96
1199.74
1136.25
1069.34
999.815
928.504
856.301
784.181
712.982
643.918
579.014
520.566
470.88
431.943
404.857
389.411
383.877
385.319
391.504
400.345
410.431
420.863
431.136
440.971
450.215
458.782
466.619
473.694
479.984
485.469
490.136
493.972
496.969
499.119
500.415
500.853
500.429
501.446
503.608
504.329
503.622
501.51
498.026
493.221
487.165
479.96
471.745
462.703
453.077
443.164
433.311
423.888
415.239
407.618
401.112
395.587
390.68
385.84
380.414
373.749
365.266
354.516
341.183
325.085
306.141
284.35
259.767
232.479
202.594
170.228
135.504
118.772
141.424
185.09
230.353
277.122
325.307
374.824
425.585
477.502
530.483
584.428
639.231
694.774
750.927
807.544
864.465
921.506
978.459
1035.09
1091.11
1146.21
1199.98
1251.8
1301.05
1347.59
1390.13
16408.3
3967.63
1348.6
1293.72
1233.54
1168.98
1100.89
1030.12
957.503
883.942
810.426
737.81
667.311
600.96
541.078
490.007
449.776
421.53
405.065
398.577
399.202
404.738
412.995
422.515
432.376
442.061
451.285
459.893
467.799
474.952
481.319
486.878
491.612
495.509
498.557
500.749
502.079
502.543
502.137
500.86
502.166
505.759
507.9
508.598
507.872
505.753
502.287
497.543
491.62
484.654
476.831
468.393
459.639
450.924
442.622
435.09
428.59
423.219
418.851
415.124
411.487
407.283
401.847
394.593
385.059
372.922
357.987
340.169
319.459
295.907
269.598
240.638
209.142
175.233
158.193
180.313
224.35
269.916
316.923
365.285
414.92
465.744
517.671
570.613
624.472
679.146
734.519
790.465
846.84
903.486
960.221
1016.84
1073.11
1128.76
1183.47
1236.84
1288.26
1337.11
1383.3
1425.55
15592.7
4731.57
1384.04
1328.52
1267.49
1201.95
1132.77
1060.82
986.943
912.064
837.18
763.164
691.223
623.387
561.999
509.437
467.776
438.217
420.559
413.004
412.872
417.759
425.432
434.395
443.702
452.819
461.454
469.45
476.718
483.207
488.886
493.731
497.729
500.867
503.137
504.531
505.047
504.68
503.429
501.293
502.886
507.91
511.47
513.573
514.233
513.477
511.35
507.917
503.275
497.559
490.953
483.702
476.107
468.528
461.348
454.93
449.549
445.311
442.097
439.549
437.114
434.129
429.924
423.901
415.588
404.651
390.889
374.206
354.59
332.086
306.776
278.763
248.163
215.098
197.46
218.7
263.049
308.858
356.04
404.513
454.198
505.014
556.88
609.71
663.412
717.885
773.018
828.687
884.753
941.061
997.432
1053.66
1109.52
1164.74
1218.99
1271.89
1322.8
1371.09
1416.63
1458.06
14494.3
5651.27
1420.27
1363.81
1301.82
1235.26
1165.02
1091.92
1016.85
940.694
864.476
789.08
715.694
646.336
583.367
529.2
485.963
454.927
435.938
427.3
426.41
430.627
437.704
446.113
454.877
463.443
471.511
478.915
485.565
491.41
496.416
500.564
503.838
506.228
507.726
508.328
508.03
506.832
504.732
501.731
503.605
510.061
515.04
518.546
520.591
521.199
520.409
518.286
514.924
510.455
505.066
498.999
492.562
486.116
480.054
474.748
470.483
467.373
465.308
463.934
462.696
460.929
457.951
453.157
446.064
436.33
423.743
408.202
389.689
368.244
343.948
316.901
287.22
255.026
236.528
256.574
301.174
347.159
394.446
442.957
492.616
543.347
595.073
647.711
701.173
755.364
810.176
865.489
921.17
977.065
1033
1088.78
1144.17
1198.9
1252.66
1305.05
1355.45
1403.22
1448.21
1489.12
13197.9
6872.02
1455.83
1398.75
1336.03
1268.63
1197.46
1123.35
1047.16
969.816
892.321
815.582
740.76
669.851
605.232
549.351
504.404
471.755
451.354
441.592
439.845
443.349
449.818
457.678
465.915
473.952
481.474
488.308
494.362
499.58
503.932
507.396
509.957
511.607
512.34
512.151
511.04
509.005
506.05
502.174
504.325
512.212
518.609
523.518
526.947
528.917
529.464
528.649
526.564
523.341
519.165
514.28
508.996
503.681
498.732
494.533
491.378
489.39
488.467
488.26
488.212
487.653
485.896
482.324
476.446
467.91
456.497
442.098
424.69
404.311
381.037
354.97
326.225
294.924
275.355
293.942
338.724
384.812
432.127
480.595
530.144
580.703
632.197
684.551
737.681
791.496
845.893
900.76
955.966
1011.36
1066.79
1122.04
1176.89
1231.09
1284.31
1336.17
1386.06
1433.32
1477.84
1518.29
11546.4
8437.1
1490.83
1433.29
1370
1301.93
1229.98
1155
1077.84
999.416
920.727
842.707
766.481
694.011
627.686
569.998
523.217
488.818
466.877
455.862
453.147
455.899
461.76
469.087
476.821
484.356
491.359
497.649
503.128
507.74
511.453
514.246
516.105
517.022
516.992
516.012
514.084
511.208
507.387
502.624
505.045
514.362
522.178
528.49
533.302
536.632
538.513
539.004
538.194
536.215
533.248
529.542
525.407
521.216
517.375
514.276
512.222
511.348
511.558
512.505
513.636
514.273
513.723
511.362
506.687
499.338
489.088
475.824
459.517
440.201
417.951
392.87
365.071
334.68
313.895
330.83
375.72
421.831
469.089
517.424
566.767
617.053
668.213
720.177
772.866
826.196
880.07
934.382
989.007
1043.81
1098.62
1153.25
1207.49
1261.07
1313.69
1364.97
1414.32
1461.03
1505.04
1545.06
9499.92
10407.6
1525.14
1467.26
1403.57
1335.02
1262.5
1186.82
1108.85
1029.48
949.712
870.499
792.923
718.899
650.827
591.239
542.489
506.181
482.536
470.13
466.353
468.31
473.554
480.362
487.619
494.679
501.191
506.962
511.89
515.915
519.005
521.138
522.302
522.49
521.698
519.925
517.174
513.447
508.748
503.082
505.765
516.514
525.748
533.461
539.656
544.345
547.56
549.355
549.818
549.077
547.317
544.784
541.792
538.72
535.979
533.971
533.008
533.236
534.564
536.652
538.944
540.76
541.398
540.227
536.735
530.553
521.449
509.302
494.08
475.816
454.583
430.483
403.633
374.158
352.106
367.292
412.208
458.255
505.361
553.461
602.491
652.391
703.099
754.549
806.672
859.387
912.609
966.235
1020.15
1074.23
1128.31
1182.21
1235.73
1288.6
1340.54
1391.16
1439.89
1486.01
1529.44
1568.9
7053.91
12774.1
1558.27
1500.27
1436.42
1367.66
1294.81
1218.68
1140.12
1059.99
979.288
898.997
820.157
744.607
674.757
613.182
562.324
523.933
498.407
484.46
479.518
480.629
485.244
491.545
498.346
504.96
511.008
516.285
520.682
524.138
526.617
528.1
528.574
528.033
526.475
523.903
520.319
515.729
510.137
503.55
506.486
518.666
529.319
538.434
546.011
552.059
556.606
559.704
561.437
561.934
561.376
560.011
558.157
556.195
554.545
553.617
553.733
555.047
557.477
560.686
564.117
567.086
568.886
568.876
566.537
561.492
553.502
542.443
528.28
511.042
490.805
467.67
441.757
413.196
389.946
403.416
448.272
494.159
541.009
588.76
637.356
686.742
736.861
787.656
839.063
891.014
943.427
996.214
1049.27
1102.47
1155.67
1208.71
1261.39
1313.46
1364.63
1414.53
1462.57
1508.03
1550.75
1589.33
3821.57
15712.6
1589.31
1531.62
1468.05
1399.45
1326.62
1250.37
1171.49
1090.86
1009.44
928.229
848.238
771.223
699.591
635.955
582.853
542.199
514.599
498.942
492.717
492.919
496.885
502.686
509.054
515.248
520.859
525.666
529.551
532.45
534.328
535.164
534.948
533.675
531.345
527.962
523.532
518.062
511.559
504.029
507.207
520.82
532.892
543.411
552.372
559.78
565.661
570.063
573.067
574.799
575.441
575.241
574.518
573.658
573.089
573.227
574.406
576.788
580.298
584.601
589.142
593.231
596.156
597.267
596.037
592.085
585.164
575.148
561.999
545.747
526.467
504.265
479.263
451.594
427.38
439.338
484.043
529.666
576.145
623.423
671.449
720.173
769.547
819.521
870.039
921.042
972.46
1024.21
1076.21
1128.34
1180.48
1232.47
1284.12
1335.23
1385.5
1434.59
1481.96
1526.82
1569
1607.04
1639.21
17743.5
1616.46
1560.17
1497.64
1429.81
1357.51
1281.55
1202.74
1121.92
1040.06
958.162
877.202
798.835
725.452
659.706
604.237
561.14
531.262
513.709
506.068
505.285
508.576
513.88
519.834
525.631
530.826
535.18
538.565
540.915
542.193
542.379
541.464
539.447
536.33
532.119
526.824
520.454
513.016
504.521
507.928
522.974
536.468
548.393
558.74
567.513
574.732
580.44
584.718
587.687
589.528
590.489
590.892
591.127
591.627
592.819
595.043
598.472
603.036
608.404
614.018
619.186
623.187
625.365
625.188
622.266
616.351
607.312
595.112
579.783
561.402
540.078
515.938
489.122
464.378
475.254
519.711
564.962
610.948
657.616
704.921
752.82
801.271
850.233
899.658
949.497
999.691
1050.17
1100.86
1151.66
1202.46
1253.13
1303.5
1353.38
1402.49
1450.54
1497.13
1541.32
1583.25
1621.63
1655.25
18396.8
1639.03
1585.29
1524.63
1458.21
1386.98
1311.82
1233.53
1152.95
1071
988.724
907.054
827.523
752.483
684.622
626.684
580.965
548.588
528.926
519.703
517.838
520.412
525.215
530.77
536.192
540.991
544.907
547.8
549.601
550.271
549.795
548.165
545.383
541.455
536.392
530.206
522.909
514.512
505.025
508.649
525.13
540.048
553.386
565.129
575.278
583.846
590.875
596.438
600.655
603.704
605.832
607.361
608.685
610.244
612.471
615.717
620.162
625.743
632.131
638.767
644.954
649.965
653.138
653.933
651.957
646.958
638.807
627.466
612.969
595.401
574.873
551.521
525.489
500.925
511.439
555.553
600.32
645.685
691.599
738.022
784.919
832.253
879.991
928.095
976.526
1025.24
1074.17
1123.27
1172.44
1221.61
1270.65
1319.43
1367.77
1415.46
1462.24
1507.74
1551.29
1592.54
1631.16
1665.88
17386.8
1656.13
1606.1
1548.02
1483.63
1414.11
1340.35
1263.18
1183.4
1101.9
1019.69
937.687
857.293
780.787
710.883
650.43
601.942
566.858
544.874
533.902
530.851
532.662
536.954
542.114
547.166
551.569
555.036
557.421
558.647
558.68
557.505
555.122
551.535
546.757
540.804
533.691
525.434
516.047
505.542
509.368
527.28
543.626
558.382
571.532
583.069
593.002
601.366
608.23
613.708
617.973
621.272
623.927
626.337
628.946
632.196
636.448
641.887
648.457
655.827
663.434
670.576
676.519
680.594
682.257
681.115
676.914
669.527
658.921
645.135
628.257
608.41
585.734
560.385
537.024
548.246
591.926
636.101
680.717
725.732
771.109
816.818
862.83
909.119
955.658
1002.41
1049.35
1096.43
1143.6
1190.8
1237.96
1284.98
1331.77
1378.16
1424.01
1469.06
1513.04
1555.33
1595.6
1633.61
1668.27
13748.7
5235.39
1624.46
1567.84
1505.42
1437.99
1366.26
1290.92
1212.68
1132.32
1050.8
969.022
888.221
810.567
738.785
675.825
624.432
586.401
561.817
548.853
544.449
545.407
549.154
553.918
558.608
562.622
565.64
567.501
568.127
567.486
565.569
562.382
557.939
552.259
545.365
537.281
528.027
517.619
506.07
510.085
529.43
547.214
563.411
578
590.966
602.313
612.065
620.284
627.076
632.607
637.118
640.929
644.438
648.095
652.346
657.562
663.935
671.412
679.666
688.134
696.109
702.852
707.69
710.077
709.616
706.056
699.272
689.236
675.995
659.648
640.326
618.182
593.38
572.691
586.173
629.334
672.812
716.557
760.529
804.697
849.034
893.519
938.132
982.852
1027.66
1072.52
1117.42
1162.3
1207.14
1251.88
1296.45
1340.76
1384.71
1428.17
1470.95
1512.8
1553.23
1591.83
1628.44
1662.11
9491.51
9539.38
1637.16
1582.51
1522.56
1457.83
1388.84
1316.1
1240.2
1161.78
1081.69
1000.81
920.2
841.869
768.523
703.206
648.902
607.8
580.44
565.325
559.467
559.519
562.689
567.019
571.291
574.837
577.308
578.535
578.442
577.005
574.226
570.121
564.715
558.038
550.121
540.997
530.69
519.223
506.607
510.79
531.547
550.759
568.402
584.444
598.864
611.651
622.821
632.421
640.547
647.359
653.09
658.06
662.668
667.37
672.619
678.791
686.086
694.451
703.556
712.833
721.565
729.007
734.481
737.439
737.487
734.378
727.996
718.325
705.424
689.403
670.403
648.589
624.141
607.973
625.695
668.27
710.965
753.734
796.539
839.354
882.157
924.93
967.659
1010.33
1052.93
1095.43
1137.83
1180.09
1222.19
1264.09
1305.74
1347.09
1388.07
1428.57
1468.46
1507.53
1545.34
1581.5
1615.81
1647.05
3896.55
14583.6
1641.21
1589.67
1533.21
1472.16
1406.88
1337.74
1265.17
1189.69
1111.99
1032.9
953.309
874.974
800.532
733.082
675.839
631.42
600.906
583.244
575.609
574.545
577.026
580.877
584.723
587.8
589.716
590.282
589.423
587.124
583.4
578.284
571.819
564.052
555.03
544.798
533.391
520.836
507.144
511.488
533.67
554.362
573.53
591.14
607.156
621.556
634.334
645.519
655.186
663.473
670.597
676.86
682.653
688.426
694.636
701.667
709.729
718.782
728.498
738.307
747.494
755.313
761.092
764.291
764.524
761.556
755.281
745.693
732.861
716.909
697.99
676.286
651.984
642.907
667.602
709.518
751.342
793.032
834.555
875.888
917.012
957.916
998.587
1039.02
1079.19
1119.1
1158.73
1198.06
1237.07
1275.74
1314.04
1351.93
1389.36
1426.27
1462.56
1498.11
1532.62
1565.69
1597.24
1626.24
1651.32
17156.1
1632.78
1586.37
1534.91
1478.82
1418.42
1353.99
1285.85
1214.42
1140.22
1064.01
986.535
909.251
834.639
765.803
706.146
658.711
625.171
605.009
595.63
593.472
595.238
598.498
601.701
604.005
604.998
604.506
602.481
598.934
593.908
587.461
579.657
570.564
560.246
548.76
536.153
522.454
507.675
512.138
535.627
557.699
578.33
597.469
615.062
631.058
645.424
658.159
669.316
679.017
687.472
694.99
701.967
708.847
716.058
723.979
732.832
742.569
752.864
763.152
772.724
780.845
786.852