/*--------------------------------*- C++ -*----------------------------------*\
  =========                 |
  \\      /  F ield         | OpenFOAM: The Open Source CFD Toolbox
   \\    /   O peration     | Website:  https://openfoam.org
    \\  /    A nd           | Version:  8
     \\/     M anipulation  |
\*---------------------------------------------------------------------------*/
FoamFile
{
    version     2.0;
    format      ascii;
    class       volScalarField;
    location    "400/fluid";
    object      rho;
}
// * * * * * * * * * * * * * * * * * * * * * * * * * * * * * * * * * * * * * //

dimensions      [1 -3 0 0 0 0 0];

internalField   nonuniform List<scalar> 
4000
(
0.658526
0.658502
0.65846
0.658391
0.658276
0.658084
0.65777
0.657258
0.656434
0.655122
0.653069
0.649917
0.645192
0.638308
0.628624
0.615546
0.598699
0.578092
0.554205
0.52796
0.500528
0.473067
0.446526
0.421552
0.398496
0.377475
0.358446
0.341274
0.325782
0.311781
0.29909
0.287546
0.277003
0.267342
0.258461
0.250271
0.242665
0.235568
0.228929
0.2227
0.216844
0.211328
0.206125
0.201211
0.196565
0.192172
0.188017
0.184089
0.180378
0.176876
0.173579
0.170483
0.167587
0.164891
0.162401
0.160123
0.158072
0.156267
0.15477
0.153584
0.152738
0.152348
0.152545
0.159053
0.168681
0.180082
0.193518
0.209343
0.228021
0.250163
0.276568
0.308271
0.346608
0.393336
0.450786
0.521353
0.606756
0.706665
0.816413
0.925495
1.0201
1.09025
1.13494
1.15994
1.17264
1.17874
1.18157
1.18284
1.1834
1.18364
1.18375
1.18379
1.18381
1.18382
1.18382
1.18382
1.18382
1.18382
1.18382
1.18382
0.658526
0.658501
0.65846
0.658389
0.658272
0.658078
0.657759
0.657239
0.656402
0.655071
0.652991
0.649807
0.645048
0.638139
0.628452
0.61541
0.59865
0.578179
0.554473
0.528423
0.501157
0.473809
0.447324
0.422356
0.399268
0.378191
0.359091
0.341845
0.326278
0.312207
0.299451
0.287848
0.277252
0.267544
0.25862
0.250394
0.242755
0.235628
0.228961
0.222709
0.216833
0.2113
0.206081
0.201152
0.196494
0.19209
0.187925
0.183989
0.180271
0.176764
0.173463
0.170365
0.167468
0.164773
0.162285
0.160013
0.157969
0.156173
0.154688
0.15351
0.152673
0.152293
0.152501
0.159999
0.169785
0.181427
0.195186
0.211427
0.23064
0.253474
0.280781
0.313666
0.353557
0.402355
0.462499
0.536337
0.625292
0.72821
0.83904
0.946044
1.03571
1.10008
1.14018
1.16241
1.17372
1.17919
1.18174
1.18291
1.18342
1.18365
1.18375
1.18379
1.18381
1.18382
1.18382
1.18382
1.18382
1.18382
1.18382
1.18382
0.658526
0.658501
0.658459
0.658387
0.658268
0.658071
0.657747
0.657218
0.656368
0.65502
0.652917
0.649706
0.644918
0.637986
0.628291
0.615268
0.598558
0.578167
0.554571
0.528648
0.501508
0.474269
0.447862
0.422936
0.399859
0.378766
0.359634
0.342342
0.326725
0.312601
0.299792
0.288137
0.277492
0.267737
0.258768
0.250498
0.242822
0.235663
0.228967
0.222687
0.216785
0.211228
0.205987
0.201038
0.196362
0.191942
0.187763
0.183814
0.180086
0.176571
0.173264
0.170162
0.167264
0.164572
0.162091
0.15983
0.157804
0.156034
0.154588
0.153425
0.152637
0.152297
0.152509
0.161096
0.171354
0.183494
0.197814
0.214719
0.234738
0.258571
0.287129
0.321587
0.363451
0.414746
0.477907
0.555051
0.647051
0.751727
0.861804
0.965075
1.04917
1.10819
1.14446
1.16447
1.17466
1.1796
1.18192
1.18298
1.18345
1.18366
1.18375
1.18379
1.18381
1.18382
1.18382
1.18382
1.18382
1.18382
1.18382
1.18382
0.658526
0.658501
0.658458
0.658386
0.658266
0.658067
0.657739
0.657207
0.656351
0.654995
0.652882
0.64966
0.644863
0.637926
0.628236
0.615236
0.598574
0.578261
0.554755
0.52892
0.501857
0.474675
0.448301
0.423387
0.400303
0.379189
0.360027
0.342698
0.327041
0.312873
0.300021
0.288323
0.277636
0.267841
0.258837
0.250536
0.242831
0.235643
0.228918
0.222611
0.216684
0.211102
0.205839
0.20087
0.196175
0.191737
0.187543
0.183581
0.179841
0.176318
0.173005
0.169899
0.167002
0.164314
0.161844
0.159601
0.157604
0.155891
0.154511
0.153456
0.152848
0.152805
0.153522
0.162619
0.173396
0.186101
0.201067
0.21873
0.239664
0.264616
0.294553
0.330717
0.374695
0.428619
0.494867
0.575294
0.670179
0.776309
0.885272
0.984551
1.063
1.11666
1.14905
1.16675
1.17573
1.18008
1.18213
1.18307
1.18349
1.18368
1.18376
1.1838
1.18381
1.18382
1.18382
1.18382
1.18382
1.18382
1.18382
1.18382
0.658526
0.6585
0.658457
0.658385
0.658264
0.658064
0.657734
0.657199
0.656338
0.654976
0.652857
0.649626
0.644821
0.63788
0.628194
0.615209
0.598576
0.578306
0.554855
0.529078
0.502068
0.474925
0.448575
0.423669
0.400578
0.379446
0.360259
0.342901
0.327212
0.313013
0.300129
0.288401
0.277688
0.267867
0.258837
0.250509
0.242776
0.235561
0.228811
0.22248
0.216529
0.210926
0.205643
0.200655
0.195942
0.191489
0.187281
0.183307
0.179557
0.176026
0.172707
0.169599
0.166702
0.164019
0.161558
0.15933
0.157355
0.155686
0.15436
0.153381
0.152892
0.153047
0.15516
0.164647
0.175877
0.189116
0.204718
0.223149
0.245018
0.271116
0.302463
0.34036
0.386481
0.443036
0.512293
0.595792
0.693148
0.800106
0.907286
1.00221
1.07516
1.12395
1.15296
1.16868
1.17664
1.1805
1.18231
1.18315
1.18353
1.18369
1.18377
1.1838
1.18381
1.18382
1.18382
1.18382
1.18382
1.18382
1.18382
1.18382
0.658526
0.6585
0.658457
0.658384
0.658263
0.658062
0.657731
0.657194
0.656331
0.654966
0.652844
0.64961
0.644802
0.637861
0.628179
0.615204
0.598589
0.578344
0.554922
0.529174
0.502188
0.475063
0.44872
0.423812
0.400712
0.379567
0.360361
0.342984
0.327275
0.313056
0.300153
0.288403
0.277666
0.267821
0.258767
0.250416
0.24266
0.235423
0.228652
0.222302
0.216332
0.210711
0.20541
0.200406
0.195679
0.191213
0.186993
0.183009
0.179252
0.175714
0.172392
0.169283
0.166387
0.163707
0.161252
0.159033
0.157069
0.155413
0.154099
0.153124
0.152614
0.152684
0.157216
0.16699
0.178605
0.192332
0.208538
0.227713
0.250497
0.27772
0.310453
0.350051
0.398282
0.457399
0.529521
0.615851
0.715318
0.822671
0.927739
1.01831
1.0861
1.13049
1.15648
1.17044
1.17747
1.18088
1.18249
1.18323
1.18356
1.18371
1.18377
1.1838
1.18381
1.18382
1.18382
1.18382
1.18382
1.18382
1.18382
1.18382
0.658526
0.6585
0.658457
0.658384
0.658262
0.65806
0.657729
0.657191
0.656327
0.654959
0.652834
0.649597
0.644787
0.637845
0.628164
0.615194
0.598588
0.578355
0.554946
0.529211
0.502235
0.475115
0.448774
0.423863
0.400756
0.379601
0.360383
0.34299
0.327263
0.313025
0.300101
0.288332
0.277576
0.267712
0.25864
0.250271
0.242498
0.235244
0.228456
0.222089
0.216104
0.210469
0.205154
0.200137
0.195399
0.190922
0.186694
0.182703
0.17894
0.1754
0.172077
0.168969
0.166077
0.163405
0.160959
0.158752
0.156804
0.155175
0.153879
0.152921
0.152432
0.152551
0.159236
0.169303
0.181298
0.195499
0.212292
0.232188
0.255857
0.284169
0.318239
0.359477
0.409745
0.471302
0.546102
0.634986
0.736181
0.8435
0.946177
1.03247
1.09553
1.13603
1.15944
1.17191
1.17817
1.18121
1.18263
1.18329
1.18359
1.18372
1.18378
1.1838
1.18381
1.18382
1.18382
1.18382
1.18382
1.18382
1.18382
1.18382
0.658526
0.6585
0.658456
0.658383
0.658261
0.658059
0.657728
0.657189
0.656323
0.654955
0.652827
0.649588
0.644776
0.637831
0.628149
0.615179
0.598576
0.578347
0.554942
0.529211
0.502236
0.475114
0.448766
0.423846
0.400728
0.379559
0.360326
0.34292
0.327178
0.312926
0.299988
0.288205
0.277435
0.267557
0.258472
0.25009
0.242304
0.235036
0.228235
0.221856
0.215859
0.210212
0.204887
0.199861
0.195114
0.19063
0.186396
0.182401
0.178636
0.175095
0.171775
0.168672
0.165789
0.163128
0.160698
0.158511
0.156587
0.154988
0.153716
0.152785
0.152313
0.152427
0.160982
0.171367
0.183759
0.198442
0.215814
0.23641
0.26093
0.290282
0.325625
0.368422
0.420623
0.484463
0.561723
0.652868
0.755434
0.862395
0.962566
1.0448
1.10361
1.14074
1.16196
1.17317
1.17877
1.18148
1.18276
1.18335
1.18361
1.18373
1.18378
1.1838
1.18381
1.18382
1.18382
1.18382
1.18382
1.18382
1.18382
1.18382
0.658526
0.6585
0.658456
0.658383
0.658261
0.658059
0.657727
0.657187
0.65632
0.65495
0.652821
0.649579
0.644763
0.637814
0.628127
0.615152
0.598541
0.578306
0.554894
0.529155
0.502172
0.475042
0.448686
0.423756
0.400629
0.379451
0.360209
0.342793
0.327042
0.31278
0.299833
0.28804
0.27726
0.267373
0.258278
0.249888
0.242091
0.234813
0.228003
0.221614
0.215608
0.209952
0.20462
0.199587
0.194834
0.190345
0.186108
0.182111
0.178347
0.174809
0.171494
0.1684
0.16553
0.162887
0.160481
0.158327
0.156445
0.154917
0.153687
0.152866
0.152542
0.15286
0.162042
0.172955
0.18585
0.20106
0.219019
0.240297
0.265629
0.295964
0.332502
0.376764
0.430772
0.496718
0.576209
0.669325
0.772942
0.879294
0.976938
1.05541
1.11046
1.14469
1.16405
1.17421
1.17927
1.18171
1.18286
1.18339
1.18363
1.18374
1.18379
1.18381
1.18382
1.18382
1.18382
1.18382
1.18382
1.18382
1.18382
1.18382
0.658526
0.6585
0.658456
0.658383
0.658261
0.658058
0.657725
0.657185
0.656318
0.654946
0.652815
0.64957
0.644749
0.637794
0.628099
0.615113
0.598491
0.578242
0.554816
0.529063
0.502067
0.474924
0.448558
0.42362
0.400485
0.3793
0.360052
0.342629
0.326873
0.312605
0.299652
0.287853
0.277067
0.267174
0.258072
0.249675
0.24187
0.234586
0.227768
0.221372
0.21536
0.209698
0.20436
0.199323
0.194566
0.190075
0.185837
0.18184
0.178078
0.174545
0.171236
0.168152
0.165295
0.162671
0.16029
0.158169
0.156345
0.154885
0.153755
0.153091
0.153024
0.153779
0.163294
0.174569
0.187862
0.20352
0.222
0.243895
0.269969
0.301204
0.338841
0.384458
0.440132
0.507995
0.589477
0.684284
0.788673
0.894244
0.989426
1.06448
1.11623
1.148
1.16579
1.17507
1.17968
1.18191
1.18295
1.18343
1.18365
1.18375
1.18379
1.18381
1.18382
1.18382
1.18382
1.18382
1.18382
1.18382
1.18382
1.18382
0.658526
0.6585
0.658456
0.658383
0.65826
0.658057
0.657724
0.657183
0.656315
0.654942
0.652808
0.649559
0.644734
0.637771
0.628066
0.615067
0.598428
0.578161
0.554716
0.528945
0.501932
0.474777
0.4484
0.423453
0.400312
0.379123
0.359871
0.342446
0.326686
0.312415
0.299458
0.287656
0.276866
0.266969
0.257864
0.249462
0.241652
0.234363
0.22754
0.221139
0.215123
0.209457
0.204116
0.199075
0.194317
0.189825
0.185586
0.181591
0.177832
0.174303
0.171002
0.167926
0.165081
0.162471
0.160107
0.158009
0.156219
0.15479
0.153697
0.153076
0.153054
0.154872
0.164634
0.176189
0.189805
0.205842
0.224774
0.247213
0.27395
0.305997
0.344629
0.39148
0.448666
0.51825
0.60149
0.697728
0.802655
0.907338
1.00018
1.07217
1.12107
1.15074
1.16723
1.17579
1.18003
1.18207
1.18302
1.18347
1.18366
1.18375
1.18379
1.18381
1.18382
1.18382
1.18382
1.18382
1.18382
1.18382
1.18382
1.18382
0.658526
0.6585
0.658456
0.658383
0.65826
0.658057
0.657723
0.657182
0.656312
0.654937
0.652801
0.649548
0.644716
0.637745
0.628028
0.615014
0.598357
0.578069
0.554602
0.528811
0.501781
0.474612
0.448224
0.423271
0.400125
0.378933
0.35968
0.342253
0.326493
0.312221
0.299263
0.287459
0.276667
0.266768
0.257661
0.249257
0.241444
0.234151
0.227325
0.220921
0.214902
0.209234
0.20389
0.198849
0.194089
0.189598
0.18536
0.181367
0.177612
0.174087
0.170791
0.167723
0.164886
0.162286
0.159934
0.157846
0.156066
0.154644
0.15355
0.152911
0.152836
0.156053
0.165987
0.177757
0.191636
0.207995
0.227317
0.250235
0.277559
0.310328
0.349848
0.397807
0.456344
0.527453
0.612227
0.709664
0.814941
0.918691
1.00938
1.07865
1.1251
1.15301
1.16842
1.17638
1.18031
1.1822
1.18308
1.18349
1.18368
1.18376
1.18379
1.18381
1.18382
1.18382
1.18382
1.18382
1.18382
1.18382
1.18382
1.18382
0.658526
0.6585
0.658456
0.658382
0.65826
0.658056
0.657722
0.65718
0.65631
0.654933
0.652794
0.649537
0.644699
0.637718
0.627988
0.614958
0.598282
0.577972
0.554483
0.528671
0.501624
0.47444
0.448044
0.423085
0.399936
0.378743
0.359489
0.342063
0.326304
0.312032
0.299074
0.28727
0.276478
0.266579
0.257471
0.249066
0.241251
0.233956
0.227128
0.220723
0.214702
0.209032
0.203688
0.198646
0.193887
0.189396
0.185161
0.181171
0.177418
0.173899
0.170609
0.167548
0.164718
0.162127
0.159783
0.157706
0.155937
0.154525
0.153437
0.152801
0.152726
0.157119
0.167215
0.179178
0.19329
0.209929
0.229595
0.252932
0.280773
0.31418
0.354483
0.403422
0.463155
0.535599
0.621693
0.720119
0.825605
0.928425
1.01715
1.08406
1.12844
1.15489
1.1694
1.17686
1.18054
1.18231
1.18313
1.18351
1.18369
1.18376
1.1838
1.18381
1.18382
1.18382
1.18382
1.18382
1.18382
1.18382
1.18382
1.18382
0.658526
0.6585
0.658456
0.658382
0.658259
0.658056
0.657721
0.657178
0.656307
0.654928
0.652786
0.649525
0.644681
0.637691
0.627949
0.614902
0.598206
0.577875
0.554364
0.528532
0.501468
0.474272
0.447867
0.422904
0.399753
0.37856
0.359308
0.341884
0.326126
0.311856
0.298899
0.287096
0.276305
0.266406
0.257298
0.248893
0.241077
0.233781
0.226953
0.220547
0.214525
0.208856
0.203511
0.19847
0.193712
0.189223
0.184989
0.181002
0.177254
0.173739
0.170455
0.167401
0.164579
0.161996
0.159662
0.157595
0.155837
0.154434
0.153355
0.152726
0.152656
0.158046
0.168289
0.180423
0.194738
0.211623
0.231585
0.255286
0.283575
0.317534
0.35852
0.408315
0.469084
0.54268
0.629895
0.729129
0.834719
0.93666
1.02366
1.08855
1.13119
1.15641
1.17019
1.17725
1.18073
1.18239
1.18317
1.18353
1.18369
1.18377
1.1838
1.18381
1.18382
1.18382
1.18382
1.18382
1.18382
1.18382
1.18382
1.18382
0.658526
0.6585
0.658456
0.658382
0.658259
0.658055
0.657721
0.657177
0.656304
0.654924
0.652779
0.649514
0.644664
0.637666
0.627911
0.614849
0.598135
0.577783
0.554252
0.528401
0.501322
0.474115
0.447704
0.422736
0.399585
0.378393
0.359142
0.341721
0.325965
0.311697
0.298743
0.286941
0.276151
0.266253
0.257147
0.248742
0.240926
0.23363
0.226802
0.220396
0.214374
0.208705
0.203361
0.198321
0.193565
0.189077
0.184847
0.180864
0.177119
0.17361
0.170331
0.167283
0.164469
0.161894
0.15957
0.157511
0.155764
0.15437
0.153299
0.152677
0.152614
0.158818
0.169194
0.181479
0.19597
0.213064
0.233281
0.257292
0.285963
0.320394
0.361964
0.41249
0.47414
0.548709
0.63686
0.736742
0.842367
0.943508
1.02902
1.09221
1.13341
1.15765
1.17084
1.17757
1.18088
1.18246
1.18321
1.18355
1.1837
1.18377
1.1838
1.18381
1.18382
1.18382
1.18382
1.18382
1.18382
1.18382
1.18382
1.18382
0.658526
0.6585
0.658456
0.658382
0.658259
0.658055
0.65772
0.657175
0.656302
0.65492
0.652773
0.649505
0.644649
0.637643
0.627878
0.614802
0.598071
0.577701
0.554152
0.528285
0.501192
0.473976
0.447559
0.422589
0.399438
0.378247
0.358998
0.341579
0.325826
0.311561
0.298609
0.286809
0.276021
0.266124
0.25702
0.248616
0.240801
0.233505
0.226677
0.220271
0.21425
0.208582
0.20324
0.1982
0.193446
0.188961
0.184734
0.180754
0.177014
0.173509
0.170236
0.167195
0.164388
0.161821
0.159504
0.157453
0.155714
0.154328
0.153263
0.152646
0.15259
0.159441
0.169933
0.182347
0.196988
0.214258
0.234687
0.258957
0.287946
0.322769
0.364822
0.415955
0.478334
0.553704
0.642614
0.743008
0.848625
0.949072
1.03334
1.09514
1.13519
1.15863
1.17134
1.17782
1.181
1.18252
1.18323
1.18356
1.18371
1.18377
1.1838
1.18381
1.18382
1.18382
1.18382
1.18382
1.18382
1.18382
1.18382
1.18382
0.658526
0.6585
0.658456
0.658382
0.658258
0.658054
0.657719
0.657174
0.6563
0.654917
0.652768
0.649496
0.644636
0.637623
0.627849
0.614762
0.598017
0.577632
0.554068
0.528187
0.501084
0.47386
0.447438
0.422467
0.399315
0.378126
0.35888
0.341463
0.325713
0.31145
0.2985
0.286702
0.275916
0.266021
0.256918
0.248516
0.240701
0.233406
0.226579
0.220174
0.214154
0.208487
0.203146
0.198108
0.193356
0.188874
0.184649
0.180673
0.176937
0.173437
0.170169
0.167134
0.164333
0.161772
0.159461
0.157417
0.155685
0.154302
0.153237
0.152612
0.152538
0.159912
0.170511
0.183037
0.197802
0.215215
0.235815
0.260291
0.289533
0.324667
0.367106
0.418723
0.481681
0.557683
0.647187
0.747968
0.853554
0.95343
1.0367
1.09742
1.13656
1.15939
1.17173
1.17801
1.18109
1.18256
1.18325
1.18357
1.18371
1.18377
1.1838
1.18381
1.18382
1.18382
1.18382
1.18382
1.18382
1.18382
1.18382
1.18382
0.658526
0.6585
0.658456
0.658382
0.658258
0.658054
0.657719
0.657173
0.656299
0.654915
0.652764
0.64949
0.644626
0.637608
0.627827
0.61473
0.597975
0.577578
0.554002
0.528111
0.501
0.47377
0.447345
0.422372
0.399221
0.378033
0.358789
0.341374
0.325626
0.311366
0.298418
0.286622
0.275837
0.265944
0.256843
0.248442
0.240628
0.233335
0.226508
0.220104
0.214085
0.208419
0.203079
0.198043
0.193293
0.188813
0.184591
0.180618
0.176887
0.173391
0.170128
0.167098
0.164302
0.161747
0.159443
0.157405
0.155678
0.154299
0.153236
0.152608
0.152529
0.160297
0.170966
0.183572
0.198427
0.215946
0.236672
0.261303
0.290733
0.3261
0.368827
0.420804
0.484194
0.560664
0.650604
0.751661
0.857206
0.95664
1.03917
1.09908
1.13756
1.15994
1.17202
1.17815
1.18116
1.18259
1.18326
1.18357
1.18371
1.18377
1.1838
1.18381
1.18382
1.18382
1.18382
1.18382
1.18382
1.18382
1.18382
1.18382
0.658526
0.6585
0.658456
0.658382
0.658258
0.658054
0.657718
0.657173
0.656297
0.654913
0.652761
0.649485
0.644619
0.637598
0.627812
0.614709
0.597947
0.577542
0.553958
0.52806
0.500943
0.473709
0.447282
0.422308
0.399158
0.37797
0.358728
0.341315
0.325568
0.311309
0.298363
0.286568
0.275785
0.265894
0.256794
0.248394
0.240582
0.233289
0.226463
0.22006
0.214042
0.208377
0.203039
0.198004
0.193256
0.188778
0.184558
0.180588
0.176859
0.173367
0.170108
0.167082
0.164292
0.161743
0.159444
0.157411
0.15569
0.154314
0.153252
0.152622
0.152535
0.160544
0.171273
0.183938
0.198857
0.216449
0.23726
0.261993
0.291548
0.327069
0.369987
0.422203
0.485877
0.562655
0.652878
0.754107
0.859611
0.958742
1.04078
1.10016
1.13821
1.1603
1.1722
1.17824
1.1812
1.18261
1.18327
1.18358
1.18371
1.18377
1.1838
1.18381
1.18382
1.18382
1.18382
1.18382
1.18382
1.18382
1.18382
1.18382
0.658526
0.6585
0.658456
0.658382
0.658258
0.658054
0.657718
0.657172
0.656297
0.654912
0.65276
0.649483
0.644616
0.637593
0.627805
0.614699
0.597933
0.577524
0.553936
0.528035
0.500915
0.473679
0.447251
0.422277
0.399126
0.37794
0.358698
0.341285
0.32554
0.311281
0.298336
0.286542
0.27576
0.265869
0.25677
0.248371
0.24056
0.233268
0.226443
0.22004
0.214023
0.208359
0.203021
0.197987
0.19324
0.188763
0.184545
0.180577
0.17685
0.17336
0.170104
0.167081
0.164294
0.161748
0.159453
0.157424
0.155706
0.154333
0.153271
0.152637
0.152538
0.160664
0.171432
0.184131
0.199084
0.216713
0.237565
0.262348
0.291964
0.32756
0.37057
0.4229
0.486708
0.56363
0.653983
0.755287
0.860761
0.959738
1.04153
1.10067
1.13851
1.16047
1.17229
1.17828
1.18122
1.18262
1.18328
1.18358
1.18371
1.18378
1.1838
1.18381
1.18382
1.18382
1.18382
1.18382
1.18382
1.18382
1.18382
1.18382
0.658526
0.6585
0.658456
0.658382
0.658258
0.658054
0.657718
0.657172
0.656297
0.654912
0.65276
0.649483
0.644615
0.637593
0.627804
0.614698
0.597932
0.577523
0.553935
0.528034
0.500914
0.473679
0.44725
0.422276
0.399126
0.377939
0.358697
0.341285
0.325539
0.311281
0.298335
0.286542
0.275759
0.265869
0.25677
0.248371
0.24056
0.233267
0.226442
0.22004
0.214023
0.208358
0.203021
0.197987
0.19324
0.188763
0.184545
0.180577
0.17685
0.17336
0.170104
0.167081
0.164294
0.161748
0.159453
0.157424
0.155706
0.154333
0.153271
0.152637
0.152538
0.160665
0.171433
0.184132
0.199084
0.216713
0.237566
0.262349
0.291966
0.327561
0.370571
0.422902
0.48671
0.563633
0.653986
0.75529
0.860764
0.95974
1.04153
1.10067
1.13851
1.16047
1.17229
1.17828
1.18122
1.18262
1.18328
1.18358
1.18371
1.18378
1.1838
1.18381
1.18382
1.18382
1.18382
1.18382
1.18382
1.18382
1.18382
1.18382
0.658526
0.6585
0.658456
0.658382
0.658258
0.658054
0.657718
0.657173
0.656297
0.654913
0.652761
0.649485
0.644618
0.637597
0.627811
0.614708
0.597945
0.577539
0.553955
0.528057
0.50094
0.473706
0.447279
0.422306
0.399155
0.377968
0.358726
0.341313
0.325567
0.311308
0.298361
0.286567
0.275784
0.265893
0.256793
0.248393
0.240581
0.233288
0.226462
0.22006
0.214042
0.208377
0.203038
0.198004
0.193255
0.188777
0.184558
0.180588
0.176859
0.173366
0.170108
0.167082
0.164292
0.161742
0.159443
0.15741
0.155689
0.154314
0.153252
0.152622
0.152535
0.160545
0.171275
0.18394
0.198859
0.216452
0.237263
0.261996
0.291552
0.327073
0.369992
0.422209
0.485884
0.562663
0.652886
0.754116
0.85962
0.958749
1.04078
1.10017
1.13821
1.1603
1.1722
1.17824
1.1812
1.18261
1.18327
1.18358
1.18371
1.18377
1.1838
1.18381
1.18382
1.18382
1.18382
1.18382
1.18382
1.18382
1.18382
1.18382
0.658526
0.6585
0.658456
0.658382
0.658258
0.658054
0.657718
0.657173
0.656298
0.654915
0.652764
0.649489
0.644625
0.637607
0.627825
0.614728
0.597972
0.577574
0.553998
0.528106
0.500995
0.473765
0.44734
0.422368
0.399217
0.378029
0.358785
0.341371
0.325623
0.311363
0.298415
0.28662
0.275835
0.265942
0.256841
0.24844
0.240627
0.233333
0.226507
0.220103
0.214084
0.208418
0.203078
0.198042
0.193292
0.188812
0.184591
0.180618
0.176886
0.17339
0.170127
0.167097
0.164302
0.161747
0.159443
0.157404
0.155678
0.154299
0.153236
0.152609
0.152529
0.160299
0.170969
0.183574
0.19843
0.21595
0.236676
0.261307
0.290739
0.326106
0.368834
0.420813
0.484204
0.560677
0.650619
0.751676
0.857221
0.956654
1.03918
1.09909
1.13756
1.15994
1.17202
1.17815
1.18116
1.18259
1.18326
1.18357
1.18371
1.18377
1.1838
1.18381
1.18382
1.18382
1.18382
1.18382
1.18382
1.18382
1.18382
1.18382
0.658526
0.6585
0.658456
0.658382
0.658258
0.658054
0.657719
0.657174
0.6563
0.654917
0.652768
0.649495
0.644634
0.637621
0.627846
0.614758
0.598013
0.577626
0.554061
0.52818
0.501077
0.473853
0.447431
0.42246
0.39931
0.37812
0.358875
0.341459
0.325709
0.311446
0.298497
0.286699
0.275913
0.266019
0.256916
0.248513
0.240699
0.233404
0.226577
0.220172
0.214153
0.208485
0.203144
0.198107
0.193355
0.188872
0.184648
0.180671
0.176936
0.173436
0.170168
0.167133
0.164332
0.161771
0.159461
0.157417
0.155685
0.154302
0.153237
0.152612
0.152538
0.159915
0.170515
0.183041
0.197806
0.215221
0.23582
0.260298
0.289541
0.324676
0.367117
0.418735
0.481696
0.557701
0.647208
0.74799
0.853576
0.953449
1.03672
1.09743
1.13656
1.15939
1.17173
1.17801
1.18109
1.18256
1.18325
1.18357
1.18371
1.18377
1.1838
1.18381
1.18382
1.18382
1.18382
1.18382
1.18382
1.18382
1.18382
1.18382
0.658526
0.6585
0.658456
0.658382
0.658259
0.658055
0.65772
0.657175
0.656302
0.65492
0.652773
0.649503
0.644647
0.63764
0.627874
0.614797
0.598065
0.577694
0.554144
0.528276
0.501184
0.473968
0.44755
0.422581
0.39943
0.37824
0.358992
0.341574
0.325821
0.311557
0.298605
0.286805
0.276017
0.266121
0.257017
0.248613
0.240798
0.233502
0.226674
0.220269
0.214248
0.20858
0.203238
0.198199
0.193444
0.18896
0.184732
0.180752
0.177013
0.173508
0.170235
0.167194
0.164387
0.16182
0.159503
0.157452
0.155714
0.154327
0.153263
0.152646
0.15259
0.159446
0.169938
0.182353
0.196994
0.214265
0.234695
0.258966
0.287956
0.32278
0.364836
0.415971
0.478354
0.553727
0.642641
0.743036
0.848653
0.949097
1.03336
1.09516
1.13519
1.15863
1.17134
1.17782
1.181
1.18252
1.18323
1.18356
1.18371
1.18377
1.1838
1.18381
1.18382
1.18382
1.18382
1.18382
1.18382
1.18382
1.18382
1.18382
0.658526
0.6585
0.658456
0.658382
0.658259
0.658055
0.65772
0.657177
0.656304
0.654924
0.652779
0.649513
0.644662
0.637663
0.627907
0.614844
0.598128
0.577775
0.554243
0.528391
0.501312
0.474105
0.447693
0.422727
0.399576
0.378385
0.359135
0.341714
0.325959
0.311692
0.298738
0.286936
0.276147
0.266249
0.257143
0.248738
0.240923
0.233627
0.226799
0.220393
0.214371
0.208703
0.203359
0.198319
0.193562
0.189075
0.184845
0.180862
0.177118
0.173608
0.17033
0.167282
0.164468
0.161893
0.159569
0.157511
0.155763
0.154369
0.153299
0.152677
0.152614
0.158823
0.169199
0.181485
0.195977
0.213072
0.23329
0.257303
0.285976
0.320409
0.361981
0.41251
0.474164
0.548738
0.636892
0.736777
0.842402
0.943539
1.02904
1.09223
1.13342
1.15765
1.17084
1.17757
1.18088
1.18246
1.18321
1.18355
1.1837
1.18377
1.1838
1.18381
1.18382
1.18382
1.18382
1.18382
1.18382
1.18382
1.18382
1.18382
0.658526
0.6585
0.658456
0.658382
0.658259
0.658056
0.657721
0.657178
0.656306
0.654928
0.652785
0.649524
0.644678
0.637688
0.627944
0.614896
0.598198
0.577865
0.554353
0.52852
0.501455
0.47426
0.447855
0.422892
0.399743
0.37855
0.359299
0.341876
0.326118
0.311849
0.298893
0.28709
0.2763
0.266401
0.257294
0.248889
0.241073
0.233777
0.226949
0.220543
0.214522
0.208852
0.203508
0.198467
0.193709
0.18922
0.184987
0.181
0.177252
0.173737
0.170453
0.167399
0.164577
0.161994
0.159661
0.157594
0.155836
0.154433
0.153354
0.152725
0.152655
0.158052
0.168296
0.180431
0.194747
0.211632
0.231597
0.255299
0.283589
0.317551
0.35854
0.40834
0.469113
0.542714
0.629935
0.729172
0.834762
0.936698
1.02369
1.08857
1.1312
1.15642
1.1702
1.17725
1.18073
1.18239
1.18317
1.18353
1.18369
1.18377
1.1838
1.18381
1.18382
1.18382
1.18382
1.18382
1.18382
1.18382
1.18382
1.18382
0.658526
0.6585
0.658456
0.658382
0.658259
0.658056
0.657722
0.65718
0.656309
0.654932
0.652792
0.649535
0.644696
0.637714
0.627983
0.614951
0.598272
0.577961
0.55447
0.528657
0.501609
0.474426
0.44803
0.423071
0.399924
0.378731
0.359479
0.342054
0.326295
0.312024
0.299067
0.287263
0.276472
0.266573
0.257466
0.249061
0.241246
0.233951
0.227124
0.220719
0.214698
0.209029
0.203685
0.198643
0.193884
0.189393
0.185158
0.181168
0.177416
0.173896
0.170606
0.167545
0.164716
0.162125
0.159782
0.157704
0.155935
0.154523
0.153436
0.1528
0.152725
0.157126
0.167223
0.179187
0.1933
0.209941
0.229608
0.252947
0.280791
0.3142
0.354507
0.403451
0.463189
0.53564
0.62174
0.72017
0.825656
0.928471
1.01719
1.08409
1.12846
1.15489
1.1694
1.17686
1.18054
1.18231
1.18313
1.18351
1.18369
1.18376
1.1838
1.18381
1.18382
1.18382
1.18382
1.18382
1.18382
1.18382
1.18382
1.18382
0.658526
0.6585
0.658456
0.658382
0.65826
0.658057
0.657723
0.657181
0.656312
0.654937
0.6528
0.649546
0.644713
0.637741
0.628022
0.615006
0.598347
0.578056
0.554588
0.528795
0.501765
0.474595
0.448209
0.423256
0.400112
0.37892
0.359668
0.342243
0.326483
0.312212
0.299255
0.287451
0.27666
0.266762
0.257655
0.249251
0.241438
0.234146
0.22732
0.220917
0.214897
0.20923
0.203886
0.198845
0.194086
0.189594
0.185357
0.181364
0.177609
0.174084
0.170789
0.167721
0.164884
0.162284
0.159931
0.157844
0.156064
0.154642
0.153549
0.15291
0.152835
0.156062
0.165996
0.177767
0.191648
0.208008
0.227332
0.250252
0.277579
0.310352
0.349876
0.39784
0.456383
0.5275
0.612281
0.709723
0.815002
0.918746
1.00942
1.07868
1.12512
1.15302
1.16843
1.17638
1.18031
1.1822
1.18308
1.18349
1.18368
1.18376
1.18379
1.18381
1.18382
1.18382
1.18382
1.18382
1.18382
1.18382
1.18382
1.18382
0.658526
0.6585
0.658456
0.658383
0.65826
0.658057
0.657724
0.657183
0.656314
0.654941
0.652806
0.649557
0.64473
0.637766
0.628059
0.615057
0.598417
0.578147
0.5547
0.528927
0.501914
0.474758
0.448382
0.423437
0.400297
0.379108
0.359858
0.342433
0.326675
0.312405
0.299449
0.287647
0.276858
0.266961
0.257857
0.249455
0.241646
0.234357
0.227534
0.221134
0.215118
0.209452
0.204111
0.199071
0.194313
0.189821
0.185583
0.181588
0.177829
0.1743
0.170998
0.167923
0.165078
0.162468
0.160105
0.158007
0.156216
0.154788
0.153695
0.153074
0.153051
0.154881
0.164645
0.176201
0.189818
0.205857
0.224791
0.247233
0.273973
0.306024
0.34466
0.391517
0.44871
0.518303
0.601552
0.697796
0.802725
0.907402
1.00024
1.0722
1.12109
1.15075
1.16724
1.17579
1.18003
1.18207
1.18302
1.18347
1.18366
1.18375
1.18379
1.18381
1.18382
1.18382
1.18382
1.18382
1.18382
1.18382
1.18382
1.18382
0.658526
0.6585
0.658456
0.658383
0.658261
0.658058
0.657725
0.657185
0.656317
0.654945
0.652813
0.649567
0.644746
0.637789
0.628092
0.615103
0.598478
0.578227
0.554798
0.529043
0.502047
0.474904
0.448539
0.423601
0.400467
0.379284
0.360037
0.342616
0.326861
0.312594
0.299641
0.287843
0.277058
0.267165
0.258064
0.249667
0.241863
0.234579
0.227762
0.221366
0.215354
0.209693
0.204355
0.199318
0.194562
0.190071
0.185832
0.181836
0.178074
0.174541
0.171233
0.168149
0.165292
0.162668
0.160287
0.158166
0.156343
0.154883
0.153754
0.153092
0.153028
0.153787
0.163304
0.174581
0.187876
0.203537
0.222019
0.243916
0.269994
0.301233
0.338875
0.384498
0.440181
0.508053
0.589545
0.68436
0.788753
0.894318
0.989487
1.06452
1.11626
1.14801
1.1658
1.17508
1.17969
1.18191
1.18295
1.18343
1.18365
1.18375
1.18379
1.18381
1.18382
1.18382
1.18382
1.18382
1.18382
1.18382
1.18382
1.18382
0.658526
0.6585
0.658456
0.658383
0.658261
0.658059
0.657726
0.657186
0.65632
0.654949
0.652819
0.649576
0.644759
0.637809
0.628119
0.615141
0.598527
0.578289
0.554875
0.529134
0.50215
0.47502
0.448664
0.423736
0.40061
0.379433
0.360193
0.342778
0.327029
0.312768
0.299821
0.288029
0.27725
0.267364
0.25827
0.249879
0.242083
0.234806
0.227996
0.221607
0.215602
0.209946
0.204614
0.199581
0.194829
0.19034
0.186103
0.182107
0.178343
0.174805
0.17149
0.168397
0.165526
0.162884
0.160478
0.158325
0.156443
0.154916
0.153688
0.152868
0.152546
0.152865
0.162048
0.172964
0.185862
0.201074
0.219037
0.240318
0.265655
0.295994
0.332539
0.376808
0.430825
0.496782
0.576284
0.66941
0.773032
0.87938
0.97701
1.05547
1.11049
1.14471
1.16406
1.17421
1.17927
1.18172
1.18286
1.18339
1.18363
1.18374
1.18379
1.18381
1.18382
1.18382
1.18382
1.18382
1.18382
1.18382
1.18382
1.18382
0.658526
0.6585
0.658456
0.658383
0.658261
0.658059
0.657727
0.657188
0.656323
0.654953
0.652825
0.649585
0.644771
0.637825
0.62814
0.615168
0.59856
0.578328
0.554921
0.529187
0.502212
0.47509
0.448743
0.423824
0.400707
0.37954
0.360309
0.342903
0.327163
0.312912
0.299975
0.288193
0.277424
0.267547
0.258462
0.250081
0.242295
0.235028
0.228228
0.221849
0.215852
0.210205
0.204881
0.199855
0.195108
0.190625
0.186391
0.182396
0.178631
0.175091
0.171771
0.168669
0.165785
0.163125
0.160695
0.158509
0.156585
0.154987
0.153715
0.152784
0.152313
0.152426
0.160986
0.171377
0.183772
0.198458
0.215833
0.236433
0.260958
0.290315
0.325664
0.368469
0.42068
0.484532
0.561805
0.652962
0.755534
0.862493
0.96265
1.04486
1.10365
1.14076
1.16197
1.17317
1.17878
1.18148
1.18276
1.18335
1.18361
1.18373
1.18378
1.1838
1.18381
1.18382
1.18382
1.18382
1.18382
1.18382
1.18382
1.18382
0.658526
0.6585
0.658457
0.658384
0.658262
0.65806
0.657729
0.65719
0.656326
0.654958
0.652832
0.649594
0.644782
0.637838
0.628154
0.615181
0.598572
0.578335
0.554923
0.529185
0.502208
0.475089
0.448748
0.423838
0.400734
0.37958
0.360363
0.342973
0.327247
0.31301
0.300087
0.288319
0.277564
0.267701
0.258629
0.250261
0.242489
0.235235
0.228448
0.222081
0.216097
0.210461
0.205147
0.200131
0.195393
0.190916
0.186688
0.182698
0.178935
0.175395
0.172072
0.168965
0.166073
0.163401
0.160955
0.158749
0.156801
0.155172
0.153876
0.152918
0.152429
0.15255
0.15925
0.169318
0.181315
0.195518
0.212314
0.232213
0.255887
0.284204
0.318281
0.359527
0.409806
0.471376
0.546191
0.635089
0.736293