/*--------------------------------*- C++ -*----------------------------------*\
  =========                 |
  \\      /  F ield         | OpenFOAM: The Open Source CFD Toolbox
   \\    /   O peration     | Website:  https://openfoam.org
    \\  /    A nd           | Version:  8
     \\/     M anipulation  |
\*---------------------------------------------------------------------------*/
FoamFile
{
    version     2.0;
    format      ascii;
    class       volScalarField;
    location    "400/fluid";
    object      T;
}
// * * * * * * * * * * * * * * * * * * * * * * * * * * * * * * * * * * * * * //

dimensions      [0 0 0 1 0 0 0];

internalField   nonuniform List<scalar> 
4000
(
293.004
293.016
293.036
293.071
293.128
293.222
293.378
293.632
294.042
294.696
295.727
297.323
299.749
303.356
308.582
315.938
325.959
339.135
355.844
376.273
400.389
427.98
458.71
492.188
528.026
565.885
605.481
646.597
689.064
732.758
777.576
823.431
870.239
917.906
966.325
1015.39
1065.12
1115.48
1166.37
1217.71
1269.4
1321.33
1373.39
1425.48
1477.48
1529.28
1580.74
1631.73
1682.11
1731.74
1780.44
1828.05
1874.35
1919.13
1962.1
2002.96
2041.3
2076.64
2107.61
2134.18
2155.97
2170.86
2176.79
2095.72
1983.36
1864.34
1740.74
1614.34
1486.66
1359.02
1232.66
1108.76
988.514
873.026
763.316
661.206
569.049
489.258
423.95
374.288
339.767
318.019
305.558
299.005
295.781
294.257
293.557
293.243
293.104
293.044
293.019
293.008
293.003
293.001
293.001
293
293
293
293
293
293.004
293.016
293.037
293.071
293.129
293.225
293.383
293.641
294.058
294.722
295.766
297.379
299.823
303.446
308.677
316.017
325.989
339.077
355.648
375.891
399.8
427.183
457.719
491.03
526.737
564.502
604.042
645.136
687.614
731.345
776.225
822.163
869.073
916.859
965.411
1014.62
1064.5
1115.03
1166.11
1217.63
1269.5
1321.61
1373.85
1426.13
1478.31
1530.29
1581.92
1633.08
1683.62
1733.39
1782.23
1829.95
1876.35
1921.19
1964.21
2005.07
2043.37
2078.63
2109.48
2135.99
2157.68
2172.46
2178.19
2084.09
1971.18
1851.19
1726.51
1599.03
1470.33
1341.79
1214.64
1090.11
969.451
853.765
744.242
642.939
552.338
474.897
412.595
366.207
334.675
315.191
304.161
298.371
295.51
294.146
293.513
293.226
293.098
293.042
293.018
293.007
293.003
293.001
293.001
293
293
293
293
293
293.004
293.016
293.037
293.072
293.131
293.229
293.39
293.652
294.074
294.747
295.803
297.43
299.891
303.527
308.765
316.099
326.045
339.085
355.576
375.707
399.472
426.69
457.054
490.198
525.755
563.394
602.839
643.869
686.314
730.044
774.953
820.952
867.953
915.862
964.57
1013.96
1064.05
1114.78
1166.07
1217.82
1269.94
1322.31
1374.83
1427.38
1479.85
1532.1
1584.01
1635.44
1686.24
1736.25
1785.31
1833.22
1879.77
1924.72
1967.78
2008.61
2046.78
2081.76
2112.07
2138.61
2159.59
2173.76
2179.36
2071.11
1954.29
1831.43
1704.57
1575.44
1445.5
1316.08
1188.44
1063.83
943.536
828.644
720.554
621.494
533.931
460.154
401.768
359.027
330.404
312.895
303.029
297.845
295.275
294.044
293.469
293.207
293.09
293.039
293.017
293.007
293.003
293.001
293
293
293
293
293
293
293.004
293.016
293.038
293.073
293.133
293.231
293.393
293.657
294.083
294.76
295.821
297.454
299.919
303.559
308.795
316.117
326.035
339.023
355.441
375.483
399.147
426.257
456.513
489.555
525.021
562.584
601.971
642.965
685.4
729.146
774.101
820.176
867.282
915.321
964.177
1013.72
1063.98
1114.93
1166.46
1218.48
1270.87
1323.54
1376.37
1429.24
1482.03
1534.61
1586.84
1638.59
1689.69
1739.99
1789.31
1837.44
1884.17
1929.24
1972.33
2013.06
2050.97
2085.2
2114.69
2139.78
2158.23
2168.14
2166.54
2053.18
1932.63
1807.03
1678.16
1547.6
1416.73
1286.84
1159.2
1035.06
915.716
802.218
696.163
599.851
515.665
445.691
391.186
351.966
326.128
310.534
301.823
297.266
295.008
293.924
293.417
293.185
293.081
293.035
293.015
293.006
293.003
293.001
293
293
293
293
293
293
293.004
293.016
293.038
293.074
293.133
293.233
293.396
293.661
294.089
294.769
295.834
297.471
299.941
303.583
308.818
316.133
326.034
338.993
355.368
375.354
398.952
425.99
456.175
489.153
524.567
562.093
601.459
642.451
684.903
728.687
773.699
819.848
867.04
915.185
964.174
1013.89
1064.36
1115.53
1167.31
1219.6
1272.29
1325.26
1378.41
1431.61
1484.73
1537.65
1590.22
1642.29
1693.71
1744.31
1793.9
1842.27
1889.19
1934.39
1977.55
2018.24
2055.98
2089.66
2118.42
2142.48
2159.22
2166.31
2145.24
2029.38
1906.77
1779.51
1649.41
1518.01
1386.7
1256.8
1129.57
1006.3
888.254
776.483
672.763
579.419
498.72
432.53
381.753
345.799
322.459
308.53
300.805
296.777
294.781
293.821
293.372
293.165
293.072
293.031
293.013
293.006
293.002
293.001
293
293
293
293
293
293
293.004
293.017
293.038
293.074
293.134
293.234
293.397
293.664
294.093
294.774
295.84
297.479
299.951
303.593
308.827
316.136
326.027
338.968
355.319
375.275
398.839
425.843
455.997
488.948
524.344
561.862
601.233
642.242
684.72
728.543
773.611
819.838
867.14
915.422
964.573
1014.48
1065.15
1116.55
1168.58
1221.13
1274.1
1327.38
1380.84
1434.36
1487.81
1541.05
1593.95
1646.34
1698.06
1748.94
1798.78
1847.38
1894.49
1939.84
1983.08
2023.82
2061.55
2095.12
2123.78
2147.78
2164.81
2173.04
2118.78
2002.4
1879.03
1751.03
1620.33
1488.6
1357.26
1227.68
1101.14
978.975
862.359
752.431
651.124
560.727
483.388
420.748
373.389
340.362
319.226
306.756
299.894
296.334
294.573
293.726
293.329
293.147
293.064
293.028
293.012
293.005
293.002
293.001
293
293
293
293
293
293
293.004
293.017
293.038
293.074
293.134
293.234
293.398
293.665
294.095
294.778
295.845
297.486
299.958
303.602
308.835
316.141
326.027
338.96
355.301
375.245
398.796
425.788
455.931
488.876
524.271
561.797
601.185
642.225
684.753
728.644
773.8
820.134
867.561
915.985
965.298
1015.38
1066.26
1117.88
1170.15
1222.96
1276.2
1329.76
1383.52
1437.34
1491.1
1544.65
1597.84
1650.52
1702.51
1753.64
1803.7
1852.48
1899.74
1945.17
1988.46
2029.18
2066.79
2100.02
2128.48
2152.29
2169.04
2176.48
2093.41
1976.45
1852.42
1723.83
1592.74
1460.84
1329.64
1200.51
1074.78
953.778
838.607
730.525
631.57
543.985
469.797
410.428
366.156
335.721
316.495
305.266
299.131
295.963
294.398
293.646
293.293
293.131
293.057
293.025
293.011
293.005
293.002
293.001
293
293
293
293
293
293
293.004
293.017
293.038
293.074
293.135
293.235
293.399
293.666
294.097
294.78
295.848
297.49
299.964
303.609
308.843
316.15
326.035
338.966
355.304
375.245
398.795
425.789
455.94
488.9
524.319
561.877
601.309
642.404
684.999
728.971
774.222
820.666
868.219
916.786
966.258
1016.52
1067.59
1119.43
1171.92
1224.98
1278.48
1332.3
1386.33
1440.43
1494.46
1548.28
1601.74
1654.67
1706.89
1758.22
1808.46
1857.36
1904.69
1950.14
1993.37
2033.94
2071.33
2104.18
2132.38
2155.85
2172.33
2179.72
2072.1
1953.93
1828.78
1699.34
1567.69
1435.58
1304.5
1175.84
1050.91
931.034
817.245
710.931
614.194
529.219
457.915
401.495
359.958
331.777
314.187
304.011
298.487
295.649
294.249
293.577
293.262
293.117
293.051
293.022
293.01
293.004
293.002
293.001
293
293
293
293
293
293
293.004
293.017
293.038
293.074
293.135
293.235
293.4
293.667
294.098
294.782
295.852
297.495
299.971
303.618
308.856
316.166
326.056
338.993
355.34
375.291
398.855
425.866
456.039
489.028
524.482
562.084
601.568
642.725
685.394
729.451
774.8
821.356
869.035
917.743
967.369
1017.8
1069.05
1121.09
1173.8
1227.08
1280.81
1334.88
1389.15
1443.5
1497.78
1551.84
1605.53
1658.67
1711.08
1762.57
1812.92
1861.9
1909.23
1954.59
1997.62
2037.84
2074.75
2106.54
2134.43
2156.27
2170.55
2174.92
2059.82
1937.15
1809.25
1678.15
1545.59
1413.09
1282.05
1153.79
1029.61
910.777
798.275
693.611
598.917
516.322
447.62
393.829
354.693
328.459
312.259
302.966
297.953
295.388
294.125
293.52
293.236
293.105
293.046
293.02
293.009
293.004
293.002
293.001
293
293
293
293
293
293
293.004
293.017
293.038
293.075
293.135
293.235
293.4
293.668
294.1
294.784
295.855
297.5
299.978
303.629
308.871
316.188
326.087
339.036
355.397
375.367
398.953
425.992
456.197
489.223
524.721
562.373
601.916
643.14
685.885
730.03
775.477
822.143
869.944
918.786
968.557
1019.14
1070.57
1122.8
1175.7
1229.19
1283.13
1337.41
1391.9
1446.47
1500.97
1555.23
1609.12
1662.44
1715
1766.62
1817.06
1866.08
1913.38
1958.64
2001.46
2041.33
2077.43
2108.33
2134.83
2154.41
2165
2163.17
2045.15
1920.27
1790.81
1658.69
1525.56
1392.88
1261.99
1134.18
1010.72
892.848
781.532
678.385
585.563
505.127
438.755
387.286
350.241
325.677
310.652
302.099
297.51
295.171
294.023
293.472
293.214
293.096
293.042
293.018
293.008
293.003
293.001
293.001
293
293
293
293
293
293
293.004
293.017
293.038
293.075
293.135
293.236
293.401
293.669
294.101
294.786
295.858
297.505
299.986
303.641
308.89
316.215
326.125
339.09
355.47
375.464
399.078
426.149
456.392
489.461
525.006
562.713
602.316
643.608
686.43
730.66
776.202
822.973
870.89
919.857
969.764
1020.5
1072.09
1124.48
1177.56
1231.22
1285.36
1339.83
1394.51
1449.27
1503.95
1558.4
1612.45
1665.92
1718.62
1770.34
1820.85
1869.89
1917.18
1962.37
2005.04
2044.69
2080.34
2110.8
2136.79
2155.75
2165.67
2148.96
2029.48
1903.51
1773.29
1640.7
1507.37
1374.73
1244.11
1116.8
994.063
877.08
766.853
665.1
573.967
495.463
431.161
381.73
346.494
323.353
309.319
301.382
297.144
294.993
293.938
293.433
293.197
293.088
293.039
293.017
293.007
293.003
293.001
293.001
293
293
293
293
293
293
293.004
293.017
293.038
293.075
293.135
293.236
293.401
293.67
294.102
294.789
295.862
297.511
299.995
303.655
308.91
316.246
326.169
339.151
355.554
375.574
399.219
426.326
456.609
489.722
525.316
563.077
602.74
644.099
686.993
731.304
776.936
823.805
871.828
920.911
970.94
1021.8
1073.54
1126.08
1179.32
1233.14
1287.44
1342.08
1396.93
1451.85
1506.69
1561.29
1615.48
1669.07
1721.88
1773.68
1824.25
1873.33
1920.62
1965.78
2008.39
2047.95
2083.51
2113.9
2139.9
2159.09
2169.72
2133.61
2013.8
1887.5
1757.04
1624.35
1491.05
1358.6
1228.34
1101.54
979.502
863.346
754.128
653.633
564.003
487.201
424.705
377.041
343.356
321.421
308.216
300.791
296.843
294.846
293.868
293.401
293.182
293.081
293.036
293.016
293.007
293.003
293.001
293.001
293
293
293
293
293
293
293.004
293.017
293.038
293.075
293.136
293.236
293.402
293.671
294.104
294.791
295.865
297.517
300.005
303.669
308.932
316.278
326.216
339.216
355.641
375.689
399.366
426.509
456.832
489.989
525.631
563.444
603.164
644.585
687.548
731.934
777.647
824.605
872.725
921.91
972.049
1023.03
1074.89
1127.56
1180.93
1234.9
1289.34
1344.12
1399.12
1454.17
1509.15
1563.87
1618.17
1671.86
1724.75
1776.62
1827.24
1876.34
1923.62
1968.74
2011.3
2050.78
2086.2
2116.46
2142.37
2161.5
2172.1
2119.95
1999.74
1873.2
1742.61
1609.91
1476.72
1344.51
1214.61
1088.32
966.926
851.52
743.187
643.805
555.498
480.186
419.259
373.111
340.745
319.823
307.308
300.306
296.596
294.726
293.811
293.374
293.17
293.076
293.033
293.015
293.006
293.003
293.001
293
293
293
293
293
293
293
293.004
293.017
293.039
293.075
293.136
293.237
293.402
293.672
294.105
294.793
295.869
297.523
300.014
303.683
308.954
316.31
326.262
339.28
355.729
375.803
399.512
426.689
457.05
490.248
525.935
563.796
603.568
645.045
688.07
732.523
778.31
825.347
873.551
922.827
973.061
1024.14
1076.11
1128.89
1182.38
1236.47
1291.03
1345.93
1401.04
1456.21
1511.29
1566.11
1620.5
1674.28
1727.23
1779.14
1829.78
1878.88
1926.14
1971.22
2013.7
2053.08
2088.36
2118.5
2144.3
2163.32
2173.81
2108.2
1987.61
1860.84
1730.16
1597.47
1464.42
1332.45
1202.9
1077.07
956.245
841.478
733.919
635.499
548.334
474.3
414.713
369.852
338.592
318.512
306.566
299.911
296.396
294.628
293.764
293.352
293.16
293.071
293.031
293.014
293.006
293.003
293.001
293
293
293
293
293
293
293
293.004
293.017
293.039
293.075
293.136
293.237
293.403
293.672
294.106
294.795
295.873
297.528
300.023
303.697
308.974
316.341
326.306
339.342
355.811
375.911
399.648
426.858
457.253
490.488
526.215
564.119
603.937
645.465
688.543
733.055
778.904
826.009
874.286
923.638
973.952
1025.12
1077.18
1130.05
1183.64
1237.83
1292.48
1347.48
1402.68
1457.95
1513.11
1568.01
1622.47
1676.3
1729.29
1781.23
1831.88
1880.96
1928.19
1973.21
2015.61
2054.9
2090.05
2120.08
2145.75
2164.65
2174.98
2098.52
1977.5
1850.49
1719.71
1587.05
1454.11
1322.35
1193.1
1067.66
947.313
833.094
726.195
628.593
542.393
469.438
410.974
367.184
336.839
317.45
305.967
299.592
296.234
294.549
293.727
293.335
293.152
293.068
293.03
293.013
293.006
293.002
293.001
293
293
293
293
293
293
293
293.004
293.017
293.039
293.075
293.136
293.237
293.403
293.673
294.107
294.797
295.876
297.533
300.03
303.709
308.993
316.368
326.345
339.396
355.885
376.007
399.769
427.007
457.432
490.7
526.462
564.402
604.26
645.829
688.953
733.513
779.415
826.576
874.913
924.329
974.708
1025.94
1078.08
1131.03
1184.69
1238.95
1293.69
1348.76
1404.04
1459.37
1514.6
1569.56
1624.06
1677.92
1730.94
1782.89
1833.53
1882.59
1929.77
1974.73
2017.06
2056.27
2091.3
2121.22
2146.8
2165.62
2175.79
2090.77
1969.33
1842.06
1711.18
1578.51
1445.67
1314.08
1185.09
1059.97
940.025
826.26
719.91
622.985
537.58
465.51
407.964
365.044
335.438
316.604
305.491
299.34
296.107
294.487
293.698
293.321
293.146
293.065
293.029
293.012
293.005
293.002
293.001
293
293
293
293
293
293
293
293.004
293.017
293.039
293.075
293.136
293.237
293.403
293.674
294.108
294.799
295.878
297.537
300.037
303.72
309.009
316.391
326.379
339.443
355.947
376.088
399.871
427.132
457.582
490.877
526.666
564.637
604.526
646.129
689.29
733.889
779.833
827.038
875.421
924.886
975.316
1026.61
1078.79
1131.8
1185.53
1239.85
1294.64
1349.77
1405.1
1460.49
1515.76
1570.75
1625.29
1679.17
1732.19
1784.13
1834.75
1883.77
1930.91
1975.82
2018.09
2057.22
2092.16
2122.03
2147.6
2166.52
2176.91
2084.99
1962.98
1835.42
1704.41
1571.74
1438.97
1307.53
1178.74
1053.9
934.28
820.881
714.971
618.587
533.816
462.446
405.624
363.385
334.355
315.951
305.125
299.146
296.008
294.439
293.675
293.311
293.141
293.063
293.028
293.012
293.005
293.002
293.001
293
293
293
293
293
293
293
293.004
293.017
293.039
293.075
293.136
293.237
293.404
293.674
294.109
294.8
295.88
297.541
300.042
303.728
309.021
316.409
326.404
339.479
355.995
376.15
399.95
427.228
457.698
491.013
526.824
564.817
604.73
646.359
689.547
734.175
780.149
827.387
875.805
925.305
975.771
1027.1
1079.33
1132.38
1186.14
1240.5
1295.34
1350.51
1405.88
1461.29
1516.59
1571.6
1626.15
1680.03
1733.05
1784.98
1835.57
1884.56
1931.65
1976.49
2018.68
2057.74
2092.6
2122.4
2147.94
2166.87
2177.3
2080.25
1958
1830.3
1699.24
1566.59
1433.91
1302.6
1173.99
1049.36
929.997
816.881
711.308
615.333
531.038
460.192
403.908
362.173
333.565
315.475
304.857
299.003
295.937
294.404
293.658
293.303
293.137
293.061
293.027
293.012
293.005
293.002
293.001
293
293
293
293
293
293
293
293.004
293.017
293.039
293.075
293.136
293.237
293.404
293.674
294.11
294.801
295.882
297.543
300.046
303.733
309.029
316.422
326.422
339.503
356.028
376.192
400.003
427.294
457.776
491.105
526.93
564.938
604.868
646.514
689.719
734.367
780.361
827.621
876.06
925.582
976.071
1027.42
1079.67
1132.75
1186.54
1240.93
1295.78
1350.98
1406.36
1461.79
1517.11
1572.13
1626.68
1680.56
1733.56
1785.47
1836.03
1884.98
1932.02
1976.8
2018.92
2057.89
2092.67
2122.42
2147.92
2166.88
2177.4
2077.22
1954.65
1826.8
1695.69
1563.07
1430.46
1299.26
1170.78
1046.31
927.13
814.214
708.874
613.178
529.205
458.711
402.785
361.384
333.053
315.167
304.683
298.911
295.891
294.382
293.648
293.298
293.135
293.06
293.027
293.012
293.005
293.002
293.001
293
293
293
293
293
293
293
293.004
293.017
293.039
293.075
293.136
293.238
293.404
293.674
294.11
294.801
295.882
297.544
300.048
303.736
309.033
316.428
326.43
339.515
356.043
376.213
400.029
427.326
457.815
491.15
526.982
564.998
604.936
646.59
689.804
734.461
780.466
827.736
876.186
925.719
976.218
1027.58
1079.84
1132.93
1186.73
1241.13
1295.99
1351.2
1406.59
1462.03
1517.34
1572.37
1626.91
1680.79
1733.78
1785.67
1836.2
1885.12
1932.12
1976.85
2018.92
2057.84
2092.56
2122.27
2147.77
2166.78
2177.46
2075.75
1952.92
1824.96
1693.83
1561.23
1428.67
1297.54
1169.15
1044.78
925.698
812.892
707.678
612.128
528.318
458
402.25
361.011
332.813
315.024
304.603
298.868
295.869
294.371
293.643
293.296
293.134
293.06
293.026
293.011
293.005
293.002
293.001
293
293
293
293
293
293
293
293.004
293.017
293.039
293.075
293.136
293.238
293.404
293.674
294.11
294.801
295.882
297.544
300.048
303.736
309.033
316.428
326.431
339.515
356.044
376.214
400.03
427.327
457.816
491.151
526.984
564.999
604.937
646.591
689.806
734.463
780.468
827.737
876.187
925.721
976.22
1027.58
1079.84
1132.93
1186.73
1241.13
1296
1351.2
1406.59
1462.03
1517.35
1572.37
1626.91
1680.79
1733.78
1785.67
1836.21
1885.12
1932.12
1976.85
2018.92
2057.84
2092.56
2122.27
2147.77
2166.78
2177.46
2075.74
1952.91
1824.95
1693.82
1561.22
1428.67
1297.54
1169.15
1044.77
925.694
812.888
707.675
612.125
528.316
457.998
402.249
361.01
332.813
315.023
304.603
298.868
295.869
294.371
293.643
293.296
293.134
293.06
293.026
293.011
293.005
293.002
293.001
293
293
293
293
293
293
293
293.004
293.017
293.039
293.075
293.136
293.237
293.404
293.674
294.11
294.801
295.882
297.543
300.046
303.734
309.03
316.423
326.423
339.504
356.029
376.195
400.006
427.297
457.78
491.108
526.934
564.942
604.872
646.518
689.724
734.372
780.367
827.626
876.066
925.588
976.077
1027.43
1079.68
1132.76
1186.55
1240.93
1295.79
1350.98
1406.37
1461.8
1517.11
1572.14
1626.68
1680.57
1733.57
1785.48
1836.04
1884.99
1932.03
1976.81
2018.93
2057.9
2092.68
2122.42
2147.93
2166.89
2177.4
2077.2
1954.63
1826.78
1695.67
1563.05
1430.44
1299.24
1170.77
1046.3
927.119
814.203
708.864
613.17
529.198
458.705
402.781
361.381
333.051
315.166
304.683
298.911
295.89
294.382
293.648
293.298
293.135
293.06
293.027
293.012
293.005
293.002
293.001
293
293
293
293
293
293
293
293.004
293.017
293.039
293.075
293.136
293.237
293.404
293.674
294.109
294.8
295.881
297.541
300.043
303.729
309.022
316.411
326.406
339.481
355.998
376.154
399.955
427.234
457.704
491.019
526.83
564.824
604.738
646.367
689.555
734.183
780.158
827.397
875.814
925.315
975.781
1027.11
1079.34
1132.39
1186.16
1240.52
1295.35
1350.52
1405.89
1461.3
1516.6
1571.61
1626.16
1680.05
1733.06
1784.99
1835.58
1884.57
1931.66
1976.5
2018.69
2057.74
2092.6
2122.4
2147.94
2166.87
2177.3
2080.22
1957.97
1830.28
1699.22
1566.57
1433.89
1302.58
1173.97
1049.34
929.978
816.864
711.292
615.319
531.026
460.183
403.901
362.168
333.562
315.473
304.856
299.003
295.937
294.404
293.658
293.303
293.137
293.061
293.027
293.012
293.005
293.002
293.001
293
293
293
293
293
293
293
293.004
293.017
293.039
293.075
293.136
293.237
293.403
293.674
294.108
294.799
295.879
297.538
300.038
303.721
309.01
316.393
326.381
339.446
355.951
376.093
399.878
427.139
457.59
490.886
526.676
564.647
604.537
646.14
689.301
733.901
779.845
827.051
875.435
924.9
975.33
1026.62
1078.81
1131.82
1185.54
1239.86
1294.66
1349.79
1405.12
1460.5
1515.78
1570.77
1625.3
1679.18
1732.21
1784.15
1834.76
1883.79
1930.93
1975.84
2018.1
2057.23
2092.17
2122.04
2147.6
2166.52
2176.91
2084.94
1962.94
1835.38
1704.37
1571.7
1438.94
1307.5
1178.71
1053.87
934.253
820.857
714.949
618.568
533.8
462.433
405.614
363.378
334.35
315.948
305.123
299.145
296.008
294.439
293.675
293.311
293.141
293.063
293.028
293.012
293.005
293.002
293.001
293
293
293
293
293
293
293
293.004
293.017
293.039
293.075
293.136
293.237
293.403
293.673
294.108
294.797
295.876
297.534
300.031
303.711
308.995
316.371
326.349
339.401
355.89
376.014
399.778
427.016
457.443
490.712
526.474
564.415
604.273
645.843
688.968
733.529
779.432
826.593
874.93
924.346
974.726
1025.96
1078.1
1131.05
1184.71
1238.97
1293.71
1348.78
1404.06
1459.4
1514.62
1569.58
1624.08
1677.95
1730.96
1782.91
1833.55
1882.61
1929.79
1974.75
2017.08
2056.29
2091.31
2121.24
2146.81
2165.63
2175.79
2090.72
1969.27
1842.01
1711.12
1578.46
1445.63
1314.04
1185.05
1059.93
939.99
826.228
719.881
622.959
537.559
465.492
407.951
365.035
335.432
316.601
305.489
299.339
296.106
294.487
293.697
293.321
293.146
293.065
293.029
293.012
293.005
293.002
293.001
293
293
293
293
293
293
293
293.004
293.017
293.039
293.075
293.136
293.237
293.403
293.672
294.106
294.796
295.873
297.529
300.024
303.699
308.977
316.344
326.31
339.347
355.818
375.919
399.658
426.869
457.265
490.502
526.23
564.135
603.954
645.482
688.562
733.074
778.924
826.03
874.307
923.66
973.975
1025.14
1077.2
1130.08
1183.67
1237.85
1292.51
1347.51
1402.71
1457.97
1513.14
1568.04
1622.5
1676.32
1729.31
1781.25
1831.9
1880.99
1928.22
1973.23
2015.63
2054.91
2090.07
2120.09
2145.76
2164.66
2174.99
2098.45
1977.44
1850.43
1719.65
1586.99
1454.06
1322.3
1193.05
1067.61
947.27
833.054
726.159
628.561
542.366
469.415
410.957
367.172
336.831
317.445
305.964
299.591
296.234
294.549
293.727
293.335
293.152
293.068
293.03
293.013
293.006
293.002
293.001
293
293
293
293
293
293
293
293.004
293.017
293.039
293.075
293.136
293.237
293.402
293.672
294.105
294.793
295.87
297.523
300.015
303.685
308.956
316.314
326.267
339.287
355.737
375.813
399.523
426.703
457.065
490.264
525.953
563.815
603.588
645.066
688.092
732.546
778.333
825.371
873.576
922.853
973.088
1024.17
1076.14
1128.92
1182.41
1236.5
1291.06
1345.96
1401.07
1456.24
1511.32
1566.15
1620.54
1674.31
1727.26
1779.17
1829.81
1878.91
1926.17
1971.25
2013.73
2053.1
2088.38
2118.52
2144.32
2163.33
2173.82
2108.12
1987.53
1860.76
1730.09
1597.4
1464.35
1332.38
1202.84
1077.01
956.191
841.429
733.874
635.459
548.3
474.272
414.692
369.837
338.582
318.506
306.563
299.909
296.395
294.627
293.764
293.352
293.16
293.071
293.031
293.014
293.006
293.003
293.001
293
293
293
293
293
293
293
293.004
293.017
293.038
293.075
293.136
293.236
293.402
293.671
294.104
294.791
295.866
297.518
300.006
303.671
308.935
316.282
326.221
339.223
355.651
375.7
399.38
426.525
456.849
490.008
525.651
563.465
603.187
644.609
687.573
731.96
777.675
824.634
872.754
921.941
972.081
1023.06
1074.92
1127.59
1180.97
1234.94
1289.38
1344.16
1399.15
1454.21
1509.18
1563.91
1618.21
1671.9
1724.79
1776.66
1827.27
1876.37
1923.65
1968.78
2011.33
2050.81
2086.23
2116.49
2142.39
2161.52
2172.11
2119.85
1999.65
1873.1
1742.53
1609.82
1476.64
1344.43
1214.53
1088.25
966.861
851.46
743.133
643.757
555.457
480.152
419.233
373.093
340.733
319.816
307.304
300.304
296.595
294.725
293.811
293.374
293.17
293.076
293.033
293.015
293.006
293.003
293.001
293
293
293
293
293
293
293
293.004
293.017
293.038
293.075
293.135
293.236
293.401
293.67
294.102
294.789
295.862
297.512
299.997
303.657
308.914
316.25
326.176
339.159
355.564
375.586
399.234
426.343
456.628
489.743
525.339
563.102
602.766
644.126
687.022
731.335
776.968
823.838
871.862
920.946
970.976
1021.84
1073.58
1126.12
1179.36
1233.18
1287.48
1342.12
1396.97
1451.9
1506.74
1561.33
1615.52
1669.11
1721.92
1773.72
1824.29
1873.37
1920.66
1965.82
2008.43
2047.99
2083.54
2113.93
2139.93
2159.12
2169.74
2133.51
2013.69
1887.39
1756.94
1624.25
1490.95
1358.51
1228.25
1101.46
979.426
863.276
754.064
653.576
563.954
487.16
424.674
377.018
343.341
321.412
308.211
300.788
296.841
294.845
293.868
293.4
293.182
293.081
293.036
293.016
293.007
293.003
293.001
293.001
293
293
293
293
293
293
293.004
293.017
293.038
293.075
293.135
293.236
293.401
293.669
294.101
294.787
295.859
297.506
299.988
303.644
308.893
316.22
326.133
339.099
355.482
375.478
399.095
426.169
456.414
489.485
525.032
562.741
602.346
643.639
686.462
730.694
776.238
823.01
870.928
919.897
969.804
1020.54
1072.13
1124.52
1177.6
1231.27
1285.4
1339.88
1394.56
1449.32
1504
1558.45
1612.5
1665.97
1718.67
1770.39
1820.9
1869.94
1917.23
1962.42
2005.09
2044.73
2080.38
2110.84
2136.83
2155.79
2165.71
2148.83
2029.35
1903.39
1773.17
1640.58
1507.26
1374.62
1244.01
1116.7
993.975
876.998
766.778
665.033
573.909
495.416
431.124
381.703
346.476
323.342
309.313
301.379
297.142
294.992
293.937
293.433
293.196
293.088
293.039
293.017
293.007
293.003
293.001
293.001
293
293
293
293
293
293
293.004
293.017
293.038
293.075
293.135
293.235
293.4
293.668
294.1
294.785
295.856
297.501
299.98
303.631
308.875
316.194
326.095
339.046
355.41
375.383
398.972
426.013
456.221
489.25
524.749
562.404
601.949
643.175
685.921
730.068
775.516
822.184
869.986
918.83
968.603
1019.19
1070.62
1122.85
1175.75
1229.24
1283.18
1337.47
1391.96
1446.53
1501.02
1555.29
1609.17
1662.49
1715.06
1766.68
1817.12
1866.13
1913.44
1958.7
2001.51
2041.39
2077.48
2108.37
2134.86
2154.41
2164.96
2163.06
2045.04
1920.15
1790.68
1658.56
1525.43
1392.76
1261.87
1134.07
1010.62
892.755
781.446
678.308
585.495
505.071
438.711
387.254
350.22
325.664
310.645
302.095
297.508
295.17
294.022
293.472
293.214
293.096
293.042
293.018
293.008
293.003
293.001
293.001
293
293
293
293
293
293
293.004
293.017
293.038
293.075
293.135
293.235
293.4
293.668
294.099
294.783
295.853
297.496
299.973
303.621
308.86
316.172
326.064
339.004
355.354
375.308
398.875
425.89
456.066
489.057
524.514
562.118
601.604
642.763
685.434
729.493
774.844
821.402
869.082
917.792
967.419
1017.85
1069.11
1121.15
1173.86
1227.14
1280.87
1334.94
1389.21
1443.56
1497.84
1551.9
1605.59
1658.73
1711.14
1762.63
1812.98
1861.96
1909.29
1954.65
1997.67
2037.89
2074.78
2106.56
2134.43
2156.25
2170.51
2174.86
2059.74
1937.06
1809.15
1678.04
1545.46
1412.97
1281.93
1153.68
1029.5
910.673
798.179
693.523
598.839
516.257
447.568
393.79
354.667
328.443
312.25
302.962
297.951
295.387
294.125
293.52
293.236
293.105
293.046
293.02
293.009
293.004
293.002
293.001
293
293
293
293
293
293
293.004
293.017
293.038
293.074
293.135
293.235
293.399
293.667
294.097
294.781
295.849
297.492
299.967
303.612
308.848
316.157
326.044
338.978
355.32
375.264
398.818
425.815
455.969
488.932
524.353
561.914
601.349
642.445
685.042
729.017
774.27
820.716
868.271
916.84
966.314
1016.57
1067.65
1119.49
1171.99
1225.04
1278.54
1332.37
1386.39
1440.49
1494.53
1548.35
1601.81
1654.73
1706.95
1758.29
1808.52
1857.43
1904.75
1950.2
1993.41
2033.99
2071.37
2104.22
2132.41
2155.88
2172.35
2179.75
2072.05
1953.84
1828.66
1699.2
1567.56
1435.44
1304.37
1175.71
1050.78
930.917
817.136
710.831
614.106
529.144
457.854
401.45
359.927
331.758
314.176
304.005
298.484
295.647
294.248
293.577
293.262
293.117
293.051
293.022
293.01
293.004
293.002
293.001
293
293
293
293
293
293
293.004
293.017
293.038
293.074
293.134
293.234
293.398
293.666
294.095
294.778
295.846
297.487
299.961
303.605
308.841
316.149
326.037
338.973
355.318
375.266
398.821
425.816
455.962
488.911
524.309
561.838
601.229
642.27
684.8
728.694
773.853
820.189
867.617
916.044
965.359
1015.44
1066.32
1117.95
1170.22
1223.03
1276.28
1329.84
1383.59
1437.42
1491.17
1544.72
1597.91
1650.59
1702.58
1753.71
1803.77
1852.55
1899.8
1945.23
1988.51
2029.23
2066.84
2100.07
2128.53
2152.34
2169.09
2176.5
2093.25
1976.28
1852.25
1723.67
1592.58
1460.68
1329.49
1200.36
1074.64
953.647
838.483
730.411
631.469
543.898
469.726
410.375
366.119
335.697
316.481
305.259
299.128
295.961
294.397
293.645
293.293
293.131
293.057
293.025
293.011
293.005
293.002
293.001
293
293
293
293
293
293
293.004
293.017
293.038
293.074
293.134
293.234
293.397
293.664
294.093
294.775
295.841
297.481
299.953
303.597
308.833
316.144
326.037
338.982
355.337
375.297
398.865
425.873
456.03
488.985
524.384
561.906
601.279
642.291
684.772
728.598
773.668
819.897
867.202
915.486
964.639
1014.54
1065.22
1116.62
1168.65
1221.21
1274.18
1327.46
1380.92
1434.44
1487.89
1541.13
1594.03
1646.42
1698.14
1749.01
1798.85
1847.45
1894.56
1939.89
1983.13
2023.87
2061.59
2095.15
2123.81
2147.8
2164.84
2173.07
2118.6
2002.23
1878.86
1750.86
1620.17
1488.43
1357.1
1227.52
1100.99
978.829
862.22
752.302
651.008
560.626
483.305
420.685
373.344
340.334
319.21
306.747
299.889
296.332
294.572
293.726
293.329
293.147
293.064
293.028
293.012
293.005
293.002
293.001
293
293
293
293
293
293
293.004
293.016
293.038
293.074
293.134
293.233
293.396
293.662
294.09
294.77
295.835
297.473
299.944
303.587
308.825
316.141
326.046
339.008
355.387
375.377
398.979
426.022
456.211
489.193
524.61
562.139
601.509
642.503
684.958
728.745
773.76
819.912
867.107
915.254
964.246
1013.97
1064.44
1115.61
1167.39
1219.68
1272.37
1325.35
1378.5
1431.7
1484.82
1537.74
1590.31
1642.38
1693.8
1744.39
1793.98
1842.35
1889.27
1934.46
1977.61
2018.3
2056.04
2089.71
2118.47
2142.53
2159.28
2166.39
2145.03
2029.19
1906.58
1779.33
1649.22
1517.82
1386.52
1256.63
1129.4
1006.14
888.098
776.337
672.631
579.303
498.624
432.455
381.7
345.764
322.439
308.519
300.8
296.775
294.78
293.821
293.371
293.165
293.072
293.031
293.013
293.006
293.002
293.001
293
293
293
293
293
293
293.004
293.016
293.038
293.073
293.133
293.231
293.393
293.658
294.083
294.761
295.822
297.456
299.922
303.563
308.802
316.126
326.048
339.039
355.461
375.508
399.177
426.291
456.551
489.598
525.067
562.634
602.025
643.022
685.46
729.209
774.167
820.245
867.354
915.396
964.255
1013.8
1064.07
1115.01
1166.55
1218.57
1270.96
1323.63
1376.46
1429.34
1482.13
1534.71
1586.94
1638.68
1689.78
1740.08
1789.4
1837.53
1884.26
1929.32
1972.4
2013.13
2051.03
2085.26
2114.74
2139.81
2158.22
2168.08
2166.38
2053.01
1932.45
1806.84
1677.97
1547.4
1416.53
1286.65
1159.01
1034.87
915.542
802.055
696.013
599.719
515.553
445.603
391.122
351.924
326.104
310.52
301.816
297.263
295.007
293.923
293.417
293.185
293.081
293.035
293.015
293.006
293.003
293.001
293
293
293
293
293
293
293.004
293.016
293.037
293.072
293.131
293.229
293.39
293.652
294.075
294.748
295.804
297.433
299.894
303.531
308.772
316.108
326.058
339.103
355.598
375.734
399.504
426.727
457.096
490.244
525.805
563.448
602.896
643.93
686.379
730.112
775.025
821.027
868.031
915.943
964.653
1014.05
1064.14
1114.88
1166.17
1217.92
1270.04
1322.41
1374.93
1427.48
1479.95
1532.2
1584.11
1635.54
1686.34
1736.35
1785.41
1833.31
1879.86
1924.81
1967.87
2008.69
2046.85
2081.82
2112.12
2138.64
2159.59
2173.73
2179.3
2070.98
1954.12
1831.24
1704.37
1575.23
1445.29
1315.87
1188.24
1063.63
943.345
828.462
720.386
621.343
533.802
460.051
401.692
358.977
330.374
312.879
303.021
297.841
295.273
294.043
293.469
293.207
293.09
293.039
293.017
293.007
293.003
293.001
293
293
293
293
293
293
293.004
293.016
293.037
293.071
293.129
293.225
293.383
293.642
294.058
294.723
295.767
297.381
299.827
303.451
308.684
316.027
326.003
339.096
355.671
375.92
399.834
427.223
457.764
491.079
526.79
564.559
604.104
645.202