/*--------------------------------*- C++ -*----------------------------------*\
  =========                 |
  \\      /  F ield         | OpenFOAM: The Open Source CFD Toolbox
   \\    /   O peration     | Website:  https://openfoam.org
    \\  /    A nd           | Version:  8
     \\/     M anipulation  |
\*---------------------------------------------------------------------------*/
FoamFile
{
    version     2.0;
    format      ascii;
    class       volVectorField;
    location    "400/fluid";
    object      U;
}
// * * * * * * * * * * * * * * * * * * * * * * * * * * * * * * * * * * * * * //

dimensions      [0 1 -1 0 0 0 0];

internalField   nonuniform List<vector> 
4000
(
(0.0999496 -0.00692032 0)
(0.0996749 -0.0205681 0)
(0.0992316 -0.0340918 0)
(0.0986195 -0.0475381 0)
(0.0978314 -0.0609274 0)
(0.096851 -0.0742634 0)
(0.0956597 -0.0875379 0)
(0.0942394 -0.100733 0)
(0.0925759 -0.113826 0)
(0.090661 -0.126789 0)
(0.0884959 -0.139598 0)
(0.0860944 -0.152234 0)
(0.0834865 -0.164687 0)
(0.0807223 -0.176952 0)
(0.0778744 -0.189038 0)
(0.0750195 -0.201015 0)
(0.072214 -0.212936 0)
(0.0694848 -0.224838 0)
(0.0668216 -0.236731 0)
(0.0641746 -0.248585 0)
(0.0614626 -0.260336 0)
(0.0585896 -0.271894 0)
(0.0554639 -0.283152 0)
(0.052016 -0.293997 0)
(0.048212 -0.304309 0)
(0.0440388 -0.314033 0)
(0.0394958 -0.323116 0)
(0.0345934 -0.331511 0)
(0.0293513 -0.339186 0)
(0.0237946 -0.34612 0)
(0.0179517 -0.352304 0)
(0.0118521 -0.357743 0)
(0.00552472 -0.362451 0)
(-0.0010004 -0.366451 0)
(-0.00769309 -0.369772 0)
(-0.0145261 -0.372449 0)
(-0.0214763 -0.374521 0)
(-0.0285227 -0.376028 0)
(-0.0356458 -0.377015 0)
(-0.0428269 -0.377524 0)
(-0.050048 -0.377599 0)
(-0.0572922 -0.377281 0)
(-0.0645436 -0.37661 0)
(-0.0717863 -0.375625 0)
(-0.0790049 -0.374361 0)
(-0.0861837 -0.372853 0)
(-0.0933068 -0.371131 0)
(-0.100358 -0.369226 0)
(-0.107319 -0.367164 0)
(-0.114174 -0.364975 0)
(-0.120901 -0.362684 0)
(-0.127482 -0.360319 0)
(-0.133894 -0.357909 0)
(-0.140113 -0.355486 0)
(-0.146113 -0.353085 0)
(-0.151865 -0.350752 0)
(-0.157336 -0.348539 0)
(-0.162474 -0.34651 0)
(-0.167233 -0.344738 0)
(-0.17163 -0.343327 0)
(-0.175762 -0.342497 0)
(-0.179419 -0.342619 0)
(-0.180867 -0.343798 0)
(-0.178461 -0.344934 0)
(-0.173075 -0.344477 0)
(-0.166676 -0.342229 0)
(-0.159898 -0.338444 0)
(-0.152745 -0.3333 0)
(-0.145219 -0.326886 0)
(-0.13738 -0.319259 0)
(-0.129309 -0.310475 0)
(-0.121093 -0.300596 0)
(-0.112822 -0.289694 0)
(-0.104591 -0.277854 0)
(-0.0965232 -0.265167 0)
(-0.0888324 -0.251759 0)
(-0.0818316 -0.237836 0)
(-0.0759001 -0.22369 0)
(-0.0714357 -0.209773 0)
(-0.0687949 -0.196694 0)
(-0.068135 -0.184799 0)
(-0.0692693 -0.174073 0)
(-0.071725 -0.16421 0)
(-0.0749378 -0.154822 0)
(-0.0784224 -0.145605 0)
(-0.0818434 -0.136371 0)
(-0.0849964 -0.127007 0)
(-0.0877812 -0.117505 0)
(-0.0901825 -0.107933 0)
(-0.0922216 -0.0983256 0)
(-0.093933 -0.0887161 0)
(-0.0953541 -0.0791333 0)
(-0.0965212 -0.0696007 0)
(-0.0974683 -0.0601351 0)
(-0.0982263 -0.0507459 0)
(-0.0988224 -0.0414346 0)
(-0.0992799 -0.0321938 0)
(-0.0996175 -0.0230056 0)
(-0.0998476 -0.0138425 0)
(-0.0999811 -0.00464915 0)
(0.0999996 -0.00651336 0)
(0.099807 -0.0194535 0)
(0.0994095 -0.0322977 0)
(0.0987849 -0.0450404 0)
(0.097935 -0.0576679 0)
(0.0968557 -0.0701608 0)
(0.0955383 -0.0824945 0)
(0.0939752 -0.0946407 0)
(0.0921641 -0.10657 0)
(0.0901111 -0.118254 0)
(0.0878337 -0.129675 0)
(0.0853633 -0.140825 0)
(0.0827465 -0.151725 0)
(0.0800449 -0.162434 0)
(0.0773301 -0.173038 0)
(0.0746691 -0.183581 0)
(0.072112 -0.194124 0)
(0.0696777 -0.204724 0)
(0.0673461 -0.215417 0)
(0.0650568 -0.226196 0)
(0.0627179 -0.237014 0)
(0.0602214 -0.247791 0)
(0.0574633 -0.258427 0)
(0.054359 -0.268826 0)
(0.0508524 -0.278907 0)
(0.0469196 -0.288539 0)
(0.0425566 -0.297623 0)
(0.0377761 -0.306086 0)
(0.0326027 -0.313881 0)
(0.0270682 -0.320979 0)
(0.0212078 -0.327369 0)
(0.0150572 -0.33305 0)
(0.00865117 -0.338035 0)
(0.00202292 -0.342343 0)
(-0.00479534 -0.346002 0)
(-0.0117739 -0.349046 0)
(-0.0188866 -0.351513 0)
(-0.0261098 -0.353442 0)
(-0.0334221 -0.354875 0)
(-0.0408035 -0.355853 0)
(-0.0482356 -0.356416 0)
(-0.0557017 -0.356606 0)
(-0.0631855 -0.356459 0)
(-0.0706718 -0.356013 0)
(-0.0781454 -0.355303 0)
(-0.0855914 -0.35436 0)
(-0.0929948 -0.353215 0)
(-0.10034 -0.351897 0)
(-0.107612 -0.350433 0)
(-0.114794 -0.348848 0)
(-0.121869 -0.347169 0)
(-0.128818 -0.345421 0)
(-0.135622 -0.343629 0)
(-0.142261 -0.341822 0)
(-0.148712 -0.340027 0)
(-0.154953 -0.338275 0)
(-0.160954 -0.336601 0)
(-0.166671 -0.335037 0)
(-0.172066 -0.333613 0)
(-0.177204 -0.332361 0)
(-0.182257 -0.331316 0)
(-0.186997 -0.33048 0)
(-0.189113 -0.329694 0)
(-0.186518 -0.328335 0)
(-0.180519 -0.325905 0)
(-0.173655 -0.322329 0)
(-0.166505 -0.317568 0)
(-0.159005 -0.311595 0)
(-0.151125 -0.304401 0)
(-0.142911 -0.295996 0)
(-0.134427 -0.2864 0)
(-0.125739 -0.275652 0)
(-0.116916 -0.263816 0)
(-0.108023 -0.250993 0)
(-0.0991784 -0.237343 0)
(-0.0906239 -0.22314 0)
(-0.0827346 -0.208818 0)
(-0.0759813 -0.194997 0)
(-0.0708634 -0.182286 0)
(-0.0677677 -0.170982 0)
(-0.0667907 -0.161158 0)
(-0.0676616 -0.15257 0)
(-0.0698639 -0.144776 0)
(-0.0728422 -0.137347 0)
(-0.0761445 -0.12998 0)
(-0.0794656 -0.122527 0)
(-0.0826309 -0.114948 0)
(-0.085545 -0.107197 0)
(-0.0881582 -0.0992105 0)
(-0.0904606 -0.0910111 0)
(-0.0924586 -0.0826397 0)
(-0.0941681 -0.0741374 0)
(-0.09561 -0.0655409 0)
(-0.0968073 -0.0568815 0)
(-0.0977836 -0.0481838 0)
(-0.098561 -0.0394657 0)
(-0.0991583 -0.030737 0)
(-0.0995883 -0.0219986 0)
(-0.0998595 -0.0132439 0)
(-0.0999948 -0.00444416 0)
(0.0999801 -0.0062519 0)
(0.0997325 -0.0186604 0)
(0.0992475 -0.0309709 0)
(0.0985076 -0.043175 0)
(0.0975165 -0.0552551 0)
(0.0962751 -0.0671909 0)
(0.0947824 -0.07896 0)
(0.0930408 -0.0905398 0)
(0.0910594 -0.101909 0)
(0.088856 -0.11305 0)
(0.08646 -0.123952 0)
(0.0839137 -0.134616 0)
(0.0812727 -0.145053 0)
(0.0786008 -0.155294 0)
(0.0759626 -0.165384 0)
(0.0734186 -0.175386 0)
(0.0710165 -0.185371 0)
(0.0687751 -0.195402 0)
(0.066673 -0.205516 0)
(0.0646468 -0.215716 0)
(0.0626009 -0.225962 0)
(0.0604236 -0.236183 0)
(0.0580056 -0.246284 0)
(0.055253 -0.256161 0)
(0.0520939 -0.265716 0)
(0.0484845 -0.274859 0)
(0.0444107 -0.283514 0)
(0.0398802 -0.291621 0)
(0.0349155 -0.299134 0)
(0.0295478 -0.306021 0)
(0.0238128 -0.312267 0)
(0.0177473 -0.317866 0)
(0.0113876 -0.322825 0)
(0.00476887 -0.327158 0)
(-0.00207504 -0.330887 0)
(-0.00911225 -0.33404 0)
(-0.0163145 -0.336651 0)
(-0.0236567 -0.338755 0)
(-0.0311165 -0.340389 0)
(-0.0386738 -0.341591 0)
(-0.04631 -0.3424 0)
(-0.0540077 -0.342852 0)
(-0.061751 -0.342983 0)
(-0.0695246 -0.342826 0)
(-0.077314 -0.342415 0)
(-0.0851053 -0.341779 0)
(-0.0928848 -0.340946 0)
(-0.100639 -0.339943 0)
(-0.108354 -0.338795 0)
(-0.116018 -0.337524 0)
(-0.123615 -0.336153 0)
(-0.131131 -0.334702 0)
(-0.138553 -0.333193 0)
(-0.145864 -0.331646 0)
(-0.153048 -0.330081 0)
(-0.160087 -0.328516 0)
(-0.166954 -0.326967 0)
(-0.173599 -0.325445 0)
(-0.179992 -0.32395 0)
(-0.186194 -0.322478 0)
(-0.192328 -0.320998 0)
(-0.197997 -0.319428 0)
(-0.200428 -0.317573 0)
(-0.197348 -0.314902 0)
(-0.190534 -0.311261 0)
(-0.182914 -0.30664 0)
(-0.175009 -0.300985 0)
(-0.166726 -0.294256 0)
(-0.158042 -0.286436 0)
(-0.149 -0.277537 0)
(-0.139657 -0.267597 0)
(-0.130074 -0.256686 0)
(-0.120311 -0.244912 0)
(-0.110443 -0.232429 0)
(-0.100625 -0.219455 0)
(-0.0911656 -0.206293 0)
(-0.0825154 -0.19333 0)
(-0.0752168 -0.181003 0)
(-0.0698004 -0.169724 0)
(-0.0665993 -0.159758 0)
(-0.065594 -0.1511 0)
(-0.0664199 -0.143469 0)
(-0.0685303 -0.136453 0)
(-0.0713861 -0.129675 0)
(-0.0745648 -0.122878 0)
(-0.0777867 -0.115926 0)
(-0.0808949 -0.108767 0)
(-0.0838109 -0.101404 0)
(-0.086493 -0.0938563 0)
(-0.0889182 -0.0861448 0)
(-0.0910791 -0.0782909 0)
(-0.0929778 -0.0703163 0)
(-0.0946222 -0.0622426 0)
(-0.0960233 -0.05409 0)
(-0.0971939 -0.0458769 0)
(-0.0981476 -0.0376185 0)
(-0.0988959 -0.0293254 0)
(-0.0994461 -0.0210024 0)
(-0.0998025 -0.0126497 0)
(-0.0999864 -0.00424629 0)
(0.0999843 -0.00591879 0)
(0.0997304 -0.0176656 0)
(0.0992253 -0.0293107 0)
(0.0984505 -0.0408392 0)
(0.0974143 -0.052229 0)
(0.096123 -0.0634561 0)
(0.0945814 -0.0744964 0)
(0.0927971 -0.0853265 0)
(0.0907838 -0.0959257 0)
(0.0885627 -0.106278 0)
(0.0861645 -0.116376 0)
(0.083631 -0.126224 0)
(0.0810157 -0.135841 0)
(0.0783818 -0.145264 0)
(0.0757978 -0.15455 0)
(0.0733279 -0.163769 0)
(0.0710198 -0.172993 0)
(0.0688905 -0.18229 0)
(0.0669164 -0.1917 0)
(0.0650316 -0.20123 0)
(0.0631366 -0.210848 0)
(0.0611156 -0.220488 0)
(0.0588544 -0.23006 0)
(0.0562565 -0.239468 0)
(0.053251 -0.248613 0)
(0.0497948 -0.257406 0)
(0.0458703 -0.265769 0)
(0.0414804 -0.273641 0)
(0.0366423 -0.280973 0)
(0.0313827 -0.287735 0)
(0.0257332 -0.293908 0)
(0.0197279 -0.299484 0)
(0.0134015 -0.304467 0)
(0.00678754 -0.308868 0)
(-8.09914e-05 -0.312706 0)
(-0.00717307 -0.316006 0)
(-0.0144609 -0.318796 0)
(-0.0219203 -0.321109 0)
(-0.0295294 -0.32298 0)
(-0.0372681 -0.324441 0)
(-0.045118 -0.325528 0)
(-0.0530621 -0.326275 0)
(-0.0610848 -0.326713 0)
(-0.0691716 -0.326873 0)
(-0.0773088 -0.326785 0)
(-0.0854835 -0.326475 0)
(-0.0936834 -0.325968 0)
(-0.101896 -0.325286 0)
(-0.110111 -0.32445 0)
(-0.118314 -0.32348 0)
(-0.126496 -0.322391 0)
(-0.134643 -0.321199 0)
(-0.142743 -0.319917 0)
(-0.150781 -0.318556 0)
(-0.158741 -0.317125 0)
(-0.166604 -0.31563 0)
(-0.174331 -0.314072 0)
(-0.181862 -0.312444 0)
(-0.18915 -0.310731 0)
(-0.196218 -0.308915 0)
(-0.203095 -0.306961 0)
(-0.209147 -0.304775 0)
(-0.211375 -0.302038 0)
(-0.207555 -0.298286 0)
(-0.199904 -0.293608 0)
(-0.191452 -0.288051 0)
(-0.182699 -0.281578 0)
(-0.173535 -0.27416 0)
(-0.163941 -0.265793 0)
(-0.153969 -0.256498 0)
(-0.14369 -0.246326 0)
(-0.13318 -0.23536 0)
(-0.12252 -0.223721 0)
(-0.111821 -0.211572 0)
(-0.101301 -0.19914 0)
(-0.0913346 -0.186725 0)
(-0.0824126 -0.1747 0)
(-0.0750687 -0.16347 0)
(-0.0697612 -0.153387 0)
(-0.0667173 -0.144629 0)
(-0.0658253 -0.13711 0)
(-0.0666755 -0.130517 0)
(-0.0687272 -0.124452 0)
(-0.071475 -0.118572 0)
(-0.0745326 -0.112653 0)
(-0.0776437 -0.10657 0)
(-0.0806581 -0.100273 0)
(-0.0834968 -0.0937476 0)
(-0.0861214 -0.0870014 0)
(-0.0885152 -0.0800522 0)
(-0.0906725 -0.0729224 0)
(-0.0925929 -0.0656353 0)
(-0.0942797 -0.0582136 0)
(-0.0957377 -0.0506791 0)
(-0.0969729 -0.043052 0)
(-0.0979919 -0.0353502 0)
(-0.0987999 -0.027588 0)
(-0.0993983 -0.0197751 0)
(-0.0997869 -0.0119175 0)
(-0.0999866 -0.00400188 0)
(0.0999815 -0.00558209 0)
(0.0997118 -0.0166589 0)
(0.0991797 -0.0276371 0)
(0.0983678 -0.0385011 0)
(0.0972866 -0.0492283 0)
(0.0959449 -0.0597955 0)
(0.0943505 -0.0701798 0)
(0.0925144 -0.0803597 0)
(0.0904534 -0.0903171 0)
(0.0881921 -0.100039 0)
(0.0857645 -0.10952 0)
(0.0832155 -0.118765 0)
(0.0806014 -0.127793 0)
(0.0779875 -0.136639 0)
(0.0754434 -0.145353 0)
(0.0730333 -0.153999 0)
(0.0708037 -0.162647 0)
(0.0687698 -0.171358 0)
(0.0669059 -0.180173 0)
(0.0651443 -0.1891 0)
(0.0633834 -0.198115 0)
(0.0615046 -0.207159 0)
(0.0593903 -0.216155 0)
(0.0569401 -0.225013 0)
(0.0540789 -0.233644 0)
(0.0507602 -0.241966 0)
(0.0469628 -0.249907 0)
(0.0426863 -0.257408 0)
(0.0379455 -0.264425 0)
(0.0327646 -0.270926 0)
(0.0271736 -0.276892 0)
(0.0212047 -0.282314 0)
(0.0148907 -0.287192 0)
(0.00826365 -0.291536 0)
(0.00135476 -0.295361 0)
(-0.00580633 -0.298688 0)
(-0.0131928 -0.301543 0)
(-0.0207811 -0.303955 0)
(-0.0285498 -0.305952 0)
(-0.0364793 -0.307566 0)
(-0.0445519 -0.308827 0)
(-0.0527512 -0.309765 0)
(-0.0610624 -0.310407 0)
(-0.0694716 -0.310783 0)
(-0.0779659 -0.310915 0)
(-0.0865331 -0.310828 0)
(-0.0951613 -0.310542 0)
(-0.103839 -0.310076 0)
(-0.112555 -0.309446 0)
(-0.121298 -0.308666 0)
(-0.130056 -0.307747 0)
(-0.138815 -0.306699 0)
(-0.147562 -0.305527 0)
(-0.156279 -0.304237 0)
(-0.164948 -0.302829 0)
(-0.173539 -0.3013 0)
(-0.182004 -0.299643 0)
(-0.190266 -0.297843 0)
(-0.198281 -0.295883 0)
(-0.206075 -0.293756 0)
(-0.213593 -0.291465 0)
(-0.219666 -0.288928 0)
(-0.221103 -0.285511 0)
(-0.216179 -0.280936 0)
(-0.207761 -0.275486 0)
(-0.198584 -0.269291 0)
(-0.189054 -0.262312 0)
(-0.17907 -0.254526 0)
(-0.16863 -0.245941 0)
(-0.157807 -0.236595 0)
(-0.146689 -0.226549 0)
(-0.135372 -0.215899 0)
(-0.123957 -0.204774 0)
(-0.112591 -0.193341 0)
(-0.101543 -0.181824 0)
(-0.0912269 -0.170505 0)
(-0.0821495 -0.159713 0)
(-0.0748235 -0.149779 0)
(-0.0696484 -0.140953 0)
(-0.0667659 -0.133314 0)
(-0.0659864 -0.126715 0)
(-0.0668633 -0.120844 0)
(-0.0688631 -0.115358 0)
(-0.0715114 -0.10998 0)
(-0.0744555 -0.104531 0)
(-0.0774643 -0.0989199 0)
(-0.0804014 -0.093107 0)
(-0.083191 -0.0870846 0)
(-0.0857927 -0.08086 0)
(-0.0881854 -0.0744471 0)
(-0.0903589 -0.067863 0)
(-0.0923089 -0.0611259 0)
(-0.0940346 -0.0542541 0)
(-0.095537 -0.047266 0)
(-0.0968185 -0.0401795 0)
(-0.0978823 -0.0330111 0)
(-0.0987305 -0.0257751 0)
(-0.0993616 -0.0184825 0)
(-0.099773 -0.0111414 0)
(-0.0999853 -0.00374186 0)
(0.0999819 -0.00522923 0)
(0.099708 -0.0156058 0)
(0.0991664 -0.025888 0)
(0.0983402 -0.0360591 0)
(0.0972413 -0.0460962 0)
(0.0958805 -0.055976 0)
(0.0942676 -0.0656762 0)
(0.0924154 -0.0751763 0)
(0.0903425 -0.0844593 0)
(0.088075 -0.0935132 0)
(0.0856481 -0.102334 0)
(0.0831072 -0.110928 0)
(0.0805088 -0.119314 0)
(0.0779182 -0.127528 0)
(0.0754047 -0.13562 0)
(0.0730322 -0.143654 0)
(0.070847 -0.151696 0)
(0.0688642 -0.159808 0)
(0.067058 -0.16803 0)
(0.0653608 -0.176373 0)
(0.0636708 -0.184813 0)
(0.0618686 -0.193297 0)
(0.0598356 -0.201753 0)
(0.0574693 -0.210097 0)
(0.0546927 -0.218245 0)
(0.0514563 -0.226121 0)
(0.0477363 -0.233657 0)
(0.0435292 -0.240796 0)
(0.0388467 -0.247497 0)
(0.0337103 -0.253729 0)
(0.0281475 -0.259472 0)
(0.0221882 -0.264718 0)
(0.015863 -0.269465 0)
(0.00920221 -0.27372 0)
(0.00223535 -0.277498 0)
(-0.00500889 -0.280814 0)
(-0.0125046 -0.283693 0)
(-0.0202291 -0.286158 0)
(-0.0281619 -0.288236 0)
(-0.0362843 -0.289954 0)
(-0.0445791 -0.291338 0)
(-0.0530308 -0.292414 0)
(-0.0616249 -0.293209 0)
(-0.070348 -0.293744 0)
(-0.0791875 -0.294041 0)
(-0.0881312 -0.294119 0)
(-0.0971673 -0.293996 0)
(-0.106284 -0.293687 0)
(-0.115469 -0.293203 0)
(-0.12471 -0.292554 0)
(-0.133994 -0.291747 0)
(-0.143304 -0.290788 0)
(-0.152623 -0.289678 0)
(-0.16193 -0.288417 0)
(-0.1712 -0.287001 0)
(-0.180397 -0.285425 0)
(-0.189457 -0.283676 0)
(-0.198297 -0.281738 0)
(-0.206895 -0.279596 0)
(-0.215327 -0.277251 0)
(-0.223415 -0.274715 0)
(-0.229039 -0.271852 0)
(-0.228887 -0.267889 0)
(-0.222595 -0.2627 0)
(-0.213648 -0.256742 0)
(-0.203984 -0.250169 0)
(-0.193841 -0.242934 0)
(-0.183167 -0.235017 0)
(-0.172009 -0.226435 0)
(-0.160467 -0.217234 0)
(-0.148652 -0.207482 0)
(-0.136679 -0.197277 0)
(-0.124674 -0.186744 0)
(-0.112818 -0.176043 0)
(-0.101428 -0.165383 0)
(-0.0909473 -0.15502 0)
(-0.0818859 -0.145244 0)
(-0.0747277 -0.136333 0)
(-0.0698082 -0.128482 0)
(-0.067184 -0.121721 0)
(-0.0665939 -0.115882 0)
(-0.06756 -0.110669 0)
(-0.0695568 -0.10577 0)
(-0.0721373 -0.100944 0)
(-0.0749789 -0.096036 0)
(-0.0778742 -0.0909665 0)
(-0.0807016 -0.0857012 0)
(-0.0833944 -0.0802322 0)
(-0.085916 -0.0745653 0)
(-0.0882467 -0.0687125 0)
(-0.0903757 -0.0626888 0)
(-0.0922968 -0.0565108 0)
(-0.0940067 -0.0501954 0)
(-0.0955036 -0.0437599 0)
(-0.0967869 -0.0372214 0)
(-0.0978571 -0.0305966 0)
(-0.0987137 -0.0238998 0)
(-0.0993528 -0.0171431 0)
(-0.09977 -0.0103361 0)
(-0.0999853 -0.00347184 0)
(0.0999814 -0.00487301 0)
(0.0997034 -0.0145425 0)
(0.0991546 -0.0241234 0)
(0.0983181 -0.0335995 0)
(0.0972069 -0.0429488 0)
(0.0958326 -0.0521492 0)
(0.094206 -0.0611796 0)
(0.0923412 -0.0700209 0)
(0.0902579 -0.0786577 0)
(0.0879834 -0.0870793 0)
(0.0855539 -0.0952827 0)
(0.0830158 -0.103274 0)
(0.0804262 -0.111072 0)
(0.0778511 -0.11871 0)
(0.0753599 -0.126235 0)
(0.0730166 -0.133707 0)
(0.0708672 -0.141188 0)
(0.0689264 -0.148735 0)
(0.0671682 -0.156388 0)
(0.0655238 -0.164157 0)
(0.0638907 -0.172022 0)
(0.0621483 -0.179936 0)
(0.0601765 -0.187832 0)
(0.0578711 -0.195636 0)
(0.0551532 -0.203271 0)
(0.0519713 -0.210664 0)
(0.0482993 -0.217753 0)
(0.0441318 -0.224487 0)
(0.0394782 -0.230825 0)
(0.0343579 -0.236737 0)
(0.0287962 -0.242206 0)
(0.0228216 -0.247221 0)
(0.0164631 -0.25178 0)
(0.00974976 -0.255889 0)
(0.00270994 -0.259559 0)
(-0.00462889 -0.262804 0)
(-0.0122419 -0.265643 0)
(-0.0201075 -0.268099 0)
(-0.028206 -0.270194 0)
(-0.0365192 -0.271952 0)
(-0.0450306 -0.273395 0)
(-0.0537249 -0.274547 0)
(-0.0625881 -0.275429 0)
(-0.0716068 -0.276061 0)
(-0.0807682 -0.27646 0)
(-0.0900599 -0.276643 0)
(-0.0994694 -0.276623 0)
(-0.108984 -0.276411 0)
(-0.11859 -0.276016 0)
(-0.128273 -0.275445 0)
(-0.138018 -0.274702 0)
(-0.147805 -0.273788 0)
(-0.157613 -0.272703 0)
(-0.167417 -0.271443 0)
(-0.177186 -0.270002 0)
(-0.186876 -0.268372 0)
(-0.196409 -0.26654 0)
(-0.205699 -0.264492 0)
(-0.214745 -0.262214 0)
(-0.223647 -0.259715 0)
(-0.232022 -0.257004 0)
(-0.236671 -0.253906 0)
(-0.234698 -0.249454 0)
(-0.227309 -0.243945 0)
(-0.218009 -0.237808 0)
(-0.207987 -0.231145 0)
(-0.19735 -0.22391 0)
(-0.186111 -0.216096 0)
(-0.174368 -0.20773 0)
(-0.162247 -0.198863 0)
(-0.149881 -0.189567 0)
(-0.137404 -0.179941 0)
(-0.124959 -0.170104 0)
(-0.112764 -0.160209 0)
(-0.101169 -0.150449 0)
(-0.090637 -0.141056 0)
(-0.0816703 -0.132283 0)
(-0.0747187 -0.124359 0)
(-0.070055 -0.117422 0)
(-0.0676632 -0.111453 0)
(-0.0672288 -0.106268 0)
(-0.0682582 -0.10159 0)
(-0.0702408 -0.0971493 0)
(-0.0727572 -0.0927432 0)
(-0.0755102 -0.0882483 0)
(-0.0783108 -0.0836003 0)
(-0.0810485 -0.0787725 0)
(-0.0836615 -0.0737591 0)
(-0.0861154 -0.0685649 0)
(-0.0883907 -0.0631998 0)
(-0.0904757 -0.0576764 0)
(-0.0923632 -0.0520085 0)
(-0.0940484 -0.0462108 0)
(-0.095528 -0.0402985 0)
(-0.0968001 -0.034287 0)
(-0.0978634 -0.0281914 0)
(-0.0987162 -0.0220256 0)
(-0.0993535 -0.0158011 0)
(-0.09977 -0.00952804 0)
(-0.0999853 -0.0032006 0)
(0.0999814 -0.00451303 0)
(0.0997021 -0.0134683 0)
(0.0991506 -0.0223412 0)
(0.0983103 -0.0311164 0)
(0.0971943 -0.0397728 0)
(0.0958151 -0.0482896 0)
(0.094184 -0.0566469 0)
(0.0923158 -0.064827 0)
(0.0902308 -0.0728155 0)
(0.087957 -0.080603 0)
(0.0855309 -0.0881867 0)
(0.0829994 -0.0955731 0)
(0.0804197 -0.10278 0)
(0.0778578 -0.109839 0)
(0.075383 -0.116795 0)
(0.0730593 -0.123703 0)
(0.0709324 -0.130623 0)
(0.0690169 -0.137609 0)
(0.0672868 -0.144697 0)
(0.0656732 -0.1519 0)
(0.0640733 -0.159199 0)
(0.0623659 -0.166551 0)
(0.0604299 -0.173896 0)
(0.0581598 -0.181164 0)
(0.055475 -0.188283 0)
(0.0523222 -0.195189 0)
(0.0486736 -0.201823 0)
(0.0445217 -0.208138 0)
(0.0398743 -0.214094 0)
(0.0347493 -0.219665 0)
(0.0291705 -0.224832 0)
(0.0231648 -0.229585 0)
(0.0167599 -0.233923 0)
(0.00998366 -0.237847 0)
(0.00286322 -0.241369 0)
(-0.00457493 -0.2445 0)
(-0.0123069 -0.247256 0)
(-0.0203118 -0.249658 0)
(-0.0285705 -0.251723 0)
(-0.0370654 -0.253474 0)
(-0.0457803 -0.25493 0)
(-0.0547 -0.256109 0)
(-0.0638103 -0.257032 0)
(-0.0730977 -0.257713 0)
(-0.0825489 -0.258168 0)
(-0.0921508 -0.25841 0)
(-0.10189 -0.258449 0)
(-0.111752 -0.258295 0)
(-0.121721 -0.257952 0)
(-0.131781 -0.257425 0)
(-0.141914 -0.256715 0)
(-0.152096 -0.255821 0)
(-0.162303 -0.254739 0)
(-0.172505 -0.253465 0)
(-0.182665 -0.251989 0)
(-0.192731 -0.250299 0)
(-0.202619 -0.24838 0)
(-0.212243 -0.246209 0)
(-0.221638 -0.243765 0)
(-0.230942 -0.24103 0)
(-0.239728 -0.237967 0)
(-0.242748 -0.234562 0)
(-0.238531 -0.230072 0)
(-0.230727 -0.22475 0)
(-0.221214 -0.218813 0)
(-0.210908 -0.212328 0)
(-0.199859 -0.205306 0)
(-0.188149 -0.197769 0)
(-0.175927 -0.189761 0)
(-0.163341 -0.181343 0)
(-0.150543 -0.172591 0)
(-0.137681 -0.1636 0)
(-0.124915 -0.154482 0)
(-0.112494 -0.14538 0)
(-0.100796 -0.136472 0)
(-0.0902943 -0.127965 0)
(-0.0814816 -0.120079 0)
(-0.0747723 -0.113005 0)
(-0.0703816 -0.10684 0)
(-0.0682294 -0.101541 0)
(-0.0679571 -0.0969196 0)
(-0.0690597 -0.0927214 0)
(-0.0710408 -0.0887091 0)
(-0.0735051 -0.0847109 0)
(-0.0761781 -0.0806225 0)
(-0.0788876 -0.0763905 0)
(-0.0815338 -0.0719928 0)
(-0.0840609 -0.0674245 0)
(-0.0864375 -0.0626899 0)
(-0.0886452 -0.0577976 0)
(-0.0906725 -0.0527585 0)
(-0.0925119 -0.0475848 0)
(-0.0941576 -0.0422896 0)
(-0.0956056 -0.0368866 0)
(-0.0968528 -0.03139 0)
(-0.0978971 -0.0258136 0)
(-0.0987358 -0.0201704 0)
(-0.0993632 -0.0144716 0)
(-0.0997734 -0.00872691 0)
(-0.0999855 -0.00293154 0)
(0.0999813 -0.00415214 0)
(0.0997013 -0.0123913 0)
(0.0991484 -0.0205548 0)
(0.0983061 -0.0286283 0)
(0.0971879 -0.0365922 0)
(0.0958063 -0.0444272 0)
(0.0941733 -0.0521148 0)
(0.0923037 -0.0596389 0)
(0.0902185 -0.0669862 0)
(0.0879458 -0.0741481 0)
(0.0855226 -0.0811225 0)
(0.0829959 -0.0879155 0)
(0.0804234 -0.0945439 0)
(0.0778709 -0.101037 0)
(0.0754081 -0.107436 0)
(0.0730986 -0.113793 0)
(0.0709883 -0.120163 0)
(0.0690914 -0.126595 0)
(0.0673816 -0.133126 0)
(0.0657897 -0.139764 0)
(0.0642122 -0.146496 0)
(0.0625271 -0.153282 0)
(0.0606125 -0.160067 0)
(0.058362 -0.166788 0)
(0.0556935 -0.17338 0)
(0.0525528 -0.179782 0)
(0.0489104 -0.185941 0)
(0.0447578 -0.191813 0)
(0.0401012 -0.197362 0)
(0.0349573 -0.202562 0)
(0.0293486 -0.207396 0)
(0.0233009 -0.211855 0)
(0.016841 -0.215935 0)
(0.00999543 -0.219639 0)
(0.00279076 -0.222974 0)
(-0.0047474 -0.225951 0)
(-0.0125959 -0.228585 0)
(-0.0207343 -0.230891 0)
(-0.029144 -0.232886 0)
(-0.0378075 -0.234588 0)
(-0.0467088 -0.236015 0)
(-0.0558325 -0.237182 0)
(-0.0651642 -0.238105 0)
(-0.0746899 -0.238797 0)
(-0.0843956 -0.239272 0)
(-0.0942669 -0.23954 0)
(-0.104289 -0.239607 0)
(-0.114446 -0.239481 0)
(-0.12472 -0.239166 0)
(-0.135093 -0.238663 0)
(-0.145541 -0.237972 0)
(-0.156039 -0.237091 0)
(-0.166556 -0.236014 0)
(-0.177056 -0.234735 0)
(-0.187493 -0.233243 0)
(-0.197803 -0.231526 0)
(-0.20788 -0.229565 0)
(-0.217626 -0.227334 0)
(-0.227046 -0.224809 0)
(-0.236188 -0.221947 0)
(-0.244379 -0.218672 0)
(-0.24759 -0.215157 0)
(-0.243316 -0.210696 0)
(-0.234389 -0.205704 0)
(-0.224137 -0.200076 0)
(-0.21326 -0.19389 0)
(-0.201713 -0.187198 0)
(-0.18955 -0.180051 0)
(-0.17691 -0.172503 0)
(-0.163947 -0.164619 0)
(-0.150814 -0.156475 0)
(-0.137664 -0.148162 0)
(-0.124673 -0.139785 0)
(-0.112112 -0.131477 0)
(-0.100383 -0.123398 0)
(-0.0899637 -0.115735 0)
(-0.0813321 -0.108679 0)
(-0.0748689 -0.102386 0)
(-0.0707361 -0.096922 0)
(-0.0687998 -0.0922209 0)
(-0.0686677 -0.088099 0)
(-0.0698307 -0.0843251 0)
(-0.0718078 -0.0806938 0)
(-0.0742255 -0.07706 0)
(-0.0768286 -0.0733379 0)
(-0.0794588 -0.0694838 0)
(-0.0820248 -0.06548 0)
(-0.0844754 -0.0613229 0)
(-0.0867814 -0.0570163 0)
(-0.0889255 -0.0525677 0)
(-0.0908966 -0.0479863 0)
(-0.092687 -0.0432829 0)
(-0.0942907 -0.0384688 0)
(-0.0957033 -0.0335563 0)
(-0.0969213 -0.0285578 0)
(-0.097942 -0.023486 0)
(-0.0987624 -0.0183525 0)
(-0.0993764 -0.0131677 0)
(-0.0997781 -0.00794077 0)
(-0.0999858 -0.00266742 0)
(0.0999813 -0.00379069 0)
(0.0997012 -0.0113127 0)
(0.0991481 -0.0187658 0)
(0.0983054 -0.0261369 0)
(0.0971868 -0.0334078 0)
(0.0958051 -0.0405609 0)
(0.0941721 -0.0475793 0)
(0.0923032 -0.054448 0)
(0.0902193 -0.0611552 0)
(0.0879488 -0.067693 0)
(0.0855287 -0.0740595 0)
(0.0830064 -0.0802606 0)
(0.0804394 -0.086312 0)
(0.0778938 -0.0922404 0)
(0.0754391 -0.0980844 0)
(0.073139 -0.103891 0)
(0.0710391 -0.109712 0)
(0.0691538 -0.115593 0)
(0.0674562 -0.121566 0)
(0.0658769 -0.127642 0)
(0.0643118 -0.133806 0)
(0.0626385 -0.140024 0)
(0.0607341 -0.146246 0)
(0.0584913 -0.152415 0)
(0.0558273 -0.15847 0)
(0.0526865 -0.164357 0)
(0.0490388 -0.170028 0)
(0.0448742 -0.17544 0)
(0.0401982 -0.180563 0)
(0.0350264 -0.185372 0)
(0.0293804 -0.189851 0)
(0.0232849 -0.193989 0)
(0.016766 -0.197785 0)
(0.00984966 -0.201239 0)
(0.00256165 -0.204358 0)
(-0.00507303 -0.207151 0)
(-0.0130317 -0.209629 0)
(-0.0212943 -0.211808 0)
(-0.0298424 -0.2137 0)
(-0.0386586 -0.215322 0)
(-0.0477266 -0.216687 0)
(-0.0570311 -0.217811 0)
(-0.0665571 -0.218705 0)
(-0.0762898 -0.219382 0)
(-0.0862143 -0.219851 0)
(-0.0963152 -0.22012 0)
(-0.106576 -0.220195 0)
(-0.116979 -0.220082 0)
(-0.127506 -0.219782 0)
(-0.138132 -0.219295 0)
(-0.148835 -0.218621 0)
(-0.159583 -0.217756 0)
(-0.170343 -0.216694 0)
(-0.181073 -0.215429 0)
(-0.191721 -0.213952 0)
(-0.202209 -0.212253 0)
(-0.212423 -0.210314 0)
(-0.222262 -0.208122 0)
(-0.231707 -0.205665 0)
(-0.240754 -0.202933 0)
(-0.248566 -0.199889 0)
(-0.25136 -0.196545 0)
(-0.246554 -0.19207 0)
(-0.236996 -0.187149 0)
(-0.226238 -0.181731 0)
(-0.214918 -0.175851 0)
(-0.202971 -0.169545 0)
(-0.190443 -0.162856 0)
(-0.177471 -0.155834 0)
(-0.164211 -0.14854 0)
(-0.150821 -0.141046 0)
(-0.137458 -0.133435 0)
(-0.12431 -0.125806 0)
(-0.111671 -0.118276 0)
(-0.0999572 -0.110993 0)
(-0.089649 -0.104123 0)
(-0.0812099 -0.0978316 0)
(-0.0749877 -0.0922465 0)
(-0.0710974 -0.0874095 0)
(-0.0693589 -0.0832432 0)
(-0.0693541 -0.0795726 0)
(-0.0705722 -0.0761904 0)
(-0.0725472 -0.0729185 0)
(-0.0749247 -0.0696344 0)
(-0.0774662 -0.0662662 0)
(-0.0800252 -0.0627781 0)
(-0.0825179 -0.0591556 0)
(-0.0848972 -0.0553961 0)
(-0.0871363 -0.0515029 0)
(-0.0892189 -0.0474827 0)
(-0.0911345 -0.0433436 0)
(-0.0928754 -0.0390949 0)
(-0.094436 -0.0347467 0)
(-0.0958113 -0.0303097 0)
(-0.0969979 -0.0257952 0)
(-0.0979928 -0.0212142 0)
(-0.0987927 -0.0165774 0)
(-0.0993916 -0.0118941 0)
(-0.0997835 -0.0071727 0)
(-0.0999861 -0.00240932 0)
(0.0999813 -0.00342929 0)
(0.0997013 -0.0102343 0)
(0.0991482 -0.0169771 0)
(0.0983057 -0.0236459 0)
(0.0971874 -0.0302243 0)
(0.0958061 -0.0366961 0)
(0.0941737 -0.0430463 0)
(0.0923056 -0.0492612 0)
(0.090223 -0.05533 0)
(0.0879543 -0.0612457 0)
(0.0855366 -0.0670068 0)
(0.0830173 -0.0726187 0)
(0.0804541 -0.0780957 0)
(0.077913 -0.0834622 0)
(0.0754635 -0.0887533 0)
(0.0731694 -0.0940122 0)
(0.0710763 -0.0992853 0)
(0.0691982 -0.104615 0)
(0.067508 -0.11003 0)
(0.0659359 -0.11554 0)
(0.0643773 -0.121134 0)
(0.062709 -0.126779 0)
(0.0608076 -0.132432 0)
(0.0585649 -0.138039 0)
(0.0558975 -0.143548 0)
(0.052749 -0.148909 0)
(0.0490883 -0.154077 0)
(0.0449049 -0.159015 0)
(0.0402034 -0.163694 0)
(0.0349986 -0.168092 0)
(0.0293115 -0.172194 0)
(0.0231661 -0.175991 0)
(0.0165879 -0.179479 0)
(0.00960227 -0.18266 0)
(0.00223467 -0.185537 0)
(-0.0054904 -0.188119 0)
(-0.0135506 -0.190417 0)
(-0.0219261 -0.192441 0)
(-0.0305984 -0.194205 0)
(-0.0395502 -0.195721 0)
(-0.0487649 -0.197001 0)
(-0.0582267 -0.198058 0)
(-0.0679202 -0.198902 0)
(-0.0778298 -0.199542 0)
(-0.0879396 -0.199987 0)
(-0.0982329 -0.200243 0)
(-0.108692 -0.200315 0)
(-0.119297 -0.200206 0)
(-0.130027 -0.199917 0)
(-0.140857 -0.199448 0)
(-0.15176 -0.198796 0)
(-0.162702 -0.197959 0)
(-0.173646 -0.19693 0)
(-0.184546 -0.195705 0)
(-0.195348 -0.194275 0)
(-0.205965 -0.192632 0)
(-0.216282 -0.190765 0)
(-0.226211 -0.188667 0)
(-0.235759 -0.186342 0)
(-0.244878 -0.18381 0)
(-0.252279 -0.181079 0)
(-0.254242 -0.177836 0)
(-0.248656 -0.173513 0)
(-0.238705 -0.168779 0)
(-0.227644 -0.163655 0)
(-0.216019 -0.158156 0)
(-0.203772 -0.152301 0)
(-0.190963 -0.146128 0)
(-0.177736 -0.139682 0)
(-0.164249 -0.133018 0)
(-0.150666 -0.126203 0)
(-0.137146 -0.11931 0)
(-0.123892 -0.112428 0)
(-0.111215 -0.105665 0)
(-0.0995459 -0.0991532 0)
(-0.0893621 -0.0930386 0)
(-0.0811132 -0.0874644 0)
(-0.0751166 -0.0825352 0)
(-0.0714454 -0.0782736 0)
(-0.0698812 -0.0745969 0)
(-0.0699862 -0.0713418 0)
(-0.0712508 -0.0683245 0)
(-0.073223 -0.0653921 0)
(-0.0755652 -0.0624412 0)
(-0.0780531 -0.0594123 0)
(-0.0805502 -0.0562758 0)
(-0.0829786 -0.0530202 0)
(-0.0852948 -0.0496435 0)
(-0.0874738 -0.046149 0)
(-0.0895005 -0.0425423 0)
(-0.0913649 -0.0388305 0)
(-0.0930596 -0.0350218 0)
(-0.0945791 -0.0311249 0)
(-0.0959185 -0.0271493 0)
(-0.0970744 -0.0231047 0)
(-0.0980437 -0.0190011 0)
(-0.0988233 -0.0148476 0)
(-0.099407 -0.0106528 0)
(-0.099789 -0.00642397 0)
(-0.0999865 -0.00215769 0)
(0.0999813 -0.00306803 0)
(0.0997014 -0.00915621 0)
(0.0991486 -0.015189 0)
(0.0983065 -0.0211557 0)
(0.0971887 -0.0270418 0)
(0.0958079 -0.0328327 0)
(0.0941763 -0.0385149 0)
(0.0923091 -0.0440763 0)
(0.0902276 -0.0495072 0)
(0.0879602 -0.0548014 0)
(0.0855441 -0.0599575 0)
(0.0830268 -0.0649805 0)
(0.0804658 -0.0698833 0)
(0.0779273 -0.0746881 0)
(0.0754809 -0.0794262 0)
(0.0731903 -0.0841366 0)
(0.071101 -0.0888611 0)
(0.0692267 -0.0936376 0)
(0.0675403 -0.0984926 0)
(0.0659713 -0.103435 0)
(0.0644146 -0.108454 0)
(0.0627467 -0.113523 0)
(0.0608433 -0.1186 0)
(0.0585957 -0.123639 0)
(0.0559199 -0.128593 0)
(0.0527588 -0.133416 0)
(0.0490809 -0.13807 0)
(0.0448749 -0.142521 0)
(0.040145 -0.146742 0)
(0.0349054 -0.150714 0)
(0.0291765 -0.154423 0)
(0.0229819 -0.157859 0)
(0.0163467 -0.161021 0)
(0.00929584 -0.163908 0)
(0.00185453 -0.166524 0)
(-0.00595303 -0.168875 0)
(-0.0141047 -0.170971 0)
(-0.0225808 -0.172821 0)
(-0.0313626 -0.174436 0)
(-0.0404328 -0.175827 0)
(-0.0497746 -0.177004 0)
(-0.0593716 -0.177977 0)
(-0.0692078 -0.178754 0)
(-0.0792669 -0.179345 0)
(-0.089532 -0.179755 0)
(-0.0999854 -0.17999 0)
(-0.110608 -0.180053 0)
(-0.121378 -0.179946 0)
(-0.132273 -0.179671 0)
(-0.143267 -0.179226 0)
(-0.154328 -0.17861 0)
(-0.165423 -0.177818 0)
(-0.17651 -0.176848 0)
(-0.187544 -0.175694 0)
(-0.198464 -0.17435 0)
(-0.209184 -0.17281 0)
(-0.219587 -0.171066 0)
(-0.229608 -0.169115 0)
(-0.239294 -0.166966 0)
(-0.248528 -0.164643 0)
(-0.255403 -0.162172 0)
(-0.256309 -0.159 0)
(-0.249909 -0.154961 0)
(-0.239726 -0.150545 0)
(-0.228509 -0.14581 0)
(-0.216683 -0.140762 0)
(-0.20422 -0.135416 0)
(-0.191204 -0.129806 0)
(-0.177786 -0.123973 0)
(-0.164132 -0.117966 0)
(-0.150407 -0.111845 0)
(-0.136775 -0.105676 0)
(-0.123453 -0.099538 0)
(-0.110768 -0.0935273 0)
(-0.0991588 -0.0877608 0)
(-0.0891025 -0.0823669 0)
(-0.0810346 -0.0774683 0)
(-0.0752443 -0.0731499 0)
(-0.0717685 -0.0694206 0)
(-0.0703571 -0.0661972 0)
(-0.0705569 -0.063331 0)
(-0.0718612 -0.0606607 0)
(-0.0738307 -0.0580558 0)
(-0.0761424 -0.0554294 0)
(-0.0785839 -0.0527319 0)
(-0.081027 -0.0499394 0)
(-0.0833991 -0.0470423 0)
(-0.0856597 -0.0440394 0)
(-0.0877853 -0.0409336 0)
(-0.0897618 -0.0377298 0)
(-0.0915798 -0.0344341 0)
(-0.0932323 -0.0310538 0)
(-0.0947138 -0.0275962 0)
(-0.0960199 -0.0240698 0)
(-0.097147 -0.0204829 0)
(-0.0980923 -0.0168441 0)