/*--------------------------------*- C++ -*----------------------------------*\
  =========                 |
  \\      /  F ield         | OpenFOAM: The Open Source CFD Toolbox
   \\    /   O peration     | Website:  https://openfoam.org
    \\  /    A nd           | Version:  8
     \\/     M anipulation  |
\*---------------------------------------------------------------------------*/
FoamFile
{
    version     2.0;
    format      ascii;
    class       volScalarField;
    location    "340/fluid";
    object      CH4;
}
// * * * * * * * * * * * * * * * * * * * * * * * * * * * * * * * * * * * * * //

dimensions      [0 0 0 0 0 0 0];

internalField   nonuniform List<scalar> 
4000
(
0.999997
0.999988
0.999971
0.999944
0.999899
0.999825
0.999703
0.999504
0.999182
0.998669
0.997862
0.996613
0.994713
0.991886
0.987782
0.98199
0.974068
0.963589
0.950206
0.933699
0.914008
0.891217
0.865548
0.837323
0.806923
0.774754
0.741226
0.706736
0.671658
0.636336
0.601078
0.566159
0.531813
0.498237
0.465589
0.434002
0.403578
0.374394
0.346497
0.319916
0.294662
0.270731
0.248106
0.226762
0.206664
0.187773
0.170044
0.153429
0.137879
0.123344
0.109773
0.0971175
0.0853294
0.0743628
0.0641746
0.054725
0.0459783
0.0379034
0.030599
0.0239525
0.017752
0.0121803
0.00725161
0.0032069
0.00224901
0.00155584
0.00105975
0.00070929
0.000465461
0.000298816
0.000187296
0.000114562
6.87012e-05
4.12392e-05
2.64755e-05
1.96495e-05
1.49207e-05
1.08502e-05
7.44234e-06
4.76695e-06
2.83332e-06
1.56317e-06
8.06147e-07
3.9311e-07
1.85043e-07
8.47475e-08
3.79765e-08
1.67195e-08
7.25471e-09
3.11009e-09
1.31992e-09
5.55452e-10
2.32064e-10
9.63216e-11
3.97016e-11
1.62021e-11
6.48572e-12
2.47893e-12
8.2838e-13
1.45383e-13
0.999997
0.999987
0.999971
0.999944
0.999898
0.999822
0.999697
0.999494
0.999166
0.998643
0.997821
0.996552
0.994627
0.991773
0.987645
0.981839
0.97392
0.96347
0.950143
0.933717
0.914119
0.891443
0.865903
0.837799
0.807498
0.775396
0.7419
0.707408
0.672297
0.636917
0.60158
0.566566
0.532116
0.498436
0.465697
0.434022
0.403512
0.374244
0.346268
0.319615
0.294295
0.270307
0.247633
0.226247
0.206114
0.187195
0.169443
0.152812
0.13725
0.122708
0.109134
0.0964782
0.0846929
0.0737314
0.0635502
0.0541091
0.0453717
0.0373069
0.0300187
0.0233896
0.0172071
0.0116531
0.00674675
0.00313534
0.00219494
0.00151444
0.0010281
0.000685383
0.000447743
0.000286005
0.000178315
0.000108519
6.48914e-05
3.91461e-05
2.57461e-05
1.92773e-05
1.44571e-05
1.0347e-05
6.97758e-06
4.39461e-06
2.57487e-06
1.40768e-06
7.24204e-07
3.54407e-07
1.67957e-07
7.75721e-08
3.507e-08
1.55702e-08
6.80622e-09
2.93581e-09
1.252e-09
5.28777e-10
2.21484e-10
9.20876e-11
3.79981e-11
1.55178e-11
6.21474e-12
2.37609e-12
7.9434e-13
1.39705e-13
0.999997
0.999987
0.99997
0.999943
0.999896
0.999819
0.999691
0.999484
0.999149
0.998616
0.99778
0.996492
0.994544
0.991662
0.987505
0.981672
0.973735
0.963284
0.949979
0.933601
0.914077
0.891482
0.866023
0.837998
0.807765
0.775714
0.742249
0.707763
0.672635
0.637215
0.601826
0.56675
0.532227
0.49846
0.465616
0.433829
0.403207
0.373831
0.345752
0.319004
0.293597
0.269531
0.246788
0.225342
0.205159
0.186199
0.168414
0.151758
0.136179
0.121626
0.108047
0.0953927
0.0836133
0.072662
0.0624946
0.0530699
0.0443507
0.0363043
0.0290318
0.0224367
0.0162837
0.0107439
0.00583241
0.00306828
0.00212868
0.00145603
0.000980176
0.000648092
0.000419963
0.000266115
0.000164636
9.95417e-05
5.93793e-05
3.61879e-05
2.46874e-05
1.85986e-05
1.37781e-05
9.7242e-06
6.46855e-06
4.02547e-06
2.33812e-06
1.27254e-06
6.54409e-07
3.20968e-07
1.52664e-07
7.08145e-08
3.21616e-08
1.43433e-08
6.29617e-09
2.72583e-09
1.16605e-09
4.93688e-10
2.07162e-10
8.62383e-11
3.56103e-11
1.45476e-11
5.82642e-12
2.22728e-12
7.44618e-13
1.3124e-13
0.999997
0.999987
0.99997
0.999942
0.999894
0.999816
0.999687
0.999477
0.999138
0.9986
0.997757
0.996458
0.994498
0.991602
0.987429
0.981583
0.973637
0.963184
0.949887
0.933528
0.914034
0.891476
0.866054
0.838061
0.807853
0.77582
0.742361
0.707869
0.67272
0.637263
0.601816
0.566661
0.532043
0.498172
0.46522
0.433324
0.402594
0.373111
0.344932
0.318088
0.292595
0.268449
0.245636
0.22413
0.203897
0.184895
0.167078
0.150398
0.134804
0.120243
0.106664
0.0940166
0.0822503
0.0713182
0.0611756
0.0517811
0.0430973
0.0350909
0.0279046
0.0213469
0.0152211
0.00971479
0.00486823
0.00296366
0.00202828
0.00137161
0.000914176
0.00059899
0.000384858
0.000241913
0.000148565
8.93297e-05
5.328e-05
3.30034e-05
2.33868e-05
1.76556e-05
1.29407e-05
9.01902e-06
5.92063e-06
3.6383e-06
2.09131e-06
1.13016e-06
5.79136e-07
2.8401e-07
1.353e-07
6.29249e-08
2.86698e-08
1.28307e-08
5.65252e-09
2.45592e-09
1.05416e-09
4.4771e-10
1.8839e-10
7.8611e-11
3.25252e-11
1.33084e-11
5.33629e-12
2.04142e-12
6.82974e-13
1.20729e-13
0.999997
0.999987
0.99997
0.999941
0.999893
0.999814
0.999683
0.999471
0.999129
0.998586
0.997736
0.996428
0.994454
0.991543
0.987352
0.981486
0.973521
0.963053
0.949746
0.933384
0.913893
0.891346
0.865936
0.837955
0.807753
0.775715
0.742238
0.707714
0.672519
0.637002
0.601483
0.566246
0.531539
0.497574
0.464523
0.432527
0.401697
0.372118
0.343846
0.316917
0.291344
0.267128
0.244253
0.222694
0.202417
0.18338
0.165537
0.148841
0.133238
0.118677
0.105105
0.0924721
0.0807277
0.0698244
0.0597179
0.0503675
0.0417366
0.0337943
0.0267044
0.0200522
0.0140137
0.00858551
0.00384102
0.00266264
0.00182463
0.00123343
0.000820711
0.000536307
0.000343391
0.000215008
0.000131565
7.8996e-05
4.73965e-05
3.01213e-05
2.20398e-05
1.66356e-05
1.20914e-05
8.34099e-06
5.41557e-06
3.29364e-06
1.87761e-06
1.00927e-06
5.15899e-07
2.53004e-07
1.20673e-07
5.62233e-08
2.56697e-08
1.15127e-08
5.08238e-09
2.21248e-09
9.5134e-10
4.04671e-10
1.7051e-10
7.12313e-11
2.94993e-11
1.20789e-11
4.84549e-12
1.85399e-12
6.20514e-13
1.10044e-13
0.999997
0.999987
0.999969
0.999941
0.999892
0.999812
0.999681
0.999467
0.999122
0.998576
0.99772
0.996405
0.994422
0.991497
0.987291
0.981406
0.973421
0.96293
0.949601
0.933218
0.913707
0.891139
0.865709
0.837704
0.807475
0.775404
0.741887
0.707314
0.67206
0.636477
0.600884
0.565567
0.530775
0.496721
0.46358
0.431494
0.400575
0.370911
0.342559
0.315556
0.289916
0.265641
0.242715
0.221114
0.200802
0.181741
0.163882
0.147177
0.131575
0.117022
0.103465
0.0908542
0.0791385
0.0682705
0.0582059
0.0489042
0.0403297
0.0325105
0.0254881
0.018911
0.0130006
0.00777166
0.00334313
0.0023428
0.00161645
0.00109693
0.000731095
0.000477743
0.000305529
0.000190954
0.000116689
7.01911e-05
4.26252e-05
2.80794e-05
2.09969e-05
1.57773e-05
1.13632e-05
7.75553e-06
4.97865e-06
2.99529e-06
1.69209e-06
9.03525e-07
4.59905e-07
2.2518e-07
1.07363e-07
5.00467e-08
2.28738e-08
1.02733e-08
4.54263e-09
1.98093e-09
8.53253e-10
3.6355e-10
1.53418e-10
6.41781e-11
2.6609e-11
1.09053e-11
4.37725e-12
1.67532e-12
5.60984e-13
9.9869e-14
0.999997
0.999987
0.999969
0.99994
0.999891
0.999811
0.999679
0.999463
0.999117
0.998567
0.997706
0.996384
0.994392
0.991454
0.987231
0.981326
0.973315
0.962797
0.949437
0.93302
0.913474
0.890869
0.865399
0.837352
0.807077
0.774954
0.74138
0.706745
0.671424
0.635768
0.600098
0.564701
0.529826
0.495689
0.462464
0.430297
0.3993
0.369562
0.341142
0.314076
0.288382
0.264059
0.241094
0.219462
0.199129
0.180053
0.162188
0.145484
0.129891
0.115353
0.101819
0.0892368
0.0775551
0.0667265
0.0567061
0.0474534
0.0389329
0.0312212
0.0242942
0.0178004
0.011979
0.0068564
0.00314519
0.00218845
0.00150121
0.00101362
0.000672427
0.000437439
0.000278539
0.000173399
0.000105683
6.36661e-05
3.91664e-05
2.67555e-05
2.02304e-05
1.50927e-05
1.07618e-05
7.26359e-06
4.60957e-06
2.74383e-06
1.53653e-06
8.15274e-07
4.13286e-07
2.01993e-07
9.62391e-08
4.48605e-08
2.05123e-08
9.21935e-09
4.08031e-09
1.78112e-09
7.67997e-10
3.27565e-10
1.38369e-10
5.79347e-11
2.40388e-11
9.85775e-12
3.95797e-12
1.51498e-12
5.07477e-13
9.07379e-14
0.999997
0.999987
0.999969
0.99994
0.999891
0.99981
0.999677
0.99946
0.999112
0.998559
0.997694
0.996366
0.994364
0.991414
0.987174
0.981247
0.97321
0.962658
0.949261
0.932802
0.913209
0.890555
0.865032
0.836929
0.806594
0.774408
0.740767
0.706061
0.670667
0.634935
0.599187
0.563711
0.528757
0.494542
0.461242
0.429002
0.397937
0.368136
0.339658
0.312542
0.286805
0.262447
0.239454
0.217802
0.197456
0.178376
0.160514
0.143821
0.128243
0.113729
0.100224
0.0876752
0.0760321
0.065246
0.0552716
0.0460672
0.0375962
0.0299452
0.023076
0.0166443
0.0108734
0.00576944
0.00307571
0.00211836
0.00144013
0.000964569
0.000635228
0.000410487
0.000259793
0.000160881
9.77094e-05
5.8919e-05
3.67422e-05
2.59437e-05
1.96507e-05
1.45275e-05
1.025e-05
6.84091e-06
4.29289e-06
2.52936e-06
1.40466e-06
7.40736e-07
3.73937e-07
1.82396e-07
8.68137e-08
4.0453e-08
1.84991e-08
8.31811e-09
3.68383e-09
1.60932e-09
6.94515e-10
2.96485e-10
1.25347e-10
5.25232e-11
2.18078e-11
8.94724e-12
3.5932e-12
1.37534e-12
4.60854e-13
8.28057e-14
0.999997
0.999986
0.999969
0.999939
0.99989
0.999809
0.999675
0.999457
0.999107
0.998552
0.997683
0.996349
0.994338
0.991376
0.987118
0.981168
0.973102
0.962515
0.949075
0.932568
0.912923
0.890211
0.864628
0.83646
0.806057
0.773802
0.740088
0.705308
0.669838
0.634029
0.598204
0.562652
0.527625
0.493338
0.45997
0.427666
0.396542
0.366688
0.338164
0.311009
0.285238
0.260855
0.237844
0.216182
0.195833
0.176756
0.158905
0.142229
0.126675
0.11219
0.0987184
0.0862086
0.0746087
0.0638695
0.0539449
0.0447925
0.036389
0.0288305
0.0220195
0.0156328
0.00990653
0.00489331
0.00298726
0.0020435
0.00138051
0.000919237
0.000602077
0.000387088
0.000243844
0.000150413
9.11515e-05
5.50919e-05
3.48449e-05
2.51712e-05
1.90622e-05
1.3989e-05
9.7831e-06
6.46657e-06
4.01887e-06
2.34725e-06
1.29432e-06
6.78992e-07
3.4154e-07
1.66304e-07
7.90779e-08
3.68318e-08
1.68416e-08
7.57409e-09
3.35549e-09
1.46657e-09
6.33256e-10
2.70491e-10
1.14423e-10
4.79714e-11
1.99268e-11
8.17793e-12
3.28447e-12
1.25699e-12
4.21313e-13
7.6103e-14
0.999997
0.999986
0.999969
0.999939
0.99989
0.999808
0.999674
0.999455
0.999103
0.998545
0.997673
0.996332
0.994313
0.991338
0.987063
0.98109
0.972993
0.962369
0.948885
0.932327
0.912625
0.889852
0.864204
0.835968
0.805494
0.773165
0.739377
0.704522
0.668976
0.633093
0.597195
0.561572
0.526477
0.492125
0.458697
0.426337
0.395164
0.365266
0.336705
0.309518
0.283725
0.259324
0.236304
0.214639
0.194294
0.175228
0.157393
0.140739
0.125213
0.110761
0.0973273
0.08486
0.0733071
0.0626196
0.0527514
0.0436608
0.0353087
0.0278129
0.021032
0.0146881
0.00900559
0.00406621
0.00280586
0.00191673
0.00129338
0.000860274
0.000562805
0.000361401
0.000227405
0.000140188
8.50544e-05
5.1727e-05
3.33184e-05
2.45133e-05
1.85341e-05
1.35183e-05
9.38396e-06
6.15203e-06
3.7919e-06
2.19818e-06
1.20476e-06
6.29141e-07
3.15439e-07
1.53342e-07
7.28393e-08
3.39055e-08
1.54988e-08
6.96964e-09
3.08798e-09
1.34993e-09
5.83064e-10
2.49137e-10
1.05428e-10
4.42148e-11
1.83712e-11
7.54078e-12
3.02847e-12
1.15871e-12
3.88453e-13
7.0562e-14
0.999997
0.999986
0.999969
0.999939
0.999889
0.999807
0.999672
0.999452
0.999099
0.998539
0.997662
0.996316
0.994289
0.991301
0.987009
0.981013
0.972886
0.962224
0.948695
0.932085
0.912326
0.88949
0.863775
0.83547
0.804925
0.772523
0.738662
0.703734
0.668116
0.632162
0.596196
0.560508
0.525351
0.490942
0.45746
0.425053
0.393838
0.363904
0.335314
0.308105
0.282295
0.257885
0.234862
0.2132
0.192864
0.173813
0.155998
0.13937
0.123874
0.109456
0.0960619
0.0836377
0.072132
0.0614957
0.0516832
0.0426532
0.0343706
0.0270382
0.0201512
0.013931
0.00838137
0.00361076
0.0025259
0.00174257
0.00118435
0.000791929
0.000520134
0.000335
0.00021132
0.000130627
7.96127e-05
4.89042e-05
3.21913e-05
2.40356e-05
1.81378e-05
1.31598e-05
9.07696e-06
5.90871e-06
3.61573e-06
2.08234e-06
1.13513e-06
5.90334e-07
2.95075e-07
1.43199e-07
6.79405e-08
3.15988e-08
1.44362e-08
6.48948e-09
2.87467e-09
1.2566e-09
5.42768e-10
2.3194e-10
9.81628e-11
4.1173e-11
1.71088e-11
7.02271e-12
2.81998e-12
1.07852e-12
3.61621e-13
6.60763e-14
0.999997
0.999986
0.999968
0.999939
0.999889
0.999806
0.999671
0.99945
0.999096
0.998533
0.997653
0.996301
0.994265
0.991266
0.986958
0.980938
0.972782
0.962083
0.94851
0.931849
0.912033
0.889136
0.863356
0.834983
0.804369
0.771898
0.737967
0.702969
0.667284
0.631265
0.595236
0.559489
0.524277
0.489817
0.456291
0.423843
0.392594
0.362632
0.334019
0.306794
0.280974
0.25656
0.233538
0.211883
0.19156
0.172526
0.154734
0.138132
0.122667
0.108283
0.0949262
0.0825428
0.0710808
0.0604913
0.0507287
0.0417521
0.0335684
0.0262979
0.0194737
0.0133481
0.00792918
0.00334621
0.0023451
0.00162186
0.00110525
0.000740961
0.000487851
0.00031494
0.000199148
0.000123486
7.56649e-05
4.70122e-05
3.16747e-05
2.38749e-05
1.7969e-05
1.29705e-05
8.88811e-06
5.7449e-06
3.4915e-06
1.99838e-06
1.08377e-06
5.61347e-07
2.79711e-07
1.35486e-07
6.41887e-08
2.98209e-08
1.36125e-08
6.11531e-09
2.70768e-09
1.18323e-09
5.10969e-10
2.18324e-10
9.23926e-11
3.87505e-11
1.61012e-11
6.60832e-12
2.65292e-12
1.01418e-12
3.40062e-13
6.25148e-14
0.999997
0.999986
0.999968
0.999938
0.999888
0.999806
0.99967
0.999448
0.999092
0.998527
0.997644
0.996287
0.994244
0.991233
0.986909
0.980868
0.972684
0.96195
0.948334
0.931625
0.911755
0.8888
0.862958
0.834522
0.803842
0.771306
0.73731
0.702249
0.666502
0.630424
0.594339
0.558539
0.523279
0.488776
0.455211
0.42273
0.391453
0.361468
0.332839
0.305602
0.279777
0.255362
0.232346
0.210701
0.190392
0.171377
0.153607
0.137032
0.121596
0.107245
0.0939229
0.081577
0.0701545
0.0596062
0.0498866
0.0409545
0.0328531
0.025634
0.0188572
0.0127787
0.00741027
0.00320917
0.00224891
0.0015557
0.0010607
0.000711637
0.000469008
0.000303159
0.000192029
0.000119396
7.35247e-05
4.61392e-05
3.16572e-05
2.39935e-05
1.79945e-05
1.29259e-05
8.80895e-06
5.65645e-06
3.4141e-06
1.94229e-06
1.04807e-06
5.40667e-07
2.68541e-07
1.29803e-07
6.13935e-08
2.8484e-08
1.29882e-08
5.82979e-09
2.57949e-09
1.12661e-09
4.86319e-10
2.07726e-10
8.78867e-11
3.68534e-11
1.53101e-11
6.28237e-12
2.52135e-12
9.6344e-13
3.23049e-13
5.97421e-14
0.999997
0.999986
0.999968
0.999938
0.999888
0.999805
0.999668
0.999446
0.999089
0.998522
0.997636
0.996275
0.994224
0.991203
0.986864
0.980803
0.972593
0.961827
0.948172
0.931419
0.911498
0.888489
0.862591
0.834096
0.803358
0.770762
0.736708
0.70159
0.665788
0.629657
0.593524
0.557679
0.522377
0.487837
0.454239
0.421731
0.390431
0.360429
0.331787
0.304544
0.278716
0.254304
0.231294
0.20966
0.189366
0.17037
0.152622
0.136072
0.120664
0.106342
0.0930525
0.08074
0.0693522
0.0588394
0.0491556
0.0402588
0.0321883
0.025004
0.0182571
0.0122013
0.00683266
0.00315886
0.00221082
0.00152824
0.00104171
0.000698993
0.000460916
0.000298207
0.000189172
0.000117903
7.29241e-05
4.61679e-05
3.22146e-05
2.44507e-05
1.82475e-05
1.30289e-05
8.82122e-06
5.62868e-06
3.37642e-06
1.9094e-06
1.02518e-06
5.26735e-07
2.60767e-07
1.25762e-07
5.9373e-08
2.75048e-08
1.25259e-08
5.61648e-09
2.48301e-09
1.08373e-09
4.67555e-10
1.99625e-10
8.44299e-11
3.53938e-11
1.47001e-11
6.03087e-12
2.41979e-12
9.2421e-13
3.09892e-13
5.76325e-14
0.999997
0.999986
0.999968
0.999938
0.999888
0.999804
0.999667
0.999445
0.999086
0.998518
0.997629
0.996263
0.994206
0.991176
0.986824
0.980746
0.972512
0.961717
0.948028
0.931234
0.911269
0.888212
0.862264
0.833717
0.802927
0.770279
0.736173
0.701006
0.665156
0.62898
0.592804
0.556921
0.521584
0.487013
0.453389
0.420858
0.38954
0.359525
0.330875
0.303627
0.277799
0.253391
0.230389
0.208767
0.188487
0.169509
0.151782
0.135254
0.119871
0.105576
0.0923147
0.0800318
0.0686746
0.058193
0.0485412
0.0396783
0.0316408
0.0244892
0.0177693
0.0117353
0.00638695
0.00313427
0.00219448
0.00151778
0.00103534
0.000695361
0.000459033
0.0002974
0.000189005
0.000118119
7.33963e-05
4.6867e-05
3.31795e-05
2.51477e-05
1.86638e-05
1.32448e-05
8.90966e-06
5.64758e-06
3.36724e-06
1.89422e-06
1.01222e-06
5.18038e-07
2.55646e-07
1.2301e-07
5.79633e-08
2.6809e-08
1.21928e-08
5.46104e-09
2.41208e-09
1.05198e-09
4.53584e-10
1.93567e-10
8.18362e-11
3.42971e-11
1.42419e-11
5.8418e-12
2.34331e-12
8.94611e-13
2.99962e-13
5.60738e-14
0.999997
0.999986
0.999968
0.999938
0.999887
0.999804
0.999667
0.999443
0.999084
0.998514
0.997623
0.996253
0.994191
0.991153
0.98679
0.980696
0.972443
0.961622
0.947903
0.931075
0.911072
0.887974
0.861983
0.833392
0.802557
0.769865
0.735716
0.700506
0.664616
0.628403
0.592192
0.556276
0.520911
0.486315
0.45267
0.420121
0.38879
0.358765
0.330108
0.302858
0.277031
0.252628
0.229634
0.208022
0.187756
0.168793
0.151085
0.134577
0.119216
0.104945
0.0917078
0.0794507
0.0681205
0.0576682
0.0480464
0.0392119
0.0312021
0.0240755
0.017379
0.0113671
0.00603895
0.0031131
0.00218406
0.00151354
0.00103445
0.000696149
0.000460529
0.000299065
0.000190572
0.000119491
7.458e-05
4.79292e-05
3.41953e-05
2.5899e-05
1.91401e-05
1.35146e-05
9.04097e-06
5.69798e-06
3.37833e-06
1.89114e-06
1.00654e-06
5.13298e-07
2.5254e-07
1.2125e-07
5.70282e-08
2.63354e-08
1.19617e-08
5.3517e-09
2.36165e-09
1.02923e-09
4.43521e-10
1.89193e-10
7.9963e-11
3.3504e-11
1.39096e-11
5.70431e-12
2.28755e-12
8.72973e-13
2.92695e-13
5.49649e-14
0.999997
0.999986
0.999968
0.999938
0.999887
0.999803
0.999666
0.999442
0.999082
0.998511
0.997618
0.996245
0.994178
0.991134
0.986762
0.980655
0.972386
0.961545
0.947801
0.930945
0.910911
0.887779
0.861753
0.833126
0.802255
0.769527
0.735343
0.700099
0.664177
0.627933
0.591694
0.555754
0.520366
0.485751
0.452088
0.419526
0.388184
0.358152
0.329492
0.30224
0.276415
0.252017
0.22903
0.207427
0.187173
0.168224
0.150531
0.13404
0.118697
0.104445
0.0912295
0.0789948
0.0676878
0.0572574
0.0476553
0.0388391
0.0308518
0.0237457
0.0170688
0.0110755
0.00576412
0.00309522
0.00217742
0.001513
0.00103688
0.000699717
0.000464217
0.000302376
0.000193322
0.000121675
7.62886e-05
4.92996e-05
3.53512e-05
2.67273e-05
1.96713e-05
1.38254e-05
9.203e-06
5.77057e-06
3.40451e-06
1.89722e-06
1.00589e-06
5.11401e-07
2.5093e-07
1.20236e-07
5.64552e-08
2.60335e-08
1.18106e-08
5.27907e-09
2.32784e-09
1.01389e-09
4.36701e-10
1.8621e-10
7.86767e-11
3.29561e-11
1.36789e-11
5.60851e-12
2.24857e-12
8.57787e-13
2.87589e-13
5.4212e-14
0.999997
0.999986
0.999968
0.999938
0.999887
0.999803
0.999665
0.999441
0.999081
0.998508
0.997614
0.996239
0.994169
0.99112
0.98674
0.980624
0.972342
0.961486
0.947724
0.930846
0.910788
0.887631
0.861578
0.832924
0.802026
0.76927
0.73506
0.69979
0.663844
0.627577
0.591318
0.555358
0.519954
0.485324
0.451649
0.419077
0.387728
0.357691
0.329028
0.301776
0.275953
0.251558
0.228577
0.206982
0.186738
0.167799
0.150118
0.133641
0.118312
0.104077
0.0908772
0.0786586
0.0673665
0.0569505
0.0473644
0.0385652
0.0305962
0.0235056
0.0168423
0.0108602
0.00556706
0.00308292
0.00217518
0.00151597
0.00104209
0.000705429
0.000469526
0.000306878
0.000196918
0.000124435
7.83652e-05
5.08744e-05
3.65827e-05
2.75885e-05
2.02233e-05
1.41522e-05
9.37856e-06
5.85441e-06
3.43924e-06
1.90914e-06
1.00877e-06
5.11375e-07
2.50343e-07
1.19755e-07
5.61532e-08
2.58652e-08
1.17232e-08
5.23579e-09
2.3072e-09
1.00434e-09
4.32389e-10
1.84301e-10
7.78457e-11
3.25995e-11
1.35279e-11
5.54548e-12
2.22282e-12
8.47711e-13
2.84195e-13
5.37307e-14
0.999997
0.999986
0.999968
0.999938
0.999887
0.999803
0.999665
0.999441
0.99908
0.998507
0.997611
0.996235
0.994163
0.99111
0.986726
0.980604
0.972313
0.961446
0.947672
0.93078
0.910706
0.887532
0.861461
0.832789
0.801872
0.769098
0.73487
0.699583
0.66362
0.627338
0.591065
0.555093
0.519677
0.485038
0.451355
0.418777
0.387423
0.357383
0.328719
0.301467
0.275645
0.251254
0.228277
0.206688
0.18645
0.167519
0.149846
0.133378
0.11806
0.103834
0.0906442
0.0784354
0.0671544
0.0567504
0.0471762
0.0383887
0.0304321
0.0233518
0.0166969
0.0107209
0.00543903
0.00307446
0.00217614
0.00152142
0.00104912
0.000712436
0.000475723
0.000311973
0.000200897
0.000127429
8.05625e-05
5.24752e-05
3.7754e-05
2.83814e-05
2.07241e-05
1.44469e-05
9.53784e-06
5.93223e-06
3.47317e-06
1.92207e-06
1.01287e-06
5.12271e-07
2.50372e-07
1.1962e-07
5.60316e-08
2.57868e-08
1.16791e-08
5.2129e-09
2.29592e-09
9.99e-10
4.29933e-10
1.83199e-10
7.73609e-11
3.23897e-11
1.34385e-11
5.50798e-12
2.20743e-12
8.41662e-13
2.82154e-13
5.34519e-14
0.999997
0.999986
0.999968
0.999938
0.999887
0.999803
0.999665
0.99944
0.999079
0.998506
0.99761
0.996233
0.99416
0.991106
0.986719
0.980594
0.9723
0.961428
0.947647
0.930748
0.910667
0.887484
0.861405
0.832723
0.801797
0.769014
0.734777
0.699482
0.663511
0.627221
0.590941
0.554962
0.519541
0.484897
0.45121
0.418629
0.387273
0.357231
0.328566
0.301314
0.275493
0.251103
0.228128
0.206541
0.186307
0.16738
0.149711
0.133248
0.117934
0.103713
0.0905293
0.0783266
0.0670519
0.0566543
0.0470864
0.0383051
0.0303552
0.0232803
0.0166293
0.0106553
0.00537617
0.00307021
0.00217926
0.00152752
0.00105589
0.000718732
0.000481065
0.000316243
0.000204164
0.000129843
8.22979e-05
5.36911e-05
3.85722e-05
2.89037e-05
2.10413e-05
1.46286e-05
9.63434e-06
5.9791e-06
3.49379e-06
1.93019e-06
1.01565e-06
5.13035e-07
2.50537e-07
1.19615e-07
5.59972e-08
2.57586e-08
1.16617e-08
5.20339e-09
2.29109e-09
9.96666e-10
4.28845e-10
1.82706e-10
7.71423e-11
3.22946e-11
1.33978e-11
5.49079e-12
2.20034e-12
8.38868e-13
2.8121e-13
5.33251e-14
0.999997
0.999986
0.999968
0.999938
0.999887
0.999803
0.999665
0.99944
0.999079
0.998506
0.99761
0.996233
0.99416
0.991105
0.986719
0.980594
0.972299
0.961427
0.947646
0.930747
0.910666
0.887483
0.861403
0.832722
0.801795
0.769013
0.734775
0.69948
0.663509
0.627219
0.590939
0.55496
0.519539
0.484895
0.451208
0.418627
0.387271
0.35723
0.328564
0.301312
0.275492
0.251102
0.228127
0.20654
0.186306
0.167379
0.14971
0.133247
0.117933
0.103712
0.0905285
0.0783259
0.0670512
0.0566536
0.0470858
0.0383045
0.0303547
0.0232798
0.0166289
0.0106549
0.00537588
0.0030702
0.00217924
0.00152751
0.00105588
0.000718724
0.000481059
0.000316239
0.000204161
0.000129841
8.22966e-05
5.36903e-05
3.85718e-05
2.89033e-05
2.1041e-05
1.46284e-05
9.63417e-06
5.97899e-06
3.49372e-06
1.93015e-06
1.01563e-06
5.13024e-07
2.50532e-07
1.19613e-07
5.59961e-08
2.57581e-08
1.16615e-08
5.20328e-09
2.29105e-09
9.96646e-10
4.28837e-10
1.82703e-10
7.71409e-11
3.2294e-11
1.33975e-11
5.49069e-12
2.2003e-12
8.38853e-13
2.81206e-13
5.33241e-14
0.999997
0.999986
0.999968
0.999938
0.999887
0.999803
0.999665
0.999441
0.99908
0.998507
0.997611
0.996235
0.994163
0.99111
0.986725
0.980603
0.972312
0.961445
0.94767
0.930777
0.910703
0.887529
0.861457
0.832785
0.801867
0.769093
0.734865
0.699578
0.663615
0.627333
0.591059
0.555087
0.519672
0.485032
0.45135
0.418772
0.387418
0.357378
0.328714
0.301462
0.275641
0.25125
0.228273
0.206684
0.186446
0.167515
0.149843
0.133375
0.118057
0.103831
0.0906417
0.0784331
0.0671523
0.0567485
0.0471744
0.038387
0.0304306
0.0233505
0.0166957
0.0107199
0.00543816
0.00307441
0.0021761
0.00152139
0.00104909
0.000712416
0.000475708
0.000311963
0.00020089
0.000127423
8.05588e-05
5.2473e-05
3.77529e-05
2.83806e-05
2.07234e-05
1.44464e-05
9.5374e-06
5.93192e-06
3.47297e-06
1.92195e-06
1.0128e-06
5.12238e-07
2.50356e-07
1.19612e-07
5.6028e-08
2.57851e-08
1.16784e-08
5.21258e-09
2.29578e-09
9.98939e-10
4.29906e-10
1.83188e-10
7.73563e-11
3.23878e-11
1.34377e-11
5.50766e-12
2.2073e-12
8.41613e-13
2.82137e-13
5.34475e-14
0.999997
0.999986
0.999968
0.999938
0.999887
0.999803
0.999665
0.999441
0.999081
0.998508
0.997614
0.996239
0.994169
0.991119
0.986739
0.980623
0.97234
0.961483
0.94772
0.930842
0.910783
0.887625
0.861572
0.832917
0.802018
0.769262
0.735051
0.699781
0.663834
0.627568
0.591308
0.555348
0.519944
0.485314
0.45164
0.419068
0.387719
0.357683
0.32902
0.301768
0.275945
0.251551
0.22857
0.206976
0.186731
0.167793
0.150112
0.133636
0.118308
0.104072
0.0908731
0.0786547
0.0673629
0.0569472
0.0473614
0.0385624
0.0305938
0.0235034
0.0168402
0.0108583
0.00556553
0.00308283
0.00217511
0.00151591
0.00104205
0.0007054
0.000469505
0.000306864
0.000196908
0.000124428
7.83607e-05
5.08719e-05
3.65818e-05
2.75878e-05
2.02226e-05
1.41515e-05
9.378e-06
5.85399e-06
3.43896e-06
1.90897e-06
1.00867e-06
5.11323e-07
2.50317e-07
1.19742e-07
5.61473e-08
2.58624e-08
1.17219e-08
5.23523e-09
2.30696e-09
1.00424e-09
4.32343e-10
1.84282e-10
7.78374e-11
3.2596e-11
1.35265e-11
5.5449e-12
2.22259e-12
8.47623e-13
2.84165e-13
5.37233e-14
0.999997
0.999986
0.999968
0.999938
0.999887
0.999803
0.999666
0.999442
0.999082
0.998511
0.997617
0.996245
0.994178
0.991133
0.98676
0.980653
0.972383
0.961541
0.947797
0.930939
0.910904
0.887771
0.861744
0.833116
0.802244
0.769515
0.735331
0.700086
0.664164
0.62792
0.591681
0.55574
0.520353
0.485737
0.452075
0.419514
0.388172
0.35814
0.32948
0.302229
0.276405
0.252006
0.22902
0.207418
0.187164
0.168216
0.150523
0.134033
0.11869
0.104439
0.0912236
0.0789893
0.0676828
0.0572527
0.047651
0.0388352
0.0308483
0.0237425
0.0170659
0.0110729
0.00576186
0.00309508
0.00217732
0.00151292
0.00103683
0.000699679
0.000464192
0.00030236
0.000193311
0.000121668
7.62842e-05
4.92974e-05
3.53509e-05
2.6727e-05
1.96707e-05
1.38247e-05
9.20238e-06
5.77007e-06
3.40415e-06
1.89699e-06
1.00576e-06
5.11331e-07
2.50894e-07
1.20218e-07
5.64468e-08
2.60296e-08
1.18089e-08
5.27828e-09
2.32749e-09
1.01374e-09
4.36635e-10
1.86182e-10
7.86646e-11
3.2951e-11
1.36768e-11
5.60765e-12
2.24823e-12
8.57655e-13
2.87545e-13
5.42011e-14
0.999997
0.999986
0.999968
0.999938
0.999887
0.999804
0.999667
0.999443
0.999084
0.998514
0.997622
0.996253
0.99419
0.991152
0.986788
0.980693
0.972439
0.961618
0.947897
0.931067
0.911063
0.887964
0.861971
0.833379
0.802543
0.76985
0.7357
0.70049
0.664599
0.628385
0.592174
0.556259
0.520894
0.486298
0.452653
0.420105
0.388774
0.358749
0.330093
0.302843
0.277017
0.252615
0.229621
0.20801
0.187745
0.168783
0.151075
0.134568
0.119207
0.104936
0.0917001
0.0794435
0.068114
0.0576621
0.0480409
0.0392068
0.0311975
0.0240713
0.0173752
0.0113637
0.00603596
0.00311292
0.0021839
0.00151341
0.00103436
0.000696086
0.000460488
0.000299039
0.000190556
0.000119482
7.45748e-05
4.79271e-05
3.41956e-05
2.58991e-05
1.91397e-05
1.35139e-05
9.04029e-06
5.69739e-06
3.37789e-06
1.89085e-06
1.00637e-06
5.13207e-07
2.52492e-07
1.21226e-07
5.70171e-08
2.63303e-08
1.19593e-08
5.35062e-09
2.36117e-09
1.02902e-09
4.43429e-10
1.89153e-10
7.99463e-11
3.34969e-11
1.39067e-11
5.70311e-12
2.28707e-12
8.72789e-13
2.92634e-13
5.49499e-14
0.999997
0.999986
0.999968
0.999938
0.999888
0.999804
0.999667
0.999445
0.999086
0.998517
0.997628
0.996263
0.994205
0.991175
0.986822
0.980743
0.972508
0.961711
0.948021
0.931225
0.911259
0.8882
0.86225
0.833702
0.80291
0.770261
0.736154
0.700985
0.665135
0.628959
0.592783
0.556899
0.521563
0.486992
0.453368
0.420838
0.389521
0.359506
0.330856
0.303609
0.277782
0.253375
0.230374
0.208752
0.188473
0.169495
0.151769
0.135242
0.11986
0.105566
0.0923052
0.0800229
0.0686664
0.0581854
0.0485342
0.0396719
0.031635
0.0244839
0.0177645
0.011731
0.00638321
0.00313395
0.00219421
0.00151756
0.00103516
0.000695224
0.000458939
0.00029734
0.000188968
0.000118098
7.33852e-05
4.68622e-05
3.3179e-05
2.51476e-05
1.86634e-05
1.32441e-05
8.90889e-06
5.6469e-06
3.36672e-06
1.89387e-06
1.01202e-06
5.17924e-07
2.55587e-07
1.22981e-07
5.79491e-08
2.68022e-08
1.21896e-08
5.45961e-09
2.41144e-09
1.0517e-09
4.53461e-10
1.93514e-10
8.18135e-11
3.42876e-11
1.42379e-11
5.84017e-12
2.34265e-12
8.9436e-13
2.99878e-13
5.60541e-14
0.999997
0.999986
0.999968
0.999938
0.999888
0.999805
0.999668
0.999446
0.999089
0.998522
0.997636
0.996274
0.994223
0.991201
0.986861
0.9808
0.972588
0.96182
0.948164
0.931408
0.911486
0.888475
0.862574
0.834078
0.803338
0.770741
0.736685
0.701566
0.665763
0.629632
0.593498
0.557653
0.522352
0.487812
0.454214
0.421707
0.390407
0.360406
0.331765
0.304522
0.278695
0.254285
0.231276
0.209643
0.18935
0.170354
0.152608
0.136058
0.120651
0.10633
0.0930411
0.0807293
0.0693422
0.0588301
0.0491469
0.0402507
0.0321807
0.024997
0.0182508
0.0121956
0.00682741
0.00315857
0.00221062
0.00152806
0.00104153
0.000698846
0.000460803
0.000298128
0.000189121
0.000117873
7.29075e-05
4.61609e-05
3.22141e-05
2.44504e-05
1.82467e-05
1.30279e-05
8.82017e-06
5.62777e-06
3.37576e-06
1.90897e-06
1.02492e-06
5.26592e-07
2.60692e-07
1.25725e-07
5.93545e-08
2.7496e-08
1.25218e-08
5.6146e-09
2.48217e-09
1.08336e-09
4.67393e-10
1.99555e-10
8.43998e-11
3.5381e-11
1.46948e-11
6.02868e-12
2.41891e-12
9.23873e-13
3.0978e-13
5.76069e-14
0.999997
0.999986
0.999968
0.999938
0.999888
0.999806
0.999669
0.999448
0.999092
0.998527
0.997644
0.996286
0.994242
0.991231
0.986906
0.980864
0.972678
0.961942
0.948325
0.931613
0.911741
0.888783
0.862939
0.8345
0.803819
0.771281
0.737283
0.702221
0.666473
0.630394
0.594309
0.55851
0.52325
0.488747
0.455182
0.422702
0.391425
0.361441
0.332813
0.305577
0.279753
0.25534
0.232324
0.21068
0.190372
0.171358
0.15359
0.137015
0.12158
0.10723
0.0939097
0.0815646
0.070143
0.0595956
0.0498768
0.0409456
0.0328447
0.0256264
0.0188502
0.0127722
0.00740348
0.00320812
0.00224825
0.00155522
0.00106032
0.000711343
0.000468794
0.000303012
0.000191934
0.000119337
7.34906e-05
4.6121e-05
3.16501e-05
2.39897e-05
1.79914e-05
1.29233e-05
8.80695e-06
5.65503e-06
3.41313e-06
1.94168e-06
1.04772e-06
5.40474e-07
2.68441e-07
1.29753e-07
6.13691e-08
2.84724e-08
1.29828e-08
5.82732e-09
2.57838e-09
1.12612e-09
4.86104e-10
2.07633e-10
8.7847e-11
3.68365e-11
1.5303e-11
6.27945e-12
2.52017e-12
9.62991e-13
3.22899e-13
5.97091e-14
0.999997
0.999986
0.999968
0.999939
0.999889
0.999806
0.999671
0.99945
0.999095
0.998532
0.997652
0.9963
0.994264
0.991264
0.986954
0.980934
0.972776
0.962075
0.948499
0.931836
0.912017
0.889117
0.863334
0.834959
0.804342
0.771869
0.737936
0.702938
0.667251
0.631231
0.595202
0.559455
0.524243
0.489784
0.456257
0.423811
0.392562
0.362601
0.333989
0.306765
0.280946
0.256534
0.233513
0.21186
0.191538
0.172505
0.154714
0.138113
0.122649
0.108267
0.0949111
0.0825288
0.0710679
0.0604794
0.0507178
0.0417422
0.0335598
0.0262903
0.0194672
0.0133426
0.00792465
0.00334422
0.00234377
0.00162092
0.00110456
0.000740465
0.000487507
0.000314712
0.000199002
0.000123397
7.5613e-05
4.69842e-05
3.16615e-05
2.3867e-05
1.79631e-05
1.29662e-05
8.88504e-06
5.74273e-06
3.49008e-06
1.99751e-06
1.08328e-06
5.61082e-07
2.79575e-07
1.35418e-07
6.41557e-08
2.98053e-08
1.36052e-08
6.112e-09
2.7062e-09
1.18257e-09
5.10683e-10
2.182e-10