/*--------------------------------*- C++ -*----------------------------------*\
  =========                 |
  \\      /  F ield         | OpenFOAM: The Open Source CFD Toolbox
   \\    /   O peration     | Website:  https://openfoam.org
    \\  /    A nd           | Version:  8
     \\/     M anipulation  |
\*---------------------------------------------------------------------------*/
FoamFile
{
    version     2.0;
    format      ascii;
    class       volScalarField;
    location    "340/fluid";
    object      CO2;
}
// * * * * * * * * * * * * * * * * * * * * * * * * * * * * * * * * * * * * * //

dimensions      [0 0 0 0 0 0 0];

internalField   nonuniform List<scalar> 
4000
(
4.25778e-07
1.85977e-06
4.26746e-06
8.29483e-06
1.49999e-05
2.60984e-05
4.43408e-05
7.40747e-05
0.00012206
0.000198604
0.000319049
0.000505585
0.000789178
0.00121116
0.00182369
0.00268818
0.00387074
0.00543487
0.00743254
0.00989633
0.0128354
0.016237
0.0200682
0.0242809
0.0288184
0.03362
0.0386247
0.043773
0.0490094
0.0542825
0.0595462
0.0647599
0.0698886
0.0749027
0.0797787
0.0844969
0.0890416
0.0934016
0.0975691
0.10154
0.105311
0.108884
0.11226
0.115442
0.118434
0.121241
0.123868
0.12632
0.128602
0.130717
0.132668
0.134456
0.136081
0.137538
0.13882
0.139914
0.140801
0.141453
0.141826
0.141879
0.141536
0.140693
0.139215
0.136522
0.12581
0.114952
0.104118
0.0934425
0.0830333
0.0729773
0.0633471
0.0542046
0.0456055
0.0376028
0.0302855
0.0236359
0.0177642
0.0127376
0.00862042
0.00545055
0.00319915
0.0017436
0.000888716
0.000428566
0.000199651
9.05673e-05
4.02305e-05
1.75711e-05
7.56923e-06
3.22379e-06
1.36017e-06
5.69393e-07
2.36781e-07
9.78775e-08
4.01996e-08
1.63559e-08
6.53119e-09
2.49163e-09
8.31583e-10
1.45857e-10
4.30792e-07
1.88255e-06
4.32346e-06
8.41345e-06
1.52346e-05
2.65426e-05
4.51504e-05
7.54981e-05
0.000124472
0.000202529
0.000325165
0.000514659
0.000801907
0.0012279
0.00184408
0.00271078
0.00389284
0.00545267
0.00744187
0.00989381
0.012819
0.0162035
0.0200156
0.0242103
0.0287331
0.0335247
0.0385245
0.0436733
0.0489145
0.0541964
0.0594721
0.0647001
0.0698443
0.074874
0.0797639
0.0844952
0.0890529
0.0934253
0.0976045
0.101586
0.105367
0.108948
0.11233
0.115518
0.118515
0.121326
0.123955
0.126409
0.128691
0.130806
0.132757
0.134544
0.136167
0.137622
0.138901
0.139993
0.140878
0.14153
0.141902
0.141954
0.141607
0.140755
0.139244
0.135339
0.12456
0.11365
0.102775
0.0920664
0.0816316
0.0715583
0.06192
0.052781
0.0441996
0.0362328
0.0289553
0.0223933
0.0166418
0.0117713
0.00784325
0.00488026
0.00282512
0.0015265
0.000776686
0.000376207
0.000176635
8.08984e-05
3.62989e-05
1.60071e-05
6.95496e-06
2.98382e-06
1.2664e-06
5.32612e-07
2.22276e-07
9.21286e-08
3.79159e-08
1.54518e-08
6.17842e-09
2.35961e-09
7.88336e-10
1.38616e-10
4.38351e-07
1.91616e-06
4.40311e-06
8.57441e-06
1.5537e-05
2.70855e-05
4.6091e-05
7.70754e-05
0.000127033
0.000206551
0.000331259
0.000523542
0.000814317
0.00124443
0.00186498
0.00273562
0.00392029
0.00548032
0.00746633
0.00991107
0.0128254
0.016198
0.0199981
0.0241811
0.0286939
0.0334779
0.0384734
0.0436213
0.0488653
0.054153
0.0594366
0.064674
0.0698294
0.0748723
0.0797779
0.0845258
0.0891001
0.0934884
0.0976826
0.101678
0.105471
0.109064
0.112456
0.115652
0.118656
0.121471
0.124105
0.126561
0.128844
0.130959
0.132907
0.134692
0.136311
0.137761
0.139035
0.140122
0.141002
0.141651
0.142025
0.142084
0.14176
0.140956
0.139544
0.133256
0.122463
0.111529
0.100633
0.0899128
0.0794813
0.0694293
0.0598332
0.05076
0.0422714
0.0344314
0.0272893
0.020917
0.0153863
0.0107615
0.00708939
0.00436737
0.00251078
0.00135274
0.000688887
0.000334756
0.000157851
7.26386e-05
3.27495e-05
1.45085e-05
6.3304e-06
2.7259e-06
1.16051e-06
4.89289e-07
2.04578e-07
8.49054e-08
3.49738e-08
1.42605e-08
5.70374e-09
2.17856e-09
7.28039e-10
1.28306e-10
4.44743e-07
1.9441e-06
4.46737e-06
8.69936e-06
1.57619e-05
2.74717e-05
4.67311e-05
7.81039e-05
0.000128637
0.000208977
0.000334814
0.000528579
0.000821196
0.00125344
0.00187623
0.0027489
0.00393496
0.00549527
0.00748008
0.00992197
0.0128319
0.016199
0.0199937
0.0241722
0.0286813
0.0334629
0.0384576
0.0436067
0.0488542
0.0541479
0.0594406
0.0646901
0.0698596
0.0749181
0.0798397
0.0846039
0.0891942
0.0935982
0.0978074
0.101816
0.105623
0.109226
0.112628
0.115833
0.118843
0.121663
0.1243
0.126757
0.12904
0.131153
0.133098
0.134876
0.136488
0.137928
0.13919
0.140261
0.141123
0.141751
0.1421
0.142139
0.141795
0.140973
0.13955
0.13078
0.119986
0.109035
0.0981267
0.0874139
0.0770132
0.0670178
0.057505
0.0485421
0.0401909
0.0325387
0.0255856
0.0194323
0.0141431
0.00977396
0.00635717
0.00386853
0.00220144
0.00117787
0.000597776
0.000290474
0.000137207
6.33147e-05
2.86428e-05
1.27364e-05
5.57866e-06
2.41139e-06
1.03037e-06
4.35882e-07
1.82796e-07
7.60628e-08
3.14001e-08
1.28261e-08
5.13692e-09
1.96382e-09
6.56835e-10
1.16105e-10
4.49954e-07
1.96682e-06
4.51934e-06
8.79995e-06
1.59425e-05
2.77822e-05
4.72488e-05
7.89455e-05
0.000129972
0.000211045
0.000337931
0.00053314
0.000827654
0.00126226
0.00188778
0.00276336
0.00395221
0.00551484
0.00750116
0.00994355
0.012853
0.0162188
0.0200117
0.0241887
0.0286972
0.0334799
0.0384775
0.0436316
0.0488863
0.0541891
0.0594927
0.0647544
0.0699373
0.0750099
0.0799463
0.0847255
0.0893306
0.0937489
0.0979716
0.101993
0.105811
0.109424
0.112835
0.116046
0.119061
0.121886
0.124524
0.126981
0.129263
0.131371
0.13331
0.135079
0.136678
0.138102
0.139343
0.140386
0.141212
0.141793
0.142084
0.142053
0.141628
0.14073
0.139298
0.128595
0.117593
0.106523
0.0955638
0.0848502
0.07449
0.0645706
0.0551653
0.0463385
0.0381497
0.0306925
0.0239492
0.0180282
0.012987
0.00887291
0.00570317
0.0034328
0.00193673
0.00103056
0.000521721
0.000253556
0.000119935
5.54579e-05
2.51471e-05
1.12089e-05
4.92099e-06
2.13174e-06
9.12682e-07
3.8678e-07
1.62455e-07
6.76877e-08
2.79733e-08
1.14362e-08
4.58291e-09
1.75252e-09
5.86435e-10
1.04002e-10
4.54028e-07
1.98452e-06
4.55962e-06
8.87733e-06
1.60803e-05
2.80172e-05
4.76377e-05
7.95736e-05
0.000130964
0.000212575
0.000340238
0.000536532
0.000832507
0.001269
0.00189687
0.00277522
0.00396717
0.00553309
0.00752274
0.00996838
0.0128809
0.0162498
0.020046
0.0242265
0.0287393
0.0335271
0.038531
0.0436926
0.0489561
0.054269
0.0595837
0.0648575
0.0700533
0.0751393
0.0800893
0.084882
0.0895003
0.0939313
0.0981657
0.102198
0.106025
0.109647
0.113064
0.116281
0.1193
0.122126
0.124764
0.12722
0.129497
0.1316
0.13353
0.135289
0.136872
0.138276
0.13949
0.140496
0.141272
0.141775
0.141959
0.141758
0.141063
0.139727
0.137577
0.126468
0.115234
0.104045
0.0930428
0.0823429
0.07204
0.0622135
0.0529314
0.0442545
0.0362398
0.0289585
0.0224315
0.016741
0.0119394
0.00806611
0.00512429
0.00305071
0.00170569
0.000901805
0.00045477
0.000220748
0.000104422
4.83286e-05
2.19462e-05
9.79964e-06
4.31081e-06
1.87123e-06
8.02766e-07
3.40851e-07
1.43416e-07
5.98485e-08
2.47664e-08
1.01359e-08
4.06466e-09
1.55495e-09
5.206e-10
9.26837e-11
4.57362e-07
1.99902e-06
4.59264e-06
8.94091e-06
1.61939e-05
2.82119e-05
4.79624e-05
8.01034e-05
0.000131811
0.000213904
0.000342279
0.000539598
0.000837002
0.00127542
0.00190578
0.00278724
0.00398288
0.00555301
0.0075473
0.00999794
0.0129158
0.0162902
0.0200924
0.0242794
0.0287992
0.0335948
0.0386073
0.0437784
0.0490521
0.054376
0.0597024
0.0649884
0.0701966
0.0752952
0.0802577
0.0850626
0.0896926
0.0941345
0.0983789
0.10242
0.106255
0.109883
0.113305
0.116525
0.119546
0.122372
0.125009
0.127462
0.129734
0.13183
0.133751
0.135498
0.137067
0.138452
0.139643
0.140621
0.141359
0.141812
0.141934
0.141647
0.140831
0.139319
0.135228
0.124046
0.112764
0.101564
0.0905854
0.0799403
0.0697208
0.0600033
0.0508536
0.0423305
0.0344898
0.0273812
0.0210613
0.0155883
0.0110105
0.00735931
0.0046242
0.00272534
0.00151144
0.000794562
0.000399297
0.000193589
9.15579e-05
4.23938e-05
1.92674e-05
8.61286e-06
3.79341e-06
1.64877e-06
7.08253e-07
3.01102e-07
1.26842e-07
5.29888e-08
2.19479e-08
8.98878e-09
3.60612e-09
1.37975e-09
4.62132e-10
8.26349e-11
4.6018e-07
2.01128e-06
4.62059e-06
8.99475e-06
1.62902e-05
2.83774e-05
4.82392e-05
8.0557e-05
0.000132541
0.000215059
0.000344073
0.000542329
0.000841075
0.00128136
0.00191423
0.00279893
0.00399863
0.00557363
0.00757357
0.0100305
0.0129553
0.0163372
0.0201473
0.0243428
0.0288716
0.0336768
0.0386994
0.0438812
0.049166
0.0545014
0.0598396
0.0651375
0.0703576
0.0754679
0.0804417
0.0852575
0.0898976
0.0943487
0.0986014
0.10265
0.10649
0.110123
0.113548
0.11677
0.119791
0.122616
0.12525
0.127698
0.129964
0.132052
0.133963
0.135698
0.137254
0.138624
0.139797
0.140757
0.141476
0.141912
0.142024
0.141743
0.14097
0.139577
0.132673
0.121559
0.11033
0.0991823
0.0882671
0.0777014
0.0675788
0.0579758
0.0489573
0.0405811
0.0329162
0.0259798
0.0198478
0.0145731
0.0101988
0.00674798
0.00419658
0.00245014
0.00134849
0.000704994
0.000353003
0.000170883
8.07702e-05
3.73991e-05
1.70047e-05
7.60683e-06
3.35336e-06
1.459e-06
6.2741e-07
2.67021e-07
1.12601e-07
4.7084e-08
1.95179e-08
7.99845e-09
3.20985e-09
1.22821e-09
4.11525e-10
7.39479e-11
4.62664e-07
2.0221e-06
4.64528e-06
9.04245e-06
1.63759e-05
2.85252e-05
4.8488e-05
8.09677e-05
0.000133208
0.000216125
0.000345748
0.000544914
0.000844988
0.00128715
0.00192259
0.00281071
0.00401475
0.00559507
0.00760128
0.0100654
0.012998
0.0163885
0.0202078
0.024413
0.0289519
0.0337677
0.0388012
0.0439942
0.0492904
0.0546374
0.0599871
0.0652964
0.0705276
0.0756486
0.0806327
0.0854579
0.0901067
0.0945655
0.0988248
0.102879
0.106723
0.110359
0.113786
0.117007
0.120027
0.122849
0.125479
0.127921
0.130179
0.132258
0.134158
0.135879
0.13742
0.138773
0.139927
0.140865
0.141562
0.141974
0.142065
0.141765
0.140972
0.139557
0.130419
0.119331
0.108133
0.0970282
0.0861716
0.0756817
0.0656515
0.0561567
0.047261
0.039021
0.0315159
0.0247385
0.0187786
0.0136846
0.00949468
0.00622329
0.00383396
0.0022195
0.00121323
0.000631144
0.000314971
0.000152244
7.19073e-05
3.3288e-05
1.51375e-05
6.77415e-06
2.98797e-06
1.30091e-06
5.5985e-07
2.38455e-07
1.00632e-07
4.21091e-08
1.74662e-08
7.1608e-09
2.87422e-09
1.09973e-09
3.68595e-10
6.65863e-11
4.64909e-07
2.03188e-06
4.66765e-06
9.08575e-06
1.64539e-05
2.86603e-05
4.87161e-05
8.13465e-05
0.000133827
0.000217121
0.000347326
0.000547373
0.000848746
0.00129278
0.00193081
0.0028224
0.00403093
0.00561682
0.00762965
0.0101014
0.0130425
0.0164422
0.0202713
0.0244867
0.0290363
0.033863
0.0389077
0.0441119
0.0494195
0.0547777
0.0601383
0.0654582
0.0706997
0.0758304
0.0808234
0.0856568
0.0903128
0.0947779
0.0990423
0.1031
0.106948
0.110584
0.114012
0.117232
0.120248
0.123067
0.125691
0.128126
0.130375
0.132443
0.134329
0.136035
0.137557
0.138888
0.140017
0.140925
0.141589
0.141965
0.142021
0.141693
0.140898
0.139555
0.128687
0.117503
0.106263
0.0951582
0.0843341
0.0739024
0.0639514
0.0545527
0.0457672
0.0376489
0.0302751
0.0236394
0.0178382
0.0129109
0.00888774
0.00577615
0.00352853
0.00202728
0.00110144
0.000570423
0.000283781
0.000136965
6.46369e-05
2.99107e-05
1.36008e-05
6.08749e-06
2.68601e-06
1.16999e-06
5.03786e-07
2.14703e-07
9.06627e-08
3.79585e-08
1.5752e-08
6.46028e-09
2.59334e-09
9.92107e-10
3.32619e-10
6.04268e-11
4.6697e-07
2.04087e-06
4.68823e-06
9.12567e-06
1.65259e-05
2.87855e-05
4.89286e-05
8.17006e-05
0.000134409
0.000218063
0.000348828
0.000549728
0.000852369
0.00129824
0.00193884
0.00283391
0.00404695
0.00563846
0.00765802
0.0101375
0.0130873
0.0164963
0.0203353
0.0245611
0.0291214
0.033959
0.0390146
0.0442298
0.0495482
0.0549169
0.0602878
0.0656174
0.0708681
0.0760073
0.081008
0.0858484
0.0905104
0.0949804
0.0992487
0.103309
0.107158
0.110795
0.114221
0.117439
0.120452
0.123266
0.125883
0.12831
0.130549
0.132605
0.134477
0.136165
0.137665
0.138969
0.140063
0.140927
0.141532
0.141829
0.141781
0.141303
0.140293
0.138646
0.127405
0.116018
0.10468
0.0935439
0.082734
0.0723482
0.0624663
0.0531544
0.0444692
0.0364614
0.0291936
0.0226948
0.0170286
0.0122449
0.00837014
0.00539932
0.00327385
0.00186846
0.00100971
0.000520819
0.000258359
0.000124517
5.87096e-05
2.7154e-05
1.23445e-05
5.52514e-06
2.43826e-06
1.06238e-06
4.57618e-07
1.95109e-07
8.2425e-08
3.4524e-08
1.43319e-08
5.8793e-09
2.36023e-09
9.02724e-10
3.02722e-10
5.53223e-11
4.68869e-07
2.04915e-06
4.70722e-06
9.16255e-06
1.65926e-05
2.89016e-05
4.91262e-05
8.20313e-05
0.000134954
0.000218949
0.000350247
0.000551963
0.000855823
0.00130346
0.00194656
0.00284501
0.00406246
0.00565949
0.00768566
0.0101727
0.013131
0.0165492
0.0203979
0.0246338
0.0292044
0.0340524
0.0391185
0.044344
0.0496724
0.0550509
0.060431
0.0657694
0.0710282
0.0761748
0.0811822
0.0860283
0.0906951
0.0951689
0.0994399
0.103502
0.107352
0.110988
0.114412
0.117627
0.120636
0.123444
0.126055
0.128473
0.130702
0.132746
0.134603
0.136274
0.137753
0.13903
0.14009
0.14091
0.141452
0.141668
0.141501
0.140847
0.139567
0.137498
0.126103
0.114624
0.103243
0.0921043
0.0813213
0.0709855
0.0611721
0.0519441
0.0433574
0.0354646
0.0283232
0.0219624
0.0164149
0.0117246
0.00795052
0.00508908
0.00306462
0.00173849
0.000934893
0.000480452
0.000237692
0.000114393
5.38851e-05
2.49077e-05
1.13195e-05
5.0657e-06
2.23558e-06
9.74219e-07
4.19745e-07
1.79016e-07
7.56506e-08
3.16964e-08
1.31616e-08
5.40019e-09
2.16789e-09
8.2895e-10
2.78027e-10
5.11203e-11
4.70606e-07
2.05674e-06
4.72461e-06
9.19638e-06
1.66539e-05
2.90086e-05
4.93086e-05
8.23371e-05
0.00013546
0.000219773
0.000351571
0.000554053
0.000859064
0.00130838
0.00195384
0.0028555
0.00407715
0.00567943
0.00771189
0.0102062
0.0131725
0.0165995
0.0204574
0.0247027
0.0292831
0.0341408
0.0392165
0.0444514
0.0497889
0.0551762
0.0605645
0.0659106
0.0711764
0.0763293
0.0813422
0.086193
0.0908636
0.0953401
0.099613
0.103676
0.107525
0.11116
0.114582
0.117794
0.120799
0.123601
0.126205
0.128615
0.130835
0.132868
0.134713
0.136369
0.137831
0.139089
0.140126
0.140919
0.141429
0.141609
0.141399
0.140695
0.139358
0.136289
0.124831
0.113324
0.101943
0.0908259
0.080083
0.0698027
0.060058
0.0509111
0.0424164
0.0346223
0.027566
0.0212817
0.0158419
0.0112864
0.00762207
0.00484131
0.00289346
0.00163204
0.000873787
0.000447555
0.000220872
0.000106156
4.99599e-05
2.30793e-05
1.04847e-05
4.69125e-06
2.07025e-06
9.02235e-07
3.88792e-07
1.6585e-07
7.01041e-08
2.93797e-08
1.22022e-08
5.00724e-09
2.01013e-09
7.68445e-10
2.57771e-10
4.7681e-11
4.72173e-07
2.06358e-06
4.74031e-06
9.22694e-06
1.67094e-05
2.91055e-05
4.94741e-05
8.26151e-05
0.00013592
0.000220525
0.00035278
0.000555968
0.000862036
0.00131289
0.00196054
0.00286517
0.0040907
0.00569782
0.0077361
0.0102371
0.0132109
0.0166458
0.0205121
0.0247662
0.0293553
0.0342218
0.0393062
0.0445495
0.0498951
0.05529
0.0606855
0.0660382
0.0713099
0.0764681
0.0814855
0.0863399
0.0910134
0.0954919
0.0997658
0.103829
0.107677
0.111311
0.11473
0.117938
0.120938
0.123735
0.126333
0.128736
0.130948
0.132971
0.134806
0.136451
0.137901
0.139147
0.140172
0.140955
0.141458
0.141639
0.141447
0.140788
0.139552
0.135066
0.123623
0.112137
0.100787
0.089711
0.0790202
0.0688006
0.0591236
0.050049
0.0416196
0.0338843
0.0268851
0.0206854
0.0153329
0.0108649
0.00730233
0.00462857
0.00275234
0.00154406
0.000823482
0.000420627
0.000207155
9.94531e-05
4.67687e-05
2.15937e-05
9.80649e-06
4.38699e-06
1.93586e-06
8.43706e-07
3.63614e-07
1.55137e-07
6.55889e-08
2.74932e-08
1.14209e-08
4.68743e-09
1.88183e-09
7.1924e-10
2.41298e-10
4.48881e-11
4.73555e-07
2.06961e-06
4.75416e-06
9.25392e-06
1.67583e-05
2.91911e-05
4.96206e-05
8.28615e-05
0.000136329
0.000221193
0.000353857
0.000557673
0.000864687
0.00131693
0.00196652
0.00287381
0.00410281
0.00571428
0.00775775
0.0102647
0.0132451
0.0166872
0.020561
0.0248227
0.0294196
0.0342937
0.0393857
0.0446363
0.0499889
0.0553903
0.0607919
0.0661501
0.0714267
0.076589
0.08161
0.0864672
0.0911427
0.0956224
0.0998968
0.103959
0.107807
0.111438
0.114855
0.11806
0.121055
0.123847
0.126439
0.128835
0.13104
0.133055
0.134881
0.136517
0.137958
0.139193
0.14021
0.140985
0.141482
0.141663
0.141476
0.140833
0.13962
0.133992
0.122563
0.111103
0.0997912
0.0887618
0.0781164
0.067942
0.0583086
0.049274
0.0408979
0.0332269
0.0263044
0.0201825
0.0149092
0.0105215
0.00703868
0.00443852
0.00263482
0.00147307
0.000782666
0.000398755
0.000196053
9.40379e-05
4.41941e-05
2.0396e-05
9.25999e-06
4.14189e-06
1.82763e-06
7.96567e-07
3.43337e-07
1.4651e-07
6.19536e-08
2.59756e-08
1.07932e-08
4.43069e-09
1.77884e-09
6.79739e-10
2.28075e-10
4.26493e-11
4.74733e-07
2.07475e-06
4.76597e-06
9.27694e-06
1.68001e-05
2.92643e-05
4.97459e-05
8.30724e-05
0.000136679
0.000221766
0.000354781
0.000559138
0.000866967
0.0013204
0.00197168
0.00288125
0.00411324
0.00572844
0.00777639
0.0102885
0.0132746
0.0167228
0.020603
0.0248712
0.0294746
0.0343553
0.0394536
0.0447103
0.0500687
0.0554755
0.060882
0.0662446
0.0715251
0.0766907
0.0817143
0.0865736
0.0912503
0.0957307
0.100005
0.104067
0.107913
0.111542
0.114956
0.118157
0.121149
0.123936
0.126522
0.128913
0.13111
0.133118
0.134936
0.136564
0.137995
0.139222
0.14023
0.140997
0.141488
0.141664
0.141476
0.140835
0.13963
0.133112
0.121682
0.110238
0.098949
0.0879428
0.0773305
0.0671963
0.0576098
0.0486299
0.0403092
0.0326959
0.0258338
0.0197752
0.0145671
0.0102457
0.00682792
0.00428772
0.00253424
0.00141547
0.000750754
0.000381563
0.000187274
8.9755e-05
4.21582e-05
1.94491e-05
8.82798e-06
3.94817e-06
1.7421e-06
7.59331e-07
3.27334e-07
1.39711e-07
5.90944e-08
2.47832e-08
1.03e-08
4.22889e-09
1.69787e-09
6.48679e-10
2.17674e-10
4.08916e-11
4.75692e-07
2.07894e-06
4.7756e-06
9.2957e-06
1.68342e-05
2.9324e-05
4.98481e-05
8.32446e-05
0.000136965
0.000222235
0.000355537
0.000560337
0.000868833
0.00132324
0.00197589
0.00288735
0.00412178
0.00574004
0.00779165
0.010308
0.0132987
0.0167519
0.0206372
0.0249108
0.0295195
0.0344055
0.0395089
0.0447705
0.0501335
0.0555445
0.0609549
0.0663208
0.0716042
0.0767722
0.0817976
0.0866581
0.0913356
0.0958161
0.10009
0.104151
0.107995
0.111623
0.115034
0.118232
0.12122
0.124002
0.126584
0.128968
0.13116
0.133161
0.134971
0.136591
0.138014
0.139233
0.140232
0.140991
0.141475
0.141647
0.141456
0.140819
0.139625
0.13241
0.120976
0.109541
0.0982671
0.0872878
0.076707
0.0666084
0.0570609
0.048123
0.0398465
0.0322794
0.0254651
0.0194566
0.0143003
0.0100314
0.00666502
0.00417195
0.00245778
0.00136831
0.000725321
0.000368408
0.000180568
8.64725e-05
4.05954e-05
1.87225e-05
8.49697e-06
3.80004e-06
1.67686e-06
7.31006e-07
3.15182e-07
1.34551e-07
5.6923e-08
2.38771e-08
9.92504e-09
4.07539e-09
1.63626e-09
6.25036e-10
2.09755e-10
3.95555e-11
4.7642e-07
2.08212e-06
4.7829e-06
9.30993e-06
1.68601e-05
2.93694e-05
4.99257e-05
8.33754e-05
0.000137182
0.000222591
0.000356111
0.000561249
0.000870252
0.0013254
0.00197911
0.00289199
0.00412829
0.00574888
0.00780327
0.0103228
0.013317
0.016774
0.0206633
0.0249409
0.0295537
0.0344436
0.0395508
0.044816
0.0501824
0.0555966
0.0610097
0.0663781
0.0716634
0.076833
0.0818595
0.0867206
0.0913983
0.0958787
0.100152
0.104212
0.108055
0.11168
0.115089
0.118284
0.121268
0.124047
0.126624
0.129003
0.131189
0.133184
0.134988
0.136601
0.138016
0.139227
0.140219
0.140971
0.141449
0.141616
0.141425
0.140792
0.139615
0.131891
0.120446
0.109013
0.0977532
0.0867946
0.0762388
0.0661683
0.0566512
0.0477455
0.0395027
0.0319704
0.0251922
0.0192213
0.0141037
0.00987396
0.00654586
0.00408772
0.00240254
0.00133457
0.000705876
0.000358371
0.000175653
8.40924e-05
3.94691e-05
1.82002e-05
8.25922e-06
3.6937e-06
1.63002e-06
7.10651e-07
3.06442e-07
1.30838e-07
5.53599e-08
2.32245e-08
9.65491e-09
3.96479e-09
1.59186e-09
6.07994e-10
2.04045e-10
3.85936e-11
4.76908e-07
2.08425e-06
4.78779e-06
9.31946e-06
1.68774e-05
2.93996e-05
4.99775e-05
8.34627e-05
0.000137327
0.000222828
0.000356495
0.000561857
0.000871199
0.00132684
0.00198125
0.00289509
0.00413263
0.00575479
0.00781105
0.0103327
0.0133293
0.0167888
0.0206808
0.0249611
0.0295765
0.0344691
0.0395789
0.0448465
0.0502152
0.0556314
0.0610463
0.0664162
0.0717027
0.0768731
0.0819001
0.0867613
0.0914389
0.0959188
0.100191
0.10425
0.108092
0.111716
0.115123
0.118315
0.121297
0.124072
0.126645
0.129021
0.131202
0.133192
0.134991
0.136597
0.138007
0.139211
0.140196
0.140942
0.141414
0.141579
0.141389
0.140763
0.139604
0.131549
0.120089
0.108655
0.097404
0.0864599
0.075922
0.0658716
0.056376
0.0474928
0.0392732
0.0317649
0.0250112
0.0190656
0.013974
0.00977051
0.0064679
0.0040329
0.00236679
0.00131285
0.000693443
0.00035155
0.00017223
8.24847e-05
3.87214e-05
1.78578e-05
8.10468e-06
3.6249e-06
1.59979e-06
6.9753e-07
3.00811e-07
1.28445e-07
5.43524e-08
2.28038e-08
9.48066e-09
3.89341e-09
1.56319e-09
5.96988e-10
2.00356e-10
3.79727e-11
4.77152e-07
2.08531e-06
4.79022e-06
9.32418e-06
1.68859e-05
2.94145e-05
5.00029e-05
8.35052e-05
0.000137397
0.000222943
0.000356679
0.00056215
0.000871653
0.00132753
0.00198227
0.00289657
0.00413472
0.00575762
0.00781478
0.0103375
0.0133353
0.016796
0.0206893
0.0249709
0.0295877
0.0344815
0.0395926
0.0448615
0.0502312
0.0556484
0.0610642
0.0664348
0.071722
0.0768927
0.0819199
0.0867811
0.0914582
0.0959377
0.10021
0.104268
0.108109
0.111732
0.115137
0.118328
0.121308
0.124082
0.126653
0.129026
0.131204
0.133191
0.134986
0.136588
0.137994
0.139193
0.140174
0.140915
0.141384
0.141546
0.141357
0.140738
0.139596
0.131381
0.119905
0.108469
0.0972226
0.0862868
0.0757594
0.0657204
0.0562369
0.0473659
0.0391588
0.0316631
0.0249223
0.0189897
0.0139112
0.00972071
0.00643064
0.00400691
0.00234999
0.00130273
0.0006877
0.000348449
0.000170668
8.17148e-05
3.83587e-05
1.76912e-05
8.02957e-06
3.59155e-06
1.58518e-06
6.91203e-07
2.981e-07
1.27294e-07
5.38676e-08
2.26011e-08
9.39664e-09
3.85893e-09
1.54931e-09
5.91655e-10
1.98568e-10
3.76704e-11
4.77161e-07
2.08535e-06
4.79031e-06
9.32436e-06
1.68863e-05
2.94151e-05
5.00038e-05
8.35068e-05
0.0001374
0.000222947
0.000356686
0.00056216
0.000871669
0.00132756
0.00198231
0.00289662
0.00413478
0.0057577
0.00781488
0.0103376
0.0133354
0.0167962
0.0206894
0.0249711
0.0295879
0.0344818
0.0395928
0.0448617
0.0502315
0.0556487
0.0610645
0.0664351
0.0717222
0.076893
0.0819201
0.0867813
0.0914584
0.0959379
0.10021
0.104268
0.108109
0.111732
0.115138
0.118329
0.121309
0.124082
0.126653
0.129026
0.131204
0.133191
0.134986
0.136588
0.137994
0.139193
0.140174
0.140915
0.141384
0.141546
0.141357
0.140738
0.139596
0.13138
0.119905
0.108468
0.0972219
0.0862862
0.0757588
0.0657199
0.0562364
0.0473655
0.0391585
0.0316628
0.0249219
0.0189894
0.0139109
0.00972052
0.00643049
0.0040068
0.00234992
0.00130269
0.000687674
0.000348434
0.000170659
8.17107e-05
3.83567e-05
1.76903e-05
8.02919e-06
3.59139e-06
1.58511e-06
6.91174e-07
2.98088e-07
1.27289e-07
5.38655e-08
2.26002e-08
9.39627e-09
3.85878e-09
1.54925e-09
5.91632e-10
1.98561e-10
3.7669e-11
4.76935e-07
2.08437e-06
4.78806e-06
9.31998e-06
1.68783e-05
2.94013e-05
4.99803e-05
8.34673e-05
0.000137335
0.00022284
0.000356513
0.000561887
0.000871243
0.00132691
0.00198134
0.00289522
0.00413281
0.00575502
0.00781134
0.0103331
0.0133298
0.0167893
0.0206813
0.0249617
0.0295772
0.0344698
0.0395796
0.0448473
0.0502159
0.0556321
0.061047
0.0664169
0.0717035
0.0768738
0.0819008
0.086762
0.0914395
0.0959195
0.100192
0.104251
0.108093
0.111716
0.115123
0.118316
0.121297
0.124073
0.126646
0.129021
0.131203
0.133192
0.134991
0.136597
0.138007
0.139211
0.140196
0.140942
0.141415
0.141579
0.141389
0.140763
0.139604
0.131547
0.120086
0.108653
0.097402
0.086458
0.0759203
0.0658701
0.0563746
0.0474915
0.039272
0.0317638
0.0250103
0.0190648
0.0139733
0.00976994
0.00646746
0.00403259
0.00236659
0.00131272
0.000693371
0.00035151
0.000172208
8.24749e-05
3.87169e-05
1.78557e-05
8.10379e-06
3.62451e-06
1.59962e-06
6.97458e-07
3.0078e-07
1.28432e-07
5.43469e-08
2.28014e-08
9.47968e-09
3.893e-09
1.56302e-09
5.96928e-10
2.00339e-10
3.79681e-11
4.76465e-07
2.08232e-06
4.78335e-06
9.31081e-06
1.68617e-05
2.93721e-05
4.99303e-05
8.33831e-05
0.000137195
0.000222611
0.000356143
0.000561299
0.000870328
0.00132551
0.00197927
0.00289221
0.00412859
0.00574928
0.00780378
0.0103234
0.0133178
0.0167748
0.0206642
0.0249419
0.0295548
0.0344447
0.039552
0.0448173
0.0501837
0.0555979
0.061011
0.0663794
0.0716647
0.0768342
0.0818607
0.0867218
0.0913995
0.0958798
0.100153
0.104213
0.108056
0.111681
0.11509
0.118285
0.121269
0.124048
0.126625
0.129004
0.13119
0.133185
0.134989
0.136601
0.138017
0.139228
0.140219
0.140971
0.141449
0.141616
0.141425
0.140792
0.139615
0.131887
0.120443
0.109009
0.0977498
0.0867914
0.0762359
0.0661656
0.0566487
0.0477432
0.0395006
0.0319685
0.0251905
0.0192198
0.0141024
0.00987295
0.00654509
0.00408717
0.00240218
0.00133436
0.000705761
0.000358314
0.000175626
8.40796e-05
3.94633e-05
1.81974e-05
8.25789e-06
3.69308e-06
1.62974e-06
7.10526e-07
3.06388e-07
1.30814e-07
5.53499e-08
2.32203e-08
9.65316e-09
3.96407e-09
1.59156e-09
6.0789e-10
2.04014e-10
3.85858e-11
4.75754e-07
2.07921e-06
4.77622e-06
9.29691e-06
1.68364e-05
2.93278e-05
4.98545e-05
8.32553e-05
0.000136982
0.000222263
0.000355581
0.000560406
0.000868937
0.00132339
0.00197612
0.00288766
0.00412221
0.0057406
0.00779235
0.0103088
0.0132997
0.016753
0.0206385
0.0249122
0.0295211
0.0344071
0.0395106
0.0447722
0.0501352
0.0555463
0.0609567
0.0663226
0.071606
0.076774
0.0817993
0.0866598
0.0913372
0.0958177
0.100092
0.104152
0.107997
0.111624
0.115035
0.118233
0.121221
0.124003
0.126585
0.128969
0.131161
0.133161
0.134972
0.136592
0.138015
0.139233
0.140233
0.140992
0.141476
0.141647
0.141457
0.140819
0.139625
0.132405
0.120971
0.109536
0.0982623
0.0872833
0.0767028
0.0666045
0.0570573
0.0481197
0.0398435
0.0322766
0.0254627
0.0194545
0.0142985
0.0100299
0.0066639
0.00417116
0.00245727
0.00136801
0.00072516
0.000368329
0.000180529
8.64533e-05
4.05861e-05
1.87181e-05
8.49494e-06
3.79912e-06
1.67645e-06
7.30825e-07
3.15104e-07
1.34517e-07
5.69089e-08
2.38712e-08
9.9226e-09
4.07438e-09
1.63585e-09
6.2489e-10
2.09711e-10
3.95445e-11
4.74811e-07
2.07509e-06
4.76676e-06
9.27847e-06
1.68029e-05
2.92691e-05
4.9754e-05
8.30859e-05
0.000136701
0.000221802
0.000354837
0.000559226
0.000867099
0.00132059
0.00197196
0.00288165
0.00411378
0.00572915
0.00777728
0.0102896
0.0132759
0.0167243
0.0206046
0.024873
0.0294766
0.0343574
0.0394558
0.0447126
0.050071
0.0554779
0.0608844
0.066247
0.0715274
0.076693
0.0817166
0.0865758
0.0912525
0.0957328
0.100007
0.104069
0.107915
0.111544
0.114958
0.118159
0.121151
0.123937
0.126524
0.128914
0.131112
0.133119
0.134937
0.136565
0.137996
0.139223
0.14023
0.140997
0.141488
0.141664
0.141476
0.140835
0.139631
0.133105
0.121675
0.110231
0.0989426
0.0879368
0.0773248
0.067191
0.0576049
0.0486254
0.040305
0.032692
0.0258303
0.0197722
0.0145646
0.0102437
0.00682639
0.00428663
0.00253354
0.00141505
0.000750529
0.000381443
0.000187214
8.97262e-05
4.21446e-05
1.94429e-05
8.82515e-06
3.94691e-06
1.74155e-06
7.5909e-07
3.2723e-07
1.39667e-07
5.9076e-08
2.47755e-08
1.02969e-08
4.22759e-09
1.69734e-09
6.48491e-10
2.17618e-10
4.08774e-11
4.73649e-07
2.07002e-06
4.7551e-06
9.25575e-06
1.67616e-05
2.91969e-05
4.96303e-05
8.28777e-05
0.000136355
0.000221236
0.000353925
0.000557778
0.000864847
0.00131716
0.00196687
0.00287429
0.00410346
0.00571513
0.00775883
0.0102661
0.0132467
0.016689
0.020563
0.0248249
0.029422
0.0342963
0.0393883
0.0446391
0.0499917
0.0553932
0.0607948
0.0661529
0.0714295
0.0765919
0.0816128
0.0864699
0.0911453
0.095625
0.0998992
0.103962
0.107809
0.111441
0.114857
0.118062
0.121057
0.123849
0.126441
0.128837
0.131041
0.133056
0.134883
0.136518
0.137959
0.139194
0.140211
0.140986
0.141483
0.141664
0.141477
0.140833
0.13962
0.133984
0.122554
0.111095
0.0997832
0.0887541
0.0781091
0.0679351
0.0583021
0.0492676
0.0408917
0.0332208
0.0262991
0.0201782
0.0149057
0.0105187
0.00703654
0.00443701
0.00263383
0.00147248
0.000782342
0.000398588
0.000195972
9.39993e-05
4.41761e-05
2.03879e-05
9.25634e-06
4.14028e-06
1.82692e-06
7.96264e-07
3.43208e-07
1.46455e-07
6.19307e-08
2.59662e-08
1.07893e-08
4.42909e-09
1.7782e-09
6.79509e-10
2.28006e-10
4.26318e-11
4.72283e-07
2.06406e-06
4.74142e-06
9.22909e-06
1.67132e-05
2.91122e-05
4.94855e-05
8.26341e-05
0.000135951
0.000220575
0.00035286
0.000556091
0.000862224
0.00131317
0.00196094
0.00286574
0.00409146
0.00569883
0.00773737
0.0102387
0.0132127
0.016648
0.0205145
0.0247688
0.0293581
0.0342248
0.0393093
0.0445528
0.0498985
0.0552934
0.060689
0.0660416
0.0713133
0.0764714
0.0814888
0.0863432
0.0910165
0.0954949
0.0997687
0.103832
0.10768
0.111313
0.114733
0.117941
0.120941
0.123737
0.126335
0.128738
0.13095
0.132973
0.134808
0.136453
0.137903
0.139148
0.140173
0.140956
0.141459
0.14164
0.141447
0.14079
0.139554
0.135056
0.123613
0.112127
0.100777
0.089702
0.0790116
0.0687924
0.0591154
0.0500403
0.0416092
0.0338694
0.0268764
0.0206794
0.0153283
0.0108612
0.00729946
0.00462657
0.00275106
0.0015433
0.000823071
0.000420418
0.000207054
9.94055e-05
4.67469e-05
2.15838e-05
9.80208e-06
4.38505e-06
1.93502e-06
8.43345e-07
3.63461e-07
1.55072e-07
6.55618e-08
2.74819e-08
1.14162e-08
4.68552e-09
1.88107e-09
7.18965e-10
2.41215e-10
4.48674e-11
4.70732e-07
2.05728e-06
4.72587e-06
9.19883e-06
1.66584e-05
2.90163e-05
4.93217e-05
8.23589e-05
0.000135495
0.000219831
0.000351661
0.000554194
0.000859278
0.0013087
0.0019543
0.00285615
0.00407803
0.00568058
0.00771335
0.010208
0.0131747
0.0166019
0.0204601
0.0247058
0.0292863
0.0341443
0.0392202
0.0444552
0.0497928
0.0551801
0.0605685
0.0659146
0.0711804
0.0763332
0.0813461
0.0861968
0.0908673
0.0953437
0.0996164
0.103679
0.107528
0.111163
0.114585
0.117797
0.120801
0.123603
0.126207
0.128617
0.130837
0.132869
0.134715
0.136371
0.137832
0.13909
0.140127
0.14092
0.14143
0.14161
0.141401
0.140697
0.139361
0.136276
0.12482
0.113313
0.101932
0.0908158
0.0800736
0.069794
0.0600503
0.050905
0.0424131
0.0346247
0.0275638
0.0212783
0.0158385
0.0112836
0.00761998
0.00483983
0.00289244
0.00163139
0.000873406
0.000447347
0.000220766
0.000106105
4.99356e-05
2.30682e-05
1.04797e-05
4.68902e-06
2.06927e-06
9.01816e-07
3.88614e-07
1.65775e-07
7.00725e-08
2.93666e-08
1.21968e-08
5.00501e-09
2.00924e-09
7.68124e-10
2.57673e-10
4.76567e-11
4.69009e-07
2.04977e-06
4.70863e-06
9.16529e-06
1.65976e-05
2.89103e-05
4.91409e-05
8.20557e-05
0.000134994
0.000219013
0.000350349
0.000552121
0.000856064
0.00130382
0.00194708
0.00284574
0.00406345