/*--------------------------------*- C++ -*----------------------------------*\
  =========                 |
  \\      /  F ield         | OpenFOAM: The Open Source CFD Toolbox
   \\    /   O peration     | Website:  https://openfoam.org
    \\  /    A nd           | Version:  8
     \\/     M anipulation  |
\*---------------------------------------------------------------------------*/
FoamFile
{
    version     2.0;
    format      ascii;
    class       volScalarField;
    location    "340/fluid";
    object      N2;
}
// * * * * * * * * * * * * * * * * * * * * * * * * * * * * * * * * * * * * * //

dimensions      [0 0 0 0 0 0 0];

internalField   nonuniform List<scalar> 
4000
(
2.07839e-06
9.07822e-06
2.08308e-05
4.04891e-05
7.32166e-05
0.000127388
0.000216424
0.000361544
0.000595737
0.000969297
0.00155709
0.00246741
0.00385134
0.00591057
0.00889967
0.0131182
0.018889
0.026522
0.0362708
0.0482947
0.0626387
0.0792406
0.0979396
0.1185
0.140645
0.164079
0.188503
0.213627
0.23918
0.26491
0.290592
0.316027
0.341045
0.365501
0.38928
0.412285
0.434442
0.455695
0.47601
0.495366
0.513756
0.531182
0.547656
0.563197
0.577832
0.591588
0.6045
0.616602
0.627931
0.638525
0.648421
0.657659
0.666274
0.674303
0.681782
0.688744
0.695223
0.701251
0.706763
0.71186
0.716723
0.721243
0.725446
0.72931
0.733046
0.73662
0.740035
0.743294
0.746397
0.749341
0.752123
0.754739
0.757181
0.759443
0.761503
0.76337
0.765017
0.766427
0.767582
0.768471
0.769103
0.769511
0.769751
0.76988
0.769944
0.769975
0.769989
0.769995
0.769998
0.769999
0.77
0.77
0.77
0.77
0.77
0.77
0.77
0.77
0.77
0.77
2.10276e-06
9.18902e-06
2.11035e-05
4.10671e-05
7.43613e-05
0.000129555
0.000220376
0.000368494
0.000607514
0.000988471
0.00158698
0.00251175
0.00391356
0.00599241
0.00899937
0.0132288
0.0189971
0.026609
0.0363161
0.0482816
0.062557
0.0790749
0.0976797
0.118152
0.140225
0.16361
0.18801
0.213136
0.238712
0.264484
0.290224
0.315729
0.340821
0.365353
0.389198
0.412267
0.434486
0.455801
0.476174
0.495583
0.51402
0.531487
0.547998
0.56357
0.57823
0.592007
0.604935
0.61705
0.628388
0.638987
0.648887
0.658125
0.666738
0.674764
0.682238
0.689195
0.695667
0.701687
0.707188
0.712271
0.717121
0.72163
0.725825
0.729696
0.733438
0.737016
0.740435
0.743698
0.746802
0.749747
0.752529
0.755142
0.757578
0.759828
0.761876
0.763718
0.765331
0.766698
0.7678
0.768631
0.769208
0.769572
0.769782
0.769894
0.76995
0.769977
0.76999
0.769996
0.769998
0.769999
0.77
0.77
0.77
0.77
0.77
0.77
0.77
0.77
0.77
0.77
2.13981e-06
9.35369e-06
2.14936e-05
4.18551e-05
7.58414e-05
0.000132211
0.000224977
0.000376208
0.000620037
0.00100813
0.00161677
0.00255517
0.00397422
0.00607323
0.0091015
0.0133502
0.0191312
0.026744
0.0364355
0.0483658
0.0625877
0.0790466
0.0975917
0.118006
0.140029
0.163376
0.187754
0.212875
0.238463
0.264264
0.290042
0.315591
0.340737
0.365331
0.389252
0.412402
0.434704
0.456097
0.476545
0.496024
0.514525
0.532049
0.54861
0.564226
0.578923
0.592731
0.605683
0.617816
0.629167
0.639775
0.649679
0.658917
0.667527
0.675546
0.683011
0.689957
0.696417
0.702423
0.707911
0.712966
0.717788
0.722272
0.726443
0.73033
0.734075
0.737654
0.741071
0.744329
0.747425
0.750358
0.753123
0.755714
0.758122
0.760334
0.762343
0.764131
0.765683
0.766981
0.768011
0.768775
0.769296
0.769621
0.769807
0.769906
0.769956
0.76998
0.769991
0.769996
0.769998
0.769999
0.77
0.77
0.77
0.77
0.77
0.77
0.77
0.77
0.77
0.77
2.17113e-06
9.49063e-06
2.18084e-05
4.24673e-05
7.6943e-05
0.000134103
0.000228111
0.000381243
0.000627887
0.00102001
0.00163417
0.00257982
0.00400787
0.00611731
0.00915653
0.0134151
0.0192029
0.0268169
0.0365024
0.0484183
0.0626182
0.0790494
0.097568
0.117959
0.139963
0.163297
0.187669
0.212794
0.238397
0.264224
0.290043
0.315649
0.340863
0.365533
0.389533
0.412763
0.435144
0.456615
0.477136
0.496684
0.515249
0.532831
0.549443
0.565103
0.579837
0.593676
0.606652
0.618803
0.630166
0.640781
0.650686
0.65992
0.668523
0.67653
0.68398
0.690906
0.697344
0.703326
0.708755
0.713787
0.718593
0.723057
0.727181
0.731102
0.734844
0.738416
0.741823
0.745065
0.748143
0.751051
0.753787
0.756342
0.758708
0.760866
0.76282
0.764547
0.766032
0.767258
0.768216
0.768915
0.769382
0.76967
0.769832
0.769919
0.769962
0.769982
0.769992
0.769996
0.769998
0.769999
0.77
0.77
0.77
0.77
0.77
0.77
0.77
0.77
0.77
0.77
2.19668e-06
9.60199e-06
2.20632e-05
4.29603e-05
7.7828e-05
0.000135624
0.000230647
0.000385364
0.000634426
0.00103013
0.00164942
0.00260214
0.00403947
0.00616042
0.00921299
0.0134858
0.0192872
0.0269124
0.0366049
0.048523
0.0627198
0.0791436
0.0976518
0.118034
0.140033
0.16337
0.187754
0.212902
0.238538
0.264408
0.29028
0.315945
0.341224
0.365963
0.390034
0.413337
0.43579
0.457331
0.47792
0.49753
0.516152
0.533786
0.550444
0.566143
0.58091
0.594774
0.60777
0.619934
0.631304
0.64192
0.651822
0.661048
0.669637
0.677627
0.685055
0.691955
0.698363
0.704309
0.70968
0.714804
0.719566
0.723991
0.72804
0.731944
0.73567
0.739225
0.742611
0.74583
0.74888
0.751757
0.754455
0.756967
0.759284
0.761385
0.763279
0.764941
0.766356
0.76751
0.7684
0.769037
0.769457
0.769711
0.769854
0.769929
0.769966
0.769984
0.769993
0.769997
0.769999
0.769999
0.77
0.77
0.77
0.77
0.77
0.77
0.77
0.77
0.77
0.77
2.21667e-06
9.68886e-06
2.22608e-05
4.33399e-05
7.85038e-05
0.000136776
0.000232553
0.000388443
0.000639285
0.00103763
0.00166072
0.00261874
0.00406322
0.00619342
0.00925744
0.0135437
0.0193602
0.0270014
0.0367101
0.0486437
0.0628553
0.0792935
0.0978165
0.118215
0.140233
0.163594
0.188007
0.21319
0.238868
0.264786
0.290711
0.316434
0.341775
0.366577
0.390714
0.414083
0.4366
0.458203
0.47885
0.498514
0.517185
0.534863
0.551558
0.567288
0.58208
0.595962
0.608971
0.621141
0.632513
0.643125
0.653017
0.662229
0.670801
0.678769
0.686173
0.693046
0.699425
0.705298
0.710647
0.715761
0.7205
0.724895
0.728902
0.732784
0.736489
0.740022
0.743385
0.746576
0.749594
0.752434
0.755091
0.757556
0.759822
0.761872
0.763705
0.765302
0.766649
0.767736
0.768562
0.769144
0.769521
0.769747
0.769872
0.769938
0.769971
0.769986
0.769994
0.769997
0.769999
0.769999
0.77
0.77
0.77
0.77
0.77
0.77
0.77
0.77
0.77
0.77
2.23304e-06
9.76003e-06
2.24229e-05
4.36519e-05
7.90611e-05
0.000137731
0.000234145
0.000391039
0.000643437
0.00104413
0.00167071
0.00263375
0.00408521
0.00622482
0.00930102
0.0136024
0.0194369
0.0270986
0.0368298
0.0487875
0.0630246
0.0794896
0.098041
0.11847
0.140522
0.163919
0.188374
0.213601
0.239328
0.265298
0.291279
0.31706
0.34246
0.367323
0.391521
0.414948
0.437522
0.459179
0.479875
0.499585
0.518296
0.536008
0.552732
0.568485
0.583293
0.597187
0.610201
0.622371
0.633737
0.644339
0.654217
0.663411
0.67196
0.679904
0.68728
0.694124
0.700471
0.706276
0.71157
0.716644
0.721349
0.725711
0.729711
0.733579
0.737268
0.74078
0.744117
0.747279
0.750264
0.753066
0.75568
0.758099
0.760314
0.762314
0.764088
0.765625
0.76691
0.767935
0.768702
0.769235
0.769576
0.769777
0.769888
0.769946
0.769974
0.769988
0.769995
0.769998
0.769999
0.77
0.77
0.77
0.77
0.77
0.77
0.77
0.77
0.77
0.77
0.77
2.24688e-06
9.82022e-06
2.25601e-05
4.3916e-05
7.95336e-05
0.000138542
0.000235502
0.000393262
0.000647013
0.00104979
0.00167949
0.00264711
0.00410513
0.00625384
0.00934227
0.0136595
0.0195138
0.0271992
0.0369578
0.0489461
0.0632167
0.0797176
0.0983074
0.118777
0.140872
0.164315
0.188818
0.214096
0.239876
0.265901
0.291938
0.317777
0.343234
0.368153
0.392405
0.415885
0.438509
0.460211
0.480949
0.500696
0.519438
0.537176
0.55392
0.569689
0.584506
0.598404
0.611416
0.62358
0.634936
0.645522
0.65538
0.664551
0.673075
0.680991
0.688336
0.695148
0.701463
0.707226
0.712478
0.717503
0.722157
0.726472
0.730478
0.734328
0.737995
0.741483
0.744794
0.747926
0.750877
0.753643
0.756217
0.758592
0.760756
0.762707
0.764428
0.765909
0.767137
0.768106
0.768822
0.769312
0.769622
0.769802
0.769901
0.769952
0.769977
0.76999
0.769995
0.769998
0.769999
0.77
0.77
0.77
0.77
0.77
0.77
0.77
0.77
0.77
0.77
0.77
2.25906e-06
9.87328e-06
2.26812e-05
4.415e-05
7.99535e-05
0.000139267
0.000236721
0.000395273
0.000650277
0.001055
0.00168768
0.00265974
0.00412424
0.00628213
0.00938312
0.013717
0.0195924
0.0273037
0.0370927
0.0491157
0.0634246
0.079967
0.0986009
0.119117
0.141261
0.164755
0.18931
0.214642
0.240477
0.266558
0.29265
0.318543
0.344054
0.369025
0.393326
0.416852
0.439518
0.46126
0.482032
0.501807
0.520573
0.53833
0.555087
0.570864
0.585684
0.59958
0.612585
0.624738
0.636078
0.646645
0.65648
0.665625
0.67412
0.682004
0.689317
0.696095
0.702364
0.708063
0.713276
0.718272
0.722898
0.72715
0.731175
0.735007
0.738654
0.74212
0.745405
0.748509
0.751428
0.754159
0.756696
0.759032
0.761149
0.763054
0.764728
0.766158
0.767335
0.768253
0.768924
0.769377
0.769659
0.769823
0.769912
0.769957
0.76998
0.769991
0.769996
0.769998
0.769999
0.77
0.77
0.77
0.77
0.77
0.77
0.77
0.77
0.77
0.77
0.77
2.27007e-06
9.92124e-06
2.27908e-05
4.43622e-05
8.03354e-05
0.000139928
0.000237837
0.000397126
0.000653304
0.00105987
0.00169539
0.00267175
0.00414259
0.00630957
0.0094232
0.013774
0.0196713
0.0274096
0.0372309
0.0492909
0.0636408
0.0802277
0.098909
0.119475
0.14167
0.165217
0.189826
0.215212
0.241101
0.267236
0.293381
0.319326
0.344885
0.369903
0.394249
0.417815
0.440517
0.46229
0.483089
0.502887
0.521671
0.53944
0.556205
0.571983
0.586802
0.60069
0.613685
0.625822
0.637143
0.647688
0.657498
0.666615
0.675079
0.68293
0.690206
0.696946
0.703185
0.708846
0.714045
0.719016
0.723609
0.727784
0.731798
0.735615
0.739244
0.742688
0.745949
0.749026
0.751916
0.754616
0.757119
0.759418
0.761497
0.763362
0.764991
0.766375
0.767505
0.768378
0.769009
0.769431
0.769691
0.76984
0.76992
0.769962
0.769982
0.769992
0.769996
0.769998
0.769999
0.77
0.77
0.77
0.77
0.77
0.77
0.77
0.77
0.77
0.77
0.77
2.28016e-06
9.96525e-06
2.28916e-05
4.45575e-05
8.06879e-05
0.00014054
0.000238876
0.000398856
0.000656145
0.00106447
0.00170272
0.00268325
0.00416027
0.00633619
0.00946235
0.0138301
0.0197493
0.027515
0.037369
0.0494666
0.0638584
0.0804907
0.0992201
0.119836
0.142083
0.165682
0.190344
0.215784
0.241725
0.267911
0.294105
0.320097
0.345702
0.370761
0.395145
0.418746
0.441478
0.463277
0.484098
0.503912
0.522708
0.540484
0.557251
0.573028
0.587841
0.601719
0.6147
0.62682
0.638121
0.648642
0.658427
0.667515
0.675949
0.683768
0.691012
0.697717
0.703919
0.709477
0.714788
0.719706
0.724257
0.728387
0.732371
0.736164
0.73977
0.743191
0.746429
0.74948
0.752344
0.755014
0.757486
0.759752
0.761801
0.763627
0.765218
0.766562
0.76765
0.768484
0.769081
0.769475
0.769717
0.769854
0.769927
0.769965
0.769984
0.769992
0.769997
0.769998
0.769999
0.77
0.77
0.77
0.77
0.77
0.77
0.77
0.77
0.77
0.77
0.77
2.28945e-06
1.00057e-05
2.29844e-05
4.47377e-05
8.10138e-05
0.000141107
0.000239841
0.00040047
0.000658805
0.00106879
0.00170964
0.00269414
0.0041771
0.00636165
0.00949995
0.0138842
0.0198248
0.0276173
0.0375034
0.049638
0.0640711
0.080748
0.0995244
0.120189
0.142486
0.166136
0.190849
0.216338
0.242328
0.268562
0.294801
0.320836
0.34648
0.371577
0.395993
0.419623
0.44238
0.4642
0.485037
0.504863
0.523667
0.541446
0.558213
0.573985
0.588789
0.602656
0.615621
0.627724
0.639004
0.649502
0.659262
0.668324
0.67673
0.684521
0.691736
0.698412
0.704556
0.710089
0.715385
0.720279
0.724806
0.72891
0.732873
0.736646
0.740232
0.743633
0.746848
0.749877
0.752715
0.755358
0.7578
0.760033
0.762044
0.763832
0.76539
0.766707
0.767767
0.768571
0.769139
0.769512
0.769737
0.769865
0.769933
0.769968
0.769985
0.769993
0.769997
0.769999
0.769999
0.77
0.77
0.77
0.77
0.77
0.77
0.77
0.77
0.77
0.77
0.77
2.29793e-06
1.00428e-05
2.30692e-05
4.49028e-05
8.13128e-05
0.000141629
0.00024073
0.000401961
0.000661269
0.00107281
0.00171609
0.00270432
0.00419288
0.00638558
0.00953539
0.0139352
0.0198963
0.0277143
0.037631
0.0498009
0.0642731
0.0809923
0.0998134
0.120524
0.142869
0.166566
0.191325
0.216861
0.242896
0.269172
0.295452
0.321524
0.347204
0.372331
0.396776
0.42043
0.443208
0.465044
0.485893
0.505728
0.524536
0.542316
0.559079
0.574845
0.589639
0.603493
0.616443
0.628527
0.639787
0.650264
0.66
0.669038
0.677418
0.685183
0.692371
0.699021
0.705111
0.710614
0.715886
0.720759
0.725262
0.729353
0.733302
0.73706
0.740629
0.744012
0.747209
0.750216
0.753032
0.75565
0.758065
0.760269
0.762256
0.764022
0.76555
0.76683
0.767859
0.76864
0.769187
0.769542
0.769755
0.769874
0.769938
0.76997
0.769986
0.769994
0.769997
0.769999
0.769999
0.77
0.77
0.77
0.77
0.77
0.77
0.77
0.77
0.77
0.77
0.77
2.30556e-06
1.00761e-05
2.31457e-05
4.50516e-05
8.15827e-05
0.000142101
0.000241535
0.000403313
0.000663508
0.00107646
0.00172197
0.00271363
0.00420733
0.00640755
0.00956796
0.0139822
0.0199621
0.0278037
0.0377487
0.0499511
0.0644595
0.0812176
0.10008
0.120833
0.14322
0.16696
0.191762
0.217339
0.243414
0.269727
0.296043
0.322149
0.347858
0.373013
0.397481
0.421155
0.44395
0.465798
0.486657
0.506497
0.525306
0.543085
0.559844
0.575602
0.590386
0.604227
0.617162
0.629229
0.64047
0.650926
0.660641
0.669656
0.678013
0.685754
0.692918
0.699544
0.705612
0.711088
0.716332
0.721174
0.72565
0.729733
0.733669
0.737412
0.740967
0.744334
0.747512
0.7505
0.753295
0.755892
0.758288
0.760475
0.762446
0.764189
0.765692
0.766948
0.767949
0.7687
0.769227
0.769566
0.769769
0.769882
0.769942
0.769972
0.769987
0.769994
0.769997
0.769999
0.769999
0.77
0.77
0.77
0.77
0.77
0.77
0.77
0.77
0.77
0.77
0.77
2.31228e-06
1.01054e-05
2.3213e-05
4.51827e-05
8.18206e-05
0.000142517
0.000242247
0.00040451
0.000665492
0.00107971
0.0017272
0.00272191
0.0042202
0.00642713
0.00959702
0.0140242
0.020021
0.0278837
0.0378539
0.0500854
0.064626
0.0814188
0.100317
0.121108
0.143533
0.167311
0.19215
0.217763
0.243872
0.270219
0.296565
0.322699
0.348433
0.37361
0.398098
0.421789
0.444596
0.466455
0.487319
0.507163
0.525973
0.543749
0.560503
0.576253
0.591027
0.604856
0.617777
0.629828
0.641052
0.65149
0.661185
0.67018
0.678517
0.686237
0.693379
0.699981
0.706025
0.711476
0.716698
0.721519
0.725973
0.730052
0.733977
0.737709
0.74125
0.744602
0.747766
0.750741
0.753523
0.756108
0.758489
0.760658
0.762608
0.764329
0.765811
0.767044
0.768022
0.768753
0.76926
0.769586
0.76978
0.769888
0.769945
0.769974
0.769988
0.769994
0.769997
0.769999
0.769999
0.77
0.77
0.77
0.77
0.77
0.77
0.77
0.77
0.77
0.77
0.77
2.31799e-06
1.01304e-05
2.32703e-05
4.52943e-05
8.20233e-05
0.000142872
0.000242854
0.000405532
0.000667189
0.00108249
0.00173168
0.00272901
0.00423125
0.00644395
0.009622
0.0140603
0.0200716
0.0279524
0.0379444
0.0502008
0.0647691
0.0815917
0.100521
0.121344
0.143801
0.167611
0.192482
0.218125
0.244264
0.270638
0.29701
0.323166
0.348922
0.374117
0.39862
0.422324
0.445141
0.467007
0.487877
0.507723
0.526532
0.544305
0.561053
0.576796
0.591561
0.605379
0.618287
0.630325
0.641534
0.651956
0.661635
0.670613
0.678931
0.686631
0.693752
0.700335
0.706359
0.711793
0.716997
0.721801
0.726236
0.730314
0.734231
0.737954
0.741486
0.74483
0.747984
0.750948
0.753717
0.756287
0.758653
0.760806
0.762739
0.764442
0.765906
0.767121
0.768081
0.768795
0.769288
0.769602
0.769789
0.769893
0.769947
0.769975
0.769988
0.769995
0.769998
0.769999
0.77
0.77
0.77
0.77
0.77
0.77
0.77
0.77
0.77
0.77
0.77
0.77
2.32263e-06
1.01506e-05
2.33168e-05
4.5385e-05
8.2188e-05
0.00014316
0.000243348
0.000406364
0.000668571
0.00108475
0.00173533
0.00273481
0.00424028
0.00645769
0.00964241
0.0140898
0.0201129
0.0280086
0.0380184
0.0502952
0.0648861
0.081733
0.100688
0.121537
0.144021
0.167856
0.192753
0.218421
0.244582
0.270979
0.297371
0.323546
0.349318
0.374527
0.399043
0.422757
0.445582
0.467453
0.488326
0.508172
0.526981
0.544751
0.561495
0.577231
0.591988
0.605797
0.618695
0.630721
0.641918
0.652327
0.661992
0.670954
0.679257
0.686942
0.694051
0.700622
0.706631
0.71205
0.71724
0.722028
0.726448
0.730523
0.734433
0.738149
0.741674
0.74501
0.748156
0.75111
0.753868
0.756427
0.758781
0.760921
0.762841
0.764531
0.76598
0.76718
0.768127
0.768827
0.769309
0.769615
0.769796
0.769896
0.769949
0.769976
0.769989
0.769995
0.769998
0.769999
0.77
0.77
0.77
0.77
0.77
0.77
0.77
0.77
0.77
0.77
0.77
0.77
2.32613e-06
1.01659e-05
2.3352e-05
4.54534e-05
8.23124e-05
0.000143378
0.000243721
0.000406993
0.000669616
0.00108646
0.0017381
0.0027392
0.00424712
0.00646811
0.0096579
0.0141122
0.0201444
0.0280513
0.0380746
0.0503669
0.0649751
0.0818404
0.100815
0.121683
0.144187
0.168042
0.192958
0.218645
0.244824
0.271237
0.297644
0.323833
0.349617
0.374838
0.399362
0.423083
0.445914
0.467789
0.488664
0.508511
0.527319
0.545087
0.561826
0.577558
0.592308
0.60611
0.619
0.631017
0.642204
0.652603
0.662257
0.671209
0.679503
0.687179
0.694277
0.700837
0.706834
0.712242
0.717422
0.722201
0.726602
0.730678
0.734583
0.738294
0.741814
0.745143
0.748282
0.751229
0.75398
0.756531
0.758875
0.761007
0.762916
0.764596
0.766035
0.767224
0.76816
0.768851
0.769325
0.769625
0.769802
0.769899
0.769951
0.769976
0.769989
0.769995
0.769998
0.769999
0.77
0.77
0.77
0.77
0.77
0.77
0.77
0.77
0.77
0.77
0.77
0.77
2.32847e-06
1.01761e-05
2.33754e-05
4.54991e-05
8.23952e-05
0.000143523
0.000243969
0.000407411
0.000670311
0.0010876
0.00173993
0.00274212
0.00425166
0.00647504
0.00966821
0.0141271
0.0201653
0.0280798
0.0381121
0.0504148
0.0650345
0.0819122
0.1009
0.121781
0.144298
0.168167
0.193096
0.218795
0.244986
0.27141
0.297828
0.324026
0.349818
0.375046
0.399576
0.423302
0.446136
0.468014
0.48889
0.508737
0.527544
0.54531
0.562047
0.577775
0.592521
0.606318
0.619202
0.631214
0.642394
0.652787
0.662435
0.671381
0.679668
0.687337
0.694428
0.70098
0.70697
0.712371
0.717543
0.722316
0.726703
0.730779
0.734682
0.73839
0.741906
0.745231
0.748366
0.751308
0.754054
0.756599
0.758938
0.761063
0.762966
0.764639
0.766071
0.767253
0.768181
0.768866
0.769335
0.769631
0.769805
0.769901
0.769952
0.769977
0.769989
0.769995
0.769998
0.769999
0.77
0.77
0.77
0.77
0.77
0.77
0.77
0.77
0.77
0.77
0.77
0.77
2.32963e-06
1.01812e-05
2.33869e-05
4.55214e-05
8.24357e-05
0.000143593
0.000244089
0.000407613
0.000670645
0.00108815
0.00174081
0.00274351
0.00425383
0.00647834
0.00967311
0.0141342
0.0201752
0.0280934
0.03813
0.0504378
0.065063
0.0819468
0.100941
0.121829
0.144353
0.168228
0.193163
0.218868
0.245066
0.271495
0.297918
0.324121
0.349917
0.375148
0.399682
0.42341
0.446246
0.468125
0.489002
0.50885
0.527656
0.545421
0.562157
0.577883
0.592627
0.606422
0.619303
0.631312
0.64249
0.65288
0.662524
0.671467
0.67975
0.687415
0.694503
0.701052
0.707037
0.712434
0.717604
0.722373
0.726754
0.73083
0.734731
0.738437
0.741951
0.745275
0.748407
0.751347
0.75409
0.756633
0.758968
0.76109
0.76299
0.764659
0.766088
0.767267
0.768192
0.768873
0.769339
0.769634
0.769807
0.769902
0.769952
0.769977
0.769989
0.769995
0.769998
0.769999
0.77
0.77
0.77
0.77
0.77
0.77
0.77
0.77
0.77
0.77
0.77
0.77
2.32965e-06
1.01813e-05
2.33872e-05
4.5522e-05
8.24367e-05
0.000143595
0.000244093
0.000407618
0.000670654
0.00108816
0.00174083
0.00274355
0.00425388
0.00647843
0.00967324
0.0141344
0.0201755
0.0280937
0.0381304
0.0504383
0.0650637
0.0819476
0.100941
0.12183
0.144354
0.168229
0.193164
0.21887
0.245067
0.271497
0.297919
0.324122
0.349919
0.37515
0.399683
0.423411
0.446247
0.468126
0.489003
0.508851
0.527657
0.545422
0.562158
0.577884
0.592628
0.606423
0.619304
0.631313
0.642491
0.65288
0.662525
0.671467
0.679751
0.687416
0.694503
0.701052
0.707037
0.712435
0.717604
0.722373
0.726754
0.73083
0.734731
0.738437
0.741952
0.745275
0.748408
0.751347
0.75409
0.756633
0.758969
0.76109
0.76299
0.76466
0.766088
0.767267
0.768192
0.768873
0.769339
0.769634
0.769807
0.769902
0.769952
0.769977
0.769989
0.769995
0.769998
0.769999
0.77
0.77
0.77
0.77
0.77
0.77
0.77
0.77
0.77
0.77
0.77
0.77
2.32856e-06
1.01765e-05
2.33763e-05
4.55008e-05
8.23984e-05
0.000143528
0.000243979
0.000407427
0.000670338
0.00108765
0.00174
0.00274223
0.00425183
0.0064753
0.00966859
0.0141276
0.020166
0.0280808
0.0381134
0.0504165
0.0650365
0.0819145
0.100902
0.121784
0.144302
0.168171
0.1931
0.218799
0.24499
0.271414
0.297832
0.32403
0.349822
0.37505
0.39958
0.423306
0.44614
0.468017
0.488894
0.508741
0.527547
0.545313
0.56205
0.577778
0.592524
0.60632
0.619205
0.631216
0.642396
0.652789
0.662437
0.671383
0.679669
0.687338
0.694429
0.700982
0.706971
0.712372
0.717544
0.722316
0.726704
0.73078
0.734683
0.73839
0.741906
0.745232
0.748367
0.751309
0.754054
0.7566
0.758938
0.761063
0.762966
0.764639
0.766071
0.767253
0.768182
0.768866
0.769335
0.769631
0.769805
0.769901
0.769952
0.769977
0.769989
0.769995
0.769998
0.769999
0.77
0.77
0.77
0.77
0.77
0.77
0.77
0.77
0.77
0.77
0.77
0.77
2.32628e-06
1.01666e-05
2.33535e-05
4.54564e-05
8.23179e-05
0.000143388
0.000243738
0.000407021
0.000669663
0.00108654
0.00173822
0.0027394
0.00424742
0.00646857
0.00965858
0.0141132
0.0201457
0.0280531
0.0380769
0.0503698
0.0649786
0.0818445
0.10082
0.121689
0.144193
0.168049
0.192965
0.218651
0.244831
0.271244
0.297652
0.323841
0.349625
0.374845
0.399369
0.42309
0.445921
0.467796
0.48867
0.508517
0.527324
0.545092
0.561832
0.577563
0.592313
0.606114
0.619004
0.631021
0.642208
0.652606
0.66226
0.671212
0.679505
0.687181
0.69428
0.700839
0.706836
0.712244
0.717423
0.722202
0.726603
0.730679
0.734584
0.738295
0.741815
0.745144
0.748283
0.75123
0.753981
0.756531
0.758876
0.761007
0.762917
0.764596
0.766035
0.767224
0.76816
0.768851
0.769325
0.769625
0.769802
0.769899
0.769951
0.769976
0.769989
0.769995
0.769998
0.769999
0.77
0.77
0.77
0.77
0.77
0.77
0.77
0.77
0.77
0.77
0.77
0.77
2.32285e-06
1.01516e-05
2.3319e-05
4.53892e-05
8.21958e-05
0.000143174
0.000243371
0.000406404
0.000668638
0.00108486
0.0017355
0.00273509
0.00424071
0.00645834
0.00964337
0.0140912
0.0201148
0.0280111
0.0380216
0.0502993
0.064891
0.0817388
0.100695
0.121544
0.144029
0.167865
0.192762
0.21843
0.244592
0.270989
0.297381
0.323556
0.349328
0.374538
0.399053
0.422766
0.445591
0.467462
0.488335
0.508181
0.526989
0.544759
0.561502
0.577238
0.591995
0.605803
0.618701
0.630727
0.641923
0.652332
0.661996
0.670958
0.679261
0.686946
0.694054
0.700625
0.706634
0.712052
0.717242
0.72203
0.72645
0.730525
0.734435
0.73815
0.741676
0.745011
0.748157
0.751111
0.753869
0.756428
0.758782
0.760922
0.762842
0.764531
0.765981
0.767181
0.768127
0.768828
0.769309
0.769616
0.769796
0.769896
0.769949
0.769976
0.769989
0.769995
0.769998
0.769999
0.77
0.77
0.77
0.77
0.77
0.77
0.77
0.77
0.77
0.77
0.77
0.77
2.31828e-06
1.01316e-05
2.32732e-05
4.52999e-05
8.20335e-05
0.00014289
0.000242885
0.000405584
0.000667276
0.00108263
0.0017319
0.00272937
0.00423181
0.00644479
0.00962323
0.0140621
0.020074
0.0279556
0.0379485
0.050206
0.0647754
0.0815991
0.10053
0.121354
0.143812
0.167622
0.192494
0.218138
0.244277
0.270651
0.297023
0.32318
0.348935
0.37413
0.398633
0.422337
0.445154
0.467019
0.487888
0.507733
0.526542
0.544315
0.561063
0.576805
0.591569
0.605387
0.618295
0.630332
0.641541
0.651963
0.661641
0.670618
0.678936
0.686635
0.693756
0.700338
0.706363
0.711796
0.717
0.721803
0.726239
0.730316
0.734233
0.737956
0.741488
0.744832
0.747986
0.750949
0.753718
0.756289
0.758654
0.760807
0.76274
0.764443
0.765907
0.767121
0.768082
0.768795
0.769288
0.769602
0.769789
0.769893
0.769947
0.769975
0.769988
0.769995
0.769998
0.769999
0.77
0.77
0.77
0.77
0.77
0.77
0.77
0.77
0.77
0.77
0.77
0.77
2.31263e-06
1.0107e-05
2.32166e-05
4.51897e-05
8.18333e-05
0.000142539
0.000242285
0.000404575
0.0006656
0.00107989
0.00172748
0.00272236
0.00422089
0.00642816
0.00959854
0.0140264
0.0200239
0.0278876
0.037859
0.0500917
0.0646337
0.0814279
0.100328
0.12112
0.143546
0.167324
0.192164
0.217778
0.243888
0.270235
0.296582
0.322715
0.34845
0.373627
0.398114
0.421804
0.444611
0.466469
0.487333
0.507177
0.525986
0.543762
0.560515
0.576264
0.591037
0.604866
0.617786
0.629837
0.64106
0.651498
0.661193
0.670187
0.678523
0.686242
0.693384
0.699985
0.706029
0.71148
0.716701
0.721522
0.725976
0.730054
0.73398
0.737712
0.741252
0.744604
0.747768
0.750743
0.753525
0.75611
0.758491
0.76066
0.762609
0.76433
0.765812
0.767044
0.768023
0.768753
0.76926
0.769586
0.76978
0.769888
0.769945
0.769974
0.769988
0.769994
0.769997
0.769999
0.769999
0.77
0.77
0.77
0.77
0.77
0.77
0.77
0.77
0.77
0.77
0.77
2.30599e-06
1.0078e-05
2.315e-05
4.50601e-05
8.15981e-05
0.000142128
0.000241582
0.000403391
0.000663638
0.00107668
0.00172231
0.00271416
0.00420815
0.00640878
0.00956976
0.0139848
0.0199657
0.0278085
0.0377548
0.0499587
0.0644686
0.0812283
0.100092
0.120847
0.143235
0.166976
0.191779
0.217357
0.243432
0.269747
0.296063
0.322168
0.347878
0.373032
0.3975
0.421174
0.443967
0.465816
0.486673
0.506513
0.525322
0.5431
0.559858
0.575615
0.590398
0.604239
0.617173
0.62924
0.64048
0.650936
0.66065
0.669664
0.678021
0.685761
0.692925
0.69955
0.705618
0.711094
0.716337
0.721178
0.725654
0.729736
0.733672
0.737415
0.74097
0.744336
0.747514
0.750503
0.753297
0.755894
0.758291
0.760479
0.762449
0.76419
0.765694
0.766949
0.767949
0.7687
0.769227
0.769566
0.769769
0.769882
0.769942
0.769972
0.769987
0.769994
0.769997
0.769999
0.769999
0.77
0.77
0.77
0.77
0.77
0.77
0.77
0.77
0.77
0.77
0.77
2.29843e-06
1.0045e-05
2.30743e-05
4.49127e-05
8.13308e-05
0.000141661
0.000240784
0.000402052
0.00066142
0.00107305
0.00171648
0.00270494
0.00419383
0.00638702
0.00953749
0.0139382
0.0199004
0.0277198
0.0376381
0.0498096
0.0642837
0.0810047
0.0998276
0.12054
0.142886
0.166584
0.191345
0.216881
0.242917
0.269194
0.295474
0.321547
0.347226
0.372354
0.396798
0.420452
0.443229
0.465064
0.485913
0.505747
0.524554
0.542333
0.559096
0.57486
0.589653
0.603507
0.616456
0.62854
0.639799
0.650275
0.66001
0.669047
0.677427
0.685191
0.692378
0.699028
0.705117
0.71062
0.715891
0.720763
0.725267
0.729358
0.733306
0.737063
0.740633
0.744016
0.747212
0.750219
0.753034
0.755652
0.758066
0.760268
0.762257
0.764023
0.765551
0.766831
0.76786
0.768641
0.769188
0.769542
0.769755
0.769874
0.769938
0.76997
0.769986
0.769994
0.769997
0.769999
0.769999
0.77
0.77
0.77
0.77
0.77
0.77
0.77
0.77
0.77
0.77
0.77
2.29003e-06
1.00083e-05
2.29902e-05
4.47492e-05
8.10347e-05
0.000141144
0.000239903
0.000400575
0.000658979
0.00106908
0.00171009
0.00269485
0.0041782
0.0063633
0.00950236
0.0138876
0.0198295
0.0276236
0.0375115
0.0496481
0.0640832
0.0807621
0.0995407
0.120207
0.142506
0.166158
0.190872
0.216362
0.242353
0.268587
0.294827
0.320862
0.346506
0.371602
0.396018
0.419647
0.442404
0.464223
0.485059
0.504885
0.523687
0.541466
0.558231
0.574003
0.588806
0.602672
0.615636
0.627738
0.639017
0.649514
0.659273
0.668335
0.67674
0.68453
0.691744
0.69842
0.704563
0.710095
0.71539
0.720284
0.724811
0.728916
0.732878
0.73665
0.740236
0.743636
0.746851
0.74988
0.752717
0.75536
0.757802
0.760034
0.762046
0.763833
0.765391
0.766708
0.767768
0.768571
0.76914
0.769512
0.769738
0.769865
0.769933
0.769968
0.769985
0.769993
0.769997
0.769999
0.769999
0.77
0.77
0.77
0.77
0.77
0.77
0.77
0.77
0.77
0.77
0.77
2.28083e-06
9.96815e-06
2.28982e-05
4.45706e-05
8.07117e-05
0.000140582
0.000238947
0.000398976
0.000656343
0.00106479
0.00170324
0.00268405
0.00416151
0.00633805
0.00946507
0.013834
0.0197546
0.027522
0.037378
0.0494779
0.0638721
0.0805067
0.0992384
0.119856
0.142106
0.165706
0.19037
0.21581
0.241753
0.267939
0.294134
0.320126
0.345731
0.37079
0.395173
0.418773
0.441505
0.463303
0.484123
0.503936
0.522731
0.540506
0.557272
0.573048
0.587859
0.601737
0.614717
0.626836
0.638136
0.648656
0.65844
0.667527
0.675961
0.683779
0.691022
0.697727
0.703928
0.709484
0.714794
0.719711
0.724262
0.728392
0.732375
0.736168
0.739774
0.743195
0.746432
0.749484
0.752347
0.755017
0.757488
0.759754
0.761803
0.763629
0.76522
0.766563
0.767651
0.768485
0.769081
0.769476
0.769717
0.769854
0.769928
0.769965
0.769984
0.769992
0.769997
0.769998
0.769999
0.77
0.77
0.77
0.77
0.77
0.77
0.77
0.77
0.77
0.77
0.77
2.27082e-06
9.92452e-06
2.27984e-05
4.43769e-05
8.03622e-05
0.000139975
0.000237917
0.00039726
0.000653525
0.00106023
0.00169597
0.00267266
0.00414398
0.00631165
0.00942624
0.0137783
0.0196772
0.0274175
0.037241
0.0493035
0.063656
0.0802455
0.0989293
0.119497
0.141695
0.165243
0.189854
0.215242
0.241132
0.267267
0.293413
0.319358
0.344918
0.369935
0.39428
0.417846
0.440547
0.462319
0.483118
0.502914
0.521697
0.539465
0.556228
0.572005
0.586823
0.60071
0.613703
0.62584
0.637159
0.647703
0.657512
0.666628
0.675091
0.68294
0.690216
0.696955
0.703194
0.708853
0.714053
0.719023
0.723616
0.727789
0.731803
0.73562
0.739249
0.742692
0.745953
0.749029
0.75192
0.754619
0.757122
0.759421
0.7615
0.763364
0.764993
0.766377
0.767506
0.768379
0.76901
0.769431
0.769691
0.76984
0.76992
0.769962
0.769982
0.769992
0.769996
0.769998
0.769999
0.77
0.77
0.77
0.77
0.77
0.77
0.77
0.77
0.77
0.77
0.77
2.2599e-06
9.87694e-06
2.26896e-05
4.41664e-05
7.99834e-05
0.000139319
0.00023681
0.000395422
0.000650524
0.0010554
0.00168832
0.00266075
0.00412578
0.00628443
0.00938649
0.0137218
0.019599
0.0273124
0.037104
0.0491297
0.0634415
0.0799867
0.0986235
0.119142
0.141289
0.164784
0.189342
0.214675
0.240511
0.266592
0.292685
0.318578
0.344089
0.36906
0.393361
0.416886
0.439552
0.461292
0.482063
0.501837
0.520602
0.538357
0.555113
0.570888
0.585707
0.599602
0.612606
0.624757
0.636095
0.646661
0.656495
0.665639
0.674133
0.682016
0.689327
0.696105
0.702373
0.708071
0.713284
0.718279
0.722905
0.727155
0.731181
0.735013
0.73866
0.742125
0.74541
0.748513
0.751432
0.754163
0.7567
0.759035
0.761152
0.763057
0.76473
0.76616
0.767336
0.768254
0.768924
0.769377
0.76966
0.769823
0.769912
0.769957
0.76998
0.769991
0.769996
0.769998
0.769999
0.77
0.77
0.77
0.77
0.77
0.77
0.77
0.77
0.77
0.77
0.77
2.2478e-06
9.82428e-06
2.25694e-05
4.39342e-05
7.95666e-05
0.0001386
0.0002356
0.000393427
0.000647284
0.00105023
0.00168019
0.00264821
0.00410682
0.00625638
0.00934598
0.0136648
0.019521
0.0272088
0.0369701
0.0489615
0.0632352
0.0797393
0.0983322
0.118804
0.140902
0.164348
0.188853
0.214132
0.239913
0.26594
0.291977
0.317816
0.343273
0.368192
0.392443
0.415923
0.438545
0.460247
0.480984
0.500729
0.51947
0.537206
0.553949
0.569715
0.584532
0.598428
0.611439
0.623601
0.634955
0.64554
0.655398
0.664567
0.67309
0.681004
0.688349
0.69516
0.701474
0.707236
0.712486
0.71751
0.722164
0.726478
0.730483
0.734333
0.738
0.741488
0.744799
0.74793
0.750881
0.753647
0.756221
0.758596
0.760759
0.762709
0.764431
0.765911
0.767139
0.768107
0.768823
0.769313
0.769622
0.769802
0.769901
0.769952