/*--------------------------------*- C++ -*----------------------------------*\
  =========                 |
  \\      /  F ield         | OpenFOAM: The Open Source CFD Toolbox
   \\    /   O peration     | Website:  https://openfoam.org
    \\  /    A nd           | Version:  8
     \\/     M anipulation  |
\*---------------------------------------------------------------------------*/
FoamFile
{
    version     2.0;
    format      ascii;
    class       volScalarField;
    location    "340/fluid";
    object      O2;
}
// * * * * * * * * * * * * * * * * * * * * * * * * * * * * * * * * * * * * * //

dimensions      [0 0 0 0 0 0 0];

internalField   nonuniform List<scalar> 
4000
(
4.18578e-10
1.82702e-09
4.18558e-09
8.1147e-09
1.4621e-08
2.53192e-08
4.2764e-08
7.09336e-08
1.15906e-07
1.86759e-07
2.96686e-07
4.64228e-07
7.14391e-07
1.07918e-06
1.5969e-06
2.30965e-06
3.25861e-06
4.47787e-06
5.98866e-06
7.79645e-06
9.86435e-06
1.21517e-05
1.46012e-05
1.7157e-05
1.97586e-05
2.2346e-05
2.4864e-05
2.72634e-05
2.95017e-05
3.15451e-05
3.33698e-05
3.49644e-05
3.63341e-05
3.7503e-05
3.85135e-05
3.94908e-05
4.06093e-05
4.21642e-05
4.44917e-05
4.80319e-05
5.33439e-05
6.11345e-05
7.23011e-05
8.79879e-05
0.000109665
0.000139232
0.000179159
0.000232671
0.000303994
0.000398671
0.000523977
0.000689463
0.000907667
0.00119506
0.00157328
0.00207079
0.00272509
0.00358563
0.00469893
0.00615372
0.00811524
0.0106999
0.0141141
0.019193
0.0358959
0.0527627
0.0695468
0.0860533
0.102126
0.117637
0.132481
0.146565
0.159807
0.172128
0.183391
0.193624
0.20266
0.210396
0.216733
0.221611
0.225076
0.227316
0.228632
0.22934
0.229693
0.229861
0.229938
0.229973
0.229988
0.229995
0.229998
0.229999
0.23
0.23
0.23
0.23
0.23
0.23
0.23
0.23
4.29264e-10
1.87516e-09
4.30209e-09
8.35671e-09
1.50907e-08
2.61937e-08
4.43417e-08
7.37011e-08
1.20629e-07
1.94597e-07
3.0932e-07
4.83977e-07
7.44279e-07
1.1229e-06
1.65863e-06
2.39355e-06
3.36798e-06
4.61361e-06
6.14662e-06
7.9627e-06
1.00643e-05
1.24223e-05
1.4948e-05
1.75839e-05
2.02676e-05
2.29367e-05
2.55331e-05
2.8005e-05
3.03089e-05
3.24069e-05
3.42658e-05
3.5876e-05
3.72435e-05
3.83956e-05
3.94069e-05
4.04481e-05
4.16975e-05
4.33779e-05
4.58545e-05
4.95912e-05
5.51679e-05
6.33102e-05
7.49314e-05
9.11912e-05
0.000113574
0.000143996
0.000184943
0.000239656
0.000312374
0.000408647
0.000535742
0.000703179
0.000923431
0.00121285
0.0015929
0.00209178
0.00274669
0.00360679
0.00471776
0.00616953
0.00813127
0.0107274
0.0141858
0.0210296
0.0378321
0.0547754
0.0716208
0.0881766
0.104287
0.119824
0.134679
0.148758
0.161972
0.174236
0.185438
0.195537
0.204388
0.211883
0.217929
0.222489
0.225652
0.22765
0.228805
0.229421
0.229728
0.229875
0.229944
0.229975
0.229989
0.229995
0.229998
0.229999
0.23
0.23
0.23
0.23
0.23
0.23
0.23
0.23
4.45145e-10
1.94543e-09
4.46712e-09
8.68664e-09
1.57044e-08
2.72882e-08
4.62348e-08
7.68926e-08
1.25884e-07
2.03052e-07
3.22614e-07
5.04407e-07
7.74959e-07
1.16793e-06
1.72327e-06
2.48434e-06
3.49282e-06
4.78179e-06
6.3688e-06
8.25105e-06
1.04046e-05
1.27873e-05
1.53959e-05
1.81171e-05
2.08874e-05
2.36446e-05
2.63287e-05
2.88843e-05
3.12621e-05
3.34181e-05
3.53152e-05
3.70103e-05
3.84919e-05
3.97904e-05
4.09903e-05
4.21594e-05
4.35119e-05
4.53405e-05
4.80318e-05
5.20741e-05
5.80739e-05
6.67834e-05
7.91434e-05
9.63419e-05
0.000119895
0.000151754
0.000194447
0.000251265
0.000326499
0.000425749
0.000556326
0.000727766
0.000952512
0.00124679
0.00163178
0.00213514
0.00279306
0.00365299
0.00475798
0.00618976
0.00811146
0.010629
0.0139365
0.0242516
0.0410747
0.0580526
0.0749286
0.0914996
0.107603
0.123105
0.137894
0.15187
0.164941
0.177009
0.188002
0.197809
0.20632
0.213438
0.219089
0.223278
0.226136
0.227918
0.22894
0.229485
0.229757
0.229888
0.22995
0.229978
0.22999
0.229996
0.229998
0.229999
0.23
0.23
0.23
0.23
0.23
0.23
0.23
0.23
4.61002e-10
2.01487e-09
4.62718e-09
8.99934e-09
1.6272e-08
2.82765e-08
4.7908e-08
7.96642e-08
1.30389e-07
2.1025e-07
3.33923e-07
5.21883e-07
8.0152e-07
1.20762e-06
1.7815e-06
2.56818e-06
3.61115e-06
4.94531e-06
6.58965e-06
8.54186e-06
1.07764e-05
1.32459e-05
1.58848e-05
1.86698e-05
2.15271e-05
2.43878e-05
2.71897e-05
2.98791e-05
3.24126e-05
3.4761e-05
3.69151e-05
3.87883e-05
4.03991e-05
4.17898e-05
4.30432e-05
4.43005e-05
4.57819e-05
4.78011e-05
5.07711e-05
5.5211e-05
6.176e-05
7.12059e-05
8.45271e-05
0.000102955
0.000128059
0.000161857
0.000206962
0.000266777
0.000345733
0.000449609
0.000585939
0.000764535
0.000998165
0.00130344
0.00170193
0.00222169
0.00289917
0.00378179
0.00490408
0.00636006
0.00830544
0.0108428
0.0141527
0.0280861
0.0449095
0.0619118
0.0788008
0.0953569
0.111409
0.126822
0.141481
0.155285
0.168144
0.179923
0.190624
0.200094
0.208234
0.214958
0.220216
0.224046
0.226612
0.228187
0.22908
0.229553
0.229789
0.229903
0.229956
0.22998
0.229991
0.229996
0.229998
0.229999
0.23
0.23
0.23
0.23
0.23
0.23
0.23
0.23
4.76221e-10
2.08137e-09
4.77999e-09
9.29695e-09
1.68112e-08
2.92155e-08
4.95025e-08
8.23207e-08
1.34743e-07
2.17278e-07
3.45093e-07
5.39351e-07
8.2838e-07
1.24818e-06
1.84162e-06
2.65557e-06
3.73567e-06
5.11927e-06
6.82807e-06
8.86285e-06
1.12019e-05
1.38032e-05
1.66104e-05
1.95587e-05
2.25796e-05
2.56052e-05
2.85715e-05
3.14207e-05
3.41029e-05
3.65766e-05
3.88104e-05
4.07838e-05
4.25001e-05
4.39964e-05
4.53605e-05
4.67494e-05
4.84049e-05
5.0668e-05
5.39849e-05
5.89113e-05
6.61254e-05
7.64565e-05
9.09302e-05
0.000110835
0.000137811
0.000173973
0.000222064
0.000285662
0.000369436
0.000479494
0.000623817
0.000812836
0.00106017
0.0013836
0.00180629
0.00235838
0.00307899
0.00401859
0.00520829
0.00679288
0.00884322
0.0114787
0.0147784
0.0315187
0.0486407
0.0658087
0.0827669
0.099317
0.115302
0.130594
0.145085
0.158679
0.171286
0.182765
0.193143
0.202255
0.210013
0.216344
0.221223
0.224717
0.227019
0.228414
0.229197
0.22961
0.229815
0.229915
0.229961
0.229983
0.229992
0.229997
0.229999
0.229999
0.23
0.23
0.23
0.23
0.23
0.23
0.23
0.23
4.90594e-10
2.14411e-09
4.92389e-09
9.57663e-09
1.73171e-08
3.00957e-08
5.09972e-08
8.48144e-08
1.38842e-07
2.23922e-07
3.55712e-07
5.5608e-07
8.54325e-07
1.28775e-06
1.90086e-06
2.7425e-06
3.86055e-06
5.29463e-06
7.0686e-06
9.18503e-06
1.16234e-05
1.43423e-05
1.72843e-05
2.03823e-05
2.35649e-05
2.67609e-05
2.99026e-05
3.29283e-05
3.57838e-05
3.84241e-05
4.08151e-05
4.29377e-05
4.47962e-05
4.64319e-05
4.7942e-05
4.95008e-05
5.13746e-05
5.39365e-05
5.76699e-05
6.31704e-05
7.11583e-05
8.25081e-05
9.82968e-05
0.000119876
0.000148969
0.0001878
0.000239263
0.000307142
0.000396396
0.000513536
0.000667121
0.000868421
0.0011323
0.00147839
0.00193274
0.00252996
0.00331632
0.00434636
0.00568591
0.00751478
0.00994925
0.0132125
0.0175444
0.0348679
0.0523202
0.0696553
0.0866678
0.103189
0.119082
0.134228
0.148527
0.161888
0.174227
0.185434
0.195478
0.204236
0.211625
0.217586
0.222113
0.225305
0.227375
0.228612
0.2293
0.22966
0.229839
0.229926
0.229966
0.229985
0.229993
0.229997
0.229999
0.229999
0.23
0.23
0.23
0.23
0.23
0.23
0.23
0.23
5.04393e-10
2.20436e-09
5.06218e-09
9.84575e-09
1.78048e-08
3.09467e-08
5.24479e-08
8.72462e-08
1.42862e-07
2.3048e-07
3.6627e-07
5.72836e-07
8.80506e-07
1.32796e-06
1.96147e-06
2.832e-06
3.98978e-06
5.47685e-06
7.31928e-06
9.52138e-06
1.20637e-05
1.4905e-05
1.79873e-05
2.12421e-05
2.45955e-05
2.79736e-05
3.13054e-05
3.45258e-05
3.75769e-05
4.041e-05
4.29881e-05
4.52904e-05
4.73219e-05
4.91283e-05
5.08187e-05
5.2587e-05
5.47274e-05
5.76484e-05
6.18735e-05
6.80402e-05
7.69119e-05
8.94084e-05
0.000106658
0.000130076
0.000161464
0.000203151
0.000258169
0.000330479
0.000425277
0.000549389
0.000711796
0.00092434
0.00120267
0.00156753
0.00204652
0.00267649
0.00350698
0.00459009
0.00600274
0.00794404
0.0105438
0.0140547
0.0212059
0.0386314
0.0561476
0.0734927
0.0904637
0.106897
0.122657
0.137633
0.151727
0.164851
0.176921
0.187861
0.197587
0.20601
0.213055
0.218674
0.222883
0.225806
0.227674
0.228777
0.229385
0.229702
0.229859
0.229935
0.22997
0.229987
0.229994
0.229997
0.229999
0.23
0.23
0.23
0.23
0.23
0.23
0.23
0.23
0.23
5.17746e-10
2.26268e-09
5.19611e-09
1.01066e-08
1.82781e-08
3.17742e-08
5.38619e-08
8.96238e-08
1.46807e-07
2.36946e-07
3.76732e-07
5.89536e-07
9.06765e-07
1.36856e-06
2.02309e-06
2.92361e-06
4.12291e-06
5.66569e-06
7.58048e-06
9.87352e-06
1.25266e-05
1.54987e-05
1.87316e-05
2.21551e-05
2.56936e-05
2.92703e-05
3.28113e-05
3.62477e-05
3.95181e-05
4.25701e-05
4.53635e-05
4.78756e-05
5.01117e-05
5.21234e-05
5.40331e-05
5.60575e-05
5.85215e-05
6.1873e-05
6.66781e-05
7.36177e-05
8.3499e-05
9.72878e-05
0.000116165
0.000141608
0.000175498
0.000220262
0.000279052
0.000355979
0.000456413
0.000587384
0.0007581
0.000980638
0.00127086
0.00164962
0.00214443
0.00279159
0.00363917
0.00473426
0.00614865
0.00806621
0.0105888
0.0139111
0.0251545
0.0424762
0.0599095
0.0771704
0.0940405
0.110349
0.125958
0.140756
0.154647
0.167544
0.179343
0.190018
0.199455
0.207572
0.214304
0.219615
0.223541
0.226229
0.227925
0.228915
0.229457
0.229737
0.229876
0.229942
0.229974
0.229988
0.229995
0.229998
0.229999
0.23
0.23
0.23
0.23
0.23
0.23
0.23
0.23
0.23
5.30745e-10
2.31948e-09
5.32663e-09
1.03611e-08
1.87407e-08
3.25846e-08
5.52505e-08
9.19664e-08
1.50709e-07
2.43367e-07
3.87171e-07
6.06281e-07
9.33229e-07
1.4097e-06
2.08585e-06
3.01738e-06
4.25987e-06
5.86093e-06
7.85178e-06
1.02409e-05
1.30116e-05
1.61235e-05
1.95179e-05
2.31237e-05
2.68633e-05
3.06575e-05
3.4429e-05
3.81058e-05
4.16225e-05
4.4923e-05
4.79636e-05
5.07195e-05
5.31971e-05
5.54548e-05
5.7631e-05
5.99681e-05
6.28248e-05
6.6692e-05
7.21813e-05
8.00188e-05
9.10574e-05
0.000106313
0.000127023
0.000154737
0.000191426
0.000239628
0.000302633
0.000384718
0.000491452
0.000630095
0.000810108
0.00104384
0.00134739
0.00174183
0.00225471
0.00292218
0.00378954
0.00489994
0.00633222
0.00826827
0.0108108
0.0141463
0.0286453
0.0459227
0.063305
0.0804966
0.0972734
0.113463
0.128928
0.143559
0.157259
0.169946
0.181498
0.191929
0.201101
0.20894
0.215388
0.220422
0.224099
0.226584
0.228133
0.229029
0.229515
0.229766
0.229889
0.229949
0.229977
0.22999
0.229995
0.229998
0.229999
0.23
0.23
0.23
0.23
0.23
0.23
0.23
0.23
0.23
5.43389e-10
2.37474e-09
5.45369e-09
1.06091e-08
1.9192e-08
3.33767e-08
5.66108e-08
9.42674e-08
1.54554e-07
2.49716e-07
3.97533e-07
6.22972e-07
9.59728e-07
1.45108e-06
2.14929e-06
3.11264e-06
4.39969e-06
6.0612e-06
8.13141e-06
1.06214e-05
1.35161e-05
1.67765e-05
2.03436e-05
2.41457e-05
2.81033e-05
3.2135e-05
3.61606e-05
4.01046e-05
4.38978e-05
4.74802e-05
5.08046e-05
5.38442e-05
5.66067e-05
5.91589e-05
6.1658e-05
6.43752e-05
6.77056e-05
7.21864e-05
7.8476e-05
8.73479e-05
9.97032e-05
0.000116612
0.000139381
0.000169643
0.000209478
0.000261566
0.000329376
0.00041741
0.000531525
0.000679333
0.000870735
0.00111861
0.00143968
0.00185572
0.00239494
0.00309399
0.00399962
0.00515154
0.00662988
0.00859924
0.0111359
0.0143414
0.0313537
0.0487659
0.0662035
0.0833887
0.100111
0.116207
0.131549
0.14603
0.15956
0.172059
0.183408
0.19362
0.202548
0.210131
0.216322
0.221111
0.22457
0.22688
0.228305
0.229122
0.229563
0.229789
0.229901
0.229954
0.229979
0.229991
0.229996
0.229998
0.229999
0.23
0.23
0.23
0.23
0.23
0.23
0.23
0.23
0.23
5.5562e-10
2.4282e-09
5.5767e-09
1.08494e-08
1.96299e-08
3.41466e-08
5.79358e-08
9.65142e-08
1.58318e-07
2.55954e-07
4.07748e-07
6.3949e-07
9.86056e-07
1.49237e-06
2.21286e-06
3.20852e-06
4.54107e-06
6.26465e-06
8.41685e-06
1.10116e-05
1.40363e-05
1.7453e-05
2.12034e-05
2.52153e-05
2.94081e-05
3.36982e-05
3.80029e-05
4.22433e-05
4.63465e-05
5.02485e-05
5.38987e-05
5.72679e-05
6.03661e-05
6.32699e-05
6.61581e-05
6.93334e-05
7.32292e-05
7.84296e-05
8.56397e-05
9.56798e-05
0.000109501
0.000128233
0.000153255
0.000186298
0.00022957
0.000285918
0.000359031
0.000453704
0.00057618
0.000734597
0.000939563
0.00120493
0.00154878
0.00199479
0.00257393
0.00332677
0.00430638
0.0055424
0.00720494
0.00937602
0.0122125
0.0158479
0.0333924
0.0510921
0.0686658
0.0858893
0.102584
0.118606
0.133838
0.148184
0.161559
0.173887
0.185073
0.195074
0.203794
0.211156
0.217119
0.22169
0.224962
0.227124
0.228446
0.229198
0.229602
0.229808
0.22991
0.229958
0.229981
0.229991
0.229996
0.229998
0.229999
0.23
0.23
0.23
0.23
0.23
0.23
0.23
0.23
0.23
5.67332e-10
2.47941e-09
5.69458e-09
1.10799e-08
2.00505e-08
3.48871e-08
5.92125e-08
9.86839e-08
1.61963e-07
2.62011e-07
4.177e-07
6.55637e-07
1.01189e-06
1.53305e-06
2.27575e-06
3.3038e-06
4.68222e-06
6.46875e-06
8.70461e-06
1.14071e-05
1.45661e-05
1.81459e-05
2.20891e-05
2.63235e-05
3.07681e-05
3.53376e-05
3.99472e-05
4.45149e-05
4.89645e-05
5.32281e-05
5.72515e-05
6.10037e-05
6.44973e-05
6.78206e-05
7.11764e-05
7.48998e-05
7.9462e-05
8.54914e-05
9.37377e-05
0.000105064
0.000120469
0.000141139
0.000168527
0.000204461
0.000251273
0.000311972
0.000390462
0.000491822
0.000622673
0.000791664
0.00101011
0.00129285
0.00165939
0.00213545
0.00275509
0.00356356
0.00461737
0.0059635
0.00779456
0.0102147
0.0134354
0.0176769
0.0354398
0.0532674
0.0708958
0.0881171
0.104766
0.120708
0.135833
0.150048
0.163271
0.175421
0.186413
0.196201
0.204738
0.211956
0.217764
0.222168
0.225284
0.227324
0.228561
0.229261
0.229634
0.229824
0.229917
0.229962
0.229983
0.229992
0.229997
0.229999
0.229999
0.23
0.23
0.23
0.23
0.23
0.23
0.23
0.23
0.23
5.78384e-10
2.52774e-09
5.80588e-09
1.12977e-08
2.04483e-08
3.55886e-08
6.04242e-08
1.00748e-07
1.65439e-07
2.67803e-07
4.27244e-07
6.71176e-07
1.03684e-06
1.57248e-06
2.33698e-06
3.39697e-06
4.82088e-06
6.67025e-06
8.99018e-06
1.18016e-05
1.50978e-05
1.88453e-05
2.29886e-05
2.74564e-05
3.21675e-05
3.70363e-05
4.19761e-05
4.69029e-05
5.17375e-05
5.64086e-05
6.08586e-05
6.50552e-05
6.90146e-05
7.28386e-05
7.6756e-05
8.11329e-05
8.64739e-05
9.34474e-05
0.000102841
0.000115555
0.00013263
0.000155304
0.000185094
0.000223908
0.000274183
0.000339054
0.000422584
0.00053005
0.000668316
0.000846337
0.00107581
0.00137204
0.00175514
0.00225155
0.00289623
0.00373551
0.00482066
0.00620947
0.00809577
0.0105818
0.0138778
0.0195698
0.037419
0.0552829
0.0729074
0.0900918
0.106676
0.122531
0.137549
0.151639
0.16472
0.176718
0.187578
0.197249
0.20562
0.212631
0.21827
0.222549
0.225547
0.227488
0.228655
0.229311
0.22966
0.229837
0.229923
0.229964
0.229984
0.229993
0.229997
0.229999
0.229999
0.23
0.23
0.23
0.23
0.23
0.23
0.23
0.23
0.23
5.8861e-10
2.57246e-09
5.90893e-09
1.14995e-08
2.08172e-08
3.62401e-08
6.15515e-08
1.02672e-07
1.68687e-07
2.73228e-07
4.36212e-07
6.85822e-07
1.06044e-06
1.60992e-06
2.39535e-06
3.48618e-06
4.95429e-06
6.8651e-06
9.26782e-06
1.21875e-05
1.56209e-05
1.95378e-05
2.38853e-05
2.85936e-05
3.35828e-05
3.87674e-05
4.40604e-05
4.93767e-05
5.4635e-05
5.97616e-05
6.46966e-05
6.94073e-05
7.39149e-05
7.83369e-05
8.29293e-05
8.80836e-05
9.43308e-05
0.000102373
0.000113026
0.000127224
0.000146042
0.000170761
0.000202954
0.000244594
0.000298192
0.000366971
0.000455091
0.000567931
0.000712459
0.000897721
0.00113547
0.001441
0.00183425
0.00234124
0.00299603
0.00384322
0.00493115
0.00630985
0.00816318
0.0105735
0.0137154
0.0214644
0.0392881
0.0571163
0.0746918
0.0918108
0.108314
0.124075
0.138988
0.152966
0.165946
0.177854
0.188626
0.198167
0.206403
0.213279
0.218762
0.222877
0.225764
0.227624
0.228733
0.229353
0.229681
0.229847
0.229928
0.229967
0.229985
0.229993
0.229997
0.229999
0.229999
0.23
0.23
0.23
0.23
0.23
0.23
0.23
0.23
0.23
5.97829e-10
2.61279e-09
6.00188e-09
1.16816e-08
2.11506e-08
3.68295e-08
6.2573e-08
1.04418e-07
1.71641e-07
2.78177e-07
4.44414e-07
6.99259e-07
1.08216e-06
1.64452e-06
2.4495e-06
3.56932e-06
5.07921e-06
7.04849e-06
9.5306e-06
1.25548e-05
1.61221e-05
2.02059e-05
2.47564e-05
2.97069e-05
3.49794e-05
4.04902e-05
4.61535e-05
5.18842e-05
5.76012e-05
6.32299e-05
6.871e-05
7.401e-05
7.91587e-05
8.42925e-05
8.96936e-05
9.5769e-05
0.000103065
0.000112307
0.000124337
0.000140115
0.000160748
0.000187559
0.000222168
0.000266603
0.000323434
0.00039595
0.000488371
0.000606135
0.000756253
0.000947783
0.00119244
0.00150541
0.00190636
0.00242089
0.00308219
0.00393344
0.00502144
0.00639366
0.00823169
0.0106143
0.0137145
0.0231233
0.0409239
0.0587106
0.0762255
0.0932728
0.109706
0.125396
0.140243
0.154159
0.167057
0.178865
0.189519
0.19894
0.207055
0.213808
0.219168
0.223169
0.225945
0.227733
0.228795
0.229386
0.229698
0.229855
0.229932
0.229969
0.229986
0.229994
0.229997
0.229999
0.229999
0.23
0.23
0.23
0.23
0.23
0.23
0.23
0.23
0.23
6.05856e-10
2.64791e-09
6.08286e-09
1.18404e-08
2.14415e-08
3.73444e-08
6.34666e-08
1.05949e-07
1.74236e-07
2.82533e-07
4.51652e-07
7.11152e-07
1.10146e-06
1.67535e-06
2.49795e-06
3.64402e-06
5.19197e-06
7.21488e-06
9.77035e-06
1.2892e-05
1.65851e-05
2.08273e-05
2.55729e-05
3.07586e-05
3.63101e-05
4.21467e-05
4.81856e-05
5.43443e-05
6.05438e-05
6.67117e-05
7.27901e-05
7.87525e-05
8.46392e-05
9.06089e-05
9.69669e-05
0.000104118
0.000112609
0.000123184
0.000136703
0.000154151
0.000176671
0.000205626
0.000242683
0.000289922
0.000349969
0.000426169
0.000522795
0.00064533
0.000800819
0.000998326
0.00124954
0.00156955
0.00197779
0.00249938
0.00316717
0.00402402
0.00511582
0.00648899
0.00832387
0.0106972
0.0137799
0.0244831
0.0422822
0.0600434
0.0775223
0.0945334
0.110915
0.126544
0.141318
0.15515
0.167962
0.179682
0.190243
0.199567
0.207582
0.214232
0.219492
0.223401
0.2261
0.227822
0.228845
0.229413
0.229712
0.229862
0.229935
0.22997
0.229986
0.229994
0.229997
0.229999
0.229999
0.23
0.23
0.23
0.23
0.23
0.23
0.23
0.23
0.23
6.12515e-10
2.67705e-09
6.15005e-09
1.19722e-08
2.16832e-08
3.77727e-08
6.42109e-08
1.07226e-07
1.76405e-07
2.86181e-07
4.57729e-07
7.21162e-07
1.11774e-06
1.70147e-06
2.53914e-06
3.70778e-06
5.28866e-06
7.35826e-06
9.97804e-06
1.31858e-05
1.69911e-05
2.1376e-05
2.6299e-05
3.17015e-05
3.75135e-05
4.3659e-05
5.00598e-05
5.66386e-05
6.33217e-05
7.00425e-05
7.675e-05
8.34282e-05
9.01353e-05
9.70571e-05
0.000104514
0.000112882
0.000122694
0.000134705
0.000149793
0.000168971
0.000193419
0.000224543
0.000264062
0.00031411
0.000377369
0.00045724
0.000558054
0.000685344
0.000846196
0.00104968
0.00130743
0.00163441
0.00204997
0.00257927
0.00325511
0.00411971
0.00521696
0.00659279
0.00842609
0.0107905
0.0138525
0.025568
0.043371
0.0611166
0.0785714
0.0955408
0.111874
0.127448
0.142162
0.15593
0.168674
0.180323
0.190811
0.200057
0.207992
0.214562
0.219743
0.223579
0.226217
0.227894
0.228884
0.229433
0.229722
0.229867
0.229938
0.229971
0.229987
0.229994
0.229997
0.229999
0.23
0.23
0.23
0.23
0.23
0.23
0.23
0.23
0.23
0.23
6.17647e-10
2.69951e-09
6.20187e-09
1.20739e-08
2.18697e-08
3.81035e-08
6.47865e-08
1.08215e-07
1.78086e-07
2.89015e-07
4.6246e-07
7.28975e-07
1.13049e-06
1.72196e-06
2.57158e-06
3.75818e-06
5.36538e-06
7.47253e-06
1.01444e-05
1.34223e-05
1.73198e-05
2.1823e-05
2.68947e-05
3.24809e-05
3.85164e-05
4.49308e-05
5.16521e-05
5.86098e-05
6.57383e-05
7.29808e-05
8.02986e-05
8.76932e-05
9.52493e-05
0.000103187
0.000111832
0.000121501
0.000132694
0.000146172
0.000162831
0.000183715
0.000210043
0.000243272
0.000285172
0.000337933
0.000404299
0.000487728
0.000592606
0.000724514
0.000890564
0.00109985
0.00136403
0.00169813
0.00212162
0.00265938
0.00334332
0.00421509
0.00531767
0.006696
0.00852714
0.0108813
0.013914
0.0263703
0.0441869
0.0619292
0.0793613
0.0962987
0.112593
0.128124
0.142792
0.15651
0.169203
0.180798
0.19123
0.200419
0.208295
0.214804
0.219926
0.223709
0.226302
0.227946
0.228914
0.229448
0.22973
0.229871
0.229939
0.229972
0.229987
0.229994
0.229997
0.229999
0.23
0.23
0.23
0.23
0.23
0.23
0.23
0.23
0.23
0.23
6.21125e-10
2.71473e-09
6.23698e-09
1.21428e-08
2.19961e-08
3.83278e-08
6.51767e-08
1.08885e-07
1.79228e-07
2.90941e-07
4.65679e-07
7.343e-07
1.13919e-06
1.73599e-06
2.59384e-06
3.79287e-06
5.41839e-06
7.5518e-06
1.02603e-05
1.35879e-05
1.75511e-05
2.21393e-05
2.73189e-05
3.30395e-05
3.92405e-05
4.58564e-05
5.28211e-05
6.00715e-05
6.75506e-05
7.52128e-05
8.30342e-05
9.10374e-05
9.93382e-05
0.00010819
0.000117917
0.000128882
0.000141403
0.000156241
0.000174318
0.000196712
0.000224686
0.000259747
0.000303716
0.00035884
0.000427917
0.000514464
0.000622927
0.000758949
0.000929712
0.00114439
0.00141473
0.00175572
0.00218645
0.00273161
0.00342297
0.00430158
0.00540916
0.00678951
0.00861754
0.0109597
0.0139614
0.0268987
0.0447375
0.062479
0.0798972
0.0968124
0.113079
0.12858
0.143215
0.156899
0.169556
0.181114
0.191509
0.200659
0.208494
0.214963
0.220046
0.223793
0.226357
0.227979
0.228933
0.229459
0.229735
0.229873
0.22994
0.229973
0.229988
0.229994
0.229998
0.229999
0.23
0.23
0.23
0.23
0.23
0.23
0.23
0.23
0.23
0.23
6.2286e-10
2.7223e-09
6.25441e-09
1.21769e-08
2.20585e-08
3.8438e-08
6.5368e-08
1.09213e-07
1.79784e-07
2.91878e-07
4.67241e-07
7.36881e-07
1.14341e-06
1.74279e-06
2.60464e-06
3.80974e-06
5.44422e-06
7.59056e-06
1.03171e-05
1.36695e-05
1.76658e-05
2.2297e-05
2.75316e-05
3.33213e-05
3.96083e-05
4.633e-05
5.34239e-05
6.08315e-05
6.85014e-05
7.63953e-05
8.44993e-05
9.28495e-05
0.000101579
0.000110948
0.000121346
0.000133189
0.000146838
0.000162694
0.000181758
0.000205167
0.000234233
0.000270503
0.000315843
0.000372541
0.000443439
0.000532104
0.000643029
0.000781909
0.000955974
0.00117443
0.00144899
0.00179465
0.00223056
0.00278126
0.0034783
0.0043623
0.00547408
0.00685632
0.00868194
0.0110135
0.0139878
0.027159
0.045019
0.0627637
0.0801749
0.0970774
0.113329
0.128812
0.143428
0.157093
0.169731
0.181271
0.191645
0.200775
0.208591
0.21504
0.220103
0.223833
0.226383
0.227995
0.228942
0.229464
0.229737
0.229874
0.229941
0.229973
0.229988
0.229994
0.229998
0.229999
0.23
0.23
0.23
0.23
0.23
0.23
0.23
0.23
0.23
0.23
6.22875e-10
2.72237e-09
6.25456e-09
1.21772e-08
2.2059e-08
3.84389e-08
6.53694e-08
1.09216e-07
1.79788e-07
2.91884e-07
4.6725e-07
7.36895e-07
1.14343e-06
1.74282e-06
2.60468e-06
3.80979e-06
5.44429e-06
7.59064e-06
1.03172e-05
1.36696e-05
1.76659e-05
2.22971e-05
2.75316e-05
3.33214e-05
3.96083e-05
4.63299e-05
5.34238e-05
6.08313e-05
6.85011e-05
7.63949e-05
8.44987e-05
9.28489e-05
0.000101578
0.000110947
0.000121345
0.000133188
0.000146837
0.000162693
0.000181758
0.000205167
0.000234232
0.000270502
0.000315841
0.000372539
0.000443437
0.000532101
0.000643026
0.000781906
0.00095597
0.00117442
0.00144899
0.00179465
0.00223056
0.00278126
0.00347831
0.00436233
0.00547411
0.00685638
0.00868202
0.0110136
0.0139879
0.0271601
0.0450201
0.0627647
0.0801759
0.0970783
0.113329
0.128812
0.143429
0.157094
0.169732
0.181271
0.191646
0.200776
0.208591
0.21504
0.220103
0.223833
0.226383
0.227995
0.228942
0.229464
0.229737
0.229874
0.229941
0.229973
0.229988
0.229994
0.229998
0.229999
0.23
0.23
0.23
0.23
0.23
0.23
0.23
0.23
0.23
0.23
6.2117e-10
2.71492e-09
6.23741e-09
1.21437e-08
2.19976e-08
3.83303e-08
6.51809e-08
1.08892e-07
1.79239e-07
2.90958e-07
4.65705e-07
7.34339e-07
1.13925e-06
1.73608e-06
2.59395e-06
3.79303e-06
5.41859e-06
7.55204e-06
1.02605e-05
1.35882e-05
1.75514e-05
2.21396e-05
2.73191e-05
3.30396e-05
3.92405e-05
4.58563e-05
5.28208e-05
6.0071e-05
6.75498e-05
7.52117e-05
8.30328e-05
9.10358e-05
9.93363e-05
0.000108187
0.000117915
0.000128879
0.0001414
0.000156239
0.000174315
0.000196708
0.000224683
0.000259743
0.000303712
0.000358834
0.00042791
0.000514455
0.000622916
0.000758936
0.000929698
0.00114438
0.00141472
0.00175571
0.00218645
0.00273162
0.00342301
0.00430164
0.00540927
0.00678968
0.00861779
0.01096
0.0139617
0.0269022
0.0447409
0.0624822
0.0799002
0.0968152
0.113082
0.128582
0.143217
0.156901
0.169558
0.181116
0.19151
0.20066
0.208495
0.214964
0.220047
0.223794
0.226358
0.22798
0.228933
0.229459
0.229735
0.229873
0.22994
0.229973
0.229988
0.229994
0.229998
0.229999
0.23
0.23
0.23
0.23
0.23
0.23
0.23
0.23
0.23
0.23
6.17723e-10
2.69984e-09
6.20262e-09
1.20754e-08
2.18723e-08
3.81081e-08
6.47941e-08
1.08227e-07
1.78107e-07
2.89048e-07
4.62511e-07
7.29054e-07
1.1306e-06
1.72214e-06
2.57182e-06
3.75852e-06
5.36584e-06
7.47312e-06
1.01451e-05
1.34231e-05
1.73208e-05
2.18241e-05
2.68959e-05
3.2482e-05
3.85176e-05
4.49319e-05
5.16529e-05
5.86105e-05
6.57388e-05
7.2981e-05
8.02985e-05
8.7693e-05
9.52489e-05
0.000103187
0.000111831
0.0001215
0.000132694
0.000146171
0.000162831
0.000183715
0.000210043
0.000243271
0.000285171
0.000337932
0.000404296
0.000487724
0.0005926
0.000724505
0.000890551
0.00109984
0.00136401
0.00169812
0.00212162
0.0026594
0.00334336
0.00421518
0.00531781
0.00669624
0.00852748
0.0108817
0.0139145
0.0263764
0.0441928
0.0619347
0.0793666
0.0963036
0.112598
0.128128
0.142796
0.156514
0.169206
0.180801
0.191233
0.200421
0.208297
0.214806
0.219927
0.22371
0.226303
0.227946
0.228914
0.229449
0.22973
0.229871
0.229939
0.229972
0.229987
0.229994
0.229997
0.229999
0.23
0.23
0.23
0.23
0.23
0.23
0.23
0.23
0.23
0.23
6.12618e-10
2.6775e-09
6.15108e-09
1.19742e-08
2.16867e-08
3.77788e-08
6.42212e-08
1.07243e-07
1.76432e-07
2.86225e-07
4.57797e-07
7.21267e-07
1.1179e-06
1.7017e-06
2.53947e-06
3.70823e-06
5.28925e-06
7.35902e-06
9.97897e-06
1.31869e-05
1.69923e-05
2.13773e-05
2.63004e-05
3.17029e-05
3.75149e-05
4.36602e-05
5.00608e-05
5.66394e-05
6.33222e-05
7.00426e-05
7.67498e-05
8.34277e-05
9.01345e-05
9.70563e-05
0.000104513
0.000112881
0.000122694
0.000134705
0.000149793
0.000168972
0.00019342
0.000224545
0.000264065
0.000314112
0.000377372
0.000457243
0.000558057
0.000685346
0.000846196
0.00104968
0.00130742
0.0016344
0.00204996
0.00257928
0.00325514
0.00411978
0.00521709
0.00659303
0.00842649
0.010791
0.013853
0.0255767
0.0433794
0.0611246
0.0785788
0.0955477
0.11188
0.127454
0.142168
0.155935
0.168679
0.180327
0.190814
0.20006
0.207995
0.214564
0.219744
0.223581
0.226218
0.227895
0.228884
0.229433
0.229722
0.229867
0.229938
0.229971
0.229987
0.229994
0.229997
0.229999
0.23
0.23
0.23
0.23
0.23
0.23
0.23
0.23
0.23
0.23
6.05984e-10
2.64847e-09
6.08413e-09
1.18429e-08
2.14459e-08
3.7352e-08
6.34794e-08
1.0597e-07
1.7427e-07
2.82587e-07
4.51736e-07
7.11281e-07
1.10165e-06
1.67563e-06
2.49835e-06
3.64457e-06
5.1927e-06
7.21582e-06
9.77149e-06
1.28933e-05
1.65866e-05
2.0829e-05
2.55746e-05
3.07604e-05
3.63118e-05
4.21483e-05
4.81869e-05
5.43453e-05
6.05445e-05
6.67121e-05
7.27901e-05
7.87522e-05
8.46387e-05
9.06083e-05
9.69665e-05
0.000104118
0.00011261
0.000123185
0.000136706
0.000154156
0.000176678
0.000205635
0.000242695
0.000289936
0.000349987
0.000426188
0.000522817
0.000645353
0.000800842
0.000998347
0.00124956
0.00156955
0.00197778
0.00249936
0.00316713
0.00402401
0.00511585
0.00648913
0.00832422
0.0106978
0.0137804
0.0244944
0.0422931
0.0600537
0.0775321
0.0945426
0.110924
0.126552
0.141325
0.155157
0.167969
0.179688
0.190249
0.199572
0.207586
0.214235
0.219494
0.223403
0.226101
0.227822
0.228845
0.229413
0.229712
0.229862
0.229935
0.22997
0.229986
0.229994
0.229997
0.229999
0.229999
0.23
0.23
0.23
0.23
0.23
0.23
0.23
0.23
0.23
5.9798e-10
2.61345e-09
6.00339e-09
1.16845e-08
2.11558e-08
3.68385e-08
6.25881e-08
1.04443e-07
1.71682e-07
2.78241e-07
4.44513e-07
6.99411e-07
1.08239e-06
1.64486e-06
2.44998e-06
3.56997e-06
5.08007e-06
7.04959e-06
9.53195e-06
1.25564e-05
1.61239e-05
2.02079e-05
2.47585e-05
2.9709e-05
3.49815e-05
4.04921e-05
4.61551e-05
5.18856e-05
5.76022e-05
6.32307e-05
6.87104e-05
7.40102e-05
7.91589e-05
8.42928e-05
8.96944e-05
9.57707e-05
0.000103068
0.000112312
0.000124345
0.000140126
0.000160763
0.000187579
0.000222195
0.000266636
0.000323476
0.000396001
0.000488432
0.000606206
0.000756333
0.000947872
0.00119254
0.00150551
0.00190646
0.00242099
0.0030823
0.00393356
0.0050216
0.00639392
0.00823209
0.0106148
0.0137148
0.0231366
0.0409371
0.0587234
0.0762379
0.0932846
0.109717
0.125407
0.140253
0.154169
0.167066
0.178875
0.189528
0.198947
0.207061
0.213812
0.219171
0.223171
0.225946
0.227734
0.228796
0.229387
0.229698
0.229855
0.229932
0.229969
0.229986
0.229994
0.229997
0.229999
0.229999
0.23
0.23
0.23
0.23
0.23
0.23
0.23
0.23
0.23
5.88783e-10
2.57322e-09
5.91065e-09
1.15028e-08
2.08232e-08
3.62504e-08
6.15688e-08
1.027e-07
1.68733e-07
2.73301e-07
4.36326e-07
6.85996e-07
1.0607e-06
1.61031e-06
2.39589e-06
3.48693e-06
4.95528e-06
6.86636e-06
9.26938e-06
1.21893e-05
1.5623e-05
1.95401e-05
2.38877e-05
2.8596e-05
3.35852e-05
3.87696e-05
4.40625e-05
4.93784e-05
5.46364e-05
5.97627e-05
6.46975e-05
6.94081e-05
7.39157e-05
7.83381e-05
8.29312e-05
8.80869e-05
9.43361e-05
0.000102381
0.000113038
0.000127241
0.000146065
0.000170793
0.000202997
0.00024465
0.000298264
0.000367064
0.00045521
0.000568082
0.00071265
0.00089796
0.00113577
0.00144137
0.00183471
0.0023418
0.00299669
0.00384395
0.00493189
0.0063104
0.00816322
0.0105725
0.0137126
0.0214806
0.0393038
0.0571315
0.0747064
0.0918247
0.108327
0.124087
0.139001
0.15298
0.165962
0.177877
0.188639
0.198176
0.206411
0.213285
0.218766
0.22288
0.225766
0.227625
0.228733
0.229353
0.229681
0.229847
0.229928
0.229967
0.229985
0.229993
0.229997
0.229999
0.229999
0.23
0.23
0.23
0.23
0.23
0.23
0.23
0.23
0.23
5.78577e-10
2.52858e-09
5.8078e-09
1.13014e-08
2.0455e-08
3.56001e-08
6.04435e-08
1.0078e-07
1.6549e-07
2.67884e-07
4.27372e-07
6.71371e-07
1.03713e-06
1.57291e-06
2.33758e-06
3.3978e-06
4.82198e-06
6.67166e-06
8.99191e-06
1.18037e-05
1.51002e-05
1.88479e-05
2.29913e-05
2.74591e-05
3.21703e-05
3.70389e-05
4.19785e-05
4.6905e-05
5.17392e-05
5.641e-05
6.08597e-05
6.50562e-05
6.90157e-05
7.28402e-05
7.67585e-05
8.11369e-05
8.64803e-05
9.34574e-05
0.000102856
0.000115577
0.00013266
0.000155345
0.00018515
0.000223983
0.000274281
0.000339182
0.00042275
0.000530263
0.000668587
0.000846677
0.00107623
0.00137255
0.00175573
0.0022522
0.00289689
0.00373608
0.00482099
0.0062093
0.00809483
0.01058
0.0138758
0.0195901
0.0374373
0.0553
0.0729236
0.0901072
0.106691
0.122544
0.137561
0.151649
0.164725
0.176714
0.187581
0.197254
0.205625
0.212635
0.218273
0.222552
0.225549
0.227489
0.228656
0.229312
0.22966
0.229837
0.229923
0.229964
0.229984
0.229993
0.229997
0.229999
0.229999
0.23
0.23
0.23
0.23
0.23
0.23
0.23
0.23
0.23
5.67542e-10
2.48033e-09
5.69668e-09
1.1084e-08
2.00578e-08
3.48997e-08
5.92336e-08
9.87188e-08
1.6202e-07
2.62101e-07
4.1784e-07
6.55851e-07
1.01221e-06
1.53351e-06
2.27641e-06
3.30471e-06
4.68343e-06
6.4703e-06
8.70652e-06
1.14093e-05
1.45687e-05
1.81487e-05
2.2092e-05
2.63266e-05
3.0771e-05
3.53404e-05
3.99497e-05
4.45171e-05
4.89663e-05
5.32296e-05
5.72525e-05
6.10045e-05
6.4498e-05
6.78216e-05
7.11781e-05