/*--------------------------------*- C++ -*----------------------------------*\
  =========                 |
  \\      /  F ield         | OpenFOAM: The Open Source CFD Toolbox
   \\    /   O peration     | Website:  https://openfoam.org
    \\  /    A nd           | Version:  8
     \\/     M anipulation  |
\*---------------------------------------------------------------------------*/
FoamFile
{
    version     2.0;
    format      ascii;
    class       surfaceScalarField;
    location    "340/fluid";
    object      phi;
}
// * * * * * * * * * * * * * * * * * * * * * * * * * * * * * * * * * * * * * //

dimensions      [1 0 -1 0 0 0 0];

internalField   nonuniform List<scalar> 
7860
(
6.57393e-07
-1.72386e-08
6.54984e-07
-5.17422e-08
6.51556e-07
-8.61176e-08
6.4701e-07
-1.20245e-07
6.41229e-07
-1.54111e-07
6.34068e-07
-1.87683e-07
6.25364e-07
-2.20894e-07
6.14935e-07
-2.53641e-07
6.02599e-07
-2.85781e-07
5.88173e-07
-3.1712e-07
5.71491e-07
-3.47402e-07
5.52421e-07
-3.76297e-07
5.30893e-07
-4.03386e-07
5.0696e-07
-4.28159e-07
4.80874e-07
-4.50026e-07
4.52928e-07
-4.6833e-07
4.2351e-07
-4.82471e-07
3.93093e-07
-4.92048e-07
3.62195e-07
-4.96988e-07
3.31316e-07
-4.97605e-07
3.00886e-07
-4.94546e-07
2.71241e-07
-4.88645e-07
2.42611e-07
-4.80752e-07
2.1513e-07
-4.71603e-07
1.8891e-07
-4.61763e-07
1.63948e-07
-4.51605e-07
1.40191e-07
-4.41362e-07
1.17563e-07
-4.31161e-07
9.59909e-08
-4.21063e-07
7.54018e-08
-4.11092e-07
5.57322e-08
-4.01253e-07
3.69264e-08
-3.91545e-07
1.89355e-08
-3.81972e-07
1.71637e-09
-3.72542e-07
-1.47606e-08
-3.63272e-07
-3.05235e-08
-3.5418e-07
-4.56057e-08
-3.45256e-07
-6.00357e-08
-3.36489e-07
-7.384e-08
-3.27903e-07
-8.70434e-08
-3.19518e-07
-9.96694e-08
-3.11354e-07
-1.1174e-07
-3.03427e-07
-1.23277e-07
-2.95754e-07
-1.343e-07
-2.88345e-07
-1.44828e-07
-2.81212e-07
-1.54881e-07
-2.74363e-07
-1.64474e-07
-2.67801e-07
-1.73624e-07
-2.61533e-07
-1.82348e-07
-2.55559e-07
-1.90659e-07
-2.49881e-07
-1.98572e-07
-2.44502e-07
-2.061e-07
-2.39423e-07
-2.13258e-07
-2.34648e-07
-2.20058e-07
-2.30184e-07
-2.26517e-07
-2.26043e-07
-2.32653e-07
-2.22244e-07
-2.38488e-07
-2.18813e-07
-2.44054e-07
-2.15792e-07
-2.4939e-07
-2.13273e-07
-2.54544e-07
-2.113e-07
-2.59574e-07
-2.09952e-07
-2.64582e-07
-2.09475e-07
-2.69857e-07
-2.10084e-07
-2.77775e-07
-2.1298e-07
-2.8549e-07
-2.25164e-07
-2.94415e-07
-2.38688e-07
-3.0429e-07
-2.5347e-07
-3.15159e-07
-2.69661e-07
-3.27151e-07
-2.87487e-07
-3.40438e-07
-3.07211e-07
-3.5525e-07
-3.29147e-07
-3.719e-07
-3.53681e-07
-3.90808e-07
-3.81269e-07
-4.12535e-07
-4.12452e-07
-4.37808e-07
-4.4798e-07
-4.67544e-07
-4.88398e-07
-5.02752e-07
-5.33475e-07
-5.443e-07
-5.817e-07
-5.92257e-07
-6.29457e-07
-6.46202e-07
-6.70552e-07
-7.04606e-07
-6.97928e-07
-7.64768e-07
-7.07241e-07
-8.23631e-07
-6.99147e-07
-8.788e-07
-6.77808e-07
-9.28943e-07
-6.47831e-07
-9.73567e-07
-6.12803e-07
-1.01254e-06
-5.74808e-07
-1.04583e-06
-5.3496e-07
-1.07397e-06
-4.93781e-07
-1.09757e-06
-4.51685e-07
-1.11719e-06
-4.08987e-07
-1.13335e-06
-3.65926e-07
-1.14653e-06
-3.22679e-07
-1.15714e-06
-2.79371e-07
-1.16555e-06
-2.3609e-07
-1.17208e-06
-1.92898e-07
-1.177e-06
-1.49807e-07
-1.18052e-06
-1.06773e-07
-1.18283e-06
-6.38353e-08
-2.12025e-08
6.57964e-07
-1.66689e-08
6.56027e-07
-4.98051e-08
6.52653e-07
-8.2744e-08
6.47842e-07
-1.15434e-07
6.41533e-07
-1.47802e-07
6.33636e-07
-1.79785e-07
6.24046e-07
-2.11304e-07
6.12656e-07
-2.42251e-07
5.99365e-07
-2.72488e-07
5.84088e-07
-3.0184e-07
5.6677e-07
-3.30079e-07
5.47392e-07
-3.56912e-07
5.25985e-07
-3.81968e-07
5.02647e-07
-4.04804e-07
4.77565e-07
-4.2492e-07
4.50971e-07
-4.41702e-07
4.23165e-07
-4.54619e-07
3.94509e-07
-4.63332e-07
3.654e-07
-4.67807e-07
3.36228e-07
-4.68349e-07
3.07332e-07
-4.65559e-07
2.78982e-07
-4.602e-07
2.51372e-07
-4.53044e-07
2.24622e-07
-4.44757e-07
1.98821e-07
-4.35866e-07
1.73998e-07
-4.26691e-07
1.50152e-07
-4.17428e-07
1.27263e-07
-4.08187e-07
1.05301e-07
-3.99022e-07
8.4236e-08
-3.89952e-07
6.40353e-08
-3.80982e-07
4.46683e-08
-3.72112e-07
2.61038e-08
-3.63346e-07
8.31115e-09
-3.54691e-07
-8.7384e-09
-3.46166e-07
-2.50717e-08
-3.3779e-07
-4.07152e-08
-3.29555e-07
-5.56947e-08
-3.2145e-07
-7.00356e-08
-3.13501e-07
-8.37627e-08
-3.05728e-07
-9.69001e-08
-2.98152e-07
-1.09472e-07
-2.90791e-07
-1.215e-07
-2.83659e-07
-1.33009e-07
-2.7677e-07
-1.44018e-07
-2.70135e-07
-1.54551e-07
-2.63762e-07
-1.64626e-07
-2.57657e-07
-1.74264e-07
-2.51826e-07
-1.83484e-07
-2.4627e-07
-1.92304e-07
-2.40992e-07
-2.00743e-07
-2.35995e-07
-2.08819e-07
-2.31279e-07
-2.16553e-07
-2.26847e-07
-2.23966e-07
-2.22706e-07
-2.31082e-07
-2.18863e-07
-2.37932e-07
-2.15332e-07
-2.44552e-07
-2.12132e-07
-2.50993e-07
-2.09292e-07
-2.57321e-07
-2.06887e-07
-2.63624e-07
-2.04939e-07
-2.7003e-07
-2.03485e-07
-2.76728e-07
-2.02706e-07
-2.83808e-07
-2.02749e-07
-2.92612e-07
-2.06777e-07
-3.00507e-07
-2.17607e-07
-3.09781e-07
-2.29786e-07
-3.20312e-07
-2.43353e-07
-3.32079e-07
-2.58355e-07
-3.45158e-07
-2.74925e-07
-3.59688e-07
-2.93262e-07
-3.75857e-07
-3.13635e-07
-3.93905e-07
-3.36374e-07
-4.14132e-07
-3.61882e-07
-4.3687e-07
-3.90666e-07
-4.62502e-07
-4.2343e-07
-4.91518e-07
-4.60597e-07
-5.24463e-07
-5.01859e-07
-5.61858e-07
-5.45692e-07
-6.03985e-07
-5.88677e-07
-6.50846e-07
-6.24867e-07
-7.016e-07
-6.48071e-07
-7.54371e-07
-6.55065e-07
-8.06853e-07
-6.47013e-07
-8.57143e-07
-6.27701e-07
-9.04085e-07
-6.00979e-07
-9.47163e-07
-5.69767e-07
-9.86174e-07
-5.35817e-07
-1.02099e-06
-5.00155e-07
-1.05167e-06
-4.63102e-07
-1.07838e-06
-4.24973e-07
-1.10135e-06
-3.86017e-07
-1.12085e-06
-3.46432e-07
-1.13716e-06
-3.0637e-07
-1.15057e-06
-2.65954e-07
-1.16138e-06
-2.25282e-07
-1.16984e-06
-1.84441e-07
-1.17616e-06
-1.43481e-07
-1.18053e-06
-1.02407e-07
-1.18304e-06
-6.13285e-08
-2.04172e-08
6.57693e-07
-1.58284e-08
6.55258e-07
-4.73697e-08
6.51236e-07
-7.87223e-08
6.45597e-07
-1.09794e-07
6.383e-07
-1.40505e-07
6.293e-07
-1.70785e-07
6.1855e-07
-2.00553e-07
6.06008e-07
-2.29708e-07
5.91649e-07
-2.58127e-07
5.75466e-07
-2.85655e-07
5.57481e-07
-3.12091e-07
5.37746e-07
-3.37172e-07
5.16348e-07
-3.60561e-07
4.93393e-07
-3.81836e-07
4.68994e-07
-4.00501e-07
4.43354e-07
-4.16033e-07
4.16741e-07
-4.27967e-07
3.89469e-07
-4.36012e-07
3.61872e-07
-4.4015e-07
3.34269e-07
-4.40676e-07
3.06932e-07
-4.38146e-07
2.80072e-07
-4.33259e-07
2.5383e-07
-4.26721e-07
2.28295e-07
-4.19139e-07
2.03487e-07
-4.10979e-07
1.79427e-07
-4.02552e-07
1.56125e-07
-3.94051e-07
1.33588e-07
-3.85578e-07
1.11815e-07
-3.77179e-07
9.07991e-08
-3.68871e-07
7.05329e-08
-3.60653e-07
5.10035e-08
-3.52524e-07
3.21965e-08
-3.44483e-07
1.40953e-08
-3.36538e-07
-3.31803e-09
-3.28703e-07
-2.00603e-08
-3.20999e-07
-3.61497e-08
-3.13415e-07
-5.16055e-08
-3.05942e-07
-6.6448e-08
-2.98604e-07
-8.06985e-08
-2.91422e-07
-9.43787e-08
-2.84415e-07
-1.07511e-07
-2.776e-07
-1.20118e-07
-2.70992e-07
-1.32222e-07
-2.64605e-07
-1.43846e-07
-2.58449e-07
-1.55013e-07
-2.52532e-07
-1.65745e-07
-2.46861e-07
-1.76067e-07
-2.4144e-07
-1.86e-07
-2.36273e-07
-1.95569e-07
-2.3136e-07
-2.04797e-07
-2.26702e-07
-2.13711e-07
-2.22302e-07
-2.22338e-07
-2.18158e-07
-2.30709e-07
-2.14275e-07
-2.38858e-07
-2.10655e-07
-2.46826e-07
-2.07307e-07
-2.54661e-07
-2.04242e-07
-2.62425e-07
-2.01477e-07
-2.7019e-07
-1.99073e-07
-2.7806e-07
-1.97024e-07
-2.86151e-07
-1.9535e-07
-2.94618e-07
-1.94195e-07
-3.03475e-07
-1.93642e-07
-3.1269e-07
-1.99425e-07
-3.21481e-07
-2.09167e-07
-3.31424e-07
-2.20223e-07
-3.42559e-07
-2.32636e-07
-3.54941e-07
-2.46439e-07
-3.6865e-07
-2.61735e-07
-3.83791e-07
-2.78705e-07
-4.00486e-07
-2.97595e-07
-4.18875e-07
-3.18725e-07
-4.39104e-07
-3.42487e-07
-4.61287e-07
-3.69425e-07
-4.85556e-07
-4.00221e-07
-5.12145e-07
-4.35181e-07
-5.41411e-07
-4.73851e-07
-5.73958e-07
-5.14427e-07
-6.10734e-07
-5.53108e-07
-6.52235e-07
-5.84385e-07
-6.97917e-07
-6.03144e-07
-7.461e-07
-6.07373e-07
-7.94658e-07
-5.98739e-07
-8.41813e-07
-5.80695e-07
-8.86423e-07
-5.56443e-07
-9.27918e-07
-5.28307e-07
-9.66109e-07
-4.97642e-07
-1.00105e-06
-4.65219e-07
-1.03268e-06
-4.31477e-07
-1.06097e-06
-3.96683e-07
-1.08597e-06
-3.61022e-07
-1.10776e-06
-3.24638e-07
-1.12648e-06
-2.87649e-07
-1.14228e-06
-2.50155e-07
-1.15532e-06
-2.12246e-07
-1.16575e-06
-1.74012e-07
-1.17371e-06
-1.35516e-07
-1.17933e-06
-9.67901e-08
-1.18269e-06
-5.79696e-08
-1.92843e-08
6.577e-07
-1.49947e-08
6.55178e-07
-4.48475e-08
6.50961e-07
-7.45058e-08
6.45047e-07
-1.03879e-07
6.37424e-07
-1.32882e-07
6.28079e-07
-1.61441e-07
6.17002e-07
-1.89475e-07
6.04183e-07
-2.16889e-07
5.89622e-07
-2.43566e-07
5.7333e-07
-2.69361e-07
5.55333e-07
-2.94091e-07
5.35678e-07
-3.17511e-07
5.14437e-07
-3.39313e-07
4.91722e-07
-3.59109e-07
4.67685e-07
-3.76447e-07
4.42528e-07
-3.90854e-07
4.165e-07
-4.01908e-07
3.8988e-07
-4.09353e-07
3.62958e-07
-4.1318e-07
3.36009e-07
-4.13671e-07
3.0927e-07
-4.11345e-07
2.8293e-07
-4.06852e-07
2.57123e-07
-4.00844e-07
2.31936e-07
-3.93882e-07
2.07419e-07
-3.86392e-07
1.83597e-07
-3.78662e-07
1.60479e-07
-3.70867e-07
1.38065e-07
-3.63101e-07
1.16351e-07
-3.55405e-07
9.5329e-08
-3.47792e-07
7.49895e-08
-3.4026e-07
5.53229e-08
-3.32806e-07
3.63182e-08
-3.25431e-07
1.79638e-08
-3.18139e-07
2.46744e-10
-3.10944e-07
-1.68466e-08
-3.03865e-07
-3.33296e-08
-2.96889e-07
-4.92178e-08
-2.90009e-07
-6.45286e-08
-2.83247e-07
-7.92806e-08
-2.76622e-07
-9.34936e-08
-2.70152e-07
-1.07189e-07
-2.63853e-07
-1.20387e-07
-2.57741e-07
-1.33112e-07
-2.51826e-07
-1.45385e-07
-2.46119e-07
-1.57232e-07
-2.40628e-07
-1.68677e-07
-2.35359e-07
-1.79743e-07
-2.30315e-07
-1.90458e-07
-2.25499e-07
-2.00848e-07
-2.20911e-07
-2.1094e-07
-2.16551e-07
-2.20765e-07
-2.12419e-07
-2.30352e-07
-2.08514e-07
-2.39735e-07
-2.04836e-07
-2.48952e-07
-2.01386e-07
-2.58042e-07
-1.98167e-07
-2.67052e-07
-1.95187e-07
-2.76034e-07
-1.92454e-07
-2.85045e-07
-1.90028e-07
-2.94179e-07
-1.87861e-07
-3.03511e-07
-1.85996e-07
-3.13194e-07
-1.84491e-07
-3.23239e-07
-1.83391e-07
-3.32819e-07
-1.90672e-07
-3.42613e-07
-1.99698e-07
-3.53313e-07
-2.09887e-07
-3.6504e-07
-2.21317e-07
-3.7789e-07
-2.34047e-07
-3.91953e-07
-2.48186e-07
-4.07323e-07
-2.63913e-07
-4.24096e-07
-2.81473e-07
-4.42371e-07
-3.0118e-07
-4.62254e-07
-3.23424e-07
-4.83827e-07
-3.48774e-07
-5.07244e-07
-3.77831e-07
-5.32801e-07
-4.10747e-07
-5.60952e-07
-4.46885e-07
-5.92336e-07
-4.84222e-07
-6.27632e-07
-5.18891e-07
-6.6711e-07
-5.45789e-07
-7.10154e-07
-5.60735e-07
-7.55281e-07
-5.62647e-07
-8.00749e-07
-5.53499e-07
-8.45129e-07
-5.36435e-07
-8.8746e-07
-5.14171e-07
-9.272e-07
-4.88594e-07
-9.64075e-07
-4.60781e-07
-9.9797e-07
-4.3133e-07
-1.02886e-06
-4.00588e-07
-1.05676e-06
-3.68781e-07
-1.08172e-06
-3.3607e-07
-1.10377e-06
-3.02586e-07
-1.12298e-06
-2.68434e-07
-1.13943e-06
-2.33707e-07
-1.15319e-06
-1.98491e-07
-1.16432e-06
-1.62878e-07
-1.1729e-06
-1.26934e-07
-1.17899e-06
-9.0705e-08
-1.18262e-06
-5.4341e-08
-1.80809e-08
6.57636e-07
-1.40971e-08
6.54965e-07
-4.21766e-08
6.50531e-07
-7.00715e-08
6.44337e-07
-9.76849e-08
6.36387e-07
-1.24932e-07
6.26685e-07
-1.51739e-07
6.1524e-07
-1.7803e-07
6.02065e-07
-2.03713e-07
5.87181e-07
-2.28681e-07
5.70621e-07
-2.528e-07
5.52434e-07
-2.75901e-07
5.32688e-07
-2.97762e-07
5.11474e-07
-3.18094e-07
4.88915e-07
-3.36542e-07
4.65167e-07
-3.52686e-07
4.40422e-07
-3.66091e-07
4.14906e-07
-3.76369e-07
3.88871e-07
-3.83287e-07
3.62572e-07
-3.86844e-07
3.3625e-07
-3.87305e-07
3.10112e-07
-3.85159e-07
2.84323e-07
-3.81011e-07
2.59001e-07
-3.75467e-07
2.34222e-07
-3.69048e-07
2.10035e-07
-3.62149e-07
1.86463e-07
-3.55037e-07
1.6352e-07
-3.47871e-07
1.41208e-07
-3.40739e-07
1.19528e-07
-3.33677e-07
9.84762e-08
-3.26693e-07
7.80475e-08
-3.19787e-07
5.82363e-08
-3.12953e-07
3.90352e-08
-3.0619e-07
2.04354e-08
-2.99502e-07
2.42652e-09
-2.929e-07
-1.50017e-08
-2.86402e-07
-3.18616e-08
-2.79992e-07
-4.8166e-08
-2.73666e-07
-6.39297e-08
-2.67443e-07
-7.91694e-08
-2.6134e-07
-9.39034e-08
-2.55374e-07
-1.08151e-07
-2.4956e-07
-1.21934e-07
-2.43911e-07
-1.35273e-07
-2.38438e-07
-1.48191e-07
-2.33151e-07
-1.60713e-07
-2.28055e-07
-1.72863e-07
-2.23157e-07
-1.84667e-07
-2.18458e-07
-1.96151e-07
-2.13961e-07
-2.07343e-07
-2.09665e-07
-2.18271e-07
-2.05569e-07
-2.28966e-07
-2.01672e-07
-2.39457e-07
-1.97971e-07
-2.49777e-07
-1.94465e-07
-2.59959e-07
-1.91156e-07
-2.70037e-07
-1.88046e-07
-2.80044e-07
-1.85141e-07
-2.9001e-07
-1.8246e-07
-2.9997e-07
-1.80051e-07
-3.0997e-07
-1.77863e-07
-3.20008e-07
-1.75989e-07
-3.30126e-07
-1.74445e-07
-3.4164e-07
-1.73294e-07
-3.51671e-07
-1.8086e-07
-3.62293e-07
-1.8936e-07
-3.7366e-07
-1.9886e-07
-3.85919e-07
-2.09454e-07
-3.99181e-07
-2.21235e-07
-4.13539e-07
-2.34336e-07
-4.29078e-07
-2.48945e-07
-4.45882e-07
-2.6531e-07
-4.64034e-07
-2.83747e-07
-4.83611e-07
-3.0465e-07
-5.04679e-07
-3.28603e-07
-5.27394e-07
-3.56107e-07
-5.52037e-07
-3.87173e-07
-5.79042e-07
-4.20986e-07
-6.09013e-07
-4.55327e-07
-6.42564e-07
-4.86299e-07
-6.79895e-07
-5.09218e-07
-7.20398e-07
-5.20762e-07
-7.62754e-07
-5.2062e-07
-8.05484e-07
-5.10954e-07
-8.47395e-07
-4.9462e-07
-8.87682e-07
-4.73931e-07
-9.25864e-07
-4.50434e-07
-9.61661e-07
-4.24994e-07
-9.94904e-07
-3.98092e-07
-1.02549e-06
-3.70005e-07
-1.05336e-06
-3.40912e-07
-1.07849e-06
-3.10944e-07
-1.10087e-06
-2.80205e-07
-1.12052e-06
-2.48787e-07
-1.13745e-06
-2.1677e-07
-1.15171e-06
-1.84235e-07
-1.16332e-06
-1.51269e-07
-1.17231e-06
-1.17941e-07
-1.17871e-06
-8.43035e-08
-1.18254e-06
-5.05088e-08
-1.68027e-08
6.57625e-07
-1.3188e-08
6.54903e-07
-3.9455e-08
6.50378e-07
-6.55469e-08
6.44063e-07
-9.13699e-08
6.35972e-07
-1.16841e-07
6.26122e-07
-1.41889e-07
6.14533e-07
-1.6644e-07
6.0123e-07
-1.90409e-07
5.86245e-07
-2.13696e-07
5.69622e-07
-2.36176e-07
5.51414e-07
-2.57692e-07
5.31693e-07
-2.78038e-07
5.10553e-07
-2.9695e-07
4.88114e-07
-3.14096e-07
4.64529e-07
-3.29092e-07
4.39986e-07
-3.41535e-07
4.14705e-07
-3.5107e-07
3.88927e-07
-3.57486e-07
3.62897e-07
-3.60786e-07
3.36846e-07
-3.61222e-07
3.10971e-07
-3.59247e-07
2.85426e-07
-3.55426e-07
2.60321e-07
-3.50321e-07
2.3573e-07
-3.44414e-07
2.11693e-07
-3.3807e-07
1.88235e-07
-3.31536e-07
1.65363e-07
-3.24958e-07
1.43081e-07
-3.18416e-07
1.21386e-07
-3.11943e-07
1.00274e-07
-3.05545e-07
7.97418e-08
-2.99219e-07
5.97828e-08
-2.9296e-07
4.03908e-08
-2.86765e-07
2.15584e-08
-2.80638e-07
3.27654e-09
-2.74589e-07
-1.44641e-08
-2.68633e-07
-3.16742e-08
-2.62752e-07
-4.83647e-08
-2.56944e-07
-6.45488e-08
-2.51225e-07
-8.02416e-08
-2.45611e-07
-9.54599e-08
-2.40118e-07
-1.10222e-07
-2.34759e-07
-1.24547e-07
-2.29545e-07
-1.38456e-07
-2.24486e-07
-1.51971e-07
-2.19591e-07
-1.65116e-07
-2.14865e-07
-1.77913e-07
-2.10312e-07
-1.90389e-07
-2.05935e-07
-2.02568e-07
-2.01733e-07
-2.14478e-07
-1.97706e-07
-2.26146e-07
-1.93852e-07
-2.37601e-07
-1.90169e-07
-2.48871e-07
-1.86653e-07
-2.59987e-07
-1.83303e-07
-2.70979e-07
-1.80119e-07
-2.8188e-07
-1.77105e-07
-2.92717e-07
-1.74268e-07
-3.03511e-07
-1.71641e-07
-3.14295e-07
-1.69254e-07
-3.25077e-07
-1.6709e-07
-3.35824e-07
-1.65288e-07
-3.46441e-07
-1.63942e-07
-3.58408e-07
-1.63789e-07
-3.68769e-07
-1.70775e-07
-3.79834e-07
-1.78611e-07
-3.91655e-07
-1.87396e-07
-4.04316e-07
-1.97196e-07
-4.17901e-07
-2.08101e-07
-4.32491e-07
-2.20251e-07
-4.48163e-07
-2.33838e-07
-4.64991e-07
-2.49112e-07
-4.83056e-07
-2.66384e-07
-5.02432e-07
-2.86056e-07
-5.23207e-07
-3.08695e-07
-5.45576e-07
-3.34687e-07
-5.69853e-07
-3.63906e-07
-5.96502e-07
-3.95366e-07
-6.26113e-07
-4.26695e-07
-6.59189e-07
-4.54071e-07
-6.95743e-07
-4.73317e-07
-7.35025e-07
-4.81924e-07
-7.75745e-07
-4.8017e-07
-8.16586e-07
-4.70263e-07
-8.56542e-07
-4.54741e-07
-8.94953e-07
-4.35559e-07
-9.31427e-07
-4.13978e-07
-9.65731e-07
-3.90698e-07
-9.97719e-07
-3.66107e-07
-1.0273e-06
-3.4043e-07
-1.05439e-06
-3.13815e-07
-1.07896e-06
-2.86372e-07
-1.10098e-06
-2.58191e-07
-1.12041e-06
-2.29351e-07
-1.13726e-06
-1.99925e-07
-1.15151e-06
-1.69987e-07
-1.16316e-06
-1.39619e-07
-1.17221e-06
-1.08887e-07
-1.17867e-06
-7.78445e-08
-1.18254e-06
-4.66424e-08
-1.55167e-08
6.57608e-07
-1.22621e-08
6.54842e-07
-3.6689e-08
6.50249e-07
-6.09536e-08
6.43844e-07
-8.49652e-08
6.35647e-07
-1.08644e-07
6.25682e-07
-1.31924e-07
6.13976e-07
-1.54734e-07
6.00561e-07
-1.76995e-07
5.8548e-07
-1.98614e-07
5.6878e-07
-2.19476e-07
5.50524e-07
-2.39435e-07
5.3079e-07
-2.58303e-07
5.09677e-07
-2.75834e-07
4.87307e-07
-2.91722e-07
4.63834e-07
-3.05613e-07
4.39443e-07
-3.17134e-07
4.14345e-07
-3.2596e-07
3.88771e-07
-3.31897e-07
3.62955e-07
-3.34951e-07
3.37116e-07
-3.35359e-07
3.11439e-07
-3.33544e-07
2.8607e-07
-3.30029e-07
2.61115e-07
-3.25335e-07
2.36643e-07
-3.1991e-07
2.12692e-07
-3.14088e-07
1.89285e-07
-3.08096e-07
1.6643e-07
-3.02071e-07
1.44128e-07
-2.96083e-07
1.22378e-07
-2.90162e-07
1.01175e-07
-2.84312e-07
8.0515e-08
-2.78531e-07
6.0393e-08
-2.72811e-07
4.08031e-08
-2.67149e-07
2.17383e-08
-2.61549e-07
3.19073e-09
-2.56018e-07
-1.48484e-08
-2.5057e-07
-3.23885e-08
-2.45187e-07
-4.94395e-08
-2.39866e-07
-6.60131e-08
-2.34623e-07
-8.2123e-08
-2.29471e-07
-9.77846e-08
-2.24424e-07
-1.13014e-07
-2.19495e-07
-1.27831e-07
-2.14693e-07
-1.42253e-07
-2.10027e-07
-1.56302e-07
-2.05503e-07
-1.69999e-07
-2.01128e-07
-1.83365e-07
-1.96904e-07
-1.96425e-07
-1.92832e-07
-2.09202e-07
-1.88913e-07
-2.2172e-07
-1.85144e-07
-2.34003e-07
-1.81524e-07
-2.46079e-07
-1.78049e-07
-2.57972e-07
-1.74716e-07
-2.69708e-07
-1.71523e-07
-2.81317e-07
-1.68469e-07
-2.92824e-07
-1.65557e-07
-3.0426e-07
-1.62794e-07
-3.15648e-07
-1.60217e-07
-3.27021e-07
-1.57846e-07
-3.38399e-07
-1.55676e-07
-3.49791e-07
-1.53854e-07
-3.61057e-07
-1.52485e-07
-3.73059e-07
-1.54137e-07
-3.83728e-07
-1.60411e-07
-3.95141e-07
-1.6753e-07
-4.07317e-07
-1.75586e-07
-4.20307e-07
-1.8461e-07
-4.34176e-07
-1.9468e-07
-4.48991e-07
-2.05932e-07
-4.64825e-07
-2.18557e-07
-4.81752e-07
-2.32799e-07
-4.99858e-07
-2.48959e-07
-5.19221e-07
-2.67449e-07
-5.39958e-07
-2.88792e-07
-5.62288e-07
-3.1326e-07
-5.86532e-07
-3.40613e-07
-6.1313e-07
-3.6972e-07
-6.4259e-07
-3.98123e-07
-6.75262e-07
-4.22148e-07
-7.10997e-07
-4.38143e-07
-7.49001e-07
-4.44294e-07
-7.88099e-07
-4.41294e-07
-8.27174e-07
-4.31311e-07
-8.65387e-07
-4.1659e-07
-9.02186e-07
-3.98791e-07
-9.37228e-07
-3.7895e-07
-9.70294e-07
-3.57639e-07
-1.00124e-06
-3.35169e-07
-1.02994e-06
-3.11723e-07
-1.05634e-06
-2.87423e-07
-1.08035e-06
-2.6236e-07
-1.10193e-06
-2.36608e-07
-1.12105e-06
-2.10238e-07
-1.13766e-06
-1.83313e-07
-1.15175e-06
-1.559e-07
-1.16329e-06
-1.28075e-07
-1.17228e-06
-9.98991e-08
-1.1787e-06
-7.14253e-08
-1.18254e-06
-4.27972e-08
-1.42372e-08
6.57602e-07
-1.13307e-08
6.54816e-07
-3.39032e-08
6.50189e-07
-5.63264e-08
6.43739e-07
-7.8515e-08
6.35489e-07
-1.00394e-07
6.25466e-07
-1.21901e-07
6.13702e-07
-1.4297e-07
6.00235e-07
-1.63528e-07
5.85109e-07
-1.83487e-07
5.68378e-07
-2.02744e-07
5.50106e-07
-2.21163e-07
5.30373e-07
-2.3857e-07
5.0928e-07
-2.54739e-07
4.86949e-07
-2.69389e-07
4.63532e-07
-2.82193e-07
4.39211e-07
-2.92809e-07
4.14196e-07
-3.00939e-07
3.88714e-07
-3.06405e-07
3.62994e-07
-3.09219e-07
3.37248e-07
-3.09598e-07
3.11658e-07
-3.07937e-07
2.86367e-07
-3.04718e-07
2.61474e-07
-3.00422e-07
2.37045e-07
-2.95459e-07
2.13118e-07
-2.90137e-07
1.89711e-07
-2.84666e-07
1.6683e-07
-2.79167e-07
1.44477e-07
-2.73707e-07
1.22647e-07
-2.68309e-07
1.01338e-07
-2.6298e-07
8.05421e-08
-2.57713e-07
6.02558e-08
-2.52503e-07
4.04731e-08
-2.47346e-07
2.11876e-08
-2.42243e-07
2.39163e-09
-2.37204e-07
-1.59228e-08
-2.32237e-07
-3.37643e-08
-2.27325e-07
-5.11416e-08
-2.22467e-07
-6.80655e-08
-2.17675e-07
-8.4548e-08
-2.12963e-07
-1.00603e-07
-2.08342e-07
-1.16246e-07
-2.03823e-07
-1.31493e-07
-1.99414e-07
-1.46363e-07
-1.95125e-07
-1.60873e-07
-1.90959e-07
-1.75043e-07
-1.86923e-07
-1.88893e-07
-1.83017e-07
-2.02443e-07
-1.79244e-07
-2.15716e-07
-1.75602e-07
-2.28731e-07
-1.7209e-07
-2.41512e-07
-1.68704e-07
-2.54078e-07
-1.65443e-07
-2.66452e-07
-1.62302e-07
-2.78656e-07
-1.5928e-07
-2.90713e-07
-1.56374e-07
-3.02646e-07
-1.53588e-07
-3.1448e-07
-1.50926e-07
-3.26241e-07
-1.48425e-07
-3.37965e-07
-1.46094e-07
-3.49683e-07
-1.43932e-07
-3.61453e-07
-1.4206e-07
-3.73277e-07
-1.40552e-07
-3.8505e-07
-1.43781e-07
-3.96261e-07
-1.49496e-07
-4.08106e-07
-1.56006e-07
-4.20654e-07
-1.63391e-07
-4.33968e-07
-1.71687e-07
-4.48113e-07
-1.80968e-07
-4.63157e-07
-1.91368e-07
-4.79176e-07
-2.03071e-07
-4.96251e-07
-2.16315e-07
-5.14477e-07
-2.31388e-07
-5.33947e-07
-2.48703e-07
-5.5481e-07
-2.68725e-07
-5.77304e-07
-2.91622e-07
-6.01756e-07
-3.17051e-07
-6.28582e-07
-3.43772e-07
-6.58202e-07
-3.69304e-07
-6.90816e-07
-3.90195e-07
-7.26121e-07
-4.03322e-07
-7.63267e-07
-4.07463e-07
-8.01162e-07
-4.03583e-07
-8.38831e-07
-3.93742e-07
-8.7557e-07
-3.79902e-07
-9.10921e-07
-3.63465e-07
-9.44598e-07
-3.45285e-07
-9.76414e-07
-3.25828e-07
-1.00624e-06
-3.0535e-07
-1.03396e-06
-2.84001e-07
-1.0595e-06
-2.61882e-07
-1.08279e-06
-2.39069e-07
-1.10377e-06
-2.15628e-07
-1.12239e-06
-1.91619e-07
-1.13861e-06
-1.67097e-07
-1.15238e-06
-1.42125e-07
-1.16369e-06
-1.16769e-07
-1.1725e-06
-9.10872e-08
-1.1788e-06
-6.51279e-08
-1.18257e-06
-3.90252e-08
-1.29829e-08
6.57598e-07
-1.03944e-08
6.54798e-07
-3.11036e-08
6.50148e-07
-5.16767e-08
6.43668e-07
-7.20346e-08
6.35381e-07
-9.21074e-08
6.25318e-07
-1.11837e-07
6.13512e-07
-1.31164e-07
6.00005e-07
-1.5002e-07
5.84842e-07
-1.68325e-07
5.6808e-07
-1.85982e-07
5.49786e-07
-2.02869e-07
5.30042e-07
-2.18826e-07
5.08949e-07
-2.33645e-07
4.86631e-07
-2.4707e-07
4.63239e-07
-2.58801e-07
4.38955e-07
-2.68523e-07
4.13986e-07
-2.75967e-07
3.88554e-07
-2.8097e-07
3.62886e-07
-2.83545e-07
3.37189e-07
-2.83894e-07
3.11643e-07
-2.82381e-07
2.86384e-07
-2.79448e-07
2.6151e-07
-2.75536e-07
2.37085e-07
-2.7102e-07
2.13145e-07
-2.66182e-07
1.89705e-07
-2.6121e-07
1.66772e-07
-2.56218e-07
1.44346e-07
-2.51263e-07
1.22421e-07
-2.46368e-07
1.00994e-07
-2.41536e-07
8.00586e-08
-2.36761e-07
5.96096e-08
-2.32038e-07
3.96416e-08
-2.27362e-07
2.01484e-08
-2.22735e-07
1.12272e-09
-2.18163e-07
-1.74428e-08
-2.13657e-07
-3.55561e-08
-2.09196e-07
-5.3225e-08
-2.0478e-07
-7.0459e-08
-2.00421e-07
-8.7269e-08
-1.96131e-07
-1.03668e-07
-1.9192e-07
-1.19668e-07
-1.87797e-07
-1.35286e-07
-1.8377e-07
-1.50538e-07
-1.79845e-07
-1.65438e-07
-1.76029e-07
-1.80007e-07
-1.72323e-07
-1.9426e-07
-1.68732e-07
-2.08216e-07
-1.65254e-07
-2.21893e-07
-1.6189e-07
-2.35311e-07
-1.58637e-07
-2.48486e-07
-1.55493e-07
-2.61438e-07
-1.52456e-07
-2.74185e-07
-1.49521e-07
-2.86744e-07
-1.46687e-07
-2.99134e-07
-1.43953e-07
-3.11375e-07
-1.41318e-07
-3.2349e-07
-1.38786e-07
-3.35504e-07
-1.36393e-07
-3.47449e-07
-1.34132e-07
-3.5937e-07
-1.31995e-07
-3.71351e-07
-1.30063e-07
-3.83289e-07
-1.2843e-07
-3.9501e-07
-1.32705e-07
-4.06756e-07
-1.38008e-07
-4.19037e-07
-1.44014e-07
-4.31947e-07
-1.50806e-07
-4.45569e-07
-1.5843e-07
-4.5998e-07
-1.66966e-07
-4.75258e-07
-1.76547e-07
-4.91486e-07
-1.87352e-07
-5.08757e-07
-1.99608e-07
-5.27177e-07
-2.13592e-07
-5.46861e-07
-2.29709e-07
-5.67983e-07
-2.48356e-07
-5.90794e-07
-2.69616e-07
-6.1561e-07
-2.93064e-07
-6.42798e-07
-3.17391e-07
-6.72672e-07
-3.40153e-07
-7.05277e-07
-3.58172e-07
-7.40188e-07
-3.6883e-07
-7.76544e-07
-3.71374e-07
-8.13356e-07
-3.66926e-07
-8.49785e-07
-3.57396e-07
-8.85241e-07
-3.44488e-07
-9.19337e-07
-3.29389e-07
-9.51827e-07
-3.12804e-07
-9.82544e-07
-2.95116e-07
-1.01136e-06
-2.76533e-07
-1.03818e-06
-2.57182e-07
-1.06292e-06
-2.37143e-07
-1.08551e-06
-2.16484e-07
-1.10588e-06
-1.9526e-07
-1.12397e-06
-1.73522e-07
-1.13975e-06
-1.51321e-07
-1.15316e-06
-1.2871e-07
-1.16418e-06
-1.05751e-07
-1.17278e-06
-8.2494e-08
-1.17892e-06
-5.89848e-08
-1.1826e-06
-3.53454e-08
-1.17594e-08
6.57595e-07
-9.45591e-09
6.54788e-07
-2.82962e-08
6.50125e-07
-4.70137e-08
6.43626e-07
-6.55357e-08
6.35317e-07
-8.37984e-08
6.25228e-07
-1.01749e-07
6.13396e-07
-1.19332e-07
5.9986e-07
-1.36485e-07
5.84671e-07
-1.53136e-07
5.67885e-07
-1.69197e-07
5.49571e-07
-1.84556e-07
5.29812e-07
-1.99067e-07
5.08708e-07
-2.12542e-07
4.86384e-07
-2.24747e-07
4.62991e-07
-2.3541e-07
4.38711e-07
-2.44244e-07
4.13749e-07
-2.51006e-07
3.88328e-07
-2.55549e-07
3.62669e-07
-2.57886e-07
3.3698e-07
-2.58205e-07
3.11437e-07
-2.56835e-07
2.86174e-07
-2.54182e-07
2.61288e-07
-2.50645e-07
2.36839e-07
-2.46564e-07
2.12862e-07
-2.42196e-07
1.89371e-07
-2.3771e-07
1.66371e-07
-2.33208e-07
1.43861e-07
-2.28742e-07
1.21836e-07
-2.24331e-07
1.00291e-07
-2.19978e-07
7.92195e-08
-2.15678e-07
5.86165e-08
-2.11423e-07
3.84765e-08
-2.0721e-07
1.87937e-08
-2.03041e-07
-4.38674e-10
-1.9892e-07
-1.92284e-08
-1.94855e-07
-3.75817e-08
-1.90829e-07
-5.55057e-08
-1.86841e-07
-7.30089e-08
-1.82902e-07
-9.01011e-08
-1.79021e-07
-1.06794e-07
-1.75208e-07
-1.23099e-07
-1.7147e-07
-1.39029e-07
-1.67816e-07
-1.54601e-07
-1.6425e-07
-1.69827e-07
-1.60776e-07
-1.84724e-07
-1.57399e-07
-1.99307e-07
-1.5412e-07
-2.13593e-07
-1.50938e-07
-2.27598e-07
-1.47854e-07
-2.41337e-07
-1.44867e-07
-2.54826e-07
-1.41973e-07
-2.6808e-07
-1.39171e-07
-2.81113e-07
-1.36458e-07
-2.93938e-07
-1.33833e-07
-3.06569e-07
-1.31295e-07
-3.19014e-07
-1.28848e-07
-3.31285e-07
-1.26494e-07
-3.43391e-07
-1.24274e-07
-3.55373e-07
-1.22148e-07
-3.67242e-07
-1.20139e-07
-3.79069e-07
-1.18272e-07
-3.91591e-07
-1.16656e-07
-4.03357e-07
-1.21079e-07
-4.15489e-07
-1.26073e-07
-4.28096e-07
-1.31654e-07
-4.41301e-07
-1.37893e-07
-4.55199e-07
-1.44868e-07
-4.69868e-07
-1.52678e-07
-4.85391e-07
-1.61453e-07
-5.01857e-07
-1.71364e-07
-5.19371e-07
-1.82627e-07
-5.38046e-07
-1.95506e-07
-5.58021e-07
-2.10385e-07
-5.7949e-07
-2.27595e-07
-6.0271e-07
-2.47149e-07
-6.2798e-07
-2.6856e-07
-6.55613e-07
-2.90494e-07
-6.85813e-07
-3.10603e-07
-7.18488e-07
-3.26011e-07
-7.53113e-07
-3.34566e-07
-7.88834e-07
-3.35881e-07
-8.2475e-07
-3.3114e-07
-8.60137e-07
-3.22079e-07
-8.94492e-07
-3.10168e-07
-9.2749e-07
-2.96408e-07
-9.58922e-07
-2.81381e-07
-9.88637e-07
-2.65404e-07
-1.01653e-06
-2.48648e-07
-1.04249e-06
-2.31216e-07
-1.06645e-06
-2.1318e-07
-1.08835e-06
-1.94593e-07
-1.1081e-06
-1.75505e-07
-1.12566e-06
-1.5596e-07
-1.14098e-06
-1.36001e-07
-1.15402e-06
-1.15677e-07
-1.16473e-06
-9.50415e-08
-1.17308e-06
-7.4139e-08
-1.17905e-06
-5.30112e-08
-1.18263e-06
-3.17675e-08
-1.05701e-08
6.57593e-07
-8.5156e-09
6.5478e-07
-2.54832e-08
6.50108e-07
-4.2341e-08
6.43595e-07
-5.90232e-08
6.35269e-07
-7.54721e-08
6.2516e-07
-9.16397e-08
6.13304e-07
-1.07476e-07
5.99745e-07
-1.22925e-07
5.8453e-07
-1.37922e-07
5.6772e-07
-1.52386e-07
5.49381e-07
-1.66218e-07
5.29598e-07
-1.79285e-07
5.08473e-07
-1.91418e-07
4.8613e-07
-2.02406e-07
4.62721e-07
-2.12004e-07
4.38426e-07
-2.19954e-07
4.13452e-07
-2.26036e-07
3.88019e-07
-2.3012e-07
3.62348e-07
-2.3222e-07
3.36646e-07
-2.32507e-07
3.11086e-07
-2.31278e-07
2.85801e-07
-2.28898e-07
2.60885e-07
-2.25729e-07
2.36397e-07
-2.22075e-07
2.1237e-07
-2.18166e-07
1.88818e-07
-2.14154e-07
1.65746e-07
-2.1013e-07
1.43149e-07
-2.06139e-07
1.21024e-07
-2.02199e-07
9.93646e-08
-1.98311e-07
7.81649e-08
-1.94469e-07
5.74195e-08
-1.90669e-07
3.71232e-08
-1.86905e-07
1.72702e-08
-1.83179e-07
-2.14585e-09
-1.79496e-07
-2.11315e-08
-1.75861e-07
-3.96931e-08
-1.72257e-07
-5.78368e-08
-1.68686e-07
-7.557e-08
-1.65155e-07
-9.29015e-08
-1.61674e-07
-1.09841e-07
-1.58251e-07
-1.264e-07
-1.54893e-07
-1.42591e-07
-1.51605e-07
-1.58425e-07
-1.48394e-07
-1.73917e-07
-1.45262e-07
-1.89081e-07
-1.42212e-07
-2.03929e-07
-1.39245e-07
-2.18477e-07
-1.36363e-07
-2.32739e-07
-1.33565e-07
-2.46729e-07
-1.30849e-07
-2.60461e-07
-1.28213e-07
-2.73948e-07
-1.25656e-07
-2.87203e-07
-1.23176e-07
-3.00237e-07
-1.20772e-07
-3.13064e-07
-1.18446e-07
-3.25691e-07
-1.162e-07
-3.38128e-07
-1.14045e-07
-3.50377e-07
-1.12021e-07
-3.62459e-07
-1.10076e-07
-3.74364e-07
-1.08265e-07
-3.86081e-07
-1.06616e-07
-3.98646e-07
-1.05281e-07
-4.10524e-07
-1.09352e-07
-4.22858e-07
-1.13931e-07
-4.35711e-07
-1.19033e-07
-4.49165e-07
-1.24712e-07
-4.63301e-07
-1.31045e-07
-4.78202e-07
-1.38132e-07
-4.93956e-07
-1.46099e-07
-5.1066e-07
-1.55108e-07
-5.28426e-07
-1.65359e-07
-5.4738e-07
-1.77103e-07
-5.67678e-07
-1.90694e-07
-5.89533e-07
-2.064e-07
-6.132e-07
-2.2418e-07
-6.38954e-07
-2.43511e-07
-6.67046e-07
-2.63073e-07
-6.97571e-07
-2.8066e-07
-7.30316e-07
-2.93719e-07
-7.64687e-07
-3.00511e-07
-7.99849e-07
-3.00913e-07
-8.34991e-07
-2.96109e-07
-8.69482e-07
-2.87647e-07
-9.02892e-07
-2.76787e-07
-9.34946e-07
-2.64369e-07
-9.65458e-07
-2.50876e-07
-9.94298e-07
-2.36567e-07
-1.02136e-06
-2.21586e-07
-1.04656e-06
-2.06017e-07
-1.06982e-06
-1.8992e-07
-1.09107e-06
-1.73342e-07
-1.11025e-06
-1.56323e-07
-1.12731e-06
-1.38903e-07
-1.14219e-06
-1.21119e-07
-1.15486e-06
-1.03014e-07
-1.16526e-06
-8.46343e-08
-1.17338e-06
-6.6019e-08
-1.17919e-06
-4.72054e-08
-1.18267e-06
-2.82902e-08
-9.41414e-09
6.57592e-07
-7.57393e-09
6.54775e-07
-2.26658e-08
6.50094e-07
-3.76605e-08
6.4357e-07
-5.24996e-08
6.3523e-07
-6.71314e-08
6.25103e-07
-8.15133e-08
6.13228e-07
-9.56007e-08
5.99646e-07
-1.09343e-07
5.84407e-07
-1.22684e-07
5.6757e-07
-1.3555e-07
5.49204e-07
-1.47853e-07
5.29394e-07
-1.59476e-07
5.0824e-07
-1.70267e-07
4.85869e-07
-1.80039e-07
4.62432e-07
-1.88571e-07
4.3811e-07
-1.95638e-07
4.13109e-07
-2.01041e-07
3.8765e-07
-2.04669e-07
3.61954e-07
-2.06533e-07
3.36225e-07
-2.06786e-07
3.10634e-07
-2.05695e-07
2.85316e-07
-2.03586e-07
2.6036e-07
-2.00779e-07
2.35826e-07
-1.97544e-07
2.11745e-07
-1.94086e-07
1.8813e-07
-1.90539e-07
1.64983e-07
-1.86982e-07
1.42303e-07
-1.83456e-07
1.20083e-07
-1.79975e-07
9.83177e-08
-1.76541e-07
7.7001e-08
-1.73147e-07
5.61277e-08
-1.6979e-07
3.56926e-08
-1.66464e-07
1.56903e-08
-1.63171e-07
-3.88509e-09
-1.59914e-07
-2.30401e-08
-1.56699e-07
-4.17798e-08
-1.53509e-07
-6.01099e-08
-1.50346e-07
-7.80368e-08
-1.47217e-07
-9.55685e-08
-1.4413e-07
-1.12714e-07
-1.41092e-07
-1.29483e-07
-1.38109e-07
-1.45886e-07
-1.35185e-07
-1.61934e-07
-1.32326e-07
-1.77641e-07
-1.29535e-07
-1.93018e-07
-1.26813e-07
-2.08077e-07
-1.24163e-07
-2.22833e-07
-1.21584e-07
-2.37298e-07
-1.19075e-07
-2.51484e-07
-1.16637e-07
-2.65404e-07
-1.14266e-07
-2.79071e-07
-1.11962e-07
-2.92497e-07
-1.09724e-07
-3.05693e-07
-1.07551e-07
-3.1867e-07
-1.05445e-07
-3.31439e-07
-1.0341e-07
-3.44006e-07
-1.01463e-07
-3.56387e-07
-9.96318e-08
-3.6858e-07
-9.7886e-08