/*--------------------------------*- C++ -*----------------------------------*\
  =========                 |
  \\      /  F ield         | OpenFOAM: The Open Source CFD Toolbox
   \\    /   O peration     | Website:  https://openfoam.org
    \\  /    A nd           | Version:  8
     \\/     M anipulation  |
\*---------------------------------------------------------------------------*/
FoamFile
{
    version     2.0;
    format      ascii;
    class       volScalarField;
    location    "340/fluid";
    object      Qdot;
}
// * * * * * * * * * * * * * * * * * * * * * * * * * * * * * * * * * * * * * //

dimensions      [1 -1 -3 0 0 0 0];

internalField   nonuniform List<scalar> 
4000
(
-3.72316e-13
-2.78724e-07
-2.91311e-07
1.2798e-20
6.33889e-12
-1.31208e-11
3.36402e-07
-5.57242e-11
1.66949e-15
-1.16978e-10
-6.97043e-15
2.98603e-10
6.06526e-10
0
2.25876e-09
-2.14995e-17
4.05193e-07
-1.33134e-15
9.49908e-09
1.15474e-07
1.5781e-06
1.97316e-05
0.000238451
0.00245661
0.0209243
0.146163
0.841128
4.03502
16.38
57.162
174.064
468.746
1128.84
2451.64
4838.26
8770.91
14751.5
23338.7
35157
51047.1
72205.1
100281
137453
186644
251764
338088
452654
604787
806772
1.07478e+06
1.43007e+06
1.90064e+06
2.5234e+06
3.34706e+06
4.43597e+06
5.87546e+06
7.77895e+06
1.0298e+07
1.35834e+07
1.79131e+07
2.3806e+07
3.16704e+07
6.26469e+07
3.83304e+08
2.87736e+07
2.07805e+07
1.48096e+07
1.03938e+07
7.16933e+06
4.85044e+06
3.21326e+06
2.08403e+06
1.32996e+06
852877
507644
100560
5412.36
116.887
1.34062
0.0113948
0.000123135
2.84865e-06
1.7344e-07
2.48222e-08
5.45505e-09
1.81718e-09
8.02285e-10
3.11934e-10
1.2698e-10
5.64866e-11
2.39749e-11
1.00958e-11
3.86545e-12
1.59958e-12
6.85239e-13
2.98343e-13
1.1621e-13
3.89978e-14
1.50292e-14
2.64125e-15
2.6537e-07
0
0
-3.01948e-07
3.12847e-07
1.30012e-11
3.32466e-07
0
1.2524e-10
3.34761e-15
0
0
0
0
1.20771e-09
-3.90277e-07
2.01156e-09
-1.45183e-15
1.8409e-08
1.1197e-07
1.6262e-06
2.03197e-05
0.000243365
0.00250231
0.0213223
0.14929
0.862186
4.15321
16.931
59.3094
181.095
488.558
1177.38
2555.89
5037.05
9126.88
15377.4
24305.7
36517
52829.1
74420.3
102921
140516
190158
255801
342777
458172
611369
814708
1.08443e+06
1.44191e+06
1.91528e+06
2.54167e+06
3.3701e+06
4.46552e+06
5.91425e+06
7.83159e+06
1.03726e+07
1.36912e+07
1.80812e+07
2.40916e+07
3.21852e+07
1.17872e+08
3.30824e+08
2.84665e+07
2.04585e+07
1.45118e+07
1.01359e+07
6.95565e+06
4.67971e+06
3.08168e+06
1.98684e+06
1.26262e+06
811981
422581
64021.1
2668.18
48.0738
0.488305
0.00415124
5.20157e-05
1.51996e-06
1.15487e-07
1.92238e-08
5.25844e-09
1.74881e-09
7.72352e-10
2.87764e-10
1.28493e-10
5.4023e-11
2.34243e-11
9.00615e-12
4.05277e-12
1.7993e-12
-5.11125e-12
5.98793e-12
1.15976e-13
3.90256e-14
5.2547e-12
2.64917e-15
0
-6.97122e-13
0
-1.34206e-11
7.64493e-12
0
3.26566e-07
0
-5.48541e-11
0
2.26532e-10
0
5.70387e-10
-1.96583e-18
-9.47436e-10
1.91484e-09
-1.70491e-16
-1.60289e-15
-3.80869e-07
1.25783e-07
1.5425e-06
2.14311e-05
0.000255499
0.00262202
0.022312
0.15623
0.90339
4.36016
17.8127
62.5164
191.16
517.83
1254.73
2741.12
5434.23
9844.36
16542.8
26052.3
38965.5
56086.1
78589.7
108109
146875
197923
265323
354552
472865
629848
838098
1.11419e+06
1.4799e+06
1.96391e+06
2.60401e+06
3.45004e+06
4.5679e+06
6.0449e+06
7.99724e+06
1.05802e+07
1.39475e+07
1.83775e+07
2.44145e+07
3.24701e+07
2.40496e+08
2.21705e+08
2.82545e+07
2.01002e+07
1.41144e+07
9.76082e+06
6.63233e+06
4.41817e+06
2.88106e+06
1.84103e+06
1.16384e+06
751961
305130
33716
1113.22
17.4464
0.169228
0.00157214
2.41759e-05
8.96166e-07
8.16838e-08
1.49884e-08
4.16634e-09
1.45973e-09
6.31079e-10
2.62765e-10
1.18533e-10
4.54375e-11
2.09194e-11
9.22365e-12
3.7477e-12
1.56248e-12
6.43229e-12
2.57925e-13
1.03093e-13
4.51593e-14
-7.55783e-13
2.48087e-15
-4.86143e-18
-8.53746e-13
0
0
-3.05888e-07
-1.55428e-11
-3.18285e-11
3.28396e-07
0
0
-2.21407e-10
0
4.52128e-10
9.12344e-10
3.57325e-07
-2.33682e-17
-1.81025e-16
3.79922e-09
8.57851e-09
1.39137e-07
1.48492e-06
2.30214e-05
0.000272042
0.00277595
0.0236044
0.165504
0.959725
4.65135
19.1109
67.602
209.045
570.051
1386.56
3033.06
5997.35
10820.3
18110.3
28384.6
42222
60419.8
84169.9
115138
155653
208886
279112
372054
495290
658819
875798
1.16355e+06
1.54488e+06
2.04984e+06
2.71803e+06
3.60168e+06
4.76969e+06
6.31313e+06
8.35257e+06
1.10482e+07
1.45343e+07
1.91315e+07
2.53754e+07
3.36736e+07
3.54576e+08
1.09376e+08
2.75484e+07
1.93535e+07
1.34332e+07
9.18806e+06
6.17698e+06
4.0723e+06
2.6294e+06
1.66642e+06
1.05025e+06
675360
198987
15788.1
425.972
5.89012
0.0555916
0.0005743
1.09239e-05
5.14178e-07
5.71874e-08
1.2136e-08
3.30935e-09
1.43409e-09
5.62745e-10
2.30181e-10
1.02562e-10
4.9914e-11
1.90865e-11
7.86924e-12
3.52223e-12
6.27307e-12
5.95455e-13
2.31926e-13
9.62416e-14
3.9144e-14
1.21852e-14
1.95643e-15
3.70586e-13
8.50423e-13
2.85003e-07
0
0
1.24763e-11
3.13291e-11
1.08834e-19
1.54014e-15
0
-4.52938e-19
-6.36889e-15
0
1.85684e-18
1.98948e-09
-3.01776e-17
-2.05629e-16
-1.89411e-15
1.65796e-08
1.42797e-07
1.6722e-06
2.51849e-05
0.00030039
0.00307162
0.0261476
0.183591
1.06649
5.17901
21.3182
75.4926
233.26
636.635
1550.25
3392.13
6697.11
12033.3
20029.9
31216.9
46145.2
65613.5
90835.3
123550
166222
222211
296057
393819
523527
695784
924599
1.22848e+06
1.63192e+06
2.16733e+06
2.87765e+06
3.81972e+06
5.06881e+06
6.7245e+06
8.91824e+06
1.18229e+07
1.55648e+07
2.0623e+07
2.7278e+07
3.59578e+07
4.5219e+08
3.56404e+07
2.5283e+07
1.77302e+07
1.22654e+07
8.35115e+06
5.58362e+06
3.65886e+06
2.34854e+06
1.48269e+06
937532
572802
122036
6999.99
159.916
2.00911
0.0191341
0.000226371
5.35955e-06
3.12615e-07
4.22242e-08
9.61627e-09
3.16211e-09
1.18922e-09
4.43981e-10
2.26128e-10
1.00876e-10
4.15788e-11
1.80791e-11
7.78691e-12
3.07163e-12
1.43707e-12
5.64762e-13
2.06396e-13
9.07433e-14
3.62103e-14
1.22484e-14
1.97232e-15
-4.8484e-18
1.57872e-13
0
7.21244e-12
-2.52396e-20
1.51344e-11
0
1.06974e-19
-1.51085e-15
0
-3.27967e-07
0
0
-2.51614e-14
1.93222e-09
-2.92708e-17
1.7601e-09
-2.0641e-15
1.16112e-08
-2.24774e-08
2.08896e-06
2.74931e-05
0.000331294
0.00339401
0.0289565
0.203793
1.18683
5.77857
23.8493
84.6733
262.251
717.286
1749.26
3828.19
7540.82
13481.5
22304.5
34535.3
50691.2
71577.2
98437
133112
178230
237364
315350
418619
555704
737897
980185
1.30248e+06
1.73132e+06
2.30211e+06
3.06226e+06
4.07536e+06
5.42703e+06
7.23292e+06
9.65004e+06
1.28715e+07
1.71344e+07
2.30366e+07
3.10164e+07
4.18315e+07
4.30554e+08
3.16846e+07
2.26314e+07
1.5927e+07
1.10283e+07
7.50086e+06
5.00248e+06
3.26705e+06
2.0906e+06
1.31974e+06
842809
445687
69892.9
3092.22
61.2854
0.714786
0.00702041
9.60753e-05
2.80708e-06
2.01036e-07
3.07497e-08
7.85475e-09
2.69722e-09
1.06785e-09
4.3865e-10
1.69641e-10
9.00661e-11
3.84806e-11
1.53056e-11
6.88848e-12
2.63865e-12
1.22435e-12
4.61704e-13
2.06333e-13
8.71489e-13
2.86302e-14
5.18487e-12
-7.40418e-13
0
-3.06038e-12
0
2.89044e-07
2.95875e-07
-1.2151e-11
2.47211e-11
0
0
2.28305e-10
3.20411e-07
0
-1.74791e-18
1.75531e-18
-8.41248e-10
-3.19131e-17
2.09382e-09
-2.26211e-15
1.54824e-08
3.54865e-07
2.14948e-06
3.04807e-05
0.000367631
0.00377595
0.0322893
0.227812
1.33017
6.49418
26.8781
95.6952
297.185
814.718
1989.74
4353.16
8545.76
15183
24950.6
38342.7
55838.4
78252.8
106872
143662
191412
253926
336315
445355
590024
782207
1.03769e+06
1.37749e+06
1.82967e+06
2.43176e+06
3.23416e+06
4.30477e+06
5.73536e+06
7.65067e+06
1.02212e+07
1.36382e+07
1.81812e+07
2.45285e+07
3.31952e+07
1.26458e+08
3.40716e+08
2.97991e+07
2.11458e+07
1.47964e+07
1.01898e+07
6.89316e+06
4.5724e+06
2.97086e+06
1.89365e+06
1.19557e+06
771446
332600
38837.9
1399.88
24.5815
0.272072
0.00281216
4.4812e-05
1.59425e-06
1.36272e-07
2.37153e-08
6.33113e-09
2.45775e-09
9.5011e-10
3.80849e-10
1.73621e-10
7.86318e-11
3.32468e-11
1.35258e-11
6.38263e-12
2.42028e-12
1.0163e-12
4.10612e-13
1.56645e-13
8.59969e-13
2.73962e-14
9.42135e-15
-5.0421e-12
-3.69063e-13
0
0
0
-1.7195e-16
1.47362e-11
3.02415e-07
0
1.22309e-10
0
0
0
0
-1.00022e-09
3.16848e-07
-3.43498e-17
1.648e-09
-2.45675e-15
1.082e-08
2.43746e-08
2.60963e-06
3.38641e-05
0.00041044
0.00422621
0.0362381
0.256352
1.50088
7.34821
30.5004
108.906
339.147
931.913
2278.82
4981.01
9731.3
17157.9
27990.1
42651.6
61587.9
85623.8
116114
155162
205732
271853
358890
473934
626334
828450
1.09665e+06
1.45265e+06
1.92537e+06
2.5533e+06
3.38787e+06
4.49783e+06
5.97536e+06
7.94427e+06
1.05713e+07
1.40337e+07
1.8593e+07
2.48753e+07
3.32947e+07
2.73222e+08
2.0832e+08
2.89256e+07
2.03345e+07
1.41065e+07
9.63712e+06
6.47047e+06
4.26194e+06
2.75176e+06
1.74589e+06
1.10208e+06
713668
233404
21578.6
659.777
10.4609
0.112021
0.00123525
2.28925e-05
9.75848e-07
9.82537e-08
1.96081e-08
5.46868e-09
1.82516e-09
7.31115e-10
3.36849e-10
1.53042e-10
5.84079e-11
2.96923e-11
1.17991e-11
5.79176e-12
2.20634e-12
5.60181e-12
4.09825e-13
-6.35786e-13
6.65958e-14
2.45028e-14
7.27462e-15
-7.39184e-13
-6.93098e-22
0
2.77706e-07
0
1.70019e-16
3.45432e-16
0
-5.95021e-11
0
0
3.05661e-07
0
0
3.06782e-07
-6.63316e-18
1.58598e-09
-4.67803e-14
-2.67924e-15
1.83611e-08
3.83163e-07
2.75864e-06
3.80158e-05
0.000459874
0.00475067
0.0408556
0.289849
1.70192
8.35722
34.794
124.617
389.202
1072
2624.22
5726.61
11115.1
19418.9
31433.5
47456.2
67917.3
93653.8
126125
167594
221209
291237
383307
504831
665548
878297
1.16003e+06
1.53317e+06
2.02744e+06
2.68225e+06
3.54989e+06
4.69992e+06
6.22494e+06
8.2486e+06
1.09304e+07
1.44362e+07
1.90399e+07
2.53685e+07
3.38354e+07
3.72582e+08
1.08808e+08
2.78787e+07
1.94729e+07
1.34243e+07
9.1156e+06
6.08473e+06
3.9859e+06
2.56113e+06
1.61981e+06
1.02379e+06
651861
170231
12159.8
325.607
4.75178
0.0501195
0.000595436
1.27636e-05
6.40531e-07
7.3247e-08
1.55704e-08
4.62913e-09
1.80438e-09
7.2729e-10
3.2754e-10
1.51318e-10
6.13633e-11
3.16978e-11
1.01111e-11
4.73078e-12
1.99547e-12
8.1001e-13
3.37484e-13
1.56591e-13
5.34591e-12
7.90756e-13
7.31724e-15
1.30543e-15
0
0
2.75865e-07
0
2.41292e-20
0
0
0
0
-2.13828e-10
0
0
0
9.42392e-10
-2.97454e-07
2.99139e-07
-3.51997e-10
-2.93732e-15
3.22203e-07
8.84305e-08
3.12386e-06
4.24569e-05
0.000516179
0.00535279
0.0461824
0.328666
1.9359
9.53668
39.8353
143.146
448.478
1238.38
3034.22
6604.61
12711.6
21971.1
35264.3
52710
74742.8
102234
136780
180809
237687
311926
409452
538041
707900
932466
1.22946e+06
1.6223e+06
2.14193e+06
2.82928e+06
3.73844e+06
4.94092e+06
6.53111e+06
8.63348e+06
1.14095e+07
1.50145e+07
1.97329e+07
2.6114e+07
3.44637e+07
4.62571e+08
3.69777e+07
2.60737e+07
1.81797e+07
1.25097e+07
8.47818e+06
5.64789e+06
3.6925e+06
2.36913e+06
1.49878e+06
952268
580304
121917
7081.77
170.028
2.32246
0.0244691
0.000314664
7.72884e-06
4.4836e-07
5.62515e-08
1.27656e-08
4.19152e-09
1.59213e-09
6.47268e-10
2.92999e-10
1.24655e-10
5.38127e-11
2.59705e-11
1.0385e-11
4.30352e-12
1.78743e-12
7.08748e-13
3.34069e-13
1.44232e-13
4.86827e-14
2.01842e-14
5.89531e-15
1.22415e-15
-2.62167e-07
0
-5.77932e-21
1.1759e-20
2.82746e-07
0
0
4.66823e-11
0
0
0
-1.09212e-14
1.56295e-18
-3.11572e-18
-6.21455e-18
-4.34395e-17
-3.29037e-16
-3.6496e-09
1.99456e-08
4.16041e-07
3.51459e-06
4.75301e-05
0.000579601
0.00603347
0.0522383
0.373036
2.20481
10.8998
45.6948
164.805
518.13
1434.56
3517.22
7627.59
14534.8
24825.7
39423.2
58310.3
81903.7
111150
147798
194449
254697
333298
436496
572468
751958
989129
1.3027e+06
1.71745e+06
2.26625e+06
2.9927e+06
3.95476e+06
5.22946e+06
6.91932e+06
9.16085e+06
1.21363e+07
1.59726e+07
2.12151e+07
2.81829e+07
3.74155e+07
4.60193e+08
3.2984e+07
2.34923e+07
1.64986e+07
1.14112e+07
7.76154e+06
5.1836e+06
3.39556e+06
2.1832e+06
1.38644e+06
889059
505798
87446.4
4313.94
94.6052
1.22696
0.0130475
0.00018172
5.06047e-06
3.33084e-07
4.61988e-08
1.14986e-08
3.75842e-09
1.47018e-09
6.12563e-10
2.64863e-10
1.23088e-10
5.04397e-11
2.32937e-11
9.51376e-12
4.26987e-12
1.58198e-12
8.02274e-13
3.08701e-13
1.31905e-13
4.86954e-14
1.87486e-14
6.64692e-15
1.23059e-15
-4.80721e-18
-1.96414e-17
6.10477e-12
1.23902e-11
0
0
0
4.58164e-11
-2.84867e-07
-1.12602e-10
0
0
2.81289e-07
-3.01701e-18
-7.16205e-10
-4.78675e-17
-2.7803e-07
-3.4906e-15
2.54906e-08
2.94274e-07
3.82008e-06
5.30572e-05
0.000649687
0.00679013
0.0590144
0.423001
2.50963
12.4554
52.429
189.873
599.261
1664.02
4081.07
8803.27
16561.7
27902
43796.8
64080.1
89158.8
120092
158776
207983
271503
354313
462938
605912
794468
1.04343e+06
1.37243e+06
1.80754e+06
2.38345e+06
3.14643e+06
4.15833e+06
5.50207e+06
7.28915e+06
9.6702e+06
1.28393e+07
1.6975e+07
2.26903e+07
3.03791e+07
4.11224e+07
4.45414e+08
3.02604e+07
2.15986e+07
1.52048e+07
1.05408e+07
7.18475e+06
4.80775e+06
3.15561e+06
2.03422e+06
1.29805e+06
841316
432918
63996.6
2771.98
56.3846
0.702517
0.00758921
0.000114141
3.55267e-06
2.60686e-07
3.98898e-08
1.02392e-08
3.51457e-09
1.35374e-09
5.08531e-10
2.60953e-10
1.09398e-10
4.9809e-11
1.71208e-11
9.83923e-12
9.49381e-12
1.67668e-12
1.47496e-12
2.8343e-13
1.19617e-13
4.86476e-14
1.87639e-14
5.9404e-15
-5.01776e-12
-2.61427e-07
-1.95598e-17
0
1.22747e-11
0
-2.77929e-07
-2.78959e-07
0
-2.00111e-10
-1.99405e-10
-3.96663e-10
-2.74453e-07
-2.72358e-07
2.70235e-07
-8.4939e-10
2.66735e-07
-2.6571e-07
-3.79274e-15
1.82866e-08
3.29742e-07
4.28725e-06
5.89612e-05
0.000725562
0.00761486
0.0664538
0.478273
2.84947
14.2041
60.0634
218.534
692.736
1929.62
4731.44
10129
18744.1
31087.8
48205.5
69771.3
96209.2
128707
169285
220867
287381
373972
487350
636291
832329
1.09068e+06
1.43146e+06
1.88138e+06
2.47594e+06
3.26245e+06
4.30407e+06
5.68544e+06
7.52024e+06
9.96184e+06
1.31896e+07
1.74147e+07
2.32528e+07
3.11011e+07
8.81439e+07
4.0103e+08
2.8622e+07
2.04245e+07
1.43799e+07
9.9726e+06
6.80136e+06
4.55492e+06
2.99336e+06
1.93383e+06
1.23943e+06
810522
381920
48354.8
1886.62
36.0003
0.435128
0.00479569
7.74464e-05
2.65891e-06
2.13534e-07
3.4361e-08
8.99815e-09
3.27099e-09
1.32927e-09
5.45837e-10
2.33437e-10
1.07758e-10
4.61486e-11
2.05629e-11
8.97394e-12
3.43296e-12
6.03507e-13
6.49147e-13
-4.91783e-12
1.19171e-13
4.56163e-14
1.58478e-14
7.51308e-13
1.06084e-15
0
0
-2.7016e-12
6.70426e-12
-2.72852e-07
0
-2.20726e-11
0
0
0
0
-2.66475e-07
1.42415e-18
-2.81896e-18
-8.37505e-18
-5.53715e-17
-4.07182e-16
-4.07754e-15
2.64771e-08
2.33906e-07
4.77003e-06
6.5132e-05
0.000805455
0.00849209
0.0744321
0.538064
3.22049
16.1317
68.5642
250.773
798.837
2232.61
5468.67
11581.4
20979.1
34192.2
52396.7
75064.8
102702
136613
178918
232648
301818
391668
509005
662717
864447
1.12951e+06
1.47809e+06
1.93688e+06
2.54119e+06
3.33781e+06
4.38887e+06
5.77693e+06
7.61188e+06
1.00403e+07
1.32307e+07
1.73695e+07
2.3031e+07
3.05436e+07
1.65537e+08
3.33997e+08
2.76754e+07
1.97326e+07
1.38861e+07
9.62862e+06
6.56783e+06
4.40077e+06
2.89497e+06
1.8738e+06
1.20552e+06
793987
334550
38059.6
1363.86
24.6598
0.290867
0.00327235
5.6356e-05
2.10594e-06
1.82834e-07
3.16542e-08
8.46973e-09
2.85479e-09
1.21407e-09
5.35529e-10
2.39558e-10
1.05261e-10
4.54569e-11
1.88089e-11
8.12214e-12
3.77004e-12
1.5438e-12
5.79729e-12
2.33319e-13
1.06918e-13
4.25751e-14
1.72864e-14
5.9564e-15
9.74494e-16
0
2.78436e-21
0
-2.68485e-07
-2.69549e-07
-4.5535e-20
9.09374e-20
2.68402e-07
1.79979e-19
0
0
0
2.55174e-07
2.52657e-07
-1.07442e-17
2.4758e-07
-4.37073e-16
-4.38381e-15
3.32308e-08
5.06679e-07
5.13558e-06
7.14924e-05
0.000887242
0.00939597
0.0827297
0.600861
3.61425
18.2005
77.7954
286.2
916.652
2570.68
6281.68
13098.1
23073.5
36907.7
55974.5
79533.4
108200
143360
187223
242874
314374
407002
527600
685077
891067
1.16083e+06
1.51439e+06
1.97814e+06
2.58685e+06
3.38638e+06
4.43735e+06
5.81998e+06
7.64025e+06
1.00385e+07
1.31762e+07
1.72287e+07
2.27516e+07
3.00552e+07
2.21077e+08
2.8113e+08
2.69848e+07
1.92463e+07
1.35496e+07
9.40055e+06
6.41671e+06
4.30342e+06
2.83458e+06
1.8386e+06
1.18758e+06
786859
290559
31201.5
1043.19
18.0319
0.208766
0.00239563
4.36223e-05
1.75035e-06
1.61915e-07
2.96121e-08
7.93878e-09
3.03631e-09
1.27418e-09
5.24541e-10
2.24945e-10
9.53238e-11
4.18515e-11
1.85336e-11
8.01565e-12
3.3576e-12
1.52823e-12
6.38691e-13
1.00567e-12
5.21125e-12
7.94093e-13
1.58126e-14
-7.36187e-13
5.00645e-12
0
0
0
-2.65888e-07
0
-1.31516e-11
0
2.62996e-07
0
-1.84922e-10
0
-3.22618e-10
0
-2.44048e-07
-1.37201e-09
-5.59798e-17
2.67412e-09
-4.65281e-15
2.9195e-08
4.12444e-07
5.49848e-06
7.75136e-05
0.000967158
0.0102887
0.0910069
0.664179
4.01591
20.3374
87.4585
323.787
1043.1
2934.66
7137.54
14546.6
24693.3
38776.8
58397.2
82599.6
112099
148338
193581
250924
324449
419439
542735
703224
912483
1.18565e+06
1.54253e+06
2.00915e+06
2.61967e+06
3.41906e+06
4.46642e+06
5.83952e+06
7.64161e+06
1.00098e+07
1.31006e+07
1.70838e+07
2.25006e+07
2.96497e+07
2.63628e+08
2.41104e+08
2.6331e+07
1.88133e+07
1.32669e+07
9.21945e+06
6.30377e+06
4.23544e+06
2.79572e+06
1.81823e+06
1.17885e+06
783596
271784
26510
839.492
13.999
0.159882
0.00186852
3.56573e-05
1.51634e-06
1.47712e-07
2.82046e-08
7.59341e-09
2.8872e-09
1.15973e-09
5.12967e-10
2.20334e-10
9.65858e-11
4.39475e-11
1.8883e-11
7.90266e-12
2.58232e-12
1.51151e-12
5.86821e-13
2.53063e-13
1.05731e-13
-7.02122e-13
1.57749e-14
5.59431e-15
9.77396e-16
0
0
0
0
0
-2.6186e-07
0
0
0
-1.80085e-10
4.6423e-15
3.83848e-10
8.94981e-15
-2.5208e-18
1.31576e-09
-1.4263e-09
-2.54812e-09
-4.89259e-15
2.98763e-08
4.44038e-07
5.94028e-06
8.3083e-05
0.00104089
0.0111197
0.0987895
0.724382
4.40255
22.4222
97.0236
361.539
1171.56
3303.72
7965.32
15679.8
25306.1
39125.9
58942.1
83504.9
113588
150680
197045
255779
330950
427828
553237
716019
927676
1.2032e+06
1.56219e+06
2.03024e+06
2.64087e+06
3.43802e+06
4.47954e+06
5.84192e+06
7.62657e+06
9.96674e+06
1.30115e+07
1.69261e+07
2.2237e+07
2.92283e+07
2.96981e+08
2.10109e+08
2.56884e+07
1.84001e+07
1.30071e+07
9.06076e+06
6.21039e+06
4.18328e+06
2.76884e+06
1.80637e+06
1.1756e+06
782840
258122
23398.7
710.38
11.5159
0.130207
0.0015453
3.06165e-05
1.36191e-06
1.38051e-07
2.61539e-08
7.51912e-09
2.80946e-09
1.1349e-09
5.00892e-10
2.15527e-10
9.70919e-11
4.03711e-11
1.65356e-11
7.78405e-12
3.45065e-12
-2.73835e-12
5.57372e-12
2.73778e-13
1.05033e-13
4.20457e-14
1.57277e-14
4.8739e-15
8.89053e-16
0
0
0
0
-2.59619e-07
-3.02979e-16
-8.61563e-20
0
0
-2.29557e-15
6.46488e-19
0
-2.29706e-07
-5.77616e-10
-9.47457e-18
2.15978e-07
-1.3355e-09
-5.10036e-15
2.56072e-08
3.5882e-07
6.30769e-06
8.76911e-05
0.00110298
0.0118271
0.105482
0.77672
4.74277
24.2816
105.679
396.189
1290.44
3639.36
8634.41
16077.4
24150.7
37107.6
56739.4
81309.4
111634
149212
196276
255896
332107
430154
556819
720888
933764
1.21027e+06
1.56972e+06
2.03733e+06
2.64604e+06
3.43916e+06
4.47377e+06
5.82446e+06
7.58879e+06
9.89612e+06
1.28906e+07
1.67323e+07
2.19307e+07
2.87556e+07
3.21476e+08
1.88053e+08
2.50672e+07
1.80051e+07
1.27629e+07
8.91518e+06
6.12767e+06
4.13944e+06
2.74813e+06
1.79875e+06
1.17486e+06
783622
249128
21442.8
630.916
10.0115
0.112364
0.00134925
2.74855e-05
1.26212e-06
1.31831e-07
2.59394e-08
7.59977e-09
2.88623e-09
1.18051e-09
4.88388e-10
2.21024e-10
9.26285e-11
3.95843e-11
1.7621e-11
7.27519e-12
3.22525e-12
1.38616e-12
6.19729e-13
2.26127e-13
5.09028e-12
3.89743e-14
1.5672e-14
4.27433e-12
8.89153e-16
0
0
0
0
0
0
-2.50638e-07
0
0
-2.37511e-07
1.49471e-10
2.26488e-07
3.49426e-10
-2.32202e-18
5.39806e-10
-1.05353e-09
-1.03012e-09
2.01919e-09
3.5363e-08
4.82896e-07
6.39825e-06
9.11302e-05
0.00114817
0.0123455
0.110427
0.815761
4.99927
25.7001
112.364
423.207
1382.58
3881.01
8931.26
15610.4
23678.2
31813.2
50896.7
75025
105071
142507
189525
249139
325332
423291
549734
713359
925446
1.20065e+06
1.55804e+06
2.02252e+06
2.6266e+06
3.41275e+06
4.43622e+06
5.76972e+06
7.50861e+06
9.7783e+06
1.27175e+07
1.64803e+07
2.15588e+07
2.82078e+07
3.37605e+08
1.74233e+08
2.44541e+07
1.76158e+07
1.25221e+07
8.7711e+06
6.04521e+06
4.0951e+06
2.72651e+06
1.78993e+06
1.17258e+06
782994
243942
20349.2
586.207
9.16583
0.102346
0.00123846
2.56915e-05
1.20545e-06
1.28351e-07
2.53212e-08
7.48791e-09
2.79865e-09
1.10805e-09
4.7548e-10
2.20237e-10
9.28959e-11
4.14353e-11
1.72938e-11
6.83794e-12
3.17733e-12
1.28002e-12
6.12804e-13
2.23997e-13
9.78611e-14
4.1579e-14
1.48281e-14
5.21095e-15
7.34235e-13
0
2.58461e-07
-2.57366e-07
0
0
-2.49763e-07
2.4325e-11
0
2.36278e-07
-2.30706e-07
-1.44728e-10
0
1.14542e-18
1.54823e-14
6.32523e-10
-6.70828e-17
1.19674e-09
-5.29738e-15
3.72731e-08
4.86401e-07
6.47806e-06
9.27862e-05
0.00117119
0.0126108
0.112978
0.836063
5.13382
26.4506
115.922
437.464
1427.66
3951.81
8807.53
16261.1
24651
32243.3
40812.5
63909.5
92861.9
129139
174878
233013
307440
403247
527032
687351
895300
1.16529e+06
1.51607e+06
1.97205e+06
2.56506e+06
3.33663e+06
4.341e+06
5.64916e+06
7.35405e+06
9.57762e+06
1.24539e+07
1.61317e+07
2.10858e+07
2.75569e+07
3.45822e+08
1.67838e+08
2.38362e+07
1.72102e+07
1.22593e+07
8.60355e+06
5.94067e+06
4.03157e+06
2.68906e+06
1.76851e+06
1.16036e+06
775508
240964
19899.3
567.336
8.80359
0.0980393
0.0011907
2.49163e-05
1.18083e-06
1.27182e-07
2.50081e-08
7.38697e-09
2.70793e-09
1.11245e-09
4.90479e-10
2.20101e-10
9.35247e-11
4.05454e-11
1.69563e-11
8.07705e-12
2.60629e-12
1.34947e-12
6.05655e-13
9.61128e-13
-4.81391e-12
-4.90478e-12
1.41305e-14
4.84409e-15
8.88272e-16
0
0
1.08556e-20
-1.14628e-11
0
0
0
8.66143e-11
-1.5946e-19
0
-1.44721e-10
0
3.35816e-10
-2.22275e-18
-1.50369e-14
-1.22921e-09
1.19669e-09
4.23564e-09
3.72713e-08
4.86376e-07
6.56402e-06
9.27851e-05
0.00117132
0.0126121
0.112987
0.836125
5.13415
26.4521
115.928
437.482
1427.71
3951.85
8807.68
16261.2
24651
32243.2
40809.2
63905.9
92857.9
129134
174873
233007
307434
403239
527023
687340
895286
1.16527e+06
1.51605e+06
1.97203e+06
2.56503e+06
3.3366e+06
4.34098e+06
5.64914e+06
7.35404e+06
9.57762e+06
1.2454e+07
1.61317e+07
2.1086e+07
2.75571e+07
3.45853e+08
1.67805e+08
2.3836e+07
1.721e+07
1.22591e+07
8.60347e+06
5.94061e+06
4.03153e+06
2.68904e+06
1.76849e+06
1.16035e+06
775500
240945
19896.1
567.224
8.80163
0.0980165
0.00119044
2.49119e-05
1.18308e-06
1.26691e-07
2.52615e-08
7.38713e-09
2.70803e-09
1.11247e-09
4.70954e-10
2.20104e-10
9.63483e-11
3.93744e-11
1.82873e-11
1.20471e-11
3.99294e-12
1.34948e-12
6.29906e-13
2.43977e-13
4.29096e-12
7.68383e-13
1.41305e-14
4.8441e-15
4.98498e-12
-3.63345e-13
0
0
-2.5812e-07
-2.56302e-07
0
0
0
-2.42346e-07
0
6.26558e-19
2.26478e-07
3.49408e-10
-2.32189e-18
1.2032e-09
-2.04481e-07
-5.13836e-16
4.50051e-09
3.53598e-08
4.82849e-07
6.40613e-06
9.11537e-05
0.00114856
0.0123489
0.110454
0.815941
5.00025
25.7045
112.381
423.26
1382.72
3881.26
8931.1
15610.8
23678.4
31809.4
50892.3
75019.9
105065
142500
189518
249130
325321
423278
549719
713340
925422
1.20062e+06
1.55801e+06
2.02248e+06
2.62657e+06
3.41271e+06
4.43619e+06
5.76971e+06
7.50864e+06
9.7784e+06
1.27177e+07
1.64806e+07
2.15593e+07
2.82085e+07
3.37702e+08
1.74131e+08
2.44535e+07
1.76153e+07
1.25218e+07
8.77086e+06
6.04503e+06
4.09498e+06
2.72642e+06
1.78986e+06
1.17254e+06
782959
243883
20339.4
585.856
9.15963
0.102274
0.00123766
2.56787e-05
1.20785e-06
1.2836e-07
2.53828e-08
7.35456e-09
2.79876e-09
1.11613e-09
4.75509e-10
2.25889e-10
9.57834e-11
3.87722e-11
1.86494e-11
7.22407e-12
3.35168e-12
1.36815e-12
-1.49907e-13
2.24007e-13
1.03497e-13
4.15793e-14
1.56103e-14
4.85604e-15
8.88843e-16
3.63863e-13
-2.74906e-21
0
0
0
3.03016e-16
-4.58117e-11
-9.04937e-11
0
2.29548e-15
0
2.34473e-07
-2.29331e-07
7.09881e-10
5.65002e-10
1.10687e-09
-4.96464e-16
2.62785e-09
3.28954e-08
5.64951e-07
6.31621e-06
8.77589e-05
0.00110367
0.0118335
0.105532
0.777055
4.7446
24.29
105.712
396.296
1290.74
3640.03
8635.32
16076.6
24148.4
37108.2
56740.1
81310.3
111636
149214
196278
255898
332110
430157
556822
720891
933765
1.21027e+06
1.56972e+06
2.03731e+06
2.64602e+06
3.43916e+06
4.47379e+06
5.82452e+06
7.58891e+06
9.89634e+06
1.2891e+07
1.67329e+07
2.19315e+07
2.87568e+07
3.21646e+08
1.87876e+08
2.50663e+07
1.80043e+07
1.27624e+07
8.91478e+06
6.12739e+06
4.13924e+06
2.74799e+06
1.79865e+06
1.1748e+06
783570
249029
21425.8
630.284
10.0001
0.112231
0.00134778
2.74597e-05
1.26225e-06
1.31308e-07
2.59413e-08
7.60029e-09
2.88645e-09
1.10019e-09
4.88418e-10
2.16324e-10
9.26329e-11
3.95862e-11
1.76218e-11
7.27533e-12
3.40209e-12
1.38618e-12
5.74804e-13
2.26137e-13
1.04288e-13
5.04386e-12
1.5672e-14
4.86601e-15
8.89152e-16
0
-2.76084e-21
0
-2.63298e-07
0
2.61855e-07
2.60037e-07
9.24357e-11
0
-3.3866e-19
-2.46845e-07
-2.42473e-07
-3.0646e-10
6.01284e-10
7.25437e-10
3.38232e-14
1.40488e-09
-4.8922e-15
3.26191e-08
4.43998e-07
5.9397e-06
8.31561e-05
0.00104146
0.0111275
0.0988545
0.724813
4.4049
22.4329
97.0646
361.674
1171.94
3304.6
7966.81
15680.7
25306.2
39129.3
58946.2
83509.9
113594
150688
197055
255791
330965
427848
553261
716049
927712
1.20325e+06
1.56224e+06
2.0303e+06
2.64094e+06
3.43809e+06
4.47962e+06
5.84205e+06
7.62676e+06
9.96704e+06
1.30119e+07
1.69269e+07
2.22381e+07
2.92299e+07
2.97234e+08
2.09844e+08
2.5687e+07
1.8399e+07
1.30063e+07
9.06016e+06
6.20997e+06
4.18299e+06
2.76864e+06
1.80624e+06
1.17552e+06
782782
257986
23373
709.392
11.4977
0.129993
0.00154296
3.0577e-05
1.3596e-06
1.37387e-07
2.67782e-08
7.51964e-09
2.80957e-09
1.13051e-09
5.00923e-10
2.15533e-10
1.00102e-10
3.96754e-11
1.72305e-11
8.49373e-12
4.35339e-12
1.49384e-12
-1.52932e-13
2.5097e-13
9.93159e-14
3.91839e-14
1.57278e-14
5.23075e-15
7.35478e-13
0
0
2.64783e-07
5.35079e-12
0
0
0
1.23625e-15
0
0
-4.78085e-15
3.22603e-10
0
-2.62011e-18
-6.15465e-10
-1.49197e-09
-2.34321e-07
-2.37646e-09
3.15516e-08
4.12408e-07
5.62721e-06
7.75837e-05
0.000967984
0.0102982
0.0910836
0.664686
4.01867
20.3499
87.5064
323.944
1043.54
2935.71
7139.5
14548.8
24695.7
38782.8
58404.9
82609.4
112112
148355
193602
250952
324486
419487
542797
703302
912581
1.18577e+06
1.54267e+06
2.00932e+06
2.61986e+06
3.41926e+06
4.46662e+06
5.83971e+06
7.64181e+06
1.00101e+07
1.3101e+07
1.70845e+07
2.25019e+07
2.96515e+07
2.63965e+08
2.40748e+08
2.63288e+07
1.88114e+07
1.32653e+07
9.21832e+06
6.30297e+06
4.2349e+06
2.79536e+06
1.81801e+06
1.17872e+06
783518
271608
26472.7
837.981
13.9703
0.15954
0.00186482
3.55996e-05
1.51655e-06
1.47027e-07
2.82073e-08
7.73581e-09
2.72093e-09
1.15977e-09
5.12999e-10
2.14309e-10
9.65903e-11
4.23955e-11
1.96703e-11
2.95503e-12
3.31591e-12
1.42013e-12
6.32759e-13
5.31403e-12
9.99684e-14
4.22513e-14
1.7212e-14
5.23668e-15
9.77396e-16
-2.60684e-07
-2.78435e-21
0
0
1.33339e-11
2.69888e-07
0
0
0
-2.6456e-07
0
-4.09158e-10
0
7.97335e-10
2.49372e-07
-5.31291e-17
-2.79991e-09
-4.38349e-15
3.32282e-08
3.86451e-07
5.14612e-06
7.14648e-05
0.00088831
0.00940658
0.0828153
0.601425
3.6173
18.2143
77.8481
286.372
917.14
2571.86
6284.03
13101.5
23078
36916.4
55986.1
79548.9
108221
143387
187261
242924
314441
407092
527719
685231
891265
1.16108e+06
1.5147e+06
1.97853e+06
2.58731e+06
3.38692e+06
4.43798e+06
5.8207e+06
7.64108e+06
1.00395e+07
1.31774e+07
1.72301e+07
2.27534e+07
3.00569e+07
2.21468e+08
2.80706e+08
2.69817e+07
1.92435e+07
1.35472e+07
9.39862e+06
6.41526e+06
4.3024e+06
2.8339e+06
1.83817e+06
1.18734e+06
786730
290346
31148.5
1040.89
17.9864
0.208214
0.00238973
4.35338e-05
1.74919e-06
1.61935e-07
2.93191e-08
8.08946e-09
2.96021e-09
1.18773e-09
5.24574e-10
2.2496e-10
9.84535e-11
4.47227e-11
1.8535e-11
8.01581e-12
3.35778e-12
1.43579e-12
6.38714e-13
5.36179e-12
1.17981e-13
-4.29974e-12
1.58126e-14
5.04912e-12
5.00636e-12
0
-2.65152e-07
0
1.2159e-11
0
-3.2192e-16
-6.44558e-16
-9.82568e-11
2.72741e-07
-1.07286e-10
0
-1.00214e-14
0
0
1.48436e-09
-4.98312e-17
-1.61316e-09
-4.08821e-15
2.32677e-08
2.33887e-07
4.65473e-06
6.5242e-05
0.000806595
0.00850346
0.0745237
0.538666
3.22374
16.1464
68.6199
250.955
799.352
2233.87
5471.26
11585.6
20985.3
34203
52411.7
75085.3
102730
136651
178970
232720
301916
391802
509186
662960
864770
1.12994e+06
1.47866e+06
1.93762e+06
2.54214e+06
3.33904e+06
4.39044e+06
5.7789e+06
7.61432e+06
1.00432e+07
1.32339e+07
1.73723e+07
2.30322e+07
3.05416e+07
1.66222e+08
3.33384e+08
2.76725e+07
1.97299e+07
1.38835e+07
9.62632e+06
6.56595e+06
4.39934e+06
2.89395e+06
1.87312e+06
1.20509e+06
793749
334075
37981.2
1360.22
24.5848
0.289939
0.00326254
5.62182e-05
2.1024e-06
1.82256e-07
3.09798e-08
8.62449e-09
2.95108e-09
1.21421e-09
5.34839e-10
2.30061e-10
1.05995e-10
4.33663e-11
1.88099e-11
8.87202e-12
8.52203e-12
7.87741e-13
6.44219e-13
1.01424e-12
9.5221e-14
7.95802e-13
1.72869e-14
5.59714e-15
9.74494e-16
-3.66475e-13
0
0
0
-2.47751e-11
2.49324e-11
0
0
-2.78805e-07
0
0
2.74442e-07
4.31117e-10
-2.91794e-18
2.01722e-14
-5.18422e-17
-3.84451e-16
-8.35973e-14
2.43803e-08
3.29716e-07
4.2869e-06
5.89451e-05
0.000726741
0.00762677
0.0665488
0.478895
2.85282
14.2192
60.1204
218.719
693.26
1930.91
4734.14
10133.6
18751.3
31100.1
48223
69795.7
96243.2
128754
169351
220960
287510
374151
487597
636631
832792
1.0913e+06
1.4323e+06
1.88249e+06
2.47739e+06
3.2643e+06
4.30638e+06
5.6882e+06
7.52336e+06
9.965e+06
1.31924e+07
1.74165e+07
2.32526e+07
3.10988e+07
8.90084e+07
4.00302e+08
2.86135e+07
2.04181e+07
1.43747e+07
9.96851e+06
6.79825e+06
4.55267e+06
2.99181e+06
1.93282e+06
1.23881e+06
810165
381415
48237.2
1880.57
35.8678
0.433442
0.00477823
7.72193e-05
2.65546e-06
2.14961e-07
3.43657e-08
9.19322e-09
3.0929e-09
1.23813e-09
5.45887e-10
2.37711e-10
1.08507e-10
4.61527e-11
2.05643e-11
4.5632e-12
3.8112e-12
-3.64706e-12
6.96572e-13
2.8197e-13
-6.54387e-13
4.56186e-14
-7.34969e-13
5.75296e-15
7.38141e-13
0
0
-2.72184e-07
0
1.12474e-11
0
0
-1.92059e-19
2.84859e-07
-1.12596e-10
0
0
3.61798e-10
0
-9.00653e-18
-4.78648e-17
4.12533e-14
-3.50831e-15
2.19753e-08
1.54995e-07
3.83263e-06
5.31687e-05
0.000650893
0.00680215
0.0591103
0.423628
2.513
12.4705
52.4859
190.057
599.778
1665.28
4083.74
8808.01
16569.2
27914.4
43814.5
64104.8
89193.1
120139
158843
208076
271633
354494
463188
606257
794940
1.04407e+06
1.3733e+06
1.8087e+06
2.385e+06
3.14845e+06
4.16094e+06
5.50536e+06
7.29322e+06
9.67507e+06
1.2845e+07
1.69823e+07
2.27007e+07
3.03974e+07
4.12415e+07
4.45111e+08
3.02445e+07
2.15866e+07
1.51957e+07
1.0534e+07
7.17973e+06
4.80418e+06
3.15315e+06
2.0326e+06
1.29703e+06
840713
432339
63818.5
2761.68
56.1449
0.699362
0.00755673
0.00011373
3.54494e-06
2.60101e-07
3.98965e-08
1.02407e-08
3.69742e-09
1.35316e-09
6.02284e-10
2.60986e-10
1.05021e-10
4.98133e-11
2.08235e-11
9.07602e-12
5.00539e-12
1.57105e-12
7.01419e-13
3.07323e-13
1.19618e-13
4.86508e-14
1.8765e-14
5.94077e-15
7.38815e-13
2.62167e-07
3.01093e-12
6.14616e-12