/*--------------------------------*- C++ -*----------------------------------*\
  =========                 |
  \\      /  F ield         | OpenFOAM: The Open Source CFD Toolbox
   \\    /   O peration     | Website:  https://openfoam.org
    \\  /    A nd           | Version:  8
     \\/     M anipulation  |
\*---------------------------------------------------------------------------*/
FoamFile
{
    version     2.0;
    format      ascii;
    class       volScalarField;
    location    "340/fluid";
    object      rDeltaT;
}
// * * * * * * * * * * * * * * * * * * * * * * * * * * * * * * * * * * * * * //

dimensions      [0 0 -1 0 0 0 0];

internalField   nonuniform List<scalar> 
4000
(
513.088
538.455
562.772
586.14
608.505
629.789
649.881
668.659
686.007
701.835
716.101
728.843
740.201
750.439
759.96
769.268
778.763
788.678
798.992
809.403
819.372
828.248
835.369
840.158
842.193
841.262
837.233
830.062
819.783
806.49
790.319
771.439
750.04
726.323
728.339
761.518
797.941
833.87
869.33
904.348
938.955
973.179
1007.05
1040.57
1073.78
1106.66
1139.22
1171.42
1203.25
1234.66
1265.59
1295.98
1325.76
1354.83
1383.1
1410.45
1436.78
1461.95
1485.69
1507.94
1528.69
1547.69
2328.33
15544.4
1558.69
1526.94
1489.58
1446.9
1399.37
1347.4
1291.38
1231.79
1169.21
1104.36
1037.9
970.92
905.252
843.331
787.969
742.445
709.267
688.746
678.566
674.937
674.252
673.841
672.18
668.474
662.557
654.568
644.747
633.357
620.645
606.832
592.102
576.614
560.495
543.814
526.611
508.945
512.656
537.419
561.003
583.322
604.349
624.028
642.278
659.019
674.192
687.779
699.827
710.471
719.95
728.625
736.96
745.4
754.321
763.936
774.213
784.84
795.257
804.742
812.571
818.125
820.944
820.698
817.202
810.398
800.328
787.106
770.895
751.889
730.298
706.34
696.565
718.293
755.979
793.262
830.155
866.675
902.847
938.695
974.243
1009.51
1044.51
1079.25
1113.73
1147.93
1181.84
1215.42
1248.62
1281.4
1313.68
1345.4
1376.47
1406.81
1436.31
1464.87
1492.23
1518.35
1543.3
1566.8
4374.81
13552.5
1570.42
1533.04
1491.55
1445.53
1394.96
1339.98
1280.82
1217.81
1151.42
1082.26
1010.94
938.842
868.363
802.705
745.646
700.585
669.444
651.489
643.589
641.768
642.66
643.937
644.319
643.162
640.118
635.144
628.329
619.819
609.779
598.376
585.764
572.085
557.462
541.968
525.637
508.614
512.018
535.365
557.367
577.966
597.109
614.746
630.829
645.327
658.238
669.612
679.565
688.3
696.113
703.389
710.565
718.054
726.224
735.291
745.223
755.712
766.205
776.002
784.357
790.6
794.198
794.738
791.988
785.863
776.388
763.669
747.861
729.159
707.776
683.935
663.844
675.306
713.967
752.403
790.611
828.599
866.379
903.971
941.392
978.66
1015.79
1052.78
1089.65
1126.38
1162.95
1199.36
1235.56
1271.52
1307.2
1342.52
1377.44
1411.88
1445.74
1478.93
1511.16
1542.33
1572.47
1601.17
9318.72
9182.74
1589.02
1546.45
1499.43
1447.87
1391.81
1331.38
1266.79
1198.4
1126.74
1052.47
976.427
900.486
827.523
761.123
705.2
662.738
634.695
619.467
613.6
613.258
615.366
617.827
619.503
619.88
618.682
615.805
611.247
605.066
597.347
588.186
577.685
565.942
553.054
539.081
524.066
508.135
511.385
533.456
554.106
573.268
590.905
606.987
621.492
634.415
645.783
655.67
664.209
671.608
678.161
684.247
690.302
696.776
704.046
712.321
721.562
731.45
741.424
750.774
758.758
764.699
768.051
768.428
765.596
759.454
750.007
737.338
721.584
702.918
681.533
657.636
631.443
636.218
674.923
714.425
753.884
793.299
832.677
872.029
911.37
950.713
990.07
1029.45
1068.85
1108.27
1147.7
1187.12
1226.5
1265.81
1304.99
1343.99
1382.73
1421.11
1459.01
1496.26
1532.39
1567.34
1601
1632.58
13909.8
4621.92
1600.62
1553.75
1501.53
1444.37
1382.58
1316.47
1246.44
1172.99
1096.84
1018.79
940.019
862.822
790.278
725.918
673.17
634.367
609.739
597.17
593.118
593.987
597.004
600.311
602.871
604.167
603.973
602.213
598.892
594.049
587.739
580.023
570.964
560.627
549.08
536.36
522.5
507.626
510.704
531.38
550.578
568.239
584.331
598.834
611.741
623.065
632.854
641.2
648.259
654.256
659.504
664.391
669.361
674.86
681.256
688.746
697.28
706.533
715.938
724.784
732.325
737.883
740.908
741.006
737.934
731.581
721.942
709.087
693.141
674.267
652.647
628.478
601.961
602.769
638.016
678.528
719.183
759.973
800.898
841.966
883.184
924.563
966.11
1007.83
1049.72
1091.77
1133.97
1176.3
1218.72
1261.18
1303.63
1345.97
1388.1
1429.88
1471.09
1511.46
1550.35
1587.88
1623.14
1655.29
18039.1
1650.41
1605.44
1553.78
1496.46
1434.11
1367.22
1296.24
1221.71
1144.3
1064.86
984.268
904.02
826.646
755.284
693.334
643.837
608.507
586.917
576.565
573.924
575.67
579.326
583.263
586.564
588.749
589.586
588.976
586.896
583.355
578.384
572.021
564.307
555.29
545.022
533.53
520.844
507.086
510.015
529.305
547.096
563.329
577.98
591.039
602.509
612.416
620.818
627.82
633.585
638.346
642.418
646.188
650.096
654.582
660.007
666.562
674.192
682.571
691.137
699.184
705.973
710.83
713.208
712.712
709.098
702.248
692.146
678.852
662.481
643.182
621.124
596.492
569.476
568.744
603.089
644.528
686.285
728.346
770.708
813.369
856.333
899.603
943.18
987.062
1031.24
1075.7
1120.42
1165.36
1210.47
1255.7
1300.95
1346.12
1391.06
1435.57
1479.39
1522.05
1562.95
1601.82
1637.29
1667.58
17317.2
1652.97
1602.29
1545.69
1483.73
1416.97
1345.91
1271.12
1193.21
1113
1031.43
949.476
868.911
792.416
723.114
664.222
618.364
586.667
568.139
559.995
558.758
561.347
565.539
569.906
573.651
576.357
577.819
577.945
576.703
574.09
570.12
564.813
558.193
550.293
541.147
530.777
519.203
506.542
509.312
527.192
543.561
558.367
571.588
583.223
593.28
601.794
608.832
614.507
618.989
622.519
625.414
628.064
630.907
634.375
638.822
644.428
651.131
658.601
666.273
673.445
679.382
683.416
685.005
683.756
679.425
671.892
661.136
647.212
630.225
610.315
587.643
562.38
534.707
534.122
569.347
611.626
654.383
697.598
741.26
785.364
829.904
874.877
920.275
966.087
1012.29
1058.87
1105.78
1152.97
1200.37
1247.91
1295.46
1342.9
1390.05
1436.66
1482.44
1526.79
1569.17
1609.27
1645.7
4744.79
13912.9
1644.51
1589.94
1529.71
1464.32
1394.3
1320.23
1242.75
1162.59
1080.67
997.971
915.583
835.509
760.495
693.605
637.839
595.425
566.971
551.052
544.717
544.606
547.879
552.536
557.31
561.495
564.716
566.782
567.6
567.132
565.366
562.304
557.956
552.335
545.465
537.372
528.069
517.576
506.002
508.605
525.072
540.028
553.423
565.243
575.489
584.176
591.345
597.069
601.466
604.712
607.048
608.793
610.334
612.105
614.531
617.955
622.551
628.25
634.716
641.389
647.568
652.527
655.604
656.263
654.117
648.921
640.556
628.999
614.299
596.555
575.9
552.485
526.474
498.036
498.876
536.306
579.318
622.95
667.177
711.982
757.351
803.273
849.734
896.718
944.202
992.157
1040.54
1089.31
1138.38
1187.69
1237.12
1286.53
1335.78
1384.64
1432.87
1480.13
1525.82
1569.43
1610.75
1648.72
10670.3
8579.53
1626.09
1569.7
1507.34
1439.72
1367.52
1291.45
1212.24
1130.74
1047.95
964.863
882.716
803.693
730.56
666.3
613.697
574.606
549.184
535.657
530.972
531.893
535.798
540.875
545.999
550.548
554.186
556.743
558.133
558.315
557.273
555
551.499
546.778
540.849
533.735
525.443
515.988
505.472
507.895
522.943
536.482
548.47
558.895
567.762
575.091
580.928
585.35
588.48
590.495
591.64
592.233
592.66
593.348
594.717
597.1
600.66
605.321
610.743
616.365
621.49
625.398
627.435
627.071
623.926
617.759
608.453
595.984
580.399
561.793
540.292
516.041
489.196
459.918
463.012
503.487
547.119
591.496
636.589
682.374
728.83
775.936
823.671
872.009
920.916
970.352
1020.26
1070.59
1121.23
1172.11
1223.08
1274
1324.67
1374.88
1424.33
1472.65
1519.2
1563.53
1605.43
1643.75
14642.2
4555.09
1602.34
1544.89
1481.11
1411.96
1338.28
1260.91
1180.67
1098.51
1015.47
932.551
851.138
773.533
702.494
640.911
591.351
555.328
532.614
521.172
517.91
519.731
524.208
529.69
535.17
540.087
544.143
547.18
549.118
549.915
549.551
548.018
545.312
541.435
536.398
530.216
522.893
514.442
504.956
507.183
520.809
532.933
543.517
552.552
560.048
566.03
570.545
573.675
575.547
576.338
576.296
575.738
575.045
574.639
574.932
576.249
578.742
582.327
586.661
591.181
595.195
597.989
598.916
597.457
593.237
586.021
575.695
562.236
545.69
526.15
503.736
478.589
450.858
421.446
427.323
470.556
514.689
559.68
605.492
652.095
699.46
747.56
796.363
845.835
895.933
946.604
997.785
1049.4
1101.34
1153.5
1205.74
1257.87
1309.69
1360.94
1411.28
1460.33
1507.36
1551.91
1593.68
1631.44
18387.5
1626.88
1575.97
1517.18
1452.07
1381.75
1307.13
1229.05
1148.4
1066.14
983.36
901.053
820.74
744.802
675.974
617.048
570.389
537.201
516.935
507.357
505.371
508.017
513.039
518.924
524.763
530.051
534.517
538.019
540.481
541.862
542.142
541.309
539.357
536.285
532.099
526.81
520.42
512.941
504.454
506.469
518.671
529.378
538.557
546.203
552.33
556.966
560.162
562.002
562.615
562.183
560.951
559.235
557.413
555.903
555.106
555.339
556.743
559.227
562.443
565.826
568.689
570.324
570.095
567.489
562.14
553.82
542.419
527.917
510.359
489.837
466.468
440.39
411.746
384.764
393.741
437.256
481.775
527.251
573.641
620.908
669.017
717.931
767.612
818.017
869.092
920.775
972.992
1025.65
1078.64
1131.84
1185.07
1238.16
1290.87
1342.91
1393.94
1443.51
1490.68
1535.53
1576.71
1612.89
18366.8
1601.85
1548.42
1487.96
1421.63
1350.41
1275.17
1196.77
1116.09
1034.11
951.925
870.523
791.54
717.402
650.808
594.454
550.509
519.907
501.832
493.907
493.061
496.466
502.016
508.316
514.535
520.214
525.108
529.084
532.072
534.034
534.946
534.797
533.578
531.286
527.925
523.502
518.018
511.482
503.967
505.755
516.53
525.818
533.591
539.848
544.606
547.896
549.772
550.322
549.676
548.017
545.591
542.712
539.755
537.129
535.23
534.362
534.659
536.02
538.091
540.31
541.991
542.434
541.013
537.224
530.709
521.249
508.738
493.158
474.558
453.028
428.684
401.659
372.094
347.61
359.717
403.413
448.209
494.049
540.885
588.675
637.376
686.944
737.334
788.494
840.363
892.87
945.932
999.446
1053.3
1107.34
1161.4
1215.28
1268.74
1321.46
1373.07
1423
1470.43
1515.18
1555.74
1605.22
17865.3
1573.63
1518.24
1456.53
1389.41
1317.76
1242.37
1164.09
1083.79
1002.46
921.158
840.897
763.415
691.157
626.78
572.883
531.461
503.214
487.107
480.663
480.853
484.972
491.045
497.775
504.398
510.493
515.834
520.3
523.823
526.367
527.909
528.436
527.939
526.412
523.858
520.28
515.68
510.063
503.493
505.039
514.386
522.253
528.618
533.484
536.871
538.813
539.368
538.626
536.718
533.829
530.205
526.157
522.057
518.307
515.295
513.314
512.489
512.71
513.619
514.652
515.13
514.359
511.722
506.726
499.023
488.4
474.757
458.083
438.425
415.876
390.551
362.58
332.1
310.031
325.13
368.914
413.882
459.974
507.137
555.322
604.478
654.557
705.506
757.265
809.766
862.93
916.665
970.861
1025.39
1080.1
1134.82
1189.32
1243.36
1296.6
1348.67
1398.94
1446.68
1491.69
1532.49
3331.04
16209.2
1542.35
1485.99
1423.69
1356.29
1284.6
1209.42
1131.56
1051.9
971.441
891.206
812.235
736.342
665.971
603.742
552.162
513.065
486.948
472.605
467.49
468.63
473.429
480.026
487.207
494.262
500.801
506.616
511.592
515.666
518.804
520.982
522.186
522.407
521.638
519.878
517.132
513.397
508.679
503.03
504.322
512.238
518.683
523.638
527.111
529.125
529.718
528.949
526.912
523.74
519.618
514.792
509.571
504.322
499.442
495.308
492.205
490.247
489.315
489.048
488.881
488.14
486.14
482.272
476.056
467.151
455.354
440.572
422.796
402.079
378.513
352.213
323.307
291.931
272.076
289.907
333.691
378.737
424.98
472.361
520.825
570.318
620.783
672.16
724.385
777.382
831.066
885.336
940.078
995.156
1050.41
1105.66
1160.68
1215.2
1268.91
1321.43
1372.15
1420.35
1465.92
1507.58
6402.01
13561.6
1508.02
1451.7
1389.52
1322.38
1251.08
1176.44
1099.29
1020.51
941.107
862.084
784.501
710.238
641.733
581.563
532.148
495.181
470.987
458.222
454.307
456.323
461.779
468.907
476.56
484.076
491.089
497.404
502.914
507.559
511.304
514.128
516.015
516.955
516.941
515.97
514.045
511.162
507.325
502.579
503.605
510.088
515.107
518.651
520.73
521.369
520.61
518.516
515.182
510.744
505.387
499.356
492.959
486.558
480.543
475.281
471.048
467.948
465.855
464.402
463.026
461.058
457.82
452.714
445.271
435.16
422.188
406.266
387.393
365.623
341.05
313.79
283.969
251.721
233.794
254.009
297.711
342.748
389.05
436.553
485.196
534.919
585.661
637.357
689.934
743.314
797.405
852.101
907.283
962.809
1018.52
1074.21
1129.68
1184.65
1238.8
1291.75
1342.91
1391.57
1437.65
1479.88
8641.29
11434.5
1472.34
1416.45
1354.74
1288.15
1217.52
1143.66
1067.43
989.701
911.497
833.779
757.643
685.024
618.341
560.129
512.727
477.704
455.24
443.887
441.048
443.881
449.976
457.645
465.795
473.8
481.318
488.161
494.229
499.466
503.836
507.318
509.896
511.561
512.302
512.118
511.007
508.965
505.997
502.136
502.886
507.936
511.528
513.658
514.34
513.603
511.491
508.071
503.44
497.735
491.142
483.905
476.33
468.774
461.62
455.227
449.86
445.613
442.352
439.708
437.118
433.917
429.438
423.094
414.424
403.111
388.967
371.914
351.954
329.145
303.583
275.384
244.674
211.584
195.237
217.421
260.967
305.916
352.193
399.731
448.462
498.323
549.246
601.162
653.995
707.66
762.061
817.089
872.619
928.508
984.588
1040.67
1096.52
1151.87
1206.42
1259.77
1311.34
1360.43
1406.97
1449.65
10345.5
9826.16
1436.05
1380.74
1319.7
1253.87
1184.09
1111.2
1036.03
959.489
882.578
806.239
731.594
660.609
595.688
539.328
493.795
460.553
439.659
429.571
427.67
431.268
437.994
446.215
454.886
463.41
471.46
478.859
485.511
491.36
496.373
500.528
503.809
506.205
507.706
508.308
508.007
506.801
504.689
501.7
502.167
505.781
507.945
508.66
507.945
505.831
502.366
497.619
491.691
484.718
476.889
468.446
459.693
450.981
442.687
435.161
428.658
423.261
418.83
414.992
411.186
406.753
401.034
393.454
383.564
371.056
355.752
337.581
316.55
292.722
266.194
237.082
205.513
171.616
156.454
180.148
223.469
268.257
314.434
361.926
410.664
460.579
511.598
563.649
616.65
670.514
725.141
780.418
836.219
892.395
948.779
1005.17
1061.35
1117.05
1171.96
1225.68
1277.65
1327.15
1374.12
1417.28
11682.8
8580.5
1399.5
1344.86
1284.61
1219.67
1150.9
1079.11
1005.13
929.867
854.324
779.414
706.279
636.903
573.672
519.043
475.223
443.599
424.155
415.266
414.2
418.507
425.844
434.622
443.83
452.893
461.5
469.478
476.736
483.219
488.893
493.736
497.733
500.869
503.136
504.526
505.036
504.66
503.398
501.27
501.447
503.624
504.359
503.659
501.547
498.056
493.238
487.165
479.94
471.701
462.637
452.989
443.059
433.192
423.759
415.1
407.459
400.911
395.309
390.277
385.256
379.594
372.642
363.833
352.732
339.042
322.593
303.321
281.24
256.416
228.949
198.955
166.561
131.893
117.493
142.209
185.24
229.799
275.806
323.181
371.851
421.743
472.781
524.888
577.98
631.966
686.743
742.197
798.198
854.598
911.225
967.886
1024.35
1080.36
1135.59
1189.67
1242.01
1291.92
1339.36
1383.03
12667.6
7689.01
1362.82
1308.95
1249.6
1185.68
1118.02
1047.43
974.736
900.832
826.712
753.268
681.65
613.848
552.225
499.204
456.938
426.748
408.595
400.841
400.59
405.578
413.513
422.849
432.606
442.229
451.414
459.996
467.882
475.019
481.374
486.922
491.648
495.536
498.576
500.76
502.082
502.536
502.119
500.845
500.727
501.466
500.771
498.656
495.147
490.28
484.111
476.713
468.193
458.69
448.393
437.543
426.438
415.418
404.847
395.056
386.278
378.581
371.81
365.586
359.355
352.469
344.29
334.264
321.965
307.108
289.532
269.181
246.075
220.282
191.905
161.063
127.88
100
100
103.632
146.313
190.582
236.352
283.543
332.075
381.873
432.858
484.949
538.06
592.097
646.955
702.52
758.659
815.225
872.046
928.927
985.641
1041.92
1097.46
1151.88
1204.59
1254.92
1302.83
1347.04
13317
7130.44
1326.1
1273.09
1214.74
1151.93
1085.48
1016.18
944.848
872.363
799.708
727.756
657.654
591.388
531.295
479.76
438.891
409.96
392.917
386.174
386.777
392.433
400.957
410.857
421.18
431.384
441.172
450.382
458.92
466.735
473.79
480.063
485.534
490.188
494.012
496.997
499.136
500.42
500.847
500.422
500.007
499.307
497.184
493.654
488.748
482.507
474.988
466.269
456.456
445.692
434.165
422.117
409.839
397.67
385.964
375.043
365.131
356.286
348.348
340.937
333.501
325.399
316.004
304.773
291.293
275.287
256.606
235.2
211.094
184.362
155.109
123.453
100
100
100
100
106.73
150.648
196.12
243.062
291.391
341.028
391.891
443.897
496.959
550.979
605.854
661.467
717.686
774.362
831.327
888.386
945.313
1001.85
1057.67
1112.42
1165.5
1216.26
1264.66
1309.42
13647.4
6871.99
1289.34
1237.3
1180.05
1118.45
1053.3
985.364
915.454
844.438
773.282
702.842
634.254
569.487
510.85
460.694
421.088
393.266
377.14
371.174
372.622
378.956
388.089
398.58
409.498
420.315
430.737
440.604
449.823
458.341
466.121
473.138
479.373
484.808
489.43
493.227
496.189
498.308
499.579
500
500.006
499.306
497.182
493.651
488.745
482.503
474.983
466.262
456.448
445.684
434.156
422.106
409.828
397.658
385.951
375.029
365.116
356.27
348.332
340.92
333.483
325.38
315.985
304.753
291.272
275.266
256.584
235.178
211.072
184.34
155.087
123.431
100
100
100
100
106.721
150.639
196.112
243.054
291.384
341.021
391.885
443.892
496.953
550.974
605.85
661.463
717.682
774.359
831.324
888.383
945.31
1001.84
1057.67
1112.42
1165.5
1216.26
1264.65
1309.42
13648.6
6870.66
1289.33
1237.29
1180.05
1118.45
1053.3
985.364
915.455
844.44
773.286
702.846
634.26
569.493
510.857
460.702
421.096
393.275
377.149
371.183
372.63
378.965
388.097
398.587
409.505
420.322
430.744
440.61
449.829
458.346
466.126
473.143
479.377
484.811
489.433
493.229
496.191
498.31
499.579
500
500.726
501.463
500.767
498.651
495.139
490.271
484.099
476.7
468.178
458.673
448.374
437.523
426.415
415.394
404.821
395.028
386.249
378.549
371.776
365.551
359.318
352.43
344.25
334.222
321.922
307.063
289.486
269.135
246.027
220.235
191.858
161.015
127.832
100
100
103.616
146.299
190.57
236.342
283.534
332.068
381.867
432.853
484.945
538.057
592.095
646.954
702.519
758.659
815.225
872.046
928.928
985.642
1041.93
1097.46
1151.88
1204.59
1254.92
1302.83
1347.04
13320.9
7126.32
1326.09
1273.07
1214.72
1151.92
1085.47
1016.17
944.844
872.362
799.71
727.759
657.659
591.395
531.305
479.771
438.904
409.975
392.934
386.192
386.794
392.45
400.973
410.873
421.195
431.398
441.186
450.394
458.932
466.745
473.8
480.071
485.541
490.194
494.018
497.002
499.14
500.423
500.848
500.421
501.446
503.621
504.355
503.653
501.539
498.047
493.227
487.152
479.924
471.684
462.617
452.968
443.035
433.167
423.732
415.071
407.428
400.878
395.274
390.241
385.218
379.553
372.599
363.788
352.686
338.993
322.542
303.269
281.187
256.362
228.894
198.899
166.504
131.837
117.462
142.205
185.238
229.8
275.808
323.186
371.858
421.751
472.791
524.899
577.992
631.979
686.757
742.212
798.214
854.613
911.241
967.902
1024.37
1080.38
1135.61
1189.69
1242.02
1291.93
1339.36
1383.03
12674.5
7681.82
1362.79
1308.92
1249.57
1185.65
1118
1047.41
974.72
900.819
826.702
753.26
681.645
613.845
552.226
499.208
456.946
426.759
408.609
400.857
400.607
405.596
413.53
422.866
432.622
442.244
451.428
460.009
467.894
475.03
481.383
486.931
491.655
495.543
498.582
500.765
502.086
502.538
502.12
500.844
502.166
505.778
507.941
508.654
507.938
505.822
502.355
497.606
491.675
484.7
476.869
468.424
459.669
450.955
442.659
435.132
428.626
423.227
418.794
414.954
411.146
406.71
400.989
393.407
383.514
371.004
355.698
337.524
316.492
292.662
266.132
237.019
205.449
171.55
156.423
180.156
223.48
268.27
314.449
361.944
410.685
460.601
511.622
563.675
616.678
670.543
725.17
780.449
836.25
892.426
948.81
1005.2
1061.38
1117.08
1171.98
1225.71
1277.67
1327.16
1374.14
1417.3
11693.1
8569.82
1399.46
1344.81
1284.56
1219.63
1150.86
1079.07
1005.1
929.841
854.3
779.394
706.263
636.89
573.664
519.039
475.225
443.606
424.167
415.281
414.217
418.525
425.862
434.639
443.846
452.909
461.514
469.492
476.748
483.229
488.902
493.745
497.74
500.875
503.141
504.53
505.039
504.663
503.399
501.27
502.885
507.933
511.524
513.652
514.333
513.594
511.48
508.058
503.424
497.717
491.122
483.883
476.305
468.747
461.591
455.196
449.828
445.578
442.316
439.669
437.077
433.874
429.392
423.044
414.372
403.056
388.909
371.853
351.891
329.08
303.516
275.314
244.602
211.51
195.208
217.442
260.991
305.942
352.223
399.763
448.497
498.36
549.285
601.203
654.038
707.704
762.106
817.135
872.666
928.555
984.635
1040.71
1096.56
1151.92
1206.46
1259.81
1311.38
1360.46
1407
1449.67
10359.1
9811.92
1435.99
1380.68
1319.64
1253.81
1184.04
1111.15
1035.99
959.447
882.54
806.204
731.564
660.584
595.67
539.317
493.791
460.556
439.669
429.585
427.687
431.286
438.012
446.233
454.903
463.426
471.475
478.873
485.523
491.371
496.382
500.536
503.817
506.211
507.711
508.312
508.011
506.803
504.69
501.7
503.604
510.086
515.104
518.646
520.723
521.36
520.599
518.502
515.167
510.726
505.367
499.334
492.935
486.531
480.514
475.25
471.015
467.913
465.818
464.363
462.985
461.013
457.772
452.663
445.216
435.102
422.126
406.201
387.325
365.552
340.976
313.713
283.89
251.639
233.767
254.042
297.748
342.788
389.093
436.599
485.245
534.971
585.716
637.413
689.993
743.374
797.466
852.163
907.345
962.872
1018.58
1074.28
1129.74
1184.71
1238.86
1291.8
1342.96
1391.61
1437.69
1479.91
8657.13
11417.9
1472.26
1416.37
1354.67
1288.08
1217.45
1143.6
1067.36
989.641
911.442
833.729
757.599
684.987
618.311
560.109
512.716
477.702
455.247
443.9
441.065
443.9
449.996
457.663
465.812
473.817
481.333
488.175
494.242
499.477
503.846
507.327
509.904
511.567
512.308
512.122
511.01
508.968
505.998
502.136
504.322
512.236
518.679
523.633
527.105
529.117
529.707
528.936
526.897
523.723
519.599
514.77
509.547
504.296
499.414
495.278
492.172
490.212
489.278
489.008
488.839
488.095
486.091
482.22
475.999
467.09
455.29
440.503
422.724
402.003
378.433
352.13
323.221
291.841
272.051
289.953
333.741
378.791
425.037
472.422
520.89
570.385
620.853
672.233
724.46
777.459
831.143
885.415
940.158
995.236
1050.49
1105.74
1160.75
1215.28
1268.99
1321.5
1372.21
1420.41
1465.98
1507.64
6430.52
13536.9
1507.92
1451.6
1389.43
1322.28
1250.99
1176.35
1099.2
1020.43
941.034
862.017
784.441
710.187
641.691
581.533
532.129
495.175
470.99
458.234
454.323
456.343
461.799
468.926
476.579
484.093
491.105
497.419
502.927
507.571
511.314
514.137
516.022
516.961
516.946
515.975
514.048
511.164
507.326
502.579
505.038
514.384
522.25
528.613
533.478
536.863
538.803
539.356
538.611
536.701
533.81
530.183
526.133
522.03
518.279
515.264
513.282
512.454
512.673
513.58
514.61
515.084
514.31
511.668
506.668
498.96
488.332
474.685
458.006
438.345
415.791
390.462
362.487
332.004
310.009
325.19
368.978
413.951
460.047
507.214
555.402
604.561
654.644
705.595
757.356
809.859
863.024
916.76
970.958
1025.49
1080.2
1134.91
1189.42
1243.45
1296.69
1348.76
1399.02
1446.76
1491.76
1532.56
3364.34
16180.8
1542.24
1485.88
1423.58
1356.18
1284.49
1209.31
1131.45
1051.8
971.349
891.122
812.159
736.276
665.917
603.702
552.136
513.053
486.949
472.615
467.507
468.65
473.45
480.047
487.226
494.28
500.818
506.631
511.605
515.678
518.814
520.991
522.194
522.413
521.643
519.883
517.135
513.399
508.68
503.03
505.754
516.528
525.815
533.587
539.843
544.599
547.886
549.76
550.308
549.66
547.998
545.57
542.688
539.729
537.101
535.2
534.33
534.625
535.983
538.052
540.267
541.945
542.384
540.958
537.164
530.645
521.18
508.663
493.078
474.473
452.938
428.589
401.559
371.989
347.591
359.791
403.492
448.292
494.137
540.977
588.771
637.475
687.047
737.44
788.602
840.473
892.982
946.044
999.559
1053.41
1107.45
1161.51
1215.39
1268.85
1321.56
1373.17
1423.09
1470.51
1515.26
1555.8
1608.4
17854.6
1573.55
1518.14
1456.41
1389.29
1317.63
1242.25
1163.97
1083.67
1002.35
921.057
840.805
763.336
691.091
626.73
572.849
531.444
503.211
487.116
480.679
480.874
484.994
491.067
497.795
504.417
510.511
515.85
520.314
523.835
526.378
527.918
528.444
527.945
526.417
523.862
520.283
515.682
510.064
503.493
506.469
518.67
529.376
538.553
546.198
552.324
556.957
560.151
561.989
562.6
562.165
560.93
559.212
557.388
555.876
555.077
555.307
556.71
559.192
562.404
565.784
568.643
570.274
570.04
567.428
562.074
553.749
542.342
527.834
510.27
489.742
466.368
440.284
411.635
384.748
393.83
437.35
481.874
527.355
573.749
621.02
669.132
718.05
767.734
818.141
869.219
920.904
973.122
1025.78
1078.77
1131.97
1185.2
1238.29
1291
1343.04
1394.06
1443.63
1490.79
1535.63
1576.78
1612.92
18365.6
1601.74
1548.28
1487.8
1421.47
1350.25
1275.02
1196.62
1115.95
1033.99
951.81
870.419
791.449
717.326
650.749
594.413
550.486
519.901
501.841
493.924
493.083
496.489
502.04
508.338
514.555
520.233
525.124
529.099
532.085
534.045
534.955
534.804
533.584
531.291
527.928
523.504
518.02
511.483
503.967
507.183
520.808
532.931
543.514
552.548
560.042
566.022
570.535
573.663
575.532
576.321
576.277
575.716
575.02
574.613
574.904
576.219
578.71
582.293
586.624
591.141
595.15
597.939
598.861
597.396
593.17
585.948
575.615
562.15
545.597
526.05
503.63
478.477
450.74
421.434
427.427
470.665
514.804
559.799
605.616
652.223
699.592
747.695
796.501
845.975
896.075
946.749
997.931
1049.54
1101.49
1153.65
1205.88
1258.02
1309.84
1361.08
1411.43
1460.48
1507.49
1552.04
1593.81
1631.57
18400.9
1626.74
1575.79
1516.99
1451.88
1381.57
1306.96
1228.89
1148.25
1066
983.233
900.938
820.639
744.717
675.906
617
570.361
537.192
516.942
507.374
505.394
508.042
513.064
518.948
524.784
530.07
534.534
538.034
540.493
541.873
542.151
541.316
539.363
536.289
532.102
526.812
520.422
512.942
504.454
507.895
522.942
536.481
548.468
558.892
567.757
575.085
580.92
585.34
588.467
590.479
591.621
592.212
592.637
593.323
594.69
597.071
600.629
605.288
610.707
616.326
621.447
625.349
627.38
627.01
623.858
617.684
608.371
595.895
580.303
561.689
540.181
515.924
489.072
459.787
463.004
503.612
547.249
591.631
636.729
682.518
728.977
776.087
823.825
872.164
921.074
970.511
1020.42
1070.75
1121.39
1172.27
1223.24
1274.15
1324.83
1375.03
1424.48
1472.8
1519.35
1563.68
1605.58
1643.9
14676.3
4519.59
1602.18
1544.73
1480.94
1411.79
1338.12
1260.75
1180.52
1098.37
1015.34
932.429
851.029
773.44
702.419
640.856
591.318
555.316
532.619
521.189
517.934
519.758
524.235
529.715
535.192
540.108
544.161
547.196
549.131
549.926
549.56
548.025
545.317
541.439
536.401
530.218
522.894
514.443
504.956
508.606
525.072
540.028
553.422
565.241
575.485
584.171
591.338
597.06
601.455
604.697
607.031
608.773
610.313
612.081
614.505
617.928
622.522
628.218
634.682
641.351
647.526
652.479
655.55
656.202
654.048
648.845
640.472
628.907
614.199
596.447
575.784
552.362
526.343
497.898
498.872
536.447
579.465
623.101
667.333
712.142
757.515
803.44
849.903
896.888
944.374
992.329
1040.71
1089.48
1138.55
1187.86
1237.28
1286.7
1335.94
1384.8
1433.02
1480.27
1525.95
1569.55
1610.85
1648.79
10700.3
8546.08
1625.99
1569.59
1507.21
1439.58
1367.38
1291.3
1212.09
1130.6
1047.82
964.737
882.6
803.592
730.476
666.237
613.657
574.589
549.186
535.673
530.996
531.921
535.826
540.901
546.023
550.568
554.204
556.759
558.146
558.326
557.281
555.007
551.504
546.781
540.852
533.736
525.444
515.989
505.473
509.313
527.192
543.562
558.367
571.587
583.221
593.276
601.788
608.824
614.497
618.976
622.504
625.397
628.044
630.885
634.352
638.797
644.401
651.102
658.568
666.237
673.404
679.335
683.363
684.944
683.688
679.348
671.806
661.042
647.109
630.113
610.195
587.514
562.243
534.561
534.122
569.505
611.79
654.551
697.77
741.436
785.543
830.086
875.061
920.461
966.273
1012.48
1059.05
1105.96
1153.15
1200.55
1248.08
1295.63
1343.06
1390.2
1436.81
1482.57
1526.91
1569.28
1609.36
1645.78
4810.06
13855.1
1644.4
1589.82
1529.58
1464.18
1394.14
1320.07
1242.59
1162.44
1080.53
997.833
915.456
835.395
760.399
693.53
637.789
595.4
566.968
551.066
544.741
544.633
547.908
552.562
557.334
561.517
564.734
566.797
567.612
567.142
565.374
562.31
557.96
552.338
545.466
537.372
528.069
517.576
506.002
510.015
529.306
547.097
563.33
577.98
591.038
602.507
612.412
620.812
627.812
633.575
638.334
642.402
646.17
650.076
654.561
659.984
666.537
674.165
682.541
691.104
699.146
705.928
710.778
713.147
712.643
709.02
702.16
692.049
678.746
662.365
643.056
620.989
596.348
569.322
568.748
603.265
644.709
686.47
728.536
770.901
813.565
856.531
899.802
943.38
987.262
1031.44
1075.9
1120.61
1165.55
1210.66
1255.88
1301.12
1346.28
1391.21
1435.72
1479.53
1522.18
1563.06
1601.9
1637.34
1667.56
17297.4
1652.88
1602.17
1545.55
1483.58
1416.81
1345.75
1270.95
1193.05
1112.84
1031.28
949.333
868.78
792.303
723.024
664.158
618.329
586.657
568.149
560.017
558.786
561.376
565.566
569.93
573.672
576.375
577.834
577.957
576.712
574.097
570.125
564.816
558.195
550.293
541.147
530.776
519.202
506.543
510.705
531.381
550.58
568.241
584.332
598.835
611.741
623.063
632.85
641.195
648.25
654.246
659.491
664.376
669.344
674.842
681.236
688.724
697.256
706.506
715.907
724.747
732.282
737.832
740.848
740.936
737.854
731.492
721.842
708.976
693.02
674.135
652.505
628.326
601.8
602.778
638.209
678.727
719.386
760.179
801.108
842.178
883.398
924.777
966.324
1008.04
1049.93
1091.98
1134.18
1176.5
1218.92
1261.38
1303.81
1346.15
1388.27
1430.03
1471.23
1511.6
1550.47
1587.99
1623.23
1655.36
18039.1
1650.27
1605.28
1553.62
1496.29
1433.94
1367.04
1296.06
1221.54
1144.12
1064.69
984.108
903.871
826.515
755.175
693.253
643.787
608.487
586.921
576.584
573.951
575.698
579.353
583.287
586.584
588.766
589.599
588.987
586.903
583.36
578.387
572.022
564.307
555.29
545.021
533.529
520.843
507.086
511.387
533.458
554.109
573.272
590.908
606.99
621.494
634.415
645.782
655.667
664.204
671.601
678.152
684.235
690.289
696.761
704.029
712.302
721.541
731.426
741.396
750.74
758.717
764.65
767.993
768.359
765.516
759.362
749.904
737.223
721.458
702.78
681.384
657.477
631.273
636.232
675.134
714.642
754.105
793.523
832.903
872.257
911.599
950.942
990.298
1029.67
1069.07
1108.49
1147.92
1187.33
1226.71
1266.01
1305.19
1344.18
1382.92
1421.29
1459.18
1496.42
1532.55
1567.48
1601.11
1632.67
13945.3
4587.89
1600.45
1553.57
1501.35
1444.18
1382.39
1316.28
1246.25
1172.8
1096.66
1018.62
939.855
862.672
790.15
725.819
673.104
634.335
609.736
597.186
593.143
594.015
597.03
600.334
602.89
604.183
603.984
602.222
598.898
594.053
587.741
580.023
570.963
560.626
549.077
536.357
522.498
507.626
512.019
535.368
557.371
577.971
597.113
614.751
630.834
645.33
658.239
669.612
679.563
688.296
696.106
703.381
710.555
718.042
726.211
735.276
745.207
755.692
766.181
775.971
784.318
790.551
794.138
794.667