/*--------------------------------*- C++ -*----------------------------------*\
  =========                 |
  \\      /  F ield         | OpenFOAM: The Open Source CFD Toolbox
   \\    /   O peration     | Website:  https://openfoam.org
    \\  /    A nd           | Version:  8
     \\/     M anipulation  |
\*---------------------------------------------------------------------------*/
FoamFile
{
    version     2.0;
    format      ascii;
    class       volScalarField;
    location    "340/fluid";
    object      rho;
}
// * * * * * * * * * * * * * * * * * * * * * * * * * * * * * * * * * * * * * //

dimensions      [1 -3 0 0 0 0 0];

internalField   nonuniform List<scalar> 
4000
(
0.658527
0.658503
0.658463
0.658395
0.658284
0.658099
0.657795
0.657301
0.656505
0.655241
0.653262
0.650225
0.645671
0.639031
0.629672
0.617002
0.600623
0.5805
0.557069
0.531204
0.504035
0.476704
0.450173
0.425123
0.401939
0.380762
0.361568
0.344234
0.328589
0.314448
0.301631
0.289971
0.279326
0.269571
0.260602
0.252333
0.244665
0.237511
0.230819
0.224541
0.218638
0.213077
0.207829
0.20287
0.198179
0.19374
0.189539
0.185563
0.181803
0.178251
0.174902
0.171753
0.168802
0.166051
0.163504
0.16117
0.159063
0.157203
0.155648
0.154415
0.153529
0.153114
0.153295
0.154656
0.16377
0.17454
0.187205
0.202087
0.219615
0.240346
0.265011
0.294558
0.330217
0.373573
0.426791
0.492367
0.57243
0.667683
0.775323
0.886855
0.988796
1.06868
1.12212
1.15322
1.16936
1.17722
1.18088
1.18253
1.18327
1.18358
1.18372
1.18378
1.1838
1.18381
1.18382
1.18382
1.18382
1.18382
1.18382
1.18382
0.658526
0.658502
0.658462
0.658393
0.65828
0.658091
0.657782
0.657277
0.656465
0.655176
0.653162
0.650078
0.645468
0.638771
0.629367
0.61668
0.600327
0.580281
0.556966
0.531229
0.504177
0.476954
0.450511
0.425513
0.402344
0.381154
0.361928
0.344551
0.328858
0.314669
0.301804
0.290101
0.279416
0.269626
0.260629
0.252336
0.244647
0.237473
0.230763
0.224469
0.218552
0.212978
0.207719
0.20275
0.198052
0.193605
0.189398
0.185417
0.181652
0.178097
0.174746
0.171595
0.168643
0.165891
0.163344
0.161009
0.158902
0.157041
0.155486
0.154252
0.153367
0.152958
0.153163
0.155613
0.164936
0.175959
0.188938
0.204219
0.222257
0.24365
0.269179
0.299865
0.337026
0.382379
0.438247
0.507158
0.591054
0.689994
0.799853
0.910547
1.00811
1.08174
1.12952
1.15687
1.17101
1.17792
1.18116
1.18265
1.18331
1.1836
1.18373
1.18378
1.18381
1.18381
1.18382
1.18382
1.18382
1.18382
1.18382
1.18382
0.658526
0.658502
0.65846
0.658391
0.658275
0.658082
0.657766
0.657251
0.656423
0.65511
0.653062
0.649935
0.645271
0.638514
0.629054
0.616325
0.59996
0.57994
0.556694
0.531059
0.504123
0.476996
0.450624
0.425675
0.402531
0.381347
0.362112
0.344716
0.328998
0.31478
0.301887
0.290157
0.279446
0.26963
0.260605
0.252284
0.244569
0.237372
0.230639
0.224325
0.218389
0.212798
0.207524
0.202541
0.19783
0.193373
0.189156
0.185166
0.181396
0.177835
0.17448
0.171327
0.168374
0.165622
0.163076
0.160743
0.158636
0.156775
0.155215
0.153976
0.153074
0.152623
0.152742
0.15734
0.166939
0.178329
0.19178
0.207659
0.226453
0.248802
0.275545
0.30777
0.346878
0.394706
0.453655
0.526098
0.613535
0.715087
0.825269
0.933015
1.02496
1.09243
1.1354
1.15977
1.17236
1.17852
1.18142
1.18276
1.18336
1.18362
1.18374
1.18379
1.18381
1.18382
1.18382
1.18382
1.18382
1.18382
1.18382
1.18382
0.658526
0.658501
0.658459
0.658389
0.658271
0.658076
0.657755
0.657234
0.656396
0.65507
0.653004
0.649853
0.645162
0.638374
0.628885
0.616136
0.599764
0.579757
0.556541
0.530951
0.504067
0.476989
0.450652
0.425724
0.402591
0.381409
0.362169
0.344762
0.329029
0.314793
0.301878
0.290123
0.279386
0.269544
0.260495
0.252152
0.244414
0.237195
0.230442
0.224108
0.218155
0.212547
0.207257
0.20226
0.197536
0.193067
0.18884
0.184843
0.181065
0.177501
0.174143
0.170989
0.168038
0.16529
0.162751
0.160428
0.158335
0.15649
0.154957
0.153736
0.152849
0.152414
0.15256
0.159427
0.169363
0.181205
0.195229
0.211821
0.231498
0.254945
0.283053
0.31698
0.358202
0.408684
0.470851
0.546866
0.637735
0.741592
0.851635
0.956002
1.04213
1.10342
1.14157
1.16289
1.17384
1.17919
1.18172
1.18289
1.18341
1.18364
1.18375
1.18379
1.18381
1.18382
1.18382
1.18382
1.18382
1.18382
1.18382
1.18382
0.658526
0.658501
0.658458
0.658387
0.658268
0.658071
0.657747
0.65722
0.656374
0.655036
0.652953
0.64978
0.645059
0.638238
0.628713
0.61593
0.599534
0.579516
0.556307
0.530739
0.503885
0.476841
0.450537
0.425633
0.402515
0.381339
0.362097
0.344683
0.328938
0.314688
0.301757
0.289985
0.279231
0.269371
0.260305
0.251944
0.244188
0.236952
0.230182
0.223832
0.217863
0.21224
0.206936
0.201926
0.197191
0.192712
0.188477
0.184472
0.18069
0.177123
0.173765
0.170613
0.167667
0.16493
0.162405
0.160103
0.158039
0.156233
0.154755
0.153561
0.152745
0.152377
0.152556
0.161296
0.171776
0.184211
0.198912
0.216301
0.236937
0.26155
0.291092
0.326784
0.37018
0.423368
0.488729
0.568167
0.662097
0.767606
0.876683
0.977041
1.05728
1.11284
1.14676
1.16551
1.17509
1.17977
1.18198
1.183
1.18346
1.18367
1.18375
1.18379
1.18381
1.18382
1.18382
1.18382
1.18382
1.18382
1.18382
1.18382
0.658526
0.658501
0.658458
0.658386
0.658266
0.658067
0.65774
0.65721
0.656358
0.655011
0.652916
0.649725
0.644982
0.638133
0.628577
0.615761
0.599335
0.579292
0.556068
0.530494
0.503644
0.47661
0.450317
0.425424
0.402316
0.381145
0.361905
0.34449
0.328741
0.314484
0.301545
0.289764
0.278999
0.269128
0.26005
0.251677
0.243908
0.236658
0.229875
0.223512
0.21753
0.211895
0.20658
0.20156
0.196815
0.192329
0.188086
0.184077
0.180292
0.176724
0.173368
0.170221
0.167284
0.164559
0.162055
0.159781
0.157757
0.156024
0.154632
0.153575
0.152984
0.152993
0.15383
0.163176
0.174245
0.187304
0.202705
0.220908
0.242514
0.268303
0.299281
0.336733
0.3823
0.438165
0.506618
0.589267
0.685896
0.792543
0.900145
0.996283
1.07088
1.12122
1.15138
1.16784
1.17621
1.18028
1.18221
1.1831
1.18351
1.18368
1.18376
1.1838
1.18381
1.18382
1.18382
1.18382
1.18382
1.18382
1.18382
1.18382
0.658526
0.6585
0.658457
0.658385
0.658264
0.658064
0.657735
0.657201
0.656344
0.654989
0.652882
0.649676
0.644911
0.638034
0.628444
0.615591
0.599125
0.579048
0.555796
0.530204
0.503344
0.476309
0.45002
0.425133
0.402031
0.380867
0.361632
0.344219
0.32847
0.314212
0.30127
0.289484
0.278713
0.268835
0.25975
0.25137
0.243591
0.236331
0.229538
0.223165
0.217173
0.211529
0.206205
0.201178
0.196426
0.191934
0.187687
0.183675
0.179889
0.176322
0.172969
0.169828
0.1669
0.164188
0.1617
0.159448
0.157454
0.15577
0.154436
0.153452
0.152966
0.153131
0.155727
0.165441
0.176954
0.190543
0.206578
0.225546
0.248081
0.275005
0.307377
0.346539
0.394224
0.452677
0.524059
0.609653
0.708568
0.815825
0.921489
1.0133
1.08259
1.12829
1.15523
1.16978
1.17714
1.18072
1.18241
1.18319
1.18354
1.1837
1.18377
1.1838
1.18381
1.18382
1.18382
1.18382
1.18382
1.18382
1.18382
1.18382
0.658526
0.6585
0.658457
0.658384
0.658262
0.658061
0.65773
0.657193
0.656332
0.65497
0.652853
0.649631
0.644846
0.637942
0.628318
0.615424
0.598916
0.578796
0.555505
0.529883
0.503005
0.475959
0.449668
0.424785
0.401689
0.380531
0.361302
0.343894
0.32815
0.313894
0.300952
0.289165
0.278392
0.268512
0.259423
0.251038
0.243253
0.235986
0.229186
0.222806
0.216807
0.211157
0.205827
0.200794
0.196038
0.191543
0.187294
0.183282
0.179496
0.175932
0.172583
0.169449
0.16653
0.163829
0.161354
0.159117
0.157137
0.155469
0.154145
0.153161
0.152643
0.152708
0.157849
0.167836
0.179717
0.193773
0.210388
0.230069
0.25348
0.281483
0.315183
0.355974
0.405691
0.466598
0.540699
0.628935
0.729728
0.837148
0.940588
1.02816
1.09262
1.13427
1.15847
1.17141
1.17792
1.18108
1.18257
1.18326
1.18358
1.18371
1.18378
1.1838
1.18381
1.18382
1.18382
1.18382
1.18382
1.18382
1.18382
1.18382
0.658526
0.6585
0.658456
0.658383
0.658261
0.658058
0.657726
0.657187
0.656321
0.654952
0.652826
0.64959
0.644784
0.637853
0.628193
0.615257
0.598701
0.578533
0.555199
0.529542
0.502638
0.475578
0.449282
0.4244
0.401309
0.380159
0.360938
0.343538
0.327801
0.313549
0.300611
0.288826
0.278054
0.268174
0.259084
0.250698
0.242908
0.235638
0.228833
0.222448
0.216445
0.210791
0.205457
0.200421
0.195663
0.191166
0.186918
0.182907
0.179125
0.175565
0.172224
0.169099
0.166191
0.163503
0.161043
0.158824
0.156867
0.155227
0.153923
0.152957
0.152459
0.152569
0.159756
0.170039
0.18229
0.196801
0.213971
0.234329
0.25857
0.287593
0.322545
0.364875
0.416509
0.4797
0.55629
0.646858
0.749146
0.856365
0.957421
1.04096
1.1011
1.13926
1.16115
1.17275
1.17857
1.18138
1.18271
1.18332
1.1836
1.18373
1.18378
1.1838
1.18381
1.18382
1.18382
1.18382
1.18382
1.18382
1.18382
1.18382
0.658526
0.6585
0.658456
0.658382
0.65826
0.658056
0.657722
0.65718
0.656311
0.654936
0.6528
0.64955
0.644725
0.637766
0.62807
0.615091
0.598486
0.578268
0.554886
0.529189
0.502257
0.47518
0.448877
0.423997
0.400912
0.37977
0.360559
0.343169
0.327439
0.313195
0.300262
0.288482
0.277713
0.267834
0.258746
0.25036
0.242569
0.235296
0.228489
0.222102
0.216096
0.21044
0.205105
0.200068
0.195309
0.190813
0.186567
0.182559
0.178782
0.17523
0.171898
0.168785
0.165891
0.163222
0.160785
0.158592
0.156662
0.155054
0.153776
0.152833
0.15234
0.152412
0.161254
0.171897
0.184551
0.199524
0.217236
0.238242
0.263266
0.293244
0.329367
0.373135
0.426554
0.491842
0.570677
0.66327
0.766712
0.873456
0.972092
1.0519
1.10821
1.1434
1.16335
1.17385
1.1791
1.18163
1.18282
1.18338
1.18362
1.18374
1.18378
1.18381
1.18381
1.18382
1.18382
1.18382
1.18382
1.18382
1.18382
1.18382
0.658526
0.6585
0.658456
0.658382
0.658258
0.658054
0.657719
0.657175
0.656301
0.65492
0.652776
0.649512
0.644667
0.637681
0.627951
0.614928
0.598274
0.578004
0.554573
0.528836
0.501875
0.47478
0.44847
0.42359
0.400512
0.37938
0.36018
0.342799
0.32708
0.312844
0.299919
0.288144
0.27738
0.267505
0.258419
0.250035
0.242244
0.234971
0.228163
0.221775
0.215769
0.210112
0.204777
0.19974
0.194983
0.190489
0.186246
0.182243
0.178473
0.174929
0.171608
0.168509
0.165634
0.162988
0.160579
0.158424
0.156545
0.155021
0.153798
0.152989
0.152685
0.153042
0.162361
0.173435
0.186518
0.201951
0.220183
0.241797
0.26755
0.298411
0.33561
0.380706
0.435762
0.502953
0.583786
0.678113
0.782415
0.888491
0.984759
1.06117
1.11416
1.14682
1.16517
1.17476
1.17953
1.18183
1.18292
1.18342
1.18364
1.18374
1.18379
1.18381
1.18382
1.18382
1.18382
1.18382
1.18382
1.18382
1.18382
1.18382
0.658526
0.6585
0.658455
0.658381
0.658257
0.658052
0.657716
0.657169
0.656292
0.654906
0.652752
0.649476
0.644612
0.637601
0.627836
0.614771
0.598068
0.577747
0.554269
0.528492
0.501502
0.47439
0.448073
0.423195
0.400123
0.379001
0.359812
0.342443
0.326734
0.312508
0.29959
0.287822
0.277063
0.267193
0.258112
0.249731
0.241941
0.234668
0.227861
0.221473
0.215468
0.209811
0.204477
0.199442
0.194687
0.190196
0.185957
0.18196
0.178197
0.174662
0.171353
0.168268
0.16541
0.162786
0.160407
0.158289
0.156469
0.155014
0.153889
0.15323
0.153162
0.15391
0.163531
0.174924
0.188356
0.204183
0.222872
0.245029
0.271435
0.303092
0.341265
0.387567
0.444107
0.512998
0.595586
0.691375
0.796291
0.901584
0.995605
1.06898
1.11911
1.14964
1.16666
1.1755
1.17989
1.182
1.18299
1.18345
1.18366
1.18375
1.18379
1.18381
1.18382
1.18382
1.18382
1.18382
1.18382
1.18382
1.18382
1.18382
0.658526
0.658499
0.658455
0.65838
0.658256
0.65805
0.657713
0.657164
0.656284
0.654892
0.652731
0.649442
0.644561
0.637525
0.627727
0.614622
0.597873
0.577504
0.553981
0.528166
0.501148
0.47402
0.447697
0.42282
0.399756
0.378644
0.359466
0.342109
0.32641
0.312194
0.299285
0.287524
0.276771
0.266907
0.25783
0.249453
0.241664
0.234393
0.227587
0.221201
0.215197
0.209542
0.204209
0.199176
0.194424
0.189937
0.185703
0.181711
0.177955
0.174428
0.171129
0.168056
0.165212
0.162605
0.160245
0.15815
0.156365
0.154941
0.153854
0.15324
0.153225
0.15488
0.164723
0.176364
0.190079
0.206237
0.225318
0.247947
0.274928
0.30729
0.346328
0.393705
0.451562
0.521949
0.606059
0.703068
0.808401
0.912857
1.0048
1.07551
1.12319
1.15195
1.16787
1.1761
1.18018
1.18213
1.18305
1.18348
1.18367
1.18376
1.18379
1.18381
1.18382
1.18382
1.18382
1.18382
1.18382
1.18382
1.18382
1.18382
0.658526
0.658499
0.658455
0.65838
0.658255
0.658049
0.65771
0.657159
0.656276
0.65488
0.652711
0.649411
0.644514
0.637455
0.627627
0.614485
0.597694
0.57728
0.553715
0.527865
0.500822
0.47368
0.447351
0.422477
0.399419
0.378317
0.35915
0.341804
0.326116
0.311909
0.299009
0.287255
0.276509
0.266649
0.257578
0.249204
0.241419
0.23415
0.227345
0.220961
0.214959
0.209306
0.203975
0.198945
0.194196
0.189713
0.185483
0.181497
0.177746
0.174227
0.170935
0.167872
0.165038
0.162441
0.160092
0.158006
0.156227
0.154805
0.153707
0.153057
0.15296
0.155894
0.165891
0.17772
0.191662
0.208094
0.227507
0.250542
0.278022
0.310997
0.350788
0.399108
0.458116
0.529801
0.615209
0.713221
0.818819
0.922438
1.01252
1.08092
1.12655
1.15384
1.16886
1.17659
1.18041
1.18224
1.1831
1.1835
1.18368
1.18376
1.1838
1.18381
1.18382
1.18382
1.18382
1.18382
1.18382
1.18382
1.18382
1.18382
0.658526
0.658499
0.658455
0.65838
0.658254
0.658047
0.657708
0.657155
0.656269
0.654869
0.652693
0.649384
0.644472
0.637393
0.627538
0.614363
0.597533
0.57708
0.553478
0.527597
0.500531
0.473376
0.447044
0.422171
0.399121
0.378027
0.358871
0.341535
0.325857
0.311659
0.298766
0.28702
0.27628
0.266426
0.257359
0.248989
0.241206
0.23394
0.227138
0.220756
0.214755
0.209105
0.203777
0.198749
0.194003
0.189524
0.185298
0.181317
0.177572
0.174059
0.170775
0.167719
0.164894
0.162305
0.159964
0.157887
0.156114
0.154696
0.153595
0.152935
0.15282
0.156795
0.166929
0.178919
0.193053
0.209716
0.229412
0.252791
0.280695
0.314192
0.354629
0.40376
0.463757
0.536546
0.623042
0.721863
0.827616
0.930447
1.01889
1.08535
1.12927
1.15536
1.16965
1.17698
1.1806
1.18233
1.18314
1.18352
1.18369
1.18376
1.1838
1.18381
1.18382
1.18382
1.18382
1.18382
1.18382
1.18382
1.18382
1.18382
0.658526
0.658499
0.658454
0.658379
0.658254
0.658046
0.657705
0.657152
0.656264
0.654859
0.652678
0.64936
0.644436
0.637339
0.627462
0.614258
0.597395
0.576908
0.553274
0.527366
0.500282
0.473116
0.44678
0.42191
0.398865
0.37778
0.358633
0.341306
0.325637
0.311447
0.298561
0.286821
0.276087
0.266238
0.257175
0.24881
0.24103
0.233766
0.226966
0.220586
0.214588
0.20894
0.203614
0.198589
0.193847
0.189371
0.185149
0.181173
0.177433
0.173926
0.170649
0.1676
0.164782
0.162202
0.15987
0.1578
0.156035
0.154621
0.153524
0.152864
0.152745
0.157538
0.167796
0.179926
0.194224
0.211081
0.231011
0.254678
0.282935
0.31687
0.357846
0.407653
0.468472
0.542174
0.62956
0.729021
0.834855
0.936982
1.02405
1.0889
1.13144
1.15657
1.17028
1.17729
1.18075
1.1824
1.18318
1.18353
1.18369
1.18377
1.1838
1.18381
1.18382
1.18382
1.18382
1.18382
1.18382
1.18382
1.18382
1.18382
0.658526
0.658499
0.658454
0.658379
0.658253
0.658045
0.657704
0.657149
0.656259
0.654852
0.652666
0.649341
0.644406
0.637295
0.627399
0.614171
0.597282
0.576767
0.553107
0.527178
0.500078
0.472903
0.446565
0.421696
0.398657
0.377579
0.358439
0.34112
0.325459
0.311275
0.298396
0.286662
0.275932
0.266088
0.257029
0.248667
0.24089
0.233628
0.226831
0.220453
0.214457
0.208811
0.203488
0.198466
0.193726
0.189253
0.185036
0.181064
0.177329
0.173828
0.170556
0.167514
0.164704
0.162131
0.159805
0.157742
0.155984
0.154576
0.153481
0.152821
0.152696
0.158131
0.168493
0.180739
0.19517
0.212185
0.232305
0.256202
0.284742
0.319027
0.360435
0.410785
0.472258
0.546686
0.634772
0.734721
0.840586
0.942121
1.02808
1.09165
1.13312
1.1575
1.17076
1.17753
1.18086
1.18245
1.1832
1.18354
1.1837
1.18377
1.1838
1.18381
1.18382
1.18382
1.18382
1.18382
1.18382
1.18382
1.18382
1.18382
0.658526
0.658499
0.658454
0.658379
0.658253
0.658044
0.657702
0.657147
0.656255
0.654846
0.652657
0.649326
0.644384
0.637262
0.627351
0.614106
0.597196
0.57666
0.55298
0.527034
0.499923
0.472742
0.446401
0.421535
0.398499
0.377427
0.358293
0.34098
0.325324
0.311146
0.298272
0.286542
0.275816
0.265975
0.256921
0.248562
0.240787
0.233527
0.226732
0.220356
0.214362
0.208717
0.203397
0.198377
0.19364
0.18917
0.184956
0.180988
0.177258
0.173762
0.170496
0.167459
0.164655
0.162088
0.159769
0.157712
0.15596
0.154556
0.153463
0.1528
0.152666
0.15857
0.169019
0.181357
0.195891
0.213026
0.233289
0.25736
0.286114
0.320661
0.362394
0.413151
0.475116
0.550086
0.638688
0.738988
0.844854
0.945926
1.03104
1.09368
1.13434
1.15818
1.17112
1.1777
1.18094
1.18249
1.18322
1.18355
1.1837
1.18377
1.1838
1.18381
1.18382
1.18382
1.18382
1.18382
1.18382
1.18382
1.18382
1.18382
0.658526
0.658499
0.658454
0.658378
0.658252
0.658044
0.657702
0.657145
0.656253
0.654842
0.65265
0.649316
0.644369
0.63724
0.627319
0.614062
0.597139
0.576588
0.552895
0.526938
0.499819
0.472633
0.446291
0.421426
0.398393
0.377324
0.358195
0.340886
0.325234
0.31106
0.298189
0.286462
0.275739
0.265902
0.25685
0.248493
0.24072
0.233462
0.226668
0.220294
0.214301
0.208659
0.203339
0.198322
0.193587
0.18912
0.184909
0.180944
0.177217
0.173725
0.170463
0.167431
0.164632
0.162071
0.159757
0.157706
0.155958
0.154557
0.153463
0.152795
0.152649
0.158859
0.169373
0.181778
0.196385
0.213603
0.233962
0.25815
0.287046
0.321768
0.363718
0.414747
0.477038
0.552366
0.641306
0.741828
0.847681
0.948431
1.03299
1.095
1.13515
1.15863
1.17135
1.17782
1.181
1.18252
1.18323
1.18356
1.1837
1.18377
1.1838
1.18381
1.18382
1.18382
1.18382
1.18382
1.18382
1.18382
1.18382
1.18382
0.658526
0.658499
0.658454
0.658378
0.658252
0.658044
0.657701
0.657145
0.656252
0.65484
0.652647
0.649312
0.644361
0.637229
0.627304
0.614041
0.597111
0.576554
0.552854
0.526892
0.499769
0.472581
0.446238
0.421373
0.398342
0.377275
0.358147
0.34084
0.32519
0.311018
0.298149
0.286423
0.275702
0.265865
0.256815
0.24846
0.240688
0.233431
0.226638
0.220265
0.214273
0.208631
0.203313
0.198297
0.193563
0.189098
0.184888
0.180925
0.177201
0.173711
0.170452
0.167423
0.164628
0.16207
0.15976
0.157713
0.155968
0.154568
0.153475
0.152801
0.152643
0.159002
0.169557
0.181999
0.196644
0.213903
0.23431
0.258555
0.287521
0.322328
0.364383
0.415543
0.47799
0.553487
0.642585
0.743206
0.849042
0.949627
1.03391
1.09562
1.13552
1.15884
1.17146
1.17787
1.18102
1.18253
1.18324
1.18356
1.18371
1.18377
1.1838
1.18381
1.18382
1.18382
1.18382
1.18382
1.18382
1.18382
1.18382
1.18382
0.658526
0.658499
0.658454
0.658378
0.658252
0.658044
0.657701
0.657145
0.656252
0.65484
0.652647
0.649311
0.644361
0.637229
0.627303
0.61404
0.597111
0.576553
0.552853
0.526891
0.499767
0.47258
0.446237
0.421372
0.398341
0.377274
0.358146
0.340839
0.325189
0.311017
0.298148
0.286423
0.275701
0.265865
0.256815
0.248459
0.240687
0.233431
0.226638
0.220264
0.214273
0.208631
0.203313
0.198296
0.193563
0.189097
0.184888
0.180925
0.177201
0.173711
0.170452
0.167423
0.164627
0.16207
0.15976
0.157712
0.155968
0.154568
0.153474
0.152801
0.152643
0.159003
0.169558
0.182
0.196645
0.213904
0.234312
0.258557
0.287522
0.32233
0.364385
0.415546
0.477993
0.553491
0.642589
0.743211
0.849047
0.949632
1.03391
1.09562
1.13552
1.15884
1.17146
1.17787
1.18102
1.18253
1.18324
1.18356
1.18371
1.18377
1.1838
1.18381
1.18382
1.18382
1.18382
1.18382
1.18382
1.18382
1.18382
1.18382
0.658526
0.658499
0.658454
0.658378
0.658252
0.658044
0.657702
0.657145
0.656253
0.654842
0.65265
0.649316
0.644368
0.637239
0.627318
0.61406
0.597137
0.576585
0.552891
0.526934
0.499815
0.47263
0.446288
0.421423
0.39839
0.377322
0.358192
0.340884
0.325232
0.311058
0.298187
0.286461
0.275738
0.2659
0.256848
0.248492
0.240719
0.233461
0.226667
0.220293
0.2143
0.208658
0.203339
0.198321
0.193586
0.189119
0.184908
0.180943
0.177217
0.173724
0.170462
0.167431
0.164631
0.16207
0.159756
0.157705
0.155957
0.154556
0.153463
0.152795
0.152649
0.158861
0.169376
0.181781
0.196388
0.213606
0.233966
0.258154
0.287051
0.321774
0.363725
0.414755
0.477049
0.552378
0.64132
0.741844
0.847697
0.948446
1.033
1.09501
1.13515
1.15863
1.17135
1.17782
1.181
1.18252
1.18323
1.18356
1.1837
1.18377
1.1838
1.18381
1.18382
1.18382
1.18382
1.18382
1.18382
1.18382
1.18382
1.18382
0.658526
0.658499
0.658454
0.658379
0.658253
0.658044
0.657702
0.657147
0.656255
0.654846
0.652656
0.649325
0.644382
0.63726
0.627349
0.614103
0.597192
0.576655
0.552974
0.527028
0.499916
0.472735
0.446395
0.421529
0.398494
0.377422
0.358288
0.340976
0.32532
0.311143
0.298269
0.286539
0.275814
0.265973
0.256919
0.24856
0.240785
0.233525
0.22673
0.220354
0.21436
0.208716
0.203395
0.198375
0.193638
0.189169
0.184955
0.180987
0.177257
0.173761
0.170494
0.167458
0.164654
0.162087
0.159768
0.157712
0.155959
0.154555
0.153462
0.152799
0.152665
0.158574
0.169022
0.181361
0.195896
0.213032
0.233295
0.257368
0.286122
0.320671
0.362406
0.413166
0.475134
0.550107
0.638713
0.739015
0.844882
0.945951
1.03106
1.09369
1.13435
1.15819
1.17112
1.17771
1.18094
1.18249
1.18322
1.18355
1.1837
1.18377
1.1838
1.18381
1.18382
1.18382
1.18382
1.18382
1.18382
1.18382
1.18382
1.18382
0.658526
0.658499
0.658454
0.658379
0.658253
0.658045
0.657704
0.657149
0.656259
0.654851
0.652665
0.64934
0.644404
0.637293
0.627395
0.614167
0.597277
0.57676
0.553099
0.527169
0.500069
0.472895
0.446556
0.421689
0.39865
0.377572
0.358433
0.341115
0.325454
0.311271
0.298392
0.286658
0.275928
0.266084
0.257026
0.248664
0.240887
0.233626
0.226828
0.220451
0.214455
0.208808
0.203486
0.198463
0.193724
0.189251
0.185034
0.181062
0.177328
0.173826
0.170555
0.167513
0.164702
0.16213
0.159804
0.157741
0.155983
0.154575
0.15348
0.152821
0.152695
0.158135
0.168499
0.180745
0.195177
0.212193
0.232314
0.256212
0.284754
0.319041
0.360452
0.410806
0.472284
0.546717
0.634808
0.73476
0.840625
0.942157
1.02811
1.09167
1.13313
1.15751
1.17077
1.17753
1.18086
1.18245
1.1832
1.18354
1.1837
1.18377
1.1838
1.18381
1.18382
1.18382
1.18382
1.18382
1.18382
1.18382
1.18382
1.18382
0.658526
0.658499
0.658454
0.658379
0.658254
0.658046
0.657705
0.657152
0.656263
0.654859
0.652677
0.649359
0.644434
0.637336
0.627457
0.614252
0.597388
0.576899
0.553264
0.527356
0.500271
0.473105
0.446769
0.4219
0.398856
0.377772
0.358625
0.341299
0.32563
0.311441
0.298556
0.286816
0.276082
0.266234
0.257171
0.248806
0.241026
0.233762
0.226963
0.220583
0.214585
0.208937
0.203611
0.198587
0.193844
0.189368
0.185147
0.18117
0.177431
0.173924
0.170647
0.167598
0.16478
0.1622
0.159868
0.157799
0.156033
0.15462
0.153523
0.152863
0.152744
0.157544
0.167803
0.179934
0.194233
0.211092
0.231023
0.254692
0.282951
0.316889
0.357869
0.407681
0.468504
0.542213
0.629606
0.729072
0.834906
0.937029
1.02409
1.08892
1.13145
1.15658
1.17028
1.17729
1.18075
1.1824
1.18318
1.18353
1.18369
1.18377
1.1838
1.18381
1.18382
1.18382
1.18382
1.18382
1.18382
1.18382
1.18382
1.18382
0.658526
0.658499
0.658455
0.658379
0.658254
0.658047
0.657707
0.657155
0.656269
0.654868
0.652692
0.649382
0.644469
0.637389
0.627533
0.614356
0.597525
0.57707
0.553466
0.527584
0.500518
0.473363
0.447031
0.422159
0.399109
0.378017
0.358861
0.341526
0.325849
0.311652
0.29876
0.287014
0.276274
0.26642
0.257354
0.248985
0.241202
0.233936
0.227134
0.220752
0.214752
0.209101
0.203773
0.198746
0.194
0.189521
0.185295
0.181314
0.17757
0.174057
0.170773
0.167717
0.164892
0.162303
0.159962
0.157885
0.156113
0.154694
0.153593
0.152934
0.152819
0.156803
0.166937
0.178928
0.193064
0.209729
0.229426
0.252808
0.280714
0.314216
0.354657
0.403793
0.463798
0.536594
0.623099
0.721926
0.827681
0.930506
1.01894
1.08538
1.12929
1.15537
1.16966
1.17698
1.1806
1.18233
1.18314
1.18352
1.18369
1.18376
1.1838
1.18381
1.18382
1.18382
1.18382
1.18382
1.18382
1.18382
1.18382
1.18382
0.658526
0.658499
0.658455
0.65838
0.658255
0.658049
0.65771
0.657159
0.656276
0.654879
0.65271
0.649409
0.644511
0.637451
0.627621
0.614477
0.597683
0.577268
0.553701
0.52785
0.500806
0.473664
0.447336
0.422462
0.399406
0.378305
0.359139
0.341794
0.326107
0.3119
0.299001
0.287248
0.276502
0.266643
0.257572
0.249199
0.241413
0.234145
0.227341
0.220956
0.214954
0.209301
0.203971
0.198941
0.194192
0.189709
0.185479
0.181493
0.177743
0.174224
0.170933
0.167869
0.165036
0.162439
0.16009
0.158005
0.156226
0.154804
0.153705
0.153055
0.152957
0.155903
0.165901
0.177731
0.191675
0.208108
0.227524
0.250562
0.278045
0.311024
0.350821
0.399147
0.458164
0.529859
0.615277
0.713297
0.818897
0.92251
1.01258
1.08096
1.12657
1.15385
1.16886
1.17659
1.18041
1.18224
1.1831
1.1835
1.18368
1.18376
1.1838
1.18381
1.18382
1.18382
1.18382
1.18382
1.18382
1.18382
1.18382
1.18382
0.658526
0.658499
0.658455
0.65838
0.658256
0.65805
0.657712
0.657164
0.656283
0.654891
0.652729
0.64944
0.644558
0.63752
0.62772
0.614613
0.597861
0.57749
0.553965
0.528148
0.50113
0.474002
0.447679
0.422804
0.399741
0.37863
0.359453
0.342097
0.326399
0.312184
0.299276
0.287516
0.276763
0.266899
0.257823
0.249446
0.241658
0.234387
0.227581
0.221196
0.215191
0.209537
0.204204
0.199172
0.19442
0.189933
0.185699
0.181708
0.177951
0.174425
0.171126
0.168053
0.165209
0.162602
0.160242
0.158148
0.156362
0.154939
0.153852
0.153237
0.153222
0.154891
0.164735
0.176377
0.190094
0.206254
0.225338
0.24797
0.274955
0.307322
0.346366
0.393752
0.451618
0.522016
0.606138
0.703157
0.808492
0.912941
1.00487
1.07556
1.12322
1.15197
1.16788
1.1761
1.18018
1.18214
1.18305
1.18348
1.18367
1.18376
1.18379
1.18381
1.18382
1.18382
1.18382
1.18382
1.18382
1.18382
1.18382
1.18382
0.658526
0.6585
0.658455
0.658381
0.658257
0.658052
0.657715
0.657169
0.656291
0.654905
0.652751
0.649473
0.644608
0.637595
0.627828
0.61476
0.598055
0.577731
0.554251
0.528472
0.501481
0.47437
0.448053
0.423176
0.400106
0.378985
0.359797
0.342429
0.326721
0.312496
0.29958
0.287813
0.277054
0.267185
0.258104
0.249723
0.241934
0.234661
0.227854
0.221467
0.215462
0.209806
0.204471
0.199436
0.194682
0.190191
0.185953
0.181956
0.178193
0.174658
0.171349
0.168265
0.165407
0.162784
0.160404
0.158287
0.156467
0.155013
0.153888
0.15323
0.153166
0.153921
0.163542
0.174937
0.188371
0.204201
0.222893
0.245054
0.271465
0.303127
0.341307
0.387618
0.444169
0.513073
0.595675
0.691476
0.796396
0.901681
0.995684
1.06904
1.11914
1.14966
1.16667
1.1755
1.17989
1.182
1.18299
1.18345
1.18366
1.18375
1.18379
1.18381
1.18382
1.18382
1.18382
1.18382
1.18382
1.18382
1.18382
1.18382
0.658526
0.6585
0.658456
0.658382
0.658258
0.658054
0.657719
0.657174
0.6563
0.654919
0.652774
0.649509
0.644663
0.637675
0.627942
0.614917
0.598259
0.577986
0.554553
0.528814
0.501852
0.474757
0.448448
0.423569
0.400493
0.379362
0.360163
0.342784
0.327066
0.312831
0.299907
0.288133
0.277369
0.267495
0.25841
0.250027
0.242236
0.234963
0.228155
0.221768
0.215762
0.210105
0.20477
0.199734
0.194977
0.190484
0.186241
0.182238
0.178468
0.174925
0.171604
0.168505
0.16563
0.162984
0.160577
0.158422
0.156543
0.155021
0.153798
0.15299
0.152689
0.153048
0.16237
0.173447
0.186533
0.201969
0.220205
0.241823
0.267581
0.298448
0.335655
0.380761
0.43583
0.503035
0.583884
0.678225
0.782533
0.888603
0.984851
1.06124
1.1142
1.14684
1.16518
1.17476
1.17953
1.18183
1.18292
1.18342
1.18364
1.18374
1.18379
1.18381
1.18382
1.18382
1.18382
1.18382
1.18382
1.18382
1.18382
1.18382
0.658526
0.6585
0.658456
0.658382
0.658259
0.658056
0.657722
0.65718
0.65631
0.654935
0.652798
0.649547
0.64472
0.637759
0.628061
0.615079
0.59847
0.578248
0.554864
0.529165
0.502232
0.475155
0.448853
0.423973
0.40089
0.37975
0.360541
0.343152
0.327424
0.313181
0.300249
0.28847
0.277701
0.267824
0.258736
0.250351
0.24256
0.235287
0.228481
0.222094
0.216089
0.210433
0.205098
0.200061
0.195303
0.190807
0.186561
0.182554
0.178777
0.175225
0.171893
0.16878
0.165887
0.163218
0.160781
0.158589
0.156659
0.155052
0.153775
0.152833
0.152341
0.152413
0.16126
0.171909
0.184567
0.199544
0.21726
0.23827
0.2633
0.293285
0.329415
0.373194
0.426626
0.491931
0.570783
0.663392
0.766843
0.873581
0.972197
1.05198
1.10826
1.14342
1.16337
1.17386
1.1791
1.18163
1.18282
1.18338
1.18362
1.18374
1.18378
1.18381
1.18381
1.18382
1.18382
1.18382
1.18382
1.18382
1.18382
1.18382
0.658526
0.6585
0.658456
0.658383
0.658261
0.658058
0.657726
0.657186
0.65632
0.654951
0.652824
0.649586
0.644779
0.637845
0.628182
0.615243
0.598684
0.578512
0.555175
0.529515
0.50261
0.47555
0.449255
0.424374
0.401285
0.380137
0.360918
0.34352
0.327783
0.313533
0.300596
0.288813
0.278041
0.268162
0.259072
0.250687
0.242898
0.235628
0.228823
0.222439
0.216437
0.210783
0.205449
0.200414
0.195656
0.191159
0.186911
0.182901
0.179119
0.175559
0.172218
0.169093
0.166186
0.163498
0.161039
0.15882
0.156863
0.155224
0.153921
0.152955
0.152458
0.152567
0.159771
0.170056
0.182311
0.196825
0.213998
0.23436
0.258607
0.287636
0.322597
0.364939
0.416587
0.479795
0.556404
0.64699
0.749289
0.856505
0.957542
1.04105
1.10115
1.13929
1.16116
1.17276
1.17857
1.18138
1.18271
1.18332
1.1836
1.18373
1.18378
1.1838
1.18381
1.18382
1.18382
1.18382
1.18382
1.18382
1.18382
1.18382
0.658526
0.6585
0.658457
0.658384
0.658262
0.658061
0.65773
0.657193
0.656331
0.654968
0.652851
0.649628
0.644841
0.637934
0.628306
0.615409
0.598897
0.578773
0.555479
0.529855
0.502974
0.475929
0.449638
0.424757
0.401662
0.380506
0.361279
0.343874
0.328131
0.313876
0.300936
0.28915
0.278378
0.268498
0.25941
0.251026
0.243241
0.235975
0.229176
0.222796
0.216798
0.211148
0.205818
0.200786
0.19603
0.191535
0.187287
0.183275
0.17949
0.175925
0.172577
0.169444
0.166525
0.163824
0.161349
0.159113
0.157133
0.155466
0.154143
0.153159
0.152641
0.152707
0.157865
0.167854
0.179738
0.193798
0.210416
0.230102
0.253519
0.281529
0.315238
0.356041
0.405773
0.466698
0.54082
0.629077
0.729884
0.837304
0.940725
1.02826
1.09269
1.13431
1.15849
1.17142
1.17793
1.18108
1.18258
1.18326
1.18358
1.18371
1.18378
1.1838
1.18381
1.18382
1.18382
1.18382
1.18382
1.18382
1.18382
1.18382
0.658526
0.6585
0.658457
0.658385
0.658264
0.658063
0.657735
0.6572
0.656343
0.654987
0.65288
0.649671
0.644905
0.638025
0.628432
0.615574
0.599105
0.579023
0.555767
0.530172
0.503312
0.476276
0.449988
0.425103
0.402003
0.380841
0.361607
0.344196
0.32845
0.314193
0.301252
0.289467
0.278697
0.268821
0.259736
0.251357
0.243578
0.236319
0.229526
0.223154
0.217163
0.211519
0.206196
0.201168
0.196417
0.191925
0.187679
0.183668
0.179882
0.176315
0.172962
0.169822
0.166894
0.164183
0.161695
0.159444
0.15745
0.155766
0.154432
0.153448
0.152961
0.153125
0.155748
0.165462
0.176977
0.190569
0.206608
0.225581
0.248122
0.275055
0.307436
0.34661
0.394311
0.452784
0.524188