/*--------------------------------*- C++ -*----------------------------------*\
  =========                 |
  \\      /  F ield         | OpenFOAM: The Open Source CFD Toolbox
   \\    /   O peration     | Website:  https://openfoam.org
    \\  /    A nd           | Version:  8
     \\/     M anipulation  |
\*---------------------------------------------------------------------------*/
FoamFile
{
    version     2.0;
    format      ascii;
    class       volScalarField;
    location    "340/fluid";
    object      T;
}
// * * * * * * * * * * * * * * * * * * * * * * * * * * * * * * * * * * * * * //

dimensions      [0 0 0 1 0 0 0];

internalField   nonuniform List<scalar> 
4000
(
293.004
293.015
293.035
293.068
293.124
293.215
293.366
293.611
294.006
294.637
295.63
297.166
299.501
302.974
308.009
315.103
324.784
337.543
353.757
373.626
397.14
424.116
454.238
487.116
522.364
559.635
598.644
639.164
681.024
724.096
768.277
813.481
859.627
906.627
954.389
1002.8
1051.83
1101.5
1151.71
1202.39
1253.44
1304.76
1356.26
1407.83
1459.36
1510.75
1561.88
1612.6
1662.8
1712.31
1760.99
1808.66
1855.12
1900.14
1943.45
1984.72
2023.55
2059.43
2091.18
2118.39
2140.79
2156.19
2162.62
2151.82
2039.67
1920.68
1796.9
1670.05
1541.6
1412.84
1284.98
1159.18
1036.59
918.416
805.603
699.652
602.82
517.575
446.253
390.491
350.463
324.403
309.032
300.738
296.606
294.636
293.727
293.317
293.137
293.058
293.025
293.01
293.004
293.002
293.001
293
293
293
293
293
293.004
293.016
293.036
293.069
293.126
293.219
293.372
293.622
294.026
294.669
295.68
297.241
299.606
303.111
308.176
315.288
324.965
337.688
353.833
373.605
397.008
423.851
453.825
486.565
521.701
558.893
597.859
638.372
680.257
723.381
767.642
812.949
859.216
906.348
954.235
1002.77
1051.95
1101.77
1152.14
1202.99
1254.2
1305.69
1357.36
1409.11
1460.81
1512.36
1563.65
1614.52
1664.86
1714.52
1763.33
1811.12
1857.68
1902.8
1946.2
1987.56
2026.47
2062.43
2094.23
2121.48
2143.89
2159.21
2165.29
2139.42
2026.04
1905.95
1781.13
1653.3
1523.9
1394.26
1265.61
1139.13
1016.06
897.621
784.844
679.492
584.016
500.98
432.665
380.394
343.785
320.507
307.015
299.794
296.191
294.462
293.656
293.289
293.126
293.054
293.023
293.01
293.004
293.002
293.001
293
293
293
293
293
293.004
293.016
293.036
293.071
293.128
293.223
293.38
293.635
294.047
294.703
295.73
297.314
299.708
303.247
308.348
315.492
325.189
337.913
354.031
373.743
397.059
423.807
453.687
486.337
521.395
558.528
597.457
637.957
679.856
723.019
767.336
812.715
859.073
906.323
954.366
1003.08
1052.46
1102.5
1153.11
1204.19
1255.66
1307.41
1359.35
1411.36
1463.33
1515.15
1566.69
1617.82
1668.4
1718.28
1767.31
1815.29
1862.03
1907.3
1950.83
1992.31
2031.33
2067.41
2099.35
2126.73
2149.42
2165.32
2172.6
2117.28
2003.02
1881.83
1755.87
1626.94
1496.61
1366.24
1237.12
1110.53
987.755
870.041
758.552
655.31
562.821
483.542
419.432
371.289
338.164
317.386
305.434
299.046
295.852
294.313
293.592
293.262
293.114
293.049
293.021
293.009
293.004
293.002
293.001
293
293
293
293
293
293.004
293.016
293.037
293.072
293.13
293.226
293.385
293.644
294.06
294.722
295.759
297.356
299.765
303.321
308.44
315.601
325.309
338.034
354.142
373.831
397.11
423.814
453.652
486.267
521.296
558.41
597.332
637.839
679.763
722.972
767.363
812.848
859.341
906.75
954.973
1003.89
1053.49
1103.77
1154.64
1206
1257.76
1309.82
1362.06
1414.39
1466.68
1518.81
1570.66
1622.09
1672.96
1723.11
1772.38
1820.58
1867.5
1912.91
1956.53
1998.04
2037.02
2073
2104.58
2131.77
2154.29
2169.98
2176.79
2091.17
1975.87
1853.38
1726.15
1596.17
1465.06
1334.26
1205.12
1078.95
957.107
840.744
731.211
630.694
541.659
466.394
406.533
362.414
332.625
314.242
303.793
298.248
295.48
294.144
293.518
293.23
293.101
293.044
293.019
293.008
293.003
293.001
293.001
293
293
293
293
293
293.004
293.016
293.037
293.073
293.131
293.229
293.39
293.651
294.071
294.74
295.785
297.393
299.818
303.394
308.535
315.719
325.45
338.193
354.312
374.004
397.278
423.97
453.792
486.394
521.418
558.54
597.484
638.033
680.017
723.307
767.8
813.407
860.044
907.621
956.031
1005.16
1054.99
1105.53
1156.67
1208.32
1260.39
1312.76
1365.33
1417.99
1470.61
1523.08
1575.26
1627
1678.17
1728.6
1778.11
1826.52
1873.59
1919.09
1962.72
2004.11
2042.85
2078.39
2109.25
2136.33
2157.83
2172.53
2178.71
2068.68
1949.74
1824.62
1695.55
1564.32
1432.51
1301.5
1172.64
1047.25
926.684
812.018
704.795
607.297
521.904
450.706
394.993
354.655
327.883
311.594
302.423
297.582
295.168
294.003
293.455
293.203
293.089
293.039
293.016
293.007
293.003
293.001
293.001
293
293
293
293
293
293.004
293.016
293.038
293.073
293.133
293.231
293.393
293.656
294.08
294.752
295.804
297.421
299.858
303.449
308.61
315.816
325.572
338.342
354.486
374.203
397.5
424.215
454.06
486.688
521.743
558.905
597.9
638.513
680.577
723.963
768.57
814.312
861.103
908.853
957.457
1006.8
1056.87
1107.66
1159.08
1211.03
1263.39
1316.08
1368.98
1421.97
1474.92
1527.72
1580.22
1632.27
1683.73
1734.42
1784.16
1832.75
1879.95
1925.5
1969.07
2010.27
2048.61
2083.19
2112.92
2138.15
2156.45
2165.72
2162.53
2046.58
1923.69
1795.93
1665.12
1532.86
1400.58
1269.62
1141.3
1016.93
897.802
784.99
680.208
585.769
503.948
436.627
384.763
347.844
323.742
309.278
301.216
296.99
294.888
293.874
293.397
293.177
293.078
293.034
293.015
293.006
293.003
293.001
293
293
293
293
293
293
293.004
293.016
293.038
293.074
293.134
293.233
293.395
293.66
294.087
294.763
295.821
297.446
299.895
303.502
308.683
315.915
325.7
338.504
354.685
374.44
397.777
424.533
454.423
487.098
522.207
559.429
598.495
639.19
681.349
724.845
769.578
815.462
862.414
910.342
959.142
1008.69
1059
1110.05
1161.74
1213.97
1266.63
1319.63
1372.84
1426.14
1479.41
1532.52
1585.32
1637.66
1689.39
1740.32
1790.27
1839.02
1886.34
1931.94
1975.48
2016.55
2054.64
2088.57
2117.52
2141.72
2158.52
2165.52
2137.9
2020.17
1895.72
1766.76
1635.12
1502.41
1370.08
1239.48
1111.91
988.703
871.088
760.17
657.831
566.371
487.955
424.254
375.905
342.036
320.257
307.349
300.216
296.5
294.656
293.767
293.348
293.156
293.069
293.03
293.013
293.005
293.002
293.001
293
293
293
293
293
293
293.004
293.017
293.038
293.074
293.134
293.234
293.398
293.664
294.093
294.773
295.836
297.469
299.928
303.551
308.752
316.01
325.828
338.671
354.897
374.702
398.092
424.904
454.852
487.591
522.768
560.065
599.214
640.002
682.266
725.879
770.744
816.776
863.89
911.996
960.988
1010.75
1061.29
1112.58
1164.52
1217.02
1269.97
1323.25
1376.75
1430.35
1483.91
1537.3
1590.37
1642.97
1694.94
1746.08
1796.21
1845.11
1892.52
1938.18
1981.73
2022.76
2060.76
2094.56
2123.41
2147.62
2164.83
2173.17
2110.78
1992.84
1867.95
1738.54
1606.61
1473.85
1341.74
1211.67
1084.97
962.985
846.853
737.791
637.811
549.169
473.918
413.521
368.318
337.118
317.331
305.736
299.381
296.09
294.461
293.676
293.308
293.138
293.061
293.026
293.011
293.005
293.002
293.001
293
293
293
293
293
293
293.004
293.017
293.038
293.075
293.135
293.235
293.4
293.667
294.098
294.781
295.849
297.49
299.961
303.598
308.821
316.107
325.96
338.846
355.121
374.981
398.432
425.309
455.325
488.136
523.39
560.77
600.01
640.896
683.269
727.003
772.001
818.178
865.452
913.732
962.91
1012.87
1063.63
1115.15
1167.33
1220.08
1273.29
1326.83
1380.6
1434.46
1488.29
1541.93
1595.24
1648.06
1700.23
1751.54
1801.81
1850.8
1898.27
1943.92
1987.42
2028.34
2066.13
2099.55
2128.14
2152.12
2169.03
2176.62
2087.04
1968.36
1842.8
1712.89
1580.69
1447.91
1316.07
1186.56
1060.73
939.917
825.191
717.897
620.127
534.091
461.728
404.304
361.881
332.994
314.902
304.405
298.695
295.753
294.3
293.602
293.274
293.122
293.054
293.024
293.01
293.004
293.002
293.001
293
293
293
293
293
293
293.004
293.017
293.038
293.075
293.136
293.236
293.402
293.671
294.103
294.79
295.862
297.51
299.992
303.645
308.888
316.203
326.092
339.022
355.351
375.27
398.786
425.732
455.821
488.709
524.044
561.51
600.842
641.829
684.31
728.163
773.291
819.61
867.037
915.481
964.834
1014.98
1065.94
1117.67
1170.08
1223.06
1276.5
1330.28
1384.29
1438.39
1492.44
1546.3
1599.82
1652.82
1705.14
1756.58
1806.94
1855.97
1903.42
1948.99
1992.32
2032.99
2070.49
2103.5
2131.79
2155.44
2172.25
2180.24
2068.95
1948.27
1821.31
1690.49
1557.79
1424.88
1293.23
1164.23
1039.21
919.475
806.049
700.396
604.658
520.992
451.229
396.444
356.451
329.551
312.889
303.309
298.13
295.476
294.169
293.541
293.246
293.11
293.049
293.021
293.009
293.004
293.002
293.001
293
293
293
293
293
293
293.004
293.017
293.039
293.075
293.136
293.237
293.403
293.673
294.108
294.797
295.875
297.53
300.021
303.69
308.954
316.297
326.223
339.198
355.58
375.56
399.142
426.158
456.322
489.287
524.704
562.255
601.678
642.762
685.349
729.317
774.568
821.021
868.591
917.188
966.702
1017.02
1068.17
1120.09
1172.7
1225.89
1279.54
1333.53
1387.75
1442.05
1496.3
1550.35
1604.03
1657.19
1709.63
1761.16
1811.55
1860.58
1907.95
1953.36
1996.41
2036.66
2073.51
2105.24
2133.04
2154.73
2168.74
2172.57
2056.02
1932.06
1803.06
1671.02
1537.69
1404.57
1273.09
1144.54
1020.26
901.501
789.262
685.111
591.219
509.686
442.239
389.778
351.892
326.687
311.228
302.408
297.668
295.25
294.061
293.491
293.223
293.1
293.044
293.019
293.008
293.004
293.001
293.001
293
293
293
293
293
293
293.004
293.017
293.039
293.076
293.137
293.238
293.405
293.676
294.112
294.805
295.886
297.548
300.05
303.732
309.017
316.388
326.35
339.369
355.803
375.843
399.489
426.575
456.812
489.852
525.347
562.981
602.49
643.668
686.353
730.428
775.794
822.37
870.072
918.809
968.47
1018.94
1070.25
1122.36
1175.15
1228.51
1282.35
1336.52
1390.92
1445.4
1499.82
1554.02
1607.85
1661.13
1713.66
1765.25
1815.67
1864.66
1911.95
1957.18
1999.95
2039.77
2075.8
2106.61
2133.04
2152.56
2163.17
2161.44
2042.34
1916.55
1786.3
1653.5
1519.78
1386.61
1255.34
1127.26
1003.68
885.798
774.627
671.838
579.609
499.985
434.586
384.152
348.08
324.312
309.859
301.67
297.29
295.065
293.973
293.45
293.204
293.091
293.04
293.018
293.008
293.003
293.001
293.001
293
293
293
293
293
293
293.004
293.017
293.039
293.076
293.137
293.239
293.406
293.679
294.117
294.811
295.897
297.565
300.076
303.773
309.077
316.474
326.47
339.531
356.015
376.111
399.82
426.972
457.277
490.388
525.956
563.667
603.257
644.519
687.296
731.468
776.938
823.626
871.446
920.308
970.099
1020.71
1072.17
1124.42
1177.37
1230.9
1284.89
1339.22
1393.78
1448.41
1502.97
1557.3
1611.25
1664.62
1717.23
1768.87
1819.3
1868.28
1915.49
1960.61
2003.2
2042.77
2078.32
2108.68
2134.57
2153.44
2163.26
2148.87
2028.43
1901.68
1770.81
1637.66
1503.83
1370.77
1239.79
1112.2
989.274
872.199
762.005
660.446
569.687
491.732
428.117
379.436
344.91
322.353
308.737
301.066
296.982
294.914
293.901
293.416
293.189
293.085
293.037
293.016
293.007
293.003
293.001
293.001
293
293
293
293
293
293
293.004
293.017
293.039
293.076
293.138
293.24
293.408
293.681
294.12
294.818
295.907
297.581
300.101
303.81
309.132
316.553
326.58
339.681
356.211
376.359
400.125
427.337
457.705
490.881
526.516
564.296
603.959
645.298
688.156
732.414
777.977
824.763
872.687
921.658
971.563
1022.29
1073.88
1126.27
1179.34
1233.01
1287.13
1341.6
1396.29
1451.04
1505.72
1560.16
1614.2
1667.65
1720.32
1772
1822.45
1871.42
1918.6
1963.66
2006.18
2045.66
2081.16
2111.52
2137.56
2156.9
2167.85
2135.69
2014.89
1887.85
1756.79
1623.58
1489.82
1356.96
1226.33
1099.21
976.919
860.575
751.251
650.77
561.296
484.792
422.709
375.518
342.296
320.747
307.822
300.577
296.733
294.793
293.843
293.389
293.177
293.079
293.035
293.015
293.007
293.003
293.001
293
293
293
293
293
293
293
293.004
293.017
293.039
293.076
293.138
293.241
293.409
293.683
294.124
294.823
295.916
297.595
300.123
303.843
309.181
316.624
326.679
339.814
356.386
376.581
400.397
427.663
458.087
491.32
527.015
564.855
604.582
645.987
688.916
733.249
778.892
825.762
873.775
922.839
972.84
1023.67
1075.37
1127.86
1181.05
1234.83
1289.07
1343.65
1398.43
1453.29
1508.06
1562.59
1616.7
1670.21
1722.93
1774.63
1825.09
1874.05
1921.2
1966.21
2008.67
2048.08
2083.51
2113.82
2139.9
2159.36
2170.53
2124.09
2002.99
1875.76
1744.63
1611.45
1477.84
1345.22
1214.93
1088.27
966.537
850.82
742.236
642.683
554.308
479.036
418.248
372.306
340.166
319.446
307.084
300.183
296.533
294.695
293.797
293.368
293.167
293.075
293.033
293.014
293.006
293.003
293.001
293
293
293
293
293
293
293
293.004
293.017
293.039
293.076
293.138
293.241
293.41
293.685
294.127
294.828
295.924
297.607
300.141
303.872
309.223
316.685
326.764
339.93
356.536
376.771
400.631
427.943
458.414
491.697
527.442
565.334
605.114
646.576
689.564
733.959
779.668
826.608
874.695
923.836
973.915
1024.83
1076.61
1129.2
1182.48
1236.34
1290.67
1345.34
1400.21
1455.15
1509.99
1564.58
1618.74
1672.3
1725.04
1776.76
1827.21
1876.14
1923.26
1968.2
2010.58
2049.91
2085.25
2115.49
2141.52
2160.97
2172.17
2114.64
1993.15
1865.72
1734.53
1601.4
1467.93
1335.53
1205.55
1079.28
958.01
842.822
734.866
636.086
548.623
474.37
414.647
369.725
338.463
318.411
306.498
299.871
296.374
294.618
293.76
293.351
293.159
293.071
293.031
293.014
293.006
293.003
293.001
293
293
293
293
293
293
293
293.004
293.017
293.039
293.077
293.139
293.242
293.411
293.686
294.129
294.832
295.93
297.617
300.157
303.895
309.258
316.734
326.834
340.024
356.659
376.927
400.823
428.172
458.682
492.005
527.79
565.724
605.547
647.054
690.089
734.535
780.297
827.292
875.437
924.638
974.778
1025.75
1077.61
1130.26
1183.61
1237.54
1291.94
1346.68
1401.61
1456.6
1511.5
1566.13
1620.33
1673.91
1726.66
1778.38
1828.82
1877.71
1924.77
1969.66
2011.97
2051.23
2086.49
2116.65
2142.63
2162.06
2173.33
2107.15
1985.3
1857.69
1726.45
1593.36
1460.01
1327.81
1198.09
1072.13
951.254
836.497
729.05
630.893
544.16
470.718
411.839
367.721
337.144
317.611
306.047
299.631
296.253
294.558
293.732
293.337
293.153
293.068
293.03
293.013
293.006
293.002
293.001
293
293
293
293
293
293
293
293.004
293.017
293.039
293.077
293.139
293.242
293.412
293.687
294.131
294.835
295.935
297.624
300.168
303.913
309.284
316.772
326.887
340.096
356.753
377.046
400.969
428.347
458.886
492.239
528.054
566.02
605.876
647.417
690.487
734.97
780.771
827.807
875.995
925.239
975.424
1026.45
1078.35
1131.05
1184.45
1238.43
1292.88
1347.66
1402.64
1457.67
1512.6
1567.26
1621.47
1675.06
1727.81
1779.51
1829.92
1878.78
1925.79
1970.62
2012.87
2052.05
2087.23
2117.33
2143.27
2162.74
2174.09
2101.64
1979.43
1851.64
1720.34
1587.29
1454.04
1322
1192.48
1066.78
946.204
831.779
724.721
627.037
540.855
468.022
409.773
366.251
336.18
317.026
305.717
299.455
296.164
294.515
293.711
293.328
293.149
293.066
293.029
293.013
293.006
293.002
293.001
293
293
293
293
293
293
293
293.004
293.017
293.039
293.077
293.139
293.242
293.412
293.688
294.132
294.837
295.938
297.629
300.176
303.925
309.302
316.798
326.922
340.144
356.816
377.125
401.066
428.463
459.023
492.395
528.232
566.219
606.096
647.659
690.754
735.261
781.088
828.151
876.367
925.638
975.851
1026.9
1078.83
1131.57
1185
1239.01
1293.49
1348.29
1403.3
1458.35
1513.29
1567.96
1622.19
1675.77
1728.51
1780.19
1830.58
1879.4
1926.36
1971.13
2013.31
2052.43
2087.53
2117.58
2143.52
2163.05
2174.54
2098.03
1975.48
1847.52
1716.17
1583.15
1449.98
1318.06
1188.7
1063.19
942.82
828.627
721.839
624.476
538.667
466.244
408.415
365.289
335.551
316.646
305.502
299.341
296.105
294.486
293.697
293.322
293.146
293.065
293.029
293.013
293.005
293.002
293.001
293
293
293
293
293
293
293
293.004
293.017
293.039
293.077
293.139
293.242
293.412
293.688
294.133
294.838
295.939
297.632
300.18
303.93
309.31
316.81
326.939
340.167
356.846
377.164
401.114
428.52
459.089
492.471
528.318
566.315
606.203
647.778
690.884
735.404
781.244
828.32
876.549
925.834
976.061
1027.13
1079.07
1131.82
1185.26
1239.29
1293.78
1348.6
1403.61
1458.67
1513.62
1568.29
1622.51
1676.09
1728.82
1780.49
1830.85
1879.64
1926.57
1971.29
2013.42
2052.48
2087.53
2117.55
2143.49
2163.08
2174.74
2096.25
1973.43
1845.37
1713.99
1580.99
1447.88
1316.04
1186.78
1061.38
941.129
827.063
720.419
623.225
537.604
465.386
407.765
364.832
335.255
316.468
305.401
299.287
296.078
294.473
293.691
293.319
293.145
293.065
293.028
293.012
293.005
293.002
293.001
293
293
293
293
293
293
293
293.004
293.017
293.039
293.077
293.139
293.242
293.412
293.688
294.133
294.838
295.939
297.632
300.18
303.93
309.311
316.81
326.94
340.167
356.847
377.165
401.115
428.521
459.09
492.473
528.32
566.317
606.205
647.78
690.886
735.406
781.246
828.322
876.551
925.837
976.064
1027.13
1079.07
1131.82
1185.26
1239.29
1293.78
1348.6
1403.61
1458.67
1513.62
1568.3
1622.52
1676.09
1728.83
1780.49
1830.85
1879.64
1926.57
1971.29
2013.42
2052.48
2087.53
2117.56
2143.49
2163.08
2174.74
2096.24
1973.43
1845.36
1713.98
1580.99
1447.88
1316.04
1186.77
1061.37
941.123
827.057
720.414
623.22
537.6
465.383
407.763
364.83
335.254
316.467
305.401
299.287
296.078
294.473
293.691
293.319
293.144
293.065
293.028
293.012
293.005
293.002
293.001
293
293
293
293
293
293
293
293.004
293.017
293.039
293.077
293.139
293.242
293.412
293.688
294.132
294.837
295.938
297.63
300.177
303.925
309.303
316.799
326.924
340.145
356.818
377.128
401.07
428.467
459.027
492.4
528.237
566.224
606.102
647.665
690.76
735.268
781.095
828.158
876.374
925.646
975.859
1026.91
1078.84
1131.58
1185.01
1239.02
1293.49
1348.3
1403.31
1458.36
1513.3
1567.97
1622.2
1675.78
1728.52
1780.2
1830.58
1879.41
1926.37
1971.14
2013.32
2052.43
2087.54
2117.59
2143.53
2163.05
2174.54
2098
1975.45
1847.5
1716.15
1583.12
1449.96
1318.04
1188.68
1063.17
942.802
828.61
721.823
624.462
538.655
466.234
408.407
365.284
335.548
316.644
305.501
299.34
296.105
294.486
293.697
293.321
293.146
293.065
293.029
293.013
293.005
293.002
293.001
293
293
293
293
293
293
293
293.004
293.017
293.039
293.077
293.139
293.242
293.412
293.687
294.131
294.835
295.935
297.625
300.169
303.914
309.286
316.774
326.889
340.099
356.757
377.051
400.975
428.353
458.894
492.247
528.063
566.029
605.885
647.427
690.498
734.981
780.783
827.819
876.008
925.252
975.437
1026.46
1078.36
1131.06
1184.46
1238.45
1292.89
1347.67
1402.65
1457.68
1512.61
1567.27
1621.49
1675.07
1727.83
1779.53
1829.94
1878.79
1925.81
1970.64
2012.88
2052.07
2087.24
2117.34
2143.28
2162.74
2174.09
2101.59
1979.38
1851.6
1720.3
1587.25
1454
1321.96
1192.44
1066.75
946.173
831.75
724.694
627.013
540.834
468.005
409.759
366.241
336.174
317.023
305.715
299.454
296.163
294.514
293.711
293.328
293.149
293.066
293.029
293.013
293.006
293.002
293.001
293
293
293
293
293
293
293
293.004
293.017
293.039
293.077
293.139
293.242
293.411
293.686
294.129
294.832
295.93
297.617
300.158
303.896
309.26
316.737
326.837
340.028
356.665
376.934
400.831
428.182
458.693
492.016
527.802
565.737
605.561
647.068
690.104
734.551
780.313
827.309
875.455
924.656
974.797
1025.77
1077.63
1130.28
1183.63
1237.57
1291.96
1346.7
1401.63
1456.63
1511.52
1566.16
1620.36
1673.93
1726.69
1778.4
1828.84
1877.73
1924.79
1969.68
2011.99
2051.25
2086.51
2116.67
2142.64
2162.07
2173.34
2107.09
1985.24
1857.63
1726.39
1593.31
1459.96
1327.76
1198.04
1072.09
951.209
836.455
729.011
630.858
544.13
470.694
411.82
367.707
337.135
317.605
306.044
299.629
296.252
294.558
293.731
293.337
293.153
293.068
293.03
293.013
293.006
293.002
293.001
293
293
293
293
293
293
293
293.004
293.017
293.039
293.076
293.139
293.241
293.41
293.685
294.127
294.828
295.924
297.608
300.142
303.873
309.226
316.688
326.769
339.935
356.543
376.78
400.642
427.955
458.428
491.711
527.457
565.351
605.131
646.594
689.583
733.979
779.689
826.63
874.718
923.859
973.939
1024.85
1076.64
1129.22
1182.5
1236.37
1290.7
1345.37
1400.24
1455.18
1510.02
1564.61
1618.78
1672.33
1725.07
1776.79
1827.24
1876.17
1923.29
1968.23
2010.61
2049.94
2085.28
2115.52
2141.54
2160.98
2172.18
2114.56
1993.07
1865.64
1734.45
1601.33
1467.86
1335.46
1205.49
1079.21
957.951
842.767
734.815
636.04
548.583
474.337
414.621
369.707
338.451
318.403
306.494
299.869
296.373
294.617
293.76
293.35
293.159
293.071
293.031
293.014
293.006
293.003
293.001
293
293
293
293
293
293
293
293.004
293.017
293.039
293.076
293.138
293.241
293.409
293.683
294.124
294.823
295.917
297.596
300.124
303.845
309.184
316.628
326.684
339.821
356.394
376.591
400.41
427.677
458.103
491.338
527.034
564.876
604.603
646.01
688.94
733.274
778.917
825.788
873.803
922.868
972.87
1023.7
1075.4
1127.89
1181.09
1234.86
1289.1
1343.68
1398.47
1453.33
1508.1
1562.63
1616.74
1670.25
1722.96
1774.67
1825.13
1874.08
1921.23
1966.24
2008.7
2048.11
2083.54
2113.85
2139.92
2159.38
2170.55
2124
2002.89
1875.67
1744.54
1611.36
1477.74
1345.13
1214.85
1088.2
966.463
850.751
742.172
642.625
554.257
478.994
418.215
372.283
340.151
319.437
307.079
300.18
296.531
294.694
293.796
293.367
293.167
293.075
293.033
293.014
293.006
293.003
293.001
293
293
293
293
293
293
293
293.004
293.017
293.039
293.076
293.138
293.24
293.408
293.681
294.121
294.818
295.908
297.582
300.102
303.812
309.135
316.558
326.586
339.689
356.221
376.372
400.14
427.354
457.724
490.902
526.539
564.32
603.984
645.325
688.184
732.443
778.008
824.795
872.721
921.693
971.598
1022.33
1073.92
1126.3
1179.38
1233.05
1287.18
1341.65
1396.33
1451.09
1505.76
1560.21
1614.24
1667.7
1720.37
1772.04
1822.49
1871.46
1918.64
1963.7
2006.21
2045.7
2081.2
2111.55
2137.6
2156.94
2167.9
2135.58
2014.78
1887.73
1756.68
1623.47
1489.71
1356.86
1226.23
1099.12
976.83
860.494
751.173
650.7
561.235
484.741
422.669
375.489
342.277
320.736
307.815
300.573
296.731
294.792
293.843
293.389
293.177
293.079
293.035
293.015
293.007
293.003
293.001
293
293
293
293
293
293
293
293.004
293.017
293.039
293.076
293.137
293.239
293.407
293.679
294.117
294.812
295.898
297.566
300.078
303.776
309.081
316.479
326.477
339.541
356.027
376.126
399.837
426.991
457.298
490.412
525.982
563.695
603.286
644.55
687.329
731.502
776.974
823.663
871.485
920.348
970.14
1020.75
1072.21
1124.47
1177.42
1230.94
1284.94
1339.27
1393.83
1448.46
1503.02
1557.35
1611.3
1664.67
1717.28
1768.92
1819.35
1868.32
1915.54
1960.65
2003.25
2042.81
2078.36
2108.72
2134.62
2153.49
2163.31
2148.72
2028.29
1901.55
1770.68
1637.53
1503.71
1370.64
1239.67
1112.08
989.165
872.096
761.911
660.362
569.614
491.671
428.069
379.401
344.887
322.339
308.729
301.062
296.98
294.913
293.901
293.416
293.189
293.085
293.037
293.016
293.007
293.003
293.001
293.001
293
293
293
293
293
293
293.004
293.017
293.039
293.076
293.137
293.238
293.405
293.676
294.113
294.805
295.887
297.549
300.052
303.735
309.022
316.394
326.358
339.38
355.817
375.859
399.509
426.597
456.837
489.88
525.377
563.013
602.524
643.703
686.391
730.466
775.835
822.412
870.116
918.855
968.517
1018.99
1070.31
1122.41
1175.2
1228.57
1282.4
1336.58
1390.98
1445.46
1499.88
1554.08
1607.91
1661.19
1713.72
1765.31
1815.73
1864.72
1912
1957.23
2000
2039.81
2075.84
2106.64
2133.06
2152.56
2163.12
2161.31
2042.21
1916.41
1786.16
1653.36
1519.64
1386.47
1255.21
1127.13
1003.55
885.682
774.52
671.74
579.523
499.913
434.529
384.111
348.052
324.296
309.85
301.665
297.288
295.064
293.972
293.449
293.204
293.091
293.04
293.018
293.008
293.003
293.001
293.001
293
293
293
293
293
293
293.004
293.017
293.039
293.075
293.136
293.237
293.403
293.674
294.108
294.798
295.876
297.531
300.024
303.693
308.959
316.304
326.232
339.21
355.595
375.578
399.163
426.183
456.35
489.318
524.737
562.291
601.715
642.802
685.391
729.36
774.614
821.068
868.641
917.24
966.756
1017.07
1068.22
1120.15
1172.77
1225.95
1279.6
1333.6
1387.81
1442.12
1496.37
1550.42
1604.1
1657.26
1709.7
1761.22
1811.62
1860.64
1908.01
1953.41
1996.46
2036.7
2073.55
2105.27
2133.05
2154.72
2168.7
2172.5
2055.92
1931.94
1802.92
1670.88
1537.54
1404.43
1272.94
1144.4
1020.12
901.372
789.141
685
591.121
509.604
442.173
389.729
351.859
326.667
311.216
302.402
297.665
295.249
294.06
293.49
293.223
293.1
293.044
293.019
293.008
293.004
293.001
293.001
293
293
293
293
293
293
293.004
293.017
293.038
293.075
293.136
293.236
293.402
293.671
294.104
294.79
295.863
297.512
299.994
303.648
308.893
316.21
326.102
339.035
355.367
375.29
398.809
425.759
455.852
488.743
524.081
561.549
600.883
641.873
684.356
728.212
773.342
819.663
867.093
915.539
964.893
1015.04
1066
1117.74
1170.15
1223.13
1276.57
1330.36
1384.36
1438.46
1492.52
1546.38
1599.89
1652.9
1705.22
1756.66
1807.01
1856.04
1903.49
1949.05
1992.38
2033.04
2070.54
2103.54
2131.81
2155.46
2172.25
2180.23
2068.88
1948.15
1821.16
1690.33
1557.62
1424.71
1293.07
1164.08
1039.06
919.332
805.914
700.271
604.546
520.897
451.153
396.387
356.412
329.527
312.876
303.302
298.127
295.475
294.168
293.54
293.246
293.11
293.049
293.021
293.009
293.004
293.002
293.001
293
293
293
293
293
293
293.004
293.017
293.038
293.075
293.135
293.235
293.4
293.668
294.098
294.782
295.851
297.492
299.963
303.602
308.826
316.115
325.971
338.86
355.139
375.003
398.458
425.338
455.359
488.173
523.431
560.813
600.055
640.945
683.32
727.057
772.057
818.237
865.514
913.796
962.976
1012.94
1063.7
1115.22
1167.41
1220.16
1273.37
1326.91
1380.68
1434.55
1488.37
1542.01
1595.33
1648.15
1700.31
1751.62
1801.89
1850.88
1898.35
1944
1987.49
2028.41
2066.19
2099.61
2128.19
2152.16
2169.06
2176.66
2086.86
1968.17
1842.61
1712.7
1580.5
1447.72
1315.89
1186.38
1060.56
939.757
825.04
717.757
620.001
533.983
461.641
404.238
361.835
332.966
314.886
304.397
298.691
295.751
294.3
293.602
293.274
293.122
293.054
293.024
293.01
293.004
293.002
293.001
293
293
293
293
293
293
293.004
293.017
293.038
293.074
293.134
293.234
293.398
293.664
294.093
294.773
295.837
297.471
299.931
303.555
308.758
316.019
325.84
338.687
354.917
374.725
398.12
424.936
454.889
487.631
522.812
560.112
599.265
640.056
682.322
725.938
770.806
816.84
863.957
912.066
961.061
1010.82
1061.37
1112.66
1164.61
1217.11
1270.06
1323.34
1376.84
1430.44
1484
1537.39
1590.47
1643.07
1695.03
1746.17
1796.3
1845.2
1892.61
1938.26
1981.81
2022.84
2060.84
2094.62
2123.46
2147.66
2164.86
2173.2
2110.58
1992.63
1867.73
1738.33
1606.4
1473.64
1341.54
1211.48
1084.78
962.806
846.683
737.633
637.669
549.046
473.817
413.444
368.265
337.085
317.313
305.726
299.376
296.088
294.46
293.676
293.307
293.137
293.061
293.026
293.011
293.005
293.002
293.001
293
293
293
293
293
293
293.004
293.016
293.038
293.074
293.134
293.233
293.396
293.661
294.087
294.764
295.822
297.448
299.898
303.507
308.689
315.924
325.713
338.52
354.706
374.466
397.808
424.568
454.462
487.142
522.255
559.48
598.55
639.248
681.41
724.909
769.645
815.533
862.487
910.419
959.221
1008.78
1059.09
1110.14
1161.83
1214.06
1266.73
1319.72
1372.94
1426.24
1479.51
1532.62
1585.42
1637.76
1689.49
1740.42
1790.37
1839.12
1886.43
1932.03
1975.57
2016.64
2054.71
2088.65
2117.6
2141.8
2158.61
2165.62
2137.64
2019.92
1895.49
1766.52
1634.89
1502.18
1369.86
1239.26
1111.7
988.504
870.899
759.994
657.671
566.231
487.839
424.165
375.843
341.997
320.234
307.337
300.21
296.497
294.654
293.766
293.348
293.156
293.069
293.03
293.013
293.005
293.002
293.001
293
293
293
293
293
293
293.004
293.016
293.038
293.073
293.133
293.231
293.393
293.656
294.08
294.753
295.805
297.423
299.861
303.454
308.617
315.826
325.585
338.359
354.509
374.231
397.533
424.252
454.102
486.735
521.795
558.96
597.959
638.576
680.643
724.032
768.643
814.388
861.182
908.936
957.543
1006.89
1056.96
1107.76
1159.18
1211.13
1263.5
1316.19
1369.09
1422.08
1475.04
1527.83
1580.33
1632.38
1683.84
1734.53
1784.27
1832.86
1880.05
1925.6
1969.16
2010.36
2048.69
2083.26
2112.98
2138.19
2156.44
2165.61
2162.3
2046.35
1923.46
1795.7
1664.89
1532.62
1400.34
1269.39
1141.07
1016.71
897.594
784.794
680.029
585.611
503.816
436.523
384.689
347.797
323.714
309.264
301.209
296.987
294.886
293.873
293.397
293.177
293.078
293.034
293.015
293.006
293.003
293.001
293
293
293
293
293
293
293.004
293.016
293.037
293.073
293.132
293.229
293.39
293.651
294.072
294.74
295.787
297.395
299.822
303.399
308.543
315.73
325.464
338.212
354.336
374.034
397.313
424.011
453.838
486.445
521.473
558.599
597.548
638.1
680.088
723.382
767.878
813.489
860.13
907.71
956.124
1005.25
1055.09
1105.63
1156.78
1208.43
1260.5
1312.87
1365.45
1418.11
1470.73
1523.2
1575.38
1627.12
1678.29
1728.72
1778.23
1826.63
1873.7
1919.2
1962.82
2004.21
2042.93
2078.46
2109.3
2136.36
2157.82
2172.47
2178.63
2068.54
1949.54
1824.4
1695.31
1564.07
1432.25
1301.25
1172.4
1047.02
926.457
811.802
704.596
607.119
521.752
450.585
394.906
354.598
327.85
311.576
302.414
297.578
295.166
294.002
293.454
293.203
293.089
293.039
293.016
293.007
293.003
293.001
293.001
293
293
293
293
293
293.004
293.016
293.037
293.072
293.13
293.227
293.385
293.644
294.061
294.723
295.761
297.358
299.769
303.327
308.448
315.612
325.324
338.055
354.168
373.863
397.148
423.858
453.702
486.322
521.356
558.475
597.401
637.913
679.84
723.052
767.447
812.936
859.433
906.847
955.073
1003.99
1053.6
1103.88
1154.76
1206.12
1257.88
1309.94
1362.19
1414.51
1466.8
1518.94
1570.79
1622.22
1673.09
1723.24
1772.51
1820.71
1867.63
1913.03
1956.65
1998.15
2037.13
2073.1
2104.67
2131.84
2154.34
2170.02
2176.82
2090.97
1975.63
1853.11
1725.88
1595.89
1464.78
1333.99
1204.86
1078.69
956.858
840.506
730.988
630.493
541.486
466.254
406.43
362.345
332.584
314.22
303.782
298.243
295.477
294.143
293.517
293.23
293.101
293.044
293.019
293.008
293.003
293.001
293.001
293
293
293
293
293
293.004
293.016
293.036
293.071
293.128
293.223
293.38
293.636
294.048
294.704
295.732
297.317
299.712
303.253
308.356
315.504
325.205
337.934
354.058
373.777
397.099
423.853
453.738
486.394
521.457
558.595
597.528
638.034
679.938
723.105
767.427
812.81
859.173
906.427
954.473
1003.19
1052.58
1102.62
1153.23
1204.32
1255.79
1307.54
1359.48
1411.49
1463.47
1515.29
1566.83
1617.96
1668.54
1718.42
1767.44
1815.43
1862.17
1907.43
1950.96
1992.43
2031.45
2067.53
2099.47
2126.83
2149.51
2165.41
2172.69
2117.01
2002.74
1881.55
1755.58
1626.65
1496.32
1365.95
1236.84
1110.25
987.482
869.779
758.305
655.083
562.623
483.38
419.309
371.206
338.114
317.359
305.421
299.041
295.85
294.312
293.591
293.262
293.114
293.049
293.021
293.009
293.004
293.002
293.001
293
293
293
293
293
293.004
293.016
293.036
293.069
293.126
293.219
293.372
293.623
294.027
294.67
295.682
297.244
299.61
303.118
308.185
315.301
324.982
337.711
353.862
373.64
397.05
423.899
453.879
486.625
521.766
558.964
597.935
638.453
680.343