/*--------------------------------*- C++ -*----------------------------------*\
  =========                 |
  \\      /  F ield         | OpenFOAM: The Open Source CFD Toolbox
   \\    /   O peration     | Website:  https://openfoam.org
    \\  /    A nd           | Version:  8
     \\/     M anipulation  |
\*---------------------------------------------------------------------------*/
FoamFile
{
    version     2.0;
    format      ascii;
    class       volVectorField;
    location    "340/fluid";
    object      U;
}
// * * * * * * * * * * * * * * * * * * * * * * * * * * * * * * * * * * * * * //

dimensions      [0 1 -1 0 0 0 0];

internalField   nonuniform List<vector> 
4000
(
(0.0999511 -0.00682393 0)
(0.099685 -0.0203273 0)
(0.0992554 -0.0337392 0)
(0.0986622 -0.0470835 0)
(0.0978984 -0.0603708 0)
(0.0969483 -0.073605 0)
(0.0957938 -0.0867797 0)
(0.0944176 -0.0998787 0)
(0.0928057 -0.11288 0)
(0.0909502 -0.125757 0)
(0.0888519 -0.138488 0)
(0.0865238 -0.151051 0)
(0.0839943 -0.163439 0)
(0.0813104 -0.175646 0)
(0.0785422 -0.187671 0)
(0.0757674 -0.199579 0)
(0.0730447 -0.211421 0)
(0.0704046 -0.223229 0)
(0.0678407 -0.235005 0)
(0.0653074 -0.246716 0)
(0.0627274 -0.258292 0)
(0.0600092 -0.269639 0)
(0.057064 -0.280648 0)
(0.0538212 -0.291204 0)
(0.0502445 -0.30118 0)
(0.0463192 -0.31052 0)
(0.0420434 -0.319171 0)
(0.0374258 -0.327095 0)
(0.0324844 -0.334263 0)
(0.0272427 -0.340665 0)
(0.0217278 -0.346303 0)
(0.0159674 -0.351192 0)
(0.00998884 -0.355359 0)
(0.00381872 -0.358838 0)
(-0.00251528 -0.361674 0)
(-0.00898623 -0.363912 0)
(-0.0155719 -0.365605 0)
(-0.0222539 -0.366804 0)
(-0.0290155 -0.367565 0)
(-0.0358409 -0.36794 0)
(-0.0427156 -0.367982 0)
(-0.0496258 -0.367739 0)
(-0.0565587 -0.367255 0)
(-0.0635015 -0.366574 0)
(-0.0704419 -0.365731 0)
(-0.0773674 -0.36476 0)
(-0.084265 -0.363689 0)
(-0.0911213 -0.362542 0)
(-0.0979221 -0.36134 0)
(-0.104652 -0.360101 0)
(-0.111294 -0.358839 0)
(-0.117831 -0.357566 0)
(-0.124241 -0.356296 0)
(-0.130503 -0.355041 0)
(-0.136591 -0.353817 0)
(-0.142478 -0.352642 0)
(-0.148128 -0.351546 0)
(-0.153497 -0.350564 0)
(-0.158528 -0.34974 0)
(-0.163184 -0.34913 0)
(-0.16746 -0.348847 0)
(-0.171374 -0.349102 0)
(-0.174529 -0.350194 0)
(-0.1753 -0.351931 0)
(-0.172101 -0.352985 0)
(-0.166149 -0.35203 0)
(-0.159672 -0.349097 0)
(-0.152963 -0.344489 0)
(-0.145923 -0.338379 0)
(-0.138543 -0.330852 0)
(-0.130883 -0.321976 0)
(-0.123018 -0.311828 0)
(-0.115031 -0.300497 0)
(-0.107008 -0.288092 0)
(-0.0990533 -0.274738 0)
(-0.0913401 -0.260582 0)
(-0.0841511 -0.245843 0)
(-0.0778569 -0.230837 0)
(-0.0728606 -0.215938 0)
(-0.0695585 -0.201829 0)
(-0.0682215 -0.188975 0)
(-0.068799 -0.177474 0)
(-0.0708977 -0.167064 0)
(-0.0739535 -0.157319 0)
(-0.0774312 -0.147865 0)
(-0.0809353 -0.138459 0)
(-0.08422 -0.128963 0)
(-0.0871443 -0.119304 0)
(-0.0896737 -0.109568 0)
(-0.0918234 -0.099794 0)
(-0.0936273 -0.0900164 0)
(-0.0951241 -0.0802669 0)
(-0.0963524 -0.0705694 0)
(-0.0973481 -0.0609393 0)
(-0.0981441 -0.0513848 0)
(-0.0987692 -0.0419091 0)
(-0.0992483 -0.0325042 0)
(-0.0996011 -0.0231501 0)
(-0.0998411 -0.0138469 0)
(-0.0999802 -0.00460974 0)
(0.0999996 -0.00642972 0)
(0.0998128 -0.0192481 0)
(0.099427 -0.0320017 0)
(0.0988207 -0.0446635 0)
(0.0979954 -0.0572124 0)
(0.0969473 -0.0696298 0)
(0.095668 -0.0818936 0)
(0.0941499 -0.0939767 0)
(0.0923906 -0.105851 0)
(0.0903958 -0.117491 0)
(0.0881822 -0.128876 0)
(0.0857799 -0.139998 0)
(0.0832339 -0.150874 0)
(0.0806032 -0.161555 0)
(0.0779584 -0.172133 0)
(0.0753662 -0.182644 0)
(0.0728777 -0.193144 0)
(0.0705156 -0.203684 0)
(0.0682644 -0.214294 0)
(0.0660684 -0.224962 0)
(0.063839 -0.235637 0)
(0.0614708 -0.246232 0)
(0.0588619 -0.256642 0)
(0.0559299 -0.266763 0)
(0.0526185 -0.27652 0)
(0.0489027 -0.285785 0)
(0.0447773 -0.294459 0)
(0.0402538 -0.302474 0)
(0.0353553 -0.309786 0)
(0.0301122 -0.316375 0)
(0.0245582 -0.322237 0)
(0.0187282 -0.327383 0)
(0.0126554 -0.331835 0)
(0.00637147 -0.335626 0)
(-9.37658e-05 -0.338795 0)
(-0.00671223 -0.341386 0)
(-0.0134593 -0.34345 0)
(-0.0203139 -0.34504 0)
(-0.0272578 -0.346206 0)
(-0.0342743 -0.347001 0)
(-0.0413483 -0.347474 0)
(-0.0484659 -0.347673 0)
(-0.0556144 -0.347641 0)
(-0.0627815 -0.347418 0)
(-0.0699557 -0.347041 0)
(-0.0771254 -0.346541 0)
(-0.084279 -0.345948 0)
(-0.0914043 -0.345284 0)
(-0.0984889 -0.344572 0)
(-0.105519 -0.343827 0)
(-0.112481 -0.343064 0)
(-0.119359 -0.342296 0)
(-0.126136 -0.341533 0)
(-0.132793 -0.340785 0)
(-0.13931 -0.340064 0)
(-0.145666 -0.33938 0)
(-0.151834 -0.338747 0)
(-0.157777 -0.338181 0)
(-0.163449 -0.337697 0)
(-0.16884 -0.33731 0)
(-0.174013 -0.337053 0)
(-0.179005 -0.336979 0)
(-0.182957 -0.337037 0)
(-0.183765 -0.336636 0)
(-0.179965 -0.334896 0)
(-0.17341 -0.331975 0)
(-0.166468 -0.327768 0)
(-0.159392 -0.322199 0)
(-0.152011 -0.315244 0)
(-0.144279 -0.306906 0)
(-0.136231 -0.29721 0)
(-0.127921 -0.286203 0)
(-0.11941 -0.273957 0)
(-0.110756 -0.260588 0)
(-0.102047 -0.246264 0)
(-0.0934739 -0.231251 0)
(-0.0853728 -0.215971 0)
(-0.0782017 -0.201028 0)
(-0.0724773 -0.187187 0)
(-0.0686665 -0.17482 0)
(-0.066999 -0.164099 0)
(-0.0673293 -0.154853 0)
(-0.0691939 -0.146642 0)
(-0.0720186 -0.13897 0)
(-0.0752986 -0.131463 0)
(-0.0786739 -0.123907 0)
(-0.0819271 -0.116226 0)
(-0.0849469 -0.108412 0)
(-0.0876646 -0.100358 0)
(-0.0900638 -0.0920777 0)
(-0.0921477 -0.0836133 0)
(-0.0939312 -0.0750086 0)
(-0.0954353 -0.0663019 0)
(-0.0966838 -0.057524 0)
(-0.097701 -0.0486998 0)
(-0.09851 -0.0398497 0)
(-0.0991307 -0.0309845 0)
(-0.0995763 -0.0221041 0)
(-0.0998562 -0.0132281 0)
(-0.0999949 -0.00439794 0)
(0.0999808 -0.0061758 0)
(0.0997404 -0.0184773 0)
(0.0992691 -0.0307114 0)
(0.0985495 -0.042849 0)
(0.0975852 -0.0548649 0)
(0.0963771 -0.0667396 0)
(0.0949241 -0.0784528 0)
(0.0932284 -0.0899829 0)
(0.0912984 -0.10131 0)
(0.0891512 -0.112416 0)
(0.0868151 -0.123293 0)
(0.0843309 -0.133938 0)
(0.0817527 -0.144364 0)
(0.0791437 -0.154597 0)
(0.0765678 -0.164679 0)
(0.0740843 -0.174668 0)
(0.071741 -0.18463 0)
(0.0695588 -0.194623 0)
(0.0675204 -0.204677 0)
(0.0655678 -0.21479 0)
(0.06361 -0.224919 0)
(0.0615381 -0.234986 0)
(0.0592437 -0.244891 0)
(0.0566339 -0.254528 0)
(0.0536377 -0.263794 0)
(0.050211 -0.272601 0)
(0.0463387 -0.280874 0)
(0.042028 -0.288556 0)
(0.0373005 -0.295607 0)
(0.032187 -0.302003 0)
(0.0267224 -0.307736 0)
(0.020943 -0.312812 0)
(0.0148842 -0.317248 0)
(0.00857973 -0.321068 0)
(0.00206113 -0.324309 0)
(-0.00464147 -0.327008 0)
(-0.0115013 -0.32921 0)
(-0.0184955 -0.330963 0)
(-0.0256043 -0.332315 0)
(-0.03281 -0.333313 0)
(-0.0400966 -0.334004 0)
(-0.04745 -0.334432 0)
(-0.0548573 -0.334638 0)
(-0.0623067 -0.33466 0)
(-0.0697872 -0.334533 0)
(-0.0772882 -0.334286 0)
(-0.0847995 -0.333946 0)
(-0.0923109 -0.333535 0)
(-0.0998121 -0.333073 0)
(-0.107293 -0.332574 0)
(-0.114741 -0.332051 0)
(-0.122147 -0.331513 0)
(-0.129496 -0.330968 0)
(-0.136777 -0.330419 0)
(-0.143975 -0.32987 0)
(-0.151076 -0.329323 0)
(-0.15806 -0.328778 0)
(-0.164892 -0.328231 0)
(-0.171531 -0.327671 0)
(-0.177998 -0.327086 0)
(-0.184412 -0.326479 0)
(-0.190688 -0.325859 0)
(-0.195066 -0.325103 0)
(-0.195037 -0.323355 0)
(-0.190122 -0.320136 0)
(-0.182974 -0.315924 0)
(-0.175411 -0.310672 0)
(-0.167592 -0.30425 0)
(-0.159404 -0.296596 0)
(-0.150828 -0.287704 0)
(-0.141899 -0.277609 0)
(-0.132669 -0.266381 0)
(-0.123192 -0.254137 0)
(-0.11353 -0.241043 0)
(-0.103798 -0.227328 0)
(-0.0942518 -0.213308 0)
(-0.0853063 -0.199392 0)
(-0.0774964 -0.186053 0)
(-0.0713982 -0.173761 0)
(-0.0674543 -0.162867 0)
(-0.0657785 -0.153457 0)
(-0.0661042 -0.145298 0)
(-0.0679105 -0.137961 0)
(-0.0706285 -0.131006 0)
(-0.0737849 -0.124113 0)
(-0.0770506 -0.1171 0)
(-0.0802319 -0.109886 0)
(-0.0832325 -0.102459 0)
(-0.086003 -0.0948392 0)
(-0.0885141 -0.0870491 0)
(-0.0907546 -0.0791111 0)
(-0.0927246 -0.0710479 0)
(-0.094431 -0.0628804 0)
(-0.0958849 -0.0546274 0)
(-0.0970993 -0.0463063 0)
(-0.0980877 -0.0379342 0)
(-0.0988624 -0.0295221 0)
(-0.099431 -0.021074 0)
(-0.0997982 -0.0126159 0)
(-0.0999863 -0.00419531 0)
(0.0999848 -0.00585224 0)
(0.0997377 -0.0175098 0)
(0.0992454 -0.0290956 0)
(0.0984899 -0.0405746 0)
(0.097479 -0.0519175 0)
(0.0962189 -0.0631013 0)
(0.0947141 -0.0741037 0)
(0.0929719 -0.0849023 0)
(0.0910055 -0.0954773 0)
(0.0888354 -0.105814 0)
(0.0864912 -0.115904 0)
(0.0840137 -0.125751 0)
(0.0814549 -0.135373 0)
(0.0788769 -0.144804 0)
(0.0763469 -0.154099 0)
(0.073929 -0.163321 0)
(0.0716712 -0.172541 0)
(0.0695923 -0.181819 0)
(0.0676715 -0.19119 0)
(0.0658465 -0.200656 0)
(0.0640219 -0.210179 0)
(0.0620849 -0.219688 0)
(0.0599239 -0.22909 0)
(0.0574429 -0.238283 0)
(0.0545714 -0.247168 0)
(0.0512665 -0.255652 0)
(0.0475105 -0.263661 0)
(0.0433061 -0.271136 0)
(0.0386705 -0.278033 0)
(0.0336302 -0.284329 0)
(0.0282165 -0.290012 0)
(0.0224631 -0.295086 0)
(0.0164034 -0.299563 0)
(0.0100699 -0.303467 0)
(0.0034935 -0.306827 0)
(-0.00329511 -0.309679 0)
(-0.0102691 -0.312062 0)
(-0.0174064 -0.314021 0)
(-0.0246866 -0.315598 0)
(-0.032092 -0.316838 0)
(-0.0396067 -0.317784 0)
(-0.0472168 -0.318476 0)
(-0.0549098 -0.318952 0)
(-0.0626744 -0.319248 0)
(-0.0705002 -0.319394 0)
(-0.0783779 -0.319419 0)
(-0.0862983 -0.319345 0)
(-0.0942528 -0.319193 0)
(-0.102233 -0.318978 0)
(-0.11023 -0.318713 0)
(-0.118234 -0.318405 0)
(-0.126237 -0.31806 0)
(-0.134228 -0.31768 0)
(-0.142195 -0.317261 0)
(-0.150126 -0.316799 0)
(-0.158004 -0.316285 0)
(-0.165807 -0.315705 0)
(-0.173485 -0.315037 0)
(-0.18099 -0.314249 0)
(-0.18837 -0.313312 0)
(-0.195745 -0.312197 0)
(-0.202844 -0.310861 0)
(-0.207025 -0.309167 0)
(-0.205665 -0.306264 0)
(-0.199563 -0.302014 0)
(-0.191852 -0.296812 0)
(-0.183654 -0.290655 0)
(-0.175015 -0.283457 0)
(-0.165901 -0.275171 0)
(-0.156354 -0.265807 0)
(-0.146433 -0.255412 0)
(-0.136212 -0.244071 0)
(-0.125768 -0.231918 0)
(-0.115193 -0.219129 0)
(-0.104663 -0.205944 0)
(-0.0945069 -0.192682 0)
(-0.0851972 -0.179738 0)
(-0.0772823 -0.167557 0)
(-0.0712808 -0.156554 0)
(-0.0675247 -0.146986 0)
(-0.066017 -0.138839 0)
(-0.0664209 -0.131823 0)
(-0.0682049 -0.125511 0)
(-0.0708303 -0.119504 0)
(-0.0738646 -0.11352 0)
(-0.0770102 -0.107401 0)
(-0.0800876 -0.101073 0)
(-0.083 -0.094515 0)
(-0.0856999 -0.0877283 0)
(-0.0881659 -0.0807307 0)
(-0.0903899 -0.0735454 0)
(-0.0923706 -0.0661963 0)
(-0.0941107 -0.0587062 0)
(-0.0956148 -0.0510952 0)
(-0.0968887 -0.043383 0)
(-0.0979389 -0.0355893 0)
(-0.0987709 -0.0277288 0)
(-0.099386 -0.0198105 0)
(-0.0997838 -0.0118657 0)
(-0.0999868 -0.00394679 0)
(0.0999821 -0.00552431 0)
(0.0997191 -0.0165279 0)
(0.0991993 -0.0274617 0)
(0.0984057 -0.0382907 0)
(0.0973483 -0.0489853 0)
(0.0960357 -0.0595229 0)
(0.0944755 -0.0698824 0)
(0.0926781 -0.0800434 0)
(0.0906598 -0.0899885 0)
(0.0884446 -0.0997053 0)
(0.0860655 -0.109188 0)
(0.0835662 -0.118442 0)
(0.0810019 -0.127484 0)
(0.0784368 -0.136347 0)
(0.0759393 -0.145079 0)
(0.0735733 -0.153741 0)
(0.0713856 -0.162397 0)
(0.0693928 -0.171104 0)
(0.0675718 -0.179897 0)
(0.0658577 -0.18878 0)
(0.0641522 -0.197721 0)
(0.0623393 -0.206656 0)
(0.0603038 -0.215504 0)
(0.0579465 -0.224171 0)
(0.0551932 -0.232566 0)
(0.0519976 -0.240606 0)
(0.0483389 -0.248219 0)
(0.0442168 -0.25535 0)
(0.0396458 -0.26196 0)
(0.0346504 -0.268022 0)
(0.0292604 -0.273526 0)
(0.0235079 -0.278471 0)
(0.0174254 -0.282869 0)
(0.0110444 -0.286737 0)
(0.00439505 -0.290103 0)
(-0.00249348 -0.292998 0)
(-0.00959503 -0.295456 0)
(-0.0168873 -0.297517 0)
(-0.0243506 -0.299221 0)
(-0.0319676 -0.300608 0)
(-0.0397229 -0.301715 0)
(-0.0476028 -0.30258 0)
(-0.0555954 -0.303237 0)
(-0.06369 -0.303717 0)
(-0.0718768 -0.304048 0)
(-0.0801469 -0.304253 0)
(-0.0884921 -0.304354 0)
(-0.0969043 -0.304367 0)
(-0.105376 -0.304303 0)
(-0.113898 -0.304171 0)
(-0.122463 -0.303974 0)
(-0.13106 -0.303715 0)
(-0.139678 -0.303388 0)
(-0.148304 -0.302986 0)
(-0.15692 -0.302499 0)
(-0.165505 -0.301911 0)
(-0.17402 -0.301198 0)
(-0.1824 -0.300332 0)
(-0.190584 -0.299271 0)
(-0.198602 -0.297978 0)
(-0.206537 -0.296399 0)
(-0.213957 -0.29442 0)
(-0.217786 -0.291902 0)
(-0.21526 -0.288144 0)
(-0.207992 -0.283279 0)
(-0.199529 -0.277483 0)
(-0.190592 -0.270777 0)
(-0.181122 -0.263131 0)
(-0.171121 -0.254541 0)
(-0.160662 -0.245042 0)
(-0.149837 -0.234701 0)
(-0.138738 -0.22362 0)
(-0.127465 -0.211942 0)
(-0.116141 -0.19985 0)
(-0.104994 -0.187584 0)
(-0.0944044 -0.175449 0)
(-0.084873 -0.163803 0)
(-0.0769398 -0.153017 0)
(-0.0710722 -0.143404 0)
(-0.0675135 -0.135102 0)
(-0.0661724 -0.128011 0)
(-0.0666536 -0.121823 0)
(-0.0684197 -0.116159 0)
(-0.0709605 -0.11069 0)
(-0.0738811 -0.105198 0)
(-0.0769153 -0.0995611 0)
(-0.0799025 -0.0937262 0)
(-0.082753 -0.087678 0)
(-0.0854184 -0.0814213 0)
(-0.0878734 -0.0749704 0)
(-0.0901054 -0.0683431 0)
(-0.0921089 -0.0615577 0)
(-0.0938822 -0.0546323 0)
(-0.0954261 -0.0475835 0)
(-0.0967427 -0.0404283 0)
(-0.097835 -0.0331849 0)
(-0.0987051 -0.0258677 0)
(-0.0993512 -0.018487 0)
(-0.0997708 -0.011075 0)
(-0.0999856 -0.00368409 0)
(0.0999824 -0.00517997 0)
(0.0997146 -0.0154985 0)
(0.0991843 -0.0257503 0)
(0.0983745 -0.0358998 0)
(0.097297 -0.0459175 0)
(0.0959622 -0.0557806 0)
(0.0943795 -0.0654685 0)
(0.0925614 -0.0749614 0)
(0.0905261 -0.0842432 0)
(0.0882989 -0.0933025 0)
(0.0859142 -0.102135 0)
(0.0834165 -0.110747 0)
(0.0808613 -0.119156 0)
(0.0783128 -0.127396 0)
(0.0758394 -0.135515 0)
(0.0735046 -0.143573 0)
(0.0713546 -0.151633 0)
(0.0694056 -0.159753 0)
(0.0676339 -0.167966 0)
(0.065974 -0.176278 0)
(0.0643267 -0.18466 0)
(0.0625751 -0.193054 0)
(0.0606025 -0.201381 0)
(0.0583079 -0.209555 0)
(0.0556151 -0.217491 0)
(0.0524755 -0.225109 0)
(0.0488658 -0.232343 0)
(0.0447832 -0.23914 0)
(0.0402396 -0.245462 0)
(0.0352572 -0.251284 0)
(0.0298636 -0.256595 0)
(0.0240889 -0.261391 0)
(0.0179641 -0.265684 0)
(0.0115192 -0.269488 0)
(0.00478331 -0.272826 0)
(-0.00221569 -0.275728 0)
(-0.00945257 -0.278223 0)
(-0.0169057 -0.280348 0)
(-0.024556 -0.282137 0)
(-0.0323866 -0.283627 0)
(-0.0403826 -0.284852 0)
(-0.0485309 -0.285844 0)
(-0.0568196 -0.286635 0)
(-0.0652383 -0.287252 0)
(-0.0737776 -0.287718 0)
(-0.0824287 -0.288054 0)
(-0.0911832 -0.288278 0)
(-0.100033 -0.288401 0)
(-0.108969 -0.288431 0)
(-0.117984 -0.288375 0)
(-0.127067 -0.288231 0)
(-0.136206 -0.287997 0)
(-0.145388 -0.287664 0)
(-0.154596 -0.287222 0)
(-0.163807 -0.286656 0)
(-0.172992 -0.285945 0)
(-0.182096 -0.285065 0)
(-0.191037 -0.283983 0)
(-0.199743 -0.282662 0)
(-0.208191 -0.28107 0)
(-0.216354 -0.279172 0)
(-0.22357 -0.276843 0)
(-0.226719 -0.273763 0)
(-0.223171 -0.269326 0)
(-0.214967 -0.263963 0)
(-0.205694 -0.257767 0)
(-0.19598 -0.250743 0)
(-0.185725 -0.242887 0)
(-0.174928 -0.234225 0)
(-0.163679 -0.224805 0)
(-0.152087 -0.214706 0)
(-0.140264 -0.204036 0)
(-0.12833 -0.192938 0)
(-0.116441 -0.181587 0)
(-0.104875 -0.170211 0)
(-0.0940539 -0.159089 0)
(-0.0844923 -0.14854 0)
(-0.076711 -0.138881 0)
(-0.0711178 -0.130357 0)
(-0.0678647 -0.123045 0)
(-0.0667713 -0.116811 0)
(-0.0673933 -0.11135 0)
(-0.0691913 -0.106317 0)
(-0.0716819 -0.101427 0)
(-0.0745042 -0.0964925 0)
(-0.0774203 -0.0914105 0)
(-0.0802889 -0.0861347 0)
(-0.0830315 -0.0806518 0)
(-0.0856053 -0.0749656 0)
(-0.0879872 -0.0690881 0)
(-0.0901645 -0.063035 0)
(-0.0921299 -0.0568231 0)
(-0.0938797 -0.0504686 0)
(-0.0954115 -0.0439873 0)
(-0.0967246 -0.0373957 0)
(-0.097819 -0.0307115 0)
(-0.098694 -0.0239494 0)
(-0.0993455 -0.0171208 0)
(-0.099769 -0.0102581 0)
(-0.0999857 -0.00341264 0)
(0.0999819 -0.00483153 0)
(0.0997095 -0.0144565 0)
(0.0991707 -0.024019 0)
(0.0983489 -0.033485 0)
(0.0972564 -0.0428259 0)
(0.0959047 -0.0520202 0)
(0.0943044 -0.0610482 0)
(0.0924691 -0.0698917 0)
(0.0904182 -0.0785357 0)
(0.0881782 -0.0869703 0)
(0.0857848 -0.0951923 0)
(0.0832836 -0.103208 0)
(0.0807308 -0.111034 0)
(0.0781915 -0.118704 0)
(0.0757343 -0.126261 0)
(0.0734228 -0.133764 0)
(0.0713026 -0.141271 0)
(0.0693892 -0.148835 0)
(0.0676574 -0.15649 0)
(0.0660406 -0.16424 0)
(0.0644382 -0.172062 0)
(0.0627317 -0.179902 0)
(0.060803 -0.187689 0)
(0.0585495 -0.195343 0)
(0.0558934 -0.202786 0)
(0.0527844 -0.209945 0)
(0.0491974 -0.216758 0)
(0.0451277 -0.223176 0)
(0.0405858 -0.229162 0)
(0.0355918 -0.234693 0)
(0.0301718 -0.239757 0)
(0.0243545 -0.244351 0)
(0.0181695 -0.248482 0)
(0.0116457 -0.252165 0)
(0.00481093 -0.255419 0)
(-0.00230775 -0.258269 0)
(-0.00968611 -0.260744 0)
(-0.0173032 -0.262874 0)
(-0.0251407 -0.26469 0)
(-0.033182 -0.266226 0)
(-0.0414128 -0.267511 0)
(-0.0498198 -0.268574 0)
(-0.0583916 -0.269442 0)
(-0.0671177 -0.270139 0)
(-0.0759882 -0.270686 0)
(-0.084994 -0.271098 0)
(-0.0941259 -0.27139 0)
(-0.103375 -0.271571 0)
(-0.112731 -0.271647 0)
(-0.122184 -0.271618 0)
(-0.131721 -0.271482 0)
(-0.141328 -0.271232 0)
(-0.150987 -0.270859 0)
(-0.160677 -0.270347 0)
(-0.17037 -0.26968 0)
(-0.180027 -0.268835 0)
(-0.189583 -0.267788 0)
(-0.198947 -0.266506 0)
(-0.208055 -0.264963 0)
(-0.216915 -0.26315 0)
(-0.225404 -0.261082 0)
(-0.232145 -0.258676 0)
(-0.233964 -0.25523 0)
(-0.22904 -0.250314 0)
(-0.220146 -0.244579 0)
(-0.210291 -0.23816 0)
(-0.199948 -0.231037 0)
(-0.189038 -0.223203 0)
(-0.177583 -0.21469 0)
(-0.165691 -0.205556 0)
(-0.153487 -0.195883 0)
(-0.141101 -0.185781 0)
(-0.128668 -0.175387 0)
(-0.116377 -0.16487 0)
(-0.104548 -0.154441 0)
(-0.0936304 -0.144356 0)
(-0.0841402 -0.134896 0)
(-0.0765696 -0.126326 0)
(-0.0712646 -0.118825 0)
(-0.0682953 -0.112413 0)
(-0.067412 -0.10692 0)
(-0.0681404 -0.102057 0)
(-0.069951 -0.0975192 0)
(-0.0723891 -0.0930702 0)
(-0.0751235 -0.0885591 0)
(-0.0779395 -0.083905 0)
(-0.0807098 -0.0790719 0)
(-0.083363 -0.0740501 0)
(-0.0858595 -0.0688432 0)
(-0.0881768 -0.0634612 0)
(-0.0903017 -0.0579172 0)
(-0.092226 -0.0522251 0)
(-0.0939445 -0.0463988 0)
(-0.0954534 -0.0404521 0)
(-0.0967503 -0.0343997 0)
(-0.0978338 -0.0282579 0)
(-0.0987018 -0.0220402 0)
(-0.099349 -0.0157579 0)
(-0.0997702 -0.00944227 0)
(-0.0999857 -0.00314143 0)
(0.0999819 -0.00447863 0)
(0.0997076 -0.0134013 0)
(0.0991649 -0.0222661 0)
(0.098337 -0.0310408 0)
(0.0972369 -0.0396981 0)
(0.0958768 -0.0482177 0)
(0.0942678 -0.0565809 0)
(0.0924243 -0.0647707 0)
(0.0903664 -0.0727734 0)
(0.0881213 -0.0805798 0)
(0.0857252 -0.0881875 0)
(0.0832242 -0.0956025 0)
(0.080675 -0.102842 0)
(0.0781428 -0.109936 0)
(0.0756961 -0.116929 0)
(0.0733984 -0.123873 0)
(0.0712952 -0.130825 0)
(0.0694011 -0.137834 0)
(0.0676906 -0.144934 0)
(0.0660962 -0.152129 0)
(0.0645166 -0.159396 0)
(0.0628322 -0.166688 0)
(0.0609238 -0.173938 0)
(0.0586878 -0.181074 0)
(0.0560452 -0.188022 0)
(0.0529441 -0.194715 0)
(0.0493581 -0.201096 0)
(0.0452811 -0.207119 0)
(0.0407218 -0.212751 0)
(0.0356991 -0.217967 0)
(0.0302377 -0.222757 0)
(0.0243651 -0.227118 0)
(0.0181096 -0.231056 0)
(0.0114989 -0.234582 0)
(0.00456023 -0.237714 0)
(-0.00268041 -0.240473 0)
(-0.0101995 -0.242886 0)
(-0.0179769 -0.244979 0)
(-0.0259945 -0.246781 0)
(-0.0342364 -0.248319 0)
(-0.042688 -0.249621 0)
(-0.0513365 -0.250713 0)
(-0.0601699 -0.251616 0)
(-0.0691775 -0.252352 0)
(-0.0783489 -0.252938 0)
(-0.0876741 -0.253388 0)
(-0.0971427 -0.253712 0)
(-0.106744 -0.253917 0)
(-0.116467 -0.254007 0)
(-0.126297 -0.253979 0)
(-0.136221 -0.25383 0)
(-0.146219 -0.253552 0)
(-0.156271 -0.253131 0)
(-0.166349 -0.252554 0)
(-0.176422 -0.251802 0)
(-0.186445 -0.250853 0)
(-0.196341 -0.249681 0)
(-0.206019 -0.248259 0)
(-0.215447 -0.246563 0)
(-0.224705 -0.2446 0)
(-0.233549 -0.242385 0)
(-0.23954 -0.239852 0)
(-0.239456 -0.236105 0)
(-0.233047 -0.230965 0)
(-0.223731 -0.225123 0)
(-0.213537 -0.218711 0)
(-0.202735 -0.211696 0)
(-0.191304 -0.204073 0)
(-0.179321 -0.195877 0)
(-0.166918 -0.18717 0)
(-0.154234 -0.178036 0)
(-0.141414 -0.168582 0)
(-0.128611 -0.158937 0)
(-0.116045 -0.149257 0)
(-0.104068 -0.13974 0)
(-0.0931522 -0.130616 0)
(-0.0838073 -0.122132 0)
(-0.0764947 -0.114507 0)
(-0.0715005 -0.107875 0)
(-0.0688215 -0.102217 0)
(-0.0681499 -0.0973536 0)
(-0.0689898 -0.0930143 0)
(-0.0708224 -0.0889319 0)
(-0.0732187 -0.0849052 0)
(-0.0758742 -0.0808088 0)
(-0.0785945 -0.0765761 0)
(-0.081266 -0.072178 0)
(-0.0838248 -0.0676066 0)
(-0.0862351 -0.0628654 0)
(-0.0884763 -0.0579632 0)
(-0.0905355 -0.0529111 0)
(-0.0924043 -0.0477215 0)
(-0.0940768 -0.0424067 0)
(-0.0955483 -0.036979 0)
(-0.0968155 -0.031452 0)
(-0.0978759 -0.0258404 0)
(-0.0987265 -0.0201571 0)
(-0.0993614 -0.0144127 0)
(-0.0997746 -0.00863678 0)
(-0.099986 -0.00287366 0)
(0.0999817 -0.00412401 0)
(0.0997061 -0.0123407 0)
(0.0991607 -0.0205045 0)
(0.0983288 -0.0285852 0)
(0.0972237 -0.0365574 0)
(0.0958578 -0.0444021 0)
(0.0942427 -0.0521021 0)
(0.0923932 -0.0596416 0)
(0.0903298 -0.0670081 0)
(0.0880803 -0.0741932 0)
(0.0856812 -0.0811951 0)
(0.0831791 -0.0880195 0)
(0.080631 -0.0946829 0)
(0.0781024 -0.101214 0)
(0.0756621 -0.107652 0)
(0.0733733 -0.114047 0)
(0.0712812 -0.120452 0)
(0.0694001 -0.126913 0)
(0.0677035 -0.133461 0)
(0.066123 -0.140099 0)
(0.0645563 -0.146809 0)
(0.0628828 -0.153546 0)
(0.0609825 -0.160251 0)
(0.0587507 -0.166855 0)
(0.0561073 -0.173293 0)
(0.0529997 -0.179502 0)
(0.0494004 -0.185431 0)
(0.045302 -0.191036 0)
(0.0407125 -0.196286 0)
(0.0356495 -0.20116 0)
(0.0301367 -0.205647 0)
(0.0242006 -0.209742 0)
(0.0178685 -0.213452 0)
(0.0111674 -0.216786 0)
(0.00412353 -0.219759 0)
(-0.00323742 -0.222391 0)
(-0.0108927 -0.224704 0)
(-0.0188226 -0.226722 0)
(-0.0270097 -0.22847 0)
(-0.0354379 -0.229973 0)
(-0.0440928 -0.231255 0)
(-0.0529613 -0.232337 0)
(-0.0620312 -0.233239 0)
(-0.0712912 -0.233979 0)
(-0.0807301 -0.234572 0)
(-0.0903368 -0.235029 0)
(-0.1001 -0.235358 0)
(-0.110006 -0.235564 0)
(-0.120043 -0.235648 0)
(-0.130193 -0.235608 0)
(-0.14044 -0.235437 0)
(-0.150762 -0.235128 0)
(-0.161132 -0.234667 0)
(-0.171521 -0.23404 0)
(-0.181892 -0.233227 0)
(-0.19219 -0.232207 0)
(-0.202335 -0.230953 0)
(-0.212225 -0.229436 0)
(-0.221874 -0.227635 0)
(-0.231373 -0.225549 0)
(-0.240338 -0.223166 0)
(-0.245378 -0.220461 0)
(-0.243537 -0.216545 0)
(-0.235994 -0.211501 0)
(-0.226347 -0.205822 0)
(-0.215874 -0.199616 0)
(-0.204682 -0.192872 0)
(-0.192819 -0.185598 0)
(-0.180405 -0.177837 0)
(-0.167591 -0.169657 0)
(-0.154533 -0.161139 0)
(-0.141385 -0.152386 0)
(-0.128314 -0.143518 0)
(-0.115568 -0.134682 0)
(-0.103529 -0.126057 0)
(-0.0926784 -0.117851 0)
(-0.0835178 -0.110277 0)
(-0.0764749 -0.103519 0)
(-0.0717795 -0.0976693 0)
(-0.0693644 -0.0926806 0)
(-0.0688768 -0.0883705 0)
(-0.0698087 -0.0844904 0)
(-0.0716555 -0.0808086 0)
(-0.0740125 -0.0771567 0)
(-0.076598 -0.0734317 0)
(-0.0792346 -0.0695801 0)
(-0.0818192 -0.0655787 0)
(-0.084294 -0.0614218 0)
(-0.0866261 -0.0571126 0)
(-0.0887963 -0.0526588 0)
(-0.0907923 -0.04807 0)
(-0.0926058 -0.0433568 0)
(-0.0942306 -0.03853 0)
(-0.0956616 -0.0336003 0)
(-0.0968952 -0.0285799 0)
(-0.0979284 -0.023482 0)
(-0.0987577 -0.0183181 0)
(-0.099377 -0.0130983 0)
(-0.0997801 -0.0078495 0)
(-0.0999864 -0.00261195 0)
(0.0999817 -0.00376807 0)
(0.0997054 -0.011276 0)
(0.0991584 -0.018736 0)
(0.0983242 -0.0261202 0)
(0.097216 -0.0334051 0)
(0.0958466 -0.0405731 0)
(0.0942276 -0.0476086 0)
(0.0923742 -0.0544969 0)
(0.0903072 -0.0612267 0)
(0.0880545 -0.0677905 0)
(0.0856531 -0.0741866 0)
(0.0831498 -0.0804207 0)
(0.0806017 -0.0865081 0)
(0.0780745 -0.0924751 0)
(0.0756372 -0.0983589 0)
(0.0733528 -0.104205 0)
(0.0712664 -0.110063 0)
(0.0693917 -0.115975 0)
(0.0677015 -0.121969 0)
(0.0661267 -0.12805 0)
(0.0645639 -0.1342 0)
(0.0628919 -0.140379 0)
(0.0609897 -0.146532 0)
(0.0587519 -0.152598 0)
(0.0560977 -0.158516 0)
(0.0529737 -0.16423 0)
(0.0493515 -0.169691 0)
(0.0452231 -0.174862 0)
(0.0405956 -0.179712 0)
(0.0354859 -0.184223 0)
(0.0299167 -0.188383 0)
(0.0239139 -0.192189 0)
(0.017504 -0.195644 0)
(0.0107133 -0.198758 0)
(0.00356743 -0.201545 0)
(-0.00390812 -0.204019 0)
(-0.011691 -0.206202 0)
(-0.0197625 -0.208115 0)
(-0.0281049 -0.209779 0)
(-0.0367022 -0.211216 0)
(-0.04554 -0.212447 0)
(-0.0546049 -0.213491 0)
(-0.0638842 -0.214365 0)
(-0.0733659 -0.215083 0)
(-0.083038 -0.215659 0)
(-0.0928882 -0.216101 0)
(-0.102904 -0.216416 0)
(-0.11307 -0.216606 0)
(-0.123371 -0.216672 0)
(-0.133789 -0.216611 0)
(-0.144304 -0.216416 0)
(-0.154889 -0.216078 0)
(-0.165515 -0.215585 0)
(-0.176146 -0.214922 0)
(-0.186737 -0.214071 0)
(-0.197232 -0.213011 0)
(-0.207527 -0.211718 0)
(-0.217534 -0.210161 0)
(-0.227241 -0.208314 0)
(-0.236811 -0.206149 0)
(-0.245711 -0.203611 0)
(-0.250047 -0.20073 0)
(-0.246886 -0.196829 0)
(-0.238398 -0.1921 0)
(-0.22833 -0.186759 0)
(-0.217512 -0.180895 0)
(-0.205963 -0.174532 0)
(-0.193732 -0.167706 0)
(-0.180969 -0.160467 0)
(-0.167835 -0.152882 0)
(-0.154494 -0.145031 0)
(-0.141105 -0.137008 0)
(-0.127848 -0.128927 0)
(-0.114997 -0.120921 0)
(-0.102957 -0.113153 0)
(-0.0922136 -0.105807 0)
(-0.0832583 -0.099071 0)
(-0.0764858 -0.0930941 0)
(-0.0720744 -0.0879391 0)
(-0.0699019 -0.0835414 0)
(-0.0695801 -0.0797232 0)
(-0.0705942 -0.0762601 0)
(-0.0724541 -0.0729519 0)
(-0.0747768 -0.0696565 0)
(-0.0773003 -0.0662889 0)
(-0.0798618 -0.0628053 0)
(-0.0823673 -0.0591872 0)
(-0.0847643 -0.0554304 0)
(-0.0870228 -0.0515377 0)
(-0.089125 -0.0475161 0)
(-0.0910594 -0.0433738 0)
(-0.0928179 -0.0391202 0)
(-0.0943942 -0.0347646 0)
(-0.0957835 -0.0303166 0)
(-0.0969818 -0.0257869 0)
(-0.0979858 -0.0211873 0)
(-0.0987921 -0.0165282 0)
(-0.0993942 -0.0118186 0)
(-0.0997862 -0.00708302 0)
(-0.0999868 -0.00235715 0)
(0.0999817 -0.0034114 0)
(0.0997048 -0.0102091 0)
(0.0991567 -0.0169636 0)
(0.0983207 -0.0236497 0)
(0.0972103 -0.0302459 0)
(0.0958381 -0.0367364 0)
(0.0942161 -0.0431068 0)
(0.0923594 -0.0493439 0)
(0.090289 -0.0554373 0)
(0.0880332 -0.0613806 0)
(0.085629 -0.067172 0)
(0.0831235 -0.0728172 0)
(0.080574 -0.07833 0)
(0.0780464 -0.0837346 0)
(0.0756097 -0.0890651 0)
(0.0733269 -0.0943633 0)
(0.0712429 -0.0996737 0)
(0.0693707 -0.105035 0)
(0.0676828 -0.110473 0)
(0.0661089 -0.115993 0)
(0.064545 -0.121578 0)
(0.0628689 -0.127192 0)
(0.0609589 -0.132786 0)
(0.0587089 -0.138304 0)
(0.0560378 -0.143691 0)
(0.0528914 -0.148897 0)
(0.0492409 -0.153877 0)
(0.0450778 -0.158597 0)
(0.0404085 -0.16303 0)
(0.0352492 -0.167158 0)
(0.0296223 -0.170971 0)
(0.0235528 -0.174465 0)
(0.017067 -0.177644 0)
(0.0101906 -0.180515 0)
(0.00294922 -0.18309 0)
(-0.00463275 -0.185382 0)
(-0.0125333 -0.18741 0)
(-0.0207332 -0.189193 0)
(-0.0292151 -0.190748 0)
(-0.0379631 -0.192095 0)
(-0.0469625 -0.193252 0)
(-0.0561994 -0.194235 0)
(-0.0656608 -0.195059 0)
(-0.0753339 -0.195737 0)
(-0.0852056 -0.196278 0)
(-0.0952626 -0.196691 0)
(-0.105491 -0.196979 0)
(-0.115873 -0.197145 0)
(-0.126394 -0.197188 0)
(-0.137031 -0.197105 0)
(-0.147761 -0.196888 0)
(-0.158556 -0.196529 0)
(-0.169383 -0.196017 0)
(-0.180202 -0.195338 0)
(-0.190964 -0.194476 0)
(-0.201599 -0.193412 0)
(-0.212 -0.192125 0)
(-0.222062 -0.190587 0)
(-0.23179 -0.188767 0)
(-0.241234 -0.186611 0)
(-0.249781 -0.184052 0)
(-0.253523 -0.181136 0)
(-0.249599 -0.177342 0)
(-0.240458 -0.172945 0)
(-0.229914 -0.167993 0)
(-0.218715 -0.162538 0)
(-0.206815 -0.156634 0)
(-0.194265 -0.150329 0)
(-0.181211 -0.143675 0)
(-0.16782 -0.136736 0)
(-0.154257 -0.129588 0)
(-0.140687 -0.122317 0)
(-0.127303 -0.115026 0)
(-0.114398 -0.107838 0)
(-0.102393 -0.100899 0)
(-0.0917788 -0.0943718 0)
(-0.0830323 -0.0884182 0)
(-0.0765173 -0.0831607 0)
(-0.0723652 -0.0786381 0)
(-0.0704076 -0.0747756 0)
(-0.070229 -0.0714048 0)
(-0.0713123 -0.0683261 0)
(-0.0731817 -0.0653676 0)
(-0.0754737 -0.0624102 0)
(-0.077943 -0.0593839 0)
(-0.080439 -0.0562531 0)
(-0.0828753 -0.053003 0)
(-0.0852036 -0.0496306 0)
(-0.0873964 -0.0461386 0)
(-0.0894371 -0.0425331 0)
(-0.091315 -0.0388213 0)
(-0.0930224 -0.0350112 0)
(-0.0945533 -0.031111 0)
(-0.0959027 -0.0271289 0)
(-0.0970668 -0.0230745 0)
(-0.0980424 -0.0189583 0)
(-0.098826 -0.014789 0)
(-0.0994113 -0.0105751 0)
(-0.0997922 -0.00633818 0)
(-0.0999871 -0.00210953 0)
(0.0999817 -0.00305415 0)
(0.0997044 -0.00914019 0)
(0.0991554 -0.0151879 0)
(0.098318 -0.0211745 0)
(0.0972057 -0.0270808 0)
(0.0958312 -0.0328925 0)
(0.0942065 -0.0385967 0)
(0.0923468 -0.0441816 0)
(0.0902734 -0.0496379 0)
(0.0880144 -0.0549598 0)
(0.0856071 -0.060146 0)
(0.0830988 -0.0652014 0)
(0.0805469 -0.0701389 0)
(0.0780176 -0.0749802 0)
(0.0755797 -0.0797561 0)
(0.0732964 -0.0845045 0)
(0.0712122 -0.0892653 0)
(0.0693398 -0.0940739 0)
(0.067651 -0.0989529 0)
(0.0660747 -0.103907 0)
(0.064506 -0.108922 0)
(0.0628221 -0.113965 0)
(0.0609006 -0.118992 0)
(0.0586349 -0.123954 0)
(0.0559434 -0.128801 0)
(0.0527717 -0.133487 0)
(0.0490905 -0.137974 0)
(0.0448908 -0.14223 0)
(0.0401788 -0.146231 0)
(0.0349702 -0.149961 0)
(0.029287 -0.15341 0)
(0.0231539 -0.156576 0)
(0.0165965 -0.159459 0)
(0.00964062 -0.162068 0)
(0.00231135 -0.164412 0)
(-0.00536714 -0.166503 0)
(-0.0133731 -0.168356 0)
(-0.0216873 -0.169988 0)
(-0.0302924 -0.171415 0)
(-0.0391724 -0.172653 0)
(-0.0483122 -0.173718 0)
(-0.0576977 -0.174624 0)
(-0.0673151 -0.175384 0)
(-0.0771511 -0.176007 0)
(-0.0871917 -0.176502 0)
(-0.0974225 -0.176876 0)
(-0.107828 -0.177131 0)
(-0.11839 -0.177269 0)
(-0.129091 -0.177288 0)
(-0.139906 -0.177184 0)
(-0.150811 -0.176952 0)
(-0.161776 -0.176581 0)
(-0.172762 -0.176063 0)
(-0.183729 -0.175384 0)
(-0.19462 -0.17453 0)
(-0.205357 -0.173483 0)
(-0.215823 -0.172225 0)
(-0.225913 -0.170734 0)
(-0.235604 -0.16899 0)
(-0.244894 -0.166959 0)
(-0.253012 -0.164609 0)
(-0.256207 -0.161887 0)
(-0.251667 -0.158252 0)
(-0.241991 -0.154124 0)
(-0.231036 -0.149542 0)
(-0.219496 -0.144532 0)
(-0.207299 -0.139138 0)
(-0.194487 -0.133402 0)
(-0.181203 -0.127376 0)
(-0.167614 -0.121116 0)
(-0.153887 -0.114693 0)
(-0.140188 -0.108185 0)
(-0.12672 -0.101683 0)
(-0.113798 -0.0952978 0)
(-0.101854 -0.0891602 0)
(-0.0913779 -0.083413 0)
(-0.0828345 -0.078194 0)
(-0.0765581 -0.0736028 0)
(-0.072639 -0.0696605 0)
(-0.0708702 -0.0662885 0)
(-0.0708151 -0.0633317 0)
(-0.0719572 -0.0606149 0)
(-0.0738341 -0.0579914 0)
(-0.0760991 -0.0553617 0)
(-0.0785214 -0.0526682 0)
(-0.0809604 -0.0498819 0)
(-0.0833362 -0.046991 0)
(-0.0856041 -0.0439934 0)
(-0.0877386 -0.0408916 0)
(-0.0897244 -0.0376908 0)
(-0.0915514 -0.0343973 0)
(-0.0932124 -0.0310181 0)
(-0.0947015 -0.0275601 0)
(-0.0960142 -0.0240308 0)
(-0.0971466 -0.0204382 0)