/*--------------------------------*- C++ -*----------------------------------*\
  =========                 |
  \\      /  F ield         | OpenFOAM: The Open Source CFD Toolbox
   \\    /   O peration     | Website:  https://openfoam.org
    \\  /    A nd           | Version:  8
     \\/     M anipulation  |
\*---------------------------------------------------------------------------*/
FoamFile
{
    version     2.0;
    format      ascii;
    class       volScalarField;
    location    "0.1/fluid";
    object      CH4;
}
// * * * * * * * * * * * * * * * * * * * * * * * * * * * * * * * * * * * * * //

dimensions      [0 0 0 0 0 0 0];

internalField   nonuniform List<scalar> 
4000
(
0.999986
0.999939
0.999865
0.99975
0.999575
0.999311
0.998919
0.998343
0.997505
0.9963
0.994584
0.992173
0.988837
0.984293
0.978221
0.970278
0.960124
0.947464
0.932082
0.913872
0.892852
0.869158
0.843024
0.814752
0.784692
0.75321
0.720672
0.68743
0.653815
0.620122
0.586619
0.553536
0.521068
0.489386
0.458615
0.42886
0.400197
0.372682
0.346354
0.321236
0.297325
0.274617
0.253094
0.232731
0.213498
0.195357
0.17827
0.162194
0.147086
0.132899
0.11959
0.107115
0.0954296
0.0844923
0.0742632
0.0647048
0.0557832
0.0474687
0.0397378
0.0325755
0.0260277
0.020143
0.0148623
0.0101653
0.00634516
0.00369141
0.00211372
0.00118399
0.000645297
0.000340409
0.000172852
8.39623e-05
3.87757e-05
1.69185e-05
6.95724e-06
2.78592e-06
1.33485e-06
9.08543e-07
7.12979e-07
5.62402e-07
4.26418e-07
2.97744e-07
1.95666e-07
1.1981e-07
6.8268e-08
3.64318e-08
1.83939e-08
8.94656e-09
4.23503e-09
1.96211e-09
8.93309e-10
4.00823e-10
1.77595e-10
7.77795e-11
3.36536e-11
1.4336e-11
5.95085e-12
2.33942e-12
7.95992e-13
1.40662e-13
0.999986
0.999939
0.999865
0.99975
0.999574
0.999309
0.998914
0.998333
0.997487
0.996269
0.994537
0.992106
0.988745
0.984174
0.978075
0.97011
0.959946
0.947292
0.931936
0.913773
0.892814
0.869185
0.843114
0.814902
0.784898
0.753463
0.720958
0.687736
0.654124
0.620422
0.586896
0.55378
0.521274
0.489537
0.458709
0.428896
0.400175
0.372607
0.346221
0.321038
0.29707
0.274311
0.252743
0.232342
0.213075
0.194907
0.177796
0.161701
0.146577
0.132379
0.119062
0.106582
0.094894
0.0839567
0.0737299
0.0641758
0.0552606
0.0469545
0.0392343
0.0320855
0.0255721
0.0197097
0.0144545
0.00980238
0.00605531
0.00351637
0.00200838
0.00112134
0.000608691
0.000319521
0.000161274
7.7764e-05
3.56027e-05
1.53778e-05
6.26397e-06
2.52485e-06
1.29108e-06
9.06673e-07
7.08266e-07
5.55885e-07
4.05684e-07
2.80956e-07
1.82087e-07
1.09945e-07
6.20028e-08
3.29262e-08
1.66312e-08
8.1143e-09
3.86008e-09
1.79878e-09
8.23831e-10
3.7174e-10
1.65554e-10
7.28353e-11
3.16406e-11
1.35263e-11
5.63233e-12
2.22021e-12
7.56923e-13
1.33893e-13
0.999986
0.999939
0.999865
0.999748
0.999571
0.999303
0.998905
0.998319
0.997465
0.996234
0.994483
0.992026
0.988631
0.984019
0.977875
0.969866
0.959664
0.946985
0.931622
0.913474
0.892553
0.868985
0.842991
0.814861
0.784924
0.753548
0.72109
0.687898
0.6543
0.620593
0.587047
0.553895
0.521339
0.489549
0.458663
0.42878
0.39998
0.37232
0.34585
0.320592
0.296554
0.27373
0.252102
0.231648
0.212334
0.194124
0.176979
0.160856
0.145709
0.131494
0.118164
0.105676
0.0939844
0.0830475
0.0728247
0.0632785
0.0543748
0.0460845
0.0383852
0.0312643
0.0248255
0.0190207
0.0137298
0.00918237
0.00557174
0.00322907
0.00183808
0.00102152
0.000551246
0.000287266
0.000143715
6.8559e-05
3.10026e-05
1.32064e-05
5.3198e-06
2.18415e-06
1.21026e-06
8.8424e-07
6.89629e-07
5.36657e-07
3.87774e-07
2.63997e-07
1.68774e-07
1.00936e-07
5.66265e-08
3.00316e-08
1.51934e-08
7.42948e-09
3.54454e-09
1.65683e-09
7.61071e-10
3.44342e-10
1.53707e-10
6.77552e-11
2.9482e-11
1.26212e-11
5.26196e-12
2.07661e-12
7.08526e-13
1.25381e-13
0.999986
0.999939
0.999864
0.999748
0.999569
0.9993
0.998899
0.998308
0.997447
0.996207
0.994442
0.991966
0.98855
0.983914
0.977744
0.969708
0.959481
0.946782
0.931408
0.913257
0.892344
0.868794
0.842826
0.814729
0.784835
0.75349
0.721052
0.68787
0.654269
0.620547
0.586973
0.55378
0.521171
0.489312
0.458339
0.428372
0.399491
0.371758
0.345214
0.319885
0.295778
0.272889
0.251203
0.230695
0.211333
0.193083
0.175903
0.159751
0.144581
0.130349
0.117009
0.104515
0.0928224
0.0818895
0.0716754
0.0621423
0.0532563
0.0449885
0.0373169
0.030229
0.023887
0.0181544
0.0129224
0.00847761
0.00502432
0.00290616
0.00164801
0.00091094
0.00048815
0.000252198
0.000124857
5.88404e-05
2.6235e-05
1.10076e-05
4.39628e-06
1.87735e-06
1.12533e-06
8.46609e-07
6.59163e-07
5.07995e-07
3.61172e-07
2.42834e-07
1.53322e-07
9.07153e-08
5.0501e-08
2.66678e-08
1.34748e-08
6.59425e-09
3.15253e-09
1.4778e-09
6.81091e-10
3.09257e-10
1.3855e-10
6.12925e-11
2.67608e-11
1.14924e-11
4.80533e-12
1.9009e-12
6.49608e-13
1.1504e-13
0.999986
0.999939
0.999864
0.999747
0.999568
0.999298
0.998894
0.9983
0.997433
0.996186
0.994412
0.991923
0.988487
0.983826
0.977628
0.969561
0.959302
0.946573
0.931171
0.913
0.892072
0.868515
0.842543
0.814444
0.784547
0.753201
0.72076
0.687568
0.653948
0.620197
0.586584
0.553344
0.52068
0.488764
0.457735
0.427705
0.398758
0.370957
0.344346
0.318952
0.294784
0.271838
0.250099
0.229543
0.21014
0.191854
0.174645
0.158469
0.143282
0.129039
0.115692
0.103198
0.0915109
0.0805882
0.0703895
0.0608773
0.0520181
0.0437844
0.0361563
0.0291258
0.0228634
0.0171973
0.0120685
0.00777196
0.00454159
0.0026149
0.00147405
0.000808887
0.000429741
0.000219785
0.000107525
4.99975e-05
2.19575e-05
9.07311e-06
3.61195e-06
1.64468e-06
1.05862e-06
8.08657e-07
6.28235e-07
4.78784e-07
3.35758e-07
2.22864e-07
1.39112e-07
8.15571e-08
4.51245e-08
2.3754e-08
1.19941e-08
5.87372e-09
2.8124e-09
1.32101e-09
6.10202e-10
2.77723e-10
1.24719e-10
5.53036e-11
2.42014e-11
1.0416e-11
4.36448e-12
1.72937e-12
5.91644e-13
1.04827e-13
0.999986
0.999939
0.999864
0.999747
0.999567
0.999296
0.998892
0.998295
0.997425
0.996171
0.994388
0.991887
0.988436
0.983756
0.977534
0.969438
0.959147
0.946383
0.930947
0.912741
0.891782
0.868195
0.842198
0.814074
0.784153
0.752782
0.720315
0.687092
0.653438
0.619647
0.58599
0.552701
0.519984
0.488011
0.456923
0.426833
0.397826
0.369965
0.343296
0.317846
0.293626
0.270631
0.248849
0.228254
0.208819
0.190505
0.173274
0.157083
0.141887
0.127639
0.114294
0.101806
0.0901303
0.0792242
0.0690471
0.0595613
0.0507338
0.0425372
0.0349526
0.0280032
0.0218058
0.0162329
0.0112231
0.00709755
0.00412564
0.00236101
0.00132144
0.00071919
0.000378493
0.000191492
9.25224e-05
4.24319e-05
1.83526e-05
7.47527e-06
2.98581e-06
1.46722e-06
1.00167e-06
7.72255e-07
6.00016e-07
4.49842e-07
3.11231e-07
2.04211e-07
1.26099e-07
7.32504e-08
4.02576e-08
2.11069e-08
1.06393e-08
5.21038e-09
2.49743e-09
1.17512e-09
5.44013e-10
2.48211e-10
1.11757e-10
4.96875e-11
2.18003e-11
9.40681e-12
3.95054e-12
1.56813e-12
5.37103e-13
9.52108e-14
0.999986
0.999939
0.999864
0.999747
0.999567
0.999295
0.99889
0.998291
0.997418
0.996159
0.994368
0.991857
0.988391
0.983692
0.977446
0.96932
0.958994
0.946191
0.930714
0.912465
0.891463
0.867834
0.841796
0.813633
0.783672
0.752262
0.719753
0.686488
0.652788
0.618951
0.585244
0.551903
0.519132
0.487104
0.455961
0.425816
0.396754
0.36884
0.342121
0.316625
0.292361
0.269328
0.247511
0.226888
0.207429
0.189097
0.171853
0.155655
0.140456
0.126212
0.112875
0.100401
0.088743
0.0778595
0.0677093
0.0582551
0.049464
0.041309
0.0337722
0.0269174
0.0207876
0.0152952
0.0104037
0.00645083
0.00373578
0.0021269
0.00118281
0.000638845
0.00033323
0.000166862
7.96653e-05
3.60565e-05
1.53723e-05
6.18771e-06
2.50888e-06
1.34305e-06
9.56698e-07
7.40057e-07
5.76867e-07
4.1915e-07
2.88443e-07
1.87532e-07
1.14675e-07
6.6067e-08
3.60981e-08
1.88604e-08
9.49228e-09
4.64825e-09
2.22967e-09
1.05053e-09
4.87176e-10
2.22723e-10
1.00498e-10
4.47819e-11
1.96922e-11
8.51656e-12
3.58375e-12
1.42473e-12
4.88476e-13
8.66277e-14
0.999986
0.999939
0.999864
0.999747
0.999567
0.999295
0.998888
0.998288
0.997412
0.996149
0.994352
0.991831
0.988352
0.983634
0.977363
0.969207
0.958845
0.946
0.930476
0.912178
0.891126
0.867445
0.841355
0.813141
0.783129
0.751669
0.71911
0.685794
0.652042
0.618153
0.584393
0.550999
0.518176
0.486096
0.454901
0.424706
0.395596
0.367637
0.340876
0.315342
0.291044
0.267981
0.246139
0.225496
0.206022
0.18768
0.170432
0.154234
0.139041
0.124806
0.111484
0.0990286
0.0873943
0.0765383
0.0664199
0.057002
0.0482523
0.0401454
0.0326657
0.0259284
0.0198901
0.0143586
0.00961069
0.00583789
0.00337246
0.00191234
0.00105779
0.00056754
0.000293687
0.000145682
6.8811e-05
3.07669e-05
1.29468e-05
5.16497e-06
2.14468e-06
1.2271e-06
9.04243e-07
7.02074e-07
5.4514e-07
3.9199e-07
2.67762e-07
1.72531e-07
1.04591e-07
5.98321e-08
3.25286e-08
1.69439e-08
8.51553e-09
4.16942e-09
2.00123e-09
9.43999e-10
4.38457e-10
2.00819e-10
9.07986e-11
4.05466e-11
1.78687e-11
7.74473e-12
3.26507e-12
1.29993e-12
4.46107e-13
7.91449e-14
0.999986
0.999939
0.999864
0.999747
0.999567
0.999294
0.998887
0.998285
0.997407
0.99614
0.994336
0.991806
0.988314
0.983578
0.977282
0.969096
0.958696
0.945808
0.930235
0.911884
0.890775
0.867038
0.84089
0.812617
0.782549
0.751031
0.718416
0.685045
0.651239
0.617295
0.583482
0.550036
0.517162
0.485033
0.453792
0.423552
0.3944
0.366403
0.339608
0.314043
0.289719
0.266635
0.244776
0.224121
0.20464
0.186296
0.16905
0.152859
0.137677
0.123458
0.110155
0.0977226
0.0861152
0.0752895
0.0652049
0.055824
0.0471149
0.0390521
0.0316204
0.0249921
0.0190148
0.013559
0.00892144
0.00530532
0.00305789
0.00172763
0.000950971
0.000507137
0.00026052
0.000128113
5.99207e-05
2.64947e-05
1.10204e-05
4.37374e-06
1.88284e-06
1.14236e-06
8.59266e-07
6.68012e-07
5.16451e-07
3.68315e-07
2.49346e-07
1.59266e-07
9.58172e-08
5.44925e-08
2.95071e-08
1.53336e-08
7.698e-09
3.76914e-09
1.81017e-09
8.54763e-10
3.97556e-10
1.82383e-10
8.26121e-11
3.69619e-11
1.63223e-11
7.08825e-12
2.99337e-12
1.19333e-12
4.09876e-13
7.27429e-14
0.999986
0.999939
0.999864
0.999746
0.999566
0.999293
0.998885
0.998282
0.997402
0.996131
0.994321
0.991782
0.988277
0.983523
0.977204
0.968986
0.958549
0.945617
0.929993
0.911587
0.89042
0.866622
0.840413
0.81208
0.78195
0.750373
0.7177
0.684271
0.650409
0.616412
0.582547
0.549051
0.51613
0.483956
0.452673
0.422394
0.393207
0.365178
0.338356
0.312768
0.288425
0.265327
0.243458
0.222798
0.203315
0.184975
0.167737
0.151557
0.13639
0.122191
0.108911
0.0965048
0.0849267
0.0741334
0.0640841
0.0547418
0.046075
0.0380591
0.0306804
0.0241377
0.0182338
0.0128599
0.00833426
0.00487719
0.00280427
0.00157852
0.000864759
0.000458485
0.000233904
0.000114091
5.28768e-05
2.31415e-05
9.52799e-06
3.77723e-06
1.70498e-06
1.08413e-06
8.23742e-07
6.3984e-07
4.91782e-07
3.47626e-07
2.33269e-07
1.47808e-07
8.83293e-08
4.99785e-08
2.69699e-08
1.39872e-08
7.01604e-09
3.43553e-09
1.65093e-09
7.8033e-10
3.63398e-10
1.66962e-10
7.57525e-11
3.39527e-11
1.50218e-11
6.5351e-12
2.76406e-12
1.10326e-12
3.79235e-13
6.73268e-14
0.999986
0.999939
0.999864
0.999746
0.999566
0.999293
0.998884
0.99828
0.997396
0.996122
0.994307
0.991759
0.988241
0.983469
0.977127
0.968879
0.958405
0.945429
0.929755
0.911294
0.890069
0.866209
0.839939
0.811543
0.781353
0.749716
0.716984
0.683499
0.649583
0.615534
0.58162
0.548078
0.515113
0.482899
0.451579
0.421267
0.39205
0.363996
0.337152
0.311547
0.287192
0.264084
0.242212
0.221551
0.202072
0.18374
0.166513
0.150349
0.135201
0.121023
0.107768
0.0953891
0.0838413
0.0730809
0.0630672
0.0537637
0.0451393
0.037171
0.0298508
0.0233733
0.0175439
0.0122556
0.0078482
0.00456352
0.00261389
0.00146473
0.000798251
0.00042071
0.000213178
0.000103173
4.74078e-05
2.05518e-05
8.38465e-06
3.32509e-06
1.56635e-06
1.03693e-06
7.93834e-07
6.16804e-07
4.71268e-07
3.29987e-07
2.19601e-07
1.38158e-07
8.20666e-08
4.62205e-08
2.48642e-08
1.2872e-08
6.45173e-09
3.15952e-09
1.51914e-09
7.1868e-10
3.35074e-10
1.54158e-10
7.00485e-11
3.14466e-11
1.39368e-11
6.07287e-12
2.57218e-12
1.0278e-12
3.53548e-13
6.27851e-14
0.999986
0.999939
0.999864
0.999746
0.999566
0.999292
0.998882
0.998277
0.997391
0.996113
0.994293
0.991737
0.988206
0.983418
0.977053
0.968777
0.958267
0.945248
0.929526
0.911011
0.889728
0.865809
0.839478
0.811022
0.780772
0.749077
0.716289
0.682751
0.648784
0.614686
0.580726
0.547142
0.514138
0.481888
0.450537
0.420196
0.390955
0.362881
0.336021
0.310404
0.286041
0.26293
0.241057
0.2204
0.200929
0.182607
0.165394
0.149247
0.134119
0.119964
0.106734
0.0943833
0.082865
0.0721362
0.0621562
0.0528885
0.0443022
0.036375
0.0291215
0.0226971
0.0169302
0.0117271
0.00743309
0.00431109
0.0024612
0.00137369
0.000745162
0.000390636
0.000196732
9.45461e-05
4.31104e-05
1.8532e-05
7.50405e-06
2.98997e-06
1.47783e-06
1.00641e-06
7.72576e-07
5.99417e-07
4.53543e-07
3.14803e-07
2.08125e-07
1.30153e-07
7.68941e-08
4.31233e-08
2.31312e-08
1.19547e-08
5.9876e-09
2.9324e-09
1.41062e-09
6.67872e-10
3.11707e-10
1.43582e-10
6.53316e-11
2.93716e-11
1.30372e-11
5.6891e-12
2.41268e-12
9.65025e-13
3.32168e-13
5.90042e-14
0.999986
0.999939
0.999864
0.999746
0.999565
0.999291
0.998881
0.998274
0.997387
0.996105
0.994279
0.991715
0.988174
0.98337
0.976984
0.96868
0.958136
0.945077
0.929309
0.910743
0.889406
0.865431
0.839042
0.81053
0.780223
0.748474
0.715634
0.682045
0.648031
0.613889
0.579888
0.546265
0.513227
0.480947
0.449568
0.419205
0.389945
0.361855
0.334983
0.309358
0.28499
0.261879
0.240009
0.219358
0.199897
0.181587
0.16439
0.148261
0.133154
0.119021
0.105816
0.0934914
0.0820014
0.0713023
0.0613535
0.0521187
0.0435674
0.0356777
0.0284873
0.02211
0.0164011
0.0112714
0.00707664
0.00409691
0.00233286
0.00129781
0.00070126
0.00036595
0.000183332
8.7572e-05
3.96646e-05
1.69274e-05
6.81417e-06
2.73801e-06
1.42143e-06
9.87876e-07
7.5813e-07
5.87324e-07
4.39516e-07
3.02678e-07
1.98918e-07
1.23665e-07
7.26791e-08
4.05963e-08
2.1717e-08
1.1206e-08
5.60859e-09
2.74678e-09
1.32185e-09
6.26268e-10
2.92554e-10
1.34904e-10
6.1457e-11
2.76654e-11
1.22966e-11
5.37276e-12
2.28108e-12
9.13192e-13
3.14507e-13
5.58804e-14
0.999986
0.999939
0.999864
0.999746
0.999565
0.99929
0.99888
0.998271
0.997382
0.996097
0.994267
0.991695
0.988143
0.983325
0.976919
0.96859
0.958015
0.944919
0.929109
0.910496
0.889109
0.865082
0.838641
0.810076
0.779718
0.747919
0.715031
0.681397
0.647341
0.613159
0.579122
0.545467
0.512399
0.480093
0.448692
0.418309
0.389033
0.360932
0.334052
0.308422
0.284053
0.260943
0.239078
0.218436
0.198984
0.180689
0.163507
0.147396
0.132308
0.118197
0.105016
0.0927158
0.0812519
0.0705803
0.0606602
0.0514554
0.0429356
0.0350795
0.0279463
0.0216098
0.0159491
0.0108815
0.00677181
0.00391442
0.00222406
0.00123388
0.00066452
0.000345439
0.000172279
8.18752e-05
3.68729e-05
1.56388e-05
6.26467e-06
2.53539e-06
1.35873e-06
9.65285e-07
7.44633e-07
5.80948e-07
4.21751e-07
2.91922e-07
1.91373e-07
1.18402e-07
6.92634e-08
3.85499e-08
2.05722e-08
1.06e-08
5.30166e-09
2.59633e-09
1.24983e-09
5.92483e-10
2.76985e-10
1.27843e-10
5.83011e-11
2.62745e-11
1.16921e-11
5.11434e-12
2.17349e-12
8.7079e-13
3.00054e-13
5.33237e-14
0.999986
0.999939
0.999864
0.999746
0.999565
0.99929
0.998878
0.998269
0.997378
0.99609
0.994255
0.991677
0.988116
0.983285
0.976862
0.96851
0.957907
0.944778
0.92893
0.910275
0.888843
0.86477
0.838282
0.80967
0.779267
0.747424
0.714494
0.680821
0.646727
0.612511
0.578443
0.54476
0.511667
0.47934
0.44792
0.417522
0.388235
0.360124
0.333239
0.307606
0.283238
0.260131
0.238272
0.217638
0.198198
0.179915
0.162748
0.146654
0.131585
0.117494
0.104334
0.0920568
0.0806168
0.0699702
0.0600764
0.0508991
0.0424084
0.0345831
0.0275013
0.0211978
0.0155651
0.0105474
0.00651057
0.0037583
0.00213139
0.00117973
0.000633611
0.000328312
0.000163122
7.71975e-05
3.46009e-05
1.46003e-05
5.82777e-06
2.38003e-06
1.30865e-06
9.44006e-07
7.30195e-07
5.69353e-07
4.11868e-07
2.84018e-07
1.85365e-07
1.14163e-07
6.65194e-08
3.69104e-08
1.96564e-08
1.01153e-08
5.05608e-09
2.47586e-09
1.19211e-09
5.65382e-10
2.64485e-10
1.22168e-10
5.57624e-11
2.51548e-11
1.1205e-11
4.90592e-12
2.08666e-12
8.36554e-13
2.88382e-13
5.12587e-14
0.999986
0.999939
0.999863
0.999746
0.999564
0.999289
0.998877
0.998267
0.997374
0.996084
0.994245
0.991662
0.988092
0.98325
0.976812
0.968441
0.957814
0.944656
0.928775
0.910085
0.888614
0.864501
0.837973
0.809321
0.778879
0.746998
0.714033
0.680325
0.646201
0.611956
0.577862
0.544156
0.511043
0.478698
0.447263
0.416854
0.387557
0.35944
0.332552
0.306918
0.282551
0.259449
0.237596
0.21697
0.19754
0.179269
0.162116
0.146037
0.130985
0.116912
0.103771
0.0915135
0.0800948
0.0694706
0.0596006
0.0504491
0.041987
0.0341949
0.0271706
0.0209198
0.0151792
0.0102378
0.00627899
0.00362283
0.00205233
0.00113418
0.000607906
0.000314211
0.000155654
7.34153e-05
3.27793e-05
1.37744e-05
5.4826e-06
2.25594e-06
1.26807e-06
9.25498e-07
7.17425e-07
5.59178e-07
4.03679e-07
2.7756e-07
1.80519e-07
1.10785e-07
6.43491e-08
3.56192e-08
1.89365e-08
9.73451e-09
4.86315e-09
2.38116e-09
1.1467e-09
5.44043e-10
2.54634e-10
1.17693e-10
5.37584e-11
2.42705e-11
1.082e-11
4.74106e-12
2.01794e-12
8.09448e-13
2.79138e-13
4.96232e-14
0.999986
0.999939
0.999863
0.999745
0.999564
0.999289
0.998876
0.998265
0.997371
0.996079
0.994237
0.991649
0.988073
0.983221
0.97677
0.968384
0.957737
0.944556
0.928648
0.909928
0.888426
0.86428
0.837719
0.809035
0.77856
0.746649
0.713654
0.67992
0.64577
0.611503
0.577388
0.543663
0.510534
0.478176
0.44673
0.416312
0.387008
0.358887
0.331996
0.306363
0.281998
0.258899
0.237052
0.216434
0.197013
0.178752
0.161611
0.145545
0.130507
0.116449
0.103323
0.0910831
0.0796819
0.069076
0.059225
0.0500931
0.0416512
0.0338794
0.0268882
0.0206542
0.0149251
0.0100149
0.0061047
0.00351942
0.00199144
0.00109893
0.000587984
0.000303288
0.000149879
7.05002e-05
3.13812e-05
1.31441e-05
5.22165e-06
2.16515e-06
1.2378e-06
9.10673e-07
7.06959e-07
5.50868e-07
3.97096e-07
2.72452e-07
1.76738e-07
1.08174e-07
6.26832e-08
3.46318e-08
1.83869e-08
9.444e-09
4.71595e-09
2.30887e-09
1.11201e-09
5.27733e-10
2.471e-10
1.14267e-10
5.22237e-11
2.35928e-11
1.05248e-11
4.61459e-12
1.9652e-12
7.8864e-13
2.72041e-13
4.83675e-14
0.999986
0.999939
0.999863
0.999745
0.999564
0.999288
0.998875
0.998263
0.997368
0.996075
0.99423
0.991639
0.988058
0.983199
0.976739
0.96834
0.957678
0.944479
0.92855
0.909808
0.888282
0.864112
0.837525
0.808815
0.778317
0.746382
0.713366
0.679611
0.645442
0.611157
0.577027
0.543288
0.510148
0.477779
0.446325
0.4159
0.386593
0.358469
0.331577
0.305944
0.281581
0.258486
0.236643
0.216031
0.196617
0.178365
0.161233
0.145177
0.130149
0.116103
0.10299
0.0907624
0.0793744
0.068782
0.0589446
0.0498265
0.0413983
0.0336402
0.0266739
0.0204543
0.014742
0.00985566
0.00598013
0.00344534
0.00194772
0.00107356
0.000573623
0.000295407
0.000145714
6.83998e-05
3.03758e-05
1.26925e-05
5.0366e-06
2.10372e-06
1.21723e-06
8.99993e-07
6.99147e-07
5.44581e-07
3.92112e-07
2.68608e-07
1.73921e-07
1.0625e-07
6.14648e-08
3.39132e-08
1.79879e-08
9.2332e-09
4.60912e-09
2.2564e-09
1.08683e-09
5.15885e-10
2.41625e-10
1.11778e-10
5.1108e-11
2.31e-11
1.03101e-11
4.5226e-12
1.92683e-12
7.73503e-13
2.66879e-13
4.74541e-14
0.999986
0.999939
0.999863
0.999745
0.999563
0.999288
0.998875
0.998263
0.997367
0.996072
0.994226
0.991632
0.988048
0.983184
0.976718
0.968311
0.957639
0.944427
0.928485
0.909727
0.888185
0.863998
0.837394
0.808668
0.778153
0.746203
0.713172
0.679403
0.645221
0.610925
0.576784
0.543037
0.509888
0.477513
0.446054
0.415625
0.386314
0.358189
0.331296
0.305664
0.281303
0.25821
0.236371
0.215762
0.196354
0.178107
0.160981
0.144932
0.129912
0.115874
0.102769
0.0905498
0.0791704
0.0685868
0.0587583
0.049649
0.0412296
0.0334805
0.0265311
0.0203218
0.0146218
0.0097518
0.0058992
0.00339728
0.00191938
0.00105713
0.00056433
0.000290312
0.000143024
6.70444e-05
2.97281e-05
1.24024e-05
4.91885e-06
2.06658e-06
1.20483e-06
8.93284e-07
6.9409e-07
5.4046e-07
3.88843e-07
2.66102e-07
1.72094e-07
1.05003e-07
6.06734e-08
3.34446e-08
1.77269e-08
9.09513e-09
4.53911e-09
2.22201e-09
1.07033e-09
5.08128e-10
2.38042e-10
1.10149e-10
5.03786e-11
2.2778e-11
1.01698e-11
4.46253e-12
1.90179e-12
7.63626e-13
2.63511e-13
4.68583e-14
0.999986
0.999939
0.999863
0.999745
0.999563
0.999288
0.998874
0.998262
0.997366
0.996071
0.994224
0.991629
0.988043
0.983177
0.976708
0.968297
0.95762
0.944402
0.928453
0.909688
0.888138
0.863943
0.837331
0.808596
0.778074
0.746115
0.713076
0.679301
0.645113
0.610811
0.576665
0.542913
0.50976
0.477382
0.44592
0.415489
0.386177
0.358051
0.331158
0.305526
0.281165
0.258073
0.236236
0.21563
0.196224
0.17798
0.160857
0.144812
0.129795
0.115761
0.10266
0.0904449
0.0790697
0.0684904
0.0586662
0.0495611
0.041146
0.0334014
0.0264605
0.0202563
0.0145626
0.00970081
0.00585955
0.00337376
0.00190553
0.00104912
0.0005598
0.000287831
0.000141715
6.63865e-05
2.94142e-05
1.2262e-05
4.86171e-06
2.04755e-06
1.19862e-06
8.90006e-07
6.91648e-07
5.38477e-07
3.87281e-07
2.64914e-07
1.71234e-07
1.04419e-07
6.03016e-08
3.32226e-08
1.76024e-08
9.02895e-09
4.5055e-09
2.2055e-09
1.06241e-09
5.04406e-10
2.36323e-10
1.09367e-10
5.0028e-11
2.2623e-11
1.01022e-11
4.43352e-12
1.88967e-12
7.58836e-13
2.61875e-13
4.65686e-14
0.999986
0.999939
0.999863
0.999745
0.999563
0.999288
0.998874
0.998262
0.997366
0.996071
0.994224
0.991629
0.988043
0.983177
0.976708
0.968297
0.95762
0.944403
0.928454
0.909689
0.888139
0.863943
0.837331
0.808597
0.778074
0.746116
0.713077
0.679301
0.645113
0.610811
0.576665
0.542913
0.509761
0.477382
0.44592
0.41549
0.386177
0.358051
0.331158
0.305526
0.281166
0.258074
0.236237
0.215631
0.196224
0.17798
0.160858
0.144812
0.129796
0.115761
0.10266
0.0904453
0.0790701
0.0684907
0.0586665
0.0495614
0.0411463
0.0334016
0.0264607
0.0202564
0.0145627
0.00970087
0.0058596
0.00337379
0.00190556
0.00104913
0.000559809
0.000287836
0.000141718
6.6388e-05
2.94149e-05
1.22623e-05
4.86184e-06
2.04761e-06
1.19865e-06
8.90015e-07
6.91645e-07
5.38471e-07
3.87275e-07
2.6491e-07
1.71232e-07
1.04418e-07
6.03009e-08
3.32223e-08
1.76022e-08
9.02889e-09
4.50548e-09
2.20549e-09
1.06241e-09
5.04404e-10
2.36322e-10
1.09367e-10
5.00278e-11
2.2623e-11
1.01022e-11
4.4335e-12
1.88966e-12
7.58832e-13
2.61874e-13
4.65684e-14
0.999986
0.999939
0.999863
0.999745
0.999564
0.999288
0.998875
0.998263
0.997367
0.996072
0.994226
0.991633
0.988048
0.983184
0.976718
0.968311
0.957639
0.944428
0.928486
0.909728
0.888186
0.863999
0.837395
0.808669
0.778154
0.746204
0.713172
0.679403
0.645222
0.610926
0.576785
0.543037
0.509889
0.477514
0.446055
0.415626
0.386315
0.35819
0.331298
0.305665
0.281304
0.258211
0.236372
0.215764
0.196355
0.178109
0.160983
0.144934
0.129914
0.115875
0.10277
0.090551
0.0791715
0.0685878
0.0587592
0.0496498
0.0412303
0.0334811
0.0265315
0.0203221
0.0146221
0.00975199
0.00589935
0.00339738
0.00191945
0.00105718
0.000564356
0.000290327
0.000143032
6.70484e-05
2.97299e-05
1.24032e-05
4.91917e-06
2.06671e-06
1.20488e-06
8.93288e-07
6.94072e-07
5.40438e-07
3.88826e-07
2.66091e-07
1.72088e-07
1.05001e-07
6.06722e-08
3.34441e-08
1.77268e-08
9.0951e-09
4.53911e-09
2.22201e-09
1.07033e-09
5.08129e-10
2.38043e-10
1.10149e-10
5.03786e-11
2.2778e-11
1.01698e-11
4.46253e-12
1.90179e-12
7.63624e-13
2.6351e-13
4.68582e-14
0.999986
0.999939
0.999863
0.999745
0.999564
0.999288
0.998875
0.998264
0.997369
0.996075
0.994231
0.991639
0.988058
0.9832
0.97674
0.968341
0.95768
0.94448
0.928552
0.90981
0.888284
0.864113
0.837527
0.808817
0.778319
0.746384
0.713367
0.679612
0.645443
0.611159
0.577028
0.54329
0.510149
0.477781
0.446327
0.415903
0.386595
0.358471
0.331579
0.305947
0.281584
0.258488
0.236646
0.216034
0.19662
0.178368
0.161236
0.145179
0.130152
0.116105
0.102992
0.0907644
0.0793762
0.0687837
0.0589462
0.0498279
0.0413994
0.0336412
0.0266745
0.0204548
0.0147424
0.00985598
0.00598039
0.00344552
0.00194784
0.00107364
0.000573675
0.000295438
0.000145731
6.84083e-05
3.03798e-05
1.26942e-05
5.03729e-06
2.10397e-06
1.21731e-06
8.99988e-07
6.99109e-07
5.4454e-07
3.92082e-07
2.68591e-07
1.73913e-07
1.06247e-07
6.14637e-08
3.3913e-08
1.79879e-08
9.23325e-09
4.60916e-09
2.25642e-09
1.08684e-09
5.15889e-10
2.41626e-10
1.11778e-10
5.1108e-11
2.31e-11
1.031e-11
4.52258e-12
1.92682e-12
7.73499e-13
2.66877e-13
4.74538e-14
0.999986
0.999939
0.999863
0.999745
0.999564
0.999289
0.998876
0.998265
0.997371
0.996079
0.994237
0.991649
0.988074
0.983222
0.976772
0.968385
0.957739
0.944558
0.92865
0.909931
0.888429
0.864283
0.837722
0.809037
0.778563
0.746651
0.713656
0.679922
0.645772
0.611505
0.57739
0.543665
0.510537
0.478178
0.446733
0.416315
0.387011
0.358891
0.332
0.306367
0.282002
0.258903
0.237056
0.216438
0.197016
0.178756
0.161615
0.145548
0.13051
0.116452
0.103326
0.0910857
0.0796843
0.0690783
0.0592271
0.0500949
0.0416528
0.0338808
0.0268896
0.0206556
0.0149263
0.0100156
0.0061051
0.00351962
0.00199155
0.00109899
0.000588015
0.000303305
0.000149889
7.05049e-05
3.13834e-05
1.31451e-05
5.22205e-06
2.16527e-06
1.23781e-06
9.1062e-07
7.06898e-07
5.50817e-07
3.97064e-07
2.72435e-07
1.7673e-07
1.08172e-07
6.26825e-08
3.46319e-08
1.83871e-08
9.44416e-09
4.71604e-09
2.30892e-09
1.11203e-09
5.27741e-10
2.47103e-10
1.14268e-10
5.2224e-11
2.35928e-11
1.05248e-11
4.61458e-12
1.96519e-12
7.88635e-13
2.7204e-13
4.83672e-14
0.999986
0.999939
0.999863
0.999746
0.999564
0.999289
0.998877
0.998267
0.997374
0.996084
0.994246
0.991663
0.988093
0.983251
0.976813
0.968443
0.957816
0.944659
0.928778
0.910088
0.888618
0.864505
0.837976
0.809324
0.778882
0.747001
0.714035
0.680328
0.646203
0.611959
0.577865
0.544159
0.511046
0.478701
0.447267
0.416858
0.387561
0.359445
0.332557
0.306923
0.282556
0.259454
0.237601
0.216975
0.197545
0.179274
0.162121
0.146041
0.130989
0.116916
0.103774
0.0915169
0.0800979
0.0694735
0.0596033
0.0504515
0.0419891
0.0341968
0.0271723
0.0209212
0.0151803
0.0102388
0.00627967
0.00362321
0.00205253
0.00113428
0.00060796
0.000314237
0.000155666
7.34203e-05
3.27813e-05
1.37752e-05
5.48284e-06
2.25597e-06
1.26801e-06
9.25404e-07
7.17342e-07
5.59115e-07
4.03641e-07
2.77541e-07
1.8051e-07
1.10782e-07
6.43483e-08
3.56193e-08
1.89368e-08
9.73472e-09
4.86328e-09
2.38123e-09
1.14673e-09
5.44057e-10
2.5464e-10
1.17695e-10
5.37594e-11
2.42708e-11
1.08201e-11
4.74112e-12
2.01796e-12
8.09456e-13
2.79141e-13
4.96237e-14
0.999986
0.999939
0.999864
0.999746
0.999565
0.99929
0.998878
0.998269
0.997378
0.996091
0.994256
0.991678
0.988117
0.983286
0.976863
0.968513
0.95791
0.944781
0.928933
0.910279
0.888847
0.864774
0.838286
0.809674
0.779271
0.747427
0.714497
0.680824
0.64673
0.612515
0.578447
0.544764
0.511672
0.479344
0.447925
0.417528
0.38824
0.36013
0.333245
0.307612
0.283244
0.260137
0.238278
0.217644
0.198204
0.179921
0.162754
0.146659
0.13159
0.117499
0.104338
0.092061
0.0806207
0.0699738
0.0600798
0.0509022
0.0424112
0.0345855
0.0275033
0.0211992
0.0155663
0.0105486
0.00651151
0.00375886
0.00213169
0.00117989
0.000633687
0.000328346
0.000163136
7.72029e-05
3.46027e-05
1.46008e-05
5.82786e-06
2.37996e-06
1.30851e-06
9.43869e-07
7.30097e-07
5.69286e-07
4.11829e-07
2.83999e-07
1.85356e-07
1.1416e-07
6.65188e-08
3.69107e-08
1.96568e-08
1.01156e-08
5.05628e-09
2.47597e-09
1.19216e-09
5.65405e-10
2.64495e-10
1.22173e-10
5.57643e-11
2.51556e-11
1.12054e-11
4.90608e-12
2.08672e-12
8.3658e-13
2.88391e-13
5.12602e-14
0.999986
0.999939
0.999864
0.999746
0.999565
0.999291
0.99888
0.998272
0.997382
0.996098
0.994267
0.991696
0.988145
0.983326
0.976921
0.968593
0.958018
0.944923
0.929113
0.910501
0.889113
0.865087
0.838645
0.81008
0.779722
0.747923
0.715035
0.681401
0.647344
0.613163
0.579126
0.545471
0.512404
0.480098
0.448698
0.418315
0.38904
0.360938
0.334059
0.308429
0.28406
0.26095
0.239086
0.218443
0.198992
0.180695
0.163514
0.147402
0.132314
0.118203
0.105021
0.0927207
0.0812564
0.0705844
0.060664
0.0514588
0.0429388
0.0350825
0.0279489
0.021612
0.015951
0.010883
0.00677286
0.00391497
0.00222434
0.001234
0.000664572
0.000345459
0.000172286
8.18769e-05
3.68732e-05
1.56387e-05
6.26453e-06
2.53523e-06
1.35854e-06
9.6514e-07
7.44555e-07
5.80888e-07
4.21713e-07
2.91908e-07
1.91367e-07
1.184e-07
6.92635e-08
3.85507e-08
2.0573e-08
1.06005e-08
5.30195e-09
2.59648e-09
1.2499e-09
5.92517e-10
2.77001e-10
1.2785e-10
5.83042e-11
2.62758e-11
1.16927e-11
5.1146e-12
2.1736e-12
8.70834e-13
3.0007e-13
5.33265e-14
0.999986
0.999939
0.999864
0.999746
0.999565
0.999291
0.998881
0.998274
0.997387
0.996106
0.99428
0.991716
0.988175
0.983371
0.976986
0.968683
0.958139
0.945081
0.929313
0.910748
0.889411
0.865436
0.839047
0.810534
0.780228
0.748478
0.715638
0.682049
0.648035
0.613893
0.579893
0.546271
0.513233
0.480953
0.449575
0.419212
0.389952
0.361862
0.334991
0.309366
0.284999
0.261887
0.240017
0.219367
0.199905
0.181596
0.164398
0.148268
0.133161
0.119028
0.105822
0.0934972
0.0820067
0.0713071
0.061358
0.0521227
0.043571
0.035681
0.0284902
0.0221125
0.0164032
0.0112731
0.00707782
0.00409757
0.00233321
0.00129799
0.000701353
0.000365996
0.000183353
8.75815e-05
3.96686e-05
1.6929e-05
6.81473e-06
2.73813e-06
1.42138e-06
9.87796e-07
7.5808e-07
5.8729e-07
4.39492e-07
3.02668e-07
1.98915e-07
1.23666e-07
7.2681e-08
4.05981e-08
2.17182e-08
1.12068e-08
5.60903e-09
2.74701e-09
1.32196e-09
6.2632e-10
2.92578e-10
1.34915e-10
6.14618e-11
2.76675e-11
1.22975e-11
5.37316e-12
2.28125e-12
9.13258e-13
3.1453e-13
5.58844e-14
0.999986
0.999939
0.999864
0.999746
0.999566
0.999292
0.998883
0.998277
0.997392
0.996114
0.994293
0.991738
0.988208
0.98342
0.977056
0.96878
0.95827
0.945252
0.92953
0.911016
0.889733
0.865814
0.839483
0.811027
0.780777
0.749082
0.716294
0.682755
0.648788
0.614691
0.580732
0.547147
0.514144
0.481895
0.450544
0.420204
0.390964
0.36289
0.336031
0.310414
0.28605
0.262939
0.241066
0.22041
0.200938
0.182616
0.165403
0.149256
0.134127
0.119972
0.106742
0.0943898
0.0828711
0.0721418
0.0621613
0.052893
0.0443063
0.0363787
0.0291246
0.0226998
0.0169324
0.0117288
0.00743438
0.00431183
0.00246162
0.00137392
0.000745293
0.000390705
0.000196767
9.45635e-05
4.31185e-05
1.85355e-05
7.50543e-06
2.99043e-06
1.47789e-06
1.00638e-06
7.72533e-07
5.99438e-07
4.536e-07
3.14807e-07
2.08128e-07
1.30158e-07
7.68982e-08
4.31264e-08
2.31331e-08
1.19558e-08
5.98822e-09
2.93272e-09
1.41077e-09
6.67943e-10
3.1174e-10
1.43597e-10
6.53382e-11
2.93745e-11
1.30385e-11
5.68965e-12
2.41291e-12
9.65115e-13
3.32199e-13
5.90097e-14
0.999986
0.999939
0.999864
0.999746