/*--------------------------------*- C++ -*----------------------------------*\
  =========                 |
  \\      /  F ield         | OpenFOAM: The Open Source CFD Toolbox
   \\    /   O peration     | Website:  https://openfoam.org
    \\  /    A nd           | Version:  8
     \\/     M anipulation  |
\*---------------------------------------------------------------------------*/
FoamFile
{
    version     2.0;
    format      ascii;
    class       volScalarField;
    location    "0.1/fluid";
    object      CO2;
}
// * * * * * * * * * * * * * * * * * * * * * * * * * * * * * * * * * * * * * //

dimensions      [0 0 0 0 0 0 0];

internalField   nonuniform List<scalar> 
4000
(
9.53816e-08
4.18046e-07
9.66142e-07
1.89783e-06
3.47876e-06
6.15172e-06
1.0648e-05
1.81507e-05
3.05495e-05
5.0841e-05
8.36337e-05
0.000135862
0.000217652
0.000343269
0.000531962
0.00080843
0.00120254
0.00174806
0.00248033
0.0034333
0.00463643
0.00611226
0.00787381
0.00992647
0.0122666
0.0148834
0.0177604
0.020876
0.0242057
0.0277225
0.0313981
0.0352042
0.0391123
0.0430965
0.0471302
0.0511897
0.0552532
0.0593019
0.0633168
0.0672815
0.071185
0.0750147
0.0787605
0.0824137
0.0859676
0.0894168
0.0927571
0.0959856
0.0991002
0.1021
0.104983
0.107749
0.110398
0.112927
0.115333
0.11761
0.119745
0.121718
0.123498
0.125032
0.126228
0.126955
0.12703
0.12611
0.123645
0.118727
0.111486
0.103011
0.093962
0.0847479
0.0756256
0.066758
0.0582613
0.0502142
0.0426735
0.035704
0.0293267
0.0233992
0.0180853
0.0137236
0.00997177
0.00662879
0.00415397
0.0024362
0.00133716
0.000691023
0.000339238
0.000160974
7.45514e-05
3.38813e-05
1.51705e-05
6.71195e-06
2.94027e-06
1.27661e-06
5.49057e-07
2.33068e-07
9.6606e-08
3.7977e-08
1.29294e-08
2.28583e-09
9.64845e-08
4.23083e-07
9.78618e-07
1.92441e-06
3.53152e-06
6.25141e-06
1.08284e-05
1.84869e-05
3.11649e-05
5.18954e-05
8.53369e-05
0.000138497
0.000221583
0.000348903
0.000539696
0.000818543
0.00121505
0.00176259
0.00249607
0.00344901
0.00465063
0.00612339
0.00788282
0.00993465
0.0122734
0.0148889
0.0177652
0.0208813
0.0242127
0.0277325
0.0314128
0.0352247
0.0391403
0.0431311
0.0471723
0.0512405
0.0553135
0.059369
0.0633945
0.0673735
0.0712885
0.075128
0.0788821
0.0825426
0.0861028
0.0895574
0.0929024
0.0961348
0.0992526
0.102255
0.10514
0.107907
0.110556
0.113085
0.11549
0.117763
0.119893
0.121858
0.123626
0.12514
0.126302
0.126982
0.126984
0.125946
0.123292
0.118064
0.110631
0.102035
0.0929092
0.0836462
0.074494
0.06561
0.0571113
0.0490743
0.0415583
0.0346364
0.028297
0.0223944
0.0172155
0.0130734
0.00913972
0.00605833
0.00376081
0.00218417
0.0011915
0.000615216
0.000303312
0.000144876
6.76395e-05
3.1004e-05
1.39983e-05
6.24101e-06
2.75262e-06
1.2022e-06
5.19683e-07
2.21556e-07
9.21701e-08
3.63422e-08
1.23986e-08
2.19419e-09
9.8455e-08
4.31894e-07
9.99714e-07
1.96762e-06
3.6139e-06
6.40094e-06
1.10875e-05
1.89e-05
3.18351e-05
5.30342e-05
8.72268e-05
0.000141528
0.000226303
0.000355988
0.000549879
0.000832519
0.00123339
0.00178561
0.00252375
0.00348091
0.0046859
0.00616083
0.00791969
0.00996786
0.0123065
0.0149221
0.0177991
0.0209172
0.024252
0.0277769
0.0314637
0.0352838
0.0392087
0.0432103
0.0472614
0.0513431
0.0554328
0.0595107
0.0635537
0.0675463
0.0714745
0.0753266
0.0790925
0.0827639
0.086334
0.0897974
0.0931502
0.0963894
0.0995129
0.102519
0.105408
0.108178
0.110828
0.113356
0.115758
0.118026
0.120147
0.122098
0.123843
0.125322
0.126424
0.127024
0.126903
0.125666
0.122695
0.116964
0.109229
0.100453
0.0912243
0.0819099
0.0727418
0.0638689
0.0554082
0.047431
0.0399994
0.0331893
0.0269422
0.0211705
0.0162019
0.0122432
0.00852478
0.00556734
0.00342127
0.00197642
0.00107697
0.000557303
0.000275991
0.000132433
6.21316e-05
2.86167e-05
1.29791e-05
5.81051e-06
2.57213e-06
1.12697e-06
4.88516e-07
2.08774e-07
8.70347e-08
3.43794e-08
1.17432e-08
2.07939e-09
1.00434e-07
4.40671e-07
1.02038e-06
2.00904e-06
3.69133e-06
6.54102e-06
1.1337e-05
1.93414e-05
3.25655e-05
5.41497e-05
8.90343e-05
0.000144362
0.000230479
0.000361981
0.000558256
0.000843921
0.00124847
0.001805
0.00254795
0.00351029
0.00472065
0.00620097
0.00796504
0.010018
0.0123566
0.0149748
0.0178563
0.02098
0.0243218
0.027855
0.0315517
0.0353835
0.0393226
0.0433421
0.0474175
0.0515189
0.0556249
0.0597158
0.0637729
0.0677797
0.0717221
0.0755879
0.0793668
0.0830503
0.0866315
0.0901051
0.0934669
0.0967138
0.0998438
0.102856
0.105748
0.10852
0.111171
0.113698
0.116096
0.118357
0.120465
0.122396
0.12411
0.125542
0.126564
0.127055
0.126767
0.125275
0.121907
0.115591
0.107517
0.0985495
0.0892234
0.0798737
0.070714
0.0618865
0.0534996
0.0456216
0.0383171
0.0316496
0.0255158
0.0199013
0.0151637
0.0113581
0.00778509
0.00503819
0.00306891
0.00176019
0.000954736
0.000493176
0.000244436
0.000117588
5.53663e-05
2.56099e-05
1.16696e-05
5.24973e-06
2.3353e-06
1.02812e-06
4.47717e-07
1.92154e-07
8.04187e-08
3.18667e-08
1.09083e-08
1.9335e-09
1.02234e-07
4.48569e-07
1.03882e-06
2.04585e-06
3.75975e-06
6.6637e-06
1.15512e-05
1.97077e-05
3.31797e-05
5.5161e-05
9.05174e-05
0.000146643
0.000234076
0.000367412
0.000566173
0.000855086
0.00126373
0.0018252
0.00257393
0.00354284
0.0047605
0.00624889
0.00802198
0.0100853
0.0124366
0.0150662
0.0179588
0.0210939
0.0244475
0.0279933
0.0317032
0.0355488
0.0395017
0.0435343
0.0476204
0.051735
0.0558557
0.0599616
0.0640338
0.0680556
0.0720127
0.0758926
0.0796848
0.0833808
0.0869735
0.0904573
0.093828
0.0970827
0.100219
0.103236
0.106132
0.108906
0.111556
0.11408
0.116472
0.118722
0.120814
0.122719
0.124392
0.125763
0.126691
0.127045
0.126538
0.124699
0.120772
0.113974
0.105618
0.096497
0.0871021
0.0777426
0.0686155
0.0598586
0.0515699
0.0438155
0.0366645
0.030151
0.0241309
0.0186958
0.0142121
0.0105395
0.00713748
0.00457155
0.00276155
0.00157437
0.000850973
0.000439106
0.000217837
0.000105005
4.95749e-05
2.30017e-05
1.05157e-05
4.74662e-06
2.11872e-06
9.35958e-07
4.08949e-07
1.76081e-07
7.39178e-08
2.93628e-08
1.00681e-08
1.78596e-09
1.03941e-07
4.55998e-07
1.05587e-06
2.07938e-06
3.82147e-06
6.77279e-06
1.17394e-05
2.00264e-05
3.37127e-05
5.60459e-05
9.19859e-05
0.000148912
0.000237465
0.000372419
0.000573439
0.000865404
0.00127802
0.00184448
0.00259923
0.00357519
0.00480087
0.00629819
0.00808105
0.010155
0.0125176
0.0151593
0.0180645
0.0212128
0.0245803
0.0281405
0.0318653
0.0357263
0.0396948
0.0437431
0.0478449
0.0519755
0.0561122
0.060234
0.0643218
0.0683589
0.0723306
0.0762244
0.0800296
0.0837375
0.0873409
0.0908343
0.0942133
0.0974749
0.100617
0.103637
0.106535
0.10931
0.111959
0.114479
0.116863
0.119101
0.121173
0.123049
0.124678
0.125975
0.126803
0.127002
0.126247
0.124012
0.119438
0.112248
0.103667
0.0944299
0.0849941
0.0756465
0.0665696
0.0578985
0.0497205
0.0420999
0.0351105
0.0287465
0.0228324
0.0176124
0.0133928
0.0097739
0.00653883
0.00415001
0.00248746
0.00140918
0.000758398
0.00039048
0.000193658
9.34608e-05
4.42161e-05
2.05703e-05
9.43322e-06
4.27237e-06
1.91377e-06
8.48459e-07
3.7204e-07
1.60754e-07
6.76966e-08
2.69593e-08
9.25973e-09
1.64384e-09
1.05547e-07
4.6303e-07
1.07193e-06
2.11034e-06
3.8782e-06
6.87294e-06
1.19116e-05
2.03173e-05
3.41965e-05
5.68385e-05
9.32629e-05
0.000150926
0.000240578
0.000377126
0.000580392
0.000875419
0.00129206
0.00186362
0.00262461
0.00360796
0.00484215
0.00634901
0.00814239
0.0102278
0.0126026
0.0152573
0.0181762
0.0213389
0.0247213
0.028297
0.0320378
0.035915
0.0399
0.043965
0.0480835
0.0522306
0.0563836
0.0605214
0.0646247
0.0686765
0.0726622
0.0765691
0.0803863
0.0841051
0.0877183
0.0912201
0.0946062
0.0978734
0.101019
0.104043
0.106942
0.109716
0.112362
0.114876
0.117251
0.119475
0.121526
0.123372
0.124955
0.126177
0.126903
0.126947
0.125944
0.123317
0.118112
0.110559
0.101777
0.0924456
0.0829858
0.0736629
0.0646458
0.0560662
0.0480011
0.0405139
0.0336807
0.027438
0.0216639
0.0166704
0.0127414
0.00900467
0.00600441
0.00378542
0.00225268
0.00126866
0.000680095
0.000349473
0.000173262
8.36943e-05
3.96604e-05
1.84905e-05
8.50082e-06
3.86081e-06
1.73456e-06
7.71385e-07
3.39298e-07
1.47067e-07
6.21049e-08
2.47876e-08
8.52661e-09
1.51472e-09
1.07024e-07
4.69525e-07
1.0871e-06
2.14029e-06
3.93181e-06
6.9661e-06
1.20707e-05
2.05853e-05
3.46418e-05
5.7568e-05
9.4441e-05
0.00015279
0.000243483
0.000381564
0.000587013
0.000885044
0.00130567
0.00188235
0.00264969
0.00364062
0.00488364
0.00640049
0.00820495
0.0103024
0.0126902
0.0153586
0.0182919
0.0214697
0.0248677
0.0284594
0.0322166
0.0361104
0.0401121
0.0441938
0.0483288
0.0524922
0.056661
0.0608141
0.0649321
0.0689978
0.0729964
0.0769151
0.0807432
0.0844717
0.0880932
0.0916021
0.0949939
0.0982655
0.101414
0.104439
0.107338
0.11011
0.112751
0.115259
0.117624
0.119833
0.121863
0.123676
0.125214
0.12636
0.126989
0.126885
0.125647
0.122648
0.116852
0.108965
0.100006
0.0905973
0.0811249
0.0718334
0.0628828
0.0543938
0.046438
0.0390782
0.0323836
0.0262525
0.0206155
0.0158128
0.0120168
0.00839127
0.00555461
0.00347356
0.00205198
0.0011491
0.000613684
0.000314709
0.000155938
7.5375e-05
3.57661e-05
1.6706e-05
7.69771e-06
3.50496e-06
1.57903e-06
7.04258e-07
3.10689e-07
1.35063e-07
5.71835e-08
2.28706e-08
7.87808e-09
1.40037e-09
1.08382e-07
4.75456e-07
1.10063e-06
2.16646e-06
3.98017e-06
7.05171e-06
1.22186e-05
2.08361e-05
3.50609e-05
5.82592e-05
9.55699e-05
0.000154569
0.000246264
0.000385829
0.0005934
0.000894368
0.00131892
0.00190067
0.00267433
0.00367289
0.00492482
0.00645182
0.00826756
0.0103773
0.0127783
0.0154607
0.0184088
0.0216018
0.0250156
0.0286234
0.0323968
0.036307
0.0403251
0.0444229
0.0485738
0.0527527
0.0569366
0.061104
0.0652355
0.0693138
0.0733241
0.0772535
0.081091
0.0848277
0.0884562
0.0919708
0.095367
0.0986415
0.101792
0.104817
0.107714
0.110483
0.11312
0.115619
0.117973
0.120167
0.122175
0.123958
0.12545
0.126522
0.127056
0.126806
0.125343
0.121995
0.115672
0.107493
0.0983825
0.0889112
0.079435
0.0701788
0.061295
0.0528935
0.0450418
0.0378035
0.0312326
0.0251937
0.0196857
0.0150662
0.0113897
0.00788291
0.00517133
0.00320753
0.00188212
0.0010487
0.000558194
0.000285728
0.000141497
6.84293e-05
3.25068e-05
1.52077e-05
7.02097e-06
3.20397e-06
1.44696e-06
6.47025e-07
2.86221e-07
1.24753e-07
5.29413e-08
2.12132e-08
7.31629e-09
1.30123e-09
1.09645e-07
4.80961e-07
1.11328e-06
2.19143e-06
4.02599e-06
7.13267e-06
1.23583e-05
2.1073e-05
3.54568e-05
5.89094e-05
9.66061e-05
0.000156263
0.000248922
0.000389906
0.000599516
0.000903321
0.00133169
0.0019184
0.00269826
0.00370433
0.00496507
0.00650213
0.00832908
0.010451
0.0128652
0.0155615
0.0185241
0.0217322
0.0251614
0.0287849
0.0325741
0.0365
0.0405337
0.044647
0.0488128
0.0530062
0.0572039
0.0613844
0.0655281
0.0696178
0.0736383
0.0775769
0.0814224
0.085166
0.0888002
0.0923191
0.0957185
0.0989949
0.102146
0.10517
0.108065
0.11083
0.113461
0.115952
0.118295
0.120472
0.122458
0.124208
0.125654
0.126655
0.12709
0.126689
0.124993
0.121279
0.114539
0.106129
0.0969036
0.08739
0.0779195
0.0687016
0.0598833
0.0515646
0.0438102
0.0366866
0.0302215
0.0242578
0.0188686
0.01442
0.0108404
0.00743816
0.00483934
0.00298046
0.00173893
0.000964721
0.000511981
0.000261635
0.000129492
6.26489e-05
2.97892e-05
1.39556e-05
6.454e-06
2.9511e-06
1.3357e-06
5.98673e-07
2.6549e-07
1.15991e-07
4.93265e-08
1.9798e-08
6.83582e-09
1.21637e-09
1.1083e-07
4.86147e-07
1.12534e-06
2.21519e-06
4.06934e-06
7.20899e-06
1.24897e-05
2.12956e-05
3.5828e-05
5.952e-05
9.75965e-05
0.000157853
0.000251427
0.000393764
0.000605321
0.00091184
0.00134387
0.00193534
0.00272118
0.00373451
0.00500378
0.00655059
0.0083884
0.0105222
0.0129491
0.0156589
0.0186355
0.0218581
0.025302
0.0289404
0.0327446
0.0366854
0.0407337
0.0448612
0.0490409
0.0532475
0.0574577
0.06165
0.0658046
0.0699042
0.0739336
0.07788
0.0817323
0.0854815
0.0891201
0.0926423
0.0960437
0.0993209
0.102472
0.105494
0.108386
0.111146
0.113771
0.116254
0.118585
0.120746
0.122709
0.124427
0.125825
0.126757
0.12709
0.126528
0.12458
0.120457
0.113435
0.104867
0.0955652
0.0860296
0.0765739
0.0673963
0.0586409
0.0503992
0.042734
0.0357137
0.0293441
0.0234409
0.0181642
0.013874
0.0103689
0.00705054
0.00455373
0.00278838
0.00161913
0.000894913
0.000473709
0.000241721
0.000119574
5.78695e-05
2.75391e-05
1.29169e-05
5.98269e-06
2.74042e-06
1.24277e-06
5.58186e-07
2.48085e-07
1.08616e-07
4.62765e-08
1.86015e-08
6.4291e-09
1.1445e-09
1.11947e-07
4.91052e-07
1.13667e-06
2.23735e-06
4.10976e-06
7.28013e-06
1.26122e-05
2.15031e-05
3.61756e-05
6.00974e-05
9.85382e-05
0.000159347
0.000253773
0.000397377
0.000610763
0.00091984
0.00135533
0.00195129
0.0027428
0.00376301
0.00504037
0.00659643
0.00844455
0.0105896
0.0130286
0.0157511
0.0187409
0.021977
0.0254348
0.0290871
0.0329052
0.0368597
0.0409214
0.0450619
0.049254
0.0534725
0.057694
0.0618966
0.0660607
0.0701689
0.0742059
0.0781589
0.0820167
0.0857703
0.0894123
0.0929368
0.0963394
0.0996168
0.102767
0.105787
0.108676
0.111431
0.114049
0.116524
0.118843
0.120989
0.122931
0.124619
0.125968
0.126836
0.127074
0.12636
0.124174
0.119665
0.112421
0.103733
0.094377
0.0848305
0.0753937
0.0662558
0.0575587
0.0493871
0.0418027
0.0348762
0.0285826
0.0227291
0.0175684
0.013414
0.00993679
0.00670525
0.00430919
0.00262729
0.00151952
0.000837136
0.00044213
0.000225318
0.000111409
5.39336e-05
2.56843e-05
1.20596e-05
5.59297e-06
2.56587e-06
1.16563e-06
5.24511e-07
2.33575e-07
1.02454e-07
4.37234e-08
1.75984e-08
6.08773e-09
1.08415e-09
1.1298e-07
4.95572e-07
1.14707e-06
2.2577e-06
4.1469e-06
7.34548e-06
1.27247e-05
2.16938e-05
3.6494e-05
6.06173e-05
9.93977e-05
0.000160724
0.000255936
0.00040071
0.000615787
0.00092723
0.00136592
0.00196606
0.00276282
0.00378941
0.00507429
0.00663893
0.00849662
0.0106521
0.0131022
0.0158364
0.0188385
0.0220871
0.0255575
0.0292225
0.0330532
0.0370201
0.0410938
0.045246
0.0494492
0.0536782
0.0579095
0.0621212
0.0662934
0.0704089
0.0744523
0.0784107
0.082273
0.0860301
0.0896746
0.0932006
0.0966038
0.0998807
0.103029
0.106047
0.108932
0.111683
0.114295
0.116762
0.119071
0.121202
0.123125
0.124785
0.126091
0.126902
0.127054
0.126206
0.123809
0.118963
0.11153
0.102742
0.0933423
0.0837899
0.0743723
0.065271
0.0566261
0.0485162
0.0410029
0.0341592
0.0279203
0.0221291
0.0170727
0.013043
0.00957015
0.0064181
0.00410817
0.00249471
0.0014375
0.000789648
0.000416229
0.000211884
0.000104725
5.07106e-05
2.41642e-05
1.13561e-05
5.27279e-06
2.42225e-06
1.10205e-06
4.96709e-07
2.21573e-07
9.73477e-08
4.16039e-08
1.67645e-08
5.80369e-09
1.03391e-09
1.13913e-07
4.9965e-07
1.15646e-06
2.27606e-06
4.18038e-06
7.40441e-06
1.28261e-05
2.18656e-05
3.67809e-05
6.1092e-05
0.000100172
0.000161966
0.00025789
0.000403723
0.000620332
0.00093392
0.00137551
0.00197944
0.00278097
0.00381336
0.00510505
0.00667748
0.00854383
0.0107088
0.0131689
0.0159137
0.0189267
0.0221866
0.0256683
0.0293446
0.0331865
0.0371644
0.0412488
0.0454111
0.049624
0.0538621
0.0581018
0.0623212
0.0665004
0.070622
0.0746707
0.0786335
0.0824993
0.0862591
0.0899053
0.0934323
0.0968355
0.100112
0.103258
0.106274
0.109156
0.111902
0.114508
0.116967
0.119267
0.121386
0.123291
0.124927
0.126194
0.126956
0.127034
0.12607
0.123492
0.118357
0.110763
0.101891
0.0924558
0.0829
0.0735001
0.0644326
0.0558326
0.0477755
0.0403223
0.0335454
0.0273631
0.0216429
0.0166983
0.0128421
0.00912225
0.00615988
0.00394052
0.00238559
0.00137029
0.00075087
0.000395134
0.000200959
9.92936e-05
4.8091e-05
2.29281e-05
1.07836e-05
5.0119e-06
2.30507e-06
1.0501e-06
4.73965e-07
2.11738e-07
9.31564e-08
3.98619e-08
1.60784e-08
5.5698e-09
9.92526e-10
1.14734e-07
5.03239e-07
1.16472e-06
2.29221e-06
4.20984e-06
7.45626e-06
1.29154e-05
2.20172e-05
3.70354e-05
6.15141e-05
0.000100855
0.000163059
0.000259611
0.00040638
0.000624341
0.000939824
0.00138398
0.00199126
0.002797
0.0038345
0.00513222
0.00671151
0.0085855
0.0107588
0.0132278
0.0159819
0.0190044
0.0222741
0.0257657
0.0294519
0.0333035
0.0372908
0.0413843
0.0455554
0.0497766
0.0540224
0.0582692
0.062495
0.06668
0.0708066
0.0748596
0.0788259
0.0826944
0.0864562
0.0901036
0.093631
0.097034
0.100309
0.103454
0.106467
0.109346
0.112088
0.114689
0.117141
0.119432
0.12154
0.12343
0.125045
0.126279
0.126999
0.127016
0.125954
0.123223
0.117843
0.110113
0.101172
0.0917088
0.0821518
0.0727682
0.0637307
0.055169
0.0471565
0.039754
0.0330317
0.0268946
0.0212282
0.0163584
0.0125568
0.00888049
0.00597446
0.00380775
0.00229733
0.0013159
0.000719581
0.000378155
0.000192178
9.49308e-05
4.59867e-05
2.19346e-05
1.03231e-05
4.8019e-06
2.21065e-06
1.0082e-06
4.55598e-07
2.03784e-07
8.97625e-08
3.84496e-08
1.55216e-08
5.37988e-09
9.58915e-10
1.15433e-07
5.06297e-07
1.17176e-06
2.30597e-06
4.23495e-06
7.50044e-06
1.29916e-05
2.21464e-05
3.72519e-05
6.18719e-05
0.000101437
0.000163992
0.00026108
0.000408648
0.000627764
0.000944868
0.00139121
0.00200135
0.00281069
0.00385257
0.00515542
0.00674057
0.00862107
0.0108014
0.0132779
0.0160399
0.0190706
0.0223486
0.0258486
0.029543
0.0334027
0.0373979
0.0414991
0.0456774
0.0499055
0.0541576
0.0584102
0.0626413
0.0668309
0.0709615
0.0750179
0.0789869
0.0828576
0.0866207
0.090269
0.0937965
0.097199
0.100473
0.103616
0.106627
0.109503
0.112241
0.114837
0.117284
0.119567
0.121665
0.123542
0.12514
0.126347
0.127033
0.127002
0.125859
0.122999
0.117415
0.109574
0.100577
0.0910934
0.0815372
0.0721684
0.0631566
0.0546273
0.046652
0.0392917
0.0326144
0.026513
0.0208907
0.0160819
0.0123235
0.00868946
0.005827
0.00370186
0.00222709
0.00127274
0.000694821
0.000364744
0.000185251
9.14904e-05
4.43272e-05
2.11509e-05
9.95968e-06
4.636e-06
2.136e-06
9.75032e-07
4.41052e-07
1.97477e-07
8.70684e-08
3.73276e-08
1.50789e-08
5.22881e-09
9.32171e-10
1.16003e-07
5.08787e-07
1.17749e-06
2.31718e-06
4.2554e-06
7.53645e-06
1.30536e-05
2.22516e-05
3.74274e-05
6.21634e-05
0.000101912
0.000164753
0.000262278
0.000410498
0.000630558
0.000948983
0.00139712
0.00200959
0.00282187
0.00386731
0.00517434
0.00676427
0.00865006
0.0108361
0.0133188
0.0160872
0.0191245
0.0224091
0.0259158
0.0296169
0.0334832
0.0374848
0.0415921
0.0457762
0.0500097
0.0542668
0.058524
0.0627592
0.0669524
0.0710862
0.0751451
0.0791162
0.0829884
0.0867525
0.0904012
0.0939287
0.0973306
0.100604
0.103745
0.106754
0.109627
0.112362
0.114954
0.117396
0.119674
0.121764
0.123631
0.125214
0.1264
0.12706
0.126988
0.125781
0.12282
0.117073
0.109144
0.100105
0.0906051
0.0810506
0.0716946
0.0627041
0.0542011
0.0462559
0.0389295
0.0322878
0.0262138
0.0206268
0.0158668
0.0121422
0.00854142
0.00571296
0.00362017
0.00217302
0.00123959
0.000675833
0.00035447
0.000179947
8.88573e-05
4.30569e-05
2.05507e-05
9.68122e-06
4.50883e-06
2.07874e-06
9.49572e-07
4.29876e-07
1.92627e-07
8.49953e-08
3.64635e-08
1.47378e-08
5.11236e-09
9.11555e-10
1.16435e-07
5.10678e-07
1.18185e-06
2.32569e-06
4.27094e-06
7.56381e-06
1.31007e-05
2.23316e-05
3.75615e-05
6.23847e-05
0.000102272
0.000165331
0.00026319
0.000411905
0.000632684
0.000952116
0.00140161
0.00201586
0.00283037
0.00387853
0.00518874
0.0067823
0.00867211
0.0108625
0.0133498
0.0161231
0.0191654
0.0224551
0.0259669
0.029673
0.0335442
0.0375506
0.0416624
0.0458508
0.0500884
0.0543493
0.0586099
0.0628481
0.067044
0.0711799
0.0752407
0.0792133
0.0830865
0.0868513
0.0905003
0.0940276
0.097429
0.100701
0.103842
0.106848
0.10972
0.112452
0.115042
0.11748
0.119753
0.121838
0.123697
0.12527
0.12644
0.12708
0.126978
0.125723
0.122686
0.11682
0.108826
0.0997538
0.0902427
0.0806895
0.0713433
0.062369
0.0538858
0.0459632
0.0386626
0.0320468
0.0259928
0.0204321
0.0157085
0.0120086
0.00843212
0.00562875
0.00355999
0.00213335
0.00121537
0.000661999
0.000346996
0.00017609
8.69422e-05
4.21328e-05
2.0114e-05
9.47853e-06
4.41624e-06
2.03703e-06
9.31025e-07
4.21731e-07
1.89092e-07
8.34834e-08
3.58332e-08
1.44889e-08
5.02737e-09
8.96507e-10
1.16725e-07
5.11946e-07
1.18477e-06
2.3314e-06
4.28135e-06
7.58215e-06
1.31323e-05
2.23852e-05
3.76516e-05
6.25332e-05
0.000102514
0.000165719
0.000263801
0.000412849
0.000634109
0.000954216
0.00140463
0.00202007
0.00283608
0.00388605
0.00519841
0.00679439
0.00868691
0.0108803
0.0133707
0.0161472
0.0191928
0.0224859
0.0260011
0.0297106
0.0335851
0.0375946
0.0417095
0.0459008
0.050141
0.0544044
0.0586672
0.0629075
0.0671051
0.0712425
0.0753045
0.079278
0.0831519
0.086917
0.0905661
0.0940934
0.0974944
0.100766
0.103906
0.106911
0.109781
0.112512
0.1151
0.117535
0.119805
0.121887
0.123741
0.125308
0.126467
0.127094
0.12697
0.125684
0.122597
0.116653
0.108616
0.0995226
0.0900036
0.0804513
0.0711115
0.0621479
0.053678
0.0457707
0.0384874
0.0318884
0.0258476
0.0203046
0.0156055
0.0119221
0.0083617
0.0055747
0.00352139
0.00210783
0.00119969
0.000652984
0.000342104
0.00017356
8.56847e-05
4.1526e-05
1.98273e-05
9.34555e-06
4.35553e-06
2.0097e-06
9.18875e-07
4.16398e-07
1.86778e-07
8.24941e-08
3.54208e-08
1.43261e-08
4.97179e-09
8.86666e-10
1.16868e-07
5.12571e-07
1.1862e-06
2.3342e-06
4.28644e-06
7.59109e-06
1.31477e-05
2.24113e-05
3.76951e-05
6.26048e-05
0.000102631
0.000165905
0.000264094
0.000413302
0.000634793
0.000955224
0.00140607
0.00202209
0.00283882
0.00388968
0.00520307
0.00680023
0.00869407
0.0108889
0.0133808
0.0161589
0.0192062
0.0225009
0.0260178
0.029729
0.0336051
0.0376162
0.0417326
0.0459254
0.0501669
0.0544315
0.0586954
0.0629367
0.0671351
0.0712733
0.0753359
0.0793099
0.0831841
0.0869495
0.0905986
0.0941258
0.0975267
0.100798
0.103937
0.106942
0.109811
0.112542
0.115128
0.117563
0.119831
0.121911
0.123763
0.125326
0.12648
0.1271
0.126967
0.125665
0.122553
0.116571
0.108513
0.0994089
0.0898861
0.0803341
0.0709975
0.0620394
0.0535761
0.0456765
0.038402
0.0318112
0.0257771
0.020243
0.0155562
0.011881
0.00832848
0.00554938
0.00350339
0.00209593
0.00119234
0.000648714
0.000339766
0.000172345
8.50792e-05
4.12337e-05
1.96893e-05
9.28154e-06
4.3263e-06
1.99654e-06
9.1302e-07
4.13825e-07
1.85659e-07
8.2015e-08
3.52207e-08
1.42469e-08
4.94472e-09
8.81869e-10
1.16867e-07
5.12564e-07
1.18618e-06
2.33417e-06
4.28639e-06
7.59099e-06
1.31475e-05
2.2411e-05
3.76946e-05
6.26041e-05
0.000102629
0.000165904
0.000264091
0.000413298
0.000634787
0.000955215
0.00140606
0.00202207
0.0028388
0.00388965
0.00520303
0.0068002
0.00869402
0.0108888
0.0133807
0.0161588
0.0192061
0.0225009
0.0260177
0.0297289
0.033605
0.0376161
0.0417325
0.0459253
0.0501668
0.0544314
0.0586953
0.0629366
0.067135
0.0712732
0.0753358
0.0793097
0.083184
0.0869493
0.0905985
0.0941257
0.0975265
0.100798
0.103937
0.106942
0.109811
0.112541
0.115128
0.117563
0.119831
0.121911
0.123763
0.125326
0.12648
0.1271
0.126967
0.125665
0.122553
0.116571
0.108513
0.099409
0.0898861
0.0803342
0.0709976
0.0620394
0.0535762
0.0456765
0.038402
0.0318112
0.0257771
0.020243
0.0155562
0.011881
0.00832848
0.00554937
0.00350338
0.00209592
0.00119234
0.000648711
0.000339764
0.000172344
8.50789e-05
4.12336e-05
1.96893e-05
9.28152e-06
4.32629e-06
1.99653e-06
9.13018e-07
4.13824e-07
1.85659e-07
8.20147e-08
3.52205e-08
1.42469e-08
4.9447e-09
8.81865e-10
1.16721e-07
5.11925e-07
1.18472e-06
2.33131e-06
4.28118e-06
7.58184e-06
1.31318e-05
2.23843e-05
3.765e-05
6.25308e-05
0.00010251
0.000165713
0.000263792
0.000412836
0.00063409
0.000954188
0.00140459
0.00202002
0.00283601
0.00388597
0.0051983
0.00679427
0.00868677
0.0108801
0.0133705
0.016147
0.0191926
0.0224857
0.0260009
0.0297104
0.0335848
0.0375944
0.0417092
0.0459005
0.0501407
0.0544041
0.0586669
0.0629071
0.0671047
0.0712421
0.0753041
0.0792776
0.0831515
0.0869167
0.0905658
0.094093
0.0974941
0.100766
0.103905
0.106911
0.109781
0.112512
0.115099
0.117535
0.119805
0.121886
0.123741
0.125308
0.126467
0.127094
0.12697
0.125684
0.122597
0.116653
0.108616
0.0995229
0.0900039
0.0804515
0.0711116
0.062148
0.0536781
0.0457707
0.0384874
0.0318884
0.0258476
0.0203046
0.0156056
0.0119222
0.00836171
0.0055747
0.00352139
0.00210782
0.00119969
0.00065298
0.000342103
0.00017356
8.56844e-05
4.15258e-05
1.98273e-05
9.34553e-06
4.35552e-06
2.00969e-06
9.18874e-07
4.16397e-07
1.86777e-07
8.24935e-08
3.54205e-08
1.4326e-08
4.97173e-09
8.86656e-10
1.16428e-07
5.10645e-07
1.18177e-06
2.32554e-06
4.27067e-06
7.56334e-06
1.30999e-05
2.23302e-05
3.75593e-05
6.2381e-05
0.000102266
0.000165322
0.000263175
0.000411883
0.000632651
0.000952068
0.00140155
0.00201577
0.00283026
0.00387838
0.00518856
0.00678208
0.00867187
0.0108623
0.0133495
0.0161227
0.019165
0.0224547
0.0259665
0.0296726
0.0335438
0.0375501
0.041662
0.0458504
0.0500879
0.0543487
0.0586093
0.0628475
0.0670434
0.0711793
0.0752401
0.0792127
0.0830859
0.0868507
0.0904996
0.094027
0.0974284
0.100701
0.103841
0.106848
0.109719
0.112452
0.115041
0.117479
0.119752
0.121837
0.123697
0.12527
0.12644
0.12708
0.126977
0.125723
0.122686
0.11682
0.108826
0.0997543
0.0902432
0.0806899
0.0713436
0.0623692
0.053886
0.0459634
0.0386627
0.0320468
0.0259929
0.0204321
0.0157085
0.0120087
0.00843213
0.00562876
0.00356
0.00213336
0.00121538
0.000662003
0.000346998
0.000176091
8.69427e-05
4.2133e-05
2.01141e-05
9.47856e-06
4.41625e-06
2.03703e-06
9.31023e-07
4.2173e-07
1.89091e-07
8.34826e-08
3.58327e-08
1.44887e-08
5.02729e-09
8.96491e-10
1.15992e-07
5.08742e-07
1.17739e-06
2.31698e-06
4.25503e-06
7.53581e-06
1.30525e-05
2.22497e-05
3.74242e-05
6.21583e-05
0.000101904
0.00016474
0.000262258
0.000410467
0.000630513
0.000948918
0.00139703
0.00200947
0.0028217
0.00386711
0.00517409
0.00676397
0.00864972
0.0108357
0.0133184
0.0160867
0.019124
0.0224086
0.0259153
0.0296164
0.0334826
0.0374842
0.0415914
0.0457755
0.0500089
0.0542661
0.0585233
0.0627584
0.0669516
0.0710853
0.0751443
0.0791153
0.0829875
0.0867516
0.0904003
0.0939279
0.0973298
0.100603
0.103745
0.106753
0.109626
0.112361
0.114954
0.117395
0.119673
0.121764
0.12363
0.125214
0.1264
0.12706
0.126988
0.125781
0.12282
0.117074
0.109145
0.100105
0.0906057
0.0810511
0.071695
0.0627045
0.0542014
0.0462561
0.0389297
0.032288
0.026214
0.020627
0.015867
0.0121425
0.0085416
0.00571309
0.00362025
0.00217306
0.00123962
0.000675846
0.000354477
0.000179951
8.88587e-05
4.30575e-05
2.0551e-05
9.68132e-06
4.50887e-06
2.07875e-06
9.49576e-07
4.29876e-07
1.92626e-07
8.49945e-08
3.6463e-08
1.47375e-08
5.11226e-09
9.11535e-10
1.1542e-07
5.06241e-07
1.17163e-06
2.30572e-06
4.2345e-06
7.49966e-06
1.29902e-05
2.21441e-05
3.72482e-05
6.18659e-05
0.000101427
0.000163976
0.000261056
0.000408611
0.000627709
0.000944788
0.0013911
0.0020012
0.00281049
0.00385232
0.0051551
0.0067402
0.00862063
0.0108009
0.0132774
0.0160393
0.01907
0.0223479
0.0258478
0.0295422
0.0334019
0.0373971
0.0414982
0.0456765
0.0499045
0.0541566
0.0584092
0.0626403
0.0668299
0.0709605
0.0750168
0.0789858
0.0828565
0.0866196
0.0902679
0.0937954
0.0971979
0.100472
0.103615
0.106626
0.109502
0.11224
0.114836
0.117283
0.119566
0.121665
0.123542
0.125139
0.126346
0.127033
0.127002
0.125859
0.122999
0.117416
0.109575
0.100578
0.0910942
0.0815378
0.072169
0.0631571
0.0546277
0.0466524
0.039292
0.0326147
0.0265132
0.020891
0.0160822
0.0123237
0.00868965
0.00582713
0.00370195
0.00222714
0.00127277
0.000694837
0.000364752
0.000185255
9.14923e-05
4.43281e-05
2.11513e-05
9.95987e-06
4.63609e-06
2.13604e-06
9.75046e-07
4.41057e-07
1.97478e-07
8.70688e-08
3.73276e-08
1.50788e-08
5.22877e-09
9.32163e-10
1.14719e-07
5.03173e-07
1.16457e-06
2.29192e-06
4.20932e-06
7.45534e-06
1.29139e-05
2.20146e-05
3.70311e-05
6.1507e-05
0.000100844
0.000163041
0.000259583
0.000406337
0.000624277
0.000939732
0.00138385
0.00199108
0.00279676
0.00383421
0.00513185
0.00671107
0.00858498
0.0107582
0.0132271
0.0159811
0.0190036
0.0222732
0.0257648
0.0294509
0.0333024
0.0372897
0.0413832
0.0455542
0.0497754
0.0540212
0.0582679
0.0624937
0.0666787
0.0708052
0.0748582
0.0788245
0.0826931
0.0864548
0.0901023
0.0936297
0.0970326
0.100308
0.103453
0.106466
0.109344
0.112087
0.114688
0.11714
0.119431
0.121539
0.123429
0.125044
0.126279
0.126999
0.127016
0.125954
0.123223
0.117844
0.110114
0.101173
0.0917098
0.0821527
0.072769
0.0637313
0.0551695
0.047157
0.0397544
0.0330321
0.0268949
0.0212285
0.0163588
0.012557
0.0088807
0.00597459
0.00380784
0.00229739
0.00131593
0.0007196
0.000378165
0.000192184
9.49336e-05
4.59881e-05
2.19353e-05
1.03235e-05
4.80205e-06
2.21072e-06
1.00823e-06
4.55612e-07
2.03789e-07
8.97645e-08
3.84503e-08
1.55218e-08
5.37995e-09
9.58925e-10
1.13896e-07
4.99575e-07
1.15629e-06
2.27573e-06
4.17979e-06
7.40338e-06
1.28244e-05
2.18627e-05
3.67761e-05
6.10841e-05
0.000100159
0.000161946
0.000257859
0.000403676
0.000620261
0.000933817
0.00137536
0.00197924
0.0027807
0.00381302
0.00510463
0.00667697
0.00854323
0.0107081
0.0131681
0.0159129
0.0189258
0.0221855
0.0256673
0.0293435
0.0331853
0.0371631
0.0412474
0.0454097
0.0496226
0.0538607
0.0581003
0.0623197
0.0664989
0.0706204
0.0746691
0.0786319
0.0824977
0.0862575
0.0899037
0.0934307
0.0968339
0.10011
0.103257
0.106272
0.109154
0.111901
0.114507
0.116966
0.119266
0.121385
0.12329
0.124926
0.126193
0.126955
0.127034
0.12607
0.123493
0.118358
0.110764
0.101892
0.092457
0.0829011
0.0735011
0.0644335
0.0558334
0.0477762
0.0403229
0.0335459
0.0273635
0.0216431
0.0166988
0.0128427
0.00912263
0.00616003
0.00394062
0.00238566
0.00137033
0.000750896
0.000395149
0.000200967
9.92976e-05
4.80931e-05
2.29291e-05
1.07841e-05
5.01213e-06
2.30518e-06
1.05015e-06
4.73987e-07
2.11747e-07
9.31602e-08
3.98633e-08
1.60789e-08
5.56996e-09
9.92553e-10
1.12961e-07
4.95488e-07
1.14688e-06
2.25733e-06
4.14624e-06
7.34434e-06
1.27228e-05
2.16906e-05
3.64887e-05
6.06087e-05
9.93839e-05
0.000160702
0.000255902
0.000400659
0.00061571
0.000927119
0.00136576
0.00196584
0.00276253
0.00378904
0.00507383
0.00663837
0.00849596
0.0106514
0.0131013
0.0158355
0.0188374
0.0220859
0.0255563
0.0292212
0.0330518
0.0370186
0.0410923
0.0452444
0.0494476
0.0536766
0.0579078
0.0621194
0.0662917
0.0704071
0.0744505
0.0784089
0.0822712
0.0860282
0.0896727
0.0931988
0.0966019
0.0998789
0.103027
0.106045
0.108931
0.111682
0.114294
0.11676
0.119069
0.121201
0.123123
0.124784
0.12609
0.126901
0.127053
0.126205
0.123809
0.118964
0.111531
0.102743
0.0933438
0.0837913
0.0743736
0.0652722
0.0566271
0.0485172
0.0410036
0.0341598
0.0279208
0.0221294
0.0170733
0.0130437
0.00957072
0.00641837
0.00410833
0.00249482
0.00143757
0.000789688
0.000416252
0.000211896
0.000104731
5.07138e-05
2.41658e-05
1.13569e-05
5.27315e-06
2.42242e-06
1.10212e-06
4.96743e-07
2.21587e-07
9.73536e-08
4.16062e-08
1.67653e-08
5.80395e-09
1.03395e-09