/*--------------------------------*- C++ -*----------------------------------*\
  =========                 |
  \\      /  F ield         | OpenFOAM: The Open Source CFD Toolbox
   \\    /   O peration     | Website:  https://openfoam.org
    \\  /    A nd           | Version:  8
     \\/     M anipulation  |
\*---------------------------------------------------------------------------*/
FoamFile
{
    version     2.0;
    format      ascii;
    class       volScalarField;
    location    "0.1/fluid";
    object      H2O;
}
// * * * * * * * * * * * * * * * * * * * * * * * * * * * * * * * * * * * * * //

dimensions      [0 0 0 0 0 0 0];

internalField   nonuniform List<scalar> 
4000
(
7.80881e-08
3.4225e-07
7.90972e-07
1.55373e-06
2.84803e-06
5.03636e-06
8.71743e-06
1.48598e-05
2.50106e-05
4.16231e-05
6.84702e-05
0.000111229
0.00017819
0.000281031
0.000435513
0.000661855
0.00098451
0.00143112
0.00203062
0.00281081
0.0037958
0.00500406
0.00644622
0.00812671
0.0100425
0.0121849
0.0145402
0.017091
0.019817
0.0226961
0.0257054
0.0288213
0.0320209
0.0352827
0.0385851
0.0419086
0.0452353
0.0485499
0.0518369
0.0550828
0.0582785
0.0614139
0.0644805
0.0674714
0.0703809
0.0732047
0.0759394
0.0785826
0.0811325
0.083588
0.0859485
0.0882134
0.0903819
0.0924526
0.0944224
0.096286
0.0980338
0.0996496
0.101107
0.102363
0.103342
0.103937
0.103998
0.103245
0.101227
0.0972009
0.0912724
0.0843341
0.0769259
0.0693824
0.061914
0.0546541
0.047698
0.0411099
0.0349364
0.0292305
0.0240095
0.0191567
0.0148062
0.0112354
0.0081638
0.00542693
0.00340082
0.00199449
0.00109472
0.000565734
0.000277731
0.000131788
6.10346e-05
2.77383e-05
1.242e-05
5.49502e-06
2.40718e-06
1.04515e-06
4.49508e-07
1.90811e-07
7.90904e-08
3.10915e-08
1.05852e-08
1.87139e-09
7.8991e-08
3.46375e-07
8.01186e-07
1.5755e-06
2.89123e-06
5.11798e-06
8.86511e-06
1.51351e-05
2.55144e-05
4.24863e-05
6.98646e-05
0.000113386
0.000181408
0.000285644
0.000441844
0.000670134
0.000994751
0.00144302
0.00204351
0.00282368
0.00380743
0.00501316
0.0064536
0.00813341
0.0100481
0.0121894
0.0145442
0.0170953
0.0198227
0.0227044
0.0257174
0.0288382
0.0320438
0.0353111
0.0386195
0.0419501
0.0452847
0.0486049
0.0519005
0.0551581
0.0583632
0.0615066
0.0645801
0.0675769
0.0704916
0.0733199
0.0760584
0.0787047
0.0812573
0.0837149
0.0860769
0.0883427
0.0905116
0.0925819
0.0945504
0.0964116
0.0981552
0.0997644
0.101211
0.102451
0.103402
0.103959
0.103961
0.103111
0.100938
0.0966583
0.0905729
0.0835354
0.0760639
0.0684804
0.0609876
0.0537143
0.0467566
0.0401767
0.0340234
0.0283565
0.0231665
0.0183341
0.0140942
0.0107031
0.00748261
0.0049599
0.00307894
0.00178816
0.000975469
0.000503672
0.000248319
0.000118609
5.53758e-05
2.53827e-05
1.14603e-05
5.10946e-06
2.25355e-06
9.84233e-07
4.2546e-07
1.81386e-07
7.54589e-08
2.9753e-08
1.01506e-08
1.79637e-09
8.06042e-08
3.53588e-07
8.18457e-07
1.61088e-06
2.95866e-06
5.2404e-06
9.07721e-06
1.54732e-05
2.60631e-05
4.34186e-05
7.14118e-05
0.000115868
0.000185273
0.000291444
0.000450181
0.000681576
0.00100976
0.00146187
0.00206617
0.00284979
0.00383631
0.00504382
0.00648378
0.0081606
0.0100752
0.0122166
0.014572
0.0171247
0.0198549
0.0227407
0.0257591
0.0288866
0.0320998
0.0353759
0.0386925
0.0420341
0.0453823
0.0487209
0.0520309
0.0552995
0.0585156
0.0616693
0.0647524
0.0677581
0.0706809
0.0735164
0.0762613
0.0789131
0.0814703
0.0839317
0.0862966
0.0885643
0.090734
0.0928038
0.0947703
0.0966272
0.0983636
0.0999609
0.101389
0.1026
0.103503
0.103994
0.103894
0.102882
0.100449
0.0957574
0.0894247
0.08224
0.0746845
0.0670589
0.0595531
0.0522889
0.0453622
0.0388313
0.0327471
0.0271718
0.0220573
0.0173321
0.0132644
0.0100234
0.00697916
0.00455793
0.00280096
0.00161807
0.00088171
0.000456259
0.000225951
0.000108421
5.08666e-05
2.34282e-05
1.06259e-05
4.75701e-06
2.10578e-06
9.22638e-07
3.99944e-07
1.70922e-07
7.12545e-08
2.81461e-08
9.61402e-09
1.70238e-09
8.22243e-08
3.60773e-07
8.3538e-07
1.64479e-06
3.02206e-06
5.35507e-06
9.28152e-06
1.58346e-05
2.66611e-05
4.43318e-05
7.28916e-05
0.000118188
0.000188691
0.000296351
0.000457039
0.000690911
0.00102211
0.00147774
0.00208598
0.00287384
0.00386476
0.00507668
0.00652091
0.00820164
0.0101162
0.0122598
0.0146188
0.0171761
0.019912
0.0228046
0.0258311
0.0289682
0.032193
0.0354838
0.0388203
0.042178
0.0455396
0.0488888
0.0522103
0.0554906
0.0587182
0.0618831
0.0649769
0.0679925
0.0709245
0.0737683
0.0765205
0.0791787
0.0817413
0.0842069
0.086575
0.0888447
0.0910149
0.0930837
0.0950469
0.0968976
0.0986235
0.100205
0.101608
0.10278
0.103617
0.104019
0.103783
0.102561
0.099804
0.0946331
0.0880229
0.0806816
0.0730464
0.0653919
0.0578929
0.0506659
0.0437996
0.03735
0.0313698
0.0259113
0.0208896
0.016293
0.0124144
0.0092988
0.00637358
0.00412472
0.00251249
0.00144105
0.000781634
0.000403759
0.000200118
9.62685e-05
4.53279e-05
2.09666e-05
9.55384e-06
4.29791e-06
1.91189e-06
8.41716e-07
3.66542e-07
1.57315e-07
6.58381e-08
2.6089e-08
8.93052e-09
1.58294e-09
8.36982e-08
3.67239e-07
8.50475e-07
1.67492e-06
3.07807e-06
5.45551e-06
9.45689e-06
1.61345e-05
2.71639e-05
4.51598e-05
7.41058e-05
0.000120056
0.000191636
0.000300797
0.00046352
0.000700051
0.0010346
0.00149428
0.00210725
0.00290049
0.00389738
0.00511591
0.00656752
0.00825678
0.0101817
0.0123346
0.0147027
0.0172694
0.020015
0.0229179
0.0259552
0.0291035
0.0323397
0.0356412
0.0389864
0.042355
0.0457285
0.04909
0.0524239
0.0557165
0.0589562
0.0621326
0.0652373
0.0682631
0.0712044
0.0740566
0.0768162
0.0794807
0.0820485
0.0845182
0.086889
0.08916
0.09133
0.0933964
0.0953548
0.0971969
0.0989092
0.100469
0.101839
0.102961
0.103721
0.104011
0.103596
0.10209
0.0988749
0.0933094
0.0864684
0.0790012
0.0713097
0.0636472
0.0561749
0.0490057
0.0422199
0.0358714
0.0300169
0.0246844
0.0197558
0.015306
0.0116353
0.00862858
0.00584339
0.00374269
0.00226085
0.00128893
0.000696684
0.000359492
0.000178341
8.59665e-05
4.05865e-05
1.88313e-05
8.60909e-06
3.88602e-06
1.73458e-06
7.66261e-07
3.34803e-07
1.44156e-07
6.05159e-08
2.40391e-08
8.24265e-09
1.46215e-09
8.50953e-08
3.73321e-07
8.64433e-07
1.70237e-06
3.1286e-06
5.54483e-06
9.61091e-06
1.63954e-05
2.76003e-05
4.58843e-05
7.5308e-05
0.000121913
0.000194411
0.000304896
0.000469469
0.000708499
0.0010463
0.00151006
0.00212797
0.00292698
0.00393043
0.00515627
0.00661588
0.00831381
0.0102481
0.0124108
0.0147892
0.0173667
0.0201237
0.0230384
0.0260879
0.0292488
0.0324977
0.0358121
0.0391702
0.0425519
0.0459385
0.049313
0.0526597
0.0559649
0.0592164
0.0624042
0.0655195
0.0685551
0.0715052
0.0743652
0.0771316
0.0798018
0.082374
0.0848469
0.0872196
0.0894911
0.0916597
0.0937227
0.0956747
0.0975067
0.0992032
0.100739
0.102073
0.103135
0.103813
0.103976
0.103357
0.101527
0.0977828
0.0918967
0.0848711
0.0773089
0.0695839
0.0619311
0.0545
0.047401
0.0407057
0.0344668
0.0287447
0.0235345
0.0186927
0.0144191
0.0109645
0.00800181
0.00535328
0.00339758
0.00203646
0.00115368
0.000620893
0.000319682
0.000158546
7.65155e-05
3.61993e-05
1.68407e-05
7.72289e-06
3.49775e-06
1.56679e-06
6.94626e-07
3.04586e-07
1.31608e-07
5.54226e-08
2.20714e-08
7.58086e-09
1.3458e-09
8.64101e-08
3.79078e-07
8.77582e-07
1.72772e-06
3.17505e-06
5.62682e-06
9.75196e-06
1.66336e-05
2.79964e-05
4.65332e-05
7.63535e-05
0.000123561
0.000196959
0.000308749
0.000475162
0.000716698
0.0010578
0.00152573
0.00214875
0.00295381
0.00396423
0.00519788
0.00666611
0.00837338
0.0103176
0.012491
0.0148807
0.0174699
0.0202391
0.0231665
0.0262291
0.0294033
0.0326658
0.0359938
0.0393655
0.0427608
0.0461608
0.0495483
0.0529077
0.0562249
0.0594879
0.0626864
0.0658116
0.0688561
0.0718142
0.0746811
0.0774533
0.0801281
0.0827037
0.0851789
0.0875524
0.0898232
0.0919894
0.0940478
0.0959923
0.097813
0.0994926
0.101003
0.1023
0.1033
0.103895
0.10393
0.103109
0.100959
0.0966973
0.0905133
0.0833239
0.0756844
0.0679398
0.0603072
0.0529249
0.0459009
0.0392981
0.0331684
0.0275741
0.0224632
0.017736
0.0136479
0.0104313
0.00737204
0.00491576
0.00309909
0.00184425
0.00103864
0.000556788
0.00028611
0.000141848
6.85198e-05
3.24696e-05
1.5138e-05
6.95955e-06
3.16081e-06
1.42007e-06
6.31526e-07
2.77781e-07
1.20403e-07
5.08448e-08
2.02934e-08
6.98066e-09
1.24008e-09
8.76199e-08
3.84396e-07
8.89999e-07
1.75223e-06
3.21894e-06
5.70308e-06
9.88221e-06
1.6853e-05
2.83609e-05
4.71304e-05
7.7318e-05
0.000125088
0.000199338
0.000312383
0.000480583
0.000724577
0.00106894
0.00154106
0.00216927
0.00298055
0.00399819
0.00524003
0.00671732
0.00843446
0.0103893
0.0125739
0.0149754
0.017577
0.020359
0.0232995
0.0263754
0.0295633
0.0328394
0.0361811
0.0395663
0.0429749
0.0463879
0.049788
0.0531593
0.0564879
0.0597615
0.0629698
0.0661038
0.0691562
0.0721211
0.0749938
0.0777707
0.0804491
0.0830271
0.0855033
0.0878766
0.0901458
0.0923086
0.0943613
0.0962975
0.0981059
0.0997678
0.101253
0.102512
0.10345
0.103964
0.10388
0.102866
0.100411
0.0956655
0.0892086
0.0818744
0.0741712
0.0664163
0.0588094
0.0514816
0.0445317
0.0380184
0.031993
0.0265122
0.0214927
0.0168777
0.0129458
0.00983806
0.00686986
0.00454751
0.00284377
0.00167994
0.00094076
0.000502418
0.000257649
0.000127665
6.17088e-05
2.92814e-05
1.36771e-05
6.30205e-06
2.86948e-06
1.29274e-06
5.7657e-07
2.54359e-07
1.10575e-07
4.68157e-08
1.87239e-08
6.44972e-09
1.14647e-09
8.87313e-08
3.89251e-07
9.01079e-07
1.77366e-06
3.25853e-06
5.77317e-06
1.00033e-05
1.70584e-05
2.87041e-05
4.76963e-05
7.82423e-05
0.000126544
0.000201614
0.000315875
0.000485812
0.000732211
0.00107979
0.00155606
0.00218945
0.00300697
0.00403191
0.00528205
0.00676858
0.0084958
0.0104615
0.0126576
0.0150711
0.0176852
0.02048
0.0234337
0.026523
0.0297242
0.0330138
0.0363687
0.039767
0.0431882
0.0466135
0.0500253
0.0534077
0.0567466
0.0600298
0.0632467
0.0663885
0.0694477
0.0724183
0.0752957
0.0780761
0.0807569
0.0833363
0.0858126
0.0881849
0.0904514
0.09261
0.0946565
0.0965838
0.0983796
0.100024
0.101483
0.102705
0.103582
0.104019
0.103815
0.102617
0.0998765
0.0947
0.0880032
0.0805449
0.0727909
0.0650327
0.0574547
0.0501817
0.0433035
0.0368753
0.0309494
0.0255698
0.0206259
0.0161165
0.0123346
0.00932462
0.00645367
0.00423372
0.00262598
0.00154088
0.00085856
0.000456988
0.000233923
0.000115842
5.60225e-05
2.6613e-05
1.24504e-05
5.74801e-06
2.62306e-06
1.18461e-06
5.29714e-07
2.34327e-07
1.02134e-07
4.33425e-08
1.73671e-08
5.98979e-09
1.0653e-09
8.97658e-08
3.93758e-07
9.11433e-07
1.7941e-06
3.29604e-06
5.83945e-06
1.01176e-05
1.72523e-05
2.90282e-05
4.82286e-05
7.90906e-05
0.000127931
0.00020379
0.000319212
0.000490818
0.000739541
0.00109025
0.00157057
0.00220904
0.0030327
0.00406486
0.00532324
0.00681894
0.00855618
0.0105326
0.0127401
0.0151655
0.017792
0.0205994
0.0235659
0.0266681
0.0298823
0.0331846
0.0365521
0.0399626
0.0433957
0.0468323
0.0502549
0.0536473
0.0569955
0.0602871
0.0635115
0.0666598
0.0697247
0.0726999
0.0755809
0.0783639
0.0810462
0.083626
0.0861017
0.088472
0.0907354
0.0928891
0.0949289
0.0968467
0.0986294
0.100255
0.101688
0.102872
0.103691
0.104048
0.103719
0.102331
0.0992898
0.0937723
0.0868871
0.0793341
0.0715454
0.063792
0.0562454
0.0490259
0.0422155
0.0358671
0.030035
0.0247421
0.0198597
0.0154476
0.0118056
0.00887491
0.00608956
0.00396193
0.00244008
0.00142364
0.000789808
0.000419154
0.000214199
0.000106014
5.12901e-05
2.43881e-05
1.14253e-05
5.28383e-06
2.41604e-06
1.09352e-06
4.90128e-07
2.17355e-07
9.49611e-08
4.03832e-08
1.62084e-08
5.59642e-09
9.95834e-10
9.07354e-08
3.98005e-07
9.21303e-07
1.81356e-06
3.33153e-06
5.90194e-06
1.02252e-05
1.74345e-05
2.9332e-05
4.87285e-05
7.99014e-05
0.000129233
0.000205841
0.000322371
0.000495571
0.000746516
0.00110022
0.00158444
0.00222781
0.00305741
0.00409655
0.00536291
0.00686751
0.00861447
0.0106013
0.0128198
0.0152567
0.017895
0.0207146
0.0236933
0.0268077
0.030034
0.0333483
0.0367275
0.0401493
0.0435932
0.0470401
0.0504723
0.0538736
0.0572299
0.0605288
0.0637597
0.0669135
0.0699829
0.0729618
0.0758454
0.0786301
0.0813132
0.0838926
0.086367
0.0887349
0.0909946
0.0931432
0.0951759
0.0970841
0.0988536
0.100461
0.101867
0.103011
0.103775
0.104048
0.103588
0.101993
0.0986168
0.0928679
0.0858538
0.0782384
0.0704316
0.0626903
0.0551768
0.0480088
0.0412614
0.0349859
0.0292385
0.0240238
0.0191909
0.0148709
0.0113585
0.00848894
0.00577222
0.0037281
0.00228282
0.00132557
0.000732657
0.000387821
0.000197895
9.78938e-05
4.73773e-05
2.2546e-05
1.0575e-05
4.89798e-06
2.24355e-06
1.01744e-06
4.56982e-07
2.03105e-07
8.8923e-08
3.78862e-08
1.52289e-08
5.26345e-09
9.36993e-10
9.16498e-08
4.0202e-07
9.30578e-07
1.8317e-06
3.36462e-06
5.96018e-06
1.03255e-05
1.76044e-05
2.96167e-05
4.92012e-05
8.06723e-05
0.000130456
0.000207762
0.000325329
0.000500026
0.000753065
0.00110959
0.00159751
0.0022455
0.00308074
0.00412651
0.00540044
0.00691348
0.00866964
0.0106664
0.0128953
0.015343
0.0179924
0.0208233
0.0238134
0.0269392
0.0301767
0.033502
0.0368918
0.0403239
0.0437775
0.0472335
0.0506742
0.0540833
0.0574466
0.0607518
0.063988
0.0671464
0.0702194
0.0732011
0.0760866
0.0788722
0.0815554
0.0841341
0.0866067
0.0889719
0.0912278
0.0933712
0.095397
0.0972959
0.0990528
0.100642
0.102024
0.103129
0.10384
0.104034
0.10345
0.10166
0.0979685
0.092038
0.0849256
0.0772656
0.06945
0.0617241
0.054243
0.0471228
0.0404328
0.0342235
0.0285529
0.0234004
0.0186081
0.0143831
0.0109819
0.00813517
0.00548953
0.0035279
0.00215094
0.00124402
0.000685356
0.000361968
0.000184466
9.12095e-05
4.4155e-05
2.10275e-05
9.87306e-06
4.57892e-06
2.10066e-06
9.54288e-07
4.29412e-07
1.91226e-07
8.38785e-08
3.5796e-08
1.44077e-08
4.98397e-09
8.87582e-10
9.24958e-08
4.05721e-07
9.391e-07
1.84836e-06
3.39503e-06
6.01368e-06
1.04176e-05
1.77605e-05
2.98773e-05
4.96269e-05
8.1376e-05
0.000131583
0.000209532
0.000328058
0.000504139
0.000759115
0.00111826
0.00160959
0.00226189
0.00310236
0.00415428
0.00543524
0.00695611
0.00872081
0.0107267
0.0129652
0.0154229
0.0180825
0.0209237
0.0239242
0.0270603
0.030308
0.0336432
0.0370425
0.0404837
0.0439459
0.04741
0.0508581
0.0542739
0.0576431
0.0609535
0.0641942
0.0673562
0.0704321
0.0734158
0.0763025
0.0790886
0.0817715
0.084349
0.0868197
0.089182
0.0914341
0.0935725
0.0955917
0.0974821
0.0992274
0.100801
0.10216
0.103229
0.103893
0.104018
0.103323
0.101361
0.0973939
0.0913083
0.0841139
0.0764185
0.068598
0.060888
0.0534368
0.0463593
0.0397198
0.0335687
0.0279658
0.0228581
0.0181169
0.0139773
0.0106782
0.007835
0.00525444
0.00336332
0.0020424
0.00117687
0.000646478
0.000340763
0.000173467
8.57375e-05
4.15163e-05
1.9783e-05
9.29718e-06
4.31679e-06
1.98307e-06
9.02236e-07
4.06651e-07
1.814e-07
7.96977e-08
3.40608e-08
1.3725e-08
4.75143e-09
8.46453e-10
9.32593e-08
4.09059e-07
9.46785e-07
1.86339e-06
3.42244e-06
6.06193e-06
1.05006e-05
1.79012e-05
3.01122e-05
5.00155e-05
8.20096e-05
0.0001326
0.000211132
0.000330525
0.00050786
0.000764592
0.00112612
0.00162055
0.00227675
0.00312196
0.00417946
0.00546679
0.00699476
0.00876718
0.0107813
0.0130284
0.0154951
0.0181639
0.0210144
0.0240242
0.0271695
0.0304261
0.03377
0.0371777
0.0406268
0.0440964
0.0475674
0.0510218
0.0544433
0.0578176
0.0611322
0.0643766
0.0675415
0.0706195
0.0736047
0.0764922
0.0792783
0.0819605
0.0845367
0.0870053
0.0893649
0.0916132
0.093747
0.0957602
0.0976427
0.0993777
0.100937
0.102276
0.103314
0.103938
0.104002
0.103213
0.101102
0.0968981
0.0906803
0.083417
0.0756928
0.0678695
0.0601739
0.0527504
0.0457096
0.0391134
0.0330115
0.0274633
0.022402
0.0177188
0.0136708
0.0105138
0.0074683
0.00504304
0.00322607
0.00195306
0.00112184
0.00061473
0.000323493
0.000164523
8.12908e-05
3.93717e-05
1.8771e-05
8.82843e-06
4.10319e-06
1.88714e-06
8.59709e-07
3.88031e-07
1.73348e-07
7.62664e-08
3.26346e-08
1.31632e-08
4.55994e-09
8.12572e-10
9.39314e-08
4.11997e-07
9.53548e-07
1.87661e-06
3.44656e-06
6.10437e-06
1.05738e-05
1.80253e-05
3.03206e-05
5.03611e-05
8.25691e-05
0.000133495
0.000212541
0.0003327
0.000511143
0.000769426
0.00113305
0.00163022
0.00228988
0.00313928
0.0042017
0.00549466
0.00702887
0.00880809
0.0108294
0.0130842
0.0155588
0.0182356
0.0210942
0.024112
0.0272652
0.0305296
0.033881
0.0372958
0.0407517
0.0442276
0.0477045
0.0511641
0.0545903
0.0579687
0.0612869
0.064534
0.0677012
0.0707809
0.073767
0.0766549
0.0794408
0.0821222
0.0846969
0.0871635
0.0895204
0.0917653
0.0938947
0.0959025
0.0977781
0.0995039
0.101051
0.102373
0.103384
0.103973
0.103987
0.103118
0.100882
0.0964772
0.0901485
0.0828283
0.0750812
0.067257
0.0595747
0.0521757
0.0451663
0.0386066
0.0325462
0.0270428
0.0220184
0.0173793
0.0133925
0.0102801
0.00727038
0.00489123
0.00311737
0.00188081
0.00107732
0.000589114
0.000309592
0.000157335
7.7719e-05
3.76489e-05
1.79577e-05
8.45147e-06
3.93127e-06
1.80984e-06
8.25401e-07
3.72994e-07
1.66836e-07
7.34878e-08
3.14784e-08
1.27074e-08
4.40446e-09
7.85055e-10
9.4504e-08
4.14501e-07
9.5931e-07
1.88788e-06
3.46711e-06
6.14055e-06
1.06361e-05
1.8131e-05
3.04978e-05
5.0654e-05
8.30456e-05
0.000134259
0.000213744
0.000334556
0.000513945
0.000773555
0.00113897
0.00163849
0.00230109
0.00315407
0.0042207
0.00551845
0.00705799
0.008843
0.0108705
0.0131317
0.015613
0.0182966
0.021162
0.0241866
0.0273465
0.0306174
0.033975
0.0373957
0.0408572
0.0443384
0.0478199
0.0512839
0.0547139
0.0580956
0.0614165
0.0646659
0.0678348
0.0709156
0.0739024
0.0767904
0.079576
0.0822564
0.0848298
0.0872944
0.0896488
0.0918906
0.0940162
0.0960191
0.0978886
0.0996065
0.101143
0.102451
0.103439
0.104001
0.103975
0.10304
0.100698
0.0961266
0.0897072
0.0823417
0.0745774
0.0667537
0.0590836
0.0517058
0.0447229
0.0381936
0.0321678
0.0267011
0.0217059
0.0171031
0.0131661
0.0100891
0.00711398
0.00477051
0.00303068
0.0018233
0.00104198
0.000568844
0.000298612
0.000151663
7.49024e-05
3.62903e-05
1.7316e-05
8.1539e-06
3.79546e-06
1.74873e-06
7.9825e-07
3.61085e-07
1.61672e-07
7.12822e-08
3.05598e-08
1.2345e-08
4.28078e-09
7.63161e-10
9.49703e-08
4.16539e-07
9.64003e-07
1.89705e-06
3.48386e-06
6.17003e-06
1.06869e-05
1.82172e-05
3.06415e-05
5.08926e-05
8.34343e-05
0.000134882
0.000214725
0.000336071
0.000516232
0.000776924
0.00114381
0.00164523
0.00231024
0.00316613
0.00423619
0.00553785
0.00708173
0.00887144
0.010904
0.0131704
0.015657
0.0183461
0.0212171
0.0242471
0.0274124
0.0306885
0.0340511
0.0374766
0.0409425
0.0444278
0.0479131
0.0513804
0.0548134
0.0581976
0.0615206
0.0647717
0.0679418
0.0710235
0.0740107
0.0768986
0.0796837
0.0823633
0.0849354
0.0873984
0.0897506
0.0919898
0.0941122
0.0961112
0.0979757
0.0996873
0.101216
0.102512
0.103483
0.104023
0.103964
0.102976
0.100552
0.0958469
0.0893556
0.0819547
0.0741776
0.0663554
0.0586958
0.0513353
0.0443739
0.0378693
0.0318712
0.0264337
0.021461
0.016887
0.01299
0.00994074
0.00699279
0.00467715
0.00296381
0.00177903
0.00101485
0.000553299
0.000290202
0.000147321
7.27467e-05
3.52503e-05
1.68247e-05
7.92593e-06
3.69134e-06
1.70184e-06
7.77407e-07
3.51936e-07
1.57702e-07
6.95849e-08
2.98524e-08
1.20657e-08
4.18544e-09
7.46282e-10
9.53246e-08
4.18088e-07
9.67568e-07
1.90402e-06
3.49658e-06
6.19242e-06
1.07255e-05
1.82826e-05
3.07513e-05
5.10738e-05
8.37295e-05
0.000135355
0.000215471
0.000337223
0.000517973
0.000779489
0.00114749
0.00165037
0.0023172
0.00317532
0.00424798
0.00555261
0.00709978
0.00889307
0.0109294
0.0131998
0.0156905
0.0183838
0.0212588
0.024293
0.0274623
0.0307423
0.0341087
0.0375377
0.0410069
0.0444953
0.0479834
0.0514532
0.0548883
0.0582744
0.0615989
0.0648512
0.0680222
0.0711044
0.0740918
0.0769796
0.0797643
0.0824432
0.0850142
0.0874759
0.0898265
0.0920637
0.0941836
0.0961797
0.0980405
0.0997475
0.10127
0.102558
0.103516
0.10404
0.103955
0.102928
0.100442
0.0956394
0.0890948
0.0816676
0.0738809
0.0660598
0.0584081
0.0510609
0.0441158
0.0376297
0.0316527
0.0262364
0.0212801
0.0167276
0.0128604
0.00983137
0.0069033
0.0046082
0.00291453
0.00174655
0.000995015
0.000541973
0.000284082
0.000144164
7.11788e-05
3.44937e-05
1.64672e-05
7.75999e-06
3.61554e-06
1.6677e-06
7.62222e-07
3.45268e-07
1.54808e-07
6.83471e-08
2.93363e-08
1.18619e-08
4.11587e-09
7.33962e-10
9.55621e-08
4.19126e-07
9.69957e-07
1.9087e-06
3.50511e-06
6.20744e-06
1.07513e-05
1.83266e-05
3.0825e-05
5.11954e-05
8.39274e-05
0.000135673
0.000215971
0.000337996
0.00051914
0.000781208
0.00114996
0.00165381
0.00232187
0.00318148
0.00425589
0.00556251
0.00711189
0.00890758
0.0109464
0.0132195
0.015713
0.018409
0.0212869
0.0243238
0.0274958
0.0307784
0.0341472
0.0375786
0.04105
0.0445404
0.0480303
0.0515018
0.0549383
0.0583256
0.0616511
0.0649042
0.0680757
0.0711582
0.0741457
0.0770334
0.0798178
0.0824962
0.0850665
0.0875273
0.0898768
0.0921126
0.094231
0.0962251
0.0980836
0.0997875
0.101306
0.102588
0.103537
0.10405
0.103949
0.102896
0.100369
0.0955028
0.088923
0.0814783
0.0736852
0.0658648
0.0582183
0.0508799
0.0439457
0.0374721
0.0315093
0.0261067
0.0211612
0.0166232
0.0127761
0.00976054
0.00684565
0.00456396
0.00288293
0.00172566
0.000982178
0.000534592
0.000280078
0.000142092
7.01493e-05
3.39969e-05
1.62325e-05
7.65112e-06
3.56583e-06
1.64532e-06
7.52275e-07
3.40902e-07
1.52913e-07
6.75372e-08
2.89987e-08
1.17287e-08
4.07036e-09
7.25906e-10
9.56791e-08
4.19637e-07
9.71131e-07
1.91099e-06
3.50927e-06
6.21476e-06
1.07639e-05
1.83479e-05
3.08606e-05
5.1254e-05
8.40228e-05
0.000135825
0.000216212
0.000338367
0.0005197
0.000782033
0.00115114
0.00165547
0.00232412
0.00318445
0.0042597
0.00556729
0.00711776
0.00891461
0.0109547
0.0132291
0.0157239
0.0184213
0.0213006
0.0243389
0.0275122
0.0307961
0.0341661
0.0375987
0.0410712
0.0445626
0.0480534
0.0515257
0.0549629
0.0583508
0.0616769
0.0649303
0.0681021
0.0711848
0.0741723
0.07706
0.0798442
0.0825223
0.0850923
0.0875526
0.0899016
0.0921368
0.0942543
0.0962475
0.0981049
0.0998073
0.101324
0.102604
0.103548
0.104056
0.103947
0.102881
0.100333
0.0954356
0.0888385
0.0813852
0.0735889
0.0657688
0.0581251
0.0507911
0.0438623
0.0373949
0.0314393
0.0260435
0.0211035
0.0165728
0.0127357
0.00972686
0.00681846
0.00454323
0.0028682
0.00171592
0.000976161
0.000531096
0.000278163
0.000141097
6.96536e-05
3.37577e-05
1.61195e-05
7.59872e-06
3.54191e-06
1.63455e-06
7.47481e-07
3.38795e-07
1.51998e-07
6.71449e-08
2.88349e-08
1.16638e-08
4.0482e-09
7.21979e-10
9.56778e-08
4.19631e-07
9.71118e-07
1.91096e-06
3.50923e-06
6.21467e-06
1.07638e-05
1.83477e-05
3.08602e-05
5.12534e-05
8.40218e-05
0.000135824
0.000216209
0.000338363
0.000519694
0.000782026
0.00115113
0.00165545
0.0023241
0.00318442
0.00425968
0.00556726
0.00711772
0.00891457
0.0109547
0.0132291
0.0157239
0.0184213
0.0213005
0.0243388
0.0275121
0.030796
0.0341661
0.0375986
0.0410711
0.0445625
0.0480534
0.0515256
0.0549629
0.0583507
0.0616768
0.0649302
0.068102
0.0711847
0.0741722
0.0770599
0.0798441
0.0825222
0.0850922
0.0875525
0.0899015
0.0921367
0.0942542
0.0962474
0.0981048
0.0998072
0.101324
0.102603
0.103548
0.104056
0.103946
0.10288
0.100333
0.0954356
0.0888386
0.0813852
0.073589
0.0657689
0.0581251
0.0507911
0.0438623
0.0373949
0.0314393
0.0260435
0.0211035
0.0165728
0.0127357
0.00972686
0.00681845
0.00454322
0.00286819
0.00171591
0.000976157
0.000531094
0.000278162
0.000141096
6.96533e-05
3.37576e-05
1.61194e-05
7.5987e-06
3.5419e-06
1.63454e-06
7.4748e-07
3.38794e-07
1.51997e-07
6.71447e-08
2.88347e-08
1.16638e-08
4.04818e-09
7.21975e-10
9.55581e-08
4.19109e-07
9.69918e-07
1.90862e-06
3.50496e-06
6.20718e-06
1.07509e-05
1.83258e-05
3.08238e-05
5.11934e-05
8.39244e-05
0.000135668
0.000215964
0.000337985
0.000519124
0.000781185
0.00114992
0.00165377
0.00232182
0.00318141
0.0042558
0.00556241
0.00711178
0.00890745
0.0109463
0.0132194
0.0157128
0.0184088
0.0212867
0.0243236
0.0274956
0.0307782
0.034147
0.0375784
0.0410498
0.0445401
0.0480301
0.0515015
0.054938
0.0583253
0.0616508
0.0649039
0.0680754
0.0711579
0.0741454
0.0770331
0.0798175
0.0824959
0.0850662
0.087527
0.0898765
0.0921123
0.0942307
0.0962248
0.0980834
0.0997873
0.101306
0.102588
0.103537
0.10405
0.103949
0.102896
0.100369
0.095503
0.0889232
0.0814785
0.0736854
0.065865
0.0582185
0.05088
0.0439458
0.0374721
0.0315093
0.0261068
0.0211612
0.0166232
0.0127761
0.00976058
0.00684566
0.00456395
0.00288293
0.00172565
0.000982173
0.000534589
0.000280076
0.000142092
7.01491e-05
3.39968e-05
1.62324e-05
7.65111e-06
3.56583e-06
1.64532e-06
7.52274e-07
3.40901e-07
1.52913e-07
6.75367e-08
2.89984e-08
1.17285e-08
4.07031e-09
7.25897e-10
9.53183e-08
4.1806e-07
9.67505e-07
1.9039e-06
3.49636e-06
6.19204e-06
1.07248e-05
1.82815e-05
3.07494e-05
5.10707e-05
8.37246e-05
0.000135347
0.000215459
0.000337205
0.000517946
0.000779449
0.00114743
0.00165029
0.0023171
0.0031752
0.00424783
0.00555243
0.00709958
0.00889284
0.0109291
0.0131996
0.0156902
0.0183835
0.0212585
0.0242927
0.027462
0.030742
0.0341083
0.0375373
0.0410065
0.0444948
0.0479829
0.0514527
0.0548878
0.0582739
0.0615984
0.0648507
0.0680217
0.0711039
0.0740913
0.0769791
0.0797638
0.0824427
0.0850137
0.0874754
0.089826
0.0920632
0.0941832
0.0961793
0.0980402
0.0997471
0.101269
0.102558
0.103515
0.104039
0.103955
0.102928
0.100442
0.0956397
0.0890952
0.081668
0.0738813
0.0660601
0.0584084
0.0510611
0.044116
0.0376298
0.0316528
0.0262365
0.0212801
0.0167276
0.0128604
0.00983139
0.00690331
0.00460821
0.00291454
0.00174656
0.000995021
0.000541976
0.000284084
0.000144165
7.11792e-05
3.44939e-05
1.64672e-05
7.76002e-06
3.61555e-06
1.6677e-06
7.62221e-07
3.45266e-07
1.54807e-07
6.83465e-08
2.93359e-08
1.18618e-08
4.1158e-09
7.33949e-10
9.49619e-08
4.16502e-07
9.63918e-07
1.89689e-06
3.48356e-06
6.1695e-06
1.0686e-05
1.82157e-05
3.06389e-05
5.08884e-05
8.34276e-05
0.000134871
0.000214709
0.000336046
0.000516195
0.000776871
0.00114373
0.00164513
0.0023101
0.00316597
0.00423598
0.0055376
0.00708145
0.00887113
0.0109036
0.01317
0.0156566
0.0183457
0.0212166
0.0242466
0.0274119
0.030688
0.0340505
0.037476
0.0409419
0.0444272
0.0479125
0.0513798
0.0548127
0.0581969
0.0615199
0.064771
0.0679411
0.0710228
0.07401
0.0768979
0.079683
0.0823626
0.0849347
0.0873977
0.08975
0.0919892
0.0941116
0.0961106
0.0979752
0.0996868
0.101215
0.102512
0.103482
0.104023
0.103964
0.102976
0.100552
0.0958472
0.089356
0.0819552
0.0741781
0.0663558
0.0586961
0.0513356
0.0443742
0.0378695
0.0318714
0.0264339
0.0214612
0.0168872
0.0129902
0.00994092
0.00699293
0.00467725
0.00296387
0.00177907
0.00101487
0.00055331
0.000290207
0.000147324
7.27479e-05
3.52508e-05
1.68249e-05
7.92601e-06
3.69138e-06
1.70185e-06
7.77409e-07
3.51936e-07
1.57702e-07
6.95843e-08
2.9852e-08
1.20655e-08
4.18536e-09
7.46266e-10
9.44936e-08
4.14455e-07
9.59206e-07
1.88767e-06
3.46675e-06
6.13991e-06
1.0635e-05
1.81292e-05
3.04947e-05
5.06491e-05
8.30376e-05
0.000134246
0.000213724
0.000334526
0.0005139
0.000773489
0.00113888
0.00163836
0.00230092
0.00315386
0.00422044
0.00551814
0.00705764
0.0088426
0.0108701
0.0131312
0.0156124
0.018296
0.0211614
0.0241859
0.0273458
0.0306167
0.0339742
0.037395
0.0408564
0.0443376
0.0478191
0.0512831
0.054713
0.0580947
0.0614156
0.064665
0.0678339
0.0709147
0.0739015
0.0767895
0.0795751
0.0822555
0.0848289
0.0872936
0.089648
0.0918898
0.0940154
0.0960184
0.0978879
0.0996058
0.101142
0.10245
0.103438
0.104001
0.103975
0.103039
0.100699
0.0961272
0.0897078
0.0823424
0.074578
0.0667543
0.0590841
0.0517062
0.0447232
0.0381939
0.032168
0.0267014
0.0217061
0.0171033
0.0131664
0.0100893
0.00711414
0.00477062
0.00303075
0.00182334
0.00104201
0.000568857
0.000298619
0.000151666
7.4904e-05
3.6291e-05
1.73164e-05
8.15406e-06
3.79552e-06
1.74875e-06
7.98262e-07
3.6109e-07
1.61674e-07
7.12825e-08
3.05597e-08
1.23449e-08
4.28074e-09
7.63153e-10
9.39191e-08
4.11944e-07
9.53425e-07
1.87637e-06
3.44613e-06
6.10362e-06
1.05725e-05
1.80231e-05
3.03171e-05
5.03553e-05
8.25597e-05
0.00013348
0.000212518
0.000332665
0.00051109
0.00076935
0.00113294
0.00163008
0.00228968
0.00313903
0.0042014
0.00549429
0.00702845
0.00880761
0.0108289
0.0130836
0.0155581
0.0182349
0.0210934
0.0241112
0.0272644
0.0305288
0.0338801
0.0372949
0.0407507
0.0442267
0.0477034
0.0511631
0.0545892
0.0579676
0.0612858
0.0645329
0.0677001
0.0707798
0.0737659
0.0766538
0.0794398
0.0821211
0.0846959
0.0871625
0.0895194
0.0917643
0.0938938
0.0959016
0.0977772
0.0995031
0.10105
0.102373
0.103383
0.103973
0.103987
0.103118
0.100882
0.0964779
0.0901493
0.0828292
0.075082
0.0672577
0.0595753
0.0521763
0.0451668
0.038607
0.0325466
0.0270431
0.0220186
0.0173796
0.0133928
0.0102803
0.00727055
0.00489135
0.00311744
0.00188085
0.00107734
0.00058913
0.000309601
0.000157339
7.77213e-05
3.76501e-05
1.79583e-05
8.45174e-06
3.9314e-06
1.8099e-06
8.25426e-07
3.73005e-07
1.6684e-07
7.34894e-08
3.1479e-08
1.27076e-08
4.40451e-09
7.85063e-10
9.32452e-08
4.08998e-07
9.46645e-07
1.86312e-06
3.42195e-06
6.06108e-06
1.04992e-05
1.78988e-05
3.01083e-05
5.00091e-05
8.19992e-05
0.000132583
0.000211107
0.000330486
0.000507802
0.000764508
0.001126
0.00162039
0.00227654
0.00312169
0.00417912
0.00546638
0.00699427
0.00876662
0.0107806
0.0130277
0.0154944
0.0181631
0.0210136
0.0240233
0.0271685
0.0304251
0.0337689
0.0371765
0.0406256
0.0440953
0.0475662
0.0510206
0.054442
0.0578163
0.061131
0.0643752
0.0675402
0.0706182
0.0736034
0.0764909
0.0792771
0.0819592
0.0845354
0.0870041
0.0893637
0.091612
0.0937458
0.0957591
0.0976417
0.0993767
0.100936
0.102276
0.103313
0.103937
0.104002
0.103212
0.101102
0.0968988
0.0906812
0.083418
0.0756937
0.0678704
0.0601747
0.0527512
0.0457103
0.0391139
0.033012
0.0274637
0.0224023
0.017719
0.0136712
0.0105142
0.00746861
0.00504317
0.00322615
0.00195312
0.00112188
0.000614752
0.000323505
0.00016453
8.12941e-05
3.93734e-05
1.87718e-05
8.82884e-06
4.10339e-06
1.88723e-06
8.59749e-07
3.88049e-07
1.73355e-07
7.62694e-08
3.26358e-08
1.31636e-08
4.56007e-09
8.12594e-10
9.24799e-08
4.05652e-07
9.38943e-07
1.84806e-06
3.39449e-06
6.01275e-06
1.0416e-05
1.77579e-05
2.9873e-05
4.96198e-05
8.13647e-05
0.000131565
0.000209505
0.000328016
0.000504076
0.000759024
0.00111814
0.00160942
0.00226166
0.00310206
0.0041539
0.00543478
0.00695556
0.00872018
0.0107259
0.0129644
0.015422
0.0180815
0.0209227
0.0239231
0.0270592
0.0303068
0.0336419
0.0370412
0.0404823
0.0439445
0.0474086
0.0508566
0.0542724
0.0576417
0.060952
0.0641927
0.0673547
0.0704306
0.0734143
0.076301
0.0790871
0.08177
0.0843475
0.0868182
0.0891806
0.0914327
0.0935712
0.0955905
0.0974809
0.0992263
0.1008
0.102159
0.103228
0.103893
0.104018
0.103323
0.101361