/*--------------------------------*- C++ -*----------------------------------*\
  =========                 |
  \\      /  F ield         | OpenFOAM: The Open Source CFD Toolbox
   \\    /   O peration     | Website:  https://openfoam.org
    \\  /    A nd           | Version:  8
     \\/     M anipulation  |
\*---------------------------------------------------------------------------*/
FoamFile
{
    version     2.0;
    format      ascii;
    class       volScalarField;
    location    "0.1/fluid";
    object      N2;
}
// * * * * * * * * * * * * * * * * * * * * * * * * * * * * * * * * * * * * * //

dimensions      [0 0 0 0 0 0 0];

internalField   nonuniform List<scalar> 
4000
(
1.3928e-05
5.98766e-05
0.000132945
0.000246258
0.000418761
0.000677599
0.00106131
0.00162373
0.00243896
0.00360796
0.00526414
0.00757937
0.0107675
0.0150827
0.0208111
0.0282518
0.0376888
0.0493566
0.0634065
0.0798829
0.0987148
0.119724
0.142654
0.167192
0.192996
0.219719
0.247024
0.274599
0.302158
0.329454
0.356272
0.382433
0.407793
0.432229
0.455663
0.478035
0.499307
0.519458
0.538484
0.556392
0.573203
0.588946
0.603656
0.617374
0.630143
0.642009
0.653019
0.663221
0.672662
0.681388
0.689444
0.696875
0.703722
0.710026
0.715824
0.721154
0.726048
0.730541
0.734661
0.738438
0.741874
0.744978
0.747825
0.750501
0.75296
0.755228
0.75733
0.759283
0.761095
0.762769
0.764307
0.765707
0.766964
0.768075
0.769034
0.769835
0.770477
0.770973
0.771308
0.771472
0.771497
0.771393
0.77119
0.770936
0.770682
0.770463
0.770296
0.770182
0.770108
0.770062
0.770035
0.77002
0.770011
0.770006
0.770003
0.770002
0.770001
0.77
0.77
0.77
1.39314e-05
5.99074e-05
0.000133082
0.000246692
0.000419877
0.000680075
0.00106622
0.00163325
0.00245625
0.00363648
0.00530754
0.00764158
0.010852
0.0151915
0.0209429
0.0284009
0.037844
0.0495019
0.0635232
0.0799535
0.0987272
0.119676
0.142547
0.167028
0.192778
0.219456
0.246729
0.274283
0.301836
0.329136
0.355969
0.382152
0.407536
0.432015
0.455492
0.477906
0.499219
0.519411
0.538476
0.556422
0.573269
0.589045
0.603785
0.617528
0.630319
0.642204
0.653229
0.663443
0.672893
0.681625
0.689686
0.697119
0.703967
0.71027
0.716066
0.721393
0.726283
0.730771
0.734886
0.738658
0.74208
0.745178
0.748024
0.750697
0.753151
0.755415
0.757514
0.759463
0.761271
0.762942
0.764474
0.765868
0.767116
0.768216
0.769162
0.769946
0.770572
0.771051
0.771362
0.771501
0.771506
0.771381
0.771165
0.770907
0.770656
0.770444
0.770285
0.770175
0.770104
0.770061
0.770034
0.770019
0.770011
0.770006
0.770003
0.770002
0.770001
0.77
0.77
0.77
1.3979e-05
6.01307e-05
0.00013366
0.00024797
0.000422462
0.000684927
0.00107469
0.00164653
0.00247696
0.00366937
0.00535817
0.00771617
0.0109575
0.0153336
0.0211244
0.0286197
0.0380927
0.0497672
0.063787
0.0801945
0.0989237
0.119809
0.142604
0.167008
0.192691
0.21931
0.246535
0.274056
0.301589
0.328884
0.355725
0.381929
0.407346
0.431859
0.455376
0.477836
0.499198
0.519441
0.538558
0.556553
0.573447
0.589265
0.604043
0.61782
0.63064
0.642549
0.653595
0.663824
0.673287
0.682028
0.690094
0.69753
0.704378
0.710679
0.716471
0.721792
0.726675
0.731154
0.735259
0.73902
0.742409
0.745488
0.748375
0.751027
0.753467
0.75572
0.75781
0.759752
0.761551
0.763211
0.764732
0.766111
0.767342
0.768421
0.769343
0.7701
0.770699
0.771148
0.771424
0.771535
0.771512
0.771367
0.77114
0.77088
0.770633
0.770428
0.770274
0.770169
0.770101
0.770059
0.770033
0.770019
0.77001
0.770006
0.770003
0.770001
0.770001
0.77
0.77
0.77
1.40074e-05
6.02646e-05
0.00013401
0.000248758
0.000424085
0.000688075
0.00108054
0.0016571
0.00249419
0.00369454
0.00539612
0.00777088
0.0110307
0.0154278
0.0212406
0.0287573
0.0382484
0.0499347
0.0639577
0.0803581
0.0990695
0.119927
0.142686
0.167049
0.192689
0.219273
0.246469
0.27397
0.301493
0.328789
0.355639
0.381863
0.407308
0.431856
0.455416
0.477924
0.499336
0.51963
0.538795
0.556836
0.573773
0.58963
0.604444
0.618252
0.631099
0.643031
0.654095
0.664339
0.673811
0.682559
0.690629
0.698065
0.70491
0.711206
0.71699
0.722301
0.727173
0.73164
0.735732
0.73948
0.742828
0.745887
0.748771
0.751413
0.753841
0.756084
0.758164
0.760095
0.761882
0.763527
0.765031
0.766389
0.767596
0.768648
0.769538
0.770262
0.770831
0.771245
0.771483
0.771564
0.771512
0.771345
0.771106
0.770845
0.770603
0.770405
0.770259
0.770159
0.770095
0.770056
0.770032
0.770018
0.77001
0.770005
0.770003
0.770001
0.770001
0.77
0.77
0.77
1.40211e-05
6.03326e-05
0.000134204
0.000249229
0.000425122
0.000690178
0.00108451
0.00166417
0.00250617
0.00371404
0.00542343
0.00781002
0.0110874
0.0155054
0.021342
0.0288839
0.0383995
0.0501074
0.0641466
0.080556
0.0992684
0.120119
0.142865
0.167211
0.192832
0.219395
0.246575
0.274065
0.301585
0.328887
0.355752
0.381998
0.407472
0.432054
0.455651
0.478198
0.499651
0.519984
0.539188
0.557267
0.574238
0.590127
0.604969
0.618802
0.63167
0.643619
0.654695
0.664949
0.674427
0.683177
0.691245
0.698677
0.705515
0.7118
0.717573
0.72287
0.727726
0.732174
0.736247
0.739971
0.743291
0.746336
0.749202
0.751829
0.754243
0.756473
0.75854
0.760457
0.762228
0.763856
0.765338
0.766672
0.767852
0.768873
0.769729
0.770419
0.770957
0.771334
0.771534
0.771585
0.771506
0.77132
0.771072
0.77081
0.770574
0.770384
0.770245
0.770151
0.77009
0.770053
0.77003
0.770017
0.770009
0.770005
0.770003
0.770001
0.770001
0.77
0.77
0.77
1.40218e-05
6.03432e-05
0.000134261
0.000249422
0.000425636
0.000691339
0.00108686
0.00166857
0.00251392
0.00372715
0.0054451
0.00784211
0.0111324
0.0155668
0.0214233
0.0289881
0.0385287
0.0502619
0.0643252
0.0807558
0.0994854
0.120349
0.143104
0.167455
0.193079
0.219644
0.246828
0.274324
0.301854
0.329169
0.356052
0.382319
0.407818
0.432427
0.456054
0.478632
0.500116
0.52048
0.539714
0.557821
0.574818
0.59073
0.605592
0.619442
0.632323
0.644281
0.655364
0.66562
0.675098
0.683844
0.691906
0.699329
0.706155
0.712427
0.718183
0.723463
0.7283
0.732729
0.736781
0.740471
0.74377
0.746791
0.749639
0.752248
0.754646
0.756862
0.758915
0.760815
0.762569
0.764176
0.765636
0.766944
0.768095
0.769085
0.769907
0.770563
0.771072
0.771411
0.771574
0.771598
0.771494
0.771291
0.771035
0.770775
0.770545
0.770363
0.770231
0.770142
0.770085
0.77005
0.770028
0.770016
0.770009
0.770005
0.770003
0.770001
0.770001
0.77
0.77
0.77
1.40159e-05
6.03247e-05
0.000134251
0.000249484
0.000425908
0.000692081
0.00108852
0.00167186
0.00251994
0.00373747
0.00546188
0.00786809
0.0111709
0.0156216
0.0214987
0.0290879
0.038656
0.0504189
0.0645124
0.0809723
0.0997292
0.120617
0.143394
0.167764
0.193405
0.219987
0.247186
0.274699
0.302247
0.329581
0.356484
0.382773
0.408296
0.43293
0.456583
0.479185
0.500694
0.521082
0.540338
0.558465
0.575479
0.591407
0.60628
0.620139
0.633026
0.644987
0.65607
0.666323
0.675794
0.684532
0.692582
0.699991
0.706802
0.713056
0.718793
0.724052
0.728868
0.733275
0.737306
0.740953
0.744232
0.747237
0.750066
0.752655
0.755036
0.757235
0.759272
0.761156
0.762891
0.764478
0.765915
0.767197
0.768319
0.769278
0.770066
0.770693
0.77117
0.771474
0.771605
0.771605
0.771477
0.77126
0.771
0.770741
0.770518
0.770343
0.770218
0.770134
0.77008
0.770047
0.770027
0.770015
0.770008
0.770005
0.770002
0.770001
0.770001
0.77
0.77
0.77
1.40075e-05
6.02947e-05
0.000134212
0.000249485
0.000426058
0.000692597
0.00108978
0.00167449
0.00252489
0.00374616
0.00547628
0.00789077
0.0112052
0.0156718
0.0215691
0.0291832
0.0387804
0.0505758
0.064704
0.0811994
0.0999913
0.120913
0.143721
0.16812
0.193788
0.220396
0.247619
0.275156
0.302726
0.330083
0.357009
0.383321
0.408866
0.433523
0.457196
0.47982
0.501348
0.521753
0.541024
0.559164
0.576189
0.592124
0.607003
0.620864
0.633751
0.645709
0.656786
0.66703
0.67649
0.685215
0.69325
0.700641
0.707433
0.713667
0.719383
0.724619
0.729411
0.733792
0.737796
0.74139
0.744634
0.747686
0.750481
0.753044
0.755403
0.757584
0.759605
0.761471
0.763188
0.764754
0.766168
0.767425
0.76852
0.76945
0.770208
0.770807
0.771253
0.771524
0.77163
0.771604
0.771457
0.771228
0.770965
0.77071
0.770493
0.770325
0.770206
0.770126
0.770076
0.770044
0.770025
0.770014
0.770008
0.770004
0.770002
0.770001
0.770001
0.77
0.77
0.77
1.4e-05
6.02677e-05
0.000134176
0.000249484
0.000426194
0.000693068
0.00109094
0.00167692
0.00252949
0.00375429
0.00548998
0.00791236
0.0112383
0.0157204
0.0216381
0.0292776
0.038905
0.0507349
0.0649005
0.0814352
0.100267
0.121227
0.144072
0.168507
0.194209
0.220847
0.2481
0.275664
0.303261
0.330643
0.357593
0.383927
0.409493
0.434169
0.45786
0.4805
0.502042
0.522459
0.54174
0.559887
0.576917
0.592855
0.607733
0.621591
0.634472
0.646422
0.657489
0.667721
0.677166
0.685874
0.693891
0.701263
0.708034
0.714246
0.719939
0.725152
0.729921
0.73428
0.738262
0.741805
0.745032
0.748069
0.750846
0.75339
0.755733
0.7579
0.759905
0.761755
0.763454
0.765002
0.766394
0.767628
0.768698
0.7696
0.77033
0.770905
0.771323
0.771564
0.771647
0.771599
0.771436
0.771198
0.770933
0.770681
0.77047
0.770309
0.770195
0.77012
0.770072
0.770042
0.770024
0.770014
0.770008
0.770004
0.770002
0.770001
0.770001
0.77
0.77
0.77
1.39949e-05
6.02508e-05
0.00013416
0.000249513
0.000426366
0.00069357
0.0010921
0.0016793
0.00253395
0.00376211
0.00550278
0.00793333
0.0112705
0.0157679
0.0217057
0.0293706
0.0390287
0.0508939
0.0650986
0.0816746
0.100548
0.121551
0.144437
0.168911
0.194649
0.221322
0.248607
0.276201
0.303825
0.331232
0.358205
0.38456
0.410146
0.434838
0.458544
0.481196
0.502749
0.523174
0.54246
0.56061
0.57764
0.593575
0.608448
0.622299
0.635171
0.647109
0.658162
0.668379
0.677808
0.686497
0.694494
0.701845
0.708594
0.714784
0.720454
0.725643
0.730388
0.734723
0.738681
0.742189
0.745392
0.748412
0.751171
0.7537
0.756028
0.758181
0.760172
0.762008
0.763691
0.765221
0.766594
0.767806
0.768853
0.76973
0.770436
0.770989
0.771381
0.771596
0.771659
0.771591
0.771414
0.771169
0.770903
0.770655
0.77045
0.770295
0.770186
0.770114
0.770068
0.77004
0.770023
0.770013
0.770007
0.770004
0.770002
0.770001
0.770001
0.77
0.77
0.77
1.39928e-05
6.0246e-05
0.000134169
0.000249581
0.000426589
0.000694131
0.00109332
0.0016817
0.00253837
0.00376978
0.00551549
0.00795367
0.0113018
0.0158143
0.0217719
0.0294619
0.0391504
0.0510509
0.0652948
0.0819127
0.10083
0.121875
0.144804
0.169318
0.195094
0.221803
0.24912
0.276744
0.304396
0.331827
0.358822
0.385197
0.410799
0.435506
0.459224
0.481885
0.503444
0.523873
0.543161
0.56131
0.578336
0.594266
0.609131
0.622972
0.635832
0.647756
0.658794
0.668993
0.678404
0.687074
0.69505
0.70238
0.709107
0.715274
0.720921
0.726087
0.730809
0.73512
0.739052
0.742534
0.745714
0.748717
0.751461
0.753974
0.756289
0.75843
0.760408
0.762231
0.763899
0.765413
0.766768
0.76796
0.768987
0.769841
0.770526
0.771061
0.771429
0.77162
0.771666
0.771582
0.771393
0.771142
0.770876
0.770632
0.770433
0.770283
0.770178
0.770109
0.770065
0.770038
0.770022
0.770012
0.770007
0.770004
0.770002
0.770001
0.77
0.77
0.77
0.77
1.39935e-05
6.02527e-05
0.000134201
0.000249684
0.00042686
0.000694748
0.0010946
0.00168414
0.00254277
0.0037774
0.00552808
0.00797349
0.011332
0.015859
0.0218357
0.02955
0.0392681
0.0512029
0.0654852
0.0821443
0.101104
0.122192
0.145162
0.169716
0.19553
0.222273
0.249623
0.277276
0.304954
0.332409
0.359424
0.385816
0.411432
0.436151
0.459878
0.482546
0.504109
0.524539
0.543826
0.561971
0.578992
0.594913
0.609769
0.623598
0.636444
0.648353
0.659374
0.669556
0.678948
0.687598
0.695554
0.702863
0.709569
0.715714
0.72134
0.726485
0.731186
0.735477
0.739378
0.742841
0.746004
0.748989
0.751716
0.754216
0.756519
0.758648
0.760615
0.762425
0.76408
0.765579
0.766918
0.768093
0.769101
0.769936
0.770603
0.771121
0.771469
0.771639
0.771669
0.771571
0.771373
0.771118
0.770852
0.770612
0.770417
0.770272
0.770171
0.770105
0.770063
0.770037
0.770021
0.770012
0.770007
0.770004
0.770002
0.770001
0.77
0.77
0.77
0.77
1.39964e-05
6.02684e-05
0.000134251
0.000249815
0.000427166
0.000695402
0.00109589
0.00168655
0.00254706
0.0037846
0.00554007
0.00799239
0.0113608
0.0159014
0.0218962
0.0296335
0.0393796
0.051347
0.0656658
0.0823641
0.101364
0.122493
0.145503
0.170095
0.195945
0.222721
0.250101
0.277782
0.305484
0.33296
0.359993
0.3864
0.412029
0.436757
0.460491
0.483163
0.504728
0.525158
0.544441
0.562581
0.579594
0.595506
0.61035
0.624167
0.636999
0.648893
0.659897
0.670061
0.679435
0.688066
0.696003
0.703292
0.709978
0.716104
0.72171
0.726835
0.731517
0.73579
0.739662
0.743108
0.746254
0.749224
0.751937
0.754425
0.756718
0.758837
0.760793
0.762592
0.764235
0.765722
0.767046
0.768206
0.769198
0.770015
0.770668
0.771171
0.7715
0.771653
0.77167
0.771561
0.771355
0.771097
0.770832
0.770595
0.770404
0.770263
0.770165
0.770101
0.77006
0.770035
0.77002
0.770012
0.770006
0.770004
0.770002
0.770001
0.77
0.77
0.77
0.77
1.40009e-05
6.02904e-05
0.000134312
0.000249963
0.00042749
0.000696063
0.00109716
0.00168888
0.00255113
0.00379147
0.00555127
0.00801
0.0113876
0.0159407
0.0219523
0.0297108
0.0394827
0.0514803
0.0658328
0.0825674
0.101605
0.122772
0.145818
0.170446
0.196329
0.223136
0.250543
0.278248
0.305972
0.333467
0.360516
0.386937
0.412576
0.437311
0.46105
0.483724
0.505289
0.525717
0.544995
0.563129
0.580134
0.596036
0.610869
0.624673
0.637491
0.64937
0.660358
0.670506
0.679862
0.688476
0.696395
0.703666
0.710334
0.716441
0.722029
0.727137
0.731802
0.736058
0.739904
0.743335
0.746468
0.749426
0.752127
0.754605
0.756888
0.758998
0.760945
0.762734
0.764367
0.765842
0.767155
0.768302
0.769279
0.770082
0.770722
0.77121
0.771524
0.771663
0.771671
0.771551
0.771338
0.771078
0.770814
0.77058
0.770393
0.770256
0.77016
0.770098
0.770059
0.770034
0.77002
0.770011
0.770006
0.770003
0.770002
0.770001
0.77
0.77
0.77
0.77
1.40063e-05
6.03158e-05
0.000134379
0.000250115
0.000427811
0.000696701
0.00109837
0.00169106
0.00255491
0.00379783
0.00556147
0.00802594
0.0114117
0.0159762
0.0220027
0.0297802
0.0395753
0.0516
0.0659828
0.0827498
0.101821
0.123022
0.146101
0.17076
0.196673
0.223507
0.250939
0.278666
0.306408
0.33392
0.360983
0.387414
0.413061
0.437802
0.461544
0.48422
0.505784
0.526208
0.545482
0.563609
0.580605
0.596498
0.61132
0.625112
0.637917
0.649782
0.660756
0.670888
0.680229
0.688826
0.696729
0.703984
0.710635
0.716726
0.722298
0.72739
0.732039
0.73628
0.740101
0.743522
0.74665
0.749599
0.75229
0.754758
0.757033
0.759135
0.761073
0.762854
0.764477
0.765943
0.767245
0.768381
0.769347
0.770137
0.770766
0.771242
0.771543
0.771672
0.77167
0.771542
0.771324
0.771062
0.770799
0.770568
0.770384
0.770249
0.770156
0.770096
0.770057
0.770034
0.770019
0.770011
0.770006
0.770003
0.770002
0.770001
0.77
0.77
0.77
0.77
1.40118e-05
6.03416e-05
0.000134445
0.000250262
0.000428112
0.000697285
0.00109945
0.00169299
0.00255824
0.00380337
0.00557039
0.00803983
0.0114327
0.016007
0.0220464
0.0298404
0.0396555
0.0517036
0.0661125
0.0829077
0.102008
0.123238
0.146346
0.171032
0.19697
0.223827
0.25128
0.279025
0.306784
0.334309
0.361383
0.387823
0.413476
0.438222
0.461966
0.484642
0.506204
0.526626
0.545894
0.564015
0.581004
0.596888
0.6117
0.625481
0.638274
0.650126
0.661088
0.671207
0.680533
0.689117
0.697006
0.704246
0.710883
0.71696
0.722517
0.727594
0.732227
0.736452
0.740245
0.743642
0.746838
0.74976
0.752433
0.754889
0.757154
0.759248
0.761179
0.762952
0.764568
0.766025
0.767318
0.768445
0.769401
0.770181
0.770801
0.771267
0.771557
0.771678
0.771668
0.771533
0.771312
0.771048
0.770787
0.770558
0.770377
0.770244
0.770153
0.770094
0.770056
0.770033
0.770019
0.770011
0.770006
0.770003
0.770002
0.770001
0.77
0.77
0.77
0.77
1.4017e-05
6.03653e-05
0.000134505
0.000250391
0.000428373
0.000697787
0.00110037
0.00169463
0.00256102
0.003808
0.0055778
0.00805136
0.0114501
0.0160324
0.0220825
0.02989
0.0397216
0.051789
0.0662194
0.0830376
0.102162
0.123416
0.146547
0.171256
0.197214
0.22409
0.25156
0.279321
0.307092
0.334628
0.361711
0.388158
0.413816
0.438565
0.46231
0.484986
0.506546
0.526964
0.546229
0.564344
0.581326
0.597202
0.612006
0.625777
0.63856
0.650403
0.661353
0.671461
0.680776
0.689349
0.697226
0.704454
0.711079
0.717144
0.72269
0.727755
0.732378
0.736592
0.74037
0.743762
0.746959
0.749876
0.752542
0.754991
0.75725
0.759337
0.761262
0.763029
0.764639
0.766089
0.767375
0.768495
0.769443
0.770216
0.770828
0.771287
0.771568
0.771682
0.771666
0.771527
0.771302
0.771038
0.770777
0.77055
0.770371
0.77024
0.770151
0.770092
0.770055
0.770032
0.770019
0.770011
0.770006
0.770003
0.770002
0.770001
0.77
0.77
0.77
0.77
1.40213e-05
6.03848e-05
0.000134553
0.000250495
0.000428581
0.000698182
0.0011011
0.0016959
0.00256319
0.00381157
0.00558351
0.00806022
0.0114634
0.0160519
0.0221102
0.0299281
0.0397723
0.0518544
0.0663012
0.0831372
0.10228
0.123552
0.146701
0.171427
0.197401
0.224291
0.251775
0.279546
0.307328
0.334871
0.361961
0.388413
0.414075
0.438825
0.462572
0.485247
0.506806
0.527221
0.546482
0.564592
0.581569
0.597439
0.612236
0.626
0.638776
0.65061
0.661552
0.671651
0.680958
0.689521
0.697389
0.704609
0.711225
0.717282
0.722819
0.727876
0.732491
0.736699
0.740465
0.743852
0.747046
0.749959
0.752621
0.755065
0.75732
0.759403
0.761324
0.763086
0.764691
0.766137
0.767418
0.768531
0.769474
0.770241
0.770848
0.771301
0.771576
0.771686
0.771665
0.771521
0.771295
0.77103
0.77077
0.770544
0.770367
0.770238
0.770149
0.770091
0.770054
0.770032
0.770018
0.77001
0.770006
0.770003
0.770002
0.770001
0.77
0.77
0.77
0.77
1.40243e-05
6.03984e-05
0.000134587
0.000250567
0.000428723
0.000698451
0.00110158
0.00169676
0.00256466
0.00381398
0.00558735
0.00806617
0.0114724
0.016065
0.0221288
0.0299536
0.0398063
0.0518983
0.0663562
0.083204
0.102359
0.123644
0.146805
0.171542
0.197527
0.224427
0.251919
0.279698
0.307486
0.335035
0.362129
0.388584
0.414249
0.439001
0.462748
0.485422
0.50698
0.527393
0.546651
0.564758
0.581732
0.597597
0.61239
0.626149
0.638919
0.650748
0.661684
0.671778
0.681079
0.689636
0.697498
0.704712
0.711322
0.717373
0.722905
0.727957
0.732567
0.736771
0.740529
0.743912
0.747103
0.750013
0.752672
0.755114
0.757366
0.759447
0.761365
0.763124
0.764726
0.766168
0.767445
0.768556
0.769494
0.770257
0.770861
0.77131
0.771581
0.771687
0.771663
0.771518
0.77129
0.771025
0.770765
0.77054
0.770364
0.770236
0.770147
0.77009
0.770054
0.770032
0.770018
0.77001
0.770006
0.770003
0.770002
0.770001
0.77
0.77
0.77
0.77
1.40257e-05
6.0405e-05
0.000134603
0.000250601
0.000428792
0.000698581
0.00110182
0.00169717
0.00256536
0.00381514
0.0055892
0.00806904
0.0114767
0.0160713
0.0221377
0.0299659
0.0398227
0.0519195
0.0663828
0.0832364
0.102398
0.123688
0.146855
0.171598
0.197588
0.224493
0.25199
0.279773
0.307564
0.335116
0.362212
0.388669
0.414334
0.439087
0.462834
0.485509
0.507066
0.527478
0.546735
0.56484
0.581812
0.597675
0.612466
0.626222
0.63899
0.650816
0.66175
0.67184
0.681138
0.689693
0.697552
0.704763
0.71137
0.717418
0.722947
0.727997
0.732605
0.736806
0.74056
0.743942
0.747131
0.750039
0.752697
0.755137
0.757388
0.759468
0.761385
0.763143
0.764743
0.766183
0.767459
0.768567
0.769504
0.770265
0.770867
0.771314
0.771584
0.771688
0.771663
0.771516
0.771288
0.771022
0.770763
0.770539
0.770363
0.770235
0.770147
0.77009
0.770054
0.770031
0.770018
0.77001
0.770006
0.770003
0.770002
0.770001
0.77
0.77
0.77
0.77
1.40256e-05
6.04044e-05
0.000134602
0.000250599
0.000428788
0.000698574
0.00110181
0.00169715
0.00256534
0.0038151
0.00558915
0.00806897
0.0114766
0.0160712
0.0221376
0.0299657
0.0398225
0.0519192
0.0663825
0.0832361
0.102397
0.123688
0.146855
0.171598
0.197588
0.224493
0.25199
0.279773
0.307564
0.335116
0.362212
0.388669
0.414334
0.439087
0.462834
0.485509
0.507066
0.527478
0.546735
0.56484
0.581811
0.597675
0.612465
0.626222
0.63899
0.650816
0.66175
0.67184
0.681138
0.689692
0.697552
0.704762
0.71137
0.717418
0.722947
0.727997
0.732605
0.736806
0.74056
0.743942
0.747131
0.750039
0.752697
0.755137
0.757388
0.759468
0.761385
0.763143
0.764743
0.766183
0.767459
0.768567
0.769504
0.770265
0.770867
0.771314
0.771584
0.771688
0.771663
0.771516
0.771288
0.771022
0.770763
0.770539
0.770363
0.770235
0.770147
0.77009
0.770054
0.770031
0.770018
0.77001
0.770006
0.770003
0.770002
0.770001
0.77
0.77
0.77
0.77
1.40238e-05
6.03964e-05
0.000134582
0.000250558
0.000428709
0.000698427
0.00110155
0.0016967
0.00256457
0.00381385
0.00558718
0.00806593
0.0114721
0.0160646
0.0221282
0.029953
0.0398056
0.0518974
0.0663553
0.0832031
0.102358
0.123643
0.146804
0.171541
0.197526
0.224427
0.251919
0.279698
0.307486
0.335035
0.362129
0.388584
0.414248
0.439
0.462747
0.485422
0.506979
0.527392
0.54665
0.564757
0.581731
0.597596
0.612389
0.626148
0.638918
0.650747
0.661684
0.671777
0.681078
0.689635
0.697498
0.704711
0.711322
0.717372
0.722904
0.727957
0.732567
0.736771
0.740529
0.743912
0.747103
0.750013
0.752672
0.755114
0.757366
0.759447
0.761365
0.763124
0.764726
0.766168
0.767446
0.768556
0.769494
0.770257
0.770861
0.77131
0.771581
0.771688
0.771663
0.771518
0.77129
0.771025
0.770765
0.77054
0.770364
0.770236
0.770147
0.77009
0.770054
0.770032
0.770018
0.77001
0.770006
0.770003
0.770002
0.770001
0.77
0.77
0.77
0.77
1.40205e-05
6.03816e-05
0.000134546
0.000250482
0.000428558
0.000698145
0.00110104
0.00169581
0.00256306
0.00381137
0.00558323
0.00805983
0.0114629
0.0160512
0.0221093
0.029927
0.039771
0.0518529
0.0662996
0.0831355
0.102278
0.12355
0.1467
0.171425
0.1974
0.224291
0.251774
0.279546
0.307327
0.334871
0.36196
0.388412
0.414074
0.438825
0.462571
0.485246
0.506805
0.52722
0.54648
0.56459
0.581567
0.597437
0.612234
0.625998
0.638774
0.650609
0.661551
0.67165
0.680957
0.68952
0.697388
0.704608
0.711225
0.717281
0.722818
0.727876
0.732491
0.736699
0.740465
0.743852
0.747046
0.749959
0.752621
0.755065
0.75732
0.759403
0.761324
0.763086
0.764691
0.766137
0.767418
0.768532
0.769474
0.770241
0.770848
0.771301
0.771576
0.771686
0.771665
0.771521
0.771295
0.77103
0.77077
0.770544
0.770367
0.770238
0.770149
0.770091
0.770054
0.770032
0.770018
0.77001
0.770006
0.770003
0.770002
0.770001
0.77
0.77
0.77
0.77
1.4016e-05
6.03609e-05
0.000134495
0.000250373
0.000428342
0.000697736
0.00110029
0.0016945
0.00256084
0.00380773
0.00557742
0.00805082
0.0114494
0.0160315
0.0220813
0.0298885
0.0397199
0.0517869
0.0662172
0.0830353
0.10216
0.123414
0.146545
0.171254
0.197212
0.224089
0.251559
0.27932
0.307092
0.334627
0.36171
0.388157
0.413815
0.438563
0.462309
0.484984
0.506545
0.526962
0.546226
0.564341
0.581323
0.597199
0.612003
0.625775
0.638558
0.650401
0.661351
0.671459
0.680775
0.689347
0.697224
0.704453
0.711078
0.717143
0.722689
0.727755
0.732377
0.736592
0.740369
0.743761
0.746959
0.749876
0.752543
0.754991
0.75725
0.759337
0.761262
0.763029
0.764639
0.766089
0.767375
0.768495
0.769443
0.770216
0.770828
0.771287
0.771569
0.771683
0.771666
0.771527
0.771302
0.771038
0.770777
0.77055
0.770371
0.77024
0.770151
0.770092
0.770055
0.770032
0.770019
0.770011
0.770006
0.770003
0.770002
0.770001
0.77
0.77
0.77
0.77
1.40106e-05
6.03361e-05
0.000134433
0.000250239
0.000428072
0.000697221
0.00109935
0.00169284
0.00255801
0.00380304
0.00556991
0.00803917
0.0114318
0.0160058
0.0220449
0.0298385
0.0396533
0.0517011
0.0661098
0.0829048
0.102005
0.123235
0.146343
0.17103
0.196968
0.223825
0.251279
0.279024
0.306783
0.334308
0.361382
0.387821
0.413475
0.43822
0.461964
0.48464
0.506202
0.526623
0.545891
0.564012
0.581001
0.596885
0.611697
0.625478
0.638271
0.650124
0.661085
0.671204
0.680531
0.689115
0.697004
0.704245
0.710882
0.716958
0.722516
0.727593
0.732227
0.736451
0.740245
0.743641
0.746838
0.74976
0.752433
0.754889
0.757154
0.759248
0.761179
0.762952
0.764568
0.766025
0.767318
0.768445
0.769401
0.770182
0.770801
0.771268
0.771558
0.771678
0.771668
0.771533
0.771312
0.771049
0.770787
0.770558
0.770377
0.770244
0.770153
0.770094
0.770056
0.770033
0.770019
0.770011
0.770006
0.770003
0.770002
0.770001
0.77
0.77
0.77
0.77
1.40048e-05
6.03092e-05
0.000134364
0.000250088
0.000427764
0.000696625
0.00109825
0.00169087
0.00255464
0.00379743
0.00556091
0.00802516
0.0114106
0.0159748
0.0220009
0.029778
0.0395727
0.0515971
0.0659796
0.0827465
0.101818
0.123019
0.146098
0.170758
0.19667
0.223505
0.250937
0.278664
0.306407
0.333918
0.360981
0.387412
0.413059
0.4378
0.461542
0.484217
0.50578
0.526205
0.545478
0.563605
0.580602
0.596494
0.611317
0.625108
0.637913
0.649779
0.660753
0.670885
0.680226
0.688824
0.696727
0.703982
0.710633
0.716725
0.722297
0.727389
0.732038
0.736279
0.740101
0.743522
0.74665
0.749598
0.75229
0.754758
0.757033
0.759135
0.761074
0.762854
0.764478
0.765943
0.767245
0.768381
0.769347
0.770137
0.770766
0.771243
0.771543
0.771672
0.77167
0.771542
0.771324
0.771062
0.770799
0.770568
0.770384
0.770249
0.770156
0.770096
0.770057
0.770034
0.770019
0.770011
0.770006
0.770003
0.770002
0.770001
0.77
0.77
0.77
0.77
1.39992e-05
6.02829e-05
0.000134295
0.000249931
0.000427435
0.000695975
0.00109703
0.00168867
0.00255082
0.00379103
0.00555062
0.00800912
0.0113864
0.0159392
0.0219503
0.0297083
0.0394798
0.0514771
0.0658293
0.0825637
0.101601
0.122768
0.145815
0.170443
0.196326
0.223133
0.250541
0.278246
0.30597
0.333465
0.360514
0.386934
0.412573
0.437308
0.461047
0.483721
0.505285
0.525713
0.544991
0.563125
0.580129
0.596032
0.610865
0.624669
0.637487
0.649366
0.660355
0.670503
0.679859
0.688473
0.696393
0.703664
0.710332
0.716439
0.722028
0.727136
0.731801
0.736057
0.739903
0.743335
0.746467
0.749425
0.752127
0.754605
0.756889
0.758999
0.760946
0.762735
0.764367
0.765843
0.767155
0.768302
0.76928
0.770083
0.770722
0.771211
0.771524
0.771663
0.771671
0.771551
0.771338
0.771078
0.770814
0.77058
0.770393
0.770256
0.77016
0.770098
0.770059
0.770034
0.77002
0.770011
0.770006
0.770003
0.770002
0.770001
0.77
0.77
0.77
0.77
1.39945e-05
6.02599e-05
0.000134231
0.000249779
0.000427105
0.000695302
0.00109574
0.00168632
0.00254671
0.0037841
0.00553936
0.00799142
0.0113595
0.0158997
0.0218941
0.0296309
0.0393765
0.0513435
0.065662
0.0823601
0.10136
0.122489
0.145499
0.170092
0.195942
0.222719
0.250099
0.277779
0.305482
0.332957
0.359991
0.386398
0.412026
0.436754
0.460488
0.483159
0.504723
0.525153
0.544436
0.562575
0.579589
0.595501
0.610345
0.624162
0.636994
0.648888
0.659893
0.670057
0.679431
0.688063
0.696
0.70329
0.709976
0.716102
0.721708
0.726834
0.731516
0.735789
0.739661
0.743108
0.746254
0.749224
0.751937
0.754425
0.756718
0.758837
0.760794
0.762592
0.764235
0.765722
0.767047
0.768207
0.769199
0.770016
0.770668
0.771171
0.7715
0.771653
0.771671
0.771561
0.771355
0.771097
0.770832
0.770595
0.770404
0.770263
0.770165
0.770101
0.77006
0.770035
0.77002
0.770012
0.770006
0.770004
0.770002
0.770001
0.77
0.77
0.77
0.77
1.39913e-05
6.02432e-05
0.00013418
0.000249644
0.000426792
0.000694638
0.00109442
0.00168388
0.00254239
0.00377684
0.00552732
0.00797242
0.0113306
0.0158571
0.0218334
0.0295472
0.0392647
0.0511992
0.0654811
0.0821401
0.1011
0.122188
0.145158
0.169713
0.195527
0.222271
0.249621
0.277274
0.304952
0.332406
0.359421
0.385813
0.411429
0.436147
0.459874
0.482541
0.504104
0.524534
0.54382
0.561965
0.578986
0.594907
0.609763
0.623592
0.636438
0.648348
0.659369
0.669551
0.678943
0.687594
0.695551
0.70286
0.709566
0.715712
0.721338
0.726483
0.731184
0.735476
0.739378
0.742841
0.746004
0.748989
0.751716
0.754216
0.756519
0.758649
0.760615
0.762425
0.76408
0.765579
0.766918
0.768094
0.769102
0.769936
0.770603
0.771122
0.771469
0.771639
0.771669
0.771571
0.771373
0.771118
0.770853
0.770612
0.770417
0.770272
0.770171
0.770105
0.770063
0.770037
0.770021
0.770012
0.770007
0.770004
0.770002
0.770001
0.77
0.77
0.77
0.77
1.39905e-05
6.02357e-05
0.000134146
0.000249537
0.000426514
0.000694011
0.00109314
0.00168142
0.00253795
0.00376917
0.00551465
0.00795249
0.0113002
0.0158122
0.0217694
0.0294588
0.0391468
0.0510469
0.0652905
0.0819083
0.100825
0.121871
0.1448
0.169314
0.195091
0.2218
0.249118
0.276742
0.304394
0.331825
0.35882
0.385194
0.410795
0.435502
0.459219
0.48188
0.503439
0.523868
0.543155
0.561303
0.57833
0.594259
0.609125
0.622966
0.635826
0.64775
0.658788
0.668988
0.678399
0.687069
0.695046
0.702376
0.709104
0.715271
0.720919
0.726085
0.730807
0.735119
0.739052
0.742534
0.745714
0.748717
0.75146
0.753974
0.75629
0.75843
0.760409
0.762231
0.763899
0.765413
0.766768
0.767961
0.768987
0.769842
0.770527
0.771061
0.77143
0.77162
0.771666
0.771582
0.771393
0.771142
0.770876
0.770632
0.770433
0.770283
0.770178
0.770109
0.770065
0.770038
0.770022
0.770012
0.770007
0.770004
0.770002
0.770001
0.77
0.77
0.77
0.77
1.39923e-05
6.02394e-05
0.000134135
0.000249466
0.000426285
0.000693439
0.0010919
0.00167899
0.0025335
0.00376145
0.00550187
0.00793206
0.0112688
0.0157658
0.021703
0.0293673
0.0390249
0.0508896
0.0650939
0.0816699
0.100544
0.121547
0.144433
0.168907
0.194646
0.22132
0.248605
0.276199
0.303823
0.33123
0.358203
0.384557
0.410142
0.434834
0.45854
0.481191
0.502743
0.523168
0.542453
0.560603
0.577632
0.593568
0.608441
0.622292
0.635164
0.647103
0.658156
0.668373
0.677802
0.686492
0.69449
0.701841
0.708591
0.714781
0.720451
0.725641
0.730386
0.734722
0.738681
0.742188
0.745391
0.748412
0.751171
0.7537
0.756028
0.758181
0.760172
0.762008
0.763691
0.765221
0.766594
0.767806
0.768853
0.76973
0.770437
0.77099
0.771382
0.771596
0.771659
0.771592
0.771414
0.771169
0.770903
0.770655
0.77045
0.770295
0.770186
0.770114
0.770068
0.77004
0.770023
0.770013
0.770007
0.770004
0.770002
0.770001
0.770001
0.77
0.77
0.77
1.39971e-05
6.02552e-05
0.000134149
0.000249433
0.000426106
0.000692926
0.00109072
0.00167658
0.002529
0.00375358
0.00548897
0.00791102
0.0112364
0.0157181
0.0216351
0.029274
0.0389008
0.0507302
0.0648955
0.0814301
0.100262
0.121222
0.144068
0.168504
0.194206
0.220845
0.248098
0.275662
0.303259
0.330641
0.35759
0.383924
0.409489
0.434164
0.457855
0.480494
0.502036
0.522453
0.541733
0.55988
0.576909
0.592847
0.607725
0.621584
0.634465
0.646415
0.657482
0.667714
0.67716
0.685869
0.693886
0.701259
0.70803
0.714243
0.719936
0.72515
0.729919
0.734278
0.738261
0.741805
0.745031
0.748069
0.750846
0.75339
0.755733
0.7579
0.759905
0.761755
0.763454
0.765002
0.766395
0.767628
0.768699
0.769601
0.770331
0.770906
0.771324
0.771564
0.771648
0.7716
0.771436
0.771198
0.770933
0.770681
0.77047
0.770309
0.770195
0.77012
0.770072
0.770042
0.770024
0.770014
0.770008
0.770004
0.770002
0.770001
0.770001
0.77
0.77
0.77
1.40045e-05
6.02814e-05
0.000134182
0.000249429
0.000425964
0.000692445
0.00108954