/*--------------------------------*- C++ -*----------------------------------*\
  =========                 |
  \\      /  F ield         | OpenFOAM: The Open Source CFD Toolbox
   \\    /   O peration     | Website:  https://openfoam.org
    \\  /    A nd           | Version:  8
     \\/     M anipulation  |
\*---------------------------------------------------------------------------*/
FoamFile
{
    version     2.0;
    format      ascii;
    class       volScalarField;
    location    "0.1/fluid";
    object      O2;
}
// * * * * * * * * * * * * * * * * * * * * * * * * * * * * * * * * * * * * * //

dimensions      [0 0 0 0 0 0 0];

internalField   nonuniform List<scalar> 
4000
(
1.03822e-10
4.48113e-10
1.00338e-09
1.88229e-09
3.25477e-09
5.37548e-09
8.62272e-09
1.35529e-08
2.09715e-08
3.20253e-08
4.83105e-08
7.19901e-08
1.05897e-07
1.53587e-07
2.19303e-07
3.07785e-07
4.23916e-07
5.72219e-07
7.56285e-07
9.78285e-07
1.23866e-06
1.53611e-06
1.86768e-06
2.22926e-06
2.61578e-06
3.02173e-06
3.44141e-06
3.86911e-06
4.29933e-06
4.72686e-06
5.14686e-06
5.55492e-06
5.94721e-06
6.3214e-06
6.67499e-06
7.00748e-06
7.32058e-06
7.61977e-06
7.91319e-06
8.21474e-06
8.54729e-06
8.9404e-06
9.43521e-06
1.00883e-05
1.09784e-05
1.22176e-05
1.39713e-05
1.64928e-05
2.01832e-05
2.56965e-05
3.41192e-05
4.72739e-05
6.82107e-05
0.000101977
0.000156796
0.000245876
0.000390204
0.000622899
0.000995983
0.00159094
0.00252833
0.00398766
0.00628379
0.009978
0.0158217
0.0251522
0.0377978
0.0521881
0.0673722
0.0827601
0.0979805
0.112797
0.127038
0.140584
0.15335
0.165228
0.176186
0.18647
0.1958
0.203568
0.210367
0.216551
0.221255
0.224633
0.226886
0.22828
0.229087
0.229526
0.229757
0.229876
0.229937
0.229968
0.229984
0.229992
0.229996
0.229998
0.229999
0.23
0.23
0.23
1.03155e-10
4.45313e-10
9.97542e-10
1.87273e-09
3.24163e-09
5.36077e-09
8.61204e-09
1.35571e-08
2.10095e-08
3.21246e-08
4.85063e-08
7.23247e-08
1.06415e-07
1.54328e-07
2.20283e-07
3.08988e-07
4.25282e-07
5.73641e-07
7.57638e-07
9.79449e-07
1.23957e-06
1.53676e-06
1.86831e-06
2.23026e-06
2.61736e-06
3.0242e-06
3.44513e-06
3.87452e-06
4.30689e-06
4.73702e-06
5.16008e-06
5.5717e-06
5.96814e-06
6.34571e-06
6.70305e-06
7.04007e-06
7.35841e-06
7.66163e-06
7.96183e-06
8.27343e-06
8.61608e-06
9.02074e-06
9.53002e-06
1.02024e-05
1.11193e-05
1.2397e-05
1.42076e-05
1.6815e-05
2.0639e-05
2.6365e-05
3.51342e-05
4.88613e-05
7.07505e-05
0.000106098
0.000163523
0.000256854
0.000408054
0.000651771
0.00104244
0.00166535
0.00264416
0.00417145
0.006576
0.0104433
0.0165641
0.0263457
0.0392738
0.053845
0.069147
0.0846123
0.099883
0.11473
0.12898
0.142517
0.15525
0.167058
0.177963
0.188219
0.197328
0.204722
0.211872
0.217601
0.221995
0.22512
0.227177
0.228437
0.229164
0.229562
0.229773
0.229883
0.22994
0.229969
0.229984
0.229992
0.229996
0.229998
0.229999
0.23
0.23
0.23
1.02389e-10
4.42187e-10
9.91388e-10
1.86347e-09
3.23055e-09
5.3516e-09
8.61224e-09
1.35792e-08
2.10737e-08
3.22649e-08
4.87758e-08
7.27921e-08
1.07164e-07
1.55449e-07
2.21858e-07
3.11071e-07
4.2789e-07
5.76752e-07
7.61191e-07
9.83371e-07
1.2438e-06
1.54127e-06
1.87303e-06
2.2351e-06
2.62319e-06
3.03139e-06
3.4542e-06
3.88604e-06
4.32146e-06
4.75527e-06
5.18262e-06
5.59906e-06
6.00072e-06
6.38431e-06
6.74743e-06
7.09193e-06
7.41962e-06
7.73593e-06
8.04785e-06
8.37091e-06
8.72774e-06
9.15051e-06
9.68373e-06
1.03889e-05
1.13518e-05
1.26961e-05
1.46052e-05
1.73625e-05
2.14205e-05
2.75209e-05
3.69019e-05
5.16429e-05
7.52208e-05
0.000113371
0.000175406
0.000276233
0.000439483
0.000702374
0.00112326
0.0017934
0.00283873
0.00447321
0.00709825
0.0112426
0.0178173
0.0283296
0.0416981
0.0565339
0.0719887
0.0875325
0.102829
0.117663
0.131856
0.145303
0.157905
0.169537
0.1803
0.190349
0.199109
0.206197
0.212983
0.218507
0.222638
0.225525
0.227408
0.228559
0.229224
0.22959
0.229786
0.229889
0.229943
0.229971
0.229985
0.229992
0.229996
0.229998
0.229999
0.23
0.23
0.23
1.01328e-10
4.37744e-10
9.82138e-10
1.84812e-09
3.20838e-09
5.32314e-09
8.58039e-09
1.35514e-08
2.10634e-08
3.22916e-08
4.88681e-08
7.29909e-08
1.07513e-07
1.56003e-07
2.22679e-07
3.12225e-07
4.29444e-07
5.78772e-07
7.63752e-07
9.86571e-07
1.24777e-06
1.54618e-06
1.87911e-06
2.24259e-06
2.6317e-06
3.04172e-06
3.46702e-06
3.90199e-06
4.3412e-06
4.77946e-06
5.21199e-06
5.6345e-06
6.04336e-06
6.4359e-06
6.81088e-06
7.16584e-06
7.50329e-06
7.82876e-06
8.15205e-06
8.48903e-06
8.86339e-06
9.30891e-06
9.87265e-06
1.06199e-05
1.16425e-05
1.30735e-05
1.51118e-05
1.80667e-05
2.24348e-05
2.90346e-05
3.92358e-05
5.53414e-05
8.11982e-05
0.000123137
0.00019141
0.000302394
0.000482012
0.000771038
0.00123335
0.00196878
0.00310453
0.0048847
0.00775685
0.0122734
0.0194235
0.030786
0.0446483
0.0597632
0.0753603
0.090955
0.106238
0.121
0.135079
0.14837
0.16077
0.172175
0.182762
0.19256
0.200938
0.207778
0.214329
0.219492
0.223312
0.225954
0.227661
0.228698
0.229296
0.229627
0.229804
0.229898
0.229947
0.229973
0.229986
0.229993
0.229996
0.229998
0.229999
0.23
0.23
0.23
1.00193e-10
4.33017e-10
9.72242e-10
1.83137e-09
3.18347e-09
5.28954e-09
8.5395e-09
1.35078e-08
2.10271e-08
3.22799e-08
4.89056e-08
7.31147e-08
1.07783e-07
1.56487e-07
2.23459e-07
3.13393e-07
4.31101e-07
5.8103e-07
7.66739e-07
9.90442e-07
1.25273e-06
1.55252e-06
1.88723e-06
2.25304e-06
2.64528e-06
3.05877e-06
3.48803e-06
3.92753e-06
4.37188e-06
4.81589e-06
5.25473e-06
5.68403e-06
6.10002e-06
6.49972e-06
6.88129e-06
7.24441e-06
7.59131e-06
7.92763e-06
8.26373e-06
8.61629e-06
9.01032e-06
9.48153e-06
1.00799e-05
1.08754e-05
1.19666e-05
1.34979e-05
1.56866e-05
1.8873e-05
2.36071e-05
3.07996e-05
4.19799e-05
5.97211e-05
8.83153e-05
0.000134809
0.000210585
0.000333791
0.000533106
0.000853584
0.00136572
0.00217952
0.00343398
0.00541098
0.00859511
0.0136095
0.0215684
0.0336291
0.0478993
0.0632359
0.0789301
0.0945347
0.109764
0.124414
0.138337
0.151431
0.163586
0.174744
0.185155
0.194664
0.202618
0.209246
0.215513
0.220366
0.223906
0.226326
0.227879
0.228817
0.229359
0.229658
0.22982
0.229906
0.229951
0.229974
0.229987
0.229993
0.229997
0.229998
0.229999
0.23
0.23
0.23
9.89719e-11
4.27928e-10
9.61605e-10
1.8132e-09
3.15574e-09
5.2508e-09
8.48952e-09
1.34488e-08
2.09653e-08
3.22281e-08
4.88863e-08
7.31612e-08
1.07941e-07
1.56822e-07
2.24055e-07
3.14357e-07
4.32557e-07
5.83123e-07
7.69637e-07
9.94338e-07
1.25785e-06
1.55915e-06
1.89568e-06
2.26372e-06
2.65864e-06
3.07529e-06
3.50824e-06
3.95199e-06
4.40116e-06
4.85056e-06
5.29536e-06
5.73115e-06
6.15414e-06
6.56135e-06
6.95099e-06
7.32299e-06
7.6798e-06
8.02743e-06
8.37684e-06
8.74565e-06
9.16026e-06
9.65854e-06
1.02937e-05
1.11404e-05
1.23053e-05
1.39446e-05
1.62963e-05
1.9735e-05
2.48705e-05
3.2717e-05
4.49822e-05
6.45413e-05
9.61834e-05
0.000147754
0.0002319
0.000368768
0.000590186
0.000946178
0.00151509
0.00241545
0.00380799
0.00599789
0.00953389
0.0151153
0.0240075
0.0366324
0.0512262
0.0667265
0.0824744
0.0980546
0.113201
0.127714
0.14146
0.154341
0.166235
0.177154
0.187402
0.196557
0.204068
0.210626
0.216614
0.221162
0.224441
0.226662
0.228076
0.228927
0.229417
0.229688
0.229835
0.229913
0.229954
0.229976
0.229988
0.229994
0.229997
0.229998
0.229999
0.23
0.23
0.23
9.77795e-11
4.22919e-10
9.51122e-10
1.79552e-09
3.1287e-09
5.21276e-09
8.44003e-09
1.33897e-08
2.09021e-08
3.21725e-08
4.88588e-08
7.31947e-08
1.08084e-07
1.57143e-07
2.24645e-07
3.15328e-07
4.34048e-07
5.85294e-07
7.72669e-07
9.98439e-07
1.26326e-06
1.56613e-06
1.90455e-06
2.27482e-06
2.67239e-06
3.09213e-06
3.52865e-06
3.97648e-06
4.43025e-06
4.88479e-06
5.33525e-06
5.77725e-06
6.20699e-06
6.62153e-06
7.01912e-06
7.39985e-06
7.7664e-06
8.12517e-06
8.48774e-06
8.87269e-06
9.30789e-06
9.83344e-06
1.05058e-05
1.14049e-05
1.2645e-05
1.43956e-05
1.69156e-05
2.06162e-05
2.61698e-05
3.46994e-05
4.80997e-05
6.95592e-05
0.000104378
0.000161215
0.000254001
0.000404888
0.000648857
0.00104087
0.00166706
0.00265223
0.0041827
0.00659064
0.0104771
0.0166175
0.0264189
0.0395659
0.054444
0.0700749
0.08585
0.101385
0.116435
0.1308
0.144366
0.157034
0.168677
0.179404
0.189429
0.198207
0.205221
0.212018
0.217603
0.221856
0.224903
0.226951
0.228245
0.229021
0.229467
0.229714
0.229848
0.22992
0.229958
0.229978
0.229988
0.229994
0.229997
0.229999
0.229999
0.23
0.23
0.23
9.66935e-11
4.1834e-10
9.41318e-10
1.77851e-09
3.10307e-09
5.17712e-09
8.39388e-09
1.33344e-08
2.08427e-08
3.21196e-08
4.88317e-08
7.32251e-08
1.0822e-07
1.57453e-07
2.25222e-07
3.16293e-07
4.35545e-07
5.87495e-07
7.7577e-07
1.00266e-06
1.26883e-06
1.57333e-06
1.91368e-06
2.28621e-06
2.6864e-06
3.10917e-06
3.54916e-06
4.00091e-06
4.45907e-06
4.91849e-06
5.37432e-06
5.82218e-06
6.25828e-06
6.67972e-06
7.08483e-06
7.47383e-06
7.84962e-06
8.219e-06
8.59419e-06
8.99474e-06
9.45002e-06
1.00023e-05
1.07115e-05
1.16625e-05
1.29779e-05
1.48398e-05
1.75293e-05
2.14947e-05
2.74724e-05
3.66965e-05
5.12508e-05
7.46382e-05
0.000112664
0.000174783
0.000276157
0.000440836
0.000706703
0.00113314
0.0018129
0.00287244
0.00452323
0.00719065
0.011396
0.0180595
0.0287076
0.0423296
0.0574568
0.0731927
0.0889776
0.104458
0.119399
0.133619
0.14701
0.159474
0.170894
0.181447
0.191253
0.199717
0.206515
0.213134
0.21844
0.222454
0.225303
0.2272
0.228391
0.229102
0.22951
0.229737
0.229859
0.229925
0.229961
0.229979
0.229989
0.229994
0.229997
0.229999
0.229999
0.23
0.23
0.23
9.57414e-11
4.14349e-10
9.32978e-10
1.76441e-09
3.08133e-09
5.14645e-09
8.35388e-09
1.32866e-08
2.0792e-08
3.20765e-08
4.88154e-08
7.32673e-08
1.08369e-07
1.57778e-07
2.25818e-07
3.17282e-07
4.37077e-07
5.89744e-07
7.78934e-07
1.00695e-06
1.27451e-06
1.58063e-06
1.9229e-06
2.29767e-06
2.70043e-06
3.12613e-06
3.56944e-06
4.02492e-06
4.48724e-06
4.95123e-06
5.41208e-06
5.8654e-06
6.30742e-06
6.73527e-06
7.14735e-06
7.54401e-06
7.92842e-06
8.30774e-06
8.69483e-06
9.11023e-06
9.58477e-06
1.0163e-05
1.0908e-05
1.191e-05
1.32994e-05
1.52718e-05
1.81301e-05
2.23604e-05
2.87645e-05
3.86895e-05
5.44113e-05
7.97509e-05
0.000121024
0.000188489
0.000298559
0.00047723
0.000765405
0.00122715
0.00196255
0.00309812
0.00487825
0.00775106
0.012272
0.0194327
0.0308367
0.044877
0.0602171
0.0760355
0.0918176
0.107237
0.122069
0.136149
0.149374
0.161643
0.172865
0.183274
0.192874
0.201034
0.207638
0.214064
0.219159
0.222968
0.225644
0.227412
0.228515
0.229171
0.229547
0.229756
0.229869
0.22993
0.229963
0.229981
0.22999
0.229995
0.229997
0.229999
0.229999
0.23
0.23
0.23
9.49183e-11
4.10912e-10
9.25754e-10
1.75195e-09
3.06226e-09
5.1197e-09
8.31929e-09
1.32459e-08
2.07502e-08
3.20441e-08
4.88118e-08
7.33232e-08
1.08532e-07
1.58119e-07
2.2643e-07
3.18286e-07
4.38623e-07
5.92006e-07
7.82108e-07
1.01126e-06
1.28017e-06
1.5879e-06
1.93204e-06
2.30897e-06
2.7142e-06
3.14271e-06
3.58916e-06
4.04815e-06
4.51434e-06
4.98259e-06
5.44808e-06
5.90642e-06
6.35386e-06
6.78758e-06
7.20604e-06
7.60973e-06
8.00205e-06
8.39057e-06
8.78875e-06
9.2181e-06
9.71092e-06
1.03139e-05
1.10935e-05
1.21448e-05
1.36065e-05
1.56872e-05
1.87119e-05
2.32047e-05
3.00335e-05
4.06594e-05
5.75519e-05
8.48514e-05
0.000129385
0.000202214
0.000321004
0.000513697
0.000824212
0.00132128
0.00211217
0.00332764
0.00523673
0.00832059
0.0131706
0.0208547
0.0328565
0.0472243
0.0627255
0.0785982
0.0943638
0.109718
0.124444
0.138391
0.15146
0.163545
0.174599
0.184892
0.194302
0.202178
0.208625
0.21488
0.219784
0.22341
0.225934
0.22759
0.228619
0.229229
0.229578
0.229772
0.229878
0.229935
0.229965
0.229982
0.22999
0.229995
0.229997
0.229999
0.229999
0.23
0.23
0.23
9.4212e-11
4.07948e-10
9.19457e-10
1.74111e-09
3.04582e-09
5.09686e-09
8.29018e-09
1.32124e-08
2.07176e-08
3.2023e-08
4.88208e-08
7.33933e-08
1.08711e-07
1.58473e-07
2.27052e-07
3.19295e-07
4.40163e-07
5.94247e-07
7.8524e-07
1.01548e-06
1.28571e-06
1.59499e-06
1.94093e-06
2.31991e-06
2.72747e-06
3.15861e-06
3.60799e-06
4.07023e-06
4.54e-06
5.01215e-06
5.48187e-06
5.94477e-06
6.39714e-06
6.83615e-06
7.26038e-06
7.67042e-06
8.06991e-06
8.46681e-06
8.87517e-06
9.31745e-06
9.82733e-06
1.04536e-05
1.1266e-05
1.23644e-05
1.38953e-05
1.60803e-05
1.92662e-05
2.40147e-05
3.12592e-05
4.25739e-05
6.06204e-05
8.98549e-05
0.000137611
0.000215747
0.000343174
0.000549783
0.000882522
0.00141484
0.00226096
0.00356094
0.00560361
0.00891102
0.0141184
0.0223888
0.0347942
0.0493843
0.0649897
0.0808874
0.0966238
0.111911
0.126535
0.140359
0.153285
0.165203
0.176104
0.186306
0.195535
0.203147
0.209476
0.215595
0.220325
0.223786
0.226179
0.22774
0.228706
0.229277
0.229604
0.229786
0.229885
0.229938
0.229967
0.229983
0.229991
0.229995
0.229998
0.229999
0.229999
0.23
0.23
0.23
9.36045e-11
4.05392e-10
9.14063e-10
1.73193e-09
3.03196e-09
5.0778e-09
8.26628e-09
1.31858e-08
2.06936e-08
3.20121e-08
4.88413e-08
7.3475e-08
1.08899e-07
1.58832e-07
2.27671e-07
3.20288e-07
4.41668e-07
5.96424e-07
7.88268e-07
1.01956e-06
1.29103e-06
1.60177e-06
1.94939e-06
2.33029e-06
2.74003e-06
3.17358e-06
3.62566e-06
4.09087e-06
4.56389e-06
5.03956e-06
5.51309e-06
5.98008e-06
6.43684e-06
6.88057e-06
7.30992e-06
7.72561e-06
8.13149e-06
8.53587e-06
8.95339e-06
9.40739e-06
9.93287e-06
1.05806e-05
1.14232e-05
1.25655e-05
1.41612e-05
1.64441e-05
1.97822e-05
2.47731e-05
3.24133e-05
4.4386e-05
6.35373e-05
9.46269e-05
0.000145474
0.000228705
0.000364438
0.000584453
0.000938672
0.00150521
0.00240293
0.00378514
0.00595731
0.00947381
0.0150178
0.0238398
0.0365606
0.051319
0.0669972
0.0829041
0.0986058
0.113828
0.128357
0.142068
0.154865
0.166632
0.177413
0.18754
0.196579
0.203965
0.210259
0.216234
0.22079
0.224104
0.226384
0.227865
0.228778
0.229318
0.229626
0.229797
0.229891
0.229941
0.229969
0.229983
0.229991
0.229995
0.229998
0.229999
0.229999
0.23
0.23
0.23
9.3091e-11
4.03241e-10
9.09551e-10
1.72428e-09
3.02049e-09
5.0622e-09
8.24714e-09
1.31654e-08
2.06772e-08
3.20099e-08
4.88707e-08
7.35643e-08
1.09091e-07
1.59188e-07
2.28274e-07
3.21243e-07
4.43104e-07
5.98492e-07
7.91132e-07
1.02339e-06
1.29602e-06
1.60812e-06
1.95729e-06
2.33995e-06
2.75165e-06
3.18741e-06
3.64192e-06
4.1098e-06
4.58571e-06
5.06452e-06
5.54142e-06
6.01202e-06
6.47262e-06
6.92049e-06
7.3543e-06
7.77489e-06
8.18633e-06
8.59725e-06
9.0228e-06
9.48713e-06
1.00265e-05
1.06933e-05
1.15632e-05
1.27449e-05
1.43993e-05
1.67713e-05
2.02482e-05
2.54609e-05
3.34642e-05
4.60418e-05
6.62094e-05
9.90041e-05
0.000152689
0.000240586
0.000383907
0.000616138
0.000989866
0.00158735
0.00253091
0.00398665
0.00627286
0.00997554
0.0158164
0.0251209
0.038111
0.0530092
0.0687446
0.084654
0.100321
0.115483
0.129929
0.143541
0.156224
0.167857
0.178552
0.188582
0.197449
0.204625
0.210924
0.216766
0.221174
0.224366
0.226554
0.227969
0.228839
0.229351
0.229644
0.229807
0.229896
0.229944
0.22997
0.229984
0.229992
0.229996
0.229998
0.229999
0.229999
0.23
0.23
0.23
9.26657e-11
4.01463e-10
9.0583e-10
1.718e-09
3.01115e-09
5.04967e-09
8.23213e-09
1.31503e-08
2.0667e-08
3.2014e-08
4.89056e-08
7.36562e-08
1.09279e-07
1.59529e-07
2.28843e-07
3.22137e-07
4.44442e-07
6.00408e-07
7.93775e-07
1.02692e-06
1.3006e-06
1.61392e-06
1.96448e-06
2.34872e-06
2.76219e-06
3.1999e-06
3.65656e-06
4.12678e-06
4.60524e-06
5.08679e-06
5.5666e-06
6.04032e-06
6.50423e-06
6.95562e-06
7.39323e-06
7.81799e-06
8.23413e-06
8.65059e-06
9.08297e-06
9.55614e-06
1.01074e-05
1.07908e-05
1.16843e-05
1.29005e-05
1.46061e-05
1.70563e-05
2.06551e-05
2.60633e-05
3.43869e-05
4.74984e-05
6.85625e-05
0.000102859
0.000159037
0.000251026
0.000400985
0.000643883
0.00103461
0.00165904
0.00264192
0.00416137
0.00654672
0.0104103
0.0165067
0.0262253
0.0394447
0.0544601
0.0702415
0.0861506
0.101787
0.116893
0.131266
0.144794
0.15738
0.168907
0.179512
0.189427
0.198106
0.204981
0.211738
0.217246
0.221495
0.224584
0.226694
0.228054
0.228888
0.229379
0.229659
0.229814
0.2299
0.229946
0.229971
0.229985
0.229992
0.229996
0.229998
0.229999
0.229999
0.23
0.23
0.23
9.232e-11
4.0002e-10
9.02817e-10
1.71294e-09
3.00368e-09
5.03981e-09
8.22064e-09
1.31394e-08
2.06614e-08
3.20224e-08
4.89429e-08
7.37459e-08
1.09456e-07
1.59844e-07
2.29364e-07
3.22949e-07
4.45649e-07
6.0213e-07
7.96143e-07
1.03007e-06
1.30468e-06
1.61907e-06
1.97086e-06
2.35647e-06
2.77148e-06
3.21088e-06
3.6694e-06
4.14164e-06
4.62227e-06
5.10615e-06
5.58844e-06
6.06478e-06
6.53147e-06
6.9858e-06
7.42654e-06
7.85473e-06
8.27473e-06
8.69573e-06
9.13373e-06
9.61419e-06
1.01753e-05
1.08726e-05
1.17859e-05
1.30311e-05
1.47801e-05
1.72963e-05
2.09985e-05
2.65723e-05
3.51675e-05
4.87311e-05
7.05525e-05
0.000106114
0.000164382
0.000259787
0.000415268
0.000667018
0.00107186
0.0017187
0.00273412
0.00430788
0.00678155
0.010782
0.0170948
0.0271632
0.0405743
0.0556857
0.071503
0.0874091
0.103017
0.118074
0.132385
0.145842
0.158347
0.169786
0.18032
0.190149
0.198706
0.205491
0.212179
0.217593
0.221751
0.22476
0.226808
0.228123
0.228928
0.229401
0.229671
0.229821
0.229903
0.229948
0.229972
0.229985
0.229992
0.229996
0.229998
0.229999
0.229999
0.23
0.23
0.23
9.20455e-11
3.98874e-10
9.00434e-10
1.70896e-09
2.99786e-09
5.03222e-09
8.21206e-09
1.31318e-08
2.06591e-08
3.2033e-08
4.89792e-08
7.38285e-08
1.09616e-07
1.60123e-07
2.29821e-07
3.23659e-07
4.467e-07
6.03623e-07
7.9819e-07
1.03279e-06
1.30819e-06
1.6235e-06
1.97632e-06
2.3631e-06
2.7794e-06
3.22023e-06
3.6803e-06
4.15422e-06
4.63665e-06
5.12246e-06
5.60679e-06
6.08527e-06
6.55421e-06
7.01091e-06
7.45417e-06
7.88509e-06
8.30815e-06
8.73273e-06
9.17518e-06
9.66146e-06
1.02305e-05
1.0939e-05
1.18684e-05
1.31373e-05
1.49217e-05
1.74922e-05
2.12792e-05
2.69891e-05
3.58068e-05
4.97396e-05
7.21765e-05
0.000108758
0.000168697
0.000266798
0.000426562
0.000685018
0.0011002
0.00176276
0.00279879
0.00440469
0.00700551
0.0111038
0.0175901
0.0279466
0.0415124
0.0566992
0.0725425
0.0884432
0.104025
0.11904
0.133299
0.146696
0.159134
0.170501
0.180979
0.190738
0.199194
0.205909
0.212528
0.217869
0.221956
0.224901
0.226898
0.228178
0.22896
0.229419
0.22968
0.229826
0.229906
0.229949
0.229973
0.229985
0.229992
0.229996
0.229998
0.229999
0.229999
0.23
0.23
0.23
9.18349e-11
3.97997e-10
8.98612e-10
1.70593e-09
2.99347e-09
5.02659e-09
8.20587e-09
1.31268e-08
2.06588e-08
3.20439e-08
4.9012e-08
7.38999e-08
1.09751e-07
1.60358e-07
2.30203e-07
3.24248e-07
4.47569e-07
6.04855e-07
7.99875e-07
1.03503e-06
1.31107e-06
1.62712e-06
1.98079e-06
2.36851e-06
2.78585e-06
3.22782e-06
3.68914e-06
4.1644e-06
4.64828e-06
5.13561e-06
5.62155e-06
6.10171e-06
6.57241e-06
7.03093e-06
7.47613e-06
7.90912e-06
8.3345e-06
8.76181e-06
9.20765e-06
9.69839e-06
1.02736e-05
1.09908e-05
1.19329e-05
1.32206e-05
1.50333e-05
1.76472e-05
2.15024e-05
2.73218e-05
3.63194e-05
5.05517e-05
7.34894e-05
0.000110905
0.000172219
0.000272559
0.000435937
0.000700181
0.0011246
0.00180186
0.00285899
0.00450102
0.0071629
0.0113514
0.017981
0.0285693
0.0422587
0.0575045
0.0733669
0.0892616
0.104821
0.119801
0.134018
0.147367
0.159751
0.171061
0.181496
0.191199
0.199574
0.206234
0.212799
0.218083
0.222114
0.22501
0.226968
0.228221
0.228984
0.229432
0.229688
0.22983
0.229908
0.22995
0.229973
0.229986
0.229992
0.229996
0.229998
0.229999
0.23
0.23
0.23
0.23
9.16823e-11
3.97362e-10
8.97297e-10
1.70375e-09
2.99033e-09
5.02261e-09
8.20162e-09
1.31237e-08
2.06595e-08
3.20534e-08
4.90386e-08
7.39566e-08
1.09857e-07
1.60541e-07
2.30498e-07
3.24702e-07
4.48238e-07
6.05802e-07
8.01168e-07
1.03674e-06
1.31327e-06
1.62988e-06
1.98419e-06
2.37263e-06
2.79075e-06
3.23359e-06
3.69584e-06
4.17211e-06
4.65706e-06
5.14552e-06
5.63265e-06
6.11405e-06
6.58603e-06
7.04589e-06
7.49247e-06
7.92696e-06
8.354e-06
8.78326e-06
9.23154e-06
9.72552e-06
1.03052e-05
1.10289e-05
1.19805e-05
1.32823e-05
1.51163e-05
1.77631e-05
2.16702e-05
2.75733e-05
3.67086e-05
5.11707e-05
7.44937e-05
0.000112552
0.000174929
0.000277005
0.000443189
0.000711932
0.00114351
0.00183211
0.00290514
0.00457389
0.00727882
0.0115345
0.0182712
0.0290302
0.0428117
0.0581018
0.0739787
0.0898689
0.105412
0.120365
0.134551
0.147863
0.160206
0.171474
0.181878
0.191539
0.199854
0.206474
0.213
0.218241
0.222231
0.22509
0.22702
0.228252
0.229002
0.229442
0.229693
0.229833
0.229909
0.229951
0.229974
0.229986
0.229992
0.229996
0.229998
0.229999
0.23
0.23
0.23
0.23
9.15834e-11
3.9695e-10
8.96446e-10
1.70234e-09
2.98831e-09
5.02008e-09
8.19899e-09
1.31219e-08
2.06605e-08
3.20605e-08
4.90573e-08
7.39958e-08
1.0993e-07
1.60665e-07
2.30699e-07
3.2501e-07
4.4869e-07
6.06441e-07
8.02039e-07
1.03789e-06
1.31475e-06
1.63174e-06
1.98648e-06
2.37539e-06
2.79404e-06
3.23745e-06
3.70033e-06
4.17727e-06
4.66293e-06
5.15214e-06
5.64005e-06
6.12227e-06
6.59508e-06
7.05581e-06
7.5033e-06
7.93874e-06
8.36684e-06
8.79736e-06
9.24722e-06
9.74332e-06
1.0326e-05
1.1054e-05
1.20119e-05
1.33232e-05
1.51716e-05
1.78406e-05
2.17827e-05
2.77424e-05
3.69708e-05
5.15881e-05
7.51714e-05
0.000113664
0.000176758
0.000280005
0.000448078
0.00071984
0.0011562
0.00185235
0.00293579
0.0046221
0.00735529
0.0116553
0.0184625
0.0293334
0.0431757
0.0584954
0.0743822
0.0902695
0.105801
0.120737
0.134901
0.148189
0.160504
0.171746
0.182129
0.191761
0.200036
0.206629
0.213129
0.218343
0.222306
0.225142
0.227053
0.228272
0.229014
0.229449
0.229697
0.229834
0.22991
0.229951
0.229974
0.229986
0.229993
0.229996
0.229998
0.229999
0.23
0.23
0.23
0.23
9.1535e-11
3.96749e-10
8.96031e-10
1.70166e-09
2.98734e-09
5.01887e-09
8.19773e-09
1.31211e-08
2.0661e-08
3.2064e-08
4.90665e-08
7.40148e-08
1.09965e-07
1.60725e-07
2.30796e-07
3.25159e-07
4.48908e-07
6.06749e-07
8.02459e-07
1.03844e-06
1.31547e-06
1.63264e-06
1.98759e-06
2.37673e-06
2.79564e-06
3.23933e-06
3.70251e-06
4.17978e-06
4.66579e-06
5.15537e-06
5.64366e-06
6.12628e-06
6.59951e-06
7.06065e-06
7.50858e-06
7.94449e-06
8.37311e-06
8.80423e-06
9.25486e-06
9.752e-06
1.03361e-05
1.10662e-05
1.20273e-05
1.33433e-05
1.51989e-05
1.7879e-05
2.18386e-05
2.78265e-05
3.71014e-05
5.17964e-05
7.55097e-05
0.000114219
0.000177671
0.0002815
0.000450512
0.000723771
0.00116251
0.00186238
0.00295094
0.0046459
0.00739299
0.0117148
0.0185568
0.0294825
0.0433548
0.0586891
0.0745807
0.0904666
0.105993
0.12092
0.135073
0.148349
0.16065
0.171878
0.182251
0.191869
0.200124
0.206703
0.21319
0.218391
0.222341
0.225166
0.227069
0.228282
0.229019
0.229452
0.229698
0.229835
0.229911
0.229952
0.229974
0.229986
0.229993
0.229996
0.229998
0.229999
0.23
0.23
0.23
0.23
9.15345e-11
3.96747e-10
8.96026e-10
1.70165e-09
2.98732e-09
5.01884e-09
8.19769e-09
1.3121e-08
2.06609e-08
3.20638e-08
4.90662e-08
7.40144e-08
1.09964e-07
1.60724e-07
2.30794e-07
3.25157e-07
4.48905e-07
6.06745e-07
8.02455e-07
1.03844e-06
1.31546e-06
1.63263e-06
1.98758e-06
2.37672e-06
2.79563e-06
3.23932e-06
3.7025e-06
4.17976e-06
4.66577e-06
5.15536e-06
5.64365e-06
6.12627e-06
6.5995e-06
7.06064e-06
7.50857e-06
7.94448e-06
8.3731e-06
8.80421e-06
9.25483e-06
9.75196e-06
1.03361e-05
1.10662e-05
1.20272e-05
1.33431e-05
1.51987e-05
1.78787e-05
2.18382e-05
2.78261e-05
3.71008e-05
5.17956e-05
7.55087e-05
0.000114218
0.000177669
0.000281497
0.000450508
0.000723765
0.0011625
0.00186237
0.00295092
0.00464587
0.00739294
0.0117147
0.0185567
0.0294824
0.0433546
0.0586889
0.0745805
0.0904664
0.105993
0.12092
0.135073
0.148349
0.16065
0.171878
0.182251
0.191869
0.200124
0.206703
0.21319
0.218391
0.222341
0.225166
0.227069
0.228282
0.229019
0.229452
0.229698
0.229835
0.229911
0.229952
0.229974
0.229986
0.229993
0.229996
0.229998
0.229999
0.23
0.23
0.23
0.23
9.15819e-11
3.96944e-10
8.96432e-10
1.70232e-09
2.98827e-09
5.02e-09
8.19885e-09
1.31217e-08
2.06601e-08
3.20599e-08
4.90565e-08
7.39944e-08
1.09928e-07
1.60662e-07
2.30694e-07
3.25004e-07
4.48682e-07
6.0643e-07
8.02025e-07
1.03787e-06
1.31473e-06
1.63172e-06
1.98645e-06
2.37536e-06
2.79401e-06
3.23742e-06
3.70029e-06
4.17723e-06
4.66289e-06
5.1521e-06
5.64001e-06
6.12223e-06
6.59505e-06
7.05578e-06
7.50326e-06
7.9387e-06
8.3668e-06
8.7973e-06
9.24714e-06
9.7432e-06
1.03258e-05
1.10537e-05
1.20116e-05
1.33228e-05
1.51711e-05
1.78399e-05
2.17818e-05
2.77413e-05
3.69693e-05
5.15861e-05
7.51685e-05
0.00011366
0.000176752
0.000279995
0.000448063
0.000719817
0.00115617
0.0018523
0.00293572
0.00462199
0.00735513
0.011655
0.0184622
0.0293328
0.0431751
0.0584948
0.0743817
0.090269
0.105801
0.120737
0.134901
0.148189
0.160504
0.171746
0.182129
0.191761
0.200036
0.206629
0.213129
0.218343
0.222306
0.225142
0.227053
0.228272
0.229014
0.229449
0.229697
0.229834
0.22991
0.229951
0.229974
0.229986
0.229993
0.229996
0.229998
0.229999
0.23
0.23
0.23
0.23
9.16799e-11
3.97351e-10
8.97273e-10
1.7037e-09
2.99025e-09
5.02247e-09
8.2014e-09
1.31233e-08
2.06589e-08
3.20525e-08
4.90371e-08
7.39543e-08
1.09854e-07
1.60536e-07
2.30491e-07
3.24692e-07
4.48223e-07
6.05783e-07
8.01144e-07
1.03671e-06
1.31324e-06
1.62984e-06
1.98414e-06
2.37257e-06
2.79069e-06
3.23352e-06
3.69577e-06
4.17204e-06
4.65699e-06
5.14545e-06
5.63258e-06
6.11399e-06
6.58597e-06
7.04583e-06
7.49242e-06
7.9269e-06
8.35392e-06
8.78316e-06
9.2314e-06
9.72534e-06
1.0305e-05
1.10286e-05
1.19801e-05
1.32817e-05
1.51155e-05
1.77621e-05
2.16688e-05
2.75715e-05
3.6706e-05
5.1167e-05
7.44881e-05
0.000112544
0.000174916
0.000276986
0.000443161
0.000711889
0.00114345
0.00183202
0.00290502
0.00457372
0.00727857
0.0115342
0.0182706
0.0290293
0.0428107
0.0581008
0.0739778
0.089868
0.105411
0.120364
0.13455
0.147863
0.160205
0.171474
0.181878
0.191538
0.199854
0.206474
0.213
0.218241
0.222231
0.22509
0.22702
0.228252
0.229002
0.229442
0.229693
0.229833
0.229909
0.229951
0.229974
0.229986
0.229992
0.229996
0.229998
0.229999
0.23
0.23
0.23
0.23
9.18315e-11
3.97982e-10
8.9858e-10
1.70587e-09
2.99336e-09
5.0264e-09
8.20556e-09
1.31263e-08
2.0658e-08
3.20426e-08
4.901e-08
7.38968e-08
1.09746e-07
1.60351e-07
2.30192e-07
3.24233e-07
4.47549e-07
6.0483e-07
7.99843e-07
1.03498e-06
1.31102e-06
1.62706e-06
1.98072e-06
2.36844e-06
2.78577e-06
3.22773e-06
3.68904e-06
4.1643e-06
4.64818e-06
5.13551e-06
5.62145e-06
6.10162e-06
6.57232e-06
7.03085e-06
7.47604e-06
7.90903e-06
8.33439e-06
8.76167e-06
9.20747e-06
9.69814e-06
1.02732e-05
1.09903e-05
1.19323e-05
1.32198e-05
1.50322e-05
1.76457e-05
2.15004e-05
2.73192e-05
3.63157e-05
5.05463e-05
7.34816e-05
0.000110893
0.000172201
0.000272533
0.000435899
0.000700125
0.00112452
0.00180174
0.00285884
0.0045008
0.00716259
0.011351
0.0179803
0.0285683
0.0422575
0.0575032
0.0733657
0.0892605
0.10482
0.1198
0.134018
0.147366
0.15975
0.17106
0.181495
0.191198
0.199573
0.206233
0.212799
0.218083
0.222114
0.22501
0.226968
0.228221
0.228984
0.229432
0.229688
0.22983
0.229908
0.22995
0.229973
0.229986
0.229992
0.229996
0.229998
0.229999
0.23
0.23
0.23
0.23
9.20413e-11
3.98856e-10
9.00393e-10
1.70888e-09
2.99773e-09
5.032e-09
8.21169e-09
1.31312e-08
2.06581e-08
3.20315e-08
4.89768e-08
7.38247e-08
1.0961e-07
1.60115e-07
2.29809e-07
3.23641e-07
4.46676e-07
6.03591e-07
7.98149e-07
1.03274e-06
1.30813e-06
1.62342e-06
1.97624e-06
2.36301e-06
2.77929e-06
3.22011e-06
3.68017e-06
4.15409e-06
4.63652e-06
5.12232e-06
5.60666e-06
6.08515e-06
6.55409e-06
7.01079e-06
7.45405e-06
7.88496e-06
8.308e-06
8.73255e-06
9.17495e-06
9.66115e-06
1.02301e-05
1.09384e-05
1.18677e-05
1.31363e-05
1.49204e-05
1.74905e-05
2.12768e-05
2.69857e-05
3.58019e-05
4.97325e-05
7.2166e-05
0.000108742
0.000168674
0.000266763
0.000426511
0.000684944
0.0011001
0.00176261
0.00279859
0.00440439
0.00700507
0.0111032
0.0175891
0.027945
0.0415106
0.0566974
0.0725409
0.0884417
0.104023
0.119038
0.133298
0.146695
0.159133
0.1705
0.180978
0.190737
0.199193
0.205908
0.212528
0.217869
0.221955
0.224901
0.226898
0.228178
0.22896
0.229419
0.22968
0.229826
0.229906
0.229949
0.229973
0.229985
0.229992
0.229996
0.229998
0.229999
0.229999
0.23
0.23
0.23
9.23151e-11
3.99998e-10
9.0277e-10
1.71285e-09
3.00353e-09
5.03955e-09
8.22021e-09
1.31387e-08
2.06602e-08
3.20207e-08
4.89401e-08
7.37416e-08
1.0945e-07
1.59834e-07
2.29349e-07
3.22929e-07
4.45622e-07
6.02094e-07
7.96096e-07
1.03002e-06
1.30461e-06
1.61899e-06
1.97076e-06
2.35636e-06
2.77135e-06
3.21074e-06
3.66925e-06
4.14148e-06
4.6221e-06
5.10598e-06
5.58827e-06
6.06461e-06
6.53131e-06
6.98564e-06
7.42638e-06
7.85456e-06
8.27454e-06
8.69549e-06
9.13343e-06
9.6138e-06
1.01748e-05
1.08719e-05
1.1785e-05
1.303e-05
1.47785e-05
1.72942e-05
2.09956e-05
2.65682e-05
3.51615e-05
4.87221e-05
7.05389e-05
0.000106093
0.000164351
0.000259742
0.000415201
0.00066692
0.00107172
0.0017185
0.00273385
0.0043075
0.00678099
0.0107812
0.0170934
0.0271611
0.040572
0.0556835
0.0715009
0.0874073
0.103015
0.118072
0.132384
0.14584
0.158346
0.169785
0.180319
0.190148
0.198705
0.20549
0.212178
0.217592
0.221751
0.22476
0.226808
0.228123
0.228928
0.229401
0.229671
0.229821
0.229903
0.229948
0.229972
0.229985
0.229992
0.229996
0.229998
0.229999
0.229999
0.23
0.23
0.23
9.26603e-11
4.0144e-10
9.05777e-10
1.7179e-09
3.01097e-09
5.04938e-09
8.23166e-09
1.31495e-08
2.06657e-08
3.20121e-08
4.89026e-08
7.36516e-08
1.09272e-07
1.59518e-07
2.28828e-07
3.22116e-07
4.44412e-07
6.00368e-07
7.93723e-07
1.02686e-06
1.30052e-06
1.61382e-06
1.96437e-06
2.34859e-06
2.76204e-06
3.19974e-06
3.65638e-06
4.12659e-06
4.60504e-06
5.08658e-06
5.56639e-06
6.04011e-06
6.50403e-06
6.95542e-06
7.39302e-06
7.81776e-06
8.23387e-06
8.65028e-06
9.08259e-06
9.55565e-06
1.01067e-05
1.079e-05
1.16833e-05
1.28991e-05
1.46043e-05
1.70538e-05
2.06516e-05
2.60583e-05
3.43797e-05
4.74877e-05
6.85466e-05
0.000102835
0.000159002
0.000250974
0.000400908
0.000643772
0.00103446
0.00165882
0.00264162
0.00416095
0.0065461
0.0104093
0.0165052
0.026223
0.0394422
0.0544575
0.0702391
0.0861483
0.101785
0.116891
0.131264
0.144792
0.157379
0.168905
0.179511
0.189426
0.198105
0.204979
0.211737
0.217245
0.221495
0.224583
0.226694
0.228054
0.228888
0.229379
0.229659
0.229814
0.2299
0.229946
0.229971
0.229985
0.229992
0.229996
0.229998
0.229999
0.229999
0.23
0.23
0.23
9.30851e-11
4.03216e-10
9.09494e-10
1.72417e-09
3.0203e-09
5.06189e-09
8.24662e-09
1.31646e-08
2.06759e-08
3.20078e-08
4.88674e-08
7.35593e-08
1.09083e-07
1.59177e-07
2.28258e-07
3.2122e-07
4.43073e-07
5.9845e-07
7.91077e-07
1.02332e-06
1.29594e-06
1.60801e-06
1.95716e-06
2.3398e-06
2.75149e-06
3.18723e-06
3.64172e-06
4.10958e-06
4.58548e-06
5.06429e-06
5.54117e-06
6.01177e-06
6.47238e-06
6.92024e-06
7.35404e-06
7.77461e-06
8.18601e-06
8.59686e-06
9.02233e-06
9.48654e-06
1.00257e-05
1.06924e-05
1.1562e-05
1.27433e-05
1.43971e-05
1.67684e-05
2.02441e-05
2.54551e-05
3.34557e-05
4.6029e-05