/*--------------------------------*- C++ -*----------------------------------*\
  =========                 |
  \\      /  F ield         | OpenFOAM: The Open Source CFD Toolbox
   \\    /   O peration     | Website:  https://openfoam.org
    \\  /    A nd           | Version:  8
     \\/     M anipulation  |
\*---------------------------------------------------------------------------*/
FoamFile
{
    version     2.0;
    format      ascii;
    class       surfaceScalarField;
    location    "0.1/fluid";
    object      phi;
}
// * * * * * * * * * * * * * * * * * * * * * * * * * * * * * * * * * * * * * //

dimensions      [1 0 -1 0 0 0 0];

internalField   nonuniform List<scalar> 
7860
(
6.57506e-07
-1.54268e-08
6.55336e-07
-4.6192e-08
6.52219e-07
-7.66945e-08
6.48105e-07
-1.0685e-07
6.42907e-07
-1.36657e-07
6.36508e-07
-1.66071e-07
6.28765e-07
-1.95038e-07
6.19517e-07
-2.23494e-07
6.08588e-07
-2.51354e-07
5.95799e-07
-2.78497e-07
5.80979e-07
-3.0476e-07
5.63993e-07
-3.29924e-07
5.44806e-07
-3.53723e-07
5.2344e-07
-3.75819e-07
4.99977e-07
-3.95813e-07
4.74587e-07
-4.13283e-07
4.47544e-07
-4.27825e-07
4.19218e-07
-4.3913e-07
3.90047e-07
-4.47044e-07
3.60491e-07
-4.51614e-07
3.30988e-07
-4.53086e-07
3.0191e-07
-4.51861e-07
2.73544e-07
-4.48424e-07
2.46087e-07
-4.43268e-07
2.19654e-07
-4.36844e-07
1.94302e-07
-4.29524e-07
1.70052e-07
-4.21601e-07
1.46921e-07
-4.1329e-07
1.24889e-07
-4.04737e-07
1.03908e-07
-3.96045e-07
8.39215e-08
-3.87288e-07
6.48702e-08
-3.78519e-07
4.66996e-08
-3.6978e-07
2.93587e-08
-3.61109e-07
1.2801e-08
-3.52539e-07
-3.0163e-09
-3.44102e-07
-1.81335e-08
-3.3583e-07
-3.25854e-08
-3.27739e-07
-4.64029e-08
-3.19812e-07
-5.96146e-08
-3.12065e-07
-7.22477e-08
-3.04513e-07
-8.43273e-08
-2.97172e-07
-9.58774e-08
-2.90051e-07
-1.0692e-07
-2.83158e-07
-1.17477e-07
-2.76501e-07
-1.27567e-07
-2.70082e-07
-1.3721e-07
-2.63903e-07
-1.46421e-07
-2.57967e-07
-1.55217e-07
-2.52271e-07
-1.63612e-07
-2.46816e-07
-1.7162e-07
-2.41601e-07
-1.79254e-07
-2.36625e-07
-1.86525e-07
-2.31888e-07
-1.93444e-07
-2.27393e-07
-2.00025e-07
-2.23147e-07
-2.06279e-07
-2.19161e-07
-2.12223e-07
-2.15454e-07
-2.1788e-07
-2.12058e-07
-2.23278e-07
-2.09018e-07
-2.28465e-07
-2.06405e-07
-2.33504e-07
-2.04344e-07
-2.38489e-07
-2.02988e-07
-2.43558e-07
-2.02558e-07
-2.48923e-07
-2.03416e-07
-2.54902e-07
-2.06226e-07
-2.61816e-07
-2.12208e-07
-2.698e-07
-2.21445e-07
-2.78865e-07
-2.33055e-07
-2.89036e-07
-2.46596e-07
-3.00395e-07
-2.61872e-07
-3.13074e-07
-2.78834e-07
-3.27268e-07
-2.97532e-07
-3.4324e-07
-3.18096e-07
-3.6134e-07
-3.40714e-07
-3.82024e-07
-3.65623e-07
-4.05888e-07
-3.93082e-07
-4.33687e-07
-4.23447e-07
-4.66326e-07
-4.56991e-07
-5.04747e-07
-4.9356e-07
-5.49667e-07
-5.32196e-07
-6.01056e-07
-5.70661e-07
-6.58297e-07
-6.05071e-07
-7.19668e-07
-6.30281e-07
-7.82399e-07
-6.41606e-07
-8.43351e-07
-6.37123e-07
-8.99967e-07
-6.18423e-07
-9.50786e-07
-5.8915e-07
-9.95329e-07
-5.53005e-07
-1.0337e-06
-5.12747e-07
-1.06624e-06
-4.70114e-07
-1.09331e-06
-4.26139e-07
-1.11547e-06
-3.81391e-07
-1.13342e-06
-3.36224e-07
-1.1478e-06
-2.90894e-07
-1.15916e-06
-2.45559e-07
-1.16798e-06
-2.00306e-07
-1.17463e-06
-1.55206e-07
-1.17939e-06
-1.10363e-07
-1.1825e-06
-6.58737e-08
-2.1858e-08
6.58092e-07
-1.49868e-08
6.56451e-07
-4.45598e-08
6.53528e-07
-7.37902e-08
6.49345e-07
-1.02702e-07
6.43865e-07
-1.31235e-07
6.37017e-07
-1.59316e-07
6.28711e-07
-1.86872e-07
6.18844e-07
-2.13833e-07
6.07306e-07
-2.40114e-07
5.93993e-07
-2.65603e-07
5.7881e-07
-2.90151e-07
5.61686e-07
-3.1357e-07
5.426e-07
-3.35642e-07
5.21574e-07
-3.56063e-07
4.98678e-07
-3.74472e-07
4.74058e-07
-3.90492e-07
4.47944e-07
-4.03776e-07
4.20649e-07
-4.14062e-07
3.92548e-07
-4.21232e-07
3.64039e-07
-4.25348e-07
3.35509e-07
-4.26649e-07
3.07291e-07
-4.25508e-07
2.79651e-07
-4.22367e-07
2.52773e-07
-4.17673e-07
2.26779e-07
-4.11832e-07
2.01731e-07
-4.05178e-07
1.77655e-07
-3.97976e-07
1.54561e-07
-3.90427e-07
1.32439e-07
-3.82661e-07
1.11262e-07
-3.74759e-07
9.09956e-08
-3.66785e-07
7.16027e-08
-3.58787e-07
5.30465e-08
-3.50803e-07
3.5291e-08
-3.42867e-07
1.83012e-08
-3.35012e-07
2.04292e-09
-3.27268e-07
-1.35179e-08
-3.19665e-07
-2.84123e-08
-3.1222e-07
-4.26689e-08
-3.04917e-07
-5.63152e-08
-2.97772e-07
-6.93777e-08
-2.908e-07
-8.18817e-08
-2.84017e-07
-9.38517e-08
-2.77433e-07
-1.05311e-07
-2.71057e-07
-1.16282e-07
-2.64895e-07
-1.26786e-07
-2.58952e-07
-1.36843e-07
-2.53231e-07
-1.46472e-07
-2.47733e-07
-1.55692e-07
-2.42459e-07
-1.64518e-07
-2.3741e-07
-1.72969e-07
-2.32584e-07
-1.81061e-07
-2.27981e-07
-1.88808e-07
-2.23602e-07
-1.96228e-07
-2.1945e-07
-2.0334e-07
-2.15528e-07
-2.10164e-07
-2.11846e-07
-2.16725e-07
-2.0842e-07
-2.23055e-07
-2.05274e-07
-2.29198e-07
-2.02445e-07
-2.3521e-07
-1.99992e-07
-2.41163e-07
-1.9803e-07
-2.47161e-07
-1.96675e-07
-2.53346e-07
-1.96122e-07
-2.59866e-07
-1.96742e-07
-2.66873e-07
-1.99217e-07
-2.74513e-07
-2.0483e-07
-2.83069e-07
-2.13368e-07
-2.92704e-07
-2.24105e-07
-3.03532e-07
-2.36669e-07
-3.15675e-07
-2.50873e-07
-3.29283e-07
-2.66654e-07
-3.44548e-07
-2.84037e-07
-3.61717e-07
-3.03118e-07
-3.81102e-07
-3.24046e-07
-4.03095e-07
-3.4701e-07
-4.28171e-07
-3.72227e-07
-4.56897e-07
-4.0002e-07
-4.89941e-07
-4.3059e-07
-5.27991e-07
-4.63739e-07
-5.7159e-07
-4.98539e-07
-6.2077e-07
-5.32937e-07
-6.74879e-07
-5.6321e-07
-7.32217e-07
-5.84732e-07
-7.90206e-07
-5.93619e-07
-8.46184e-07
-5.8859e-07
-8.98238e-07
-5.71311e-07
-9.45427e-07
-5.44963e-07
-9.87513e-07
-5.12631e-07
-1.02462e-06
-4.76581e-07
-1.05696e-06
-4.38259e-07
-1.0848e-06
-3.98559e-07
-1.1084e-06
-3.57913e-07
-1.12813e-06
-3.1656e-07
-1.14433e-06
-2.74722e-07
-1.15735e-06
-2.32555e-07
-1.1675e-06
-1.90168e-07
-1.17504e-06
-1.47669e-07
-1.18018e-06
-1.05225e-07
-1.18302e-06
-6.30339e-08
-2.10553e-08
6.57792e-07
-1.42469e-08
6.55666e-07
-4.2443e-08
6.5217e-07
-7.03131e-08
6.47274e-07
-9.78406e-08
6.40945e-07
-1.24964e-07
6.33139e-07
-1.51602e-07
6.23809e-07
-1.77682e-07
6.12904e-07
-2.03136e-07
6.00378e-07
-2.27888e-07
5.86193e-07
-2.51839e-07
5.70324e-07
-2.74859e-07
5.52754e-07
-2.96775e-07
5.33468e-07
-3.17365e-07
5.12483e-07
-3.36354e-07
4.89879e-07
-3.53425e-07
4.65802e-07
-3.68244e-07
4.40467e-07
-3.80503e-07
4.14157e-07
-3.89972e-07
3.872e-07
-3.96556e-07
3.59939e-07
-4.00323e-07
3.32699e-07
-4.015e-07
3.0576e-07
-4.00435e-07
2.79342e-07
-3.9754e-07
2.53599e-07
-3.93226e-07
2.28632e-07
-3.87866e-07
2.04493e-07
-3.81764e-07
1.81199e-07
-3.75159e-07
1.58737e-07
-3.68225e-07
1.37087e-07
-3.61085e-07
1.16231e-07
-3.53823e-07
9.61523e-08
-3.46498e-07
7.68323e-08
-3.39155e-07
5.82513e-08
-3.31826e-07
4.03886e-08
-3.24542e-07
2.32218e-08
-3.17331e-07
6.72778e-09
-3.1022e-07
-9.11734e-09
-3.03236e-07
-2.43383e-08
-2.96394e-07
-3.89578e-08
-2.89678e-07
-5.29981e-08
-2.83102e-07
-6.64817e-08
-2.76683e-07
-7.9431e-08
-2.70433e-07
-9.18683e-08
-2.64363e-07
-1.03816e-07
-2.58482e-07
-1.15295e-07
-2.52795e-07
-1.26326e-07
-2.47307e-07
-1.36932e-07
-2.42021e-07
-1.47132e-07
-2.3694e-07
-1.56947e-07
-2.32062e-07
-1.66398e-07
-2.2739e-07
-1.75504e-07
-2.2292e-07
-1.84288e-07
-2.18654e-07
-1.92771e-07
-2.14589e-07
-2.00977e-07
-2.10728e-07
-2.08933e-07
-2.07072e-07
-2.16667e-07
-2.03629e-07
-2.24214e-07
-2.00408e-07
-2.31614e-07
-1.97429e-07
-2.38914e-07
-1.94724e-07
-2.46169e-07
-1.92345e-07
-2.53438e-07
-1.9041e-07
-2.60801e-07
-1.89009e-07
-2.68358e-07
-1.88328e-07
-2.76179e-07
-1.88781e-07
-2.84341e-07
-1.9107e-07
-2.92938e-07
-1.96516e-07
-3.02291e-07
-2.04518e-07
-3.1262e-07
-2.14492e-07
-3.24097e-07
-2.26132e-07
-3.36882e-07
-2.39283e-07
-3.51137e-07
-2.53893e-07
-3.67045e-07
-2.69987e-07
-3.84813e-07
-2.87657e-07
-4.04685e-07
-3.07043e-07
-4.26943e-07
-3.28329e-07
-4.51905e-07
-3.51741e-07
-4.7994e-07
-3.77613e-07
-5.11483e-07
-4.06093e-07
-5.47005e-07
-4.36901e-07
-5.86982e-07
-4.68948e-07
-6.31725e-07
-4.9998e-07
-6.80812e-07
-5.26471e-07
-7.32877e-07
-5.44297e-07
-7.85794e-07
-5.50373e-07
-8.37364e-07
-5.44126e-07
-8.85976e-07
-5.27387e-07
-9.30785e-07
-5.03003e-07
-9.71499e-07
-4.73549e-07
-1.00812e-06
-4.40854e-07
-1.0408e-06
-4.06069e-07
-1.06972e-06
-3.69882e-07
-1.09506e-06
-3.32704e-07
-1.11689e-06
-2.94788e-07
-1.13535e-06
-2.56295e-07
-1.15058e-06
-2.17338e-07
-1.16276e-06
-1.78001e-07
-1.17204e-06
-1.38393e-07
-1.17857e-06
-9.86946e-08
-1.18249e-06
-5.91182e-08
-1.97203e-08
6.57803e-07
-1.35184e-08
6.55596e-07
-4.02449e-08
6.51913e-07
-6.66485e-08
6.46749e-07
-9.27122e-08
6.40095e-07
-1.18368e-07
6.31932e-07
-1.43533e-07
6.2224e-07
-1.68132e-07
6.10995e-07
-1.921e-07
5.98171e-07
-2.15364e-07
5.83743e-07
-2.37834e-07
5.67691e-07
-2.59388e-07
5.50005e-07
-2.79866e-07
5.30695e-07
-2.99065e-07
5.09798e-07
-3.16734e-07
4.87401e-07
-3.32586e-07
4.63644e-07
-3.46317e-07
4.3873e-07
-3.5765e-07
4.1292e-07
-3.66382e-07
3.86515e-07
-3.72433e-07
3.5983e-07
-3.75877e-07
3.33165e-07
-3.7693e-07
3.06776e-07
-3.75921e-07
2.80864e-07
-3.73233e-07
2.55572e-07
-3.69246e-07
2.30991e-07
-3.64304e-07
2.07169e-07
-3.58689e-07
1.84127e-07
-3.52617e-07
1.61864e-07
-3.46246e-07
1.40367e-07
-3.39689e-07
1.1962e-07
-3.33021e-07
9.96011e-08
-3.26298e-07
8.02911e-08
-3.19559e-07
6.16685e-08
-3.12833e-07
4.37127e-08
-3.06149e-07
2.64027e-08
-2.99531e-07
9.71753e-09
-2.93004e-07
-6.36441e-09
-2.86593e-07
-2.18651e-08
-2.8031e-07
-3.68044e-08
-2.7414e-07
-5.12024e-08
-2.68095e-07
-6.50791e-08
-2.62192e-07
-7.84552e-08
-2.56441e-07
-9.13514e-08
-2.50852e-07
-1.03788e-07
-2.45433e-07
-1.15788e-07
-2.4019e-07
-1.2737e-07
-2.35126e-07
-1.38556e-07
-2.30245e-07
-1.49369e-07
-2.25547e-07
-1.59829e-07
-2.21033e-07
-1.69959e-07
-2.16702e-07
-1.79781e-07
-2.12552e-07
-1.8932e-07
-2.08582e-07
-1.986e-07
-2.04789e-07
-2.07649e-07
-2.01174e-07
-2.16495e-07
-1.97736e-07
-2.2517e-07
-1.9448e-07
-2.33709e-07
-1.91414e-07
-2.42148e-07
-1.88555e-07
-2.50532e-07
-1.85933e-07
-2.58906e-07
-1.83595e-07
-2.67316e-07
-1.8167e-07
-2.75815e-07
-1.80233e-07
-2.84448e-07
-1.79487e-07
-2.9326e-07
-1.79865e-07
-3.02286e-07
-1.82109e-07
-3.11704e-07
-1.87421e-07
-3.21799e-07
-1.94969e-07
-3.32783e-07
-2.04271e-07
-3.44836e-07
-2.15074e-07
-3.58123e-07
-2.27256e-07
-3.72809e-07
-2.40784e-07
-3.89067e-07
-2.55693e-07
-4.07091e-07
-2.72075e-07
-4.27107e-07
-2.90071e-07
-4.49381e-07
-3.09855e-07
-4.74224e-07
-3.31666e-07
-5.02028e-07
-3.558e-07
-5.33276e-07
-3.82328e-07
-5.68481e-07
-4.10862e-07
-6.0808e-07
-4.40199e-07
-6.52118e-07
-4.68063e-07
-6.99927e-07
-4.91106e-07
-7.49966e-07
-5.05704e-07
-8.00179e-07
-5.09472e-07
-8.48692e-07
-5.02335e-07
-8.94302e-07
-4.86168e-07
-9.3646e-07
-4.63502e-07
-9.75017e-07
-4.36516e-07
-1.00999e-06
-4.06719e-07
-1.04147e-06
-3.75045e-07
-1.06954e-06
-3.42047e-07
-1.09431e-06
-3.08058e-07
-1.11587e-06
-2.73291e-07
-1.13431e-06
-2.3789e-07
-1.14971e-06
-2.01954e-07
-1.16215e-06
-1.65565e-07
-1.17171e-06
-1.2883e-07
-1.17848e-06
-9.19337e-08
-1.1825e-06
-5.50997e-08
-1.83947e-08
6.5774e-07
-1.27268e-08
6.55388e-07
-3.79015e-08
6.51491e-07
-6.27709e-08
6.46054e-07
-8.731e-08
6.39076e-07
-1.1145e-07
6.30558e-07
-1.35107e-07
6.20494e-07
-1.5821e-07
6.08879e-07
-1.80695e-07
5.95707e-07
-2.02494e-07
5.80972e-07
-2.23523e-07
5.64673e-07
-2.43671e-07
5.46817e-07
-2.62789e-07
5.27428e-07
-2.8069e-07
5.06556e-07
-2.97143e-07
4.84289e-07
-3.11881e-07
4.60767e-07
-3.24628e-07
4.36183e-07
-3.3513e-07
4.10782e-07
-3.43204e-07
3.84845e-07
-3.48783e-07
3.58666e-07
-3.5194e-07
3.32518e-07
-3.52885e-07
3.06638e-07
-3.51925e-07
2.81208e-07
-3.49419e-07
2.56357e-07
-3.45722e-07
2.32166e-07
-3.41151e-07
2.08679e-07
-3.35968e-07
1.85911e-07
-3.30371e-07
1.63863e-07
-3.24505e-07
1.42524e-07
-3.18474e-07
1.21879e-07
-3.12346e-07
1.01909e-07
-3.0617e-07
8.25945e-08
-2.99982e-07
6.39179e-08
-2.9381e-07
4.586e-08
-2.87677e-07
2.84019e-08
-2.81605e-07
1.15245e-08
-2.75618e-07
-4.79143e-09
-2.69738e-07
-2.05664e-08
-2.63973e-07
-3.58186e-08
-2.5831e-07
-5.05662e-08
-2.52759e-07
-6.48278e-08
-2.47335e-07
-7.86227e-08
-2.42049e-07
-9.19704e-08
-2.36907e-07
-1.04891e-07
-2.31919e-07
-1.17405e-07
-2.27087e-07
-1.29532e-07
-2.22416e-07
-1.41295e-07
-2.17908e-07
-1.52714e-07
-2.13562e-07
-1.63812e-07
-2.09379e-07
-1.74612e-07
-2.05358e-07
-1.85136e-07
-2.01494e-07
-1.95409e-07
-1.97787e-07
-2.05456e-07
-1.94233e-07
-2.15304e-07
-1.9083e-07
-2.2498e-07
-1.87579e-07
-2.34515e-07
-1.8448e-07
-2.4394e-07
-1.81543e-07
-2.53287e-07
-1.78783e-07
-2.62591e-07
-1.7623e-07
-2.71885e-07
-1.73938e-07
-2.81213e-07
-1.72027e-07
-2.90597e-07
-1.70585e-07
-3.00072e-07
-1.69835e-07
-3.09661e-07
-1.70238e-07
-3.19376e-07
-1.72598e-07
-3.29477e-07
-1.77734e-07
-3.40218e-07
-1.84844e-07
-3.51792e-07
-1.93521e-07
-3.64373e-07
-2.03555e-07
-3.78119e-07
-2.14847e-07
-3.93193e-07
-2.27381e-07
-4.09762e-07
-2.41202e-07
-4.28017e-07
-2.56409e-07
-4.48177e-07
-2.73142e-07
-4.705e-07
-2.91571e-07
-4.95293e-07
-3.11948e-07
-5.22942e-07
-3.34521e-07
-5.53904e-07
-3.59291e-07
-5.88635e-07
-3.85769e-07
-6.27451e-07
-4.12662e-07
-6.70231e-07
-4.37678e-07
-7.16168e-07
-4.57634e-07
-7.63734e-07
-4.69354e-07
-8.11096e-07
-4.71051e-07
-8.56727e-07
-4.63066e-07
-8.99716e-07
-4.47299e-07
-9.39681e-07
-4.26024e-07
-9.76522e-07
-4.01102e-07
-1.01025e-06
-3.73783e-07
-1.0409e-06
-3.44827e-07
-1.06849e-06
-3.14682e-07
-1.09305e-06
-2.83617e-07
-1.11459e-06
-2.51802e-07
-1.13316e-06
-2.19354e-07
-1.14877e-06
-1.86356e-07
-1.16147e-06
-1.52877e-07
-1.17128e-06
-1.19019e-07
-1.17826e-06
-8.49622e-08
-1.18243e-06
-5.0928e-08
-1.70008e-08
6.57725e-07
-1.19201e-08
6.55313e-07
-3.54986e-08
6.51313e-07
-5.87902e-08
6.45737e-07
-8.17687e-08
6.38593e-07
-1.04365e-07
6.29892e-07
-1.26499e-07
6.19639e-07
-1.481e-07
6.07841e-07
-1.69107e-07
5.945e-07
-1.89457e-07
5.79621e-07
-2.09071e-07
5.6321e-07
-2.27845e-07
5.4528e-07
-2.45643e-07
5.25861e-07
-2.6229e-07
5.05005e-07
-2.77572e-07
4.82802e-07
-2.91246e-07
4.5939e-07
-3.03056e-07
4.34959e-07
-3.1277e-07
4.0975e-07
-3.20224e-07
3.84036e-07
-3.25361e-07
3.58099e-07
-3.28254e-07
3.32205e-07
-3.29102e-07
3.0658e-07
-3.28194e-07
2.81396e-07
-3.25863e-07
2.56774e-07
-3.22441e-07
2.32789e-07
-3.18221e-07
2.0948e-07
-3.13443e-07
1.86858e-07
-3.08291e-07
1.64923e-07
-3.02898e-07
1.4366e-07
-2.97356e-07
1.23055e-07
-2.91731e-07
1.03086e-07
-2.86066e-07
8.37365e-08
-2.80393e-07
6.4986e-08
-2.74735e-07
4.6816e-08
-2.69115e-07
2.92084e-08
-2.63552e-07
1.21446e-08
-2.58068e-07
-4.39403e-09
-2.52681e-07
-2.04271e-08
-2.47399e-07
-3.59718e-08
-2.42207e-07
-5.10452e-08
-2.37116e-07
-6.5665e-08
-2.32139e-07
-7.98493e-08
-2.27285e-07
-9.36168e-08
-2.22561e-07
-1.06986e-07
-2.17972e-07
-1.19978e-07
-2.13523e-07
-1.3261e-07
-2.09217e-07
-1.44905e-07
-2.05053e-07
-1.56882e-07
-2.01034e-07
-1.68562e-07
-1.97156e-07
-1.79968e-07
-1.93419e-07
-1.91122e-07
-1.89819e-07
-2.02047e-07
-1.86352e-07
-2.12765e-07
-1.83016e-07
-2.23303e-07
-1.79808e-07
-2.33684e-07
-1.76726e-07
-2.43935e-07
-1.73774e-07
-2.54082e-07
-1.70958e-07
-2.64153e-07
-1.68294e-07
-2.74174e-07
-1.65814e-07
-2.8417e-07
-1.63582e-07
-2.94172e-07
-1.61699e-07
-3.04218e-07
-1.60282e-07
-3.14327e-07
-1.59566e-07
-3.2451e-07
-1.60045e-07
-3.34769e-07
-1.62586e-07
-3.45419e-07
-1.67543e-07
-3.56686e-07
-1.74237e-07
-3.68754e-07
-1.82332e-07
-3.8178e-07
-1.9165e-07
-3.9592e-07
-2.0212e-07
-4.11328e-07
-2.13737e-07
-4.28172e-07
-2.26556e-07
-4.46644e-07
-2.40678e-07
-4.66968e-07
-2.5624e-07
-4.89412e-07
-2.73411e-07
-5.14302e-07
-2.92443e-07
-5.42046e-07
-3.13526e-07
-5.73107e-07
-3.36588e-07
-6.07922e-07
-3.61046e-07
-6.46717e-07
-3.8554e-07
-6.89219e-07
-4.07801e-07
-7.34433e-07
-4.24865e-07
-7.80724e-07
-4.34025e-07
-8.26322e-07
-4.34026e-07
-8.69898e-07
-4.25502e-07
-9.10761e-07
-4.10297e-07
-9.48687e-07
-3.90421e-07
-9.83674e-07
-3.67449e-07
-1.01578e-06
-3.42421e-07
-1.04504e-06
-3.15962e-07
-1.0715e-06
-2.88438e-07
-1.09516e-06
-2.6007e-07
-1.11602e-06
-2.31e-07
-1.13408e-06
-2.01324e-07
-1.14934e-06
-1.71112e-07
-1.16179e-06
-1.40426e-07
-1.17146e-06
-1.09359e-07
-1.17834e-06
-7.80835e-08
-1.18245e-06
-4.6813e-08
-1.56312e-08
6.57706e-07
-1.10947e-08
6.55244e-07
-3.30451e-08
6.51164e-07
-5.47297e-08
6.45481e-07
-7.61216e-08
6.38211e-07
-9.7154e-08
6.29367e-07
-1.17749e-07
6.18963e-07
-1.3784e-07
6.07013e-07
-1.57369e-07
5.93527e-07
-1.76276e-07
5.78518e-07
-1.9449e-07
5.61997e-07
-2.11912e-07
5.43985e-07
-2.28418e-07
5.24517e-07
-2.43845e-07
5.03649e-07
-2.57996e-07
4.81474e-07
-2.70645e-07
4.5813e-07
-2.81558e-07
4.33803e-07
-2.90523e-07
4.0873e-07
-2.97389e-07
3.83177e-07
-3.02109e-07
3.57418e-07
-3.04754e-07
3.31709e-07
-3.05513e-07
3.06266e-07
-3.04656e-07
2.81256e-07
-3.02494e-07
2.56792e-07
-2.99332e-07
2.32945e-07
-2.95444e-07
2.0975e-07
-2.91049e-07
1.87216e-07
-2.86316e-07
1.6534e-07
-2.81368e-07
1.44107e-07
-2.76289e-07
1.23501e-07
-2.71136e-07
1.03501e-07
-2.65951e-07
8.40876e-08
-2.6076e-07
6.52424e-08
-2.55586e-07
4.69464e-08
-2.50447e-07
2.91815e-08
-2.45362e-07
1.19297e-08
-2.40349e-07
-4.82724e-09
-2.35426e-07
-2.11084e-08
-2.30595e-07
-3.693e-08
-2.25846e-07
-5.23083e-08
-2.21187e-07
-6.72601e-08
-2.16629e-07
-8.18025e-08
-2.1218e-07
-9.59532e-08
-2.07847e-07
-1.0973e-07
-2.03634e-07
-1.23151e-07
-1.99544e-07
-1.36236e-07
-1.95579e-07
-1.49003e-07
-1.91741e-07
-1.61472e-07
-1.88027e-07
-1.73662e-07
-1.84437e-07
-1.85594e-07
-1.80967e-07
-1.97287e-07
-1.77615e-07
-2.08763e-07
-1.74377e-07
-2.20042e-07
-1.7125e-07
-2.31145e-07
-1.68229e-07
-2.42094e-07
-1.65316e-07
-2.52911e-07
-1.62511e-07
-2.63617e-07
-1.59822e-07
-2.74235e-07
-1.57268e-07
-2.84786e-07
-1.54878e-07
-2.95292e-07
-1.5273e-07
-3.05785e-07
-1.50902e-07
-3.16305e-07
-1.49523e-07
-3.26862e-07
-1.48864e-07
-3.37481e-07
-1.49431e-07
-3.48199e-07
-1.52134e-07
-3.59317e-07
-1.5691e-07
-3.71044e-07
-1.63206e-07
-3.8355e-07
-1.70747e-07
-3.96987e-07
-1.79392e-07
-4.11504e-07
-1.89087e-07
-4.27255e-07
-1.99841e-07
-4.4441e-07
-2.11714e-07
-4.63166e-07
-2.24809e-07
-4.83757e-07
-2.39259e-07
-5.06465e-07
-2.55228e-07
-5.31638e-07
-2.7296e-07
-5.59698e-07
-2.92589e-07
-5.91092e-07
-3.13975e-07
-6.26203e-07
-3.36464e-07
-6.65116e-07
-3.58661e-07
-7.07369e-07
-3.78355e-07
-7.5179e-07
-3.92826e-07
-7.9671e-07
-3.99797e-07
-8.40508e-07
-3.98443e-07
-8.82101e-07
-3.89601e-07
-9.21006e-07
-3.75021e-07
-9.57122e-07
-3.56481e-07
-9.905e-07
-3.35322e-07
-1.02121e-06
-3.12412e-07
-1.04928e-06
-2.88266e-07
-1.07474e-06
-2.63183e-07
-1.09757e-06
-2.37345e-07
-1.11776e-06
-2.10866e-07
-1.13528e-06
-1.83826e-07
-1.15013e-06
-1.56282e-07
-1.16227e-06
-1.28285e-07
-1.17171e-06
-9.99226e-08
-1.17844e-06
-7.13542e-08
-1.18248e-06
-4.27815e-08
-1.42865e-08
6.57697e-07
-1.02605e-08
6.55207e-07
-3.0563e-08
6.51079e-07
-5.06214e-08
6.45331e-07
-7.04094e-08
6.37981e-07
-8.98634e-08
6.29047e-07
-1.0891e-07
6.18547e-07
-1.27485e-07
6.065e-07
-1.45534e-07
5.9292e-07
-1.63003e-07
5.77823e-07
-1.79823e-07
5.61227e-07
-1.95906e-07
5.43154e-07
-2.11135e-07
5.23641e-07
-2.2536e-07
5.02748e-07
-2.384e-07
4.80568e-07
-2.50047e-07
4.57239e-07
-2.60085e-07
4.3295e-07
-2.6832e-07
4.07932e-07
-2.74618e-07
3.8245e-07
-2.78937e-07
3.56774e-07
-2.81347e-07
3.31155e-07
-2.82025e-07
3.05804e-07
-2.81221e-07
2.80883e-07
-2.79225e-07
2.565e-07
-2.76317e-07
2.32722e-07
-2.72749e-07
2.0958e-07
-2.68723e-07
1.87081e-07
-2.64393e-07
1.6522e-07
-2.5987e-07
1.4398e-07
-2.55231e-07
1.23344e-07
-2.50529e-07
1.0329e-07
-2.45799e-07
8.37978e-08
-2.41067e-07
6.48484e-08
-2.36351e-07
4.6423e-08
-2.31668e-07
2.85034e-08
-2.27035e-07
1.10716e-08
-2.22468e-07
-5.89024e-09
-2.17983e-07
-2.24006e-08
-2.1358e-07
-3.84752e-08
-2.09248e-07
-5.41294e-08
-2.04998e-07
-6.93793e-08
-2.00837e-07
-8.42408e-08
-1.96772e-07
-9.87307e-08
-1.92809e-07
-1.12866e-07
-1.88953e-07
-1.26663e-07
-1.85204e-07
-1.40139e-07
-1.81564e-07
-1.53312e-07
-1.78035e-07
-1.662e-07
-1.74614e-07
-1.7882e-07
-1.71299e-07
-1.9119e-07
-1.68088e-07
-2.03329e-07
-1.64977e-07
-2.15254e-07
-1.61963e-07
-2.26984e-07
-1.59042e-07
-2.38536e-07
-1.56212e-07
-2.49928e-07
-1.53471e-07
-2.61178e-07
-1.50823e-07
-2.72304e-07
-1.48276e-07
-2.83325e-07
-1.45847e-07
-2.9426e-07
-1.43569e-07
-3.05127e-07
-1.41529e-07
-3.15953e-07
-1.39786e-07
-3.26782e-07
-1.38467e-07
-3.3764e-07
-1.37875e-07
-3.48572e-07
-1.38521e-07
-3.59667e-07
-1.41326e-07
-3.71186e-07
-1.45901e-07
-3.83318e-07
-1.51802e-07
-3.96222e-07
-1.58807e-07
-4.10041e-07
-1.66805e-07
-4.2492e-07
-1.75758e-07
-4.41016e-07
-1.85685e-07
-4.58503e-07
-1.96651e-07
-4.77585e-07
-2.08755e-07
-4.98508e-07
-2.22125e-07
-5.2157e-07
-2.36923e-07
-5.4714e-07
-2.5337e-07
-5.75651e-07
-2.7155e-07
-6.07535e-07
-2.91264e-07
-6.43109e-07
-3.11806e-07
-6.82332e-07
-3.31778e-07
-7.24559e-07
-3.49062e-07
-7.68464e-07
-3.61204e-07
-8.12348e-07
-3.66327e-07
-8.54713e-07
-3.63959e-07
-8.94664e-07
-3.55047e-07
-9.31882e-07
-3.41222e-07
-9.66368e-07
-3.2404e-07
-9.98227e-07
-3.04639e-07
-1.02755e-06
-2.83743e-07
-1.05439e-06
-2.61781e-07
-1.07877e-06
-2.39e-07
-1.10067e-06
-2.15547e-07
-1.12007e-06
-1.9152e-07
-1.13694e-06
-1.66983e-07
-1.15125e-06
-1.41982e-07
-1.16298e-06
-1.16562e-07
-1.17211e-06
-9.07997e-08
-1.17862e-06
-6.48431e-08
-1.18252e-06
-3.88795e-08
-1.29854e-08
6.5769e-07
-9.41925e-09
6.55179e-07
-2.80601e-08
6.51016e-07
-4.64787e-08
6.45221e-07
-6.46501e-08
6.37813e-07
-8.25147e-08
6.28811e-07
-1.00003e-07
6.18238e-07
-1.17056e-07
6.06114e-07
-1.33623e-07
5.92456e-07
-1.49653e-07
5.77285e-07
-1.65084e-07
5.60618e-07
-1.79834e-07
5.42484e-07
-1.93795e-07
5.2292e-07
-2.0683e-07
5.01988e-07
-2.18772e-07
4.79784e-07
-2.29431e-07
4.56446e-07
-2.3861e-07
4.32162e-07
-2.46132e-07
4.07163e-07
-2.51876e-07
3.81713e-07
-2.55806e-07
3.56077e-07
-2.5799e-07
3.30504e-07
-2.58592e-07
3.052e-07
-2.57844e-07
2.80323e-07
-2.56011e-07
2.55978e-07
-2.53352e-07
2.32228e-07
-2.50096e-07
2.09102e-07
-2.46427e-07
1.86605e-07
-2.42486e-07
1.6473e-07
-2.38373e-07
1.43459e-07
-2.34158e-07
1.22773e-07
-2.29888e-07
1.0265e-07
-2.25595e-07
8.30694e-08
-2.21301e-07
6.40112e-08
-2.17023e-07
4.54566e-08
-2.12777e-07
2.73874e-08
-2.08575e-07
9.78593e-09
-2.04433e-07
-7.36557e-09
-2.00366e-07
-2.4085e-08
-1.96371e-07
-4.03873e-08
-1.92439e-07
-5.62873e-08
-1.88578e-07
-7.17999e-08
-1.84796e-07
-8.69404e-08
-1.81099e-07
-1.01724e-07
-1.77492e-07
-1.16167e-07
-1.73977e-07
-1.30284e-07
-1.70556e-07
-1.44092e-07
-1.67231e-07
-1.57606e-07
-1.64e-07
-1.70842e-07
-1.60863e-07
-1.83816e-07
-1.57818e-07
-1.96545e-07
-1.54861e-07
-2.09042e-07
-1.5199e-07
-2.21325e-07
-1.49201e-07
-2.33408e-07
-1.4649e-07
-2.45307e-07
-1.43856e-07
-2.57037e-07
-1.41298e-07
-2.68611e-07
-1.38819e-07
-2.80046e-07
-1.36429e-07
-2.91357e-07
-1.34145e-07
-3.02561e-07
-1.32e-07
-3.1368e-07
-1.30088e-07
-3.24738e-07
-1.28452e-07
-3.35769e-07
-1.27228e-07
-3.46822e-07
-1.26715e-07
-3.57968e-07
-1.27431e-07
-3.69368e-07
-1.30242e-07
-3.81234e-07
-1.34575e-07
-3.93728e-07
-1.4007e-07
-4.06994e-07
-1.46543e-07
-4.21172e-07
-1.53906e-07
-4.36405e-07
-1.62136e-07
-4.52851e-07
-1.71258e-07
-4.7069e-07
-1.81337e-07
-4.90135e-07
-1.92469e-07
-5.11444e-07
-2.04773e-07
-5.34933e-07
-2.18409e-07
-5.60988e-07
-2.33567e-07
-5.90046e-07
-2.50291e-07
-6.22508e-07
-2.68334e-07
-6.58616e-07
-2.86961e-07
-6.98189e-07
-3.04801e-07
-7.40406e-07
-3.19861e-07
-7.83813e-07
-3.29957e-07
-8.26715e-07
-3.33567e-07
-8.67756e-07
-3.30488e-07
-9.06223e-07
-3.21716e-07
-9.41937e-07
-3.08744e-07
-9.74982e-07
-2.92926e-07
-1.0055e-06
-2.75232e-07
-1.0336e-06
-2.56267e-07
-1.05933e-06
-2.36386e-07
-1.08272e-06
-2.15795e-07
-1.10375e-06
-1.94614e-07
-1.12239e-06
-1.72924e-07
-1.13863e-06
-1.50777e-07
-1.15241e-06
-1.28211e-07
-1.16371e-06
-1.05263e-07
-1.17252e-06
-8.20017e-08
-1.1788e-06
-5.85611e-08
-1.18257e-06
-3.51137e-08
-1.17291e-08
6.57686e-07
-8.57357e-09
6.5516e-07
-2.5543e-08
6.50974e-07
-4.23119e-08
6.45145e-07
-5.88572e-08
6.37694e-07
-7.51236e-08
6.28642e-07
-9.1047e-08
6.18013e-07
-1.06572e-07
6.05829e-07
-1.21653e-07
5.92109e-07
-1.36243e-07
5.76875e-07
-1.50285e-07
5.60148e-07
-1.63703e-07
5.41956e-07
-1.764e-07
5.22339e-07
-1.88251e-07
5.0136e-07
-1.99103e-07
4.79116e-07
-2.08783e-07
4.55747e-07
-2.17112e-07
4.31441e-07
-2.23932e-07
4.06431e-07
-2.29131e-07
3.80977e-07
-2.32682e-07
3.55345e-07
-2.34647e-07
3.2978e-07
-2.35178e-07
3.04487e-07
-2.34487e-07
2.7962e-07
-2.32818e-07
2.55281e-07
-2.30404e-07
2.31531e-07
-2.27454e-07
2.08395e-07
-2.24134e-07
1.85879e-07
-2.20571e-07
1.63972e-07
-2.16857e-07
1.42655e-07
-2.13053e-07
1.21909e-07
-2.09201e-07
1.01711e-07
-2.0533e-07
8.20391e-08
-2.01459e-07
6.28743e-08
-1.97604e-07
4.4197e-08
-1.93777e-07
2.5989e-08
-1.89991e-07
8.23264e-09
-1.86258e-07
-9.08945e-09
-1.82593e-07
-2.59947e-08
-1.7899e-07
-4.24973e-08
-1.75443e-07
-5.86114e-08
-1.71958e-07
-7.43511e-08
-1.68542e-07
-8.97307e-08
-1.652e-07
-1.04765e-07
-1.61937e-07
-1.19467e-07
-1.58753e-07
-1.33852e-07
-1.55652e-07
-1.47935e-07
-1.52633e-07
-1.6173e-07
-1.49696e-07
-1.7525e-07
-1.46839e-07
-1.88511e-07
-1.44061e-07
-2.01525e-07
-1.41358e-07
-2.14307e-07
-1.38728e-07
-2.2687e-07
-1.36167e-07
-2.39227e-07
-1.33673e-07
-2.5139e-07
-1.31244e-07
-2.63374e-07
-1.2888e-07
-2.75189e-07
-1.26584e-07
-2.86849e-07
-1.24367e-07
-2.98368e-07
-1.22247e-07
-3.09763e-07
-1.20256e-07
-3.21055e-07
-1.18486e-07
-3.32272e-07
-1.1698e-07
-3.43448e-07
-1.15875e-07
-3.54645e-07
-1.15465e-07
-3.65966e-07
-1.16264e-07
-3.77615e-07
-1.1897e-07
-3.89768e-07
-1.23008e-07
-4.02568e-07
-1.28071e-07
-4.16151e-07
-1.34003e-07
-4.30651e-07
-1.40732e-07
-4.46213e-07
-1.48244e-07
-4.62994e-07
-1.56568e-07
-4.81183e-07
-1.65767e-07
-5.01001e-07
-1.75932e-07
-5.22716e-07
-1.87171e-07
-5.46662e-07
-1.99641e-07
-5.73236e-07
-2.13499e-07
-6.02874e-07
-2.28752e-07
-6.35942e-07
-2.45123e-07
-6.72604e-07
-2.61867e-07
-7.1254e-07
-2.7767e-07
-7.54774e-07
-2.90687e-07
-7.97751e-07
-2.99003e-07
-8.39797e-07
-3.01404e-07
-8.79689e-07
-2.97885e-07
-9.16867e-07
-2.89441e-07
-9.5127e-07
-2.77417e-07
-9.83043e-07
-2.62985e-07
-1.01236e-06
-2.46968e-07
-1.03935e-06
-2.29872e-07
-1.06406e-06
-2.11993e-07
-1.08653e-06
-1.935e-07
-1.10674e-06
-1.74494e-07
-1.12468e-06
-1.55041e-07
-1.14029e-06
-1.35185e-07
-1.15356e-06
-1.14955e-07
-1.16445e-06
-9.4382e-08
-1.17293e-06
-7.35258e-08
-1.17898e-06
-5.25079e-08
-1.18261e-06
-3.14846e-08
-1.05182e-08
6.57683e-07
-7.72447e-09
6.55146e-07
-2.30151e-08
6.50941e-07
-3.81268e-08
6.45086e-07
-5.30383e-08
6.37601e-07
-6.76991e-08
6.28509e-07
-8.20506e-08
6.17834e-07
-9.60427e-08
6.05598e-07
-1.09633e-07
5.91824e-07
-1.2278e-07
5.76534e-07
-1.35431e-07
5.59748e-07
-1.47518e-07
5.41498e-07
-1.58952e-07
5.21825e-07
-1.69621e-07
5.00794e-07
-1.79387e-07
4.78501e-07
-1.88094e-07
4.55089e-07
-1.9558e-07
4.30746e-07
-2.01704e-07
4.05706e-07
-2.06367e-07
3.8023e-07
-2.09545e-07
3.54581e-07
-2.11297e-07
3.29005e-07
-2.11761e-07
3.03702e-07
-2.1113e-07
2.78825e-07
-2.09624e-07
2.54473e-07
-2.07453e-07
2.30705e-07
-2.04804e-07
2.07545e-07
-2.01827e-07
1.84996e-07
-1.98636e-07
1.63046e-07
-1.9531e-07
1.41677e-07
-1.91907e-07
1.20866e-07
-1.88463e-07
1.00591e-07
-1.85002e-07
8.08315e-08
-1.81542e-07
6.15656e-08
-1.78096e-07
4.27747e-08
-1.74676e-07
2.44404e-08
-1.71293e-07
6.54547e-09
-1.67958e-07
-1.09277e-08
-1.64681e-07
-2.79952e-08
-1.6146e-07
-4.46711e-08
-1.58286e-07
-6.09686e-08
-1.55166e-07
-7.69013e-08
-1.52107e-07
-9.24824e-08
-1.49111e-07
-1.07725e-07
-1.46184e-07
-1.22643e-07
-1.43325e-07
-1.3725e-07
-1.40537e-07
-1.51557e-07
-1.3782e-07
-1.65579e-07
-1.35173e-07
-1.79328e-07
-1.32595e-07
-1.92817e-07
-1.30084e-07
-2.06057e-07
-1.27637e-07
-2.19061e-07
-1.25252e-07
-2.3184e-07
-1.22925e-07
-2.44406e-07
-1.20655e-07
-2.5677e-07
-1.18439e-07
-2.68942e-07
-1.16279e-07
-2.80935e-07
-1.14179e-07
-2.92759e-07
-1.12148e-07
-3.04428e-07
-1.10206e-07
-3.15961e-07
-1.08386e-07
-3.27381e-07
-1.06769e-07
-3.38717e-07
-1.05405e-07
-3.50013e-07
-1.04427e-07
-3.61337e-07
-1.04127e-07
-3.72814e-07
-1.05009e-07
-3.84661e-07
-1.07548e-07
-3.97043e-07
-1.1125e-07
-4.10095e-07
-1.15855e-07
-4.23946e-07
-1.21232e-07
-4.38728e-07
-1.2732e-07
-4.54584e-07
-1.34111e-07
-4.71678e-07
-1.41634e-07
-4.90201e-07
-1.4995e-07
-5.10383e-07
-1.59143e-07
-5.32503e-07
-1.6931e-07
-5.56909e-07
-1.806e-07
-5.84008e-07
-1.93139e-07
-6.14221e-07
-2.06906e-07
-6.47885e-07
-2.21605e-07
-6.85077e-07
-2.36508e-07
-7.25347e-07
-2.50375e-07
-7.67583e-07
-2.61529e-07
-8.10151e-07
-2.68315e-07
-8.51418e-07
-2.6978e-07
-8.90288e-07
-2.66054e-07
-9.26337e-07
-2.58094e-07
-9.59596e-07
-2.47095e-07
-9.90263e-07
-2.34067e-07
-1.01853e-06
-2.19702e-07
-1.04454e-06
-2.04426e-07
-1.06836e-06
-1.88484e-07
-1.09001e-06
-1.72015e-07
-1.10949e-06
-1.55104e-07
-1.12678e-06
-1.37805e-07
-1.14183e-06
-1.20153e-07
-1.15463e-06
-1.02171e-07
-1.16513e-06
-8.38864e-08
-1.17331e-06
-6.5349e-08
-1.17915e-06
-4.66677e-08
-1.18265e-06
-2.79827e-08
-9.34926e-09
6.5768e-07
-6.87274e-09
6.55135e-07
-2.04787e-08
6.50915e-07
-3.39268e-08
6.45038e-07
-4.7198e-08
6.37526e-07
-6.02469e-08
6.284e-07
-7.30206e-08
6.17685e-07
-8.54741e-08
6.05405e-07
-9.75697e-08
5.91582e-07
-1.09269e-07
5.76239e-07
-1.20526e-07
5.59399e-07
-1.3128e-07
5.41093e-07
-1.41451e-07
5.21363e-07
-1.50939e-07
5.00275e-07
-1.59621e-07
4.77928e-07
-1.67357e-07
4.54465e-07
-1.74005e-07
4.30077e-07
-1.79438e-07
4.04996e-07
-1.83571e-07
3.79484e-07
-1.86382e-07
3.53806e-07
-1.87926e-07
3.28204e-07
-1.88327e-07
3.02879e-07
-1.87759e-07
2.77979e-07
-1.86415e-07
2.53603e-07
-1.84486e-07
2.29807e-07
-1.82135e-07
2.06615e-07
-1.79497e-07
1.84027e-07
-1.76671e-07
1.6203e-07
-1.73728e-07
1.40606e-07
-1.70717e-07
1.19732e-07
-1.67671e-07
9.93848e-08
-1.64612e-07
7.95423e-08
-1.61554e-07
6.01842e-08
-1.58508e-07
4.12912e-08
-1.55485e-07
2.28452e-08
-1.52495e-07
4.82891e-09
-1.49547e-07
-1.27747e-08
-1.46651e-07
-2.99815e-08
-1.43801e-07
-4.68047e-08
-1.40992e-07
-6.3257e-08
-1.3823e-07
-7.93513e-08
-1.3552e-07
-9.50999e-08
-1.32865e-07
-1.10515e-07
-1.30268e-07
-1.2561e-07
-1.2773e-07
-1.40396e-07
-1.25252e-07
-1.54884e-07
-1.22835e-07
-1.69088e-07
-1.20478e-07
-1.83018e-07
-1.18179e-07
-1.96686e-07
-1.15937e-07
-2.10102e-07
-1.13749e-07
-2.23277e-07
-1.11612e-07
-2.36221e-07
-1.09525e-07
-2.48944e-07
-1.07486e-07
-2.61456e-07
-1.05492e-07
-2.73766e-07
-1.03546e-07
-2.85886e-07
-1.01652e-07
-2.97826e-07
-9.98196e-08
-3.096e-07
-9.80662e-08
-3.21228e-07
-9.64282e-08
-3.32734e-07
-9.4973e-08