/*--------------------------------*- C++ -*----------------------------------*\
  =========                 |
  \\      /  F ield         | OpenFOAM: The Open Source CFD Toolbox
   \\    /   O peration     | Website:  https://openfoam.org
    \\  /    A nd           | Version:  8
     \\/     M anipulation  |
\*---------------------------------------------------------------------------*/
FoamFile
{
    version     2.0;
    format      ascii;
    class       volScalarField;
    location    "0.1/fluid";
    object      Qdot;
}
// * * * * * * * * * * * * * * * * * * * * * * * * * * * * * * * * * * * * * //

dimensions      [1 -1 -3 0 0 0 0];

internalField   nonuniform List<scalar> 
4000
(
-1.37576e-21
0
2.45345e-15
-5.25098e-12
0
-2.10039e-11
0
0
0
-2.0652e-10
-7.04389e-19
-6.72126e-10
0
3.14042e-13
-1.34425e-09
0
0
-3.38107e-17
-2.0874e-06
-1.0437e-06
2.39725e-08
1.9177e-07
1.82181e-06
1.56403e-05
0.000120612
0.00083573
0.00490923
0.024772
0.108157
0.412425
1.38798
4.16621
11.266
27.7064
62.4882
130.261
252.809
460.317
792.931
1301.87
2054.5
3143.1
4704.99
6958.98
10270
15262.8
23023.1
35455.5
55910.3
90238
148453
247185
413084
687936
1.13697e+06
1.86233e+06
3.02446e+06
4.87477e+06
7.80632e+06
1.24339e+07
1.96731e+07
3.08997e+07
4.85974e+07
7.73213e+07
1.23259e+08
1.2061e+08
7.20834e+07
4.26429e+07
2.47705e+07
1.40343e+07
7.70708e+06
4.07585e+06
2.06307e+06
993436
454081
202288
72848
14130
1230.19
53.1443
1.25967
0.0185827
0.000235469
3.95775e-06
1.31823e-07
1.11084e-08
-1.29582e-10
-3.14469e-11
-1.02801e-11
-1.31792e-10
-1.64077e-12
-7.03745e-13
-3.05215e-13
-1.32438e-13
-5.68633e-14
-2.41791e-14
-1.47311e-12
-3.94125e-15
-1.34033e-15
-5.90908e-12
0
-2.92618e-12
-2.0874e-06
-2.20121e-20
0
0
0
0
3.92553e-14
-2.0874e-06
-3.36063e-10
0
0
0
0
-2.6885e-09
-5.63511e-18
-5.37701e-09
-1.0754e-08
-3.05423e-15
2.39712e-08
1.9177e-07
1.86976e-06
1.56882e-05
0.000121368
0.000833002
0.00489301
0.0247063
0.107995
0.412456
1.39067
4.18284
11.3357
27.9311
63.1145
131.82
256.324
467.363
806.607
1327.6
2099.47
3218.19
4826.99
7154.76
10584.1
15771.2
23858.9
36854.6
58291.6
94337.1
155527
259312
433571
721974
1.19269e+06
1.95253e+06
3.16927e+06
5.10588e+06
8.17356e+06
1.30161e+07
2.05739e+07
3.23255e+07
5.08733e+07
8.09895e+07
1.29052e+08
1.15343e+08
6.88643e+07
4.06583e+07
2.3551e+07
1.32938e+07
7.26598e+06
3.81977e+06
1.91973e+06
916715
415838
184624
58589
10161.3
746.322
28.0846
0.583151
0.00808069
0.000105363
2.00788e-06
7.66305e-08
1.13606e-08
-1.0955e-10
-2.69367e-11
-3.45223e-10
-2.10112e-10
-1.50858e-12
-6.51255e-13
-2.84317e-13
-1.2369e-13
-5.34613e-14
-2.28425e-14
-9.47722e-15
-3.74381e-15
-1.27388e-15
-2.25445e-16
-1.37576e-21
-2.92618e-12
0
-6.45375e-12
9.81381e-15
0
0
-1.76097e-19
0
0
0
-2.0874e-06
0
-2.0874e-06
0
-2.6885e-09
-5.63511e-18
-1.19856e-08
-2.0874e-06
-2.39713e-08
-1.01973e-06
1.9177e-07
1.9177e-06
1.60718e-05
0.000122817
0.000843859
0.00494965
0.0249681
0.109136
0.417126
1.40829
4.24313
11.521
28.4472
64.4031
134.824
262.867
480.958
832.36
1373.12
2176.83
3345.84
5033.75
7487.18
11119.9
16644.3
25304.3
39290.9
62464.5
101556
168027
280772
469828
782172
1.2911e+06
2.11154e+06
3.4238e+06
5.51008e+06
8.81099e+06
1.40153e+07
2.20831e+07
3.46635e+07
5.49329e+07
8.72845e+07
1.38555e+08
1.06617e+08
6.35948e+07
3.74491e+07
2.16036e+07
1.21273e+07
6.58171e+06
3.42956e+06
1.70581e+06
805005
361851
157760
43354.3
6277.36
391.039
13.0548
0.251047
0.00346322
4.95013e-05
1.11944e-06
5.5149e-08
2.21534e-09
-8.60357e-11
-1.52178e-09
-7.57345e-10
-1.71313e-10
-1.38805e-12
-6.02654e-13
-6.88544e-12
-1.14942e-13
-5.9023e-12
-2.13238e-14
-6.65227e-13
-3.49321e-15
-1.19225e-15
-2.11206e-16
0
-2.0874e-06
0
-2.0874e-06
0
0
-2.0874e-06
0
3.92553e-14
-2.0874e-06
0
0
-1.40878e-18
-2.0874e-06
3.14042e-13
0
-5.63511e-18
-2.0874e-06
-3.32471e-16
-1.32173e-08
2.39712e-08
1.9177e-07
1.96564e-06
1.66471e-05
0.000127505
0.00086488
0.00506626
0.0255363
0.111607
0.426765
1.44218
4.35111
11.8353
29.2911
66.5216
139.603
272.748
499.887
866.886
1433.38
2278.32
3512.46
5303.21
7920.91
11821.4
17792.6
27216.3
42532.5
68045.4
111248
184848
309661
518623
863175
1.42361e+06
2.32593e+06
3.7677e+06
6.05791e+06
9.6788e+06
1.53843e+07
2.41428e+07
3.78457e+07
6.00537e+07
9.54047e+07
1.49717e+08
9.67237e+07
5.76398e+07
3.38379e+07
1.94246e+07
1.08316e+07
5.82854e+06
3.00616e+06
1.47724e+06
688069
307187
127299
30478.7
3534.88
189.409
5.633
0.100458
0.00139188
2.19356e-05
5.93498e-07
3.29837e-08
5.65316e-09
-3.06447e-09
-8.45831e-10
-7.12298e-12
-2.88885e-12
-1.23447e-12
-5.40445e-13
-2.60522e-11
-1.18087e-11
-4.51991e-14
-1.94101e-14
4.01893e-11
-3.68977e-13
-1.09353e-15
-2.30544e-14
0
-1.31275e-12
0
-2.34095e-11
-2.08743e-06
0
0
0
3.92551e-14
-2.0874e-06
-2.0874e-06
0
0
0
0
0
-5.37638e-09
-3.38107e-17
1.25582e-12
-3.50504e-15
2.39725e-08
1.9177e-07
2.06153e-06
1.73662e-05
0.000132118
0.000899325
0.00525611
0.0264752
0.115687
0.442455
1.496
4.51706
12.2983
30.4657
69.24
145.478
284.629
522.525
907.875
1504.45
2397.46
3707.48
5618.3
8428.61
12644.7
19146
29480.6
46390.4
74715.6
122865
205030
344297
577046
960065
1.58207e+06
2.58243e+06
4.17956e+06
6.71489e+06
1.07212e+07
1.70321e+07
2.67128e+07
4.1923e+07
6.65838e+07
1.05948e+08
1.46357e+08
8.78265e+07
5.21736e+07
3.04788e+07
1.73824e+07
9.61405e+06
5.12212e+06
2.61161e+06
1.26651e+06
582058
258950
97565.4
20283.1
1920.41
90.2016
2.42173
0.0409551
0.000583105
1.0264e-05
3.05891e-07
2.20347e-08
-2.517e-10
-5.48999e-11
-8.42829e-10
-6.2054e-12
-2.55059e-12
3.9097e-11
-4.84067e-13
-2.13845e-13
3.41945e-11
3.43041e-11
-5.92643e-12
-7.36611e-15
-6.11344e-12
4.01964e-11
-1.76559e-16
0
0
-5.25098e-12
-1.0502e-11
0
-2.5815e-11
0
-1.0326e-10
3.92553e-14
0
0
0
-1.40878e-18
3.14041e-13
-2.0874e-06
6.28084e-13
6.28078e-13
-3.94458e-17
-1.0754e-08
-3.67409e-15
2.39712e-08
1.9177e-07
2.10947e-06
1.60938e-05
0.00013769
0.000938969
0.00548436
0.0276095
0.120596
0.461179
1.55955
4.71073
12.8327
31.8121
72.3601
152.183
298.083
547.978
953.653
1583.38
2529.15
3922.39
5965.03
8987.42
13552.5
20642.4
31992.8
50685.3
82160.1
135842
227551
382849
641890
1.06735e+06
1.75733e+06
2.86604e+06
4.63526e+06
7.44289e+06
1.18793e+07
1.88419e+07
2.95566e+07
4.64599e+07
7.3949e+07
1.17955e+08
1.34274e+08
8.0142e+07
4.73823e+07
2.75091e+07
1.55705e+07
8.53446e+06
4.49851e+06
2.26618e+06
1.08423e+06
491982
217912
72874.8
12985.9
1035.86
43.4439
1.05995
0.017236
0.000255211
5.03139e-06
1.74705e-07
1.06916e-08
-1.88868e-10
-4.44487e-11
-6.86294e-10
-5.38112e-12
-2.24343e-12
-9.75911e-13
-4.31578e-13
-1.91003e-13
-5.99341e-12
-3.68761e-14
-1.58865e-14
-6.66747e-15
-2.65028e-15
-9.05576e-16
-5.909e-12
-1.37576e-21
-2.0874e-06
0
-1.29075e-11
0
-2.0874e-06
0
-1.0326e-10
-1.67992e-10
7.85105e-14
0
-6.72126e-10
-1.40878e-18
0
3.14042e-13
-2.0874e-06
-1.12702e-17
-1.19856e-08
-2.0874e-06
-3.85441e-15
2.39725e-08
2.39712e-07
1.20959e-06
1.81923e-05
0.000144222
0.000985326
0.00574973
0.0289189
0.126244
0.482605
1.63177
4.92909
13.4306
33.3066
75.7983
159.517
312.695
575.437
1002.74
1667.55
2669
4149.92
6331.5
9577.86
14512.6
22228
34660.7
55254.7
90086.2
149641
251422
423519
709950
1.17943e+06
1.9397e+06
3.16016e+06
5.1065e+06
8.1942e+06
1.30734e+07
2.06935e+07
3.24857e+07
5.1083e+07
8.1387e+07
1.2985e+08
1.22531e+08
7.29678e+07
4.29628e+07
2.48016e+07
1.39379e+07
7.57375e+06
3.95108e+06
1.96744e+06
929323
417345
182766
52023.2
8221.01
566.626
21.4939
0.480954
0.00766317
0.000119359
2.65411e-06
1.0946e-07
1.10824e-08
-1.45943e-10
-3.66103e-11
-1.47015e-09
-7.13625e-10
-1.98682e-12
-8.70933e-13
-3.86865e-13
-1.72048e-13
-7.59393e-14
-5.88566e-12
-7.53667e-12
-6.02958e-15
-2.04083e-13
-8.23941e-16
-5.93185e-12
0
-1.31275e-12
0
0
-2.0874e-06
0
-5.163e-11
-1.76097e-19
0
7.85105e-14
-7.04389e-19
-1.49821e-09
0
0
-2.6885e-09
-2.68787e-09
-5.63511e-18
1.25612e-12
-3.94458e-16
-4.04601e-15
2.39712e-08
2.39712e-07
2.34918e-06
1.81818e-05
0.000152659
0.0010363
0.00604434
0.0303745
0.132497
0.506219
1.71091
5.16694
14.0774
34.9126
79.4677
167.291
328.081
604.179
1053.83
1754.75
2813.32
4384.09
6708.13
10184.6
15500
23861.5
37414.3
59976.9
98275.3
163866
275917
464995
778888
1.29216e+06
2.12176e+06
3.45135e+06
5.56839e+06
8.92146e+06
1.42111e+07
2.24022e+07
3.51242e+07
5.5746e+07
8.86259e+07
1.4095e+08
1.11446e+08
6.62802e+07
3.88988e+07
2.23466e+07
1.24786e+07
6.72726e+06
3.47707e+06
1.71292e+06
799717
356355
151398
38695.6
5140.05
314.845
10.9302
0.229567
0.00362404
5.97425e-05
1.49175e-06
6.52281e-08
1.13305e-08
-1.15647e-10
-3.07004e-11
-7.96395e-10
-4.16026e-12
-1.76908e-12
-5.24095e-11
-6.25682e-12
-1.55281e-13
-6.87706e-14
-5.93909e-12
-1.30616e-14
4.01919e-11
4.01952e-11
-7.51799e-16
-5.90897e-12
0
0
-2.0874e-06
-2.20121e-20
-4.40243e-20
-2.5815e-11
1.96276e-14
3.92553e-14
-2.0874e-06
-1.68031e-10
0
-2.0874e-06
3.14042e-13
0
0
-5.99282e-09
-2.0874e-06
-5.0716e-17
-4.11363e-16
-4.2376e-15
-4.57684e-14
2.39712e-07
2.54095e-06
2.03976e-05
0.000161721
0.00109272
0.00636045
0.0319365
0.139193
0.531402
1.79493
5.41811
14.7568
36.5896
83.277
175.314
343.871
633.524
1105.75
1843
2958.94
4619.89
7087.14
10795.5
16496.2
25513.9
40207.9
64779.6
106615
178346
300803
507016
848555
1.4059e+06
2.30537e+06
3.74517e+06
6.03533e+06
9.65948e+06
1.53733e+07
2.41451e+07
3.78614e+07
6.00949e+07
9.55211e+07
1.50497e+08
1.01755e+08
6.04453e+07
3.53696e+07
2.02288e+07
1.123e+07
6.01005e+06
3.08005e+06
1.50246e+06
694239
307979
124701
28729.2
3273.28
181.356
5.82576
0.116289
0.00183454
3.21533e-05
8.7591e-07
4.34308e-08
5.49875e-09
-9.40607e-11
-1.52443e-09
-9.22255e-12
-3.70924e-12
-1.59412e-12
-4.27135e-11
-2.13194e-11
-1.41186e-13
-6.2817e-14
-3.25451e-12
-1.1968e-14
-5.04996e-15
-2.01239e-15
-9.21342e-14
4.01973e-11
0
0
-6.45375e-12
0
0
-2.0874e-06
0
-2.0874e-06
-1.76097e-19
0
0
-1.49805e-09
-2.0874e-06
0
3.14042e-13
0
-1.12702e-17
-4.50809e-17
-4.28268e-16
-4.44047e-15
2.39712e-08
2.39712e-07
2.63684e-06
2.05525e-05
0.000170169
0.00114984
0.00669168
0.0335691
0.146165
0.557528
1.88173
5.67641
15.452
38.2973
87.1365
183.402
359.71
662.833
1157.4
1930.5
3102.95
4852.82
7461.55
11399.9
17484.3
27158.3
42998.1
69591.6
114988
192893
325776
549117
918265
1.51963e+06
2.48894e+06
4.03898e+06
6.50235e+06
1.03978e+07
1.65357e+07
2.59129e+07
4.06254e+07
6.45116e+07
1.02584e+08
1.53796e+08
9.38978e+07
5.56947e+07
3.24907e+07
1.85015e+07
1.02138e+07
5.42851e+06
2.76001e+06
1.33416e+06
610907
270551
101758
21559.8
2151.6
109.323
3.27948
0.0627951
0.000996889
1.85529e-05
5.70251e-07
3.27264e-08
5.60675e-09
-8.4355e-11
-2.86464e-11
-8.21165e-12
-3.33598e-12
-1.44443e-12
-6.43479e-13
-2.88691e-13
-1.29522e-13
-5.75924e-14
-2.53941e-14
-1.10264e-14
-3.32849e-13
-1.86051e-15
4.01967e-11
-1.13434e-16
0
-2.0874e-06
0
-2.20121e-20
9.81381e-15
1.96276e-14
0
-1.76097e-19
-1.76097e-19
-3.52194e-19
0
-7.04389e-19
3.14042e-13
0
0
0
-1.19856e-08
-4.50809e-17
-4.50809e-16
-4.6546e-15
2.39712e-08
2.87655e-07
2.78066e-06
2.28906e-05
0.000178906
0.00121058
0.00703182
0.0352305
0.153242
0.583954
1.96918
5.9356
16.1467
39.9961
90.9586
191.376
375.257
691.489
1207.72
2015.5
3242.57
5078.41
7824.28
11986.4
18445.5
28763.6
45731.9
74321.6
123235
207234
350383
590572
986888
1.63164e+06
2.66992e+06
4.3291e+06
6.96445e+06
1.11301e+07
1.7691e+07
2.7715e+07
4.34622e+07
6.91232e+07
1.10107e+08
1.4758e+08
8.80738e+07
5.2092e+07
3.02731e+07
1.71572e+07
9.41794e+06
4.97191e+06
2.50886e+06
1.20252e+06
546140
241192
85423.6
16345.2
1464.32
69.1943
1.95691
0.0362191
0.000581568
1.14914e-05
3.71534e-07
2.15581e-08
5.68084e-09
-6.69374e-11
-2.00937e-11
-7.38738e-12
3.71569e-11
3.88735e-11
-5.81308e-11
-2.12698e-11
-2.3529e-11
-5.96218e-12
-2.35716e-14
-1.02518e-14
-4.34373e-15
-1.73521e-15
-5.96124e-16
-1.06078e-16
0
0
0
0
0
0
-4.20079e-11
0
-1.76097e-19
-3.52194e-19
1.57021e-13
-7.04389e-19
-1.40878e-18
0
0
-2.09009e-06
-1.12702e-17
-5.37575e-09
-2.0874e-06
-4.85746e-15
-1.01973e-06
-7.77555e-07
2.87655e-06
2.41371e-05
0.00018859
0.00126923
0.00736814
0.0368825
0.160251
0.610036
2.05519
6.18956
16.8247
41.6474
94.6587
199.064
390.203
718.904
1255.7
2096.3
3375
5292.15
8167.91
12542.5
19359
30293.1
48343.8
78851.1
131144
220987
373964
630263
1.05257e+06
1.73892e+06
2.84347e+06
4.60788e+06
7.40974e+06
1.18385e+07
1.87954e+07
2.94526e+07
4.62116e+07
7.35491e+07
1.17307e+08
1.40124e+08
8.34439e+07
4.92233e+07
2.85052e+07
1.60852e+07
8.78384e+06
4.60883e+06
2.30986e+06
1.09881e+06
495694
218247
71177.4
12708.9
1039.3
46.1263
1.2351
0.0222794
0.000363424
7.62386e-06
2.85809e-07
2.20903e-08
5.73291e-09
-5.83525e-11
-1.80252e-11
-6.73418e-12
-3.77351e-10
-1.22475e-12
-5.48221e-13
-2.4738e-13
-1.1154e-13
-4.98162e-14
-2.20528e-14
-5.91844e-12
-4.07794e-15
-1.6289e-15
-5.61002e-16
-9.96703e-17
-4.03359e-13
-1.61344e-12
-5.25098e-12
0
-2.0874e-06
0
0
0
0
0
0
1.57021e-13
-6.72126e-10
-2.99641e-09
-2.81755e-18
-3.30432e-09
-2.09939e-06
-5.0716e-17
-2.39713e-08
1.25112e-12
2.39712e-08
2.87655e-07
2.02462e-06
2.53836e-05
0.000197039
0.0013271
0.00769591
0.0384808
0.167017
0.635139
2.13769
6.43232
17.4704
43.2145
98.1566
206.304
404.207
744.526
1300.38
2171.31
3497.64
5489.7
8485.2
13056
20202.9
31707.8
50762.4
83047.9
138468
233704
395716
666786
1.11287e+06
1.83722e+06
3.0022e+06
4.86236e+06
7.81527e+06
1.24817e+07
1.97902e+07
3.10133e+07
4.86666e+07
7.75027e+07
1.2368e+08
1.33714e+08
7.95402e+07
4.68223e+07
2.70357e+07
1.51998e+07
8.26348e+06
4.31288e+06
2.1488e+06
1.01558e+06
455793
200017
59051
10171.8
770.133
32.4027
0.82637
0.0146321
0.000242821
5.3515e-06
2.07001e-07
1.04619e-08
-2.22648e-10
-5.19138e-11
-1.63922e-11
-3.42284e-10
-2.60113e-12
-1.1431e-12
-9.4152e-11
-2.328e-13
-1.04735e-13
-4.69001e-14
-2.08377e-14
-6.6544e-13
-3.85012e-15
-5.91038e-12
-5.90937e-12
-9.44495e-17
-3.28186e-13
0
0
0
9.81381e-15
-4.68189e-11
0
0
3.92551e-14
-1.68031e-10
0
0
0
0
0
-2.0874e-06
6.28078e-13
-5.0716e-17
-5.01525e-16
-5.24065e-15
-1.01973e-06
3.35597e-07
2.16844e-06
2.65343e-05
0.000205105
0.00138143
0.00800573
0.0399864
0.173372
0.658648
2.21473
6.65826
18.0694
44.663
101.378
212.947
417.009
767.862
1340.92
2239.14
3608.17
5667.27
8769.84
13516
20958.4
32973.8
52925.8
86797.9
145000
245010
414985
699025
1.16593e+06
1.9235e+06
3.14125e+06
5.08489e+06
8.16943e+06
1.3043e+07
2.06539e+07
3.23702e+07
5.07974e+07
8.09281e+07
1.29157e+08
1.28231e+08
7.62131e+07
4.47862e+07
2.57967e+07
1.44581e+07
7.83042e+06
4.0688e+06
2.01697e+06
948005
423643
184397
52025.6
8280.13
591.552
23.8966
0.581639
0.0102148
0.000172474
3.99277e-06
1.52388e-07
4.09885e-09
-3.4999e-09
-4.70615e-11
-6.47076e-10
-4.18849e-10
-1.70477e-10
-1.07895e-12
3.97114e-11
-2.20163e-13
-9.93894e-14
-4.45916e-14
-1.97746e-14
-6.65015e-13
-3.67546e-15
-1.46943e-15
-5.05946e-16
-5.90893e-12
-1.37576e-21
-2.0874e-06
0
4.90691e-15
-2.0874e-06
0
0
0
-1.76097e-19
-1.68031e-10
0
-6.72126e-10
-2.0874e-06
0
0
0
-5.63511e-18
-5.63511e-17
-5.12795e-16
-5.4097e-15
2.39712e-08
3.35597e-07
3.30803e-06
2.76369e-05
0.000211263
0.00143106
0.00828877
0.0413593
0.179156
0.679987
2.28445
6.86217
18.6084
45.9622
104.258
218.864
428.371
788.493
1376.62
2298.65
3704.78
5821.96
9017.09
13914.7
21612.1
34067.4
54791.2
90023.7
150599
254659
431344
726252
1.21052e+06
1.99567e+06
3.25709e+06
5.26964e+06
8.46274e+06
1.35075e+07
2.1367e+07
3.34998e+07
5.26183e+07
8.38485e+07
1.33766e+08
1.23524e+08
7.33586e+07
4.30451e+07
2.47427e+07
1.38312e+07
7.46698e+06
3.86576e+06
1.90824e+06
892787
397696
170774
46412.2
6905.52
470.675
18.3454
0.434455
0.00756105
0.0001298
3.11436e-06
1.3113e-07
-1.08599e-09
-1.75804e-10
-4.336e-11
-1.41838e-11
-5.48221e-12
-2.32119e-12
-1.0284e-12
-4.63655e-13
-2.10443e-13
-9.50153e-14
-4.26475e-14
-1.89544e-14
-8.29257e-15
-6.31572e-12
-1.41247e-15
-4.86961e-16
-8.66183e-17
0
-2.0874e-06
0
-2.08743e-06
0
1.96276e-14
0
-1.87236e-10
0
0
-7.04389e-19
-7.04389e-19
0
0
0
0
-5.63511e-18
-5.0716e-17
-2.0874e-06
1.2506e-12
2.39712e-08
3.35597e-07
3.40392e-06
2.84999e-05
0.00021969
0.00147616
0.00853773
0.0425654
0.184222
0.698633
2.34523
7.03946
19.0758
47.0854
106.741
223.947
438.097
806.089
1406.96
2349
3786.21
5951.89
9224.13
14247.8
22157
34977.7
56341.7
92699.2
155228
262601
444729
748372
1.24644e+06
2.05323e+06
3.34828e+06
5.41267e+06
8.6848e+06
1.38487e+07
2.18646e+07
3.42442e+07
5.4348e+07
8.63693e+07
1.37583e+08
1.19452e+08
7.09199e+07
4.15734e+07
2.38602e+07
1.33107e+07
7.1677e+06
3.69988e+06
1.8201e+06
848391
377014
160603
42047.2
5923
388.929
14.7302
0.341524
0.00590824
0.000102908
2.56718e-06
1.08989e-07
1.1001e-08
-1.61371e-10
-4.05917e-11
-1.34372e-11
-5.23337e-12
-2.22399e-12
-9.87575e-13
-6.35597e-12
-2.02181e-13
-9.16132e-14
-4.11895e-14
-1.82862e-14
-8.01919e-15
-3.40967e-15
4.00131e-11
-4.70824e-16
-5.90892e-12
0
0
0
0
0
1.96276e-14
-2.0874e-06
-1.0326e-10
0
0
-2.0874e-06
0
0
0
-2.0874e-06
0
-1.12702e-17
-5.63511e-17
-5.4097e-16
-1.0437e-06
1.07539e-08
3.35597e-07
3.4998e-06
2.83192e-05
0.000224687
0.00151111
0.00874506
0.0435713
0.18844
0.714128
2.39563
7.18615
19.4615
48.0103
108.779
228.109
446.035
820.402
1431.54
2389.67
3851.75
6056.14
9389.87
14514
22592.5
35705.9
57584.1
94848.3
158958
269019
455588
766403
1.27591e+06
2.10085e+06
3.42464e+06
5.53439e+06
8.87809e+06
1.41553e+07
2.23338e+07
3.49926e+07
5.55737e+07
8.83247e+07
1.40635e+08
1.16222e+08
6.89809e+07
4.04035e+07
2.31599e+07
1.2899e+07
6.93198e+06
3.56983e+06
1.75137e+06
813983
361110
152273
38770.4
5232.38
333.881
12.3677
0.282183
0.00486328
8.57544e-05
2.19376e-06
9.82492e-08
1.10861e-08
-1.50858e-10
-3.03498e-09
-1.88018e-11
-5.04674e-12
-2.15011e-12
-6.86531e-12
3.97648e-11
-1.96349e-13
-8.91831e-14
-4.00352e-14
-1.78002e-14
-7.80656e-15
-3.31855e-15
-1.33273e-15
-4.59433e-16
4.01973e-11
0
0
0
0
0
-4.40243e-20
0
0
3.92551e-14
7.85105e-14
0
0
3.14042e-13
-2.0874e-06
0
0
-1.19856e-08
-1.19856e-08
1.25562e-12
-1.3216e-08
2.39712e-08
3.35597e-07
2.55198e-06
2.88945e-05
0.000229386
0.00154152
0.00890668
0.0443505
0.191702
0.726089
2.43447
7.29901
19.7578
48.7191
110.337
231.283
452.074
831.26
1450.14
2420.34
3901.07
6134.44
9514.22
14713.8
22919.7
36253.9
58521.3
96473.1
161782
273888
463835
780114
1.29836e+06
2.13722e+06
3.4831e+06
5.62785e+06
9.0269e+06
1.43915e+07
2.26933e+07
3.55606e+07
5.64812e+07
8.97775e+07
1.4283e+08
1.13914e+08
6.7586e+07
3.95577e+07
2.26519e+07
1.25998e+07
6.7605e+06
3.47529e+06
1.70149e+06
789096
349715
145880
36469.6
4767.46
297.87
10.8545
0.24479
0.00420872
7.49658e-05
1.97603e-06
8.70865e-08
1.11642e-08
-1.49551e-10
-3.71391e-11
-1.24886e-11
-4.91455e-12
-2.09568e-12
-9.33142e-13
3.38657e-11
-1.92461e-13
4.01101e-11
-3.91847e-14
-2.94362e-12
-7.63949e-15
-3.2578e-15
-5.91015e-12
-4.5089e-16
-8.00922e-17
0
-2.0874e-06
-6.45375e-12
0
0
0
-2.0874e-06
-1.87276e-10
0
-2.0874e-06
1.57021e-13
0
0
-1.65216e-09
0
0
-5.63511e-18
-6.19862e-17
-5.52241e-16
1.25031e-12
1.19145e-12
3.35597e-07
3.59569e-06
2.93259e-05
0.000232742
0.00156081
0.00901733
0.0448803
0.193919
0.734214
2.46083
7.37549
19.9582
49.1981
111.389
233.421
456.133
838.545
1462.59
2440.85
3933.99
6186.68
9597.24
14847.4
23139.1
36623
59155.3
97577.3
163710
277221
469493
789532
1.31377e+06
2.16216e+06
3.52307e+06
5.69143e+06
9.12745e+06
1.45499e+07
2.29317e+07
3.59353e+07
5.70792e+07
9.07353e+07
1.44256e+08
1.12423e+08
6.66847e+07
3.90107e+07
2.23231e+07
1.24061e+07
6.64947e+06
3.41409e+06
1.66923e+06
773043
342429
141494
35022.5
4482.55
276.221
9.95865
0.222929
0.00382805
6.86979e-05
1.8213e-06
8.75876e-08
1.11802e-08
-1.38976e-10
-3.62059e-11
-1.22397e-11
-4.81346e-12
3.81367e-11
-9.19534e-13
-2.142e-11
-1.89058e-13
-8.5781e-14
-3.86379e-14
-1.7223e-14
-7.53318e-15
-3.21223e-15
-1.29097e-15
-4.45194e-16
-7.9143e-17
0
0
0
0
9.81381e-15
0
0
-2.0874e-06
-2.0874e-06
-2.08761e-06
-3.36063e-10
-1.49821e-09
-2.0874e-06
0
0
6.28084e-13
-5.63511e-18
1.25611e-12
-5.57876e-16
-5.89432e-15
2.39712e-08
-7.08105e-07
3.64363e-06
2.95177e-05
0.000233232
0.00157022
0.00906995
0.0451412
0.195011
0.738218
2.47383
7.41323
20.0572
49.4346
111.908
234.477
458.137
842.139
1468.74
2450.95
3950.21
6212.42
9638.14
14913.2
23247.4
36805
59467.9
98121.7
164660
278864
472282
794180
1.32139e+06
2.1745e+06
3.54288e+06
5.72298e+06
9.17736e+06
1.46284e+07
2.30496e+07
3.61203e+07
5.73739e+07
9.12071e+07
1.44951e+08
1.11696e+08
6.62448e+07
3.8744e+07
2.21629e+07
1.23117e+07
6.59546e+06
3.38435e+06
1.65358e+06
765273
338931
139709
34338.9
4350.33
266.316
9.55403
0.213169
0.00365944
6.58418e-05
1.73124e-06
8.78143e-08
1.11969e-08
-1.36861e-10
-3.57704e-11
-1.20997e-11
-4.78235e-12
-2.04902e-12
-9.11758e-13
-4.14082e-13
-1.88086e-13
-8.5295e-14
-3.83949e-14
-1.70712e-14
3.87268e-11
-3.18945e-15
4.01961e-11
-4.42346e-16
-1.15091e-14
0
0
0
0
9.81381e-15
0
1.96276e-14
3.92553e-14
-1.76097e-19
-2.0652e-10
0
0
0
-1.40878e-18
-2.0874e-06
-2.0874e-06
-5.63511e-18
-6.19862e-17
-5.57876e-16
-5.90559e-15
2.39712e-08
3.35597e-07
3.64363e-06
2.95177e-05
0.000233232
0.00157013
0.00906966
0.0451391
0.195005
0.738199
2.47377
7.41308
20.0568
49.4337
111.906
234.473
458.131
842.126
1468.71
2450.91
3950.14
6212.29
9637.9
14912.8
23246.5
36803.5
59465.2
98116.9
164652
278850
472262
794151
1.32136e+06
2.17445e+06
3.54282e+06
5.72291e+06
9.17729e+06
1.46283e+07
2.30495e+07
3.612e+07
5.73736e+07
9.12066e+07
1.4495e+08
1.11697e+08
6.62458e+07
3.87446e+07
2.21634e+07
1.2312e+07
6.59564e+06
3.38445e+06
1.65363e+06
765299
338943
139713
34339.5
4350.34
266.313
9.5538
0.213162
0.00365926
6.5842e-05
1.73125e-06
8.78146e-08
1.11968e-08
-1.36861e-10
-3.57704e-11
-1.20997e-11
-4.78235e-12
-2.04514e-12
-9.11758e-13
3.97833e-11
-1.88086e-13
-8.5295e-14
-3.83949e-14
-1.71015e-14
-7.48762e-15
-3.18945e-15
-1.28148e-15
-9.18855e-14
-7.86684e-17
-1.37576e-21
0
0
-2.34095e-11
-4.40243e-20
0
-9.36378e-11
0
-3.74551e-10
-2.0874e-06
-3.36063e-10
0
0
-1.40878e-18
0
-5.99219e-09
-5.63511e-18
-2.0874e-06
-5.46606e-16
-1.0437e-06
-1.01973e-06
3.356e-07
3.62212e-06
2.93739e-05
0.000232646
0.00156053
0.00901628
0.0448754
0.193902
0.734157
2.46066
7.37503
19.9571
49.1956
111.384
233.411
456.113
838.508
1462.53
2440.72
3933.77
6186.28
9596.51
14846.1
23136.8
36618.6
59147.5
97563.7
163687
277185
469439
789459
1.31368e+06
2.16204e+06
3.52293e+06
5.69128e+06
9.12725e+06
1.45496e+07
2.29312e+07
3.59345e+07
5.7078e+07
9.07337e+07
1.44254e+08
1.12428e+08
6.66882e+07
3.90133e+07
2.23249e+07
1.24072e+07
6.65016e+06
3.41447e+06
1.66943e+06
773137
342471
141509
35024.6
4482.62
276.216
9.95829
0.222918
0.00382784
6.86504e-05
1.79734e-06
8.75881e-08
-8.05488e-10
-1.39038e-10
-3.62059e-11
-1.51043e-09
-4.82123e-12
-2.06069e-12
3.92798e-11
-4.16998e-13
-1.89544e-13
-8.5781e-14
-3.86379e-14
-1.63063e-12
-7.54837e-15
-5.91205e-12
-8.33376e-14
-4.14685e-14
3.42833e-11
-1.37576e-21
0
0
0
0
0
-2.0874e-06
0
0
0
0
0
0
0
0
0
6.28078e-13
-5.0716e-17
-5.46606e-16
-5.79289e-15
2.39712e-08
3.35597e-07
3.54774e-06
2.8916e-05
0.000229482
0.00154114
0.00890372
0.0443426
0.191672
0.72599
2.43418
7.29821
19.7558
48.7147
110.328
231.265
452.04
831.197
1450.03
2420.14
3900.71
6133.82
9513.14
14711.9
22916.6
36248.8
58513.1
96460.6
161765
273865
463809
780090
1.29834e+06
2.13721e+06
3.48308e+06
5.62777e+06
9.02661e+06
1.43908e+07
2.26919e+07
3.55589e+07
5.6479e+07
8.97746e+07
1.42826e+08
1.13923e+08
6.75935e+07
3.95633e+07
2.26557e+07
1.26022e+07
6.76196e+06
3.47609e+06
1.7019e+06
789293
349802
145912
36474
4767.65
297.872
10.8544
0.244789
0.00420872
7.50138e-05
1.97603e-06
8.70865e-08
1.11441e-08
-1.43642e-10
-3.71391e-11
2.77244e-11
-7.54009e-10
-2.09568e-12
-9.33142e-13
-4.23802e-13
-1.91975e-13
-8.69961e-14
-8.57352e-12
-5.92628e-12
-1.47073e-12
-3.2502e-15
-5.91015e-12
-5.95971e-12
-8.02109e-17
0
0
-2.0874e-06
0
0
-2.08743e-06
0
-1.76097e-19
3.92553e-14
-3.74551e-10
0
1.57021e-13
-2.0874e-06
-1.40878e-18
-2.81755e-18
0
-5.37638e-09
-5.63511e-17
-2.39713e-08
-1.0437e-06
2.39725e-08
3.35597e-07
3.4998e-06
2.82712e-05
0.000224591
0.00151177
0.00874237
0.0435599
0.188398
0.713986
2.39521
7.18502
19.4588
48.0041
108.766
228.084
445.987
820.314
1431.39
2389.39
3851.27
6055.31
9388.44
14511.6
22588.4
35698.8
57572
94827.7
158923
268962
455495
766257
1.27568e+06
2.10051e+06
3.42413e+06
5.53365e+06
8.87709e+06
1.41541e+07
2.23326e+07
3.49923e+07
5.55725e+07
8.83207e+07
1.40629e+08
1.16224e+08
6.89821e+07
4.04045e+07
2.31607e+07
1.28997e+07
6.93243e+06
3.57012e+06
1.75153e+06
814068
361149
152289
38772.7
5232.57
333.895
12.3684
0.282207
0.00486372
8.58016e-05
2.16978e-06
9.82458e-08
1.11063e-08
-1.50858e-10
-3.85699e-11
-1.28929e-11
-4.18086e-10
-2.15011e-12
-9.58415e-13
-4.33522e-13
-6.10567e-12
-1.24515e-11
-5.94887e-12
-1.78002e-14
-7.79137e-15
-3.32614e-15
-5.91017e-12
-4.59433e-16
-8.16347e-17
-1.37576e-21
0
0
4.90691e-15
0
0
1.96276e-14
-2.0874e-06
-2.0874e-06
0
0
0
0
-2.99641e-09
0
6.28084e-13
6.28073e-13
-5.63511e-17
-5.24065e-16
-5.55622e-15
-1.01973e-06
3.35597e-07
3.40392e-06
2.85478e-05
0.000218455
0.00147548
0.00853533
0.0425513
0.184168
0.69845
2.34468
7.03797
19.0721
47.0773
106.723
223.914
438.034
805.975
1406.76
2348.65
3785.61
5950.86
9222.4
14244.9
22152.2
34969.7
56328.4
92677.1
155192
262543
444638
748232
1.24623e+06
2.05292e+06
3.34784e+06
5.41204e+06
8.68392e+06
1.38475e+07
2.1863e+07
3.42419e+07
5.43446e+07
8.63642e+07
1.37576e+08
1.19465e+08
7.09269e+07
4.15773e+07
2.38622e+07
1.33117e+07
7.16819e+06
3.7001e+06
1.82019e+06
848426
377025
160606
42047.9
5923.2
388.955
14.7317
0.341566
0.00590899
0.000102907
2.56717e-06
1.08992e-07
1.1001e-08
-1.61309e-10
-4.06228e-11
-8.39532e-10
-5.23337e-12
-2.22399e-12
-6.89642e-12
-4.46159e-13
-6.11151e-12
4.01058e-11
-4.11895e-14
3.13441e-11
-8.004e-15
-3.40967e-15
-1.36691e-15
-4.71773e-16
-8.37705e-17
-4.03359e-13
0
0
4.90691e-15
0
-2.5815e-11
-2.0874e-06
-2.0874e-06
-2.0874e-06
-3.52194e-19
-7.04389e-19
-7.04389e-19
0
0
-2.6885e-09
-2.0874e-06
-1.12702e-17
-1.19856e-08
-5.12795e-16
-5.4097e-15
2.39712e-08
3.35597e-07
3.30803e-06
2.64973e-05
0.000212211
0.00143133
0.00828474
0.0413426
0.179091
0.679764
2.28378
6.86034
18.6039
45.9521
104.237
218.823
428.293
788.352
1376.37
2298.22
3704.05
5820.74
9015.07
13911.4
21606.6
34058.6
54777
90000.7
150562
254603
431259
726128
1.21034e+06
1.99543e+06
3.25676e+06
5.26919e+06
8.46208e+06
1.35064e+07
2.13649e+07
3.34954e+07
5.26127e+07
8.38423e+07
1.33757e+08
1.23546e+08
7.33707e+07
4.30514e+07
2.47457e+07
1.38324e+07
7.46743e+06
3.86588e+06
1.90825e+06
892767
397676
170764
46410.5
6905.76
470.721
18.348
0.434528
0.00756224
0.000129798
3.11433e-06
1.31149e-07
1.08796e-08
-1.75866e-10
-4.92688e-11
-1.41838e-11
-5.48999e-12
-3.76872e-10
-1.02646e-12
-5.20936e-11
-2.10443e-13
-9.50153e-14
-4.26475e-14
-1.89544e-14
-8.15011e-13
-3.52358e-15
-8.34591e-14
-4.15103e-14
-5.91523e-12
0
-2.0874e-06
0
0
9.81381e-15
-4.40243e-20
0
0
0
0
-7.49103e-10
-2.08808e-06
0
0
0
0
-1.12702e-17
-5.0716e-17
-5.01525e-16
-5.22938e-15
1.32172e-08
3.356e-07
3.21215e-06
2.64863e-05
0.000204913
0.00138066
0.00800112
0.039967
0.173297
0.658389
2.21394
6.65611
18.0641
44.651
101.353
212.897
416.915
767.692
1340.62
2238.63
3607.31
5665.83
8767.47
13512.2
20952
32963.1
52907.7
86766.8
144946
244917
414826
698764
1.16552e+06
1.92287e+06
3.14036e+06
5.08369e+06
8.16794e+06
1.30413e+07
2.06521e+07
3.23674e+07
5.0793e+07
8.0921e+07
1.29145e+08
1.28245e+08
7.6218e+07
4.47872e+07
2.57963e+07
1.44574e+07
7.82978e+06
4.06836e+06
2.01671e+06
947866
423573
184367
52022.5
8280.97
591.672
23.9021
0.581783
0.0102174
0.000172567
3.99274e-06
1.63141e-07
1.07075e-08
-1.95587e-10
-4.70926e-11
-1.5148e-11
-4.18849e-10
-2.44561e-12
-1.07895e-12
-4.86012e-13
-2.20163e-13
-9.93894e-14
-4.45916e-14
-1.97746e-14
-8.6267e-15
-3.66787e-15
-1.47322e-15
-5.90935e-12
4.01973e-11
3.06682e-16
0
0
-1.0502e-11
0
0
0
0
0
0
0
-1.49821e-09
-2.0874e-06
0
-2.6885e-09
6.28084e-13
-5.37701e-09
-5.0716e-17
-4.84619e-16
-1.0437e-06
2.39725e-08
2.87655e-07
3.04188e-06
2.53836e-05
0.000196943
0.00132614
0.00769178
0.0384592
0.166933
0.63485
2.13681
6.42991
17.4644
43.2008
98.1277
206.247
404.098
744.329
1300.03
2170.72
3496.64
5488.05
8482.52
13051.7
20196
31696.8
50744.8
83019.7
138422
233629
395592
666584
1.11254e+06
1.8367e+06
3.00141e+06
4.86118e+06
7.81359e+06
1.24794e+07
1.97872e+07
3.10092e+07
4.86606e+07
7.74936e+07
1.23666e+08
1.33733e+08
7.95499e+07
4.68272e+07
2.7038e+07
1.52009e+07
8.26394e+06
4.31306e+06
2.14887e+06
1.01561e+06
455798
200018
59055.5
10174
770.382
32.4144
0.826688
0.0146378
0.000242883
5.34063e-06
1.96245e-07
1.04616e-08
-2.2271e-10
-5.19449e-11
-1.63922e-11
-6.22095e-12
-2.60502e-12
-7.05388e-12
-5.142e-13
-2.60473e-11
-1.04735e-13
-4.70216e-14
-2.0777e-14
-9.06715e-15
-3.85012e-15
-1.84428e-13
-5.30626e-16
-6.39694e-15
-2.0874e-06
-1.61344e-12
-1.17047e-11
-2.20121e-20
-4.40243e-20
-2.10039e-11
-2.0874e-06
3.92553e-14
0
-2.08757e-06
0
-2.0889e-06
-6.72126e-10
3.14042e-13
0
6.28084e-13
-5.63511e-18
-5.0716e-17
-2.0874e-06
-4.85746e-15
2.39725e-08
2.87657e-07
2.92449e-06
2.30455e-05
0.000188495
0.00126808
0.00736268
0.0368598
0.160161
0.609725
2.05424
6.18693
16.8181
41.6324
94.6268
199.001
390.082
718.683
1255.3
2095.62
3373.86
5290.25
8164.8
12537.5
19350.8
30279.8
48322.2
78816.1
131087
220894
373816
630030
1.05221e+06
1.73837e+06
2.84265e+06
4.60668e+06
7.40802e+06
1.18361e+07
1.87921e+07
2.9448e+07
4.62049e+07
7.35388e+07
1.17291e+08
1.40146e+08
8.34564e+07
4.92307e+07
2.85095e+07
1.60877e+07
8.78521e+06
4.60957e+06
2.31023e+06
1.09899e+06
495777
218283
71198.2
12713
1039.74
46.1515
1.23589
0.0222915
0.0003636
7.61036e-06
2.61831e-07
2.20901e-08
5.73285e-09
-1.81551e-11
-1.80252e-11
-7.55837e-10
-2.79943e-12
-1.22669e-12
-5.49193e-13
-6.15622e-12
-1.11297e-13
-8.58415e-12
-2.1992e-14
-9.61392e-15
-4.07035e-15
-1.6289e-15
-5.9094e-12
-9.9433e-17
0
1.22672e-15
0
0
0
-4.68189e-11
0
-1.87276e-10
0
0
0
0
0
3.14042e-13
0
0
-6.60864e-09
1.25612e-12
-4.50809e-16
-4.64333e-15
-1.01973e-06
2.87655e-07
2.78066e-06
2.28906e-05
0.000178714
0.00120857
0.00702607
0.0352077
0.153148
0.583626
1.96817
5.93281
16.1397
39.98
90.9242
191.307
375.125
691.248
1207.29
2014.75
3241.3
5076.29
7820.78
11980.7
18436.1
28748.2
45706.5
74279.7
123166
207122
350205
590295
986467
1.63102e+06
2.66901e+06
4.3278e+06
6.96262e+06
1.11275e+07
1.76875e+07
2.771e+07
4.3455e+07
6.91119e+07
1.10089e+08
1.47605e+08
8.80887e+07
5.21012e+07