/*--------------------------------*- C++ -*----------------------------------*\
  =========                 |
  \\      /  F ield         | OpenFOAM: The Open Source CFD Toolbox
   \\    /   O peration     | Website:  https://openfoam.org
    \\  /    A nd           | Version:  8
     \\/     M anipulation  |
\*---------------------------------------------------------------------------*/
FoamFile
{
    version     2.0;
    format      ascii;
    class       volScalarField;
    location    "0.1/fluid";
    object      rho;
}
// * * * * * * * * * * * * * * * * * * * * * * * * * * * * * * * * * * * * * //

dimensions      [1 -3 0 0 0 0 0];

internalField   nonuniform List<scalar> 
4000
(
0.658512
0.658441
0.658328
0.658151
0.65788
0.65747
0.656858
0.655952
0.654626
0.652711
0.649978
0.64614
0.640849
0.633715
0.624343
0.6124
0.597691
0.580241
0.560334
0.538499
0.515432
0.491881
0.468534
0.445943
0.424493
0.404403
0.385763
0.368568
0.352753
0.338218
0.324849
0.31253
0.301153
0.290619
0.28084
0.271744
0.263266
0.255344
0.2479
0.240889
0.234274
0.228026
0.222116
0.216521
0.211219
0.206192
0.201424
0.196899
0.192605
0.188531
0.184667
0.181003
0.177533
0.174251
0.171154
0.168242
0.16552
0.163
0.160705
0.158673
0.156984
0.155747
0.155116
0.155372
0.157081
0.161279
0.168329
0.177753
0.189413
0.20338
0.219881
0.23929
0.262137
0.289135
0.321207
0.359529
0.405661
0.461497
0.528919
0.609198
0.701831
0.803068
0.904831
0.996225
1.06819
1.11786
1.14844
1.16567
1.1748
1.17942
1.1817
1.18281
1.18334
1.18359
1.18372
1.18377
1.1838
1.18381
1.18382
1.18382
0.658512
0.658441
0.658326
0.658148
0.657874
0.65746
0.656839
0.65592
0.654575
0.652632
0.64986
0.645973
0.640622
0.633423
0.623989
0.611995
0.597259
0.579812
0.559941
0.538169
0.515181
0.491712
0.468439
0.445908
0.424496
0.404428
0.385799
0.368607
0.352788
0.338244
0.324864
0.312532
0.301139
0.290589
0.280795
0.271684
0.263192
0.255258
0.247803
0.24078
0.234156
0.227899
0.221981
0.216379
0.211071
0.206038
0.201265
0.196736
0.192439
0.188362
0.184495
0.18083
0.177359
0.174077
0.170981
0.168072
0.165355
0.162842
0.160557
0.158543
0.156883
0.155686
0.155118
0.155478
0.157368
0.161895
0.169228
0.178932
0.190899
0.205223
0.222158
0.242105
0.265635
0.293506
0.326699
0.366465
0.414468
0.472646
0.542831
0.626011
0.721055
0.823228
0.923557
1.01119
1.07836
1.12379
1.15147
1.16707
1.1754
1.17967
1.1818
1.18284
1.18335
1.1836
1.18372
1.18377
1.1838
1.18381
1.18382
1.18382
0.658512
0.65844
0.658324
0.658143
0.657865
0.657443
0.656812
0.655876
0.654507
0.652529
0.649712
0.645765
0.640344
0.633065
0.623548
0.611478
0.596683
0.579204
0.559334
0.537595
0.514666
0.491271
0.468077
0.44562
0.424275
0.40426
0.385669
0.3685
0.352693
0.338153
0.324769
0.31243
0.301028
0.290466
0.280659
0.271535
0.26303
0.255083
0.247614
0.240579
0.233943
0.227674
0.221745
0.216133
0.210815
0.205774
0.200993
0.196458
0.192155
0.188073
0.184203
0.180535
0.177063
0.173782
0.170688
0.167783
0.165074
0.162574
0.160309
0.158325
0.156722
0.155595
0.155117
0.15566
0.157857
0.162934
0.170732
0.180887
0.193337
0.20821
0.225793
0.246525
0.271017
0.300074
0.334731
0.376299
0.426507
0.487242
0.560125
0.645665
0.741979
0.843488
0.940875
1.02401
1.08657
1.12843
1.15385
1.1682
1.1759
1.17989
1.18189
1.18288
1.18337
1.18361
1.18372
1.18377
1.1838
1.18381
1.18382
1.18382
0.658512
0.658439
0.658322
0.658139
0.657857
0.65743
0.656791
0.655844
0.654458
0.652456
0.649609
0.645623
0.640154
0.632819
0.623242
0.611113
0.596268
0.578753
0.558864
0.537127
0.514216
0.490852
0.467696
0.445277
0.423966
0.403982
0.385414
0.368263
0.352468
0.337935
0.324554
0.312213
0.300807
0.290239
0.280426
0.271293
0.262779
0.254821
0.24734
0.240294
0.233646
0.227367
0.221428
0.215805
0.210478
0.205429
0.20064
0.196098
0.191789
0.187703
0.183829
0.180159
0.176687
0.173406
0.170316
0.167419
0.164721
0.162238
0.160001
0.158057
0.156528
0.155497
0.15516
0.155934
0.15852
0.164259
0.172613
0.183307
0.196328
0.211843
0.230172
0.251795
0.27736
0.30772
0.343955
0.387443
0.439955
0.503305
0.578883
0.666706
0.764151
0.864835
0.959166
1.03773
1.09561
1.13374
1.15669
1.16963
1.17658
1.18019
1.18203
1.18295
1.1834
1.18362
1.18373
1.18378
1.1838
1.18381
1.18382
1.18382
0.658511
0.658438
0.65832
0.658135
0.65785
0.657419
0.656773
0.655815
0.654415
0.652393
0.649516
0.645493
0.639978
0.632589
0.622952
0.610761
0.595857
0.578294
0.558373
0.536621
0.513712
0.490364
0.467232
0.444842
0.423561
0.403603
0.385058
0.367925
0.352144
0.337619
0.324244
0.311906
0.3005
0.28993
0.280112
0.270973
0.262453
0.254488
0.246999
0.239943
0.233287
0.226998
0.22105
0.215419
0.210085
0.205028
0.200233
0.195685
0.191371
0.187281
0.183405
0.179734
0.176262
0.172985
0.169901
0.167013
0.164331
0.161872
0.15967
0.15778
0.156333
0.155422
0.155278
0.156371
0.159516
0.165861
0.174762
0.186006
0.19962
0.215806
0.234916
0.257464
0.284139
0.315834
0.35367
0.399101
0.453898
0.519778
0.597849
0.687597
0.785662
0.884978
0.975913
1.04995
1.10348
1.13831
1.15914
1.17086
1.17717
1.18047
1.18216
1.183
1.18342
1.18363
1.18373
1.18378
1.1838
1.18381
1.18382
1.18382
0.658511
0.658437
0.658318
0.658132
0.657845
0.65741
0.656758
0.655792
0.654379
0.652341
0.649441
0.645388
0.639833
0.632396
0.622703
0.610452
0.595488
0.577871
0.557906
0.536123
0.513199
0.489849
0.466726
0.444351
0.423089
0.403151
0.384624
0.367508
0.35174
0.337227
0.323859
0.311526
0.300123
0.289554
0.279735
0.270595
0.262073
0.254102
0.246607
0.239546
0.232883
0.226587
0.220633
0.214996
0.209655
0.204593
0.199793
0.195241
0.190924
0.186833
0.182956
0.179286
0.175816
0.172544
0.169468
0.166592
0.163928
0.161495
0.159332
0.157508
0.156147
0.155374
0.15545
0.156913
0.160722
0.167619
0.17704
0.188821
0.203022
0.219875
0.239763
0.263231
0.291007
0.324019
0.363432
0.41077
0.467781
0.536067
0.616432
0.707828
0.806199
0.903913
0.991436
1.06118
1.1107
1.14251
1.16142
1.17203
1.17775
1.18074
1.18228
1.18306
1.18345
1.18364
1.18374
1.18378
1.1838
1.18381
1.18382
1.18382
0.658511
0.658436
0.658316
0.658129
0.65784
0.657402
0.656745
0.655772
0.654348
0.652294
0.649373
0.645291
0.639699
0.632216
0.622468
0.610158
0.595132
0.577455
0.557439
0.535618
0.512669
0.489308
0.466185
0.443819
0.42257
0.402648
0.384139
0.367038
0.351284
0.336783
0.323425
0.311099
0.299701
0.289135
0.279318
0.270179
0.261656
0.253684
0.246186
0.23912
0.232453
0.226153
0.220194
0.214553
0.209209
0.204143
0.19934
0.194786
0.190469
0.186377
0.182501
0.178834
0.175369
0.172103
0.169037
0.166175
0.16353
0.161125
0.159002
0.157248
0.155974
0.155338
0.155634
0.157468
0.161946
0.169386
0.179316
0.191619
0.206391
0.223891
0.244534
0.268895
0.297735
0.33202
0.37296
0.422133
0.481253
0.551783
0.634205
0.726945
0.825291
0.921173
1.0053
1.07102
1.11694
1.14613
1.16337
1.17303
1.17824
1.18098
1.1824
1.18311
1.18347
1.18365
1.18374
1.18378
1.1838
1.18381
1.18382
1.18382
0.658511
0.658436
0.658315
0.658126
0.657836
0.657394
0.656733
0.655753
0.65432
0.652252
0.649312
0.645203
0.639576
0.632049
0.622249
0.609879
0.59479
0.577051
0.55698
0.535113
0.512133
0.488753
0.465624
0.443262
0.422023
0.402115
0.383621
0.366535
0.350796
0.336307
0.32296
0.310643
0.299252
0.288691
0.278878
0.269742
0.261222
0.253249
0.24575
0.238683
0.232013
0.225711
0.21975
0.214107
0.208761
0.203694
0.19889
0.194336
0.190019
0.185929
0.182056
0.178393
0.174934
0.171677
0.168622
0.165775
0.163151
0.160776
0.158696
0.157014
0.155829
0.1553
0.155813
0.158008
0.163132
0.171094
0.181511
0.194313
0.209629
0.227746
0.249106
0.274317
0.304168
0.339662
0.382054
0.432962
0.494054
0.566638
0.650871
0.744675
0.842744
0.93669
1.01756
1.07961
1.12235
1.14925
1.16506
1.1739
1.17868
1.18119
1.18249
1.18316
1.18349
1.18366
1.18374
1.18379
1.18381
1.18381
1.18382
1.18382
0.658511
0.658435
0.658314
0.658124
0.657832
0.657388
0.656722
0.655737
0.654295
0.652214
0.649255
0.645121
0.639461
0.631892
0.622041
0.609611
0.594459
0.576657
0.556528
0.534613
0.511597
0.488196
0.465057
0.442695
0.421465
0.401569
0.383089
0.366019
0.350294
0.335818
0.322482
0.310176
0.298793
0.288239
0.278432
0.2693
0.260784
0.252813
0.245314
0.238247
0.231578
0.225275
0.219314
0.21367
0.208324
0.203258
0.198455
0.193902
0.189587
0.1855
0.181631
0.177974
0.174522
0.171274
0.168231
0.1654
0.162797
0.160451
0.15841
0.156799
0.155696
0.155293
0.15601
0.158548
0.164264
0.172712
0.183584
0.196851
0.212675
0.231369
0.253401
0.279405
0.310204
0.346828
0.390584
0.443108
0.506015
0.580455
0.666257
0.760868
0.858458
0.950433
1.02824
1.087
1.12696
1.1519
1.16649
1.17464
1.17905
1.18137
1.18258
1.1832
1.18351
1.18367
1.18375
1.18379
1.18381
1.18381
1.18382
1.18382
0.658511
0.658435
0.658313
0.658122
0.657828
0.657382
0.656712
0.655721
0.654271
0.652178
0.649202
0.645045
0.639353
0.631743
0.621842
0.609355
0.59414
0.576276
0.556088
0.534124
0.511072
0.487647
0.464497
0.442134
0.420909
0.401024
0.382559
0.365503
0.349793
0.335331
0.322008
0.309712
0.298338
0.287793
0.277992
0.268867
0.260356
0.252388
0.244891
0.237825
0.231157
0.224856
0.218895
0.213253
0.207908
0.202843
0.198042
0.193492
0.189181
0.185098
0.181235
0.177583
0.17414
0.170901
0.167871
0.165057
0.162476
0.160159
0.15816
0.156614
0.155599
0.155329
0.15626
0.159163
0.165377
0.174247
0.185522
0.199211
0.215497
0.23472
0.25737
0.284107
0.31578
0.353447
0.398464
0.452472
0.517028
0.59312
0.680262
0.775457
0.872433
0.962475
1.03746
1.0933
1.13086
1.15414
1.1677
1.17527
1.17936
1.18153
1.18265
1.18323
1.18353
1.18368
1.18375
1.18379
1.18381
1.18382
1.18382
1.18382
0.658511
0.658434
0.658312
0.65812
0.657825
0.657376
0.656703
0.655707
0.654249
0.652145
0.649153
0.644973
0.639251
0.631602
0.621654
0.609112
0.593837
0.575911
0.555666
0.533654
0.510564
0.487115
0.463953
0.441588
0.42037
0.400496
0.382043
0.365003
0.349307
0.334859
0.321548
0.309263
0.297899
0.287362
0.27757
0.268451
0.259947
0.251982
0.244488
0.237425
0.230759
0.22446
0.218502
0.212862
0.207519
0.202457
0.197659
0.193113
0.188806
0.184728
0.18087
0.177226
0.17379
0.170562
0.167545
0.164747
0.162188
0.159902
0.157947
0.156462
0.155539
0.155411
0.156575
0.159893
0.166486
0.1757
0.18732
0.201378
0.218079
0.237778
0.260988
0.288391
0.320859
0.359476
0.405644
0.460995
0.527031
0.604573
0.692843
0.78844
0.884717
0.972916
1.04536
1.09864
1.13415
1.15601
1.16872
1.1758
1.17963
1.18166
1.18272
1.18326
1.18354
1.18368
1.18375
1.18379
1.18381
1.18382
1.18382
1.18382
0.658511
0.658434
0.658311
0.658118
0.657821
0.657371
0.656695
0.655694
0.654229
0.652114
0.649107
0.644906
0.639156
0.631471
0.621478
0.608883
0.59355
0.575566
0.555267
0.533208
0.510083
0.486611
0.463437
0.44107
0.419857
0.399993
0.381554
0.364527
0.348845
0.334411
0.321112
0.308839
0.297485
0.286957
0.277173
0.268061
0.259563
0.251603
0.244113
0.237053
0.230391
0.224095
0.21814
0.212502
0.207163
0.202104
0.19731
0.192768
0.188465
0.184392
0.180541
0.176903
0.173476
0.170258
0.167253
0.164471
0.161932
0.159674
0.157764
0.156334
0.155498
0.155506
0.156894
0.160609
0.167521
0.177031
0.188952
0.203336
0.220404
0.240529
0.26424
0.29224
0.325422
0.364894
0.412095
0.468647
0.53599
0.614793
0.703999
0.799852
0.895397
0.981883
1.05206
1.10313
1.13689
1.15758
1.16956
1.17623
1.17985
1.18177
1.18277
1.18329
1.18355
1.18369
1.18376
1.18379
1.18381
1.18382
1.18382
1.18382
0.65851
0.658433
0.65831
0.658116
0.657819
0.657366
0.656687
0.655682
0.65421
0.652085
0.649064
0.644844
0.639069
0.63135
0.621315
0.608671
0.593286
0.575247
0.554897
0.532795
0.509636
0.486142
0.462958
0.440589
0.41938
0.399526
0.381099
0.364086
0.348418
0.333996
0.32071
0.308447
0.297104
0.286585
0.276808
0.267704
0.259212
0.251257
0.243771
0.236715
0.230056
0.223764
0.217812
0.212178
0.206842
0.201787
0.196997
0.192459
0.188161
0.184094
0.180248
0.176618
0.173198
0.16999
0.166996
0.164228
0.161708
0.159475
0.157606
0.156227
0.155468
0.155596
0.157184
0.161252
0.168446
0.178215
0.190401
0.205072
0.222463
0.242963
0.267118
0.295646
0.329459
0.369689
0.417805
0.475415
0.543899
0.623779
0.713753
0.809752
0.904568
0.989501
1.0577
1.10688
1.13917
1.15887
1.17026
1.1766
1.18003
1.18186
1.18281
1.18331
1.18356
1.18369
1.18376
1.18379
1.18381
1.18382
1.18382
1.18382
0.65851
0.658433
0.658309
0.658115
0.657816
0.657362
0.65668
0.655671
0.654193
0.65206
0.649026
0.644789
0.638989
0.63124
0.621167
0.60848
0.593045
0.574957
0.55456
0.532419
0.50923
0.485716
0.462522
0.440151
0.418947
0.399102
0.380687
0.363686
0.348031
0.333621
0.320347
0.308094
0.29676
0.286249
0.27648
0.267384
0.258899
0.250948
0.243466
0.236415
0.229759
0.22347
0.217522
0.211892
0.206559
0.201508
0.196722
0.192188
0.187895
0.183833
0.179993
0.176369
0.172957
0.169757
0.166774
0.164019
0.161516
0.159305
0.157472
0.156136
0.155444
0.155676
0.157436
0.161811
0.169251
0.179247
0.191663
0.206582
0.224255
0.24508
0.26962
0.298607
0.33297
0.373861
0.422773
0.481298
0.550762
0.631551
0.72215
0.818211
0.912336
0.995893
1.06239
1.10997
1.14104
1.15993
1.17083
1.17689
1.18018
1.18193
1.18285
1.18333
1.18357
1.1837
1.18376
1.18379
1.18381
1.18382
1.18382
1.18382
0.65851
0.658433
0.658308
0.658114
0.657814
0.657358
0.656674
0.655661
0.654178
0.652037
0.648993
0.64474
0.638919
0.631143
0.621037
0.60831
0.592832
0.574701
0.554263
0.532086
0.508871
0.48534
0.462137
0.439765
0.418566
0.398728
0.380323
0.363334
0.34769
0.333292
0.320027
0.307785
0.296459
0.285956
0.276194
0.267104
0.258625
0.250679
0.243201
0.236153
0.229502
0.223216
0.217271
0.211644
0.206316
0.201268
0.196486
0.191956
0.187668
0.183611
0.179776
0.176158
0.172753
0.169561
0.166587
0.163844
0.161355
0.159164
0.157362
0.156063
0.155424
0.155744
0.15765
0.162289
0.16994
0.180129
0.19274
0.207871
0.225782
0.246885
0.271752
0.301129
0.335959
0.377414
0.427003
0.486305
0.556591
0.638132
0.729228
0.825299
0.918797
1.00117
1.06623
1.1125
1.14256
1.16079
1.17129
1.17713
1.1803
1.18199
1.18288
1.18334
1.18358
1.1837
1.18376
1.18379
1.18381
1.18382
1.18382
1.18382
0.65851
0.658432
0.658308
0.658113
0.657812
0.657355
0.656669
0.655653
0.654165
0.652018
0.648964
0.644698
0.63886
0.63106
0.620925
0.608165
0.59265
0.574481
0.554008
0.531802
0.508564
0.485018
0.461808
0.439435
0.41824
0.39841
0.380014
0.363034
0.3474
0.333012
0.319756
0.307522
0.296204
0.285708
0.275952
0.266868
0.258394
0.250452
0.242978
0.235934
0.229285
0.223003
0.217062
0.211438
0.206112
0.201068
0.19629
0.191764
0.187479
0.183426
0.179597
0.175984
0.172585
0.1694
0.166435
0.163702
0.161227
0.159054
0.157281
0.156016
0.155393
0.155792
0.157825
0.162688
0.170515
0.180864
0.193637
0.208943
0.22705
0.248382
0.273519
0.303219
0.338436
0.380357
0.430506
0.490448
0.561408
0.643557
0.73504
0.831089
0.924042
1.00542
1.06931
1.11451
1.14377
1.16147
1.17166
1.17733
1.1804
1.18204
1.1829
1.18335
1.18358
1.1837
1.18376
1.18379
1.18381
1.18382
1.18382
1.18382
0.65851
0.658432
0.658307
0.658112
0.65781
0.657352
0.656665
0.655646
0.654155
0.652002
0.64894
0.644663
0.638811
0.630992
0.620834
0.608046
0.592502
0.574302
0.553801
0.53157
0.508314
0.484756
0.46154
0.439167
0.417974
0.39815
0.379762
0.36279
0.347165
0.332784
0.319536
0.307309
0.295997
0.285506
0.275756
0.266677
0.258208
0.250269
0.242799
0.235757
0.229112
0.222832
0.216893
0.211272
0.20595
0.200908
0.196133
0.19161
0.187329
0.18328
0.179454
0.175846
0.172452
0.169273
0.166315
0.16359
0.161125
0.158965
0.157213
0.15597
0.15538
0.155835
0.157968
0.163009
0.170976
0.181454
0.194356
0.209799
0.228063
0.249576
0.274927
0.304884
0.340407
0.382699
0.433292
0.493741
0.565231
0.647855
0.739631
0.835644
0.928149
1.00873
1.0717
1.11606
1.14471
1.162
1.17194
1.17747
1.18047
1.18208
1.18292
1.18336
1.18359
1.18371
1.18376
1.18379
1.18381
1.18382
1.18382
1.18382
0.65851
0.658432
0.658307
0.658111
0.657809
0.65735
0.656662
0.655641
0.654147
0.65199
0.648922
0.644637
0.638773
0.63094
0.620764
0.607955
0.592388
0.574165
0.553642
0.531393
0.508123
0.484556
0.461336
0.438962
0.417772
0.397953
0.37957
0.362605
0.346986
0.332612
0.319369
0.307147
0.29584
0.285354
0.275608
0.266533
0.258068
0.250131
0.242663
0.235624
0.228981
0.222704
0.216767
0.211148
0.205828
0.200788
0.196015
0.191495
0.187217
0.183171
0.179348
0.175744
0.172354
0.169179
0.166225
0.163507
0.161049
0.158898
0.15716
0.155934
0.155371
0.15587
0.158075
0.163248
0.17132
0.181894
0.194893
0.21044
0.228821
0.250468
0.27598
0.306127
0.341879
0.384448
0.435372
0.496196
0.568079
0.65105
0.743037
0.839014
0.931177
1.01117
1.07345
1.1172
1.14539
1.16238
1.17215
1.17758
1.18053
1.1821
1.18293
1.18337
1.18359
1.18371
1.18377
1.18379
1.18381
1.18382
1.18382
1.18382
0.65851
0.658432
0.658307
0.658111
0.657808
0.657349
0.656659
0.655638
0.654142
0.651982
0.64891
0.64462
0.638748
0.630905
0.620717
0.607894
0.592312
0.574074
0.553536
0.531274
0.507995
0.484422
0.461199
0.438825
0.417637
0.397821
0.379442
0.362481
0.346866
0.332496
0.319258
0.307039
0.295735
0.285252
0.275509
0.266436
0.257973
0.250039
0.242573
0.235535
0.228893
0.222618
0.216683
0.211065
0.205746
0.200709
0.195937
0.191419
0.187143
0.183098
0.179278
0.175676
0.172288
0.169116
0.166166
0.163451
0.160998
0.158853
0.157125
0.155911
0.155366
0.155893
0.158147
0.163406
0.171548
0.182186
0.195249
0.210865
0.229323
0.251061
0.276679
0.306952
0.342855
0.385607
0.436749
0.49782
0.56996
0.653155
0.745274
0.841221
0.933155
1.01276
1.07459
1.11794
1.14583
1.16264
1.17229
1.17765
1.18057
1.18212
1.18294
1.18337
1.18359
1.18371
1.18377
1.18379
1.18381
1.18382
1.18382
1.18382
0.65851
0.658432
0.658307
0.65811
0.657808
0.657348
0.656658
0.655636
0.654139
0.651978
0.648904
0.644611
0.638736
0.630889
0.620695
0.607865
0.592276
0.574029
0.553485
0.531217
0.507933
0.484357
0.461132
0.438759
0.417571
0.397756
0.379379
0.362421
0.346808
0.332439
0.319203
0.306986
0.295684
0.285202
0.275461
0.266389
0.257927
0.249994
0.242528
0.235492
0.22885
0.222576
0.216641
0.211025
0.205706
0.20067
0.195899
0.191382
0.187106
0.183063
0.179243
0.175642
0.172256
0.169085
0.166136
0.163423
0.160973
0.15883
0.157108
0.1559
0.155363
0.155905
0.158182
0.163484
0.17166
0.18233
0.195424
0.211075
0.229571
0.251353
0.277022
0.307358
0.343334
0.386174
0.437421
0.498609
0.570869
0.654168
0.746344
0.842269
0.934089
1.01351
1.07513
1.1183
1.14605
1.16276
1.17235
1.17769
1.18058
1.18213
1.18295
1.18337
1.18359
1.18371
1.18377
1.1838
1.18381
1.18382
1.18382
1.18382
0.65851
0.658432
0.658307
0.65811
0.657808
0.657348
0.656658
0.655636
0.654139
0.651978
0.648904
0.644611
0.638736
0.630889
0.620695
0.607866
0.592276
0.57403
0.553485
0.531218
0.507934
0.484358
0.461133
0.438759
0.417572
0.397757
0.37938
0.362421
0.346808
0.33244
0.319203
0.306986
0.295684
0.285203
0.275461
0.266389
0.257927
0.249994
0.242528
0.235492
0.228851
0.222576
0.216641
0.211025
0.205707
0.20067
0.195899
0.191382
0.187106
0.183063
0.179243
0.175642
0.172256
0.169085
0.166136
0.163423
0.160973
0.15883
0.157108
0.1559
0.155363
0.155905
0.158182
0.163484
0.17166
0.182329
0.195424
0.211075
0.229571
0.251353
0.277022
0.307358
0.343334
0.386174
0.43742
0.498609
0.570869
0.654168
0.746344
0.84227
0.93409
1.01351
1.07513
1.1183
1.14605
1.16276
1.17235
1.17769
1.18058
1.18213
1.18295
1.18337
1.18359
1.18371
1.18377
1.1838
1.18381
1.18382
1.18382
1.18382
0.65851
0.658432
0.658307
0.658111
0.657808
0.657349
0.656659
0.655638
0.654142
0.651982
0.64891
0.64462
0.638748
0.630906
0.620718
0.607895
0.592313
0.574075
0.553538
0.531276
0.507997
0.484424
0.461201
0.438827
0.417639
0.397822
0.379443
0.362482
0.346867
0.332497
0.319258
0.30704
0.295736
0.285253
0.27551
0.266437
0.257974
0.25004
0.242573
0.235536
0.228894
0.222618
0.216683
0.211066
0.205747
0.200709
0.195938
0.19142
0.187143
0.183099
0.179278
0.175676
0.172289
0.169117
0.166166
0.163451
0.160998
0.158853
0.157126
0.155911
0.155366
0.155893
0.158147
0.163406
0.171547
0.182185
0.195248
0.210865
0.229323
0.251061
0.276678
0.306952
0.342855
0.385606
0.436748
0.49782
0.569959
0.653155
0.745274
0.841222
0.933156
1.01276
1.07459
1.11794
1.14584
1.16264
1.17229
1.17765
1.18057
1.18212
1.18294
1.18337
1.18359
1.18371
1.18377
1.18379
1.18381
1.18382
1.18382
1.18382
0.65851
0.658432
0.658307
0.658111
0.657809
0.65735
0.656662
0.655641
0.654147
0.65199
0.648923
0.644637
0.638774
0.630941
0.620765
0.607957
0.59239
0.574168
0.553645
0.531396
0.508126
0.484559
0.461339
0.438965
0.417775
0.397956
0.379573
0.362607
0.346988
0.332613
0.319371
0.307149
0.295841
0.285356
0.275609
0.266534
0.258069
0.250132
0.242664
0.235625
0.228982
0.222705
0.216768
0.211149
0.205828
0.200789
0.196016
0.191496
0.187218
0.183171
0.179349
0.175744
0.172354
0.169179
0.166226
0.163507
0.161049
0.158898
0.157161
0.155935
0.155371
0.15587
0.158075
0.163247
0.17132
0.181893
0.194892
0.210439
0.22882
0.250467
0.275979
0.306126
0.341877
0.384446
0.43537
0.496194
0.568077
0.651048
0.743034
0.839012
0.931176
1.01117
1.07345
1.1172
1.14539
1.16238
1.17215
1.17758
1.18053
1.1821
1.18293
1.18337
1.18359
1.18371
1.18377
1.18379
1.18381
1.18382
1.18382
1.18382
0.65851
0.658432
0.658307
0.658112
0.65781
0.657352
0.656665
0.655646
0.654155
0.652002
0.648941
0.644664
0.638811
0.630993
0.620835
0.608048
0.592504
0.574305
0.553805
0.531574
0.508318
0.48476
0.461544
0.439171
0.417978
0.398154
0.379765
0.362793
0.347168
0.332787
0.319538
0.307311
0.295999
0.285508
0.275758
0.266678
0.25821
0.250271
0.2428
0.235759
0.229113
0.222833
0.216894
0.211273
0.205951
0.200909
0.196134
0.191611
0.18733
0.183281
0.179455
0.175847
0.172453
0.169274
0.166315
0.163591
0.161126
0.158965
0.157213
0.15597
0.15538
0.155835
0.157967
0.163008
0.170975
0.181453
0.194355
0.209798
0.228062
0.249574
0.274926
0.304882
0.340405
0.382697
0.43329
0.493737
0.565227
0.64785
0.739626
0.83564
0.928145
1.00873
1.0717
1.11606
1.14471
1.162
1.17194
1.17747
1.18047
1.18208
1.18292
1.18336
1.18359
1.18371
1.18376
1.18379
1.18381
1.18382
1.18382
1.18382
0.65851
0.658432
0.658308
0.658113
0.657812
0.657355
0.656669
0.655653
0.654165
0.652018
0.648964
0.644698
0.63886
0.631061
0.620927
0.608167
0.592654
0.574485
0.554013
0.531807
0.50857
0.485024
0.461814
0.439441
0.418245
0.398415
0.380018
0.363038
0.347404
0.333015
0.319759
0.307524
0.296206
0.28571
0.275954
0.26687
0.258396
0.250454
0.24298
0.235936
0.229287
0.223005
0.217063
0.211439
0.206114
0.201069
0.196291
0.191765
0.187481
0.183428
0.179598
0.175985
0.172586
0.169401
0.166436
0.163703
0.161228
0.159054
0.157282
0.156016
0.155393
0.155792
0.157825
0.162687
0.170513
0.180863
0.193636
0.208941
0.227049
0.24838
0.273517
0.303217
0.338433
0.380353
0.430502
0.490443
0.561402
0.643551
0.735034
0.831084
0.924039
1.00542
1.06931
1.11451
1.14377
1.16147
1.17166
1.17733
1.1804
1.18204
1.1829
1.18335
1.18358
1.1837
1.18376
1.18379
1.18381
1.18382
1.18382
1.18382
0.65851
0.658433
0.658308
0.658114
0.657814
0.657358
0.656674
0.655661
0.654178
0.652037
0.648993
0.64474
0.63892
0.631144
0.621039
0.608313
0.592836
0.574706
0.554269
0.532093
0.508878
0.485347
0.462144
0.439772
0.418572
0.398734
0.380329
0.363339
0.347695
0.333296
0.320031
0.307788
0.296462
0.285959
0.276197
0.267107
0.258628
0.250681
0.243204
0.236156
0.229504
0.223218
0.217273
0.211646
0.206318
0.20127
0.196488
0.191958
0.18767
0.183612
0.179777
0.176159
0.172754
0.169562
0.166588
0.163845
0.161356
0.159165
0.157363
0.156063
0.155424
0.155744
0.15765
0.162288
0.169938
0.180127
0.192738
0.207869
0.22578
0.246882
0.271749
0.301126
0.335956
0.377409
0.426998
0.486299
0.556584
0.638125
0.729221
0.825293
0.918793
1.00116
1.06623
1.1125
1.14256
1.16079
1.17129
1.17713
1.1803
1.18199
1.18288
1.18334
1.18358
1.1837
1.18376
1.18379
1.18381
1.18382
1.18382
1.18382
0.65851
0.658433
0.658309
0.658115
0.657816
0.657362
0.65668
0.655671
0.654193
0.65206
0.649027
0.644789
0.63899
0.631242
0.621169
0.608483
0.593049
0.574963
0.554567
0.532426
0.509238
0.485724
0.46253
0.440159
0.418955
0.399109
0.380693
0.363692
0.348036
0.333626
0.320351
0.308098
0.296764
0.286253
0.276484
0.267387
0.258901
0.250951
0.243469
0.236417
0.229762
0.223473
0.217524
0.211894
0.206561
0.20151
0.196724
0.19219
0.187897
0.183835
0.179995
0.176371
0.172959
0.169759
0.166775
0.16402
0.161517
0.159306
0.157473
0.156137
0.155445
0.155676
0.157436
0.16181
0.16925
0.179245
0.191661
0.20658
0.224252
0.245077
0.269617
0.298603
0.332965
0.373855
0.422766
0.481291
0.550753
0.631542
0.722141
0.818203
0.91233
0.995889
1.06239
1.10997
1.14104
1.15993
1.17083
1.17689
1.18018
1.18193
1.18285
1.18333
1.18357
1.1837
1.18376
1.18379
1.18381
1.18382
1.18382
1.18382
0.65851
0.658433
0.65831
0.658116
0.657819
0.657366
0.656687
0.655682
0.65421
0.652085
0.649065
0.644845
0.63907
0.631351
0.621317
0.608675
0.59329
0.575253
0.554904
0.532803
0.509645
0.486151
0.462967
0.440598
0.419389
0.399534
0.381106
0.364092
0.348424
0.334002
0.320715
0.308452
0.297108
0.286589
0.276812
0.267707
0.259215
0.25126
0.243774
0.236718
0.230059
0.223767
0.217815
0.212181
0.206845
0.201789
0.196999
0.192461
0.188164
0.184096
0.18025
0.176619
0.1732
0.169991
0.166997
0.164229
0.161709
0.159476
0.157607
0.156228
0.155468
0.155596
0.157183
0.16125
0.168444
0.178213
0.190399
0.205069
0.22246
0.242959
0.267114
0.295641
0.329453
0.369682
0.417797
0.475405
0.543888
0.623767
0.713741
0.809741
0.90456
0.989495
1.0577
1.10688
1.13917
1.15887
1.17026
1.1766
1.18003
1.18186
1.18281
1.18331
1.18356
1.18369
1.18376
1.18379
1.18381
1.18382
1.18382
1.18382
0.658511
0.658434
0.658311
0.658118
0.657821
0.657371
0.656695
0.655694
0.654229
0.652114
0.649107
0.644907
0.639157
0.631473
0.62148
0.608887
0.593556
0.575573
0.555275
0.533217
0.510093
0.486621
0.463447
0.44108
0.419866
0.400002
0.381562
0.364535
0.348852
0.334417
0.321118
0.308844
0.29749
0.286962
0.277177
0.268065
0.259566
0.251607
0.244116
0.237057
0.230394
0.224098
0.218143
0.212505
0.207166
0.202107
0.197313
0.19277
0.188468
0.184395
0.180543
0.176906
0.173478
0.17026
0.167255
0.164472
0.161934
0.159675
0.157765
0.156335
0.155498
0.155506
0.156894
0.160608
0.167519
0.177028
0.188949
0.203333
0.2204
0.240524
0.264235
0.292234
0.325415
0.364885
0.412085
0.468635
0.535977
0.614778
0.703983
0.799838
0.895385
0.981874
1.05206
1.10313
1.13689
1.15758
1.16956
1.17623
1.17985
1.18177
1.18277
1.18329
1.18355
1.18369
1.18376
1.18379
1.18381
1.18382
1.18382
1.18382
0.658511
0.658434
0.658312
0.65812
0.657825
0.657376
0.656703
0.655707
0.654249
0.652145
0.649153
0.644974
0.639253
0.631604
0.621657
0.609116
0.593842
0.575918
0.555674
0.533663
0.510575
0.487126
0.463964
0.441599
0.42038
0.400505
0.382052
0.365011
0.349314
0.334866
0.321554
0.309269
0.297905
0.287367
0.277574
0.268455
0.259951
0.251986
0.244492
0.237429
0.230763
0.224464
0.218506
0.212865
0.207523
0.20246
0.197662
0.193116
0.188809
0.184731
0.180873
0.177228
0.173793
0.170565
0.167547
0.164749
0.16219
0.159903
0.157948
0.156462
0.155539
0.155411
0.156575
0.159891
0.166484
0.175697
0.187317
0.201375
0.218075
0.237773
0.260983
0.288384
0.320851
0.359466
0.405632
0.460982
0.527015
0.604555
0.692824
0.788422
0.884702
0.972905
1.04535
1.09863
1.13414
1.15601
1.16872
1.1758
1.17963
1.18166
1.18272
1.18326
1.18354
1.18368
1.18375
1.18379
1.18381
1.18382
1.18382
1.18382
0.658511
0.658435
0.658313
0.658122
0.657828
0.657382
0.656713
0.655721
0.654271
0.652178
0.649203
0.645046
0.639354
0.631745
0.621845
0.60936
0.594146
0.576283
0.556097
0.534135
0.511083
0.487658
0.464509
0.442145
0.42092
0.401035
0.382569
0.365513
0.349802
0.335339
0.322015
0.309718
0.298344
0.287798
0.277997
0.268872
0.260361
0.252392
0.244895
0.237829
0.231161
0.22486
0.218899
0.213257
0.207912
0.202847
0.198046
0.193496
0.189184
0.185101
0.181237
0.177586
0.174142
0.170904
0.167873
0.165059
0.162477
0.16016
0.158161
0.156615
0.155599
0.155329
0.156259
0.159161
0.165375
0.174244
0.185518
0.199206
0.215492
0.234714
0.257363
0.2841
0.315771
0.353436
0.398451
0.452456
0.51701
0.593099
0.68024
0.775436
0.872414
0.96246
1.03745
1.09329
1.13086
1.15414
1.1677
1.17527
1.17936
1.18153
1.18265
1.18323
1.18353
1.18368
1.18375
1.18379
1.18381
1.18382
1.18382
1.18382
0.658511
0.658435
0.658314
0.658124
0.657832
0.657388
0.656722
0.655737
0.654295
0.652214
0.649256
0.645122
0.639463
0.631894
0.622044
0.609616
0.594465
0.576665
0.556537
0.534624
0.51161
0.488209
0.46507
0.442708
0.421477
0.40158
0.3831
0.366029
0.350303
0.335827
0.32249
0.310183
0.298799
0.288245
0.278438
0.269306
0.260789
0.252818
0.245319
0.238252
0.231582
0.22528
0.219318
0.213674
0.208328
0.203261
0.198458
0.193906
0.189591
0.185504
0.181635
0.177977
0.174525
0.171277
0.168233
0.165402
0.162799
0.160453
0.158412
0.1568
0.155697
0.155294
0.15601
0.158547
0.164262
0.172709
0.18358
0.196847
0.21267
0.231363
0.253394
0.279397
0.310195
0.346816
0.39057
0.443091
0.505996
0.580433
0.666234
0.760844
0.858437
0.950417
1.02823
1.08699
1.12696
1.1519
1.16649
1.17464
1.17905
1.18137
1.18258
1.1832
1.18351
1.18367
1.18375
1.18379
1.18381
1.18381
1.18382
1.18382
0.658511
0.658436
0.658315
0.658126
0.657836
0.657394
0.656733
0.655753
0.654321
0.652253
0.649313
0.645204
0.639578
0.632052
0.622253
0.609884
0.594797
0.57706
0.55699
0.535126
0.512146
0.488767
0.465638
0.443275
0.422036
0.402127
0.383632
0.366546
0.350806
0.336316
0.322968
0.31065
0.299259
0.288698
0.278885
0.269748
0.261227
0.253254
0.245755
0.238687
0.232018
0.225716
0.219755
0.214111
0.208765
0.203698
0.198894
0.19434
0.190023
0.185933
0.182059
0.178396
0.174937
0.17168
0.168624
0.165778
0.163153
0.160778
0.158697
0.157015
0.15583
0.1553
0.155813
0.158007
0.163129
0.171091
0.181507
0.194309
0.209624
0.22774
0.249099
0.274308
0.304158
0.33965
0.38204
0.432945
0.494033
0.566615
0.650846
0.74465
0.842721
0.936671
1.01754
1.0796
1.12235
1.14925
1.16506
1.1739
1.17868
1.18119
1.18249
1.18316
1.18349
1.18366
1.18374
1.18379
1.18381
1.18381
1.18382
1.18382
0.658511
0.658436
0.658316
0.658129
0.65784
0.657402
0.656745
0.655772
0.654348
0.652294
0.649374
0.645292
0.639701
0.632218
0.622473
0.610163
0.595139
0.577465
0.557451
0.535631
0.512684
0.489323
0.4662
0.443834
0.422584
0.402661
0.384151
0.36705
0.351295
0.336792
0.323433
0.311107
0.299708
0.289142
0.279325
0.270185
0.261662
0.253689
0.246191
0.239125
0.232458
0.226158
0.220199
0.214558
0.209213
0.204147
0.199344
0.19479
0.190473
0.186381
0.182505
0.178837
0.175372
0.172106
0.16904
0.166178
0.163532
0.161127
0.159004
0.157249
0.155975
0.155339
0.155634
0.157467