/*--------------------------------*- C++ -*----------------------------------*\
  =========                 |
  \\      /  F ield         | OpenFOAM: The Open Source CFD Toolbox
   \\    /   O peration     | Website:  https://openfoam.org
    \\  /    A nd           | Version:  8
     \\/     M anipulation  |
\*---------------------------------------------------------------------------*/
FoamFile
{
    version     2.0;
    format      ascii;
    class       volScalarField;
    location    "0.1/fluid";
    object      T;
}
// * * * * * * * * * * * * * * * * * * * * * * * * * * * * * * * * * * * * * //

dimensions      [0 0 0 1 0 0 0];

internalField   nonuniform List<scalar> 
4000
(
293.011
293.049
293.108
293.202
293.344
293.56
293.883
294.361
295.063
296.081
297.544
299.62
302.525
306.527
311.94
319.112
328.401
340.14
354.594
371.933
392.21
415.362
441.234
469.611
500.249
532.911
567.378
603.46
641.001
679.873
719.973
761.213
803.514
846.797
890.984
935.987
981.705
1028.06
1075.08
1122.7
1170.83
1219.39
1268.29
1317.43
1366.73
1416.1
1465.43
1514.63
1563.61
1612.26
1660.49
1708.18
1755.23
1801.51
1846.88
1891.15
1934.09
1975.35
2014.45
2050.64
2082.55
2108.31
2125.63
2130.57
2115.28
2067.55
1987.66
1888.39
1777.66
1660.53
1540.31
1419.25
1298.93
1180.55
1065.14
953.654
846.881
745.802
651.828
566.722
492.522
430.908
382.764
347.855
324.546
310.2
301.983
297.54
295.239
294.089
293.524
293.25
293.119
293.056
293.026
293.012
293.005
293.002
293.001
293
293.011
293.049
293.109
293.203
293.347
293.565
293.892
294.377
295.088
296.121
297.604
299.706
302.644
306.684
312.137
319.346
328.664
340.417
354.866
372.178
392.408
415.499
441.304
469.616
500.197
532.813
567.245
603.305
640.838
679.716
719.836
761.11
803.46
846.811
891.078
936.171
981.987
1028.45
1075.58
1123.33
1171.59
1220.29
1269.32
1318.61
1368.05
1417.55
1467.02
1516.36
1565.48
1614.26
1662.61
1710.42
1757.58
1803.96
1849.41
1893.75
1936.72
1977.98
2017.01
2053.05
2084.59
2109.85
2126.32
2129.83
2112.14
2060.37
1977.76
1876.58
1764.42
1646.18
1525.06
1403.24
1282.28
1163.38
1047.59
935.913
829.151
728.439
635.297
551.617
479.52
420.434
375.053
342.737
321.503
308.572
301.19
297.184
295.09
294.027
293.499
293.241
293.115
293.054
293.026
293.012
293.005
293.002
293.001
293
293.011
293.05
293.11
293.205
293.352
293.573
293.906
294.398
295.122
296.172
297.679
299.813
302.79
306.878
312.384
319.65
329.022
340.819
355.299
372.624
392.846
415.909
441.67
469.927
500.451
533.012
567.399
603.43
640.952
679.838
719.986
761.309
803.727
847.161
891.528
936.74
982.694
1029.32
1076.63
1124.56
1173.02
1221.92
1271.16
1320.67
1370.33
1420.06
1469.76
1519.33
1568.66
1617.66
1666.22
1714.23
1761.58
1808.13
1853.72
1898.17
1941.2
1982.44
2021.35
2057.09
2087.89
2112.2
2127.6
2128.57
2106.78
2048.37
1961.44
1857.32
1743.14
1623.45
1501.32
1378.82
1257.47
1138.49
1022.95
911.863
806.087
706.89
615.881
534.967
466.09
410.402
368.191
338.471
319.085
307.309
300.573
296.898
294.964
293.973
293.476
293.231
293.111
293.053
293.025
293.011
293.005
293.002
293.001
293
293.012
293.05
293.111
293.207
293.355
293.579
293.916
294.414
295.146
296.208
297.731
299.886
302.891
307.011
312.555
319.862
329.277
341.115
355.631
372.984
393.225
416.299
442.062
470.316
500.835
533.393
567.783
603.825
641.368
680.29
720.489
761.879
804.383
847.923
892.421
937.78
983.897
1030.7
1078.21
1126.35
1175.04
1224.18
1273.68
1323.44
1373.37
1423.38
1473.35
1523.19
1572.79
1622.06
1670.88
1719.13
1766.7
1813.45
1859.21
1903.78
1946.86
1988.06
2026.78
2062.13
2091.94
2114.97
2128.47
2126.27
2099.38
2033.21
1941.34
1834
1717.69
1596.64
1473.68
1350.79
1229.43
1110.81
996.031
886.058
781.796
684.602
596.121
518.231
452.675
400.342
361.213
334.019
316.468
305.878
299.838
296.538
294.795
293.896
293.442
293.216
293.104
293.05
293.024
293.011
293.005
293.002
293.001
293
293.012
293.05
293.112
293.209
293.358
293.585
293.924
294.428
295.167
296.24
297.778
299.952
302.982
307.134
312.716
320.067
329.529
341.417
355.98
373.378
393.658
416.765
442.557
470.836
501.379
533.964
568.385
604.466
642.058
681.041
721.315
762.797
805.408
849.072
893.709
939.225
985.515
1032.51
1080.23
1128.6
1177.53
1226.93
1276.7
1326.74
1376.96
1427.26
1477.52
1527.66
1577.55
1627.1
1676.19
1724.7
1772.51
1819.46
1865.39
1910.05
1953.15
1994.24
2032.66
2067.4
2096.17
2117.6
2128.45
2121.89
2087.78
2015
1918.82
1808.65
1690.52
1568.36
1444.86
1321.87
1200.81
1082.88
969.164
860.578
758.108
663.158
577.384
502.619
440.375
391.291
355.052
330.153
314.221
304.657
299.208
296.227
294.646
293.827
293.41
293.201
293.098
293.047
293.022
293.01
293.005
293.002
293.001
293
293.012
293.051
293.113
293.211
293.361
293.589
293.931
294.439
295.184
296.266
297.815
300.006
303.058
307.237
312.854
320.246
329.755
341.695
356.313
373.766
394.102
417.262
443.106
471.436
502.03
534.667
569.145
605.289
642.953
682.018
722.387
763.976
806.709
850.511
895.3
940.984
987.456
1034.65
1082.59
1131.2
1180.38
1230.04
1280.08
1330.41
1380.91
1431.5
1482.06
1532.49
1582.67
1632.5
1681.85
1730.61
1778.64
1825.79
1871.86
1916.61
1959.7
2000.64
2038.72
2072.68
2100.35
2119.9
2127.7
2116.13
2073.62
1995.29
1895.46
1782.91
1663.31
1540.34
1416.54
1293.68
1173.14
1056.08
943.583
836.495
735.908
643.227
560.125
488.374
429.241
383.148
349.525
326.68
312.191
303.541
298.625
295.935
294.504
293.76
293.379
293.187
293.092
293.044
293.021
293.01
293.004
293.002
293.001
293
293.012
293.051
293.114
293.212
293.363
293.593
293.937
294.449
295.199
296.288
297.849
300.055
303.127
307.333
312.983
320.417
329.974
341.969
356.648
374.164
394.565
417.791
443.7
472.096
502.757
535.464
570.016
606.24
643.992
683.154
723.63
765.339
808.204
852.153
897.101
942.958
989.617
1037.02
1085.18
1134.02
1183.45
1233.36
1283.67
1334.27
1385.05
1435.92
1486.76
1537.47
1587.92
1638.01
1687.62
1736.61
1784.84
1832.15
1878.34
1923.14
1966.19
2006.96
2044.67
2077.76
2104.32
2122.01
2126.77
2110.19
2059.39
1975.84
1872.66
1758.04
1637.21
1513.64
1389.73
1267.14
1147.23
1031.13
919.884
814.309
715.569
625.093
544.541
475.65
419.385
376.015
344.734
323.694
310.454
302.588
298.125
295.682
294.381
293.701
293.352
293.174
293.086
293.042
293.02
293.009
293.004
293.002
293.001
293
293.012
293.051
293.114
293.213
293.365
293.596
293.943
294.457
295.213
296.308
297.879
300.099
303.19
307.421
313.104
320.578
330.185
342.237
356.979
374.564
395.037
418.337
444.323
472.795
503.535
536.323
570.96
607.275
645.123
684.391
724.983
766.818
809.822
853.919
899.03
945.06
991.902
1039.5
1087.88
1136.95
1186.61
1236.77
1287.33
1338.19
1389.24
1440.37
1491.47
1542.43
1593.14
1643.47
1693.29
1742.48
1790.89
1838.34
1884.62
1929.44
1972.41
2012.96
2050.24
2082.36
2107.72
2124.16
2125.86
2104.43
2045.79
1957.37
1851.17
1734.71
1612.87
1488.87
1364.96
1242.74
1123.51
1008.38
898.35
794.236
697.259
608.871
530.721
464.417
410.762
369.826
340.605
321.132
308.965
301.769
297.695
295.464
294.273
293.649
293.327
293.163
293.08
293.039
293.019
293.009
293.004
293.002
293.001
293
293.012
293.052
293.115
293.214
293.367
293.599
293.948
294.465
295.225
296.327
297.907
300.14
303.249
307.505
313.22
320.735
330.39
342.499
357.306
374.963
395.511
418.891
444.957
473.513
504.337
537.213
571.941
608.352
646.303
685.68
726.391
768.354
811.496
855.742
901.011
947.21
994.229
1042.03
1090.61
1139.89
1189.77
1240.17
1290.96
1342.06
1393.35
1444.72
1496.06
1547.25
1598.18
1648.72
1698.74
1748.11
1796.66
1844.22
1890.56
1935.38
1978.27
2018.6
2055.47
2086.66
2110.94
2125.65
2124.53
2098.56
2032.9
1940.17
1831.32
1713.3
1590.62
1466.31
1342.48
1220.67
1102.12
987.935
879.045
776.307
680.976
594.519
518.569
454.609
403.294
364.511
337.086
318.962
307.709
301.079
297.331
295.278
294.181
293.604
293.306
293.153
293.076
293.037
293.018
293.008
293.004
293.002
293.001
293
293.012
293.052
293.115
293.215
293.369
293.602
293.952
294.473
295.236
296.345
297.933
300.179
303.306
307.585
313.331
320.884
330.588
342.754
357.626
375.355
395.98
419.441
445.59
474.231
505.143
538.108
572.929
609.437
647.491
686.979
727.806
769.895
813.172
857.562
902.983
949.342
996.529
1044.51
1093.28
1142.76
1192.85
1243.46
1294.47
1345.78
1397.29
1448.88
1500.43
1551.83
1602.95
1653.67
1703.86
1753.37
1802.04
1849.69
1896.06
1940.86
1983.62
2023.7
2060.12
2090.46
2113.55
2126.41
2122.35
2091.62
2020.31
1924.09
1813.11
1693.84
1570.53
1446.04
1322.35
1200.95
1083.07
969.769
861.931
760.464
666.643
581.944
507.984
446.122
396.878
359.979
334.106
317.133
306.652
300.498
297.025
295.122
294.103
293.566
293.288
293.145
293.072
293.035
293.017
293.008
293.004
293.002
293.001
293
293.012
293.052
293.116
293.216
293.37
293.605
293.957
294.479
295.247
296.361
297.958
300.215
303.359
307.66
313.436
321.027
330.778
342.999
357.935
375.734
396.436
419.976
446.208
474.933
505.931
538.985
573.898
610.501
648.656
688.25
729.191
771.4
814.804
859.33
904.895
951.403
998.745
1046.89
1095.84
1145.51
1195.79
1246.58
1297.78
1349.29
1400.99
1452.77
1504.51
1556.08
1607.38
1658.26
1708.58
1758.22
1806.98
1854.69
1901.08
1945.82
1988.43
2028.23
2064.15
2093.69
2115.52
2126.42
2119.15
2083.1
2007.82
1909.07
1796.52
1676.34
1552.59
1428.01
1304.51
1183.54
1066.27
953.79
846.906
746.594
654.137
571.019
498.836
438.831
391.405
356.139
331.596
315.6
305.769
300.013
296.768
294.99
294.037
293.534
293.272
293.137
293.069
293.034
293.016
293.008
293.004
293.001
293.001
293
293.012
293.052
293.116
293.217
293.372
293.607
293.961
294.486
295.257
296.376
297.981
300.249
303.408
307.731
313.535
321.162
330.957
343.231
358.228
376.095
396.869
420.486
446.797
475.604
506.685
539.824
574.825
611.519
649.769
689.464
730.511
772.832
816.356
861.007
906.703
953.349
1000.84
1049.13
1098.24
1148.07
1198.52
1249.48
1300.85
1352.53
1404.4
1456.35
1508.25
1559.98
1611.42
1662.43
1712.87
1762.6
1811.44
1859.19
1905.58
1950.26
1992.74
2032.28
2067.64
2096.46
2117.11
2126.12
2115.8
2074.71
1996.25
1895.49
1781.71
1660.84
1536.78
1412.18
1288.89
1168.31
1051.63
939.872
833.844
734.568
643.323
561.61
491
432.62
386.768
352.906
329.495
314.322
305.035
299.611
296.555
294.881
293.982
293.507
293.259
293.131
293.066
293.032
293.016
293.007
293.003
293.001
293.001
293
293.012
293.052
293.117
293.218
293.373
293.609
293.964
294.491
295.266
296.39
298.002
300.281
303.454
307.797
313.626
321.287
331.124
343.447
358.501
376.431
397.274
420.963
447.349
476.231
507.39
540.609
575.691
612.47
650.808
690.595
731.739
774.164
817.796
862.561
908.376
955.144
1002.76
1051.19
1100.44
1150.41
1201.01
1252.12
1303.64
1355.47
1407.49
1459.58
1511.61
1563.47
1615.03
1666.15
1716.7
1766.5
1815.4
1863.18
1909.56
1954.19
1996.53
2035.82
2070.67
2098.84
2118.43
2125.75
2112.74
2067.23
1986.03
1883.57
1768.76
1647.33
1523.04
1398.45
1275.37
1155.16
1039
927.886
822.618
724.248
634.069
553.585
484.347
427.371
382.873
350.205
327.749
313.263
304.428
299.278
296.379
294.791
293.937
293.485
293.249
293.126
293.063
293.031
293.015
293.007
293.003
293.001
293.001
293
293.012
293.052
293.117
293.218
293.374
293.611
293.968
294.497
295.274
296.403
298.021
300.309
303.495
307.856
313.71
321.401
331.275
343.644
358.75
376.738
397.643
421.397
447.851
476.803
508.033
541.324
576.48
613.335
651.753
691.623
732.855
775.371
819.1
863.965
909.885
956.761
1004.48
1053.04
1102.41
1152.51
1203.23
1254.47
1306.12
1358.08
1410.22
1462.43
1514.58
1566.55
1618.21
1669.42
1720.04
1769.91
1818.85
1866.65
1913.01
1957.58
1999.79
2038.86
2073.25
2100.86
2119.52
2125.41
2110.06
2060.75
1977.2
1873.3
1757.63
1635.75
1511.29
1386.73
1263.84
1143.97
1028.26
917.707
813.094
715.503
626.242
546.808
478.785
422.989
379.635
347.971
326.31
312.394
303.93
299.005
296.235
294.716
293.899
293.466
293.24
293.122
293.061
293.03
293.015
293.007
293.003
293.001
293
293
293.012
293.053
293.117
293.219
293.375
293.613
293.97
294.501
295.281
296.414
298.038
300.334
303.532
307.909
313.783
321.501
331.409
343.818
358.97
377.01
397.97
421.783
448.297
477.311
508.603
541.957
577.179
614.101
652.589
692.532
733.84
776.436
820.248
865.2
911.21
958.179
1006
1054.66
1104.13
1154.34
1205.17
1256.51
1308.27
1360.34
1412.58
1464.89
1517.13
1569.19
1620.93
1672.22
1722.9
1772.81
1821.78
1869.58
1915.93
1960.42
2002.52
2041.39
2075.37
2102.5
2120.46
2125.13
2107.8
2055.24
1969.72
1864.61
1748.24
1625.99
1501.4
1376.89
1254.18
1134.6
1019.29
909.213
805.157
708.23
619.75
541.218
474.175
419.382
376.982
346.148
325.141
311.689
303.528
298.785
296.119
294.656
293.869
293.452
293.232
293.118
293.06
293.03
293.015
293.007
293.003
293.001
293
293
293.012
293.053
293.118
293.219
293.376
293.615
293.973
294.505
295.287
296.423
298.052
300.356
303.564
307.954
313.846
321.588
331.524
343.968
359.159
377.243
398.251
422.114
448.679
477.745
509.091
542.499
577.776
614.756
653.303
693.307
734.679
777.343
821.225
866.25
912.336
959.382
1007.28
1056.02
1105.59
1155.88
1206.8
1258.23
1310.08
1362.23
1414.56
1466.94
1519.27
1571.4
1623.2
1674.54
1725.26
1775.21
1824.2
1871.99
1918.3
1962.73
2004.71
2043.37
2076.94
2103.58
2121.54
2125.05
2105.99
2050.69
1963.52
1857.42
1740.5
1617.97
1493.3
1368.84
1246.28
1126.96
1011.97
902.294
798.7
702.322
614.487
536.696
470.456
416.481
374.856
344.693
324.21
311.13
303.208
298.61
296.026
294.609
293.845
293.44
293.227
293.116
293.058
293.029
293.014
293.007
293.003
293.001
293
293
293.012
293.053
293.118
293.22
293.377
293.616
293.975
294.508
295.292
296.431
298.064
300.373
303.59
307.991
313.898
321.658
331.619
344.09
359.314
377.433
398.48
422.384
448.992
478.101
509.49
542.942
578.264
615.29
653.885
693.939
735.363
778.08
822.019
867.103
913.249
960.357
1008.32
1057.13
1106.76
1157.12
1208.11
1259.62
1311.53
1363.75
1416.14
1468.59
1520.97
1573.16
1625.01
1676.39
1727.14
1777.11
1826.11
1873.9
1920.18
1964.56
2006.44
2044.98
2078.28
2104.63
2122.16
2124.88
2104.5
2047.03
1958.56
1851.7
1734.35
1611.61
1486.88
1362.48
1240.06
1120.94
1006.22
896.863
793.638
697.696
610.372
533.167
467.558
414.226
373.208
343.567
323.492
310.699
302.963
298.476
295.955
294.572
293.827
293.43
293.222
293.114
293.057
293.029
293.014
293.007
293.003
293.001
293
293
293.012
293.053
293.118
293.22
293.377
293.617
293.977
294.511
295.296
296.437
298.073
300.387
303.609
308.019
313.937
321.712
331.69
344.183
359.432
377.579
398.656
422.59
449.23
478.371
509.793
543.279
578.636
615.697
654.328
694.419
735.882
778.641
822.621
867.75
913.941
961.095
1009.1
1057.96
1107.65
1158.06
1209.1
1260.66
1312.63
1364.89
1417.33
1469.83
1522.25
1574.47
1626.36
1677.77
1728.55
1778.53
1827.53
1875.32
1921.59
1965.93
2007.75
2046.19
2079.3
2105.42
2122.59
2124.72
2103.36
2044.31
1954.88
1847.45
1729.78
1606.89
1482.12
1357.76
1235.45
1116.49
1001.97
892.85
789.902
694.286
607.343
530.573
465.432
412.574
372.002
342.745
322.967
310.384
302.784
298.378
295.903
294.545
293.813
293.424
293.219
293.112
293.057
293.028
293.014
293.007
293.003
293.001
293
293
293.012
293.053
293.118
293.22
293.378
293.617
293.978
294.513
295.299
296.441
298.079
300.396
303.622
308.038
313.964
321.749
331.739
344.246
359.511
377.677
398.773
422.729
449.39
478.553
509.997
543.506
578.885
615.97
654.625
694.742
736.231
779.017
823.026
868.184
914.405
961.589
1009.63
1058.52
1108.24
1158.69
1209.76
1261.35
1313.36
1365.65
1418.12
1470.65
1523.1
1575.35
1627.26
1678.68
1729.48
1779.47
1828.48
1876.26
1922.52
1966.84
2008.63
2047
2079.97
2105.95
2122.87
2124.61
2102.6
2042.51
1952.45
1844.64
1726.76
1603.77
1478.98
1354.65
1232.41
1113.55
999.174
890.21
787.447
692.049
605.359
528.877
464.045
411.499
371.218
342.21
322.625
310.178
302.666
298.313
295.869
294.528
293.804
293.419
293.217
293.111
293.056
293.028
293.014
293.007
293.003
293.001
293
293
293.012
293.053
293.118
293.22
293.378
293.618
293.978
294.513
295.3
296.443
298.082
300.4
303.629
308.047
313.977
321.766
331.762
344.276
359.55
377.724
398.83
422.795
449.467
478.641
510.096
543.616
579.007
616.103
654.77
694.9
736.402
779.201
823.225
868.397
914.633
961.833
1009.89
1058.8
1108.53
1159
1210.09
1261.7
1313.72
1366.03
1418.52
1471.06
1523.52
1575.78
1627.7
1679.14
1729.94
1779.94
1828.95
1876.73
1922.98
1967.29
2009.06
2047.41
2080.31
2106.21
2123.01
2124.55
2102.22
2041.63
1951.26
1843.26
1725.27
1602.24
1477.44
1353.12
1230.92
1112.11
997.807
888.924
786.256
690.967
604.404
528.066
463.385
410.99
370.849
341.959
322.464
310.08
302.609
298.282
295.852
294.519
293.8
293.417
293.216
293.11
293.056
293.028
293.014
293.007
293.003
293.001
293
293
293.012
293.053
293.118
293.22
293.378
293.618
293.978
294.513
295.3
296.443
298.082
300.4
303.629
308.047
313.977
321.766
331.762
344.276
359.549
377.723
398.829
422.795
449.466
478.641
510.096
543.616
579.006
616.102
654.77
694.899
736.401
779.2
823.224
868.396
914.632
961.832
1009.89
1058.8
1108.53
1159
1210.09
1261.7
1313.71
1366.03
1418.51
1471.05
1523.52
1575.78
1627.7
1679.13
1729.94
1779.94
1828.94
1876.73
1922.98
1967.29
2009.06
2047.41
2080.31
2106.21
2123.01
2124.55
2102.22
2041.63
1951.26
1843.26
1725.28
1602.24
1477.44
1353.12
1230.92
1112.12
997.808
888.924
786.256
690.967
604.404
528.066
463.385
410.99
370.849
341.958
322.464
310.08
302.609
298.282
295.852
294.519
293.8
293.417
293.216
293.11
293.056
293.028
293.014
293.007
293.003
293.001
293
293
293.012
293.053
293.118
293.22
293.378
293.617
293.978
294.513
295.299
296.441
298.079
300.396
303.622
308.038
313.964
321.748
331.738
344.245
359.51
377.675
398.771
422.727
449.388
478.551
509.995
543.504
578.883
615.968
654.623
694.739
736.229
779.014
823.023
868.181
914.402
961.586
1009.62
1058.52
1108.24
1158.69
1209.76
1261.35
1313.35
1365.65
1418.12
1470.65
1523.1
1575.34
1627.25
1678.68
1729.47
1779.47
1828.47
1876.26
1922.52
1966.84
2008.62
2047
2079.97
2105.95
2122.87
2124.61
2102.6
2042.52
1952.45
1844.65
1726.76
1603.77
1478.98
1354.65
1232.41
1113.55
999.176
890.211
787.448
692.05
605.36
528.878
464.045
411.499
371.217
342.209
322.625
310.178
302.666
298.313
295.869
294.528
293.804
293.419
293.217
293.111
293.056
293.028
293.014
293.007
293.003
293.001
293
293
293.012
293.053
293.118
293.22
293.377
293.617
293.976
294.511
295.296
296.437
298.073
300.387
303.609
308.018
313.937
321.711
331.689
344.182
359.43
377.576
398.653
422.587
449.226
478.367
509.789
543.275
578.632
615.693
654.323
694.415
735.878
778.636
822.617
867.745
913.936
961.09
1009.1
1057.96
1107.64
1158.05
1209.09
1260.65
1312.62
1364.88
1417.32
1469.82
1522.24
1574.46
1626.35
1677.76
1728.54
1778.52
1827.52
1875.31
1921.58
1965.92
2007.75
2046.19
2079.29
2105.42
2122.59
2124.72
2103.36
2044.32
1954.89
1847.46
1729.78
1606.9
1482.13
1357.77
1235.46
1116.49
1001.98
892.854
789.905
694.289
607.345
530.575
465.433
412.575
372.002
342.745
322.967
310.384
302.783
298.378
295.903
294.545
293.813
293.424
293.219
293.112
293.057
293.028
293.014
293.007
293.003
293.001
293
293
293.012
293.053
293.118
293.22
293.377
293.616
293.975
294.508
295.292
296.431
298.064
300.373
303.589
307.99
313.897
321.657
331.617
344.088
359.311
377.43
398.476
422.379
448.987
478.095
509.484
542.937
578.259
615.284
653.879
693.933
735.357
778.074
822.013
867.097
913.242
960.349
1008.31
1057.12
1106.75
1157.11
1208.1
1259.61
1311.52
1363.74
1416.13
1468.58
1520.96
1573.14
1624.99
1676.37
1727.13
1777.1
1826.1
1873.89
1920.17
1964.55
2006.44
2044.97
2078.27
2104.62
2122.15
2124.88
2104.5
2047.04
1958.57
1851.71
1734.36
1611.62
1486.89
1362.49
1240.07
1120.95
1006.23
896.868
793.643
697.701
610.376
533.171
467.561
414.228
373.209
343.568
323.492
310.699
302.963
298.476
295.955
294.572
293.827
293.43
293.222
293.114
293.057
293.029
293.014
293.007
293.003
293.001
293
293
293.012
293.053
293.118
293.219
293.376
293.615
293.973
294.505
295.287
296.423
298.052
300.355
303.563
307.953
313.845
321.586
331.522
343.965
359.156
377.238
398.246
422.108
448.673
477.739
509.084
542.492
577.769
614.748
653.295
693.299
734.671
777.334
821.216
866.242
912.327
959.372
1007.27
1056.01
1105.58
1155.87
1206.78
1258.22
1310.07
1362.21
1414.54
1466.93
1519.25
1571.38
1623.18
1674.52
1725.25
1775.2
1824.18
1871.98
1918.29
1962.72
2004.7
2043.36
2076.93
2103.57
2121.53
2125.05
2105.99
2050.7
1963.53
1857.43
1740.51
1617.98
1493.31
1368.85
1246.29
1126.96
1011.98
902.302
798.708
702.329
614.493
536.701
470.459
416.483
374.857
344.693
324.21
311.13
303.208
298.61
296.026
294.609
293.845
293.44
293.227
293.116
293.058
293.029
293.014
293.007
293.003
293.001
293
293
293.012
293.053
293.117
293.219
293.375
293.613
293.97
294.501
295.281
296.414
298.037
300.334
303.532
307.908
313.782
321.5
331.407
343.815
358.966
377.004
397.964
421.776
448.29
477.303
508.594
541.948
577.169
614.092
652.579
692.522
733.83
776.426
820.237
865.19
911.199
958.167
1005.98
1054.64
1104.12
1154.32
1205.15
1256.5
1308.26
1360.32
1412.56
1464.87
1517.12
1569.18
1620.91
1672.2
1722.88
1772.79
1821.76
1869.56
1915.91
1960.41
2002.51
2041.38
2075.36
2102.49
2120.45
2125.12
2107.8
2055.26
1969.73
1864.62
1748.26
1626.01
1501.42
1376.91
1254.19
1134.61
1019.3
909.223
805.167
708.238
619.758
541.224
474.18
419.385
376.984
346.149
325.141
311.689
303.528
298.785
296.119
294.656
293.869
293.452
293.232
293.118
293.06
293.03
293.015
293.007
293.003
293.001
293
293
293.012
293.052
293.117
293.218
293.374
293.611
293.967
294.497
295.274
296.402
298.02
300.309
303.495
307.855
313.708
321.399
331.272
343.64
358.745
376.732
397.636
421.39
447.843
476.794
508.023
541.313
576.469
613.324
651.742
691.612
732.843
775.359
819.087
863.952
909.872
956.747
1004.47
1053.02
1102.4
1152.49
1203.21
1254.45
1306.1
1358.06
1410.2
1462.41
1514.56
1566.53
1618.19
1669.4
1720.02
1769.89
1818.83
1866.63
1912.99
1957.56
1999.77
2038.85
2073.23
2100.84
2119.52
2125.4
2110.07
2060.76
1977.22
1873.31
1757.65
1635.76
1511.3
1386.75
1263.85
1143.98
1028.27
917.721
813.107
715.515
626.252
546.815
478.791
422.993
379.637
347.972
326.311
312.394
303.93
299.005
296.235
294.716
293.899
293.466
293.24
293.122
293.061
293.03
293.015
293.007
293.003
293.001
293
293
293.012
293.052
293.117
293.218
293.373
293.609
293.964
294.491
295.266
296.39
298.001
300.28
303.453
307.796
313.625
321.285
331.12
343.443
358.496
376.425
397.266
420.954
447.339
476.221
507.379
540.597
575.678
612.457
650.795
690.582
731.726
774.15
817.782
862.546
908.36
955.128
1002.74
1051.17
1100.42
1150.39
1200.99
1252.1
1303.62
1355.45
1407.46
1459.55
1511.59
1563.45
1615.01
1666.13
1716.67
1766.48
1815.38
1863.16
1909.54
1954.16
1996.51
2035.8
2070.65
2098.83
2118.42
2125.75
2112.74
2067.24
1986.05
1883.59
1768.78
1647.35
1523.06
1398.47
1275.39
1155.18
1039.01
927.903
822.634
724.262
634.082
553.595
484.355
427.377
382.876
350.207
327.75
313.263
304.428
299.278
296.379
294.791
293.937
293.485
293.249
293.126
293.063
293.031
293.015
293.007
293.003
293.001
293.001
293
293.012
293.052
293.116
293.217
293.372
293.607
293.961
294.486
295.257
296.376
297.98
300.249
303.407
307.73
313.533
321.16
330.954
343.227
358.222
376.088
396.861
420.477
446.787
475.592
506.673
539.811
574.811
611.505
649.755
689.449
730.495
772.817
816.34
860.99
906.686
953.33
1000.82
1049.11
1098.22
1148.05
1198.49
1249.45
1300.83
1352.51
1404.38
1456.32
1508.22
1559.95
1611.39
1662.4
1712.84
1762.57
1811.41
1859.16
1905.55
1950.24
1992.72
2032.26
2067.63
2096.45
2117.1
2126.11
2115.8
2074.73
1996.28
1895.52
1781.74
1660.86
1536.81
1412.2
1288.91
1168.33
1051.65
939.893
833.864
734.586
643.339
561.623
491.01
432.627
386.774
352.909
329.497
314.323
305.035
299.611
296.555
294.881
293.982
293.507
293.259
293.131
293.066
293.032
293.016
293.007
293.003
293.001
293.001
293
293.012
293.052
293.116
293.216
293.37
293.605
293.957
294.479
295.247
296.361
297.957
300.215
303.358
307.659
313.434
321.025
330.774
342.994
357.929
375.727
396.427
419.965
446.196
474.92
505.917
538.971
573.883
610.486
648.64
688.234
729.174
771.383
814.787
859.312
904.875
951.383
998.723
1046.87
1095.82
1145.48
1195.76
1246.55
1297.75
1349.26
1400.96
1452.74
1504.47
1556.05
1607.34
1658.22
1708.55
1758.18
1806.95
1854.66
1901.05
1945.79
1988.41
2028.21
2064.13
2093.67
2115.51
2126.41
2119.16
2083.11
2007.85
1909.1
1796.55
1676.37
1552.62
1428.04
1304.54
1183.56
1066.3
953.815
846.93
746.616
654.157
571.036
498.849
438.841
391.411
356.143
331.599
315.601
305.77
300.014
296.769
294.99
294.037
293.534
293.272
293.137
293.069
293.034
293.016
293.008
293.004
293.001
293.001
293
293.012
293.052
293.115
293.215
293.369
293.602
293.952
294.472
295.236
296.344
297.933
300.178
303.305
307.584
313.329
320.882
330.584
342.749
357.62
375.347
395.971
419.429
445.578
474.217
505.128
538.092
572.913
609.42
647.474
686.961
727.788
769.877
813.152
857.542
902.962
949.32
996.506
1044.48
1093.26
1142.74
1192.83
1243.43
1294.44
1345.75
1397.25
1448.84
1500.39
1551.79
1602.91
1653.64
1703.82
1753.33
1802.01
1849.65
1896.03
1940.83
1983.59
2023.68
2060.1
2090.44
2113.54
2126.41
2122.35
2091.63
2020.34
1924.12
1813.14
1693.88
1570.57
1446.07
1322.38
1200.99
1083.1
969.798
861.959
760.49
666.666
581.964
508
446.134
396.886
359.984
334.109
317.134
306.653
300.498
297.025
295.122
294.103
293.566
293.288
293.145
293.072
293.035
293.017
293.008
293.004
293.002
293.001
293
293.012
293.052
293.115
293.214
293.367
293.599
293.948
294.465
295.225
296.327
297.906
300.139
303.248
307.504
313.218
320.732
330.386
342.494
357.299
374.954
395.501
418.879
444.944
473.498
504.322
537.196
571.924
608.334
646.284
685.662
726.371
768.334
811.475
855.72
900.989
947.186
994.204
1042
1090.58
1139.86
1189.74
1240.13
1290.93
1342.02
1393.31
1444.68
1496.02
1547.21
1598.14
1648.68
1698.7
1748.07
1796.62
1844.18
1890.53
1935.35
1978.23
2018.57
2055.45
2086.64
2110.93
2125.64
2124.53
2098.57
2032.93
1940.2
1831.36
1713.33
1590.65
1466.35
1342.52
1220.7
1102.15
987.967
879.076
776.336
681.002
594.541
518.588
454.623
403.304
364.517
337.09
318.964
307.71
301.079
297.331
295.278
294.181
293.604
293.306
293.153
293.076
293.037
293.018
293.008
293.004
293.002
293.001
293
293.012
293.051
293.114
293.213
293.365
293.596
293.943
294.457
295.212
296.308
297.878
300.098
303.189
307.42
313.102
320.575
330.181
342.231
356.971
374.554
395.025
418.324
444.308
472.779
503.518
536.305
570.942
607.255
645.104
684.371
724.962
766.797
809.799
853.896
899.006
945.034
991.875
1039.48
1087.85
1136.92
1186.58
1236.74
1287.3
1338.15
1389.2
1440.33
1491.43
1542.39
1593.1
1643.42
1693.25
1742.44
1790.85
1838.3
1884.58
1929.4
1972.38
2012.93
2050.21
2082.34
2107.7
2124.14
2125.85
2104.43
2045.81
1957.41
1851.21
1734.75
1612.91
1488.91
1365
1242.78
1123.54
1008.42
898.383
794.267
697.288
608.896
530.742
464.433
410.773
369.833
340.609
321.134
308.966
301.769
297.695
295.464
294.273
293.649
293.327
293.163
293.08
293.039
293.019
293.009
293.004
293.002
293.001
293
293.012
293.051
293.114
293.212
293.363
293.593
293.937
294.449
295.199
296.288
297.848
300.054
303.126
307.331
312.981
320.413
329.969
341.962
356.639
374.154
394.552
417.777
443.684
472.079
502.739
535.445
569.996
606.219
643.97
683.132
723.608
765.316
808.181
852.128
897.076
942.931
989.588
1036.99
1085.15
1133.99
1183.41
1233.32
1283.63
1334.23
1385.01
1435.88
1486.72
1537.42
1587.88
1637.97
1687.57
1736.56
1784.79
1832.11
1878.3
1923.1
1966.15
2006.93
2044.64
2077.73
2104.3
2122
2126.76
2110.2
2059.42
1975.88
1872.71
1758.08
1637.25
1513.69
1389.77
1267.18
1147.27
1031.17
919.919
814.343
715.599
625.12
544.564
475.667
419.398
376.023
344.738
323.696
310.455
302.588
298.125
295.682
294.381
293.701
293.352
293.174
293.086
293.042
293.02
293.009
293.004
293.002
293.001
293
293.012
293.051
293.113
293.211
293.361
293.589
293.931
294.439
295.184
296.265
297.815
300.005
303.056
307.235
312.851
320.242
329.75
341.687
356.304
373.755
394.088
417.247
443.088
471.417
502.01
534.646
569.123
605.267
642.93
681.995
722.363
763.951
806.684
850.485
895.273
940.955
987.426
1034.62
1082.56
1131.16
1180.34
1230
1280.04
1330.36
1380.87
1431.45
1482.01
1532.44
1582.62
1632.45
1681.8
1730.56
1778.6
1825.74
1871.81
1916.56
1959.66
2000.6
2038.69
2072.65
2100.33
2119.88
2127.7
2116.14
2073.64
1995.33
1895.5
1782.96
1663.35
1540.39
1416.59
1293.72
1173.18
1056.12
943.621
836.531
735.94
643.256
560.149
488.393
429.255
383.157
349.53
326.683
312.192
303.541
298.625
295.935
294.504
293.76
293.379
293.187
293.092
293.044
293.021
293.01
293.004
293.002
293.001
293
293.012
293.05
293.112
293.209
293.358
293.585
293.924
294.428
295.167
296.24
297.777
299.951
302.981
307.132
312.713
320.063
329.523
341.409
355.97
373.365
393.643
416.748
442.538
470.816
501.358
533.942
568.362
604.442
642.034
681.016
721.29
762.771
805.381
849.045
893.68
939.195
985.483
1032.47
1080.19
1128.56
1177.49
1226.89
1276.65
1326.7
1376.91
1427.21
1477.47
1527.6
1577.5
1627.05
1676.14
1724.65
1772.46
1819.41
1865.34
1910.01
1953.11
1994.2
2032.62
2067.37
2096.14
2117.58
2128.44
2121.9
2087.8
2015.04
1918.86
1808.7
1690.56
1568.41
1444.9
1321.91
1200.85
1082.92
969.203
860.615
758.143
663.189
577.411
502.64
440.39
391.301
355.057
330.156
314.223
304.658
299.208
296.227
294.646
293.827
293.41
293.201
293.098
293.047
293.022
293.01
293.005
293.002
293.001
293
293.012
293.05
293.111
293.207
293.355
293.579
293.916
294.414
295.146
296.208
297.731
299.886
302.89
307.009
312.552
319.858
329.271
341.107
355.621
372.971
393.21
416.281
442.043
470.295
500.812
533.369
567.758
603.799
641.342
680.263
720.462
761.852
804.355
847.895
892.391
937.749
983.863
1030.66
1078.17
1126.31
1174.99
1224.13
1273.63
1323.39
1373.32
1423.32
1473.29
1523.13
1572.74
1622
1670.82
1719.07
1766.65
1813.4
1859.16
1903.73
1946.82
1988.02
2026.74
2062.09
2091.92
2114.95
2128.46
2126.27
2099.4
2033.24
1941.38
1834.05
1717.74
1596.68
1473.72
1350.83
1229.48
1110.86
996.071
886.097
781.833
684.635
596.15
518.255
452.693
400.354
361.22
334.023
316.469
305.879
299.838
296.538
294.795
293.896
293.442
293.216
293.104
293.05
293.024
293.011
293.005
293.002
293.001
293
293.011
293.05
293.11
293.205
293.352
293.573
293.905
294.398
295.122
296.172
297.678
299.812
302.789
306.875
312.381
319.645
329.015
340.811
355.288
372.61
392.829
415.89
441.649
469.904
500.426
532.987
567.373
603.403
640.924
679.81
719.957
761.279
803.696
847.129
891.494
936.705
982.657
1029.28
1076.59