/*--------------------------------*- C++ -*----------------------------------*\
  =========                 |
  \\      /  F ield         | OpenFOAM: The Open Source CFD Toolbox
   \\    /   O peration     | Website:  https://openfoam.org
    \\  /    A nd           | Version:  8
     \\/     M anipulation  |
\*---------------------------------------------------------------------------*/
FoamFile
{
    version     2.0;
    format      ascii;
    class       volVectorField;
    location    "0.1/fluid";
    object      U;
}
// * * * * * * * * * * * * * * * * * * * * * * * * * * * * * * * * * * * * * //

dimensions      [0 1 -1 0 0 0 0];

internalField   nonuniform List<vector> 
4000
(
(0.0999609 -0.00616354 0)
(0.0997269 -0.0182592 0)
(0.0993482 -0.0301901 0)
(0.0988271 -0.0420085 0)
(0.098163 -0.0537345 0)
(0.0973471 -0.0653718 0)
(0.0963676 -0.0769223 0)
(0.0952127 -0.0883901 0)
(0.0938723 -0.09978 0)
(0.0923396 -0.111096 0)
(0.0906129 -0.122343 0)
(0.0886983 -0.133522 0)
(0.0866153 -0.144627 0)
(0.0843959 -0.155674 0)
(0.0820755 -0.16669 0)
(0.0796867 -0.177693 0)
(0.0772556 -0.18869 0)
(0.0747964 -0.199668 0)
(0.072307 -0.210594 0)
(0.0697673 -0.22141 0)
(0.0671416 -0.232039 0)
(0.0643847 -0.24239 0)
(0.0614492 -0.252372 0)
(0.058293 -0.2619 0)
(0.0548836 -0.270903 0)
(0.0512015 -0.279326 0)
(0.047241 -0.287126 0)
(0.0430131 -0.294267 0)
(0.0385369 -0.300749 0)
(0.0338322 -0.30659 0)
(0.0289173 -0.311809 0)
(0.0238101 -0.316432 0)
(0.0185284 -0.320488 0)
(0.013089 -0.324012 0)
(0.00750797 -0.327042 0)
(0.00180047 -0.329616 0)
(-0.0040175 -0.331775 0)
(-0.00993252 -0.333557 0)
(-0.0159334 -0.335 0)
(-0.0220084 -0.33614 0)
(-0.0281465 -0.337012 0)
(-0.0343374 -0.337649 0)
(-0.0405709 -0.338078 0)
(-0.0468372 -0.338328 0)
(-0.0531267 -0.338421 0)
(-0.0594293 -0.33838 0)
(-0.0657352 -0.338223 0)
(-0.0720341 -0.337967 0)
(-0.0783154 -0.337627 0)
(-0.0845678 -0.337216 0)
(-0.0907799 -0.336746 0)
(-0.0969392 -0.33623 0)
(-0.103033 -0.33568 0)
(-0.109046 -0.335109 0)
(-0.114964 -0.334535 0)
(-0.120769 -0.333977 0)
(-0.12644 -0.333462 0)
(-0.131954 -0.333022 0)
(-0.137278 -0.332701 0)
(-0.142365 -0.33255 0)
(-0.147148 -0.332629 0)
(-0.15154 -0.333002 0)
(-0.155406 -0.333739 0)
(-0.158462 -0.334884 0)
(-0.160135 -0.336322 0)
(-0.159904 -0.337669 0)
(-0.157733 -0.338297 0)
(-0.15415 -0.337773 0)
(-0.149684 -0.335924 0)
(-0.144645 -0.33271 0)
(-0.139203 -0.328134 0)
(-0.133467 -0.322216 0)
(-0.127519 -0.314983 0)
(-0.121425 -0.306466 0)
(-0.115248 -0.296711 0)
(-0.109048 -0.285775 0)
(-0.102885 -0.273728 0)
(-0.0968509 -0.260655 0)
(-0.091097 -0.246674 0)
(-0.0858442 -0.231955 0)
(-0.0813623 -0.216756 0)
(-0.0779631 -0.201631 0)
(-0.0759424 -0.187084 0)
(-0.0754244 -0.173475 0)
(-0.0762872 -0.160901 0)
(-0.078212 -0.1492 0)
(-0.080796 -0.138088 0)
(-0.0836592 -0.127305 0)
(-0.0865089 -0.116676 0)
(-0.0891543 -0.106108 0)
(-0.091486 -0.0955509 0)
(-0.0934643 -0.0850392 0)
(-0.0951024 -0.0746227 0)
(-0.0964353 -0.0643186 0)
(-0.0975027 -0.054132 0)
(-0.0983424 -0.0440586 0)
(-0.0989874 -0.0340936 0)
(-0.0994638 -0.0242412 0)
(-0.0997889 -0.0145045 0)
(-0.0999757 -0.00484442 0)
(0.100007 -0.00575926 0)
(0.099859 -0.0171761 0)
(0.0995392 -0.02848 0)
(0.0990306 -0.0396697 0)
(0.0983391 -0.05073 0)
(0.0974664 -0.0616412 0)
(0.0964092 -0.0723887 0)
(0.0951639 -0.0829647 0)
(0.0937298 -0.0933661 0)
(0.092111 -0.103594 0)
(0.0903175 -0.113656 0)
(0.0883665 -0.123572 0)
(0.0862846 -0.133392 0)
(0.0841042 -0.143146 0)
(0.0818595 -0.152862 0)
(0.0795814 -0.16257 0)
(0.0772927 -0.172294 0)
(0.0750028 -0.182047 0)
(0.0727037 -0.191817 0)
(0.0703689 -0.201569 0)
(0.0679562 -0.211243 0)
(0.0654141 -0.220763 0)
(0.0626894 -0.230043 0)
(0.0597346 -0.238997 0)
(0.0565132 -0.24755 0)
(0.0530017 -0.255641 0)
(0.0491905 -0.263228 0)
(0.0450826 -0.270296 0)
(0.0406922 -0.276817 0)
(0.0360383 -0.282771 0)
(0.0311413 -0.288158 0)
(0.0260227 -0.292989 0)
(0.0207038 -0.297288 0)
(0.0152054 -0.301084 0)
(0.00954657 -0.304409 0)
(0.00374528 -0.3073 0)
(-0.00218001 -0.309794 0)
(-0.00821383 -0.311927 0)
(-0.0143439 -0.313734 0)
(-0.0205574 -0.315252 0)
(-0.026843 -0.316512 0)
(-0.0331899 -0.317544 0)
(-0.0395879 -0.318377 0)
(-0.0460274 -0.319037 0)
(-0.0524989 -0.319547 0)
(-0.0589931 -0.319928 0)
(-0.0655006 -0.320198 0)
(-0.072012 -0.320375 0)
(-0.0785177 -0.320473 0)
(-0.0850079 -0.320507 0)
(-0.0914724 -0.320488 0)
(-0.0979008 -0.32043 0)
(-0.104282 -0.320344 0)
(-0.110605 -0.320243 0)
(-0.116857 -0.32014 0)
(-0.123025 -0.320051 0)
(-0.129093 -0.319992 0)
(-0.135043 -0.319981 0)
(-0.140847 -0.320037 0)
(-0.146462 -0.320176 0)
(-0.15182 -0.320407 0)
(-0.156834 -0.320726 0)
(-0.161356 -0.321109 0)
(-0.165043 -0.321486 0)
(-0.167101 -0.321691 0)
(-0.166952 -0.321454 0)
(-0.164583 -0.320465 0)
(-0.1607 -0.318522 0)
(-0.15592 -0.315485 0)
(-0.150575 -0.311259 0)
(-0.144837 -0.30578 0)
(-0.138804 -0.299011 0)
(-0.132544 -0.290933 0)
(-0.126106 -0.281549 0)
(-0.119535 -0.270883 0)
(-0.112872 -0.258991 0)
(-0.106159 -0.245974 0)
(-0.099488 -0.232001 0)
(-0.0930422 -0.217356 0)
(-0.0871077 -0.202478 0)
(-0.0820473 -0.187935 0)
(-0.0782461 -0.174111 0)
(-0.075985 -0.161368 0)
(-0.0753179 -0.149884 0)
(-0.0760481 -0.139566 0)
(-0.0778213 -0.13012 0)
(-0.0802438 -0.121194 0)
(-0.0829652 -0.112496 0)
(-0.0857205 -0.103843 0)
(-0.0883354 -0.0951481 0)
(-0.0907101 -0.0863914 0)
(-0.0927956 -0.0775303 0)
(-0.0945786 -0.0685435 0)
(-0.0960693 -0.0594596 0)
(-0.0972873 -0.0503097 0)
(-0.0982557 -0.0411188 0)
(-0.0989959 -0.0319119 0)
(-0.0995228 -0.0227247 0)
(-0.0998476 -0.0135961 0)
(-0.100001 -0.00452962 0)
(0.0999847 -0.00555692 0)
(0.0997825 -0.0165497 0)
(0.0993834 -0.0274236 0)
(0.0987761 -0.0381796 0)
(0.0979658 -0.0488012 0)
(0.0969554 -0.0592681 0)
(0.0957468 -0.0695668 0)
(0.0943437 -0.0796927 0)
(0.0927545 -0.089647 0)
(0.0909926 -0.0994359 0)
(0.0890785 -0.10907 0)
(0.0870386 -0.118566 0)
(0.0849028 -0.127947 0)
(0.082703 -0.137242 0)
(0.0804727 -0.146484 0)
(0.0782433 -0.155707 0)
(0.0760379 -0.164939 0)
(0.0738649 -0.174192 0)
(0.0717145 -0.183456 0)
(0.069557 -0.192702 0)
(0.0673466 -0.201876 0)
(0.0650268 -0.210908 0)
(0.0625392 -0.21972 0)
(0.0598307 -0.228236 0)
(0.0568594 -0.236383 0)
(0.0535971 -0.244104 0)
(0.0500287 -0.251353 0)
(0.0461489 -0.258099 0)
(0.041961 -0.264327 0)
(0.0374774 -0.270033 0)
(0.0327166 -0.27522 0)
(0.0277003 -0.279903 0)
(0.0224512 -0.284102 0)
(0.0169914 -0.287842 0)
(0.0113418 -0.291152 0)
(0.00552207 -0.294063 0)
(-0.000448777 -0.296607 0)
(-0.00655371 -0.298817 0)
(-0.0127784 -0.300726 0)
(-0.0191097 -0.302365 0)
(-0.0255355 -0.303764 0)
(-0.0320445 -0.30495 0)
(-0.0386263 -0.305949 0)
(-0.045271 -0.306785 0)
(-0.0519695 -0.30748 0)
(-0.0587127 -0.308053 0)
(-0.0654922 -0.308521 0)
(-0.0722995 -0.308899 0)
(-0.0791266 -0.309202 0)
(-0.0859656 -0.309442 0)
(-0.0928087 -0.30963 0)
(-0.0996485 -0.309776 0)
(-0.106478 -0.309889 0)
(-0.113289 -0.309979 0)
(-0.120076 -0.310054 0)
(-0.126829 -0.310121 0)
(-0.133537 -0.31019 0)
(-0.140187 -0.310264 0)
(-0.146751 -0.310347 0)
(-0.153177 -0.310435 0)
(-0.159383 -0.310511 0)
(-0.165262 -0.310547 0)
(-0.170602 -0.310493 0)
(-0.174925 -0.310252 0)
(-0.177245 -0.309668 0)
(-0.176952 -0.308454 0)
(-0.174179 -0.306448 0)
(-0.169777 -0.303541 0)
(-0.164408 -0.299641 0)
(-0.158426 -0.294667 0)
(-0.152016 -0.28856 0)
(-0.145284 -0.281286 0)
(-0.138295 -0.272838 0)
(-0.131095 -0.263238 0)
(-0.123722 -0.252541 0)
(-0.11621 -0.240844 0)
(-0.10861 -0.22829 0)
(-0.101044 -0.215081 0)
(-0.0937497 -0.201495 0)
(-0.0870841 -0.187878 0)
(-0.0814854 -0.174624 0)
(-0.0773575 -0.162122 0)
(-0.0749293 -0.150661 0)
(-0.074174 -0.140331 0)
(-0.0748343 -0.130998 0)
(-0.0765333 -0.122382 0)
(-0.0788826 -0.114169 0)
(-0.0815485 -0.106112 0)
(-0.0842817 -0.0980499 0)
(-0.0869195 -0.0899025 0)
(-0.0893693 -0.0816425 0)
(-0.0915829 -0.0732731 0)
(-0.0935345 -0.0648084 0)
(-0.0952142 -0.0562636 0)
(-0.0966243 -0.047652 0)
(-0.0977743 -0.038986 0)
(-0.0986756 -0.0302845 0)
(-0.0993371 -0.0215821 0)
(-0.0997658 -0.012921 0)
(-0.0999841 -0.00430909 0)
(0.0999894 -0.00527186 0)
(0.0997808 -0.015702 0)
(0.0993619 -0.0260122 0)
(0.0987202 -0.036198 0)
(0.0978644 -0.046239 0)
(0.0968018 -0.056112 0)
(0.0955384 -0.065801 0)
(0.0940823 -0.0752998 0)
(0.0924454 -0.0846096 0)
(0.0906438 -0.0937372 0)
(0.088699 -0.102695 0)
(0.0866382 -0.111503 0)
(0.0844934 -0.120189 0)
(0.0822998 -0.128787 0)
(0.0800933 -0.137334 0)
(0.0779059 -0.145868 0)
(0.0757595 -0.15442 0)
(0.0736612 -0.163005 0)
(0.0715987 -0.171622 0)
(0.0695404 -0.180244 0)
(0.0674376 -0.188823 0)
(0.0652314 -0.197298 0)
(0.0628606 -0.205595 0)
(0.0602693 -0.213644 0)
(0.0574123 -0.221376 0)
(0.0542584 -0.228736 0)
(0.0507901 -0.23568 0)
(0.047002 -0.242177 0)
(0.0428984 -0.24821 0)
(0.0384905 -0.25377 0)
(0.0337946 -0.258859 0)
(0.0288294 -0.263487 0)
(0.0236146 -0.267671 0)
(0.0181704 -0.271434 0)
(0.0125157 -0.274799 0)
(0.00666918 -0.277795 0)
(0.000648396 -0.280451 0)
(-0.00553008 -0.282797 0)
(-0.0118522 -0.284862 0)
(-0.0183055 -0.286674 0)
(-0.0248782 -0.288259 0)
(-0.0315595 -0.289644 0)
(-0.0383392 -0.290852 0)
(-0.0452081 -0.291904 0)
(-0.0521576 -0.292819 0)
(-0.0591795 -0.293614 0)
(-0.0662661 -0.294306 0)
(-0.0734101 -0.294907 0)
(-0.0806049 -0.29543 0)
(-0.0878439 -0.295883 0)
(-0.0951213 -0.296275 0)
(-0.102432 -0.296614 0)
(-0.109769 -0.296904 0)
(-0.11713 -0.29715 0)
(-0.124507 -0.297354 0)
(-0.131893 -0.297517 0)
(-0.139277 -0.297636 0)
(-0.146641 -0.297707 0)
(-0.15395 -0.297718 0)
(-0.161133 -0.297651 0)
(-0.168088 -0.297476 0)
(-0.174673 -0.297151 0)
(-0.180602 -0.296611 0)
(-0.185249 -0.295743 0)
(-0.187497 -0.294394 0)
(-0.186748 -0.292291 0)
(-0.183379 -0.289371 0)
(-0.178349 -0.285583 0)
(-0.172306 -0.280872 0)
(-0.1656 -0.275184 0)
(-0.158423 -0.268477 0)
(-0.150893 -0.260731 0)
(-0.143087 -0.251952 0)
(-0.135064 -0.242175 0)
(-0.12688 -0.231469 0)
(-0.118589 -0.219942 0)
(-0.110276 -0.207747 0)
(-0.102114 -0.195094 0)
(-0.0943921 -0.182261 0)
(-0.0874924 -0.169587 0)
(-0.0818327 -0.157443 0)
(-0.0777571 -0.146163 0)
(-0.0754199 -0.135964 0)
(-0.0747272 -0.126864 0)
(-0.0753882 -0.118689 0)
(-0.0770273 -0.111147 0)
(-0.0792763 -0.103945 0)
(-0.0818268 -0.0968528 0)
(-0.0844501 -0.0897257 0)
(-0.0869954 -0.0824882 0)
(-0.0893723 -0.07511 0)
(-0.0915322 -0.0675864 0)
(-0.0934516 -0.059926 0)
(-0.0951213 -0.0521431 0)
(-0.0965399 -0.0442525 0)
(-0.0977105 -0.0362692 0)
(-0.0986369 -0.0282157 0)
(-0.099321 -0.0201311 0)
(-0.0997639 -0.0120626 0)
(-0.0999872 -0.00402528 0)
(0.0999867 -0.00498413 0)
(0.0997626 -0.0148443 0)
(0.0993169 -0.0245897 0)
(0.0986381 -0.0342145 0)
(0.0977368 -0.0436976 0)
(0.0966225 -0.0530155 0)
(0.0953039 -0.0621526 0)
(0.0937917 -0.0711032 0)
(0.0921006 -0.0798691 0)
(0.0902498 -0.0884575 0)
(0.0882638 -0.0968815 0)
(0.0861721 -0.10516 0)
(0.0840089 -0.11332 0)
(0.0818114 -0.121392 0)
(0.0796165 -0.129414 0)
(0.0774562 -0.137421 0)
(0.0753521 -0.145441 0)
(0.0733102 -0.15349 0)
(0.0713168 -0.161567 0)
(0.0693385 -0.169649 0)
(0.0673248 -0.177694 0)
(0.0652145 -0.185645 0)
(0.062944 -0.193437 0)
(0.0604548 -0.201005 0)
(0.0576992 -0.208289 0)
(0.0546432 -0.215237 0)
(0.0512666 -0.221808 0)
(0.0475617 -0.227974 0)
(0.0435308 -0.233717 0)
(0.0391836 -0.23903 0)
(0.0345344 -0.243915 0)
(0.0296005 -0.248381 0)
(0.0244003 -0.252443 0)
(0.0189522 -0.256121 0)
(0.0132743 -0.259437 0)
(0.00738396 -0.262416 0)
(0.00129777 -0.265084 0)
(-0.00496834 -0.267467 0)
(-0.0114011 -0.269591 0)
(-0.0179891 -0.271483 0)
(-0.0247211 -0.273165 0)
(-0.0315868 -0.274659 0)
(-0.038577 -0.275988 0)
(-0.045683 -0.277168 0)
(-0.0528968 -0.278218 0)
(-0.060211 -0.279151 0)
(-0.0676186 -0.279981 0)
(-0.0751134 -0.280719 0)
(-0.0826892 -0.281372 0)
(-0.0903407 -0.281949 0)
(-0.0980626 -0.282454 0)
(-0.10585 -0.282891 0)
(-0.113698 -0.28326 0)
(-0.121602 -0.283563 0)
(-0.129554 -0.283795 0)
(-0.137544 -0.283952 0)
(-0.145558 -0.284025 0)
(-0.15357 -0.284003 0)
(-0.161531 -0.283867 0)
(-0.169351 -0.283592 0)
(-0.176903 -0.283141 0)
(-0.184003 -0.282467 0)
(-0.19027 -0.281498 0)
(-0.194925 -0.280111 0)
(-0.196829 -0.278133 0)
(-0.195477 -0.275367 0)
(-0.191475 -0.271806 0)
(-0.185809 -0.26743 0)
(-0.179104 -0.262205 0)
(-0.1717 -0.256101 0)
(-0.163795 -0.249096 0)
(-0.15552 -0.24119 0)
(-0.146964 -0.232403 0)
(-0.138204 -0.222785 0)
(-0.129311 -0.212417 0)
(-0.120357 -0.201413 0)
(-0.111456 -0.189927 0)
(-0.10282 -0.178165 0)
(-0.0947654 -0.166386 0)
(-0.0876868 -0.154889 0)
(-0.0819834 -0.143985 0)
(-0.0779526 -0.133933 0)
(-0.0756864 -0.124867 0)
(-0.0750399 -0.116754 0)
(-0.0756996 -0.109405 0)
(-0.0772921 -0.102564 0)
(-0.0794649 -0.0959815 0)
(-0.0819285 -0.0894715 0)
(-0.0844713 -0.0829167 0)
(-0.0869529 -0.0762553 0)
(-0.0892873 -0.069462 0)
(-0.0914249 -0.0625329 0)
(-0.0933388 -0.0554744 0)
(-0.0950158 -0.0482973 0)
(-0.0964505 -0.0410125 0)
(-0.0976418 -0.0336319 0)
(-0.0985903 -0.0261759 0)
(-0.0992945 -0.0186822 0)
(-0.0997528 -0.0111973 0)
(-0.0999855 -0.00373774 0)
(0.0999869 -0.00467945 0)
(0.0997572 -0.013938 0)
(0.0992995 -0.0230878 0)
(0.0986023 -0.0321215 0)
(0.0976777 -0.0410174 0)
(0.096537 -0.0497516 0)
(0.0951904 -0.0583085 0)
(0.0936504 -0.066682 0)
(0.0919334 -0.0748737 0)
(0.0900601 -0.0828909 0)
(0.0880563 -0.0907463 0)
(0.0859525 -0.0984592 0)
(0.0837839 -0.106056 0)
(0.0815882 -0.113567 0)
(0.0794025 -0.12103 0)
(0.0772588 -0.12848 0)
(0.0751783 -0.135945 0)
(0.0731665 -0.143444 0)
(0.0712094 -0.150975 0)
(0.0692725 -0.158519 0)
(0.0673047 -0.166038 0)
(0.0652439 -0.173479 0)
(0.0630253 -0.180784 0)
(0.0605893 -0.18789 0)
(0.0578867 -0.194743 0)
(0.0548817 -0.201294 0)
(0.0515527 -0.207505 0)
(0.0478901 -0.213349 0)
(0.0438947 -0.21881 0)
(0.0395742 -0.223881 0)
(0.0349415 -0.228561 0)
(0.0300119 -0.232861 0)
(0.0248024 -0.236791 0)
(0.0193299 -0.240371 0)
(0.0136111 -0.24362 0)
(0.00766203 -0.246559 0)
(0.00149809 -0.249214 0)
(-0.00486579 -0.251606 0)
(-0.0114173 -0.25376 0)
(-0.018146 -0.255698 0)
(-0.0250416 -0.257441 0)
(-0.0320944 -0.259008 0)
(-0.0392958 -0.260418 0)
(-0.0466379 -0.261687 0)
(-0.0541131 -0.262829 0)
(-0.0617145 -0.263856 0)
(-0.0694355 -0.264778 0)
(-0.0772701 -0.265604 0)
(-0.0852123 -0.266339 0)
(-0.0932567 -0.266988 0)
(-0.101398 -0.267553 0)
(-0.10963 -0.268035 0)
(-0.117948 -0.26843 0)
(-0.126344 -0.268736 0)
(-0.134809 -0.268945 0)
(-0.143328 -0.269049 0)
(-0.151881 -0.269035 0)
(-0.160432 -0.268886 0)
(-0.168918 -0.268582 0)
(-0.177228 -0.268092 0)
(-0.185208 -0.267379 0)
(-0.192632 -0.266395 0)
(-0.199027 -0.265068 0)
(-0.203449 -0.263279 0)
(-0.204808 -0.260826 0)
(-0.202783 -0.2576 0)
(-0.198151 -0.25361 0)
(-0.191875 -0.248859 0)
(-0.18455 -0.243331 0)
(-0.176509 -0.237014 0)
(-0.167955 -0.229903 0)
(-0.159025 -0.222012 0)
(-0.149826 -0.213373 0)
(-0.140448 -0.204043 0)
(-0.130976 -0.194105 0)
(-0.1215 -0.183671 0)
(-0.112167 -0.17289 0)
(-0.103217 -0.161956 0)
(-0.0949921 -0.151105 0)
(-0.087889 -0.140605 0)
(-0.0822807 -0.130728 0)
(-0.0784117 -0.121684 0)
(-0.0763098 -0.113568 0)
(-0.0757794 -0.106318 0)
(-0.076486 -0.0997482 0)
(-0.0780593 -0.0936148 0)
(-0.0801628 -0.0876946 0)
(-0.0825279 -0.0818226 0)
(-0.0849614 -0.0758958 0)
(-0.0873364 -0.0698598 0)
(-0.0895752 -0.0636916 0)
(-0.0916324 -0.057387 0)
(-0.0934821 -0.0509514 0)
(-0.0951104 -0.0443941 0)
(-0.0965099 -0.0377248 0)
(-0.0976771 -0.030955 0)
(-0.0986099 -0.0241044 0)
(-0.0993042 -0.01721 0)
(-0.0997566 -0.0103178 0)
(-0.0999862 -0.00344518 0)
(0.0999864 -0.00436948 0)
(0.0997516 -0.0130156 0)
(0.0992841 -0.0215605 0)
(0.0985729 -0.0299963 0)
(0.0976307 -0.0383018 0)
(0.0964697 -0.0464538 0)
(0.0951011 -0.054437 0)
(0.0935387 -0.0622456 0)
(0.0918 -0.0698811 0)
(0.0899069 -0.0773507 0)
(0.0878864 -0.0846668 0)
(0.0857701 -0.0918476 0)
(0.0835941 -0.0989181 0)
(0.0813966 -0.105909 0)
(0.0792154 -0.112853 0)
(0.0770824 -0.119785 0)
(0.0750187 -0.126732 0)
(0.0730292 -0.13371 0)
(0.071099 -0.14072 0)
(0.0691928 -0.147744 0)
(0.0672583 -0.154747 0)
(0.0652325 -0.161683 0)
(0.0630494 -0.168496 0)
(0.0606483 -0.175132 0)
(0.0579787 -0.181539 0)
(0.0550039 -0.187674 0)
(0.0517007 -0.193501 0)
(0.0480585 -0.198995 0)
(0.0440765 -0.204142 0)
(0.0397611 -0.208935 0)
(0.0351239 -0.213374 0)
(0.0301789 -0.217466 0)
(0.0249417 -0.221223 0)
(0.0194281 -0.224661 0)
(0.0136534 -0.227796 0)
(0.00763279 -0.23065 0)
(0.00138056 -0.233243 0)
(-0.00508938 -0.235596 0)
(-0.0117656 -0.23773 0)
(-0.0186385 -0.239664 0)
(-0.0256982 -0.241417 0)
(-0.032936 -0.243006 0)
(-0.0403436 -0.244446 0)
(-0.0479133 -0.245751 0)
(-0.0556381 -0.246933 0)
(-0.0635112 -0.248001 0)
(-0.071526 -0.248964 0)
(-0.0796762 -0.249827 0)
(-0.0879556 -0.250593 0)
(-0.096358 -0.251265 0)
(-0.104877 -0.251843 0)
(-0.113505 -0.252323 0)
(-0.122235 -0.252702 0)
(-0.131057 -0.252974 0)
(-0.139958 -0.253128 0)
(-0.148919 -0.253153 0)
(-0.157911 -0.253035 0)
(-0.16689 -0.252756 0)
(-0.175776 -0.252292 0)
(-0.184441 -0.251611 0)
(-0.192713 -0.250678 0)
(-0.200322 -0.24945 0)
(-0.206697 -0.247856 0)
(-0.210746 -0.245786 0)
(-0.211457 -0.243033 0)
(-0.208739 -0.239529 0)
(-0.2035 -0.235302 0)
(-0.196663 -0.23037 0)
(-0.188788 -0.224736 0)
(-0.180198 -0.2184 0)
(-0.171096 -0.211369 0)
(-0.161628 -0.203667 0)
(-0.151909 -0.195334 0)
(-0.142041 -0.18643 0)
(-0.13212 -0.177039 0)
(-0.122253 -0.167269 0)
(-0.112612 -0.157261 0)
(-0.103463 -0.147196 0)
(-0.0951608 -0.137288 0)
(-0.0880962 -0.127777 0)
(-0.0826119 -0.118891 0)
(-0.0789025 -0.110795 0)
(-0.0769428 -0.103541 0)
(-0.0765022 -0.0970479 0)
(-0.0772366 -0.0911319 0)
(-0.0787833 -0.0855762 0)
(-0.0808218 -0.0801892 0)
(-0.0831001 -0.0748325 0)
(-0.0854396 -0.0694204 0)
(-0.0877231 -0.0639076 0)
(-0.0898786 -0.0582745 0)
(-0.0918634 -0.0525171 0)
(-0.0936524 -0.0466391 0)
(-0.0952312 -0.0406478 0)
(-0.0965915 -0.0345509 0)
(-0.0977288 -0.0283579 0)
(-0.0986393 -0.0220866 0)
(-0.0993182 -0.0157717 0)
(-0.0997612 -0.00945673 0)
(-0.0999863 -0.00315837 0)
(0.0999863 -0.00405413 0)
(0.0997487 -0.0120774 0)
(0.0992757 -0.0200071 0)
(0.098556 -0.0278355 0)
(0.0976029 -0.0355421 0)
(0.0964293 -0.0431043 0)
(0.095047 -0.0505076 0)
(0.0934705 -0.0577462 0)
(0.0917182 -0.0648216 0)
(0.0898127 -0.0717404 0)
(0.0877816 -0.0785144 0)
(0.0856572 -0.0851611 0)
(0.0834761 -0.0917039 0)
(0.0812769 -0.0981718 0)
(0.0790974 -0.104597 0)
(0.0769696 -0.111011 0)
(0.0749144 -0.11744 0)
(0.0729363 -0.123901 0)
(0.0710198 -0.130393 0)
(0.0691291 -0.136902 0)
(0.0672112 -0.143396 0)
(0.0652021 -0.149831 0)
(0.0630355 -0.156158 0)
(0.0606496 -0.162327 0)
(0.0579932 -0.168289 0)
(0.0550286 -0.174005 0)
(0.0517318 -0.179443 0)
(0.048091 -0.184581 0)
(0.0441043 -0.189403 0)
(0.0397771 -0.193905 0)
(0.0351197 -0.198085 0)
(0.030145 -0.20195 0)
(0.0248675 -0.205511 0)
(0.0193019 -0.208781 0)
(0.0134626 -0.211777 0)
(0.00736358 -0.214516 0)
(0.0010186 -0.217016 0)
(-0.0055595 -0.219296 0)
(-0.0123601 -0.221374 0)
(-0.0193741 -0.223269 0)
(-0.0265923 -0.224995 0)
(-0.0340062 -0.226567 0)
(-0.0416079 -0.227999 0)
(-0.0493901 -0.229302 0)
(-0.0573456 -0.230485 0)
(-0.0654673 -0.231556 0)
(-0.0737485 -0.232522 0)
(-0.0821822 -0.233385 0)
(-0.0907615 -0.234147 0)
(-0.099479 -0.234809 0)
(-0.108327 -0.235368 0)
(-0.117296 -0.235821 0)
(-0.126377 -0.23616 0)
(-0.135556 -0.236379 0)
(-0.144816 -0.236467 0)
(-0.154134 -0.23641 0)
(-0.163476 -0.236195 0)
(-0.172784 -0.235802 0)
(-0.181964 -0.235208 0)
(-0.190873 -0.234381 0)
(-0.199332 -0.233289 0)
(-0.207022 -0.23189 0)
(-0.21327 -0.230115 0)
(-0.21686 -0.227872 0)
(-0.21688 -0.224945 0)
(-0.213477 -0.221303 0)
(-0.207671 -0.21699 0)
(-0.200336 -0.212034 0)
(-0.191989 -0.206446 0)
(-0.182939 -0.200235 0)
(-0.173387 -0.193418 0)
(-0.163484 -0.186024 0)
(-0.153352 -0.178096 0)
(-0.143103 -0.169695 0)
(-0.132839 -0.160902 0)
(-0.122685 -0.151819 0)
(-0.112833 -0.142578 0)
(-0.103572 -0.133344 0)
(-0.0952646 -0.124315 0)
(-0.0882915 -0.1157 0)
(-0.0829659 -0.107696 0)
(-0.0794357 -0.100435 0)
(-0.0776288 -0.0939408 0)
(-0.077286 -0.0881224 0)
(-0.0780556 -0.0828051 0)
(-0.0795828 -0.077793 0)
(-0.0815615 -0.0729184 0)
(-0.0837558 -0.0680621 0)
(-0.0860005 -0.063151 0)
(-0.0881887 -0.0581462 0)
(-0.0902543 -0.053031 0)
(-0.092158 -0.0478015 0)
(-0.0938763 -0.0424608 0)
(-0.0953951 -0.0370148 0)
(-0.0967059 -0.0314699 0)
(-0.0978035 -0.0258343 0)
(-0.0986835 -0.0201241 0)
(-0.0993401 -0.0143718 0)
(-0.0997689 -0.00861815 0)
(-0.0999867 -0.00287885 0)
(0.0999861 -0.00373598 0)
(0.0997466 -0.0111306 0)
(0.0992695 -0.0184397 0)
(0.0985438 -0.0256559 0)
(0.0975828 -0.0327595 0)
(0.0963999 -0.0397295 0)
(0.0950073 -0.0465518 0)
(0.09342 -0.0532211 0)
(0.0916569 -0.0597386 0)
(0.0897411 -0.0661106 0)
(0.0877008 -0.0723482 0)
(0.0855688 -0.0784675 0)
(0.0833821 -0.0844907 0)
(0.0811797 -0.0904446 0)
(0.0789995 -0.0963592 0)
(0.0768735 -0.102264 0)
(0.0748225 -0.108184 0)
(0.0728505 -0.114134 0)
(0.0709416 -0.120114 0)
(0.0690591 -0.126112 0)
(0.0671494 -0.132097 0)
(0.0651478 -0.138032 0)
(0.0629871 -0.14387 0)
(0.0606051 -0.149566 0)
(0.05795 -0.155076 0)
(0.0549833 -0.160365 0)
(0.0516802 -0.165403 0)
(0.0480283 -0.170169 0)
(0.0440247 -0.174651 0)
(0.0396742 -0.178842 0)
(0.0349859 -0.182743 0)
(0.029972 -0.186359 0)
(0.024646 -0.189699 0)
(0.0190218 -0.192776 0)
(0.0131128 -0.195603 0)
(0.00693252 -0.198197 0)
(0.000493905 -0.200574 0)
(-0.00619093 -0.20275 0)
(-0.013112 -0.204741 0)
(-0.0202605 -0.206562 0)
(-0.0276277 -0.208228 0)
(-0.0352052 -0.20975 0)
(-0.0429855 -0.21114 0)
(-0.050961 -0.212408 0)
(-0.0591243 -0.21356 0)
(-0.0674683 -0.214603 0)
(-0.0759854 -0.215541 0)
(-0.084668 -0.216375 0)
(-0.093508 -0.217107 0)
(-0.102497 -0.217735 0)
(-0.111625 -0.218256 0)
(-0.120882 -0.218664 0)
(-0.130255 -0.218953 0)
(-0.139727 -0.219114 0)
(-0.149279 -0.219136 0)
(-0.158882 -0.219006 0)
(-0.168495 -0.218709 0)
(-0.178054 -0.218227 0)
(-0.187447 -0.217538 0)
(-0.196521 -0.216614 0)
(-0.205082 -0.215421 0)
(-0.212763 -0.213919 0)
(-0.218807 -0.212038 0)
(-0.221899 -0.209701 0)
(-0.221235 -0.2067 0)
(-0.217193 -0.203043 0)
(-0.210879 -0.198774 0)
(-0.203114 -0.193924 0)
(-0.194371 -0.18851 0)
(-0.184942 -0.182546 0)
(-0.175028 -0.176053 0)
(-0.16478 -0.169063 0)
(-0.154327 -0.161621 0)
(-0.143785 -0.153786 0)
(-0.133266 -0.145635 0)
(-0.122906 -0.137264 0)
(-0.112919 -0.128796 0)
(-0.103607 -0.120382 0)
(-0.0953375 -0.1122 0)
(-0.0884807 -0.104436 0)
(-0.0833191 -0.0972568 0)
(-0.0799588 -0.0907643 0)
(-0.0782892 -0.0849626 0)
(-0.0780298 -0.0797541 0)
(-0.0788262 -0.0749761 0)
(-0.0803325 -0.0704547 0)
(-0.0822559 -0.066045 0)
(-0.0843744 -0.0616456 0)
(-0.0865344 -0.0571948 0)
(-0.0886367 -0.05266 0)
(-0.0906204 -0.0480267 0)
(-0.0924491 -0.0432915 0)
(-0.0941007 -0.0384566 0)
(-0.0955617 -0.0335268 0)
(-0.0968236 -0.0285069 0)
(-0.0978812 -0.0234039 0)
(-0.0987296 -0.018232 0)
(-0.0993631 -0.0130209 0)
(-0.0997769 -0.00780845 0)
(-0.0999872 -0.00260879 0)
(0.0999861 -0.00341568 0)
(0.0997452 -0.0101772 0)
(0.0992654 -0.0168612 0)
(0.0985354 -0.0234608 0)
(0.0975689 -0.0299576 0)
(0.0963791 -0.0363318 0)
(0.0949789 -0.0425704 0)
(0.0933835 -0.0486682 0)
(0.091612 -0.0546265 0)
(0.0896881 -0.0604509 0)
(0.0876403 -0.0661516 0)
(0.0855017 -0.0717438 0)
(0.0833095 -0.0772477 0)
(0.081103 -0.0826883 0)
(0.0789203 -0.0880932 0)
(0.0767934 -0.0934899 0)
(0.0747428 -0.0989011 0)
(0.0727723 -0.104341 0)
(0.0708652 -0.10981 0)
(0.0689845 -0.115296 0)
(0.0670758 -0.120774 0)
(0.0650739 -0.126207 0)
(0.062911 -0.131555 0)
(0.0605243 -0.136775 0)
(0.0578615 -0.141829 0)
(0.0548837 -0.146684 0)
(0.0515655 -0.151314 0)
(0.047894 -0.155699 0)
(0.0438657 -0.159828 0)
(0.0394845 -0.163695 0)
(0.0347591 -0.167301 0)
(0.0297008 -0.170651 0)
(0.0243224 -0.173751 0)
(0.018637 -0.176614 0)
(0.0126577 -0.179252 0)
(0.00639708 -0.181678 0)
(-0.000132188 -0.183907 0)
(-0.00691864 -0.185954 0)
(-0.0139529 -0.187832 0)
(-0.0212261 -0.189554 0)
(-0.0287299 -0.191133 0)
(-0.0364561 -0.192579 0)
(-0.044397 -0.193902 0)
(-0.0525449 -0.195108 0)
(-0.0608921 -0.196205 0)
(-0.0694308 -0.197196 0)
(-0.0781529 -0.198084 0)
(-0.08705 -0.198871 0)
(-0.0961129 -0.199555 0)
(-0.105332 -0.200135 0)
(-0.114695 -0.200606 0)
(-0.124191 -0.200963 0)
(-0.133803 -0.201198 0)
(-0.143514 -0.201303 0)
(-0.153299 -0.201267 0)
(-0.163126 -0.201078 0)
(-0.172949 -0.200721 0)
(-0.182695 -0.200179 0)
(-0.192239 -0.199432 0)
(-0.201416 -0.198454 0)
(-0.210012 -0.197214 0)
(-0.217616 -0.195669 0)
(-0.223386 -0.193749 0)
(-0.225969 -0.191384 0)
(-0.224682 -0.188388 0)
(-0.220089 -0.184811 0)
(-0.213341 -0.180691 0)
(-0.205208 -0.176053 0)
(-0.196133 -0.170912 0)
(-0.186392 -0.165287 0)
(-0.176183 -0.1592 0)
(-0.165661 -0.152685 0)
(-0.154957 -0.145785 0)
(-0.144192 -0.138558 0)
(-0.133482 -0.131075 0)
(-0.122977 -0.123425 0)
(-0.112906 -0.115722 0)
(-0.103584 -0.108104 0)
(-0.0953813 -0.10073 0)
(-0.0886536 -0.0937644 0)
(-0.0836559 -0.0873485 0)
(-0.0804569 -0.0815617 0)
(-0.0789141 -0.0763937 0)
(-0.0787303 -0.0717463 0)
(-0.0795507 -0.0674701 0)
(-0.0810378 -0.063411 0)
(-0.0829111 -0.0594437 0)
(-0.0849607 -0.0554816 0)
(-0.087043 -0.0514724 0)
(-0.0890662 -0.0473883 0)
(-0.0909738 -0.0432169 0)
(-0.092732 -0.0389553 0)
(-0.0943202 -0.0346051 0)
(-0.0957256 -0.0301699 0)
(-0.0969402 -0.0256539 0)
(-0.0979585 -0.0210625 0)
(-0.0987759 -0.0164085 0)
(-0.0993862 -0.0117188 0)
(-0.0997849 -0.00702775 0)
(-0.0999876 -0.0023483 0)
(0.099986 -0.00309392 0)
(0.0997442 -0.00921923 0)
(0.0992623 -0.0152751 0)
(0.0985291 -0.021255 0)
(0.0975581 -0.027142 0)
(0.0963631 -0.0329179 0)
(0.0949567 -0.0385707 0)
(0.0933545 -0.0440956 0)
(0.0915759 -0.0494936 0)
(0.0896448 -0.0547699 0)
(0.08759 -0.059934 0)
(0.0854448 -0.0649995 0)
(0.0832469 -0.0699849 0)
(0.0810356 -0.0749132 0)
(0.0788492 -0.0798094 0)
(0.0767195 -0.0846987 0)
(0.074667 -0.0896019 0)
(0.072695 -0.0945317 0)
(0.0707865 -0.0994895 0)
(0.0689037 -0.104464 0)
(0.0669918 -0.109432 0)
(0.0649848 -0.11436 0)
(0.0628146 -0.119214 0)
(0.0604179 -0.123954 0)
(0.057742 -0.128546 0)
(0.0547477 -0.13296 0)
(0.0514092 -0.137173 0)
(0.0477131 -0.141167 0)
(0.0436555 -0.144932 0)
(0.0392398 -0.148463 0)
(0.0344741 -0.151761 0)
(0.0293693 -0.154828 0)
(0.0239376 -0.157672 0)
(0.0181916 -0.160303 0)
(0.0121437 -0.162732 0)
(0.0058062 -0.164971 0)
(-0.000808523 -0.167033 0)
(-0.0076894 -0.168929 0)
(-0.0148274 -0.170673 0)
(-0.022214 -0.172276 0)
(-0.0298407 -0.173746 0)
(-0.0376994 -0.175095 0)
(-0.0457822 -0.176329 0)
(-0.0540812 -0.177455 0)
(-0.0625883 -0.178477 0)
(-0.0712952 -0.179399 0)
(-0.0801931 -0.180222 0)
(-0.0892726 -0.180947 0)
(-0.0985234 -0.181573 0)
(-0.107934 -0.182095 0)
(-0.117493 -0.182512 0)
(-0.127185 -0.182815 0)
(-0.136993 -0.182999 0)
(-0.146896 -0.183055 0)
(-0.156866 -0.182972 0)
(-0.166869 -0.182739 0)
(-0.176852 -0.182343 0)
(-0.186734 -0.181769 0)
(-0.196384 -0.180996 0)
(-0.205621 -0.180002 0)
(-0.214209 -0.178758 0)
(-0.221685 -0.177223 0)
(-0.227114 -0.175331 0)
(-0.229187 -0.173008 0)
(-0.227364 -0.170099 0)
(-0.222331 -0.166684 0)
(-0.215227 -0.162792 0)
(-0.206788 -0.158442 0)
(-0.197434 -0.153648 0)
(-0.187436 -0.148429 0)
(-0.176989 -0.142809 0)
(-0.166248 -0.13682 0)
(-0.155348 -0.130504 0)
(-0.144411 -0.123915 0)
(-0.133558 -0.117119 0)
(-0.122952 -0.110198 0)
(-0.112834 -0.103254 0)
(-0.103529 -0.096414 0)
(-0.0954064 -0.0898189 0)
(-0.0888094 -0.0836132 0)
(-0.0839664 -0.077916 0)
(-0.0809139 -0.0727881 0)
(-0.0794827 -0.0682092 0)
(-0.0793639 -0.0640843 0)
(-0.0802036 -0.0602779 0)
(-0.0816723 -0.056655 0)
(-0.0835006 -0.0531078 0)
(-0.0854892 -0.0495626 0)
(-0.087503 -0.0459753 0)
(-0.0894561 -0.0423222 0)
(-0.091296 -0.0385931 0)
(-0.0929911 -0.034785 0)
(-0.0945221 -0.0308993 0)
(-0.0958771 -0.0269387 0)
(-0.0970483 -0.0229065 0)
(-0.0980304 -0.018807 0)
(-0.0988188 -0.0146514 0)
(-0.0994077 -0.0104637 0)
(-0.0997924 -0.00627515 0)
(-0.099988 -0.00209707 0)
(0.099986 -0.00277103 0)
(0.0997434 -0.00825768 0)
(0.0992599 -0.0136827 0)
(0.098524 -0.0190402 0)
(0.0975495 -0.0243148 0)
(0.09635 -0.0294899 0)
(0.0949384 -0.0345546 0)
(0.0933304 -0.0395046 0)
(0.0915456 -0.0443408 0)
(0.0896081 -0.0490677 0)
(0.0875468 -0.0536939 0)
(0.0853953 -0.0582317 0)
(0.0831915 -0.0626979 0)
(0.080975 -0.067113 0)
(0.0787839 -0.0714998 0)
(0.0766502 -0.0758808 0)
(0.0745941 -0.0802749 0)
(0.0726186 -0.0846935 0)
(0.0707062 -0.0891381 0)
(0.0688187 -0.0935984 0)
(0.0669005 -0.0980537 0)
(0.0648855 -0.102476 0)
(0.0627047 -0.106831 0)
(0.0602948 -0.111086 0)
(0.0576026 -0.115211 0)
(0.0545887 -0.119178 0)
(0.0512271 -0.122967 0)
(0.0475041 -0.126561 0)
(0.0434153 -0.129953 0)
(0.038964 -0.133138 0)
(0.0341577 -0.136114 0)
(0.0290069 -0.138887 0)
(0.0235235 -0.141462 0)
(0.0177196 -0.143847 0)
(0.0116073 -0.146052 0)
(0.00519836 -0.148088 0)
(-0.00149465 -0.149965 0)
(-0.00846105 -0.151695 0)
(-0.0156924 -0.153288 0)
(-0.0231799 -0.154753 0)
(-0.0309151 -0.156099 0)
(-0.03889 -0.157335 0)
(-0.0470962 -0.158465 0)
(-0.0555257 -0.159495 0)
(-0.0641699 -0.160429 0)
(-0.07302 -0.16127 0)
(-0.0820663 -0.162018 0)
(-0.0912988 -0.162672 0)
(-0.100706 -0.163232 0)
(-0.110276 -0.163694 0)
(-0.119995 -0.164054 0)
(-0.129846 -0.164306 0)
(-0.139812 -0.164443 0)
(-0.149867 -0.164457 0)
(-0.159984 -0.16434 0)
(-0.170123 -0.16408 0)
(-0.180227 -0.163665 0)
(-0.190208 -0.163082 0)
(-0.199926 -0.162311 0)
(-0.20919 -0.161333 0)
(-0.217741 -0.160122 0)
(-0.225069 -0.15864 0)
(-0.230139 -0.156836 0)
(-0.231739 -0.154625 0)
(-0.229451 -0.151886 0)
(-0.224055 -0.1487 0)
(-0.216659 -0.145096 0)
(-0.207966 -0.141089 0)
(-0.198383 -0.136694 0)
(-0.188176 -0.13193 0)
(-0.177537 -0.12682 0)
(-0.166623 -0.121394 0)
(-0.155569 -0.115691 0)
(-0.1445 -0.109761 0)
(-0.133542 -0.103662 0)
(-0.122865 -0.0974709 0)
(-0.112725 -0.0912795 0)
(-0.103453 -0.0851997 0)
(-0.0954162 -0.0793575 0)
(-0.0889451 -0.0738781 0)
(-0.0842446 -0.0688617 0)
(-0.0813232 -0.0643539 0)
(-0.0799899 -0.0603286 0)
(-0.079927 -0.0566966 0)
(-0.0807824 -0.0533369 0)
(-0.0822344 -0.0501319 0)
(-0.0840229 -0.0469896 0)
(-0.085958 -0.0438474 0)
(-0.0879118 -0.0406682 0)
(-0.0898034 -0.0374321 0)
(-0.0915837 -0.0341302 0)
(-0.093223 -0.0307599 0)
(-0.0947033 -0.0273223 0)
(-0.0960133 -0.0238195 0)
(-0.0971456 -0.0202538 0)
(-0.0980953 -0.0166289 0)