/*--------------------------------*- C++ -*----------------------------------*\
  =========                 |
  \\      /  F ield         | OpenFOAM: The Open Source CFD Toolbox
   \\    /   O peration     | Website:  https://openfoam.org
    \\  /    A nd           | Version:  8
     \\/     M anipulation  |
\*---------------------------------------------------------------------------*/
FoamFile
{
    version     2.0;
    format      ascii;
    class       volScalarField;
    location    "300/fluid";
    object      CH4;
}
// * * * * * * * * * * * * * * * * * * * * * * * * * * * * * * * * * * * * * //

dimensions      [0 0 0 0 0 0 0];

internalField   nonuniform List<scalar> 
4000
(
0.999997
0.999988
0.999972
0.999946
0.999902
0.999829
0.99971
0.999515
0.999202
0.998702
0.997917
0.996701
0.994854
0.992105
0.988115
0.982481
0.974767
0.964551
0.951483
0.935336
0.916036
0.893666
0.86844
0.840665
0.810708
0.778967
0.745844
0.711734
0.677005
0.642
0.607027
0.572356
0.538224
0.504827
0.472324
0.440845
0.410491
0.381337
0.353435
0.326817
0.301495
0.277468
0.254722
0.233235
0.212974
0.193903
0.175979
0.159158
0.143392
0.128634
0.114835
0.101948
0.0899254
0.0787234
0.0682993
0.0586132
0.0496286
0.0413131
0.0336388
0.0267439
0.0202831
0.0144083
0.00912615
0.00448947
0.00286363
0.00198112
0.00135084
0.000906126
0.000596687
0.000384843
0.00024256
0.000149174
8.96507e-05
5.32576e-05
3.26391e-05
2.28225e-05
1.72839e-05
1.27495e-05
8.91944e-06
5.84967e-06
3.56568e-06
2.01443e-06
1.0596e-06
5.23989e-07
2.48542e-07
1.14416e-07
5.14531e-08
2.27099e-08
9.87241e-09
4.23849e-09
1.801e-09
7.5871e-10
3.17296e-10
1.31821e-10
5.43811e-11
2.22112e-11
8.89786e-12
3.40265e-12
1.13695e-12
1.99359e-13
0.999997
0.999988
0.999972
0.999945
0.9999
0.999826
0.999704
0.999505
0.999184
0.998672
0.99787
0.99663
0.994751
0.991965
0.987935
0.982265
0.974527
0.964308
0.951263
0.935164
0.915934
0.893642
0.868489
0.840774
0.810864
0.779151
0.746039
0.711919
0.677165
0.642119
0.60709
0.572354
0.538144
0.504664
0.472078
0.440518
0.410088
0.380865
0.352901
0.326228
0.300859
0.276792
0.254014
0.232502
0.212222
0.193137
0.175205
0.158381
0.142616
0.127862
0.11407
0.101193
0.0891831
0.0779957
0.0675878
0.0579195
0.0489542
0.0406594
0.0330074
0.0261486
0.0197097
0.0138554
0.00858213
0.00394682
0.00271742
0.0018731
0.00127339
0.000851746
0.000559169
0.000359402
0.000225642
0.000138197
8.27722e-05
4.91914e-05
3.05402e-05
2.18721e-05
1.65052e-05
1.20139e-05
8.27232e-06
5.33287e-06
3.19827e-06
1.78489e-06
9.33456e-07
4.62198e-07
2.20537e-07
1.02373e-07
4.64675e-08
2.06989e-08
9.07405e-09
3.92396e-09
1.67725e-09
7.09894e-10
2.97946e-10
1.24115e-10
5.13066e-11
2.09889e-11
8.41927e-12
3.22302e-12
1.07748e-12
1.89085e-13
0.999997
0.999987
0.999971
0.999943
0.999898
0.999821
0.999696
0.999492
0.999164
0.998641
0.997822
0.996559
0.99465
0.991827
0.987753
0.982037
0.974254
0.963999
0.950933
0.934834
0.915624
0.893372
0.868273
0.840617
0.810757
0.779078
0.745978
0.711848
0.677058
0.641957
0.606856
0.572034
0.537733
0.504157
0.471473
0.439815
0.40929
0.379978
0.351932
0.325184
0.29975
0.275628
0.252803
0.231253
0.210944
0.191839
0.173895
0.157064
0.1413
0.126553
0.112773
0.0999127
0.0879239
0.0767615
0.0663824
0.0567466
0.0478173
0.0395619
0.0319971
0.0251821
0.0188069
0.0130464
0.0079044
0.00346096
0.00243151
0.00168328
0.00114649
0.000766853
0.000502671
0.000322208
0.000201573
0.000123017
7.3579e-05
4.40288e-05
2.81388e-05
2.07183e-05
1.55565e-05
1.11928e-05
7.60989e-06
4.84642e-06
2.87811e-06
1.5967e-06
8.33598e-07
4.13467e-07
1.97927e-07
9.2253e-08
4.20582e-08
1.88167e-08
8.28259e-09
3.59466e-09
1.54119e-09
6.53888e-10
2.74937e-10
1.14674e-10
4.74404e-11
1.94156e-11
7.78969e-12
2.98203e-12
9.9656e-13
1.74943e-13
0.999997
0.999987
0.99997
0.999942
0.999896
0.999818
0.999691
0.999484
0.99915
0.99862
0.99779
0.996513
0.994585
0.991737
0.987634
0.981883
0.974066
0.963777
0.95068
0.934557
0.915329
0.893065
0.867957
0.840293
0.810421
0.778725
0.745597
0.711428
0.676588
0.641423
0.606249
0.571344
0.536953
0.503282
0.470502
0.438749
0.40813
0.378729
0.350601
0.323779
0.298279
0.2741
0.251228
0.22964
0.209302
0.190178
0.172222
0.155389
0.139629
0.124893
0.111131
0.0982941
0.0863339
0.0752051
0.0648645
0.0552725
0.046394
0.0381992
0.0307782
0.0240495
0.0177597
0.0121157
0.00715192
0.00316834
0.00221833
0.00152974
0.00103738
0.000690536
0.000450272
0.000287012
0.000178555
0.000108477
6.48574e-05
3.92936e-05
2.61576e-05
1.96156e-05
1.46007e-05
1.03702e-05
6.95076e-06
4.36341e-06
2.55826e-06
1.4056e-06
7.29576e-07
3.61059e-07
1.72959e-07
8.07861e-08
3.69394e-08
1.65832e-08
7.32619e-09
3.19134e-09
1.37316e-09
5.84536e-10
2.46511e-10
1.03084e-10
4.27384e-11
1.75221e-11
7.03946e-12
2.69713e-12
9.01871e-13
1.58422e-13
0.999997
0.999987
0.99997
0.999942
0.999894
0.999816
0.999687
0.999476
0.999138
0.998602
0.997762
0.99647
0.994522
0.991649
0.987513
0.981725
0.973864
0.963528
0.950385
0.934218
0.914949
0.892646
0.867502
0.839801
0.809889
0.778149
0.74497
0.710743
0.675836
0.640598
0.605343
0.570352
0.535871
0.502108
0.469235
0.43739
0.406684
0.377201
0.348997
0.322107
0.296547
0.272316
0.249403
0.227783
0.207423
0.188284
0.170324
0.153494
0.137745
0.123028
0.109291
0.0964847
0.0845609
0.073473
0.063177
0.0536319
0.0448002
0.0366482
0.0292873
0.0226208
0.0163922
0.0107966
0.00584804
0.00303205
0.00209599
0.00142882
0.000958743
0.000631938
0.00040826
0.000257971
0.000159224
9.61596e-05
5.74731e-05
3.53898e-05
2.46765e-05
1.85984e-05
1.3688e-05
9.59462e-06
6.34348e-06
3.93047e-06
2.27934e-06
1.24276e-06
6.42338e-07
3.17457e-07
1.52186e-07
7.12013e-08
3.2625e-08
1.46792e-08
6.49937e-09
2.83709e-09
1.22306e-09
5.21526e-10
2.20263e-10
9.22231e-11
3.82752e-11
1.57048e-11
6.31275e-12
2.41971e-12
8.09261e-13
1.42215e-13
0.999997
0.999987
0.99997
0.999941
0.999893
0.999813
0.999683
0.99947
0.999129
0.998587
0.997739
0.996435
0.994471
0.991575
0.98741
0.981585
0.97368
0.963293
0.950095
0.933867
0.914537
0.892172
0.866965
0.8392
0.809223
0.777414
0.744163
0.70986
0.674874
0.639552
0.60421
0.569131
0.534561
0.500708
0.467748
0.435819
0.405034
0.375477
0.347206
0.320257
0.294646
0.270374
0.247428
0.225785
0.205411
0.186267
0.16831
0.151491
0.135762
0.121071
0.107367
0.0946003
0.0827221
0.0716856
0.0614467
0.0519644
0.0432017
0.0351264
0.0278857
0.0212826
0.0151069
0.00955857
0.00468201
0.00289574
0.00197322
0.00132931
0.000882934
0.000576693
0.000369464
0.000231661
0.000142024
8.53998e-05
5.11531e-05
3.21359e-05
2.31931e-05
1.75119e-05
1.27764e-05
8.8582e-06
5.78649e-06
3.54286e-06
2.03339e-06
1.10006e-06
5.65733e-07
2.78863e-07
1.3363e-07
6.25548e-08
2.86969e-08
1.29321e-08
5.73607e-09
2.50862e-09
1.0835e-09
4.62853e-10
1.9581e-10
8.21064e-11
3.41198e-11
1.40138e-11
5.63735e-12
2.16193e-12
7.23233e-13
1.27157e-13
0.999997
0.999987
0.999969
0.99994
0.999892
0.999812
0.99968
0.999465
0.99912
0.998573
0.997717
0.996403
0.994423
0.991505
0.98731
0.981447
0.973495
0.963053
0.949792
0.933496
0.914093
0.891652
0.866367
0.838523
0.808464
0.776572
0.743236
0.708846
0.673771
0.63836
0.602928
0.56776
0.533102
0.499165
0.466123
0.434118
0.403261
0.37364
0.345312
0.318314
0.292663
0.268359
0.245391
0.223733
0.203354
0.184213
0.166268
0.149468
0.133766
0.119108
0.105444
0.0927241
0.0808983
0.0699202
0.0597459
0.050335
0.0416514
0.0336713
0.0265523
0.019873
0.0138212
0.00839568
0.00368057
0.00255832
0.00175505
0.00118646
0.000788984
0.000515077
0.000329442
0.000206093
0.0001261
7.58714e-05
4.58629e-05
2.96946e-05
2.20109e-05
1.65786e-05
1.19927e-05
8.22895e-06
5.31486e-06
3.21831e-06
1.8297e-06
9.82881e-07
5.03117e-07
2.47414e-07
1.18464e-07
5.54527e-08
2.54496e-08
1.1477e-08
5.09536e-09
2.23072e-09
9.64516e-10
4.12471e-10
1.74677e-10
7.33154e-11
3.0492e-11
1.25322e-11
5.04393e-12
1.93492e-12
6.47355e-13
1.13864e-13
0.999997
0.999987
0.999969
0.99994
0.999891
0.99981
0.999677
0.999461
0.999113
0.998561
0.997698
0.996374
0.994378
0.991439
0.987216
0.981314
0.973314
0.962814
0.949486
0.933115
0.913631
0.891106
0.865732
0.837797
0.807647
0.775662
0.742234
0.70775
0.672583
0.63708
0.601559
0.566304
0.531562
0.497545
0.464429
0.432355
0.401436
0.37176
0.343385
0.316348
0.290667
0.266342
0.24336
0.221697
0.201321
0.182192
0.164265
0.147491
0.131821
0.117202
0.103582
0.090912
0.0791413
0.0682234
0.0581147
0.0487752
0.0401704
0.0323479
0.0253287
0.0187406
0.0128316
0.00762192
0.00326376
0.00228362
0.00157353
0.00106661
0.000710184
0.000463688
0.00029636
0.0001852
0.000113278
6.83702e-05
4.18975e-05
2.81178e-05
2.11787e-05
1.58627e-05
1.1369e-05
7.71769e-06
4.92808e-06
2.95155e-06
1.66234e-06
8.86547e-07
4.51493e-07
2.21448e-07
1.05874e-07
4.95232e-08
2.27242e-08
1.025e-08
4.55282e-09
1.99454e-09
8.63086e-10
3.69413e-10
1.56579e-10
6.57736e-11
2.73756e-11
1.12582e-11
4.53323e-12
1.73946e-12
5.82001e-13
1.02412e-13
0.999997
0.999986
0.999969
0.999939
0.99989
0.999808
0.999674
0.999456
0.999106
0.998549
0.99768
0.996346
0.994336
0.991376
0.987124
0.981184
0.973136
0.962577
0.949179
0.932731
0.913162
0.890547
0.86508
0.83705
0.806804
0.774722
0.741198
0.706619
0.671359
0.635765
0.600157
0.564819
0.529999
0.495909
0.462726
0.430591
0.399619
0.369897
0.341485
0.314418
0.288715
0.264377
0.24139
0.21973
0.199364
0.180252
0.162349
0.145606
0.129972
0.115395
0.101822
0.0892029
0.077487
0.066627
0.0565789
0.0473022
0.0387612
0.0310415
0.0241071
0.0176089
0.0117787
0.00664255
0.00310505
0.00215716
0.00147826
0.000997489
0.000661515
0.000430337
0.00027412
0.000170816
0.000104334
6.31481e-05
3.92463e-05
2.73263e-05
2.06711e-05
1.53462e-05
1.08834e-05
7.30498e-06
4.61126e-06
2.73238e-06
1.52509e-06
8.07731e-07
4.09305e-07
2.0021e-07
9.55553e-08
4.46509e-08
2.04777e-08
9.2353e-09
4.10261e-09
1.79791e-09
7.78377e-10
3.33351e-10
1.41382e-10
5.94273e-11
2.47485e-11
1.01828e-11
4.10168e-12
1.57419e-12
5.26723e-13
9.27194e-14
0.999997
0.999986
0.999969
0.999939
0.999889
0.999807
0.999672
0.999452
0.999099
0.998539
0.997664
0.996319
0.994295
0.991315
0.987035
0.981058
0.972962
0.962345
0.948878
0.932351
0.912696
0.88999
0.864429
0.836303
0.805959
0.773781
0.740161
0.705489
0.670138
0.634457
0.598767
0.56335
0.528458
0.494303
0.46106
0.428873
0.397857
0.368098
0.339656
0.312568
0.286851
0.262507
0.239521
0.21787
0.19752
0.178431
0.160556
0.143847
0.128252
0.113719
0.100194
0.0876257
0.0759639
0.0651607
0.055171
0.045954
0.0374728
0.0298145
0.0229441
0.016505
0.01073
0.00562182
0.00303749
0.00209424
0.00142562
0.00095633
0.000630891
0.000408473
0.000259095
0.000160888
9.8075e-05
5.94692e-05
3.74161e-05
2.6688e-05
2.02151e-05
1.48938e-05
1.04647e-05
6.95244e-06
4.34312e-06
2.54865e-06
1.41098e-06
7.42595e-07
3.74556e-07
1.82734e-07
8.70616e-08
4.0636e-08
1.86239e-08
8.39652e-09
3.72982e-09
1.63481e-09
7.07993e-10
3.03339e-10
1.28718e-10
5.41318e-11
2.25542e-11
9.2838e-12
3.74076e-12
1.43593e-12
4.80476e-13
8.46064e-14
0.999997
0.999986
0.999968
0.999938
0.999888
0.999806
0.99967
0.999449
0.999093
0.998529
0.997648
0.996295
0.994257
0.991258
0.986951
0.980938
0.972795
0.962121
0.948586
0.931982
0.912244
0.889448
0.863795
0.835573
0.805135
0.772863
0.739151
0.704389
0.668953
0.633191
0.597423
0.561936
0.526979
0.492765
0.459471
0.427239
0.396186
0.366397
0.337933
0.31083
0.285106
0.260762
0.237784
0.216146
0.195816
0.176752
0.158909
0.142236
0.126681
0.112192
0.098715
0.0861976
0.0745891
0.0638409
0.0539074
0.0447502
0.0363387
0.0287625
0.021956
0.0155658
0.00983364
0.00481397
0.00294246
0.00202184
0.00137171
0.000917168
0.00060318
0.000389398
0.000246354
0.000152673
9.30244e-05
5.66032e-05
3.60907e-05
2.62161e-05
1.98247e-05
1.4502e-05
1.01038e-05
6.65115e-06
4.11637e-06
2.39497e-06
1.31644e-06
6.89e-07
3.46089e-07
1.68445e-07
8.01217e-08
3.73547e-08
1.71075e-08
7.70961e-09
3.42408e-09
1.50083e-09
6.50086e-10
2.78609e-10
1.18266e-10
4.97559e-11
2.0739e-11
8.53946e-12
3.44172e-12
1.32133e-12
4.42135e-13
7.78821e-14
0.999997
0.999986
0.999968
0.999938
0.999888
0.999804
0.999668
0.999445
0.999087
0.99852
0.997633
0.996271
0.994221
0.991204
0.986871
0.980824
0.972637
0.961908
0.948309
0.931632
0.911813
0.888932
0.86319
0.834879
0.804351
0.77199
0.738191
0.703347
0.66783
0.631994
0.596156
0.560606
0.525591
0.491326
0.457987
0.425718
0.394634
0.364822
0.336342
0.309231
0.283505
0.259165
0.236197
0.214577
0.194269
0.175233
0.157421
0.140785
0.125271
0.110825
0.0973957
0.0849286
0.0733733
0.0626814
0.0528081
0.0437181
0.0353599
0.0278508
0.0210813
0.0147295
0.00903249
0.0040746
0.00278697
0.00191605
0.00130043
0.000869661
0.000571943
0.000369205
0.00023358
0.000144829
8.8428e-05
5.41485e-05
3.50793e-05
2.58442e-05
1.94924e-05
1.41703e-05
9.80015e-06
6.39935e-06
3.92841e-06
2.26865e-06
1.23929e-06
6.45485e-07
3.23047e-07
1.56892e-07
7.45107e-08
3.47e-08
1.58794e-08
7.1525e-09
3.17573e-09
1.39182e-09
6.02891e-10
2.58421e-10
1.09721e-10
4.61733e-11
1.92509e-11
7.92867e-12
3.19615e-12
1.22718e-12
4.10622e-13
7.23589e-14
0.999997
0.999986
0.999968
0.999938
0.999887
0.999803
0.999666
0.999442
0.999082
0.998511
0.997619
0.99625
0.994188
0.991154
0.986798
0.980719
0.972491
0.961711
0.948051
0.931306
0.911412
0.888452
0.862628
0.834233
0.803622
0.771179
0.737301
0.70238
0.666792
0.630888
0.594989
0.559382
0.524317
0.490008
0.456631
0.424331
0.393223
0.363394
0.334903
0.307787
0.282062
0.25773
0.234776
0.213173
0.192889
0.17388
0.156101
0.1395
0.124025
0.109621
0.0962366
0.083817
0.0723117
0.061672
0.0518518
0.0428002
0.0344867
0.0271146
0.0203887
0.0141057
0.00850012
0.00367258
0.00257356
0.00178043
0.00121438
0.000815368
0.000538009
0.000348283
0.000220929
0.000137398
8.42772e-05
5.20737e-05
3.43418e-05
2.55876e-05
1.9248e-05
1.39165e-05
9.5631e-06
6.20081e-06
3.77961e-06
2.16861e-06
1.17823e-06
6.11064e-07
3.04812e-07
1.47738e-07
7.00573e-08
3.25887e-08
1.49004e-08
6.70735e-09
2.97682e-09
1.30431e-09
5.64917e-10
2.42141e-10
1.02817e-10
4.32732e-11
1.80444e-11
7.43278e-12
2.99656e-12
1.1506e-12
3.8498e-13
6.78635e-14
0.999997
0.999986
0.999968
0.999937
0.999886
0.999802
0.999664
0.999439
0.999077
0.998504
0.997607
0.996231
0.994159
0.991109
0.986731
0.980623
0.972358
0.961532
0.947817
0.93101
0.911048
0.888016
0.862117
0.833648
0.802961
0.770445
0.736496
0.701507
0.665855
0.629892
0.593938
0.558282
0.523174
0.488828
0.45542
0.423095
0.391968
0.362125
0.333627
0.30651
0.28079
0.256466
0.233526
0.211942
0.191681
0.172699
0.154949
0.138382
0.122943
0.108578
0.0952345
0.0828581
0.0713978
0.0608051
0.0510347
0.0420492
0.0338431
0.0265697
0.019738
0.0135782
0.00809916
0.00342109
0.00240652
0.00167107
0.00114384
0.000770582
0.000510067
0.000331206
0.00021076
0.000131566
8.1148e-05
5.06517e-05
3.40469e-05
2.55423e-05
1.91548e-05
1.37803e-05
9.41168e-06
6.06246e-06
3.67156e-06
2.09433e-06
1.13229e-06
5.84929e-07
2.90866e-07
1.40698e-07
6.66141e-08
3.09483e-08
1.41363e-08
6.35851e-09
2.82035e-09
1.23523e-09
5.34844e-10
2.29211e-10
9.73181e-11
4.09579e-11
1.70792e-11
7.03535e-12
2.83637e-12
1.08907e-12
3.64368e-13
6.42464e-14
0.999997
0.999986
0.999968
0.999937
0.999886
0.999801
0.999663
0.999437
0.999073
0.998497
0.997596
0.996214
0.994132
0.991069
0.986673
0.980539
0.972241
0.961373
0.947611
0.930748
0.910727
0.887631
0.861667
0.833131
0.802379
0.769799
0.735788
0.70074
0.665033
0.629018
0.593019
0.557321
0.522177
0.487799
0.454366
0.422021
0.390879
0.361027
0.332525
0.305408
0.279693
0.25538
0.232453
0.210887
0.190647
0.17169
0.153968
0.13743
0.122024
0.107694
0.094386
0.0820476
0.070627
0.0600756
0.0503482
0.0414038
0.0332801
0.0260509
0.0192599
0.0131629
0.00776584
0.0032685
0.0023025
0.00160165
0.00109851
0.000741653
0.000492076
0.000320349
0.000204455
0.000128106
7.94346e-05
5.00098e-05
3.40898e-05
2.56923e-05
1.92066e-05
1.37555e-05
9.34723e-06
5.98585e-06
3.60308e-06
2.04407e-06
1.10008e-06
5.66173e-07
2.80686e-07
1.35494e-07
6.40422e-08
2.97122e-08
1.35562e-08
6.0919e-09
2.70007e-09
1.18186e-09
5.11502e-10
2.19135e-10
9.30177e-11
3.91416e-11
1.63199e-11
6.72199e-12
2.70983e-12
1.04041e-12
3.48051e-13
6.13809e-14
0.999997
0.999986
0.999968
0.999937
0.999886
0.999801
0.999661
0.999435
0.99907
0.998491
0.997587
0.996199
0.99411
0.991035
0.986623
0.980467
0.972141
0.961239
0.947435
0.930526
0.910453
0.887303
0.861284
0.832692
0.801884
0.769249
0.735186
0.700089
0.664335
0.628278
0.59224
0.556508
0.521334
0.486932
0.453478
0.421117
0.389964
0.360105
0.3316
0.304486
0.278777
0.254473
0.231559
0.210009
0.189788
0.170852
0.153154
0.136643
0.121264
0.106963
0.0936862
0.0813797
0.0699922
0.0594752
0.0497837
0.0408744
0.0327976
0.0255995
0.0188353
0.0127628
0.0073843
0.00318733
0.00224744
0.00156532
0.00107527
0.000727299
0.000483568
0.000315564
0.000201958
0.000126969
7.90985e-05
5.01637e-05
3.45883e-05
2.61093e-05
1.94425e-05
1.38562e-05
9.36449e-06
5.96433e-06
3.57123e-06
2.01561e-06
1.07994e-06
5.53787e-07
2.73717e-07
1.31845e-07
6.22054e-08
2.88163e-08
1.31308e-08
5.89442e-09
2.61024e-09
1.14171e-09
4.9384e-10
2.11471e-10
8.97321e-11
3.77484e-11
1.57356e-11
6.48017e-12
2.61197e-12
1.00271e-12
3.35396e-13
5.91577e-14
0.999997
0.999986
0.999967
0.999937
0.999885
0.9998
0.99966
0.999433
0.999067
0.998487
0.99758
0.996188
0.994092
0.991007
0.986582
0.980409
0.972059
0.961129
0.947292
0.930345
0.910231
0.887037
0.860972
0.832334
0.801482
0.768803
0.734698
0.69956
0.66377
0.627679
0.59161
0.555851
0.520654
0.486232
0.452762
0.420389
0.389228
0.359364
0.330859
0.303746
0.278042
0.253747
0.230845
0.209309
0.189103
0.170186
0.152507
0.136017
0.120661
0.106384
0.0931316
0.0808502
0.0694884
0.0589975
0.0493315
0.0404483
0.0323877
0.0252086
0.0184582
0.0123908
0.00700496
0.00314839
0.00222339
0.00155115
0.00106747
0.000723452
0.000482056
0.000315343
0.000202388
0.000127684
7.99111e-05
5.10105e-05
3.54831e-05
2.67657e-05
1.98426e-05
1.40699e-05
9.45768e-06
5.99022e-06
3.56782e-06
2.00455e-06
1.06961e-06
5.46548e-07
2.69343e-07
1.29456e-07
6.09658e-08
2.81981e-08
1.28321e-08
5.75389e-09
2.54561e-09
1.11257e-09
4.80923e-10
2.0583e-10
8.7301e-11
3.67129e-11
1.52997e-11
6.2992e-12
2.53855e-12
9.74371e-13
3.25874e-13
5.74845e-14
0.999997
0.999986
0.999967
0.999936
0.999885
0.9998
0.99966
0.999432
0.999065
0.998483
0.997574
0.996179
0.994078
0.990987
0.986551
0.980365
0.971998
0.961046
0.947183
0.930207
0.910062
0.886835
0.860736
0.832064
0.801177
0.768465
0.734327
0.69916
0.663342
0.627225
0.591133
0.555354
0.52014
0.485703
0.452222
0.419841
0.388673
0.358807
0.330301
0.30319
0.277491
0.253203
0.23031
0.208784
0.188592
0.169688
0.152025
0.135552
0.120213
0.105955
0.0927221
0.0804612
0.0691199
0.058648
0.0489999
0.040134
0.0320816
0.0249182
0.0181782
0.0121167
0.00672904
0.00313372
0.00221726
0.00155006
0.00106907
0.00072626
0.000485173
0.000318276
0.000204914
0.000129747
8.15577e-05
5.23425e-05
3.66242e-05
2.75651e-05
2.03404e-05
1.43518e-05
9.59838e-06
6.04859e-06
3.5851e-06
2.00534e-06
1.06613e-06
5.43061e-07
2.66904e-07
1.28027e-07
6.01911e-08
2.77996e-08
1.26352e-08
5.65966e-09
2.50169e-09
1.09255e-09
4.71969e-10
2.01891e-10
8.55933e-11
3.59819e-11
1.49907e-11
6.1705e-12
2.4862e-12
9.54133e-13
3.19065e-13
5.6288e-14
0.999997
0.999986
0.999967
0.999936
0.999885
0.999799
0.999659
0.999431
0.999064
0.998481
0.997571
0.996173
0.994069
0.990973
0.986531
0.980335
0.971957
0.960991
0.947111
0.930116
0.909949
0.8867
0.860577
0.831882
0.800972
0.768238
0.734079
0.698892
0.663054
0.626921
0.590813
0.555021
0.519795
0.48535
0.451861
0.419474
0.388303
0.358435
0.329929
0.30282
0.277125
0.252841
0.229954
0.208436
0.188252
0.169359
0.151707
0.135245
0.119918
0.105673
0.0924525
0.0802037
0.068874
0.0584145
0.048779
0.0399253
0.0318803
0.0247281
0.0179974
0.0119419
0.0065566
0.00312589
0.00221784
0.00155467
0.00107514
0.000732379
0.000490638
0.000322815
0.000208497
0.000132476
8.35936e-05
5.38598e-05
3.77857e-05
2.83507e-05
2.0828e-05
1.46315e-05
9.74356e-06
6.11465e-06
3.61017e-06
2.01226e-06
1.0665e-06
5.41867e-07
2.65746e-07
1.27292e-07
5.97728e-08
2.75773e-08
1.25225e-08
5.60456e-09
2.47552e-09
1.08042e-09
4.66462e-10
1.99438e-10
8.45194e-11
3.55189e-11
1.47938e-11
6.08819e-12
2.45263e-12
9.41122e-13
3.14682e-13
5.55185e-14
0.999997
0.999986
0.999967
0.999936
0.999885
0.999799
0.999659
0.99943
0.999063
0.99848
0.997569
0.99617
0.994065
0.990966
0.986521
0.980321
0.971937
0.960964
0.947076
0.930071
0.909895
0.886634
0.8605
0.831794
0.800872
0.768127
0.733957
0.69876
0.662913
0.626771
0.590656
0.554857
0.519625
0.485175
0.451683
0.419293
0.38812
0.358251
0.329744
0.302636
0.276943
0.252661
0.229777
0.208264
0.188084
0.169195
0.151548
0.135092
0.119772
0.105532
0.0923184
0.0800764
0.0687539
0.0583014
0.0486726
0.0398255
0.0317854
0.0246389
0.0179123
0.0118591
0.00647286
0.00312174
0.00222092
0.00156063
0.00108173
0.000738487
0.000495817
0.000326957
0.000211673
0.000134832
8.5296e-05
5.50643e-05
3.86108e-05
2.88786e-05
2.11458e-05
1.48108e-05
9.83629e-06
6.15759e-06
3.62739e-06
2.01785e-06
1.06763e-06
5.4165e-07
2.65319e-07
1.2699e-07
5.95925e-08
2.74789e-08
1.24719e-08
5.57958e-09
2.46358e-09
1.07486e-09
4.63926e-10
1.983e-10
8.40153e-11
3.52996e-11
1.47e-11
6.04872e-12
2.43646e-12
9.34834e-13
3.12558e-13
5.51463e-14
0.999997
0.999986
0.999967
0.999936
0.999885
0.999799
0.999659
0.99943
0.999063
0.99848
0.997569
0.99617
0.994064
0.990966
0.986521
0.980321
0.971937
0.960964
0.947075
0.930071
0.909894
0.886633
0.860499
0.831792
0.800871
0.768125
0.733955
0.698758
0.662911
0.626769
0.590654
0.554855
0.519623
0.485173
0.451681
0.41929
0.388118
0.358249
0.329742
0.302635
0.276941
0.25266
0.229776
0.208262
0.188083
0.169194
0.151547
0.135091
0.11977
0.105531
0.0923174
0.0800754
0.068753
0.0583006
0.0486719
0.0398249
0.0317848
0.0246383
0.0179118
0.0118587
0.00647246
0.00312171
0.00222088
0.00156059
0.00108169
0.000738463
0.0004958
0.000326947
0.000211667
0.000134829
8.52944e-05
5.50637e-05
3.86111e-05
2.88789e-05
2.1146e-05
1.48109e-05
9.83628e-06
6.15754e-06
3.62734e-06
2.01782e-06
1.0676e-06
5.41637e-07
2.65312e-07
1.26986e-07
5.95909e-08
2.74782e-08
1.24715e-08
5.57943e-09
2.46352e-09
1.07483e-09
4.63913e-10
1.98295e-10
8.40131e-11
3.52987e-11
1.46996e-11
6.04854e-12
2.43638e-12
9.34803e-13
3.12546e-13
5.51463e-14
0.999997
0.999986
0.999967
0.999936
0.999885
0.999799
0.999659
0.999431
0.999063
0.998481
0.99757
0.996173
0.994069
0.990972
0.98653
0.980335
0.971956
0.960989
0.947109
0.930113
0.909946
0.886696
0.860573
0.831878
0.800967
0.768232
0.734074
0.698886
0.663048
0.626915
0.590807
0.555015
0.519789
0.485343
0.451855
0.419468
0.388297
0.358429
0.329923
0.302815
0.277119
0.252836
0.229949
0.208432
0.188248
0.169354
0.151703
0.135241
0.119915
0.105669
0.0924494
0.0802007
0.0688713
0.058412
0.0487766
0.0399231
0.0318783
0.0247263
0.0179957
0.0119404
0.00655536
0.00312586
0.00221776
0.00155458
0.00107506
0.000732314
0.000490592
0.000322785
0.000208479
0.000132466
8.35881e-05
5.38575e-05
3.77861e-05
2.83514e-05
2.08284e-05
1.46316e-05
9.74347e-06
6.1145e-06
3.61002e-06
2.01215e-06
1.06643e-06
5.41823e-07
2.65723e-07
1.2728e-07
5.97671e-08
2.75746e-08
1.25212e-08
5.60398e-09
2.47527e-09
1.08031e-09
4.66413e-10
1.99417e-10
8.45101e-11
3.55149e-11
1.47921e-11
6.08746e-12
2.45233e-12
9.41001e-13
3.14637e-13
5.55161e-14
0.999997
0.999986
0.999967
0.999936
0.999885
0.9998
0.99966
0.999432
0.999065
0.998483
0.997574
0.996178
0.994078
0.990986
0.98655
0.980363
0.971996
0.961043
0.94718
0.930203
0.910057
0.886829
0.860729
0.832056
0.801168
0.768456
0.734318
0.69915
0.663331
0.627215
0.591123
0.555344
0.520129
0.485693
0.452212
0.41983
0.388663
0.358797
0.330291
0.303181
0.277483
0.253194
0.230301
0.208777
0.188584
0.169681
0.152018
0.135545
0.120207
0.105949
0.0927169
0.0804562
0.0691152
0.0586436
0.0489958
0.04013
0.0320778
0.0249147
0.0181751
0.0121139
0.00672665
0.00313373
0.00221722
0.00154997
0.00106896
0.000726153
0.000485086
0.000318214
0.000204873
0.000129721
8.15435e-05
5.23357e-05
3.66229e-05
2.75652e-05
2.03404e-05
1.43516e-05
9.59807e-06
6.04825e-06
3.5848e-06
2.00512e-06
1.06599e-06
5.42981e-07
2.66861e-07
1.28005e-07
6.01804e-08
2.77945e-08
1.26328e-08
5.65856e-09
2.5012e-09
1.09233e-09
4.71873e-10
2.01849e-10
8.5575e-11
3.59741e-11
1.49873e-11
6.16911e-12
2.48564e-12
9.53906e-13
3.18983e-13
5.62826e-14
0.999997
0.999986
0.999967
0.999937
0.999885
0.9998
0.99966
0.999433
0.999067
0.998487
0.99758
0.996187
0.994091
0.991006
0.98658
0.980407
0.972056
0.961125
0.947287
0.930338
0.910223
0.887028
0.860962
0.832323
0.80147
0.76879
0.734684
0.699547
0.663755
0.627664
0.591595
0.555836
0.520639
0.486217
0.452748
0.420375
0.389213
0.359351
0.330845
0.303733
0.27803
0.253735
0.230833
0.209298
0.189093
0.170176
0.152498
0.136008
0.120653
0.106376
0.0931241
0.0808432
0.0694817
0.0589912
0.0493253
0.0404423
0.0323821
0.0252034
0.0184535
0.0123866
0.00700086
0.00314831
0.00222339
0.00155112
0.00106737
0.000723328
0.000481939
0.000315249
0.000202321
0.000127639
7.98837e-05
5.09956e-05
3.54777e-05
2.67636e-05
1.98415e-05
1.40691e-05
9.45692e-06
5.98956e-06
3.56729e-06
2.00419e-06
1.0694e-06
5.46422e-07
2.69276e-07
1.29422e-07
6.09492e-08
2.81902e-08
1.28283e-08
5.75216e-09
2.54482e-09
1.11222e-09
4.80767e-10
2.05762e-10
8.72717e-11
3.67004e-11
1.52944e-11
6.29699e-12
2.53765e-12
9.74015e-13
3.25746e-13
5.74741e-14
0.999997
0.999986
0.999968
0.999937
0.999886
0.999801
0.999661
0.999434
0.99907
0.998491
0.997587
0.996199
0.994109
0.991034
0.986621
0.980465
0.972137
0.961233
0.947428
0.930518
0.910444
0.887292
0.861271
0.832677
0.801869
0.769233
0.735169
0.700071
0.664317
0.628259
0.592221
0.556489
0.521315
0.486913
0.453459
0.421098
0.389945
0.360087
0.331583
0.304469
0.27876
0.254457
0.231544
0.209995
0.189775
0.170839
0.153142
0.136631
0.121253
0.106953
0.0936769
0.081371
0.0699842
0.0594677
0.0497768
0.0408682
0.0327914
0.0255938
0.0188302
0.0127581
0.00737919
0.00318667
0.00224716
0.00156513
0.00107507
0.000727094
0.000483385
0.000315417
0.00020185
0.000126896
7.90516e-05
5.01364e-05
3.45754e-05
2.61028e-05
1.94389e-05
1.38539e-05
9.36285e-06
5.96311e-06
3.5704e-06
2.01507e-06
1.07961e-06
5.53603e-07
2.73622e-07
1.31797e-07
6.21817e-08
2.8805e-08
1.31254e-08
5.89195e-09
2.60912e-09
1.14121e-09
4.93618e-10
2.11374e-10
8.96903e-11
3.77306e-11
1.57281e-11
6.47704e-12
2.61069e-12
1.0022e-12
3.35216e-13
5.91409e-14
0.999997
0.999986
0.999968
0.999937
0.999886
0.999801
0.999662
0.999437
0.999073
0.998497
0.997596
0.996213
0.994131
0.991067
0.98667
0.980536
0.972236
0.961367
0.947603
0.930738
0.910715
0.887617
0.861651
0.833114
0.80236
0.769778
0.735766
0.700718
0.66501
0.628995
0.592995
0.557297
0.522153
0.487776
0.454343
0.421998
0.390856
0.361005
0.332503
0.305387
0.279673
0.25536
0.232435
0.21087
0.19063
0.171674
0.153953
0.137416
0.12201
0.107681
0.0943744
0.0820367
0.0706169
0.0600662
0.0503396
0.041396
0.033273
0.0260446
0.0192546
0.0131586
0.00776159
0.00326715
0.00230181
0.00160125
0.00109822
0.000741423
0.00049189
0.000320203
0.000204348
0.000128031
7.93859e-05
4.99803e-05
3.40743e-05
2.56831e-05
1.92004e-05
1.37513e-05
9.34428e-06
5.9839e-06
3.60179e-06
2.04326e-06
1.09962e-06
5.65921e-07
2.80555e-07
1.35428e-07
6.40098e-08
2.96967e-08
1.3549e-08
6.08855e-09
2.69855e-09
1.18118e-09
5.11202e-10
2.19004e-10
9.29615e-11
3.91176e-11
1.63098e-11
6.71779e-12
2.70812e-12
1.03974e-12
3.47812e-13
6.13558e-14
0.999997
0.999986
0.999968
0.999937
0.999886
0.999802
0.999664
0.999439
0.999077
0.998503
0.997607
0.99623
0.994157
0.991107
0.986728
0.980619
0.972352
0.961524
0.947808
0.930998
0.911034
0.887999
0.862098
0.833627
0.802939
0.770421
0.73647
0.701481
0.665828
0.629864
0.59391
0.558253
0.523145
0.488799
0.455392
0.423067
0.391941
0.362099
0.333601
0.306485
0.280766
0.256444
0.233504
0.211921
0.191661
0.17268
0.154932
0.138365
0.122927
0.108564
0.0952209
0.0828454
0.071386
0.060794
0.0510243
0.0420396
0.0338349
0.0265627
0.0197321
0.0135736
0.00809546
0.00341895
0.00240517
0.00167019
0.00114332
0.000770285
0.000509891
0.000331092
0.000210682
0.000131511
8.111e-05
5.06277e-05
3.40354e-05
2.55344e-05
1.91483e-05
1.37753e-05
9.40799e-06
6.05984e-06
3.66982e-06
2.09327e-06
1.13168e-06
5.84597e-07
2.90694e-07
1.40611e-07
6.65715e-08
3.09279e-08
1.41268e-08
6.35412e-09
2.81836e-09
1.23434e-09
5.34452e-10
2.29041e-10
9.72449e-11
4.09267e-11
1.70661e-11
7.02989e-12
2.83415e-12
1.0882e-12
3.64062e-13
6.42112e-14
0.999997
0.999986
0.999968
0.999938
0.999887
0.999803
0.999666
0.999442
0.999082
0.998511
0.997619
0.996249
0.994187
0.991151
0.986795
0.980714
0.972484
0.961702
0.94804
0.931292
0.911396
0.888433
0.862606
0.834209
0.803596
0.771151
0.737271
0.702349
0.66676
0.630855
0.594955
0.559348
0.524283
0.489974
0.456598
0.424299
0.393191
0.363363
0.334873
0.307758
0.282035
0.257703
0.23475
0.213149
0.192866
0.173858
0.15608
0.13948
0.124007
0.109605
0.096221
0.0838026
0.0722983
0.0616595
0.05184
0.0427891
0.0344764
0.0271062
0.0203817
0.0141002
0.00849607
0.00367062
0.00257228
0.00177916
0.00121346
0.000814784
0.000537665
0.000348086
0.000220814
0.000137331
8.42361e-05
5.20492e-05
3.43295e-05
2.55802e-05
1.92415e-05
1.3911e-05
9.55883e-06
6.19775e-06
3.77756e-06
2.16733e-06
1.17748e-06
6.10652e-07
3.04596e-07
1.47629e-07
7.00036e-08
3.25629e-08
1.48883e-08
6.70177e-09
2.97429e-09
1.30318e-09
5.64419e-10
2.41925e-10
1.02724e-10
4.32335e-11
1.80277e-11
7.42585e-12
2.99374e-12
1.1495e-12
3.84597e-13
6.78156e-14
0.999997
0.999986
0.999968
0.999938
0.999888
0.999804
0.999667
0.999445
0.999087
0.998519
0.997632
0.99627
0.99422
0.991201
0.986868
0.980819
0.97263
0.961898
0.948296
0.931616
0.911794
0.88891
0.863165
0.834851
0.804321
0.771957
0.738157
0.703311
0.667793
0.631956
0.596118
0.560567
0.525552
0.491288
0.457949
0.425681
0.394598
0.364787
0.336308
0.309198
0.283473
0.259135
0.236168
0.214549
0.194243
0.175208
0.157398
0.140763
0.12525
0.110806
0.0973778
0.0849121
0.073358
0.0626671
0.0527947
0.0437047
0.0353454
0.0278351
0.0210699
0.0147208
0.0090259
0.00407068
0.00278641
0.0019152
0.00129973
0.000869191
0.000571656
0.000369035
0.00023348
0.000144769
8.83905e-05
5.41258e-05
3.50677e-05
2.58371e-05
1.94858e-05
1.41644e-05
9.79535e-06
6.39579e-06
3.92598e-06
2.26711e-06
1.23838e-06
6.44985e-07
3.22783e-07
1.56758e-07
7.44446e-08
3.46682e-08
1.58644e-08
7.14555e-09
3.17257e-09
1.39041e-09
6.02267e-10
2.58149e-10
1.09604e-10