/*--------------------------------*- C++ -*----------------------------------*\
  =========                 |
  \\      /  F ield         | OpenFOAM: The Open Source CFD Toolbox
   \\    /   O peration     | Website:  https://openfoam.org
    \\  /    A nd           | Version:  8
     \\/     M anipulation  |
\*---------------------------------------------------------------------------*/
FoamFile
{
    version     2.0;
    format      ascii;
    class       volScalarField;
    location    "300/fluid";
    object      CO2;
}
// * * * * * * * * * * * * * * * * * * * * * * * * * * * * * * * * * * * * * //

dimensions      [0 0 0 0 0 0 0];

internalField   nonuniform List<scalar> 
4000
(
4.16187e-07
1.8177e-06
4.17003e-06
8.1028e-06
1.46463e-05
2.54699e-05
4.32472e-05
7.2201e-05
0.000118892
0.000193319
0.000310356
0.000491522
0.000766857
0.00117651
0.00177126
0.00261109
0.00376098
0.00528383
0.0072319
0.00963902
0.0125161
0.0158509
0.0196115
0.0237521
0.0282181
0.0329502
0.0378884
0.0429743
0.0481528
0.0533729
0.058589
0.0637605
0.0688524
0.0738355
0.0786856
0.0833836
0.0879145
0.0922667
0.0964322
0.100406
0.104187
0.107773
0.111166
0.11437
0.117388
0.120224
0.122884
0.125372
0.127693
0.12985
0.131849
0.133689
0.135372
0.136897
0.138257
0.139447
0.140451
0.141253
0.141824
0.142123
0.142113
0.141719
0.140842
0.139352
0.130196
0.119581
0.108846
0.0981595
0.0876565
0.077444
0.067609
0.0582241
0.0493524
0.0410518
0.0334005
0.026407
0.0201649
0.0147451
0.0102168
0.00663519
0.00400454
0.00223995
0.00116668
0.000571441
0.000268589
0.000122591
5.46922e-05
2.39624e-05
1.03466e-05
4.4147e-06
1.86538e-06
7.81876e-07
3.25515e-07
1.34699e-07
5.53773e-08
2.25522e-08
9.01301e-09
3.44046e-09
1.14817e-09
2.01189e-10
4.21997e-07
1.84403e-06
4.23444e-06
8.23847e-06
1.49133e-05
2.5973e-05
4.41619e-05
7.38093e-05
0.000121625
0.000197797
0.000317411
0.000502167
0.000782163
0.00119737
0.00179803
0.00264321
0.00379664
0.00532001
0.00726475
0.00966463
0.0125315
0.0158547
0.0196047
0.0237364
0.0281957
0.0329237
0.0378606
0.042948
0.0481305
0.053357
0.0585813
0.0637628
0.0688663
0.0738616
0.0787241
0.0834341
0.0879762
0.0923387
0.0965134
0.100495
0.104283
0.107874
0.111272
0.114479
0.1175
0.120337
0.122997
0.125484
0.127803
0.129958
0.131953
0.133788
0.135465
0.136981
0.138332
0.139507
0.140494
0.141273
0.141817
0.142084
0.142042
0.141624
0.140757
0.139372
0.129099
0.118367
0.107536
0.0967749
0.0862165
0.0759652
0.0661063
0.0567119
0.047846
0.0395688
0.0319748
0.0250528
0.0189181
0.0136445
0.00930162
0.00593433
0.00352126
0.00194434
0.00100641
0.000493468
0.00023334
0.000107427
4.83986e-05
2.1414e-05
9.33065e-06
4.01302e-06
1.70704e-06
7.19429e-07
3.00833e-07
1.24923e-07
5.15052e-08
2.1026e-08
8.42084e-09
3.22016e-09
1.07587e-09
1.88742e-10
4.30689e-07
1.88262e-06
4.32568e-06
8.4223e-06
1.52578e-05
2.65907e-05
4.52322e-05
7.56081e-05
0.00012456
0.00020244
0.000324527
0.000512705
0.000797208
0.00121801
0.00182517
0.00267729
0.00383734
0.00536605
0.00731388
0.00971394
0.0125778
0.0158953
0.0196373
0.0237606
0.0282126
0.0329358
0.0378712
0.0429605
0.0481484
0.0533833
0.0586184
0.0638125
0.0689296
0.0739392
0.0788164
0.0835409
0.0880971
0.0924728
0.0966596
0.100652
0.104449
0.108049
0.111453
0.114665
0.117689
0.120528
0.123188
0.125674
0.127991
0.130142
0.132131
0.133959
0.135625
0.137128
0.13846
0.139612
0.140567
0.141301
0.141778
0.141952
0.141772
0.14115
0.139983
0.138176
0.12739
0.116417
0.105434
0.0945823
0.0839785
0.0737178
0.063881
0.0545384
0.045754
0.037589
0.0301395
0.0233995
0.0174841
0.0124614
0.00838923
0.00528911
0.00310926
0.00170775
0.000883017
0.000433982
0.000205975
9.52459e-05
4.31068e-05
1.91573e-05
8.38143e-06
3.61769e-06
1.54351e-06
6.52074e-07
2.73165e-07
1.13583e-07
4.68716e-08
1.91461e-08
7.67121e-09
2.93427e-09
9.80232e-10
1.72045e-10
4.38416e-07
1.91643e-06
4.4035e-06
8.57394e-06
1.55317e-05
2.70634e-05
4.60218e-05
7.68906e-05
0.000126589
0.000205569
0.000329225
0.000519569
0.000806949
0.00123141
0.00184298
0.0027001
0.00386543
0.00539927
0.00735167
0.00975544
0.0126221
0.0159415
0.0196849
0.0238096
0.0282636
0.0329898
0.0379295
0.0430249
0.0482206
0.0534651
0.0587115
0.0639182
0.0690488
0.0740727
0.0789643
0.0837034
0.0882735
0.0926623
0.0968613
0.100865
0.104671
0.108279
0.11169
0.114907
0.117933
0.120774
0.123434
0.125919
0.128232
0.130378
0.132359
0.134177
0.135832
0.137319
0.138632
0.139759
0.14068
0.141369
0.141777
0.141859
0.141527
0.140653
0.139043
0.135985
0.12499
0.113882
0.102819
0.0919354
0.081339
0.0711214
0.0613609
0.0521267
0.0434825
0.0354905
0.028213
0.0217059
0.0160458
0.0112952
0.00750068
0.00466375
0.00270794
0.00147357
0.000757738
0.000371657
0.000176549
8.18245e-05
3.71474e-05
1.65679e-05
7.27616e-06
3.15273e-06
1.35015e-06
5.72379e-07
2.40534e-07
1.0029e-07
4.1483e-08
1.69777e-08
6.81273e-09
2.60854e-09
8.72044e-10
1.53165e-10
4.45036e-07
1.94531e-06
4.46971e-06
8.7024e-06
1.57631e-05
2.74633e-05
4.66932e-05
7.79917e-05
0.000128356
0.000208344
0.000333485
0.000525945
0.000816235
0.00124453
0.00186093
0.0027238
0.00389561
0.00543634
0.00739568
0.0098061
0.0126789
0.0160041
0.0197532
0.0238836
0.0283436
0.0330767
0.0380243
0.0431286
0.0483345
0.0535903
0.0588491
0.0640689
0.0692132
0.074251
0.0791567
0.0839095
0.0884928
0.0928939
0.0971042
0.101118
0.104933
0.108547
0.111964
0.115184
0.118213
0.121055
0.123714
0.126195
0.128503
0.130643
0.132615
0.134423
0.136065
0.137537
0.138832
0.139938
0.140837
0.141501
0.141886
0.14195
0.141621
0.140797
0.139341
0.133067
0.1221
0.111001
0.0999537
0.0891037
0.0785658
0.0684339
0.0587868
0.0496934
0.0412168
0.0334333
0.0263665
0.0201018
0.0147033
0.0102259
0.00670312
0.0041156
0.00236433
0.001277
0.000653973
0.00032036
0.000152306
7.07103e-05
3.21709e-05
1.43814e-05
6.33031e-06
2.74882e-06
1.17952e-06
5.00932e-07
2.10839e-07
8.80272e-08
3.64521e-08
1.49321e-08
5.99571e-09
2.29688e-09
7.6806e-10
1.34965e-10
4.50537e-07
1.96926e-06
4.52438e-06
8.80794e-06
1.59523e-05
2.77885e-05
4.72369e-05
7.88808e-05
0.000129781
0.000210584
0.000336935
0.000531144
0.000823888
0.00125552
0.00187628
0.00274464
0.00392305
0.00547139
0.00743912
0.00985846
0.0127405
0.0160751
0.0198336
0.0239737
0.0284438
0.0331872
0.0381458
0.0432617
0.0484798
0.0537483
0.0590202
0.0642535
0.0694114
0.0744628
0.0793817
0.0841472
0.0887425
0.0931546
0.0973747
0.101397
0.105219
0.108839
0.11226
0.115483
0.118512
0.121353
0.124009
0.126486
0.128788
0.130919
0.132881
0.134676
0.136302
0.137756
0.139029
0.140109
0.140978
0.141609
0.141958
0.141992
0.141642
0.140816
0.139406
0.130176
0.119231
0.108144
0.0971217
0.0863198
0.0758569
0.0658275
0.0563096
0.0473704
0.0390711
0.0315041
0.0246551
0.0186291
0.0134837
0.00926621
0.00599647
0.00363574
0.00206609
0.00110685
0.000563859
0.000275452
0.000130897
6.08062e-05
2.76996e-05
1.24034e-05
5.47015e-06
2.38015e-06
1.0234e-06
4.35482e-07
1.83624e-07
7.67888e-08
3.18424e-08
1.30583e-08
5.24781e-09
2.01155e-09
6.72856e-10
1.18294e-10
4.55274e-07
1.98989e-06
4.57154e-06
8.89914e-06
1.61162e-05
2.80715e-05
4.77128e-05
7.96652e-05
0.000131051
0.000212602
0.000340083
0.000535956
0.000831083
0.00126602
0.00189119
0.00276523
0.00395065
0.00550726
0.00748436
0.00991396
0.0128069
0.0161529
0.0199231
0.0240752
0.0285576
0.0333137
0.0382852
0.0434143
0.0486458
0.0539279
0.0592135
0.0644603
0.0696315
0.0746958
0.079627
0.0844041
0.0890101
0.0934318
0.0976603
0.10169
0.105517
0.109142
0.112564
0.115789
0.118817
0.121656
0.124308
0.126779
0.129073
0.131194
0.133144
0.134924
0.136531
0.137961
0.139205
0.140249
0.141071
0.141641
0.141913
0.14185
0.141375
0.140405
0.138873
0.127923
0.116743
0.105543
0.0944902
0.0837142
0.0733202
0.0633942
0.0540082
0.0452255
0.0371044
0.0297296
0.0230961
0.0173009
0.012396
0.00842151
0.00538406
0.00322672
0.00181579
0.000965766
0.000489714
0.000238702
0.000113367
5.26732e-05
2.40113e-05
1.07625e-05
4.75206e-06
2.07032e-06
8.91343e-07
3.79771e-07
1.60326e-07
6.71193e-08
2.78591e-08
1.14335e-08
4.59748e-09
1.76287e-09
5.89745e-10
1.03726e-10
4.59446e-07
2.00807e-06
4.6131e-06
8.9796e-06
1.6261e-05
2.8322e-05
4.81351e-05
8.03636e-05
0.000132187
0.000214418
0.000342937
0.000540358
0.000837733
0.00127584
0.00190534
0.00278505
0.00397764
0.00554291
0.00753005
0.00997086
0.012876
0.0162347
0.0200182
0.0241839
0.0286801
0.0334501
0.0384356
0.0435789
0.0488244
0.0541204
0.0594195
0.0646795
0.0698635
0.0749398
0.0798823
0.0846697
0.089285
0.0937148
0.0979501
0.101985
0.105816
0.109443
0.112867
0.116091
0.119118
0.121952
0.124599
0.127064
0.129349
0.131459
0.133396
0.135159
0.136747
0.138153
0.139366
0.140369
0.141136
0.141625
0.141786
0.141548
0.140792
0.13935
0.136961
0.125714
0.114367
0.103094
0.0920324
0.0812968
0.0709809
0.061163
0.0519103
0.0432828
0.0353366
0.0281246
0.0217
0.0161225
0.0114409
0.00768863
0.00485981
0.00288123
0.00160667
0.000848731
0.000428373
0.000208361
9.88577e-05
4.59202e-05
2.0938e-05
9.39057e-06
4.14974e-06
1.80968e-06
7.79952e-07
3.32669e-07
1.40588e-07
5.89126e-08
2.44732e-08
1.00506e-08
4.04337e-09
1.55081e-09
5.18836e-10
9.12913e-11
4.63215e-07
2.02451e-06
4.65073e-06
9.05255e-06
1.63926e-05
2.85503e-05
4.85218e-05
8.10061e-05
0.000133237
0.000216109
0.000345614
0.000544519
0.000844072
0.00128528
0.00191906
0.00280445
0.00400426
0.00557836
0.00757585
0.0100283
0.0129461
0.0163183
0.0201158
0.0242958
0.0288065
0.0335911
0.0385911
0.0437486
0.0490082
0.0543178
0.0596302
0.0649028
0.0700985
0.0751859
0.0801385
0.084935
0.0895582
0.0939947
0.0982355
0.102274
0.106108
0.109737
0.11316
0.116382
0.119406
0.122236
0.124877
0.127333
0.129609
0.131708
0.133632
0.135381
0.136951
0.138337
0.139526
0.140501
0.141235
0.141682
0.141798
0.141507
0.140694
0.139201
0.1346
0.123339
0.111994
0.100743
0.0897296
0.0790656
0.0688432
0.0591387
0.0500174
0.0415374
0.0337533
0.0267135
0.0204755
0.0150939
0.0106135
0.00706018
0.00441577
0.00259235
0.0014338
0.000752787
0.000378342
0.000183656
8.70418e-05
4.0413e-05
1.84264e-05
8.26641e-06
3.65477e-06
1.59485e-06
6.8787e-07
2.93622e-07
1.24183e-07
5.20759e-08
2.16468e-08
8.89432e-09
3.57943e-09
1.37309e-09
4.59376e-10
8.08557e-11
4.66663e-07
2.03955e-06
4.6852e-06
9.11949e-06
1.65136e-05
2.87607e-05
4.88789e-05
8.16016e-05
0.000134215
0.000217689
0.000348127
0.000548447
0.000850091
0.0012943
0.00193225
0.00282321
0.00403018
0.00561307
0.00762092
0.0100851
0.0130157
0.0164016
0.0202133
0.0244077
0.028933
0.0337321
0.0387465
0.0439181
0.0491913
0.054514
0.0598388
0.0651231
0.0703297
0.075427
0.0803885
0.0851928
0.0898226
0.0942645
0.0985093
0.102551
0.106386
0.110015
0.113437
0.116656
0.119676
0.1225
0.125134
0.127582
0.129849
0.131937
0.133849
0.135583
0.137138
0.138508
0.13968
0.140638
0.141356
0.141791
0.141903
0.141627
0.140863
0.139489
0.13225
0.121053
0.109763
0.0985726
0.0876286
0.0770476
0.0669222
0.0573283
0.0483304
0.0399858
0.0323633
0.0254786
0.019408
0.0142021
0.00990152
0.00652481
0.00404186
0.00235189
0.00129131
0.000674242
0.000337547
0.000163536
7.74174e-05
3.5923e-05
1.63758e-05
7.34702e-06
3.24922e-06
1.4185e-06
6.12141e-07
2.61453e-07
1.10644e-07
4.64254e-08
1.93077e-08
7.93631e-09
3.1947e-09
1.22563e-09
4.10023e-10
7.21886e-11
4.69837e-07
2.0534e-06
4.71696e-06
9.18125e-06
1.66254e-05
2.89555e-05
4.92104e-05
8.21558e-05
0.000135127
0.00021917
0.000350491
0.000552156
0.000855797
0.00130288
0.00194485
0.0028412
0.00405512
0.00564658
0.00766455
0.0101402
0.0130834
0.0164826
0.0203082
0.0245168
0.0290563
0.0338695
0.0388977
0.0440827
0.0493687
0.0547037
0.06004
0.0653349
0.0705513
0.0756573
0.0806265
0.0854374
0.0900725
0.0945186
0.0987662
0.102809
0.106645
0.110272
0.113692
0.116908
0.119922
0.122741
0.125367
0.127807
0.130063
0.13214
0.134038
0.135758
0.137297
0.138649
0.139803
0.140741
0.141439
0.141855
0.141952
0.141662
0.140886
0.139499
0.130256
0.119073
0.10781
0.0966613
0.0857755
0.0752678
0.0652297
0.0557359
0.0468497
0.0386272
0.0311434
0.0243992
0.0184795
0.0134316
0.0092915
0.00607077
0.00372833
0.00215248
0.00117423
0.00061014
0.000304392
0.000147211
6.96115e-05
3.22799e-05
1.47104e-05
6.59938e-06
2.91894e-06
1.27465e-06
5.50267e-07
2.35127e-07
9.95483e-08
4.17876e-08
1.73854e-08
7.14821e-09
2.87795e-09
1.10416e-09
3.69354e-10
6.50466e-11
4.72749e-07
2.06612e-06
4.74614e-06
9.23802e-06
1.67283e-05
2.91351e-05
4.95165e-05
8.26688e-05
0.000135974
0.000220546
0.000352695
0.000555622
0.000861144
0.00131095
0.00195672
0.00285819
0.00407871
0.00567834
0.00770598
0.0101926
0.0131478
0.0165598
0.0203986
0.0246207
0.0291736
0.034
0.0390412
0.0442386
0.0495366
0.0548828
0.0602294
0.0655339
0.0707588
0.0758724
0.0808481
0.0856644
0.0903038
0.0947529
0.0990023
0.103046
0.106881
0.110507
0.113923
0.117135
0.120144
0.122955
0.125574
0.128003
0.130249
0.132313
0.134197
0.135901
0.137421
0.138752
0.139882
0.140794
0.141464
0.141851
0.141923
0.141618
0.140854
0.139551
0.128731
0.117466
0.106172
0.095029
0.0841772
0.0737252
0.0637602
0.0543532
0.0455648
0.0374492
0.0300758
0.0234537
0.0176727
0.0127687
0.00877186
0.00568798
0.00346683
0.00198783
0.00107835
0.000557946
0.000277494
0.000133986
6.32907e-05
2.93292e-05
1.33607e-05
5.99293e-06
2.65074e-06
1.1577e-06
4.99901e-07
2.1367e-07
9.04934e-08
3.79987e-08
1.58135e-08
6.50318e-09
2.61854e-09
1.00463e-09
3.36022e-10
5.91953e-11
4.75397e-07
2.07768e-06
4.77269e-06
9.28971e-06
1.68221e-05
2.9299e-05
4.97963e-05
8.31382e-05
0.00013675
0.00022181
0.000354722
0.000558817
0.00086608
0.00131841
0.00196771
0.00287394
0.00410062
0.00570786
0.0077445
0.0102414
0.0132078
0.0166316
0.0204827
0.0247172
0.0292825
0.0341212
0.0391741
0.0443829
0.0496916
0.0550478
0.0604036
0.0657164
0.0709487
0.0760687
0.0810498
0.0858705
0.0905131
0.0949643
0.0992148
0.103258
0.107092
0.110715
0.114128
0.117335
0.120338
0.123142
0.125752
0.128172
0.130405
0.132456
0.134324
0.136009
0.137508
0.138812
0.13991
0.140782
0.141402
0.141721
0.14171
0.14129
0.140364
0.138835
0.127572
0.11616
0.104797
0.0936379
0.082805
0.0723974
0.0624953
0.0531655
0.0444658
0.0364479
0.0291684
0.0226664
0.0169949
0.0122076
0.00833448
0.00536868
0.00325065
0.00185284
0.00100027
0.00051564
0.000255756
0.000123311
5.81907e-05
2.69481e-05
1.22709e-05
5.5029e-06
2.43383e-06
1.06302e-06
4.59079e-07
1.9626e-07
8.31389e-08
3.49183e-08
1.45343e-08
5.97792e-09
2.40717e-09
9.23513e-10
3.08851e-10
5.44241e-11
4.77766e-07
2.08802e-06
4.79645e-06
9.33602e-06
1.69061e-05
2.9446e-05
5.00475e-05
8.35602e-05
0.000137448
0.00022295
0.000356551
0.000561704
0.000870546
0.00132517
0.00197767
0.00288823
0.0041205
0.00573466
0.00777948
0.0102856
0.0132622
0.0166968
0.020559
0.0248047
0.0293812
0.0342308
0.0392943
0.0445131
0.0498313
0.0551962
0.06056
0.0658799
0.0711184
0.0762437
0.0812292
0.0860532
0.0906982
0.0951508
0.0994015
0.103444
0.107276
0.110896
0.114306
0.117507
0.120504
0.123301
0.125902
0.128312
0.130534
0.132571
0.134423
0.136089
0.137565
0.138841
0.139903
0.14073
0.141289
0.141532
0.141415
0.140847
0.139713
0.137896
0.126487
0.114991
0.103591
0.0924299
0.0816207
0.0712562
0.0614124
0.0521536
0.0435366
0.0356154
0.0284434
0.0220429
0.0164702
0.0117675
0.00798089
0.00510764
0.00307443
0.00174333
0.000937191
0.00048157
0.000238284
0.000114737
5.40952e-05
2.50355e-05
1.13951e-05
5.10884e-06
2.25926e-06
9.86754e-07
4.2617e-07
1.82212e-07
7.71992e-08
3.24284e-08
1.34996e-08
5.5528e-09
2.23603e-09
8.57816e-10
2.86846e-10
5.05572e-11
4.79838e-07
2.09707e-06
4.81724e-06
9.37654e-06
1.69798e-05
2.95749e-05
5.02679e-05
8.39307e-05
0.000138062
0.000223952
0.000358162
0.000564246
0.000874483
0.00133113
0.00198647
0.00290085
0.00413806
0.00575833
0.00781037
0.0103247
0.0133102
0.0167543
0.0206262
0.0248818
0.029468
0.0343272
0.0393998
0.0446273
0.0499535
0.0553259
0.0606964
0.0660223
0.071266
0.0763955
0.0813844
0.086211
0.0908575
0.0953107
0.0995612
0.103603
0.107433
0.11105
0.114455
0.117652
0.120643
0.123433
0.126026
0.128427
0.130638
0.132663
0.134501
0.13615
0.137606
0.138859
0.139893
0.140684
0.141195
0.141381
0.141186
0.14051
0.139221
0.13697
0.125482
0.113946
0.102536
0.0913863
0.0806072
0.0702871
0.0604994
0.0513062
0.0427614
0.034914
0.0277975
0.0214731
0.0159926
0.0113976
0.00770295
0.00490087
0.00293232
0.00165496
0.000886536
0.000454304
0.000224332
0.000107897
5.08289e-05
2.35101e-05
1.06965e-05
4.79434e-06
2.11986e-06
9.25816e-07
3.99856e-07
1.70972e-07
7.24436e-08
3.04337e-08
1.26703e-08
5.21189e-09
2.09875e-09
8.05105e-10
2.69191e-10
4.74535e-11
4.81594e-07
2.10474e-06
4.83486e-06
9.4109e-06
1.70422e-05
2.96842e-05
5.0455e-05
8.42455e-05
0.000138584
0.000224804
0.000359532
0.000566412
0.000877837
0.0013362
0.00199396
0.00291161
0.00415304
0.00577851
0.00783672
0.0103581
0.0133512
0.0168033
0.0206835
0.0249474
0.0295419
0.034409
0.0394894
0.0447241
0.050057
0.0554355
0.0608115
0.0661421
0.0713899
0.0765228
0.0815142
0.0863424
0.09099
0.0954433
0.0996931
0.103733
0.107561
0.111175
0.114577
0.117769
0.120755
0.123538
0.126125
0.128517
0.130719
0.132734
0.13456
0.136197
0.137639
0.138876
0.139893
0.140667
0.141159
0.141329
0.14112
0.140436
0.139157
0.136112
0.124589
0.113043
0.101642
0.0905178
0.0797751
0.0694997
0.0597624
0.0506187
0.0421217
0.0343198
0.0272651
0.0210067
0.0155951
0.0110695
0.00745293
0.00473117
0.00282064
0.00158527
0.000846469
0.00043279
0.00021334
0.000102511
4.82576e-05
2.23093e-05
1.01464e-05
4.54664e-06
2.01003e-06
8.77789e-07
3.79109e-07
1.62107e-07
6.8691e-08
2.88591e-08
1.20154e-08
4.94263e-09
1.9903e-09
7.63466e-10
2.55245e-10
4.50014e-11
4.83016e-07
2.11095e-06
4.84913e-06
9.43873e-06
1.70928e-05
2.97728e-05
5.06067e-05
8.45008e-05
0.000139007
0.000225496
0.000360645
0.000568172
0.000880564
0.00134034
0.00200006
0.00292037
0.00416522
0.00579494
0.00785816
0.0103852
0.0133845
0.0168431
0.02073
0.0250007
0.0296018
0.0344754
0.0395619
0.0448024
0.0501407
0.055524
0.0609042
0.0662385
0.0714893
0.0766246
0.0816177
0.086447
0.091095
0.0955481
0.0997971
0.103836
0.107661
0.111273
0.114671
0.117859
0.12084
0.123618
0.126198
0.128584
0.130779
0.132785
0.134603
0.136231
0.137664
0.138892
0.139902
0.14067
0.141163
0.141341
0.141154
0.140518
0.139323
0.135368
0.123837
0.112299
0.100916
0.0898147
0.0790998
0.0688546
0.0591479
0.0500429
0.0415912
0.0338419
0.0268404
0.0206372
0.0152827
0.0108156
0.00725738
0.00458992
0.00273125
0.00153229
0.000815872
0.000416244
0.000204877
9.83649e-05
4.62786e-05
2.13854e-05
9.7233e-06
4.35619e-06
1.92561e-06
8.40873e-07
3.63163e-07
1.55292e-07
6.58065e-08
2.76487e-08
1.15119e-08
4.73564e-09
1.90694e-09
7.3146e-10
2.44527e-10
4.3117e-11
4.8409e-07
2.11565e-06
4.85992e-06
9.45976e-06
1.7131e-05
2.98398e-05
5.07213e-05
8.46939e-05
0.000139328
0.00022602
0.000361488
0.000569505
0.00088263
0.00134347
0.00200469
0.00292701
0.00417447
0.0058074
0.00787442
0.0104057
0.0134097
0.0168733
0.0207653
0.0250411
0.0296472
0.0345257
0.0396168
0.0448616
0.0502038
0.0555907
0.060974
0.0663109
0.0715638
0.0767006
0.0816948
0.0865246
0.0911725
0.0956252
0.0998732
0.10391
0.107734
0.111343
0.114738
0.117923
0.1209
0.123674
0.126249
0.128629
0.130818
0.132818
0.134629
0.13625
0.137676
0.138898
0.139903
0.14067
0.141166
0.141352
0.141185
0.140582
0.13944
0.134777
0.123243
0.111711
0.10034
0.0892583
0.0785683
0.0683525
0.0586801
0.0496103
0.0411956
0.033485
0.0265235
0.0203622
0.0150511
0.010628
0.00711323
0.00448601
0.00266118
0.00148992
0.000792873
0.000404009
0.00019863
9.53101e-05
4.48234e-05
2.07071e-05
9.41315e-06
4.21675e-06
1.86385e-06
8.13887e-07
3.5151e-07
1.50314e-07
6.36995e-08
2.67647e-08
1.11443e-08
4.5845e-09
1.84608e-09
7.081e-10
2.36705e-10
4.17424e-11
4.84808e-07
2.11878e-06
4.86712e-06
9.4738e-06
1.71565e-05
2.98845e-05
5.07978e-05
8.48226e-05
0.000139541
0.000226369
0.00036205
0.000570393
0.000884008
0.00134555
0.00200777
0.00293144
0.00418064
0.00581573
0.00788529
0.0104195
0.0134266
0.0168936
0.020789
0.0250682
0.0296777
0.0345594
0.0396535
0.0449013
0.0502461
0.0556352
0.0610206
0.0663591
0.0716133
0.076751
0.0817455
0.0865754
0.091223
0.0956751
0.0999221
0.103958
0.10778
0.111387
0.11478
0.117962
0.120936
0.123707
0.126278
0.128654
0.130838
0.132833
0.134639
0.136254
0.137675
0.138893
0.139893
0.140658
0.141153
0.141343
0.141185
0.140598
0.139484
0.134375
0.122831
0.111301
0.0999419
0.0888771
0.0782068
0.0680131
0.0583644
0.0493194
0.0409305
0.0332464
0.0263123
0.0201794
0.0148975
0.010504
0.00701845
0.00441819
0.00261614
0.0014622
0.000776966
0.000395684
0.000194435
9.32925e-05
4.38722e-05
2.02667e-05
9.21252e-06
4.12667e-06
1.82394e-06
7.96417e-07
3.43946e-07
1.47074e-07
6.23255e-08
2.61873e-08
1.09039e-08
4.48563e-09
1.80626e-09
6.92812e-10
2.31585e-10
4.08432e-11
4.85165e-07
2.12034e-06
4.87068e-06
9.48072e-06
1.7169e-05
2.99063e-05
5.08351e-05
8.48851e-05
0.000139645
0.000226538
0.000362321
0.000570821
0.000884669
0.00134656
0.00200925
0.00293356
0.00418361
0.00581973
0.00789053
0.0104261
0.0134348
0.0169034
0.0208005
0.0250813
0.0296925
0.0345758
0.0396715
0.0449207
0.0502668
0.0556571
0.0610435
0.0663828
0.0716375
0.0767756
0.0817703
0.0866
0.0912473
0.0956988
0.0999453
0.103981
0.107802
0.111407
0.114799
0.117979
0.120952
0.12372
0.126289
0.128662
0.130844
0.132835
0.134638
0.13625
0.137667
0.138881
0.139878
0.14064
0.141134
0.141324
0.141169
0.140592
0.139498
0.134176
0.122618
0.111088
0.0997348
0.0886797
0.078021
0.06784
0.0582045
0.0491731
0.040798
0.033128
0.0262081
0.0200898
0.0148227
0.0104441
0.00697298
0.00438591
0.00259485
0.00144913
0.000769448
0.00039162
0.000192375
9.23051e-05
4.34095e-05
2.00537e-05
9.11599e-06
4.08351e-06
1.80488e-06
7.88095e-07
3.40348e-07
1.4553e-07
6.16679e-08
2.59099e-08
1.0788e-08
4.4378e-09
1.78694e-09
6.85374e-10
2.2909e-10
4.04052e-11
4.85175e-07
2.12038e-06
4.87078e-06
9.48092e-06
1.71694e-05
2.9907e-05
5.08362e-05
8.48869e-05
0.000139647
0.000226542
0.000362328
0.000570832
0.000884686
0.00134658
0.00200929
0.00293361
0.00418367
0.00581982
0.00789064
0.0104263
0.013435
0.0169035
0.0208006
0.0250815
0.0296927
0.0345761
0.0396718
0.0449209
0.0502671
0.0556574
0.0610437
0.0663831
0.0716378
0.0767758
0.0817706
0.0866003
0.0912475
0.095699
0.0999455
0.103981
0.107802
0.111408
0.114799
0.11798
0.120952
0.12372
0.126289
0.128663
0.130844
0.132836
0.134638
0.13625
0.137667
0.138881
0.139879
0.14064
0.141134
0.141324
0.14117
0.140593
0.139498
0.134175
0.122617
0.111087
0.0997339
0.0886788
0.0780202
0.0678392
0.0582038
0.0491724
0.0407974
0.0331274
0.0262076
0.0200894
0.0148223
0.0104438
0.00697274
0.00438573
0.00259474
0.00144906
0.000769407
0.000391598
0.000192364
9.23e-05
4.34071e-05
2.00526e-05
9.1155e-06
4.0833e-06
1.80479e-06
7.88053e-07
3.4033e-07
1.45522e-07
6.16647e-08
2.59086e-08
1.07875e-08
4.43758e-09
1.78685e-09
6.85339e-10
2.29077e-10
4.04043e-11
4.84838e-07
2.11891e-06
4.86742e-06
9.47439e-06
1.71576e-05
2.98863e-05
5.08009e-05
8.48277e-05
0.000139549
0.000226382
0.000362071
0.000570425
0.000884056
0.00134563
0.00200788
0.00293158
0.00418083
0.00581597
0.0078856
0.0104199
0.0134271
0.0168941
0.0207895
0.0250688
0.0296783
0.03456
0.0396543
0.044902
0.0502468
0.055636
0.0610214
0.0663599
0.0716141
0.0767517
0.0817463
0.0865761
0.0912237
0.0956758
0.0999228
0.103959
0.107781
0.111388
0.114781
0.117963
0.120937
0.123707
0.126278
0.128654
0.130838
0.132833
0.134639
0.136255
0.137675
0.138893
0.139894
0.140658
0.141154
0.141343
0.141185
0.140598
0.139484
0.134372
0.122828
0.111298
0.0999391
0.0888744
0.0782043
0.0680108
0.0583622
0.0493174
0.0409286
0.0332448
0.0263108
0.0201781
0.0148964
0.0105031
0.00701775
0.00441769
0.00261581
0.001462
0.000776855
0.00039563
0.000194409
9.32802e-05
4.38664e-05
2.02641e-05
9.21131e-06
4.12613e-06
1.8237e-06
7.96313e-07
3.43902e-07
1.47055e-07
6.23175e-08
2.6184e-08
1.09026e-08
4.48508e-09
1.80604e-09
6.92723e-10
2.31553e-10
4.08413e-11
4.84141e-07
2.11587e-06
4.86042e-06
9.46075e-06
1.71328e-05
2.98429e-05
5.07266e-05
8.47025e-05
0.000139342
0.000226043
0.000361524
0.00056956
0.000882713
0.00134359
0.00200486
0.00292725
0.00417479
0.00580783
0.00787495
0.0104064
0.0134105
0.0168742
0.0207663
0.0250421
0.0296484
0.0345269
0.039618
0.0448629
0.0502051
0.055592
0.0609754
0.0663123
0.0715652
0.076702
0.0816961
0.0865259
0.0911738
0.0956264
0.0998743
0.103912
0.107735
0.111344
0.114739
0.117924
0.120901
0.123675
0.12625
0.12863
0.130819
0.132818
0.13463
0.13625
0.137676
0.138899
0.139904
0.140671
0.141166
0.141352
0.141185
0.140582
0.139441
0.134772
0.123238
0.111706
0.100335
0.0892539
0.0785641
0.0683486
0.0586764
0.0496069
0.0411925
0.0334821
0.026521
0.02036
0.0150492
0.0106264
0.00711201
0.00448513
0.0026606
0.00148958
0.000792697
0.000403917
0.000198584
9.52879e-05
4.48129e-05
2.07022e-05
9.41094e-06
4.21577e-06
1.86342e-06
8.13702e-07
3.51432e-07
1.50281e-07
6.36858e-08
2.6759e-08
1.1142e-08
4.58357e-09
1.84571e-09
7.07952e-10
2.36651e-10
4.17393e-11
4.83086e-07
2.11126e-06
4.84983e-06
9.44009e-06
1.70952e-05
2.97771e-05
5.06139e-05
8.45127e-05
0.000139027
0.000225528
0.000360695
0.000568248
0.000880679
0.00134051
0.00200031
0.0029207
0.00416568
0.00579553
0.0078589
0.0103861
0.0133855
0.0168443
0.0207314
0.0250022
0.0296034
0.0344771
0.0395637
0.0448042
0.0501425
0.0555258
0.0609061
0.0662404
0.0714912
0.0766265
0.0816196
0.0864489
0.0910968
0.0955498
0.0997987
0.103837
0.107663
0.111274
0.114672
0.11786
0.120841
0.12362
0.1262
0.128585
0.13078
0.132786
0.134604
0.136232
0.137664
0.138892
0.139902
0.14067
0.141163
0.141341
0.141155
0.140519
0.139326
0.13536
0.12383
0.112292
0.100909
0.0898084
0.0790939
0.0688491
0.0591429
0.0500383
0.0415871
0.0338381
0.026837
0.0206342
0.0152801
0.0108134
0.00725572
0.00458873
0.00273049
0.00153184
0.000815626
0.000416114
0.000204811
9.83332e-05
4.62638e-05
2.13786e-05
9.72028e-06
4.35487e-06
1.92504e-06
8.40629e-07
3.6306e-07
1.55249e-07
6.57887e-08
2.76414e-08
1.15089e-08
4.73442e-09
1.90645e-09
7.31265e-10
2.44455e-10
4.31132e-11
4.81682e-07
2.10513e-06
4.83575e-06
9.41263e-06
1.70453e-05
2.96896e-05
5.04641e-05
8.42606e-05
0.000138609
0.000224844
0.000359595
0.000566509
0.000877984
0.00133642
0.00199428
0.00291204
0.00415362
0.00577927
0.00783767
0.0103592
0.0133525
0.0168049
0.0206853
0.0249493
0.029544
0.0344112
0.0394916
0.0447265
0.0500594
0.0554379
0.060814
0.0661446
0.0713923
0.0765252
0.0815166
0.0863448
0.0909923
0.0954456
0.0996953
0.103736
0.107563
0.111177
0.114579
0.117771
0.120756
0.12354
0.126126
0.128518
0.13072
0.132735
0.134561
0.136198
0.137639
0.138876
0.139893
0.140667
0.141159
0.141329
0.14112
0.140438
0.139157
0.1361
0.124579
0.113035
0.101634
0.0905099
0.0797675
0.0694927
0.0597559
0.0506127
0.0421163
0.0343149
0.0272607
0.0210028
0.0155917
0.0110668
0.0074509
0.00472979
0.00281977
0.00158473
0.00084615
0.000432621
0.000213257
0.000102472
4.82393e-05
2.2301e-05
1.01427e-05
4.54502e-06
2.00933e-06
8.77491e-07
3.78983e-07
1.62054e-07
6.86693e-08
2.88502e-08
1.20117e-08
4.94114e-09
1.9897e-09
7.63227e-10
2.55156e-10
4.49966e-11
4.79945e-07
2.09754e-06
4.81831e-06
9.37863e-06
1.69835e-05
2.95814e-05
5.02789e-05
8.39491e-05
0.000138092
0.000224
0.000358237
0.000564364
0.000874661
0.00133139
0.00198684
0.00290138
0.00413877
0.00575925
0.00781154
0.0103262
0.0133119
0.0167562
0.0206284
0.0248842
0.0294706
0.0343299
0.0394026
0.0446303
0.0499565
0.0553289
0.0606995
0.0660253
0.071269
0.0763986
0.0813874
0.0862139
0.0908604
0.0953135
0.0995639
0.103605
0.107435
0.111052
0.114457
0.117654
0.120645
0.123435
0.126028
0.128428
0.130639
0.132664
0.134501
0.136151
0.137606
0.138859
0.139892
0.140683
0.141194
0.14138
0.141186
0.140508
0.139216
0.136957
0.125471
0.113936
0.102526
0.0913771
0.0805985
0.0702788
0.0604916
0.0512989
0.0427546
0.0349077
0.027792
0.0214683
0.0159886
0.0113944
0.00770059
0.00489924
0.00293122
0.00165428
0.00088615
0.000454101
0.000224232
0.000107849
5.08069e-05
2.35001e-05
1.0692e-05
4.7924e-06
2.11902e-06
9.25461e-07
3.99707e-07
1.7091e-07
7.24179e-08
3.04232e-08
1.2666e-08
5.21015e-09
2.09804e-09
8.04825e-10
2.69087e-10
4.74477e-11
4.77891e-07
2.08857e-06
4.7977e-06
9.33845e-06
1.69105e-05
2.94537e-05
5.00605e-05
8.35817e-05
0.000137483
0.000223006
0.00035664
0.000561842
0.000870755
0.00132548
0.00197812
0.00288886
0.00412134
0.00573575
0.00778086
0.0102873
0.0132642
0.0166991
0.0205615
0.0248075
0.0293842
0.034234
0.0392976
0.0445166
0.0498348
0.0551998
0.0605636
0.0658835
0.0711221
0.0762474
0.0812328
0.0860568
0.0907017
0.0951541
0.0994047
0.103447
0.107279
0.110899
0.114308
0.11751
0.120507
0.123303
0.125904
0.128314
0.130536
0.132572
0.134424
0.13609
0.137566
0.138841
0.139903
0.14073
0.141288
0.141531
0.141413
0.140843
0.139706
0.137886
0.126476
0.114981
0.103581
0.0924192
0.0816104
0.0712463
0.0614029
0.0521447
0.0435283
0.035608
0.0284369
0.0220374
0.0164657
0.0117639
0.00797806
0.00510543
0.00307292
0.00174242
0.000936689
0.000481312
0.000238159
0.000114678
5.40683e-05
2.50235e-05
1.13898e-05
5.10654e-06
2.25828e-06
9.8634e-07
4.25996e-07
1.82141e-07
7.71697e-08
3.24164e-08
1.34947e-08
5.55081e-09
2.23523e-09
8.57496e-10
2.86727e-10
5.05503e-11
4.7554e-07
2.0783e-06
4.77412e-06
9.2925e-06
1.68271e-05
2.93077e-05
4.98111e-05
8.31627e-05
0.00013679
0.000221875
0.000354824
0.000558975
0.00086632
0.00131877
0.00196822
0.00287466
0.00410158
0.00570912
0.00774609
0.0102433
0.0132101
0.0166343
0.0204856
0.0247204
0.029286
0.0341249
0.039178
0.044387
0.0496958
0.055052
0.0604079
0.0657207
0.070953
0.076073
0.081054
0.0858746
0.0905172
0.0949683
0.0992186
0.103262
0.107096
0.110718
0.114132
0.117338
0.120341
0.123145
0.125754
0.128174
0.130408
0.132458
0.134326
0.136011
0.137509
0.138813
0.13991
0.140782
0.141401
0.141719
0.141707
0.141285
0.140357
0.138827
0.127562
0.116149
0.104785
0.0936262
0.0827938
0.0723866
0.0624851
0.0531561
0.0444571
0.03644
0.0291615
0.0226602
0.0169893
0.0122026
0.00833053
0.00536583
0.00324879
0.00185174
0.000999663
0.00051533
0.000255607
0.000123241
5.8159e-05
2.69339e-05
1.22647e-05
5.50023e-06
2.43269e-06
1.06254e-06
4.58881e-07
1.96179e-07
8.31055e-08
3.49047e-08
1.45288e-08
5.97569e-09
2.40627e-09
9.23157e-10
3.0872e-10
5.44158e-11
4.7291e-07
2.06682e-06
4.74775e-06
9.24115e-06
1.67339e-05
2.91449e-05
4.95332e-05
8.26964e-05
0.000136019
0.000220619
0.000352809
0.0005558
0.000861414
0.00131135
0.00195729
0.002859
0.0040798
0.00567977
0.00770778
0.0101948
0.0131504
0.0165628