/*--------------------------------*- C++ -*----------------------------------*\
  =========                 |
  \\      /  F ield         | OpenFOAM: The Open Source CFD Toolbox
   \\    /   O peration     | Website:  https://openfoam.org
    \\  /    A nd           | Version:  8
     \\/     M anipulation  |
\*---------------------------------------------------------------------------*/
FoamFile
{
    version     2.0;
    format      ascii;
    class       volScalarField;
    location    "300/fluid";
    object      H2O;
}
// * * * * * * * * * * * * * * * * * * * * * * * * * * * * * * * * * * * * * //

dimensions      [0 0 0 0 0 0 0];

internalField   nonuniform List<scalar> 
4000
(
3.40729e-07
1.48813e-06
3.41397e-06
6.63369e-06
1.19908e-05
2.0852e-05
3.54061e-05
5.91103e-05
9.73362e-05
0.000158268
0.000254086
0.000402405
0.000627819
0.000963196
0.00145011
0.00213768
0.00307908
0.00432583
0.00592069
0.00789138
0.0102468
0.012977
0.0160558
0.0194457
0.0231019
0.026976
0.0310189
0.0351827
0.0394222
0.043696
0.0479663
0.0522002
0.0563689
0.0604484
0.0644192
0.0682655
0.0719748
0.0755379
0.0789482
0.0822018
0.0852966
0.0882326
0.0910109
0.0936339
0.0961046
0.0984266
0.100604
0.102641
0.104541
0.106307
0.107943
0.10945
0.110828
0.112076
0.11319
0.114164
0.114986
0.115642
0.11611
0.116355
0.116347
0.116024
0.115306
0.114087
0.10659
0.0979003
0.0891112
0.0803623
0.0717636
0.0634027
0.0553509
0.0476676
0.0404044
0.0336087
0.0273447
0.0216192
0.0165088
0.0120717
0.00836438
0.00543217
0.00327849
0.00183383
0.000955155
0.000467834
0.000219892
0.000100364
4.4776e-05
1.96178e-05
8.47068e-06
3.61428e-06
1.52717e-06
6.40115e-07
2.66496e-07
1.10277e-07
4.53369e-08
1.84633e-08
7.37887e-09
2.81667e-09
9.4e-10
1.64712e-10
3.45486e-07
1.50969e-06
3.4667e-06
6.74476e-06
1.22094e-05
2.12638e-05
3.6155e-05
6.0427e-05
9.95735e-05
0.000161934
0.000259862
0.00041112
0.00064035
0.000980272
0.00147203
0.00216397
0.00310828
0.00435545
0.00594758
0.00791235
0.0102594
0.0129801
0.0160502
0.0194328
0.0230836
0.0269543
0.0309962
0.0351612
0.039404
0.0436829
0.04796
0.0522021
0.0563802
0.0604698
0.0644507
0.0683068
0.0720254
0.0755969
0.0790147
0.0822748
0.0853752
0.0883158
0.0910977
0.0937234
0.0961959
0.0985189
0.100697
0.102733
0.104631
0.106396
0.108029
0.109531
0.110904
0.112146
0.113251
0.114213
0.115021
0.115659
0.116104
0.116323
0.116288
0.115946
0.115237
0.114103
0.105692
0.0969058
0.0880384
0.0792288
0.0705847
0.062192
0.0541206
0.0464295
0.0391711
0.0323946
0.0261775
0.0205105
0.0154881
0.0111706
0.00761515
0.00485838
0.00288282
0.00159182
0.000823937
0.000403998
0.000191033
8.79497e-05
3.96235e-05
1.75315e-05
7.63892e-06
3.28542e-06
1.39754e-06
5.88991e-07
2.46289e-07
1.02273e-07
4.21668e-08
1.72138e-08
6.89406e-09
2.63632e-09
8.80804e-10
1.54521e-10
3.52602e-07
1.54128e-06
3.5414e-06
6.89527e-06
1.24914e-05
2.17695e-05
3.70312e-05
6.18997e-05
0.000101976
0.000165736
0.000265688
0.000419747
0.000652667
0.000997173
0.00149425
0.00219187
0.0031416
0.00439314
0.00598781
0.00795272
0.0102974
0.0130133
0.0160769
0.0194526
0.0230974
0.0269643
0.0310048
0.0351714
0.0394187
0.0437044
0.0479904
0.0522428
0.056432
0.0605334
0.0645263
0.0683942
0.0721243
0.0757066
0.0791343
0.0824033
0.0855114
0.0884585
0.0912456
0.0938753
0.0963506
0.0986752
0.100853
0.102889
0.104785
0.106546
0.108174
0.109671
0.111035
0.112265
0.113356
0.114299
0.115081
0.115682
0.116072
0.116215
0.116067
0.115558
0.114603
0.113124
0.104293
0.0953096
0.0863177
0.0774337
0.0687524
0.0603521
0.0522988
0.0446501
0.0374584
0.0307738
0.024675
0.019157
0.0143141
0.0102021
0.00686819
0.00433015
0.00254552
0.00139812
0.000722918
0.000355297
0.00016863
7.7977e-05
3.52911e-05
1.56839e-05
6.8618e-06
2.96177e-06
1.26366e-06
5.33847e-07
2.23638e-07
9.29891e-08
3.83733e-08
1.56747e-08
6.28035e-09
2.40226e-09
8.02507e-10
1.40851e-10
3.58928e-07
1.56896e-06
3.60511e-06
7.01941e-06
1.27157e-05
2.21566e-05
3.76777e-05
6.29497e-05
0.000103637
0.000168297
0.000269534
0.000425367
0.000660642
0.00100814
0.00150883
0.00221055
0.00316459
0.00442034
0.00601875
0.0079867
0.0103336
0.0130511
0.0161159
0.0194927
0.0231391
0.0270084
0.0310526
0.0352241
0.0394778
0.0437714
0.0480666
0.0523293
0.0565297
0.0606427
0.0646474
0.0685272
0.0722687
0.0758618
0.0792995
0.0825774
0.0856933
0.0886469
0.0914394
0.0940729
0.0965508
0.0988767
0.101055
0.103088
0.104982
0.106739
0.108361
0.10985
0.111204
0.112422
0.113497
0.114419
0.115174
0.115737
0.116072
0.116138
0.115867
0.115152
0.113833
0.111329
0.102329
0.0932339
0.0841773
0.0752667
0.0665915
0.0582265
0.0502357
0.0426757
0.0355988
0.0290558
0.0230977
0.0177704
0.0131366
0.00924731
0.00614074
0.00381817
0.00221696
0.0012064
0.000620353
0.000304273
0.000144539
6.6989e-05
3.04123e-05
1.3564e-05
5.95693e-06
2.58111e-06
1.10536e-06
4.68601e-07
1.96923e-07
8.21064e-08
3.39618e-08
1.38995e-08
5.57752e-09
2.13559e-09
7.13934e-10
1.25395e-10
3.64347e-07
1.59261e-06
3.65931e-06
7.12458e-06
1.29051e-05
2.2484e-05
3.82273e-05
6.38511e-05
0.000105084
0.000170569
0.000273021
0.000430587
0.000668244
0.00101889
0.00152352
0.00222995
0.0031893
0.00445069
0.00605478
0.00802817
0.0103801
0.0131025
0.0161718
0.0195533
0.0232047
0.0270796
0.0311301
0.035309
0.039571
0.0438739
0.0481792
0.0524526
0.0566642
0.0607887
0.0648049
0.0686959
0.0724483
0.0760514
0.0794983
0.0827844
0.0859073
0.0888667
0.0916637
0.0943004
0.0967801
0.0991063
0.101283
0.103315
0.105205
0.106956
0.108571
0.110051
0.111395
0.1126
0.113661
0.114566
0.115302
0.115846
0.11616
0.116214
0.115944
0.115269
0.114077
0.108941
0.0999622
0.0908752
0.0818312
0.0729484
0.0643211
0.0560262
0.0481283
0.0406836
0.0337438
0.0273715
0.0215861
0.0164572
0.0120374
0.00837188
0.00548779
0.0033694
0.00193566
0.00104547
0.000535402
0.000262276
0.000124692
5.78899e-05
2.63381e-05
1.17739e-05
5.18257e-06
2.25043e-06
9.65662e-07
4.10109e-07
1.72612e-07
7.20671e-08
2.9843e-08
1.22248e-08
4.90863e-09
1.88044e-09
6.28804e-10
1.10494e-10
3.6885e-07
1.61221e-06
3.70407e-06
7.21098e-06
1.306e-05
2.27502e-05
3.86724e-05
6.4579e-05
0.000106251
0.000172403
0.000275845
0.000434843
0.00067451
0.00102788
0.00153609
0.00224701
0.00321177
0.00447938
0.00609034
0.00807103
0.0104305
0.0131605
0.0162376
0.0196271
0.0232867
0.0271701
0.0312296
0.035418
0.03969
0.0440033
0.0483193
0.0526038
0.0568265
0.060962
0.0649891
0.0688905
0.0726527
0.0762649
0.0797198
0.0830129
0.0861417
0.0891057
0.091906
0.0945447
0.097025
0.0993505
0.101525
0.103553
0.105438
0.107182
0.108789
0.110258
0.11159
0.11278
0.113822
0.114706
0.115417
0.115934
0.11622
0.116248
0.115961
0.115285
0.11413
0.106574
0.0976138
0.0885365
0.0795127
0.0706692
0.0621034
0.0538924
0.0461002
0.0387817
0.0319872
0.0257922
0.0201849
0.0152515
0.011039
0.00758617
0.00490925
0.00297655
0.00169149
0.000906165
0.000461626
0.00022551
0.000107164
4.97815e-05
2.26774e-05
1.01545e-05
4.47836e-06
1.9486e-06
8.37852e-07
3.56526e-07
1.50332e-07
6.28663e-08
2.60691e-08
1.06907e-08
4.29633e-09
1.64684e-09
5.50861e-10
9.68461e-11
3.72729e-07
1.62911e-06
3.74268e-06
7.28565e-06
1.31942e-05
2.29819e-05
3.90621e-05
6.52212e-05
0.00010729
0.000174056
0.000278423
0.000438783
0.0006804
0.00103648
0.0015483
0.00226387
0.00323436
0.00450875
0.00612738
0.00811647
0.0104849
0.0132242
0.0163109
0.0197102
0.0233799
0.0272736
0.0313437
0.0355429
0.0398259
0.0441503
0.0484776
0.0527731
0.0570067
0.0611528
0.0651899
0.0691009
0.0728718
0.0764918
0.0799536
0.0832524
0.0863858
0.0893532
0.0921555
0.094795
0.0972748
0.0995983
0.10177
0.103793
0.105671
0.107407
0.109004
0.110461
0.111777
0.112948
0.113966
0.114821
0.115494
0.11596
0.116183
0.116131
0.115743
0.114948
0.113694
0.104729
0.0955763
0.0864075
0.0773583
0.068536
0.0600266
0.0519003
0.044216
0.0370257
0.030377
0.0243393
0.0189086
0.0141641
0.0101485
0.00689462
0.00440788
0.00264169
0.00148657
0.000790664
0.000400925
0.000195423
9.28122e-05
4.31231e-05
1.96578e-05
8.81116e-06
3.89047e-06
1.69495e-06
7.29734e-07
3.10915e-07
1.31258e-07
5.495e-08
2.2808e-08
9.36049e-09
3.76391e-09
1.44324e-09
4.82819e-10
8.49198e-11
3.76145e-07
1.64399e-06
3.77671e-06
7.35152e-06
1.33127e-05
2.31869e-05
3.94078e-05
6.5793e-05
0.00010822
0.000175542
0.000280759
0.000442386
0.000685844
0.00104452
0.00155988
0.0022801
0.00325646
0.00453793
0.00616478
0.00816306
0.0105414
0.0132912
0.0163887
0.0197991
0.0234801
0.0273853
0.0314669
0.0356776
0.0399721
0.0443079
0.0486462
0.0529526
0.0571966
0.0613525
0.0653989
0.0693183
0.0730968
0.0767235
0.0801909
0.0834942
0.0866309
0.0896004
0.0924036
0.0950427
0.0975208
0.0998414
0.102008
0.104026
0.105897
0.107624
0.10921
0.110654
0.111953
0.113104
0.114097
0.114919
0.115547
0.115947
0.116079
0.115884
0.115265
0.114084
0.112129
0.102921
0.0936317
0.0844021
0.0753461
0.066557
0.0581114
0.0500736
0.0424985
0.0354353
0.0289298
0.0230253
0.0177656
0.0131994
0.00936658
0.00629462
0.00397868
0.00235883
0.00131537
0.000694849
0.000350705
0.000170583
8.09339e-05
3.75944e-05
1.71418e-05
7.68798e-06
3.39735e-06
1.48157e-06
6.3854e-07
2.72353e-07
1.15098e-07
4.82312e-08
2.0036e-08
8.22833e-09
3.31027e-09
1.26963e-09
4.24766e-10
7.47394e-11
3.7923e-07
1.65745e-06
3.80751e-06
7.41125e-06
1.34205e-05
2.33739e-05
3.97243e-05
6.6319e-05
0.00010908
0.000176927
0.000282951
0.000445793
0.000691034
0.00105225
0.00157112
0.00229598
0.00327826
0.00456696
0.00620228
0.00821009
0.0105988
0.0133596
0.0164686
0.0198908
0.0235836
0.0275007
0.0315942
0.0358166
0.0401226
0.0444695
0.0488187
0.0531353
0.0573891
0.061554
0.0656087
0.0695355
0.0733205
0.0769527
0.0804245
0.0837311
0.08687
0.0898404
0.0926434
0.0952811
0.0977566
0.100073
0.102235
0.104247
0.10611
0.107829
0.109404
0.110835
0.112121
0.113255
0.114229
0.115027
0.115628
0.115994
0.116089
0.11585
0.115185
0.113963
0.110196
0.100977
0.0916883
0.0824777
0.0734609
0.0647303
0.0563613
0.0484164
0.0409488
0.0340063
0.0276336
0.0218701
0.0167631
0.0123573
0.00868915
0.00578011
0.00361515
0.00212233
0.00117384
0.0006163
0.000309746
0.000150357
7.12603e-05
3.30858e-05
1.50856e-05
6.76764e-06
2.99213e-06
1.30569e-06
5.63153e-07
2.40386e-07
1.01667e-07
4.26341e-08
1.77221e-08
7.28171e-09
2.93045e-09
1.12414e-09
3.76087e-10
6.61959e-11
3.82053e-07
1.66976e-06
3.83573e-06
7.46605e-06
1.35195e-05
2.35462e-05
4.00167e-05
6.68065e-05
0.00010988
0.00017822
0.000285009
0.000449009
0.000695962
0.00105963
0.00158191
0.00231134
0.00329947
0.00459538
0.00623918
0.0082566
0.0106559
0.0134278
0.0165484
0.0199824
0.0236872
0.0276162
0.0317214
0.0359553
0.0402725
0.0446302
0.0489895
0.0533157
0.0575783
0.0617514
0.0658133
0.0697466
0.0735369
0.0771735
0.0806487
0.0839575
0.0870975
0.0900679
0.0928698
0.0955053
0.0979774
0.10029
0.102446
0.104451
0.106306
0.108016
0.109581
0.111001
0.112274
0.113395
0.114355
0.115139
0.115727
0.116083
0.116175
0.115948
0.115323
0.114198
0.108272
0.0991052
0.0898624
0.0807005
0.0717408
0.0630782
0.0547886
0.0469342
0.0395677
0.032736
0.0264955
0.0208591
0.0158891
0.0116272
0.00810628
0.00534181
0.00330904
0.00192547
0.00105718
0.000551996
0.000276347
0.000133885
6.3381e-05
2.94099e-05
1.34067e-05
6.01494e-06
2.66011e-06
1.16131e-06
5.01154e-07
2.14049e-07
9.05836e-08
3.8008e-08
1.5807e-08
6.49739e-09
2.61548e-09
1.00341e-09
3.35682e-10
5.91002e-11
3.84651e-07
1.6811e-06
3.86174e-06
7.51661e-06
1.36111e-05
2.37056e-05
4.02881e-05
6.72602e-05
0.000110627
0.000179432
0.000286944
0.000452045
0.000700633
0.00106666
0.00159223
0.00232607
0.00331989
0.00462281
0.0062749
0.00830172
0.0107113
0.0134942
0.0166261
0.0200717
0.0237881
0.0277286
0.0318452
0.0360901
0.0404178
0.0447855
0.0491542
0.0534891
0.0577597
0.06194
0.0660082
0.0699468
0.0737416
0.0773815
0.080859
0.0841692
0.0873094
0.0902789
0.0930789
0.0957114
0.0981795
0.100487
0.102637
0.104634
0.106481
0.108182
0.109736
0.111144
0.112404
0.113511
0.114455
0.115224
0.115795
0.116135
0.116215
0.115978
0.115342
0.114206
0.106639
0.0974836
0.0882629
0.0791358
0.0702237
0.0616211
0.053403
0.0456305
0.0383554
0.0316238
0.0254969
0.0199754
0.015129
0.0109963
0.00760687
0.00497009
0.00305235
0.00176222
0.000961335
0.000499516
0.000249203
0.00012052
5.69903e-05
2.64272e-05
1.20432e-05
5.40285e-06
2.38971e-06
1.04355e-06
4.50499e-07
1.92496e-07
8.14993e-08
3.42111e-08
1.42333e-08
5.85218e-09
2.35615e-09
9.03966e-10
3.02387e-10
5.32531e-11
3.87036e-07
1.69151e-06
3.88562e-06
7.56309e-06
1.36953e-05
2.38527e-05
4.05388e-05
6.76802e-05
0.000111321
0.000180559
0.000288748
0.000454883
0.000705011
0.00107326
0.00160195
0.00233998
0.00333921
0.00464881
0.00630882
0.00834462
0.010764
0.0135574
0.0167002
0.0201567
0.0238841
0.0278355
0.0319627
0.0362178
0.0405552
0.044932
0.0493093
0.053652
0.0579296
0.062116
0.0661896
0.0701327
0.0739309
0.0775734
0.0810524
0.084363
0.0875026
0.0904707
0.0932681
0.0958971
0.0983606
0.100662
0.102806
0.104795
0.106634
0.108323
0.109866
0.111261
0.112506
0.113595
0.11452
0.115266
0.115815
0.116132
0.116191
0.115941
0.115316
0.114249
0.105391
0.0961684
0.0869219
0.0777994
0.0689151
0.0603582
0.0521999
0.0444985
0.0373035
0.0306593
0.0246228
0.0192014
0.0144685
0.0104536
0.00718144
0.0046567
0.00283826
0.00162742
0.000882839
0.000456785
0.000227182
0.000109693
5.18156e-05
2.40116e-05
1.09383e-05
4.90636e-06
2.17014e-06
9.47801e-07
4.09264e-07
1.7493e-07
7.40862e-08
3.11092e-08
1.29463e-08
5.3241e-09
2.14377e-09
8.22484e-10
2.75098e-10
4.84626e-11
3.89203e-07
1.70098e-06
3.90736e-06
7.60541e-06
1.37721e-05
2.39868e-05
4.07678e-05
6.80645e-05
0.000111956
0.000181594
0.000290408
0.000457498
0.000709052
0.00107937
0.00161095
0.00235287
0.00335714
0.00467297
0.00634035
0.00838453
0.0108131
0.0136162
0.016769
0.0202357
0.0239733
0.0279347
0.0320715
0.0363359
0.0406821
0.0450671
0.0494519
0.0538014
0.0580851
0.0622768
0.0663548
0.0703014
0.0741023
0.0777465
0.0812262
0.0845367
0.0876753
0.0906413
0.0934358
0.0960608
0.0985195
0.100815
0.102952
0.104933
0.106762
0.10844
0.10997
0.111349
0.112576
0.113644
0.114543
0.115257
0.115764
0.116026
0.116017
0.115673
0.114915
0.113663
0.104442
0.0950993
0.0857966
0.0766605
0.0677917
0.0592711
0.0511643
0.0435262
0.0364037
0.0298396
0.0238799
0.0185568
0.0139135
0.00999423
0.00682337
0.00439529
0.00266128
0.00151691
0.000818912
0.00042215
0.000209385
0.000100953
4.76402e-05
2.20622e-05
1.00461e-05
4.50517e-06
1.99255e-06
8.70284e-07
3.75844e-07
1.60677e-07
6.80651e-08
2.85873e-08
1.18991e-08
4.89407e-09
1.97073e-09
7.56072e-10
2.52854e-10
4.45565e-11
3.91143e-07
1.70945e-06
3.92681e-06
7.64331e-06
1.38409e-05
2.41072e-05
4.09735e-05
6.841e-05
0.000112528
0.000182527
0.000291905
0.000459862
0.000712708
0.0010849
0.0016191
0.00236457
0.00337342
0.00469491
0.00636899
0.00842077
0.0108576
0.0136695
0.0168315
0.0203074
0.0240541
0.0280244
0.0321699
0.0364425
0.0407964
0.0451886
0.0495799
0.0539353
0.058224
0.0624201
0.0665017
0.070451
0.0742538
0.0778991
0.0813791
0.0846889
0.087826
0.0907897
0.093581
0.096202
0.0986556
0.100945
0.103075
0.105048
0.106867
0.108535
0.110051
0.111415
0.112623
0.113668
0.114538
0.115215
0.115672
0.115871
0.115775
0.11531
0.114381
0.112894
0.103554
0.0941425
0.0848094
0.0756715
0.0668221
0.0583368
0.0502778
0.0426977
0.035643
0.0291581
0.0232864
0.0180463
0.013484
0.00963394
0.00653389
0.00418158
0.00251701
0.00142725
0.00076727
0.000394257
0.000195081
9.39343e-05
4.42872e-05
2.04963e-05
9.32908e-06
4.18256e-06
1.84963e-06
8.07847e-07
3.48901e-07
1.49176e-07
6.32023e-08
2.65489e-08
1.1052e-08
4.54603e-09
1.83062e-09
7.02286e-10
2.34838e-10
4.13908e-11
3.92839e-07
1.71686e-06
3.94383e-06
7.67649e-06
1.39012e-05
2.42127e-05
4.11539e-05
6.87133e-05
0.00011303
0.000183347
0.000293224
0.000461944
0.000715931
0.00108978
0.0016263
0.0023749
0.00338779
0.00471429
0.00639428
0.00845277
0.010897
0.0137166
0.0168865
0.0203705
0.0241252
0.0281034
0.0322563
0.036536
0.0408965
0.0452948
0.0496916
0.0540518
0.0583448
0.0625444
0.0666287
0.0705802
0.0743843
0.0780301
0.0815099
0.0848187
0.0879541
0.0909154
0.0937034
0.0963204
0.0987692
0.101053
0.103176
0.105142
0.106952
0.10861
0.110114
0.111465
0.112657
0.113682
0.114529
0.115177
0.115595
0.115748
0.115588
0.115034
0.113979
0.112136
0.102731
0.0932867
0.083945
0.0748171
0.0659924
0.0575435
0.0495303
0.042004
0.0350084
0.0285838
0.0227576
0.0175798
0.013093
0.00933112
0.00630633
0.0040123
0.00240066
0.0013549
0.000725799
0.000371934
0.000183658
8.83343e-05
4.16132e-05
1.92475e-05
8.75711e-06
3.92508e-06
1.73551e-06
7.57958e-07
3.27359e-07
1.39974e-07
5.9309e-08
2.49158e-08
1.0373e-08
4.26693e-09
1.71823e-09
6.59133e-10
2.20385e-10
3.88497e-11
3.94277e-07
1.72313e-06
3.95826e-06
7.70462e-06
1.39523e-05
2.43022e-05
4.1307e-05
6.8971e-05
0.000113457
0.000184045
0.000294346
0.000463716
0.000718677
0.00109394
0.00163244
0.00238371
0.00340005
0.00473082
0.00641585
0.00848005
0.0109305
0.0137567
0.0169334
0.0204242
0.0241857
0.0281704
0.0323296
0.0366152
0.0409813
0.0453846
0.0497858
0.05415
0.0584463
0.0626485
0.066735
0.0706878
0.0744927
0.0781386
0.0816179
0.0849256
0.0880592
0.091018
0.093803
0.0964163
0.0988607
0.10114
0.103257
0.105216
0.107019
0.108668
0.110163
0.111503
0.112684
0.113697
0.114529
0.115163
0.115566
0.115705
0.115533
0.114974
0.113926
0.111433
0.102
0.0925476
0.0832137
0.0741062
0.0653112
0.0568988
0.048927
0.0414411
0.0344847
0.0280973
0.0223217
0.017198
0.0127675
0.00906247
0.00610165
0.00387337
0.00230924
0.00129785
0.000692997
0.000354321
0.00017466
8.39251e-05
3.95081e-05
1.82644e-05
8.30675e-06
3.7223e-06
1.6456e-06
7.18638e-07
3.10373e-07
1.32715e-07
5.62367e-08
2.36267e-08
9.83689e-09
4.04649e-09
1.62944e-09
6.25043e-10
2.08967e-10
3.68422e-11
3.95441e-07
1.72822e-06
3.96994e-06
7.72741e-06
1.39937e-05
2.43748e-05
4.14312e-05
6.91801e-05
0.000113804
0.000184612
0.000295257
0.000465157
0.00072091
0.00109732
0.00163743
0.00239088
0.00341003
0.00474427
0.0064334
0.00850224
0.0109577
0.0137893
0.0169715
0.0204679
0.0242348
0.0282247
0.032389
0.0366794
0.0410497
0.045457
0.0498618
0.0542289
0.0585277
0.0627319
0.0668197
0.0707734
0.0745787
0.0782244
0.081703
0.0850095
0.0881413
0.0910979
0.0938801
0.09649
0.0989306
0.101205
0.103318
0.105271
0.107068
0.10871
0.110199
0.111531
0.112704
0.11371
0.114536
0.115166
0.115569
0.115714
0.115562
0.115041
0.114063
0.110825
0.101384
0.0919378
0.0826187
0.0735305
0.0647583
0.0563706
0.0484239
0.0409697
0.0340504
0.0277061
0.021974
0.0168955
0.0125118
0.00885461
0.00594156
0.00375773
0.00223605
0.00125447
0.000667947
0.000340775
0.000167731
8.05305e-05
3.78879e-05
1.7508e-05
7.96038e-06
3.56638e-06
1.57648e-06
6.88416e-07
2.97318e-07
1.27136e-07
5.38752e-08
2.26358e-08
9.42472e-09
3.87703e-09
1.56119e-09
5.9884e-10
2.00192e-10
3.52995e-11
3.9632e-07
1.73206e-06
3.97877e-06
7.74462e-06
1.4025e-05
2.44296e-05
4.15251e-05
6.93381e-05
0.000114066
0.000185041
0.000295947
0.000466249
0.000722602
0.00109988
0.00164122
0.00239631
0.0034176
0.00475447
0.00644672
0.00851908
0.0109784
0.013814
0.0170004
0.0205009
0.0242719
0.0282659
0.0324339
0.0367278
0.0411014
0.0455116
0.0499189
0.0542882
0.0585887
0.0627941
0.0668828
0.0708369
0.0746421
0.0782875
0.0817653
0.0850706
0.0882009
0.0911555
0.0939353
0.0965424
0.0989797
0.101251
0.103359
0.105308
0.1071
0.108737
0.11022
0.111547
0.112714
0.113715
0.114538
0.115166
0.115571
0.115724
0.115587
0.115093
0.114158
0.110341
0.100898
0.0914567
0.0821472
0.073075
0.0643231
0.0559596
0.0480408
0.0406155
0.0337265
0.0274138
0.0217146
0.0166704
0.0123222
0.00870102
0.00582354
0.00367265
0.00217868
0.00121978
0.000649119
0.000330759
0.000162617
7.80295e-05
3.66965e-05
1.69527e-05
7.70646e-06
3.45222e-06
1.52592e-06
6.66322e-07
2.87778e-07
1.23061e-07
5.21503e-08
2.1912e-08
9.12372e-09
3.75329e-09
1.51137e-09
5.79715e-10
1.93788e-10
3.41741e-11
3.96908e-07
1.73463e-06
3.98467e-06
7.75612e-06
1.40459e-05
2.44662e-05
4.15877e-05
6.94435e-05
0.000114241
0.000185326
0.000296407
0.000466976
0.000723729
0.00110159
0.00164375
0.00239994
0.00342265
0.00476129
0.00645562
0.00853035
0.0109923
0.0138306
0.0170198
0.0205231
0.0242968
0.0282934
0.032464
0.0367603
0.041136
0.0455481
0.049957
0.0543276
0.0586292
0.0628353
0.0669244
0.0708785
0.0746835
0.0783283
0.0818054
0.0851097
0.0882387
0.0911917
0.0939696
0.0965745
0.0990094
0.101278
0.103383
0.105328
0.107116
0.108749
0.110228
0.11155
0.112713
0.11371
0.114529
0.115155
0.115561
0.115716
0.115587
0.115107
0.114194
0.110012
0.10056
0.0911212
0.0818216
0.0727629
0.0640272
0.0556817
0.0477824
0.0403774
0.0335094
0.0272186
0.0215416
0.0165207
0.0121964
0.00859955
0.00574594
0.00361713
0.00214181
0.00119709
0.000636095
0.000323943
0.000159183
7.63777e-05
3.59177e-05
1.65922e-05
7.54221e-06
3.37847e-06
1.49324e-06
6.5202e-07
2.81586e-07
1.20408e-07
5.10253e-08
2.14393e-08
8.92695e-09
3.67235e-09
1.47877e-09
5.67199e-10
1.89597e-10
3.3438e-11
3.972e-07
1.7359e-06
3.98758e-06
7.76178e-06
1.40561e-05
2.44841e-05
4.16182e-05
6.94947e-05
0.000114326
0.000185464
0.000296629
0.000467326
0.000724271
0.00110241
0.00164496
0.00240168
0.00342508
0.00476457
0.00645991
0.00853579
0.010999
0.0138386
0.0170292
0.0205339
0.024309
0.0283069
0.0324787
0.0367762
0.041153
0.045566
0.0499757
0.054347
0.058649
0.0628555
0.0669446
0.0708987
0.0747033
0.0783478
0.0818243
0.085128
0.0882562
0.0912083
0.0939851
0.0965888
0.0990221
0.101289
0.103392
0.105335
0.107121
0.108751
0.110227
0.111547
0.112707
0.113701
0.114517
0.115141
0.115545
0.115701
0.115574
0.115102
0.114206
0.109848
0.100387
0.0909469
0.081652
0.0726013
0.0638751
0.05554
0.0476515
0.0402576
0.0334009
0.0271216
0.0214564
0.0164474
0.0121352
0.00855051
0.00570872
0.0035907
0.00212438
0.00118639
0.00062994
0.000320616
0.000157495
7.55694e-05
3.55389e-05
1.64178e-05
7.46318e-06
3.34314e-06
1.47764e-06
6.45206e-07
2.7864e-07
1.19144e-07
5.0487e-08
2.12122e-08
8.83207e-09
3.63319e-09
1.46295e-09
5.61109e-10
1.87554e-10
3.30794e-11
3.97208e-07
1.73594e-06
3.98767e-06
7.76195e-06
1.40564e-05
2.44846e-05
4.16191e-05
6.94961e-05
0.000114328
0.000185468
0.000296635
0.000467335
0.000724285
0.00110243
0.00164499
0.00240172
0.00342514
0.00476463
0.00646
0.00853589
0.0109991
0.0138388
0.0170293
0.020534
0.0243092
0.0283071
0.0324789
0.0367764
0.0411532
0.0455662
0.049976
0.0543472
0.0586492
0.0628557
0.0669448
0.0708989
0.0747035
0.078348
0.0818245
0.0851282
0.0882564
0.0912085
0.0939853
0.0965889
0.0990223
0.101289
0.103392
0.105335
0.107121
0.108751
0.110227
0.111547
0.112707
0.113701
0.114517
0.115141
0.115545
0.115701
0.115574
0.115102
0.114206
0.109848
0.100386
0.090946
0.0816513
0.0726005
0.0638744
0.0555393
0.0476509
0.040257
0.0334004
0.0271211
0.021456
0.016447
0.0121349
0.00855026
0.00570852
0.00359056
0.00212429
0.00118633
0.000629907
0.000320598
0.000157486
7.55652e-05
3.5537e-05
1.64169e-05
7.46278e-06
3.34296e-06
1.47756e-06
6.45172e-07
2.78625e-07
1.19138e-07
5.04843e-08
2.12111e-08
8.83162e-09
3.63301e-09
1.46288e-09
5.61081e-10
1.87543e-10
3.30787e-11
3.96933e-07
1.73474e-06
3.98491e-06
7.7566e-06
1.40468e-05
2.44677e-05
4.15902e-05
6.94477e-05
0.000114248
0.000185337
0.000296424
0.000467002
0.000723769
0.00110165
0.00164383
0.00240006
0.00342281
0.00476149
0.00645587
0.00853065
0.0109926
0.013831
0.0170202
0.0205236
0.0242974
0.028294
0.0324646
0.0367609
0.0411366
0.0455487
0.0499577
0.0543283
0.0586298
0.062836
0.066925
0.0708791
0.0746841
0.0783289
0.0818059
0.0851102
0.0882392
0.0911922
0.0939701
0.096575
0.0990098
0.101278
0.103383
0.105328
0.107116
0.108749
0.110228
0.111551
0.112714
0.11371
0.11453
0.115156
0.115561
0.115717
0.115587
0.115107
0.114194
0.110009
0.100558
0.0911189
0.0818193
0.0727607
0.0640252
0.0556798
0.0477806
0.0403757
0.0335079
0.0272172
0.0215404
0.0165196
0.0121955
0.0085988
0.00574537
0.00361672
0.00214154
0.00119693
0.000636004
0.000323899
0.000159161
7.63677e-05
3.59131e-05
1.659e-05
7.54122e-06
3.37803e-06
1.49305e-06
6.51934e-07
2.81549e-07
1.20392e-07
5.10188e-08
2.14366e-08
8.92584e-09
3.67189e-09
1.47859e-09
5.67126e-10
1.8957e-10
3.34365e-11
3.96362e-07
1.73224e-06
3.97919e-06
7.74543e-06
1.40265e-05
2.44321e-05
4.15294e-05
6.93452e-05
0.000114078
0.000185059
0.000295977
0.000466294
0.00072267
0.00109998
0.00164136
0.00239651
0.00341787
0.00475482
0.00644715
0.00851961
0.010979
0.0138147
0.0170012
0.0205018
0.0242729
0.0282668
0.0324349
0.0367289
0.0411025
0.0455127
0.04992
0.0542893
0.0585898
0.0627952
0.0668839
0.070838
0.0746432
0.0782885
0.0817662
0.0850715
0.0882018
0.0911563
0.0939361
0.0965431
0.0989804
0.101251
0.10336
0.105308
0.1071
0.108737
0.11022
0.111547
0.112714
0.113715
0.114538
0.115166
0.115571
0.115724
0.115587
0.115093
0.114159
0.110336
0.100894
0.0914527
0.0821434
0.0730713
0.0643197
0.0559564
0.0480379
0.0406127
0.0337239
0.0274115
0.0217125
0.0166686
0.0123206
0.00869973
0.00582254
0.00367193
0.00217821
0.00121951
0.000648974
0.000330683
0.000162579
7.80114e-05
3.66879e-05
1.69487e-05
7.70465e-06
3.45141e-06
1.52557e-06
6.66171e-07
2.87714e-07
1.23034e-07
5.2139e-08
2.19074e-08
9.12184e-09
3.75253e-09
1.51107e-09
5.79594e-10
1.93744e-10
3.41716e-11
3.95498e-07
1.72847e-06
3.97052e-06
7.72852e-06
1.39957e-05
2.43782e-05
4.14371e-05
6.91898e-05
0.00011382
0.000184637
0.000295298
0.00046522
0.000721004
0.00109746
0.00163763
0.00239116
0.0034104
0.00474475
0.00643401
0.00850298
0.0109586
0.0137903
0.0169726
0.0204691
0.0242361
0.0282261
0.0323904
0.0366808
0.0410512
0.0454585
0.0498633
0.0542305
0.0585292
0.0627334
0.0668212
0.0707749
0.0745801
0.0782258
0.0817044
0.0850108
0.0881426
0.0910991
0.0938813
0.0964911
0.0989316
0.101206
0.103318
0.105272
0.107068
0.108711
0.110199
0.111532
0.112704
0.11371
0.114536
0.115166
0.115569
0.115714
0.115562
0.115042
0.114065
0.110818
0.101378
0.0919321
0.0826132
0.0735253
0.0647535
0.0563662
0.0484198
0.0409659
0.034047
0.0277029
0.0219712
0.016893
0.0125097
0.00885285
0.00594019
0.00375675
0.00223543
0.0012541
0.000667746
0.000340669
0.000167677
8.05045e-05
3.78758e-05
1.75025e-05
7.95791e-06
3.56529e-06
1.57601e-06
6.88216e-07
2.97234e-07
1.27101e-07
5.38606e-08
2.26298e-08
9.42226e-09
3.87603e-09
1.56079e-09
5.98681e-10
2.00133e-10
3.52964e-11
3.94349e-07
1.72345e-06
3.95899e-06
7.70604e-06
1.39548e-05
2.43066e-05
4.13145e-05
6.89835e-05
0.000113478
0.000184078
0.000294397
0.000463796
0.000718797
0.00109412
0.0016327
0.00238407
0.00340053
0.00473144
0.00641663
0.008481
0.0109316
0.013758
0.0169348
0.0204258
0.0241874
0.0281722
0.0323315
0.0366172
0.0409832
0.0453866
0.0497879
0.054152
0.0584483
0.0626505
0.0667369
0.0706897
0.0744946
0.0781404
0.0816197
0.0849274
0.0880609
0.0910196
0.0938045
0.0964177
0.0988621
0.101141
0.103258
0.105217
0.10702
0.108669
0.110164
0.111504
0.112684
0.113697
0.114529
0.115163
0.115566
0.115705
0.115534
0.114975
0.113927
0.111424
0.101992
0.0925404
0.0832069
0.0740996
0.065305
0.056893
0.0489216
0.0414361
0.0344802
0.0280933
0.0223181
0.0171948
0.0127648
0.00906026
0.00609999
0.00387224
0.00230852
0.00129741
0.000692736
0.000354183
0.000174591
8.38927e-05
3.94931e-05
1.82576e-05
8.30372e-06
3.72097e-06
1.64502e-06
7.18394e-07
3.1027e-07
1.32672e-07
5.62189e-08
2.36194e-08
9.83388e-09
4.04527e-09
1.62895e-09
6.24847e-10
2.08894e-10
3.68384e-11
3.92927e-07
1.71724e-06
3.94471e-06
7.6782e-06
1.39043e-05
2.4218e-05
4.11629e-05
6.87284e-05
0.000113055
0.000183387
0.000293286
0.00046204
0.000716077
0.00109
0.00162661
0.00237533
0.00338838
0.00471505
0.00639524
0.00845393
0.0108983
0.0137182
0.0168883
0.0203725
0.0241273
0.0281056
0.0322586
0.0365384
0.040899
0.0452973
0.0496941
0.0540543
0.0583473
0.0625468
0.0666312
0.0705826
0.0743866
0.0780323
0.0815121
0.0848209
0.0879562
0.0909173
0.0937053
0.0963222
0.0987709
0.101055
0.103178
0.105143
0.106953
0.108611
0.110115
0.111465
0.112657
0.113682
0.114528
0.115176
0.115595
0.115747
0.115587
0.115033
0.113975
0.112126
0.102722
0.0932785
0.0839372
0.0748097
0.0659853
0.0575366
0.049524
0.041998
0.0350028
0.0285787
0.022753
0.0175759
0.0130897
0.00932853
0.00630441
0.00401097
0.00239976
0.00135434
0.000725484
0.000371769
0.000183577
8.82954e-05
4.15951e-05
1.92394e-05
8.75348e-06
3.9235e-06
1.73483e-06
7.57667e-07
3.27236e-07
1.39923e-07
5.92879e-08
2.49072e-08
1.03695e-08
4.2655e-09
1.71765e-09
6.58903e-10
2.20299e-10
3.8845e-11
3.91245e-07
1.70989e-06
3.92784e-06
7.64531e-06
1.38445e-05
2.41135e-05
4.09841e-05
6.84276e-05
0.000112556
0.000182573
0.000291978
0.000459975
0.00071288
0.00108516
0.00161947
0.00236508
0.00337411
0.00469581
0.00637012
0.00842214
0.0108593
0.0136714
0.0168335
0.0203097
0.0240566
0.0280271
0.0321726
0.0364454
0.0407993
0.0451916
0.0495829
0.0539383
0.058227
0.0624231
0.0665046
0.0704539
0.0742567
0.0779019
0.0813818
0.0846915
0.0878285
0.0907921
0.0935833
0.0962041
0.0986577
0.100947
0.103077
0.10505
0.106869
0.108536
0.110052
0.111416
0.112624
0.113668
0.114538
0.115214
0.115671
0.11587
0.115774
0.115307
0.114376
0.112886
0.103545
0.0941336
0.0848006
0.0756628
0.0668137
0.0583287
0.0502701
0.0426904
0.0356363
0.029152
0.023281
0.0180418
0.0134803
0.00963104
0.00653157
0.00417977
0.00251577
0.0014265
0.000766859
0.000394046
0.000194979
9.38862e-05
4.42653e-05
2.04865e-05
9.32474e-06
4.18068e-06
1.84883e-06
8.07508e-07
3.48759e-07
1.49117e-07
6.31781e-08
2.6539e-08
1.1048e-08
4.5444e-09
1.82996e-09
7.02024e-10
2.34741e-10
4.13851e-11
3.8932e-07
1.70149e-06
3.90853e-06
7.60768e-06
1.37762e-05
2.3994e-05
4.07799e-05
6.80846e-05
0.000111989
0.000181647
0.000290491
0.000457628
0.000709249
0.00107966
0.00161137
0.00235346
0.00335793
0.00467401
0.00634165
0.00838611
0.010815
0.0136183
0.0167714
0.0202384
0.0239762
0.0279378
0.0320747
0.0363392
0.0406855
0.0450706
0.0494554
0.0538049
0.0580886
0.0622803
0.0663582
0.0703048
0.0741056
0.0777497
0.0812294
0.0845398
0.0876782
0.0906442
0.0934385
0.0960634
0.0985219
0.100818
0.102954
0.104935
0.106764
0.108442
0.109971
0.111351
0.112577
0.113645
0.114543
0.115257
0.115764
0.116024
0.116015
0.115669
0.114909
0.113656
0.104434
0.0950899
0.0857869
0.0766509
0.0677825
0.0592623
0.051156
0.0435184
0.0363966
0.0298331
0.0238743
0.0185517
0.013909
0.00999017
0.00682013
0.00439296
0.00265975
0.001516
0.000818416
0.000421897
0.000209263
0.000100896
4.76142e-05
2.20506e-05
1.0041e-05
4.50299e-06
1.99162e-06
8.69895e-07
3.75682e-07
1.6061e-07
6.80378e-08
2.85762e-08
1.18946e-08
4.89224e-09