/*--------------------------------*- C++ -*----------------------------------*\
  =========                 |
  \\      /  F ield         | OpenFOAM: The Open Source CFD Toolbox
   \\    /   O peration     | Website:  https://openfoam.org
    \\  /    A nd           | Version:  8
     \\/     M anipulation  |
\*---------------------------------------------------------------------------*/
FoamFile
{
    version     2.0;
    format      ascii;
    class       volScalarField;
    location    "300/fluid";
    object      N2;
}
// * * * * * * * * * * * * * * * * * * * * * * * * * * * * * * * * * * * * * //

dimensions      [0 0 0 0 0 0 0];

internalField   nonuniform List<scalar> 
4000
(
2.03716e-06
8.89716e-06
2.04106e-05
3.96581e-05
7.16803e-05
0.000124644
0.000211627
0.000353282
0.000581698
0.000945758
0.00151821
0.00240424
0.00375071
0.00575388
0.00866198
0.0127682
0.0183901
0.0258352
0.0353588
0.0471265
0.0611916
0.0774945
0.0958788
0.116121
0.137953
0.161085
0.185224
0.210082
0.235391
0.2609
0.286385
0.311649
0.336518
0.360852
0.384533
0.407466
0.42958
0.450817
0.47114
0.490528
0.50897
0.526468
0.543031
0.558678
0.57343
0.587317
0.600368
0.612617
0.624099
0.63485
0.644907
0.654304
0.66308
0.671267
0.678901
0.686014
0.692639
0.698805
0.704542
0.709755
0.714721
0.719343
0.723645
0.727621
0.731429
0.735074
0.738559
0.741887
0.74506
0.748076
0.750934
0.753627
0.756152
0.758498
0.760651
0.762612
0.764359
0.765876
0.767143
0.768145
0.76888
0.769374
0.769674
0.76984
0.769925
0.769966
0.769985
0.769993
0.769997
0.769999
0.769999
0.77
0.77
0.77
0.77
0.77
0.77
0.77
0.77
0.77
2.06542e-06
9.02533e-06
2.07245e-05
4.03199e-05
7.29838e-05
0.000127101
0.000216097
0.000361145
0.000595061
0.00096766
0.00155272
0.00245631
0.0038256
0.00585594
0.00879297
0.0129253
0.0185645
0.026012
0.0355191
0.0472509
0.0612653
0.0775107
0.0958419
0.116039
0.137838
0.160949
0.185079
0.209944
0.235271
0.26081
0.286334
0.311646
0.336572
0.360967
0.384708
0.4077
0.429869
0.451157
0.471526
0.490953
0.50943
0.526956
0.543543
0.559209
0.573975
0.587872
0.600929
0.613181
0.624663
0.635412
0.645464
0.654855
0.663623
0.671802
0.679426
0.68653
0.693145
0.699302
0.705029
0.710222
0.715179
0.719793
0.724085
0.728032
0.731848
0.735496
0.738984
0.742315
0.74549
0.748508
0.751366
0.754058
0.756577
0.758915
0.76105
0.76299
0.764707
0.766183
0.767398
0.76834
0.769015
0.769456
0.769719
0.769862
0.769935
0.76997
0.769986
0.769994
0.769997
0.769999
0.77
0.77
0.77
0.77
0.77
0.77
0.77
0.77
0.77
0.77
2.10807e-06
9.21466e-06
2.11719e-05
4.12211e-05
7.46722e-05
0.000130128
0.000221339
0.000369953
0.000609427
0.000990387
0.00158754
0.00250788
0.0038992
0.0059569
0.00892569
0.0130919
0.0187634
0.0262368
0.0357587
0.047491
0.0614903
0.0777066
0.0959977
0.116152
0.137913
0.160998
0.18512
0.209992
0.235344
0.260923
0.2865
0.311873
0.336867
0.361331
0.385144
0.408208
0.430445
0.451798
0.472227
0.491708
0.510232
0.5278
0.544421
0.560114
0.574902
0.588814
0.601881
0.614138
0.62562
0.636365
0.646409
0.65579
0.664544
0.672708
0.680315
0.6874
0.693996
0.700135
0.705814
0.711001
0.715948
0.720545
0.72482
0.728738
0.732544
0.736185
0.739668
0.742992
0.746158
0.749164
0.752005
0.754676
0.757168
0.759472
0.761564
0.763452
0.765108
0.766514
0.767653
0.768521
0.769131
0.769523
0.769753
0.769879
0.769942
0.769973
0.769988
0.769995
0.769998
0.769999
0.77
0.77
0.77
0.77
0.77
0.77
0.77
0.77
0.77
0.77
2.14596e-06
9.38043e-06
2.15535e-05
4.19645e-05
7.60145e-05
0.000132444
0.000225207
0.000376234
0.000619363
0.0010057
0.00161053
0.00254146
0.00394685
0.00602243
0.00901276
0.0132034
0.0189005
0.0263989
0.0359429
0.0476929
0.0617049
0.0779296
0.0962265
0.116386
0.138155
0.161253
0.185394
0.210293
0.235681
0.261306
0.286936
0.31237
0.337428
0.36196
0.385843
0.408977
0.431282
0.452699
0.473188
0.492724
0.511296
0.528905
0.545561
0.561282
0.576091
0.590018
0.603093
0.615353
0.626833
0.637571
0.647604
0.656969
0.665705
0.673847
0.68143
0.688489
0.695055
0.70116
0.706748
0.711895
0.716819
0.721398
0.725659
0.729573
0.733376
0.737011
0.740481
0.743789
0.746935
0.749916
0.752726
0.75536
0.757809
0.760061
0.762103
0.763926
0.76551
0.76684
0.767902
0.768695
0.769243
0.769588
0.769788
0.769896
0.769951
0.769977
0.76999
0.769995
0.769998
0.769999
0.77
0.77
0.77
0.77
0.77
0.77
0.77
0.77
0.77
0.77
2.17843e-06
9.52208e-06
2.18781e-05
4.25942e-05
7.7149e-05
0.000134404
0.000228496
0.000381626
0.000628015
0.00101929
0.00163138
0.00257265
0.00399226
0.00608658
0.00910045
0.0133191
0.0190479
0.0265797
0.0361574
0.0479395
0.0619813
0.0782336
0.0965568
0.116743
0.13854
0.16167
0.185847
0.210789
0.236224
0.261902
0.287591
0.313086
0.338209
0.362809
0.386758
0.409958
0.432326
0.453803
0.474347
0.493933
0.512549
0.530195
0.546881
0.562626
0.577452
0.591389
0.604469
0.616727
0.6282
0.638925
0.648941
0.658286
0.666998
0.675112
0.682666
0.689695
0.696232
0.702311
0.707859
0.712962
0.717838
0.722366
0.726574
0.730491
0.734276
0.737891
0.74134
0.744624
0.747741
0.750688
0.753459
0.756049
0.758446
0.760638
0.76262
0.764374
0.765885
0.767139
0.768125
0.768849
0.769339
0.769643
0.769817
0.76991
0.769957
0.76998
0.769991
0.769996
0.769998
0.769999
0.77
0.77
0.77
0.77
0.77
0.77
0.77
0.77
0.77
0.77
2.20541e-06
9.63954e-06
2.21462e-05
4.31117e-05
7.80761e-05
0.000135997
0.000231159
0.00038598
0.000634992
0.00103025
0.00164825
0.00259807
0.00402967
0.00614027
0.00917544
0.0134209
0.0191818
0.0267507
0.036369
0.0481943
0.0622806
0.0785779
0.0969466
0.117179
0.139023
0.162203
0.186432
0.211428
0.236921
0.262659
0.28841
0.313969
0.339157
0.36382
0.387833
0.411094
0.43352
0.45505
0.475643
0.495271
0.513924
0.5316
0.548311
0.564072
0.578909
0.59285
0.605929
0.618179
0.629639
0.640347
0.65034
0.659658
0.668339
0.67642
0.683936
0.690924
0.697416
0.703446
0.708912
0.713975
0.718817
0.723309
0.727449
0.731401
0.73517
0.738764
0.742188
0.745443
0.748526
0.751435
0.754164
0.756705
0.75905
0.761178
0.763098
0.764786
0.766226
0.767407
0.768322
0.768983
0.769422
0.76969
0.769842
0.769923
0.769963
0.769983
0.769992
0.769997
0.769998
0.769999
0.77
0.77
0.77
0.77
0.77
0.77
0.77
0.77
0.77
0.77
2.22864e-06
9.74072e-06
2.23774e-05
4.35587e-05
7.88792e-05
0.000137383
0.00023349
0.00038982
0.000641204
0.00104012
0.00166365
0.00262159
0.00406483
0.00619154
0.00924826
0.0135214
0.0193164
0.0269255
0.0365894
0.0484644
0.0626035
0.0789557
0.0973807
0.117671
0.139574
0.162813
0.187104
0.212163
0.23772
0.263522
0.289338
0.314962
0.340213
0.364938
0.389009
0.412325
0.434803
0.45638
0.477013
0.496677
0.515359
0.533059
0.549786
0.565558
0.580399
0.594338
0.607409
0.619646
0.631088
0.641773
0.651739
0.661026
0.669672
0.677714
0.685189
0.692132
0.698577
0.704551
0.709945
0.715094
0.719876
0.724314
0.728364
0.732288
0.736031
0.739599
0.742994
0.746217
0.749264
0.752133
0.754818
0.75731
0.759603
0.761675
0.763534
0.765157
0.76653
0.767643
0.768493
0.769097
0.769492
0.76973
0.769863
0.769933
0.769968
0.769985
0.769993
0.769997
0.769999
0.769999
0.77
0.77
0.77
0.77
0.77
0.77
0.77
0.77
0.77
0.77
2.24909e-06
9.82981e-06
2.25811e-05
4.39528e-05
7.95882e-05
0.000138609
0.000235556
0.000393236
0.000646756
0.001049
0.00167759
0.00264309
0.0040973
0.00623948
0.00931728
0.0136181
0.019448
0.0270991
0.0368118
0.0487413
0.062939
0.079353
0.097842
0.118198
0.140167
0.163473
0.187831
0.212957
0.238581
0.264449
0.29033
0.316017
0.341328
0.36611
0.390236
0.413601
0.436124
0.45774
0.478408
0.4981
0.516804
0.53452
0.551257
0.567033
0.581872
0.595804
0.608861
0.621081
0.6325
0.643158
0.653094
0.662347
0.670957
0.678959
0.686393
0.693292
0.699692
0.705567
0.710915
0.716044
0.720794
0.725199
0.729215
0.733113
0.736832
0.740373
0.743739
0.74693
0.749942
0.752772
0.755413
0.757858
0.760099
0.762124
0.763924
0.765486
0.766797
0.767848
0.76864
0.769194
0.76955
0.769763
0.76988
0.769942
0.769972
0.769987
0.769994
0.769997
0.769999
0.769999
0.77
0.77
0.77
0.77
0.77
0.77
0.77
0.77
0.77
0.77
2.26754e-06
9.91027e-06
2.27652e-05
4.43098e-05
8.02322e-05
0.000139726
0.000237447
0.000396376
0.00065189
0.00105726
0.00169066
0.00266341
0.00412823
0.00628554
0.00938418
0.0137126
0.0195777
0.0272718
0.0370348
0.0490207
0.06328
0.0797591
0.0983157
0.11874
0.140779
0.164156
0.188583
0.213778
0.239469
0.265402
0.291346
0.317093
0.342461
0.367296
0.39147
0.414879
0.43744
0.459089
0.479784
0.499498
0.518218
0.535943
0.552684
0.568458
0.58329
0.59721
0.610251
0.622449
0.633843
0.644472
0.654376
0.663594
0.672166
0.68013
0.687524
0.694383
0.700743
0.706551
0.711848
0.716922
0.721628
0.725991
0.729995
0.733872
0.737566
0.741081
0.744419
0.747578
0.750555
0.753347
0.755947
0.758349
0.760542
0.762519
0.764266
0.765774
0.767028
0.768023
0.768764
0.769274
0.769599
0.769789
0.769894
0.769949
0.769976
0.769989
0.769995
0.769998
0.769999
0.77
0.77
0.77
0.77
0.77
0.77
0.77
0.77
0.77
0.77
0.77
2.28441e-06
9.98385e-06
2.29338e-05
4.46371e-05
8.08234e-05
0.000140754
0.000239191
0.000399284
0.000656662
0.00106497
0.00170292
0.00268257
0.00415758
0.00632952
0.00944845
0.013804
0.0197039
0.0274408
0.0372541
0.049297
0.0636185
0.0801637
0.0987888
0.119283
0.141393
0.164839
0.189335
0.214598
0.240355
0.266351
0.292355
0.318157
0.343577
0.36846
0.392677
0.416123
0.438717
0.460393
0.481109
0.500839
0.519568
0.537298
0.554038
0.569806
0.584627
0.598531
0.611552
0.623726
0.635093
0.645691
0.655562
0.664745
0.673279
0.681204
0.688558
0.695376
0.701695
0.707459
0.712707
0.717732
0.722382
0.726691
0.730701
0.734557
0.738228
0.741718
0.745028
0.748157
0.751102
0.75386
0.756423
0.758785
0.760932
0.762863
0.764564
0.766023
0.767227
0.768173
0.768868
0.769342
0.769639
0.769811
0.769906
0.769954
0.769978
0.76999
0.769995
0.769998
0.769999
0.77
0.77
0.77
0.77
0.77
0.77
0.77
0.77
0.77
0.77
0.77
2.29992e-06
1.00515e-05
2.30889e-05
4.49386e-05
8.13692e-05
0.000141705
0.000240809
0.000401988
0.000661113
0.00107219
0.00171445
0.00270064
0.00418538
0.00637134
0.00950982
0.0138916
0.0198253
0.0276038
0.0374663
0.049565
0.0639476
0.0805576
0.0992499
0.119813
0.141991
0.165505
0.190068
0.215396
0.241214
0.26727
0.293329
0.319183
0.34465
0.369574
0.393828
0.417307
0.439928
0.461626
0.482358
0.502098
0.520832
0.538562
0.555298
0.571056
0.585863
0.599749
0.612748
0.624897
0.636236
0.646803
0.656641
0.665789
0.674287
0.682175
0.68949
0.696268
0.702539
0.708246
0.713449
0.71844
0.723061
0.727306
0.731329
0.735164
0.738814
0.74228
0.745566
0.748668
0.751584
0.75431
0.75684
0.759166
0.761273
0.763165
0.764824
0.766238
0.767398
0.7683
0.768956
0.769397
0.769671
0.769829
0.769915
0.769959
0.769981
0.769991
0.769996
0.769998
0.769999
0.77
0.77
0.77
0.77
0.77
0.77
0.77
0.77
0.77
0.77
0.77
2.31412e-06
1.01135e-05
2.32313e-05
4.52155e-05
8.18709e-05
0.00014258
0.000242301
0.000404487
0.000665237
0.00107889
0.00172518
0.00271752
0.00421141
0.00641061
0.00956759
0.0139743
0.0199401
0.0277583
0.0376678
0.0498197
0.0642606
0.0809325
0.099689
0.120317
0.14256
0.166139
0.190765
0.216152
0.242029
0.268138
0.294248
0.320148
0.345656
0.370618
0.394904
0.41841
0.441052
0.462767
0.483511
0.503257
0.521994
0.53972
0.556448
0.572195
0.586986
0.600853
0.613829
0.625953
0.637264
0.647801
0.657606
0.66672
0.675183
0.683033
0.690309
0.697043
0.703281
0.708944
0.714127
0.719092
0.723683
0.727857
0.731873
0.735693
0.739324
0.742772
0.746035
0.749113
0.752003
0.754701
0.757201
0.759496
0.761571
0.763429
0.765049
0.766423
0.767543
0.768407
0.769029
0.769443
0.769698
0.769844
0.769922
0.769963
0.769982
0.769992
0.769996
0.769998
0.769999
0.77
0.77
0.77
0.77
0.77
0.77
0.77
0.77
0.77
0.77
0.77
2.32702e-06
1.01698e-05
2.33605e-05
4.54672e-05
8.23274e-05
0.000143378
0.000243662
0.000406771
0.000669012
0.00108504
0.00173504
0.00273306
0.00423542
0.00644688
0.00962104
0.0140509
0.0200466
0.0279018
0.037855
0.0500566
0.0645518
0.0812814
0.100098
0.120786
0.14309
0.166728
0.191411
0.216854
0.242782
0.26894
0.295095
0.321035
0.34658
0.371574
0.395887
0.419416
0.442075
0.463803
0.484554
0.504304
0.52304
0.540762
0.55748
0.573214
0.587989
0.601836
0.614791
0.62689
0.638174
0.648683
0.658458
0.66754
0.675971
0.683789
0.691033
0.697748
0.703966
0.709543
0.714715
0.719661
0.724227
0.728364
0.732359
0.73616
0.739773
0.743201
0.746443
0.749499
0.752366
0.755038
0.757511
0.759777
0.761825
0.763649
0.765238
0.76658
0.767665
0.768496
0.76909
0.769481
0.76972
0.769856
0.769928
0.769965
0.769984
0.769992
0.769997
0.769998
0.769999
0.77
0.77
0.77
0.77
0.77
0.77
0.77
0.77
0.77
0.77
0.77
2.33854e-06
1.02201e-05
2.3476e-05
4.56922e-05
8.27359e-05
0.000144092
0.000244883
0.000408822
0.000672406
0.00109058
0.00174393
0.00274708
0.00425712
0.0064797
0.00966944
0.0141203
0.0201432
0.028032
0.0380249
0.0502717
0.0648162
0.0815981
0.100468
0.121211
0.143569
0.167261
0.191995
0.217487
0.243462
0.269663
0.295857
0.321833
0.347409
0.37243
0.396766
0.420312
0.442986
0.464723
0.48548
0.505231
0.523964
0.541679
0.558387
0.574108
0.588868
0.602697
0.61563
0.627707
0.638966
0.649449
0.659197
0.668252
0.676654
0.684444
0.69166
0.698337
0.704489
0.710012
0.715295
0.720188
0.724715
0.728818
0.732789
0.73657
0.740163
0.743572
0.746795
0.74983
0.752675
0.755325
0.757772
0.76001
0.762027
0.763823
0.765385
0.766703
0.767764
0.768569
0.769139
0.769512
0.769738
0.769865
0.769933
0.769968
0.769985
0.769993
0.769997
0.769999
0.769999
0.77
0.77
0.77
0.77
0.77
0.77
0.77
0.77
0.77
0.77
0.77
2.34859e-06
1.0264e-05
2.35768e-05
4.58887e-05
8.30929e-05
0.000144717
0.000245951
0.000410618
0.000675382
0.00109544
0.00175174
0.00275942
0.00427621
0.00650861
0.0097121
0.0141815
0.0202284
0.0281469
0.0381749
0.0504615
0.0650495
0.0818775
0.100795
0.121586
0.143992
0.16773
0.192509
0.218044
0.244059
0.270297
0.296524
0.32253
0.348133
0.373176
0.39753
0.421092
0.443776
0.46552
0.48628
0.506031
0.52476
0.542468
0.559167
0.574876
0.58962
0.603432
0.616347
0.628403
0.63964
0.6501
0.659824
0.668855
0.677232
0.684996
0.692187
0.698843
0.704946
0.71045
0.715724
0.720599
0.725107
0.729192
0.733148
0.736914
0.740492
0.743885
0.747091
0.750109
0.752935
0.755564
0.75799
0.760206
0.762207
0.763981
0.765518
0.766806
0.767842
0.768627
0.769178
0.769536
0.769752
0.769873
0.769937
0.76997
0.769986
0.769993
0.769997
0.769999
0.769999
0.77
0.77
0.77
0.77
0.77
0.77
0.77
0.77
0.77
0.77
0.77
2.35708e-06
1.03011e-05
2.36621e-05
4.60549e-05
8.33949e-05
0.000145246
0.000246856
0.000412141
0.000677906
0.00109956
0.00175837
0.0027699
0.00429245
0.0065332
0.00974842
0.0142336
0.020301
0.0282447
0.0383027
0.0506232
0.0652483
0.0821155
0.101074
0.121906
0.144352
0.168129
0.192946
0.218517
0.244565
0.270834
0.297089
0.32312
0.348744
0.373805
0.398175
0.421748
0.44444
0.466189
0.486951
0.506701
0.525426
0.543128
0.559818
0.575515
0.590247
0.604044
0.616942
0.62898
0.640199
0.650639
0.660343
0.669352
0.677708
0.685451
0.692619
0.699253
0.705325
0.71081
0.716067
0.720925
0.725416
0.729493
0.733439
0.737193
0.740759
0.744138
0.747329
0.750332
0.753142
0.755756
0.758168
0.760372
0.762355
0.764111
0.765629
0.766897
0.767911
0.768674
0.76921
0.769556
0.769763
0.769879
0.76994
0.769971
0.769986
0.769994
0.769997
0.769999
0.769999
0.77
0.77
0.77
0.77
0.77
0.77
0.77
0.77
0.77
0.77
0.77
2.36394e-06
1.03311e-05
2.37309e-05
4.61891e-05
8.36388e-05
0.000145673
0.000247588
0.000413372
0.000679949
0.0011029
0.00176374
0.0027784
0.00430562
0.00655316
0.00977791
0.014276
0.0203599
0.0283243
0.0384065
0.0507546
0.0654098
0.0823089
0.1013
0.122165
0.144644
0.168453
0.193301
0.2189
0.244976
0.27127
0.297547
0.323597
0.349238
0.374314
0.398695
0.422277
0.444975
0.466727
0.487491
0.507239
0.52596
0.543657
0.560339
0.576027
0.590747
0.604532
0.617416
0.62944
0.640643
0.651068
0.660755
0.669748
0.678087
0.685812
0.692962
0.699578
0.705637
0.711106
0.716346
0.721187
0.72566
0.72973
0.733667
0.737411
0.740967
0.744336
0.747519
0.750512
0.753313
0.755916
0.758316
0.760504
0.762473
0.764214
0.765715
0.766968
0.767966
0.768714
0.769235
0.769571
0.769771
0.769883
0.769943
0.769972
0.769987
0.769994
0.769997
0.769999
0.769999
0.77
0.77
0.77
0.77
0.77
0.77
0.77
0.77
0.77
0.77
0.77
2.3691e-06
1.03536e-05
2.37827e-05
4.62901e-05
8.38223e-05
0.000145995
0.000248138
0.000414299
0.000681488
0.00110542
0.0017678
0.00278481
0.00431557
0.00656824
0.0098002
0.014308
0.0204045
0.0283845
0.0384852
0.0508542
0.0655322
0.0824554
0.101471
0.122361
0.144865
0.168698
0.19357
0.219191
0.245287
0.271599
0.297893
0.323958
0.349612
0.374698
0.399087
0.422675
0.445378
0.467133
0.487897
0.507643
0.526362
0.544054
0.56073
0.57641
0.591122
0.604897
0.617771
0.629784
0.640975
0.651387
0.661061
0.67004
0.678365
0.686077
0.693215
0.699818
0.70587
0.711324
0.716551
0.721378
0.725838
0.729905
0.733837
0.737576
0.741126
0.744489
0.747664
0.750649
0.753441
0.756035
0.758425
0.760603
0.762561
0.76429
0.76578
0.76702
0.768006
0.768742
0.769254
0.769582
0.769778
0.769887
0.769944
0.769973
0.769987
0.769994
0.769997
0.769999
0.769999
0.77
0.77
0.77
0.77
0.77
0.77
0.77
0.77
0.77
0.77
0.77
2.37253e-06
1.03686e-05
2.38171e-05
4.63571e-05
8.39442e-05
0.000146208
0.000248504
0.000414915
0.000682509
0.00110709
0.00177049
0.00278907
0.00432217
0.00657827
0.00981502
0.0143293
0.0204343
0.0284246
0.0385377
0.0509207
0.0656141
0.0825536
0.101586
0.122493
0.145014
0.168863
0.19375
0.219386
0.245495
0.27182
0.298125
0.3242
0.349862
0.374955
0.39935
0.422942
0.445648
0.467404
0.488168
0.507914
0.52663
0.544318
0.56099
0.576666
0.591372
0.60514
0.618007
0.630012
0.641195
0.651599
0.661265
0.670236
0.678553
0.686257
0.693387
0.699981
0.706027
0.711472
0.716689
0.721507
0.725958
0.730023
0.733951
0.737686
0.741232
0.744591
0.747761
0.75074
0.753526
0.756114
0.758497
0.760668
0.762619
0.76434
0.765822
0.767054
0.768032
0.768761
0.769267
0.76959
0.769782
0.769889
0.769946
0.769974
0.769988
0.769994
0.769997
0.769999
0.769999
0.77
0.77
0.77
0.77
0.77
0.77
0.77
0.77
0.77
0.77
0.77
2.37422e-06
1.0376e-05
2.38339e-05
4.63899e-05
8.40035e-05
0.000146312
0.00024868
0.000415211
0.000682999
0.00110789
0.00177177
0.0027911
0.00432533
0.00658305
0.0098221
0.0143395
0.0204485
0.0284439
0.0385629
0.0509527
0.0656536
0.0826011
0.101642
0.122557
0.145086
0.168944
0.193838
0.219482
0.245598
0.271929
0.298239
0.324319
0.349985
0.375082
0.39948
0.423074
0.445782
0.467539
0.488303
0.508048
0.526764
0.54445
0.56112
0.576793
0.591496
0.605261
0.618125
0.630126
0.641306
0.651705
0.661368
0.670334
0.678647
0.686347
0.693473
0.700062
0.706105
0.711546
0.716759
0.721572
0.726018
0.730082
0.734008
0.737741
0.741285
0.744641
0.747808
0.750786
0.753569
0.756153
0.758533
0.7607
0.762647
0.764365
0.765843
0.767071
0.768045
0.76877
0.769273
0.769594
0.769784
0.76989
0.769946
0.769974
0.769988
0.769994
0.769997
0.769999
0.769999
0.77
0.77
0.77
0.77
0.77
0.77
0.77
0.77
0.77
0.77
0.77
2.37425e-06
1.03761e-05
2.38343e-05
4.63905e-05
8.40047e-05
0.000146314
0.000248684
0.000415217
0.000683009
0.0011079
0.0017718
0.00279114
0.00432539
0.00658315
0.00982225
0.0143397
0.0204488
0.0284443
0.0385634
0.0509534
0.0656544
0.082602
0.101643
0.122558
0.145087
0.168945
0.19384
0.219483
0.245599
0.27193
0.298241
0.324321
0.349987
0.375083
0.399481
0.423076
0.445783
0.46754
0.488304
0.50805
0.526765
0.544452
0.561121
0.576794
0.591497
0.605262
0.618126
0.630127
0.641307
0.651706
0.661368
0.670335
0.678648
0.686348
0.693473
0.700063
0.706106
0.711546
0.716759
0.721572
0.726018
0.730082
0.734008
0.737741
0.741285
0.744641
0.747809
0.750786
0.753569
0.756153
0.758533
0.7607
0.762647
0.764365
0.765843
0.767071
0.768045
0.76877
0.769273
0.769594
0.769784
0.76989
0.769946
0.769974
0.769988
0.769994
0.769997
0.769999
0.769999
0.77
0.77
0.77
0.77
0.77
0.77
0.77
0.77
0.77
0.77
0.77
2.37263e-06
1.0369e-05
2.38181e-05
4.63591e-05
8.39477e-05
0.000146215
0.000248514
0.000414933
0.000682539
0.00110714
0.00177057
0.00278919
0.00432237
0.00657857
0.00981546
0.01433
0.0204352
0.0284258
0.0385392
0.0509226
0.0656164
0.0825562
0.101589
0.122497
0.145017
0.168867
0.193754
0.21939
0.2455
0.271825
0.29813
0.324205
0.349867
0.37496
0.399354
0.422947
0.445653
0.467409
0.488172
0.507918
0.526634
0.544322
0.560994
0.576669
0.591375
0.605143
0.61801
0.630015
0.641198
0.651601
0.661267
0.670238
0.678555
0.686259
0.693389
0.699983
0.706029
0.711473
0.716691
0.721508
0.725958
0.730024
0.733952
0.737687
0.741233
0.744591
0.747762
0.750741
0.753527
0.756115
0.758498
0.760668
0.762619
0.76434
0.765822
0.767055
0.768032
0.768761
0.769267
0.76959
0.769782
0.769889
0.769946
0.769974
0.769988
0.769994
0.769997
0.769999
0.769999
0.77
0.77
0.77
0.77
0.77
0.77
0.77
0.77
0.77
0.77
0.77
2.36927e-06
1.03544e-05
2.37844e-05
4.62935e-05
8.38286e-05
0.000146006
0.000248157
0.000414332
0.000681542
0.00110551
0.00176794
0.00278504
0.00431592
0.00656878
0.00980098
0.0143091
0.0204061
0.0283865
0.0384878
0.0508575
0.0655362
0.0824601
0.101477
0.122367
0.144871
0.168705
0.193577
0.219198
0.245294
0.271607
0.297901
0.323966
0.34962
0.374706
0.399095
0.422683
0.445386
0.467141
0.487904
0.507651
0.526369
0.54406
0.560736
0.576416
0.591128
0.604903
0.617777
0.629789
0.64098
0.651391
0.661065
0.670044
0.678369
0.686081
0.693219
0.699821
0.705873
0.711327
0.716554
0.72138
0.725839
0.729907
0.733838
0.737577
0.741128
0.744491
0.747666
0.750651
0.753442
0.756036
0.758426
0.760604
0.762561
0.76429
0.76578
0.767021
0.768006
0.768743
0.769254
0.769583
0.769778
0.769887
0.769944
0.769973
0.769987
0.769994
0.769997
0.769999
0.769999
0.77
0.77
0.77
0.77
0.77
0.77
0.77
0.77
0.77
0.77
0.77
2.36419e-06
1.03322e-05
2.37334e-05
4.6194e-05
8.36479e-05
0.000145689
0.000247615
0.000413419
0.000680027
0.00110303
0.00176395
0.00277872
0.00430612
0.00655392
0.00977902
0.0142776
0.0203621
0.0283272
0.0384103
0.0507593
0.0654154
0.0823154
0.101307
0.122173
0.144653
0.168462
0.193311
0.218911
0.244987
0.271281
0.297558
0.323609
0.34925
0.374325
0.398706
0.422288
0.444986
0.466738
0.487501
0.507249
0.52597
0.543666
0.560348
0.576035
0.590755
0.604539
0.617424
0.629447
0.64065
0.651074
0.660761
0.669753
0.678092
0.685817
0.692967
0.699583
0.705641
0.71111
0.716349
0.72119
0.725662
0.729732
0.733669
0.737413
0.740969
0.744338
0.74752
0.750514
0.753314
0.755917
0.758317
0.760505
0.762474
0.764215
0.765716
0.766969
0.767966
0.768714
0.769235
0.769571
0.769771
0.769883
0.769943
0.769972
0.769987
0.769994
0.769997
0.769999
0.769999
0.77
0.77
0.77
0.77
0.77
0.77
0.77
0.77
0.77
0.77
0.77
2.35741e-06
1.03026e-05
2.36654e-05
4.60614e-05
8.34068e-05
0.000145267
0.000246892
0.000412202
0.000678008
0.00109973
0.00175864
0.00277032
0.0042931
0.00653418
0.00974986
0.0142357
0.0203038
0.0282485
0.0383075
0.0506292
0.0652555
0.0821239
0.101083
0.121916
0.144363
0.168141
0.19296
0.218531
0.24458
0.270849
0.297104
0.323135
0.348759
0.37382
0.398189
0.421762
0.444454
0.466203
0.486965
0.506714
0.525439
0.54314
0.559829
0.575526
0.590257
0.604054
0.616951
0.628989
0.640207
0.650647
0.66035
0.669359
0.677715
0.685457
0.692625
0.699258
0.70533
0.710815
0.716071
0.720928
0.72542
0.729497
0.733442
0.737196
0.740761
0.74414
0.747332
0.750334
0.753144
0.755758
0.75817
0.760373
0.762357
0.764112
0.765629
0.766898
0.767912
0.768675
0.76921
0.769556
0.769763
0.769879
0.76994
0.769971
0.769986
0.769994
0.769997
0.769999
0.769999
0.77
0.77
0.77
0.77
0.77
0.77
0.77
0.77
0.77
0.77
0.77
2.349e-06
1.02658e-05
2.3581e-05
4.58969e-05
8.31078e-05
0.000144743
0.000245996
0.000410694
0.000675508
0.00109564
0.00175207
0.00275994
0.00427702
0.00650982
0.00971388
0.014184
0.0202318
0.0281515
0.0381808
0.0504689
0.0650584
0.0818879
0.100807
0.1216
0.144006
0.167745
0.192526
0.218061
0.244077
0.270315
0.296542
0.322549
0.348151
0.373194
0.397548
0.421109
0.443793
0.465537
0.486297
0.506047
0.524775
0.542483
0.559181
0.574889
0.589633
0.603444
0.616358
0.628414
0.63965
0.65011
0.659833
0.668863
0.67724
0.685004
0.692195
0.69885
0.704952
0.710456
0.715729
0.720603
0.725111
0.729197
0.733152
0.736917
0.740495
0.743887
0.747094
0.750111
0.752937
0.755566
0.757992
0.760208
0.762209
0.763983
0.765519
0.766807
0.767842
0.768627
0.769179
0.769537
0.769752
0.769873
0.769937
0.76997
0.769986
0.769993
0.769997
0.769999
0.769999
0.77
0.77
0.77
0.77
0.77
0.77
0.77
0.77
0.77
0.77
0.77
2.33904e-06
1.02223e-05
2.3481e-05
4.5702e-05
8.27539e-05
0.000144124
0.000244937
0.000408913
0.000672557
0.00109082
0.00174432
0.00274771
0.00425808
0.00648114
0.00967155
0.0141233
0.0201473
0.0280375
0.038032
0.0502805
0.0648268
0.0816105
0.100482
0.121227
0.143587
0.167279
0.192015
0.217508
0.243483
0.269685
0.295879
0.321855
0.347431
0.372452
0.396787
0.420334
0.443007
0.464743
0.485499
0.50525
0.523982
0.541696
0.558404
0.574124
0.588883
0.602711
0.615644
0.627719
0.638978
0.64946
0.659207
0.668262
0.676663
0.684452
0.691668
0.698345
0.704496
0.710018
0.7153
0.720192
0.72472
0.728822
0.732793
0.736573
0.740167
0.743575
0.746798
0.749833
0.752678
0.755327
0.757775
0.760012
0.762029
0.763824
0.765386
0.766704
0.767765
0.76857
0.769139
0.769512
0.769738
0.769865
0.769933
0.769968
0.769985
0.769993
0.769997
0.769999
0.769999
0.77
0.77
0.77
0.77
0.77
0.77
0.77
0.77
0.77
0.77
0.77
2.32761e-06
1.01724e-05
2.33664e-05
4.54788e-05
8.23486e-05
0.000143415
0.000243726
0.000406878
0.00066919
0.00108533
0.0017355
0.00273379
0.00423654
0.00644857
0.0096235
0.0140544
0.0200514
0.0279082
0.0378632
0.0500669
0.0645642
0.0812959
0.100114
0.120804
0.14311
0.166749
0.191434
0.216877
0.242807
0.268966
0.29512
0.321061
0.346606
0.3716
0.395912
0.41944
0.4421
0.463826
0.484577
0.504326
0.523061
0.540782
0.557499
0.573232
0.588007
0.601853
0.614806
0.626905
0.638187
0.648695
0.65847
0.667551
0.675981
0.683798
0.691042
0.697757
0.703974
0.70955
0.714721
0.719666
0.724232
0.728367
0.732362
0.736164
0.739777
0.743205
0.746447
0.749502
0.752369
0.755041
0.757513
0.759779
0.761827
0.76365
0.76524
0.766581
0.767666
0.768497
0.76909
0.769481
0.76972
0.769856
0.769928
0.769966
0.769984
0.769992
0.769997
0.769998
0.769999
0.77
0.77
0.77
0.77
0.77
0.77
0.77
0.77
0.77
0.77
0.77
2.31481e-06
1.01165e-05
2.32381e-05
4.52289e-05
8.18953e-05
0.000142623
0.000242374
0.000404611
0.000665441
0.00107922
0.00172571
0.00271836
0.0042127
0.00641254
0.00957041
0.0139783
0.0199456
0.0277657
0.0376772
0.0498315
0.0642747
0.0809491
0.0997079
0.120338
0.142583
0.166164
0.190791
0.21618
0.242057
0.268167
0.294277
0.320177
0.345686
0.370647
0.394933
0.418439
0.44108
0.462794
0.483537
0.503282
0.522018
0.539744
0.55647
0.572216
0.587006
0.600872
0.613847
0.62597
0.637279
0.647815
0.65762
0.666732
0.675194
0.683044
0.690319
0.697053
0.703292
0.708957
0.714136
0.7191
0.72369
0.727861
0.731876
0.735697
0.739329
0.742776
0.746039
0.749117
0.752007
0.754705
0.757204
0.759499
0.761574
0.763431
0.765051
0.766425
0.767544
0.768408
0.76903
0.769444
0.769698
0.769844
0.769922
0.769963
0.769982
0.769992
0.769996
0.769998
0.769999
0.77
0.77
0.77
0.77
0.77
0.77
0.77
0.77
0.77
0.77
0.77
2.3007e-06
1.00549e-05
2.30968e-05
4.49539e-05
8.13971e-05
0.000141754
0.000240892
0.000402128
0.000661344
0.00107256
0.00171505
0.00270159
0.00418684
0.00637352
0.00951301
0.0138961
0.0198315
0.0276121
0.037477
0.0495783
0.0639635
0.0805763
0.0992713
0.119837
0.142017
0.165533
0.190098
0.215427
0.241246
0.267303
0.293362
0.319216
0.344683
0.369607
0.393861
0.41734
0.439959
0.461656
0.482387
0.502126
0.52086
0.538589
0.555322
0.57108
0.585885
0.59977
0.612768
0.624916
0.636253
0.646819
0.656656
0.665802
0.674299
0.682185
0.689499
0.696275
0.702543
0.708247
0.713453
0.718445
0.723067
0.727311
0.731334
0.73517
0.738819
0.742285
0.74557
0.748672
0.751588
0.754313
0.756843
0.759169
0.761276
0.763167
0.764826
0.76624
0.767399
0.768301
0.768957
0.769398
0.769672
0.769829
0.769915
0.769959
0.769981
0.769991
0.769996
0.769998
0.769999
0.77
0.77
0.77
0.77
0.77
0.77
0.77
0.77
0.77
0.77
0.77
2.28529e-06
9.9877e-06
2.29426e-05
4.46543e-05
8.08548e-05
0.000140809
0.000239285
0.000399442
0.000656922
0.00106539
0.0017036
0.00268362
0.00415921
0.00633196
0.00945201
0.0138091
0.0197109
0.0274501
0.037266
0.0493118
0.0636364
0.0801847
0.0988127
0.11931
0.141422
0.16487
0.189369
0.214633
0.24039
0.266388
0.292392
0.318194
0.343614
0.368497
0.392713
0.416159
0.438752
0.460427
0.481142
0.50087
0.519599
0.537327
0.554066
0.569832
0.584652
0.598554
0.611574
0.623747
0.635112
0.645709
0.655579
0.66476
0.673294
0.681218
0.688571
0.695388
0.701706
0.707468
0.712715
0.717739
0.722388
0.726696
0.730706
0.734562
0.738233
0.741723
0.745033
0.748162
0.751107
0.753864
0.756426
0.758788
0.760935
0.762866
0.764567
0.766025
0.767229
0.768174
0.768869
0.769342
0.769639
0.769811
0.769906
0.769954
0.769978
0.76999
0.769995
0.769998
0.769999
0.77
0.77
0.77
0.77
0.77
0.77
0.77
0.77
0.77
0.77
0.77
2.26853e-06
9.91456e-06
2.27751e-05
4.43291e-05
8.02671e-05
0.000139787
0.000237551
0.000396551
0.000652179
0.00105773
0.00169141
0.00266458
0.00413003
0.00628824
0.00938812
0.0137182
0.0195854
0.0272821
0.037048
0.0490371
0.0632998
0.0797824
0.0983422
0.11877
0.140812
0.16419
0.18862
0.213816
0.239509
0.265443
0.291387
0.317134
0.342502
0.367337
0.39151
0.414919
0.437479
0.459127
0.479821
0.499533
0.518251
0.535975
0.552715
0.568487
0.583318
0.597236
0.610275
0.622471
0.633864
0.644491
0.654394
0.663611
0.672181
0.680144
0.687536
0.694394
0.700753
0.70656
0.711856
0.716929
0.721635
0.725998
0.730003
0.733879
0.737573
0.741087
0.744424
0.747583
0.75056
0.753352
0.755952
0.758353
0.760546
0.762522
0.764269
0.765776
0.76703
0.768025
0.768765
0.769275
0.769599
0.76979
0.769894
0.769949
0.769976
0.769989
0.769995
0.769998
0.769999
0.77
0.77
0.77
0.77
0.77
0.77
0.77
0.77
0.77
0.77
0.77
2.25018e-06
9.83456e-06
2.2592e-05
4.3974e-05
7.96269e-05
0.000138677
0.000235671
0.000393429
0.000647074
0.00104951
0.00167841
0.00264438
0.00409927
0.00624244
0.00932161
0.0136242
0.0194564
0.0271104
0.0368264
0.0487594
0.0629609
0.0793787
0.0978713
0.11823
0.140203
0.163512
0.187871
0.213
0.238625
0.264494
0.290375
0.316062
0.341374
0.366156
0.39028
0.413645
0.436166
0.457782
0.478448
0.498139
0.516841
0.534555
0.551291
0.567065
0.581902
0.595832
0.608888
0.621106
0.632524
0.64318
0.653114
0.662366
0.670973
0.678975
0.686407
0.693305
0.699703
0.705576
0.710923
0.71605
0.720801
0.725208
0.729224
0.733121
0.736838
0.740379
0.743745
0.746936
0.749947
0.752777
0.755417
0.757862
0.760103
0.762128
0.763927
0.765489