/*--------------------------------*- C++ -*----------------------------------*\
  =========                 |
  \\      /  F ield         | OpenFOAM: The Open Source CFD Toolbox
   \\    /   O peration     | Website:  https://openfoam.org
    \\  /    A nd           | Version:  8
     \\/     M anipulation  |
\*---------------------------------------------------------------------------*/
FoamFile
{
    version     2.0;
    format      ascii;
    class       volScalarField;
    location    "300/fluid";
    object      O2;
}
// * * * * * * * * * * * * * * * * * * * * * * * * * * * * * * * * * * * * * //

dimensions      [0 0 0 0 0 0 0];

internalField   nonuniform List<scalar> 
4000
(
3.89744e-10
1.70149e-09
3.89955e-09
7.56471e-09
1.36409e-08
2.36449e-08
3.99821e-08
6.64066e-08
1.0867e-07
1.75388e-07
2.79128e-07
4.37629e-07
6.7493e-07
1.02199e-06
1.51613e-06
2.19866e-06
3.1103e-06
4.28468e-06
5.74168e-06
7.48268e-06
9.4897e-06
1.1729e-05
1.41588e-05
1.66941e-05
1.92811e-05
2.18633e-05
2.43866e-05
2.68019e-05
2.90662e-05
3.11429e-05
3.30011e-05
3.46148e-05
3.60241e-05
3.72411e-05
3.83156e-05
3.93463e-05
4.04935e-05
4.19919e-05
4.41598e-05
4.74078e-05
5.22514e-05
5.93335e-05
6.94585e-05
8.36392e-05
0.00010316
0.000129661
0.000165252
0.000212658
0.000275411
0.000358094
0.000466653
0.000608796
0.000794507
0.00103671
0.0013521
0.00176229
0.00229521
0.00298702
0.00388471
0.00502325
0.00653612
0.00850592
0.0110814
0.0144505
0.0289215
0.0454633
0.0621335
0.0786852
0.0949235
0.110692
0.125864
0.140332
0.154002
0.166788
0.178571
0.189339
0.19895
0.207295
0.214267
0.219782
0.223833
0.22655
0.228203
0.22912
0.229586
0.229811
0.229916
0.229963
0.229984
0.229993
0.229997
0.229999
0.229999
0.23
0.23
0.23
0.23
0.23
0.23
0.23
4.00735e-10
1.75097e-09
4.0192e-09
7.81308e-09
1.41227e-08
2.45425e-08
4.16031e-08
6.92553e-08
1.13545e-07
1.8351e-07
2.92284e-07
4.58325e-07
7.06505e-07
1.06866e-06
1.58295e-06
2.2913e-06
3.23471e-06
4.44661e-06
5.94592e-06
7.73183e-06
9.7818e-06
1.2053e-05
1.44859e-05
1.70519e-05
1.96831e-05
2.23163e-05
2.48939e-05
2.73655e-05
2.9689e-05
3.18318e-05
3.37729e-05
3.55075e-05
3.69939e-05
3.82646e-05
3.93832e-05
4.04599e-05
4.16674e-05
4.32543e-05
4.55552e-05
4.89987e-05
5.41196e-05
6.15819e-05
7.22137e-05
8.70553e-05
0.000107426
0.000135014
0.000171991
0.000221173
0.000286214
0.000371869
0.000484321
0.00063161
0.00082418
0.00107558
0.00140337
0.00183026
0.00238556
0.00310696
0.00404268
0.00522226
0.00678079
0.00878212
0.0113394
0.0145467
0.0306444
0.0473585
0.0641689
0.0808296
0.0971492
0.112975
0.128182
0.142663
0.156323
0.169072
0.180767
0.191424
0.20087
0.20899
0.215677
0.220862
0.224577
0.227006
0.22845
0.22924
0.229641
0.229835
0.229925
0.229967
0.229986
0.229994
0.229997
0.229999
0.23
0.23
0.23
0.23
0.23
0.23
0.23
0.23
4.17049e-10
1.82319e-09
4.18894e-09
8.15282e-09
1.47558e-08
2.56737e-08
4.35649e-08
7.2573e-08
1.19027e-07
1.92364e-07
3.06263e-07
4.79889e-07
7.39002e-07
1.11649e-06
1.65169e-06
2.38785e-06
3.36726e-06
4.62468e-06
6.18043e-06
8.03528e-06
1.01689e-05
1.2542e-05
1.51015e-05
1.77866e-05
2.05336e-05
2.32799e-05
2.59671e-05
2.85429e-05
3.09625e-05
3.31896e-05
3.51972e-05
3.69696e-05
3.85061e-05
3.98325e-05
4.10131e-05
4.21658e-05
4.34768e-05
4.52135e-05
4.77345e-05
5.14955e-05
5.70616e-05
6.513e-05
7.65662e-05
9.24548e-05
0.000114171
0.000143478
0.000182649
0.000234638
0.000303295
0.000393645
0.000512254
0.000667711
0.000871256
0.00113761
0.00148608
0.00194201
0.00253876
0.00332026
0.00433854
0.00564944
0.00740624
0.0097003
0.0126891
0.0165015
0.033342
0.0504047
0.0674344
0.0842251
0.100608
0.116444
0.131613
0.146012
0.159546
0.172122
0.183593
0.19397
0.203078
0.210812
0.217082
0.221855
0.225212
0.22737
0.22864
0.229332
0.229683
0.229853
0.229934
0.22997
0.229987
0.229994
0.229998
0.229999
0.23
0.23
0.23
0.23
0.23
0.23
0.23
0.23
4.33701e-10
1.89617e-09
4.35753e-09
8.48313e-09
1.53575e-08
2.67257e-08
4.53541e-08
7.55511e-08
1.23891e-07
2.0017e-07
3.18576e-07
4.98974e-07
7.68049e-07
1.15986e-06
1.71516e-06
2.47875e-06
3.49455e-06
4.7989e-06
6.41345e-06
8.33992e-06
1.05584e-05
1.30296e-05
1.56993e-05
1.85046e-05
2.13791e-05
2.42573e-05
2.70777e-05
2.97851e-05
3.23316e-05
3.46783e-05
3.67961e-05
3.86685e-05
4.02972e-05
4.17116e-05
4.29831e-05
4.42419e-05
4.56926e-05
4.76262e-05
5.04308e-05
5.45953e-05
6.07205e-05
6.95427e-05
8.19709e-05
9.91414e-05
0.000122494
0.000153876
0.000195673
0.000250988
0.000323872
0.000419619
0.000545167
0.000709612
0.00092491
0.00120681
0.00157613
0.00206048
0.00269674
0.00353447
0.00462454
0.0060585
0.00802699
0.0106821
0.0143134
0.0199448
0.0370864
0.0543441
0.0714851
0.0883182
0.104684
0.120449
0.135499
0.149729
0.163045
0.175354
0.18656
0.196578
0.205293
0.212607
0.21845
0.222818
0.22583
0.227731
0.228833
0.229428
0.229728
0.229874
0.229943
0.229974
0.229989
0.229995
0.229998
0.229999
0.23
0.23
0.23
0.23
0.23
0.23
0.23
0.23
4.5001e-10
1.96752e-09
4.52185e-09
8.80412e-09
1.59412e-08
2.77464e-08
4.70946e-08
7.84627e-08
1.28682e-07
2.07929e-07
3.3094e-07
5.18339e-07
7.97832e-07
1.20477e-06
1.78147e-06
2.57447e-06
3.62955e-06
4.98475e-06
6.66313e-06
8.66739e-06
1.0978e-05
1.35552e-05
1.63438e-05
1.92794e-05
2.22933e-05
2.53172e-05
2.82868e-05
3.11438e-05
3.38373e-05
3.63253e-05
3.85766e-05
4.05734e-05
4.23179e-05
4.3843e-05
4.52284e-05
4.66195e-05
4.82421e-05
5.04153e-05
5.35607e-05
5.8204e-05
6.49854e-05
7.46833e-05
8.82539e-05
0.00010689
0.000132101
0.000165823
0.000210559
0.000269562
0.00034707
0.00044862
0.000581442
0.000754989
0.000981635
0.00127759
0.00166413
0.00216923
0.00282979
0.00369468
0.0048079
0.00625319
0.0082039
0.0107712
0.0141599
0.024469
0.041566
0.0588041
0.0759161
0.0926921
0.108964
0.124594
0.139466
0.153478
0.166536
0.178522
0.189403
0.199048
0.20736
0.214254
0.219678
0.223662
0.226359
0.228033
0.228993
0.229507
0.229765
0.229891
0.22995
0.229978
0.22999
0.229996
0.229998
0.229999
0.23
0.23
0.23
0.23
0.23
0.23
0.23
0.23
4.65733e-10
2.03625e-09
4.67987e-09
9.1123e-09
1.65008e-08
2.87244e-08
4.87625e-08
8.12566e-08
1.33291e-07
2.15421e-07
3.42939e-07
5.37259e-07
8.27163e-07
1.24942e-06
1.84807e-06
2.6717e-06
3.7682e-06
5.17769e-06
6.92492e-06
9.01371e-06
1.14249e-05
1.41184e-05
1.7038e-05
2.01173e-05
2.32854e-05
2.64713e-05
2.96076e-05
3.26327e-05
3.54924e-05
3.81419e-05
4.05471e-05
4.26885e-05
4.45689e-05
4.6225e-05
4.77465e-05
4.9296e-05
5.11239e-05
5.35807e-05
5.71252e-05
6.23228e-05
6.98556e-05
8.05471e-05
9.54045e-05
0.000115683
0.000142972
0.000179313
0.000227343
0.000290493
0.000373231
0.000481384
0.000622549
0.000806632
0.00104655
0.00135911
0.00176622
0.00229638
0.00298659
0.00388494
0.005025
0.00650184
0.00847302
0.0110311
0.0143329
0.0289526
0.0460118
0.0632264
0.0802947
0.0969917
0.113144
0.128613
0.143285
0.157058
0.169841
0.181493
0.192038
0.201316
0.209238
0.215732
0.220766
0.224401
0.226818
0.228295
0.229132
0.229576
0.229798
0.229906
0.229957
0.229981
0.229992
0.229996
0.229998
0.229999
0.23
0.23
0.23
0.23
0.23
0.23
0.23
0.23
4.81088e-10
2.10338e-09
4.83431e-09
9.41381e-09
1.70492e-08
2.96849e-08
5.04059e-08
8.40203e-08
1.37871e-07
2.22908e-07
3.55001e-07
5.56397e-07
8.57024e-07
1.29516e-06
1.91675e-06
2.77256e-06
3.91288e-06
5.38012e-06
7.201e-06
9.38069e-06
1.19006e-05
1.47205e-05
1.7783e-05
2.102e-05
2.43581e-05
2.77235e-05
3.10456e-05
3.42592e-05
3.73068e-05
4.01399e-05
4.27215e-05
4.50303e-05
4.70692e-05
4.88799e-05
5.05633e-05
5.23018e-05
5.43735e-05
5.71637e-05
6.11708e-05
6.70019e-05
7.53823e-05
8.7182e-05
0.000103463
0.000125548
0.000155116
0.000194328
0.000245983
0.000313728
0.000402326
0.000518
0.000668894
0.000865658
0.00112224
0.00145687
0.00189343
0.00246313
0.00320673
0.0041764
0.0054072
0.00705151
0.00918512
0.0119371
0.0153887
0.032502
0.0498949
0.067264
0.0843686
0.101018
0.117059
0.132366
0.146832
0.160362
0.17287
0.184226
0.194439
0.203361
0.210913
0.217033
0.221709
0.225031
0.227204
0.228513
0.229246
0.229632
0.229825
0.229919
0.229963
0.229983
0.229993
0.229997
0.229999
0.229999
0.23
0.23
0.23
0.23
0.23
0.23
0.23
0.23
4.9616e-10
2.16928e-09
4.986e-09
9.71013e-09
1.75887e-08
3.06312e-08
5.2028e-08
8.6755e-08
1.42417e-07
2.30364e-07
3.67065e-07
5.75628e-07
8.87188e-07
1.34163e-06
1.98693e-06
2.87626e-06
4.06254e-06
5.59075e-06
7.48989e-06
9.76676e-06
1.24036e-05
1.53601e-05
1.8578e-05
2.19873e-05
2.55124e-05
2.90766e-05
3.26057e-05
3.60312e-05
3.92914e-05
4.23342e-05
4.51191e-05
4.76229e-05
4.98488e-05
5.18439e-05
5.37224e-05
5.56889e-05
5.80518e-05
6.12345e-05
6.57767e-05
7.23271e-05
8.1654e-05
9.46729e-05
0.000112499
0.000136524
0.000168516
0.000210755
0.000266203
0.000338726
0.000433385
0.000556823
0.000717765
0.000927706
0.00120181
0.00156016
0.00202942
0.00264516
0.00345509
0.00451339
0.00589082
0.0077839
0.0103178
0.013745
0.0184316
0.0359682
0.0535957
0.0710642
0.0881718
0.104753
0.120669
0.135807
0.150065
0.163355
0.175593
0.186698
0.196589
0.205176
0.212384
0.218161
0.222517
0.225563
0.227526
0.228693
0.22934
0.229679
0.229848
0.229929
0.229968
0.229986
0.229994
0.229997
0.229999
0.229999
0.23
0.23
0.23
0.23
0.23
0.23
0.23
0.23
5.11004e-10
2.2342e-09
5.1355e-09
1.00024e-08
1.81214e-08
3.15673e-08
5.36358e-08
8.94723e-08
1.46947e-07
2.3782e-07
3.79172e-07
5.95006e-07
9.17712e-07
1.38887e-06
2.05859e-06
2.98265e-06
4.21679e-06
5.80889e-06
7.7905e-06
1.01704e-05
1.2932e-05
1.60351e-05
1.94208e-05
2.30177e-05
2.67478e-05
3.05315e-05
3.42914e-05
3.79549e-05
4.14566e-05
4.47401e-05
4.77613e-05
5.04945e-05
5.29437e-05
5.51624e-05
5.72801e-05
5.95265e-05
6.22422e-05
6.58915e-05
7.10564e-05
7.84271e-05
8.88121e-05
0.00010317
0.000122666
0.000148754
0.000183282
0.000228632
0.000287898
0.000365115
0.000465561
0.000596154
0.00076598
0.000986998
0.00127498
0.00165082
0.00214222
0.00278617
0.00363219
0.0047307
0.00615874
0.00811235
0.0107149
0.0142028
0.0221047
0.0396548
0.0572734
0.0747
0.0917292
0.108196
0.123966
0.138927
0.152982
0.166044
0.178031
0.188871
0.198474
0.20676
0.213658
0.219129
0.223201
0.226008
0.227792
0.228841
0.229417
0.229717
0.229866
0.229938
0.229972
0.229987
0.229994
0.229998
0.229999
0.23
0.23
0.23
0.23
0.23
0.23
0.23
0.23
0.23
5.2558e-10
2.29797e-09
5.28239e-09
1.02898e-08
1.86458e-08
3.24897e-08
5.52227e-08
9.21595e-08
1.51438e-07
2.4523e-07
3.91242e-07
6.14392e-07
9.48362e-07
1.43649e-06
2.13115e-06
3.09084e-06
4.3744e-06
6.03282e-06
8.10058e-06
1.05888e-05
1.34823e-05
1.67417e-05
2.03076e-05
2.41075e-05
2.80613e-05
3.20869e-05
3.61035e-05
4.00347e-05
4.38109e-05
4.73716e-05
5.06688e-05
5.36742e-05
5.6393e-05
5.88863e-05
6.13019e-05
6.38968e-05
6.70461e-05
7.12582e-05
7.71576e-05
8.54755e-05
9.70598e-05
0.000112911
0.000134244
0.000162572
0.000199817
0.000248452
0.000311677
0.000393655
0.000499805
0.000637198
0.000815071
0.00104551
0.00134433
0.00173232
0.00223677
0.00289365
0.00375045
0.0048531
0.00627099
0.00818836
0.0107015
0.0140005
0.0257396
0.0431902
0.0607205
0.0780527
0.0949718
0.111309
0.126928
0.141717
0.155581
0.168434
0.180172
0.190772
0.200118
0.208133
0.214754
0.219953
0.223776
0.226378
0.228012
0.228962
0.22948
0.229748
0.229881
0.229945
0.229975
0.229989
0.229995
0.229998
0.229999
0.23
0.23
0.23
0.23
0.23
0.23
0.23
0.23
0.23
5.39798e-10
2.36018e-09
5.42574e-09
1.05704e-08
1.91582e-08
3.33921e-08
5.67776e-08
9.47972e-08
1.55855e-07
2.52538e-07
4.03178e-07
6.3362e-07
9.78865e-07
1.48405e-06
2.2039e-06
3.19978e-06
4.53378e-06
6.26032e-06
8.4171e-06
1.1018e-05
1.40498e-05
1.74742e-05
2.12321e-05
2.52501e-05
2.94467e-05
3.37373e-05
3.80382e-05
4.22695e-05
4.63575e-05
5.02374e-05
5.38574e-05
5.71868e-05
6.02324e-05
6.30651e-05
6.58536e-05
6.88855e-05
7.25723e-05
7.74686e-05
8.42425e-05
9.36667e-05
0.00010663
0.00012418
0.000147586
0.000178429
0.000218714
0.000271016
0.000338657
0.000425936
0.000538433
0.000683388
0.00087021
0.00111114
0.0014221
0.00182388
0.00234362
0.00301646
0.00388791
0.00500124
0.00642804
0.00835373
0.0108763
0.0141752
0.0288336
0.0462577
0.0637419
0.0810052
0.097832
0.114054
0.129537
0.144171
0.157862
0.170527
0.182051
0.192434
0.201548
0.20932
0.215694
0.220653
0.224259
0.226686
0.228192
0.22906
0.229531
0.229773
0.229893
0.22995
0.229977
0.22999
0.229996
0.229998
0.229999
0.23
0.23
0.23
0.23
0.23
0.23
0.23
0.23
0.23
5.53514e-10
2.42019e-09
5.56407e-09
1.08413e-08
1.96533e-08
3.42649e-08
5.82834e-08
9.73558e-08
1.60148e-07
2.59655e-07
4.14833e-07
6.52448e-07
1.00883e-06
1.53093e-06
2.27588e-06
3.308e-06
4.69281e-06
6.48838e-06
8.73599e-06
1.14526e-05
1.46278e-05
1.82245e-05
2.21847e-05
2.64348e-05
3.08924e-05
3.54711e-05
4.00849e-05
4.46507e-05
4.90911e-05
5.33373e-05
5.73337e-05
6.10478e-05
6.4489e-05
6.774e-05
7.09938e-05
7.4571e-05
7.89218e-05
8.46464e-05
9.24575e-05
0.000103171
0.000117721
0.000137209
0.000162972
0.000196676
0.000240432
0.000296948
0.000369708
0.000463214
0.000583285
0.00073745
0.000935455
0.00118992
0.00151718
0.0019384
0.00248088
0.0031787
0.0040803
0.00522246
0.00667868
0.00861863
0.0111145
0.0142686
0.0312182
0.0487567
0.0662815
0.0835304
0.100301
0.116434
0.131803
0.146302
0.159842
0.172341
0.183695
0.19389
0.20279
0.21034
0.216494
0.221242
0.224662
0.226939
0.228339
0.229141
0.229573
0.229794
0.229903
0.229955
0.229979
0.229991
0.229996
0.229998
0.229999
0.23
0.23
0.23
0.23
0.23
0.23
0.23
0.23
0.23
5.66546e-10
2.47722e-09
5.69556e-09
1.10989e-08
2.01244e-08
3.50962e-08
5.97193e-08
9.97991e-08
1.64255e-07
2.66477e-07
4.2603e-07
6.70585e-07
1.03778e-06
1.57638e-06
2.34592e-06
3.41374e-06
4.84887e-06
6.71324e-06
9.05202e-06
1.18858e-05
1.5207e-05
1.89812e-05
2.31516e-05
2.76454e-05
3.23802e-05
3.72686e-05
4.2223e-05
4.7158e-05
5.19931e-05
5.66562e-05
6.10886e-05
6.52563e-05
6.91731e-05
7.2936e-05
7.67654e-05
8.1015e-05
8.61727e-05
9.28829e-05
0.000101902
0.00011409
0.000130433
0.000152093
0.00018049
0.00021739
0.00026504
0.000326316
0.000404921
0.000505635
0.000634639
0.000799933
0.00101188
0.00128392
0.0016335
0.00208328
0.00266283
0.00341239
0.004381
0.00559577
0.00716908
0.00927116
0.0119944
0.0154651
0.0330544
0.0507999
0.0684185
0.0856855
0.102422
0.118484
0.133754
0.148133
0.161535
0.173884
0.185092
0.195103
0.203834
0.211204
0.217167
0.221734
0.224995
0.227147
0.22846
0.229206
0.229606
0.22981
0.22991
0.229958
0.229981
0.229992
0.229996
0.229998
0.229999
0.23
0.23
0.23
0.23
0.23
0.23
0.23
0.23
0.23
5.78686e-10
2.53034e-09
5.81807e-09
1.13391e-08
2.05638e-08
3.58722e-08
6.1061e-08
1.02085e-07
1.68103e-07
2.72883e-07
4.36567e-07
6.87696e-07
1.06517e-06
1.61952e-06
2.41264e-06
3.51486e-06
4.99879e-06
6.93032e-06
9.35873e-06
1.23086e-05
1.57759e-05
1.97291e-05
2.41139e-05
2.88591e-05
3.3883e-05
3.90988e-05
4.44182e-05
4.97547e-05
5.50261e-05
6.01577e-05
6.50888e-05
6.97856e-05
7.42677e-05
7.86494e-05
8.31805e-05
8.8244e-05
9.43603e-05
0.000102214
0.000112602
0.000126427
0.000144728
0.000168735
0.000199952
0.000240261
0.000292048
0.000358376
0.000443183
0.000551561
0.000690097
0.000867338
0.00109439
0.00138569
0.0017601
0.00224229
0.00286457
0.00366847
0.00470629
0.00601536
0.00777621
0.0100773
0.0130917
0.0169707
0.0347642
0.0526255
0.070292
0.0875563
0.104252
0.120245
0.135424
0.149692
0.162967
0.175166
0.186209
0.196063
0.204642
0.211882
0.217712
0.222136
0.225266
0.227316
0.228557
0.229258
0.229633
0.229823
0.229917
0.229961
0.229982
0.229992
0.229997
0.229998
0.229999
0.23
0.23
0.23
0.23
0.23
0.23
0.23
0.23
0.23
5.89708e-10
2.57858e-09
5.92933e-09
1.15572e-08
2.09632e-08
3.6578e-08
6.22825e-08
1.04169e-07
1.71616e-07
2.7874e-07
4.4622e-07
7.03409e-07
1.09039e-06
1.65937e-06
2.47449e-06
3.60897e-06
5.13892e-06
7.13423e-06
9.64838e-06
1.27102e-05
1.63197e-05
2.04489e-05
2.50466e-05
3.00444e-05
3.53628e-05
4.09165e-05
4.66182e-05
5.2382e-05
5.81255e-05
6.37736e-05
6.92653e-05
7.4569e-05
7.97128e-05
8.48315e-05
9.02037e-05
9.62321e-05
0.00010346
0.000112604
0.000124495
0.000140077
0.000160438
0.000186875
0.000220973
0.000264716
0.000320621
0.000391906
0.000482711
0.000598378
0.000745815
0.000933981
0.00117452
0.00148259
0.00187801
0.00238677
0.00304304
0.00389217
0.00498398
0.00636991
0.00824151
0.0106942
0.0139279
0.0184339
0.0363369
0.0542518
0.0719289
0.0891703
0.105817
0.12174
0.136831
0.150998
0.164161
0.176246
0.187203
0.19694
0.205377
0.212452
0.21814
0.222454
0.225485
0.227452
0.228635
0.2293
0.229655
0.229834
0.229922
0.229964
0.229984
0.229993
0.229997
0.229999
0.229999
0.23
0.23
0.23
0.23
0.23
0.23
0.23
0.23
0.23
5.99377e-10
2.6209e-09
6.02695e-09
1.17487e-08
2.13139e-08
3.71982e-08
6.33568e-08
1.06003e-07
1.74713e-07
2.8391e-07
4.54758e-07
7.17336e-07
1.1128e-06
1.69487e-06
2.52978e-06
3.69342e-06
5.26522e-06
7.31887e-06
9.91206e-06
1.30779e-05
1.68207e-05
2.11166e-05
2.59183e-05
3.1161e-05
3.67686e-05
4.2659e-05
4.87478e-05
5.49516e-05
6.11904e-05
6.73914e-05
7.34963e-05
7.94791e-05
8.53803e-05
9.13589e-05
9.77181e-05
0.000104862
0.000113342
0.000123901
0.000137395
0.000154803
0.000177263
0.000206128
0.000243057
0.000290116
0.000349922
0.000425809
0.000522046
0.000644125
0.000799118
0.000996163
0.00124708
0.00156722
0.00197652
0.00250101
0.00317465
0.00404281
0.0051527
0.00655715
0.00844434
0.0109016
0.0141164
0.0197747
0.037725
0.0556507
0.07331
0.0905111
0.107101
0.122954
0.137967
0.152057
0.165146
0.177161
0.188023
0.197658
0.205989
0.212957
0.218525
0.222715
0.225657
0.227559
0.228697
0.229334
0.229671
0.229842
0.229926
0.229966
0.229984
0.229993
0.229997
0.229999
0.229999
0.23
0.23
0.23
0.23
0.23
0.23
0.23
0.23
0.23
6.07464e-10
2.6563e-09
6.10862e-09
1.19089e-08
2.16074e-08
3.77176e-08
6.42571e-08
1.07542e-07
1.77313e-07
2.88258e-07
4.61948e-07
7.29086e-07
1.13174e-06
1.72497e-06
2.57678e-06
3.76547e-06
5.37339e-06
7.47771e-06
1.014e-05
1.33975e-05
1.72589e-05
2.17045e-05
2.66914e-05
3.21591e-05
3.80359e-05
4.42444e-05
5.07049e-05
5.73391e-05
6.40723e-05
7.08375e-05
7.75838e-05
8.42958e-05
9.10329e-05
9.79821e-05
0.000105462
0.00011385
0.000123693
0.000135746
0.00015089
0.000170135
0.000194663
0.000225879
0.000265501
0.000315664
0.000379054
0.000459078
0.000560076
0.000687602
0.000848774
0.00105274
0.00131126
0.00163948
0.00205695
0.00258893
0.00326838
0.0041382
0.00524379
0.00663118
0.00847995
0.0108642
0.0139494
0.0209288
0.0388887
0.0568013
0.0744312
0.0915949
0.108141
0.123948
0.138913
0.152944
0.165963
0.177897
0.188677
0.198227
0.20647
0.213348
0.218826
0.222933
0.225795
0.227641
0.228744
0.229359
0.229685
0.229849
0.229929
0.229967
0.229985
0.229993
0.229997
0.229999
0.229999
0.23
0.23
0.23
0.23
0.23
0.23
0.23
0.23
0.23
6.13753e-10
2.68382e-09
6.17215e-09
1.20336e-08
2.1836e-08
3.81222e-08
6.49588e-08
1.08742e-07
1.79343e-07
2.91655e-07
4.67572e-07
7.38289e-07
1.14661e-06
1.74864e-06
2.61384e-06
3.82243e-06
5.45919e-06
7.6042e-06
1.03223e-05
1.36544e-05
1.76129e-05
2.21824e-05
2.7324e-05
3.29818e-05
3.9089e-05
4.55736e-05
5.2362e-05
5.93828e-05
6.65694e-05
7.38645e-05
8.12295e-05
8.86667e-05
9.62628e-05
0.000104239
0.000112918
0.00012262
0.000133867
0.00014742
0.000164179
0.000185187
0.000211665
0.000245069
0.00028717
0.000340156
0.000406769
0.000490465
0.000595623
0.000727818
0.000894151
0.00110369
0.00136805
0.00170209
0.00212498
0.00266157
0.00334362
0.00421222
0.00531138
0.0066817
0.00849889
0.0108308
0.0138349
0.0218436
0.0398049
0.0577068
0.0753179
0.0924513
0.108959
0.12472
0.139633
0.153609
0.166572
0.178446
0.189165
0.19865
0.206827
0.213637
0.219048
0.223093
0.225902
0.227706
0.228779
0.229378
0.229694
0.229853
0.229931
0.229968
0.229986
0.229994
0.229997
0.229999
0.229999
0.23
0.23
0.23
0.23
0.23
0.23
0.23
0.23
0.23
6.18051e-10
2.70264e-09
6.21559e-09
1.21189e-08
2.19923e-08
3.8399e-08
6.5439e-08
1.09564e-07
1.80732e-07
2.93981e-07
4.71426e-07
7.44601e-07
1.15682e-06
1.7649e-06
2.63936e-06
3.86174e-06
5.51858e-06
7.69203e-06
1.04494e-05
1.38342e-05
1.7862e-05
2.25203e-05
2.77738e-05
3.35704e-05
3.98478e-05
4.65387e-05
5.35757e-05
6.08942e-05
6.84364e-05
7.61559e-05
8.40288e-05
9.20784e-05
0.000100422
0.000109312
0.000119078
0.000130084
0.000142669
0.000157597
0.000175791
0.000198331
0.000226478
0.000261736
0.000305923
0.000361278
0.000430585
0.000517343
0.000625967
0.000762052
0.000932706
0.00114698
0.00141644
0.00175588
0.0021842
0.00272552
0.003411
0.00428078
0.00537805
0.00674046
0.00854161
0.0108463
0.013808
0.0224642
0.0404401
0.0583368
0.0759291
0.093037
0.109515
0.125242
0.140118
0.154057
0.16698
0.178813
0.18949
0.198931
0.207063
0.213827
0.219194
0.223197
0.225972
0.227749
0.228804
0.229391
0.229701
0.229856
0.229932
0.229969
0.229986
0.229994
0.229997
0.229999
0.229999
0.23
0.23
0.23
0.23
0.23
0.23
0.23
0.23
0.23
6.20197e-10
2.71203e-09
6.23722e-09
1.21613e-08
2.20699e-08
3.85361e-08
6.56762e-08
1.09968e-07
1.81415e-07
2.95122e-07
4.73313e-07
7.47687e-07
1.1618e-06
1.77285e-06
2.65182e-06
3.88096e-06
5.54764e-06
7.73513e-06
1.0512e-05
1.39231e-05
1.79856e-05
2.26889e-05
2.79996e-05
3.38677e-05
4.02335e-05
4.70328e-05
5.42015e-05
6.16799e-05
6.94154e-05
7.73691e-05
8.55267e-05
9.39254e-05
0.000102699
0.000112111
0.000122553
0.000134443
0.000148147
0.00016409
0.000183273
0.000206829
0.000236067
0.00027253
0.000318075
0.000374976
0.000446058
0.000534852
0.000645808
0.000784552
0.000958213
0.00117585
0.001449
0.00179236
0.00222471
0.00277006
0.00345923
0.00433184
0.00543042
0.00679101
0.00858534
0.0108745
0.013806
0.0227723
0.0407662
0.0586635
0.0762465
0.0933397
0.1098
0.125508
0.140364
0.154282
0.167183
0.178995
0.18965
0.199069
0.207178
0.21392
0.219264
0.223247
0.226005
0.227769
0.228815
0.229397
0.229704
0.229858
0.229933
0.229969
0.229986
0.229994
0.229997
0.229999
0.229999
0.23
0.23
0.23
0.23
0.23
0.23
0.23
0.23
0.23
6.20166e-10
2.7119e-09
6.23693e-09
1.21607e-08
2.2069e-08
3.85346e-08
6.56741e-08
1.09966e-07
1.81411e-07
2.95117e-07
4.73308e-07
7.47683e-07
1.1618e-06
1.77286e-06
2.65185e-06
3.88101e-06
5.54775e-06
7.73532e-06
1.05123e-05
1.39236e-05
1.79863e-05
2.26898e-05
2.80007e-05
3.38692e-05
4.02353e-05
4.70349e-05
5.42041e-05
6.16828e-05
6.94187e-05
7.73728e-05
8.55308e-05
9.39298e-05
0.000102703
0.000112116
0.000122559
0.00013445
0.000148154
0.000164098
0.000183282
0.000206839
0.000236078
0.000272542
0.000318088
0.000374991
0.000446073
0.000534867
0.000645823
0.000784565
0.000958223
0.00117586
0.001449
0.00179234
0.00222467
0.00277
0.00345914
0.00433172
0.0054303
0.00679092
0.00858531
0.0108746
0.0138061
0.0227738
0.0407678
0.058665
0.076248
0.0933411
0.109801
0.125509
0.140365
0.154283
0.167184
0.178996
0.189651
0.19907
0.207179
0.21392
0.219264
0.223247
0.226005
0.227769
0.228815
0.229397
0.229704
0.229858
0.229933
0.229969
0.229986
0.229994
0.229997
0.229999
0.229999
0.23
0.23
0.23
0.23
0.23
0.23
0.23
0.23
0.23
6.17964e-10
2.70227e-09
6.21476e-09
1.21174e-08
2.19898e-08
3.83951e-08
6.54332e-08
1.09555e-07
1.80721e-07
2.93968e-07
4.71411e-07
7.44589e-07
1.15682e-06
1.76493e-06
2.63944e-06
3.86191e-06
5.51888e-06
7.69255e-06
1.04502e-05
1.38355e-05
1.78637e-05
2.25227e-05
2.7777e-05
3.35745e-05
3.98529e-05
4.65449e-05
5.3583e-05
6.09027e-05
6.8446e-05
7.61666e-05
8.40406e-05
9.20913e-05
0.000100436
0.000109327
0.000119095
0.000130102
0.000142689
0.00015762
0.000175817
0.00019836
0.000226511
0.000261773
0.000305965
0.000361324
0.000430635
0.000517397
0.000626023
0.000762106
0.000932755
0.00114702
0.00141646
0.00175587
0.00218414
0.00272541
0.00341082
0.00428054
0.00537779
0.00674026
0.00854155
0.0108463
0.0138079
0.0224687
0.0404446
0.0583412
0.0759334
0.0930411
0.109518
0.125245
0.140121
0.15406
0.166982
0.178816
0.189492
0.198933
0.207065
0.213829
0.219195
0.223198
0.225972
0.227749
0.228804
0.229391
0.229701
0.229856
0.229932
0.229969
0.229986
0.229994
0.229997
0.229999
0.229999
0.23
0.23
0.23
0.23
0.23
0.23
0.23
0.23
0.23
6.13613e-10
2.68322e-09
6.17083e-09
1.20312e-08
2.1832e-08
3.8116e-08
6.49496e-08
1.0873e-07
1.79326e-07
2.91635e-07
4.67554e-07
7.38279e-07
1.14663e-06
1.7487e-06
2.614e-06
3.82275e-06
5.45977e-06
7.60516e-06
1.03238e-05
1.36566e-05
1.7616e-05
2.21866e-05
2.73295e-05
3.29887e-05
3.90976e-05
4.55839e-05
5.23741e-05
5.93968e-05
6.65853e-05
7.38822e-05
8.1249e-05
8.86881e-05
9.62859e-05
0.000104265
0.000112945
0.00012265
0.000133901
0.000147458
0.000164222
0.000185236
0.000211722
0.000245135
0.000287246
0.000340245
0.000406872
0.000490584
0.000595759
0.000727971
0.000894322
0.00110388
0.00136825
0.0017023
0.00212519
0.00266178
0.00334383
0.00421242
0.00531158
0.00668186
0.00849893
0.0108304
0.0138335
0.0218511
0.0398124
0.0577142
0.075325
0.0924581
0.108966
0.124726
0.139638
0.153615
0.166576
0.17845
0.189169
0.198654
0.20683
0.213639
0.21905
0.223094
0.225903
0.227706
0.228779
0.229378
0.229694
0.229853
0.229931
0.229968
0.229986
0.229994
0.229997
0.229999
0.229999
0.23
0.23
0.23
0.23
0.23
0.23
0.23
0.23
0.23
6.07272e-10
2.65547e-09
6.1068e-09
1.19056e-08
2.16019e-08
3.77089e-08
6.42442e-08
1.07524e-07
1.77289e-07
2.88228e-07
4.61917e-07
7.29061e-07
1.13174e-06
1.72503e-06
2.57695e-06
3.76583e-06
5.37405e-06
7.47884e-06
1.01418e-05
1.34002e-05
1.72626e-05
2.17096e-05
2.6698e-05
3.21675e-05
3.80464e-05
4.42569e-05
5.07197e-05
5.73561e-05
6.40916e-05
7.08589e-05
7.76073e-05
8.43212e-05
9.10603e-05
9.80117e-05
0.000105494
0.000113885
0.000123733
0.000135791
0.000150942
0.000170197
0.000194736
0.000225968
0.000265609
0.000315796
0.000379216
0.000459276
0.000560318
0.000687898
0.000849134
0.00105318
0.00131178
0.0016401
0.00205768
0.00258977
0.00326932
0.00413918
0.00524463
0.00663164
0.00847971
0.0108628
0.0139467
0.0209413
0.0389
0.056812
0.0744414
0.0916046
0.10815
0.123956
0.138921
0.152951
0.165969
0.177903
0.188682
0.198232
0.206474
0.213351
0.218828
0.222935
0.225796
0.227641
0.228744
0.229359
0.229685
0.229849
0.229929
0.229967
0.229985
0.229993
0.229997
0.229999
0.229999
0.23
0.23
0.23
0.23
0.23
0.23
0.23
0.23
0.23
5.99133e-10
2.61985e-09
6.02463e-09
1.17444e-08
2.13067e-08
3.71868e-08
6.33397e-08
1.05979e-07
1.74679e-07
2.83868e-07
4.54709e-07
7.17288e-07
1.11277e-06
1.6949e-06
2.52992e-06
3.69376e-06
5.26588e-06
7.32003e-06
9.91391e-06
1.30807e-05
1.68247e-05
2.11221e-05
2.59255e-05
3.11702e-05
3.678e-05
4.26726e-05
4.87637e-05
5.49699e-05
6.1211e-05
6.74142e-05
7.35211e-05
7.95057e-05
8.54087e-05
9.13893e-05
9.77508e-05
0.000104898
0.000113383
0.000123947
0.00013745
0.000154869
0.000177344
0.000206229
0.000243183
0.000290275
0.000350124
0.000426066
0.000522373
0.00064454
0.000799642
0.00099682
0.0012479
0.00156821
0.00197769
0.00250234
0.00317607
0.00404417
0.0051539
0.00655779
0.00844408
0.0109006
0.0141163
0.0197925
0.0377399
0.0556642
0.0733227
0.0905233
0.107112
0.122965
0.137977
0.152066
0.165154
0.177169
0.18803
0.197664
0.205995
0.212961
0.218528
0.222717
0.225658
0.22756
0.228697
0.229334
0.229672
0.229842
0.229926
0.229966
0.229984
0.229993
0.229997
0.229999
0.229999
0.23
0.23
0.23
0.23
0.23
0.23
0.23
0.23
0.23
5.89413e-10
2.57731e-09
5.92651e-09
1.1552e-08
2.09544e-08
3.6564e-08
6.22611e-08
1.04138e-07
1.71573e-07
2.78682e-07
4.46149e-07
7.03331e-07
1.09032e-06
1.65934e-06
2.47455e-06
3.60922e-06
5.13948e-06
7.13526e-06
9.6501e-06
1.27128e-05
1.63235e-05
2.04542e-05
2.50537e-05
3.00534e-05
3.5374e-05
4.09299e-05
4.66339e-05
5.23999e-05
5.81455e-05
6.37955e-05
6.92889e-05
7.4594e-05
7.9739e-05
8.48591e-05
9.02332e-05
9.62641e-05
0.000103496
0.000112646
0.000124545
0.000140139
0.000160516
0.000186974
0.0002211
0.000264882
0.000320837
0.00039219
0.000483084
0.000598867
0.000746452
0.000934803
0.00117556
0.0014839
0.00187963
0.00238869
0.00304525
0.00389459
0.00498646
0.00637226
0.00824374
0.0106972
0.0139353
0.0184529
0.0363535
0.0542671
0.0719434
0.0891843
0.105831
0.121753
0.136843
0.151009
0.164171
0.176256
0.187212
0.196947
0.205384
0.212456
0.218143
0.222457
0.225487
0.227453
0.228635
0.229301
0.229655
0.229834
0.229922
0.229964
0.229984
0.229993
0.229997
0.229999
0.229999
0.23
0.23
0.23
0.23
0.23
0.23
0.23
0.23
0.23
5.78344e-10
2.52887e-09
5.81479e-09
1.1333e-08
2.05534e-08
3.58555e-08
6.10352e-08
1.02047e-07
1.68049e-07
2.72808e-07
4.3647e-07
6.87579e-07
1.06504e-06
1.61941e-06
2.4126e-06
3.51496e-06
4.99915e-06
6.9311e-06
9.36012e-06
1.23108e-05
1.57792e-05
1.97338e-05
2.41202e-05
2.88671e-05
3.3893e-05
3.91108e-05
4.44322e-05
4.97706e-05
5.50437e-05
6.01767e-05
6.5109e-05
6.98066e-05
7.42893e-05
7.86715e-05
8.32033e-05
8.82682e-05
9.43869e-05
0.000102245
0.000112638
0.000126471
0.000144784
0.000168807
0.000200046
0.000240383
0.00029221
0.000358588
0.000443464
0.00055193
0.000690582
0.000867971
0.00109521
0.00138675
0.00176145
0.00224398
0.00286668
0.00367102
0.0047093
0.00601888
0.00778053
0.0100834
0.0131025
0.0169864
0.0347805
0.0526423
0.0703087
0.0875726
0.104268
0.120261
0.135438
0.149706
0.162979
0.175177
0.186219
0.196071
0.204649
0.211888
0.217716
0.222139
0.225268
0.227317
0.228558
0.229259
0.229633
0.229823
0.229917
0.229961
0.229982
0.229992
0.229997
0.229998
0.229999
0.23
0.23
0.23
0.23
0.23
0.23
0.23
0.23
0.23
5.6616e-10
2.47555e-09
5.69183e-09
1.1092e-08
2.01125e-08
3.50769e-08
5.96891e-08
9.97536e-08
1.64189e-07
2.66384e-07
4.25905e-07
6.70426e-07
1.03759e-06
1.57618e-06
2.34574e-06
3.41364e-06
4.84895e-06
6.71364e-06
9.0529e-06
1.18874e-05
1.52095e-05
1.89848e-05
2.31565e-05
2.76518e-05
3.23882e-05
3.72783e-05
4.22343e-05
4.71707e-05
5.20071e-05
5.66711e-05
6.1104e-05
6.5272e-05
6.91886e-05
7.29511e-05
7.67801e-05
8.10296e-05
8.61877e-05
9.28992e-05
0.000101921
0.000114113
0.000130461
0.00015213
0.000180537
0.000217452
0.000265124
0.000326429
0.000405074
0.000505844
0.000634925
0.000800325
0.00101242
0.00128467
0.00163452
0.00208468
0.00266473
0.00341494
0.0043845
0.00560033
0.00717512
0.00927928
0.0120055
0.0154786
0.0330694
0.0508178
0.0684368
0.0857035
0.102439
0.1185
0.133769
0.148147
0.161549
0.173896
0.185103
0.195112
0.203843
0.211212
0.217173
0.221738
0.224998
0.227149
0.228461
0.229206
0.229606
0.22981
0.22991
0.229959
0.229981
0.229992
0.229996
0.229998
0.229999
0.23
0.23
0.23
0.23
0.23
0.23
0.23
0.23
0.23
5.53089e-10
2.41835e-09
5.55996e-09
1.08336e-08
1.964e-08
3.42432e-08
5.82491e-08
9.73034e-08
1.60071e-07
2.59544e-07
4.14678e-07
6.52242e-07
1.00857e-06
1.53062e-06
2.27554e-06
3.30767e-06
4.69255e-06
6.4883e-06
8.73622e-06
1.14533e-05
1.46291e-05
1.82267e-05
2.21879e-05
2.64391e-05
3.08979e-05
3.54779e-05
4.00928e-05
4.46595e-05
4.91007e-05
5.33474e-05
5.73439e-05
6.10577e-05
6.44983e-05
6.77483e-05