/*--------------------------------*- C++ -*----------------------------------*\
  =========                 |
  \\      /  F ield         | OpenFOAM: The Open Source CFD Toolbox
   \\    /   O peration     | Website:  https://openfoam.org
    \\  /    A nd           | Version:  8
     \\/     M anipulation  |
\*---------------------------------------------------------------------------*/
FoamFile
{
    version     2.0;
    format      ascii;
    class       surfaceScalarField;
    location    "300/fluid";
    object      phi;
}
// * * * * * * * * * * * * * * * * * * * * * * * * * * * * * * * * * * * * * //

dimensions      [1 0 -1 0 0 0 0];

internalField   nonuniform List<scalar> 
7860
(
6.5742e-07
-1.71264e-08
6.55066e-07
-5.15276e-08
6.51714e-07
-8.57841e-08
6.47271e-07
-1.19745e-07
6.41621e-07
-1.53442e-07
6.34625e-07
-1.8686e-07
6.26121e-07
-2.19935e-07
6.15934e-07
-2.52565e-07
6.03882e-07
-2.84607e-07
5.89786e-07
-3.15874e-07
5.73483e-07
-3.46117e-07
5.54837e-07
-3.75012e-07
5.33773e-07
-4.02149e-07
5.10323e-07
-4.27024e-07
4.84731e-07
-4.49056e-07
4.57275e-07
-4.67586e-07
4.28326e-07
-4.82002e-07
3.98342e-07
-4.91877e-07
3.67833e-07
-4.97099e-07
3.37302e-07
-4.9794e-07
3.07189e-07
-4.95008e-07
2.77835e-07
-4.89111e-07
2.49471e-07
-4.81094e-07
2.2224e-07
-4.71706e-07
1.96258e-07
-4.61528e-07
1.71541e-07
-4.50959e-07
1.48044e-07
-4.4025e-07
1.25701e-07
-4.29548e-07
1.04435e-07
-4.1893e-07
8.41757e-08
-4.08434e-07
6.48555e-08
-3.98079e-07
4.6415e-08
-3.87874e-07
2.8801e-08
-3.77831e-07
1.19656e-08
-3.67967e-07
-4.13212e-09
-3.58305e-07
-1.95238e-08
-3.48871e-07
-3.4241e-08
-3.39669e-07
-4.83167e-08
-3.30688e-07
-6.17813e-08
-3.21951e-07
-7.46636e-08
-3.13482e-07
-8.69907e-08
-3.05303e-07
-9.87884e-08
-2.9743e-07
-1.10081e-07
-2.89879e-07
-1.20893e-07
-2.8266e-07
-1.31244e-07
-2.75782e-07
-1.41158e-07
-2.69248e-07
-1.50651e-07
-2.63062e-07
-1.59744e-07
-2.57223e-07
-1.68451e-07
-2.51727e-07
-1.7679e-07
-2.46571e-07
-1.84774e-07
-2.41748e-07
-1.92416e-07
-2.37255e-07
-1.99728e-07
-2.33085e-07
-2.06721e-07
-2.29236e-07
-2.13405e-07
-2.25707e-07
-2.19792e-07
-2.22504e-07
-2.25895e-07
-2.19638e-07
-2.3173e-07
-2.17129e-07
-2.37327e-07
-2.15008e-07
-2.42718e-07
-2.13365e-07
-2.4794e-07
-2.12175e-07
-2.53116e-07
-2.11614e-07
-2.58583e-07
-2.11866e-07
-2.65585e-07
-2.12976e-07
-2.73879e-07
-2.24243e-07
-2.82821e-07
-2.37609e-07
-2.92724e-07
-2.52332e-07
-3.03595e-07
-2.68458e-07
-3.15555e-07
-2.86139e-07
-3.28767e-07
-3.05581e-07
-3.43443e-07
-3.27045e-07
-3.59867e-07
-3.50856e-07
-3.78414e-07
-3.77411e-07
-3.99589e-07
-4.07172e-07
-4.24047e-07
-4.40773e-07
-4.5263e-07
-4.78908e-07
-4.86327e-07
-5.21684e-07
-5.26095e-07
-5.68178e-07
-5.72387e-07
-6.15714e-07
-6.24959e-07
-6.59106e-07
-6.82745e-07
-6.91307e-07
-7.43417e-07
-7.06519e-07
-8.03864e-07
-7.03488e-07
-8.61292e-07
-6.85452e-07
-9.1392e-07
-6.57134e-07
-9.60984e-07
-6.22674e-07
-1.00227e-06
-5.84647e-07
-1.03765e-06
-5.44469e-07
-1.06756e-06
-5.02808e-07
-1.09261e-06
-4.6011e-07
-1.11342e-06
-4.16717e-07
-1.13054e-06
-3.72891e-07
-1.14448e-06
-3.28842e-07
-1.15568e-06
-2.8473e-07
-1.16456e-06
-2.40673e-07
-1.17145e-06
-1.96752e-07
-1.17664e-06
-1.52977e-07
-1.18035e-06
-1.09214e-07
-1.18278e-06
-6.52425e-08
-2.14467e-08
6.57977e-07
-1.65697e-08
6.56082e-07
-4.96324e-08
6.52779e-07
-8.24816e-08
6.4807e-07
-1.15036e-07
6.41896e-07
-1.47268e-07
6.34169e-07
-1.79133e-07
6.24786e-07
-2.10552e-07
6.1364e-07
-2.41418e-07
6.00631e-07
-2.71596e-07
5.85674e-07
-3.00915e-07
5.68712e-07
-3.2915e-07
5.49723e-07
-3.56015e-07
5.28729e-07
-3.81144e-07
5.05817e-07
-4.04095e-07
4.81165e-07
-4.24377e-07
4.54989e-07
-4.41373e-07
4.27576e-07
-4.54538e-07
3.99275e-07
-4.6351e-07
3.70476e-07
-4.6822e-07
3.41571e-07
-4.6894e-07
3.12909e-07
-4.6624e-07
2.84773e-07
-4.60861e-07
2.57365e-07
-4.53567e-07
2.30818e-07
-4.45038e-07
2.05226e-07
-4.35817e-07
1.80631e-07
-4.26247e-07
1.57035e-07
-4.16541e-07
1.3442e-07
-4.06825e-07
1.12758e-07
-3.97166e-07
9.20169e-08
-3.87596e-07
7.2161e-08
-3.78131e-07
5.31551e-08
-3.68781e-07
3.49647e-08
-3.59559e-07
1.75553e-08
-3.50481e-07
8.92896e-10
-3.4157e-07
-1.5053e-08
-3.32854e-07
-3.03112e-08
-3.24338e-07
-4.49119e-08
-3.16012e-07
-5.88847e-08
-3.07901e-07
-7.22586e-08
-3.00029e-07
-8.50618e-08
-2.92418e-07
-9.73221e-08
-2.85086e-07
-1.09066e-07
-2.78049e-07
-1.2032e-07
-2.71319e-07
-1.31109e-07
-2.64905e-07
-1.41456e-07
-2.58812e-07
-1.51384e-07
-2.53043e-07
-1.60916e-07
-2.476e-07
-1.70072e-07
-2.4248e-07
-1.78871e-07
-2.3768e-07
-1.87334e-07
-2.33196e-07
-1.95477e-07
-2.29023e-07
-2.03318e-07
-2.25157e-07
-2.10877e-07
-2.21595e-07
-2.18172e-07
-2.18335e-07
-2.25224e-07
-2.15382e-07
-2.32056e-07
-2.12744e-07
-2.387e-07
-2.10436e-07
-2.45187e-07
-2.08488e-07
-2.51571e-07
-2.06969e-07
-2.57922e-07
-2.05837e-07
-2.64391e-07
-2.05194e-07
-2.71278e-07
-2.05078e-07
-2.80514e-07
-2.05492e-07
-2.88907e-07
-2.16429e-07
-2.98287e-07
-2.28759e-07
-3.08819e-07
-2.42385e-07
-3.2055e-07
-2.57378e-07
-3.33565e-07
-2.73853e-07
-3.47997e-07
-2.91968e-07
-3.6403e-07
-3.11938e-07
-3.81892e-07
-3.34042e-07
-4.01867e-07
-3.58626e-07
-4.24284e-07
-3.86105e-07
-4.49496e-07
-4.17102e-07
-4.77944e-07
-4.52205e-07
-5.10153e-07
-4.91414e-07
-5.4665e-07
-5.33756e-07
-5.87823e-07
-5.76629e-07
-6.33791e-07
-6.15051e-07
-6.84067e-07
-6.42574e-07
-7.37112e-07
-6.54555e-07
-7.90639e-07
-6.5062e-07
-8.42497e-07
-6.33954e-07
-8.91218e-07
-6.08595e-07
-9.36083e-07
-5.77896e-07
-9.76805e-07
-5.43965e-07
-1.01322e-06
-5.08073e-07
-1.04535e-06
-4.70686e-07
-1.07334e-06
-4.32119e-07
-1.09743e-06
-3.92637e-07
-1.11786e-06
-3.52454e-07
-1.13496e-06
-3.11749e-07
-1.14901e-06
-2.70673e-07
-1.16033e-06
-2.29355e-07
-1.16919e-06
-1.87896e-07
-1.17581e-06
-1.46349e-07
-1.18039e-06
-1.04637e-07
-1.18301e-06
-6.26245e-08
-2.06341e-08
6.57711e-07
-1.57474e-08
6.55325e-07
-4.72462e-08
6.51384e-07
-7.85401e-08
6.45857e-07
-1.09509e-07
6.38707e-07
-1.40117e-07
6.29886e-07
-1.70312e-07
6.19348e-07
-2.00013e-07
6.07051e-07
-2.2912e-07
5.92967e-07
-2.57511e-07
5.77087e-07
-2.85033e-07
5.5943e-07
-3.11488e-07
5.40042e-07
-3.36621e-07
5.19004e-07
-3.60096e-07
4.96419e-07
-3.81495e-07
4.72388e-07
-4.00324e-07
4.471e-07
-4.16054e-07
4.20811e-07
-4.28206e-07
3.93826e-07
-4.3647e-07
3.66474e-07
-4.408e-07
3.39073e-07
-4.4146e-07
3.11904e-07
-4.38982e-07
2.85191e-07
-4.34052e-07
2.59097e-07
-4.27372e-07
2.33718e-07
-4.19557e-07
2.09087e-07
-4.11085e-07
1.85223e-07
-4.02284e-07
1.62139e-07
-3.93361e-07
1.39842e-07
-3.84435e-07
1.1833e-07
-3.75564e-07
9.75977e-08
-3.66777e-07
7.76335e-08
-3.58085e-07
5.84241e-08
-3.49494e-07
3.99532e-08
-3.41015e-07
2.22017e-08
-3.3266e-07
5.14846e-09
-3.24452e-07
-1.1227e-08
-3.16415e-07
-2.69468e-08
-3.08554e-07
-4.20336e-08
-3.00858e-07
-5.6512e-08
-2.93353e-07
-7.04075e-08
-2.86061e-07
-8.37458e-08
-2.79005e-07
-9.65532e-08
-2.72202e-07
-1.08856e-07
-2.65668e-07
-1.2068e-07
-2.59414e-07
-1.32052e-07
-2.53451e-07
-1.42997e-07
-2.47783e-07
-1.53541e-07
-2.42414e-07
-1.63709e-07
-2.37346e-07
-1.73525e-07
-2.32577e-07
-1.83015e-07
-2.28103e-07
-1.92204e-07
-2.23921e-07
-2.01118e-07
-2.20025e-07
-2.09782e-07
-2.1641e-07
-2.18226e-07
-2.13071e-07
-2.2648e-07
-2.10005e-07
-2.3458e-07
-2.07212e-07
-2.42565e-07
-2.04697e-07
-2.50479e-07
-2.02471e-07
-2.58362e-07
-2.00574e-07
-2.66282e-07
-1.99039e-07
-2.74288e-07
-1.97854e-07
-2.82414e-07
-1.97144e-07
-2.90663e-07
-1.96991e-07
-3.01619e-07
-1.97779e-07
-3.10508e-07
-2.07941e-07
-3.20456e-07
-2.19293e-07
-3.31539e-07
-2.31863e-07
-3.43837e-07
-2.45721e-07
-3.57449e-07
-2.60969e-07
-3.7249e-07
-2.77754e-07
-3.89087e-07
-2.96277e-07
-4.07379e-07
-3.16809e-07
-4.27515e-07
-3.39689e-07
-4.49626e-07
-3.65352e-07
-4.73813e-07
-3.9445e-07
-5.00256e-07
-4.27478e-07
-5.29242e-07
-4.64299e-07
-5.61252e-07
-5.03701e-07
-5.97102e-07
-5.42684e-07
-6.3757e-07
-5.76264e-07
-6.82565e-07
-5.9889e-07
-7.30758e-07
-6.07253e-07
-7.8004e-07
-6.01874e-07
-8.2841e-07
-5.85875e-07
-8.7447e-07
-5.62681e-07
-9.17467e-07
-5.34969e-07
-9.57094e-07
-5.0437e-07
-9.93373e-07
-4.71809e-07
-1.02626e-06
-4.37806e-07
-1.05571e-06
-4.02667e-07
-1.08176e-06
-3.6659e-07
-1.10449e-06
-3.29731e-07
-1.12401e-06
-2.92224e-07
-1.14049e-06
-2.54196e-07
-1.15408e-06
-2.15759e-07
-1.16496e-06
-1.77018e-07
-1.17327e-06
-1.38038e-07
-1.17914e-06
-9.87723e-08
-1.18265e-06
-5.91185e-08
-1.9458e-08
6.57716e-07
-1.49298e-08
6.55239e-07
-4.47693e-08
6.51098e-07
-7.43985e-08
6.45289e-07
-1.037e-07
6.37802e-07
-1.32631e-07
6.28624e-07
-1.61134e-07
6.17742e-07
-1.89131e-07
6.05146e-07
-2.16523e-07
5.90833e-07
-2.43197e-07
5.74813e-07
-2.69011e-07
5.57107e-07
-2.9378e-07
5.37758e-07
-3.17267e-07
5.16834e-07
-3.39164e-07
4.94436e-07
-3.59085e-07
4.70709e-07
-3.76578e-07
4.45844e-07
-3.91163e-07
4.2008e-07
-4.02408e-07
3.93692e-07
-4.10036e-07
3.66964e-07
-4.14016e-07
3.40176e-07
-4.14605e-07
3.13572e-07
-4.12303e-07
2.8735e-07
-4.07749e-07
2.61656e-07
-4.01593e-07
2.36587e-07
-3.94402e-07
2.122e-07
-3.86612e-07
1.88527e-07
-3.78526e-07
1.6558e-07
-3.70331e-07
1.43361e-07
-3.62135e-07
1.21865e-07
-3.53992e-07
1.01086e-07
-3.45924e-07
8.10127e-08
-3.37941e-07
6.16342e-08
-3.30048e-07
4.29373e-08
-3.22254e-07
2.49075e-08
-3.1457e-07
7.5283e-09
-3.07015e-07
-9.21681e-09
-2.99615e-07
-2.53458e-08
-2.92368e-07
-4.0877e-08
-2.85268e-07
-5.58312e-08
-2.78336e-07
-7.02309e-08
-2.71597e-07
-8.40996e-08
-2.65069e-07
-9.7462e-08
-2.58771e-07
-1.10343e-07
-2.52715e-07
-1.22769e-07
-2.46915e-07
-1.34765e-07
-2.41378e-07
-1.4636e-07
-2.36111e-07
-1.57578e-07
-2.31116e-07
-1.68448e-07
-2.26396e-07
-1.78997e-07
-2.21946e-07
-1.89253e-07
-2.17766e-07
-1.99244e-07
-2.13848e-07
-2.09e-07
-2.10187e-07
-2.18553e-07
-2.06776e-07
-2.27936e-07
-2.03609e-07
-2.37184e-07
-2.00681e-07
-2.46338e-07
-1.97987e-07
-2.55441e-07
-1.95528e-07
-2.64544e-07
-1.93309e-07
-2.73693e-07
-1.91378e-07
-2.8296e-07
-1.89736e-07
-2.92402e-07
-1.88389e-07
-3.02036e-07
-1.87511e-07
-3.11811e-07
-1.87278e-07
-3.23346e-07
-1.89922e-07
-3.32681e-07
-1.9906e-07
-3.43119e-07
-2.0937e-07
-3.5467e-07
-2.20896e-07
-3.67393e-07
-2.33657e-07
-3.81372e-07
-2.47734e-07
-3.96695e-07
-2.63269e-07
-4.13453e-07
-2.80463e-07
-4.31742e-07
-2.99583e-07
-4.51665e-07
-3.20963e-07
-4.73301e-07
-3.45064e-07
-4.96751e-07
-3.72512e-07
-5.22245e-07
-4.03652e-07
-5.50157e-07
-4.38175e-07
-5.81046e-07
-4.74637e-07
-6.15602e-07
-5.09858e-07
-6.54304e-07
-5.39039e-07
-6.9688e-07
-5.57424e-07
-7.42091e-07
-5.62775e-07
-7.88179e-07
-5.56217e-07
-8.33543e-07
-5.40742e-07
-8.7705e-07
-5.19289e-07
-9.1803e-07
-4.94045e-07
-9.5613e-07
-4.66296e-07
-9.91193e-07
-4.36758e-07
-1.02317e-06
-4.05833e-07
-1.05207e-06
-3.73768e-07
-1.07793e-06
-3.40735e-07
-1.10079e-06
-3.06873e-07
-1.12071e-06
-2.72303e-07
-1.13776e-06
-2.3714e-07
-1.15203e-06
-2.01494e-07
-1.16358e-06
-1.65467e-07
-1.17249e-06
-1.29129e-07
-1.17881e-06
-9.24493e-08
-1.18258e-06
-5.53507e-08
-1.82174e-08
6.57652e-07
-1.40481e-08
6.55024e-07
-4.21411e-08
6.50659e-07
-7.00341e-08
6.44564e-07
-9.76042e-08
6.36739e-07
-1.24806e-07
6.27191e-07
-1.51585e-07
6.15923e-07
-1.77863e-07
6.02949e-07
-2.03548e-07
5.88287e-07
-2.28534e-07
5.71967e-07
-2.52689e-07
5.54034e-07
-2.75845e-07
5.34552e-07
-2.9778e-07
5.13607e-07
-3.18212e-07
4.91313e-07
-3.36781e-07
4.67819e-07
-3.53069e-07
4.43309e-07
-3.66631e-07
4.18002e-07
-3.77072e-07
3.92145e-07
-3.8414e-07
3.65991e-07
-3.87816e-07
3.39785e-07
-3.88345e-07
3.13742e-07
-3.86198e-07
2.88034e-07
-3.81974e-07
2.62789e-07
-3.76277e-07
2.38093e-07
-3.69634e-07
2.14002e-07
-3.62448e-07
1.90546e-07
-3.54997e-07
1.6774e-07
-3.47454e-07
1.4559e-07
-3.39917e-07
1.24097e-07
-3.32433e-07
1.03258e-07
-3.25021e-07
8.30658e-08
-3.17688e-07
6.35138e-08
-3.10438e-07
4.45926e-08
-3.03277e-07
2.6291e-08
-2.96215e-07
8.59601e-09
-2.8927e-07
-8.50588e-09
-2.82465e-07
-2.50302e-08
-2.75794e-07
-4.0992e-08
-2.69253e-07
-5.64098e-08
-2.62864e-07
-7.13037e-08
-2.56646e-07
-8.56954e-08
-2.50617e-07
-9.96078e-08
-2.44795e-07
-1.13065e-07
-2.39192e-07
-1.26092e-07
-2.3382e-07
-1.38716e-07
-2.28685e-07
-1.50962e-07
-2.23793e-07
-1.62857e-07
-2.19147e-07
-1.7443e-07
-2.14747e-07
-1.85708e-07
-2.10592e-07
-1.9672e-07
-2.06676e-07
-2.07496e-07
-2.02994e-07
-2.18066e-07
-1.9954e-07
-2.2846e-07
-1.96305e-07
-2.38711e-07
-1.93282e-07
-2.48854e-07
-1.90465e-07
-2.58923e-07
-1.87847e-07
-2.68959e-07
-1.85426e-07
-2.79004e-07
-1.83203e-07
-2.89107e-07
-1.81223e-07
-2.99332e-07
-1.79466e-07
-3.09751e-07
-1.77932e-07
-3.20468e-07
-1.76753e-07
-3.31342e-07
-1.76034e-07
-3.43033e-07
-1.81104e-07
-3.53203e-07
-1.8941e-07
-3.64302e-07
-1.98829e-07
-3.764e-07
-2.09409e-07
-3.8957e-07
-2.21163e-07
-4.0389e-07
-2.34166e-07
-4.19438e-07
-2.48562e-07
-4.36291e-07
-2.64552e-07
-4.54527e-07
-2.82403e-07
-4.74222e-07
-3.02449e-07
-4.95426e-07
-3.25181e-07
-5.18235e-07
-3.51172e-07
-5.42869e-07
-3.8062e-07
-5.69684e-07
-4.13048e-07
-5.99217e-07
-4.46789e-07
-6.32108e-07
-4.78519e-07
-6.68763e-07
-5.03666e-07
-7.08874e-07
-5.18246e-07
-7.51304e-07
-5.20946e-07
-7.94541e-07
-5.13327e-07
-8.37251e-07
-4.98216e-07
-8.78493e-07
-4.7814e-07
-9.17691e-07
-4.54891e-07
-9.54507e-07
-4.29501e-07
-9.88741e-07
-4.02534e-07
-1.02027e-06
-3.74308e-07
-1.04902e-06
-3.45018e-07
-1.07496e-06
-3.14798e-07
-1.09807e-06
-2.8376e-07
-1.11837e-06
-2.52007e-07
-1.13587e-06
-2.19641e-07
-1.1506e-06
-1.86761e-07
-1.1626e-06
-1.53465e-07
-1.17191e-06
-1.19824e-07
-1.17854e-06
-8.58178e-08
-1.18251e-06
-5.1383e-08
-1.69037e-08
6.57639e-07
-1.31531e-08
6.54954e-07
-3.94567e-08
6.50491e-07
-6.55703e-08
6.44262e-07
-9.1375e-08
6.36281e-07
-1.16826e-07
6.26564e-07
-1.41868e-07
6.15128e-07
-1.66427e-07
6.01998e-07
-1.90418e-07
5.87204e-07
-2.13739e-07
5.70784e-07
-2.36268e-07
5.52791e-07
-2.57849e-07
5.3329e-07
-2.78277e-07
5.12372e-07
-2.97288e-07
4.90149e-07
-3.14551e-07
4.66769e-07
-3.29677e-07
4.42412e-07
-3.42258e-07
4.17292e-07
-3.51929e-07
3.91647e-07
-3.58465e-07
3.65721e-07
-3.61853e-07
3.39749e-07
-3.62328e-07
3.13934e-07
-3.60333e-07
2.88439e-07
-3.56424e-07
2.63383e-07
-3.51164e-07
2.38847e-07
-3.45038e-07
2.1488e-07
-3.38421e-07
1.9151e-07
-3.31567e-07
1.68749e-07
-3.24634e-07
1.46602e-07
-3.17712e-07
1.25068e-07
-3.10842e-07
1.04143e-07
-3.04041e-07
8.3822e-08
-2.97315e-07
6.40979e-08
-2.90664e-07
4.49629e-08
-2.84094e-07
2.64072e-08
-2.77614e-07
8.41962e-09
-2.7124e-07
-9.01223e-09
-2.64991e-07
-2.59012e-08
-2.58862e-07
-4.22611e-08
-2.52848e-07
-5.81084e-08
-2.46968e-07
-7.34612e-08
-2.41241e-07
-8.83397e-08
-2.35685e-07
-1.02765e-07
-2.30313e-07
-1.16761e-07
-2.25137e-07
-1.30351e-07
-2.20168e-07
-1.4356e-07
-2.15412e-07
-1.56413e-07
-2.10873e-07
-1.68938e-07
-2.06554e-07
-1.81161e-07
-2.02454e-07
-1.9311e-07
-1.98571e-07
-2.04812e-07
-1.949e-07
-2.16297e-07
-1.91436e-07
-2.27593e-07
-1.8817e-07
-2.38728e-07
-1.85097e-07
-2.49732e-07
-1.82207e-07
-2.60634e-07
-1.79494e-07
-2.71465e-07
-1.76952e-07
-2.82254e-07
-1.74578e-07
-2.93033e-07
-1.72373e-07
-3.03835e-07
-1.70383e-07
-3.14722e-07
-1.68552e-07
-3.25738e-07
-1.66905e-07
-3.37012e-07
-1.65486e-07
-3.48899e-07
-1.64371e-07
-3.60178e-07
-1.70924e-07
-3.7129e-07
-1.78781e-07
-3.83089e-07
-1.87563e-07
-3.95729e-07
-1.97362e-07
-4.09315e-07
-2.08237e-07
-4.23934e-07
-2.20286e-07
-4.39665e-07
-2.33655e-07
-4.56584e-07
-2.48554e-07
-4.74768e-07
-2.65248e-07
-4.9429e-07
-2.84074e-07
-5.15209e-07
-3.05541e-07
-5.37661e-07
-3.30129e-07
-5.619e-07
-3.57899e-07
-5.8832e-07
-3.88202e-07
-6.1747e-07
-4.19176e-07
-6.49922e-07
-4.47445e-07
-6.85906e-07
-4.68788e-07
-7.24921e-07
-4.80013e-07
-7.65785e-07
-4.80572e-07
-8.07122e-07
-4.72269e-07
-8.47796e-07
-4.57689e-07
-8.87036e-07
-4.38972e-07
-9.24378e-07
-4.17584e-07
-9.59548e-07
-3.94348e-07
-9.92376e-07
-3.69713e-07
-1.02275e-06
-3.43935e-07
-1.0506e-06
-3.17172e-07
-1.07586e-06
-2.89534e-07
-1.09851e-06
-2.61116e-07
-1.11851e-06
-2.32009e-07
-1.13584e-06
-2.02305e-07
-1.15051e-06
-1.72093e-07
-1.16251e-06
-1.41464e-07
-1.17185e-06
-1.10488e-07
-1.17852e-06
-7.91492e-08
-1.18251e-06
-4.73934e-08
-1.55877e-08
6.5762e-07
-1.22397e-08
6.54886e-07
-3.67223e-08
6.50344e-07
-6.10283e-08
6.44012e-07
-8.50429e-08
6.35909e-07
-1.08722e-07
6.26056e-07
-1.32015e-07
6.14479e-07
-1.5485e-07
6.01209e-07
-1.77148e-07
5.86285e-07
-1.98814e-07
5.69753e-07
-2.19736e-07
5.51672e-07
-2.39767e-07
5.32116e-07
-2.58719e-07
5.11179e-07
-2.76347e-07
4.88979e-07
-2.92345e-07
4.65664e-07
-3.06353e-07
4.41411e-07
-3.17993e-07
4.1643e-07
-3.26931e-07
3.90947e-07
-3.3296e-07
3.65198e-07
-3.36075e-07
3.39404e-07
-3.365e-07
3.13758e-07
-3.34647e-07
2.88413e-07
-3.31036e-07
2.63483e-07
-3.26187e-07
2.39043e-07
-3.2055e-07
2.15141e-07
-3.14469e-07
1.918e-07
-3.08177e-07
1.69035e-07
-3.0182e-07
1.46847e-07
-2.95476e-07
1.25237e-07
-2.89185e-07
1.042e-07
-2.82959e-07
8.37314e-08
-2.76802e-07
6.38252e-08
-2.70715e-07
4.44741e-08
-2.64702e-07
2.56693e-08
-2.58771e-07
7.4006e-09
-2.52935e-07
-1.03432e-08
-2.47212e-07
-2.75737e-08
-2.41594e-07
-4.43035e-08
-2.36078e-07
-6.05474e-08
-2.30681e-07
-7.63223e-08
-2.25421e-07
-9.16467e-08
-2.20312e-07
-1.06541e-07
-2.15368e-07
-1.21026e-07
-2.10599e-07
-1.35125e-07
-2.06013e-07
-1.48861e-07
-2.01617e-07
-1.62258e-07
-1.97414e-07
-1.75343e-07
-1.93406e-07
-1.88141e-07
-1.89592e-07
-2.00677e-07
-1.85968e-07
-2.12978e-07
-1.82531e-07
-2.2507e-07
-1.79274e-07
-2.3698e-07
-1.76191e-07
-2.48734e-07
-1.73274e-07
-2.60358e-07
-1.70516e-07
-2.71877e-07
-1.67911e-07
-2.83313e-07
-1.65456e-07
-2.94688e-07
-1.63151e-07
-3.06013e-07
-1.6101e-07
-3.17305e-07
-1.59069e-07
-3.28585e-07
-1.57279e-07
-3.39821e-07
-1.55719e-07
-3.51013e-07
-1.54412e-07
-3.64316e-07
-1.53483e-07
-3.75455e-07
-1.6011e-07
-3.87132e-07
-1.67511e-07
-3.99452e-07
-1.75724e-07
-4.12539e-07
-1.84827e-07
-4.26498e-07
-1.94906e-07
-4.41412e-07
-2.06078e-07
-4.57361e-07
-2.18499e-07
-4.74422e-07
-2.32379e-07
-4.92675e-07
-2.47983e-07
-5.12197e-07
-2.65653e-07
-5.33068e-07
-2.85889e-07
-5.55458e-07
-3.09074e-07
-5.79635e-07
-3.35144e-07
-6.05986e-07
-3.63302e-07
-6.35005e-07
-3.91546e-07
-6.67133e-07
-4.16532e-07
-7.02417e-07
-4.34451e-07
-7.4025e-07
-4.42833e-07
-7.79518e-07
-4.41705e-07
-8.19035e-07
-4.32978e-07
-8.57861e-07
-4.1898e-07
-8.95358e-07
-4.01534e-07
-9.3113e-07
-3.8184e-07
-9.64927e-07
-3.60564e-07
-9.96581e-07
-3.38065e-07
-1.02597e-06
-3.14547e-07
-1.05301e-06
-2.90136e-07
-1.07762e-06
-2.64923e-07
-1.09975e-06
-2.38987e-07
-1.11935e-06
-2.12406e-07
-1.1364e-06
-1.85262e-07
-1.15085e-06
-1.57635e-07
-1.16271e-06
-1.29608e-07
-1.17195e-06
-1.01247e-07
-1.17856e-06
-7.25397e-08
-1.18252e-06
-4.34364e-08
-1.42828e-08
6.57613e-07
-1.13188e-08
6.54852e-07
-3.3962e-08
6.50266e-07
-5.64421e-08
6.43875e-07
-7.86511e-08
6.357e-07
-1.00547e-07
6.25767e-07
-1.22082e-07
6.14107e-07
-1.4319e-07
6.00755e-07
-1.63796e-07
5.85754e-07
-1.83813e-07
5.69155e-07
-2.03136e-07
5.51019e-07
-2.2163e-07
5.31423e-07
-2.39122e-07
5.10463e-07
-2.55385e-07
4.88257e-07
-2.70136e-07
4.64954e-07
-2.83044e-07
4.4073e-07
-2.9376e-07
4.15792e-07
-3.0198e-07
3.90365e-07
-3.07516e-07
3.64678e-07
-3.10367e-07
3.38949e-07
-3.10744e-07
3.13365e-07
-3.09033e-07
2.88075e-07
-3.05711e-07
2.63187e-07
-3.01262e-07
2.38772e-07
-2.96097e-07
2.14875e-07
-2.90531e-07
1.91517e-07
-2.84779e-07
1.68709e-07
-2.78972e-07
1.46454e-07
-2.73181e-07
1.24748e-07
-2.6744e-07
1.03588e-07
-2.61761e-07
8.29687e-08
-2.56146e-07
6.28838e-08
-2.50595e-07
4.33264e-08
-2.45111e-07
2.42882e-08
-2.397e-07
5.75973e-09
-2.34376e-07
-1.22689e-08
-2.29153e-07
-2.98092e-08
-2.24022e-07
-4.68722e-08
-2.1898e-07
-6.34714e-08
-2.14044e-07
-7.96224e-08
-2.0923e-07
-9.53422e-08
-2.04549e-07
-1.1065e-07
-2.00015e-07
-1.25564e-07
-1.95635e-07
-1.40108e-07
-1.91418e-07
-1.54301e-07
-1.87369e-07
-1.68168e-07
-1.83491e-07
-1.81732e-07
-1.79784e-07
-1.95016e-07
-1.76247e-07
-2.08045e-07
-1.72877e-07
-2.20843e-07
-1.69669e-07
-2.33435e-07
-1.66618e-07
-2.45846e-07
-1.63716e-07
-2.58098e-07
-1.60956e-07
-2.70218e-07
-1.58333e-07
-2.82228e-07
-1.5584e-07
-2.94151e-07
-1.53476e-07
-3.06009e-07
-1.51242e-07
-3.17813e-07
-1.49168e-07
-3.29592e-07
-1.47269e-07
-3.41344e-07
-1.45524e-07
-3.53022e-07
-1.44073e-07
-3.64509e-07
-1.43028e-07
-3.77801e-07
-1.43211e-07
-3.8905e-07
-1.49217e-07
-4.00997e-07
-1.55978e-07
-4.1365e-07
-1.63546e-07
-4.27067e-07
-1.71947e-07
-4.41326e-07
-1.81252e-07
-4.56502e-07
-1.9158e-07
-4.72669e-07
-2.03091e-07
-4.89905e-07
-2.15989e-07
-5.08297e-07
-2.30532e-07
-5.27927e-07
-2.47067e-07
-5.48906e-07
-2.66063e-07
-5.7143e-07
-2.878e-07
-5.95782e-07
-3.12109e-07
-6.22341e-07
-3.38069e-07
-6.51539e-07
-3.63593e-07
-6.83679e-07
-3.85453e-07
-7.18635e-07
-4.00302e-07
-7.55697e-07
-4.06315e-07
-7.93791e-07
-4.03941e-07
-8.31871e-07
-3.95081e-07
-8.6915e-07
-3.81795e-07
-9.05101e-07
-3.6563e-07
-9.39397e-07
-3.47566e-07
-9.71831e-07
-3.28141e-07
-1.00225e-06
-3.07648e-07
-1.03055e-06
-2.86249e-07
-1.05664e-06
-2.6405e-07
-1.08044e-06
-2.41125e-07
-1.10188e-06
-2.17541e-07
-1.12092e-06
-1.93369e-07
-1.13751e-06
-1.68678e-07
-1.1516e-06
-1.43541e-07
-1.16317e-06
-1.18033e-07
-1.17221e-06
-9.22137e-08
-1.17868e-06
-6.60727e-08
-1.18255e-06
-3.95648e-08
-1.3008e-08
6.57606e-07
-1.03912e-08
6.54826e-07
-3.11816e-08
6.50207e-07
-5.18231e-08
6.43771e-07
-7.22149e-08
6.35542e-07
-9.23183e-08
6.25547e-07
-1.12088e-07
6.1382e-07
-1.31464e-07
6.004e-07
-1.50375e-07
5.8533e-07
-1.68743e-07
5.68665e-07
-1.86471e-07
5.5047e-07
-2.03435e-07
5.30824e-07
-2.19475e-07
5.09824e-07
-2.34383e-07
4.8759e-07
-2.479e-07
4.64271e-07
-2.59721e-07
4.40045e-07
-2.69528e-07
4.15115e-07
-2.77042e-07
3.89705e-07
-2.82094e-07
3.64042e-07
-2.84688e-07
3.38337e-07
-2.8502e-07
3.12774e-07
-2.83447e-07
2.87497e-07
-2.80409e-07
2.62612e-07
-2.76348e-07
2.38186e-07
-2.71641e-07
2.14261e-07
-2.66575e-07
1.90858e-07
-2.61343e-07
1.67984e-07
-2.56066e-07
1.45642e-07
-2.50806e-07
1.23829e-07
-2.45594e-07
1.0254e-07
-2.4044e-07
8.1769e-08
-2.35344e-07
6.15106e-08
-2.30307e-07
4.17578e-08
-2.25329e-07
2.25027e-08
-2.20418e-07
3.73625e-09
-2.15584e-07
-1.45507e-08
-2.1084e-07
-3.23686e-08
-2.06176e-07
-4.97276e-08
-2.01591e-07
-6.66403e-08
-1.97099e-07
-8.31208e-08
-1.92713e-07
-9.91849e-08
-1.88446e-07
-1.1485e-07
-1.84308e-07
-1.30134e-07
-1.80307e-07
-1.45056e-07
-1.76449e-07
-1.59637e-07
-1.72739e-07
-1.73898e-07
-1.69178e-07
-1.8786e-07
-1.65768e-07
-2.01544e-07
-1.62506e-07
-2.14973e-07
-1.5939e-07
-2.28168e-07
-1.56415e-07
-2.41151e-07
-1.53574e-07
-2.53945e-07
-1.50861e-07
-2.6657e-07
-1.4827e-07
-2.79049e-07
-1.45793e-07
-2.91403e-07
-1.43426e-07
-3.03653e-07
-1.41167e-07
-3.15822e-07
-1.39017e-07
-3.27928e-07
-1.37005e-07
-3.39999e-07
-1.35138e-07
-3.52052e-07
-1.3341e-07
-3.64085e-07
-1.31962e-07
-3.75781e-07
-1.30904e-07
-3.89164e-07
-1.32707e-07
-4.00701e-07
-1.38076e-07
-4.12926e-07
-1.44187e-07
-4.25863e-07
-1.51087e-07
-4.39561e-07
-1.58777e-07
-4.54086e-07
-1.67314e-07
-4.69507e-07
-1.76812e-07
-4.85899e-07
-1.87423e-07
-5.03344e-07
-1.99347e-07
-5.21937e-07
-2.12829e-07
-5.41773e-07
-2.28214e-07
-5.62989e-07
-2.45926e-07
-5.858e-07
-2.6615e-07
-6.10489e-07
-2.88631e-07
-6.37402e-07
-3.12356e-07
-6.66885e-07
-3.35215e-07
-6.99091e-07
-3.5417e-07
-7.33742e-07
-3.66338e-07
-7.70072e-07
-3.70438e-07
-8.07088e-07
-3.67196e-07
-8.43884e-07
-3.58433e-07
-8.79802e-07
-3.45954e-07
-9.14404e-07
-3.31066e-07
-9.47415e-07
-3.14574e-07
-9.78649e-07
-2.96916e-07
-1.00797e-06
-2.78329e-07
-1.03528e-06
-2.58946e-07
-1.06048e-06
-2.38852e-07
-1.08349e-06
-2.18111e-07
-1.10425e-06
-1.96779e-07
-1.1227e-06
-1.74917e-07
-1.13879e-06
-1.52587e-07
-1.15248e-06
-1.29853e-07
-1.16373e-06
-1.06782e-07
-1.17252e-06
-8.34269e-08
-1.17881e-06
-5.97792e-08
-1.18258e-06
-3.57968e-08
-1.17684e-08
6.57602e-07
-9.45951e-09
6.54808e-07
-2.83875e-08
6.50166e-07
-4.71808e-08
6.43697e-07
-6.57467e-08
6.35428e-07
-8.40493e-08
6.25388e-07
-1.02047e-07
6.1361e-07
-1.19685e-07
6.00134e-07
-1.369e-07
5.85008e-07
-1.53617e-07
5.68287e-07
-1.6975e-07
5.50036e-07
-1.85185e-07
5.30338e-07
-1.99776e-07
5.09289e-07
-2.13334e-07
4.87011e-07
-2.25622e-07
4.63655e-07
-2.36363e-07
4.39397e-07
-2.45267e-07
4.14442e-07
-2.52083e-07
3.89012e-07
-2.56658e-07
3.63332e-07
-2.58999e-07
3.37613e-07
-2.59288e-07
3.12035e-07
-2.57853e-07
2.86739e-07
-2.55095e-07
2.61827e-07
-2.51415e-07
2.37365e-07
-2.47156e-07
2.13391e-07
-2.42577e-07
1.89926e-07
-2.37852e-07
1.66975e-07
-2.33089e-07
1.4454e-07
-2.28345e-07
1.22617e-07
-2.23645e-07
1.012e-07
-2.18998e-07
8.02849e-08
-2.14403e-07
5.98643e-08
-2.09862e-07
3.9932e-08
-2.05373e-07
2.04805e-08
-2.00944e-07
1.50113e-09
-1.96583e-07
-1.70149e-08
-1.92303e-07
-3.50767e-08
-1.88091e-07
-5.2694e-08
-1.83947e-07
-6.98781e-08
-1.79885e-07
-8.66421e-08
-1.75918e-07
-1.03e-07
-1.72054e-07
-1.18969e-07
-1.68303e-07
-1.34564e-07
-1.64672e-07
-1.49804e-07
-1.61167e-07
-1.64708e-07
-1.57791e-07
-1.79293e-07
-1.54546e-07
-1.93579e-07
-1.51432e-07
-2.07585e-07
-1.48448e-07
-2.21332e-07
-1.4559e-07
-2.34837e-07
-1.42854e-07
-2.48121e-07
-1.40235e-07
-2.61201e-07
-1.37725e-07
-2.74096e-07
-1.35319e-07
-2.86825e-07
-1.33009e-07
-2.99406e-07
-1.30793e-07
-3.11857e-07
-1.28666e-07
-3.24198e-07
-1.26629e-07
-3.36455e-07
-1.24708e-07
-3.48658e-07
-1.22901e-07
-3.60836e-07
-1.21207e-07
-3.73034e-07
-1.1975e-07
-3.85329e-07
-1.18622e-07
-3.98384e-07
-1.21583e-07
-4.10392e-07
-1.26479e-07
-4.22977e-07
-1.3204e-07
-4.36222e-07
-1.38315e-07
-4.50201e-07
-1.45314e-07
-4.64983e-07
-1.53097e-07
-4.80644e-07
-1.61774e-07
-4.97264e-07
-1.71491e-07
-5.14935e-07
-1.82435e-07
-5.33762e-07
-1.94837e-07
-5.53857e-07
-2.09038e-07
-5.75383e-07
-2.25404e-07
-5.98563e-07
-2.4404e-07
-6.23675e-07
-2.64624e-07
-6.51024e-07
-2.86086e-07
-6.8086e-07
-3.06356e-07
-7.13195e-07
-3.22634e-07
-7.47626e-07
-3.32491e-07
-7.83358e-07
-3.35085e-07
-8.19471e-07
-3.31306e-07
-8.55181e-07
-3.22846e-07
-8.89929e-07
-3.11268e-07
-9.23352e-07
-2.97673e-07
-9.55217e-07
-2.82724e-07
-9.85363e-07
-2.66777e-07
-1.01367e-06
-2.50025e-07
-1.04004e-06
-2.32578e-07
-1.06439e-06
-2.14506e-07
-1.08664e-06
-1.95862e-07
-1.10672e-06
-1.76695e-07
-1.12458e-06
-1.57057e-07
-1.14016e-06
-1.37003e-07
-1.15343e-06
-1.16589e-07
-1.16434e-06
-9.58734e-08
-1.17286e-06
-7.49045e-08
-1.17896e-06
-5.36732e-08
-1.18262e-06
-3.21412e-08
-1.05668e-08
6.57598e-07
-8.52421e-09
6.54793e-07
-2.55821e-08
6.50132e-07
-4.25193e-08
6.43637e-07
-5.92517e-08
6.35334e-07
-7.57467e-08
6.25253e-07
-9.19669e-08
6.1343e-07
-1.07862e-07
5.99904e-07
-1.23374e-07
5.84725e-07
-1.38438e-07
5.67948e-07
-1.52973e-07
5.49641e-07
-1.66878e-07
5.29885e-07
-1.80021e-07
5.0878e-07
-1.9223e-07
4.86449e-07
-2.03291e-07
4.63042e-07
-2.12956e-07
4.38738e-07
-2.20962e-07
4.13741e-07
-2.27084e-07
3.88274e-07
-2.31188e-07
3.6256e-07
-2.3328e-07
3.36808e-07
-2.33529e-07
3.11197e-07
-2.32232e-07
2.85865e-07
-2.2975e-07
2.60912e-07
-2.26447e-07
2.36401e-07
-2.22628e-07
2.12369e-07
-2.18526e-07
1.88834e-07
-2.14298e-07
1.65802e-07
-2.10037e-07
1.43273e-07
-2.05794e-07
1.21242e-07
-2.01593e-07
9.97041e-08
-1.97439e-07
7.86539e-08
-1.93332e-07
5.80849e-08
-1.89272e-07
3.79907e-08
-1.8526e-07
1.8364e-08
-1.81299e-07
-8.03229e-10
-1.77398e-07
-1.95195e-08
-1.73569e-07
-3.77929e-08
-1.69797e-07
-5.56324e-08
-1.66085e-07
-7.30485e-08
-1.62444e-07
-9.00533e-08
-1.58885e-07
-1.0666e-07
-1.55416e-07
-1.22883e-07
-1.52046e-07
-1.38738e-07
-1.48781e-07
-1.54242e-07
-1.45625e-07
-1.6941e-07
-1.42582e-07
-1.84259e-07
-1.39653e-07
-1.98809e-07
-1.36838e-07
-2.13074e-07
-1.34135e-07
-2.27074e-07
-1.31542e-07
-2.40824e-07
-1.29054e-07
-2.5434e-07
-1.26667e-07
-2.67639e-07
-1.24375e-07
-2.80736e-07
-1.22172e-07
-2.93645e-07
-1.20052e-07
-3.06381e-07
-1.18012e-07
-3.18962e-07
-1.16047e-07
-3.31404e-07
-1.14156e-07
-3.43733e-07
-1.12359e-07
-3.5598e-07
-1.10648e-07
-3.68189e-07
-1.09013e-07
-3.80434e-07
-1.07547e-07
-3.93377e-07
-1.06396e-07
-4.06101e-07
-1.10011e-07
-4.18492e-07
-1.14503e-07
-4.31402e-07
-1.19566e-07
-4.44929e-07
-1.2525e-07
-4.59163e-07
-1.31579e-07
-4.74185e-07
-1.38618e-07
-4.90077e-07
-1.46476e-07
-5.0693e-07
-1.55289e-07
-5.24844e-07
-1.65235e-07
-5.43934e-07
-1.76532e-07
-5.6433e-07
-1.89501e-07
-5.86214e-07
-2.04451e-07
-6.09815e-07
-2.21425e-07
-6.35393e-07
-2.40052e-07
-6.63205e-07
-2.59246e-07
-6.93399e-07
-2.77027e-07
-7.2586e-07
-2.9087e-07
-7.60085e-07
-2.98764e-07
-7.95279e-07
-3.00211e-07
-8.306e-07
-2.96172e-07
-8.65366e-07
-2.88181e-07
-8.99105e-07
-2.77581e-07
-9.31509e-07
-2.65295e-07
-9.62378e-07
-2.51868e-07
-9.9157e-07
-2.3759e-07
-1.01898e-06
-2.2262e-07
-1.04451e-06
-2.07048e-07
-1.06809e-06
-1.90931e-07
-1.08963e-06
-1.74314e-07
-1.10909e-06
-1.5724e-07
-1.12639e-06
-1.39753e-07
-1.14149e-06
-1.21901e-07
-1.15435e-06
-1.03732e-07
-1.16493e-06
-8.5298e-08
-1.17319e-06
-6.66404e-08
-1.17911e-06
-4.77512e-08
-1.18266e-06
-2.85959e-08
-9.40212e-09
6.57595e-07
-7.58592e-09
6.5478e-07
-2.27671e-08
6.50103e-07
-3.78414e-08
6.43584e-07
-5.27336e-08
6.35252e-07
-6.74146e-08
6.25136e-07
-8.18509e-08
6.13272e-07
-9.59976e-08
5.997e-07
-1.09803e-07
5.8447e-07
-1.23209e-07
5.6764e-07
-1.36143e-07
5.49276e-07
-1.48515e-07
5.29462e-07
-1.60207e-07
5.08297e-07
-1.71067e-07
4.85907e-07
-1.80903e-07
4.62442e-07
-1.89492e-07
4.38081e-07
-1.96604e-07
4.13032e-07
-2.02036e-07
3.87516e-07
-2.05672e-07
3.61757e-07
-2.0752e-07
3.35961e-07
-2.07731e-07
3.10307e-07
-2.06572e-07
2.8493e-07
-2.04366e-07
2.59928e-07
-2.01435e-07
2.35362e-07
-1.98051e-07
2.11269e-07
-1.94419e-07
1.87663e-07
-1.90677e-07
1.64551e-07
-1.86909e-07
1.41932e-07
-1.83159e-07
1.198e-07
-1.79445e-07
9.81516e-08
-1.75773e-07
7.69793e-08
-1.72143e-07
5.62777e-08
-1.68554e-07
3.60403e-08
-1.65006e-07
1.62603e-08
-1.61504e-07
-3.06996e-09
-1.58054e-07
-2.19584e-08
-1.54665e-07
-4.04125e-08
-1.51325e-07
-5.84406e-08
-1.48037e-07
-7.60524e-08
-1.4481e-07
-9.3259e-08
-1.41654e-07
-1.10073e-07
-1.38576e-07
-1.26507e-07
-1.35583e-07
-1.42576e-07
-1.3268e-07
-1.58294e-07
-1.29872e-07
-1.73678e-07
-1.27161e-07
-1.88742e-07
-1.24549e-07
-2.03502e-07
-1.22035e-07
-2.17975e-07
-1.19619e-07
-2.32175e-07
-1.17297e-07
-2.46117e-07
-1.15065e-07
-2.59817e-07
-1.12921e-07
-2.73287e-07
-1.10858e-07
-2.86541e-07
-1.08873e-07
-2.99592e-07
-1.0696e-07
-3.12451e-07
-1.05115e-07
-3.25131e-07
-1.03337e-07
-3.37644e-07
-1.01625e-07
-3.49992e-07
-1.00008e-07