/*--------------------------------*- C++ -*----------------------------------*\
  =========                 |
  \\      /  F ield         | OpenFOAM: The Open Source CFD Toolbox
   \\    /   O peration     | Website:  https://openfoam.org
    \\  /    A nd           | Version:  8
     \\/     M anipulation  |
\*---------------------------------------------------------------------------*/
FoamFile
{
    version     2.0;
    format      ascii;
    class       volScalarField;
    location    "300/fluid";
    object      Qdot;
}
// * * * * * * * * * * * * * * * * * * * * * * * * * * * * * * * * * * * * * //

dimensions      [1 -1 -3 0 0 0 0];

internalField   nonuniform List<scalar> 
4000
(
3.72318e-13
0
0
3.0331e-07
0
3.82957e-16
-5.67376e-20
-3.46077e-07
0
-2.45191e-19
0
2.43083e-10
-6.07011e-10
0
2.96299e-14
-1.29205e-17
2.08051e-09
-1.04244e-15
9.51932e-09
8.14832e-08
1.17179e-06
1.47213e-05
0.000176373
0.00183673
0.0158273
0.11207
0.654405
3.18614
13.1239
46.4441
143.293
390.387
952.075
2095.98
4194.18
7697.02
13107.6
20925.7
31696.5
46118.7
65174.9
90241.1
123132
166289
222975
297559
395855
525513
696542
922008
1.21894e+06
1.60954e+06
2.12275e+06
2.79627e+06
3.67927e+06
4.83591e+06
6.35008e+06
8.33199e+06
1.09273e+07
1.42596e+07
1.86346e+07
2.45213e+07
3.23354e+07
3.61893e+08
8.51751e+07
2.58096e+07
1.84405e+07
1.29887e+07
9.00056e+06
6.12293e+06
4.08089e+06
2.6615e+06
1.70165e+06
1.07919e+06
702100
237155
22541.9
666.793
9.45676
0.0836312
0.000740141
1.16861e-05
4.75517e-07
4.9792e-08
9.61432e-09
2.98009e-09
8.97999e-10
4.2214e-10
1.67871e-10
7.73644e-11
3.28042e-11
1.34716e-11
4.37934e-12
8.27451e-12
1.9634e-12
3.82104e-13
1.6338e-13
6.22368e-14
2.20074e-14
3.63421e-15
-4.87362e-18
2.78184e-07
2.9036e-07
0
-3.12747e-07
3.22952e-07
-3.32436e-07
0
6.90645e-11
-1.14677e-10
-2.33434e-10
0
3.74207e-07
2.03953e-18
-2.87531e-14
-1.6701e-17
-2.01627e-09
-1.17289e-15
9.2281e-09
2.97217e-07
1.25134e-06
1.55077e-05
0.000184382
0.00190347
0.0163564
0.115759
0.67654
3.29975
13.6249
48.3689
149.866
410.894
1005.68
2218.06
4438.09
8126.36
13801.5
21962.5
33141.8
48027.5
67600.5
93237.4
126786
170756
228506
304553
404892
537429
712533
943788
1.24898e+06
1.65139e+06
2.18153e+06
2.87933e+06
3.79704e+06
5.00297e+06
6.58632e+06
8.66339e+06
1.13852e+07
1.4862e+07
1.95079e+07
2.55717e+07
3.3453e+07
4.28189e+08
4.02676e+07
2.47043e+07
1.75809e+07
1.23392e+07
8.51973e+06
5.77285e+06
3.8303e+06
2.48582e+06
1.58214e+06
1.00202e+06
639623
168185
11495.9
274.495
3.30236
0.0273978
0.000266284
5.26912e-06
2.77056e-07
3.50109e-08
7.3868e-09
2.63444e-09
9.87215e-10
3.81348e-10
1.69274e-10
7.45719e-11
3.00594e-11
1.31448e-11
1.13124e-11
2.40278e-12
8.72317e-13
3.80763e-13
1.49216e-13
6.23022e-14
1.90772e-14
3.28827e-15
-6.98757e-22
6.97162e-13
0
0
-3.09068e-07
-3.74023e-16
0
0
1.2234e-10
2.48975e-10
2.78721e-10
0
-5.7138e-10
1.96984e-18
-2.1169e-09
-1.9199e-09
-1.46548e-16
3.81748e-07
8.88721e-09
1.03182e-07
1.40722e-06
1.69895e-05
0.000203736
0.00209475
0.0179279
0.126551
0.738742
3.60275
14.8841
52.8784
163.907
449.081
1099.4
2425.25
4849.79
8855.83
14972.5
23728.3
35638.5
51389.2
71977
98805.1
133800
179600
239747
319011
423719
562237
745573
988233
1.30934e+06
1.73418e+06
2.29616e+06
3.03961e+06
4.02339e+06
5.32593e+06
7.05194e+06
9.34183e+06
1.23693e+07
1.63213e+07
2.16927e+07
2.88211e+07
3.82319e+07
4.29952e+08
3.16646e+07
2.2811e+07
1.6214e+07
1.13483e+07
7.80389e+06
5.26084e+06
3.46997e+06
2.23836e+06
1.41867e+06
901622
528325
98589.8
4857.27
96.9618
1.05953
0.00910025
0.000105765
2.69856e-06
1.79248e-07
2.58389e-08
6.7023e-09
2.317e-09
8.39624e-10
3.17135e-10
1.51706e-10
6.14956e-11
2.93684e-11
1.29688e-11
4.50815e-12
2.15882e-12
1.71328e-12
3.50417e-13
1.43302e-13
5.28328e-14
1.76607e-14
3.30871e-15
-3.711e-13
0
-2.86847e-07
7.34008e-12
-7.56637e-12
2.8972e-12
0
0
-3.3453e-07
0
-2.72484e-10
0
0
0
-2.69484e-14
-5.44362e-14
-1.57894e-16
-1.46992e-15
1.2468e-08
-7.65172e-08
1.36399e-06
1.89134e-05
0.000226219
0.00231922
0.0198331
0.139976
0.817445
3.99006
16.5039
58.713
182.243
499.924
1224.93
2702.52
5397.45
9820.27
16516.5
26042.3
38893
55755.7
77655
106042
142960
191208
254566
338106
448554
594805
788596
1.04545e+06
1.38593e+06
1.83736e+06
2.43611e+06
3.2308e+06
4.28668e+06
5.69172e+06
7.56537e+06
1.0071e+07
1.33896e+07
1.78298e+07
2.40242e+07
3.25386e+07
6.58645e+07
3.79622e+08
2.96159e+07
2.12183e+07
1.49902e+07
1.04211e+07
7.11358e+06
4.75785e+06
3.11307e+06
1.99377e+06
1.25954e+06
807648
388774
50159.8
1863.45
31.5445
0.318651
0.00289666
4.08517e-05
1.34412e-06
1.1155e-07
1.85224e-08
5.27237e-09
1.83178e-09
8.26598e-10
3.08109e-10
1.19925e-10
5.75353e-11
1.95429e-11
1.10988e-11
1.05766e-11
-3.85635e-12
7.58049e-13
2.76126e-13
1.25339e-13
-5.3046e-12
1.62774e-14
2.97294e-15
0
-8.50564e-13
0
0
6.08828e-12
1.53393e-11
-2.55032e-11
0
0
-3.12465e-15
0
0
3.43092e-07
8.88061e-10
1.99491e-09
-2.27011e-17
2.24006e-09
-1.65324e-15
1.66364e-08
3.09922e-07
1.75934e-06
2.13485e-05
0.000254103
0.00260412
0.0222552
0.157051
0.91748
4.48169
18.5571
66.0996
205.437
564.186
1383.28
3050.68
6079.19
11007.6
18399.2
28830.7
42769.6
60906.3
84300.1
114475
153616
204713
271809
360303
477342
632360
837814
1.11017e+06
1.47125e+06
1.94999e+06
2.58486e+06
3.42712e+06
4.54521e+06
6.03083e+06
8.00734e+06
1.06415e+07
1.41004e+07
1.86804e+07
2.49777e+07
3.34452e+07
2.38851e+08
2.27952e+08
2.84067e+07
2.01191e+07
1.40564e+07
9.66674e+06
6.52907e+06
4.32194e+06
2.80036e+06
1.77919e+06
1.12106e+06
724002
246453
23364
691.054
10.1965
0.0988999
0.000989956
1.72839e-05
7.28284e-07
7.34029e-08
1.48929e-08
4.14104e-09
1.367e-09
5.62567e-10
2.74741e-10
1.11164e-10
5.67377e-11
2.76481e-11
9.75588e-12
4.25055e-12
7.33027e-12
6.28544e-12
2.87521e-13
5.55351e-12
3.83327e-14
1.34187e-14
2.63722e-15
3.70122e-13
1.57884e-13
0
0
0
-3.0611e-07
0
-6.27769e-11
0
-1.28778e-10
-3.28486e-07
3.31053e-07
0
-1.81047e-18
-8.69218e-10
-2.56895e-17
2.17023e-09
-1.85421e-15
1.16509e-08
1.5471e-07
1.79913e-06
2.41396e-05
0.000288135
0.00295374
0.0252491
0.178236
1.04178
5.09273
21.1075
75.2664
234.183
643.686
1578.55
3477.49
6905.63
12427.2
20626.2
32082.4
47229.1
66766
91787.7
123926
165530
219807
291093
385144
509576
674430
892973
1.18274e+06
1.56694e+06
2.07633e+06
2.75167e+06
3.64698e+06
4.8339e+06
6.4074e+06
8.49339e+06
1.12588e+07
1.48425e+07
1.95724e+07
2.59984e+07
3.45025e+07
3.79328e+08
9.52223e+07
2.71751e+07
1.90011e+07
1.31229e+07
8.92894e+06
5.97019e+06
3.91432e+06
2.51427e+06
1.58719e+06
1.00003e+06
630965
156980
10376.3
255.43
3.37121
0.0323326
0.000364312
7.88321e-06
4.18315e-07
5.22243e-08
1.06241e-08
3.56164e-09
1.35388e-09
5.86994e-10
2.44853e-10
1.10886e-10
4.27167e-11
2.3263e-11
7.93048e-12
3.39677e-12
2.44428e-12
5.50832e-13
2.51272e-13
9.0724e-13
-4.47699e-12
1.35155e-14
2.30032e-15
3.69616e-13
-6.86645e-13
-2.83199e-12
0
-1.73952e-16
0
0
-1.11889e-10
1.01589e-10
0
2.54013e-10
-4.15814e-10
0
0
-8.43528e-10
-2.84516e-17
3.3343e-07
-2.06714e-15
1.55337e-08
1.57114e-07
1.89489e-06
2.73883e-05
0.000329226
0.00337603
0.0288799
0.203994
1.19319
5.83792
24.2202
86.4601
269.289
740.71
1816.29
3994.05
7893.22
14097.2
23213.3
35800
52249.5
73275.3
100020
134247
178483
236178
311972
412013
544429
719958
952819
1.26187e+06
1.67216e+06
2.21699e+06
2.94071e+06
3.90231e+06
5.18035e+06
6.87931e+06
9.13799e+06
1.21389e+07
1.60225e+07
2.12942e+07
2.82549e+07
3.73621e+07
4.57476e+08
3.44525e+07
2.44601e+07
1.71406e+07
1.18356e+07
8.03738e+06
5.35698e+06
3.49869e+06
2.23917e+06
1.41197e+06
896126
517006
93039.5
4612.49
97.504
1.18073
0.0115127
0.00014856
3.96484e-06
2.60133e-07
3.62341e-08
8.92576e-09
3.00109e-09
1.2355e-09
4.74855e-10
2.04109e-10
9.65286e-11
3.57551e-11
1.73902e-11
7.51337e-12
2.97225e-12
6.9161e-12
5.22798e-13
1.05129e-12
8.91019e-14
3.57055e-14
1.2127e-14
1.78192e-15
2.03512e-13
0
0
-7.08828e-12
-1.72054e-16
3.50339e-16
0
6.06251e-11
-1.45469e-15
-1.00385e-10
0
1.18397e-14
1.18777e-14
0
1.82405e-09
-3.10026e-17
-2.42515e-16
-3.2735e-07
1.49851e-08
2.02761e-08
2.41e-06
3.13207e-05
0.000377213
0.00387881
0.0332197
0.234879
1.37519
6.73553
27.9769
99.9923
311.787
858.216
2103.74
4614.7
9062.28
16038.3
26184.7
39996.8
57826.3
80403.3
108935
145329
192292
253518
333935
440066
580529
766734
1.01383e+06
1.342e+06
1.77819e+06
2.35848e+06
3.13128e+06
4.1618e+06
5.53811e+06
7.37975e+06
9.84971e+06
1.31435e+07
1.75171e+07
2.36149e+07
3.19209e+07
4.58702e+07
4.23477e+08
3.08334e+07
2.19859e+07
1.54452e+07
1.06739e+07
7.24467e+06
4.82125e+06
3.14247e+06
2.00837e+06
1.2689e+06
815106
397863
53368.6
2115.63
39.3375
0.447066
0.00452397
6.72974e-05
2.18855e-06
1.72286e-07
2.82281e-08
7.26897e-09
2.57063e-09
1.01851e-09
4.18933e-10
1.88765e-10
8.63949e-11
3.63124e-11
1.47497e-11
6.65838e-12
2.95969e-12
1.19072e-12
4.99894e-13
2.2655e-13
-7.05541e-13
3.28524e-14
1.07314e-14
1.97818e-15
0
1.98879e-17
8.16286e-17
0
1.70078e-16
-3.45594e-16
0
1.01567e-19
-2.04718e-19
0
-3.06127e-07
0
-4.86246e-10
0
-9.74768e-10
-1.59017e-09
-1.59678e-09
-9.64088e-14
1.44344e-08
2.03875e-07
2.6189e-06
3.58171e-05
0.00043404
0.00446927
0.0383374
0.271433
1.59131
7.80486
32.4665
116.215
362.879
999.727
2449.58
5356.47
10434.9
18271.5
29563.8
44685.9
63964.6
88136.4
118506
157126
206878
271673
356687
468748
616853
812912
1.07273e+06
1.41734e+06
1.87485e+06
2.48287e+06
3.29192e+06
4.37003e+06
5.80919e+06
7.73431e+06
1.03159e+07
1.37409e+07
1.82899e+07
2.46346e+07
3.32661e+07
1.54588e+08
3.18731e+08
2.90802e+07
2.06108e+07
1.44059e+07
9.91048e+06
6.69779e+06
4.43923e+06
2.88306e+06
1.83849e+06
1.16377e+06
755188
282905
30646.4
1017.94
16.9836
0.184806
0.00197063
3.3802e-05
1.32048e-06
1.21362e-07
2.26631e-08
6.42684e-09
2.15021e-09
8.08748e-10
3.6363e-10
1.73414e-10
7.55539e-11
3.28164e-11
1.30515e-11
6.61745e-12
3.34976e-12
1.14219e-12
-3.43957e-13
2.01959e-13
7.40106e-14
7.96752e-13
-5.12167e-12
-5.03346e-12
4.82206e-18
0
0
0
0
-3.40947e-16
2.93214e-07
-1.38973e-15
2.97266e-07
0
2.36461e-10
-4.72981e-10
0
-2.98265e-07
9.43813e-10
-2.99852e-07
3.52879e-10
-2.89297e-15
1.38816e-08
2.47844e-07
2.88659e-06
4.12663e-05
0.000499121
0.00515345
0.0442949
0.314171
1.84507
9.06591
37.7848
135.52
423.929
1169.31
2863.87
6238.17
12030.5
20808.9
33365.7
49871.8
70656.7
96479.4
128763
169705
222361
290836
380516
498474
653995
859322
1.13064e+06
1.48942e+06
1.96417e+06
2.59285e+06
3.42608e+06
4.53149e+06
5.99958e+06
7.95177e+06
1.05514e+07
1.3971e+07
1.84638e+07
2.46459e+07
3.29105e+07
2.90208e+08
1.95767e+08
2.80862e+07
1.97719e+07
1.37344e+07
9.39508e+06
6.31625e+06
4.16625e+06
2.69456e+06
1.7137e+06
1.08601e+06
703289
213923
17889.8
516.098
7.87662
0.0835401
0.000948337
1.86663e-05
8.54154e-07
8.93955e-08
1.79523e-08
5.59614e-09
1.93365e-09
8.00043e-10
3.46921e-10
1.53593e-10
7.48119e-11
2.85995e-11
1.13869e-11
5.39051e-12
2.33701e-12
9.85579e-13
4.48709e-13
1.65475e-13
6.54301e-14
2.71088e-14
8.64868e-15
1.64612e-15
2.62197e-07
3.01175e-12
0
0
2.38637e-20
4.82674e-20
0
0
2.9119e-07
0
7.86581e-19
1.09368e-14
0
-3.12123e-18
-7.42672e-10
-2.89763e-07
-3.29752e-16
2.88827e-07
1.63149e-08
2.68009e-07
3.66747e-06
4.73439e-05
0.000572955
0.00593454
0.0511314
0.363471
2.13937
10.5366
44.0236
158.301
496.374
1371.35
3357.29
7277.78
13869.4
23671.2
37575
55523.8
77860.4
105402
139711
183134
238914
311340
406016
530259
693643
908744
1.19213e+06
1.56565e+06
2.05823e+06
2.7081e+06
3.56597e+06
4.69913e+06
6.19705e+06
8.17807e+06
1.07982e+07
1.42197e+07
1.86974e+07
2.48427e+07
3.30466e+07
3.77624e+08
1.07925e+08
2.68846e+07
1.88657e+07
1.30612e+07
8.90448e+06
5.96669e+06
3.92351e+06
2.53108e+06
1.60794e+06
1.02179e+06
648593
160796
10783.2
277.306
3.93702
0.0412861
0.000501649
1.12349e-05
5.92141e-07
6.97625e-08
1.55587e-08
4.78035e-09
1.72124e-09
7.42223e-10
3.07768e-10
1.50366e-10
5.7218e-11
2.69545e-11
1.24243e-11
4.96525e-12
2.23665e-12
8.84511e-13
3.98974e-13
1.53309e-13
5.95354e-14
2.42235e-14
5.1092e-12
1.38771e-15
-6.90253e-22
0
3.36715e-12
0
0
0
2.28444e-11
1.92203e-19
0
1.12707e-10
0
-2.83206e-07
0
8.85869e-10
-7.17361e-10
-4.795e-17
-1.42758e-09
-3.56873e-15
3.03474e-07
1.68059e-07
3.90201e-06
5.37551e-05
0.000655446
0.00681061
0.058848
0.419467
2.47583
12.2296
51.2571
184.908
581.57
1610.1
3939.79
8487.82
15958.8
26857.4
42116.1
61532.8
85438.3
114760
151212
197305
256474
333213
433373
564564
736730
962902
1.2602e+06
1.65116e+06
2.16548e+06
2.84228e+06
3.73319e+06
4.90628e+06
6.45101e+06
8.48187e+06
1.11614e+07
1.46328e+07
1.91517e+07
2.52731e+07
3.32941e+07
4.60154e+08
4.32128e+07
2.517e+07
1.76781e+07
1.22439e+07
8.34745e+06
5.59196e+06
3.67585e+06
2.37138e+06
1.50871e+06
964124
586928
120494
6775.1
158.483
2.12401
0.0222636
0.000289944
7.30585e-06
4.37e-07
5.76452e-08
1.31945e-08
4.06495e-09
1.69675e-09
7.31795e-10
3.03764e-10
1.31364e-10
6.10181e-11
2.50061e-11
1.044e-11
4.92751e-12
2.1161e-12
6.14285e-12
3.25819e-13
1.41143e-13
5.95415e-14
2.27972e-14
7.2649e-15
7.39303e-13
2.02088e-13
1.33994e-12
0
0
-2.76276e-07
1.11903e-11
0
0
0
-2.78129e-07
-2.76746e-07
0
3.51158e-10
-5.84294e-18
-2.69323e-07
-1.37601e-09
-3.96494e-16
-3.93552e-15
2.44121e-08
1.97007e-07
4.46158e-06
6.10091e-05
0.000745498
0.0077731
0.0673853
0.481873
2.8537
14.1466
59.5189
215.565
680.536
1888.9
4618.24
9867.63
18243.1
30230.6
46820
67661.9
93110.8
124238
162903
211802
274557
355887
461920
600626
782418
1.02094e+06
1.33415e+06
1.74565e+06
2.28661e+06
2.99812e+06
3.93447e+06
5.16739e+06
6.79207e+06
8.93887e+06
1.17718e+07
1.54119e+07
2.02111e+07
2.6727e+07
3.52989e+07
4.6418e+08
3.24582e+07
2.31892e+07
1.63482e+07
1.13566e+07
7.76106e+06
5.20957e+06
3.43088e+06
2.21828e+06
1.41665e+06
912660
524987
91251.4
4464.39
96.5783
1.23722
0.0130624
0.000181991
5.09752e-06
3.39428e-07
4.85146e-08
1.12324e-08
3.82149e-09
1.39706e-09
6.75071e-10
2.86483e-10
1.17831e-10
5.34772e-11
2.47286e-11
1.03393e-11
4.50633e-12
6.9259e-12
6.85461e-13
3.24577e-13
1.29001e-13
5.36143e-14
2.1358e-14
6.56439e-15
4.27917e-12
-2.01799e-13
0
-2.68566e-07
-2.71138e-07
2.72947e-07
-4.62306e-20
0
2.73979e-07
2.56598e-15
0
0
0
0
-2.82123e-18
2.58753e-07
-2.58247e-07
-4.29581e-16
-4.31137e-15
2.79361e-07
3.72272e-07
4.92276e-06
6.85043e-05
0.000840919
0.00880328
0.0765967
0.549776
3.26855
16.2713
68.7685
250.242
793.516
2208.87
5392.29
11390.3
20610.7
33585.5
51401.8
73534.7
100431
133306
174159
225854
292179
378074
489936
636102
827473
1.07836e+06
1.40763e+06
1.84016e+06
2.40888e+06
3.15741e+06
4.14366e+06
5.44466e+06
7.16303e+06
9.43407e+06
1.24325e+07
1.63029e+07
2.15965e+07
2.86472e+07
3.80232e+07
4.55916e+08
2.99632e+07
2.14758e+07
1.51866e+07
1.05796e+07
7.24903e+06
4.87788e+06
3.22054e+06
2.08865e+06
1.34022e+06
871384
461008
70767.9
3100.44
62.9058
0.778267
0.00831435
0.000123361
3.7923e-06
2.7578e-07
4.15957e-08
1.03448e-08
3.32464e-09
1.37223e-09
6.18461e-10
2.48865e-10
1.161e-10
4.77456e-11
2.14784e-11
9.48526e-12
4.09046e-12
9.52454e-13
5.83396e-12
3.2299e-13
1.28598e-13
5.93587e-14
-5.07534e-12
6.57955e-15
5.01163e-12
2.60705e-07
0
0
0
0
2.6997e-07
0
0
0
0
2.61704e-07
9.72581e-15
9.60141e-15
6.49054e-10
-7.87874e-10
2.47692e-07
1.25667e-09
2.42303e-07
2.76958e-08
2.8832e-07
5.41977e-06
7.62518e-05
0.000939026
0.00987005
0.0862194
0.621376
3.71043
18.5593
78.8443
288.459
919.324
2566.82
6247.88
12983.3
22848.3
36583.7
55409.7
78625.7
106806
141277
184169
238460
308074
398109
515173
667876
867477
1.12877e+06
1.47123e+06
1.92061e+06
2.51099e+06
3.28761e+06
4.31069e+06
5.6606e+06
7.44495e+06
9.80792e+06
1.29197e+07
1.69653e+07
2.2525e+07
2.99588e+07
5.02177e+07
4.38163e+08
2.81837e+07
2.02304e+07
1.43301e+07
1.00011e+07
6.86591e+06
4.62979e+06
3.06414e+06
1.99342e+06
1.28512e+06
842128
420027
56758.6
2278.84
43.8337
0.528071
0.00572191
8.98056e-05
2.98842e-06
2.33431e-07
3.74613e-08
9.61035e-09
3.42614e-09
1.34482e-09
5.6276e-10
2.66843e-10
1.07977e-10
4.57171e-11
2.11943e-11
1.43928e-11
-2.63997e-13
1.69345e-12
7.22988e-13
-4.78534e-12
1.16457e-13
4.76e-14
1.84533e-14
6.58775e-15
-7.34796e-13
3.64937e-13
0
-2.6484e-07
0
0
3.1254e-16
0
0
-1.03146e-10
0
-4.78154e-15
-7.19191e-10
2.46897e-07
0
-1.03212e-17
-1.49202e-09
1.19951e-09
2.92029e-09
2.91807e-08
5.62905e-07
6.00551e-06
8.34504e-05
0.00103528
0.0109271
0.0958449
0.693735
4.16201
20.926
89.402
329.032
1054.36
2951.99
7146.91
14498.2
24595.5
38732.6
58240.8
82262.6
111488
147325
191990
248521
320924
414384
535629
693406
899139
1.1678e+06
1.51906e+06
1.97884e+06
2.58135e+06
3.37186e+06
4.41036e+06
5.7766e+06
7.57668e+06
9.95437e+06
1.30706e+07
1.71143e+07
2.26502e+07
3.00166e+07
9.11896e+07
4.02391e+08
2.69801e+07
1.93853e+07
1.37482e+07
9.60899e+06
6.60773e+06
4.46421e+06
2.96115e+06
1.93179e+06
1.25036e+06
824468
386864
47380.7
1775.94
32.7123
0.385915
0.0042393
6.98389e-05
2.47746e-06
2.05329e-07
3.40155e-08
9.23676e-09
3.18103e-09
1.31518e-09
5.6977e-10
2.39845e-10
1.12206e-10
4.62961e-11
1.94616e-11
7.80444e-12
2.90574e-12
1.67687e-12
6.71168e-13
-4.70963e-13
4.4379e-12
-5.01673e-12
-5.03412e-12
6.23248e-15
1.05662e-15
-4.77404e-18
-2.6184e-07
2.62964e-07
0
-2.62957e-07
4.41813e-20
-2.57287e-11
9.2439e-11
1.00718e-10
9.92818e-11
-1.95349e-10
2.42426e-07
2.38187e-07
1.75513e-14
-2.29049e-07
3.38026e-14
-5.26776e-16
-2.25551e-09
3.48161e-08
4.7733e-07
6.43634e-06
9.03635e-05
0.00112438
0.011913
0.104908
0.762599
4.59685
23.2346
99.8458
369.733
1191.29
3341.31
8011.47
15667.9
25297.5
39338.6
59137.1
83634.9
113591
150475
196523
254796
329314
425292
549482
710645
920192
1.19302e+06
1.54864e+06
2.01264e+06
2.6186e+06
3.41071e+06
4.44713e+06
5.80454e+06
7.58469e+06
9.92253e+06
1.29711e+07
1.68988e+07
2.22335e+07
2.92686e+07
1.41674e+08
3.60477e+08
2.61119e+07
1.87902e+07
1.33472e+07
9.34403e+06
6.43686e+06
4.35723e+06
2.89672e+06
1.89512e+06
1.23139e+06
816262
360957
41284.1
1467.02
26.1
0.302989
0.00336778
5.76751e-05
2.15616e-06
1.88308e-07
3.24845e-08
8.81837e-09
3.17276e-09
1.20124e-09
5.38152e-10
2.34873e-10
1.0462e-10
4.54939e-11
2.05597e-11
8.41241e-12
8.51422e-12
6.52877e-12
6.65147e-13
2.7093e-13
1.26708e-13
4.72747e-14
1.69609e-14
5.87388e-15
1.05843e-15
2.59576e-07
-2.60712e-07
-3.22885e-12
0
0
4.34968e-20
2.52574e-11
0
0
7.85922e-11
0
-2.3435e-07
3.62798e-10
1.68519e-14
-2.19152e-07
1.35911e-09
-3.22382e-14
2.13519e-09
3.54252e-08
5.13382e-07
6.80305e-06
9.62177e-05
0.00119967
0.0127534
0.112708
0.822475
4.97935
25.2917
109.282
407.007
1317.6
3693.53
8702.42
16049
24182.6
37551.5
57224.5
81801.1
112087
149568
196456
255794
331577
428997
554766
717581
928731
1.2029e+06
1.55923e+06
2.0227e+06
2.62596e+06
3.41173e+06
4.43612e+06
5.77323e+06
7.51985e+06
9.80354e+06
1.27702e+07
1.65698e+07
2.17061e+07
2.84456e+07
1.78554e+08
3.28011e+08
2.54357e+07
1.83371e+07
1.305e+07
9.15401e+06
6.3192e+06
4.28731e+06
2.85744e+06
1.8749e+06
1.22262e+06
813786
342584
37503.7
1281.02
22.1932
0.254521
0.00285469
5.03246e-05
1.95296e-06
1.74832e-07
3.18467e-08
8.90169e-09
3.0852e-09
1.1701e-09
4.84134e-10
2.29648e-10
9.71457e-11
4.73626e-11
2.02141e-11
8.28609e-12
3.54664e-12
1.46139e-12
6.58631e-13
2.68752e-13
1.03188e-13
-4.95757e-12
-4.99256e-12
5.8687e-15
9.70724e-16
6.83327e-22
0
-2.59218e-07
0
1.26777e-11
1.25522e-11
-2.50548e-07
-8.85238e-11
0
7.64055e-11
1.49359e-10
0
0
5.53241e-10
-9.03912e-18
2.34465e-09
-1.26377e-09
4.49132e-09
3.52737e-08
5.28637e-07
7.0648e-06
0.000100381
0.00125463
0.0133699
0.118475
0.867148
5.26763
26.8596
116.559
436.005
1415.14
3945.04
8995.72
15780.3
23909.8
32475.3
51627.6
75800.4
105855
143252
190163
249574
325426
422843
548459
710852
921142
1.19376e+06
1.54746e+06
2.00669e+06
2.60333e+06
3.37906e+06
4.38827e+06
5.70188e+06
7.41314e+06
9.64444e+06
1.25366e+07
1.62289e+07
2.12064e+07
2.77216e+07
2.00911e+08
3.082e+08
2.48109e+07
1.79303e+07
1.27903e+07
8.99244e+06
6.22197e+06
4.23136e+06
2.82723e+06
1.86013e+06
1.2166e+06
811965
331672
35389.5
1177.36
20.0245
0.227706
0.00256893
4.61576e-05
1.83397e-06
1.70056e-07
3.04739e-08
8.45686e-09
3.00905e-09
1.17247e-09
5.11604e-10
2.45288e-10
1.00244e-10
4.37583e-11
2.31465e-11
8.15253e-12
-1.28755e-12
2.24251e-12
6.5165e-13
2.66386e-13
1.13739e-13
4.39837e-14
1.6859e-14
5.50464e-15
1.05975e-15
0
0
0
0
2.13387e-20
0
-2.45791e-07
4.77324e-11
-2.36116e-07
7.42223e-11
2.24508e-07
0
6.08194e-10
-2.21916e-18
-8.61338e-18
-7.1124e-17
1.19387e-09
4.224e-09
3.30235e-08
4.53146e-07
7.17944e-06
0.000102225
0.00128254
0.0136865
0.121458
0.890432
5.41912
27.6904
120.436
451.308
1462.7
4016.13
8935.67
16448.5
24903.7
32566.7
41756.1
64910.3
93895.4
130165
175835
233809
307935
403231
526199
685255
891299
1.15847e+06
1.50515e+06
1.95523e+06
2.53982e+06
3.2995e+06
4.28719e+06
5.57202e+06
7.24446e+06
9.42308e+06
1.22443e+07
1.58411e+07
2.06813e+07
2.70031e+07
2.11962e+08
2.99112e+08
2.41821e+07
1.75136e+07
1.25169e+07
8.8156e+06
6.10974e+06
4.16182e+06
2.78537e+06
1.8357e+06
1.20255e+06
803359
326980
34493.9
1133.46
19.0973
0.216229
0.00244623
4.43512e-05
1.78606e-06
1.66433e-07
3.02413e-08
8.45619e-09
2.97912e-09
1.25542e-09
5.36491e-10
2.38454e-10
1.05842e-10
4.42688e-11
1.94704e-11
8.01216e-12
2.74958e-12
1.55881e-12
6.68444e-13
2.63834e-13
1.12859e-13
4.37252e-14
4.98367e-12
5.49274e-15
9.70818e-16
-4.75326e-18
-2.58455e-07
0
0
0
1.00493e-11
0
-1.13394e-15
-2.36113e-07
2.16743e-15
-1.44577e-10
1.17826e-18
-2.12112e-07
-2.2191e-18
-8.61309e-18
9.97969e-10
-2.16515e-09
4.22382e-09
3.71496e-08
5.4547e-07
7.2685e-06
0.000102326
0.00128279
0.0136888
0.121479
0.890584
5.42004
27.695
120.456
451.381
1462.93
4016.66
8936.84
16450.4
24906
32569.2
41756.9
64912.5
93899.2
130170
175843
233819
307948
403246
526217
685274
891319
1.15849e+06
1.50517e+06
1.95523e+06
2.53981e+06
3.29945e+06
4.2871e+06
5.57187e+06
7.24424e+06
9.4228e+06
1.2244e+07
1.58408e+07
2.06812e+07
2.70032e+07
2.12003e+08
2.99064e+08
2.41818e+07
1.75133e+07
1.25167e+07
8.81544e+06
6.10965e+06
4.16179e+06
2.78537e+06
1.83571e+06
1.20257e+06
803384
326944
34488
1133.19
19.0919
0.216163
0.00244552
4.43415e-05
1.78298e-06
1.65221e-07
2.9936e-08
8.45682e-09
2.97989e-09
1.17941e-09
5.36513e-10
2.2949e-10
1.03026e-10
4.2832e-11
1.94714e-11
8.01237e-12
3.44267e-12
1.54994e-12
-1.09954e-13
2.41647e-13
1.12861e-13
4.65384e-14
1.8204e-14
5.84694e-15
-7.31673e-13
-2.59199e-07
0
0
0
0
-2.53762e-07
-2.47852e-11
-1.1597e-15
1.6348e-19
1.70306e-10
6.2609e-19
-2.26274e-07
-1.19049e-18
-5.53193e-10
6.62503e-10
-2.05449e-07
2.94603e-14
4.49095e-09
3.96794e-08
5.33365e-07
7.15674e-06
0.00010035
0.00125526
0.0133768
0.118536
0.867586
5.27026
26.8728
116.616
436.213
1415.79
3946.71
8998.69
15785.5
23916.4
32480.6
51636.7
75813.9
105874
143276
190195
249614
325475
422902
548528
710931
921227
1.19384e+06
1.54754e+06
2.00675e+06
2.60336e+06
3.37903e+06
4.38815e+06
5.70164e+06
7.41275e+06
9.64391e+06
1.2536e+07
1.62284e+07
2.12063e+07
2.77217e+07
2.01048e+08
3.08041e+08
2.48103e+07
1.79295e+07
1.27895e+07
8.99182e+06
6.22154e+06
4.2311e+06
2.8271e+06
1.86008e+06
1.21659e+06
811990
331547
35370
1176.49
20.0071
0.227496
0.00256671
4.61223e-05
1.83429e-06
1.68931e-07
3.07406e-08
8.45805e-09
2.92525e-09
1.21575e-09
5.51706e-10
2.24187e-10
1.05479e-10
4.37611e-11
1.92445e-11
8.15297e-12
2.79301e-12
1.57086e-12
6.07224e-13
2.66396e-13
1.02472e-13
4.68154e-14
1.82784e-14
-4.25297e-12
9.71103e-16
0
0
0
0
0
0
8.61453e-20
0
9.82876e-11
-2.44073e-07
-3.43591e-10
0
3.6278e-10
-2.24045e-07
-1.64937e-14
-1.10571e-09
3.11395e-14
4.75888e-09
3.54222e-08
4.08411e-07
6.91093e-06
9.61159e-05
0.00120087
0.0127649
0.112808
0.823193
4.98362
25.313
109.373
407.337
1318.63
3696.28
8708.05
16056.3
24191.3
37567.4
57247.2
81831.7
112127
149618
196520
255873
331675
429116
554911
717756
928938
1.20314e+06
1.55951e+06
2.02301e+06
2.6263e+06
3.41209e+06
4.43651e+06
5.77364e+06
7.52027e+06
9.80397e+06
1.27706e+07
1.65703e+07
2.17062e+07
2.84445e+07
1.7885e+08
3.27719e+08
2.54361e+07
1.83369e+07
1.30493e+07
9.15321e+06
6.31851e+06
4.28681e+06
2.85711e+06
1.87471e+06
1.22253e+06
813763
342367
37467.6
1279.38
22.1603
0.254122
0.00285049
5.02627e-05
1.95206e-06
1.74865e-07
3.15191e-08
8.59553e-09
2.9447e-09
1.25058e-09
5.02606e-10
2.41218e-10
1.05439e-10
4.73658e-11
2.08345e-11
9.69022e-12
3.90016e-12
2.27088e-12
6.13734e-13
1.02184e-12
1.09452e-13
4.70608e-14
1.69165e-14
5.01118e-12
4.99372e-12
0
-2.76116e-21
0
-1.54754e-16
2.21832e-20
0
-2.60095e-07
0
0
0
0
-6.54419e-19
-1.28429e-18
-2.51972e-18
2.29035e-07
-6.80656e-17
-3.38798e-14
-5.34188e-15
3.48133e-08
4.8714e-07
6.4455e-06
9.04939e-05
0.00112575
0.0119271
0.105032
0.763479
4.60205
23.2603
99.954
370.124
1192.51
3344.56
8018.51
15678.8
25312.3
39362.4
59169.8
83677.9
113646
150544
196611
254906
329453
425467
549703
710926
920548
1.19348e+06
1.54922e+06
2.01336e+06
2.61951e+06
3.41184e+06
4.44852e+06
5.80619e+06
7.58658e+06
9.92448e+06
1.29728e+07
1.68996e+07
2.22325e+07
2.92647e+07
1.42233e+08
3.59958e+08
2.61122e+07
1.879e+07
1.33463e+07
9.34288e+06
6.43578e+06
4.35641e+06
2.89617e+06
1.8948e+06
1.23123e+06
816204
360680
41229.5
1464.44
26.0468
0.302335
0.00336093
5.75789e-05
2.15173e-06
1.88219e-07
3.28338e-08
8.67774e-09
3.17321e-09
1.15598e-09
5.19372e-10
2.349e-10
1.01628e-10
4.67398e-11
2.0562e-11
9.12262e-12
8.87295e-12
8.39609e-13
6.65206e-13
2.70948e-13
1.26716e-13
4.4413e-14
1.69623e-14
5.87427e-15
9.69665e-16
3.64937e-13
-3.8635e-17
5.94e-12
0
0
0
-2.64857e-07
0
2.60818e-07
8.29675e-11
0
-7.1916e-10
0
-2.4265e-07
-1.03206e-17
1.21388e-09
-4.97789e-16
-5.02976e-15
2.86383e-08
4.49159e-07
6.00498e-06
8.3597e-05
0.00103693
0.0109429
0.0959808
0.694696
4.16763
20.9535
89.5166
329.441
1055.63
2955.35
7154.34
14510.8
24613.7
38760.8
58278.8
82311.7
111550
147402
192087
248645
321083
414590
535897
693757
899602
1.16841e+06
1.51987e+06
1.97991e+06
2.58274e+06
3.37363e+06
4.41256e+06
5.77923e+06
7.57965e+06
9.95744e+06
1.30734e+07
1.71157e+07
2.26497e+07
3.00147e+07
9.18362e+07
4.01774e+08
2.69775e+07
1.93835e+07
1.37462e+07
9.60682e+06
6.60582e+06
4.46275e+06
2.96014e+06
1.93116e+06
1.25001e+06
824302
386519
47300.2
1771.94
32.6273
0.384851
0.00422821
6.96869e-05
2.47674e-06
2.06654e-07
3.36685e-08
8.91284e-09
3.09026e-09
1.26882e-09
5.55161e-10
2.30058e-10
1.12219e-10
4.47491e-11
2.08898e-11
8.53243e-12
3.63933e-12
1.67704e-12
7.17121e-13
2.72914e-13
1.15919e-13
7.94775e-13
1.84314e-14
-7.3378e-13
1.05666e-15
2.01509e-13
0
0
0
0
0
4.83694e-11
0
0
-1.89817e-10
0
0
-9.60097e-15
0
-1.07484e-17
-2.47677e-07
-1.54446e-09
-4.67791e-15
3.32324e-08
4.13415e-07
5.55007e-06
7.62681e-05
0.00094061
0.00988619
0.0863576
0.622345
3.71604
18.5865
78.9558
288.852
920.522
2569.97
6254.89
12995.7
22866.9
36611.9
55447.3
78673.5
106865
141350
184260
238576
308223
398304
515432
668223
867948
1.12941e+06
1.47211e+06
1.92179e+06
2.51258e+06
3.2897e+06
4.31338e+06
5.66396e+06
7.44899e+06
9.81248e+06
1.29245e+07
1.69701e+07
2.253e+07
2.9967e+07
5.05294e+07
4.37758e+08
2.81764e+07
2.02253e+07
1.43257e+07
9.99737e+06
6.8629e+06
4.62757e+06
3.06262e+06
1.99245e+06
1.28454e+06
841810
419603
56637.4
2272.39
43.6917
0.526265
0.00570339
8.95649e-05
2.9826e-06
2.33494e-07
3.74699e-08
9.79654e-09
3.2568e-09
1.2579e-09
5.62166e-10
2.66881e-10
1.0291e-10
4.50005e-11
2.19961e-11
9.37429e-12
4.79183e-12
1.69362e-12
7.23066e-13
2.97889e-13
1.16469e-13
-5.04401e-12
1.84552e-14
5.87094e-15
1.05397e-15
-2.01794e-13
0
-6.02366e-12
-1.14368e-20
-2.30261e-20
0
2.71391e-11
-2.73929e-07
0
0
0
2.66647e-07
-2.64715e-07
-2.8211e-18
-8.38185e-18
2.94682e-09
2.92835e-09
5.83302e-09
2.91051e-08
2.45624e-07
5.06052e-06
6.8626e-05
0.000842459
0.00881902
0.0767297
0.550697
3.27382
16.2965
68.8702
250.595
794.575
2211.62
5398.37
11401.2
20627.4
33610.3
51434
73574.1
100478
133361
174224
225932
292274
378191
490083
636290
827715
1.07868e+06
1.40804e+06
1.8407e+06
2.40958e+06
3.15832e+06
4.14485e+06
5.44622e+06
7.16511e+06
9.43695e+06
1.24364e+07
1.63084e+07
2.16055e+07
2.86636e+07
3.80561e+07
4.55826e+08
2.99497e+07
2.14651e+07
1.51786e+07
1.0574e+07
7.24526e+06
4.87543e+06
3.21898e+06
2.08768e+06
1.33965e+06
871082
460293
70603.1
3090.4
62.6702
0.775162
0.00828253
0.000122961
3.78116e-06
2.75863e-07
4.16061e-08
1.01579e-08
3.42135e-09
1.37244e-09
5.97696e-10
2.71686e-10
1.27661e-10
5.35888e-11
2.14818e-11
9.48657e-12
4.09093e-12
1.70858e-12
7.28381e-13
2.99572e-13
1.2861e-13
5.35348e-14
1.99113e-14
6.58004e-15
1.13928e-15
4.80159e-18
0
0
0
-2.76262e-07
2.78032e-07
0
0
0
2.78032e-07
3.96992e-10
0
2.72634e-07
-1.55339e-09
-2.7016e-07
-4.02325e-14
-2.66058e-07
7.59772e-14
2.44105e-08
3.42276e-07
4.47349e-06
6.09933e-05
0.000746792
0.00778753
0.0675073
0.482711
2.85843
14.1689
59.6075
215.868
681.427
1891.17
4623.21
9876.57
18256.7
30250.5
46844.9
67690.7
93142.6
124272
162939
211841
274598
355932
461972
600690
782502
1.02106e+06
1.33433e+06
1.74596e+06
2.28712e+06
2.99898e+06
3.93591e+06
5.16977e+06
6.79585e+06
8.94478e+06
1.17812e+07
1.54253e+07
2.02316e+07
2.67568e+07
3.53386e+07
4.64051e+08
3.24484e+07
2.3179e+07
1.63396e+07
1.13503e+07
7.75666e+06
5.20662e+06
3.42895e+06
2.21704e+06
1.41587e+06
912199
524415
91024.1
4448.43
96.1739
1.23163
0.0130051
0.000181305
5.08819e-06
3.38146e-07
4.81385e-08
1.15866e-08
3.74168e-09
1.48772e-09
6.53907e-10
2.99349e-10
1.23125e-10
6.02607e-11
2.174e-11
1.11008e-11
4.12899e-12
2.67636e-12
7.8032e-13
3.24612e-13
1.29017e-13
5.03858e-14
7.73905e-13
5.84402e-15
-5.01397e-12
0
1.96466e-17
0
0
-2.50823e-11
-4.75897e-20
2.28441e-11
0
2.85098e-07
-2.84795e-07
0
-8.11754e-10
-1.05799e-14
8.85809e-10
-6.01407e-18
4.17035e-14
-3.59047e-16
-3.58648e-15
2.55328e-08
3.07521e-07
3.90173e-06
5.37324e-05
0.000656734
0.00682375
0.0589566
0.420204
2.47993
12.2486
51.3318
185.158
582.296
1611.92
3943.73
8494.9
15969.6
26873
42135.4
61554.2
85460.6
114782
151233
197323
256489
333221
433371
564548
736696
962844
1.26012e+06
1.65105e+06
2.16536e+06
2.84219e+06
3.73321e+06
4.90656e+06
6.45185e+06
8.48374e+06
1.11652e+07
1.46395e+07
1.91637e+07
2.52921e+07
3.33196e+07
4.60411e+08
4.28542e+07
2.51641e+07
1.7673e+07
1.22405e+07
8.34538e+06
5.59074e+06
3.6751e+06
2.37087e+06
1.50836e+06
963889
586405
120201
6749.04
157.752
2.11329
0.0221527
0.000288686
7.28563e-06
4.35717e-07
5.76622e-08
1.28375e-08
4.34862e-09
1.60399e-09
7.10943e-10
2.98733e-10
1.2625e-10
5.77025e-11
2.50107e-11
1.04416e-11
4.92815e-12
2.8907e-12
6.04741e-12
-4.89847e-12
1.41167e-13