/*--------------------------------*- C++ -*----------------------------------*\
  =========                 |
  \\      /  F ield         | OpenFOAM: The Open Source CFD Toolbox
   \\    /   O peration     | Website:  https://openfoam.org
    \\  /    A nd           | Version:  8
     \\/     M anipulation  |
\*---------------------------------------------------------------------------*/
FoamFile
{
    version     2.0;
    format      ascii;
    class       volScalarField;
    location    "300/fluid";
    object      rDeltaT;
}
// * * * * * * * * * * * * * * * * * * * * * * * * * * * * * * * * * * * * * //

dimensions      [0 0 -1 0 0 0 0];

internalField   nonuniform List<scalar> 
4000
(
513.091
538.43
562.668
585.952
608.265
629.529
649.636
668.464
685.898
701.85
716.278
729.215
740.793
751.261
761.002
770.508
780.177
790.239
800.684
811.23
821.354
830.398
837.686
842.635
844.819
844.018
840.109
833.058
822.91
809.771
793.793
775.16
754.076
730.757
712.788
723.767
757.553
790.925
823.936
856.644
889.11
921.389
953.536
985.594
1017.6
1049.58
1081.54
1113.48
1145.39
1177.23
1208.96
1240.5
1271.79
1302.73
1333.2
1363.07
1392.21
1420.47
1447.68
1473.5
1497.89
1521
1543.27
14175.2
3716.06
1532.56
1502.01
1465.42
1423.17
1375.65
1323.26
1266.44
1205.73
1141.85
1075.54
1007.71
939.983
874.702
814.712
763.346
723.76
697.374
682.844
676.643
674.84
674.213
672.791
669.496
663.974
656.282
646.643
635.322
622.586
608.677
593.808
578.155
561.856
544.983
527.493
509.291
512.668
537.412
560.928
583.183
604.183
623.872
642.168
658.993
674.287
688.031
700.269
711.13
720.845
729.758
738.322
746.969
756.066
765.82
776.199
786.899
797.374
806.932
814.855
820.502
823.397
823.211
819.764
813.008
802.995
789.854
773.763
754.932
733.589
709.969
684.309
686.014
718.919
753.654
788.082
822.252
856.217
890.031
923.745
957.403
991.045
1024.7
1058.38
1092.1
1125.85
1159.6
1193.32
1226.97
1260.47
1293.75
1326.7
1359.24
1391.22
1422.52
1452.98
1482.22
1510.51
1537.59
1563.68
16979.8
1841.43
1540.32
1505.48
1465.25
1419.7
1368.97
1313.3
1252.98
1188.46
1120.34
1049.26
976.254
903.451
833.903
771.412
719.886
682.141
658.591
646.82
642.831
642.803
643.895
644.444
643.602
640.91
636.243
629.657
621.286
611.302
599.885
587.21
573.434
558.689
543.048
526.469
508.943
512.042
535.396
557.36
577.928
597.075
614.756
630.919
645.531
658.589
670.141
680.3
689.259
697.309
704.823
712.23
719.928
728.276
737.483
747.517
758.072
768.601
778.405
786.753
792.983
796.558
797.072
794.291
788.131
778.628
765.898
750.115
731.489
710.25
686.636
660.888
655.018
680.763
716.763
752.595
788.295
823.906
859.47
895.034
930.639
966.322
1002.11
1038.03
1074.09
1110.29
1146.63
1183.07
1219.58
1256.11
1292.61
1328.99
1365.17
1401.01
1436.39
1471.03
1504.56
1536.99
1567.51
1595.09
17264.1
1595.96
1559.48
1517.73
1470.87
1418.98
1362.14
1300.52
1234.41
1164.24
1090.7
1014.51
937.144
861.262
790.374
728.549
679.485
645.147
624.881
615.662
613.495
614.853
617.197
619.053
619.723
618.852
616.282
611.981
605.989
598.39
589.289
578.8
567.031
554.086
540.025
524.818
508.438
511.419
533.516
554.148
573.299
590.959
607.1
621.696
634.743
646.265
656.332
665.075
672.696
679.482
685.801
692.081
698.757
706.197
714.604
723.939
733.884
743.88
753.221
761.164
767.037
770.3
770.569
767.614
761.343
751.77
738.991
723.159
704.462
683.115
659.341
633.37
623.377
645.55
682.748
719.944
757.163
794.437
831.803
869.299
906.963
944.827
982.922
1021.27
1059.87
1098.75
1137.88
1177.26
1216.84
1256.58
1296.42
1336.28
1376.03
1415.54
1454.6
1492.77
1529.73
1565.18
1597.89
2419.55
15441.9
1615.51
1571.88
1523.35
1469.89
1411.55
1348.5
1280.95
1209.32
1134.21
1056.43
976.961
897.726
821.708
752.485
693.808
648.709
618.349
601.376
594.49
593.849
596.266
599.501
602.249
603.836
603.951
602.477
599.395
594.733
588.547
580.905
571.879
561.545
549.971
537.197
523.181
507.905
510.747
531.468
550.668
568.335
584.465
599.039
612.048
623.501
633.446
641.971
649.227
655.438
660.907
666.015
671.196
676.885
683.44
691.052
699.667
708.959
718.365
727.172
734.638
740.083
742.963
742.887
739.619
733.058
723.211
710.162
694.053
675.063
653.392
629.255
602.868
591.123
612.249
650.602
689.121
727.824
766.735
805.883
845.299
885.014
925.058
965.454
1006.22
1047.36
1088.89
1130.78
1173.01
1215.54
1258.32
1301.26
1344.26
1387.19
1429.86
1472.02
1513.19
1553.01
1591.27
1627.13
9087.59
9566.94
1621.38
1573.24
1519.67
1460.91
1397.23
1328.96
1256.51
1180.46
1101.6
1020.83
939.353
859.458
784.247
717.252
661.918
620.674
593.932
579.766
574.738
575.233
578.402
582.289
585.759
588.205
589.327
588.987
587.141
583.786
578.952
572.682
565.026
556.038
545.773
534.26
521.455
507.339
510.064
529.415
547.222
563.473
578.172
591.308
602.881
612.915
621.467
628.638
634.588
639.548
643.825
647.799
651.902
656.564
662.135
668.799
676.496
684.898
693.441
701.42
708.096
712.796
714.979
714.255
710.386
703.266
692.892
679.338
662.737
643.253
621.074
596.403
569.443
558.201
580.646
620.067
659.818
699.906
740.349
781.169
822.389
864.035
906.127
948.681
991.71
1035.21
1079.18
1123.6
1168.42
1213.6
1259.05
1304.68
1350.36
1395.9
1441.07
1485.57
1528.77
1570.42
1610.22
1647.17
14857.1
4107.31
1616.36
1565.08
1507.56
1444.52
1376.52
1304.11
1227.88
1148.58
1067.15
984.576
902.318
822.914
749.518
685.539
634.056
596.896
573.796
562.386
559.165
560.741
564.561
568.912
572.818
575.759
577.475
577.843
576.812
574.372
570.533
565.32
558.766
550.907
541.782
531.411
519.747
506.771
509.367
527.319
543.716
558.549
571.824
583.537
593.695
602.33
609.508
615.339
619.991
623.701
626.782
629.617
632.636
636.262
640.838
646.538
653.292
660.764
668.39
675.464
681.253
685.091
686.441
684.916
680.281
672.428
661.349
647.114
629.845
609.699
586.854
561.499
533.83
524.598
549.941
590.34
631.215
672.571
714.415
756.762
799.628
843.029
886.979
931.484
976.546
1022.16
1068.29
1114.92
1161.99
1209.43
1257.14
1305
1352.82
1400.39
1447.42
1493.51
1537.88
1580.53
1620.28
1656.05
18319.9
1653.43
1605.63
1550.5
1489.19
1422.49
1351.06
1275.54
1196.63
1115.2
1032.28
948.902
866.788
788.621
717.537
656.773
609.036
575.596
555.643
546.508
544.733
547.172
551.531
556.305
560.637
564.068
566.36
567.397
567.123
565.518
562.582
558.329
552.779
545.96
537.901
528.616
518.058
506.207
508.664
525.211
540.203
553.632
565.506
575.828
584.611
591.891
597.742
602.28
605.676
608.171
610.081
611.785
613.711
616.276
619.813
624.486
630.218
636.667
643.269
649.323
654.102
656.947
657.328
654.865
649.325
640.6
628.681
613.632
595.569
574.642
551.02
524.881
496.41
490.292
519.667
560.927
602.798
645.275
688.359
732.058
776.378
821.326
866.906
913.116
959.945
1007.37
1055.37
1103.88
1152.83
1202.15
1251.71
1301.35
1350.88
1400.05
1448.49
1495.64
1540.82
1583.67
1622.57
1754.6
17082.6
1641.81
1589.23
1530.33
1465.74
1396.12
1322.1
1244.37
1163.71
1081.06
997.472
914.057
832.76
756.343
687.894
630.465
586.394
556.454
539.379
532.297
531.824
535.046
539.889
545.026
549.708
553.532
556.29
557.874
558.229
557.332
555.176
551.767
547.117
541.245
534.174
525.911
516.412
505.655
507.956
523.088
536.669
548.693
559.172
568.11
575.527
581.463
585.997
589.248
591.394
592.676
593.411
593.979
594.8
596.287
598.763
602.383
607.059
612.445
617.973
622.946
626.644
628.417
627.743
624.249
617.706
608.01
595.15
579.191
560.242
538.446
513.966
486.972
457.641
455.299
489.364
531.365
574.095
617.542
661.701
706.568
752.144
798.425
845.405
893.071
941.401
990.362
1039.91
1089.97
1140.47
1191.3
1242.32
1293.36
1344.19
1394.53
1444.02
1492
1537.87
1581.28
1620.78
5749.98
13131.8
1621.36
1566.06
1504.74
1437.96
1366.39
1290.7
1211.63
1130.03
1046.9
963.291
880.418
800.414
726.06
660.375
606.216
565.574
538.782
524.221
518.896
519.539
523.447
528.741
534.237
539.274
543.494
546.708
548.817
549.769
549.537
548.111
545.492
541.687
536.708
530.574
523.289
514.811
505.117
507.243
520.956
533.124
543.744
552.83
560.391
566.448
571.05
574.275
576.249
577.15
577.223
576.782
576.206
575.912
576.303
577.693
580.227
583.809
588.086
592.491
596.328
598.886
599.522
597.725
593.13
585.515
574.777
560.91
543.974
524.078
501.36
475.975
448.087
417.866
419.649
458.718
501.336
544.787
589.052
634.118
679.975
726.612
774.018
822.177
871.065
920.649
970.883
1021.71
1073.05
1124.8
1176.84
1229.02
1281.14
1332.97
1384.21
1434.5
1483.17
1529.68
1573.77
1614.29
11318.1
8153.64
1593.85
1537.59
1475.06
1407.07
1334.39
1257.79
1178.08
1096.17
1013.12
929.974
848.064
769.656
697.531
634.631
583.618
546.161
522.216
509.885
506.113
507.753
512.297
518.028
523.885
529.278
533.888
537.544
540.157
541.675
542.073
541.337
539.466
536.463
532.335
527.097
520.752
513.258
504.595
506.528
518.815
529.566
538.779
546.471
552.654
557.354
560.621
562.539
563.235
562.89
561.749
560.127
558.4
556.979
556.258
556.545
557.972
560.434
563.574
566.821
569.485
570.862
570.318
567.353
561.61
552.875
541.05
526.13
508.177
487.297
463.624
437.31
408.512
379.283
385.341
427.494
470.607
514.645
559.582
605.398
652.075
699.594
747.934
797.071
846.971
897.59
948.874
1000.75
1053.13
1105.9
1158.92
1212.03
1265.03
1317.65
1369.59
1420.46
1469.59
1516.45
1560.83
1601.58
14919.2
4594.47
1562.9
1506.16
1442.97
1374.32
1301.09
1224.13
1144.29
1062.55
980.012
897.687
817.034
740.411
670.585
610.409
562.36
527.815
506.412
496.045
493.638
496.174
501.315
507.483
513.719
519.489
524.507
528.617
531.737
533.819
534.836
534.774
533.63
531.403
528.099
523.728
518.292
511.752
504.088
505.811
516.667
525.996
533.801
540.096
544.9
548.241
550.172
550.782
550.198
548.605
546.248
543.44
540.554
537.996
536.152
535.319
535.62
536.941
538.918
540.981
542.444
542.61
540.856
536.692
529.771
519.886
506.945
490.948
471.956
450.075
425.437
398.188
368.482
342.787
353.089
395.533
439.024
483.522
528.996
575.415
622.756
670.99
720.091
770.024
820.746
872.205
924.335
977.056
1030.27
1083.85
1137.65
1191.49
1245.15
1298.38
1350.84
1402.17
1451.63
1498.74
1543.18
1583.83
18395.8
1927.67
1529.62
1472.53
1409.09
1340.28
1267.01
1190.16
1110.64
1029.46
947.743
866.499
787.3
712.564
645.032
587.472
542.182
510.282
491.149
482.519
481.33
484.687
490.403
497.016
503.651
509.823
515.27
519.85
523.487
526.136
527.77
528.375
527.946
526.48
523.98
520.454
515.902
510.29
503.595
505.091
514.513
522.416
528.807
533.704
537.126
539.105
539.699
538.998
537.133
534.289
530.712
526.713
522.662
518.958
515.981
514.017
513.177
513.341
514.138
514.999
515.242
514.178
511.195
505.813
497.696
486.646
472.577
455.492
435.455
412.571
386.97
358.796
328.197
305.826
320.101
362.734
406.495
451.337
497.22
544.11
591.972
640.775
690.481
741.048
792.425
844.552
897.354
950.739
1004.6
1058.79
1113.17
1167.52
1221.61
1275.16
1327.81
1379.12
1428.18
1474.76
1518.3
1557.09
18653.9
1551.04
1499.43
1440.86
1376.44
1307.07
1233.6
1156.87
1077.77
997.293
916.534
836.503
758.851
686.024
620.724
565.63
522.878
493.365
476.249
469.159
469.063
473.182
479.459
486.531
493.591
500.192
506.095
511.168
515.339
518.566
520.824
522.097
522.378
521.665
519.957
517.26
513.573
508.865
503.116
504.369
512.352
518.827
523.801
527.296
529.333
529.948
529.203
527.19
524.041
519.944
515.144
509.95
504.73
499.875
495.757
492.652
490.662
489.656
489.262
488.908
487.918
485.612
481.39
474.782
465.463
453.244
438.045
419.874
398.796
374.919
348.369
319.288
287.822
268.456
286.315
329.044
372.974
418.051
464.231
511.471
559.731
608.971
659.147
710.21
762.103
814.758
868.092
922.008
976.386
1031.09
1085.94
1140.73
1195.22
1249.1
1301.99
1353.37
1402.34
1448.89
1491.68
1529.21
18283.7
1520.1
1467.1
1407.71
1342.89
1273.45
1200.18
1123.9
1045.49
965.937
886.304
807.606
731.569
660.644
597.492
544.706
504.277
476.907
461.584
455.861
456.755
461.593
468.425
475.973
483.485
490.545
496.931
502.521
507.247
511.068
513.96
515.907
516.9
516.936
516.013
514.134
511.297
507.475
502.649
503.645
510.185
515.228
518.783
520.873
521.523
520.773
518.687
515.36
510.927
505.575
499.551
493.161
486.768
480.758
475.495
471.243
468.095
465.912
464.318
462.742
460.514
456.962
451.498
443.663
433.144
419.759
403.437
384.19
362.086
337.232
309.756
279.796
247.495
230.734
251.701
294.44
338.447
383.663
430.037
477.52
526.066
575.628
626.157
677.597
729.885
782.946
836.694
891.023
945.811
1000.91
1056.14
1111.3
1166.12
1220.3
1273.44
1324.93
1374.01
1420.51
1462.98
1888.92
17676.5
1487.17
1433.44
1373.72
1308.89
1239.7
1166.91
1091.33
1013.82
935.36
856.986
779.717
705.332
636.277
575.176
524.54
486.23
460.784
447.056
442.542
444.341
449.865
457.256
465.299
473.291
480.84
487.739
493.871
499.174
503.607
507.146
509.776
511.487
512.273
512.132
511.063
509.065
506.113
502.191
502.919
508.013
511.621
513.755
514.438
513.7
511.584
508.157
503.516
497.798
491.192
483.943
476.357
468.79
461.624
455.212
449.81
445.499
442.136
439.338
436.538
433.069
428.272
421.569
412.513
400.802
386.263
368.832
348.526
325.416
299.611
271.236
240.429
207.33
192.714
216.257
258.926
302.926
348.192
394.668
442.298
491.032
540.815
591.593
643.306
695.884
749.249
803.308
857.953
913.056
968.465
1024
1079.45
1134.55
1188.98
1242.36
1294.06
1343.37
1390.12
1432.93
3383.95
16343.8
1452.41
1398.58
1339.02
1274.55
1205.91
1133.87
1059.2
982.761
905.536
828.52
752.742
680.02
612.791
553.635
504.993
468.612
444.898
432.607
429.147
431.779
437.966
445.92
454.481
462.979
471.047
478.486
485.188
491.089
496.153
500.356
503.68
506.116
507.657
508.296
508.035
506.868
504.775
501.742
502.192
505.838
508.008
508.719
507.995
505.868
502.386
497.618
491.664
484.663
476.805
468.333
459.551
450.812
442.489
434.928
428.374
422.9
418.354
414.352
410.327
405.622
399.585
391.65
381.384
368.494
352.817
334.297
312.954
288.864
262.136
232.896
201.279
167.422
154.452
179.996
222.521
266.437
311.674
358.168
405.86
454.692
504.607
555.544
607.438
660.216
713.795
768.08
822.958
878.299
933.949
989.728
1045.42
1100.76
1155.45
1209.09
1261.11
1310.78
1358.03
1401.57
5353.71
14715.4
1415.98
1362.65
1303.69
1239.94
1172.15
1101.08
1027.51
952.302
876.422
800.839
726.594
655.53
590.066
532.742
485.936
451.302
429.146
418.173
415.658
419.061
425.888
434.407
443.501
452.53
461.143
469.149
476.444
482.967
488.683
493.565
497.598
500.769
503.069
504.493
505.038
504.698
503.456
501.3
501.464
503.659
504.391
503.678
501.547
498.032
493.185
487.077
479.812
471.531
462.423
452.731
442.757
432.848
423.37
414.661
406.956
400.319
394.591
389.387
384.142
378.206
370.938
361.784
350.322
336.271
319.476
299.89
277.537
252.496
224.878
194.808
162.42
127.849
116
142.946
185.259
229.019
274.152
320.589
368.264
417.115
467.08
518.094
570.088
622.986
676.701
731.136
786.176
841.69
897.524
953.495
1009.39
1064.95
1119.88
1173.8
1226.15
1276.21
1323.96
1368.16
6850.85
13402.4
1378.8
1326.23
1268.12
1205.31
1138.56
1068.64
996.312
922.44
847.987
773.895
701.206
631.78
568.009
512.397
467.264
434.195
413.436
403.659
402.039
406.167
413.613
422.697
432.339
441.92
451.102
459.701
467.614
474.782
481.17
486.75
491.506
495.424
498.494
500.708
502.061
502.546
502.151
500.863
500.735
501.479
500.772
498.635
495.097
490.195
483.985
476.542
467.969
458.412
448.057
437.15
425.987
414.911
404.283
394.429
385.575
377.777
370.87
364.468
358.01
350.852
342.365
332.006
319.366
304.174
286.286
265.66
242.326
216.368
187.895
157.034
123.917
100
100
105.143
147.18
190.718
235.678
281.985
329.57
378.366
428.306
479.322
531.341
584.285
638.065
692.581
747.719
803.348
859.312
915.433
971.498
1027.26
1082.41
1136.59
1189.25
1239.68
1287.88
1332.62
7759.57
12595.2
1341.4
1289.7
1232.56
1170.82
1105.25
1036.59
965.611
893.162
820.198
747.638
676.52
608.702
546.549
492.526
448.906
417.218
397.682
388.955
388.217
393.043
401.095
410.749
420.955
431.112
440.89
450.108
458.666
466.505
473.586
479.885
485.383
490.063
493.913
496.926
499.092
500.405
500.854
500.429
500.006
499.298
497.152
493.593
488.649
482.364
474.794
466.018
456.143
445.313
433.718
421.6
409.254
397.017
385.241
374.246
364.247
355.292
347.211
339.617
331.954
323.585
313.892
302.346
288.548
272.239
253.284
231.647
207.365
180.523
151.234
119.623
100
100
100
100
108.331
151.584
196.305
242.415
289.84
338.51
388.353
439.298
491.271
544.19
597.966
652.497
707.671
763.355
819.398
875.621
931.816
987.736
1043.08
1097.5
1150.46
1201.23
1249.84
1295.07
8205.69
12225.9
1303.93
1253.19
1197.13
1136.58
1072.28
1004.97
935.423
864.465
793.039
722.043
652.504
586.26
525.647
473.093
430.828
400.346
381.843
373.988
374.122
379.635
388.293
398.528
409.319
420.078
430.481
440.348
449.578
458.114
465.915
472.955
479.213
484.672
489.318
493.139
496.127
498.273
499.568
500
500.006
499.298
497.151
493.591
488.646
482.36
474.789
466.012
456.136
445.306
433.71
421.591
409.243
397.005
385.229
374.232
364.232
355.276
347.195
339.6
331.936
323.567
313.873
302.326
288.528
272.219
253.263
231.626
207.345
180.504
151.214
119.604
100
100
100
100
108.325
151.578
196.3
242.411
289.837
338.507
388.35
439.296
491.27
544.189
597.965
652.497
707.671
763.356
819.399
875.622
931.818
987.738
1043.09
1097.51
1150.46
1201.24
1249.85
1295.07
8207.35
12224
1303.93
1253.19
1197.14
1136.59
1072.29
1004.98
935.436
864.479
793.055
722.06
652.522
586.279
525.667
473.114
430.849
400.367
381.864
374.01
374.144
379.656
388.313
398.547
409.337
420.095
430.497
440.363
449.592
458.127
465.927
472.966
479.224
484.682
489.327
493.147
496.134
498.281
499.575
500.003
500.735
501.479
500.77
498.631
495.091
490.188
483.976
476.53
467.956
458.396
448.04
437.13
425.965
414.888
404.257
394.401
385.545
377.746
370.837
364.433
357.973
350.814
342.325
331.966
319.325
304.132
286.243
265.617
242.284
216.325
187.853
156.993
123.877
100
100
105.133
147.172
190.712
235.674
281.983
329.569
378.366
428.307
479.324
531.345
584.289
638.07
692.587
747.726
803.355
859.32
915.442
971.508
1027.27
1082.42
1136.6
1189.26
1239.69
1287.9
1332.64
7765.25
12588.7
1341.4
1289.7
1232.57
1170.84
1105.27
1036.61
965.633
893.188
820.227
747.669
676.554
608.737
546.586
492.566
448.948
417.262
397.726
389
388.263
393.088
401.137
410.789
420.993
431.148
440.924
450.14
458.695
466.532
473.612
479.909
485.404
490.082
493.932
496.942
499.107
500.42
500.868
500.435
501.464
503.659
504.39
503.674
501.541
498.024
493.175
487.065
479.799
471.515
462.405
452.711
442.734
432.823
423.344
414.633
406.926
400.287
394.558
389.351
384.105
378.167
370.897
361.742
350.278
336.225
319.43
299.842
277.489
252.449
224.83
194.76
162.373
127.802
115.976
142.946
185.261
229.024
274.159
320.598
368.274
417.127
467.093
518.109
570.104
623.003
676.719
731.155
786.196
841.711
897.545
953.517
1009.41
1064.98
1119.91
1173.83
1226.17
1276.24
1323.99
1368.2
6863.46
13389.9
1378.79
1326.23
1268.12
1205.31
1138.57
1068.65
996.328
922.459
848.009
773.92
701.234
631.811
568.043
512.434
467.304
434.239
413.482
403.708
402.088
406.216
413.66
422.741
432.38
441.959
451.139
459.735
467.645
474.812
481.197
486.775
491.529
495.445
498.513
500.725
502.076
502.561
502.164
500.869
502.192
505.838
508.007
508.715
507.989
505.861
502.377
497.606
491.65
484.647
476.786
468.312
459.528
450.787
442.463
434.9
428.344
422.868
418.32
414.316
410.289
405.582
399.543
391.606
381.338
368.446
352.767
334.245
312.902
288.811
262.082
232.841
201.224
167.366
154.428
180.007
222.534
266.453
311.692
358.189
405.883
454.717
504.633
555.572
607.467
660.246
713.826
768.111
822.989
878.331
933.982
989.761
1045.45
1100.8
1155.48
1209.13
1261.15
1310.82
1358.07
1401.62
5376.44
14694
1415.97
1362.64
1303.69
1239.94
1172.16
1101.09
1027.52
952.316
876.438
800.859
726.616
655.556
590.096
532.776
485.975
451.346
429.194
418.224
415.711
419.113
425.938
434.455
443.546
452.572
461.182
469.185
476.478
482.998
488.711
493.591
497.621
500.79
503.089
504.511
505.053
504.713
503.469
501.306
502.919
508.013
511.619
513.751
514.433
513.693
511.575
508.145
503.502
497.782
491.174
483.923
476.334
468.766
461.598
455.184
449.779
445.467
442.102
439.302
436.499
433.029
428.229
421.523
412.465
400.751
386.21
368.777
348.469
325.358
299.551
271.175
240.367
207.267
192.692
216.278
258.95
302.953
348.223
394.701
442.334
491.069
540.854
591.634
643.347
695.926
749.292
803.351
857.996
913.099
968.509
1024.04
1079.49
1134.59
1189.02
1242.4
1294.11
1343.42
1390.18
1432.99
3408.12
16319.6
1452.41
1398.59
1339.03
1274.56
1205.92
1133.87
1059.2
982.77
905.547
828.534
752.759
680.041
612.816
553.666
505.03
468.656
444.947
432.66
429.202
431.834
438.019
445.971
454.528
463.024
471.089
478.524
485.223
491.121
496.183
500.383
503.705
506.138
507.676
508.314
508.05
506.882
504.788
501.747
503.645
510.185
515.226
518.78
520.868
521.516
520.764
518.676
515.347
510.911
505.557
499.53
493.139
486.743
480.732
475.466
471.212
468.062
465.878
464.282
462.704
460.473
456.918
451.45
443.613
433.091
419.703
403.378
384.129
362.023
337.167
309.689
279.727
247.424
230.713
251.734
294.477
338.487
383.706
430.083
477.568
526.116
575.68
626.21
677.651
729.94
783.001
836.749
891.078
945.865
1000.96
1056.2
1111.35
1166.17
1220.35
1273.48
1324.98
1374.06
1420.55
1463.02
1899.68
17661.9
1487.21
1433.47
1373.74
1308.9
1239.7
1166.92
1091.33
1013.82
935.366
856.994
779.728
705.347
636.298
575.203
524.575
486.272
460.834
447.111
442.599
444.399
449.921
457.309
465.349
473.337
480.883
487.778
493.908
499.207
503.637
507.173
509.8
511.509
512.293
512.148
511.078
509.078
506.125
502.196
504.369
512.351
518.825
523.798
527.291
529.326
529.94
529.192
527.176
524.026
519.926
515.124
509.928
504.705
499.848
495.729
492.622
490.63
489.622
489.226
488.869
487.877
485.567
481.342
474.73
465.408
453.185
437.983
419.808
398.728
374.848
348.296
319.212
287.744
268.437
286.36
329.093
373.026
418.107
464.29
511.532
559.795
609.036
659.214
710.278
762.171
814.826
868.16
922.074
976.452
1031.15
1086
1140.79
1195.28
1249.16
1302.05
1353.42
1402.39
1448.94
1491.72
1529.23
18278.7
1520.13
1467.12
1407.73
1342.9
1273.45
1200.18
1123.9
1045.49
965.936
886.306
807.61
731.578
660.659
597.514
544.737
504.318
476.956
461.639
455.92
456.815
461.651
468.481
476.025
483.533
490.59
496.972
502.559
507.281
511.099
513.987
515.931
516.922
516.955
516.03
514.148
511.31
507.485
502.653
505.091
514.512
522.415
528.805
533.7
537.119
539.097
539.689
538.986
537.118
534.272
530.692
526.691
522.638
518.932
515.953
513.987
513.146
513.307
514.103
514.961
515.2
514.132
511.146
505.759
497.639
486.584
472.512
455.423
435.382
412.495
386.891
358.713
328.111
305.809
320.16
362.797
406.561
451.407
497.293
544.185
592.051
640.855
690.562
741.13
792.508
844.634
897.436
950.82
1004.68
1058.87
1113.24
1167.59
1221.68
1275.22
1327.87
1379.17
1428.22
1474.79
1518.31
1557.07
18646.5
1551.1
1499.47
1440.89
1376.46
1307.07
1233.6
1156.86
1077.76
997.285
916.528
836.5
758.851
686.03
620.738
565.655
522.915
493.412
476.304
469.218
469.124
473.242
479.516
486.584
493.64
500.238
506.137
511.206
515.373
518.597
520.851
522.121
522.4
521.683
519.973
517.273
513.585
508.874
503.12
505.811
516.667
525.995
533.798
540.092
544.894
548.233
550.162
550.77
550.184
548.589
546.229
543.419
540.53
537.97
536.125
535.29
535.589
536.908
538.883
540.943
542.403
542.564
540.806
536.637
529.711
519.821
506.876
490.874
471.878
449.993
425.351
398.098
368.389
342.773
353.162
395.61
439.105
483.607
529.083
575.506
622.849
671.086
720.188
770.121
820.844
872.302
924.432
977.152
1030.36
1083.94
1137.73
1191.57
1245.23
1298.45
1350.91
1402.23
1451.68
1498.78
1543.2
1583.82
18406.2
1911.77
1529.61
1472.52
1409.08
1340.27
1267
1190.15
1110.63
1029.45
947.731
866.489
787.293
712.563
645.04
587.49
542.213
510.326
491.203
482.579
481.393
484.749
490.461
497.071
503.702
509.87
515.312
519.889
523.522
526.167
527.797
528.399
527.966
526.497
523.995
520.466
515.912
510.297
503.598
506.528
518.815
529.564
538.777
546.468
552.649
557.347
560.612
562.527
563.221
562.873
561.73
560.106
558.377
556.953
556.232
556.517
557.942
560.402
563.539
566.783
569.444
570.816
570.268
567.297
561.549
552.808
540.977
526.052
508.094
487.209
463.532
437.213
408.411
379.272
385.427
427.586
470.702
514.744
559.686
605.505
652.184
699.705
748.047
797.184
847.085
897.704
948.986
1000.86
1053.24
1106
1159.03
1212.13
1265.12
1317.74
1369.67
1420.53
1469.65
1516.51
1560.89
1601.62
14943
4566.25
1562.85
1506.11
1442.93
1374.29
1301.06
1224.1
1144.27
1062.53
979.991
897.668
817.018
740.4
670.583
610.421
562.386
527.855
506.465
496.105
493.702
496.237
501.375
507.539
513.77
519.537
524.55
528.656
531.771
533.849
534.862
534.797
533.649
531.42
528.112
523.739
518.3
511.758
504.09
507.243
520.955
533.123
543.742
552.827
560.386
566.442
571.041
574.265
576.236
577.135
577.205
576.762
576.184
575.887
576.276
577.665
580.198
583.778
588.052
592.454
596.287
598.84
599.471
597.668
593.067
585.445
574.701
560.828
543.886
523.984
501.26
475.87
447.977
417.751
419.641
458.826
501.448
544.903
589.172
634.241
680.1
726.739
774.147
822.306
871.194
920.778
971.011
1021.83
1073.17
1124.92
1176.96
1229.13
1281.25
1333.07
1384.3
1434.57
1483.24
1529.74
1573.83
1614.35
11348.7
8118.06
1593.8
1537.54
1475.02
1407.03
1334.35
1257.76
1178.04
1096.13
1013.09
929.942
848.035
769.633
697.519
634.633
583.637
546.196
522.266
509.945
506.177
507.818
512.359
518.085
523.938
529.326
533.931
537.582
540.19
541.705
542.098
541.359
539.484
536.478
532.347
527.106
520.758
513.262
504.595
507.955
523.088
536.668
548.692
559.169
568.107
575.521
581.456
585.987
589.236
591.379
592.659
593.392
593.957
594.777
596.262
598.737
602.354
607.028
612.411
617.936
622.905
626.598
628.365
627.684
624.183
617.634
607.93
595.064
579.097
560.142
538.34
513.853
486.853
457.516
455.294
489.488
531.493
574.228
617.678
661.84
706.709
752.287
798.569
845.55
893.215
941.545
990.505
1040.05
1090.11
1140.61
1191.43
1242.45
1293.48
1344.3
1394.64
1444.12
1492.09
1537.95
1581.36
1620.87
5824.68
13067.4
1621.29
1566.02
1504.7
1437.92
1366.35
1290.66
1211.59
1129.98
1046.85
963.247
880.377
800.38
726.036
660.366
606.226
565.604
538.83
524.28
518.961
519.604
523.51
528.799
534.29
539.322
543.537
546.746
548.85
549.797
549.561
548.131
545.508
541.7
536.718
530.58
523.293
514.812
505.117
508.664
525.211
540.202
553.631
565.504
575.825
584.606
591.885
597.734
602.269
605.662
608.156
610.062
611.765
613.688
616.251
619.787
624.458
630.188
636.635
643.233
649.283
654.056
656.894
657.268
654.798
649.25
640.517
628.59
613.533
595.463
574.528
550.898
524.752
496.275
490.29
519.808
561.073
602.948
645.428
688.516
732.216
776.537
821.486
867.067
913.276
960.103
1007.53
1055.52
1104.02
1152.98
1202.29
1251.84
1301.47
1351
1400.15
1448.59
1495.73
1540.9
1583.73
1622.62
1766.11
17057.6
1641.83
1589.23
1530.32
1465.72
1396.08
1322.06
1244.33
1163.66
1081
997.416
914.002
832.711
756.305
687.871
630.464
586.415
556.496
539.436
532.361
531.89
535.109
539.948
545.079
549.755
553.574
556.326
557.905
558.255
557.354
555.194
551.781
547.128
541.253
534.178
525.912
516.41
505.654
509.367
527.319
543.716
558.549
571.823
583.535
593.692
602.325
609.501
615.329
619.979
623.687
626.765
629.598
632.614
636.239
640.814
646.512
653.264
660.733
668.355
675.424
681.207
685.038
686.38
684.847
680.203
672.341
661.253
647.009
629.731
609.577
586.724
561.361
533.684
524.6
550.102
590.505
631.384
672.743
714.589
756.938
799.805
843.206
887.155
931.658
976.718
1022.32
1068.46
1115.08
1162.14
1209.57
1257.28
1305.12
1352.93
1400.49
1447.5
1493.57
1537.92
1580.54
1620.26
1655.97
18305
1653.52
1605.66
1550.51
1489.17
1422.46
1351.02
1275.48
1196.56
1115.13
1032.21
948.83
866.72
788.564
717.496
656.755
609.043
575.628
555.693
546.569
544.796
547.233
551.588
556.356
560.682
564.107
566.394
567.425
567.146
565.536
562.596
558.34
552.787
545.965
537.903
528.615
518.054
506.205
510.064
529.414
547.222
563.474
578.172
591.307
602.879
612.911
621.461
628.63
634.578
639.535
643.809
647.781
651.883
656.542
662.112
668.774
676.469
684.868
693.407
701.38
708.049
712.743
714.917
714.183
710.305
703.175
692.79
679.227
662.616
643.122
620.934
596.254
569.285
558.207
580.827
620.253
660.007
700.098
740.543
781.364
822.584
864.229
906.319
948.871
991.896
1035.39
1079.36
1123.76
1168.58
1213.74
1259.19
1304.81
1350.46
1395.98
1441.13
1485.61
1528.78
1570.39
1610.15
1647.06
14881.6
4060.45
1616.38
1565.09
1507.54
1444.48
1376.46
1304.03
1227.79
1148.48
1067.05
984.475
902.221
822.827
749.449
685.495
634.043
596.912
573.836
562.44
559.224
560.8
564.615
568.96
572.86
575.795
577.505
577.867
576.832
574.387
570.544
565.327
558.77
550.908
541.781
531.407
519.741
506.768
510.747
531.467
550.668
568.336
584.466
599.04
612.047
623.499
633.442
641.965
649.218
655.427
660.893
665.999
671.178
676.865
683.419
691.029
699.642
708.931
718.332
727.133
734.592
740.029
742.899
742.812
739.534
732.962
723.104
710.044
693.924
674.923
653.242
629.094
602.697
591.132
612.452
650.809
689.332
728.038
766.95
806.098
845.514
885.228
925.269
965.662
1006.42
1047.56
1089.08
1130.96
1173.18
1215.7
1258.46
1301.39
1344.38
1387.29
1429.94
1472.09
1513.23
1553.03
1591.26
1627.09
9167.83
9481.45
1621.28
1573.14
1519.57
1460.8
1397.11
1328.83
1256.38
1180.32
1101.46
1020.69
939.217
859.333
784.141
717.175
661.875
620.667
593.955
579.809
574.79
575.286
578.451
582.333
585.796
588.236
589.352
589.007
587.156
583.797
578.959
572.685
565.026
556.036
545.769
534.252
521.446
507.334
511.419
533.516
554.15
573.301
590.961
607.102
621.698
634.743
646.263
656.329
665.069
672.687
679.471
685.788
692.065
698.739
706.178
714.583
723.916
733.857
743.849
753.183
761.118
766.982
770.235
770.492
767.526
761.242
751.657
738.866
723.021
704.312
682.953
659.167
633.185
623.391
645.778
682.98
720.179
757.399
794.674
832.041
869.536
907.198
945.059
983.149
1021.49
1060.09
1098.96
1138.08
1177.45
1217.02
1256.75
1296.58
1336.42
1376.16
1415.66
1454.72
1492.87
1529.83
1565.27
1597.98
2464.68
15385.8
1615.34
1571.71
1523.18
1469.71
1411.37
1348.31
1280.76
1209.13
1134.02
1056.25
976.781
897.558
821.561
752.368
693.73
648.673
618.351
601.404
594.531
593.894
596.308
599.538
602.28
603.861
603.97
602.49
599.404
594.738
588.548
580.903
571.875
561.539
549.963
537.186
523.17
507.899
512.042
535.396
557.362
577.931
597.079
614.76
630.922
645.533
658.59
670.14
680.296
689.253
697.3
704.812
712.217
719.913
728.26
737.464
747.496