/*--------------------------------*- C++ -*----------------------------------*\
  =========                 |
  \\      /  F ield         | OpenFOAM: The Open Source CFD Toolbox
   \\    /   O peration     | Website:  https://openfoam.org
    \\  /    A nd           | Version:  8
     \\/     M anipulation  |
\*---------------------------------------------------------------------------*/
FoamFile
{
    version     2.0;
    format      ascii;
    class       volScalarField;
    location    "300/fluid";
    object      rho;
}
// * * * * * * * * * * * * * * * * * * * * * * * * * * * * * * * * * * * * * //

dimensions      [1 -3 0 0 0 0 0];

internalField   nonuniform List<scalar> 
4000
(
0.658527
0.658503
0.658464
0.658399
0.658289
0.658109
0.657813
0.657332
0.656557
0.655327
0.653403
0.650451
0.646024
0.639565
0.630455
0.618099
0.602089
0.582358
0.559301
0.533746
0.506795
0.479592
0.453111
0.428044
0.404794
0.38352
0.364215
0.346767
0.331012
0.316768
0.303857
0.292114
0.281394
0.271573
0.262543
0.254219
0.246508
0.239316
0.232587
0.226274
0.220338
0.214745
0.209464
0.204472
0.199748
0.195274
0.191036
0.187021
0.183219
0.179622
0.176224
0.17302
0.170009
0.167189
0.164564
0.162139
0.159922
0.157926
0.156173
0.154725
0.153553
0.152747
0.152396
0.152636
0.159904
0.169748
0.181408
0.195164
0.211389
0.23058
0.253388
0.280666
0.313526
0.353399
0.402203
0.46241
0.536433
0.625806
0.729498
0.841464
0.949659
1.03999
1.10415
1.14338
1.16445
1.1749
1.17982
1.18207
1.18306
1.1835
1.18368
1.18376
1.1838
1.18381
1.18382
1.18382
1.18382
1.18382
1.18382
1.18382
0.658527
0.658503
0.658463
0.658396
0.658285
0.658101
0.657798
0.657305
0.656512
0.655253
0.653288
0.650279
0.64578
0.639241
0.630052
0.617639
0.601609
0.58191
0.558933
0.533491
0.506662
0.479564
0.453156
0.428133
0.404902
0.383632
0.364317
0.346852
0.331076
0.31681
0.303875
0.292109
0.281367
0.271523
0.262474
0.254132
0.246405
0.239199
0.232458
0.226134
0.220189
0.214587
0.2093
0.204302
0.199573
0.195095
0.190854
0.186837
0.183034
0.179437
0.176039
0.172838
0.16983
0.167016
0.164399
0.161983
0.159779
0.1578
0.156069
0.154647
0.1535
0.152713
0.152352
0.152513
0.160849
0.170971
0.182969
0.197135
0.21387
0.233706
0.257345
0.285708
0.319992
0.361747
0.41307
0.476543
0.554505
0.648056
0.755055
0.867721
0.972753
1.05688
1.11444
1.14873
1.16696
1.176
1.18028
1.18225
1.18314
1.18353
1.1837
1.18377
1.1838
1.18381
1.18382
1.18382
1.18382
1.18382
1.18382
1.18382
0.658527
0.658502
0.658462
0.658393
0.658279
0.65809
0.65778
0.657275
0.656463
0.655177
0.653171
0.650108
0.64554
0.63892
0.629645
0.617151
0.601062
0.58134
0.558382
0.533
0.506257
0.479257
0.452944
0.427999
0.404822
0.383582
0.36428
0.346813
0.331026
0.316742
0.303788
0.292002
0.281239
0.271376
0.262308
0.253948
0.246204
0.238981
0.232225
0.225888
0.21993
0.214317
0.209019
0.204013
0.199276
0.194792
0.190546
0.186525
0.18272
0.179122
0.175726
0.172528
0.169525
0.16672
0.164114
0.161716
0.159536
0.157593
0.155921
0.154572
0.153536
0.152919
0.152815
0.153364
0.162336
0.172978
0.18554
0.200354
0.217865
0.238652
0.263478
0.293335
0.329509
0.373651
0.428002
0.495096
0.57695
0.673896
0.78245
0.893429
0.993367
1.07081
1.12249
1.15284
1.16891
1.17688
1.18067
1.18242
1.18321
1.18356
1.18371
1.18377
1.1838
1.18381
1.18382
1.18382
1.18382
1.18382
1.18382
1.18382
0.658526
0.658502
0.65846
0.658391
0.658275
0.658083
0.657767
0.657254
0.65643
0.655125
0.653094
0.649997
0.645386
0.638712
0.629378
0.616825
0.600686
0.580929
0.55796
0.532587
0.505872
0.478909
0.452635
0.427725
0.404576
0.383357
0.364067
0.346606
0.330819
0.316531
0.303569
0.291772
0.280998
0.271122
0.262041
0.253669
0.24591
0.238674
0.231904
0.225554
0.219584
0.21396
0.208652
0.203637
0.198892
0.194402
0.19015
0.186126
0.182318
0.17872
0.175326
0.172131
0.169135
0.166339
0.163747
0.161368
0.159215
0.157309
0.155707
0.154437
0.153525
0.15312
0.153398
0.155081
0.164525
0.175696
0.188871
0.204415
0.222808
0.244678
0.270843
0.302367
0.340615
0.387355
0.444934
0.515768
0.601491
0.701585
0.8112
0.919899
1.01433
1.08498
1.13079
1.15719
1.17101
1.17785
1.1811
1.18261
1.18329
1.18359
1.18372
1.18378
1.1838
1.18381
1.18382
1.18382
1.18382
1.18382
1.18382
1.18382
0.658526
0.658501
0.658459
0.658389
0.658271
0.658076
0.657756
0.657236
0.656401
0.655079
0.653025
0.649894
0.645238
0.638509
0.629109
0.616487
0.600282
0.580472
0.557469
0.532084
0.505378
0.478437
0.452192
0.427312
0.404192
0.382995
0.363723
0.346273
0.330493
0.316208
0.303246
0.291446
0.280666
0.270783
0.261695
0.253314
0.245546
0.238299
0.231518
0.225158
0.219178
0.213544
0.208228
0.203204
0.198453
0.193956
0.189701
0.185673
0.181864
0.178267
0.174875
0.171686
0.168697
0.165911
0.163332
0.160967
0.15883
0.156941
0.155359
0.154104
0.153193
0.152748
0.152894
0.157487
0.167281
0.178922
0.192694
0.20898
0.228289
0.25129
0.278857
0.312118
0.352513
0.401938
0.46279
0.537285
0.626589
0.72922
0.838978
0.944489
1.03303
1.09718
1.13776
1.16079
1.17276
1.17866
1.18147
1.18277
1.18336
1.18362
1.18373
1.18378
1.18381
1.18382
1.18382
1.18382
1.18382
1.18382
1.18382
1.18382
0.658526
0.658501
0.658458
0.658387
0.658268
0.658071
0.657747
0.657221
0.656377
0.655043
0.652969
0.64981
0.645116
0.638339
0.62888
0.61619
0.599915
0.580041
0.556985
0.531566
0.504844
0.477903
0.451671
0.42681
0.403711
0.382536
0.363282
0.345847
0.330079
0.315802
0.302844
0.291046
0.280266
0.270382
0.26129
0.252906
0.245131
0.237877
0.231088
0.22472
0.218733
0.213092
0.207768
0.202739
0.197983
0.193482
0.189224
0.185195
0.181387
0.177792
0.174406
0.171224
0.168245
0.165473
0.16291
0.160567
0.158456
0.156597
0.155055
0.153828
0.152937
0.152497
0.152631
0.159933
0.17011
0.182253
0.19665
0.213703
0.233951
0.258106
0.287095
0.322109
0.364662
0.416781
0.48085
0.558852
0.651413
0.756046
0.865292
0.967151
1.04984
1.10796
1.14389
1.16396
1.1743
1.17938
1.18179
1.18291
1.18342
1.18365
1.18375
1.18379
1.18381
1.18382
1.18382
1.18382
1.18382
1.18382
1.18382
1.18382
0.658526
0.658501
0.658457
0.658385
0.658265
0.658066
0.657739
0.657208
0.656356
0.655009
0.652917
0.649733
0.645002
0.638176
0.628657
0.615897
0.599547
0.5796
0.556482
0.531018
0.504269
0.47732
0.451093
0.426247
0.403167
0.382012
0.362777
0.34536
0.329606
0.315341
0.302392
0.2906
0.279823
0.269941
0.26085
0.252465
0.244687
0.237428
0.230635
0.224262
0.218269
0.212623
0.207295
0.202262
0.197502
0.193
0.18874
0.184713
0.180907
0.177317
0.173938
0.170766
0.167802
0.165047
0.162508
0.160196
0.158125
0.15632
0.154851
0.153676
0.152895
0.152584
0.152855
0.161878
0.172651
0.185416
0.200504
0.218358
0.239561
0.264872
0.295272
0.332018
0.376706
0.431471
0.498636
0.579914
0.675337
0.781392
0.889498
0.987358
1.06438
1.11706
1.14898
1.16657
1.17556
1.17997
1.18206
1.18303
1.18347
1.18367
1.18376
1.18379
1.18381
1.18382
1.18382
1.18382
1.18382
1.18382
1.18382
1.18382
0.658526
0.6585
0.658457
0.658384
0.658263
0.658062
0.657732
0.657196
0.656337
0.65498
0.652871
0.649662
0.644897
0.638024
0.628446
0.615615
0.599187
0.579163
0.555976
0.530457
0.503674
0.476709
0.450482
0.425646
0.402584
0.381449
0.362235
0.344837
0.3291
0.314848
0.301911
0.290128
0.279358
0.269481
0.260394
0.252011
0.244232
0.236971
0.230175
0.223799
0.217804
0.212155
0.206824
0.201789
0.197028
0.192525
0.188267
0.184242
0.18044
0.176857
0.173486
0.170325
0.167376
0.164641
0.162129
0.15985
0.157826
0.156102
0.154728
0.153696
0.153154
0.153254
0.154312
0.163866
0.175179
0.188527
0.204275
0.2229
0.245023
0.271449
0.303212
0.341628
0.388383
0.445692
0.515772
0.600042
0.697907
0.804851
0.911355
1.00512
1.07685
1.12473
1.15322
1.16873
1.17661
1.18046
1.18229
1.18313
1.18352
1.18369
1.18376
1.1838
1.18381
1.18382
1.18382
1.18382
1.18382
1.18382
1.18382
1.18382
0.658526
0.6585
0.658456
0.658383
0.65826
0.658058
0.657726
0.657186
0.65632
0.654952
0.652827
0.649594
0.644796
0.637878
0.628241
0.61534
0.598833
0.578728
0.555469
0.529893
0.50307
0.476086
0.449856
0.42503
0.401984
0.380869
0.361677
0.3443
0.32858
0.314345
0.301421
0.289649
0.278888
0.269018
0.259936
0.251558
0.24378
0.236519
0.229723
0.223346
0.21735
0.2117
0.206369
0.201333
0.196573
0.192071
0.187815
0.183794
0.179998
0.176421
0.173059
0.169909
0.166974
0.164255
0.161762
0.159507
0.157511
0.155829
0.154496
0.153514
0.153023
0.153169
0.156232
0.166105
0.177813
0.19164
0.207966
0.227292
0.250268
0.27774
0.310788
0.350783
0.399505
0.459214
0.531989
0.61894
0.718827
0.826194
0.93077
1.02048
1.08738
1.1311
1.15671
1.1705
1.17747
1.18086
1.18247
1.18322
1.18355
1.1837
1.18377
1.1838
1.18381
1.18382
1.18382
1.18382
1.18382
1.18382
1.18382
1.18382
0.658526
0.6585
0.658456
0.658382
0.658258
0.658054
0.65772
0.657176
0.656304
0.654926
0.652786
0.649531
0.644701
0.637739
0.628044
0.615074
0.598489
0.578304
0.554971
0.529336
0.502473
0.475468
0.449233
0.424415
0.401386
0.380292
0.361121
0.343765
0.328065
0.313847
0.300938
0.289178
0.278427
0.268565
0.259491
0.251119
0.243343
0.236084
0.22929
0.222913
0.216917
0.211268
0.205938
0.200903
0.196145
0.191646
0.187394
0.183377
0.179587
0.176018
0.172665
0.169526
0.166603
0.163898
0.16142
0.159181
0.157199
0.155529
0.154204
0.153214
0.152687
0.152738
0.158197
0.168326
0.180371
0.19462
0.211467
0.231434
0.255198
0.283641
0.317886
0.359355
0.40992
0.471849
0.547079
0.636392
0.737911
0.845322
0.947788
1.03364
1.09623
1.13637
1.15957
1.17194
1.17817
1.18119
1.18262
1.18328
1.18358
1.18372
1.18378
1.1838
1.18381
1.18382
1.18382
1.18382
1.18382
1.18382
1.18382
1.18382
0.658526
0.6585
0.658455
0.658381
0.658257
0.658051
0.657714
0.657167
0.656289
0.654901
0.652747
0.649471
0.64461
0.637606
0.627857
0.614819
0.598158
0.577895
0.554491
0.528797
0.501894
0.474868
0.448629
0.423819
0.400805
0.379731
0.360582
0.343247
0.327568
0.313367
0.300473
0.288726
0.277987
0.268134
0.259068
0.250703
0.242931
0.235675
0.228883
0.222509
0.216514
0.210867
0.205539
0.200507
0.195752
0.191257
0.18701
0.182999
0.179216
0.175656
0.172313
0.169186
0.166276
0.163586
0.161125
0.158903
0.156942
0.155296
0.153988
0.153013
0.152501
0.152589
0.159886
0.170294
0.182674
0.197328
0.214667
0.235231
0.259727
0.289069
0.324422
0.367255
0.419524
0.483481
0.560916
0.65228
0.755082
0.862247
0.962543
1.04482
1.1036
1.1407
1.1619
1.17312
1.17873
1.18146
1.18274
1.18334
1.18361
1.18373
1.18378
1.1838
1.18381
1.18382
1.18382
1.18382
1.18382
1.18382
1.18382
1.18382
0.658526
0.658499
0.658455
0.65838
0.658255
0.658048
0.657709
0.657158
0.656275
0.654879
0.652711
0.649415
0.644526
0.637482
0.62768
0.614578
0.597845
0.577508
0.554035
0.528287
0.501345
0.474299
0.448056
0.423253
0.400255
0.379201
0.360073
0.342759
0.327099
0.312915
0.300037
0.288303
0.277575
0.267733
0.258676
0.250318
0.24255
0.235298
0.228509
0.222138
0.216147
0.210502
0.205177
0.200149
0.195398
0.190908
0.186666
0.182662
0.178888
0.175338
0.172007
0.168894
0.166
0.163329
0.160889
0.158693
0.156757
0.155139
0.153852
0.15289
0.152371
0.15241
0.161203
0.17193
0.184661
0.199715
0.217522
0.238645
0.263818
0.293986
0.330353
0.374437
0.428259
0.494044
0.573433
0.666552
0.770337
0.877053
0.975213
1.05423
1.10973
1.14426
1.1638
1.17407
1.1792
1.18167
1.18284
1.18338
1.18363
1.18374
1.18378
1.18381
1.18381
1.18382
1.18382
1.18382
1.18382
1.18382
1.18382
1.18382
0.658526
0.658499
0.658454
0.658379
0.658253
0.658045
0.657704
0.65715
0.656262
0.654858
0.652678
0.649364
0.644448
0.637367
0.627516
0.614355
0.597555
0.577149
0.553613
0.527812
0.500836
0.473771
0.447524
0.422729
0.399746
0.37871
0.359603
0.342309
0.326667
0.312501
0.299637
0.287916
0.2772
0.267367
0.258319
0.249968
0.242206
0.234958
0.228173
0.221805
0.215817
0.210176
0.204855
0.199831
0.195085
0.1906
0.186366
0.18237
0.178605
0.175065
0.171748
0.168651
0.165776
0.163128
0.160716
0.158551
0.156655
0.155108
0.153887
0.153024
0.152645
0.152896
0.162211
0.173284
0.186369
0.201807
0.220051
0.241687
0.267475
0.29839
0.335671
0.380883
0.436102
0.503511
0.584606
0.679206
0.783722
0.889861
0.985992
1.06211
1.11478
1.14717
1.16535
1.17484
1.17957
1.18185
1.18292
1.18342
1.18364
1.18374
1.18379
1.18381
1.18382
1.18382
1.18382
1.18382
1.18382
1.18382
1.18382
1.18382
0.658526
0.658499
0.658454
0.658378
0.658252
0.658043
0.6577
0.657143
0.65625
0.654839
0.652648
0.649317
0.644377
0.637262
0.627368
0.614153
0.597292
0.576824
0.55323
0.527383
0.500374
0.473293
0.447043
0.422256
0.399286
0.378268
0.359179
0.341904
0.326279
0.312129
0.299279
0.287571
0.276865
0.267042
0.258002
0.249658
0.241901
0.234658
0.227877
0.221513
0.215529
0.209892
0.204575
0.199555
0.194814
0.190336
0.186108
0.18212
0.178365
0.174837
0.171533
0.168452
0.165597
0.162973
0.160591
0.158467
0.156632
0.155156
0.153994
0.153264
0.153073
0.153596
0.163177
0.174524
0.187903
0.203672
0.222296
0.244381
0.27071
0.302285
0.340373
0.386586
0.443039
0.511865
0.594429
0.690259
0.7953
0.900797
0.99506
1.06865
1.11892
1.14954
1.1666
1.17547
1.17987
1.18199
1.18299
1.18345
1.18366
1.18375
1.18379
1.18381
1.18382
1.18382
1.18382
1.18382
1.18382
1.18382
1.18382
1.18382
0.658526
0.658499
0.658453
0.658377
0.658251
0.658041
0.657697
0.657137
0.65624
0.654823
0.652622
0.649276
0.644315
0.637171
0.627237
0.613975
0.59706
0.576537
0.552892
0.527004
0.499968
0.472873
0.446621
0.42184
0.398883
0.377881
0.358809
0.34155
0.325941
0.311805
0.298967
0.28727
0.276574
0.26676
0.257728
0.249391
0.241639
0.2344
0.227624
0.221264
0.215284
0.209651
0.204338
0.199322
0.194586
0.190113
0.185892
0.181912
0.178165
0.174647
0.171355
0.168289
0.165451
0.162848
0.16049
0.158396
0.156607
0.155179
0.154081
0.153445
0.153392
0.154316
0.164098
0.17566
0.189278
0.20532
0.224264
0.246733
0.273525
0.305667
0.344451
0.391528
0.449042
0.519082
0.602886
0.699722
0.805129
0.909979
1.00258
1.07401
1.12228
1.15145
1.16761
1.17597
1.18011
1.1821
1.18304
1.18347
1.18367
1.18375
1.18379
1.18381
1.18382
1.18382
1.18382
1.18382
1.18382
1.18382
1.18382
1.18382
0.658526
0.658499
0.658453
0.658377
0.65825
0.658039
0.657693
0.657132
0.656232
0.654809
0.6526
0.649242
0.644261
0.637092
0.627126
0.613823
0.596863
0.576292
0.552604
0.526682
0.499622
0.472515
0.446262
0.421487
0.398541
0.377552
0.358495
0.34125
0.325655
0.311531
0.298705
0.287018
0.276331
0.266524
0.2575
0.249169
0.241421
0.234187
0.227414
0.221058
0.215081
0.209452
0.204143
0.199132
0.1944
0.189933
0.185717
0.181743
0.178004
0.174495
0.171213
0.168157
0.165331
0.162741
0.160399
0.15832
0.156551
0.155138
0.154053
0.153424
0.153365
0.155008
0.164941
0.17667
0.190478
0.206741
0.225948
0.248733
0.275912
0.308527
0.347891
0.395695
0.454099
0.525149
0.609974
0.707614
0.813267
0.917508
1.00868
1.07831
1.12496
1.15296
1.1684
1.17636
1.1803
1.18219
1.18308
1.18349
1.18367
1.18376
1.18379
1.18381
1.18382
1.18382
1.18382
1.18382
1.18382
1.18382
1.18382
1.18382
0.658526
0.658499
0.658453
0.658376
0.658249
0.658038
0.657691
0.657128
0.656225
0.654797
0.652582
0.649213
0.644218
0.637029
0.627035
0.6137
0.596702
0.576093
0.552371
0.52642
0.499342
0.472225
0.44597
0.4212
0.398264
0.377286
0.358241
0.341009
0.325425
0.311311
0.298494
0.286816
0.276136
0.266336
0.257318
0.248992
0.241248
0.234018
0.227248
0.220896
0.214922
0.209296
0.203991
0.198983
0.194255
0.189792
0.185582
0.181614
0.177881
0.174378
0.171103
0.168055
0.165237
0.162655
0.160319
0.158246
0.156476
0.155058
0.153955
0.153289
0.153159
0.155624
0.16567
0.177526
0.191481
0.207917
0.227331
0.250368
0.277854
0.310848
0.35068
0.399069
0.458191
0.530049
0.615683
0.713944
0.819755
0.923464
1.01346
1.08166
1.12704
1.15413
1.16901
1.17666
1.18044
1.18226
1.18311
1.1835
1.18368
1.18376
1.1838
1.18381
1.18382
1.18382
1.18382
1.18382
1.18382
1.18382
1.18382
1.18382
0.658526
0.658499
0.658453
0.658376
0.658248
0.658037
0.657689
0.657125
0.656219
0.654789
0.652568
0.649192
0.644186
0.63698
0.626967
0.613606
0.59658
0.575943
0.552193
0.526222
0.499129
0.472006
0.44575
0.420984
0.398054
0.377086
0.35805
0.340826
0.325251
0.311146
0.298336
0.286664
0.27599
0.266195
0.257182
0.248861
0.241121
0.233893
0.227127
0.220777
0.214806
0.209183
0.20388
0.198876
0.194151
0.189692
0.185485
0.181522
0.177794
0.174296
0.171027
0.167985
0.165173
0.162596
0.160264
0.158193
0.15642
0.154996
0.153878
0.153186
0.153012
0.156119
0.166249
0.1782
0.192264
0.208829
0.228398
0.251622
0.27934
0.31262
0.352803
0.401636
0.461299
0.533765
0.620001
0.718714
0.82462
0.927906
1.01701
1.08413
1.12856
1.15498
1.16946
1.17688
1.18055
1.18231
1.18313
1.18351
1.18369
1.18376
1.1838
1.18381
1.18382
1.18382
1.18382
1.18382
1.18382
1.18382
1.18382
1.18382
0.658526
0.658498
0.658453
0.658376
0.658248
0.658036
0.657688
0.657123
0.656216
0.654783
0.652559
0.649177
0.644164
0.636948
0.626921
0.613543
0.596499
0.575842
0.552075
0.526089
0.498987
0.471859
0.445602
0.420839
0.397914
0.376951
0.357922
0.340704
0.325135
0.311035
0.298231
0.286563
0.275893
0.266102
0.257093
0.248775
0.241037
0.233812
0.227048
0.2207
0.214731
0.20911
0.20381
0.198808
0.194086
0.189629
0.185426
0.181466
0.177741
0.174248
0.170983
0.167945
0.165137
0.162564
0.160236
0.158167
0.156394
0.154968
0.153844
0.153138
0.152941
0.156454
0.166649
0.178668
0.192808
0.20946
0.229133
0.252483
0.280356
0.313827
0.354246
0.403376
0.463401
0.536272
0.622906
0.721913
0.827869
0.930857
1.01936
1.08576
1.12957
1.15555
1.16975
1.17703
1.18062
1.18234
1.18315
1.18352
1.18369
1.18376
1.1838
1.18381
1.18382
1.18382
1.18382
1.18382
1.18382
1.18382
1.18382
1.18382
0.658526
0.658498
0.658453
0.658376
0.658248
0.658035
0.657687
0.657122
0.656214
0.65478
0.652554
0.64917
0.644153
0.636933
0.626899
0.613513
0.59646
0.575794
0.552018
0.526025
0.498918
0.471787
0.445531
0.420769
0.397846
0.376886
0.357859
0.340645
0.325078
0.310981
0.298179
0.286513
0.275845
0.266057
0.257049
0.248733
0.240997
0.233774
0.22701
0.220664
0.214696
0.209076
0.203777
0.198776
0.194056
0.189601
0.185399
0.181441
0.177719
0.174228
0.170966
0.167931
0.165126
0.162556
0.160231
0.158164
0.156392
0.154966
0.153839
0.153125
0.152912
0.15662
0.166856
0.178914
0.193093
0.20979
0.229514
0.252927
0.280875
0.314439
0.354974
0.404247
0.464446
0.53751
0.624332
0.723473
0.829442
0.932275
1.02048
1.08653
1.13005
1.15581
1.16989
1.1771
1.18065
1.18236
1.18315
1.18352
1.18369
1.18376
1.1838
1.18381
1.18382
1.18382
1.18382
1.18382
1.18382
1.18382
1.18382
1.18382
0.658526
0.658498
0.658453
0.658376
0.658248
0.658035
0.657687
0.657121
0.656214
0.65478
0.652554
0.64917
0.644153
0.636932
0.626898
0.613513
0.596459
0.575793
0.552017
0.526024
0.498917
0.471786
0.44553
0.420768
0.397845
0.376885
0.357858
0.340644
0.325078
0.31098
0.298178
0.286513
0.275845
0.266057
0.257049
0.248733
0.240997
0.233773
0.22701
0.220663
0.214696
0.209076
0.203776
0.198776
0.194055
0.189601
0.185399
0.181441
0.177719
0.174228
0.170966
0.167931
0.165126
0.162556
0.16023
0.158164
0.156392
0.154966
0.153839
0.153125
0.152912
0.156621
0.166857
0.178915
0.193095
0.209791
0.229516
0.252929
0.280877
0.314442
0.354977
0.404251
0.464451
0.537516
0.62434
0.723481
0.82945
0.932283
1.02048
1.08654
1.13005
1.15582
1.16989
1.1771
1.18065
1.18236
1.18315
1.18352
1.18369
1.18376
1.1838
1.18381
1.18382
1.18382
1.18382
1.18382
1.18382
1.18382
1.18382
1.18382
0.658526
0.658498
0.658453
0.658376
0.658248
0.658036
0.657688
0.657122
0.656216
0.654783
0.652558
0.649177
0.644163
0.636947
0.626919
0.613541
0.596496
0.575839
0.552072
0.526085
0.498983
0.471855
0.445599
0.420836
0.397911
0.376949
0.357919
0.340702
0.325133
0.311033
0.298229
0.286561
0.275891
0.266101
0.257092
0.248774
0.241036
0.233811
0.227047
0.220699
0.21473
0.209109
0.203809
0.198807
0.194085
0.189628
0.185425
0.181465
0.177741
0.174247
0.170982
0.167944
0.165136
0.162563
0.160235
0.158166
0.156393
0.154967
0.153843
0.153137
0.152941
0.156456
0.166652
0.178671
0.192812
0.209465
0.229138
0.25249
0.280363
0.313835
0.354257
0.403389
0.463416
0.53629
0.622928
0.721938
0.827894
0.93088
1.01938
1.08577
1.12958
1.15555
1.16975
1.17703
1.18062
1.18234
1.18315
1.18352
1.18369
1.18376
1.1838
1.18381
1.18382
1.18382
1.18382
1.18382
1.18382
1.18382
1.18382
1.18382
0.658526
0.658499
0.658453
0.658376
0.658248
0.658036
0.657689
0.657125
0.656219
0.654788
0.652567
0.649191
0.644184
0.636978
0.626964
0.613602
0.596576
0.575937
0.552187
0.526215
0.499123
0.471999
0.445744
0.420978
0.398049
0.377081
0.358045
0.340822
0.325248
0.311142
0.298333
0.286661
0.275987
0.266193
0.25718
0.248859
0.241119
0.233891
0.227125
0.220775
0.214804
0.209181
0.203878
0.198874
0.19415
0.18969
0.185484
0.18152
0.177792
0.174295
0.171026
0.167984
0.165172
0.162595
0.160263
0.158192
0.156419
0.154995
0.153877
0.153184
0.15301
0.156123
0.166254
0.178205
0.192271
0.208836
0.228407
0.251633
0.279352
0.312634
0.352821
0.401658
0.461325
0.533796
0.620038
0.718756
0.824663
0.927945
1.01704
1.08415
1.12858
1.15499
1.16946
1.17689
1.18055
1.18231
1.18313
1.18351
1.18369
1.18376
1.1838
1.18381
1.18382
1.18382
1.18382
1.18382
1.18382
1.18382
1.18382
1.18382
0.658526
0.658499
0.658453
0.658376
0.658249
0.658038
0.657691
0.657128
0.656224
0.654797
0.652581
0.649212
0.644216
0.637026
0.627032
0.613695
0.596696
0.576086
0.552362
0.526411
0.499333
0.472216
0.445962
0.421192
0.398256
0.37728
0.358235
0.341003
0.32542
0.311307
0.29849
0.286812
0.276132
0.266332
0.257314
0.248989
0.241245
0.234015
0.227246
0.220893
0.21492
0.209294
0.203988
0.198981
0.194253
0.18979
0.18558
0.181612
0.177879
0.174376
0.171101
0.168054
0.165236
0.162654
0.160318
0.158245
0.156475
0.155057
0.153953
0.153287
0.153156
0.155631
0.165677
0.177534
0.19149
0.207928
0.227344
0.250382
0.277871
0.310868
0.350704
0.399099
0.458227
0.530093
0.615733
0.714001
0.819813
0.923517
1.01351
1.08169
1.12705
1.15414
1.16901
1.17666
1.18044
1.18226
1.18311
1.1835
1.18368
1.18376
1.1838
1.18381
1.18382
1.18382
1.18382
1.18382
1.18382
1.18382
1.18382
1.18382
0.658526
0.658499
0.658453
0.658377
0.65825
0.658039
0.657693
0.657132
0.656231
0.654808
0.652599
0.64924
0.644259
0.637089
0.627121
0.613817
0.596855
0.576283
0.552594
0.52667
0.499611
0.472504
0.446251
0.421476
0.398531
0.377543
0.358487
0.341243
0.325649
0.311525
0.2987
0.287013
0.276326
0.26652
0.257495
0.249165
0.241417
0.234183
0.22741
0.221055
0.215078
0.209449
0.20414
0.199129
0.194397
0.18993
0.185714
0.181741
0.178002
0.174493
0.171211
0.168155
0.16533
0.16274
0.160398
0.158319
0.156549
0.155137
0.154051
0.153422
0.153363
0.155017
0.16495
0.17668
0.19049
0.206754
0.225963
0.248751
0.275933
0.308553
0.347922
0.395732
0.454145
0.525203
0.610038
0.707686
0.813341
0.917575
1.00873
1.07834
1.12498
1.15297
1.16841
1.17636
1.1803
1.18219
1.18308
1.18349
1.18367
1.18376
1.18379
1.18381
1.18382
1.18382
1.18382
1.18382
1.18382
1.18382
1.18382
1.18382
0.658526
0.658499
0.658453
0.658377
0.658251
0.658041
0.657696
0.657137
0.65624
0.654822
0.652621
0.649274
0.644312
0.637166
0.627232
0.613967
0.597051
0.576525
0.552879
0.52699
0.499954
0.472859
0.446607
0.421827
0.398871
0.37787
0.358799
0.341541
0.325933
0.311797
0.29896
0.287264
0.276568
0.266754
0.257723
0.249386
0.241634
0.234396
0.227619
0.22126
0.21528
0.209647
0.204334
0.199319
0.194583
0.19011
0.185889
0.181909
0.178163
0.174645
0.171353
0.168287
0.165449
0.162846
0.160489
0.158395
0.156606
0.155179
0.154081
0.153445
0.153395
0.154326
0.164108
0.175671
0.189291
0.205335
0.224282
0.246753
0.27355
0.305697
0.344487
0.391572
0.449096
0.519146
0.602962
0.699807
0.805217
0.91006
1.00264
1.07405
1.12231
1.15146
1.16761
1.17597
1.18011
1.1821
1.18304
1.18347
1.18367
1.18375
1.18379
1.18381
1.18382
1.18382
1.18382
1.18382
1.18382
1.18382
1.18382
1.18382
0.658526
0.658499
0.658454
0.658378
0.658252
0.658043
0.6577
0.657143
0.65625
0.654838
0.652647
0.649315
0.644373
0.637258
0.627361
0.614144
0.597281
0.57681
0.553215
0.527366
0.500357
0.473276
0.447027
0.42224
0.399272
0.378255
0.359168
0.341893
0.326269
0.31212
0.299271
0.287563
0.276857
0.267035
0.257996
0.249652
0.241895
0.234652
0.227872
0.221508
0.215524
0.209887
0.204571
0.199551
0.19481
0.190332
0.186104
0.182116
0.178361
0.174833
0.17153
0.168449
0.165595
0.162971
0.160589
0.158466
0.156631
0.155156
0.153994
0.153266
0.153078
0.153603
0.163186
0.174536
0.187917
0.203688
0.222315
0.244404
0.270738
0.302318
0.340413
0.386635
0.443099
0.511938
0.594515
0.690356
0.795401
0.900892
0.995136
1.0687
1.11896
1.14956
1.16661
1.17547
1.17987
1.18199
1.18299
1.18345
1.18366
1.18375
1.18379
1.18381
1.18382
1.18382
1.18382
1.18382
1.18382
1.18382
1.18382
1.18382
0.658526
0.658499
0.658454
0.658379
0.658253
0.658045
0.657704
0.65715
0.656261
0.654857
0.652677
0.649361
0.644444
0.637361
0.627509
0.614345
0.597542
0.577134
0.553595
0.527793
0.500816
0.473752
0.447505
0.422712
0.39973
0.378695
0.359589
0.342296
0.326655
0.31249
0.299627
0.287907
0.277191
0.267359
0.258311
0.249961
0.242199
0.234951
0.228166
0.221799
0.215811
0.210171
0.20485
0.199826
0.19508
0.190596
0.186361
0.182365
0.178601
0.175062
0.171744
0.168648
0.165773
0.163126
0.160714
0.158549
0.156654
0.155108
0.153888
0.153026
0.15265
0.152902
0.162219
0.173296
0.186383
0.201825
0.220072
0.241712
0.267504
0.298426
0.335714
0.380936
0.436167
0.50359
0.584701
0.679314
0.783835
0.889968
0.986079
1.06218
1.11482
1.14719
1.16536
1.17485
1.17957
1.18185
1.18292
1.18342
1.18364
1.18374
1.18379
1.18381
1.18382
1.18382
1.18382
1.18382
1.18382
1.18382
1.18382
1.18382
0.658526
0.658499
0.658455
0.65838
0.658255
0.658048
0.657709
0.657158
0.656274
0.654878
0.652709
0.649412
0.644521
0.637476
0.627671
0.614567
0.59783
0.577491
0.554016
0.528265
0.501323
0.474277
0.448034
0.423233
0.400236
0.379184
0.360057
0.342745
0.327085
0.312903
0.300025
0.288293
0.277565
0.267724
0.258667
0.250309
0.242542
0.23529
0.228502
0.222131
0.21614
0.210496
0.205171
0.200143
0.195392
0.190902
0.186661
0.182657
0.178883
0.175333
0.172002
0.16889
0.165996
0.163326
0.160886
0.15869
0.156754
0.155136
0.153851
0.152891
0.152374
0.152412
0.161214
0.171944
0.184678
0.199736
0.217546
0.238673
0.263851
0.294026
0.330401
0.374494
0.42833
0.494131
0.573537
0.666671
0.770464
0.877175
0.975314
1.05431
1.10977
1.14429
1.16382
1.17408
1.1792
1.18167
1.18284
1.18338
1.18363
1.18374
1.18378
1.18381
1.18381
1.18382
1.18382
1.18382
1.18382
1.18382
1.18382
1.18382
0.658526
0.6585
0.658455
0.658381
0.658256
0.658051
0.657714
0.657166
0.656288
0.6549
0.652745
0.649468
0.644606
0.637599
0.627847
0.614806
0.598142
0.577876
0.554469
0.528773
0.501869
0.474843
0.448605
0.423796
0.400784
0.379712
0.360564
0.343231
0.327552
0.313353
0.30046
0.288714
0.277975
0.268124
0.259059
0.250694
0.242922
0.235667
0.228874
0.222501
0.216507
0.21086
0.205532
0.2005
0.195745
0.191251
0.187003
0.182993
0.17921
0.17565
0.172307
0.169181
0.166271
0.163582
0.16112
0.158899
0.156939
0.155294
0.153987
0.153013
0.152502
0.15259
0.159901
0.170312
0.182695
0.197352
0.214694
0.235262
0.259764
0.289112
0.324474
0.367318
0.419601
0.483576
0.561029
0.652411
0.755223
0.862385
0.96266
1.0449
1.10366
1.14073
1.16192
1.17312
1.17874
1.18146
1.18274
1.18334
1.18361
1.18373
1.18378
1.1838
1.18381
1.18382
1.18382
1.18382
1.18382
1.18382
1.18382
1.18382
0.658526
0.6585
0.658456
0.658382
0.658258
0.658054
0.657719
0.657175
0.656303
0.654924
0.652784
0.649528
0.644696
0.637731
0.628034
0.61506
0.598471
0.578282
0.554947
0.529309
0.502445
0.47544
0.449207
0.42439
0.401362
0.38027
0.361101
0.343746
0.328048
0.313831
0.300923
0.289164
0.278415
0.268554
0.25948
0.251108
0.243333
0.236075
0.22928
0.222904
0.216909
0.21126
0.20593
0.200896
0.196138
0.191639
0.187387
0.183371
0.179581
0.176012
0.172659
0.169521
0.166598
0.163893
0.161416
0.159177
0.157196
0.155527
0.154202
0.153213
0.152686
0.152737
0.158212
0.168344
0.180392
0.194644
0.211496
0.231467
0.255238
0.283687
0.317943
0.359423
0.410004
0.471951
0.547203
0.636537
0.738069
0.845478
0.947923
1.03374
1.09629
1.1364
1.15958
1.17195
1.17817
1.18119
1.18262
1.18328
1.18358
1.18372
1.18378
1.1838
1.18381
1.18382
1.18382
1.18382
1.18382
1.18382
1.18382
1.18382
0.658526
0.6585
0.658456
0.658383
0.65826
0.658058
0.657725
0.657185
0.656319
0.65495
0.652824
0.649591
0.64479
0.63787
0.628229
0.615324
0.598813
0.578705
0.555442
0.529863
0.50304
0.476056
0.449826
0.425002
0.401958
0.380845
0.361655
0.344279
0.328562
0.314328
0.301405
0.289634
0.278874
0.269005
0.259924
0.251546
0.243769
0.236508
0.229713
0.223336
0.21734
0.21169
0.20636
0.201324
0.196564
0.192063
0.187808
0.183786
0.179991
0.176414
0.173052
0.169903
0.166968
0.16425
0.161757
0.159502
0.157506
0.155824
0.154492
0.153509
0.153017
0.153161
0.156253
0.166127
0.177837
0.191667
0.207998
0.227328
0.250312
0.277791
0.31085
0.350857
0.399597
0.459326
0.532125
0.6191
0.719003
0.826372
0.930926
1.0206
1.08746
1.13114
1.15673
1.17051
1.17747
1.18087
1.18247
1.18322
1.18355
1.1837
1.18377
1.1838
1.18381
1.18382
1.18382
1.18382
1.18382
1.18382
1.18382
1.18382
0.658526
0.6585
0.658457
0.658384
0.658262
0.658061
0.657732
0.657196
0.656336
0.654978
0.652868
0.649657
0.644891
0.638015
0.628433
0.615599
0.599166
0.579137
0.555946
0.530425
0.50364
0.476675
0.450449
0.425615
0.402555
0.381422
0.36221
0.344815
0.329079
0.314829
0.301893
0.290111
0.279343
0.269466
0.26038
0.251998
0.244219
0.236959
0.230164
0.223788
0.217793
0.212144
0.206814
0.201779
0.197019
0.192517
0.188259
0.184234
0.180433
0.176849
0.173479
0.170319
0.16737
0.164636
0.162123
0.159845
0.157821
0.156098
0.154724
0.153694
0.153154
0.153261
0.154332
0.163888
0.175204
0.188555
0.204308
0.222939
0.245069
0.271504
0.303278
0.341708
0.388482
0.445813
0.515919
0.600216
0.698102
0.805052
0.911536
1.00525
1.07694
1.12478
1.15325
1.16874
1.17662
1.18046
1.18229
1.18313
1.18352
1.18369
1.18376
1.1838
1.18381
1.18382
1.18382
1.18382
1.18382
1.18382
1.18382
1.18382
0.658526
0.658501
0.658457
0.658385
0.658265
0.658066
0.657739
0.657207
0.656355
0.655008
0.652914
0.649728
0.644995
0.638166
0.628643
0.615879
0.599524
0.579572
0.55645
0.530983
0.504233
0.477284
0.451058
0.426213
0.403136
0.381983
0.36275
0.345336
0.329583
0.315319
0.302372
0.290581
0.279806
0.269925
0.260835
0.252451
0.244673
0.237415
0.230622
0.22425
0.218257
0.212612
0.207284
0.202251
0.197492
0.19299
0.188731
0.184704
0.180899
0.177309
0.17393
0.170759
0.167795
0.165041
0.162503
0.160191
0.158121
0.156317
0.15485
0.153677
0.152899
0.152593
0.152868
0.161895
0.172674
0.185445
0.200538
0.2184
0.239611
0.264931
0.295343
0.332103
0.37681