/*--------------------------------*- C++ -*----------------------------------*\
  =========                 |
  \\      /  F ield         | OpenFOAM: The Open Source CFD Toolbox
   \\    /   O peration     | Website:  https://openfoam.org
    \\  /    A nd           | Version:  8
     \\/     M anipulation  |
\*---------------------------------------------------------------------------*/
FoamFile
{
    version     2.0;
    format      ascii;
    class       volScalarField;
    location    "300/fluid";
    object      T;
}
// * * * * * * * * * * * * * * * * * * * * * * * * * * * * * * * * * * * * * //

dimensions      [0 0 0 1 0 0 0];

internalField   nonuniform List<scalar> 
4000
(
293.003
293.015
293.034
293.067
293.121
293.21
293.357
293.595
293.98
294.594
295.559
297.052
299.32
302.692
307.583
314.479
323.898
336.328
352.153
371.584
394.629
421.11
450.714
483.066
517.786
554.529
593.005
632.983
674.288
716.786
760.372
804.96
850.466
896.81
943.9
991.629
1039.95
1088.9
1138.4
1188.37
1238.73
1289.38
1340.24
1391.21
1442.19
1493.07
1543.75
1594.1
1643.99
1693.3
1741.88
1789.57
1836.19
1881.53
1925.38
1967.45
2007.42
2044.89
2079.38
2109.54
2136.01
2157.07
2171.27
2176.44
2085.41
1971.67
1851.41
1726.71
1599.31
1470.7
1342.23
1215.11
1090.58
969.869
854.076
744.379
642.823
551.887
474.065
411.414
364.82
333.304
314.034
303.314
297.85
295.214
293.988
293.433
293.187
293.08
293.034
293.014
293.006
293.002
293.001
293
293
293
293
293
293.003
293.015
293.035
293.068
293.123
293.214
293.364
293.609
294.003
294.631
295.617
297.14
299.446
302.864
307.803
314.742
324.189
336.622
352.419
371.789
394.75
421.138
450.659
482.942
517.611
554.321
592.785
632.772
674.105
716.65
760.301
804.973
850.585
897.051
944.274
992.145
1040.62
1089.72
1139.38
1189.52
1240.04
1290.85
1341.87
1393
1444.14
1495.17
1545.99
1596.47
1646.5
1695.92
1744.6
1792.37
1839.05
1884.43
1928.28
1970.31
2010.19
2047.51
2081.76
2111.57
2137.71
2158.52
2172.84
2179.07
2074.04
1958.39
1836.41
1710.19
1581.45
1451.67
1322.17
1194.2
1069.01
947.895
831.951
722.587
622.098
533.109
458.141
399.045
356.209
328.005
311.15
301.908
297.214
294.941
293.874
293.387
293.169
293.072
293.031
293.013
293.005
293.002
293.001
293
293
293
293
293
293.004
293.016
293.036
293.069
293.126
293.219
293.373
293.624
294.027
294.669
295.676
297.226
299.57
303.034
308.026
315.021
324.521
336.997
352.816
372.185
395.119
421.458
450.912
483.128
517.739
554.412
592.863
632.866
674.243
716.86
760.609
805.401
851.154
897.779
945.181
993.246
1041.93
1091.26
1141.16
1191.54
1242.31
1293.39
1344.67
1396.06
1447.45
1498.73
1549.79
1600.51
1650.75
1700.38
1749.24
1797.16
1843.95
1889.4
1933.25
1975.21
2014.9
2051.86
2085.33
2114.2
2138.82
2157.21
2167.84
2168.52
2056.47
1937.01
1812.22
1683.87
1553.51
1422.54
1292.24
1163.89
1038.77
918.223
803.353
695.842
598.145
512.844
442.217
387.636
348.859
323.76
308.929
300.836
296.72
294.721
293.779
293.346
293.151
293.065
293.028
293.012
293.005
293.002
293.001
293
293
293
293
293
293.004
293.016
293.036
293.071
293.128
293.223
293.38
293.634
294.044
294.695
295.714
297.283
299.65
303.144
308.172
315.208
324.751
337.267
353.121
372.517
395.47
421.821
451.284
483.508
518.132
554.828
593.315
633.37
674.818
717.527
761.39
806.319
852.23
899.036
946.638
994.923
1043.85
1093.44
1143.62
1194.29
1245.36
1296.74
1348.33
1400.03
1451.74
1503.33
1554.69
1605.7
1656.21
1706.09
1755.17
1803.28
1850.22
1895.76
1939.64
1981.54
2021.04
2057.62
2090.11
2117.91
2140.81
2156.21
2161.4
2146.3
2030.81
1908.64
1781.72
1651.75
1520.24
1388.57
1258.03
1129.91
1005.56
886.277
773.212
668.28
573.98
492.771
426.655
376.55
341.688
319.555
306.673
299.711
296.189
294.478
293.671
293.299
293.131
293.057
293.024
293.01
293.004
293.002
293.001
293
293
293
293
293
293.004
293.016
293.037
293.072
293.13
293.227
293.385
293.643
294.058
294.718
295.749
297.335
299.726
303.252
308.319
315.402
324.997
337.568
353.477
372.924
395.923
422.315
451.817
484.082
518.751
555.5
594.052
634.186
675.73
718.553
762.55
807.633
853.719
900.721
948.539
997.057
1046.25
1096.12
1146.59
1197.56
1248.96
1300.67
1352.59
1404.63
1456.67
1508.6
1560.28
1611.6
1662.4
1712.55
1761.86
1810.18
1857.28
1902.94
1946.88
1988.78
2028.24
2064.75
2097.07
2124.72
2147.63
2163.54
2170.51
2115.45
1999.16
1875.89
1747.89
1617.04
1484.96
1353.1
1222.79
1095.39
972.258
854.631
743.777
641.815
551.204
474.244
412.624
366.806
335.538
316.021
304.803
298.786
295.751
294.278
293.581
293.26
293.114
293.05
293.021
293.009
293.004
293.002
293.001
293
293
293
293
293
293.004
293.016
293.037
293.073
293.132
293.229
293.39
293.651
294.07
294.736
295.778
297.378
299.789
303.342
308.445
315.573
325.221
337.853
353.828
373.344
396.413
422.875
452.446
484.782
519.526
556.356
594.999
635.235
676.895
719.85
763.996
809.248
855.521
902.729
950.77
999.528
1048.98
1099.14
1149.91
1201.2
1252.91
1304.96
1357.22
1409.61
1461.98
1514.24
1566.25
1617.87
1668.96
1719.36
1768.9
1817.39
1864.63
1910.35
1954.29
1996.1
2035.36
2071.58
2103.35
2130.66
2153.31
2169.13
2176.14
2085
1967.67
1843.22
1714.2
1582.62
1450.18
1318.37
1188.57
1062.13
940.452
824.656
716.196
617.311
530.387
457.544
400.158
358.261
330.194
312.961
303.179
297.975
295.365
294.099
293.501
293.224
293.099
293.043
293.018
293.008
293.003
293.001
293.001
293
293
293
293
293
293.004
293.016
293.038
293.073
293.133
293.232
293.393
293.657
294.081
294.753
295.804
297.418
299.848
303.428
308.568
315.741
325.446
338.145
354.194
373.789
396.941
423.488
453.146
485.57
520.408
557.336
596.086
636.439
678.229
721.327
765.633
811.06
857.527
904.944
953.211
1002.21
1051.93
1102.37
1153.43
1205.03
1257.06
1309.43
1362.03
1414.74
1467.44
1520.02
1572.33
1624.24
1675.6
1726.23
1775.96
1824.6
1871.91
1917.64
1961.47
2003.05
2041.92
2077.49
2108.25
2135.12
2156.16
2170.05
2174.94
2061.78
1940.4
1813.32
1682.63
1550.1
1417.29
1285.61
1156.42
1031.07
910.904
796.988
690.961
595.119
511.759
442.812
389.338
350.97
325.707
310.424
301.843
297.312
295.048
293.952
293.434
293.194
293.086
293.037
293.016
293.007
293.003
293.001
293.001
293
293
293
293
293
293.004
293.017
293.038
293.074
293.134
293.234
293.397
293.663
294.09
294.768
295.827
297.454
299.903
303.509
308.684
315.904
325.667
338.434
354.563
374.246
397.49
424.133
453.89
486.415
521.356
558.394
597.26
637.739
679.665
722.912
767.381
812.986
859.645
907.27
955.758
1004.99
1054.97
1105.67
1157.02
1208.91
1261.25
1313.93
1366.83
1419.85
1472.86
1525.73
1578.33
1630.5
1682.09
1732.93
1782.83
1831.58
1878.95
1924.64
1968.34
2009.63
2048
2082.45
2111.95
2136.84
2154.47
2162.49
2156.25
2038.46
1913.94
1784.79
1652.82
1519.62
1386.65
1255.28
1126.83
1002.63
883.968
771.917
668.275
575.353
495.347
429.997
380.059
344.804
321.956
308.318
300.737
296.765
294.787
293.83
293.378
293.17
293.075
293.033
293.014
293.006
293.003
293.001
293
293
293
293
293
293
293.004
293.017
293.038
293.075
293.135
293.235
293.4
293.668
294.099
294.782
295.849
297.488
299.955
303.586
308.796
316.062
325.884
338.722
354.933
374.707
398.048
424.792
454.653
487.284
522.335
559.487
598.473
639.08
681.145
724.541
769.172
814.951
861.798
909.623
958.323
1007.78
1058
1108.96
1160.58
1212.74
1265.36
1318.32
1371.51
1424.82
1478.1
1531.24
1584.09
1636.5
1688.3
1739.32
1789.37
1838.22
1885.63
1931.32
1974.94
2016.08
2054.2
2088.12
2117.05
2141.23
2158.1
2165.39
2131.42
2012.52
1886.99
1757.06
1624.6
1491.24
1358.45
1227.58
1099.97
976.961
859.753
749.492
648.133
557.952
481.046
418.965
372.179
339.641
318.852
306.59
299.835
296.319
294.573
293.73
293.333
293.149
293.066
293.029
293.012
293.005
293.002
293.001
293
293
293
293
293
293
293.004
293.017
293.039
293.075
293.136
293.237
293.403
293.673
294.107
294.795
295.87
297.521
300.005
303.66
308.904
316.216
326.095
339.005
355.297
375.162
398.602
425.449
455.415
488.154
523.315
560.582
599.687
640.421
682.62
726.162
770.948
816.895
863.92
911.935
960.834
1010.5
1060.95
1112.15
1164.01
1216.43
1269.3
1322.52
1375.97
1429.52
1483.06
1536.43
1589.5
1642.11
1694.09
1745.26
1795.43
1844.36
1891.82
1937.51
1981.09
2022.15
2060.18
2094
2122.86
2147.15
2164.47
2173.02
2106.43
1987.33
1861.48
1731.27
1598.69
1465.42
1332.95
1202.67
1075.93
954.084
838.246
729.683
630.451
542.792
468.702
409.549
365.536
335.34
316.292
305.176
299.099
295.956
294.399
293.649
293.296
293.133
293.059
293.026
293.011
293.005
293.002
293.001
293
293
293
293
293
293
293.004
293.017
293.039
293.076
293.137
293.239
293.406
293.677
294.114
294.807
295.889
297.551
300.052
303.731
309.008
316.363
326.299
339.277
355.65
375.604
399.14
426.088
456.157
489.001
524.271
561.648
600.869
641.724
684.052
727.731
772.664
818.768
865.96
914.15
963.233
1013.09
1063.75
1115.16
1167.24
1219.89
1272.99
1326.44
1380.12
1433.89
1487.64
1541.22
1594.48
1647.25
1699.38
1750.66
1800.91
1849.89
1897.35
1943.01
1986.51
2027.44
2065.25
2098.77
2127.38
2151.47
2168.57
2176.48
2085.5
1965.57
1839.1
1708.48
1575.73
1442.51
1310.35
1180.63
1054.71
933.927
819.346
712.35
615.065
529.689
458.125
401.563
359.966
331.774
314.189
304.021
298.501
295.661
294.258
293.584
293.266
293.119
293.053
293.023
293.01
293.004
293.002
293.001
293
293
293
293
293
293
293.004
293.017
293.039
293.076
293.138
293.24
293.408
293.682
294.121
294.818
295.908
297.58
300.096
303.797
309.105
316.502
326.491
339.535
355.984
376.025
399.653
426.696
456.864
489.808
525.179
562.662
601.991
642.96
685.408
729.214
774.283
820.53
867.874
916.224
965.473
1015.51
1066.35
1117.96
1170.24
1223.08
1276.39
1330.03
1383.91
1437.88
1491.81
1545.55
1598.96
1651.87
1704.1
1755.46
1805.74
1854.72
1902.12
1947.66
1990.99
2031.65
2069.19
2102.33
2130.7
2154.59
2171.77
2180.24
2069.58
1947.91
1820.25
1688.91
1555.79
1422.52
1290.59
1161.35
1036.16
916.328
802.881
697.31
601.779
518.447
449.121
394.828
355.316
328.825
312.465
303.08
298.015
295.422
294.144
293.53
293.241
293.108
293.048
293.021
293.009
293.004
293.002
293.001
293
293
293
293
293
293
293.004
293.017
293.039
293.077
293.139
293.242
293.411
293.686
294.128
294.829
295.924
297.606
300.136
303.858
309.195
316.631
326.67
339.775
356.295
376.415
400.129
427.262
457.521
490.558
526.024
563.602
603.031
644.104
686.661
730.583
775.774
822.151
869.631
918.124
967.52
1017.71
1068.71
1120.49
1172.94
1225.96
1279.44
1333.26
1387.3
1441.43
1495.51
1549.39
1602.92
1655.93
1708.22
1759.62
1809.9
1858.82
1906.12
1951.47
1994.52
2034.86
2071.92
2103.99
2131.44
2153.93
2169.04
2174.41
2057.73
1933.6
1804.39
1672.13
1538.55
1405.18
1273.42
1144.61
1020.07
901.08
788.65
684.355
590.394
508.871
441.506
389.181
351.454
326.398
311.056
302.315
297.622
295.229
294.052
293.487
293.222
293.099
293.044
293.019
293.008
293.004
293.002
293.001
293
293
293
293
293
293
293.004
293.017
293.04
293.077
293.139
293.243
293.413
293.689
294.133
294.838
295.939
297.63
300.173
303.914
309.277
316.748
326.832
339.992
356.578
376.77
400.562
427.775
458.117
491.238
526.789
564.454
603.972
645.137
687.791
731.816
777.115
823.605
871.205
919.822
969.347
1019.67
1070.82
1122.74
1175.34
1228.51
1282.13
1336.1
1390.28
1444.54
1498.74
1552.73
1606.35
1659.43
1711.77
1763.18
1813.43
1862.27
1909.42
1954.56
1997.28
2037.1
2073.29
2104.3
2131.19
2151.67
2164.03
2165.48
2046.44
1920.65
1790.36
1657.45
1523.56
1390.15
1258.6
1130.19
1006.25
888.002
776.463
673.307
580.726
500.787
435.123
384.485
348.269
324.412
309.909
301.695
297.304
295.073
293.977
293.452
293.206
293.092
293.041
293.018
293.008
293.003
293.001
293.001
293
293
293
293
293
293
293.004
293.017
293.04
293.077
293.14
293.244
293.415
293.692
294.138
294.846
295.953
297.65
300.205
303.963
309.349
316.851
326.976
340.185
356.827
377.084
400.943
428.228
458.643
491.837
527.462
565.202
604.798
646.044
688.782
732.895
778.287
824.875
872.577
921.3
970.933
1021.37
1072.64
1124.68
1177.41
1230.7
1284.45
1338.53
1392.82
1447.19
1501.49
1555.57
1609.26
1662.38
1714.75
1766.15
1816.37
1865.13
1912.16
1957.1
1999.56
2039.02
2074.55
2104.9
2130.89
2150.02
2160.38
2156.19
2035.69
1908.89
1777.94
1644.66
1510.64
1377.3
1245.97
1117.96
994.559
876.969
766.226
664.056
572.659
494.067
429.846
380.629
345.672
322.803
308.986
301.198
297.05
294.948
293.918
293.424
293.193
293.087
293.038
293.017
293.007
293.003
293.001
293.001
293
293
293
293
293
293
293.004
293.017
293.04
293.078
293.141
293.245
293.416
293.695
294.143
294.853
295.964
297.668
300.233
304.005
309.411
316.939
327.098
340.349
357.04
377.351
401.269
428.614
459.09
492.347
528.034
565.838
605.499
646.812
689.621
733.808
779.277
825.947
873.733
922.543
972.265
1022.79
1074.16
1126.31
1179.13
1232.52
1286.37
1340.55
1394.93
1449.38
1503.76
1557.9
1611.64
1664.79
1717.18
1768.58
1818.77
1867.47
1914.41
1959.24
2001.53
2040.81
2076.06
2106.2
2132
2151.01
2161.43
2147.22
2025.88
1898.52
1767.22
1633.78
1499.75
1366.53
1235.46
1107.82
984.904
867.884
757.809
656.472
566.07
488.603
425.575
377.524
343.593
321.522
308.254
300.805
296.849
294.85
293.871
293.403
293.183
293.082
293.036
293.016
293.007
293.003
293.001
293.001
293
293
293
293
293
293
293.004
293.017
293.04
293.078
293.141
293.246
293.417
293.697
294.146
294.859
295.973
297.683
300.255
304.038
309.461
317.011
327.197
340.482
357.213
377.568
401.533
428.928
459.454
492.761
528.499
566.354
606.068
647.435
690.301
734.546
780.077
826.81
874.664
923.542
973.334
1023.93
1075.38
1127.6
1180.5
1233.97
1287.89
1342.14
1396.59
1451.11
1505.54
1559.72
1613.5
1666.68
1719.07
1770.47
1820.64
1869.31
1916.2
1960.96
2003.19
2042.41
2077.69
2107.9
2133.94
2153.47
2164.87
2139.22
2017.42
1889.78
1758.34
1624.87
1490.91
1357.86
1227.04
1099.73
977.221
860.663
751.133
650.472
560.872
484.307
422.232
375.104
341.979
320.531
307.689
300.502
296.695
294.774
293.835
293.386
293.175
293.079
293.035
293.015
293.007
293.003
293.001
293
293
293
293
293
293
293
293.004
293.017
293.04
293.078
293.141
293.246
293.418
293.698
294.149
294.863
295.98
297.694
300.272
304.064
309.499
317.065
327.273
340.583
357.344
377.732
401.734
429.165
459.729
493.075
528.851
566.745
606.498
647.906
690.814
735.103
780.679
827.461
875.363
924.292
974.134
1024.79
1076.28
1128.56
1181.52
1235.04
1289.02
1343.32
1397.82
1452.38
1506.84
1561.06
1614.85
1668.05
1720.44
1771.83
1821.97
1870.6
1917.45
1962.17
2004.37
2043.58
2078.91
2109.2
2135.44
2155.33
2167.34
2132.82
2010.74
1882.95
1751.46
1618.03
1484.17
1351.28
1220.67
1093.63
971.447
855.249
746.14
645.995
557.003
481.118
419.758
373.32
340.793
319.804
307.275
300.281
296.582
294.719
293.809
293.374
293.17
293.076
293.034
293.015
293.006
293.003
293.001
293
293
293
293
293
293
293
293.004
293.017
293.04
293.078
293.141
293.246
293.419
293.699
294.151
294.866
295.984
297.701
300.284
304.081
309.524
317.102
327.323
340.651
357.432
377.843
401.868
429.325
459.914
493.285
529.087
567.007
606.786
648.222
691.157
735.475
781.082
827.895
875.829
924.79
974.664
1025.35
1076.88
1129.2
1182.19
1235.75
1289.75
1344.09
1398.61
1453.2
1507.68
1561.91
1615.71
1668.91
1721.3
1772.66
1822.78
1871.39
1918.21
1962.89
2005.05
2044.23
2079.58
2109.89
2136.22
2156.28
2168.59
2128.5
2006.15
1878.22
1746.71
1613.32
1479.55
1346.8
1216.36
1089.51
967.562
851.618
742.8
643.009
554.429
479.004
418.122
372.144
340.013
319.327
307.003
300.135
296.507
294.683
293.791
293.365
293.166
293.074
293.033
293.014
293.006
293.003
293.001
293
293
293
293
293
293
293
293.004
293.017
293.04
293.078
293.142
293.247
293.419
293.7
294.151
294.868
295.987
297.705
300.289
304.09
309.536
317.119
327.347
340.683
357.474
377.896
401.933
429.402
460.004
493.387
529.202
567.135
606.928
648.376
691.326
735.659
781.28
828.108
876.058
925.035
974.925
1025.62
1077.17
1129.51
1182.51
1236.09
1290.11
1344.46
1399
1453.59
1508.08
1562.31
1616.12
1669.31
1721.69
1773.04
1823.14
1871.73
1918.51
1963.16
2005.29
2044.43
2079.76
2110.07
2136.43
2156.6
2169.13
2126.36
2003.77
1875.74
1744.22
1610.86
1477.17
1344.5
1214.16
1087.43
965.616
849.811
741.151
641.544
553.174
477.979
417.335
371.581
339.642
319.1
306.874
300.066
296.472
294.665
293.783
293.362
293.164
293.074
293.033
293.014
293.006
293.003
293.001
293
293
293
293
293
293
293
293.004
293.017
293.04
293.078
293.142
293.247
293.419
293.7
294.151
294.868
295.987
297.705
300.289
304.09
309.536
317.119
327.348
340.684
357.475
377.897
401.934
429.403
460.005
493.389
529.203
567.137
606.93
648.378
691.328
735.661
781.283
828.111
876.061
925.037
974.927
1025.63
1077.18
1129.51
1182.52
1236.09
1290.11
1344.46
1399
1453.59
1508.08
1562.32
1616.12
1669.31
1721.69
1773.05
1823.14
1871.73
1918.51
1963.16
2005.29
2044.44
2079.76
2110.07
2136.43
2156.6
2169.13
2126.35
2003.75
1875.73
1744.21
1610.85
1477.16
1344.49
1214.15
1087.43
965.607
849.802
741.143
641.537
553.168
477.974
417.33
371.578
339.64
319.099
306.873
300.065
296.472
294.665
293.783
293.362
293.164
293.074
293.033
293.014
293.006
293.003
293.001
293
293
293
293
293
293
293
293.004
293.017
293.04
293.078
293.141
293.246
293.419
293.699
294.151
294.866
295.985
297.701
300.284
304.082
309.525
317.103
327.325
340.653
357.435
377.846
401.872
429.329
459.919
493.29
529.092
567.012
606.792
648.228
691.164
735.482
781.089
827.902
875.837
924.798
974.673
1025.36
1076.89
1129.21
1182.2
1235.76
1289.76
1344.1
1398.63
1453.21
1507.69
1561.92
1615.73
1668.92
1721.31
1772.68
1822.79
1871.41
1918.22
1962.9
2005.07
2044.24
2079.59
2109.9
2136.23
2156.29
2168.6
2128.47
2006.11
1878.19
1746.68
1613.28
1479.52
1346.77
1216.33
1089.48
967.534
851.592
742.776
642.987
554.41
478.987
418.109
372.135
340.007
319.323
307.001
300.134
296.507
294.682
293.791
293.365
293.166
293.074
293.033
293.014
293.006
293.003
293.001
293
293
293
293
293
293
293
293.004
293.017
293.04
293.078
293.141
293.246
293.418
293.698
294.149
294.864
295.98
297.694
300.273
304.065
309.5
317.067
327.275
340.587
357.349
377.738
401.74
429.172
459.737
493.083
528.86
566.755
606.508
647.917
690.825
735.114
780.692
827.473
875.376
924.306
974.148
1024.8
1076.3
1128.58
1181.54
1235.06
1289.03
1343.34
1397.84
1452.4
1506.86
1561.08
1614.87
1668.07
1720.46
1771.85
1821.99
1870.62
1917.47
1962.19
2004.39
2043.6
2078.93
2109.22
2135.46
2155.35
2167.36
2132.76
2010.69
1882.89
1751.4
1617.97
1484.11
1351.23
1220.62
1093.58
971.4
855.204
746.098
645.957
556.97
481.091
419.736
373.305
340.783
319.798
307.272
300.279
296.581
294.719
293.808
293.373
293.17
293.076
293.034
293.015
293.006
293.003
293.001
293
293
293
293
293
293
293
293.004
293.017
293.04
293.078
293.141
293.246
293.417
293.697
294.146
294.859
295.973
297.683
300.256
304.04
309.463
317.014
327.201
340.487
357.219
377.575
401.542
428.937
459.465
492.773
528.511
566.368
606.082
647.45
690.316
734.562
780.094
826.828
874.682
923.562
973.354
1023.95
1075.4
1127.62
1180.52
1233.99
1287.91
1342.17
1396.62
1451.13
1505.56
1559.75
1613.53
1666.71
1719.1
1770.5
1820.66
1869.33
1916.22
1960.98
2003.21
2042.44
2077.71
2107.93
2133.97
2153.5
2164.91
2139.13
2017.34
1889.7
1758.26
1624.79
1490.83
1357.79
1226.97
1099.66
977.154
860.6
751.075
650.42
560.826
484.269
422.202
375.083
341.965
320.523
307.685
300.5
296.693
294.774
293.835
293.386
293.175
293.079
293.035
293.015
293.007
293.003
293.001
293
293
293
293
293
293
293
293.004
293.017
293.04
293.078
293.141
293.245
293.416
293.695
294.143
294.854
295.964
297.669
300.234
304.006
309.413
316.943
327.103
340.355
357.048
377.36
401.28
428.627
459.104
492.362
528.051
565.856
605.518
646.832
689.642
733.829
779.299
825.97
873.758
922.569
972.292
1022.82
1074.19
1126.34
1179.16
1232.55
1286.4
1340.58
1394.96
1449.42
1503.79
1557.93
1611.67
1664.83
1717.21
1768.61
1818.8
1867.5
1914.44
1959.26
2001.56
2040.83
2076.09
2106.23
2132.03
2151.05
2161.46
2147.09
2025.77
1898.41
1767.12
1633.68
1499.65
1366.44
1235.37
1107.73
984.818
867.804
757.735
656.405
566.011
488.554
425.537
377.497
343.575
321.511
308.248
300.802
296.847
294.849
293.871
293.402
293.183
293.082
293.036
293.016
293.007
293.003
293.001
293.001
293
293
293
293
293
293
293.004
293.017
293.04
293.077
293.14
293.244
293.415
293.692
294.139
294.847
295.953
297.651
300.207
303.965
309.352
316.856
326.982
340.192
356.837
377.095
400.957
428.244
458.66
491.856
527.482
565.224
604.821
646.068
688.807
732.921
778.314
824.904
872.607
921.332
970.966
1021.4
1072.67
1124.72
1177.44
1230.74
1284.49
1338.57
1392.87
1447.24
1501.54
1555.61
1609.3
1662.42
1714.79
1766.19
1816.41
1865.17
1912.19
1957.14
1999.59
2039.05
2074.57
2104.92
2130.9
2150.02
2160.36
2156.06
2035.57
1908.78
1777.83
1644.55
1510.52
1377.18
1245.86
1117.85
994.457
876.873
766.136
663.974
572.588
494.007
429.799
380.595
345.65
322.79
308.979
301.194
297.048
294.947
293.917
293.424
293.193
293.087
293.038
293.017
293.007
293.003
293.001
293.001
293
293
293
293
293
293
293.004
293.017
293.04
293.077
293.139
293.243
293.413
293.689
294.134
294.839
295.94
297.631
300.175
303.916
309.281
316.753
326.839
340.001
356.589
376.784
400.578
427.794
458.138
491.261
526.813
564.479
603.999
645.165
687.821
731.847
777.148
823.64
871.241
919.86
969.386
1019.71
1070.86
1122.79
1175.39
1228.56
1282.18
1336.15
1390.33
1444.59
1498.8
1552.79
1606.41
1659.48
1711.82
1763.23
1813.47
1862.32
1909.47
1954.6
1997.32
2037.14
2073.32
2104.32
2131.2
2151.66
2163.98
2165.39
2046.33
1920.53
1790.23
1657.32
1523.43
1390.03
1258.47
1130.07
1006.13
887.891
776.359
673.212
580.643
500.717
435.069
384.445
348.243
324.396
309.901
301.691
297.302
295.072
293.977
293.452
293.206
293.092
293.041
293.018
293.008
293.003
293.001
293.001
293
293
293
293
293
293
293.004
293.017
293.039
293.077
293.139
293.242
293.411
293.686
294.128
294.829
295.925
297.607
300.138
303.861
309.2
316.637
326.678
339.785
356.308
376.431
400.148
427.283
457.545
490.584
526.052
563.632
603.063
644.137
686.696
730.62
775.813
822.191
869.673
918.168
967.566
1017.75
1068.76
1120.54
1173
1226.02
1279.5
1333.32
1387.36
1441.49
1495.57
1549.46
1602.98
1655.99
1708.28
1759.68
1809.96
1858.88
1906.17
1951.52
1994.57
2034.9
2071.96
2104.01
2131.44
2153.91
2169
2174.33
2057.64
1933.47
1804.26
1671.99
1538.41
1405.04
1273.28
1144.47
1019.94
900.956
788.533
684.249
590.299
508.791
441.443
389.135
351.423
326.379
311.045
302.309
297.619
295.227
294.051
293.487
293.222
293.099
293.044
293.019
293.008
293.004
293.002
293.001
293
293
293
293
293
293
293.004
293.017
293.039
293.076
293.138
293.24
293.408
293.682
294.122
294.819
295.908
297.581
300.098
303.8
309.11
316.509
326.5
339.547
355.999
376.042
399.674
426.72
456.891
489.838
525.211
562.696
602.027
642.998
685.448
729.256
774.327
820.576
867.923
916.275
965.526
1015.56
1066.4
1118.02
1170.3
1223.14
1276.45
1330.1
1383.97
1437.94
1491.88
1545.62
1599.03
1651.94
1704.17
1755.53
1805.81
1854.78
1902.19
1947.73
1991.05
2031.71
2069.25
2102.39
2130.73
2154.6
2171.75
2180.21
2069.45
1947.75
1820.09
1688.74
1555.62
1422.36
1290.43
1161.2
1036.01
916.189
802.75
697.189
601.672
518.356
449.047
394.773
355.28
328.803
312.453
303.074
298.012
295.421
294.143
293.53
293.241
293.108
293.048
293.021
293.009
293.004
293.002
293.001
293
293
293
293
293
293
293.004
293.017
293.039
293.076
293.137
293.239
293.406
293.678
294.115
294.808
295.89
297.553
300.054
303.735
309.013
316.371
326.309
339.29
355.666
375.624
399.164
426.115
456.187
489.035
524.306
561.686
600.91
641.767
684.098
727.779
772.714
818.82
866.014
914.207
963.292
1013.15
1063.81
1115.23
1167.31
1219.96
1273.06
1326.51
1380.19
1433.97
1487.72
1541.3
1594.56
1647.33
1699.46
1750.74
1800.99
1849.97
1897.43
1943.08
1986.58
2027.5
2065.3
2098.79
2127.42
2151.49
2168.58
2176.47
2085.32
1965.38
1838.9
1708.29
1575.53
1442.33
1310.17
1180.46
1054.54
933.77
819.197
712.212
614.941
529.584
458.04
401.499
359.923
331.747
314.174
304.013
298.497
295.659
294.258
293.583
293.266
293.119
293.053
293.023
293.01
293.004
293.002
293.001
293
293
293
293
293
293
293.004
293.017
293.039
293.075
293.136
293.237
293.403
293.673
294.107
294.796
295.871
297.522
300.008
303.664
308.91
316.224
326.106
339.019
355.315
375.185
398.628
425.479
455.448
488.191
523.355
560.625
599.733
640.469
682.671
726.215
771.004
816.953
863.982
911.999
960.901
1010.57
1061.02
1112.22
1164.08
1216.51
1269.38
1322.6
1376.05
1429.61
1483.14
1536.52
1589.59
1642.2
1694.18
1745.35
1795.52
1844.45
1891.91
1937.6
1981.17
2022.23
2060.25
2094.06
2122.91
2147.18
2164.5
2173.05
2106.24
1987.13
1861.27
1731.07
1598.49
1465.21
1332.75
1202.48
1075.74
953.907
838.078
729.527
630.31
542.669
468.603
409.474
365.485
335.308
316.274
305.166
299.095
295.954
294.398
293.649
293.296
293.133
293.059
293.026
293.011
293.005
293.002
293.001
293
293
293
293
293
293
293.004
293.017
293.038
293.075
293.135
293.236
293.4
293.668
294.099
294.783
295.851
297.49
299.958
303.591
308.803
316.071
325.896
338.738
354.953
374.731
398.077
424.825
454.69
487.325
522.379
559.535
598.524
639.134
681.201
724.6
769.234
815.016
861.866
909.694
958.397
1007.86
1058.08
1109.05
1160.66
1212.83
1265.45
1318.41
1371.61
1424.91
1478.2
1531.34
1584.19
1636.6
1688.4
1739.42
1789.46
1838.31
1885.73
1931.41
1975.03
2016.16
2054.28
2088.2
2117.13
2141.31
2158.2
2165.52
2131.14
2012.27
1886.75
1756.82
1624.36
1491.01
1358.22
1227.36
1099.75
976.757
859.559
749.311
647.97
557.81
480.929
418.876
372.117
339.602
318.83
306.579
299.83
296.316
294.572
293.73
293.333
293.149
293.066
293.029
293.012
293.005
293.002
293.001
293
293
293
293
293
293
293.004
293.017
293.038
293.074
293.134
293.234
293.397
293.663
294.091
294.769
295.829
297.456
299.906
303.514
308.691
315.913
325.68
338.452
354.585
374.272
397.522
424.169
453.93
486.459
521.404
558.446
597.315
637.797
679.727
722.978
767.45
813.058
859.72
907.348
955.84
1005.08
1055.06
1105.77
1157.12
1209.01
1261.35
1314.03
1366.94
1419.96
1472.97
1525.84
1578.44
1630.61
1682.2
1733.04
1782.94
1831.69
1879.05
1924.74
1968.43
2009.72
2048.09
2082.53
2112.02
2136.89
2154.48
2162.4
2155.99
2038.2
1913.69
1784.54
1652.56
1519.36
1386.4
1255.04
1126.59
1002.4
883.748
771.71
668.087
575.187
495.209
429.89
379.984
344.757
321.929
308.304
300.731
296.762
294.785
293.829
293.378
293.17
293.075
293.033
293.014
293.006
293.003
293.001
293
293
293
293
293
293
293.004
293.016
293.038
293.073
293.133
293.232
293.394
293.657
294.081
294.754
295.805
297.42
299.852
303.433
308.575
315.752
325.461
338.163
354.217
373.818
396.975
423.527
453.19
485.619
520.46
557.393
596.146
636.503
678.297
721.399
765.708
811.139
857.609
905.03
953.3
1002.31
1052.03
1102.46
1153.53
1205.13
1257.17
1309.54
1362.14
1414.85
1467.56
1520.14
1572.45
1624.36
1675.71
1726.35
1776.08
1824.71
1872.02
1917.74
1961.57
2003.14
2042
2077.55
2108.29
2135.13
2156.12
2169.95
2174.78
2061.58
1940.15
1813.05
1682.35
1549.82
1417.01
1285.34
1156.15
1030.81
910.656
796.754
690.746
594.928
511.598
442.686
389.248
350.912
325.674
310.406
301.835
297.309
295.047
293.951
293.434
293.194
293.086
293.037
293.016
293.007
293.003
293.001
293.001
293
293
293
293
293
293.004
293.016
293.037
293.073
293.132
293.229
293.39
293.651
294.071
294.737
295.779
297.381
299.793
303.347
308.454
315.584
325.236
337.873
353.854
373.375
396.45
422.917
452.494
484.834
519.583
556.418
595.065
635.305
676.969
719.928
764.078
809.333
855.611
902.822
950.867
999.629
1049.09
1099.25
1150.02
1201.31
1253.03
1305.08
1357.35
1409.73
1462.11
1514.37
1566.38
1618
1669.09
1719.49
1769.03
1817.52
1864.74
1910.46
1954.39
1996.19
2035.45
2071.66
2103.39
2130.68
2153.31
2169.1
2176.12
2084.72
1967.37
1842.91
1713.88
1582.3
1449.87
1318.06
1188.27
1061.84
940.174
824.393
715.952
617.092
530.201
457.396
400.051
358.19
330.153
312.94
303.169
297.971
295.363
294.098
293.5
293.224
293.099
293.043
293.018
293.008
293.003
293.001
293.001
293
293
293
293
293
293.004
293.016
293.037
293.072
293.13
293.227
293.385
293.644
294.059
294.719
295.751
297.338
299.73
303.258
308.328
315.414
325.014
337.59
353.504
372.957
395.963
422.361
451.869
484.138
518.813
555.567
594.123
634.262
675.81
718.637
762.638
807.726
853.817
900.823
948.645
997.167
1046.36
1096.23
1146.71
1197.69
1249.08
1300.8
1352.73
1404.77
1456.81
1508.74
1560.42
1611.74
1662.54
1712.68
1762
1810.31
1857.41
1903.06
1947
1988.9
2028.34
2064.85
2097.15
2124.79
2147.68
2163.59
2170.59
2115.08
1998.81
1875.54
1747.55
1616.71
1484.63
1352.77
1222.47
1095.07
971.955
854.341
743.505
641.569
550.991
474.071
412.496
366.72
335.487
315.994
304.791
298.78
295.749
294.277
293.581
293.26
293.114
293.05
293.021
293.009
293.004
293.002
293.001
293
293
293
293
293
293.004
293.016
293.036
293.071
293.128
293.223
293.38
293.635
294.045
294.696
295.716
297.286
299.654
303.15
308.181
315.221
324.768
337.29
353.151
372.553
395.513
421.87
451.339
483.569
518.199
554.899
593.392
633.451
674.905
717.618
761.486
806.419
852.335
899.146
946.752
995.041
1043.97
1093.57
1143.75
1194.42
1245.5
1296.88
1348.48
1400.18
1451.89
1503.48
1554.84
1605.85
1656.36
1706.24
1755.32
1803.42
1850.36
1895.9
1939.78
1981.67
2021.16
2057.74
2090.21
2118.01
2140.9
2156.25
2161.37
2145.85
2030.42
1908.27
1781.36
1651.4
1519.89
1388.22
1257.68
1129.57
1005.23
885.958
772.911
668.003
573.738
492.571
426.503
376.446
341.625
319.521
306.657
299.704
296.186
294.477
293.671
293.299
293.131
293.057
293.024
293.01
293.004
293.002
293.001
293
293
293
293
293
293.004
293.016
293.036
293.07
293.126
293.219
293.373
293.624
294.028
294.671
295.678
297.229
299.574
303.04
308.036
315.035
324.54
337.022
352.847
372.223
395.164
421.51
450.972
483.193
517.81
554.489
592.945
632.953
674.335
716.957
760.711
805.509
851.266
897.897
945.304
993.374
1042.07
1091.4
1141.31
1191.69
1242.47
1293.54
1344.83
1396.22
1447.61
1498.9
1549.96
1600.68
1650.92
1700.54
1749.4
1797.32
1844.11
1889.55
1933.4
1975.34
2015.02
2051.97
2085.41
2114.27
2138.86
2157.2
2167.74
2168.31
2056.22
1936.7
1811.88
1683.51
1553.14
1422.17
1291.87
1163.52
1038.41
917.874
803.02
695.532
597.87
512.612
442.038
387.511
348.782
323.719
308.91
300.827
296.717
294.719
293.778
293.346
293.151
293.065
293.028
293.012
293.005
293.002
293.001
293
293
293
293
293
293.003
293.015
293.035
293.068
293.123
293.214
293.365
293.609
294.004
294.632
295.619
297.143
299.451
302.871
307.814
314.757
324.209
336.649
352.452
371.83
394.799
421.194
450.722
483.012
517.687