/*--------------------------------*- C++ -*----------------------------------*\
  =========                 |
  \\      /  F ield         | OpenFOAM: The Open Source CFD Toolbox
   \\    /   O peration     | Website:  https://openfoam.org
    \\  /    A nd           | Version:  8
     \\/     M anipulation  |
\*---------------------------------------------------------------------------*/
FoamFile
{
    version     2.0;
    format      ascii;
    class       volVectorField;
    location    "300/fluid";
    object      U;
}
// * * * * * * * * * * * * * * * * * * * * * * * * * * * * * * * * * * * * * //

dimensions      [0 1 -1 0 0 0 0];

internalField   nonuniform List<vector> 
4000
(
(0.0999523 -0.00677456 0)
(0.0996923 -0.0202298 0)
(0.0992725 -0.0335891 0)
(0.0986926 -0.0468614 0)
(0.097946 -0.0600742 0)
(0.0970176 -0.0732385 0)
(0.0958896 -0.0863479 0)
(0.0945451 -0.099386 0)
(0.0929703 -0.112331 0)
(0.0911572 -0.125157 0)
(0.0891065 -0.137841 0)
(0.0868307 -0.150364 0)
(0.0843566 -0.162717 0)
(0.0817292 -0.174895 0)
(0.0790163 -0.186888 0)
(0.0762961 -0.198758 0)
(0.0736279 -0.21055 0)
(0.0710446 -0.22229 0)
(0.068544 -0.233975 0)
(0.0660857 -0.245565 0)
(0.0635979 -0.256986 0)
(0.0609913 -0.268136 0)
(0.0581774 -0.278901 0)
(0.0550842 -0.289165 0)
(0.0516734 -0.2988 0)
(0.0479305 -0.307744 0)
(0.0438543 -0.31595 0)
(0.0394539 -0.323382 0)
(0.034747 -0.33002 0)
(0.0297568 -0.335862 0)
(0.0245095 -0.340918 0)
(0.0190323 -0.345215 0)
(0.0133513 -0.348789 0)
(0.00749149 -0.351687 0)
(0.00147705 -0.353962 0)
(-0.00466778 -0.355674 0)
(-0.0109209 -0.356885 0)
(-0.0172645 -0.357658 0)
(-0.023684 -0.358057 0)
(-0.0301662 -0.358146 0)
(-0.036699 -0.357983 0)
(-0.0432716 -0.357625 0)
(-0.0498738 -0.357124 0)
(-0.0564961 -0.356525 0)
(-0.0631293 -0.355869 0)
(-0.0697641 -0.355192 0)
(-0.0763909 -0.354522 0)
(-0.0829998 -0.353885 0)
(-0.0895798 -0.353297 0)
(-0.0961189 -0.352773 0)
(-0.102604 -0.352322 0)
(-0.10902 -0.351949 0)
(-0.115349 -0.351655 0)
(-0.121573 -0.351441 0)
(-0.127669 -0.351306 0)
(-0.133611 -0.351253 0)
(-0.139371 -0.351285 0)
(-0.144911 -0.351416 0)
(-0.15018 -0.351665 0)
(-0.155137 -0.352049 0)
(-0.159785 -0.352642 0)
(-0.164194 -0.353625 0)
(-0.168212 -0.355365 0)
(-0.170204 -0.357958 0)
(-0.16859 -0.360064 0)
(-0.16402 -0.360339 0)
(-0.158458 -0.358613 0)
(-0.152504 -0.355063 0)
(-0.146156 -0.349807 0)
(-0.139401 -0.342911 0)
(-0.132293 -0.334433 0)
(-0.124903 -0.324446 0)
(-0.117308 -0.313043 0)
(-0.109592 -0.300344 0)
(-0.101847 -0.286498 0)
(-0.094209 -0.271681 0)
(-0.0869152 -0.256126 0)
(-0.0803094 -0.240163 0)
(-0.0747989 -0.224202 0)
(-0.0708087 -0.208862 0)
(-0.0686989 -0.194777 0)
(-0.0685749 -0.182213 0)
(-0.0701714 -0.171007 0)
(-0.0729605 -0.160727 0)
(-0.0763669 -0.15092 0)
(-0.0799255 -0.141268 0)
(-0.0833324 -0.131582 0)
(-0.0864057 -0.121748 0)
(-0.0890791 -0.111822 0)
(-0.0913558 -0.101852 0)
(-0.0932669 -0.0918719 0)
(-0.0948518 -0.0819158 0)
(-0.0961511 -0.0720115 0)
(-0.0972033 -0.0621807 0)
(-0.0980434 -0.0524374 0)
(-0.0987027 -0.0427871 0)
(-0.099208 -0.0332213 0)
(-0.0995802 -0.0236986 0)
(-0.0998332 -0.0141626 0)
(-0.0999793 -0.00466719 0)
(0.0999997 -0.00639017 0)
(0.099817 -0.019176 0)
(0.0994394 -0.0318904 0)
(0.0988459 -0.0444957 0)
(0.0980382 -0.0569876 0)
(0.0970127 -0.0693546 0)
(0.0957609 -0.0815747 0)
(0.0942755 -0.0936208 0)
(0.0925539 -0.105465 0)
(0.0906013 -0.117082 0)
(0.0884339 -0.128451 0)
(0.0860808 -0.139565 0)
(0.0835855 -0.150436 0)
(0.0810055 -0.16111 0)
(0.0784103 -0.171682 0)
(0.0758657 -0.182181 0)
(0.0734235 -0.192657 0)
(0.0711076 -0.203155 0)
(0.0689054 -0.213697 0)
(0.0667654 -0.224267 0)
(0.0646041 -0.234809 0)
(0.0623211 -0.24523 0)
(0.0598168 -0.255422 0)
(0.0570084 -0.265275 0)
(0.0538389 -0.27471 0)
(0.0502825 -0.283606 0)
(0.0463345 -0.291865 0)
(0.0420063 -0.29942 0)
(0.0373212 -0.306234 0)
(0.0323094 -0.312293 0)
(0.0270041 -0.317601 0)
(0.0214392 -0.32218 0)
(0.0156471 -0.326061 0)
(0.00965789 -0.329288 0)
(0.00349951 -0.331911 0)
(-0.0028014 -0.333984 0)
(-0.00922112 -0.335567 0)
(-0.0157403 -0.336723 0)
(-0.0223424 -0.337513 0)
(-0.0290132 -0.337998 0)
(-0.0357402 -0.338236 0)
(-0.0425125 -0.338281 0)
(-0.0493202 -0.338182 0)
(-0.0561543 -0.337986 0)
(-0.0630064 -0.337732 0)
(-0.0698685 -0.337455 0)
(-0.0767323 -0.337184 0)
(-0.0835893 -0.336944 0)
(-0.0904306 -0.336754 0)
(-0.0972462 -0.336628 0)
(-0.104025 -0.336575 0)
(-0.110755 -0.336601 0)
(-0.117423 -0.336709 0)
(-0.124011 -0.336899 0)
(-0.130503 -0.337169 0)
(-0.136877 -0.337516 0)
(-0.143111 -0.33794 0)
(-0.149171 -0.338436 0)
(-0.155012 -0.339003 0)
(-0.160591 -0.339629 0)
(-0.165964 -0.340305 0)
(-0.17121 -0.341013 0)
(-0.17621 -0.341721 0)
(-0.178953 -0.342235 0)
(-0.177196 -0.341837 0)
(-0.171799 -0.34016 0)
(-0.165668 -0.337035 0)
(-0.159318 -0.332391 0)
(-0.152601 -0.326189 0)
(-0.145473 -0.318408 0)
(-0.137964 -0.309062 0)
(-0.130128 -0.298186 0)
(-0.122019 -0.285855 0)
(-0.113694 -0.272187 0)
(-0.10522 -0.257358 0)
(-0.096734 -0.241632 0)
(-0.0885157 -0.225417 0)
(-0.0809883 -0.209308 0)
(-0.0746697 -0.194088 0)
(-0.0700873 -0.180384 0)
(-0.0676037 -0.168465 0)
(-0.0672342 -0.15828 0)
(-0.0686171 -0.149429 0)
(-0.0711862 -0.141367 0)
(-0.0743853 -0.133628 0)
(-0.0777889 -0.12592 0)
(-0.0811262 -0.118111 0)
(-0.0842531 -0.110188 0)
(-0.0870855 -0.102047 0)
(-0.0895933 -0.093669 0)
(-0.0917751 -0.0850893 0)
(-0.0936439 -0.0763526 0)
(-0.0952202 -0.0675022 0)
(-0.0965283 -0.0585765 0)
(-0.0975936 -0.0496068 0)
(-0.0984407 -0.0406174 0)
(-0.0990906 -0.0316198 0)
(-0.0995576 -0.0225965 0)
(-0.0998508 -0.0135144 0)
(-0.0999951 -0.00444749 0)
(0.0999813 -0.00614154 0)
(0.0997459 -0.0184208 0)
(0.099284 -0.0306263 0)
(0.0985788 -0.0427182 0)
(0.0976339 -0.0546881 0)
(0.09645 -0.0665231 0)
(0.095026 -0.0782031 0)
(0.0933638 -0.0897061 0)
(0.0914714 -0.101012 0)
(0.0893653 -0.112104 0)
(0.0870729 -0.122973 0)
(0.084634 -0.133616 0)
(0.0821014 -0.144046 0)
(0.0795375 -0.154285 0)
(0.0770055 -0.164374 0)
(0.0745638 -0.174365 0)
(0.0722602 -0.184319 0)
(0.0701171 -0.194285 0)
(0.0681195 -0.20429 0)
(0.0662122 -0.214324 0)
(0.0643075 -0.224338 0)
(0.0623 -0.23425 0)
(0.0600852 -0.243957 0)
(0.0575727 -0.253349 0)
(0.0546926 -0.262321 0)
(0.0514005 -0.270785 0)
(0.0476805 -0.278667 0)
(0.0435389 -0.285913 0)
(0.0389971 -0.29249 0)
(0.0340855 -0.298379 0)
(0.028839 -0.303582 0)
(0.0232934 -0.308113 0)
(0.0174841 -0.311997 0)
(0.0114439 -0.315271 0)
(0.00520371 -0.317979 0)
(-0.00120772 -0.320171 0)
(-0.00776452 -0.321899 0)
(-0.014445 -0.323221 0)
(-0.0212309 -0.324194 0)
(-0.0281068 -0.324875 0)
(-0.0350593 -0.325318 0)
(-0.0420767 -0.325575 0)
(-0.049149 -0.325692 0)
(-0.0562674 -0.325712 0)
(-0.0634239 -0.325674 0)
(-0.0706112 -0.32561 0)
(-0.0778225 -0.325549 0)
(-0.0850509 -0.325513 0)
(-0.0922895 -0.32552 0)
(-0.0995312 -0.325582 0)
(-0.106768 -0.325709 0)
(-0.113992 -0.325902 0)
(-0.121194 -0.326162 0)
(-0.128362 -0.326485 0)
(-0.135485 -0.326863 0)
(-0.142549 -0.327287 0)
(-0.149537 -0.327743 0)
(-0.156419 -0.328213 0)
(-0.163144 -0.328672 0)
(-0.169677 -0.329093 0)
(-0.176029 -0.32943 0)
(-0.182249 -0.329614 0)
(-0.187987 -0.329514 0)
(-0.190999 -0.328875 0)
(-0.188797 -0.327056 0)
(-0.182499 -0.324092 0)
(-0.175451 -0.319839 0)
(-0.168203 -0.314223 0)
(-0.160595 -0.307197 0)
(-0.152561 -0.298743 0)
(-0.144125 -0.288879 0)
(-0.135331 -0.277667 0)
(-0.126228 -0.265221 0)
(-0.116867 -0.251712 0)
(-0.10733 -0.237375 0)
(-0.0978052 -0.222534 0)
(-0.088655 -0.207615 0)
(-0.080387 -0.193132 0)
(-0.073593 -0.179624 0)
(-0.0688112 -0.167542 0)
(-0.0663143 -0.1571 0)
(-0.0659781 -0.148162 0)
(-0.0673466 -0.140312 0)
(-0.0698366 -0.133052 0)
(-0.0729203 -0.125985 0)
(-0.0762089 -0.118862 0)
(-0.0794615 -0.111564 0)
(-0.0825527 -0.104055 0)
(-0.0854202 -0.096346 0)
(-0.088028 -0.088458 0)
(-0.0903596 -0.0804119 0)
(-0.0924122 -0.0722305 0)
(-0.0941914 -0.0639375 0)
(-0.0957076 -0.0555568 0)
(-0.0969739 -0.0471107 0)
(-0.0980048 -0.038619 0)
(-0.0988129 -0.0300934 0)
(-0.0994065 -0.0215203 0)
(-0.0997901 -0.0128748 0)
(-0.0999861 -0.00423668 0)
(0.0999852 -0.00582463 0)
(0.0997427 -0.0174719 0)
(0.0992591 -0.0290413 0)
(0.0985171 -0.0404876 0)
(0.0975244 -0.0517975 0)
(0.0962869 -0.0629549 0)
(0.094809 -0.0739373 0)
(0.0930976 -0.0847222 0)
(0.0911655 -0.0952899 0)
(0.0890325 -0.105625 0)
(0.0867277 -0.115721 0)
(0.0842909 -0.125579 0)
(0.081773 -0.135217 0)
(0.079235 -0.144668 0)
(0.076743 -0.153981 0)
(0.0743606 -0.163219 0)
(0.072136 -0.172444 0)
(0.070089 -0.181711 0)
(0.0682009 -0.19105 0)
(0.0664124 -0.200457 0)
(0.0646309 -0.209886 0)
(0.0627463 -0.219262 0)
(0.0606493 -0.228487 0)
(0.0582459 -0.237457 0)
(0.0554667 -0.24607 0)
(0.0522696 -0.254236 0)
(0.0486371 -0.26188 0)
(0.0445719 -0.268946 0)
(0.0400914 -0.275398 0)
(0.0352221 -0.281216 0)
(0.0299957 -0.286397 0)
(0.024446 -0.290951 0)
(0.0186064 -0.294902 0)
(0.0125091 -0.298281 0)
(0.00618457 -0.301128 0)
(-0.000338672 -0.303486 0)
(-0.00703463 -0.305407 0)
(-0.0138811 -0.30694 0)
(-0.0208594 -0.30814 0)
(-0.0279537 -0.30906 0)
(-0.0351502 -0.309748 0)
(-0.0424373 -0.310254 0)
(-0.0498048 -0.310621 0)
(-0.0572443 -0.310888 0)
(-0.0647483 -0.311092 0)
(-0.0723103 -0.311262 0)
(-0.0799243 -0.311425 0)
(-0.0875848 -0.3116 0)
(-0.0952863 -0.311803 0)
(-0.103023 -0.312044 0)
(-0.11079 -0.312327 0)
(-0.118581 -0.312653 0)
(-0.126387 -0.313016 0)
(-0.134201 -0.313407 0)
(-0.142011 -0.31381 0)
(-0.149806 -0.314208 0)
(-0.157564 -0.314574 0)
(-0.165248 -0.314877 0)
(-0.172799 -0.315077 0)
(-0.18018 -0.315133 0)
(-0.187392 -0.315005 0)
(-0.194389 -0.314668 0)
(-0.200425 -0.31401 0)
(-0.202892 -0.312496 0)
(-0.199643 -0.309261 0)
(-0.192417 -0.304979 0)
(-0.184455 -0.2996 0)
(-0.176256 -0.293034 0)
(-0.167659 -0.285223 0)
(-0.158608 -0.276157 0)
(-0.14914 -0.265868 0)
(-0.139313 -0.254434 0)
(-0.129193 -0.241986 0)
(-0.118859 -0.228708 0)
(-0.108438 -0.214849 0)
(-0.0981985 -0.200739 0)
(-0.0885724 -0.186798 0)
(-0.0801048 -0.173513 0)
(-0.0733604 -0.161372 0)
(-0.0687782 -0.150737 0)
(-0.0665027 -0.141702 0)
(-0.0663103 -0.134044 0)
(-0.0677091 -0.127324 0)
(-0.0701357 -0.121082 0)
(-0.0731052 -0.114969 0)
(-0.0762684 -0.108773 0)
(-0.0794068 -0.102389 0)
(-0.0823991 -0.0957798 0)
(-0.0851841 -0.0889378 0)
(-0.0877334 -0.0818759 0)
(-0.0900355 -0.0746145 0)
(-0.0920876 -0.0671777 0)
(-0.0938912 -0.059591 0)
(-0.0954505 -0.0518797 0)
(-0.0967714 -0.0440679 0)
(-0.0978607 -0.036178 0)
(-0.0987241 -0.0282257 0)
(-0.0993629 -0.0202035 0)
(-0.0997766 -0.0120935 0)
(-0.0999869 -0.00397953 0)
(0.0999825 -0.00550276 0)
(0.0997239 -0.0165066 0)
(0.0992123 -0.0274347 0)
(0.0984313 -0.0382421 0)
(0.0973908 -0.0489146 0)
(0.0960992 -0.0594362 0)
(0.0945636 -0.0697856 0)
(0.0927942 -0.0799423 0)
(0.090807 -0.0898887 0)
(0.0886251 -0.0996124 0)
(0.086281 -0.109108 0)
(0.0838176 -0.11838 0)
(0.0812889 -0.127445 0)
(0.0787581 -0.136334 0)
(0.0762929 -0.145093 0)
(0.0739566 -0.153777 0)
(0.0717959 -0.162448 0)
(0.0698283 -0.171157 0)
(0.0680323 -0.179932 0)
(0.0663454 -0.18877 0)
(0.0646718 -0.197635 0)
(0.0628982 -0.206458 0)
(0.0609112 -0.215151 0)
(0.0586133 -0.223619 0)
(0.0559317 -0.231767 0)
(0.052821 -0.239513 0)
(0.0492611 -0.246788 0)
(0.0452523 -0.253538 0)
(0.0408099 -0.259729 0)
(0.0359587 -0.26534 0)
(0.0307288 -0.270368 0)
(0.0251527 -0.27482 0)
(0.0192629 -0.278716 0)
(0.0130907 -0.282083 0)
(0.00666599 -0.284957 0)
(1.68792e-05 -0.287378 0)
(-0.0068311 -0.289389 0)
(-0.0138559 -0.291038 0)
(-0.0210391 -0.292374 0)
(-0.0283647 -0.293444 0)
(-0.0358192 -0.294294 0)
(-0.043391 -0.294968 0)
(-0.0510702 -0.295505 0)
(-0.0588486 -0.295942 0)
(-0.0667191 -0.296311 0)
(-0.0746755 -0.296638 0)
(-0.0827123 -0.296947 0)
(-0.0908246 -0.297253 0)
(-0.0990074 -0.29757 0)
(-0.107256 -0.297904 0)
(-0.115564 -0.298256 0)
(-0.123925 -0.298622 0)
(-0.132332 -0.298994 0)
(-0.140773 -0.299357 0)
(-0.149238 -0.29969 0)
(-0.157708 -0.299969 0)
(-0.166159 -0.300162 0)
(-0.17454 -0.300231 0)
(-0.182786 -0.300128 0)
(-0.190891 -0.299806 0)
(-0.198935 -0.299239 0)
(-0.206764 -0.298425 0)
(-0.21245 -0.29729 0)
(-0.213251 -0.29485 0)
(-0.208358 -0.290599 0)
(-0.200479 -0.285391 0)
(-0.191896 -0.279259 0)
(-0.182899 -0.272098 0)
(-0.173403 -0.263857 0)
(-0.163413 -0.254543 0)
(-0.152995 -0.244208 0)
(-0.142234 -0.232946 0)
(-0.13122 -0.220904 0)
(-0.120059 -0.208273 0)
(-0.108926 -0.195307 0)
(-0.098152 -0.182328 0)
(-0.0882119 -0.169727 0)
(-0.0796589 -0.157927 0)
(-0.0730214 -0.14731 0)
(-0.0686552 -0.138109 0)
(-0.0665982 -0.130303 0)
(-0.0665435 -0.123616 0)
(-0.0679721 -0.117641 0)
(-0.0703407 -0.111996 0)
(-0.0732047 -0.106406 0)
(-0.0762521 -0.100709 0)
(-0.0792896 -0.0948294 0)
(-0.0822075 -0.088739 0)
(-0.0849463 -0.0824365 0)
(-0.0874746 -0.0759322 0)
(-0.0897764 -0.069242 0)
(-0.0918443 -0.0623842 0)
(-0.0936756 -0.055379 0)
(-0.0952705 -0.0482475 0)
(-0.0966309 -0.0410106 0)
(-0.09776 -0.0336889 0)
(-0.0986598 -0.0262974 0)
(-0.0993288 -0.0188307 0)
(-0.0997638 -0.0112738 0)
(-0.0999857 -0.00370914 0)
(0.0999829 -0.00516416 0)
(0.0997189 -0.0154926 0)
(0.0991957 -0.0257485 0)
(0.098397 -0.0358866 0)
(0.0973342 -0.0458923 0)
(0.0960178 -0.0557491 0)
(0.0944566 -0.0654361 0)
(0.0926629 -0.0749334 0)
(0.0906544 -0.0842245 0)
(0.0884559 -0.0932983 0)
(0.0861012 -0.102151 0)
(0.0836341 -0.110787 0)
(0.0811091 -0.119225 0)
(0.0785896 -0.127497 0)
(0.0761431 -0.135648 0)
(0.0738326 -0.143736 0)
(0.0717042 -0.151819 0)
(0.0697746 -0.159948 0)
(0.0680212 -0.168154 0)
(0.0663803 -0.176434 0)
(0.0647551 -0.184755 0)
(0.0630307 -0.193051 0)
(0.0610924 -0.201242 0)
(0.058841 -0.209236 0)
(0.0562016 -0.216947 0)
(0.053127 -0.224295 0)
(0.0495948 -0.231215 0)
(0.045603 -0.237657 0)
(0.0411646 -0.243588 0)
(0.0363023 -0.248987 0)
(0.0310443 -0.253849 0)
(0.0254215 -0.258181 0)
(0.0194648 -0.261999 0)
(0.0132045 -0.265328 0)
(0.0066693 -0.268199 0)
(-0.00011344 -0.270649 0)
(-0.0071189 -0.272717 0)
(-0.0143256 -0.274446 0)
(-0.0217155 -0.275881 0)
(-0.029273 -0.277064 0)
(-0.0369849 -0.278037 0)
(-0.0448396 -0.278839 0)
(-0.0528275 -0.279506 0)
(-0.0609404 -0.280072 0)
(-0.0691713 -0.280563 0)
(-0.077514 -0.281003 0)
(-0.0859631 -0.281412 0)
(-0.0945131 -0.281803 0)
(-0.103159 -0.282185 0)
(-0.111894 -0.282562 0)
(-0.120713 -0.282933 0)
(-0.129607 -0.283289 0)
(-0.138566 -0.28362 0)
(-0.147576 -0.283907 0)
(-0.15662 -0.284127 0)
(-0.165675 -0.284252 0)
(-0.174706 -0.284247 0)
(-0.183644 -0.284069 0)
(-0.192418 -0.283667 0)
(-0.201049 -0.282987 0)
(-0.209652 -0.281976 0)
(-0.217908 -0.280583 0)
(-0.222852 -0.278747 0)
(-0.221699 -0.275528 0)
(-0.215214 -0.270818 0)
(-0.2068 -0.265162 0)
(-0.197694 -0.258626 0)
(-0.187992 -0.251162 0)
(-0.177693 -0.242753 0)
(-0.166872 -0.233427 0)
(-0.155631 -0.223253 0)
(-0.144079 -0.212339 0)
(-0.13233 -0.200833 0)
(-0.120519 -0.188925 0)
(-0.108873 -0.176856 0)
(-0.0977738 -0.164928 0)
(-0.0877264 -0.153496 0)
(-0.0792778 -0.142923 0)
(-0.0729082 -0.133522 0)
(-0.0688825 -0.125446 0)
(-0.0671341 -0.118621 0)
(-0.0672834 -0.112758 0)
(-0.0687922 -0.107481 0)
(-0.0711394 -0.102455 0)
(-0.0739168 -0.0974472 0)
(-0.0768463 -0.0923225 0)
(-0.0797586 -0.0870161 0)
(-0.0825587 -0.0815047 0)
(-0.0851948 -0.0757865 0)
(-0.087639 -0.0698705 0)
(-0.0898759 -0.0637702 0)
(-0.0918967 -0.0575022 0)
(-0.0936965 -0.051085 0)
(-0.0952728 -0.0445383 0)
(-0.0966244 -0.037882 0)
(-0.0977513 -0.0311361 0)
(-0.098653 -0.0243158 0)
(-0.0993252 -0.0174177 0)
(-0.0997629 -0.0104294 0)
(-0.099986 -0.00343075 0)
(0.0999823 -0.00482077 0)
(0.0997133 -0.0144636 0)
(0.0991805 -0.0240385 0)
(0.098368 -0.0335019 0)
(0.0972881 -0.0428395 0)
(0.095952 -0.0520353 0)
(0.0943699 -0.0610698 0)
(0.0925552 -0.0699242 0)
(0.0905268 -0.0785836 0)
(0.0883109 -0.087038 0)
(0.0859424 -0.0952843 0)
(0.0834665 -0.103328 0)
(0.0809386 -0.111188 0)
(0.078423 -0.118892 0)
(0.0759875 -0.126486 0)
(0.0736951 -0.134023 0)
(0.0715913 -0.141558 0)
(0.0696916 -0.149138 0)
(0.0679719 -0.156794 0)
(0.0663667 -0.164522 0)
(0.0647772 -0.172294 0)
(0.063087 -0.18005 0)
(0.0611797 -0.187716 0)
(0.0589546 -0.195209 0)
(0.0563356 -0.202447 0)
(0.0532737 -0.209357 0)
(0.0497452 -0.21588 0)
(0.0457464 -0.221969 0)
(0.041289 -0.22759 0)
(0.036394 -0.232726 0)
(0.0310884 -0.237371 0)
(0.0254014 -0.241529 0)
(0.0193631 -0.245215 0)
(0.0130026 -0.24845 0)
(0.00634773 -0.251264 0)
(-0.000574955 -0.253687 0)
(-0.00774137 -0.255757 0)
(-0.0151307 -0.257512 0)
(-0.0227254 -0.258991 0)
(-0.0305102 -0.260233 0)
(-0.038472 -0.261276 0)
(-0.0465995 -0.262155 0)
(-0.0548829 -0.262901 0)
(-0.0633141 -0.263543 0)
(-0.0718857 -0.264106 0)
(-0.0805912 -0.26461 0)
(-0.0894244 -0.265071 0)
(-0.0983791 -0.265499 0)
(-0.107449 -0.2659 0)
(-0.116627 -0.266275 0)
(-0.125904 -0.26662 0)
(-0.135269 -0.266926 0)
(-0.144709 -0.267178 0)
(-0.154206 -0.267358 0)
(-0.163736 -0.267441 0)
(-0.173268 -0.267397 0)
(-0.182751 -0.267192 0)
(-0.192101 -0.266782 0)
(-0.201235 -0.266116 0)
(-0.210158 -0.265139 0)
(-0.218927 -0.263771 0)
(-0.227053 -0.261904 0)
(-0.231381 -0.259455 0)
(-0.228896 -0.255636 0)
(-0.221061 -0.250745 0)
(-0.211887 -0.244942 0)
(-0.202136 -0.238278 0)
(-0.19175 -0.230764 0)
(-0.180744 -0.222425 0)
(-0.169222 -0.21331 0)
(-0.157306 -0.2035 0)
(-0.145125 -0.193108 0)
(-0.132809 -0.182283 0)
(-0.12052 -0.171206 0)
(-0.10853 -0.160108 0)
(-0.0972626 -0.149268 0)
(-0.0872339 -0.139003 0)
(-0.0789734 -0.129622 0)
(-0.0729057 -0.121368 0)
(-0.0692093 -0.11432 0)
(-0.0677311 -0.108351 0)
(-0.0680421 -0.103173 0)
(-0.0696024 -0.0984482 0)
(-0.0719179 -0.093896 0)
(-0.0746144 -0.0893292 0)
(-0.0774418 -0.0846425 0)
(-0.0802491 -0.0797862 0)
(-0.0829513 -0.0747427 0)
(-0.085501 -0.0695114 0)
(-0.0878718 -0.0640995 0)
(-0.090048 -0.0585183 0)
(-0.0920203 -0.0527816 0)
(-0.0937824 -0.0469053 0)
(-0.09533 -0.0409065 0)
(-0.0966607 -0.034803 0)
(-0.097773 -0.0286128 0)
(-0.0986648 -0.0223503 0)
(-0.0993307 -0.0160126 0)
(-0.0997649 -0.00958873 0)
(-0.0999861 -0.00315368 0)
(0.0999823 -0.00447225 0)
(0.0997108 -0.0134193 0)
(0.0991728 -0.0223032 0)
(0.0983524 -0.0310827 0)
(0.0972625 -0.0397438 0)
(0.095915 -0.0482715 0)
(0.0943208 -0.0566472 0)
(0.0924939 -0.0648533 0)
(0.0904541 -0.0728761 0)
(0.0882283 -0.0807064 0)
(0.0858522 -0.0883418 0)
(0.0833714 -0.0957883 0)
(0.080842 -0.103063 0)
(0.0783283 -0.110195 0)
(0.0758985 -0.117226 0)
(0.0736152 -0.124207 0)
(0.0715235 -0.13119 0)
(0.0696382 -0.138221 0)
(0.067934 -0.145327 0)
(0.0663444 -0.152508 0)
(0.0647694 -0.159735 0)
(0.0630913 -0.166955 0)
(0.0611928 -0.174098 0)
(0.058972 -0.181088 0)
(0.0563517 -0.187849 0)
(0.0532818 -0.194315 0)
(0.0497373 -0.200429 0)
(0.0457136 -0.206147 0)
(0.0412207 -0.21144 0)
(0.0362786 -0.21629 0)
(0.0309129 -0.22069 0)
(0.025152 -0.224645 0)
(0.0190246 -0.228166 0)
(0.0125588 -0.231274 0)
(0.005782 -0.233994 0)
(-0.0012801 -0.236354 0)
(-0.00860411 -0.238387 0)
(-0.0161699 -0.240127 0)
(-0.0239602 -0.241611 0)
(-0.03196 -0.242872 0)
(-0.0401564 -0.243945 0)
(-0.0485379 -0.24486 0)
(-0.0570947 -0.245646 0)
(-0.0658182 -0.246327 0)
(-0.0747005 -0.246925 0)
(-0.0837343 -0.247456 0)
(-0.0929124 -0.247933 0)
(-0.102227 -0.248364 0)
(-0.111672 -0.248752 0)
(-0.121235 -0.249097 0)
(-0.130908 -0.249391 0)
(-0.140676 -0.249624 0)
(-0.150522 -0.249781 0)
(-0.160424 -0.249841 0)
(-0.170354 -0.24978 0)
(-0.180272 -0.249569 0)
(-0.190115 -0.249174 0)
(-0.199783 -0.248554 0)
(-0.20919 -0.247668 0)
(-0.2183 -0.24647 0)
(-0.227055 -0.244925 0)
(-0.234704 -0.242936 0)
(-0.238026 -0.240187 0)
(-0.23437 -0.235894 0)
(-0.225671 -0.230789 0)
(-0.2158 -0.224926 0)
(-0.20541 -0.218295 0)
(-0.194404 -0.210912 0)
(-0.182794 -0.202817 0)
(-0.170692 -0.19407 0)
(-0.158234 -0.184756 0)
(-0.145559 -0.174989 0)
(-0.132811 -0.164909 0)
(-0.12018 -0.154689 0)
(-0.107979 -0.144543 0)
(-0.0966586 -0.134727 0)
(-0.0867411 -0.12552 0)
(-0.0787322 -0.117187 0)
(-0.0729999 -0.109911 0)
(-0.0696426 -0.103724 0)
(-0.0684334 -0.0984753 0)
(-0.0689057 -0.093886 0)
(-0.0705224 -0.0896576 0)
(-0.072815 -0.0855518 0)
(-0.0754391 -0.0814136 0)
(-0.0781696 -0.0771574 0)
(-0.0808726 -0.0727432 0)
(-0.0834727 -0.068157 0)
(-0.0859279 -0.0633988 0)
(-0.0882143 -0.0584748 0)
(-0.090317 -0.0533948 0)
(-0.0922266 -0.0481709 0)
(-0.0939362 -0.0428171 0)
(-0.0954409 -0.0373489 0)
(-0.0967371 -0.0317824 0)
(-0.0978224 -0.026134 0)
(-0.0986938 -0.0204171 0)
(-0.0993453 -0.0146294 0)
(-0.0997701 -0.0087609 0)
(-0.0999865 -0.00288107 0)
(0.0999821 -0.00412128 0)
(0.0997087 -0.0123672 0)
(0.0991668 -0.0205552 0)
(0.0983406 -0.0286466 0)
(0.0972433 -0.0366283 0)
(0.0958871 -0.0444862 0)
(0.0942833 -0.0522032 0)
(0.0924466 -0.059763 0)
(0.090397 -0.0671528 0)
(0.0881622 -0.0743645 0)
(0.0857783 -0.0813961 0)
(0.0832914 -0.0882536 0)
(0.0807582 -0.0949532 0)
(0.0782434 -0.101522 0)
(0.0758153 -0.108 0)
(0.0735364 -0.114433 0)
(0.0714515 -0.120872 0)
(0.0695745 -0.127358 0)
(0.067879 -0.133916 0)
(0.0662971 -0.140547 0)
(0.0647275 -0.147224 0)
(0.0630514 -0.1539 0)
(0.0611503 -0.160509 0)
(0.0589217 -0.166982 0)
(0.0562875 -0.173251 0)
(0.0531969 -0.179253 0)
(0.0496241 -0.184936 0)
(0.0455635 -0.190261 0)
(0.0410245 -0.195199 0)
(0.0360259 -0.199734 0)
(0.0305926 -0.20386 0)
(0.0247519 -0.20758 0)
(0.0185318 -0.210904 0)
(0.0119598 -0.213851 0)
(0.00506234 -0.216441 0)
(-0.00213519 -0.218702 0)
(-0.00960997 -0.220662 0)
(-0.0173424 -0.222352 0)
(-0.0253154 -0.223804 0)
(-0.0335144 -0.225048 0)
(-0.041926 -0.226116 0)
(-0.0505389 -0.227033 0)
(-0.0593427 -0.227824 0)
(-0.0683283 -0.228512 0)
(-0.0774871 -0.229113 0)
(-0.0868106 -0.229643 0)
(-0.0962906 -0.23011 0)
(-0.105918 -0.230521 0)
(-0.115683 -0.230878 0)
(-0.125573 -0.231176 0)
(-0.135576 -0.231408 0)
(-0.145674 -0.231562 0)
(-0.155847 -0.231622 0)
(-0.166069 -0.231567 0)
(-0.176308 -0.231372 0)
(-0.186517 -0.231011 0)
(-0.196624 -0.23045 0)
(-0.206525 -0.229655 0)
(-0.216157 -0.228587 0)
(-0.225534 -0.227232 0)
(-0.234488 -0.225626 0)
(-0.241376 -0.223738 0)
(-0.243139 -0.220823 0)
(-0.2381 -0.216284 0)
(-0.22886 -0.211069 0)
(-0.218557 -0.205254 0)
(-0.207688 -0.198793 0)
(-0.196184 -0.191685 0)
(-0.184087 -0.183971 0)
(-0.171523 -0.175713 0)
(-0.158639 -0.166995 0)
(-0.145585 -0.157926 0)
(-0.132518 -0.14864 0)
(-0.119653 -0.139296 0)
(-0.107338 -0.130094 0)
(-0.0960446 -0.121264 0)
(-0.0862924 -0.113053 0)
(-0.0785593 -0.105682 0)
(-0.0731573 -0.0992887 0)
(-0.0701127 -0.0938645 0)
(-0.0691392 -0.0892441 0)
(-0.0697457 -0.0851671 0)
(-0.0714042 -0.0813724 0)
(-0.0736715 -0.07766 0)
(-0.0762297 -0.0739038 0)
(-0.0788743 -0.0700351 0)
(-0.0814851 -0.0660225 0)
(-0.0839944 -0.0618556 0)
(-0.0863643 -0.0575346 0)
(-0.0885725 -0.0530652 0)
(-0.0906052 -0.0484555 0)
(-0.0924532 -0.0437161 0)
(-0.0941095 -0.0388592 0)
(-0.0955687 -0.0338984 0)
(-0.0968271 -0.028848 0)
(-0.0978816 -0.0237226 0)
(-0.098729 -0.0185344 0)
(-0.0993628 -0.0132812 0)
(-0.0997764 -0.0079538 0)
(-0.0999869 -0.00261548 0)
(0.0999821 -0.00376826 0)
(0.0997073 -0.0113086 0)
(0.0991627 -0.0187964 0)
(0.0983324 -0.0261957 0)
(0.0972297 -0.0334943 0)
(0.0958671 -0.0406794 0)
(0.0942562 -0.047735 0)
(0.0924118 -0.0546463 0)
(0.0903546 -0.0614015 0)
(0.0881122 -0.0679934 0)
(0.0857214 -0.0744202 0)
(0.0832286 -0.0806878 0)
(0.0806908 -0.0868114 0)
(0.078173 -0.0928167 0)
(0.0757436 -0.0987397 0)
(0.0734651 -0.104624 0)
(0.0713819 -0.110516 0)
(0.069507 -0.116455 0)
(0.0678132 -0.122462 0)
(0.0662313 -0.12854 0)
(0.064659 -0.134664 0)
(0.0629762 -0.14079 0)
(0.0610638 -0.146859 0)
(0.0588185 -0.152808 0)
(0.0561616 -0.158573 0)
(0.053042 -0.164098 0)
(0.0494331 -0.169337 0)
(0.0453288 -0.174251 0)
(0.0407378 -0.178816 0)
(0.0356784 -0.183016 0)
(0.0301745 -0.186846 0)
(0.024253 -0.190306 0)
(0.0179411 -0.193408 0)
(0.0112658 -0.196166 0)
(0.004253 -0.1986 0)
(-0.00307226 -0.200733 0)
(-0.0106875 -0.202591 0)
(-0.0185736 -0.204202 0)
(-0.0267137 -0.205593 0)
(-0.035093 -0.206792 0)
(-0.0436983 -0.207826 0)
(-0.0525176 -0.208718 0)
(-0.0615404 -0.209489 0)
(-0.0707567 -0.210159 0)
(-0.0801569 -0.210743 0)
(-0.0897317 -0.211251 0)
(-0.0994709 -0.211693 0)
(-0.109364 -0.212071 0)
(-0.119399 -0.212387 0)
(-0.129561 -0.212635 0)
(-0.139835 -0.212807 0)
(-0.1502 -0.212891 0)
(-0.160632 -0.212871 0)
(-0.171102 -0.212726 0)
(-0.181572 -0.212434 0)
(-0.191995 -0.211968 0)
(-0.202286 -0.211298 0)
(-0.212348 -0.21039 0)
(-0.222157 -0.209206 0)
(-0.231787 -0.207752 0)
(-0.240957 -0.206078 0)
(-0.247043 -0.204187 0)
(-0.246987 -0.201088 0)
(-0.240533 -0.196592 0)
(-0.230958 -0.191517 0)
(-0.220419 -0.185927 0)
(-0.209206 -0.179775 0)
(-0.197312 -0.173062 0)
(-0.184827 -0.165832 0)
(-0.171898 -0.158147 0)
(-0.158682 -0.150088 0)
(-0.145339 -0.141761 0)
(-0.132037 -0.133286 0)
(-0.119017 -0.124814 0)
(-0.106658 -0.116524 0)
(-0.0954429 -0.108626 0)
(-0.0858859 -0.101333 0)
(-0.0784355 -0.0948309 0)
(-0.0733506 -0.0892194 0)
(-0.0705941 -0.0844639 0)
(-0.0698315 -0.080396 0)
(-0.0705556 -0.0767774 0)
(-0.0722497 -0.0733813 0)
(-0.0744937 -0.0700398 0)
(-0.0769927 -0.0666491 0)
(-0.07956 -0.0631537 0)
(-0.0820869 -0.0595286 0)
(-0.0845124 -0.0557658 0)
(-0.0868022 -0.0518658 0)
(-0.088936 -0.0478337 0)
(-0.090901 -0.0436765 0)
(-0.0926882 -0.0394034 0)
(-0.094291 -0.0350252 0)
(-0.095704 -0.0305538 0)
(-0.0969231 -0.0260019 0)
(-0.0979452 -0.0213825 0)
(-0.0987669 -0.0167064 0)
(-0.0993819 -0.0119717 0)
(-0.0997831 -0.00716982 0)
(-0.0999874 -0.00235769 0)
(0.099982 -0.00341384 0)
(0.0997062 -0.0102456 0)
(0.0991594 -0.01703 0)
(0.0983256 -0.0237342 0)
(0.0972184 -0.0303472 0)
(0.0958504 -0.0368572 0)
(0.0942333 -0.0432497 0)
(0.0923821 -0.0495111 0)
(0.0903177 -0.0556309 0)
(0.0880681 -0.0616026 0)
(0.0856703 -0.0674247 0)
(0.083171 -0.0731028 0)
(0.0806275 -0.0786509 0)
(0.0781052 -0.0840927 0)
(0.0756726 -0.0894612 0)
(0.073392 -0.0947966 0)
(0.0713075 -0.100141 0)
(0.0694314 -0.105529 0)
(0.0677355 -0.110983 0)
(0.0661495 -0.116503 0)
(0.0645699 -0.122067 0)
(0.0628757 -0.127636 0)
(0.0609471 -0.133156 0)
(0.0586802 -0.13857 0)
(0.0559959 -0.14382 0)
(0.0528427 -0.148856 0)
(0.0491939 -0.153634 0)
(0.0450428 -0.158122 0)
(0.0403976 -0.162297 0)
(0.0352763 -0.166143 0)
(0.0297024 -0.169655 0)
(0.023702 -0.172836 0)
(0.0173021 -0.175693 0)
(0.0105291 -0.17824 0)
(0.00340861 -0.180494 0)
(-0.00403453 -0.182475 0)
(-0.0117782 -0.184207 0)
(-0.0198035 -0.185715 0)
(-0.0280937 -0.187022 0)
(-0.0366339 -0.188153 0)
(-0.0454106 -0.18913 0)
(-0.0544116 -0.189976 0)
(-0.0636258 -0.190708 0)
(-0.0730423 -0.191342 0)
(-0.082651 -0.191891 0)
(-0.0924409 -0.192365 0)
(-0.102401 -0.192771 0)
(-0.112518 -0.19311 0)
(-0.122779 -0.193382 0)
(-0.133167 -0.193582 0)
(-0.143663 -0.193701 0)
(-0.154244 -0.193729 0)
(-0.164882 -0.19365 0)
(-0.175544 -0.193445 0)
(-0.18619 -0.193092 0)
(-0.196763 -0.192567 0)
(-0.207174 -0.191843 0)
(-0.217325 -0.190885 0)
(-0.227234 -0.189655 0)
(-0.23699 -0.188158 0)
(-0.246145 -0.186422 0)
(-0.251508 -0.184461 0)
(-0.249948 -0.181295 0)
(-0.242341 -0.177061 0)
(-0.232463 -0.172287 0)
(-0.221712 -0.167033 0)
(-0.210198 -0.161277 0)
(-0.197975 -0.155035 0)
(-0.185173 -0.148354 0)
(-0.171953 -0.141295 0)
(-0.15848 -0.133936 0)
(-0.144918 -0.126373 0)
(-0.131449 -0.118717 0)
(-0.118336 -0.111105 0)
(-0.105981 -0.1037 0)
(-0.0948765 -0.0966866 0)
(-0.0855265 -0.0902514 0)
(-0.0783507 -0.0845471 0)
(-0.0735587 -0.0796433 0)
(-0.0710587 -0.0754879 0)
(-0.0704782 -0.0719166 0)
(-0.0713006 -0.0687152 0)
(-0.0730221 -0.0656884 0)
(-0.0752435 -0.062696 0)
(-0.0776898 -0.0596529 0)
(-0.0801892 -0.0565144 0)
(-0.0826423 -0.0532605 0)
(-0.0849937 -0.0498852 0)
(-0.0872121 -0.0463894 0)
(-0.0892788 -0.0427773 0)
(-0.091182 -0.0390553 0)
(-0.0929131 -0.0352311 0)
(-0.0944659 -0.0313143 0)
(-0.095835 -0.0273153 0)
(-0.0970166 -0.023245 0)
(-0.0980074 -0.0191149 0)
(-0.0988042 -0.0149345 0)
(-0.0994005 -0.010702 0)
(-0.0997897 -0.00640963 0)
(-0.0999878 -0.00210786 0)
(0.099982 -0.00305817 0)
(0.0997053 -0.00917857 0)
(0.0991565 -0.0152568 0)
(0.0983198 -0.0212633 0)
(0.0972087 -0.0271881 0)
(0.095836 -0.0330206 0)
(0.0942133 -0.0387476 0)
(0.0923559 -0.0443572 0)
(0.0902848 -0.0498398 0)
(0.0880284 -0.0551896 0)
(0.0856235 -0.0604055 0)
(0.0831176 -0.0654926 0)
(0.0805679 -0.0704636 0)
(0.0780401 -0.0753401 0)
(0.0756028 -0.080152 0)
(0.0733184 -0.0849356 0)
(0.0712304 -0.0897288 0)
(0.0693507 -0.0945637 0)
(0.0676501 -0.0994593 0)
(0.0660572 -0.104416 0)
(0.0644674 -0.109415 0)
(0.0627589 -0.11442 0)
(0.0608113 -0.119383 0)
(0.0585202 -0.124252 0)
(0.0558064 -0.128977 0)
(0.052618 -0.133512 0)
(0.0489281 -0.137819 0)
(0.04473 -0.141867 0)
(0.0400314 -0.145636 0)
(0.03485 -0.149113 0)
(0.029209 -0.152292 0)
(0.0231343 -0.155176 0)
(0.0166523 -0.15777 0)
(0.00978921 -0.160087 0)
(0.00257069 -0.162143 0)
(-0.004979 -0.163954 0)
(-0.0128379 -0.165541 0)
(-0.0209871 -0.166926 0)
(-0.0294099 -0.16813 0)
(-0.0380912 -0.169175 0)
(-0.0470174 -0.170079 0)
(-0.0561759 -0.170862 0)
(-0.065555 -0.171539 0)
(-0.0751431 -0.172125 0)
(-0.0849291 -0.172629 0)
(-0.0949012 -0.173059 0)
(-0.105047 -0.173422 0)
(-0.115352 -0.173718 0)
(-0.1258 -0.173946 0)
(-0.136374 -0.1741 0)
(-0.14705 -0.174174 0)
(-0.157806 -0.174156 0)
(-0.168607 -0.174031 0)
(-0.17942 -0.173782 0)
(-0.190199 -0.173389 0)
(-0.200885 -0.172829 0)
(-0.211369 -0.172075 0)
(-0.221583 -0.171094 0)
(-0.231517 -0.169858 0)
(-0.241292 -0.168339 0)
(-0.250267 -0.166493 0)
(-0.255071 -0.164335 0)
(-0.252359 -0.161371 0)
(-0.243681 -0.157586 0)
(-0.233464 -0.153242 0)
(-0.222489 -0.148427 0)
(-0.210732 -0.143161 0)
(-0.198248 -0.137471 0)
(-0.185205 -0.131406 0)
(-0.171767 -0.125024 0)
(-0.158104 -0.118399 0)
(-0.144387 -0.111619 0)
(-0.130805 -0.104785 0)
(-0.117647 -0.0980212 0)
(-0.105331 -0.0914726 0)
(-0.0943536 -0.0853022 0)
(-0.0852109 -0.0796701 0)
(-0.0782934 -0.0747014 0)
(-0.0737666 -0.0704427 0)
(-0.0714922 -0.066832 0)
(-0.0710683 -0.0637145 0)
(-0.0719734 -0.0609009 0)
(-0.0737164 -0.0582245 0)
(-0.075917 -0.0555685 0)
(-0.0783169 -0.0528632 0)
(-0.0807568 -0.0500723 0)
(-0.0831452 -0.0471801 0)
(-0.0854313 -0.044182 0)
(-0.0875864 -0.0410789 0)
(-0.0895933 -0.0378748 0)
(-0.0914408 -0.0345748 0)
(-0.0931212 -0.0311859 0)
(-0.0946282 -0.0277162 0)
(-0.0959571 -0.0241749 0)
(-0.0971039 -0.0205714 0)
(-0.0980657 -0.0169155 0)