/*--------------------------------*- C++ -*----------------------------------*\
  =========                 |
  \\      /  F ield         | OpenFOAM: The Open Source CFD Toolbox
   \\    /   O peration     | Website:  https://openfoam.org
    \\  /    A nd           | Version:  8
     \\/     M anipulation  |
\*---------------------------------------------------------------------------*/
FoamFile
{
    version     2.0;
    format      ascii;
    class       volScalarField;
    location    "20000/gas";
    object      alphat;
}
// * * * * * * * * * * * * * * * * * * * * * * * * * * * * * * * * * * * * * //

dimensions      [1 -1 -1 0 0 0 0];

internalField   nonuniform List<scalar> 
16000
(
4.2755e-05
0.000240127
0.000479025
2.19581e-05
7.7081e-05
0.000110009
0.000356131
2.41015e-05
8.28447e-05
0.000121804
0.000346176
2.82814e-05
9.80252e-05
0.00013369
0.000297046
3.23213e-05
0.000123387
0.000147228
0.000269698
3.56674e-05
0.000155034
0.000160079
0.000254019
3.85133e-05
0.000166692
0.000171272
0.000243853
4.10386e-05
0.000173073
0.00018102
0.000236834
4.33658e-05
0.000181346
0.000189455
0.000230965
4.55224e-05
0.000187909
0.00019644
0.000225495
4.74838e-05
0.00019398
0.000202156
0.000219057
4.91863e-05
0.000199891
0.00020699
0.000213044
5.05966e-05
0.000205553
0.000210529
0.00020877
5.17224e-05
0.000210798
0.000212855
0.000205376
5.25726e-05
0.000215557
0.000214595
0.000202099
5.31551e-05
0.00021971
0.000215333
0.000198839
5.34887e-05
0.000223314
0.000216163
0.000195619
5.361e-05
0.00022643
0.000216949
0.000192488
5.35372e-05
0.000229064
0.000217352
0.000189469
5.32907e-05
0.000231209
0.000217345
0.000186564
5.28917e-05
0.000232862
0.000216978
0.000183768
5.23593e-05
0.00023404
0.000216309
0.000181071
5.17109e-05
0.00023477
0.000215401
0.00017846
5.09628e-05
0.000235089
0.000214282
0.000175924
5.01299e-05
0.000235046
0.000213031
0.000173452
4.92255e-05
0.000234664
0.000211566
0.000171031
4.82616e-05
0.000234023
0.000210196
0.000168666
4.72491e-05
0.000233179
0.000208805
0.000166382
4.61984e-05
0.000232154
0.000207287
0.000164148
4.51183e-05
0.000230973
0.000205736
0.000161943
4.4016e-05
0.000229655
0.000204093
0.000159764
4.28982e-05
0.000228209
0.000202333
0.000157609
4.17704e-05
0.000226649
0.000200504
0.000155475
4.06378e-05
0.000224987
0.000198592
0.00015336
3.95047e-05
0.000223226
0.000196594
0.000151256
3.83752e-05
0.00022137
0.000194497
0.000149167
3.72528e-05
0.000219444
0.000192464
0.00014709
3.61415e-05
0.000217446
0.000190358
0.000145018
3.50431e-05
0.000215413
0.000188333
0.000143046
3.39887e-05
0.000213247
0.000186356
0.000140266
3.29229e-05
8.09574e-05
0.00178292
0.00463197
0.00568382
0.00613278
0.00640632
0.00662312
0.00681539
0.00699328
0.00715955
0.0073146
0.00745823
0.00759018
0.00771036
0.0078188
0.00791565
0.00800134
0.00807589
0.00813894
0.00819019
0.00822906
0.00825444
0.00826434
0.00825519
0.00822029
0.00814622
0.00800294
0.00771326
0.00704276
0.00523047
0.00164729
7.2767e-05
8.42825e-05
0.00119626
0.00331829
0.00465162
0.00540338
0.00586798
0.00619527
0.00645657
0.0066841
0.00689245
0.007088
0.00727315
0.00744842
0.00761339
0.00776714
0.00790848
0.00803573
0.00814733
0.00824157
0.00831592
0.0083668
0.00838906
0.00837487
0.00831166
0.00817793
0.00793433
0.00750419
0.0067329
0.00533394
0.00305541
0.000839828
7.04108e-05
9.19254e-05
0.00116229
0.00294184
0.00430401
0.00520655
0.00580571
0.00622748
0.0065482
0.00681078
0.00703888
0.00724528
0.0074366
0.00761589
0.00778412
0.00794094
0.00808511
0.00821465
0.00832703
0.00841903
0.00848619
0.0085223
0.00851844
0.00846127
0.0083301
0.00809137
0.00768908
0.00702948
0.00596733
0.00434753
0.00228653
0.00064955
6.80059e-05
0.000103641
0.00119583
0.00277934
0.00411422
0.00509542
0.00579235
0.00629747
0.00667966
0.00698391
0.00723831
0.00745992
0.00765879
0.00784044
0.00800752
0.0081607
0.00829924
0.00842124
0.00852376
0.00860263
0.00865201
0.00866361
0.00862549
0.00852003
0.00832058
0.00798625
0.00745466
0.00663601
0.00542458
0.00377838
0.00194105
0.000569566
6.55934e-05
0.000118549
0.00121828
0.00268098
0.00397655
0.00499681
0.00576222
0.00633596
0.00677543
0.00712311
0.00740817
0.00764989
0.00786056
0.00804767
0.00821535
0.0083653
0.0084974
0.00861004
0.00870012
0.00876293
0.00879162
0.00877637
0.008703
0.00855082
0.00828947
0.00787474
0.00724475
0.00632246
0.00504126
0.00342672
0.00174973
0.000528936
6.37498e-05
0.000135635
0.00122672
0.002605
0.00386068
0.00489741
0.00570934
0.00633723
0.00682673
0.0072157
0.00753236
0.00779663
0.00802207
0.00821745
0.00838806
0.00853649
0.00866327
0.00876709
0.0088449
0.00889167
0.00889988
0.00885862
0.00875216
0.00855785
0.0082434
0.00776404
0.00706202
0.00607484
0.00476646
0.00319962
0.00163559
0.000507579
6.23081e-05
0.000153914
0.00122332
0.00253759
0.00375551
0.00479539
0.00563779
0.00630718
0.00683871
0.0072649
0.00761188
0.0078992
0.00814084
0.00834634
0.00852176
0.00867044
0.00879341
0.00888973
0.00895647
0.00898846
0.00897778
0.00891279
0.00877678
0.008546
0.0081875
0.0076577
0.00690436
0.00587821
0.0045649
0.00304541
0.00156558
0.000497552
6.11759e-05
0.000172632
0.00121436
0.00247432
0.00365659
0.00469141
0.00555254
0.00625292
0.0068188
0.00727741
0.00765224
0.00796181
0.00821996
0.00843653
0.00861808
0.00876845
0.00888912
0.00897948
0.00903675
0.00905577
0.00902838
0.00894255
0.00878097
0.00851946
0.0081253
0.00755699
0.00676803
0.00572021
0.00441407
0.00293883
0.00152316
0.00049496
6.0325e-05
0.000191209
0.00120158
0.00241339
0.00356206
0.0045866
0.00545783
0.00618061
0.00677389
0.00726004
0.00765969
0.00798995
0.00826414
0.00849208
0.00868056
0.00883374
0.00895346
0.00903937
0.0090889
0.00909693
0.00905523
0.00895155
0.00876837
0.0084815
0.00805901
0.0074619
0.00664909
0.00559128
0.00429905
0.00286433
0.00149896
0.00049761
5.9745e-05
0.00020923
0.00118766
0.00235496
0.00347136
0.00448212
0.005357
0.00609519
0.00670981
0.00721883
0.00764008
0.00798908
0.00827838
0.00851752
0.00871332
0.00887013
0.00899003
0.0090729
0.00911634
0.00911535
0.0090617
0.00894309
0.00874201
0.00843458
0.00798998
0.00737185
0.006544
0.00548418
0.00420965
0.00281193
0.00148719
0.000504078
5.94292e-05
0.000226406
0.00117354
0.00229932
0.00338447
0.004379
0.00525265
0.00600057
0.00663126
0.00715887
0.00759855
0.00796418
0.00826736
0.00851721
0.00872044
0.00888144
0.00900244
0.00908351
0.00912241
0.00911423
0.00905084
0.00891998
0.00870433
0.00838051
0.00791901
0.00728605
0.00644975
0.00539345
0.00413874
0.00277494
0.001484
0.000513338
5.93657e-05
0.000242544
0.00115958
0.00224659
0.00330148
0.00427809
0.00514674
0.0058998
0.00654206
0.00708439
0.0075395
0.0079196
0.00823531
0.0084952
0.00870572
0.00887125
0.00899409
0.00907442
0.00911014
0.00909645
0.00902531
0.00888461
0.00865729
0.00832064
0.00784653
0.00720365
0.00636389
0.00531496
0.00408114
0.00274856
0.00148612
0.000524548
5.95483e-05
0.000257521
0.00114596
0.00219677
0.00322242
0.00418001
0.00504079
0.00579524
0.00644525
0.00699888
0.00746663
0.00785912
0.00818594
0.00845506
0.00867261
0.00884285
0.00896808
0.00904856
0.00908227
0.00906452
0.00898739
0.00883894
0.00860247
0.008256
0.0077728
0.0071239
0.00628442
0.00524556
0.00403315
0.00272967
0.00149238
0.000537082
5.99727e-05
0.000271272
0.0011328
0.00214978
0.00314728
0.00408519
0.00493593
0.00568874
0.00634325
0.00690517
0.00738302
0.00778593
0.00812248
0.00839996
0.00862416
0.00879915
0.00892717
0.00900851
0.0090412
0.00902065
0.00893904
0.00878465
0.00854116
0.0081874
0.00769799
0.00704613
0.0062098
0.00518288
0.00399205
0.00271591
0.00150127
0.000550302
6.06339e-05
0.00028377
0.00112013
0.00210552
0.00307599
0.00399389
0.00483297
0.00558171
0.00623799
0.00680559
0.00729125
0.00770275
0.00804766
0.00833264
0.00856304
0.00874271
0.00887379
0.00895654
0.00898904
0.00896674
0.00888194
0.00872313
0.00847443
0.00811547
0.0076222
0.00696983
0.00613877
0.00512511
0.00395578
0.00270549
0.00151152
0.000563743
6.15205e-05
0.000295021
0.00110797
0.00206385
0.00300844
0.00390629
0.00473251
0.00547523
0.00613101
0.00670201
0.00719345
0.00761186
0.00796386
0.00825546
0.00849156
0.00867576
0.00881005
0.00889464
0.0089276
0.00890442
0.0088175
0.00865556
0.00840317
0.00804074
0.00754553
0.00689456
0.00607039
0.00507086
0.00392276
0.00269701
0.00152213
0.000577008
6.26168e-05
0.000305054
0.00109628
0.00202464
0.00294449
0.00382242
0.00463496
0.00537012
0.00602351
0.00659595
0.00709137
0.00751517
0.00787307
0.00817043
0.00841172
0.00860023
0.00873781
0.00882454
0.00885847
0.00883511
0.00874696
0.00858296
0.00832814
0.00796367
0.00746806
0.00681999
0.00600392
0.00501904
0.00389179
0.00268938
0.00153237
0.000589773
6.39042e-05
0.000313915
0.00108503
0.00198771
0.00288398
0.00374229
0.00454058
0.00526699
0.00591642
0.00648865
0.00698647
0.00741428
0.00777698
0.00807928
0.00832524
0.00851781
0.00865865
0.00874772
0.00878301
0.00876003
0.00867137
0.0085062
0.00824998
0.00788465
0.00738988
0.0067459
0.00593878
0.00496883
0.00386195
0.00268181
0.00154171
0.000601781
6.53616e-05
0.00032166
0.00107417
0.0019529
0.00282672
0.00366582
0.00444954
0.00516627
0.00581048
0.00638108
0.00687993
0.00731052
0.00767699
0.00798348
0.00823357
0.00842992
0.00857394
0.00866547
0.0087024
0.00868025
0.00859166
0.00842604
0.00816927
0.00780404
0.00731111
0.0066721
0.00587455
0.00491963
0.00383258
0.00267372
0.00154976
0.000612842
6.69658e-05
0.000328353
0.00106363
0.00192006
0.00277253
0.00359292
0.00436191
0.00506828
0.00570623
0.00627402
0.00677271
0.00720498
0.00757431
0.00788426
0.00813797
0.00833777
0.00848486
0.00857889
0.00861766
0.00859666
0.00850862
0.00834313
0.0080865
0.00772215
0.00723185
0.00659851
0.00581092
0.00487098
0.00380318
0.00266471
0.00155627
0.00062283
6.86929e-05
0.000334061
0.00105339
0.00188902
0.00272122
0.00352345
0.00427769
0.00497322
0.0056041
0.00616809
0.00666557
0.00709858
0.00746993
0.00778266
0.00803949
0.00824243
0.00839241
0.00848893
0.00852967
0.00851007
0.00842293
0.00825803
0.00800213
0.00763928
0.00715223
0.00652506
0.00574769
0.00482256
0.00377341
0.00265451
0.00156111
0.000631669
7.05178e-05
0.000338854
0.00104337
0.00185963
0.0026726
0.00345726
0.00419686
0.00488122
0.00550438
0.00606375
0.00655916
0.00699204
0.00736465
0.00767955
0.00793902
0.00814477
0.00829746
0.00839642
0.00843918
0.00842116
0.00833519
0.00817127
0.00791653
0.00755569
0.00707238
0.00645175
0.0056847
0.00477415
0.00374305
0.00264297
0.00156421
0.000639332
7.2416e-05
0.000342801
0.00103354
0.00183173
0.00262649
0.00339419
0.00411935
0.00479234
0.00540729
0.00596136
0.00645395
0.00688597
0.00725917
0.00757565
0.00783732
0.00804554
0.00820074
0.00830204
0.00834685
0.00833052
0.00824593
0.00808328
0.00783007
0.00747162
0.00699242
0.00637859
0.0056219
0.00472564
0.00371199
0.00263003
0.00156557
0.00064584
7.43647e-05
0.00034597
0.00102386
0.00180521
0.00258269
0.00333408
0.00404505
0.00470658
0.00531296
0.0058612
0.00635034
0.00678084
0.00715403
0.00747157
0.00773501
0.00794539
0.00810288
0.00820639
0.00825323
0.00823865
0.00815561
0.00799445
0.00774305
0.00738732
0.00691251
0.00630563
0.00555926
0.00467695
0.00368017
0.0026157
0.00156526
0.000651238
7.63424e-05
0.000348425
0.00101428
0.00177991
0.00254105
0.00327676
0.00397384
0.00462391
0.00522148
0.00576344
0.0062486
0.00667704
0.00704968
0.0073678
0.0076326
0.00784483
0.00800438
0.00810999
0.0081588
0.00814602
0.00806461
0.00790513
0.00765577
0.007303
0.00683278
0.00623294
0.00549678
0.00462809
0.00364761
0.00260003
0.00156338
0.000655594
7.83297e-05
0.00035023
0.00100477
0.00175574
0.00250139
0.00322205
0.00390561
0.00454428
0.00513285
0.00566822
0.00614895
0.00657484
0.00694647
0.00726474
0.00753054
0.00774431
0.00790571
0.00801327
0.00806398
0.00805299
0.00797331
0.00781562
0.00756848
0.00721884
0.00675336
0.00616062
0.00543452
0.00457907
0.00361436
0.00258313
0.00156005
0.000658986
8.03088e-05
0.000351446
0.00099529
0.00173258
0.00246357
0.0031698
0.00384019
0.0044676
0.00504708
0.00557558
0.00605153
0.00647447
0.00684466
0.0071627
0.00742915
0.00764419
0.00780722
0.00791658
0.00796912
0.00795991
0.00788199
0.0077262
0.00748141
0.00713505
0.0066744
0.00608874
0.00537255
0.00452998
0.00358051
0.00256511
0.00155541
0.000661503
8.22643e-05
0.000352129
0.000985816
0.00171033
0.00242743
0.00311985
0.00377746
0.00439375
0.00496411
0.00548556
0.00595644
0.00637608
0.00674447
0.00706193
0.00732873
0.00754476
0.00770923
0.00782023
0.00787451
0.00786705
0.00779092
0.00763711
0.00739476
0.00705178
0.00659603
0.00601741
0.00531093
0.00448088
0.00354617
0.00254613
0.0015496
0.000663234
8.41831e-05
0.000352336
0.000976312
0.00168889
0.00239285
0.00307202
0.00371724
0.0043226
0.00488385
0.00539812
0.00586369
0.00627974
0.00664603
0.0069626
0.00722947
0.00744627
0.00761196
0.00772448
0.0077804
0.00777466
0.00770033
0.00754854
0.00730873
0.0069692
0.00651838
0.00594675
0.00524978
0.00443189
0.00351145
0.00252632
0.00154279
0.000664266
8.6054e-05
0.000352122
0.000966744
0.00166818
0.00235968
0.00302616
0.00365937
0.00425401
0.00480619
0.00531319
0.00577328
0.0061855
0.00654942
0.00686484
0.00713152
0.00734887
0.00751562
0.00762952
0.007687
0.00768294
0.00761041
0.00746069
0.00722346
0.00688745
0.00644156
0.00587684
0.00518918
0.0043831
0.00347649
0.00250584
0.0015351
0.000664684
8.78677e-05
0.000351541
0.000957072
0.00164812
0.00232779
0.00298209
0.00360366
0.00418779
0.00473096
0.00523063
0.0056851
0.00609331
0.00645464
0.00676869
0.00703498
0.00725269
0.00742035
0.00753551
0.00759447
0.00759205
0.00752132
0.0073737
0.00713911
0.00680665
0.0063657
0.00580779
0.00512923
0.00433463
0.00344142
0.00248484
0.0015267
0.000664569
8.96171e-05
0.000350649
0.000947245
0.00162861
0.00229703
0.00293961
0.00354987
0.00412369
0.00465794
0.00515028
0.00559904
0.00600309
0.00636167
0.00667416
0.00693989
0.00715781
0.00732623
0.00744255
0.00750294
0.00750212
0.00743321
0.00728772
0.00705581
0.00672692
0.00629089
0.00573971
0.00507004
0.00428659
0.00340636
0.00246346
0.00151771
0.000663994
9.12964e-05
0.000349508
0.000937189
0.00160952
0.00226722
0.00289848
0.0034977
0.0040614
0.00458683
0.00507186
0.00551487
0.00591468
0.00627038
0.0065812
0.00684623
0.00706424
0.00723333
0.00735074
0.0074125
0.00741327
0.00734618
0.00720284
0.00697364
0.00664836
0.00621722
0.00567267
0.0050117
0.00423908
0.00337145
0.00244184
0.00150824
0.000663028
9.29015e-05
0.000348188
0.000926787
0.0015907
0.00223808
0.00285831
0.00344674
0.0040005
0.00451723
0.00499502
0.0054323
0.00582783
0.00618061
0.00648967
0.00675394
0.00697195
0.00714165
0.00726009
0.0073232
0.00732555
0.0072603
0.00711916
0.00689271
0.00657105
0.00614479
0.00560677
0.00495429
0.00419221
0.00333679
0.0024201
0.00149842
0.000661731
9.44297e-05
0.000346775
0.000915831
0.00157182
0.00220916
0.00281854
0.00339637
0.00394037
0.00444858
0.00491926
0.00535091
0.00574224
0.00609211
0.00639941
0.00666288
0.00688087
0.00705115
0.00717061
0.00723506
0.00723902
0.00717564
0.00703673
0.00681308
0.00649506
0.00607366
0.00554206
0.00489789
0.00414606
0.0033025
0.00239836
0.00148835
0.00066016
9.58791e-05
0.000345378
0.000903903
0.00155221
0.0021796
0.00277821
0.00334561
0.00388013
0.00438012
0.00484397
0.0052702
0.00565749
0.00600457
0.00631018
0.00657289
0.00679089
0.00696177
0.00708227
0.00714809
0.00715369
0.00709222
0.0069556
0.0067348
0.00642045
0.00600387
0.00547863
0.00484258
0.00410072
0.00326866
0.00237672
0.00147811
0.000658362
9.72491e-05
0.000344107
0.000890111
0.00153039
0.00214773
0.00273569
0.00329306
0.0038186
0.00431087
0.00476834
0.00518955
0.00557308
0.00591759
0.00622168
0.00648376
0.00670185
0.00687339
0.00699499
0.00706224
0.00706954
0.00701006
0.0068758
0.0066579
0.00634724
0.00593549
0.00541651
0.00478841
0.00405625
0.00323536
0.00235526
0.00146778
0.000656382
9.85398e-05
0.000342803
0.000872092
0.00150297
0.00211043
0.00268845
0.00323673
0.00375425
0.00423967
0.0046915
0.00510825
0.00548849
0.00583078
0.00613361
0.00639524
0.00661357
0.00678589
0.00690869
0.00697745
0.00698655
0.00692914
0.00679732
0.00658238
0.00627548
0.00586853
0.00535573
0.00473543
0.00401273
0.00320268
0.00233407
0.00145744
0.000654258
9.97521e-05
0.000339467
0.000846765
0.00146347
0.00206284
0.00263322
0.00317442
0.00368554
0.00416538
0.00461257
0.00502565
0.0054032
0.00574372
0.00604562
0.00630708
0.00652586
0.00669912
0.00682325
0.00689366
0.00690465
0.00684943
0.00672014
0.00650826
0.00620514
0.00580302
0.00529634
0.00468368
0.00397018
0.00317067
0.00231321
0.00144714
0.000652022
0.000100887
0.00031158
0.00079184
0.00140313
0.0020008
0.00256777
0.00310486
0.00361144
0.00408721
0.00453092
0.00494123
0.00531677
0.00565605
0.00595744
0.00621904
0.00643851
0.00661292
0.00673856
0.00681076
0.0068238
0.00677088
0.00664424
0.0064355
0.00613624
0.00573895
0.00523833
0.00463318
0.00392866
0.00313938
0.00229275
0.00143693
0.000649705
0.000101947
9.00743e-05
0.000299797
0.000579485
0.000842559
0.00107839
0.00128617
0.00146903
0.00162781
0.00176512
0.00188312
0.00198372
0.00206861
0.00213926
0.00219691
0.00224262
0.00227727
0.0023016
0.00231621
0.00232162
0.00231821
0.00230632
0.00228618
0.00225795
0.00222175
0.0021776
0.00212547
0.00206523
0.00199668
0.00191949
0.0018332
0.00173718
0.00163054
0.0015121
0.00138025
0.0012328
0.00106697
0.000879117
0.000665448
0.000425909
0.000187803
9.23258e-05
0.000312394
0.000592106
0.000853626
0.00108783
0.00129469
0.00147602
0.00163377
0.00177018
0.00188738
0.00198728
0.00207155
0.00214164
0.00219879
0.00224404
0.00227827
0.00230222
0.00231648
0.00232155
0.00231784
0.00230565
0.00228523
0.00225675
0.0022203
0.00217592
0.00212357
0.00206314
0.0019944
0.00191705
0.00183062
0.00173448
0.00162776
0.00150929
0.00137745
0.00123012
0.00106448
0.000877
0.000664142
0.000426342
0.000189616
9.48275e-05
0.000326075
0.000607283
0.000868436
0.00110158
0.00130719
0.00148711
0.00164354
0.00177874
0.00189484
0.00199375
0.00207714
0.00214644
0.00220288
0.00224749
0.00228113
0.00230455
0.00231833
0.00232296
0.00231885
0.0023063
0.00228555
0.00225676
0.00222004
0.00217541
0.00212284
0.00206221
0.00199331
0.00191583
0.0018293
0.00173311
0.00162638
0.00150794
0.00137621
0.00122905
0.00106368
0.00087661
0.000664353
0.000427362
0.000191518
9.69211e-05
0.000336855
0.000621149
0.000883412
0.00111643
0.00132127
0.00150008
0.00165529
0.00178929
0.00190426
0.00200211
0.00208453
0.00215294
0.00220858
0.00225246
0.00228545
0.00230826
0.00232149
0.00232563
0.00232107
0.00230811
0.00228698
0.00225786
0.00222083
0.00217593
0.00212311
0.00206227
0.00199319
0.00191555
0.00182891
0.00173264
0.00162588
0.00150746
0.0013758
0.00122879
0.00106365
0.000876917
0.00066514
0.00042882
0.000193535
9.87494e-05
0.00034572
0.000633214
0.000897258
0.00113085
0.00133545
0.00151353
0.00166779
0.00180074
0.00191465
0.00201149
0.00209295
0.00216048
0.00221529
0.00225842
0.00229073
0.00231292
0.00232558
0.0023292
0.00232416
0.00231076
0.00228924
0.00225976
0.00222241
0.00217721
0.00212414
0.00206307
0.00199379
0.00191599
0.00182923
0.00173287
0.00162607
0.00150766
0.00137608
0.00122921
0.00106428
0.000877833
0.000666434
0.000430596
0.000195637
0.000100405
0.000353133
0.000643662
0.000909717
0.00114429
0.00134903
0.00152673
0.00168029
0.00181239
0.00192539
0.00202131
0.00210188
0.00216857
0.0022226
0.002265
0.00229662
0.00231819
0.00233028
0.00233338
0.00232786
0.00231403
0.00229211
0.00226227
0.00222459
0.00217911
0.00212577
0.00206447
0.001995
0.00191704
0.00183016
0.00173372
0.00162689
0.00150849
0.00137698
0.00123024
0.00106549
0.000879273
0.000668143
0.000432621
0.000197812
0.000101949
0.000359526
0.000652845
0.000920926
0.00115666
0.00136181
0.00153938
0.00169247
0.00182391
0.00193614
0.00203126
0.00211103
0.00217694
0.00223023
0.00227194
0.00230292
0.00232389
0.00233544
0.00233803
0.00233205
0.00231779
0.00229549
0.0022653
0.00222731
0.00218154
0.00212796
0.00206644
0.00199678
0.00191868
0.00183168
0.00173516
0.0016283
0.00150992
0.00137846
0.00123182
0.00106721
0.000881164
0.000670197
0.000434838
0.000200049
0.00010342
0.000365198
0.000661083
0.000931125
0.0011681
0.0013738
0.00155143
0.00170423
0.00183516
0.00194676
0.00204119
0.00212025
0.00218546
0.00223807
0.00227914
0.00230952
0.00232993
0.00234096
0.00234307
0.00233666
0.002322
0.00229934
0.00226882
0.00223053
0.0021845
0.00213068
0.00206896
0.00199913
0.00192088
0.00183377
0.00173718
0.00163027
0.00151189
0.00138047
0.0012339
0.00106939
0.000883441
0.000672544
0.000437204
0.000202342
0.00010484
0.000370352
0.000668622
0.000940545
0.00117878
0.00138514
0.00156294
0.00171559
0.00184615
0.00195724
0.00205108
0.00212951
0.00219409
0.0022461
0.00228657
0.0023164
0.00233629
0.00234684
0.00234851
0.00234168
0.00232666
0.00230366
0.00227283
0.00223426
0.00218799
0.00213395
0.00207203
0.00200203
0.00192364
0.00183641
0.00173974
0.00163277
0.00151436
0.00138295
0.00123642
0.00107196
0.000886055
0.000675146
0.000439684
0.000204684
0.000106227
0.000375123
0.000675644
0.000949374
0.00118887
0.00139595
0.00157403
0.00172664
0.00185693
0.0019676
0.00206094
0.00213884
0.00220286
0.00225431
0.00229425
0.00232357
0.00234298
0.00235308
0.00235434
0.00234714
0.00233177
0.00230846
0.00227734
0.00223852
0.002192
0.00213776
0.00207565
0.00200548
0.00192694
0.00183959
0.00174281
0.00163576
0.00151731
0.00138587
0.00123934
0.00107489
0.000888962
0.000677967
0.000442253
0.00020707
0.000107591
0.000379603
0.000682275
0.000957756
0.00119853
0.00140637
0.00158481
0.00173746
0.00186757
0.00197792
0.00207084
0.00214826
0.00221179
0.00226274
0.0023022
0.00233106
0.00235003
0.00235973
0.00236061
0.00235305
0.00233736
0.00231375
0.00228237
0.0022433
0.00219656
0.0021421
0.0020798
0.00200946
0.00193076
0.00184327
0.00174636
0.00163921
0.00152067
0.00138917
0.0012426
0.00107811
0.000892125
0.000680991
0.000444962
0.000209488
0.000108941
0.000383848
0.000688606
0.000965819
0.00120786
0.00141651
0.00159537
0.00174814
0.00187815
0.00198824
0.00208081
0.00215783
0.00222092
0.00227143
0.00231045
0.00233889
0.00235747
0.00236678
0.00236731
0.00235943
0.00234344
0.00231955
0.00228791
0.0022486
0.00220164
0.00214697
0.00208448
0.00201395
0.00193508
0.00184741
0.00175036
0.00164307
0.00152441
0.00139281
0.00124616
0.00108159
0.00089551
0.000684186
0.00044779
0.000211933
0.000110284
0.000387889
0.000694695
0.000973637
0.00121697
0.00142646
0.00160579
0.00175874
0.00188872
0.00199863
0.00209091
0.00216758
0.0022303
0.00228041
0.00231904
0.00234709
0.0023653
0.00237427
0.00237447
0.00236629
0.00235001
0.00232586
0.00229397
0.00225442
0.00220724
0.00215235
0.00208965
0.00201892
0.00193985
0.001852
0.00175477
0.00164731
0.0015285
0.00139677
0.00124999
0.00108531
0.000899087
0.000687531
0.000450719
0.0002144
0.000111629
0.000391733
0.000700587
0.00098127
0.00122592
0.00143629
0.00161614
0.00176933
0.00189933
0.00200912
0.00210118
0.00217756
0.00223994
0.0022897
0.00232797
0.00235567
0.00237354
0.00238219
0.00238209
0.00237362
0.00235707
0.00233266
0.00230053
0.00226075
0.00221333
0.00215823
0.00209531
0.00202436
0.00194507
0.00185701
0.00175956
0.0016519
0.0015329
0.00140099
0.00125406
0.00108923
0.000902831
0.000691006
0.000453735
0.000216882
0.000112984
0.00039538
0.00070633
0.000988778
0.00123476
0.00144605
0.00162647
0.00177995
0.00191003
0.00201975
0.00211163
0.00218776
0.00224986
0.00229931
0.00233726
0.00236464
0.00238221
0.00239055
0.00239016
0.00238142
0.00236461
0.00233995
0.00230757
0.00226756
0.00221991
0.00216457
0.00210142
0.00203023
0.0019507
0.00186239
0.0017647
0.00165681
0.00153758
0.00140546
0.00125834
0.00109332
0.000906717
0.000694595
0.000456825
0.000219375
0.000114357
0.000398875
0.000711979
0.000996216
0.00124354
0.00145578
0.0016368
0.00179061
0.00192083
0.00203053
0.00212229
0.00219822
0.00226007
0.00230925
0.00234691
0.00237401
0.00239128
0.00239935
0.00239869
0.00238968
0.00237262
0.00234771
0.00231509
0.00227483
0.00222694
0.00217136
0.00210796
0.00203651
0.00195672
0.00186814
0.00177018
0.00166201
0.00154251
0.00141015
0.00126279
0.00109756
0.000910724
0.00069828
0.000459979
0.000221874
0.000115733
0.000402335
0.000717574
0.0010036
0.00125229
0.00146549
0.00164716
0.00180135
0.00193175
0.00204148
0.00213316
0.00220893
0.00227057
0.00231951
0.00235692
0.00238375
0.00240076
0.00240856
0.00240765
0.00239839
0.00238108
0.00235593
0.00232306
0.00228256
0.00223442
0.00217858
0.00211491
0.00204319
0.00196311
0.00187423
0.00177595
0.00166748
0.00154768
0.00141503
0.00126741
0.00110194
0.000914831
0.000702046
0.000463186
0.000224373
0.00011712
0.000405782
0.000723139
0.00101095
0.00126102
0.00147522
0.00165756
0.00181218
0.0019428
0.00205261
0.00214424
0.0022199
0.00228137
0.0023301
0.00236728
0.00239387
0.00241063
0.00241819
0.00241703
0.00240753
0.00238998
0.00236458
0.00233147
0.00229072
0.00224232
0.00218621
0.00212225
0.00205023
0.00196983
0.00188062
0.00178201
0.00167319
0.00155306
0.00142008
0.00127217
0.00110642
0.000919026
0.000705875
0.000466434
0.000226868
0.00011852
0.000409226
0.000728687
0.00101829
0.00126974
0.00148497
0.00166802
0.0018231
0.00195399
0.0020639
0.00215554
0.00223111
0.00229244
0.002341
0.00237798
0.00240435
0.00242088
0.00242821
0.00242681
0.00241708
0.00239929
0.00237365
0.0023403
0.00229929
0.00225062
0.00219422
0.00212997
0.00205763
0.00197689
0.00188732
0.00178834
0.00167914
0.00155862
0.00142529
0.00127703
0.00111098
0.000923334
0.000709747
0.000469713
0.000229351
0.000119934
0.000412673
0.000734228
0.00102562
0.00127848
0.00149475
0.00167855
0.00183413
0.00196531
0.00207538
0.00216705
0.00224257
0.00230379
0.0023522
0.002389
0.00241517
0.0024315
0.00243861
0.00243699
0.00242703
0.00240901
0.00238313
0.00234952
0.00230825
0.0022593
0.00220261
0.00213804
0.00206536
0.00198425
0.0018943
0.00179491
0.00168529
0.00156436
0.00143062
0.001282
0.0011156
0.000927583
0.000713636
0.000473012
0.000231818
0.000121366
0.000416128
0.000739769
0.00103295
0.00128724
0.00150458
0.00168915
0.00184526
0.00197678
0.00208702
0.00217876
0.00225427
0.00231541
0.00236369
0.00240034
0.00242633
0.00244247
0.00244937
0.00244754
0.00243736
0.0024191
0.00239298
0.00235912
0.00231758
0.00226835
0.00221135
0.00214644
0.0020734
0.00199192
0.00190155
0.00180172
0.00169165
0.00157026
0.00143608
0.00128704
0.00112026
0.000931899
0.000717537
0.000476322
0.00023426
0.000122815
0.000419595
0.000745319
0.0010403
0.00129602
0.00151446
0.00169983
0.0018565
0.00198838
0.00209884
0.00219068
0.0022662
0.00232729
0.00237547
0.00241198
0.00243782
0.00245377
0.00246048
0.00245845
0.00244805
0.00242957
0.00240321
0.00236909
0.00232728
0.00227775
0.00222043
0.00215518
0.00208176
0.00199986
0.00190905
0.00180876
0.00169819
0.00157631
0.00144164
0.00129214
0.00112496
0.000936224
0.000721432
0.000479631
0.000236671
0.000124285
0.000423078
0.000750882
0.00104767
0.00130485
0.0015244
0.0017106
0.00186785
0.00200012
0.00211083
0.0022028
0.00227836
0.00233942
0.00238752
0.00242391
0.00244961
0.0024654
0.00247193
0.0024697
0.00245909
0.00244038
0.00241378
0.00237941
0.00233732
0.00228749
0.00222984
0.00216422
0.00209041
0.00200808
0.00191681
0.00181601
0.00170492
0.00158249
0.00144729
0.00129729
0.00112967
0.000940537
0.000725339
0.000482927
0.000239044
0.000125775
0.000426581
0.000756466
0.00105507
0.00131371
0.0015344
0.00172145
0.00187931
0.00201201
0.00212298
0.0022151
0.00229073
0.00235178
0.00239983
0.00243613
0.00246169
0.00247734
0.0024837
0.00248128
0.00247046
0.00245154
0.0024247
0.00239007
0.00234769
0.00229755
0.00223956
0.00217357
0.00209935
0.00201657
0.0019248
0.00182346
0.00171181
0.0015888
0.00145302
0.00130247
0.00113436
0.000944814
0.000729206
0.000486194
0.000241371
0.000127288
0.000430108
0.000762074
0.0010625
0.00132263
0.00154447
0.00173239
0.00189089
0.00202403
0.0021353
0.0022276
0.00230332
0.00236439
0.00241239
0.00244861
0.00247407
0.00248957
0.00249577
0.00249317
0.00248216
0.00246302
0.00243594
0.00240105
0.00235839
0.00230793
0.00224959
0.00218322
0.00210856
0.00202531
0.00193302
0.00183113
0.00171887
0.00159523
0.00145882
0.00130767
0.00113903
0.000949032
0.00073301
0.000489413
0.000243644
0.000128825
0.00043366
0.000767713
0.00106998
0.0013316
0.00155462
0.00174343
0.00190258
0.0020362
0.00214779
0.00224029
0.00231611
0.00237721
0.0024252
0.00246136
0.00248671
0.00250209
0.00250814
0.00250537
0.00249417
0.00247481
0.0024475
0.00241234
0.00236939
0.00231861
0.00225992
0.00219314
0.00211805
0.0020343
0.00194147
0.00183899
0.00172609
0.00160178
0.00146468
0.00131288
0.00114365
0.000953167
0.000736724
0.000492566
0.000245853
0.000130386
0.000437242
0.000773385
0.00107749
0.00134062
0.00156484
0.00175456
0.0019144
0.0020485
0.00216043
0.00225315
0.0023291
0.00239026
0.00243825
0.00247436
0.00249963
0.00251489
0.0025208
0.00251787
0.00250647
0.00248691
0.00245936
0.00242394
0.00238069
0.00232959
0.00227053
0.00220335
0.0021278
0.00204355
0.00195015
0.00184704
0.00173347
0.00160844
0.00147061
0.00131809
0.00114821
0.000957196
0.000740324
0.000495635
0.000247992
0.000131974
0.000440855
0.000779096
0.00108506
0.00134972
0.00157514
0.00176579
0.00192633
0.00206095
0.00217324
0.0022662
0.00234229
0.00240353
0.00245153
0.0024876
0.0025128
0.00252796
0.00253374
0.00253064
0.00251907
0.00249929
0.00247151
0.00243583
0.00239229
0.00234085
0.00228142
0.00221383
0.00213781
0.00205303
0.00195906
0.0018553
0.00174102
0.00161522
0.00147659
0.00132329
0.0011527
0.000961103
0.000743788
0.0004986
0.000250051
0.000133589
0.000444503
0.000784849
0.00109268
0.00135888
0.00158553
0.00177713
0.00193838
0.00207353
0.0021862
0.00227942
0.00235568
0.002417
0.00246503
0.00250108
0.00252622
0.00254129
0.00254694
0.0025437
0.00253194
0.00251197
0.00248395
0.002448
0.00240416
0.0023524
0.00229259
0.00222457
0.00214807
0.00206276
0.00196818
0.00186375
0.00174873
0.00162213
0.00148264
0.00132849
0.00115711
0.000964875
0.000747096
0.000501447
0.000252021
0.000135232
0.000448187
0.000790647
0.00110036
0.00136811
0.001596
0.00178857
0.00195056
0.00208626
0.00219933
0.00229282
0.00236926
0.00243068
0.00247875
0.0025148
0.00253989
0.00255487
0.00256041
0.00255702
0.00254509
0.00252491
0.00249666
0.00246045
0.00241632
0.00236421
0.00230402
0.00223557
0.00215859
0.00207273
0.00197753
0.00187241
0.00175661
0.00162915
0.00148876
0.00133368
0.00116144
0.0009685
0.000750229
0.000504154
0.000253894
0.000136905
0.00045191
0.000796494