/*--------------------------------*- C++ -*----------------------------------*\
  =========                 |
  \\      /  F ield         | OpenFOAM: The Open Source CFD Toolbox
   \\    /   O peration     | Website:  https://openfoam.org
    \\  /    A nd           | Version:  8
     \\/     M anipulation  |
\*---------------------------------------------------------------------------*/
FoamFile
{
    version     2.0;
    format      ascii;
    class       volScalarField;
    location    "20000/gas";
    object      CH4;
}
// * * * * * * * * * * * * * * * * * * * * * * * * * * * * * * * * * * * * * //

dimensions      [0 0 0 0 0 0 0];

internalField   nonuniform List<scalar> 
16000
(
1
1
1
1
1
1
1
1
1
1
1
1
1
1
1
1
1
1
1
1
1
1
1
1
1
1
1
1
1
1
1
1
1
1
1
1
1
1
1
1
1
1
1
1
1
1
1
1
1
1
1
1
1
1
1
1
1
1
1
1
1
1
1
1
1
1
1
1
1
1
1
1
1
1
1
1
1
1
1
1
1
1
1
1
1
1
1
1
1
1
1
1
1
1
1
1
1
1
1
1
1
1
1
1
1
1
1
1
1
1
1
1
1
1
1
1
1
1
1
1
1
1
1
1
1
1
1
1
1
1
1
1
1
1
1
1
1
1
1
1
1
1
1
1
1
1
1
1
1
1
1
1
1
1
0.999999
0.999995
1
0.999998
0.999983
0.99978
4.00202e-22
9.73905e-21
4.0968e-20
8.97228e-20
1.54072e-19
2.44229e-19
3.431e-19
4.69404e-19
6.20231e-19
7.81846e-19
1.00446e-18
1.11666e-18
1.3652e-18
1.51234e-18
1.62088e-18
1.73286e-18
1.67052e-18
1.66937e-18
1.50324e-18
1.34444e-18
1.30084e-18
1.09856e-18
9.25703e-19
7.45118e-19
5.9422e-19
4.48618e-19
3.19283e-19
2.01589e-19
1.21507e-19
4.60015e-20
9.67631e-21
2.96877e-22
9.85006e-21
9.36494e-20
2.40784e-19
4.13988e-19
6.55738e-19
1.01212e-18
1.54462e-18
2.08454e-18
2.73335e-18
3.41312e-18
3.91383e-18
4.7103e-18
5.2326e-18
5.59332e-18
6.12549e-18
6.38712e-18
6.48266e-18
6.16543e-18
6.08074e-18
5.38081e-18
4.70735e-18
4.27614e-18
3.73142e-18
3.16872e-18
2.6419e-18
1.98331e-18
1.41263e-18
9.39838e-19
5.29687e-19
2.64315e-19
8.48163e-20
6.0315e-21
4.73883e-20
2.48124e-19
6.07944e-19
1.1102e-18
1.77825e-18
2.58746e-18
3.53181e-18
4.66435e-18
5.85389e-18
7.28424e-18
8.99551e-18
1.06076e-17
1.15365e-17
1.25574e-17
1.30829e-17
1.35923e-17
1.34871e-17
1.40247e-17
1.3309e-17
1.223e-17
1.12588e-17
9.60772e-18
8.45223e-18
7.16151e-18
5.55366e-18
4.45811e-18
3.33655e-18
2.27653e-18
1.36264e-18
6.50471e-19
2.06772e-19
2.52122e-20
1.10313e-19
5.31665e-19
1.17101e-18
2.2816e-18
3.60343e-18
5.10467e-18
7.12963e-18
9.43667e-18
1.2211e-17
1.49604e-17
1.79983e-17
1.97758e-17
2.14134e-17
2.41229e-17
2.5704e-17
2.58754e-17
2.60885e-17
2.57386e-17
2.47723e-17
2.34142e-17
2.04106e-17
1.83061e-17
1.57268e-17
1.28852e-17
1.08429e-17
8.22326e-18
5.96471e-18
4.11599e-18
2.53216e-18
1.31803e-18
4.39938e-19
4.21905e-20
2.54462e-19
1.13794e-18
2.34776e-18
3.91161e-18
6.29224e-18
9.47646e-18
1.29966e-17
1.78481e-17
2.22919e-17
2.70936e-17
3.10782e-17
3.54784e-17
3.84609e-17
4.12924e-17
4.42302e-17
4.50958e-17
4.53735e-17
4.47597e-17
4.36059e-17
4.015e-17
3.65968e-17
3.29036e-17
2.79924e-17
2.28635e-17
1.82199e-17
1.41915e-17
1.02487e-17
6.95824e-18
4.22189e-18
2.17665e-18
6.76938e-19
1.00549e-19
5.10737e-19
2.01094e-18
4.16836e-18
7.1507e-18
1.14241e-17
1.69127e-17
2.33534e-17
2.99159e-17
3.76896e-17
4.48176e-17
5.34304e-17
5.89635e-17
6.72213e-17
7.27209e-17
7.59157e-17
7.62576e-17
7.64891e-17
7.50296e-17
7.26499e-17
6.85982e-17
6.26374e-17
5.38961e-17
4.60369e-17
3.91187e-17
3.07711e-17
2.38161e-17
1.7331e-17
1.1244e-17
6.65104e-18
3.216e-18
1.12803e-18
1.43587e-19
8.56298e-19
3.48591e-18
7.44224e-18
1.23956e-17
1.94714e-17
2.78938e-17
3.74783e-17
4.79881e-17
6.02476e-17
7.49825e-17
8.66085e-17
9.90736e-17
1.07443e-16
1.17303e-16
1.24227e-16
1.26809e-16
1.28554e-16
1.2221e-16
1.16005e-16
1.08343e-16
1.012e-16
8.89025e-17
7.7004e-17
6.36298e-17
5.03262e-17
3.85868e-17
2.79791e-17
1.843e-17
1.086e-17
5.70045e-18
1.92682e-18
2.26742e-19
1.78549e-18
5.85804e-18
1.25653e-17
2.16746e-17
3.23434e-17
4.78078e-17
6.34035e-17
8.2569e-17
1.04983e-16
1.23402e-16
1.40877e-16
1.64185e-16
1.78539e-16
1.93872e-16
2.05583e-16
2.11014e-16
2.08763e-16
2.07953e-16
1.95526e-16
1.82347e-16
1.63233e-16
1.47476e-16
1.23079e-16
9.94107e-17
8.14742e-17
6.24739e-17
4.50658e-17
3.03995e-17
1.8744e-17
9.25929e-18
2.90171e-18
4.48028e-19
2.83652e-18
8.96833e-18
1.92528e-17
3.40508e-17
5.27378e-17
7.3873e-17
1.01822e-16
1.33632e-16
1.66045e-16
2.0118e-16
2.34457e-16
2.65855e-16
2.98841e-16
3.20137e-16
3.36112e-16
3.47847e-16
3.49604e-16
3.40198e-16
3.26411e-16
3.06457e-16
2.73569e-16
2.35597e-16
2.02219e-16
1.62336e-16
1.26038e-16
9.65605e-17
7.18483e-17
4.84944e-17
2.88598e-17
1.46516e-17
5.21254e-18
6.21389e-19
4.4252e-18
1.54791e-17
3.03553e-17
5.27507e-17
8.63106e-17
1.2179e-16
1.58867e-16
2.09156e-16
2.70984e-16
3.31385e-16
4.00312e-16
4.52578e-16
5.08626e-16
5.50848e-16
5.82797e-16
5.99914e-16
5.98563e-16
5.81343e-16
5.49471e-16
5.02593e-16
4.49314e-16
3.88652e-16
3.24085e-16
2.67348e-16
2.07996e-16
1.57332e-16
1.10286e-16
7.19469e-17
4.25551e-17
2.14699e-17
8.55936e-18
1.29974e-18
8.24055e-18
2.43198e-17
4.99421e-17
8.75183e-17
1.33338e-16
1.8994e-16
2.71095e-16
3.55972e-16
4.48422e-16
5.54238e-16
6.60045e-16
7.70059e-16
8.666e-16
9.42158e-16
9.93598e-16
1.01963e-15
1.01869e-15
9.89235e-16
9.33068e-16
8.5347e-16
7.60852e-16
6.54839e-16
5.4469e-16
4.36913e-16
3.41034e-16
2.49416e-16
1.73821e-16
1.15008e-16
6.71137e-17
3.57545e-17
1.2977e-17
2.06718e-18
1.36566e-17
4.14706e-17
8.21351e-17
1.34599e-16
2.04216e-16
3.11005e-16
4.42165e-16
5.97067e-16
7.7227e-16
9.61147e-16
1.14958e-15
1.32961e-15
1.48889e-15
1.62487e-15
1.71176e-15
1.75486e-15
1.74875e-15
1.69364e-15
1.59364e-15
1.45405e-15
1.28638e-15
1.10388e-15
9.15509e-16
7.30506e-16
5.57498e-16
4.09789e-16
2.84519e-16
1.85359e-16
1.09415e-16
5.62277e-17
1.84737e-17
3.18515e-18
2.08027e-17
6.16093e-17
1.1885e-16
2.106e-16
3.49522e-16
5.26169e-16
7.50349e-16
1.02559e-15
1.32036e-15
1.64593e-15
1.9797e-15
2.30038e-15
2.57985e-15
2.80164e-15
2.95718e-15
3.0277e-15
3.01072e-15
2.90849e-15
2.7282e-15
2.48373e-15
2.19195e-15
1.87277e-15
1.54514e-15
1.22706e-15
9.32398e-16
6.72374e-16
4.59149e-16
2.89512e-16
1.6949e-16
8.61166e-17
3.06494e-17
5.06037e-18
3.57208e-17
1.02006e-16
1.94398e-16
3.60172e-16
5.72866e-16
8.88174e-16
1.27631e-15
1.74607e-15
2.28704e-15
2.86359e-15
3.44656e-15
3.99969e-15
4.48614e-15
4.87141e-15
5.12952e-15
5.24112e-15
5.19968e-15
5.01022e-15
4.68628e-15
4.2531e-15
3.74119e-15
3.18437e-15
2.61621e-15
2.06756e-15
1.56545e-15
1.12278e-15
7.59619e-16
4.75221e-16
2.69862e-16
1.36858e-16
4.75699e-17
7.02955e-18
5.55342e-17
1.54803e-16
3.2215e-16
5.76805e-16
9.76006e-16
1.51476e-15
2.21328e-15
3.04605e-15
3.99481e-15
5.00826e-15
6.03032e-15
6.99611e-15
7.84001e-15
8.50191e-15
8.93469e-15
9.10809e-15
9.01273e-15
8.65904e-15
8.07396e-15
7.30321e-15
6.40138e-15
5.42785e-15
4.44109e-15
3.49371e-15
2.62721e-15
1.87884e-15
1.2649e-15
7.81494e-16
4.38677e-16
2.07501e-16
7.97952e-17
1.17192e-17
8.23469e-17
2.27239e-16
5.25445e-16
9.86783e-16
1.68752e-15
2.64585e-15
3.87495e-15
5.3526e-15
7.02848e-15
8.81921e-15
1.06198e-14
1.23126e-14
1.37795e-14
1.49152e-14
1.56382e-14
1.58991e-14
1.56864e-14
1.50214e-14
1.39583e-14
1.258e-14
1.09845e-14
9.27658e-15
7.55815e-15
5.91958e-15
4.43323e-15
3.15008e-15
2.09483e-15
1.29193e-15
6.9932e-16
3.20093e-16
1.22662e-16
2.15411e-17
1.32318e-16
3.76572e-16
8.68905e-16
1.7055e-15
2.94247e-15
4.64891e-15
6.84098e-15
9.48006e-15
1.24687e-14
1.56541e-14
1.88428e-14
2.18201e-14
2.43747e-14
2.63211e-14
2.752e-14
2.78915e-14
2.74253e-14
2.61667e-14
2.4222e-14
2.17434e-14
1.89075e-14
1.58996e-14
1.28971e-14
1.00548e-14
7.49451e-15
5.29902e-15
3.51057e-15
2.13448e-15
1.15637e-15
5.22888e-16
1.78557e-16
3.36535e-17
2.08377e-16
6.37256e-16
1.50847e-15
2.97204e-15
5.18787e-15
8.25567e-15
1.22054e-14
1.69609e-14
2.23348e-14
2.80393e-14
3.37149e-14
3.89696e-14
4.34234e-14
4.67508e-14
4.87154e-14
4.91919e-14
4.81828e-14
4.57828e-14
4.22011e-14
3.7718e-14
3.26524e-14
2.73328e-14
2.20678e-14
1.71221e-14
1.26996e-14
8.93432e-15
5.89014e-15
3.56836e-15
1.92317e-15
8.51905e-16
2.69521e-16
5.15537e-17
3.50053e-16
1.10018e-15
2.6408e-15
5.26923e-15
9.27412e-15
1.48542e-14
2.20514e-14
3.07064e-14
4.04514e-14
5.07367e-14
6.08892e-14
7.01893e-14
7.79546e-14
8.36162e-14
8.67786e-14
8.72514e-14
8.50846e-14
8.04745e-14
7.38315e-14
6.56743e-14
5.65802e-14
4.71315e-14
3.78647e-14
2.92314e-14
2.15704e-14
1.50962e-14
9.9004e-15
5.96603e-15
3.18715e-15
1.41862e-15
4.49114e-16
7.99286e-17
5.89855e-16
1.90426e-15
4.69297e-15
9.4839e-15
1.68456e-14
2.71451e-14
4.04288e-14
5.6352e-14
7.41792e-14
9.28477e-14
1.11089e-13
1.27581e-13
1.41098e-13
1.50655e-13
1.55601e-13
1.55675e-13
1.51044e-13
1.42125e-13
1.29717e-13
1.14786e-13
9.83769e-14
8.15211e-14
6.51504e-14
5.0031e-14
3.67227e-14
2.55626e-14
1.6674e-14
9.99484e-15
5.31868e-15
2.3434e-15
7.37075e-16
1.2853e-16
1.04262e-15
3.41814e-15
8.51223e-15
1.74106e-14
3.1205e-14
5.05399e-14
7.54077e-14
1.05036e-13
1.37936e-13
1.7203e-13
2.04921e-13
2.34176e-13
2.57611e-13
2.73535e-13
2.80912e-13
2.79446e-13
2.69584e-13
2.52205e-13
2.28873e-13
2.01382e-13
1.71625e-13
1.41427e-13
1.12401e-13
8.58404e-14
6.26588e-14
4.33749e-14
2.81361e-14
1.67748e-14
8.88494e-15
3.90894e-15
1.21938e-15
2.10891e-16
1.76159e-15
6.19202e-15
1.57887e-14
3.28191e-14
5.92797e-14
9.62788e-14
1.43545e-13
1.99291e-13
2.60507e-13
3.23082e-13
3.82496e-13
4.34292e-13
4.74609e-13
5.006e-13
5.1069e-13
5.04709e-13
4.83759e-13
4.49674e-13
4.05511e-13
3.54606e-13
3.00383e-13
2.46062e-13
1.94419e-13
1.4762e-13
1.07137e-13
7.37417e-14
4.75635e-14
2.82015e-14
1.4863e-14
6.51566e-15
2.02945e-15
3.35792e-16
3.21985e-15
1.1577e-14
3.02354e-14
6.35562e-14
1.15432e-13
1.87678e-13
2.79179e-13
3.85734e-13
5.00559e-13
6.15714e-13
7.22951e-13
8.14158e-13
8.82601e-13
9.23613e-13
9.34985e-13
9.17171e-13
8.72732e-13
8.05487e-13
7.21382e-13
6.26612e-13
5.27354e-13
4.29264e-13
3.37083e-13
2.544e-13
1.83538e-13
1.25587e-13
8.05362e-14
4.74844e-14
2.48979e-14
1.0874e-14
3.38737e-15
5.18051e-16
5.93926e-15
2.24137e-14
5.95896e-14
1.26436e-13
2.30403e-13
3.74196e-13
5.54205e-13
7.60553e-13
9.78665e-13
1.19187e-12
1.3845e-12
1.54339e-12
1.65702e-12
1.71805e-12
1.72387e-12
1.67683e-12
1.58267e-12
1.4493e-12
1.28823e-12
1.11091e-12
9.28447e-13
7.50691e-13
5.8567e-13
4.39232e-13
3.14942e-13
2.14207e-13
1.36557e-13
8.00574e-14
4.17584e-14
1.81641e-14
5.64544e-15
8.87215e-16
1.15675e-14
4.47958e-14
1.21056e-13
2.58802e-13
4.72153e-13
7.64109e-13
1.12391e-12
1.52829e-12
1.94578e-12
2.34249e-12
2.6876e-12
2.95909e-12
3.14085e-12
3.22179e-12
3.20044e-12
3.08377e-12
2.88444e-12
2.61872e-12
2.30868e-12
1.97543e-12
1.63872e-12
1.31559e-12
1.01942e-12
7.59529e-13
5.41159e-13
3.65805e-13
2.31808e-13
1.35118e-13
7.01067e-14
3.03751e-14
9.45591e-15
1.50044e-15
2.33104e-14
9.27137e-14
2.54278e-13
5.46638e-13
9.95721e-13
1.60085e-12
2.33133e-12
3.13214e-12
3.93526e-12
4.67259e-12
5.28668e-12
5.73785e-12
6.01018e-12
6.08985e-12
5.98157e-12
5.70302e-12
5.28156e-12
4.75011e-12
4.15072e-12
3.52195e-12
2.8986e-12
2.30963e-12
1.77695e-12
1.31495e-12
9.30798e-13
6.25242e-13
3.93813e-13
2.28218e-13
1.1778e-13
5.08095e-14
1.57623e-14
2.29809e-15
4.88623e-14
1.99415e-13
5.54562e-13
1.19569e-12
2.16692e-12
3.44773e-12
4.95279e-12
6.55186e-12
8.09892e-12
9.45969e-12
1.05313e-11
1.12522e-11
1.16068e-11
1.16002e-11
1.12503e-11
1.06021e-11
9.71213e-12
8.64607e-12
7.48321e-12
6.293e-12
5.13586e-12
4.06011e-12
3.10053e-12
2.2783e-12
1.60194e-12
1.06921e-12
6.69334e-13
3.85628e-13
1.9795e-13
8.50297e-14
2.63903e-14
4.1917e-15
1.0698e-13
4.48356e-13
1.26241e-12
2.71974e-12
4.88094e-12
7.64857e-12
1.07895e-11
1.39979e-11
1.69652e-11
1.94359e-11
2.12389e-11
2.22958e-11
2.26106e-11
2.2257e-11
2.12829e-11
1.98027e-11
1.79268e-11
1.5784e-11
1.35218e-11
1.12632e-11
9.11091e-12
7.14313e-12
5.41281e-12
3.94857e-12
2.75742e-12
1.82852e-12
1.13765e-12
6.5163e-13
3.32699e-13
1.42261e-13
4.39647e-14
6.45534e-15
2.46353e-13
1.06159e-12
3.01861e-12
6.46337e-12
1.14152e-11
1.75116e-11
2.41279e-11
3.05578e-11
3.61723e-11
4.05167e-11
4.33451e-11
4.46076e-11
4.44111e-11
4.29855e-11
4.04741e-11
3.71409e-11
3.31947e-11
2.88826e-11
2.4474e-11
2.01811e-11
1.61728e-11
1.25705e-11
9.44926e-12
6.84179e-12
4.74462e-12
3.12576e-12
1.93279e-12
1.10069e-12
5.58994e-13
2.37974e-13
7.34975e-14
1.16272e-14
6.02656e-13
2.67181e-12
7.63824e-12
1.61287e-11
2.7804e-11
4.14468e-11
5.54259e-11
6.81703e-11
7.8481e-11
8.56541e-11
8.94636e-11
9.00647e-11
8.78955e-11
8.35002e-11
7.73194e-11
6.98974e-11
6.16176e-11
5.29391e-11
4.43408e-11
3.61756e-11
2.87078e-11
2.21134e-11
1.64854e-11
1.18453e-11
8.15643e-12
5.33822e-12
3.28066e-12
1.85764e-12
9.3849e-13
3.97738e-13
1.22313e-13
1.80066e-14
1.58682e-12
7.23193e-12
2.06275e-11
4.24785e-11
7.07211e-11
1.01525e-10
1.30819e-10
1.55356e-10
1.73156e-10
1.8348e-10
1.86562e-10
1.83361e-10
1.75053e-10
1.62999e-10
1.48242e-10
1.3188e-10
1.14565e-10
9.71165e-11
8.03523e-11
6.4826e-11
5.09209e-11
3.88594e-11
2.87233e-11
2.04782e-11
1.40002e-11
9.10271e-12
5.56029e-12
3.13087e-12
1.57373e-12
6.64137e-13
2.03992e-13
3.16983e-14
4.57802e-12
2.13634e-11
6.00015e-11
1.18628e-10
1.88204e-10
2.57461e-10
3.17079e-10
3.61337e-10
3.8806e-10
3.97718e-10
3.92695e-10
3.75884e-10
3.50384e-10
3.19373e-10
2.84946e-10
2.49214e-10
2.13159e-10
1.78153e-10
1.45516e-10
1.16035e-10
9.01836e-11
6.81626e-11
4.99447e-11
3.53266e-11
2.39783e-11
1.54884e-11
9.40454e-12
5.26674e-12
2.63441e-12
1.10713e-12
3.38735e-13
4.98088e-14
1.48388e-11
7.01384e-11
1.897e-10
3.52481e-10
5.24303e-10
6.75383e-10
7.88104e-10
8.56307e-10
8.81717e-10
8.71278e-10
8.32969e-10
7.74601e-10
7.03898e-10
6.27301e-10
5.48456e-10
4.71145e-10
3.9646e-10
3.26469e-10
2.63105e-10
2.0727e-10
1.59337e-10
1.19246e-10
8.66008e-11
6.07653e-11
4.09488e-11
2.62792e-11
1.58638e-11
8.83764e-12
4.40014e-12
1.84217e-12
5.62852e-13
8.66081e-14
5.61142e-11
2.61531e-10
6.56538e-10
1.11554e-09
1.52689e-09
1.82844e-09
2.00359e-09
2.06198e-09
2.0274e-09
1.92482e-09
1.77631e-09
1.60185e-09
1.41702e-09
1.23336e-09
1.05567e-09
8.89971e-10
7.36247e-10
5.9697e-10
4.74453e-10
3.69114e-10
2.80579e-10
2.07876e-10
1.49611e-10
1.04136e-10
6.96745e-11
4.443e-11
2.66695e-11
1.47834e-11
7.32865e-12
3.05738e-12
9.31693e-13
1.39583e-13
2.6174e-10
1.13124e-09
2.49462e-09
3.75132e-09
4.63032e-09
5.08761e-09
5.18862e-09
5.03137e-09
4.70281e-09
4.27406e-09
3.79932e-09
3.31727e-09
2.8535e-09
2.42348e-09
2.02891e-09
1.67735e-09
1.36335e-09
1.08791e-09
8.52317e-10
6.5462e-10
4.91927e-10
3.60752e-10
2.57292e-10
1.77654e-10
1.18024e-10
7.47946e-11
4.4653e-11
2.4636e-11
1.21645e-11
5.0591e-12
1.53958e-12
2.35077e-13
1.61768e-09
5.74442e-09
1.03641e-08
1.33114e-08
1.45213e-08
1.44571e-08
1.36278e-08
1.23795e-08
1.09555e-08
9.50812e-09
8.12776e-09
6.8634e-09
5.73734e-09
4.75065e-09
3.8871e-09
3.1493e-09
2.51375e-09
1.97321e-09
1.52338e-09
1.15483e-09
8.57788e-10
6.22612e-10
4.40041e-10
3.01427e-10
1.98866e-10
1.25271e-10
7.44032e-11
4.08715e-11
2.01093e-11
8.34114e-12
2.53502e-12
3.85303e-13
1.38616e-08
3.39967e-08
4.64639e-08
4.9244e-08
4.66211e-08
4.16494e-08
3.60243e-08
3.05244e-08
2.55108e-08
2.11104e-08
1.73368e-08
1.41512e-08
1.14941e-08
9.27168e-09
7.40979e-09
5.88011e-09
4.60761e-09
3.5568e-09
2.7054e-09
2.02397e-09
1.48592e-09
1.0675e-09
7.47709e-10
5.08185e-10
3.33019e-10
2.08574e-10
1.23283e-10
6.74546e-11
3.30859e-11
1.36948e-11
4.16e-12
6.37529e-13
1.56637e-07
2.27493e-07
2.19712e-07
1.86714e-07
1.51184e-07
1.20234e-07
9.5002e-08
7.49204e-08
5.90704e-08
4.65861e-08
3.67515e-08
2.89989e-08
2.28782e-08
1.79741e-08
1.40256e-08
1.08964e-08
8.3813e-09
6.36157e-09
4.767e-09
3.51949e-09
2.55401e-09
1.81624e-09
1.26095e-09
8.50503e-10
5.53738e-10
3.44931e-10
2.02973e-10
1.10667e-10
5.41413e-11
2.23761e-11
6.79723e-12
1.04363e-12
2.08011e-06
1.6411e-06
1.06121e-06
7.08054e-07
4.86207e-07
3.43032e-07
2.47473e-07
1.81707e-07
1.35254e-07
1.01745e-07
7.71693e-08
5.89182e-08
4.51336e-08
3.45297e-08
2.63072e-08
1.99958e-08
1.51007e-08
1.12708e-08
8.32135e-09
6.06393e-09
4.35033e-09
3.06297e-09
2.10828e-09
1.41162e-09
9.13415e-10
5.66101e-10
3.31779e-10
1.80349e-10
8.80536e-11
3.63603e-11
1.10546e-11
1.70999e-12
3.00763e-05
1.13892e-05
4.98078e-06
2.59863e-06
1.51617e-06
9.52772e-07
6.30064e-07
4.32171e-07
3.04526e-07
2.18992e-07
1.59979e-07
1.1831e-07
8.79874e-08
6.55604e-08
4.88061e-08
3.6234e-08
2.68915e-08
1.97462e-08
1.43686e-08
1.03377e-08
7.33406e-09
5.11412e-09
3.49111e-09
2.32125e-09
1.49335e-09
9.21237e-10
5.37998e-10
2.91716e-10
1.42228e-10
5.87211e-11
1.78807e-11
2.77498e-12
0.000234554
0.00023562
0.0002367
0.000237655
0.000238545
0.000239399
0.000240232
0.000241052
0.000241865
0.000242674
0.000243481
0.000244286
0.000245089
0.00024589
0.000246688
0.000247483
0.000248273
0.000249057
0.000249833
0.0002506
0.000251358
0.000252103
0.000252836
0.000253554
0.000254257
0.000254931
0.000255595
0.000256242
0.000256867
0.00025747
0.000258051
0.000258607
0.000259137
0.000259642
0.00026012
0.000260571
0.000260994
0.000261389
0.000261753
0.000262063
0.000235163
0.000236061
0.000237012
0.000237898
0.000238747
0.000239574
0.000240389
0.000241197
0.000242001
0.000242803
0.000243604
0.000244405
0.000245205
0.000246004
0.0002468
0.000247594
0.000248382
0.000249165
0.000249941
0.000250708
0.000251465
0.00025221
0.000252942
0.000253661
0.000254364
0.000255038
0.000255703
0.000256351
0.000256977
0.000257581
0.000258163
0.000258721
0.000259254
0.000259762
0.000260244
0.000260701
0.000261132
0.000261537
0.000261916
0.000262233
0.000235717
0.000236558
0.000237424
0.00023825
0.000239056
0.000239852
0.000240644
0.000241434
0.000242225
0.000243016
0.000243809
0.000244603
0.000245398
0.000246192
0.000246984
0.000247774
0.00024856
0.00024934
0.000250114
0.000250879
0.000251633
0.000252377
0.000253107
0.000253824
0.000254525
0.000255199
0.000255862
0.000256507
0.000257131
0.000257733
0.000258313
0.000258868
0.000259398
0.000259904
0.000260382
0.000260834
0.000261258
0.000261652
0.000262012
0.000262311
0.00023622
0.000237038
0.000237857
0.000238641
0.000239413
0.000240182
0.000240953
0.000241725
0.000242502
0.000243282
0.000244065
0.000244851
0.000245638
0.000246426
0.000247213
0.000247998
0.00024878
0.000249556
0.000250325
0.000251086
0.000251837
0.000252576
0.000253303
0.000254015
0.000254712
0.000255383
0.000256042
0.000256682
0.000257302
0.000257899
0.000258473
0.000259024
0.000259549
0.000260048
0.00026052
0.000260966
0.000261383
0.000261773
0.000262132
0.000262436
0.000236684
0.000237491
0.000238283
0.00023904
0.000239788
0.000240536
0.000241288
0.000242045
0.000242808
0.000243576
0.00024435
0.000245127
0.000245907
0.000246688
0.000247468
0.000248247
0.000249023
0.000249793
0.000250557
0.000251313
0.000252058
0.000252792
0.000253513
0.00025422
0.000254911
0.000255577
0.00025623
0.000256864
0.000257478
0.000258069
0.000258636
0.00025918
0.000259698
0.000260191
0.000260657
0.000261095
0.000261506
0.000261889
0.000262239
0.000262529
0.000237116
0.000237918
0.000238693
0.000239434
0.000240165
0.000240896
0.000241633
0.000242377
0.000243128
0.000243886
0.00024465
0.000245418
0.00024619
0.000246963
0.000247737
0.000248509
0.000249278
0.000250042
0.0002508
0.000251549
0.000252288
0.000253015
0.00025373
0.000254429
0.000255113
0.000255774
0.00025642
0.000257047
0.000257653
0.000258237
0.000258797
0.000259334
0.000259845
0.000260331
0.00026079
0.000261223
0.000261628
0.000262004
0.00026235
0.00026264
0.000237522
0.000238322
0.000239087
0.000239815
0.000240534
0.000241254
0.000241979
0.000242712
0.000243452
0.000244201
0.000244955
0.000245715
0.000246479
0.000247245
0.000248011
0.000248776
0.000249538
0.000250295
0.000251046
0.000251788
0.00025252
0.00025324
0.000253947
0.000254639
0.000255315
0.000255969
0.000256608
0.000257228
0.000257827
0.000258403
0.000258956
0.000259485
0.00025999
0.000260469
0.000260922
0.000261348
0.000261747
0.000262118
0.000262458
0.000262739
0.000237908
0.000238706
0.000239463
0.000240184
0.000240893
0.000241603
0.000242319
0.000243043
0.000243775
0.000244514
0.000245261
0.000246013
0.000246769
0.000247527
0.000248286
0.000249044
0.000249798
0.000250548
0.000251291
0.000252026
0.00025275
0.000253463
0.000254162
0.000254847
0.000255515
0.000256162
0.000256794
0.000257406
0.000257997
0.000258566
0.000259112
0.000259634
0.000260132
0.000260604
0.000261051
0.000261471
0.000261865
0.00026223
0.000262565
0.000262843
0.000238275
0.000239072
0.000239824
0.000240538
0.00024124
0.000241943
0.000242651
0.000243367
0.000244092
0.000244824
0.000245562
0.000246307
0.000247056
0.000247807
0.000248558
0.000249309
0.000250056
0.000250798
0.000251534
0.000252261
0.000252978
0.000253683
0.000254374
0.000255051
0.000255711
0.000256352
0.000256976
0.00025758
0.000258164
0.000258726
0.000259265
0.00025978
0.000260271
0.000260738
0.000261178
0.000261593
0.000261981
0.000262341
0.000262671
0.000262943
0.000238627
0.000239423
0.00024017
0.000240879
0.000241576
0.000242273
0.000242975
0.000243684
0.000244401
0.000245126
0.000245858
0.000246596
0.000247337
0.000248081
0.000248826
0.000249569
0.000250309
0.000251044
0.000251772
0.000252492
0.000253201
0.000253899
0.000254582
0.000255251
0.000255904
0.000256538
0.000257154
0.000257751
0.000258328
0.000258882
0.000259414
0.000259923
0.000260408
0.000260869
0.000261304
0.000261713
0.000262096
0.000262451
0.000262776
0.000263044
0.000238966
0.00023976
0.000240503
0.000241208
0.0002419
0.000242592
0.000243288
0.000243991
0.000244703
0.000245421
0.000246147
0.000246878
0.000247613
0.00024835
0.000249088
0.000249824
0.000250557
0.000251285
0.000252006
0.000252718
0.00025342
0.00025411
0.000254786
0.000255447
0.000256092
0.00025672
0.000257329
0.000257919
0.000258488
0.000259036
0.000259562
0.000260064
0.000260543
0.000260998
0.000261428
0.000261832
0.00026221
0.00026256
0.000262881
0.000263144
0.000239293
0.000240085
0.000240824
0.000241526
0.000242214
0.000242901
0.000243592
0.00024429
0.000244996
0.000245709
0.000246428
0.000247153
0.000247882
0.000248613
0.000249344
0.000250073
0.000250799
0.00025152
0.000252234
0.000252939
0.000253634
0.000254317
0.000254986
0.00025564
0.000256277
0.000256897
0.0002575
0.000258083
0.000258645
0.000259187
0.000259706
0.000260203
0.000260676
0.000261126
0.00026155
0.000261949
0.000262322
0.000262669
0.000262985
0.000263244
0.00023961
0.000240399
0.000241135
0.000241833
0.000242517
0.0002432
0.000243887
0.00024458
0.000245281
0.000245988
0.000246702
0.000247421
0.000248144
0.000248869
0.000249593
0.000250316
0.000251036
0.00025175
0.000252457
0.000253156
0.000253844
0.000254519
0.000255182
0.000255828
0.000256458
0.000257072
0.000257667
0.000258244
0.0002588
0.000259335
0.000259849
0.00026034
0.000260808
0.000261252
0.000261671
0.000262065
0.000262434
0.000262777
0.000263089
0.000263344
0.000239918
0.000240705
0.000241437
0.000242131
0.000242812
0.000243491
0.000244173
0.000244862
0.000245558
0.00024626
0.000246969
0.000247683
0.0002484
0.000249118
0.000249837
0.000250554
0.000251267
0.000251975
0.000252676
0.000253367
0.000254049
0.000254718
0.000255373
0.000256012
0.000256635
0.000257242
0.000257832
0.000258402
0.000258952
0.000259481
0.000259989
0.000260475
0.000260937
0.000261376
0.000261791
0.000262181
0.000262546
0.000262884
0.000263193
0.000263444
0.000240219
0.000241001
0.000241731
0.000242421
0.000243098
0.000243773
0.000244452
0.000245136
0.000245827
0.000246525
0.000247229
0.000247937
0.000248649
0.000249362
0.000250075
0.000250786
0.000251493
0.000252194
0.000252889
0.000253574
0.000254249
0.000254912
0.000255561
0.000256193
0.000256809
0.00025741
0.000257993
0.000258557
0.000259102
0.000259625
0.000260128
0.000260608
0.000261065
0.0002615
0.00026191
0.000262296
0.000262657
0.000262991
0.000263296
0.000263545
0.000240512
0.000241291
0.000242016
0.000242704
0.000243377
0.000244049
0.000244723
0.000245403
0.00024609
0.000246783
0.000247482
0.000248186
0.000248892
0.0002496
0.000250307
0.000251012
0.000251713
0.000252409
0.000253097
0.000253777
0.000254445
0.000255102
0.000255745
0.000256371
0.00025698
0.000257575
0.000258152
0.000258711
0.000259249
0.000259767
0.000260264
0.000260739
0.000261192
0.000261622
0.000262028
0.00026241
0.000262767
0.000263099
0.000263401
0.000263646
0.000240798
0.000241573
0.000242295
0.000242979
0.000243649
0.000244317
0.000244988
0.000245664
0.000246347
0.000247035
0.00024773
0.000248428
0.000249129
0.000249832
0.000250534
0.000251234
0.000251929
0.000252619
0.000253302
0.000253975
0.000254638
0.000255289
0.000255926
0.000256545
0.000257148
0.000257737
0.000258309
0.000258862
0.000259395
0.000259908
0.000260399
0.00026087
0.000261318
0.000261744
0.000262146
0.000262524
0.000262878
0.000263206
0.000263505
0.000263748
0.000241078
0.000241849
0.000242568
0.000243249
0.000243915
0.000244579
0.000245246
0.000245918
0.000246597
0.000247282
0.000247971
0.000248665
0.000249362
0.000250059
0.000250756
0.000251451
0.000252141
0.000252825
0.000253502
0.00025417
0.000254827
0.000255472
0.000256103
0.000256717
0.000257313
0.000257897
0.000258463
0.00025901
0.000259538
0.000260046
0.000260533
0.000260999
0.000261443
0.000261864
0.000262263
0.000262638
0.000262989
0.000263314
0.00026361
0.000263851
0.000241353
0.00024212
0.000242835
0.000243512
0.000244175
0.000244836
0.000245499
0.000246167
0.000246842
0.000247522
0.000248208
0.000248897
0.000249589
0.000250282
0.000250974
0.000251663
0.000252348
0.000253027
0.000253699
0.000254361
0.000255013
0.000255652
0.000256278
0.000256885
0.000257476
0.000258055
0.000258615
0.000259158
0.00025968
0.000260183
0.000260666
0.000261127
0.000261567
0.000261985
0.00026238
0.000262752
0.0002631
0.000263423
0.000263717
0.000263955
0.000241623
0.000242385
0.000243096
0.00024377
0.00024443
0.000245087
0.000245747
0.000246411
0.000247082
0.000247758
0.00024844
0.000249125
0.000249812
0.0002505
0.000251187
0.000251872
0.000252552
0.000253226
0.000253892
0.000254549
0.000255195
0.000255829
0.00025645
0.000257052
0.000257637
0.00025821
0.000258766
0.000259303
0.000259821
0.000260319
0.000260797
0.000261255
0.000261691
0.000262105
0.000262497
0.000262866
0.000263211
0.000263532
0.000263824
0.00026406
0.000241888
0.000242645
0.000243353
0.000244023
0.00024468
0.000245333
0.000245989
0.000246651
0.000247317
0.00024799
0.000248667
0.000249348
0.000250031
0.000250714
0.000251397
0.000252076
0.000252751
0.00025342
0.000254082
0.000254734
0.000255375
0.000256003
0.000256619
0.000257216
0.000257796
0.000258364
0.000258915
0.000259447
0.00025996
0.000260454
0.000260928
0.000261381
0.000261814
0.000262225
0.000262613
0.00026298
0.000263323
0.000263642
0.000263932
0.000264166
0.000242148
0.000242901
0.000243605
0.000244272
0.000244925
0.000245575
0.000246228
0.000246885
0.000247548
0.000248217
0.00024889
0.000249567
0.000250245
0.000250925
0.000251602
0.000252277
0.000252948
0.000253612
0.000254268
0.000254915
0.000255552
0.000256175
0.000256786
0.000257378
0.000257952
0.000258516
0.000259062
0.00025959
0.000260099
0.000260588
0.000261058
0.000261508
0.000261937
0.000262344
0.00026273
0.000263094
0.000263436
0.000263752
0.000264041
0.000264274
0.000242405
0.000243153
0.000243853
0.000244517
0.000245166
0.000245813
0.000246462
0.000247116
0.000247775
0.00024844
0.000249109
0.000249782
0.000250456
0.000251131
0.000251805
0.000252475
0.000253141
0.000253801
0.000254453
0.000255095
0.000255726
0.000256345
0.000256951
0.000257538
0.000258108
0.000258666
0.000259208
0.000259731
0.000260236
0.000260722
0.000261188
0.000261634
0.000262059
0.000262464
0.000262848
0.000263209
0.000263549
0.000263864
0.000264152
0.000264384
0.000242657
0.000243401
0.000244098
0.000244758
0.000245404
0.000246047
0.000246693
0.000247343
0.000247999
0.00024866
0.000249325
0.000249994
0.000250664
0.000251335
0.000252004
0.00025267
0.000253332
0.000253987
0.000254634
0.000255272
0.000255898
0.000256513
0.000257114
0.000257697
0.000258261
0.000258816
0.000259353
0.000259872
0.000260372
0.000260854
0.000261316
0.000261759
0.000262182
0.000262584
0.000262965
0.000263325
0.000263663
0.000263977
0.000264264
0.000264495
0.000242907
0.000243646
0.000244338
0.000244995
0.000245637
0.000246277
0.000246919
0.000247566
0.000248219
0.000248876
0.000249538
0.000250202
0.000250869
0.000251536
0.000252201
0.000252863
0.00025352
0.000254171
0.000254813
0.000255446
0.000256068
0.000256678
0.000257275
0.000257853
0.000258414
0.000258964
0.000259496
0.000260011
0.000260508
0.000260986
0.000261445
0.000261884
0.000262304
0.000262704
0.000263083
0.000263441
0.000263778
0.000264091
0.000264377
0.000264608
0.000243152
0.000243887
0.000244575
0.000245228
0.000245868
0.000246504
0.000247143
0.000247786
0.000248435
0.000249089
0.000249747
0.000250408
0.000251071
0.000251733
0.000252395
0.000253052
0.000253705
0.000254352
0.00025499
0.000255619
0.000256237
0.000256842
0.000257435
0.000258009
0.000258565
0.00025911
0.000259639
0.00026015
0.000260643
0.000261118
0.000261573
0.00026201
0.000262427
0.000262824
0.000263201
0.000263558
0.000263893
0.000264206
0.000264492
0.000264723
0.000243395
0.000244124
0.000244809
0.000245459
0.000246095
0.000246728
0.000247363
0.000248004
0.000248649
0.000249299
0.000249953
0.000250611
0.00025127
0.000251929
0.000252586
0.00025324
0.000253889
0.000254531
0.000255165
0.00025579
0.000256403
0.000257005
0.000257593
0.000258163
0.000258715
0.000259256
0.000259781
0.000260289
0.000260778
0.000261249
0.000261702
0.000262135
0.00026255
0.000262945
0.00026332
0.000263675
0.00026401
0.000264322
0.000264608
0.000264839
0.000243634
0.000244359
0.00024504
0.000245686
0.000246319
0.000246949
0.000247581
0.000248218
0.00024886
0.000249506
0.000250157
0.000250811
0.000251466
0.000252121
0.000252775
0.000253425
0.00025407
0.000254708
0.000255338
0.000255959
0.000256569
0.000257166
0.00025775
0.000258317
0.000258864
0.000259402
0.000259923
0.000260427
0.000260913
0.00026138
0.00026183
0.000262261
0.000262673
0.000263066
0.000263439
0.000263794
0.000264127
0.00026444
0.000264726
0.000264957
0.000243871
0.000244591
0.000245268
0.000245911
0.00024654
0.000247167
0.000247796
0.000248429
0.000249068
0.000249711
0.000250359
0.000251009
0.00025166
0.000252312
0.000252962
0.000253608
0.000254249
0.000254884
0.00025551
0.000256127
0.000256732
0.000257326
0.000257906
0.000258469
0.000259012
0.000259546
0.000260064
0.000260564
0.000261047
0.000261511
0.000261958
0.000262386
0.000262796
0.000263187