/*--------------------------------*- C++ -*----------------------------------*\
  =========                 |
  \\      /  F ield         | OpenFOAM: The Open Source CFD Toolbox
   \\    /   O peration     | Website:  https://openfoam.org
    \\  /    A nd           | Version:  8
     \\/     M anipulation  |
\*---------------------------------------------------------------------------*/
FoamFile
{
    version     2.0;
    format      ascii;
    class       volScalarField;
    location    "20000/gas";
    object      CO2;
}
// * * * * * * * * * * * * * * * * * * * * * * * * * * * * * * * * * * * * * //

dimensions      [0 0 0 0 0 0 0];

internalField   nonuniform List<scalar> 
16000
(
1.74193e-53
1.76315e-53
9.88053e-53
3.62465e-54
3.18159e-51
8.7937e-52
2.96941e-51
3.19814e-52
1.16523e-49
2.24828e-50
2.41849e-50
3.68405e-51
3.02756e-48
6.32261e-49
3.32397e-49
3.41515e-50
4.24037e-47
9.60247e-48
4.92396e-48
4.75942e-49
4.56242e-46
1.03366e-46
7.55482e-47
4.23986e-48
6.47039e-45
1.64624e-45
1.13036e-45
6.1319e-47
8.71655e-44
2.90207e-44
1.29405e-44
6.34403e-46
1.06335e-42
5.64322e-43
1.62181e-43
1.16062e-44
1.51709e-41
6.47167e-42
1.94652e-42
1.46461e-43
1.71444e-40
6.36509e-41
2.33148e-41
1.62105e-42
2.16623e-39
1.13986e-39
2.44468e-40
1.23096e-41
2.27924e-38
1.28822e-38
3.7504e-39
2.0073e-40
3.91566e-37
1.72587e-37
4.0161e-38
1.84578e-39
6.57734e-36
2.28042e-36
4.24621e-37
2.9455e-38
5.69338e-35
2.05521e-35
3.46922e-36
2.61982e-37
7.92869e-34
3.13171e-34
5.63692e-35
2.29517e-36
1.05512e-32
4.25988e-33
9.17829e-34
4.02818e-35
1.42702e-31
5.27419e-32
1.13315e-32
7.7775e-34
1.43821e-30
7.17459e-31
8.93487e-32
4.75415e-33
2.00076e-29
7.18686e-30
1.36507e-30
6.27036e-32
3.27251e-28
1.19772e-28
2.56345e-29
1.0848e-30
3.02882e-27
1.20573e-27
2.18624e-28
1.00798e-29
2.49538e-26
1.58988e-26
3.95069e-27
1.90215e-28
2.66982e-25
1.5416e-25
3.94659e-26
3.32943e-27
3.3457e-24
1.54281e-24
6.33563e-25
4.56648e-26
4.07935e-23
1.5143e-23
9.18535e-24
4.72727e-25
6.18755e-22
2.85756e-22
1.30417e-22
6.56269e-24
7.22402e-21
3.27879e-21
1.90402e-21
6.2616e-23
8.26738e-20
5.88887e-20
4.29849e-20
1.18941e-21
9.22959e-19
1.3397e-18
7.46004e-19
2.08469e-20
1.53647e-17
2.0451e-17
1.37757e-17
4.3946e-19
2.56597e-16
2.73976e-16
2.34547e-16
1.17126e-17
4.40622e-15
5.52542e-15
5.41292e-15
4.65139e-16
7.48303e-14
1.12701e-13
1.48092e-13
1.89008e-14
1.24222e-12
2.2959e-12
4.18315e-12
1.26038e-12
1.98708e-11
4.60046e-11
1.19803e-10
9.65451e-11
2.99955e-10
8.88997e-10
3.43642e-09
7.87141e-09
4.12856e-09
1.60094e-08
9.55333e-08
6.62929e-07
4.8671e-08
2.49084e-07
2.31241e-06
2.95218e-05
3.76005e-21
8.60427e-20
3.44446e-19
6.5347e-19
1.2016e-18
1.85098e-18
2.55936e-18
3.35381e-18
4.74591e-18
6.27451e-18
7.65634e-18
8.70381e-18
1.05965e-17
1.14802e-17
1.15317e-17
1.32068e-17
1.30904e-17
1.30302e-17
1.14705e-17
1.00617e-17
9.85575e-18
8.16536e-18
6.92582e-18
5.76883e-18
4.67012e-18
3.53768e-18
2.49019e-18
1.58047e-18
9.33614e-19
3.54398e-19
7.49444e-20
2.26663e-21
8.49588e-20
7.56696e-19
1.91151e-18
3.26189e-18
5.17517e-18
7.80245e-18
1.17489e-17
1.60782e-17
2.04225e-17
2.60909e-17
2.98836e-17
3.65858e-17
4.09079e-17
4.24454e-17
4.62978e-17
4.92546e-17
5.00419e-17
4.70487e-17
4.72432e-17
4.1849e-17
3.67246e-17
3.46512e-17
2.97521e-17
2.49284e-17
2.03768e-17
1.52958e-17
1.09794e-17
7.6723e-18
4.16805e-18
2.14548e-18
6.66233e-19
4.45116e-20
3.57748e-19
1.92676e-18
4.87982e-18
8.95624e-18
1.42684e-17
2.05829e-17
2.84134e-17
3.65231e-17
4.72267e-17
5.71789e-17
7.08565e-17
8.38478e-17
9.0985e-17
1.00323e-16
1.05226e-16
1.06479e-16
1.04991e-16
1.10877e-16
1.03923e-16
9.4917e-17
8.55506e-17
7.37097e-17
6.58262e-17
5.54034e-17
4.3043e-17
3.46151e-17
2.60393e-17
1.76091e-17
1.07926e-17
4.96902e-18
1.65068e-18
2.02373e-19
9.40019e-19
4.39571e-18
9.32941e-18
1.81909e-17
2.80848e-17
4.04985e-17
5.71179e-17
7.66392e-17
9.66762e-17
1.16312e-16
1.40835e-16
1.54018e-16
1.66184e-16
1.88176e-16
1.97941e-16
2.04276e-16
2.04198e-16
2.04665e-16
1.98193e-16
1.85053e-16
1.60302e-16
1.41155e-16
1.21195e-16
1.00211e-16
8.38948e-17
6.44525e-17
4.62742e-17
3.16321e-17
1.93014e-17
1.02957e-17
3.39302e-18
3.2693e-19
1.87126e-18
8.82181e-18
1.86229e-17
3.12974e-17
5.07671e-17
7.61565e-17
1.03774e-16
1.41178e-16
1.73661e-16
2.07732e-16
2.38441e-16
2.77209e-16
3.01133e-16
3.21038e-16
3.43242e-16
3.52973e-16
3.58852e-16
3.53131e-16
3.39567e-16
3.085e-16
2.83413e-16
2.52325e-16
2.17429e-16
1.80892e-16
1.42185e-16
1.11193e-16
8.25624e-17
5.5276e-17
3.35248e-17
1.68438e-17
5.33874e-18
7.63291e-19
4.3037e-18
1.62172e-17
3.41345e-17
5.86917e-17
9.14123e-17
1.34722e-16
1.85517e-16
2.38237e-16
2.99391e-16
3.55784e-16
4.26641e-16
4.73288e-16
5.3455e-16
5.79614e-16
6.07993e-16
6.06928e-16
6.08375e-16
5.89681e-16
5.66259e-16
5.37446e-16
4.90599e-16
4.21454e-16
3.58557e-16
3.04149e-16
2.3492e-16
1.80335e-16
1.32873e-16
8.85548e-17
5.11611e-17
2.48999e-17
7.77402e-18
1.01446e-18
6.79472e-18
2.90359e-17
5.91666e-17
9.87364e-17
1.58767e-16
2.25412e-16
2.95285e-16
3.83725e-16
4.85131e-16
6.04908e-16
6.91257e-16
7.70225e-16
8.37414e-16
9.15229e-16
9.78446e-16
1.00328e-15
1.00837e-15
9.51046e-16
9.09546e-16
8.40413e-16
7.77204e-16
6.92529e-16
6.02683e-16
4.93963e-16
3.8963e-16
2.99577e-16
2.19651e-16
1.45349e-16
8.57642e-17
4.25602e-17
1.52152e-17
1.63356e-18
1.318e-17
4.73248e-17
9.84533e-17
1.71923e-16
2.52639e-16
3.67003e-16
4.98714e-16
6.60219e-16
8.38477e-16
9.89794e-16
1.11828e-15
1.30785e-15
1.42125e-15
1.55462e-15
1.63326e-15
1.67318e-15
1.62931e-15
1.62356e-15
1.51718e-15
1.41749e-15
1.28198e-15
1.15796e-15
9.52764e-16
7.74881e-16
6.42956e-16
4.92889e-16
3.56447e-16
2.39619e-16
1.49329e-16
7.49175e-17
2.16914e-17
3.27065e-18
2.20241e-17
7.34326e-17
1.5662e-16
2.69728e-16
4.17183e-16
5.91574e-16
8.334e-16
1.07473e-15
1.33528e-15
1.58739e-15
1.88054e-15
2.13338e-15
2.37225e-15
2.52813e-15
2.65529e-15
2.7332e-15
2.75812e-15
2.6775e-15
2.56317e-15
2.39322e-15
2.13817e-15
1.82596e-15
1.59502e-15
1.27155e-15
9.80887e-16
7.49226e-16
5.54616e-16
3.7669e-16
2.25413e-16
1.14368e-16
3.6842e-17
4.49779e-18
3.42086e-17
1.15542e-16
2.33349e-16
4.19524e-16
6.9744e-16
9.90089e-16
1.28247e-15
1.68101e-15
2.16911e-15
2.72712e-15
3.22837e-15
3.63573e-15
4.05516e-15
4.38103e-15
4.62855e-15
4.73773e-15
4.72963e-15
4.57662e-15
4.32226e-15
3.96517e-15
3.51692e-15
3.04113e-15
2.52184e-15
2.09273e-15
1.6193e-15
1.23838e-15
8.72197e-16
5.67898e-16
3.21767e-16
1.60978e-16
6.73857e-17
1.00601e-17
6.79899e-17
1.99425e-16
3.95356e-16
7.068e-16
1.06778e-15
1.52155e-15
2.19411e-15
2.85893e-15
3.61389e-15
4.41011e-15
5.27331e-15
6.14404e-15
6.91841e-15
7.49743e-15
7.88249e-15
8.08488e-15
8.05257e-15
7.80737e-15
7.34864e-15
6.69965e-15
5.96158e-15
5.12668e-15
4.24602e-15
3.39418e-15
2.65675e-15
1.90613e-15
1.32388e-15
9.00501e-16
5.24418e-16
2.71014e-16
1.00977e-16
1.62557e-17
1.07669e-16
3.19366e-16
6.58257e-16
1.06838e-15
1.64787e-15
2.49756e-15
3.50995e-15
4.78465e-15
6.21823e-15
7.70378e-15
9.22139e-15
1.06474e-14
1.19112e-14
1.295e-14
1.36166e-14
1.39197e-14
1.3832e-14
1.33611e-14
1.25332e-14
1.14084e-14
1.00724e-14
8.61624e-15
7.12708e-15
5.67361e-15
4.32498e-15
3.17714e-15
2.18504e-15
1.39187e-15
8.59862e-16
4.44128e-16
1.39059e-16
2.48394e-17
1.57808e-16
4.95624e-16
9.68286e-16
1.71367e-15
2.79352e-15
4.23724e-15
6.06067e-15
8.24914e-15
1.06531e-14
1.32996e-14
1.59536e-14
1.84829e-14
2.06796e-14
2.24061e-14
2.35596e-14
2.40406e-14
2.3828e-14
2.29459e-14
2.14568e-14
1.94743e-14
1.71377e-14
1.46041e-14
1.20224e-14
9.52491e-15
7.22678e-15
5.21345e-15
3.55868e-15
2.23795e-15
1.3215e-15
6.81638e-16
2.37517e-16
3.93345e-17
3.0171e-16
8.08981e-16
1.5584e-15
2.90482e-15
4.69473e-15
7.28247e-15
1.04294e-14
1.42674e-14
1.85878e-14
2.32137e-14
2.7866e-14
3.22491e-14
3.60525e-14
3.90124e-14
4.09281e-14
4.16625e-14
4.11803e-14
3.95354e-14
3.68488e-14
3.33315e-14
2.92292e-14
2.48094e-14
2.03327e-14
1.60344e-14
1.21287e-14
8.68307e-15
5.86381e-15
3.69511e-15
2.10106e-15
1.04026e-15
3.56416e-16
5.2188e-17
4.49301e-16
1.23316e-15
2.5493e-15
4.69165e-15
7.96669e-15
1.23772e-14
1.81035e-14
2.48959e-14
3.2584e-14
4.07525e-14
4.89285e-14
5.65781e-14
6.31674e-14
6.82277e-14
7.14039e-14
7.24832e-14
7.14257e-14
6.83409e-14
6.3472e-14
5.72002e-14
4.99656e-14
4.22363e-14
3.44644e-14
2.70486e-14
2.02938e-14
1.451e-14
9.77688e-15
6.01222e-15
3.29474e-15
1.57778e-15
6.09214e-16
9.36407e-17
6.32026e-16
1.88909e-15
4.30592e-15
8.06147e-15
1.38282e-14
2.17227e-14
3.18342e-14
4.39373e-14
5.75862e-14
7.20673e-14
8.64954e-14
9.9899e-14
1.11327e-13
1.19958e-13
1.25183e-13
1.26667e-13
1.24386e-13
1.18565e-13
1.09689e-13
9.8449e-14
8.56368e-14
7.2076e-14
5.85505e-14
4.57425e-14
3.41869e-14
2.42566e-14
1.61235e-14
9.92726e-15
5.40803e-15
2.47595e-15
9.58416e-16
1.633e-16
1.03845e-15
2.98203e-15
7.11916e-15
1.40302e-14
2.42952e-14
3.84265e-14
5.65424e-14
7.82575e-14
1.02696e-13
1.28529e-13
1.54113e-13
1.77676e-13
1.97513e-13
2.12186e-13
2.2067e-13
2.22449e-13
2.17577e-13
2.06523e-13
1.90234e-13
1.69983e-13
1.47191e-13
1.23311e-13
9.96999e-14
7.7517e-14
5.76543e-14
4.06989e-14
2.69302e-14
1.63827e-14
8.87384e-15
3.98801e-15
1.40924e-15
2.53993e-16
1.80826e-15
5.24909e-15
1.25129e-14
2.46858e-14
4.31509e-14
6.87274e-14
1.01567e-13
1.40907e-13
1.85038e-13
2.31435e-13
2.77027e-13
3.18563e-13
3.52989e-13
3.77802e-13
3.91301e-13
3.92737e-13
3.824e-13
3.61255e-13
3.31167e-13
2.94475e-13
2.53741e-13
2.11525e-13
1.70171e-13
1.31644e-13
9.74157e-14
6.84193e-14
4.50611e-14
2.72935e-14
1.47129e-14
6.53396e-15
2.04439e-15
3.89709e-16
2.6191e-15
9.03272e-15
2.19409e-14
4.40501e-14
7.77425e-14
1.24634e-13
1.84897e-13
2.56926e-13
3.37328e-13
4.2123e-13
5.02852e-13
5.76214e-13
6.35857e-13
6.77454e-13
6.98251e-13
6.97275e-13
6.75424e-13
6.34697e-13
5.78745e-13
5.11887e-13
4.38739e-13
3.63809e-13
2.9114e-13
2.24038e-13
1.64911e-13
1.15212e-13
7.54832e-14
4.5477e-14
2.43187e-14
1.08308e-14
3.51912e-15
5.99199e-16
4.76564e-15
1.58802e-14
3.93826e-14
7.99914e-14
1.42491e-13
2.29802e-13
3.4191e-13
4.75304e-13
6.2312e-13
7.75847e-13
9.22538e-13
1.05219e-12
1.15509e-12
1.22386e-12
1.25419e-12
1.24516e-12
1.19907e-12
1.12011e-12
1.01536e-12
8.92849e-13
7.60873e-13
6.27358e-13
4.99241e-13
3.8205e-13
2.79677e-13
1.94325e-13
1.26629e-13
7.5892e-14
4.04091e-14
1.78436e-14
5.42929e-15
9.86413e-16
8.97654e-15
2.86684e-14
7.20759e-14
1.48355e-13
2.66717e-13
4.32258e-13
6.4398e-13
8.93977e-13
1.16817e-12
1.4478e-12
1.7121e-12
1.94089e-12
2.11701e-12
2.2282e-12
2.26809e-12
2.23673e-12
2.13967e-12
1.98557e-12
1.78825e-12
1.56251e-12
1.32331e-12
1.08451e-12
8.57928e-13
6.52732e-13
4.75101e-13
3.28255e-13
2.12725e-13
1.26825e-13
6.72327e-14
2.96113e-14
9.23517e-15
1.56366e-15
1.48636e-14
5.26415e-14
1.35363e-13
2.83028e-13
5.12846e-13
8.33194e-13
1.23953e-12
1.7135e-12
2.22628e-12
2.74047e-12
3.21682e-12
3.61858e-12
3.91598e-12
4.08922e-12
4.12997e-12
4.04184e-12
3.8376e-12
3.5351e-12
3.16115e-12
2.7431e-12
2.30769e-12
1.87905e-12
1.47719e-12
1.11706e-12
8.08257e-13
5.5521e-13
3.57782e-13
2.12172e-13
1.11964e-13
4.92119e-14
1.54387e-14
2.64802e-15
2.73789e-14
9.95135e-14
2.62645e-13
5.55805e-13
1.01259e-12
1.64602e-12
2.44105e-12
3.35437e-12
4.32079e-12
5.2676e-12
6.12331e-12
6.82179e-12
7.31257e-12
7.56548e-12
7.57229e-12
7.34668e-12
6.91713e-12
6.32021e-12
5.60769e-12
4.82978e-12
4.0341e-12
3.26227e-12
2.5477e-12
1.91437e-12
1.37667e-12
9.40059e-13
6.02314e-13
3.5525e-13
1.86572e-13
8.17315e-14
2.55829e-14
4.11355e-15
5.07885e-14
1.95327e-13
5.2573e-13
1.12361e-12
2.05339e-12
3.3317e-12
4.91372e-12
6.69712e-12
8.54069e-12
1.02918e-11
1.18155e-11
1.30079e-11
1.37868e-11
1.41101e-11
1.39786e-11
1.343e-11
1.25269e-11
1.13438e-11
9.9796e-12
8.52596e-12
7.06686e-12
5.67323e-12
4.39989e-12
3.28428e-12
2.34687e-12
1.59283e-12
1.01462e-12
5.95158e-13
3.1105e-13
1.35802e-13
4.25791e-14
6.90605e-15
1.00289e-13
3.97083e-13
1.08758e-12
2.34273e-12
4.28414e-12
6.91913e-12
1.01196e-11
1.36429e-11
1.71824e-11
2.04282e-11
2.31191e-11
2.50904e-11
2.62423e-11
2.65257e-11
2.59745e-11
2.46834e-11
2.27861e-11
2.04327e-11
1.78101e-11
1.5084e-11
1.24006e-11
9.87856e-12
7.60576e-12
5.63833e-12
4.00278e-12
2.69987e-12
1.70968e-12
9.97332e-13
5.18681e-13
2.25607e-13
7.05082e-14
1.04056e-14
2.05682e-13
8.38145e-13
2.33301e-12
5.0537e-12
9.21955e-12
1.47706e-11
2.13488e-11
2.83773e-11
3.51917e-11
4.1174e-11
4.58512e-11
4.89475e-11
5.04177e-11
5.02481e-11
4.85646e-11
4.55928e-11
4.16114e-11
3.69171e-11
3.18592e-11
2.67325e-11
2.17863e-11
1.72149e-11
1.31537e-11
9.68184e-12
6.82742e-12
4.57606e-12
2.88057e-12
1.67109e-12
8.6482e-13
3.74819e-13
1.17258e-13
1.85927e-14
4.40531e-13
1.8451e-12
5.21317e-12
1.13225e-11
2.05238e-11
3.24763e-11
4.61943e-11
6.03079e-11
7.33942e-11
8.42578e-11
9.20981e-11
9.65601e-11
9.77301e-11
9.58735e-11
9.13156e-11
8.45884e-11
7.62479e-11
6.68686e-11
5.70919e-11
4.74312e-11
3.8301e-11
3.0007e-11
2.27472e-11
1.66203e-11
1.16402e-11
7.75199e-12
4.85069e-12
2.79851e-12
1.44121e-12
6.22275e-13
1.94117e-13
2.86632e-14
9.88584e-13
4.26224e-12
1.22031e-11
2.64615e-11
4.74061e-11
7.36896e-11
1.02632e-10
1.31016e-10
1.55871e-10
1.75014e-10
1.87261e-10
1.92397e-10
1.91002e-10
1.84128e-10
1.72544e-10
1.57525e-10
1.40095e-10
1.21343e-10
1.02423e-10
8.41996e-11
6.73357e-11
5.22858e-11
3.93116e-11
2.85066e-11
1.98258e-11
1.31183e-11
8.15974e-12
4.68194e-12
2.39958e-12
1.03235e-12
3.22335e-13
5.15259e-14
2.34283e-12
1.04143e-11
3.01244e-11
6.48183e-11
1.13963e-10
1.7285e-10
2.34322e-10
2.91003e-10
3.37011e-10
3.68789e-10
3.85152e-10
3.86865e-10
3.76069e-10
3.55593e-10
3.27387e-10
2.94215e-10
2.57898e-10
2.20428e-10
1.83809e-10
1.49435e-10
1.18298e-10
9.10089e-11
6.78484e-11
4.88203e-11
3.37139e-11
2.21636e-11
1.37044e-11
7.82123e-12
3.98967e-12
1.71011e-12
5.32385e-13
7.91308e-14
5.92817e-12
2.71816e-11
7.90218e-11
1.67232e-10
2.85918e-10
4.1968e-10
5.49946e-10
6.60656e-10
7.41339e-10
7.87687e-10
8.0054e-10
7.84324e-10
7.45243e-10
6.89794e-10
6.23143e-10
5.50595e-10
4.75221e-10
4.00482e-10
3.29692e-10
2.64929e-10
2.07518e-10
1.58122e-10
1.1686e-10
8.34262e-11
5.72014e-11
3.73616e-11
2.2967e-11
1.30389e-11
6.62107e-12
2.82825e-12
8.80522e-13
1.4041e-13
1.62412e-11
7.67029e-11
2.22114e-10
4.56552e-10
7.50227e-10
1.05536e-09
1.32635e-09
1.53175e-09
1.65726e-09
1.70312e-09
1.67942e-09
1.60115e-09
1.48368e-09
1.34248e-09
1.18835e-09
1.03122e-09
8.75572e-10
7.26965e-10
5.90467e-10
4.68746e-10
3.63162e-10
2.73997e-10
2.00706e-10
1.42143e-10
9.67645e-11
6.27979e-11
3.83825e-11
2.16804e-11
1.09615e-11
4.66668e-12
1.44942e-12
2.16594e-13
4.90698e-11
2.37466e-10
6.74684e-10
1.32384e-09
2.06089e-09
2.7474e-09
3.28327e-09
3.62119e-09
3.75851e-09
3.72153e-09
3.55011e-09
3.28464e-09
2.96269e-09
2.61711e-09
2.26726e-09
1.93036e-09
1.61101e-09
1.31691e-09
1.05476e-09
8.26861e-10
6.33423e-10
4.73098e-10
3.43436e-10
2.41279e-10
1.63082e-10
1.05169e-10
6.39229e-11
3.59324e-11
1.80935e-11
7.67986e-12
2.38407e-12
3.7189e-13
1.67701e-10
8.20824e-10
2.23151e-09
4.08535e-09
5.92335e-09
7.39095e-09
8.32277e-09
8.70786e-09
8.62724e-09
8.20041e-09
7.54366e-09
6.75659e-09
5.9228e-09
5.10144e-09
4.32067e-09
3.60613e-09
2.95604e-09
2.37765e-09
1.877e-09
1.45254e-09
1.09998e-09
8.13181e-10
5.84968e-10
4.07676e-10
2.73611e-10
1.75359e-10
1.06015e-10
5.93213e-11
2.9759e-11
1.25973e-11
3.90576e-12
5.95211e-13
6.72865e-10
3.23065e-09
8.07528e-09
1.34081e-08
1.77638e-08
2.04756e-08
2.15279e-08
2.12284e-08
1.99833e-08
1.81643e-08
1.60638e-08
1.39035e-08
1.18277e-08
9.92314e-09
8.2091e-09
6.71167e-09
5.40083e-09
4.27246e-09
3.32325e-09
2.53809e-09
1.89971e-09
1.38997e-09
9.90835e-10
6.85053e-10
4.56593e-10
2.90887e-10
1.74963e-10
9.74863e-11
4.87404e-11
2.05858e-11
6.38168e-12
9.92963e-13
3.3469e-09
1.47265e-08
3.19727e-08
4.65994e-08
5.52894e-08
5.81039e-08
5.65451e-08
5.22448e-08
4.64994e-08
4.02761e-08
3.41729e-08
2.8537e-08
2.35353e-08
1.92181e-08
1.55184e-08
1.24221e-08
9.80883e-09
7.62923e-09
5.84577e-09
4.40568e-09
3.25911e-09
2.36015e-09
1.66732e-09
1.14378e-09
7.57216e-10
4.7965e-10
2.87122e-10
1.59359e-10
7.94411e-11
3.34922e-11
1.03812e-11
1.60517e-12
2.20195e-08
7.82277e-08
1.37573e-07
1.70027e-07
1.7713e-07
1.6767e-07
1.4988e-07
1.28931e-07
1.08102e-07
8.90128e-08
7.23416e-08
5.82295e-08
4.65378e-08
3.69656e-08
2.91221e-08
2.28161e-08
1.76762e-08
1.35158e-08
1.02013e-08
7.58686e-09
5.54736e-09
3.97653e-09
2.78447e-09
1.89565e-09
1.24687e-09
7.85542e-10
4.68152e-10
2.58937e-10
1.28765e-10
5.42197e-11
1.68199e-11
2.64045e-12
1.97299e-07
4.78631e-07
6.33861e-07
6.426e-07
5.77741e-07
4.87208e-07
3.96955e-07
3.16719e-07
2.49516e-07
1.95038e-07
1.51718e-07
1.17686e-07
9.11674e-08
7.0421e-08
5.41197e-08
4.14964e-08
3.1545e-08
2.37142e-08
1.76335e-08
1.29436e-08
9.35638e-09
6.64056e-09
4.61019e-09
3.1157e-09
2.03679e-09
1.27673e-09
7.57828e-10
4.17904e-10
2.07416e-10
8.72811e-11
2.71081e-11
4.25314e-12
2.27816e-06
3.27169e-06
3.05575e-06
2.47193e-06
1.88598e-06
1.40601e-06
1.03954e-06
7.67468e-07
5.67604e-07
4.21149e-07
3.13702e-07
2.34652e-07
1.76254e-07
1.32458e-07
9.93367e-08
7.45522e-08
5.56351e-08
4.11338e-08
3.01438e-08
2.18464e-08
1.56177e-08
1.09787e-08
7.55959e-09
5.07366e-09
3.29772e-09
2.05756e-09
1.21698e-09
6.69437e-10
3.31809e-10
1.39626e-10
4.34585e-11
6.90357e-12
3.04946e-05
2.39172e-05
1.49231e-05
9.4096e-06
6.03674e-06
3.96014e-06
2.65494e-06
1.81495e-06
1.26192e-06
8.90316e-07
6.36186e-07
4.59798e-07
3.35123e-07
2.45238e-07
1.79631e-07
1.31967e-07
9.67648e-08
7.04082e-08
5.08806e-08
3.64284e-08
2.57681e-08
1.79498e-08
1.22643e-08
8.17813e-09
5.2875e-09
3.28538e-09
1.93728e-09
1.0636e-09
5.26789e-10
2.21826e-10
6.92316e-11
1.10366e-11
0.000442069
0.000167311
7.01224e-05
3.41362e-05
1.83878e-05
1.06489e-05
6.5047e-06
4.13775e-06
2.71691e-06
1.83002e-06
1.25886e-06
8.81447e-07
6.24277e-07
4.45505e-07
3.1935e-07
2.29442e-07
1.65604e-07
1.18722e-07
8.46758e-08
5.99328e-08
4.19752e-08
2.89919e-08
1.96671e-08
1.30368e-08
8.38881e-09
5.19355e-09
3.05482e-09
1.6749e-09
8.29469e-10
3.49776e-10
1.09569e-10
1.76774e-11
0.0131495
0.0131974
0.0132464
0.0132903
0.0133318
0.013372
0.0134118
0.0134515
0.0134914
0.0135316
0.0135722
0.0136133
0.013655
0.0136972
0.0137398
0.013783
0.0138267
0.0138709
0.0139154
0.0139604
0.0140057
0.0140513
0.0140972
0.0141433
0.0141895
0.0142351
0.0142813
0.0143276
0.0143738
0.0144198
0.0144655
0.0145108
0.0145555
0.0145996
0.0146429
0.0146853
0.0147265
0.0147664
0.0148046
0.0148382
0.0131745
0.0132153
0.0132588
0.0132998
0.0133396
0.0133787
0.0134178
0.0134569
0.0134964
0.0135364
0.0135768
0.0136177
0.0136592
0.0137013
0.0137439
0.0137871
0.0138307
0.0138749
0.0139194
0.0139644
0.0140097
0.0140554
0.0141013
0.0141474
0.0141938
0.0142395
0.0142858
0.0143322
0.0143786
0.0144248
0.0144707
0.0145162
0.0145613
0.0146058
0.0146497
0.0146927
0.0147347
0.0147757
0.0148152
0.0148496
0.0131966
0.0132351
0.013275
0.0133134
0.0133513
0.0133892
0.0134273
0.0134658
0.0135047
0.0135442
0.0135843
0.013625
0.0136663
0.0137082
0.0137507
0.0137937
0.0138373
0.0138813
0.0139258
0.0139708
0.0140161
0.0140617
0.0141076
0.0141537
0.0142001
0.0142459
0.0142923
0.0143388
0.0143853
0.0144315
0.0144776
0.0145233
0.0145685
0.0146132
0.0146571
0.0147002
0.0147422
0.0147828
0.0148215
0.014855
0.0132159
0.0132536
0.0132916
0.0133283
0.0133648
0.0134015
0.0134387
0.0134765
0.0135148
0.0135539
0.0135936
0.0136339
0.013675
0.0137166
0.0137589
0.0138018
0.0138452
0.0138892
0.0139336
0.0139784
0.0140236
0.0140692
0.014115
0.0141611
0.0142074
0.0142533
0.0142996
0.0143461
0.0143926
0.0144389
0.0144849
0.0145306
0.0145759
0.0146206
0.0146645
0.0147076
0.0147496
0.0147904
0.0148294
0.0148634
0.0132332
0.0132706
0.0133075
0.0133431
0.0133787
0.0134145
0.013451
0.0134881
0.0135259
0.0135645
0.0136038
0.0136438
0.0136846
0.013726
0.013768
0.0138107
0.013854
0.0138977
0.013942
0.0139867
0.0140317
0.0140772
0.0141229
0.0141688
0.014215
0.0142609
0.0143072
0.0143536
0.0144
0.0144462
0.0144922
0.0145379
0.0145832
0.0146278
0.0146718
0.0147149
0.0147569
0.0147977
0.0148365
0.01487
0.0132489
0.0132862
0.0133225
0.0133575
0.0133923
0.0134275
0.0134634
0.0135
0.0135373
0.0135755
0.0136144
0.0136541
0.0136945
0.0137357
0.0137775
0.01382
0.013863
0.0139066
0.0139506
0.0139951
0.01404
0.0140853
0.0141308
0.0141767
0.0142227
0.0142685
0.0143147
0.014361
0.0144073
0.0144534
0.0144994
0.014545
0.0145903
0.0146349
0.0146789
0.0147221
0.0147642
0.014805
0.0148439
0.0148777
0.0132633
0.0133006
0.0133365
0.0133711
0.0134054
0.0134402
0.0134756
0.0135117
0.0135487
0.0135864
0.013625
0.0136644
0.0137046
0.0137455
0.013787
0.0138292
0.013872
0.0139154
0.0139592
0.0140035
0.0140482
0.0140933
0.0141387
0.0141843
0.0142302
0.0142759
0.014322
0.0143682
0.0144144
0.0144604
0.0145063
0.0145519
0.0145972
0.0146419
0.0146859
0.0147291
0.0147713
0.0148121
0.0148511
0.0148847
0.0132767
0.0133139
0.0133496
0.0133839
0.0134179
0.0134523
0.0134873
0.0135231
0.0135597
0.0135972
0.0136355
0.0136746
0.0137144
0.0137551
0.0137964
0.0138383
0.0138809
0.013924
0.0139677
0.0140118
0.0140563
0.0141011
0.0141463
0.0141918
0.0142375
0.0142831
0.0143291
0.0143752
0.0144212
0.0144672
0.0145131
0.0145587
0.0146039
0.0146486
0.0146927
0.014736
0.0147783
0.0148193
0.0148584
0.0148921
0.013289
0.0133264
0.0133618
0.0133959
0.0134297
0.0134638
0.0134985
0.013534
0.0135704
0.0136075
0.0136456
0.0136844
0.013724
0.0137644
0.0138054
0.0138472
0.0138895
0.0139324
0.0139758
0.0140197
0.014064
0.0141087
0.0141536
0.0141989
0.0142445
0.01429
0.0143359
0.0143818
0.0144278
0.0144738
0.0145196
0.0145652
0.0146104
0.0146553
0.0146994
0.0147428
0.0147853
0.0148264
0.0148656
0.0148993
0.0133006
0.013338
0.0133733
0.0134072
0.0134408
0.0134747
0.0135092
0.0135444
0.0135805
0.0136174
0.0136552
0.0136938
0.0137332
0.0137733
0.0138141
0.0138556
0.0138978
0.0139404
0.0139836
0.0140273
0.0140714
0.0141159
0.0141607
0.0142058
0.0142511
0.0142966
0.0143424
0.0143882
0.0144342
0.0144801
0.0145259
0.0145715
0.0146168
0.0146617
0.014706
0.0147496
0.0147922
0.0148335
0.0148729
0.0149067
0.0133116
0.0133488
0.0133841
0.0134178
0.0134512
0.0134849
0.0135193
0.0135543
0.0135902
0.0136269
0.0136644
0.0137028
0.0137419
0.0137818
0.0138225
0.0138637
0.0139056
0.0139481
0.0139911
0.0140346
0.0140785
0.0141228
0.0141674
0.0142123
0.0142575
0.0143029
0.0143486
0.0143944
0.0144402
0.0144861
0.014532
0.0145776
0.014623
0.014668
0.0147125
0.0147562
0.014799
0.0148405
0.0148801
0.014914
0.0133219
0.0133591
0.0133942
0.0134278
0.0134611
0.0134946
0.0135288
0.0135636
0.0135993
0.0136358
0.0136732
0.0137113
0.0137503
0.01379
0.0138304
0.0138714
0.0139131
0.0139554
0.0139982
0.0140415
0.0140852
0.0141293
0.0141738
0.0142186
0.0142636
0.014309
0.0143545
0.0144003
0.0144461
0.014492
0.0145379
0.0145836
0.0146291
0.0146742
0.0147189
0.0147628
0.0148058
0.0148475
0.0148874
0.0149214
0.0133316
0.0133688
0.0134038
0.0134372
0.0134704
0.0135038
0.0135378
0.0135725
0.013608
0.0136443
0.0136814
0.0137194
0.0137581
0.0137976
0.0138378
0.0138787
0.0139202
0.0139623
0.0140049
0.014048
0.0140916
0.0141356
0.0141799
0.0142245
0.0142694
0.0143147
0.0143602
0.0144059
0.0144517
0.0144976
0.0145436
0.0145894
0.014635
0.0146803
0.0147251
0.0147693
0.0148125
0.0148545
0.0148946
0.0149288
0.0133409
0.013378
0.0134128
0.0134462
0.0134792
0.0135125
0.0135463
0.0135808
0.0136162
0.0136523
0.0136893
0.013727
0.0137656
0.0138049
0.0138449
0.0138856
0.0139269
0.0139689
0.0140113
0.0140543
0.0140977
0.0141415
0.0141857
0.0142302
0.014275
0.0143202
0.0143656
0.0144113
0.0144571
0.0145031
0.0145491
0.014595
0.0146408
0.0146863
0.0147313
0.0147757
0.0148192
0.0148615
0.0149019
0.0149362
0.0133498
0.0133867
0.0134214
0.0134547
0.0134875
0.0135207
0.0135544
0.0135887
0.0136239
0.0136599
0.0136967
0.0137343
0.0137727
0.0138118
0.0138516
0.0138922
0.0139333
0.013975
0.0140173
0.0140601
0.0141034
0.0141471
0.0141912
0.0142356
0.0142802
0.0143254
0.0143708
0.0144165
0.0144624
0.0145084
0.0145544
0.0146005
0.0146464
0.0146921
0.0147374
0.014782
0.0148259
0.0148685
0.0149092
0.0149437
0.0133583
0.013395
0.0134296
0.0134627
0.0134955
0.0135284
0.013562
0.0135962
0.0136312
0.013667
0.0137037
0.0137411
0.0137793
0.0138183
0.013858
0.0138983
0.0139393
0.0139809
0.014023
0.0140657
0.0141089
0.0141525
0.0141965
0.0142407
0.0142853
0.0143304
0.0143758
0.0144215
0.0144674
0.0145134
0.0145596
0.0146058
0.0146519
0.0146979
0.0147434
0.0147883
0.0148325
0.0148755
0.0149165
0.0149513
0.0133664
0.013403
0.0134374
0.0134704
0.013503
0.0135358
0.0135692
0.0136033
0.0136382
0.0136738
0.0137103
0.0137476
0.0137856
0.0138244
0.013864
0.0139042
0.013945
0.0139864
0.0140284
0.014071
0.014114
0.0141575
0.0142014
0.0142456
0.01429
0.0143351
0.0143805
0.0144262
0.0144722
0.0145184
0.0145647
0.014611
0.0146573
0.0147035
0.0147493
0.0147946
0.0148391
0.0148824
0.0149238
0.0149589
0.0133741
0.0134105
0.0134448
0.0134776
0.0135101
0.0135428
0.0135761
0.01361
0.0136447
0.0136802
0.0137166
0.0137537
0.0137916
0.0138302
0.0138696
0.0139097
0.0139504
0.0139917
0.0140335
0.014076
0.0141189
0.0141623
0.0142061
0.0142502
0.0142946
0.0143396
0.0143851
0.0144308
0.0144768
0.0145231
0.0145695
0.0146161
0.0146626
0.014709
0.0147551
0.0148008
0.0148457
0.0148894
0.0149312
0.0149666
0.0133816
0.0134178
0.0134519
0.0134846
0.0135169
0.0135495
0.0135826
0.0136164
0.013651
0.0136863
0.0137225
0.0137595
0.0137972
0.0138357
0.0138749
0.0139148
0.0139554
0.0139966
0.0140383
0.0140806
0.0141235
0.0141668
0.0142106
0.0142546
0.0142989
0.014344
0.0143894
0.0144352
0.0144813
0.0145277
0.0145743
0.014621
0.0146678
0.0147145
0.0147609
0.0148069
0.0148522
0.0148964
0.0149386
0.0149743
0.0133887
0.0134247
0.0134587
0.0134912
0.0135234
0.0135558
0.0135888
0.0136224
0.0136569
0.0136921
0.0137281
0.0137649
0.0138025
0.0138409
0.01388
0.0139197
0.0139602
0.0140012
0.0140429
0.0140851
0.0141278
0.0141711
0.0142148
0.0142587
0.014303
0.0143481
0.0143936
0.0144394
0.0144856
0.0145321
0.0145789
0.0146258
0.0146728
0.0147198
0.0147666
0.014813
0.0148587
0.0149033
0.014946
0.0149821
0.0133956
0.0134314
0.0134652
0.0134975
0.0135296
0.0135619
0.0135947
0.0136282
0.0136624
0.0136975
0.0137334
0.0137701
0.0138075
0.0138458
0.0138847
0.0139244
0.0139647
0.0140056
0.0140471
0.0140892
0.0141319
0.0141751
0.0142188
0.0142627
0.0143069
0.014352
0.0143975
0.0144435
0.0144898
0.0145364
0.0145833
0.0146305
0.0146778
0.0147251
0.0147722
0.014819
0.0148652
0.0149103
0.0149535
0.01499
0.0134022
0.0134378
0.0134714
0.0135036
0.0135355
0.0135676
0.0136003
0.0136336
0.0136677
0.0137027
0.0137384
0.0137749
0.0138123
0.0138504
0.0138892
0.0139287
0.0139689
0.0140097
0.0140512
0.0140932
0.0141358
0.0141789
0.0142226
0.0142664
0.0143106
0.0143558
0.0144013
0.0144473
0.0144938
0.0145405
0.0145877
0.014635
0.0146826
0.0147302
0.0147778
0.014825
0.0148717
0.0149173
0.014961
0.0149979
0.0134085
0.0134439
0.0134773
0.0135094
0.0135411
0.0135731
0.0136056
0.0136388
0.0136728
0.0137076
0.0137432
0.0137796
0.0138167
0.0138547
0.0138934
0.0139328
0.0139729
0.0140136
0.0140549
0.0140969
0.0141394
0.0141825
0.0142261
0.01427
0.0143142
0.0143593
0.014405
0.0144511
0.0144976
0.0145445
0.0145919
0.0146395
0.0146873
0.0147353
0.0147833
0.014831
0.0148781
0.0149243
0.0149685
0.0150059
0.0134146
0.0134498
0.013483
0.0135149
0.0135464
0.0135783
0.0136107
0.0136437
0.0136775
0.0137122
0.0137476
0.0137839
0.0138209
0.0138588
0.0138973
0.0139366
0.0139766
0.0140172
0.0140585
0.0141003
0.0141428
0.0141858
0.0142294
0.0142733
0.0143175
0.0143627
0.0144084
0.0144546
0.0145013
0.0145484
0.0145959
0.0146438
0.014692
0.0147403
0.0147887
0.0148368
0.0148845
0.0149313
0.0149761
0.015014
0.0134205
0.0134554
0.0134885
0.0135202
0.0135516
0.0135832
0.0136155
0.0136484
0.0136821
0.0137165
0.0137519
0.013788
0.0138249
0.0138626
0.013901
0.0139402
0.0139801
0.0140206
0.0140618
0.0141036
0.014146
0.014189
0.0142326
0.0142765
0.0143206
0.0143659
0.0144117
0.014458
0.0145048
0.0145521
0.0145999
0.014648
0.0146965
0.0147452
0.014794
0.0148427
0.014891
0.0149383
0.0149838
0.0150222
0.0134261
0.0134608
0.0134937
0.0135252
0.0135564
0.013588
0.01362
0.0136528
0.0136863
0.0137207
0.0137558
0.0137918
0.0138286
0.0138662
0.0139045
0.0139436
0.0139833
0.0140238
0.0140649
0.0141066
0.014149
0.014192
0.0142355
0.0142794
0.0143236
0.0143689
0.0144148
0.0144612
0.0145082
0.0145557
0.0146037
0.0146521
0.0147009
0.01475
0.0147993
0.0148485
0.0148973
0.0149454
0.0149915
0.0150304
0.0134316
0.013466
0.0134987
0.01353
0.0135611
0.0135925
0.0136244
0.013657
0.0136904
0.0137246
0.0137596
0.0137955
0.0138321
0.0138696
0.0139078
0.0139467
0.0139864
0.0140267
0.0140678
0.0141094
0.0141518
0.0141947
0.0142383
0.0142822
0.0143264
0.0143718
0.0144178
0.0144643
0.0145115
0.0145592
0.0146074
0.0146561
0.0147053
0.0147548
0.0148045
0.0148542
0.0149037
0.0149524
0.0149992
0.0150388
0.0134368
0.013471
0.0135034
0.0135346
0.0135655
0.0135967
0.0136285
0.0136609
0.0136942
0.0137282
0.0137631
0.0137988
0.0138354
0.0138727
0.0139108
0.0139496
0.0139892
0.0140295
0.0140704
0.0141121
0.0141544
0.0141973
0.0142409
0.0142848
0.0143291
0.0143745
0.0144206
0.0144673
0.0145146
0.0145625
0.014611
0.01466
0.0147095
0.0147594
0.0148096
0.0148599
0.01491
0.0149595
0.015007
0.0150473
0.0134418
0.0134758
0.013508
0.013539
0.0135698
0.0136008
0.0136324
0.0136647
0.0136978
0.0137317
0.0137664
0.013802
0.0138384
0.0138756
0.0139136
0.0139524
0.0139918
0.014032
0.0140729
0.0141145
0.0141567
0.0141997
0.0142432
0.0142873
0.0143315
0.0143771
0.0144233
0.0144701
0.0145176
0.0145657
0.0146145
0.0146638
0.0147137
0.014764
0.0148147
0.0148656
0.0149164
0.0149665
0.0150149
0.0150558
0.0134467
0.0134803
0.0135124
0.0135432
0.0135738
0.0136046
0.0136361
0.0136682
0.0137012
0.0137349
0.0137695
0.013805
0.0138413
0.0138783
0.0139162
0.0139549
0.0139942
0.0140344
0.0140752
0.0141167
0.014159
0.0142019
0.0142454
0.0142895
0.0143339
0.0143795
0.0144258
0.0144728
0.0145205
0.0145688
0.0146178
0.0146675
0.0147177
0.0147685
0.0148197
0.0148712
0.0149227
0.0149736
0.0150228
0.0150645
0.0134513
0.0134847
0.0135165
0.0135472
0.0135776
0.0136083
0.0136396
0.0136716
0.0137043
0.013738
0.0137724
0.0138077
0.0138439
0.0138808
0.0139186
0.0139572
0.0139965
0.0140365
0.0140773
0.0141188
0.014161
0.0142039
0.0142475
0.0142916
0.014336
0.0143817
0.0144282
0.0144753
0.0145232