/*--------------------------------*- C++ -*----------------------------------*\
  =========                 |
  \\      /  F ield         | OpenFOAM: The Open Source CFD Toolbox
   \\    /   O peration     | Website:  https://openfoam.org
    \\  /    A nd           | Version:  8
     \\/     M anipulation  |
\*---------------------------------------------------------------------------*/
FoamFile
{
    version     2.0;
    format      ascii;
    class       volScalarField;
    location    "20000/gas";
    object      epsilon;
}
// * * * * * * * * * * * * * * * * * * * * * * * * * * * * * * * * * * * * * //

dimensions      [0 2 -3 0 0 0 0];

internalField   nonuniform List<scalar> 
16000
(
0.00233703
0.000255778
9.99038e-05
0.000750082
0.013395
0.00205151
0.000520052
0.000828955
0.0122829
0.00320206
0.00101539
0.000979324
0.0111384
0.00385103
0.00148113
0.00112677
0.0120128
0.0042242
0.00184907
0.00125178
0.0127384
0.00444643
0.00221049
0.00136073
0.0121505
0.00454836
0.00257843
0.0014597
0.0110965
0.00455986
0.00293058
0.00155285
0.0098201
0.00450365
0.00324555
0.00164106
0.00863845
0.00439816
0.00350348
0.00172335
0.0076331
0.0042605
0.00371123
0.00179725
0.00680102
0.0041036
0.0038507
0.00186139
0.00612067
0.00395236
0.00390977
0.00191585
0.00556592
0.00381449
0.00391492
0.00196076
0.00510988
0.00367999
0.00388994
0.00199625
0.00473331
0.00355715
0.00384344
0.00202282
0.00441819
0.00343039
0.00378024
0.00204169
0.0041508
0.00330444
0.00370499
0.00205341
0.00392148
0.00318529
0.00362162
0.00205862
0.00372275
0.00307336
0.0035332
0.00205801
0.00354862
0.00296793
0.00344199
0.00205219
0.00339433
0.00286824
0.00334962
0.00204177
0.00325609
0.00277364
0.00325724
0.00202727
0.00313088
0.00268359
0.00316564
0.00200922
0.00301631
0.00259769
0.00307536
0.00198807
0.00291053
0.00251555
0.0029868
0.00196424
0.00281208
0.00243698
0.00290019
0.00193812
0.0027198
0.00236177
0.00281577
0.00191008
0.00263286
0.00228975
0.00273366
0.00188044
0.00255048
0.00221982
0.00265393
0.00184948
0.00247212
0.0021527
0.00257656
0.00181743
0.00239746
0.00208858
0.00250158
0.00178451
0.00232616
0.00202693
0.00242896
0.0017509
0.00225799
0.00196793
0.00235867
0.00171678
0.00219265
0.00191075
0.00229065
0.00168229
0.00212995
0.00185612
0.00222487
0.00164754
0.00206967
0.00180264
0.00216119
0.00161262
0.00201136
0.00175206
0.00209939
0.00157745
0.00195563
0.00170241
0.00204069
0.00154322
0.00189914
0.00165488
0.00197647
0.00150343
0.000365217
2.22925e-05
1.11031e-05
9.62004e-06
9.02966e-06
8.55162e-06
8.09883e-06
7.67207e-06
7.27833e-06
6.92066e-06
6.59872e-06
6.31021e-06
6.052e-06
5.82072e-06
5.61312e-06
5.42621e-06
5.25737e-06
5.10436e-06
4.96526e-06
4.83854e-06
4.72302e-06
4.61793e-06
4.52302e-06
4.43886e-06
4.36752e-06
4.31433e-06
4.29323e-06
4.34566e-06
4.62851e-06
6.02639e-06
1.83095e-05
0.0004014
0.000382551
6.50478e-05
3.39185e-05
2.68663e-05
2.39828e-05
2.1956e-05
2.01525e-05
1.84752e-05
1.69287e-05
1.55246e-05
1.42649e-05
1.31427e-05
1.21466e-05
1.1263e-05
1.04783e-05
9.7797e-06
9.1559e-06
8.59706e-06
8.09498e-06
7.64299e-06
7.23608e-06
6.871e-06
6.54685e-06
6.26629e-06
6.03838e-06
5.88597e-06
5.86613e-06
6.13668e-06
7.22867e-06
1.165e-05
3.81577e-05
0.000392093
0.00041979
0.000114151
6.39627e-05
4.90174e-05
4.25221e-05
3.82964e-05
3.47888e-05
3.16089e-05
2.86831e-05
2.60109e-05
2.35961e-05
2.14328e-05
1.95055e-05
1.77931e-05
1.62729e-05
1.4922e-05
1.37196e-05
1.26471e-05
1.16886e-05
1.08314e-05
1.00659e-05
9.38634e-06
8.79173e-06
8.28857e-06
7.89642e-06
7.66167e-06
7.69377e-06
8.27673e-06
1.02959e-05
1.74612e-05
5.24872e-05
0.000382222
0.000476171
0.000164815
9.77125e-05
7.39585e-05
6.29755e-05
5.60603e-05
5.06242e-05
4.58484e-05
4.1495e-05
3.75094e-05
3.38829e-05
3.06084e-05
2.76704e-05
2.50452e-05
2.27049e-05
2.062e-05
1.87622e-05
1.71056e-05
1.56277e-05
1.43105e-05
1.31406e-05
1.21103e-05
1.12198e-05
1.04809e-05
9.92533e-06
9.62452e-06
9.7391e-06
1.0667e-05
1.35765e-05
2.29188e-05
6.36172e-05
0.000372018
0.000547968
0.000217829
0.00013369
0.000100651
8.4576e-05
7.45658e-05
6.69992e-05
6.05595e-05
5.47767e-05
4.94966e-05
4.46732e-05
4.02888e-05
3.63261e-05
3.27613e-05
2.9565e-05
2.67048e-05
2.41482e-05
2.18649e-05
1.98278e-05
1.80153e-05
1.64115e-05
1.50083e-05
1.38081e-05
1.28289e-05
1.21148e-05
1.17609e-05
1.19739e-05
1.32501e-05
1.69852e-05
2.8176e-05
7.28211e-05
0.000364783
0.000630743
0.000272444
0.000171032
0.000128449
0.000106873
9.34432e-05
8.3558e-05
7.53804e-05
6.81668e-05
6.16258e-05
5.56481e-05
5.01904e-05
4.52272e-05
4.07334e-05
3.66799e-05
3.30341e-05
2.97625e-05
2.6833e-05
2.42169e-05
2.18907e-05
1.98381e-05
1.8052e-05
1.65377e-05
1.53195e-05
1.44536e-05
1.40562e-05
1.43746e-05
1.59886e-05
2.04731e-05
3.32654e-05
8.07655e-05
0.000359641
0.000720085
0.000327778
0.000209082
0.000156872
0.000129544
0.000112455
0.000100089
9.00956e-05
8.14394e-05
7.36665e-05
6.65821e-05
6.01015e-05
5.4182e-05
4.87931e-05
4.39051e-05
3.94867e-05
3.55053e-05
3.19297e-05
2.87317e-05
2.58885e-05
2.33849e-05
2.12158e-05
1.93903e-05
1.79393e-05
1.69295e-05
1.64963e-05
1.69225e-05
1.88615e-05
2.40419e-05
3.8222e-05
8.78419e-05
0.000356117
0.000812558
0.000383109
0.000247326
0.000185541
0.000152338
0.000131429
0.000116455
0.000104574
9.44554e-05
8.54696e-05
7.73208e-05
6.98694e-05
6.30457e-05
5.68079e-05
5.11234e-05
4.59615e-05
4.12919e-05
3.70858e-05
3.33173e-05
2.99662e-05
2.70197e-05
2.4476e-05
2.23484e-05
2.0674e-05
1.95293e-05
1.90668e-05
1.96017e-05
2.18523e-05
2.76767e-05
4.30762e-05
9.43142e-05
0.000354093
0.000905468
0.000438083
0.000285405
0.000214162
0.000175052
0.000150235
0.000132564
0.000118735
0.000107131
9.69433e-05
8.77641e-05
7.93893e-05
7.17136e-05
6.4678e-05
5.8243e-05
5.23773e-05
4.70525e-05
4.2243e-05
3.79266e-05
3.40865e-05
3.07137e-05
2.78103e-05
2.53943e-05
2.35086e-05
2.22391e-05
2.17539e-05
2.23978e-05
2.49473e-05
3.13704e-05
4.78544e-05
0.000100371
0.000353547
0.000996842
0.000491825
0.000322953
0.00024249
0.000197523
0.000168767
0.000148348
0.000132529
0.000119421
0.000108035
9.78517e-05
8.85941e-05
8.0115e-05
7.23323e-05
6.51961e-05
5.86718e-05
5.27319e-05
4.73539e-05
4.25198e-05
3.82169e-05
3.44408e-05
3.11978e-05
2.85107e-05
2.64283e-05
2.50451e-05
2.45442e-05
2.52979e-05
2.8135e-05
3.51178e-05
5.25806e-05
0.00010616
0.000354481
0.00108527
0.000543877
0.000359659
0.000270323
0.000219619
0.000186945
0.000163759
0.000145927
0.0001313
0.00011872
0.000107552
9.74454e-05
8.82059e-05
7.97239e-05
7.19351e-05
6.4799e-05
5.82878e-05
5.23811e-05
4.70646e-05
4.23303e-05
3.81781e-05
3.46191e-05
3.16808e-05
2.94178e-05
2.79333e-05
2.74244e-05
2.82893e-05
3.14049e-05
3.89154e-05
5.72747e-05
0.000111796
0.000356859
0.00116977
0.000593957
0.000395289
0.000297497
0.000241232
0.000204704
0.000178765
0.000158912
0.000142761
0.00012899
0.000116853
0.000105926
9.5963e-05
8.68248e-05
7.84295e-05
7.0728e-05
6.36899e-05
5.72961e-05
5.15353e-05
4.64037e-05
4.19055e-05
3.80564e-05
3.48886e-05
3.24626e-05
3.08898e-05
3.03813e-05
3.13601e-05
3.47474e-05
4.27628e-05
6.19782e-05
0.000117377
0.00036068
0.00124968
0.000641842
0.000429668
0.000323886
0.00026228
0.000221996
0.00019334
0.000171479
0.000153805
0.000138849
0.000125758
0.000114033
0.000103379
9.36224e-05
8.46626e-05
7.64394e-05
6.8918e-05
6.20787e-05
5.59125e-05
5.04188e-05
4.5606e-05
4.14938e-05
3.81192e-05
3.55485e-05
3.39013e-05
3.34025e-05
3.44987e-05
3.81531e-05
4.66544e-05
6.66763e-05
0.000122971
0.000365949
0.00132458
0.000687352
0.000462663
0.000349393
0.000282698
0.000238784
0.000207471
0.000183626
0.000164443
0.000148311
0.000134278
0.000121775
0.000110456
0.000100115
9.06285e-05
8.19239e-05
7.39601e-05
6.67155e-05
6.01819e-05
5.43613e-05
4.92652e-05
4.49174e-05
4.13591e-05
3.86624e-05
3.69552e-05
3.64758e-05
3.7694e-05
4.16125e-05
5.05849e-05
7.13799e-05
0.000128647
0.000372668
0.00139427
0.000730354
0.000494178
0.000373945
0.00030244
0.000255044
0.000221151
0.00019536
0.000174686
0.000157391
0.00014243
0.000129166
0.000117206
0.000106309
9.63293e-05
8.71796e-05
7.88112e-05
7.11989e-05
6.43342e-05
5.82204e-05
5.28718e-05
4.83152e-05
4.45961e-05
4.17921e-05
4.00394e-05
3.95897e-05
4.09353e-05
4.51168e-05
5.45507e-05
7.61031e-05
0.000134447
0.000380797
0.00145867
0.000770763
0.000524145
0.000397493
0.000321474
0.000270761
0.000234378
0.00020669
0.000184551
0.000166109
0.000150235
0.000136226
0.000123645
0.000112217
0.000101773
9.22104e-05
8.34713e-05
7.55259e-05
6.83639e-05
6.19888e-05
5.64168e-05
5.16772e-05
4.78196e-05
4.49266e-05
4.31429e-05
4.27334e-05
4.42126e-05
4.86582e-05
5.85486e-05
8.08577e-05
0.000140397
0.000390265
0.00151785
0.000808543
0.000552525
0.000420002
0.000339779
0.000285926
0.000247155
0.000217627
0.000194058
0.000174489
0.000157716
0.000142978
0.000129793
0.000117855
0.000106972
9.70243e-05
8.79448e-05
7.96973e-05
7.22687e-05
6.56618e-05
5.98935e-05
5.49955e-05
5.10203e-05
4.80561e-05
4.62556e-05
4.58971e-05
4.75167e-05
5.22292e-05
6.25758e-05
8.56515e-05
0.000146513
0.000400981
0.00157193
0.000843695
0.0005793
0.000441457
0.000357346
0.00030054
0.00025949
0.000228188
0.000203224
0.000182552
0.000164896
0.000149444
0.000135671
0.000123242
0.00011194
0.000101632
9.22388e-05
8.37168e-05
7.60491e-05
6.92371e-05
6.32976e-05
5.82636e-05
5.41908e-05
5.11723e-05
4.93687e-05
4.90717e-05
5.08392e-05
5.58228e-05
6.66291e-05
9.04888e-05
0.000152803
0.000412834
0.00162111
0.000876261
0.000604477
0.000461856
0.000374175
0.000314609
0.000271396
0.000238389
0.000212073
0.000190322
0.000171801
0.000155648
0.000141302
0.000128397
0.000116696
0.000106048
9.63628e-05
8.75901e-05
7.97077e-05
7.27144e-05
6.66262e-05
6.14769e-05
5.73248e-05
5.42677e-05
5.24743e-05
5.22492e-05
5.41724e-05
5.94328e-05
7.07049e-05
9.53712e-05
0.000159266
0.000425696
0.00166563
0.000906311
0.00062808
0.000481211
0.000390278
0.000328145
0.000282889
0.000248249
0.000220625
0.000197824
0.000178455
0.000161615
0.000146708
0.000133341
0.000121255
0.000110285
0.000100328
9.13249e-05
8.32489e-05
7.60951e-05
6.98782e-05
6.46322e-05
6.04175e-05
5.73363e-05
5.55654e-05
5.54223e-05
5.75091e-05
6.30529e-05
7.47993e-05
0.000100298
0.000165894
0.000439429
0.00170574
0.000933944
0.000650154
0.000499545
0.000405672
0.000341167
0.000293989
0.000257791
0.000228905
0.000205082
0.000184884
0.00016737
0.000151912
0.000138094
0.000125637
0.000114359
0.000104146
9.49299e-05
8.66782e-05
7.9382e-05
7.30538e-05
6.77275e-05
6.34652e-05
6.03733e-05
5.86363e-05
5.85849e-05
6.08433e-05
6.66776e-05
7.89079e-05
0.000105265
0.000172676
0.000453884
0.00174173
0.00095928
0.000670758
0.000516896
0.000420385
0.000353699
0.000304719
0.000267038
0.000236937
0.00021212
0.000191112
0.000172935
0.000156938
0.000142678
0.000129859
0.000118285
0.000107829
9.84145e-05
9.00022e-05
8.25789e-05
7.61545e-05
7.07622e-05
6.64655e-05
6.33748e-05
6.16821e-05
6.17313e-05
6.41691e-05
7.03013e-05
8.30259e-05
0.000110268
0.000179592
0.000468912
0.00177388
0.000982455
0.000689969
0.00053331
0.000434453
0.000365772
0.000315109
0.00027602
0.000244749
0.000218967
0.000197164
0.000178337
0.000161808
0.000147114
0.000133941
0.000122079
0.00011139
0.000101789
9.32282e-05
8.56904e-05
7.91825e-05
7.37364e-05
6.94168e-05
6.63378e-05
6.46989e-05
6.4857e-05
6.74815e-05
7.3919e-05
8.71482e-05
0.0001153
0.000186622
0.00048437
0.00180246
0.00100362
0.000707875
0.00054885
0.000447922
0.000377425
0.000325191
0.000284765
0.00025237
0.000225648
0.000203067
0.000183599
0.000166544
0.000151421
0.000137901
0.000125757
0.000114843
0.000105063
9.6364e-05
8.8722e-05
8.21408e-05
7.66513e-05
7.23185e-05
6.92603e-05
6.76835e-05
6.7958e-05
7.07759e-05
7.75256e-05
9.12692e-05
0.000120352
0.00019374
0.000500121
0.00182776
0.00102295
0.000724582
0.000563588
0.000460848
0.000388702
0.000335006
0.000293311
0.00025983
0.000232194
0.000208848
0.000188746
0.00017117
0.000155621
0.000141755
0.000129335
0.000118201
0.000108249
9.9418e-05
9.16795e-05
8.50334e-05
7.95086e-05
7.51708e-05
7.21411e-05
7.06335e-05
7.10309e-05
7.40483e-05
8.11165e-05
9.5383e-05
0.000125416
0.000200919
0.000516038
0.00185005
0.00104062
0.000740211
0.000577611
0.0004733
0.00039966
0.000344601
0.000301696
0.000267167
0.000238635
0.000214534
0.000193803
0.000175707
0.000159734
0.000145524
0.000132828
0.000121477
0.000111356
0.000102398
9.45692e-05
8.78643e-05
8.23107e-05
7.79745e-05
7.49796e-05
7.35471e-05
7.40729e-05
7.72952e-05
8.46873e-05
9.94836e-05
0.00013048
0.000208133
0.000532002
0.0018696
0.00105682
0.0007549
0.000591025
0.000485359
0.000410366
0.000354029
0.000309968
0.000274419
0.000245007
0.000220157
0.000198798
0.000180181
0.00016378
0.000149224
0.000136252
0.000124683
0.000114396
0.000105314
9.73977e-05
9.06383e-05
8.50607e-05
8.07309e-05
7.77758e-05
7.64233e-05
7.7082e-05
8.05133e-05
8.82336e-05
0.000103565
0.000135535
0.000215355
0.000547907
0.00188667
0.00107177
0.000768809
0.000603954
0.000497125
0.0004209
0.000363358
0.00031818
0.000281632
0.000251347
0.000225749
0.000203757
0.000184614
0.000167781
0.000152874
0.000139623
0.000127834
0.000117379
0.000108174
0.000100172
9.33604e-05
8.77618e-05
8.34418e-05
8.05302e-05
7.92612e-05
8.00564e-05
8.36999e-05
9.17514e-05
0.000107621
0.000140569
0.000222558
0.00056366
0.00190151
0.00108572
0.00078213
0.000616552
0.000508722
0.000431359
0.000372666
0.000326397
0.000288858
0.000257697
0.000231344
0.000208711
0.000189032
0.000171757
0.000156493
0.000142955
0.000130943
0.000120317
0.000110987
0.000102899
9.60359e-05
9.04177e-05
8.61096e-05
8.32437e-05
8.20608e-05
8.29947e-05
8.68525e-05
9.52368e-05
0.000111646
0.000145572
0.000229718
0.000579181
0.00191437
0.00109895
0.000795094
0.000629005
0.000520299
0.000441865
0.000382048
0.000334693
0.000296155
0.000264106
0.000236981
0.000213691
0.000193461
0.000175731
0.000160097
0.000146264
0.000134022
0.00012322
0.000113761
0.000105585
9.867e-05
9.30324e-05
8.87368e-05
8.59177e-05
8.48221e-05
8.5896e-05
8.9969e-05
9.86863e-05
0.000115633
0.000150532
0.000236809
0.0005944
0.00192553
0.00111179
0.000807993
0.000641555
0.000532047
0.000452566
0.000391619
0.000343156
0.000303592
0.000270626
0.000242703
0.000218731
0.000197928
0.000179726
0.000163707
0.000149567
0.000137084
0.0001261
0.000116506
0.000108238
0.000101269
9.56098e-05
9.13261e-05
8.85537e-05
8.75456e-05
8.87597e-05
9.30476e-05
0.000102096
0.000119577
0.00015544
0.000243812
0.00060926
0.00193528
0.0011247
0.00082121
0.000654511
0.000544211
0.000463647
0.000401517
0.000351891
0.000311247
0.000277316
0.000248553
0.000223864
0.000202461
0.000183762
0.000167341
0.000152878
0.000140143
0.000128966
0.000119231
0.000110866
0.000103837
9.81544e-05
9.38807e-05
9.11537e-05
9.02321e-05
9.15854e-05
9.60866e-05
0.000105464
0.000123472
0.000160285
0.000250705
0.000623714
0.00194392
0.00113829
0.000835267
0.000668292
0.000557104
0.00047534
0.000411911
0.000361017
0.000319207
0.000284241
0.00025458
0.00022913
0.000207089
0.000187865
0.000171016
0.000156213
0.00014321
0.000131829
0.000121943
0.000113474
0.000106381
0.00010067
9.64035e-05
9.37197e-05
9.28826e-05
9.43729e-05
9.90848e-05
0.000108787
0.000127314
0.000165059
0.00025747
0.000637725
0.00195185
0.00115343
0.000850907
0.000683463
0.000571135
0.00048793
0.000422998
0.000370673
0.000327569
0.000291468
0.000260835
0.000234564
0.00021184
0.000192055
0.000174752
0.000159585
0.000146298
0.000134699
0.000124652
0.000116069
0.000108905
0.000103162
9.88978e-05
9.62537e-05
9.54981e-05
9.71225e-05
0.000102041
0.000112062
0.000131098
0.000169754
0.000264092
0.000651264
0.00195957
0.00117154
0.000869233
0.00070081
0.000586832
0.000501764
0.000435005
0.000381009
0.000336434
0.000299069
0.000267367
0.000240203
0.000216742
0.000196355
0.000178565
0.00016301
0.000149418
0.000137585
0.000127365
0.000118659
0.000111416
0.000105633
0.000101367
9.8758e-05
9.80801e-05
9.98343e-05
0.000104955
0.000115287
0.00013482
0.000174362
0.000270558
0.000664312
0.00196776
0.00119493
0.000891913
0.000721408
0.000604851
0.000517237
0.000448172
0.000392175
0.000345899
0.000307109
0.000274222
0.000246081
0.00022182
0.000200783
0.00018247
0.0001665
0.000152581
0.000140497
0.000130089
0.000121249
0.000113918
0.000108089
0.000103814
0.000101235
0.00010063
0.000102509
0.000107825
0.000118461
0.000138476
0.000178876
0.000276856
0.000676854
0.00197719
0.00122779
0.000921478
0.000746641
0.00062592
0.000534737
0.000462715
0.000404295
0.000356042
0.000315638
0.000281436
0.000252224
0.000227095
0.000205357
0.000186482
0.000170065
0.000155796
0.000143442
0.000132831
0.000123845
0.000116416
0.000110532
0.000106241
0.000103687
0.000103149
0.000105147
0.000110652
0.000121581
0.000142063
0.000183291
0.000282976
0.000688883
0.00198742
0.001277
0.000961191
0.000777854
0.000650582
0.000554486
0.000478733
0.000417423
0.000366895
0.00032468
0.000289027
0.000258648
0.000232579
0.000210087
0.000190609
0.000173714
0.00015907
0.000146427
0.000135597
0.000126452
0.000118915
0.000112966
0.000108653
0.000106116
0.000105638
0.000107749
0.000113435
0.000124646
0.000145578
0.000187602
0.000288911
0.000700396
0.00199002
0.00135105
0.00101306
0.000814949
0.00067848
0.000576219
0.000496066
0.000431471
0.000378415
0.000334217
0.000296989
0.000265353
0.000238277
0.000214979
0.000194859
0.000177454
0.00016241
0.000149457
0.000138392
0.000129074
0.000121417
0.000115395
0.000111051
0.000108524
0.0001081
0.000110315
0.000116174
0.000127656
0.000149018
0.000191806
0.000294656
0.000711395
0.00188621
0.00139783
0.0010594
0.000851198
0.000706837
0.000598697
0.00051413
0.000446151
0.000390456
0.000344173
0.000305285
0.000272321
0.000244181
0.000220031
0.000199231
0.000181287
0.000165819
0.000152535
0.000141219
0.000131714
0.000123927
0.000117822
0.000113438
0.000110913
0.000110535
0.000112848
0.000118869
0.00013061
0.000152383
0.000195898
0.000300206
0.000721885
0.000648907
0.000424989
0.000350788
0.000324722
0.000316133
0.000316244
0.000321135
0.000329406
0.000339985
0.000352252
0.000365773
0.00038022
0.000395331
0.00041088
0.000426665
0.000442501
0.000458213
0.000473632
0.000488594
0.000502937
0.000516506
0.000529147
0.000540711
0.000551057
0.000560051
0.000567574
0.000573527
0.000577836
0.00058047
0.000581456
0.000580908
0.000579081
0.000576439
0.000573807
0.000572673
0.000575763
0.000588763
0.000625436
0.00072923
0.00110869
0.000675064
0.000427487
0.000353361
0.000327301
0.000318686
0.000318658
0.000323649
0.000331973
0.000342638
0.000355012
0.000368659
0.000383247
0.000398512
0.000414226
0.000430188
0.00044621
0.000462118
0.00047774
0.000492913
0.000507475
0.00052127
0.000534142
0.000545943
0.00055653
0.000565769
0.000573541
0.000579745
0.000584308
0.000587197
0.00058844
0.000588155
0.000586599
0.000584246
0.000581942
0.000581196
0.000584829
0.000598646
0.000636608
0.000741958
0.00112107
0.000703178
0.000431357
0.000356163
0.000329968
0.000321472
0.000321592
0.000326778
0.000335295
0.000346157
0.000358735
0.000372592
0.000387398
0.000402886
0.000418829
0.000435025
0.000451285
0.000467432
0.000483297
0.000498712
0.000513516
0.000527549
0.000540656
0.000552686
0.000563495
0.000572946
0.000580917
0.000587306
0.000592036
0.000595073
0.000596443
0.000596263
0.000594788
0.000592499
0.000590249
0.000589565
0.000593309
0.000607359
0.000645832
0.0007524
0.00113398
0.000727738
0.000436212
0.000359084
0.00033258
0.000324211
0.000324565
0.000330017
0.000338806
0.000349936
0.000362781
0.000376903
0.000391973
0.000407726
0.000423933
0.000440391
0.000456912
0.000473319
0.000489439
0.000505105
0.000520154
0.000534425
0.000547761
0.000560009
0.000571024
0.000580668
0.000588816
0.000595363
0.000600233
0.000603389
0.000604855
0.00060475
0.000603331
0.000601083
0.000598874
0.000598255
0.000602132
0.000616473
0.000655556
0.000763445
0.0011476
0.000750022
0.000442077
0.00036262
0.000335493
0.000327079
0.000327598
0.000333298
0.000342365
0.000353784
0.000366919
0.000381332
0.000396691
0.00041273
0.000429221
0.00044596
0.000462758
0.000479436
0.000495823
0.000511749
0.000527051
0.000541567
0.000555138
0.000567611
0.000578837
0.000588679
0.000597011
0.000603725
0.000608744
0.00061203
0.000613607
0.000613593
0.000612247
0.000610062
0.000607914
0.000607376
0.000611397
0.00062603
0.000665701
0.00077488
0.00116173
0.000770824
0.000448773
0.000366849
0.000338887
0.00033025
0.000330821
0.000336701
0.000346009
0.0003577
0.000371122
0.000385828
0.000401483
0.000417818
0.000434604
0.000451636
0.000468723
0.000485687
0.000502353
0.000518554
0.000534124
0.000548899
0.000562721
0.000575435
0.000586893
0.000596953
0.000605489
0.000612392
0.000617583
0.000621022
0.000622733
0.000622832
0.00062158
0.000619472
0.000617395
0.000616939
0.00062109
0.000635985
0.000676209
0.000786645
0.0011763
0.000790683
0.000456109
0.000371717
0.000342806
0.000333818
0.000334338
0.000340322
0.000349819
0.000361748
0.000375437
0.000390426
0.000406374
0.000423007
0.000440094
0.000457427
0.000474814
0.000492076
0.000509038
0.000525529
0.000541384
0.000556439
0.000570533
0.00058351
0.00059522
0.000605522
0.000614286
0.000621402
0.000626789
0.000630404
0.000632268
0.000632497
0.000631351
0.000629327
0.000627317
0.00062693
0.000631186
0.000646303
0.000687047
0.000798722
0.00119125
0.000809925
0.000463933
0.000377127
0.000347222
0.000337808
0.000338203
0.000344228
0.000353865
0.000365996
0.000379926
0.000395183
0.000411416
0.000428346
0.000445736
0.000463376
0.000481074
0.000498646
0.000515918
0.000532716
0.000548875
0.000564228
0.000578615
0.000591877
0.000603862
0.000614428
0.000623442
0.000630792
0.000636393
0.000640202
0.000642234
0.000642603
0.000641567
0.000639624
0.000637671
0.000637333
0.000641665
0.000656955
0.000698186
0.000811096
0.00120654
0.000828764
0.000472138
0.000382984
0.000352081
0.000342205
0.000342429
0.00034845
0.00035819
0.000370493
0.000384643
0.000400153
0.000416662
0.000433884
0.000451579
0.000469533
0.000487549
0.000505443
0.000523038
0.000540159
0.000556639
0.000572309
0.000587007
0.000600574
0.000612854
0.000623702
0.000632985
0.000640586
0.000646417
0.00065043
0.00065264
0.000653153
0.000652227
0.000650357
0.000648447
0.000648134
0.00065251
0.000667922
0.000709597
0.000823758
0.00122214
0.00084734
0.000480653
0.000389215
0.000357328
0.000346977
0.000347006
0.000352997
0.000362815
0.000375269
0.000389622
0.000405373
0.000422151
0.000439664
0.000457665
0.000475937
0.000494279
0.000512506
0.000530436
0.000547895
0.00056471
0.000580714
0.000595741
0.000609628
0.00062222
0.000633367
0.000642933
0.000650798
0.00065687
0.000661097
0.000663488
0.000664148
0.000663327
0.000661522
0.000659636
0.000659321
0.000663703
0.000679201
0.000721265
0.000836682
0.001238
0.000865752
0.000489432
0.000395762
0.000362913
0.000352087
0.000351912
0.000357861
0.000367743
0.000380336
0.000394882
0.000410867
0.000427911
0.000445714
0.000464024
0.000482618
0.000501295
0.000519864
0.000538141
0.00055595
0.000573115
0.000589467
0.000604837
0.00061906
0.000631978
0.000643437
0.000653298
0.000661437
0.000667759
0.000672205
0.000674781
0.000675585
0.000674864
0.000673111
0.000671231
0.000670887
0.000675235
0.000690784
0.00073317
0.000849777
0.00125407
0.000884076
0.000498453
0.000402585
0.000368786
0.000357497
0.000357121
0.000363026
0.000372968
0.000385694
0.00040043
0.000416647
0.000433957
0.000452051
0.000470674
0.000489597
0.000508616
0.000527537
0.000546172
0.000564342
0.000581871
0.000598584
0.00061431
0.000628882
0.000642137
0.000653919
0.000664085
0.000672508
0.000679086
0.000683756
0.000686518
0.000687464
0.000686836
0.000685122
0.000683229
0.000682828
0.000687106
0.000702659
0.000745307
0.000863039
0.00127032
0.000902376
0.000507715
0.000409659
0.000374918
0.000363177
0.000362608
0.000368473
0.000378476
0.000391338
0.000406265
0.000422716
0.000440294
0.000458684
0.000477625
0.000496886
0.000516255
0.000535537
0.000554541
0.000573085
0.000590988
0.000608074
0.000624168
0.0006391
0.000652704
0.00066482
0.0006753
0.000684013
0.000690852
0.00069575
0.000698698
0.000699783
0.00069924
0.000697552
0.000695627
0.000695142
0.000699314
0.000714821
0.000757671
0.00087646
0.00128671
0.00092072
0.000517237
0.000416965
0.00038128
0.000369101
0.000368349
0.000374183
0.000384255
0.000397258
0.00041238
0.000429071
0.000446923
0.000465616
0.000484884
0.000504489
0.000524219
0.000543872
0.000563256
0.000582184
0.000600473
0.000617943
0.000634417
0.00064972
0.000663683
0.000676142
0.000686944
0.000695954
0.00070306
0.000708187
0.000711322
0.000712542
0.000712077
0.000710404
0.000708426
0.000707829
0.000711859
0.000727269
0.000770259
0.000890025
0.00130321
0.000939199
0.000527043
0.00042448
0.000387848
0.000375248
0.000374325
0.000380138
0.000390288
0.000403441
0.000418768
0.000435706
0.000453841
0.000472846
0.000492449
0.000512409
0.000532509
0.000552545
0.00057232
0.000591644
0.000610331
0.000628197
0.000645061
0.000660746
0.000675077
0.000687888
0.000699021
0.000708334
0.00071571
0.00072107
0.000724391
0.000725744
0.00072535
0.000723678
0.000721629
0.000720894
0.000724743
0.000740004
0.000783068
0.000903724
0.00131979
0.000957864
0.000537104
0.00043218
0.000394607
0.000381598
0.000380518
0.000386322
0.000396563
0.000409877
0.000425419
0.000442615
0.000461043
0.00048037
0.000500319
0.000520645
0.000541127
0.000561557
0.000581734
0.000601466
0.000620562
0.000638836
0.000656102
0.000672179
0.000686889
0.00070006
0.00071153
0.000721153
0.000728805
0.0007344
0.000737908
0.000739391
0.000739062
0.00073738
0.000735241
0.00073434
0.000737969
0.00075303
0.000796095
0.000917544
0.00133642
0.000976621
0.000547324
0.000440049
0.000401549
0.000388139
0.000386915
0.000392724
0.000403068
0.000416555
0.000432324
0.00044979
0.000468523
0.000488184
0.000508491
0.000529196
0.000550072
0.000570908
0.0005915
0.000611652
0.00063117
0.000649863
0.000667542
0.000684022
0.00069912
0.000712661
0.000724477
0.000734416
0.000742348
0.000748181
0.000751876
0.000753488
0.000753217
0.000751515
0.00074927
0.000748175
0.000751545
0.000766352
0.00080934
0.000931476
0.00135306
0.000995519
0.000557701
0.000448078
0.000408663
0.000394861
0.000393506
0.000399333
0.000409793
0.000423466
0.000439475
0.000457224
0.000476275
0.000496284
0.000516962
0.000538058
0.000559342
0.000580597
0.000601618
0.000622202
0.000642154
0.000661279
0.000679383
0.000696276
0.000711773
0.000725693
0.000737862
0.000748124
0.000756342
0.000762416
0.000766301
0.000768039
0.000767823
0.000766092
0.000763723
0.000762409
0.000765479
0.00077997
0.000822806
0.00094551
0.0013697
0.00101458
0.000568241
0.000456266
0.000415943
0.00040176
0.000400283
0.000406141
0.00041673
0.000430604
0.000446867
0.000464913
0.000484296
0.000504665
0.000525729
0.00054723
0.000568935
0.000590624
0.000612086
0.000633118
0.000653517
0.000673085
0.000691626
0.000708945
0.000724851
0.000739159
0.00075169
0.000762282
0.000770792
0.000777112
0.000781187
0.000783052
0.000782886
0.000781117
0.000778612
0.000777054
0.000779782
0.000793856
0.000836499
0.000959635
0.00138627
0.00103384
0.000578948
0.000464615
0.000423385
0.000408829
0.000407242
0.000413143
0.000423874
0.000437962
0.000454493
0.00047285
0.00049258
0.000513325
0.000534789
0.00055671
0.000578851
0.000600988
0.000622907
0.000644399
0.000665259
0.000685285
0.000704275
0.000722032
0.000738358
0.000753063
0.000765966
0.000776895
0.000785702
0.000792272
0.000796542
0.000798534
0.000798417
0.000796603
0.000793947
0.000792123
0.000794479
0.000808149
0.000850433
0.000973838
0.00140276
0.0010533
0.000589828
0.000473125
0.000430988
0.000416066
0.000414379
0.000420333
0.00043122
0.000445536
0.000462349
0.000481033
0.000501124
0.000522261
0.00054414
0.000566497
0.00058909
0.00061169
0.00063408
0.000656047
0.000677383
0.00069788
0.000717333
0.000735538
0.000752296
0.00076741
0.000780693
0.000791968
0.00080108
0.000807905
0.000812372
0.000814494
0.000814424
0.000812561
0.000809741
0.000807628
0.000809569
0.00082274
0.000864603
0.000988105
0.00141912
0.00107298
0.000600884
0.000481797
0.000438752
0.000423469
0.00042169
0.00042771
0.000438766
0.000453322
0.000470434
0.000489458
0.000509927
0.000531471
0.000553782
0.00057659
0.00059965
0.000622729
0.000645606
0.000668064
0.00068989
0.000710873
0.000730802
0.00074947
0.000766671
0.000782205
0.000795877
0.000807506
0.00081693
0.000824017
0.000828686
0.00083094
0.000830918
0.000829002
0.00082601
0.000823587
0.000825072
0.000837676
0.000879018
0.00100243
0.00143529
0.0010929
0.000612123
0.000490634
0.000446678
0.000431037
0.000429176
0.000435272
0.000446508
0.00046132
0.000478743
0.000498125
0.000518987
0.000540954
0.000563713
0.00058699
0.000610533
0.000634108
0.000657488
0.000680453
0.000702784
0.000724267
0.000744687
0.00076383
0.000781487
0.000797452
0.000811524
0.000823517
0.00083326
0.000840616
0.000845493
0.000847882
0.00084791
0.00084594
0.000842769
0.000840017
0.000841011
0.000852975
0.000893644
0.00101679
0.00145124
0.00111307
0.000623551
0.00049964
0.000454766
0.000438773
0.000436835
0.000443018
0.000454447
0.000469529
0.000487278
0.000507032
0.000528303
0.00055071
0.000573934
0.000597696
0.000621741
0.000645828
0.000669728
0.000693216
0.000716069
0.000738067
0.000758992
0.000778625
0.000796751
0.000813158
0.000827642
0.000840007
0.000850079
0.00085771
0.000862801
0.000865332
0.000865413
0.00086339
0.000860035
0.00085694
0.000857408
0.000868665
0.000908534
0.0010312
0.00146692
0.00113351
0.000635174
0.000508816
0.00046302
0.000446675
0.00044467
0.000450949
0.000462584
0.000477947
0.000496039
0.000516181
0.000537878
0.000560741
0.000584447
0.000608712
0.000633275
0.000657892
0.00068233
0.000706357
0.000729748
0.000752278
0.000773723
0.00079386
0.000812468
0.00082933
0.000844236
0.000856985
0.000867393
0.000875308
0.000880621
0.000883298
0.000883438
0.000881366
0.000877825
0.000874378
0.000874288
0.000884771
0.00092371
0.00104565
0.00148228
0.00115422
0.000646998
0.000518168
0.000471441
0.000454748
0.00045268
0.000459066
0.000470917
0.000486578
0.000505025
0.000525571
0.00054771
0.000571048
0.000595254
0.000620039
0.000645138
0.000670303
0.000695296
0.00071988
0.000743826
0.000766904
0.000788885
0.000809541
0.000828645
0.000845976
0.000861315
0.000874457
0.000885213
0.00089342
0.000898962
0.000901794
0.000901999
0.000899882
0.000896159
0.000892352
0.000891682
0.000901327
0.000939199
0.00106014
0.00149725
0.00117523
0.00065903
0.000527699
0.000480034
0.000462992
0.000460868