/*--------------------------------*- C++ -*----------------------------------*\
  =========                 |
  \\      /  F ield         | OpenFOAM: The Open Source CFD Toolbox
   \\    /   O peration     | Website:  https://openfoam.org
    \\  /    A nd           | Version:  8
     \\/     M anipulation  |
\*---------------------------------------------------------------------------*/
FoamFile
{
    version     2.0;
    format      ascii;
    class       volScalarField;
    location    "20000/gas";
    object      H2O;
}
// * * * * * * * * * * * * * * * * * * * * * * * * * * * * * * * * * * * * * //

dimensions      [0 0 0 0 0 0 0];

internalField   nonuniform List<scalar> 
16000
(
1.42611e-53
1.44348e-53
8.08911e-53
2.96747e-54
2.60474e-51
7.19933e-52
2.43103e-51
2.61829e-52
9.5396e-50
1.84065e-50
1.98e-50
3.0161e-51
2.47864e-48
5.17626e-49
2.7213e-49
2.79596e-50
3.47156e-47
7.86146e-48
4.03121e-48
3.89649e-49
3.73522e-46
8.46247e-47
6.18506e-47
3.47114e-48
5.29725e-45
1.34776e-45
9.25414e-46
5.02013e-47
7.13616e-44
2.3759e-44
1.05943e-44
5.1938e-46
8.70555e-43
4.62006e-43
1.32776e-43
9.50188e-45
1.24202e-41
5.2983e-42
1.5936e-42
1.19906e-43
1.4036e-40
5.21104e-41
1.90876e-41
1.32714e-42
1.77348e-39
9.33193e-40
2.00144e-40
1.00778e-41
1.86599e-38
1.05466e-38
3.07042e-39
1.64336e-40
3.20572e-37
1.41296e-37
3.28795e-38
1.51112e-39
5.38481e-36
1.86696e-36
3.47633e-37
2.41146e-38
4.66112e-35
1.68258e-35
2.84022e-36
2.14482e-37
6.49115e-34
2.56391e-34
4.6149e-35
1.87903e-36
8.6382e-33
3.48753e-33
7.51418e-34
3.29783e-35
1.16829e-31
4.31793e-32
9.27697e-33
6.36737e-34
1.17745e-30
5.87378e-31
7.3149e-32
3.89218e-33
1.638e-29
5.88382e-30
1.11757e-30
5.13348e-32
2.67917e-28
9.80566e-29
2.09867e-29
8.88113e-31
2.47967e-27
9.87118e-28
1.78985e-28
8.25222e-30
2.04294e-26
1.30162e-26
3.2344e-27
1.55728e-28
2.18576e-25
1.26209e-25
3.23104e-26
2.72578e-27
2.73909e-24
1.26309e-24
5.18692e-25
3.73854e-26
3.33973e-23
1.23975e-23
7.51997e-24
3.87017e-25
5.0657e-22
2.33946e-22
1.06772e-22
5.37282e-24
5.91424e-21
2.68432e-21
1.5588e-21
5.12631e-23
6.76843e-20
4.82117e-20
3.51913e-20
9.73757e-22
7.55618e-19
1.0968e-18
6.10747e-19
1.70672e-20
1.25789e-17
1.6743e-17
1.12781e-17
3.59782e-19
2.10074e-16
2.24302e-16
1.92021e-16
9.58897e-18
3.60733e-15
4.52361e-15
4.43151e-15
3.80806e-16
6.12629e-14
9.22673e-14
1.21242e-13
1.54739e-14
1.017e-12
1.87963e-12
3.42471e-12
1.03186e-12
1.6268e-11
3.76635e-11
9.80817e-11
7.90407e-11
2.4557e-10
7.27814e-10
2.81337e-09
6.44425e-09
3.38002e-09
1.31068e-08
7.82123e-08
5.42734e-07
3.98465e-08
2.03923e-07
1.89315e-06
2.41693e-05
3.07832e-21
7.04424e-20
2.81995e-19
5.3499e-19
9.83737e-19
1.51538e-18
2.09533e-18
2.74574e-18
3.88544e-18
5.13689e-18
6.26818e-18
7.12573e-18
8.6753e-18
9.3987e-18
9.44087e-18
1.08123e-17
1.0717e-17
1.06677e-17
9.39082e-18
8.23746e-18
8.06882e-18
6.68491e-18
5.67011e-18
4.72289e-18
3.82339e-18
2.89626e-18
2.03869e-18
1.29392e-18
7.64342e-19
2.90142e-19
6.13563e-20
1.85567e-21
6.9555e-20
6.195e-19
1.56494e-18
2.67048e-18
4.23687e-18
6.3878e-18
9.61874e-18
1.3163e-17
1.67198e-17
2.13604e-17
2.44655e-17
2.99525e-17
3.34909e-17
3.47496e-17
3.79036e-17
4.03243e-17
4.09688e-17
3.85184e-17
3.86776e-17
3.42614e-17
3.00661e-17
2.83686e-17
2.43578e-17
2.04086e-17
1.66823e-17
1.25226e-17
8.98872e-18
6.28125e-18
3.41235e-18
1.75648e-18
5.45439e-19
3.64412e-20
2.92885e-19
1.57742e-18
3.99507e-18
7.33239e-18
1.16814e-17
1.6851e-17
2.32618e-17
2.99012e-17
3.86641e-17
4.68119e-17
5.80096e-17
6.86455e-17
7.44886e-17
8.21335e-17
8.61474e-17
8.71737e-17
8.59554e-17
9.07742e-17
8.50807e-17
7.77077e-17
7.00395e-17
6.03455e-17
5.38913e-17
4.53583e-17
3.52389e-17
2.83391e-17
2.13182e-17
1.44164e-17
8.83581e-18
4.06809e-18
1.35139e-18
1.65681e-19
7.69585e-19
3.59873e-18
7.63791e-18
1.48928e-17
2.29928e-17
3.31558e-17
4.67619e-17
6.27438e-17
7.9148e-17
9.52235e-17
1.153e-16
1.26093e-16
1.36053e-16
1.54058e-16
1.62053e-16
1.67239e-16
1.67175e-16
1.67557e-16
1.62259e-16
1.51501e-16
1.31238e-16
1.15563e-16
9.92215e-17
8.20416e-17
6.86839e-17
5.27667e-17
3.78843e-17
2.58969e-17
1.58019e-17
8.42899e-18
2.77784e-18
2.67655e-19
1.53199e-18
7.22234e-18
1.52464e-17
2.56229e-17
4.15626e-17
6.23487e-17
8.49586e-17
1.15581e-16
1.42175e-16
1.70068e-16
1.95209e-16
2.26948e-16
2.46535e-16
2.62831e-16
2.81009e-16
2.88976e-16
2.93789e-16
2.89106e-16
2.78e-16
2.52567e-16
2.32028e-16
2.06577e-16
1.78008e-16
1.48095e-16
1.16405e-16
9.10324e-17
6.75931e-17
4.5254e-17
2.74465e-17
1.37899e-17
4.37078e-18
6.249e-19
3.52341e-18
1.32768e-17
2.79456e-17
4.80504e-17
7.48384e-17
1.10295e-16
1.51881e-16
1.95042e-16
2.45109e-16
2.91277e-16
3.49288e-16
3.87477e-16
4.37631e-16
4.74525e-16
4.97759e-16
4.96887e-16
4.98072e-16
4.82767e-16
4.63592e-16
4.40003e-16
4.01649e-16
3.45041e-16
2.93547e-16
2.49004e-16
1.92327e-16
1.47638e-16
1.08782e-16
7.2499e-17
4.18851e-17
2.03853e-17
6.36452e-18
8.30531e-19
5.56278e-18
2.37714e-17
4.84392e-17
8.08346e-17
1.29981e-16
1.84542e-16
2.41747e-16
3.14152e-16
3.97173e-16
4.95233e-16
5.65926e-16
6.30577e-16
6.85583e-16
7.4929e-16
8.01045e-16
8.21375e-16
8.25546e-16
7.78613e-16
7.44637e-16
6.88039e-16
6.3629e-16
5.66968e-16
4.93411e-16
4.04403e-16
3.18986e-16
2.45261e-16
1.79826e-16
1.18996e-16
7.02144e-17
3.48436e-17
1.24565e-17
1.33738e-18
1.07903e-17
3.87444e-17
8.06029e-17
1.40751e-16
2.06834e-16
3.00462e-16
4.08292e-16
5.40516e-16
6.86454e-16
8.10335e-16
9.15529e-16
1.07073e-15
1.16357e-15
1.27276e-15
1.33714e-15
1.36982e-15
1.3339e-15
1.32919e-15
1.2421e-15
1.16049e-15
1.04955e-15
9.48008e-16
7.80019e-16
6.34388e-16
5.26383e-16
4.03524e-16
2.9182e-16
1.96174e-16
1.22254e-16
6.13343e-17
1.77586e-17
2.67766e-18
1.80309e-17
6.01186e-17
1.28223e-16
2.20824e-16
3.41544e-16
4.84317e-16
6.82297e-16
8.79869e-16
1.09318e-15
1.29958e-15
1.53958e-15
1.74658e-15
1.94214e-15
2.06976e-15
2.17386e-15
2.23765e-15
2.25805e-15
2.19205e-15
2.09845e-15
1.95931e-15
1.7505e-15
1.4949e-15
1.30583e-15
1.04101e-15
8.03044e-16
6.13385e-16
4.54059e-16
3.08393e-16
1.84544e-16
9.36323e-17
3.01622e-17
3.6823e-18
2.80063e-17
9.45929e-17
1.91041e-16
3.43461e-16
5.70988e-16
8.10578e-16
1.04994e-15
1.37623e-15
1.77583e-15
2.23267e-15
2.64304e-15
2.97654e-15
3.31993e-15
3.58671e-15
3.78935e-15
3.87874e-15
3.87211e-15
3.74683e-15
3.53859e-15
3.24625e-15
2.87927e-15
2.48975e-15
2.06461e-15
1.7133e-15
1.32571e-15
1.01385e-15
7.1406e-16
4.64933e-16
2.63428e-16
1.31791e-16
5.51681e-17
8.23608e-18
5.56628e-17
1.63268e-16
3.23674e-16
5.78651e-16
8.74182e-16
1.24568e-15
1.7963e-15
2.34058e-15
2.95866e-15
3.61052e-15
4.31722e-15
5.03007e-15
5.66404e-15
6.13808e-15
6.45332e-15
6.61902e-15
6.59257e-15
6.39182e-15
6.01627e-15
5.48494e-15
4.88069e-15
4.19717e-15
3.47618e-15
2.77879e-15
2.17505e-15
1.56053e-15
1.08385e-15
7.37232e-16
4.29336e-16
2.21877e-16
8.2669e-17
1.33084e-17
8.81474e-17
2.61462e-16
5.3891e-16
8.7467e-16
1.3491e-15
2.04473e-15
2.87357e-15
3.91715e-15
5.09081e-15
6.30702e-15
7.54947e-15
8.71691e-15
9.75156e-15
1.06021e-14
1.11478e-14
1.13959e-14
1.13241e-14
1.09386e-14
1.02608e-14
9.33995e-15
8.24619e-15
7.05404e-15
5.83488e-15
4.64493e-15
3.54082e-15
2.60109e-15
1.78887e-15
1.13951e-15
7.03962e-16
3.63604e-16
1.13847e-16
2.03358e-17
1.29196e-16
4.05763e-16
7.92728e-16
1.40296e-15
2.28703e-15
3.46899e-15
4.96182e-15
6.7535e-15
8.72157e-15
1.08882e-14
1.30611e-14
1.51318e-14
1.69302e-14
1.83437e-14
1.9288e-14
1.96818e-14
1.95077e-14
1.87856e-14
1.75665e-14
1.59434e-14
1.40305e-14
1.19562e-14
9.84261e-15
7.79796e-15
5.9165e-15
4.26821e-15
2.91346e-15
1.83219e-15
1.0819e-15
5.58051e-16
1.94453e-16
3.22028e-17
2.47008e-16
6.62305e-16
1.27585e-15
2.37815e-15
3.84354e-15
5.9621e-15
8.53845e-15
1.16806e-14
1.52176e-14
1.90048e-14
2.28137e-14
2.64021e-14
2.95159e-14
3.19391e-14
3.35075e-14
3.41087e-14
3.3714e-14
3.23673e-14
3.01678e-14
2.72882e-14
2.39297e-14
2.03112e-14
1.66462e-14
1.31272e-14
9.92967e-15
7.10875e-15
4.80065e-15
3.02516e-15
1.72012e-15
8.51655e-16
2.91795e-16
4.27258e-17
3.67839e-16
1.00958e-15
2.08709e-15
3.84102e-15
6.52226e-15
1.01331e-14
1.48211e-14
2.03821e-14
2.66763e-14
3.33637e-14
4.00573e-14
4.632e-14
5.17146e-14
5.58574e-14
5.84577e-14
5.93414e-14
5.84756e-14
5.59501e-14
5.1964e-14
4.68293e-14
4.09064e-14
3.45785e-14
2.82157e-14
2.21445e-14
1.66143e-14
1.18792e-14
8.00425e-15
4.92215e-15
2.69737e-15
1.29172e-15
4.98758e-16
7.66628e-17
5.17434e-16
1.54658e-15
3.52522e-15
6.59985e-15
1.1321e-14
1.77842e-14
2.60624e-14
3.5971e-14
4.71453e-14
5.90009e-14
7.0813e-14
8.17864e-14
9.11428e-14
9.82087e-14
1.02486e-13
1.03701e-13
1.01834e-13
9.70685e-14
8.98012e-14
8.05993e-14
7.01101e-14
5.9008e-14
4.79348e-14
3.7449e-14
2.79885e-14
1.98587e-14
1.32002e-14
8.12736e-15
4.42751e-15
2.02704e-15
7.84647e-16
1.33692e-16
8.5017e-16
2.44136e-15
5.82839e-15
1.14864e-14
1.98902e-14
3.14595e-14
4.62907e-14
6.40687e-14
8.40762e-14
1.05225e-13
1.26171e-13
1.45462e-13
1.61702e-13
1.73714e-13
1.8066e-13
1.82117e-13
1.78129e-13
1.69079e-13
1.55743e-13
1.39163e-13
1.20504e-13
1.00954e-13
8.16234e-14
6.34625e-14
4.7201e-14
3.33198e-14
2.20475e-14
1.34124e-14
7.26494e-15
3.26495e-15
1.15373e-15
2.07941e-16
1.4804e-15
4.29739e-15
1.02442e-14
2.021e-14
3.53273e-14
5.62665e-14
8.31521e-14
1.15359e-13
1.51489e-13
1.89474e-13
2.268e-13
2.60804e-13
2.88989e-13
3.09303e-13
3.20355e-13
3.2153e-13
3.13067e-13
2.95756e-13
2.71123e-13
2.41084e-13
2.07736e-13
1.73173e-13
1.39318e-13
1.07776e-13
7.97534e-14
5.60143e-14
3.68911e-14
2.2345e-14
1.20453e-14
5.3493e-15
1.67373e-15
3.19052e-16
2.14423e-15
7.395e-15
1.79629e-14
3.60634e-14
6.36471e-14
1.02037e-13
1.51374e-13
2.10343e-13
2.76167e-13
3.44857e-13
4.1168e-13
4.71742e-13
5.2057e-13
5.54626e-13
5.71652e-13
5.70853e-13
5.52963e-13
5.19621e-13
4.73813e-13
4.19077e-13
3.59191e-13
2.97847e-13
2.38354e-13
1.83418e-13
1.35011e-13
9.43233e-14
6.17975e-14
3.72317e-14
1.99095e-14
8.86712e-15
2.88107e-15
4.90559e-16
3.90159e-15
1.3001e-14
3.22422e-14
6.54882e-14
1.16656e-13
1.88137e-13
2.79918e-13
3.89128e-13
5.10143e-13
6.35179e-13
7.55274e-13
8.61421e-13
9.45661e-13
1.00196e-12
1.0268e-12
1.0194e-12
9.81671e-13
9.1702e-13
8.31269e-13
7.30967e-13
6.2292e-13
5.13612e-13
4.08724e-13
3.12781e-13
2.28969e-13
1.59092e-13
1.0367e-13
6.21321e-14
3.30825e-14
1.46084e-14
4.44491e-15
8.07568e-16
7.34901e-15
2.34706e-14
5.90079e-14
1.21457e-13
2.18359e-13
3.53886e-13
5.27221e-13
7.31891e-13
9.56369e-13
1.1853e-12
1.40168e-12
1.58899e-12
1.73318e-12
1.82421e-12
1.85687e-12
1.83119e-12
1.75173e-12
1.62556e-12
1.46402e-12
1.27922e-12
1.08338e-12
8.87876e-13
7.02378e-13
5.34386e-13
3.88961e-13
2.6874e-13
1.74156e-13
1.03831e-13
5.50428e-14
2.42425e-14
7.56075e-15
1.28016e-15
1.21687e-14
4.30971e-14
1.10821e-13
2.31713e-13
4.19862e-13
6.82128e-13
1.01479e-12
1.40283e-12
1.82264e-12
2.2436e-12
2.63358e-12
2.9625e-12
3.20597e-12
3.34781e-12
3.38117e-12
3.30902e-12
3.14181e-12
2.89415e-12
2.58801e-12
2.24575e-12
1.88928e-12
1.53836e-12
1.20936e-12
9.14526e-13
6.61713e-13
4.54546e-13
2.92913e-13
1.73703e-13
9.16638e-14
4.02894e-14
1.26395e-14
2.16791e-15
2.24149e-14
8.14708e-14
2.15025e-13
4.55033e-13
8.28998e-13
1.34758e-12
1.99846e-12
2.7462e-12
3.53739e-12
4.31254e-12
5.0131e-12
5.58494e-12
5.98674e-12
6.19379e-12
6.19936e-12
6.01466e-12
5.66299e-12
5.1743e-12
4.59097e-12
3.9541e-12
3.30268e-12
2.67079e-12
2.08578e-12
1.56728e-12
1.12707e-12
7.69618e-13
4.93109e-13
2.9084e-13
1.52745e-13
6.69129e-14
2.09445e-14
3.36773e-15
4.15801e-14
1.59912e-13
4.30411e-13
9.19886e-13
1.68109e-12
2.72763e-12
4.02282e-12
5.48287e-12
6.99219e-12
8.42577e-12
9.67323e-12
1.06495e-11
1.12871e-11
1.15518e-11
1.14441e-11
1.0995e-11
1.02557e-11
9.28708e-12
8.17021e-12
6.98013e-12
5.78557e-12
4.64462e-12
3.60215e-12
2.68881e-12
1.92137e-12
1.30404e-12
8.30664e-13
4.8725e-13
2.54654e-13
1.1118e-13
3.48591e-14
5.65392e-15
8.21057e-14
3.25089e-13
8.90395e-13
1.91797e-12
3.50739e-12
5.66463e-12
8.28481e-12
1.11693e-11
1.40671e-11
1.67244e-11
1.89274e-11
2.05413e-11
2.14843e-11
2.17163e-11
2.12651e-11
2.02081e-11
1.86548e-11
1.6728e-11
1.45809e-11
1.23491e-11
1.01522e-11
8.08749e-12
6.22677e-12
4.61605e-12
3.27704e-12
2.21036e-12
1.3997e-12
8.16507e-13
4.2464e-13
1.84703e-13
5.77244e-14
8.51901e-15
1.6839e-13
6.86182e-13
1.91001e-12
4.13742e-12
7.54796e-12
1.20925e-11
1.74781e-11
2.32322e-11
2.88111e-11
3.37088e-11
3.75379e-11
4.00729e-11
4.12765e-11
4.11376e-11
3.97594e-11
3.73264e-11
3.40669e-11
3.02237e-11
2.60828e-11
2.18856e-11
1.78363e-11
1.40937e-11
1.07688e-11
7.92644e-12
5.58955e-12
3.74638e-12
2.3583e-12
1.3681e-12
7.08021e-13
3.06861e-13
9.59978e-14
1.52217e-14
3.60659e-13
1.51057e-12
4.26797e-12
9.2696e-12
1.68026e-11
2.6588e-11
3.78189e-11
4.93735e-11
6.00872e-11
6.89811e-11
7.53999e-11
7.90529e-11
8.00108e-11
7.84908e-11
7.47593e-11
6.92518e-11
6.24235e-11
5.47447e-11
4.67406e-11
3.88315e-11
3.13567e-11
2.45665e-11
1.86229e-11
1.36069e-11
9.52971e-12
6.34649e-12
3.97122e-12
2.29112e-12
1.17991e-12
5.09451e-13
1.58922e-13
2.34663e-14
8.09345e-13
3.48946e-12
9.99061e-12
2.16638e-11
3.8811e-11
6.0329e-11
8.40243e-11
1.07262e-10
1.27611e-10
1.43282e-10
1.53309e-10
1.57514e-10
1.56371e-10
1.50744e-10
1.41261e-10
1.28964e-10
1.14694e-10
9.93426e-11
8.38525e-11
6.89334e-11
5.51271e-11
4.28059e-11
3.21841e-11
2.33381e-11
1.62312e-11
1.07399e-11
6.68031e-12
3.83306e-12
1.96452e-12
8.4518e-13
2.63893e-13
4.21838e-14
1.91805e-12
8.52607e-12
2.46626e-11
5.30662e-11
9.33002e-11
1.41511e-10
1.91838e-10
2.38242e-10
2.75908e-10
3.01924e-10
3.1532e-10
3.16723e-10
3.07884e-10
2.91121e-10
2.68028e-10
2.40871e-10
2.11138e-10
1.80463e-10
1.50483e-10
1.22341e-10
9.68492e-11
7.45081e-11
5.55469e-11
3.99688e-11
2.76013e-11
1.81451e-11
1.12197e-11
6.40318e-12
3.26631e-12
1.40005e-12
4.35859e-13
6.47837e-14
4.85334e-12
2.22534e-11
6.46945e-11
1.36911e-10
2.34079e-10
3.43589e-10
4.50236e-10
5.40873e-10
6.06928e-10
6.44872e-10
6.55395e-10
6.42119e-10
6.10124e-10
5.64728e-10
5.10161e-10
4.50767e-10
3.89059e-10
3.27871e-10
2.69916e-10
2.16895e-10
1.69893e-10
1.29453e-10
9.56726e-11
6.83003e-11
4.68303e-11
3.05876e-11
1.88029e-11
1.06748e-11
5.42061e-12
2.31547e-12
7.20876e-13
1.14952e-13
1.32965e-11
6.2796e-11
1.81843e-10
3.73775e-10
6.14204e-10
8.64015e-10
1.08587e-09
1.25403e-09
1.35678e-09
1.39433e-09
1.37493e-09
1.31085e-09
1.21468e-09
1.09908e-09
9.72891e-10
8.44248e-10
7.16823e-10
5.9516e-10
4.8341e-10
3.83759e-10
2.97318e-10
2.24319e-10
1.64316e-10
1.16371e-10
7.92202e-11
5.14121e-11
3.14234e-11
1.77496e-11
8.97409e-12
3.82057e-12
1.18662e-12
1.77324e-13
4.0173e-11
1.94412e-10
5.52358e-10
1.08382e-09
1.68724e-09
2.24927e-09
2.68798e-09
2.96464e-09
3.07706e-09
3.04678e-09
2.90644e-09
2.68911e-09
2.42553e-09
2.1426e-09
1.85619e-09
1.58037e-09
1.31892e-09
1.07814e-09
8.63523e-10
6.76943e-10
5.18578e-10
3.87321e-10
2.81168e-10
1.97533e-10
1.33514e-10
8.61011e-11
5.23331e-11
2.94175e-11
1.4813e-11
6.28744e-12
1.95182e-12
3.04463e-13
1.37295e-10
6.72001e-10
1.82692e-09
3.34464e-09
4.84939e-09
6.05091e-09
6.81378e-09
7.12905e-09
7.06304e-09
6.7136e-09
6.17593e-09
5.53156e-09
4.84894e-09
4.1765e-09
3.53729e-09
2.95231e-09
2.42008e-09
1.94656e-09
1.53668e-09
1.18918e-09
9.00541e-10
6.65744e-10
4.78908e-10
3.33761e-10
2.24003e-10
1.43565e-10
8.67936e-11
4.85658e-11
2.43635e-11
1.03133e-11
3.19761e-12
4.87294e-13
5.50868e-10
2.64491e-09
6.61116e-09
1.09771e-08
1.4543e-08
1.67632e-08
1.76247e-08
1.73795e-08
1.63602e-08
1.48709e-08
1.31513e-08
1.13827e-08
9.68324e-09
8.12398e-09
6.72072e-09
5.49478e-09
4.42161e-09
3.49783e-09
2.72072e-09
2.07791e-09
1.55528e-09
1.13796e-09
8.11188e-10
5.60847e-10
3.73809e-10
2.38147e-10
1.43241e-10
7.98112e-11
3.99033e-11
1.68534e-11
5.22463e-12
8.1293e-13
2.74008e-09
1.20564e-08
2.61757e-08
3.81505e-08
4.52649e-08
4.75691e-08
4.62929e-08
4.27724e-08
3.80687e-08
3.29736e-08
2.79771e-08
2.3363e-08
1.92681e-08
1.57337e-08
1.27047e-08
1.01698e-08
8.0304e-09
6.24599e-09
4.78588e-09
3.60689e-09
2.66821e-09
1.93224e-09
1.36502e-09
9.36403e-10
6.19926e-10
3.92685e-10
2.35064e-10
1.30466e-10
6.50377e-11
2.74198e-11
8.499e-12
1.31414e-12
1.80272e-08
6.40443e-08
1.1263e-07
1.392e-07
1.45015e-07
1.3727e-07
1.22705e-07
1.05555e-07
8.8502e-08
7.2874e-08
5.92254e-08
4.7672e-08
3.81001e-08
3.02634e-08
2.3842e-08
1.86794e-08
1.44714e-08
1.10653e-08
8.35175e-09
6.2113e-09
4.54158e-09
3.25555e-09
2.27962e-09
1.55195e-09
1.0208e-09
6.43117e-10
3.83272e-10
2.11989e-10
1.05418e-10
4.43892e-11
1.37703e-11
2.16171e-12
1.61527e-07
3.91851e-07
5.18936e-07
5.26091e-07
4.72991e-07
3.98873e-07
3.24984e-07
2.59295e-07
2.04277e-07
1.59676e-07
1.24211e-07
9.63484e-08
7.4638e-08
5.76531e-08
4.43073e-08
3.39728e-08
2.58256e-08
1.94146e-08
1.44364e-08
1.05968e-08
7.65998e-09
5.43657e-09
3.77432e-09
2.5508e-09
1.6675e-09
1.04525e-09
6.20427e-10
3.42135e-10
1.6981e-10
7.14563e-11
2.21932e-11
3.48201e-12
1.86511e-06
2.6785e-06
2.50171e-06
2.02375e-06
1.54404e-06
1.15109e-06
8.51063e-07
6.2832e-07
4.64692e-07
3.44791e-07
2.56825e-07
1.92108e-07
1.44298e-07
1.08442e-07
8.1326e-08
6.10352e-08
4.5548e-08
3.36759e-08
2.46784e-08
1.78855e-08
1.27861e-08
8.98816e-09
6.18897e-09
4.15376e-09
2.69982e-09
1.68451e-09
9.96327e-10
5.48062e-10
2.71649e-10
1.14311e-10
3.55791e-11
5.65189e-12
2.49656e-05
1.95808e-05
1.22174e-05
7.70356e-06
4.94222e-06
3.24213e-06
2.17357e-06
1.48588e-06
1.03312e-06
7.28894e-07
5.2084e-07
3.76433e-07
2.74362e-07
2.00775e-07
1.47062e-07
1.0804e-07
7.92205e-08
5.76426e-08
4.16555e-08
2.98236e-08
2.10961e-08
1.46954e-08
1.00407e-08
6.69536e-09
4.32883e-09
2.68972e-09
1.58603e-09
8.70764e-10
4.31277e-10
1.81607e-10
5.66793e-11
9.03558e-12
0.000361918
0.000136976
5.74086e-05
2.7947e-05
1.50539e-05
8.7182e-06
5.32534e-06
3.38754e-06
2.22431e-06
1.49822e-06
1.03062e-06
7.21633e-07
5.1109e-07
3.64731e-07
2.61449e-07
1.87842e-07
1.35578e-07
9.71966e-08
6.93234e-08
4.90665e-08
3.43647e-08
2.37354e-08
1.61013e-08
1.06731e-08
6.86784e-09
4.25192e-09
2.50096e-09
1.37123e-09
6.79079e-10
2.86358e-10
8.97034e-11
1.44724e-11
0.0107654
0.0108046
0.0108447
0.0108807
0.0109146
0.0109476
0.0109801
0.0110126
0.0110453
0.0110782
0.0111115
0.0111451
0.0111792
0.0112137
0.0112487
0.0112841
0.0113198
0.011356
0.0113924
0.0114292
0.0114663
0.0115037
0.0115412
0.011579
0.0116168
0.0116542
0.011692
0.0117299
0.0117677
0.0118054
0.0118428
0.0118798
0.0119165
0.0119526
0.011988
0.0120227
0.0120565
0.0120892
0.0121204
0.0121479
0.0107859
0.0108192
0.0108549
0.0108885
0.010921
0.010953
0.010985
0.0110171
0.0110494
0.0110821
0.0111152
0.0111487
0.0111827
0.0112171
0.011252
0.0112874
0.0113231
0.0113592
0.0113957
0.0114325
0.0114696
0.011507
0.0115446
0.0115824
0.0116203
0.0116577
0.0116957
0.0117337
0.0117716
0.0118094
0.011847
0.0118843
0.0119212
0.0119577
0.0119936
0.0120288
0.0120632
0.0120967
0.0121291
0.0121572
0.0108039
0.0108354
0.0108681
0.0108996
0.0109306
0.0109616
0.0109928
0.0110243
0.0110562
0.0110885
0.0111213
0.0111546
0.0111885
0.0112228
0.0112575
0.0112928
0.0113284
0.0113645
0.011401
0.0114377
0.0114748
0.0115122
0.0115498
0.0115875
0.0116255
0.011663
0.011701
0.0117391
0.0117771
0.011815
0.0118527
0.0118901
0.0119271
0.0119637
0.0119996
0.0120349
0.0120693
0.0121026
0.0121342
0.0121616
0.0108198
0.0108506
0.0108817
0.0109118
0.0109416
0.0109717
0.0110022
0.0110331
0.0110645
0.0110964
0.0111289
0.011162
0.0111956
0.0112297
0.0112643
0.0112994
0.011335
0.0113709
0.0114073
0.011444
0.011481
0.0115183
0.0115558
0.0115936
0.0116315
0.011669
0.011707
0.0117451
0.0117831
0.011821
0.0118587
0.0118961
0.0119331
0.0119697
0.0120057
0.012041
0.0120754
0.0121088
0.0121407
0.0121686
0.0108339
0.0108645
0.0108947
0.0109239
0.010953
0.0109824
0.0110122
0.0110426
0.0110735
0.0111051
0.0111373
0.0111701
0.0112034
0.0112373
0.0112718
0.0113067
0.0113421
0.0113779
0.0114142
0.0114508
0.0114877
0.0115248
0.0115623
0.0115999
0.0116377
0.0116753
0.0117132
0.0117512
0.0117891
0.011827
0.0118647
0.0119021
0.0119391
0.0119757
0.0120117
0.012047
0.0120814
0.0121147
0.0121465
0.0121739
0.0108468
0.0108773
0.010907
0.0109356
0.0109642
0.010993
0.0110223
0.0110523
0.0110829
0.0111141
0.011146
0.0111785
0.0112116
0.0112453
0.0112795
0.0113143
0.0113495
0.0113852
0.0114213
0.0114577
0.0114944
0.0115315
0.0115688
0.0116063
0.011644
0.0116815
0.0117193
0.0117572
0.0117951
0.0118329
0.0118705
0.0119079
0.0119449
0.0119815
0.0120175
0.0120528
0.0120873
0.0121207
0.0121526
0.0121802
0.0108586
0.0108891
0.0109185
0.0109468
0.0109749
0.0110033
0.0110323
0.0110619
0.0110922
0.0111231
0.0111547
0.0111869
0.0112198
0.0112533
0.0112873
0.0113219
0.0113569
0.0113924
0.0114283
0.0114646
0.0115012
0.0115381
0.0115752
0.0116126
0.0116501
0.0116876
0.0117253
0.0117631
0.0118009
0.0118386
0.0118762
0.0119136
0.0119506
0.0119872
0.0120232
0.0120586
0.0120931
0.0121266
0.0121585
0.012186
0.0108695
0.0109
0.0109292
0.0109572
0.0109851
0.0110133
0.0110419
0.0110712
0.0111012
0.0111319
0.0111632
0.0111952
0.0112279
0.0112612
0.011295
0.0113293
0.0113642
0.0113995
0.0114352
0.0114713
0.0115077
0.0115445
0.0115815
0.0116187
0.0116561
0.0116935
0.0117311
0.0117688
0.0118065
0.0118442
0.0118817
0.0119191
0.0119561
0.0119927
0.0120288
0.0120643
0.0120989
0.0121324
0.0121645
0.012192
0.0108796
0.0109102
0.0109392
0.0109671
0.0109947
0.0110227
0.0110511
0.0110802
0.0111099
0.0111404
0.0111715
0.0112033
0.0112357
0.0112688
0.0113024
0.0113366
0.0113712
0.0114063
0.0114419
0.0114778
0.0115141
0.0115506
0.0115875
0.0116245
0.0116618
0.0116991
0.0117366
0.0117743
0.0118119
0.0118495
0.011887
0.0119244
0.0119614
0.0119981
0.0120343
0.0120698
0.0121046
0.0121382
0.0121704
0.0121979
0.0108891
0.0109197
0.0109486
0.0109763
0.0110038
0.0110316
0.0110598
0.0110887
0.0111183
0.0111485
0.0111794
0.011211
0.0112432
0.0112761
0.0113095
0.0113435
0.011378
0.0114129
0.0114483
0.011484
0.0115201
0.0115565
0.0115932
0.0116301
0.0116673
0.0117045
0.011742
0.0117795
0.0118171
0.0118547
0.0118922
0.0119296
0.0119667
0.0120034
0.0120397
0.0120753
0.0121102
0.012144
0.0121763
0.012204
0.0108981
0.0109286
0.0109574
0.010985
0.0110124
0.01104
0.0110681
0.0110968
0.0111262
0.0111562
0.0111869
0.0112183
0.0112504
0.0112831
0.0113163
0.0113501
0.0113844
0.0114192
0.0114544
0.01149
0.0115259
0.0115622
0.0115987
0.0116355
0.0116725
0.0117097
0.0117471
0.0117845
0.0118221
0.0118597
0.0118972
0.0119346
0.0119718
0.0120086
0.012045
0.0120808
0.0121158
0.0121498
0.0121822
0.01221
0.0109065
0.010937
0.0109657
0.0109932
0.0110205
0.0110479
0.0110759
0.0111044
0.0111336
0.0111635
0.0111941
0.0112253
0.0112572
0.0112897
0.0113228
0.0113564
0.0113906
0.0114252
0.0114602
0.0114956
0.0115314
0.0115676
0.011604
0.0116406
0.0116775
0.0117146
0.0117519
0.0117894
0.0118269
0.0118645
0.011902
0.0119395
0.0119767
0.0120137
0.0120502
0.0120862
0.0121214
0.0121555
0.0121882
0.012216
0.0109145
0.0109449
0.0109736
0.011001
0.0110281
0.0110554
0.0110833
0.0111117
0.0111407
0.0111705
0.0112009
0.0112319
0.0112637
0.011296
0.0113289
0.0113624
0.0113964
0.0114308
0.0114657
0.011501
0.0115367
0.0115727
0.011609
0.0116455
0.0116823
0.0117193
0.0117566
0.011794
0.0118315
0.0118691
0.0119067
0.0119442
0.0119816
0.0120186
0.0120553
0.0120915
0.0121269
0.0121613
0.0121941
0.0122221
0.0109221
0.0109524
0.010981
0.0110083
0.0110353
0.0110625
0.0110902
0.0111185
0.0111474
0.011177
0.0112073
0.0112382
0.0112698
0.011302
0.0113347
0.011368
0.0114019
0.0114362
0.0114709
0.0115061
0.0115416
0.0115775
0.0116137
0.0116501
0.0116868
0.0117238
0.011761
0.0117984
0.0118359
0.0118736
0.0119112
0.0119488
0.0119863
0.0120235
0.0120604
0.0120967
0.0121324
0.012167
0.0122
0.0122282
0.0109294
0.0109596
0.010988
0.0110152
0.0110421
0.0110693
0.0110968
0.011125
0.0111538
0.0111832
0.0112133
0.0112441
0.0112756
0.0113076
0.0113402
0.0113734
0.0114071
0.0114412
0.0114759
0.0115109
0.0115463
0.0115821
0.0116182
0.0116545
0.0116911
0.0117281
0.0117653
0.0118027
0.0118402
0.0118779
0.0119156
0.0119533
0.0119909
0.0120283
0.0120654
0.0121019
0.0121378
0.0121727
0.012206
0.0122343
0.0109363
0.0109664
0.0109947
0.0110218
0.0110486
0.0110756
0.0111031
0.0111311
0.0111598
0.0111891
0.0112191
0.0112497
0.011281
0.0113129
0.0113454
0.0113784
0.011412
0.011446
0.0114805
0.0115155
0.0115508
0.0115865
0.0116225
0.0116587
0.0116952
0.0117321
0.0117693
0.0118067
0.0118443
0.011882
0.0119198
0.0119577
0.0119954
0.012033
0.0120703
0.0121071
0.0121432
0.0121784
0.012212
0.0122405
0.0109429
0.0109729
0.0110011
0.0110281
0.0110548
0.0110817
0.011109
0.0111369
0.0111654
0.0111946
0.0112245
0.011255
0.0112862
0.0113179
0.0113503
0.0113832
0.0114166
0.0114506
0.011485
0.0115198
0.011555
0.0115906
0.0116266
0.0116627
0.0116991
0.011736
0.0117732
0.0118106
0.0118483
0.0118861
0.011924
0.0119619
0.0119998
0.0120376
0.0120751
0.0121122
0.0121486
0.0121841
0.012218
0.0122467
0.0109493
0.0109791
0.0110072
0.011034
0.0110606
0.0110874
0.0111146
0.0111424
0.0111708
0.0111999
0.0112296
0.01126
0.0112911
0.0113227
0.0113549
0.0113877
0.011421
0.0114548
0.0114891
0.0115239
0.011559
0.0115945
0.0116304
0.0116665
0.0117028
0.0117397
0.0117769
0.0118144
0.0118521
0.0118899
0.011928
0.0119661
0.0120042
0.0120421
0.0120799
0.0121173
0.012154
0.0121898
0.012224
0.012253
0.0109554
0.010985
0.011013
0.0110397
0.0110662
0.0110928
0.01112
0.0111476
0.0111759
0.0112049
0.0112345
0.0112647
0.0112957
0.0113272
0.0113593
0.011392
0.0114252
0.0114589
0.0114931
0.0115277
0.0115628
0.0115982
0.0116341
0.0116701
0.0117064
0.0117433
0.0117805
0.011818
0.0118557
0.0118937
0.0119318
0.0119701
0.0120084
0.0120466
0.0120846
0.0121223
0.0121594
0.0121955
0.0122301
0.0122593
0.0109612
0.0109907
0.0110185
0.0110451
0.0110715
0.011098
0.011125
0.0111526
0.0111807
0.0112096
0.0112391
0.0112692
0.0113
0.0113314
0.0113634
0.011396
0.0114291
0.0114627
0.0114968
0.0115313
0.0115663
0.0116017
0.0116375
0.0116735
0.0117098
0.0117467
0.0117839
0.0118214
0.0118593
0.0118973
0.0119356
0.011974
0.0120125
0.012051
0.0120893
0.0121273
0.0121647
0.0122012
0.0122362
0.0122657
0.0109668
0.0109962
0.0110238
0.0110503
0.0110765
0.011103
0.0111298
0.0111573
0.0111853
0.011214
0.0112434
0.0112734
0.0113041
0.0113354
0.0113673
0.0113997
0.0114327
0.0114663
0.0115003
0.0115347
0.0115697
0.011605
0.0116408
0.0116767
0.011713
0.0117499
0.0117871
0.0118247
0.0118626
0.0119008
0.0119393
0.0119779
0.0120166
0.0120553
0.0120939
0.0121322
0.01217
0.012207
0.0122423
0.0122721
0.0109722
0.0110014
0.0110289
0.0110553
0.0110814
0.0111077
0.0111344
0.0111617
0.0111897
0.0112183
0.0112475
0.0112774
0.011308
0.0113392
0.0113709
0.0114033
0.0114362
0.0114696
0.0115036
0.011538
0.0115728
0.0116081
0.0116439
0.0116798
0.011716
0.0117529
0.0117902
0.0118279
0.0118659
0.0119042
0.0119428
0.0119816
0.0120205
0.0120595
0.0120984
0.0121371
0.0121753
0.0122127
0.0122484
0.0122786
0.0109774
0.0110064
0.0110338
0.01106
0.011086
0.0111122
0.0111388
0.011166
0.0111938
0.0112223
0.0112514
0.0112812
0.0113116
0.0113427
0.0113744
0.0114066
0.0114395
0.0114728
0.0115066
0.011541
0.0115758
0.0116111
0.0116468
0.0116827
0.0117189
0.0117558
0.0117932
0.0118309
0.0118691
0.0119075
0.0119462
0.0119852
0.0120244
0.0120637
0.0121029
0.012142
0.0121806
0.0122184
0.0122546
0.0122852
0.0109824
0.0110112
0.0110384
0.0110645
0.0110904
0.0111164
0.0111429
0.01117
0.0111977
0.011226
0.0112551
0.0112848
0.0113151
0.0113461
0.0113776
0.0114098
0.0114425
0.0114758
0.0115095
0.0115438
0.0115786
0.0116138
0.0116495
0.0116854
0.0117216
0.0117586
0.011796
0.0118339
0.0118721
0.0119106
0.0119496
0.0119888
0.0120282
0.0120678
0.0121074
0.0121468
0.0121858
0.0122241
0.0122608
0.0122918
0.0109872
0.0110158
0.0110429
0.0110688
0.0110945
0.0111205
0.0111469
0.0111738
0.0112014
0.0112296
0.0112585
0.0112881
0.0113183
0.0113492
0.0113807
0.0114127
0.0114454
0.0114785
0.0115123
0.0115465
0.0115812
0.0116164
0.0116521
0.011688
0.0117242
0.0117612
0.0117987
0.0118366
0.011875
0.0119137
0.0119528
0.0119922
0.0120319
0.0120718
0.0121117
0.0121516
0.0121911
0.0122299
0.0122671
0.0122985
0.0109919
0.0110202
0.0110471
0.011073
0.0110985
0.0111243
0.0111506
0.0111774
0.0112049
0.011233
0.0112618
0.0112913
0.0113214
0.0113521
0.0113835
0.0114155
0.011448
0.0114811
0.0115148
0.011549
0.0115836
0.0116188
0.0116545
0.0116904
0.0117266
0.0117637
0.0118013
0.0118393
0.0118778
0.0119166
0.0119559
0.0119956
0.0120355
0.0120757
0.012116
0.0121563
0.0121963
0.0122356
0.0122734
0.0123053
0.0109963
0.0110245
0.0110512
0.0110769
0.0111024
0.011128
0.0111542
0.0111809
0.0112082
0.0112362
0.0112649
0.0112942
0.0113242
0.0113549
0.0113862
0.0114181
0.0114505
0.0114836
0.0115172
0.0115513
0.0115859
0.0116211
0.0116568
0.0116927
0.0117289
0.0117661
0.0118037
0.0118418
0.0118804
0.0119195
0.0119589
0.0119988
0.0120391
0.0120796
0.0121203
0.012161
0.0122015
0.0122414
0.0122797
0.0123121
0.0110006
0.0110286
0.0110552
0.0110807
0.011106
0.0111315
0.0111575
0.0111841
0.0112113
0.0112392
0.0112678
0.011297
0.0113269
0.0113575
0.0113886
0.0114204
0.0114528
0.0114858
0.0115193
0.0115534
0.011588
0.0116232
0.0116589
0.0116949
0.0117311
0.0117683
0.011806
0.0118443
0.011883
0.0119222
0.0119619
0.012002
0.0120425
0.0120834
0.0121245
0.0121657
0.0122067
0.0122472
0.0122861
0.0123191
0.0110047
0.0110325
0.0110589
0.0110843
0.0111094
0.0111348
0.0111607
0.0111872
0.0112143
0.011242
0.0112705
0.0112996
0.0113294
0.0113599
0.0113909
0.0114227
0.011455
0.0114879
0.0115214
0.0115554
0.01159
0.0116251
0.0116608
0.0116969
0.0117331
0.0117704
0.0118082
0.0118466
0.0118854
0.0119248
0.0119647
0.0120051
0.0120459
0.0120872
0.0121287
0.0121703
0.0122119
0.012253
0.0122926
0.0123261
0.0110087
0.0110362
0.0110625
0.0110877
0.0111127
0.011138
0.0111637
0.0111901
0.011217
0.0112447
0.011273
0.011302
0.0113317
0.0113621
0.0113931
0.0114247
0.011457
0.0114898
0.0115232
0.0115572
0.0115918
0.0116269
0.0116626
0.0116987
0.011735
0.0117724
0.0118103
0.0118487
0.0118878
0.0119273
0.0119675
0.0120081
0.0120493
0.0120908
0.0121328
0.0121749
0.0122171
0.0122588
0.0122991
0.0123332
0.0110125
0.0110398
0.0110659
0.011091
0.0111158
0.011141
0.0111666
0.0111928
0.0112196
0.0112471
0.0112754
0.0113043
0.0113339
0.0113641
0.011395
0.0114266
0.0114588
0.0114916
0.0115249
0.0115589
0.0115935
0.0116286
0.0116643
0.0117004
0.0117368
0.0117742
0.0118122
0.0118508
0.01189
0.0119298
0.0119701
0.0120111
0.0120525
0.0120945