/*--------------------------------*- C++ -*----------------------------------*\
  =========                 |
  \\      /  F ield         | OpenFOAM: The Open Source CFD Toolbox
   \\    /   O peration     | Website:  https://openfoam.org
    \\  /    A nd           | Version:  8
     \\/     M anipulation  |
\*---------------------------------------------------------------------------*/
FoamFile
{
    version     2.0;
    format      ascii;
    class       volScalarField;
    location    "20000/gas";
    object      k;
}
// * * * * * * * * * * * * * * * * * * * * * * * * * * * * * * * * * * * * * //

dimensions      [0 2 -2 0 0 0 0];

internalField   nonuniform List<scalar> 
16000
(
0.000415473
0.000325738
0.000287534
0.000168706
0.00133555
0.00062441
0.000565686
0.000185926
0.00132587
0.000820866
0.000779392
0.000219039
0.00137342
0.000943138
0.000872067
0.00025131
0.00160024
0.00103663
0.000928573
0.000278409
0.00184719
0.00110905
0.000985478
0.00030179
0.00187072
0.00116033
0.00104301
0.000322824
0.00182173
0.0011945
0.00109605
0.000342452
0.00175434
0.00121458
0.00113932
0.000360875
0.00167503
0.00122234
0.00116989
0.000377885
0.00159991
0.00122059
0.00118705
0.000392956
0.00153317
0.0012123
0.00119273
0.000405801
0.00147508
0.00120006
0.00119003
0.000416457
0.00142464
0.00118564
0.00118141
0.000424971
0.00138053
0.0011695
0.00116852
0.000431382
0.00134162
0.001152
0.00115243
0.000435822
0.00130698
0.00113368
0.00113395
0.000438567
0.00127583
0.00111492
0.00111392
0.000439748
0.0012475
0.00109588
0.00109298
0.000439514
0.00122138
0.00107667
0.00107157
0.000438027
0.00119696
0.00105739
0.00105002
0.000435427
0.00117384
0.00103812
0.00102854
0.000431849
0.00115172
0.00101895
0.00100724
0.000427417
0.00113037
0.00099991
0.000986218
0.000422245
0.00110964
0.000981149
0.000965522
0.000416436
0.00108937
0.000962433
0.000945173
0.000410086
0.00106957
0.000944457
0.000925225
0.000403278
0.00105023
0.000926937
0.000905781
0.000396097
0.00103129
0.000909617
0.000886777
0.000388613
0.00101269
0.000892512
0.000868169
0.000380884
0.000994417
0.000875645
0.000849956
0.000372963
0.000976451
0.000859025
0.000832133
0.000364896
0.000958782
0.000842661
0.000814696
0.000356725
0.000941409
0.000826583
0.000797642
0.000348487
0.000924302
0.000810621
0.000780945
0.000340212
0.000907445
0.000794919
0.00076461
0.000331929
0.000890862
0.000779517
0.000748615
0.000323665
0.000874463
0.000764524
0.000732904
0.000315418
0.000858469
0.00074983
0.000717956
0.000307464
0.000841956
0.000735621
0.000699856
0.000298625
0.000168791
0.000195689
0.0002226
0.000229524
0.000230985
0.000229746
0.000227332
0.00022445
0.00022145
0.000218492
0.000215647
0.000212941
0.000210375
0.000207943
0.000205632
0.000203428
0.000201319
0.000199289
0.000197321
0.000195399
0.00019351
0.00019164
0.000189774
0.000187896
0.000185986
0.000184015
0.000181943
0.000179707
0.000177219
0.000174268
0.000170468
0.000167774
0.000176309
0.000273817
0.000329305
0.000346997
0.000353348
0.000352322
0.000346827
0.000339011
0.000330181
0.000321082
0.000312115
0.000303475
0.000295242
0.000287431
0.000280023
0.000272978
0.000266245
0.000259777
0.000253531
0.00024746
0.000241518
0.00023566
0.000229839
0.00022401
0.000218123
0.000212121
0.000205943
0.00019952
0.000192741
0.000185191
0.000175722
0.000163191
0.000192931
0.00035756
0.000425796
0.000450853
0.000461852
0.000462835
0.000456873
0.000446565
0.000433841
0.000419999
0.000405851
0.000391873
0.000378318
0.0003653
0.000352848
0.000340938
0.000329522
0.000318536
0.000307915
0.000297589
0.000287491
0.000277554
0.000267716
0.000257919
0.000248111
0.000238242
0.000228271
0.000218143
0.000207671
0.000196135
0.000181258
0.000158425
0.00021823
0.000435823
0.000511545
0.000541458
0.000556031
0.000559341
0.00055422
0.000543199
0.000528405
0.000511456
0.000493488
0.000475247
0.00045719
0.000439572
0.000422515
0.000406053
0.000390165
0.000374803
0.000359901
0.000345387
0.000331189
0.00031724
0.000303481
0.000289864
0.000276353
0.00026292
0.000249537
0.000236118
0.000222318
0.00020704
0.000186877
0.000153571
0.00025043
0.00050575
0.000587685
0.000621005
0.000638111
0.00064341
0.000639533
0.000628753
0.00061313
0.000594378
0.000573813
0.00055238
0.000530718
0.000509228
0.000488144
0.000467581
0.000447573
0.00042811
0.000409149
0.000390638
0.000372521
0.000354748
0.000337281
0.000320094
0.000303177
0.000286519
0.000270075
0.000253691
0.000236814
0.00021796
0.000192691
0.000149988
0.000287449
0.000567606
0.000655247
0.000691253
0.000710145
0.000716956
0.000714278
0.000704137
0.000688408
0.000668755
0.000646544
0.000622835
0.000598395
0.000573754
0.000549254
0.000525099
0.000501397
0.00047819
0.000455481
0.000433253
0.000411484
0.000390158
0.000369267
0.000348816
0.000328817
0.000309259
0.000290062
0.000270978
0.000251235
0.00022898
0.000198809
0.0001473
0.000327238
0.000621767
0.000715067
0.000753451
0.00077367
0.000781578
0.000779895
0.000770481
0.000755012
0.000735025
0.000711853
0.000686589
0.000660078
0.000632941
0.000605616
0.000578393
0.000551455
0.000524911
0.000498819
0.000473214
0.000448121
0.000423563
0.000399572
0.000376184
0.000353423
0.000331268
0.000309588
0.00028803
0.000265615
0.000240145
0.000205298
0.000145303
0.000368215
0.000669787
0.000767994
0.000808568
0.000829844
0.000838541
0.000837624
0.000828878
0.000813813
0.00079382
0.000770149
0.000743872
0.000715862
0.000686799
0.00065719
0.000627402
0.000597692
0.000568237
0.00053916
0.000510554
0.000482494
0.000455054
0.000428304
0.000402304
0.000377088
0.000352612
0.000328688
0.000304865
0.000279963
0.000251471
0.000212195
0.00014394
0.000409149
0.000712514
0.000814815
0.000857414
0.000879582
0.000888857
0.000888502
0.000880309
0.00086567
0.000845838
0.000821963
0.000795061
0.000765999
0.000735483
0.000704068
0.000672182
0.000640149
0.00060821
0.000576554
0.000545333
0.000514679
0.000484713
0.000455542
0.000427248
0.000399862
0.000373319
0.000347372
0.000321472
0.000294264
0.000262951
0.000219514
0.000143196
0.000449149
0.000750631
0.000856239
0.000900693
0.000923647
0.000933354
0.0009334
0.000925635
0.000911379
0.000891775
0.000867871
0.000840614
0.000810839
0.000779253
0.000746443
0.000712878
0.000678938
0.000644925
0.000611087
0.000577636
0.000544757
0.000512615
0.00048135
0.00045106
0.000421774
0.000393396
0.000365627
0.000337831
0.000308491
0.000274559
0.000227245
0.000143064
0.000487587
0.000784715
0.000892894
0.00093903
0.000962688
0.000972731
0.000973054
0.0009656
0.00095166
0.000932293
0.000908454
0.000881021
0.000850784
0.000818436
0.000784572
0.000749696
0.000714228
0.000678521
0.000642878
0.000607564
0.000572813
0.000538828
0.000505778
0.000473772
0.000442832
0.000412836
0.000383434
0.000353911
0.000322611
0.000286261
0.000235362
0.000143523
0.000524029
0.000815226
0.000925328
0.000972975
0.000997274
0.00100759
0.00100809
0.00100085
0.000987155
0.000968001
0.000944272
0.000916778
0.00088626
0.000853387
0.000818755
0.000782881
0.000746219
0.000709164
0.000672065
0.000635229
0.000598935
0.000563418
0.000528869
0.000495406
0.000463041
0.000431625
0.000400766
0.000369677
0.000336583
0.000298015
0.000243817
0.000144566
0.000558194
0.000842535
0.00095402
0.00100301
0.0010279
0.00103844
0.00103906
0.00103196
0.00101843
0.000999454
0.000975847
0.000948361
0.000917692
0.000884479
0.000849306
0.000812701
0.000775137
0.00073704
0.000698796
0.000660751
0.000623214
0.00058645
0.000550665
0.000515981
0.0004824
0.000449749
0.000417597
0.000385096
0.000350367
0.000309775
0.000252557
0.000146189
0.000589916
0.000866948
0.00097938
0.00102958
0.00105501
0.00106574
0.00106644
0.00105941
0.00104599
0.00102715
0.00100366
0.000976221
0.000945491
0.000912077
0.000876548
0.000839432
0.000801214
0.000762343
0.00072323
0.000684252
0.000645743
0.000607989
0.000571205
0.000535514
0.000500907
0.000467191
0.0004339
0.000400132
0.000363923
0.000321492
0.000261518
0.000148388
0.000619117
0.000888726
0.00100177
0.00105304
0.001079
0.0010899
0.00109065
0.00108364
0.00107029
0.00105153
0.00102814
0.00100077
0.000970045
0.000936535
0.000900795
0.000863348
0.000824685
0.000785268
0.000745528
0.000705861
0.000666619
0.000628101
0.000590529
0.000554024
0.000518565
0.00048394
0.000449653
0.000414755
0.000377211
0.000333114
0.000270633
0.000151142
0.000645788
0.000908094
0.00102149
0.00107375
0.00110019
0.00111127
0.00111204
0.00110503
0.0010917
0.001073
0.00104969
0.0010224
0.000991714
0.000958185
0.000922348
0.000884717
0.000845782
0.000806012
0.000765849
0.000725702
0.000685935
0.000646854
0.000608682
0.000571534
0.00053538
0.000499988
0.000464837
0.000428938
0.000390195
0.000344593
0.000279833
0.000154416
0.000669969
0.00092525
0.00103883
0.00109198
0.0011189
0.00113016
0.00113095
0.00112392
0.00111058
0.00109191
0.00106866
0.00104145
0.00101083
0.000977337
0.00094149
0.000903791
0.000864725
0.000824762
0.00078435
0.000743902
0.000703789
0.000664317
0.000625707
0.000588069
0.000551359
0.00051533
0.000479437
0.000442656
0.000402841
0.000355882
0.000289051
0.000158172
0.000691738
0.000940373
0.00105402
0.001108
0.0011354
0.00114684
0.00114767
0.0011406
0.00112723
0.00110857
0.00108536
0.00105822
0.00102769
0.000994274
0.000958484
0.000920807
0.000881724
0.000841699
0.000801181
0.000760583
0.000720274
0.000680559
0.000641654
0.000603659
0.000566517
0.000529966
0.000493442
0.000455891
0.000415121
0.000366938
0.000298226
0.000162362
0.000711199
0.000953629
0.00106727
0.00112205
0.00114993
0.00116158
0.00116244
0.00115534
0.00114193
0.00112326
0.00110008
0.001073
0.00104256
0.00100926
0.000973572
0.000935988
0.000896975
0.000856994
0.000816486
0.000775862
0.000735484
0.000695652
0.000656572
0.000618334
0.00058087
0.000543902
0.000506848
0.000468628
0.000427009
0.000377723
0.000307299
0.000166931
0.000728473
0.000965169
0.00107879
0.00113433
0.00116271
0.00117459
0.00117551
0.00116839
0.00115493
0.00113623
0.00111307
0.00108605
0.0010557
0.00102252
0.000986974
0.000949535
0.000910663
0.000870808
0.000830404
0.000789853
0.00074951
0.000709665
0.000670513
0.000632131
0.000594439
0.000557145
0.000519652
0.000480854
0.000438484
0.000388206
0.000316223
0.000171823
0.00074369
0.000975134
0.00108874
0.00114504
0.00117394
0.00118608
0.00118708
0.00117994
0.00116644
0.00114771
0.00112455
0.00109758
0.00106732
0.00103427
0.000998892
0.000961636
0.000922954
0.000883289
0.000843061
0.000802664
0.00076244
0.000722667
0.000683527
0.000645085
0.000607248
0.000569709
0.000531857
0.000492565
0.000449531
0.000398358
0.000324952
0.000176978
0.000756986
0.000983657
0.00109729
0.00115436
0.00118379
0.00119623
0.00119734
0.0011902
0.00117666
0.00115789
0.00113473
0.00110779
0.00107763
0.00104472
0.00100951
0.00097246
0.000934006
0.000894576
0.00085458
0.000814398
0.000774359
0.000734726
0.000695668
0.000657236
0.000619323
0.000581611
0.00054347
0.000503758
0.000460139
0.000408158
0.00033345
0.000182337
0.0007685
0.000990864
0.00110458
0.00116243
0.00119245
0.00120522
0.00120646
0.00119935
0.00118578
0.00116697
0.00114379
0.00111688
0.0010868
0.00105402
0.00101899
0.000982165
0.00094396
0.000904797
0.000865073
0.000825151
0.000785348
0.000745909
0.000706989
0.000668625
0.000630695
0.000592867
0.000554502
0.000514434
0.000470299
0.000417589
0.000341691
0.000187842
0.000778365
0.000996876
0.00111077
0.00116943
0.00120006
0.0012132
0.00121462
0.00120755
0.00119395
0.0011751
0.0011519
0.00112501
0.001095
0.00106234
0.00102749
0.00099089
0.000952948
0.000914072
0.000874645
0.000835016
0.000795485
0.000756281
0.000717543
0.000679291
0.000641393
0.000603502
0.000564964
0.000524597
0.00048001
0.000426639
0.00034965
0.000193442
0.000786716
0.00100181
0.00111597
0.00117549
0.00120678
0.00122034
0.00122196
0.00121495
0.00120134
0.00118245
0.00115921
0.00113233
0.00110237
0.00106983
0.00103515
0.000998767
0.000961089
0.000922509
0.000883394
0.000844079
0.000804844
0.000765904
0.00072738
0.000689278
0.000651449
0.000613537
0.000574873
0.000534258
0.00048927
0.000435302
0.000357311
0.000199085
0.000793682
0.00100578
0.00112033
0.00118075
0.00121277
0.00122678
0.00122864
0.00122171
0.00120809
0.00118915
0.00116587
0.00113898
0.00110906
0.00107661
0.00104208
0.00100591
0.000968494
0.000930209
0.000891412
0.00085242
0.000813497
0.000774839
0.000736552
0.000698626
0.000660898
0.000622999
0.000584246
0.000543424
0.000498085
0.000443574
0.000364663
0.000204727
0.000799386
0.00100889
0.00112398
0.00118538
0.00121817
0.00123268
0.00123481
0.00122798
0.00121435
0.00119535
0.00117201
0.00114509
0.00111518
0.0010828
0.00104841
0.00101244
0.000975263
0.000937265
0.000898782
0.000860114
0.000821508
0.000783143
0.000745108
0.000707376
0.000669772
0.000631913
0.000593103
0.000552111
0.00050646
0.000451456
0.000371697
0.000210329
0.00080395
0.00101126
0.00112706
0.00118951
0.00122314
0.0012382
0.00124062
0.00123389
0.00122025
0.00120118
0.00117776
0.00115078
0.00112085
0.00108852
0.00105424
0.00101844
0.00098149
0.000943764
0.000905583
0.000867233
0.000828942
0.000790872
0.000753096
0.00071557
0.000678106
0.000640307
0.000601466
0.000560333
0.000514405
0.00045895
0.000378411
0.000215854
0.000807491
0.00101301
0.00112972
0.00119332
0.00122784
0.00124349
0.00124622
0.0012396
0.00122593
0.00120677
0.00118324
0.00115616
0.00112619
0.00109387
0.00105967
0.001024
0.000987259
0.000949783
0.000911888
0.000873842
0.000835858
0.000798079
0.000760561
0.000723247
0.000685933
0.00064821
0.000609356
0.000568107
0.00052193
0.000466063
0.000384803
0.000221274
0.000810125
0.00101427
0.00113212
0.00119699
0.00123248
0.00124875
0.00125179
0.00124526
0.00123153
0.00121225
0.00118856
0.00116135
0.00113129
0.00109894
0.00106478
0.00102922
0.000992648
0.000955396
0.000917763
0.000880003
0.000842311
0.000804813
0.000767549
0.000730446
0.000693287
0.000655648
0.000616796
0.000575449
0.000529049
0.000472802
0.000390876
0.000226562
0.000811972
0.00101518
0.00113447
0.00120075
0.00123726
0.00125416
0.0012575
0.00125102
0.0012372
0.00121773
0.00119384
0.00116644
0.00113624
0.00110382
0.00106965
0.00103417
0.000997729
0.000960669
0.00092327
0.000885772
0.000848353
0.000811122
0.000774102
0.000737205
0.0007002
0.00066265
0.000623809
0.00058238
0.000535775
0.000479177
0.000396634
0.0002317
0.000813157
0.00101592
0.00113701
0.00120484
0.00124244
0.00125995
0.00126354
0.00125705
0.00124306
0.00122334
0.00119918
0.00117153
0.00114114
0.00110859
0.00107437
0.00103891
0.00100257
0.000965662
0.000928466
0.000891202
0.000854033
0.00081705
0.00078026
0.00074356
0.000706704
0.000669245
0.00063042
0.000588918
0.000542125
0.0004852
0.000402084
0.00023667
0.000813819
0.00101673
0.00114006
0.0012096
0.0012483
0.00126638
0.00127012
0.00126352
0.00124925
0.00122919
0.00120468
0.00117671
0.00114605
0.00111332
0.00107899
0.00104351
0.00100722
0.000970429
0.000933402
0.000896342
0.000859395
0.000822638
0.00078606
0.000749544
0.00071283
0.000675458
0.000636652
0.000595084
0.000548113
0.000490883
0.000407232
0.000241461
0.000814123
0.00101791
0.00114404
0.00121545
0.00125519
0.00127371
0.00127745
0.00127059
0.00125591
0.00123539
0.00121042
0.00118204
0.00115105
0.00111806
0.00108358
0.00104802
0.00101173
0.00097502
0.000938124
0.000901234
0.000864481
0.000827925
0.000791539
0.000755191
0.000718608
0.000681316
0.000642527
0.000600897
0.000553758
0.000496239
0.000412089
0.000246062
0.000814275
0.00101993
0.00114952
0.00122288
0.00126351
0.00128221
0.00128572
0.00127838
0.00126313
0.001242
0.00121646
0.00118759
0.00115618
0.00112287
0.00108817
0.00105248
0.00101616
0.000979476
0.000942671
0.000905917
0.000869328
0.000832946
0.000796729
0.000760532
0.000724066
0.000686846
0.000648069
0.000606377
0.000559076
0.000501283
0.000416664
0.000250468
0.000814549
0.00102349
0.00115726
0.00123249
0.00127362
0.00129213
0.00129507
0.001287
0.00127096
0.00124908
0.00122285
0.00119338
0.00116148
0.00112778
0.0010928
0.00105694
0.00102052
0.000983831
0.000947079
0.000910426
0.000873968
0.000837732
0.000801662
0.000765595
0.000729231
0.000692071
0.000653299
0.000611544
0.000564083
0.000506029
0.000420968
0.000254675
0.00081525
0.00102971
0.00116812
0.00124477
0.00128575
0.00130351
0.00130549
0.00129641
0.00127939
0.00125661
0.00122958
0.00119942
0.00116695
0.00113281
0.00109749
0.0010614
0.00102486
0.000988113
0.000951377
0.000914789
0.000878431
0.000842313
0.000806363
0.000770406
0.000734127
0.000697014
0.00065824
0.000616417
0.000568798
0.000510492
0.000425012
0.000258682
0.000816166
0.00103969
0.00118248
0.0012596
0.00129959
0.00131606
0.00131673
0.00130642
0.00128828
0.00126449
0.00123658
0.00120567
0.00117259
0.00113795
0.00110226
0.00106589
0.00102917
0.000992343
0.000955586
0.00091903
0.000882741
0.000846713
0.000810859
0.00077499
0.000738778
0.000701698
0.000662911
0.000621014
0.000573237
0.000514687
0.000428807
0.000262488
0.0008138
0.00105433
0.00119835
0.00127497
0.00131367
0.00132878
0.00132814
0.00131661
0.00129735
0.00127255
0.00124376
0.00121208
0.00117834
0.00114318
0.00110708
0.00107041
0.00103349
0.000996534
0.000959724
0.000923169
0.000886919
0.000850953
0.000815171
0.000779368
0.000743205
0.000706144
0.000667333
0.000625355
0.000577416
0.000518627
0.000432366
0.000266098
0.000767821
0.0010415
0.00120181
0.00128418
0.00132457
0.00133982
0.00133863
0.00132632
0.0013062
0.00128054
0.00125093
0.00121851
0.00118414
0.00114845
0.00111193
0.00107494
0.00103779
0.00100069
0.000963799
0.000927218
0.00089098
0.000855052
0.000819318
0.00078356
0.000747427
0.000710369
0.000671522
0.000629455
0.000581352
0.000522328
0.000435699
0.000269512
0.000274258
0.000414757
0.000529648
0.000618583
0.00069382
0.000760697
0.000821768
0.000878397
0.000931378
0.000981164
0.001028
0.00107201
0.00111321
0.00115158
0.00118702
0.00121943
0.00124868
0.00127459
0.00129702
0.00131577
0.00133066
0.00134149
0.00134806
0.00135017
0.00134761
0.00134017
0.00132763
0.00130978
0.00128637
0.00125719
0.00122197
0.00118045
0.00113229
0.00107708
0.00101425
0.000942944
0.000861702
0.000767931
0.00065702
0.000528067
0.000284101
0.000425321
0.000537862
0.000625507
0.000699996
0.000766412
0.000827199
0.000883668
0.000936569
0.000986329
0.00103318
0.00107723
0.0011185
0.00115694
0.00119248
0.00122499
0.00125434
0.00128037
0.00130291
0.00132177
0.00133677
0.00134772
0.0013544
0.00135661
0.00135415
0.00134679
0.00133433
0.00131654
0.00129318
0.00126403
0.00122882
0.00118727
0.00113907
0.00108379
0.00102086
0.000949421
0.000868042
0.000774177
0.000663236
0.000533728
0.000294702
0.00043724
0.000547503
0.000634026
0.000707965
0.000774082
0.000834707
0.000891104
0.000943994
0.000993785
0.0010407
0.00108483
0.00112619
0.00116474
0.00120038
0.00123301
0.00126247
0.0012886
0.00131124
0.0013302
0.00134528
0.00135629
0.00136303
0.00136528
0.00136283
0.00135547
0.00134298
0.00132513
0.00130168
0.0012724
0.00123703
0.00119528
0.00114682
0.00109124
0.00102796
0.000956131
0.000874336
0.000780064
0.000668846
0.00053966
0.000303755
0.000447567
0.000556613
0.000642581
0.000716297
0.000782336
0.000842962
0.000899409
0.000952378
0.00100227
0.0010493
0.00109355
0.00113504
0.00117371
0.00120947
0.00124221
0.00127178
0.00129801
0.00132073
0.00133976
0.00135489
0.00136594
0.0013727
0.00137495
0.00137248
0.00136507
0.0013525
0.00133454
0.00131096
0.00128151
0.00124593
0.00120393
0.00115518
0.00109928
0.00103564
0.000963426
0.000881233
0.000786571
0.000675064
0.000545937
0.000311811
0.000457041
0.00056534
0.000651001
0.000724642
0.000790718
0.000851441
0.000908016
0.000961131
0.00101118
0.00105836
0.00110277
0.00114441
0.00118322
0.00121912
0.00125198
0.00128166
0.00130799
0.0013308
0.00134989
0.00136508
0.00137617
0.00138294
0.00138518
0.00138268
0.00137522
0.00136258
0.00134451
0.00132079
0.00129118
0.00125539
0.00121316
0.00116414
0.00110792
0.00104394
0.000971334
0.000888722
0.000793609
0.0006817
0.00055247
0.000319213
0.000465918
0.000573838
0.000659356
0.000732996
0.000799156
0.000860014
0.000916754
0.000970049
0.00102028
0.00106765
0.00111224
0.00115405
0.00119303
0.00122908
0.00126208
0.00129189
0.00131833
0.00134123
0.00136041
0.00137567
0.0013868
0.0013936
0.00139585
0.00139334
0.00138585
0.00137315
0.001355
0.00133117
0.0013014
0.00126544
0.00122299
0.00117371
0.00111718
0.00105283
0.000979809
0.000896728
0.000801088
0.000688671
0.000559223
0.00032619
0.000474411
0.000582233
0.000667739
0.000741431
0.0008077
0.000868706
0.000925622
0.000979109
0.00102954
0.00107711
0.00112189
0.00116389
0.00120305
0.00123928
0.00127244
0.00130239
0.00132897
0.00135199
0.00137128
0.00138662
0.00139783
0.00140468
0.00140697
0.00140448
0.00139698
0.00138424
0.00136603
0.00134211
0.00131222
0.00127608
0.00123342
0.00118387
0.00112701
0.00106228
0.0009888
0.000905187
0.000808949
0.000695926
0.000566166
0.000332884
0.000482649
0.0005906
0.000676213
0.000750014
0.000816414
0.000877579
0.000934676
0.000988359
0.00103899
0.00108677
0.00113176
0.00117397
0.00121333
0.00124974
0.00128308
0.0013132
0.00133994
0.00136311
0.00138252
0.00139798
0.00140928
0.00141622
0.00141857
0.00141612
0.00140863
0.00139589
0.00137763
0.00135363
0.00132362
0.00128732
0.00124444
0.00119461
0.00113741
0.00107225
0.000998262
0.000914048
0.000817143
0.000703424
0.000573276
0.000339386
0.000490717
0.000598979
0.00068481
0.000758783
0.000825348
0.000886688
0.000943974
0.000997858
0.0010487
0.0010967
0.00114191
0.00118433
0.0012239
0.00126052
0.00129406
0.00132437
0.00135128
0.00137462
0.00139418
0.00140978
0.00142121
0.00142825
0.00143069
0.0014283
0.00142085
0.0014081
0.00138982
0.00136575
0.00133562
0.00129915
0.00125603
0.0012059
0.00114832
0.0010827
0.00100816
0.000923273
0.000825631
0.00071113
0.000580537
0.000345757
0.000498671
0.000607394
0.000693546
0.000767756
0.000834527
0.000896068
0.000953558
0.00100765
0.00105872
0.00110694
0.00115237
0.00119502
0.00123482
0.00127166
0.00130542
0.00133594
0.00136305
0.00138657
0.00140632
0.00142208
0.00143365
0.00144082
0.00144336
0.00144104
0.00143364
0.00142091
0.0014026
0.00137846
0.0013482
0.00131155
0.00126818
0.00121773
0.00115973
0.00109359
0.00101844
0.000932833
0.000834383
0.000719017
0.000587931
0.000352039
0.000506549
0.000615857
0.000702423
0.000776937
0.000843964
0.000905738
0.000963455
0.00101778
0.00106908
0.00111753
0.00116321
0.0012061
0.00124613
0.00128321
0.0013172
0.00134795
0.00137528
0.00139901
0.00141895
0.00143489
0.00144662
0.00145393
0.00145659
0.00145436
0.00144701
0.0014343
0.00141597
0.00139175
0.00136136
0.00132451
0.00128087
0.00123005
0.0011716
0.00110491
0.00102909
0.000942708
0.000843376
0.000727082
0.000595432
0.000358264
0.000514379
0.000624378
0.00071144
0.000786324
0.000853656
0.000915703
0.000973676
0.00102825
0.0010798
0.00112851
0.00117444
0.00121758
0.00125787
0.00129521
0.00132945
0.00136044
0.001388
0.00141196
0.00143211
0.00144824
0.00146015
0.00146761
0.00147039
0.00146826
0.00146097
0.00144827
0.00142991
0.0014056
0.00137507
0.001338
0.00129406
0.00124286
0.00118392
0.00111662
0.00104008
0.000952868
0.00085259
0.000735311
0.000603021
0.00036446
0.00052218
0.000632963
0.000720592
0.000795908
0.000863598
0.000925958
0.000984221
0.00103908
0.0010909
0.00113987
0.00118608
0.00122949
0.00127006
0.00130766
0.00134216
0.00137341
0.00140123
0.00142542
0.0014458
0.00146214
0.00147423
0.00148185
0.00148476
0.00148273
0.0014755
0.00146282
0.00144442
0.00142002
0.00138933
0.00135202
0.00130775
0.00125612
0.00119666
0.00112871
0.0010514
0.000963295
0.000862008
0.000743683
0.000610683
0.000370656
0.000529967
0.000641618
0.000729875
0.000805684
0.000873781
0.000936496
0.000995084
0.00105025
0.00110237
0.00115164
0.00119813
0.00124184
0.00128269
0.00132058
0.00135537
0.00138689
0.00141497
0.00143941
0.00146002
0.00147658
0.00148887
0.00149666
0.00149971
0.00149778
0.00149061
0.00147793
0.00145949
0.00143498
0.00140411
0.00136654
0.00132192
0.00126984
0.0012098
0.00114117
0.00106303
0.000973974
0.000871618
0.000752183
0.000618402
0.000376888
0.00053775
0.000650345
0.000739287
0.000815646
0.000884195
0.000947306
0.00100626
0.00106176
0.0011142
0.00116379
0.00121061
0.00125462
0.00129578
0.00133397
0.00136906
0.00140087
0.00142922
0.00145393
0.00147479
0.00149158
0.00150407
0.00151203
0.00151522
0.00151338
0.00150627
0.0014936
0.0014751
0.00145047
0.0014194
0.00138155
0.00133655
0.00128398
0.00122334
0.00115397
0.00107496
0.000984891
0.000881405
0.000760797
0.000626163
0.000383177
0.000545545
0.000659151
0.000748832
0.000825784
0.000894829
0.000958376
0.00101772
0.0010736
0.0011264
0.00117634
0.00122348
0.00126784
0.00130932
0.00134783
0.00138323
0.00141534
0.00144399
0.00146898
0.00149009
0.00150711
0.00151981
0.00152795
0.00153128
0.00152955
0.00152249
0.00150982
0.00149125
0.00146649
0.0014352
0.00139705
0.00135164
0.00129855
0.00123726
0.0011671
0.00108717
0.000996037
0.000891359
0.00076951
0.00063395
0.000389486
0.000553378
0.000668038
0.000758507
0.00083609
0.000905673
0.000969695
0.00102947
0.00108575
0.00113894
0.00118925
0.00123676
0.00128147
0.0013233
0.00136215
0.00139788
0.00143031
0.00145927
0.00148454
0.00150592
0.00152319
0.0015361
0.00154442
0.00154789
0.00154626
0.00153924
0.00152657
0.00150793
0.00148302
0.0014515
0.00141302
0.00136718
0.00131353
0.00125155
0.00118057
0.00109966
0.0010074
0.00090147
0.000778309
0.00064175
0.000395835
0.000561266
0.000677014
0.00076831
0.000846562
0.00091672
0.000981253
0.0010415
0.00109822
0.00115182
0.00120253
0.00125043
0.00129551
0.00133771
0.00137692
0.001413
0.00144576
0.00147504
0.00150061
0.00152227
0.00153979
0.00155292
0.00156143
0.00156505
0.00156351
0.00155654
0.00154384
0.00152512
0.00150005
0.00146828
0.00142945
0.00138315
0.00132892
0.00126622
0.00119437
0.00111242
0.00101898
0.000911726
0.000787182
0.000649545
0.000402235
0.000569218
0.000686082
0.000778239
0.000857196
0.000927965
0.000993044
0.00105379
0.00111098
0.00116503
0.00121616
0.00126447
0.00130996
0.00135255
0.00139214
0.00142858
0.00146169
0.0014913
0.00151719
0.00153914
0.00155691
0.00157027
0.00157897
0.00158273
0.00158129
0.00157436
0.00156164
0.00154283
0.00151758
0.00148554
0.00144634
0.00139956
0.00134471
0.00128125
0.00120848
0.00112546
0.00103077
0.000922118
0.000796114
0.000657318
0.000408694
0.00057724
0.000695246
0.000788295
0.000867991
0.000939402
0.00100506
0.00106634
0.00112402
0.00117855
0.00123014
0.00127889
0.0013248
0.0013678
0.00140779
0.00144461
0.00147809
0.00150805
0.00153426
0.00155651
0.00157455
0.00158815
0.00159703
0.00160095
0.0015996
0.00159271
0.00157996
0.00156104
0.0015356
0.00150328
0.00146369
0.00141639
0.0013609
0.00129665
0.00122291
0.00113875
0.00104275
0.000932637
0.000805092
0.000665051
0.00041522
0.000585338
0.000704511
0.00079848
0.000878944
0.00095103
0.0010173
0.00107914
0.00113735
0.00119238
0.00124445
0.00129366
0.00134002
0.00138346
0.00142386
0.00146108
0.00149495
0.00152527
0.00155182
0.00157437
0.0015927
0.00160653
0.00161562
0.00161968
0.00161843
0.00161157
0.00159879
0.00157975
0.00155411
0.00152149
0.00148149
0.00143366
0.00137749
0.0013124
0.00123766
0.00115231
0.00105493
0.000943276
0.000814103
0.000672723
0.000421818
0.000593518
0.00071388
0.000808795
0.000890057
0.000962846
0.00102975
0.00109219
0.00115096
0.00120651
0.00125909
0.00130879
0.00135562
0.00139951
0.00144035
0.001478
0.00151226
0.00154296
0.00156986
0.00159273
0.00161134
0.00162543
0.00163471
0.00163893
0.00163777
0.00163094
0.00161812
0.00159896
0.00157311
0.00154018
0.00149975
0.00145136
0.00139448
0.00132852
0.00125273
0.00116613
0.00106731
0.000954025
0.000823131
0.000680313
0.000428495
0.000601784
0.000723359
0.000819245
0.000901331
0.000974851
0.00104242
0.00110548
0.00116483
0.00122094
0.00127405
0.00132427
0.00137159
0.00141596
0.00145726
0.00149534
0.00153003
0.00156111
0.00158837
0.00161158
0.00163049
0.00164483
0.00165432
0.00165869
0.00165763
0.00165083
0.00163796
0.00161867
0.0015926
0.00155934
0.00151846
0.00146948
0.00141187
0.00134501
0.00126812
0.00118021
0.00107987
0.000964879
0.000832163
0.000687799
0.000435255
0.000610144
0.000732951
0.000829831
0.000912767
0.000987043
0.00105531
0.00111901
0.00117897
0.00123566
0.00128933
0.00134009
0.00138793
0.00143279
0.00147457
0.00151311
0.00154823
0.00157972
0.00160736
0.00163092
0.00165013
0.00166472
0.00167443
0.00167896
0.001678
0.00167122
0.0016583
0.00163888
0.00161257
0.00157897
0.00153762
0.00148804
0.00142967
0.00136186
0.00128383
0.00119456
0.00109263
0.000975831
0.000841184
0.000695157
0.000442106
0.0006186
0.00074266
0.000840557
0.000924367
0.000999425
0.00106841
0.00113278
0.00119338
0.00125068
0.00130493
0.00135624
0.00140463
0.00145001
0.00149229
0.0015313
0.00156687
0.00159879
0.00162682
0.00165073
0.00167025
0.00168512
0.00169505
0.00169974
0.00169887
0.00169212
0.00167915
0.00165958
0.00163303
0.00159907
0.00155724
0.00150703
0.00144787
0.00137908
0.00129986
0.00120917
0.00110557
0.000986874
0.000850178
0.000702364
0.00044905
0.00062716
0.000752492
0.000851428
0.000936134
0.001012
0.00108172
0.00114679
0.00120805
0.00126598
0.00132084
0.00137274
0.00142168
0.00146761
0.0015104
0.00154991
0.00158595
0.0016183
0.00164674
0.00167102
0.00169087
0.00170601
0.00171617
0.00172102
0.00172025
0.00171353
0.0017005
0.00168078
0.00165397
0.00161965
0.00157732
0.00152647
0.00146649
0.00139669
0.00131623
0.00122406
0.00111871
0.000998004
0.00085913
0.000709393
0.000456095
0.000635827
0.000762451
0.000862446
0.000948072
0.00102477
0.00109526
0.00116105
0.00122299
0.00128157
0.00133706
0.00138957
0.00143909
0.00148558
0.00152892
0.00156894
0.00160546
0.00163827
0.00166712
0.00169178
0.00171197
0.0017274
0.00173778
0.00174281
0.00174214
0.00173544
0.00172235
0.00170248
0.00167541
0.0016407
0.00159786
0.00154634
0.00148552
0.00141468
0.00133295
0.00123923
0.00113204
0.00100922
0.000868025
0.000716217
0.000463244
0.000644607
0.000772541
0.000873617
0.000960184
0.00103773
0.00110901
0.00117554
0.00123819
0.00129746
0.0013536
0.00140673
0.00145686
0.00150393
0.00154783
0.00158838
0.0016254
0.00165868
0.00168797
0.00171302
0.00173355
0.00174928
0.0017599
0.0017651
0.00176454
0.00175787
0.00174471
0.00172468
0.00169734
0.00166224
0.00161887
0.00156667
0.00150498
0.00143307
0.00135001
0.00125469
0.00114558
0.00102052
0.000876852
0.000722812
0.000470503
0.000653504
0.000782767
0.000884944
0.000972473
0.00105089
0.00112298
0.00119028
0.00125366
0.00131363
0.00137044