/*--------------------------------*- C++ -*----------------------------------*\
  =========                 |
  \\      /  F ield         | OpenFOAM: The Open Source CFD Toolbox
   \\    /   O peration     | Website:  https://openfoam.org
    \\  /    A nd           | Version:  8
     \\/     M anipulation  |
\*---------------------------------------------------------------------------*/
FoamFile
{
    version     2.0;
    format      ascii;
    class       volScalarField;
    location    "20000/gas";
    object      N2;
}
// * * * * * * * * * * * * * * * * * * * * * * * * * * * * * * * * * * * * * //

dimensions      [0 0 0 0 0 0 0];

internalField   nonuniform List<scalar> 
16000
(
3.33067e-16
0
0
1.11022e-16
1.44329e-15
1.22125e-15
0
0
1.88738e-15
2.66454e-15
0
0
4.44089e-15
3.44169e-15
0
0
4.44089e-15
2.77556e-15
0
0
5.9952e-15
3.55271e-15
0
0
6.32827e-15
3.77476e-15
0
0
6.77236e-15
5.32907e-15
0
0
8.10463e-15
5.66214e-15
0
0
8.54872e-15
4.77396e-15
0
1.11022e-16
8.65974e-15
5.77316e-15
0
0
9.54792e-15
6.55032e-15
0
3.33067e-16
7.88258e-15
5.77316e-15
0
1.55431e-15
7.10543e-15
5.10703e-15
0
1.33227e-15
6.21725e-15
3.21965e-15
0
8.88178e-16
6.99441e-15
3.77476e-15
0
2.44249e-15
7.77156e-15
4.21885e-15
0
1.55431e-15
8.10463e-15
4.44089e-15
0
1.11022e-15
8.32667e-15
5.66214e-15
0
2.22045e-16
7.88258e-15
5.55112e-15
0
1.33227e-15
7.10543e-15
4.88498e-15
0
1.88738e-15
6.43929e-15
4.77396e-15
0
1.9984e-15
7.21645e-15
4.32987e-15
0
2.88658e-15
6.77236e-15
4.66294e-15
0
2.77556e-15
6.77236e-15
3.9968e-15
0
3.44169e-15
7.43849e-15
5.9952e-15
0
2.88658e-15
7.54952e-15
5.66214e-15
0
2.9976e-15
7.21645e-15
3.88578e-15
0
3.21965e-15
7.77156e-15
4.55191e-15
0
3.66374e-15
7.10543e-15
5.55112e-15
0
4.32987e-15
8.21565e-15
5.9952e-15
2.22045e-16
4.88498e-15
9.10383e-15
5.55112e-15
1.11022e-16
6.77236e-15
1.13243e-14
8.65974e-15
9.99201e-16
7.77156e-15
3.475e-14
3.84137e-14
2.9865e-14
9.65894e-15
4.301e-13
6.39822e-13
8.32001e-13
1.11355e-13
6.98486e-12
1.28947e-11
2.34789e-11
7.08189e-12
1.11539e-10
2.58146e-10
6.72058e-10
5.41557e-10
1.68288e-09
4.98639e-09
1.92695e-08
4.41262e-08
2.31546e-08
8.97635e-08
5.35468e-07
3.71437e-06
2.72867e-07
1.39604e-06
1.29554e-05
0.000165345
0.79
0.79
0.79
0.79
0.79
0.79
0.79
0.79
0.79
0.79
0.79
0.79
0.79
0.79
0.79
0.79
0.79
0.79
0.79
0.79
0.79
0.79
0.79
0.79
0.79
0.79
0.79
0.79
0.79
0.79
0.79
0.79
0.79
0.79
0.79
0.79
0.79
0.79
0.79
0.79
0.79
0.79
0.79
0.79
0.79
0.79
0.79
0.79
0.79
0.79
0.79
0.79
0.79
0.79
0.79
0.79
0.79
0.79
0.79
0.79
0.79
0.79
0.79
0.79
0.79
0.79
0.79
0.79
0.79
0.79
0.79
0.79
0.79
0.79
0.79
0.79
0.79
0.79
0.79
0.79
0.79
0.79
0.79
0.79
0.79
0.79
0.79
0.79
0.79
0.79
0.79
0.79
0.79
0.79
0.79
0.79
0.79
0.79
0.79
0.79
0.79
0.79
0.79
0.79
0.79
0.79
0.79
0.79
0.79
0.79
0.79
0.79
0.79
0.79
0.79
0.79
0.79
0.79
0.79
0.79
0.79
0.79
0.79
0.79
0.79
0.79
0.79
0.79
0.79
0.79
0.79
0.79
0.79
0.79
0.79
0.79
0.79
0.79
0.79
0.79
0.79
0.79
0.79
0.79
0.79
0.79
0.79
0.79
0.79
0.79
0.79
0.79
0.79
0.79
0.79
0.79
0.79
0.79
0.79
0.79
0.79
0.79
0.79
0.79
0.79
0.79
0.79
0.79
0.79
0.79
0.79
0.79
0.79
0.79
0.79
0.79
0.79
0.79
0.79
0.79
0.79
0.79
0.79
0.79
0.79
0.79
0.79
0.79
0.79
0.79
0.79
0.79
0.79
0.79
0.79
0.79
0.79
0.79
0.79
0.79
0.79
0.79
0.79
0.79
0.79
0.79
0.79
0.79
0.79
0.79
0.79
0.79
0.79
0.79
0.79
0.79
0.79
0.79
0.79
0.79
0.79
0.79
0.79
0.79
0.79
0.79
0.79
0.79
0.79
0.79
0.79
0.79
0.79
0.79
0.79
0.79
0.79
0.79
0.79
0.79
0.79
0.79
0.79
0.79
0.79
0.79
0.79
0.79
0.79
0.79
0.79
0.79
0.79
0.79
0.79
0.79
0.79
0.79
0.79
0.79
0.79
0.79
0.79
0.79
0.79
0.79
0.79
0.79
0.79
0.79
0.79
0.79
0.79
0.79
0.79
0.79
0.79
0.79
0.79
0.79
0.79
0.79
0.79
0.79
0.79
0.79
0.79
0.79
0.79
0.79
0.79
0.79
0.79
0.79
0.79
0.79
0.79
0.79
0.79
0.79
0.79
0.79
0.79
0.79
0.79
0.79
0.79
0.79
0.79
0.79
0.79
0.79
0.79
0.79
0.79
0.79
0.79
0.79
0.79
0.79
0.79
0.79
0.79
0.79
0.79
0.79
0.79
0.79
0.79
0.79
0.79
0.79
0.79
0.79
0.79
0.79
0.79
0.79
0.79
0.79
0.79
0.79
0.79
0.79
0.79
0.79
0.79
0.79
0.79
0.79
0.79
0.79
0.79
0.79
0.79
0.79
0.79
0.79
0.79
0.79
0.79
0.79
0.79
0.79
0.79
0.79
0.79
0.79
0.79
0.79
0.79
0.79
0.79
0.79
0.79
0.79
0.79
0.79
0.79
0.79
0.79
0.79
0.79
0.79
0.79
0.79
0.79
0.79
0.79
0.79
0.79
0.79
0.79
0.79
0.79
0.79
0.79
0.79
0.79
0.79
0.79
0.79
0.79
0.79
0.79
0.79
0.79
0.79
0.79
0.79
0.79
0.79
0.79
0.79
0.79
0.79
0.79
0.79
0.79
0.79
0.79
0.79
0.79
0.79
0.79
0.79
0.79
0.79
0.79
0.79
0.79
0.79
0.79
0.79
0.79
0.79
0.79
0.79
0.79
0.79
0.79
0.79
0.79
0.79
0.79
0.79
0.79
0.79
0.79
0.79
0.79
0.79
0.79
0.79
0.79
0.79
0.79
0.79
0.79
0.79
0.79
0.79
0.79
0.79
0.79
0.79
0.79
0.79
0.79
0.79
0.79
0.79
0.79
0.79
0.79
0.79
0.79
0.79
0.79
0.79
0.79
0.79
0.79
0.79
0.79
0.79
0.79
0.79
0.79
0.79
0.79
0.79
0.79
0.79
0.79
0.79
0.79
0.79
0.79
0.79
0.79
0.79
0.79
0.79
0.79
0.79
0.79
0.79
0.79
0.79
0.79
0.79
0.79
0.79
0.79
0.79
0.79
0.79
0.79
0.79
0.79
0.79
0.79
0.79
0.79
0.79
0.79
0.79
0.79
0.79
0.79
0.79
0.79
0.79
0.79
0.79
0.79
0.79
0.79
0.79
0.79
0.79
0.79
0.79
0.79
0.79
0.79
0.79
0.79
0.79
0.79
0.79
0.79
0.79
0.79
0.79
0.79
0.79
0.79
0.79
0.79
0.79
0.79
0.79
0.79
0.79
0.79
0.79
0.79
0.79
0.79
0.79
0.79
0.79
0.79
0.79
0.79
0.79
0.79
0.79
0.79
0.79
0.79
0.79
0.79
0.79
0.79
0.79
0.79
0.79
0.79
0.79
0.79
0.79
0.79
0.79
0.79
0.79
0.79
0.79
0.79
0.79
0.79
0.79
0.79
0.79
0.79
0.79
0.79
0.79
0.79
0.79
0.79
0.79
0.79
0.79
0.79
0.79
0.79
0.79
0.79
0.79
0.79
0.79
0.79
0.79
0.79
0.79
0.79
0.79
0.79
0.79
0.79
0.79
0.79
0.79
0.79
0.79
0.79
0.79
0.79
0.79
0.79
0.79
0.79
0.79
0.79
0.79
0.79
0.79
0.79
0.79
0.79
0.79
0.79
0.79
0.79
0.79
0.79
0.79
0.79
0.79
0.79
0.79
0.79
0.79
0.79
0.79
0.79
0.79
0.79
0.79
0.79
0.79
0.79
0.79
0.79
0.79
0.79
0.79
0.79
0.79
0.79
0.79
0.79
0.79
0.79
0.79
0.79
0.79
0.79
0.79
0.79
0.79
0.79
0.79
0.79
0.79
0.79
0.79
0.79
0.79
0.79
0.79
0.79
0.79
0.79
0.79
0.79
0.79
0.79
0.79
0.79
0.79
0.79
0.79
0.79
0.79
0.79
0.79
0.79
0.79
0.79
0.79
0.79
0.79
0.79
0.79
0.79
0.79
0.79
0.79
0.79
0.79
0.79
0.79
0.79
0.79
0.79
0.79
0.79
0.79
0.79
0.79
0.79
0.79
0.79
0.79
0.79
0.79
0.79
0.79
0.79
0.79
0.79
0.79
0.79
0.79
0.79
0.79
0.79
0.79
0.79
0.79
0.79
0.79
0.79
0.79
0.79
0.79
0.79
0.79
0.79
0.79
0.79
0.79
0.79
0.79
0.79
0.79
0.79
0.79
0.79
0.79
0.79
0.79
0.79
0.79
0.79
0.79
0.79
0.79
0.79
0.79
0.79
0.79
0.79
0.79
0.79
0.79
0.79
0.79
0.79
0.79
0.79
0.79
0.79
0.79
0.79
0.79
0.79
0.79
0.79
0.79
0.79
0.79
0.79
0.79
0.79
0.79
0.79
0.79
0.79
0.79
0.79
0.79
0.79
0.79
0.79
0.79
0.79
0.79
0.79
0.79
0.79
0.79
0.79
0.79
0.79
0.79
0.79
0.79
0.79
0.79
0.79
0.79
0.79
0.79
0.79
0.79
0.79
0.79
0.79
0.79
0.79
0.79
0.79
0.79
0.79
0.79
0.79
0.79
0.79
0.79
0.79
0.79
0.79
0.79
0.79
0.79
0.79
0.79
0.79
0.79
0.79
0.79
0.79
0.79
0.79
0.79
0.79
0.79
0.79
0.79
0.79
0.79
0.79
0.79
0.79
0.79
0.79
0.79
0.79
0.79
0.79
0.79
0.79
0.79
0.79
0.79
0.79
0.79
0.79
0.79
0.79
0.79
0.79
0.79
0.79
0.79
0.79
0.79
0.79
0.79
0.79
0.79
0.79
0.79
0.79
0.79
0.79
0.79
0.79
0.79
0.79
0.79
0.79
0.79
0.79
0.79
0.79
0.79
0.79
0.79
0.79
0.79
0.79
0.79
0.79
0.79
0.79
0.79
0.79
0.79
0.79
0.79
0.79
0.79
0.79
0.79
0.79
0.79
0.79
0.79
0.79
0.79
0.79
0.79
0.79
0.79
0.79
0.79
0.79
0.79
0.79
0.79
0.79
0.79
0.79
0.79
0.79
0.79
0.79
0.79
0.79
0.79
0.79
0.79
0.79
0.79
0.79
0.79
0.79
0.79
0.79
0.79
0.79
0.79
0.79
0.79
0.79
0.79
0.79
0.79
0.79
0.79
0.79
0.79
0.79
0.79
0.79
0.79
0.79
0.79
0.79
0.79
0.79
0.79
0.79
0.79
0.79
0.79
0.79
0.79
0.79
0.79
0.79
0.79
0.79
0.79
0.79
0.79
0.79
0.79
0.79
0.79
0.79
0.79
0.79
0.79
0.79
0.79
0.79
0.79
0.79
0.79
0.79
0.79
0.79
0.79
0.79
0.79
0.79
0.79
0.79
0.79
0.79
0.79
0.79
0.79
0.79
0.79
0.79
0.79
0.79
0.79
0.79
0.79
0.79
0.79
0.79
0.79
0.79
0.79
0.79
0.79
0.79
0.79
0.79
0.79
0.79
0.79
0.79
0.79
0.79
0.79
0.79
0.79
0.79
0.79
0.79
0.79
0.79
0.79
0.79
0.79
0.79
0.79
0.79
0.79
0.79
0.79
0.79
0.79
0.79
0.79
0.79
0.79
0.79
0.79
0.79
0.79
0.79
0.79
0.79
0.79
0.79
0.79
0.79
0.79
0.79
0.79
0.79
0.79
0.79
0.79
0.79
0.79
0.79
0.79
0.79
0.79
0.79
0.79
0.79
0.79
0.79
0.79
0.79
0.79
0.79
0.79
0.79
0.79
0.79
0.79
0.79
0.79
0.79
0.79
0.79
0.79
0.79
0.79
0.79
0.79
0.79
0.79
0.79
0.79
0.79
0.79
0.79
0.79
0.79
0.79
0.79
0.79
0.79
0.79
0.79
0.79
0.79
0.79
0.79
0.79
0.79
0.79
0.79
0.79
0.79
0.79
0.79
0.79
0.79
0.79
0.79
0.79
0.79
0.79
0.79
0.79
0.79
0.79
0.789999
0.789999
0.789999
0.789999
0.789999
0.789999
0.79
0.79
0.79
0.79
0.79
0.79
0.79
0.79
0.79
0.79
0.79
0.79
0.79
0.79
0.79
0.79
0.79
0.79
0.79
0.79
0.79
0.79
0.79
0.79
0.79
0.79
0.78999
0.789992
0.789995
0.789997
0.789998
0.789999
0.789999
0.789999
0.79
0.79
0.79
0.79
0.79
0.79
0.79
0.79
0.79
0.79
0.79
0.79
0.79
0.79
0.79
0.79
0.79
0.79
0.79
0.79
0.79
0.79
0.79
0.79
0.789849
0.789943
0.789976
0.789988
0.789994
0.789996
0.789998
0.789998
0.789999
0.789999
0.79
0.79
0.79
0.79
0.79
0.79
0.79
0.79
0.79
0.79
0.79
0.79
0.79
0.79
0.79
0.79
0.79
0.79
0.79
0.79
0.79
0.79
0.786032
0.786017
0.786002
0.785989
0.785976
0.785964
0.785952
0.785939
0.785927
0.785915
0.785903
0.78589
0.785877
0.785864
0.785851
0.785838
0.785825
0.785812
0.785798
0.785785
0.785771
0.785757
0.785743
0.785729
0.785715
0.785702
0.785688
0.785674
0.78566
0.785646
0.785633
0.785619
0.785606
0.785593
0.78558
0.785567
0.785555
0.785543
0.785532
0.785522
0.786024
0.786012
0.785998
0.785986
0.785974
0.785962
0.78595
0.785938
0.785926
0.785913
0.785901
0.785889
0.785876
0.785863
0.78585
0.785837
0.785824
0.78581
0.785797
0.785783
0.78577
0.785756
0.785742
0.785728
0.785714
0.7857
0.785686
0.785673
0.785659
0.785645
0.785631
0.785617
0.785604
0.785591
0.785578
0.785565
0.785552
0.78554
0.785529
0.785518
0.786017
0.786006
0.785993
0.785982
0.78597
0.785958
0.785947
0.785935
0.785923
0.785911
0.785899
0.785886
0.785874
0.785861
0.785848
0.785835
0.785822
0.785808
0.785795
0.785781
0.785768
0.785754
0.78574
0.785726
0.785712
0.785698
0.785684
0.78567
0.785657
0.785643
0.785629
0.785615
0.785602
0.785589
0.785575
0.785563
0.78555
0.785538
0.785527
0.785517
0.786011
0.786
0.785988
0.785977
0.785966
0.785955
0.785943
0.785932
0.78592
0.785908
0.785896
0.785884
0.785871
0.785858
0.785846
0.785833
0.785819
0.785806
0.785793
0.785779
0.785765
0.785752
0.785738
0.785724
0.78571
0.785696
0.785682
0.785668
0.785654
0.78564
0.785627
0.785613
0.7856
0.785586
0.785573
0.78556
0.785548
0.785536
0.785524
0.785514
0.786006
0.785995
0.785983
0.785972
0.785961
0.785951
0.785939
0.785928
0.785916
0.785905
0.785893
0.785881
0.785868
0.785855
0.785843
0.78583
0.785817
0.785803
0.78579
0.785776
0.785763
0.785749
0.785735
0.785721
0.785708
0.785694
0.78568
0.785666
0.785652
0.785638
0.785624
0.785611
0.785597
0.785584
0.785571
0.785558
0.785546
0.785534
0.785522
0.785512
0.786001
0.78599
0.785979
0.785968
0.785957
0.785946
0.785935
0.785924
0.785913
0.785901
0.785889
0.785877
0.785865
0.785852
0.78584
0.785827
0.785814
0.785801
0.785787
0.785774
0.78576
0.785747
0.785733
0.785719
0.785705
0.785691
0.785678
0.785664
0.78565
0.785636
0.785622
0.785609
0.785595
0.785582
0.785569
0.785556
0.785544
0.785531
0.78552
0.78551
0.785997
0.785985
0.785974
0.785964
0.785953
0.785943
0.785932
0.785921
0.785909
0.785898
0.785886
0.785874
0.785862
0.785849
0.785837
0.785824
0.785811
0.785798
0.785785
0.785771
0.785758
0.785744
0.78573
0.785717
0.785703
0.785689
0.785675
0.785661
0.785648
0.785634
0.78562
0.785607
0.785593
0.78558
0.785567
0.785554
0.785541
0.785529
0.785518
0.785508
0.785992
0.785981
0.78597
0.78596
0.785949
0.785939
0.785928
0.785917
0.785906
0.785894
0.785883
0.785871
0.785859
0.785846
0.785834
0.785821
0.785808
0.785795
0.785782
0.785769
0.785755
0.785742
0.785728
0.785714
0.785701
0.785687
0.785673
0.785659
0.785645
0.785632
0.785618
0.785604
0.785591
0.785578
0.785565
0.785552
0.785539
0.785527
0.785516
0.785506
0.785989
0.785977
0.785966
0.785956
0.785946
0.785935
0.785924
0.785914
0.785903
0.785891
0.78588
0.785868
0.785856
0.785843
0.785831
0.785818
0.785805
0.785792
0.785779
0.785766
0.785753
0.785739
0.785726
0.785712
0.785698
0.785685
0.785671
0.785657
0.785643
0.78563
0.785616
0.785602
0.785589
0.785576
0.785563
0.78555
0.785537
0.785525
0.785513
0.785503
0.785985
0.785974
0.785963
0.785952
0.785942
0.785932
0.785921
0.78591
0.785899
0.785888
0.785877
0.785865
0.785853
0.785841
0.785828
0.785816
0.785803
0.78579
0.785777
0.785764
0.78575
0.785737
0.785723
0.78571
0.785696
0.785683
0.785669
0.785655
0.785641
0.785628
0.785614
0.785601
0.785587
0.785574
0.785561
0.785548
0.785535
0.785523
0.785511
0.785501
0.785982
0.78597
0.785959
0.785949
0.785939
0.785928
0.785918
0.785907
0.785896
0.785885
0.785874
0.785862
0.78585
0.785838
0.785826
0.785813
0.7858
0.785788
0.785775
0.785761
0.785748
0.785735
0.785721
0.785708
0.785694
0.785681
0.785667
0.785653
0.78564
0.785626
0.785612
0.785599
0.785585
0.785572
0.785559
0.785546
0.785533
0.785521
0.785509
0.785499
0.785978
0.785967
0.785956
0.785946
0.785936
0.785925
0.785915
0.785904
0.785893
0.785882
0.785871
0.785859
0.785847
0.785835
0.785823
0.785811
0.785798
0.785785
0.785772
0.785759
0.785746
0.785733
0.785719
0.785706
0.785692
0.785679
0.785665
0.785651
0.785638
0.785624
0.78561
0.785597
0.785583
0.78557
0.785557
0.785544
0.785531
0.785519
0.785507
0.785497
0.785975
0.785964
0.785953
0.785943
0.785933
0.785923
0.785912
0.785902
0.785891
0.78588
0.785868
0.785857
0.785845
0.785833
0.785821
0.785808
0.785796
0.785783
0.78577
0.785757
0.785744
0.785731
0.785717
0.785704
0.785691
0.785677
0.785663
0.78565
0.785636
0.785622
0.785609
0.785595
0.785581
0.785568
0.785555
0.785542
0.785529
0.785517
0.785505
0.785495
0.785972
0.785961
0.78595
0.78594
0.78593
0.78592
0.785909
0.785899
0.785888
0.785877
0.785866
0.785854
0.785843
0.785831
0.785819
0.785806
0.785794
0.785781
0.785768
0.785755
0.785742
0.785729
0.785716
0.785702
0.785689
0.785675
0.785662
0.785648
0.785634
0.785621
0.785607
0.785593
0.78558
0.785566
0.785553
0.78554
0.785527
0.785514
0.785503
0.785492
0.785969
0.785958
0.785948
0.785937
0.785927
0.785917
0.785907
0.785896
0.785886
0.785875
0.785863
0.785852
0.78584
0.785828
0.785816
0.785804
0.785792
0.785779
0.785766
0.785753
0.78574
0.785727
0.785714
0.785701
0.785687
0.785674
0.78566
0.785646
0.785633
0.785619
0.785605
0.785592
0.785578
0.785564
0.785551
0.785538
0.785525
0.785512
0.7855
0.78549
0.785967
0.785956
0.785945
0.785935
0.785925
0.785915
0.785904
0.785894
0.785883
0.785872
0.785861
0.78585
0.785838
0.785826
0.785814
0.785802
0.78579
0.785777
0.785764
0.785752
0.785739
0.785725
0.785712
0.785699
0.785686
0.785672
0.785658
0.785645
0.785631
0.785617
0.785604
0.78559
0.785576
0.785563
0.785549
0.785536
0.785523
0.78551
0.785498
0.785488
0.785964
0.785953
0.785942
0.785932
0.785922
0.785912
0.785902
0.785892
0.785881
0.78587
0.785859
0.785848
0.785836
0.785824
0.785812
0.7858
0.785788
0.785775
0.785763
0.78575
0.785737
0.785724
0.785711
0.785697
0.785684
0.785671
0.785657
0.785643
0.78563
0.785616
0.785602
0.785588
0.785575
0.785561
0.785547
0.785534
0.785521
0.785508
0.785496
0.785486
0.785962
0.785951
0.78594
0.78593
0.78592
0.78591
0.7859
0.78589
0.785879
0.785868
0.785857
0.785846
0.785834
0.785823
0.785811
0.785799
0.785786
0.785774
0.785761
0.785748
0.785735
0.785722
0.785709
0.785696
0.785683
0.785669
0.785656
0.785642
0.785628
0.785614
0.785601
0.785587
0.785573
0.785559
0.785546
0.785532
0.785519
0.785506
0.785494
0.785483
0.785959
0.785948
0.785938
0.785928
0.785918
0.785908
0.785898
0.785888
0.785877
0.785866
0.785855
0.785844
0.785833
0.785821
0.785809
0.785797
0.785785
0.785772
0.78576
0.785747
0.785734
0.785721
0.785708
0.785694
0.785681
0.785668
0.785654
0.78564
0.785627
0.785613
0.785599
0.785585
0.785571
0.785558
0.785544
0.78553
0.785517
0.785504
0.785491
0.785481
0.785957
0.785946
0.785936
0.785926
0.785916
0.785906
0.785896
0.785886
0.785875
0.785864
0.785853
0.785842
0.785831
0.785819
0.785807
0.785795
0.785783
0.785771
0.785758
0.785745
0.785732
0.785719
0.785706
0.785693
0.78568
0.785666
0.785653
0.785639
0.785625
0.785612
0.785598
0.785584
0.78557
0.785556
0.785542
0.785528
0.785515
0.785502
0.785489
0.785479
0.785955
0.785944
0.785934
0.785924
0.785914
0.785904
0.785894
0.785884
0.785873
0.785863
0.785852
0.785841
0.785829
0.785818
0.785806
0.785794
0.785782
0.785769
0.785757
0.785744
0.785731
0.785718
0.785705
0.785692
0.785679
0.785665
0.785652
0.785638
0.785624
0.78561
0.785596
0.785582
0.785568
0.785554
0.78554
0.785527
0.785513
0.7855
0.785487
0.785476
0.785953
0.785942
0.785932
0.785922
0.785912
0.785902
0.785892
0.785882
0.785872
0.785861
0.78585
0.785839
0.785828
0.785816
0.785804
0.785792
0.78578
0.785768
0.785755
0.785743
0.78573
0.785717
0.785704
0.785691
0.785677
0.785664
0.78565
0.785637
0.785623
0.785609
0.785595
0.785581
0.785567
0.785553
0.785539
0.785525
0.785511
0.785498
0.785485
0.785474
0.785951
0.78594
0.78593
0.78592
0.78591
0.7859
0.78589
0.78588
0.78587
0.785859
0.785849
0.785837
0.785826
0.785815
0.785803
0.785791
0.785779
0.785767
0.785754
0.785741
0.785729
0.785716
0.785703
0.785689
0.785676
0.785663
0.785649
0.785635
0.785622
0.785608
0.785594
0.785579
0.785565
0.785551
0.785537
0.785523
0.785509
0.785495
0.785482
0.785471
0.785949
0.785938
0.785928
0.785918
0.785908
0.785899
0.785889
0.785879
0.785868
0.785858
0.785847
0.785836
0.785825
0.785813
0.785802
0.78579
0.785778
0.785765
0.785753
0.78574
0.785728
0.785715
0.785702
0.785688
0.785675
0.785662
0.785648
0.785634
0.78562
0.785606
0.785592
0.785578
0.785564
0.78555
0.785535
0.785521
0.785507
0.785493
0.78548
0.785469
0.785947
0.785936
0.785926
0.785916
0.785907
0.785897
0.785887
0.785877
0.785867
0.785856
0.785846
0.785835
0.785823
0.785812
0.7858
0.785789
0.785776
0.785764
0.785752
0.785739
0.785726
0.785714
0.7857
0.785687
0.785674
0.785661
0.785647
0.785633
0.785619
0.785605
0.785591
0.785577
0.785562
0.785548
0.785534
0.785519
0.785505
0.785491
0.785478
0.785467
0.785945
0.785934
0.785924
0.785915
0.785905
0.785895
0.785886
0.785876
0.785865
0.785855
0.785844
0.785833
0.785822
0.785811
0.785799
0.785787
0.785775
0.785763
0.785751
0.785738
0.785725
0.785713
0.785699
0.785686
0.785673
0.78566
0.785646
0.785632
0.785618
0.785604
0.78559
0.785575
0.785561
0.785547
0.785532
0.785518
0.785503
0.785489
0.785476
0.785464
0.785943
0.785933
0.785923
0.785913
0.785904
0.785894
0.785884
0.785874
0.785864
0.785854
0.785843
0.785832
0.785821
0.78581
0.785798
0.785786
0.785774
0.785762
0.78575
0.785737
0.785725
0.785712
0.785699
0.785685
0.785672
0.785659
0.785645
0.785631
0.785617
0.785603
0.785589
0.785574
0.78556
0.785545
0.78553
0.785516
0.785501
0.785487
0.785473
0.785462
0.785941
0.785931
0.785921
0.785912
0.785902
0.785893
0.785883
0.785873
0.785863
0.785852
0.785842
0.785831
0.78582
0.785809
0.785797
0.785785
0.785773
0.785761
0.785749
0.785736
0.785724
0.785711
0.785698
0.785685
0.785671
0.785658
0.785644
0.78563
0.785616
0.785602
0.785588
0.785573
0.785558
0.785544
0.785529
0.785514
0.785499
0.785485
0.785471
0.785459
0.78594
0.785929
0.78592
0.78591
0.785901
0.785891
0.785882
0.785872
0.785862
0.785851
0.785841
0.78583
0.785819
0.785808
0.785796
0.785784
0.785772
0.78576
0.785748
0.785735
0.785723
0.78571
0.785697
0.785684
0.78567
0.785657
0.785643
0.785629
0.785615
0.785601
0.785586
0.785572
0.785557
0.785542
0.785527
0.785512
0.785497
0.785483
0.785468
0.785456
0.785938
0.785928
0.785918
0.785909
0.785899
0.78589
0.78588
0.785871
0.78586
0.78585
0.78584
0.785829
0.785818
0.785807
0.785795
0.785783
0.785772
0.785759
0.785747
0.785735
0.785722
0.785709
0.785696
0.785683
0.78567
0.785656
0.785642
0.785628
0.785614
0.7856
0.785585
0.785571
0.785556
0.785541
0.785526
0.785511
0.785495
0.785481
0.785466
0.785454
0.785937
0.785926
0.785917
0.785907
0.785898
0.785889
0.785879
0.785869
0.785859
0.785849
0.785839
0.785828
0.785817
0.785806
0.785794
0.785783
0.785771
0.785759
0.785746
0.785734
0.785721
0.785708
0.785695
0.785682
0.785669
0.785655
0.785641
0.785627
0.785613
0.785599
0.785584
0.785569
0.785555
0.785539
0.785524
0.785509
0.785494
0.785478
0.785464
0.785451
0.785935
0.785925
0.785915
0.785906
0.785897
0.785888
0.785878
0.785868
0.785858
0.785848
0.785838
0.785827
0.785816
0.785805
0.785794
0.785782
0.78577
0.785758
0.785746
0.785733
0.785721
0.785708
0.785695
0.785681
0.785668
0.785655
0.785641
0.785627
0.785612
0.785598
0.785583
0.785568
0.785553
0.785538
0.785523
0.785507
0.785492
0.785476
0.785461
0.785449
0.785934
0.785924
0.785914
0.785905
0.785896
0.785886
0.785877
0.785867
0.785857
0.785847
0.785837
0.785826
0.785815
0.785804
0.785793
0.785781
0.785769
0.785757
0.785745
0.785733
0.78572
0.785707
0.785694
0.785681
0.785668
0.785654
0.78564
0.785626
0.785612
0.785597
0.785582
0.785567
0.785552
0.785537
0.785521
0.785505
0.78549
0.785474
0.785459
0.785446
0.785932
0.785922
0.785913
0.785904
0.785895
0.785885
0.785876
0.785866
0.785856
0.785846
0.785836
0.785825
0.785815
0.785803
0.785792
0.785781
0.785769
0.785757
0.785745
0.785732
0.785719
0.785707
0.785694
0.78568
0.785667
0.785653
0.785639
0.785625
0.785611
0.785596
0.785581
0.785566
0.785551
0.785535
0.78552
0.785504
0.785488
0.785472
0.785456
0.785443
0.785931
0.785921
0.785912
0.785903
0.785894
0.785884
0.785875
0.785865
0.785856
0.785846
0.785835
0.785825
0.785814
0.785803
0.785792
0.78578
0.785768
0.785756
0.785744
0.785732
0.785719
0.785706
0.785693
0.78568
0.785666
0.785653
0.785639
0.785624
0.78561
0.785595
0.78558
0.785565
0.78555
0.785534
0.785518
0.785502
0.785486
0.78547
0.785454
0.78544
0.78593
0.78592
0.785911
0.785902
0.785893
0.785883
0.785874
0.785865
0.785855
0.785845
0.785835
0.785824
0.785813
0.785802
0.785791
0.785779
0.785768
0.785756
0.785744
0.785731
0.785718
0.785706
0.785693
0.785679
0.785666
0.785652
0.785638
0.785624
0.785609
0.785594
0.785579
0.785564
0.785549
0.785533
0.785517
0.785501
0.785484
0.785468
0.785451
0.785437
0.785929
0.785919
0.78591
0.785901
0.785892
0.785883
0.785873
0.785864
0.785854
0.785844
0.785834
0.785823
0.785813
0.785802
0.78579
0.785779
0.785767
0.785755
0.785743
0.785731
0.785718
0.785705
0.785692
0.785679
0.785665
0.785652
0.785638
0.785623
0.785609
0.785594
0.785579
0.785563
0.785548
0.785532
0.785515
0.785499
0.785482
0.785465
0.785449
0.785434
0.785928
0.785918
0.785909
0.7859
0.785891
0.785882
0.785872
0.785863
0.785853
0.785843
0.785833
0.785823
0.785812
0.785801
0.78579
0.785779
0.785767
0.785755
0.785743
0.78573
0.785718
0.785705
0.785692
0.785678
0.785665
0.785651
0.785637
0.785623
0.785608
0.785593
0.785578
0.785562
0.785546
0.78553
0.785514
0.785497
0.78548
0.785463
0.785446
0.785432
0.785926
0.785917
0.785908
0.785899
0.78589
0.785881
0.785872
0.785862
0.785853
0.785843
0.785833
0.785822
0.785812
0.785801
0.78579
0.785778
0.785767
0.785755
0.785742
0.78573
0.785717
0.785705
0.785691
0.785678
0.785665
0.785651
0.785637
0.785622
0.785607
0.785592
0.785577
0.785561
0.785545
0.785529
0.785513
0.785496
0.785479
0.785461
0.785444
0.785429
0.785925
0.785916
0.785907
0.785898
0.785889
0.78588
0.785871
0.785862
0.785852
0.785842
0.785832
0.785822
0.785811
0.7858
0.785789
0.785778
0.785766
0.785754
0.785742
0.78573
0.785717
0.785704
0.785691
0.785678
0.785664
0.78565
0.785636
0.785622
0.785607
0.785592
0.785576
0.78556
0.785544
0.785528
0.785511
0.785494
0.785477
0.785459
0.785441
0.785426
2.37481e-06
1.5822e-05
0.000230412
0.00698463
1.1768e-05
7.16035e-05
0.000872201
0.0178488
3.78324e-05
0.00020567
0.00215566
0.0283443
0.000102051
0.000484838
0.00392169
0.0360784
0.000232276
0.000930716
0.00597413
0.0421211
0.000462723
0.00153984
0.00817722
0.0464836
0.000810501
0.00232285
0.0105218
0.0506106
0.00129899
0.00329851
0.0130809
0.0551808
0.00195305
0.00449658
0.0159371
0.0600355
0.00280108
0.00594646
0.0190853
0.0649292
0.00386844
0.00766353
0.0224856
0.0697408
0.00518034
0.00966335
0.0261254
0.0745378
0.0067562
0.0119495
0.0299752
0.0792603
0.00860876
0.0145214
0.0340326
0.0841467
0.0107453
0.0173772
0.0383195
0.089393
0.0131696
0.0205148
0.0428443
0.0949571
0.015881
0.0239286
0.0476119
0.100768
0.0188798
0.0276241
0.0526633
0.106759
0.0221671
0.0316047
0.0579783
0.112935
0.0257428
0.0358684
0.0635425
0.119304
0.0296048
0.040409
0.0693413
0.125866
0.0337484
0.0452176
0.075358
0.132602
0.0381677
0.0502836
0.0815778
0.139495
0.0428546
0.0555984
0.0879864
0.146532
0.0478047
0.0611548
0.0945772
0.153707
0.0530038
0.0669372
0.101341
0.161029
0.0584559
0.0729512
0.108284
0.168477
0.0641299
0.0791569
0.115359
0.176034
0.0700574
0.0856054
0.122649
0.183772
0.0761646
0.0921744
0.129936
0.191417
0.0825401
0.0990558
0.137665
0.199622
0.0890601
0.105927
0.144867
0.20639
0.095806
0.113155
0.153267
0.217816
0.102775
0.120551
0.161137
0.223496
0.109915
0.128026
0.168851
0.230514
0.117234
0.135635
0.176774
0.238743
0.124667
0.143337
0.184797
0.246863
0.132317
0.151247
0.192994
0.254963
0.13997
0.159087
0.201043
0.262926
0.148003
0.167431
0.209711
0.271073
0.15578
0.175055
0.216765
0.278729
0.164079
0.184112
0.228824
0.287204
0.17242
0.192432
0.234719
0.295079
0.180831
0.200608
0.241999
0.302715
0.188969
0.208697
0.250433
0.310332
0.197829
0.217555
0.258968
0.317989
0.2053
0.224639
0.266931
0.325492
0.215521
0.237026
0.275679
0.333034
0.222862
0.242871
0.28382
0.340477
0.234799
0.25071
0.29179
0.3478
0.241235
0.259444
0.299782
0.355027
0.248165
0.26782
0.307711
0.362158
0.256564
0.276134
0.315563
0.369189
0.265292
0.284437
0.323339
0.37612
0.273916
0.2927
0.331033
0.382948
0.28245
0.300903
0.338637
0.389668
0.290896
0.309031
0.346148
0.396285
0.299256
0.317077
0.353561
0.402796
0.307527
0.325034
0.360871
0.409201
0.315708
0.332896
0.368077
0.415495
0.323798
0.340663
0.375178
0.421679
0.331788
0.348326
0.382168
0.427747
0.339685
0.355893
0.389057
0.433715
0.347475
0.363349
0.395829
0.439549
0.355154
0.370693
0.402483
0.445255
0.362717
0.377916
0.40901
0.450825
0.370155
0.385014
0.415411
0.456286
0.377463
0.391983
0.421685
0.461626
0.384637
0.398818
0.42783
0.466849
0.391675
0.405519
0.433847
0.471958
0.398575
0.412085
0.439737
0.476957
0.405336
0.418516
0.445501
0.481846
0.411959
0.424813
0.451144
0.48664
0.418446
0.430979
0.45667
0.491342
0.424797
0.437016
0.462081
0.49595
0.431015
0.442927
0.46738
0.500461
0.437101
0.448714
0.472567
0.504874
0.443059
0.454377
0.477643
0.509189
0.448891
0.459921
0.482615
0.513422
0.454599
0.465347
0.487474
0.517528
0.460184
0.470654
0.492222
0.521532
0.465648
0.475845
0.496863
0.525446
0.470993
0.480921
0.501399
0.529277
0.476219
0.485884
0.505835
0.533026
0.48133
0.490738
0.510174
0.536697
0.486328
0.495485
0.514419
0.540288
0.491214
0.500128
0.518572
0.543802
0.495993
0.504668
0.522634
0.547239
0.500665
0.509108
0.526605
0.550598
0.505235
0.51345
0.530491
0.553892
0.509702
0.517694
0.534284
0.557089
0.514071
0.521846
0.538005
0.560268
0.518344
0.525909
0.541645
0.563354
0.522524
0.529882
0.545201
0.56636
0.526613
0.533769
0.548687
0.569331
0.530615
0.537574
0.552099
0.572232
0.534532
0.541299
0.555439
0.575069
0.538366
0.544946
0.558709
0.577844
0.542121
0.548517
0.56191
0.580559
0.545798
0.552014
0.565044
0.583213
0.549401
0.555441
0.568114
0.58581
0.552929
0.558792
0.571109
0.588352
0.556392
0.562092
0.574105
0.590786
0.559792
0.565332
0.577018
0.593178
0.563131
0.568509
0.57986
0.595523
0.56641
0.571626
0.58264
0.597824
0.569623
0.574676
0.585364
0.600068
0.572795
0.57771
0.587995
0.602298
0.575915
0.580673
0.590584
0.604488
0.578977
0.583569
0.593131
0.606617
0.581977
0.586396
0.595638
0.608695
0.584919
0.589171
0.598102
0.610731
0.587812
0.591903
0.600527
0.612733
0.590658
0.594594
0.602914
0.614701
0.593465
0.597249
0.605266
0.616636
0.596236
0.599871
0.607587
0.618542
0.598976
0.602464
0.60988
0.620421
0.60169
0.605032
0.612149
0.622276
0.604382
0.607579
0.614398
0.624112
0.607055
0.61011
0.61663
0.625932
0.331867
0.557511
0.674505
0.758783
0.281652
0.530194
0.66986
0.754668
0.254732
0.49445
0.654029
0.747793
0.228455
0.463109
0.633791
0.736976
0.210157
0.42713
0.61232
0.724896
0.193633
0.405099
0.593585
0.712939
0.187702
0.388009
0.576121
0.701779
0.184421
0.374509
0.561537
0.689636
0.181175
0.361282
0.548639
0.677287
0.180536
0.353178
0.531376
0.663224
0.180845
0.345936
0.514653
0.645547
0.182
0.337794
0.500207
0.634173
0.183347
0.332207
0.490944
0.623955
0.185689
0.328661
0.482325
0.615259
0.188621
0.326381
0.475876
0.607529
0.192268
0.325814
0.470702
0.600007
0.196318
0.325829
0.46601
0.591672
0.200697
0.32628
0.462258
0.585506
0.205425
0.327492
0.459992
0.581728
0.210551
0.32963
0.458559
0.577086
0.216041
0.332431
0.458129
0.574154
0.221829
0.335726
0.458254
0.57144
0.227857
0.339376
0.458707
0.569167
0.234082
0.343321
0.459633
0.567418
0.240512
0.347693
0.461539
0.565458
0.247169
0.352429
0.463639
0.564977
0.253937
0.357275
0.466065
0.565058
0.260977
0.363081
0.468046
0.5654
0.26816
0.368606
0.470583
0.566098
0.275291
0.373981
0.473439
0.566927
0.2826
0.379353
0.476508
0.567827
0.289448
0.384598
0.479686
0.568817
0.297061
0.390023
0.482994
0.569929
0.304496
0.395091
0.486409
0.571238
0.311507
0.400328
0.490018
0.572748
0.3185
0.40573
0.49378
0.574458
0.325478
0.411291
0.49766
0.576374
0.332496
0.417074
0.501639
0.578433
0.339487
0.422889
0.505386
0.581033
0.346587
0.428687
0.509297
0.583677
0.353562
0.434394
0.513185
0.586016
0.360622
0.440023
0.517019
0.588132
0.367586
0.445555
0.520843
0.590376
0.374397
0.450942
0.524589
0.592806
0.381086
0.456247
0.528316
0.595003
0.387676
0.46142
0.531833
0.596496
0.394144
0.466484
0.535341
0.598699
0.400524
0.471462
0.538815
0.600796
0.406813
0.476368
0.542264
0.602871
0.413007
0.481207
0.545692
0.604949
0.419106
0.485979
0.549098
0.607031
0.425112
0.490685
0.552479
0.609112
0.431023
0.495319
0.555829
0.611186
0.436836
0.49988
0.559142
0.613246
0.442551
0.504361
0.56241
0.615286
0.448158
0.508763
0.565632
0.617311
0.453692
0.513043
0.568778
0.6193
0.459132
0.517215
0.571827
0.621219
0.464465
0.521236
0.574643
0.622649
0.469686
0.525134
0.577409
0.624473
0.474796
0.528928
0.580118
0.626266
0.479791
0.532619
0.582769
0.628021
0.484692
0.536277
0.585346
0.629735
0.489388
0.539595
0.588094
0.631468
0.493961
0.542985
0.590714
0.633192
0.498402
0.546298
0.593118
0.634844
0.502813
0.549823
0.596284
0.636661
0.507096
0.553014
0.597876
0.638207
0.511283
0.556201
0.600286
0.639773
0.515383
0.559353
0.602617
0.641331
0.519399
0.562453
0.604882
0.642867
0.523336
0.5655
0.607101
0.644384
0.527181
0.568473
0.609239
0.645815
0.530943
0.571417
0.611474
0.647733