/*--------------------------------*- C++ -*----------------------------------*\
  =========                 |
  \\      /  F ield         | OpenFOAM: The Open Source CFD Toolbox
   \\    /   O peration     | Website:  https://openfoam.org
    \\  /    A nd           | Version:  8
     \\/     M anipulation  |
\*---------------------------------------------------------------------------*/
FoamFile
{
    version     2.0;
    format      ascii;
    class       volScalarField;
    location    "20000/gas";
    object      nut;
}
// * * * * * * * * * * * * * * * * * * * * * * * * * * * * * * * * * * * * * //

dimensions      [0 2 -1 0 0 0 0];

internalField   nonuniform List<scalar> 
16000
(
6.64757e-06
3.73351e-05
7.44799e-05
3.41505e-06
1.19846e-05
1.71045e-05
5.53792e-05
3.75312e-06
1.28808e-05
1.89391e-05
5.38418e-05
4.40918e-06
1.52413e-05
2.07881e-05
4.62114e-05
5.04463e-06
1.91854e-05
2.28951e-05
4.19683e-05
5.5729e-06
2.41074e-05
2.48963e-05
3.9541e-05
6.02392e-06
2.59221e-05
2.66409e-05
3.79723e-05
6.42557e-06
2.6917e-05
2.8162e-05
3.68939e-05
6.79692e-06
2.82068e-05
2.94801e-05
3.59951e-05
7.14218e-06
2.92317e-05
3.0574e-05
3.51588e-05
7.45742e-06
3.0181e-05
3.14716e-05
3.41713e-05
7.73252e-06
3.11064e-05
3.22331e-05
3.32496e-05
7.96218e-06
3.19943e-05
3.27941e-05
3.25994e-05
8.14746e-06
3.28185e-05
3.31672e-05
3.20863e-05
8.28962e-06
3.35681e-05
3.34497e-05
3.15917e-05
8.38982e-06
3.42246e-05
3.35771e-05
3.10995e-05
8.45092e-06
3.47966e-05
3.37194e-05
3.06136e-05
8.4786e-06
3.52937e-05
3.38556e-05
3.01415e-05
8.47568e-06
3.57168e-05
3.39328e-05
2.96866e-05
8.44527e-06
3.60644e-05
3.39465e-05
2.92494e-05
8.39069e-06
3.63363e-05
3.39045e-05
2.88291e-05
8.31487e-06
3.65346e-05
3.38157e-05
2.8424e-05
8.22053e-06
3.6664e-05
3.36899e-05
2.80323e-05
8.11022e-06
3.67296e-05
3.35312e-05
2.7652e-05
7.98625e-06
3.67391e-05
3.33522e-05
2.72816e-05
7.85069e-06
3.66961e-05
3.31399e-05
2.69191e-05
7.70543e-06
3.6613e-05
3.29424e-05
2.6565e-05
7.55218e-06
3.64985e-05
3.2742e-05
2.62236e-05
7.39257e-06
3.63557e-05
3.25216e-05
2.58896e-05
7.22798e-06
3.61888e-05
3.22962e-05
2.55601e-05
7.05957e-06
3.60006e-05
3.20564e-05
2.52345e-05
6.88836e-06
3.57925e-05
3.17982e-05
2.49123e-05
6.71526e-06
3.55666e-05
3.1529e-05
2.45931e-05
6.54106e-06
3.53246e-05
3.12468e-05
2.42768e-05
6.36648e-06
3.50673e-05
3.0951e-05
2.3962e-05
6.19214e-06
3.47948e-05
3.06395e-05
2.36492e-05
6.01863e-06
3.45114e-05
3.03379e-05
2.33381e-05
5.84657e-06
3.42165e-05
3.00245e-05
2.30274e-05
5.67624e-06
3.39161e-05
2.97239e-05
2.27332e-05
5.51321e-06
3.35943e-05
2.94297e-05
2.23033e-05
5.33841e-06
7.02087e-06
0.000154602
0.000401649
0.000492857
0.000531786
0.000555506
0.000574305
0.000590977
0.000606402
0.00062082
0.000634265
0.000646719
0.000658161
0.000668582
0.000677985
0.000686382
0.000693813
0.000700278
0.000705745
0.000710189
0.000713559
0.00071576
0.000716619
0.000715825
0.000712799
0.000706376
0.000693952
0.000668834
0.000610693
0.000453546
0.000142842
6.3112e-06
7.31309e-06
0.000103737
0.000287741
0.000403354
0.00046854
0.000508827
0.000537205
0.000559863
0.000579593
0.00059766
0.000614616
0.000630671
0.000645869
0.000660173
0.000673505
0.000685761
0.000696796
0.000706472
0.000714644
0.000721091
0.000725504
0.000727434
0.000726203
0.000720722
0.000709126
0.000688004
0.000650706
0.000583827
0.000462521
0.000264946
7.28302e-05
6.11291e-06
7.9802e-06
0.0001008
0.000255105
0.000373218
0.000451476
0.000503429
0.000540001
0.00056781
0.000590578
0.000610357
0.000628254
0.000644844
0.000660391
0.000674978
0.000688576
0.000701077
0.00071231
0.000722055
0.000730033
0.000735856
0.000738988
0.000738653
0.000733696
0.000722322
0.000701622
0.00066674
0.000609546
0.000517446
0.000376992
0.000198281
5.63358e-05
5.90984e-06
9.00139e-06
0.000103721
0.000241024
0.000356767
0.000441844
0.000502273
0.000546071
0.00057921
0.000605592
0.000627651
0.000646867
0.00066411
0.000679862
0.00069435
0.000707632
0.000719645
0.000730224
0.000739114
0.000745954
0.000750235
0.000751241
0.000747936
0.000738792
0.000721498
0.000692509
0.000646416
0.00057543
0.000470387
0.000327644
0.000168328
4.94058e-05
5.70558e-06
1.03006e-05
0.000105682
0.000232505
0.000344838
0.000433299
0.000499665
0.000549412
0.000587517
0.000617664
0.000642381
0.00066334
0.000681607
0.000697832
0.000712371
0.000725374
0.000736829
0.000746596
0.000754407
0.000759854
0.000762342
0.00076102
0.000754659
0.000741464
0.000718803
0.000682842
0.000628217
0.000548245
0.000437153
0.000297157
0.000151745
4.5889e-05
5.55036e-06
1.17899e-05
0.000106429
0.00022593
0.0003348
0.000424687
0.000495085
0.000549526
0.000591968
0.000625694
0.000653151
0.000676066
0.000695613
0.000712555
0.000727348
0.000740219
0.000751212
0.000760215
0.000766962
0.000771018
0.00077173
0.000768154
0.000758923
0.000742076
0.00071481
0.000673247
0.000612376
0.000526779
0.000413331
0.000277471
0.000141855
4.40442e-05
5.42975e-06
1.3384e-05
0.00010615
0.0002201
0.000325693
0.00041585
0.000488887
0.000546926
0.000593011
0.000629964
0.000660049
0.000684962
0.000705913
0.000723732
0.000738943
0.000751834
0.000762498
0.00077085
0.000776638
0.000779412
0.000778486
0.000772853
0.00076106
0.00074105
0.000709967
0.00066403
0.00059871
0.000509735
0.00039586
0.000264107
0.000135793
4.31828e-05
5.3358e-06
1.50173e-05
0.000105389
0.000214629
0.000317128
0.000406844
0.000481503
0.000542226
0.000591288
0.000631052
0.000663551
0.000690392
0.000712775
0.000731554
0.000747296
0.000760334
0.000770798
0.000778633
0.0007836
0.00078525
0.000782876
0.000775435
0.000761426
0.000738752
0.000704577
0.000655302
0.000586894
0.000496042
0.00038279
0.000254875
0.000132124
4.29671e-05
5.26613e-06
1.66392e-05
0.000104297
0.000209362
0.000308945
0.000397767
0.000473299
0.000535962
0.0005874
0.00062955
0.0006642
0.000692835
0.000716609
0.000736373
0.000752715
0.000765997
0.000776378
0.000783828
0.000788124
0.000788821
0.000785206
0.000776218
0.000760337
0.000735465
0.000698834
0.000647062
0.000576588
0.000484871
0.000372826
0.000248426
0.000130037
4.32071e-05
5.21986e-06
1.82137e-05
0.000103106
0.000204312
0.000301094
0.000388719
0.000464566
0.000528563
0.000581849
0.00062598
0.000662503
0.000692762
0.000717845
0.00073858
0.000755558
0.000769154
0.000779551
0.000786737
0.000790505
0.00079042
0.00078577
0.000775487
0.000758055
0.000731401
0.000692854
0.000639261
0.000567484
0.000475594
0.000365086
0.000243894
0.000129029
4.37795e-05
5.1965e-06
1.97155e-05
0.000101898
0.000199504
0.000293575
0.00037979
0.000455527
0.000520367
0.000575045
0.000620786
0.000658906
0.000690606
0.000716892
0.000738556
0.000756177
0.000770136
0.000780628
0.000787659
0.000791033
0.000790326
0.000784831
0.000773488
0.000754792
0.000726718
0.000686706
0.000631829
0.000559321
0.000467738
0.000358949
0.000240701
0.000128767
4.45952e-05
5.19502e-06
2.11277e-05
0.000100703
0.000194948
0.000286394
0.000371053
0.000446355
0.000511638
0.000567317
0.000614334
0.000653791
0.000686745
0.000714116
0.000736649
0.000754903
0.000769256
0.000779907
0.000786873
0.000789972
0.000788787
0.000782621
0.000770424
0.000750718
0.000721533
0.000680429
0.000624693
0.000551886
0.000460944
0.000353969
0.00023843
0.000128968
4.55812e-05
5.21496e-06
2.24396e-05
9.95382e-05
0.000190645
0.000279554
0.000362562
0.000437179
0.000502581
0.00055893
0.000606926
0.000647477
0.000681504
0.000709839
0.000733172
0.000752035
0.000766795
0.000777654
0.000784633
0.000787558
0.000786022
0.000779337
0.000766469
0.00074597
0.000715935
0.000674045
0.000617788
0.000545008
0.00045494
0.000349824
0.000236809
0.000129528
4.66833e-05
5.25597e-06
2.36453e-05
9.84124e-05
0.000186587
0.000273054
0.000354353
0.000428098
0.000493356
0.000550093
0.000598807
0.000640232
0.000675163
0.00070434
0.000728398
0.000747836
0.000763009
0.000774109
0.000781163
0.000784
0.000782221
0.000775149
0.000761767
0.000740661
0.000709994
0.000667568
0.000611057
0.000538551
0.000449521
0.000346278
0.000235635
0.000130318
4.7846e-05
5.31765e-06
2.47424e-05
9.73297e-05
0.000182765
0.000266888
0.000346451
0.000419183
0.000484085
0.000540975
0.000590179
0.000632281
0.000667955
0.000697857
0.000722564
0.00074254
0.000758117
0.000769484
0.000776661
0.000779481
0.000777551
0.000770202
0.000756438
0.000734882
0.000703766
0.000661007
0.000604453
0.000532407
0.000444529
0.000343152
0.000234753
0.000131228
4.90289e-05
5.39905e-06
2.57314e-05
9.62903e-05
0.000179168
0.000261046
0.000338868
0.000410484
0.000474863
0.000531708
0.000581204
0.000623806
0.000660079
0.000690595
0.000715875
0.000736345
0.000752316
0.000763961
0.000771297
0.000774158
0.000772152
0.000764621
0.000750587
0.000728711
0.000697296
0.00065437
0.00059794
0.000526495
0.000439843
0.00034031
0.000234039
0.00013217
5.01975e-05
5.49883e-06
2.66148e-05
9.52922e-05
0.000175784
0.000255516
0.000331611
0.000402038
0.000465759
0.000522395
0.000572016
0.000614962
0.0006517
0.000682727
0.000708507
0.000729426
0.000745771
0.0007577
0.000765223
0.000768168
0.000766147
0.00075851
0.000744299
0.000722214
0.000690624
0.000647665
0.00059149
0.000520748
0.00043537
0.000337647
0.000233402
0.000133082
5.13235e-05
5.61539e-06
2.73963e-05
9.43317e-05
0.000172597
0.000250284
0.000324676
0.000393867
0.000456828
0.000513119
0.00056272
0.000605873
0.000642958
0.0006744
0.000700608
0.000721931
0.000738628
0.00075084
0.000758566
0.00076163
0.000759643
0.000751964
0.000737652
0.000715447
0.000683784
0.000640901
0.000585081
0.000515119
0.000431039
0.000335084
0.000232771
0.000133916
5.23843e-05
5.7469e-06
2.80809e-05
9.34046e-05
0.000169595
0.000245335
0.00031806
0.000385985
0.000448106
0.000503942
0.000553401
0.000596642
0.000633967
0.000665736
0.000692306
0.000713988
0.000731011
0.0007435
0.000751439
0.000754646
0.000752732
0.000745059
0.00073071
0.000708459
0.000676807
0.000634086
0.0005787
0.00050957
0.000426795
0.000332562
0.000232096
0.000134639
5.33634e-05
5.89135e-06
2.86742e-05
9.25064e-05
0.000166763
0.000240651
0.000311753
0.000378399
0.00043962
0.000494913
0.000544126
0.000587352
0.000624822
0.000656838
0.000683708
0.000705703
0.000723027
0.000735781
0.000743937
0.000747305
0.000745491
0.000737867
0.00072353
0.000701294
0.00066972
0.000627229
0.000572338
0.000504074
0.000422601
0.000330038
0.000231341
0.000135231
5.42496e-05
6.04666e-06
2.91818e-05
9.16326e-05
0.000164087
0.000236218
0.000305743
0.000371109
0.000431389
0.000486067
0.000534949
0.00057807
0.000615602
0.000647793
0.000674903
0.000697169
0.000714765
0.00072777
0.000736143
0.000739681
0.00073799
0.000730445
0.000716162
0.00069399
0.000662549
0.000620342
0.000565988
0.000498613
0.000418427
0.000327484
0.000230485
0.000135677
5.50362e-05
6.21065e-06
2.96099e-05
9.07788e-05
0.000161554
0.000232017
0.000300018
0.000364114
0.000423423
0.00047743
0.000525911
0.000568851
0.000606372
0.000638671
0.000665968
0.000688463
0.000706302
0.000719543
0.000728127
0.000731842
0.000730289
0.000722847
0.00070865
0.000686581
0.000655316
0.000613436
0.000559652
0.000493175
0.000414256
0.00032488
0.000229513
0.000135972
5.57208e-05
6.38116e-06
2.99644e-05
8.99411e-05
0.000159151
0.000228034
0.000294563
0.000357405
0.000415727
0.000469022
0.000517042
0.000559736
0.000597181
0.000629531
0.000656966
0.000679651
0.000697704
0.000711163
0.000719951
0.000723843
0.000722438
0.000715117
0.000701032
0.000679098
0.000648043
0.000606522
0.000553329
0.000487754
0.000410075
0.000322215
0.000228419
0.000136116
5.63049e-05
6.55621e-06
3.02513e-05
8.91158e-05
0.000156867
0.000224251
0.000289366
0.000350976
0.000408303
0.000460853
0.000508367
0.00055076
0.000588073
0.000620422
0.000647947
0.000670785
0.000689026
0.000702684
0.000711664
0.000715734
0.000714482
0.000707296
0.000693342
0.000671567
0.00064075
0.000599612
0.000547026
0.000482347
0.000405881
0.000319484
0.000227205
0.000136116
5.67925e-05
6.73392e-06
3.04761e-05
8.82996e-05
0.000154689
0.000220656
0.000284409
0.000344815
0.000401147
0.000452931
0.0004999
0.000541947
0.00057908
0.00061138
0.000638956
0.000661913
0.000680313
0.00069415
0.000703313
0.000707554
0.000706459
0.000699417
0.00068561
0.000664014
0.000633456
0.000592718
0.000540746
0.000476955
0.000401671
0.00031669
0.000225876
0.000135979
5.71893e-05
6.91255e-06
3.06444e-05
8.74892e-05
0.000152609
0.000217233
0.000279681
0.000338911
0.000394254
0.000445258
0.000491652
0.000533315
0.000570227
0.000602438
0.000630027
0.000653069
0.000671604
0.000685602
0.000694934
0.000699342
0.000698403
0.000691512
0.000677862
0.000656461
0.000626177
0.000585853
0.000534498
0.000471582
0.000397449
0.000313836
0.000224439
0.000135716
5.75021e-05
7.09057e-06
3.07614e-05
8.6682e-05
0.000150616
0.000213969
0.000275165
0.000333253
0.000387617
0.000437831
0.00048363
0.000524877
0.000561533
0.000593619
0.000621187
0.000644286
0.00066293
0.00067707
0.000686559
0.000691126
0.000690343
0.000683606
0.000670123
0.000648927
0.00061893
0.000579027
0.000528289
0.000466234
0.00039322
0.00031093
0.000222905
0.000135338
5.77386e-05
7.26662e-06
3.08322e-05
8.5875e-05
0.000148703
0.000210851
0.000270848
0.000327827
0.000381226
0.000430648
0.000475835
0.000516641
0.000553009
0.000584939
0.000612456
0.000635585
0.000654317
0.000668581
0.000678214
0.000682932
0.000682302
0.000675722
0.000662412
0.000641431
0.000611729
0.000572253
0.000522128
0.000460918
0.000388991
0.00030798
0.000221287
0.00013486
5.79063e-05
7.43952e-06
3.08617e-05
8.50655e-05
0.00014686
0.000207868
0.000266716
0.00032262
0.000375071
0.000423701
0.000468263
0.000508609
0.000544665
0.000576411
0.000603852
0.000626986
0.000645784
0.000660155
0.00066992
0.000674782
0.000674302
0.00066788
0.000654747
0.000633988
0.000604587
0.000565542
0.000516025
0.000455641
0.000384771
0.000304998
0.000219597
0.000134293
5.8013e-05
7.60829e-06
3.08546e-05
8.42506e-05
0.000145081
0.000205009
0.000262755
0.000317616
0.000369136
0.000416979
0.000460909
0.000500778
0.000536502
0.000568042
0.000595383
0.000618501
0.000637347
0.000651811
0.000661696
0.000666694
0.000666361
0.000660097
0.000647145
0.000626612
0.000597518
0.000558903
0.000509987
0.000450413
0.000380568
0.000301995
0.000217848
0.000133651
5.8066e-05
7.77212e-06
3.08158e-05
8.34269e-05
0.000143358
0.00020226
0.00025895
0.0003128
0.000363407
0.000410468
0.000453762
0.000493143
0.000528518
0.000559833
0.000587054
0.000610139
0.000629017
0.000643558
0.000653554
0.000658682
0.000658492
0.000652386
0.000639618
0.000619316
0.000590532
0.000552348
0.000504025
0.000445241
0.000376393
0.000298982
0.000216053
0.000132945
5.80722e-05
7.93036e-06
3.07503e-05
8.259e-05
0.000141683
0.000199611
0.000255284
0.000308152
0.000357863
0.000404149
0.000446807
0.000485691
0.000520705
0.000551781
0.000578867
0.000601903
0.000620798
0.000635407
0.000645504
0.000650757
0.000650707
0.00064476
0.000632179
0.000612111
0.000583639
0.000545883
0.000498146
0.000440135
0.000372254
0.00029597
0.000214226
0.000132187
5.80381e-05
8.08249e-06
3.06634e-05
8.17338e-05
0.000140047
0.000197044
0.000251734
0.000303644
0.000352477
0.000397997
0.000440019
0.000478404
0.000513049
0.000543875
0.000570815
0.000593791
0.000612694
0.000627362
0.000637553
0.000642926
0.000643016
0.000637228
0.000624835
0.000605005
0.000576848
0.000539518
0.000492358
0.000435102
0.000368162
0.000292969
0.000212376
0.000131389
5.79696e-05
8.22815e-06
3.05616e-05
8.0848e-05
0.000138434
0.000194537
0.00024827
0.000299243
0.000347211
0.000391976
0.000433368
0.000471255
0.000505529
0.000536101
0.000562889
0.000585797
0.000604701
0.000619422
0.000629704
0.000635194
0.000635423
0.000629796
0.000617596
0.000598006
0.000570165
0.00053326
0.000486667
0.00043015
0.000364124
0.00028999
0.000210516
0.000130558
5.78721e-05
8.36709e-06
3.04525e-05
7.99149e-05
0.000136817
0.00019205
0.000244841
0.000294892
0.000342014
0.000386038
0.000426813
0.000464211
0.000498119
0.000528438
0.000555073
0.000577912
0.000596815
0.000611586
0.000621957
0.000627564
0.000627934
0.00062247
0.000610465
0.00059112
0.000563597
0.000527115
0.000481081
0.000425286
0.000360149
0.000287043
0.000208655
0.000129705
5.77503e-05
8.49913e-06
3.03462e-05
7.88987e-05
0.000135138
0.000189508
0.000241365
0.000290512
0.000336809
0.000380118
0.000420299
0.000457226
0.000490782
0.000520858
0.000547346
0.00057012
0.000589023
0.000603846
0.000614308
0.000620035
0.000620548
0.000615253
0.000603448
0.00058435
0.000557148
0.000521086
0.000475605
0.000420515
0.000356243
0.000284134
0.000206802
0.000128838
5.76086e-05
8.62422e-06
3.02535e-05
7.77223e-05
0.000133271
0.00018677
0.000237703
0.000285978
0.000331495
0.000374132
0.000413759
0.000450248
0.000483477
0.00051333
0.000539684
0.000562403
0.000581314
0.000596195
0.000606752
0.000612604
0.000613266
0.000608144
0.000596545
0.000577701
0.000550821
0.000515179
0.000470242
0.000415843
0.000352413
0.000281271
0.000204964
0.000127962
5.74506e-05
8.74235e-06
3.01654e-05
7.61839e-05
0.000130925
0.000183572
0.000233642
0.000281126
0.000325944
0.000367984
0.000407117
0.000443218
0.000476159
0.000505817
0.000532061
0.00055474
0.000573671
0.00058862
0.000599282
0.000605266
0.000606084
0.000601143
0.000589757
0.000571172
0.000544618
0.000509396
0.000464996
0.000411274
0.000348663
0.000278462
0.00020315
0.000127084
5.72799e-05
8.85359e-06
2.99516e-05
7.40497e-05
0.000127577
0.00017952
0.000228918
0.000275777
0.00032003
0.000361578
0.000400303
0.00043608
0.000468784
0.000498286
0.000524447
0.00054711
0.000566079
0.000581109
0.000591887
0.000598014
0.000598998
0.000594247
0.000583083
0.000564764
0.000538541
0.000503737
0.00045987
0.000406811
0.000344999
0.00027571
0.000201363
0.000126209
5.70991e-05
8.95805e-06
2.81301e-05
6.98399e-05
0.000122703
0.000174366
0.000223394
0.000269853
0.000313684
0.000354859
0.000393269
0.000428796
0.000461318
0.000490707
0.000516821
0.000539492
0.00055852
0.000573649
0.000584557
0.00059084
0.000592002
0.000587452
0.000576519
0.000558474
0.000532587
0.000498203
0.000454863
0.000402455
0.000341423
0.000273021
0.00019961
0.000125342
5.6911e-05
9.05589e-06
1.04322e-05
3.64294e-05
7.19735e-05
0.000106054
0.000137046
0.000164681
0.000189257
0.000210811
0.000229633
0.000245964
0.000260028
0.000272022
0.000282123
0.000290478
0.000297216
0.000302443
0.000306249
0.000308706
0.000309876
0.000309805
0.000308531
0.000306083
0.00030248
0.000297732
0.000291841
0.000284801
0.000276596
0.000267197
0.000256564
0.00024464
0.000231344
0.000216569
0.000200172
0.000181959
0.00016167
0.000138986
0.000113505
8.48603e-05
5.32765e-05
2.26365e-05
1.07607e-05
3.80849e-05
7.36826e-05
0.000107587
0.000138379
0.000165899
0.000190278
0.000211698
0.000230402
0.000246628
0.000260598
0.00027251
0.000282535
0.000290823
0.000297499
0.00030267
0.000306423
0.000308832
0.000309956
0.000309843
0.000308529
0.000306043
0.000302404
0.000297622
0.0002917
0.00028463
0.000276396
0.000266972
0.000256317
0.000244372
0.00023106
0.000216274
0.00019987
0.000181656
0.000161381
0.000138718
0.00011328
8.47327e-05
5.33579e-05
2.28692e-05
1.11159e-05
3.98883e-05
7.57471e-05
0.000109644
0.000140321
0.000167691
0.000191893
0.000213144
0.00023169
0.000247773
0.000261612
0.000273406
0.000283325
0.000291516
0.000298105
0.000303196
0.000306877
0.000309219
0.000310282
0.000310113
0.000308748
0.000306215
0.000302532
0.000297711
0.000291752
0.000284649
0.000276387
0.000266938
0.000256261
0.000244299
0.000230975
0.000216182
0.000199777
0.00018157
0.00016131
0.000138674
0.00011328
8.47977e-05
5.35114e-05
2.31141e-05
1.14108e-05
4.13296e-05
7.76521e-05
0.000111738
0.00014243
0.000169718
0.000193786
0.000214885
0.000233277
0.000249211
0.000262911
0.000274576
0.000284376
0.000292459
0.000298949
0.000303949
0.000307546
0.000309813
0.000310806
0.000310572
0.000309148
0.000306561
0.000302829
0.000297962
0.000291962
0.000284822
0.000276526
0.000267047
0.000256345
0.000244362
0.000231021
0.000216216
0.000199806
0.000181602
0.000161352
0.000138735
0.000113373
8.49393e-05
5.37224e-05
2.33743e-05
1.16668e-05
4.2526e-05
7.9325e-05
0.00011369
0.00014449
0.000171769
0.000195757
0.000216741
0.000235001
0.000250799
0.000264367
0.000275904
0.000285586
0.000293558
0.000299945
0.000304851
0.000308361
0.000310547
0.000311466
0.000311164
0.000309677
0.000307032
0.000303247
0.000298331
0.000292286
0.000285106
0.000276773
0.000267262
0.000256531
0.000244525
0.000231165
0.000216348
0.000199931
0.000181727
0.000161485
0.000138885
0.000113548
8.51483e-05
5.39752e-05
2.36459e-05
1.18973e-05
4.35346e-05
8.07854e-05
0.000115459
0.000146421
0.000173745
0.000197701
0.000218605
0.000236761
0.000252444
0.000265892
0.000277312
0.000286881
0.000294746
0.000301033
0.000305845
0.000309268
0.000311373
0.000312218
0.000311847
0.000310297
0.000307593
0.000303754
0.000298788
0.000292698
0.000285476
0.000277107
0.000267563
0.000256804
0.000244774
0.000231396
0.000216566
0.000200143
0.000181938
0.000161702
0.000139114
0.000113793
8.54127e-05
5.42609e-05
2.39274e-05
1.21111e-05
4.44102e-05
8.20774e-05
0.00011706
0.000148209
0.000175613
0.000199571
0.000220428
0.000238506
0.000254093
0.000267438
0.000278753
0.000288218
0.000295983
0.000302175
0.000306898
0.000310237
0.000312264
0.000313036
0.000312599
0.000310986
0.000308225
0.000304333
0.000299319
0.000293185
0.000285924
0.000277519
0.000267943
0.000257157
0.000245105
0.000231709
0.000216866
0.000200435
0.000182228
0.000161995
0.000139413
0.000114099
8.57232e-05
5.45724e-05
2.42173e-05
1.23136e-05
4.51907e-05
8.32419e-05
0.000118523
0.000149869
0.000177372
0.000201358
0.000222191
0.000240213
0.000255723
0.000268981
0.000280204
0.000289575
0.00029725
0.000303353
0.000307992
0.000311253
0.000313207
0.00031391
0.000313408
0.000311737
0.000308922
0.00030498
0.00029992
0.000293745
0.000286446
0.000278007
0.000268401
0.000257589
0.000245514
0.0002321
0.000217243
0.000200803
0.00018259
0.000162355
0.000139773
0.000114458
8.60731e-05
5.4904e-05
2.45147e-05
1.25084e-05
4.59024e-05
8.43111e-05
0.000119878
0.000151423
0.000179038
0.000203069
0.000223897
0.00024188
0.00025733
0.000270514
0.000281657
0.000290946
0.000298538
0.000304561
0.000309123
0.000312311
0.000314196
0.000314836
0.000314274
0.000312548
0.000309682
0.000305693
0.000300591
0.000294376
0.000287042
0.00027857
0.000268936
0.000258098
0.000246
0.000232567
0.000217694
0.000201241
0.000183019
0.000162777
0.000140188
0.000114862
8.64575e-05
5.52511e-05
2.48189e-05
1.26978e-05
4.65628e-05
8.53087e-05
0.000121151
0.000152893
0.000180629
0.000204717
0.000225555
0.000243514
0.000258917
0.00027204
0.000283114
0.00029233
0.000299848
0.000305799
0.000310291
0.000313412
0.000315234
0.000315814
0.000315198
0.00031342
0.000310507
0.000306474
0.000301332
0.00029508
0.000287711
0.000279209
0.000269545
0.00025868
0.000246559
0.000233104
0.000218212
0.000201743
0.000183507
0.000163252
0.00014065
0.000115306
8.68717e-05
5.56109e-05
2.5129e-05
1.28834e-05
4.71839e-05
8.62518e-05
0.00012236
0.0001543
0.000182161
0.000206316
0.000227175
0.000245123
0.000260491
0.000273565
0.000284579
0.000293732
0.000301184
0.000307069
0.000311498
0.000314558
0.000316322
0.000316847
0.00031618
0.000314355
0.000311398
0.000307324
0.000302144
0.000295856
0.000288454
0.00027992
0.000270227
0.000259335
0.000247187
0.000233708
0.000218793
0.000202303
0.000184048
0.000163775
0.000141154
0.000115786
8.73133e-05
5.59893e-05
2.5444e-05
1.30665e-05
4.77733e-05
8.71526e-05
0.000123522
0.000155658
0.000183651
0.00020788
0.000228771
0.000246717
0.000262061
0.000275094
0.000286059
0.000295156
0.00030255
0.000308377
0.000312747
0.000315752
0.000317463
0.000317938
0.000317224
0.000315355
0.000312356
0.000308243
0.000303026
0.000296704
0.000289268
0.000280702
0.000270979
0.000260057
0.00024788
0.000234373
0.000219432
0.000202916
0.000184637
0.000164341
0.000141695
0.000116296
8.77784e-05
5.63837e-05
2.57629e-05
1.32482e-05
4.83352e-05
8.80192e-05
0.000124648
0.000156982
0.00018511
0.000209421
0.000230351
0.000248304
0.000263633
0.000276635
0.000287558
0.000296607
0.00030395
0.000309725
0.000314043
0.000316997
0.000318659
0.000319088
0.00031833
0.000316419
0.000313381
0.000309231
0.000303978
0.000297621
0.000290152
0.000281553
0.000271797
0.000260843
0.000248635
0.000235096
0.000220124
0.000203578
0.00018527
0.000164944
0.000142268
0.000116833
8.82642e-05
5.67919e-05
2.60852e-05
1.34294e-05
4.8871e-05
8.8858e-05
0.000125747
0.00015828
0.000186547
0.000210946
0.000231923
0.000249892
0.000265214
0.000278193
0.000289082
0.00029809
0.000305388
0.000311115
0.000315387
0.000318295
0.000319912
0.000320298
0.000319499
0.000317548
0.000314472
0.000310286
0.000304997
0.000298606
0.000291103
0.00028247
0.000272679
0.00026169
0.000249447
0.000235872
0.000220865
0.000204284
0.000185941
0.000165581
0.000142869
0.000117393
8.87683e-05
5.72121e-05
2.64101e-05
1.36116e-05
4.93808e-05
8.96754e-05
0.000126826
0.000159561
0.00018797
0.000212462
0.000233493
0.000251485
0.000266808
0.000279771
0.000290632
0.000299606
0.000306864
0.000312551
0.00031678
0.000319646
0.000321222
0.000321568
0.000320729
0.000318741
0.000315629
0.000311407
0.000306083
0.000299656
0.000292118
0.000283449
0.000273621
0.000262594
0.000250312
0.000236698
0.00022165
0.000205029
0.000186647
0.000166248
0.000143496
0.000117974
8.92883e-05
5.76427e-05
2.6737e-05
1.37955e-05
4.98706e-05
9.04788e-05
0.000127893
0.000160831
0.000189386
0.000213976
0.000235066
0.000253088
0.000268417
0.000281371
0.000292212
0.000301157
0.000308382
0.000314031
0.000318223
0.00032105
0.000322587
0.000322896
0.000322021
0.000319997
0.000316848
0.000312591
0.000307232
0.00030077
0.000293194
0.000284488
0.000274621
0.000263553
0.000251228
0.00023757
0.000222477
0.000205811
0.000187384
0.000166941
0.000144144
0.000118572
8.98221e-05
5.80823e-05
2.70652e-05
1.39798e-05
5.03549e-05
9.12735e-05
0.000128951
0.000162092
0.000190796
0.000215489
0.000236644
0.000254702
0.000270045
0.000282996
0.000293822
0.000302743
0.000309939
0.000315557
0.000319714
0.000322506
0.000324008
0.000324281
0.000323371
0.000321312
0.000318129
0.000313837
0.000308442
0.000301943
0.000294329
0.000285583
0.000275674
0.000264562
0.000252191
0.000238485
0.000223343
0.000206627
0.00018815
0.000167658
0.000144812
0.000119185
9.03677e-05
5.85295e-05
2.7394e-05
1.41651e-05
5.08368e-05
9.20628e-05
0.000130002
0.000163349
0.000192205
0.000217005
0.000238231
0.00025633
0.000271693
0.000284646
0.000295462
0.000304366
0.000311538
0.000317127
0.000321253
0.000324013
0.000325483
0.000325723
0.000324779
0.000322686
0.000319469
0.000315141
0.00030971
0.000303173
0.00029552
0.000286732
0.000276779
0.000265619
0.000253198
0.00023944
0.000224243
0.000207472
0.000188941
0.000168395
0.000145496
0.000119811
9.09229e-05
5.89829e-05
2.77228e-05
1.4352e-05
5.13176e-05
9.28486e-05
0.000131049
0.000164603
0.000193615
0.000218526
0.000239827
0.000257973
0.00027336
0.000286322
0.000297134
0.000306023
0.000313175
0.00031874
0.00032284
0.00032557
0.000327009
0.000327218
0.000326242
0.000324116
0.000320865
0.000316502
0.000311035
0.000304459
0.000296765
0.000287933
0.000277932
0.000266723
0.000254248
0.000240433
0.000225177
0.000208346
0.000189754
0.000169149
0.000146193
0.000120454
9.14851e-05
5.94411e-05
2.80508e-05
1.45407e-05
5.17983e-05
9.36323e-05
0.000132094
0.000165856
0.000195026
0.000220053
0.000241434
0.000259632
0.000275049
0.000288023
0.000298835
0.000307715
0.000314852
0.000320396
0.000324471
0.000327175
0.000328586
0.000328764
0.000327758
0.0003256
0.000322315
0.000317918
0.000312413
0.000305798
0.000298061
0.000289183
0.000279133
0.00026787
0.000255337
0.000241461
0.000226142
0.000209245
0.000190587
0.000169919
0.000146899
0.000121091
9.20508e-05
5.99028e-05
2.83771e-05
1.47315e-05
5.22794e-05
9.44152e-05
0.000133139
0.00016711
0.000196442
0.000221587
0.000243052
0.000261307
0.000276758
0.00028975
0.000300566
0.000309441
0.000316565
0.000322092
0.000326146
0.000328826
0.00033021
0.000330361
0.000329324
0.000327136
0.000323818
0.000319385
0.000313842
0.000307186
0.000299406
0.00029048
0.000280378
0.000269058
0.000256465
0.000242524
0.000227135
0.000210167
0.000191439
0.000170701
0.000147614
0.000121739
9.26196e-05
6.03668e-05
2.8701e-05
1.49245e-05
5.27618e-05
9.51983e-05
0.000134184
0.000168367
0.000197862
0.00022313
0.000244683
0.000262998
0.000278488
0.000291501
0.000302326
0.0003112
0.000318315
0.000323828
0.000327863
0.000330521
0.000331881
0.000332005
0.00033094
0.000328721
0.00032537
0.000320902
0.000315321
0.000308624
0.000300798
0.000291822
0.000281666
0.000270287
0.000257629
0.000243618
0.000228156
0.000211112
0.000192307
0.000171494
0.000148335
0.00012239
9.3189e-05
6.08315e-05
2.90215e-05
1.512e-05
5.32458e-05
9.59825e-05
0.000135231
0.000169627
0.000199289
0.000224682
0.000246328
0.000264707
0.000280239
0.000293278
0.000304115
0.000312991
0.000320101
0.000325601
0.00032962
0.000332259
0.000333596
0.000333695
0.000332603
0.000330354
0.00032697
0.000322467
0.000316847
0.000310108
0.000302235
0.000293208
0.000282996
0.000271554
0.000258828
0.000244744
0.000229203
0.000212077
0.000193189
0.000172295
0.00014906
0.000123041
9.37614e-05
6.12955e-05
2.93376e-05
1.53182e-05
5.37322e-05
9.67688e-05
0.00013628
0.000170892
0.000200723
0.000226245
0.000247985
0.000266432
0.000282011
0.000295079
0.000305932
0.000314813
0.00032192
0.000327412
0.000331417
0.000334038
0.000335355
0.00033543
0.000334311
0.000332032
0.000328617
0.000324078
0.00031842
0.000311637
0.000303717
0.000294637
0.000284365
0.000272859
0.000260062
0.0002459
0.000230276
0.000213062
0.000194084
0.000173103
0.000149786
0.00012369
9.43301e-05
6.17565e-05
2.96484e-05
1.55192e-05
5.42214e-05
9.75578e-05
0.000137334
0.000172163
0.000202165
0.000227819
0.000249657
0.000268175
0.000283804
0.000296904
0.000307776
0.000316666
0.000323773
0.000329258
0.000333252
0.000335857
0.000337154
0.000337207
0.000336063
0.000333755
0.000330308
0.000325734
0.000320036
0.00031321
0.000305241
0.000296106
0.000285774
0.000274201
0.000261329
0.000247085
0.000231373
0.000214065
0.000194992
0.000173916
0.00015051
0.000124333
9.48921e-05
6.22125e-05
2.99528e-05
1.57233e-05
5.47137e-05
9.83504e-05
0.000138392
0.00017344
0.000203616
0.000229404
0.000251344
0.000269936
0.000285617
0.000298753
0.000309647
0.000318548
0.000325657
0.000331139
0.000335123
0.000337714
0.000338994
0.000339026
0.000337856
0.000335521
0.000332042
0.000327433
0.000321695
0.000314825