/*--------------------------------*- C++ -*----------------------------------*\
  =========                 |
  \\      /  F ield         | OpenFOAM: The Open Source CFD Toolbox
   \\    /   O peration     | Website:  https://openfoam.org
    \\  /    A nd           | Version:  8
     \\/     M anipulation  |
\*---------------------------------------------------------------------------*/
FoamFile
{
    version     2.0;
    format      ascii;
    class       volScalarField;
    location    "20000/gas";
    object      O2;
}
// * * * * * * * * * * * * * * * * * * * * * * * * * * * * * * * * * * * * * //

dimensions      [0 0 0 0 0 0 0];

internalField   nonuniform List<scalar> 
16000
(
6.07176e-55
6.14561e-55
3.44388e-54
1.26338e-55
1.10899e-52
3.06512e-53
1.03499e-52
1.11473e-53
4.06152e-51
7.83652e-52
8.42964e-52
1.28408e-52
1.05528e-49
2.20375e-50
1.15855e-50
1.19035e-51
1.47798e-48
3.3469e-49
1.71621e-49
1.65887e-50
1.59021e-47
3.60272e-48
2.63314e-48
1.47777e-49
2.25518e-46
5.73772e-47
3.93967e-47
2.1372e-48
3.038e-45
1.01146e-45
4.51016e-46
2.21111e-47
3.70607e-44
1.96681e-44
5.65244e-45
4.04509e-46
5.28739e-43
2.25552e-43
6.78404e-44
5.10454e-45
5.97515e-42
2.21835e-42
8.12565e-43
5.64969e-44
7.54961e-41
3.97256e-41
8.52007e-42
4.29013e-43
7.94334e-40
4.48959e-40
1.30706e-40
6.99573e-42
1.36463e-38
6.01476e-39
1.39964e-39
6.43273e-41
2.2922e-37
7.94729e-38
1.47982e-38
1.02653e-39
1.98412e-36
7.16236e-37
1.20903e-37
9.13019e-39
2.76309e-35
1.09139e-35
1.96445e-36
7.99868e-38
3.677e-34
1.48453e-34
3.19859e-35
1.40381e-36
4.97299e-33
1.838e-33
3.94893e-34
2.71042e-35
5.01197e-32
2.50027e-32
3.11372e-33
1.65679e-34
6.97233e-31
2.50453e-31
4.75713e-32
2.18517e-33
1.14041e-29
4.1739e-30
8.93336e-31
3.78042e-32
1.05549e-28
4.20178e-29
7.61883e-30
3.51269e-31
8.69591e-28
5.54053e-28
1.3768e-28
6.62891e-30
9.30384e-27
5.37231e-27
1.37539e-27
1.16031e-28
1.16592e-25
5.37661e-26
2.20803e-26
1.59145e-27
1.42161e-24
5.27735e-25
3.20131e-25
1.64752e-26
2.15634e-23
9.95885e-24
4.54551e-24
2.28727e-25
2.51759e-22
1.14271e-22
6.63644e-23
2.1824e-24
2.88126e-21
2.05245e-21
1.4983e-21
4.14571e-23
3.21666e-20
4.66938e-20
2.6004e-20
7.26649e-22
5.35489e-19
7.12809e-19
4.80204e-19
1.53186e-20
8.94299e-18
9.54944e-18
8.17619e-18
4.08298e-19
1.53567e-16
1.92592e-16
1.88697e-16
1.62193e-17
2.608e-15
3.92829e-15
5.16269e-15
6.5925e-16
4.32933e-14
8.0025e-14
1.45832e-13
4.39728e-14
6.92492e-13
1.60348e-12
4.17653e-12
3.36874e-12
1.04523e-11
3.09838e-11
1.19795e-10
2.74668e-10
1.43828e-10
5.57892e-10
3.32986e-09
2.31328e-08
1.69388e-09
8.67709e-09
8.05448e-08
1.03016e-06
0.21
0.21
0.21
0.21
0.21
0.21
0.21
0.21
0.21
0.21
0.21
0.21
0.21
0.21
0.21
0.21
0.21
0.21
0.21
0.21
0.21
0.21
0.21
0.21
0.21
0.21
0.21
0.21
0.21
0.21
0.21
0.21
0.21
0.21
0.21
0.21
0.21
0.21
0.21
0.21
0.21
0.21
0.21
0.21
0.21
0.21
0.21
0.21
0.21
0.21
0.21
0.21
0.21
0.21
0.21
0.21
0.21
0.21
0.21
0.21
0.21
0.21
0.21
0.21
0.21
0.21
0.21
0.21
0.21
0.21
0.21
0.21
0.21
0.21
0.21
0.21
0.21
0.21
0.21
0.21
0.21
0.21
0.21
0.21
0.21
0.21
0.21
0.21
0.21
0.21
0.21
0.21
0.21
0.21
0.21
0.21
0.21
0.21
0.21
0.21
0.21
0.21
0.21
0.21
0.21
0.21
0.21
0.21
0.21
0.21
0.21
0.21
0.21
0.21
0.21
0.21
0.21
0.21
0.21
0.21
0.21
0.21
0.21
0.21
0.21
0.21
0.21
0.21
0.21
0.21
0.21
0.21
0.21
0.21
0.21
0.21
0.21
0.21
0.21
0.21
0.21
0.21
0.21
0.21
0.21
0.21
0.21
0.21
0.21
0.21
0.21
0.21
0.21
0.21
0.21
0.21
0.21
0.21
0.21
0.21
0.21
0.21
0.21
0.21
0.21
0.21
0.21
0.21
0.21
0.21
0.21
0.21
0.21
0.21
0.21
0.21
0.21
0.21
0.21
0.21
0.21
0.21
0.21
0.21
0.21
0.21
0.21
0.21
0.21
0.21
0.21
0.21
0.21
0.21
0.21
0.21
0.21
0.21
0.21
0.21
0.21
0.21
0.21
0.21
0.21
0.21
0.21
0.21
0.21
0.21
0.21
0.21
0.21
0.21
0.21
0.21
0.21
0.21
0.21
0.21
0.21
0.21
0.21
0.21
0.21
0.21
0.21
0.21
0.21
0.21
0.21
0.21
0.21
0.21
0.21
0.21
0.21
0.21
0.21
0.21
0.21
0.21
0.21
0.21
0.21
0.21
0.21
0.21
0.21
0.21
0.21
0.21
0.21
0.21
0.21
0.21
0.21
0.21
0.21
0.21
0.21
0.21
0.21
0.21
0.21
0.21
0.21
0.21
0.21
0.21
0.21
0.21
0.21
0.21
0.21
0.21
0.21
0.21
0.21
0.21
0.21
0.21
0.21
0.21
0.21
0.21
0.21
0.21
0.21
0.21
0.21
0.21
0.21
0.21
0.21
0.21
0.21
0.21
0.21
0.21
0.21
0.21
0.21
0.21
0.21
0.21
0.21
0.21
0.21
0.21
0.21
0.21
0.21
0.21
0.21
0.21
0.21
0.21
0.21
0.21
0.21
0.21
0.21
0.21
0.21
0.21
0.21
0.21
0.21
0.21
0.21
0.21
0.21
0.21
0.21
0.21
0.21
0.21
0.21
0.21
0.21
0.21
0.21
0.21
0.21
0.21
0.21
0.21
0.21
0.21
0.21
0.21
0.21
0.21
0.21
0.21
0.21
0.21
0.21
0.21
0.21
0.21
0.21
0.21
0.21
0.21
0.21
0.21
0.21
0.21
0.21
0.21
0.21
0.21
0.21
0.21
0.21
0.21
0.21
0.21
0.21
0.21
0.21
0.21
0.21
0.21
0.21
0.21
0.21
0.21
0.21
0.21
0.21
0.21
0.21
0.21
0.21
0.21
0.21
0.21
0.21
0.21
0.21
0.21
0.21
0.21
0.21
0.21
0.21
0.21
0.21
0.21
0.21
0.21
0.21
0.21
0.21
0.21
0.21
0.21
0.21
0.21
0.21
0.21
0.21
0.21
0.21
0.21
0.21
0.21
0.21
0.21
0.21
0.21
0.21
0.21
0.21
0.21
0.21
0.21
0.21
0.21
0.21
0.21
0.21
0.21
0.21
0.21
0.21
0.21
0.21
0.21
0.21
0.21
0.21
0.21
0.21
0.21
0.21
0.21
0.21
0.21
0.21
0.21
0.21
0.21
0.21
0.21
0.21
0.21
0.21
0.21
0.21
0.21
0.21
0.21
0.21
0.21
0.21
0.21
0.21
0.21
0.21
0.21
0.21
0.21
0.21
0.21
0.21
0.21
0.21
0.21
0.21
0.21
0.21
0.21
0.21
0.21
0.21
0.21
0.21
0.21
0.21
0.21
0.21
0.21
0.21
0.21
0.21
0.21
0.21
0.21
0.21
0.21
0.21
0.21
0.21
0.21
0.21
0.21
0.21
0.21
0.21
0.21
0.21
0.21
0.21
0.21
0.21
0.21
0.21
0.21
0.21
0.21
0.21
0.21
0.21
0.21
0.21
0.21
0.21
0.21
0.21
0.21
0.21
0.21
0.21
0.21
0.21
0.21
0.21
0.21
0.21
0.21
0.21
0.21
0.21
0.21
0.21
0.21
0.21
0.21
0.21
0.21
0.21
0.21
0.21
0.21
0.21
0.21
0.21
0.21
0.21
0.21
0.21
0.21
0.21
0.21
0.21
0.21
0.21
0.21
0.21
0.21
0.21
0.21
0.21
0.21
0.21
0.21
0.21
0.21
0.21
0.21
0.21
0.21
0.21
0.21
0.21
0.21
0.21
0.21
0.21
0.21
0.21
0.21
0.21
0.21
0.21
0.21
0.21
0.21
0.21
0.21
0.21
0.21
0.21
0.21
0.21
0.21
0.21
0.21
0.21
0.21
0.21
0.21
0.21
0.21
0.21
0.21
0.21
0.21
0.21
0.21
0.21
0.21
0.21
0.21
0.21
0.21
0.21
0.21
0.21
0.21
0.21
0.21
0.21
0.21
0.21
0.21
0.21
0.21
0.21
0.21
0.21
0.21
0.21
0.21
0.21
0.21
0.21
0.21
0.21
0.21
0.21
0.21
0.21
0.21
0.21
0.21
0.21
0.21
0.21
0.21
0.21
0.21
0.21
0.21
0.21
0.21
0.21
0.21
0.21
0.21
0.21
0.21
0.21
0.21
0.21
0.21
0.21
0.21
0.21
0.21
0.21
0.21
0.21
0.21
0.21
0.21
0.21
0.21
0.21
0.21
0.21
0.21
0.21
0.21
0.21
0.21
0.21
0.21
0.21
0.21
0.21
0.21
0.21
0.21
0.21
0.21
0.21
0.21
0.21
0.21
0.21
0.21
0.21
0.21
0.21
0.21
0.21
0.21
0.21
0.21
0.21
0.21
0.21
0.21
0.21
0.21
0.21
0.21
0.21
0.21
0.21
0.21
0.21
0.21
0.21
0.21
0.21
0.21
0.21
0.21
0.21
0.21
0.21
0.21
0.21
0.21
0.21
0.21
0.21
0.21
0.21
0.21
0.21
0.21
0.21
0.21
0.21
0.21
0.21
0.21
0.21
0.21
0.21
0.21
0.21
0.21
0.21
0.21
0.21
0.21
0.21
0.21
0.21
0.21
0.21
0.21
0.21
0.21
0.21
0.21
0.21
0.21
0.21
0.21
0.21
0.21
0.21
0.21
0.21
0.21
0.21
0.21
0.21
0.21
0.21
0.21
0.21
0.21
0.21
0.21
0.21
0.21
0.21
0.21
0.21
0.21
0.21
0.21
0.21
0.21
0.21
0.21
0.21
0.21
0.21
0.21
0.21
0.21
0.21
0.21
0.21
0.21
0.21
0.21
0.21
0.21
0.21
0.21
0.21
0.21
0.21
0.21
0.21
0.21
0.21
0.21
0.21
0.21
0.21
0.21
0.21
0.21
0.21
0.21
0.21
0.21
0.21
0.21
0.21
0.21
0.21
0.21
0.21
0.21
0.21
0.21
0.21
0.21
0.21
0.21
0.21
0.21
0.21
0.21
0.21
0.21
0.21
0.21
0.21
0.21
0.21
0.21
0.21
0.21
0.21
0.21
0.21
0.21
0.21
0.21
0.21
0.21
0.21
0.21
0.21
0.21
0.21
0.21
0.21
0.21
0.21
0.21
0.21
0.21
0.21
0.21
0.21
0.21
0.21
0.21
0.21
0.21
0.21
0.21
0.21
0.21
0.21
0.21
0.21
0.21
0.21
0.21
0.21
0.21
0.21
0.21
0.21
0.21
0.21
0.21
0.21
0.21
0.21
0.21
0.21
0.21
0.21
0.21
0.21
0.21
0.21
0.21
0.21
0.21
0.21
0.21
0.21
0.21
0.21
0.21
0.21
0.21
0.21
0.21
0.21
0.21
0.21
0.21
0.21
0.21
0.21
0.21
0.21
0.21
0.21
0.21
0.21
0.21
0.21
0.21
0.21
0.21
0.21
0.21
0.21
0.21
0.21
0.21
0.21
0.21
0.21
0.21
0.21
0.21
0.21
0.21
0.21
0.21
0.21
0.21
0.21
0.21
0.21
0.21
0.21
0.21
0.21
0.21
0.21
0.21
0.21
0.21
0.21
0.21
0.21
0.21
0.21
0.21
0.21
0.21
0.21
0.21
0.21
0.21
0.21
0.21
0.21
0.21
0.21
0.21
0.21
0.21
0.21
0.21
0.21
0.21
0.21
0.21
0.21
0.21
0.21
0.21
0.21
0.21
0.21
0.21
0.21
0.21
0.21
0.21
0.21
0.21
0.21
0.21
0.21
0.21
0.21
0.21
0.21
0.21
0.21
0.21
0.21
0.21
0.21
0.21
0.21
0.21
0.21
0.21
0.21
0.21
0.21
0.21
0.21
0.21
0.21
0.21
0.21
0.21
0.21
0.21
0.21
0.21
0.21
0.21
0.21
0.21
0.21
0.21
0.21
0.21
0.21
0.21
0.21
0.21
0.21
0.21
0.21
0.21
0.21
0.21
0.21
0.21
0.21
0.21
0.21
0.21
0.21
0.21
0.21
0.21
0.21
0.21
0.21
0.21
0.21
0.21
0.21
0.21
0.21
0.21
0.21
0.21
0.21
0.21
0.21
0.21
0.21
0.21
0.21
0.21
0.21
0.21
0.21
0.21
0.21
0.21
0.21
0.21
0.21
0.21
0.21
0.21
0.21
0.21
0.21
0.21
0.21
0.21
0.21
0.21
0.21
0.21
0.21
0.21
0.21
0.21
0.21
0.209999
0.209999
0.209999
0.209999
0.209999
0.209999
0.21
0.21
0.21
0.21
0.21
0.21
0.21
0.21
0.21
0.21
0.21
0.21
0.21
0.21
0.21
0.21
0.21
0.21
0.21
0.21
0.21
0.21
0.21
0.21
0.21
0.209996
0.209995
0.209995
0.209996
0.209997
0.209998
0.209998
0.209999
0.209999
0.209999
0.21
0.21
0.21
0.21
0.21
0.21
0.21
0.21
0.21
0.21
0.21
0.21
0.21
0.21
0.21
0.21
0.21
0.21
0.21
0.21
0.21
0.21
0.209953
0.209963
0.209977
0.209985
0.209991
0.209994
0.209996
0.209997
0.209998
0.209999
0.209999
0.209999
0.209999
0.21
0.21
0.21
0.21
0.21
0.21
0.21
0.21
0.21
0.21
0.21
0.21
0.21
0.21
0.21
0.21
0.21
0.21
0.21
0.209317
0.209742
0.209892
0.209947
0.209972
0.209984
0.20999
0.209994
0.209996
0.209997
0.209998
0.209999
0.209999
0.209999
0.21
0.21
0.21
0.21
0.21
0.21
0.21
0.21
0.21
0.21
0.21
0.21
0.21
0.21
0.21
0.21
0.21
0.21
0.189819
0.189745
0.18967
0.189603
0.189539
0.189477
0.189416
0.189355
0.189294
0.189233
0.18917
0.189107
0.189043
0.188979
0.188913
0.188847
0.18878
0.188712
0.188644
0.188575
0.188506
0.188436
0.188366
0.188295
0.188224
0.188154
0.188083
0.188012
0.187941
0.187871
0.187801
0.187732
0.187663
0.187595
0.187529
0.187464
0.187401
0.18734
0.187281
0.18723
0.18978
0.189718
0.189651
0.189588
0.189527
0.189467
0.189407
0.189347
0.189287
0.189225
0.189163
0.189101
0.189037
0.188972
0.188907
0.188841
0.188774
0.188706
0.188638
0.188569
0.1885
0.18843
0.188359
0.188288
0.188217
0.188147
0.188076
0.188005
0.187934
0.187863
0.187793
0.187723
0.187654
0.187586
0.187519
0.187453
0.187389
0.187326
0.187265
0.187213
0.189746
0.189687
0.189626
0.189567
0.189509
0.189451
0.189393
0.189334
0.189274
0.189213
0.189152
0.189089
0.189026
0.188962
0.188897
0.188831
0.188764
0.188696
0.188628
0.188559
0.18849
0.18842
0.18835
0.188279
0.188208
0.188137
0.188066
0.187995
0.187924
0.187853
0.187782
0.187712
0.187643
0.187575
0.187507
0.187441
0.187377
0.187315
0.187256
0.187204
0.189717
0.189659
0.189601
0.189544
0.189488
0.189432
0.189375
0.189317
0.189258
0.189198
0.189138
0.189076
0.189013
0.188949
0.188884
0.188818
0.188752
0.188684
0.188616
0.188548
0.188478
0.188408
0.188338
0.188267
0.188197
0.188126
0.188055
0.187984
0.187913
0.187842
0.187771
0.187701
0.187632
0.187563
0.187496
0.18743
0.187366
0.187303
0.187243
0.187191
0.18969
0.189633
0.189576
0.189522
0.189467
0.189412
0.189356
0.189299
0.189241
0.189182
0.189122
0.18906
0.188998
0.188935
0.18887
0.188805
0.188738
0.188671
0.188603
0.188535
0.188466
0.188396
0.188326
0.188256
0.188185
0.188115
0.188044
0.187972
0.187901
0.187831
0.18776
0.18769
0.187621
0.187552
0.187485
0.187419
0.187354
0.187292
0.187233
0.187181
0.189666
0.189609
0.189553
0.1895
0.189446
0.189392
0.189337
0.189281
0.189224
0.189165
0.189106
0.189045
0.188983
0.18892
0.188855
0.18879
0.188724
0.188658
0.18859
0.188522
0.188453
0.188384
0.188314
0.188244
0.188173
0.188103
0.188032
0.187961
0.18789
0.187819
0.187749
0.187679
0.18761
0.187541
0.187474
0.187408
0.187343
0.187281
0.187221
0.187169
0.189644
0.189587
0.189532
0.189479
0.189426
0.189373
0.189318
0.189263
0.189206
0.189148
0.189089
0.189029
0.188967
0.188905
0.188841
0.188776
0.188711
0.188644
0.188577
0.188509
0.18844
0.188371
0.188302
0.188232
0.188162
0.188091
0.188021
0.18795
0.187879
0.187809
0.187738
0.187668
0.187599
0.187531
0.187463
0.187397
0.187332
0.18727
0.18721
0.187159
0.189623
0.189566
0.189512
0.189459
0.189407
0.189354
0.1893
0.189246
0.189189
0.189132
0.189073
0.189013
0.188952
0.18889
0.188827
0.188762
0.188697
0.188631
0.188564
0.188496
0.188428
0.188359
0.18829
0.18822
0.18815
0.18808
0.18801
0.187939
0.187869
0.187798
0.187728
0.187658
0.187589
0.18752
0.187453
0.187386
0.187322
0.187259
0.187199
0.187147
0.189604
0.189547
0.189493
0.189441
0.189389
0.189336
0.189283
0.189229
0.189173
0.189116
0.189058
0.188998
0.188937
0.188876
0.188813
0.188749
0.188684
0.188618
0.188551
0.188484
0.188416
0.188348
0.188279
0.188209
0.18814
0.18807
0.188
0.187929
0.187859
0.187788
0.187718
0.187648
0.187579
0.18751
0.187442
0.187376
0.187311
0.187248
0.187188
0.187136
0.189587
0.189529
0.189475
0.189423
0.189372
0.18932
0.189267
0.189213
0.189157
0.189101
0.189043
0.188984
0.188923
0.188862
0.188799
0.188736
0.188671
0.188606
0.188539
0.188472
0.188405
0.188337
0.188268
0.188199
0.188129
0.18806
0.18799
0.187919
0.187849
0.187779
0.187708
0.187638
0.187569
0.1875
0.187432
0.187366
0.1873
0.187237
0.187177
0.187125
0.18957
0.189513
0.189459
0.189407
0.189356
0.189304
0.189251
0.189198
0.189143
0.189086
0.189029
0.18897
0.18891
0.188849
0.188786
0.188723
0.188659
0.188594
0.188528
0.188461
0.188394
0.188326
0.188258
0.188189
0.18812
0.18805
0.18798
0.18791
0.18784
0.187769
0.187699
0.187629
0.18756
0.187491
0.187422
0.187355
0.18729
0.187226
0.187166
0.187114
0.189554
0.189497
0.189443
0.189392
0.189341
0.189289
0.189237
0.189183
0.189129
0.189073
0.189015
0.188957
0.188897
0.188836
0.188774
0.188711
0.188647
0.188583
0.188517
0.188451
0.188384
0.188316
0.188248
0.188179
0.18811
0.188041
0.187971
0.187901
0.187831
0.18776
0.18769
0.18762
0.18755
0.187481
0.187413
0.187345
0.18728
0.187216
0.187155
0.187102
0.189539
0.189482
0.189428
0.189377
0.189326
0.189275
0.189223
0.18917
0.189115
0.18906
0.189003
0.188944
0.188885
0.188824
0.188763
0.1887
0.188637
0.188572
0.188507
0.188441
0.188374
0.188306
0.188238
0.18817
0.188101
0.188032
0.187962
0.187892
0.187822
0.187752
0.187681
0.187611
0.187541
0.187472
0.187403
0.187335
0.187269
0.187205
0.187143
0.187091
0.189525
0.189468
0.189415
0.189363
0.189313
0.189262
0.18921
0.189157
0.189103
0.189047
0.188991
0.188933
0.188874
0.188813
0.188752
0.18869
0.188626
0.188562
0.188497
0.188431
0.188365
0.188297
0.18823
0.188161
0.188093
0.188024
0.187954
0.187884
0.187814
0.187743
0.187673
0.187602
0.187532
0.187463
0.187394
0.187326
0.187259
0.187194
0.187132
0.18708
0.189511
0.189455
0.189401
0.18935
0.1893
0.189249
0.189197
0.189145
0.189091
0.189036
0.188979
0.188922
0.188863
0.188803
0.188742
0.18868
0.188616
0.188552
0.188488
0.188422
0.188356
0.188289
0.188221
0.188153
0.188085
0.188016
0.187946
0.187876
0.187806
0.187735
0.187665
0.187594
0.187524
0.187454
0.187384
0.187316
0.187249
0.187183
0.187121
0.187068
0.189498
0.189442
0.189389
0.189338
0.189288
0.189237
0.189186
0.189133
0.18908
0.189025
0.188969
0.188911
0.188853
0.188793
0.188732
0.18867
0.188607
0.188543
0.188479
0.188413
0.188347
0.188281
0.188213
0.188145
0.188077
0.188008
0.187938
0.187868
0.187798
0.187727
0.187657
0.187586
0.187515
0.187445
0.187375
0.187306
0.187239
0.187173
0.18711
0.187057
0.189486
0.18943
0.189377
0.189326
0.189276
0.189226
0.189175
0.189122
0.189069
0.189014
0.188958
0.188901
0.188843
0.188783
0.188723
0.188661
0.188599
0.188535
0.188471
0.188405
0.188339
0.188273
0.188205
0.188138
0.18807
0.188001
0.187931
0.187861
0.187791
0.18772
0.187649
0.187578
0.187507
0.187436
0.187366
0.187297
0.187229
0.187162
0.187099
0.187045
0.189474
0.189418
0.189365
0.189315
0.189265
0.189215
0.189164
0.189112
0.189059
0.189004
0.188949
0.188892
0.188834
0.188774
0.188714
0.188653
0.18859
0.188527
0.188463
0.188398
0.188332
0.188265
0.188198
0.188131
0.188063
0.187994
0.187924
0.187854
0.187783
0.187713
0.187641
0.18757
0.187499
0.187428
0.187357
0.187287
0.187218
0.187151
0.187087
0.187033
0.189462
0.189407
0.189354
0.189304
0.189255
0.189205
0.189154
0.189102
0.189049
0.188995
0.18894
0.188883
0.188825
0.188766
0.188706
0.188645
0.188583
0.188519
0.188455
0.188391
0.188325
0.188258
0.188191
0.188124
0.188056
0.187987
0.187917
0.187847
0.187777
0.187705
0.187634
0.187563
0.187491
0.187419
0.187348
0.187278
0.187208
0.187141
0.187076
0.187021
0.189451
0.189396
0.189344
0.189294
0.189245
0.189195
0.189145
0.189093
0.18904
0.188986
0.188931
0.188875
0.188817
0.188758
0.188698
0.188637
0.188575
0.188512
0.188448
0.188384
0.188318
0.188252
0.188185
0.188118
0.18805
0.187981
0.187911
0.187841
0.18777
0.187699
0.187627
0.187555
0.187483
0.187411
0.18734
0.187268
0.187198
0.18713
0.187065
0.18701
0.189441
0.189386
0.189334
0.189284
0.189235
0.189186
0.189136
0.189084
0.189032
0.188978
0.188923
0.188867
0.188809
0.188751
0.188691
0.18863
0.188568
0.188506
0.188442
0.188377
0.188312
0.188246
0.188179
0.188112
0.188044
0.187975
0.187905
0.187835
0.187764
0.187692
0.18762
0.187548
0.187476
0.187403
0.187331
0.187259
0.187189
0.187119
0.187053
0.186997
0.189431
0.189376
0.189325
0.189275
0.189226
0.189177
0.189127
0.189076
0.189023
0.18897
0.188915
0.188859
0.188802
0.188743
0.188684
0.188623
0.188562
0.188499
0.188436
0.188371
0.188306
0.18824
0.188173
0.188106
0.188038
0.187969
0.187899
0.187829
0.187757
0.187686
0.187614
0.187541
0.187468
0.187395
0.187322
0.18725
0.187179
0.187109
0.187042
0.186985
0.189421
0.189367
0.189315
0.189266
0.189218
0.189169
0.189119
0.189068
0.189016
0.188962
0.188908
0.188852
0.188795
0.188737
0.188678
0.188617
0.188556
0.188493
0.18843
0.188366
0.1883
0.188234
0.188168
0.1881
0.188033
0.187963
0.187893
0.187823
0.187752
0.18768
0.187607
0.187534
0.187461
0.187387
0.187314
0.187241
0.187169
0.187098
0.18703
0.186973
0.189412
0.189358
0.189307
0.189258
0.189209
0.189161
0.189111
0.18906
0.189008
0.188955
0.188901
0.188845
0.188789
0.188731
0.188671
0.188611
0.18855
0.188488
0.188424
0.18836
0.188295
0.188229
0.188162
0.188095
0.188027
0.187958
0.187888
0.187817
0.187746
0.187674
0.187601
0.187528
0.187454
0.18738
0.187306
0.187232
0.187159
0.187087
0.187019
0.186961
0.189403
0.189349
0.189298
0.18925
0.189202
0.189153
0.189104
0.189053
0.189001
0.188949
0.188894
0.188839
0.188782
0.188725
0.188666
0.188606
0.188545
0.188482
0.188419
0.188355
0.18829
0.188224
0.188158
0.18809
0.188023
0.187953
0.187883
0.187812
0.18774
0.187668
0.187595
0.187521
0.187447
0.187372
0.187298
0.187223
0.187149
0.187076
0.187007
0.186948
0.189394
0.189341
0.18929
0.189242
0.189194
0.189146
0.189097
0.189046
0.188995
0.188942
0.188888
0.188833
0.188777
0.188719
0.18866
0.188601
0.18854
0.188478
0.188415
0.188351
0.188286
0.18822
0.188153
0.188086
0.188018
0.187949
0.187878
0.187807
0.187735
0.187662
0.187589
0.187515
0.18744
0.187365
0.187289
0.187214
0.187139
0.187066
0.186995
0.186935
0.189386
0.189333
0.189283
0.189235
0.189187
0.189139
0.18909
0.18904
0.188989
0.188936
0.188883
0.188828
0.188771
0.188714
0.188655
0.188596
0.188535
0.188473
0.18841
0.188346
0.188281
0.188216
0.188149
0.188081
0.188014
0.187944
0.187874
0.187802
0.18773
0.187657
0.187583
0.187509
0.187433
0.187358
0.187281
0.187205
0.18713
0.187055
0.186983
0.186923
0.189377
0.189325
0.189275
0.189227
0.18918
0.189132
0.189084
0.189034
0.188983
0.188931
0.188877
0.188822
0.188766
0.188709
0.188651
0.188591
0.188531
0.188469
0.188406
0.188342
0.188277
0.188212
0.188145
0.188077
0.18801
0.18794
0.187869
0.187798
0.187725
0.187652
0.187578
0.187503
0.187427
0.18735
0.187274
0.187197
0.18712
0.187044
0.186971
0.18691
0.18937
0.189318
0.189268
0.189221
0.189174
0.189126
0.189078
0.189028
0.188977
0.188925
0.188872
0.188817
0.188762
0.188705
0.188646
0.188587
0.188526
0.188465
0.188402
0.188338
0.188274
0.188208
0.188141
0.188074
0.188006
0.187936
0.187865
0.187794
0.187721
0.187647
0.187572
0.187497
0.187421
0.187343
0.187266
0.187188
0.18711
0.187033
0.186959
0.186897
0.189362
0.189311
0.189262
0.189214
0.189167
0.18912
0.189072
0.189023
0.188972
0.18892
0.188867
0.188813
0.188757
0.1887
0.188642
0.188583
0.188523
0.188461
0.188399
0.188335
0.18827
0.188205
0.188138
0.18807
0.188002
0.187932
0.187861
0.187789
0.187716
0.187642
0.187567
0.187491
0.187414
0.187337
0.187258
0.187179
0.1871
0.187022
0.186947
0.186883
0.189355
0.189304
0.189255
0.189208
0.189162
0.189114
0.189067
0.189017
0.188967
0.188916
0.188863
0.188809
0.188753
0.188697
0.188639
0.18858
0.188519
0.188458
0.188395
0.188332
0.188267
0.188201
0.188135
0.188067
0.187999
0.187929
0.187858
0.187786
0.187712
0.187638
0.187562
0.187486
0.187408
0.18733
0.187251
0.187171
0.187091
0.187012
0.186935
0.18687
0.189348
0.189298
0.189249
0.189202
0.189156
0.189109
0.189061
0.189013
0.188963
0.188911
0.188859
0.188805
0.18875
0.188693
0.188635
0.188576
0.188516
0.188455
0.188393
0.188329
0.188264
0.188199
0.188132
0.188064
0.187996
0.187926
0.187854
0.187782
0.187708
0.187633
0.187558
0.18748
0.187402
0.187323
0.187243
0.187162
0.187081
0.187001
0.186922
0.186856
0.189342
0.189291
0.189243
0.189197
0.189151
0.189104
0.189057
0.189008
0.188958
0.188907
0.188855
0.188801
0.188746
0.18869
0.188632
0.188573
0.188513
0.188452
0.18839
0.188326
0.188262
0.188196
0.188129
0.188061
0.187993
0.187923
0.187851
0.187778
0.187704
0.187629
0.187553
0.187475
0.187396
0.187317
0.187236
0.187154
0.187072
0.18699
0.18691
0.186842
0.189336
0.189286
0.189238
0.189192
0.189146
0.189099
0.189052
0.189004
0.188954
0.188903
0.188851
0.188798
0.188743
0.188687
0.188629
0.188571
0.188511
0.18845
0.188388
0.188324
0.18826
0.188194
0.188127
0.188059
0.187991
0.18792
0.187848
0.187775
0.187701
0.187625
0.187548
0.18747
0.187391
0.18731
0.187228
0.187146
0.187062
0.186979
0.186897
0.186828
0.18933
0.18928
0.189232
0.189187
0.189141
0.189095
0.189048
0.189
0.188951
0.1889
0.188848
0.188795
0.18874
0.188684
0.188627
0.188568
0.188509
0.188448
0.188386
0.188322
0.188258
0.188192
0.188125
0.188057
0.187988
0.187918
0.187846
0.187772
0.187697
0.187621
0.187544
0.187465
0.187385
0.187304
0.187221
0.187137
0.187053
0.186968
0.186885
0.186814
0.189324
0.189275
0.189227
0.189182
0.189137
0.189091
0.189044
0.188996
0.188947
0.188897
0.188845
0.188792
0.188738
0.188682
0.188625
0.188566
0.188507
0.188446
0.188384
0.18832
0.188256
0.18819
0.188123
0.188055
0.187986
0.187915
0.187843
0.187769
0.187694
0.187618
0.18754
0.187461
0.18738
0.187298
0.187214
0.187129
0.187043
0.186957
0.186872
0.186799
0.189318
0.18927
0.189223
0.189178
0.189133
0.189087
0.189041
0.188993
0.188944
0.188894
0.188843
0.18879
0.188735
0.18868
0.188623
0.188565
0.188505
0.188444
0.188382
0.188319
0.188254
0.188189
0.188121
0.188053
0.187984
0.187913
0.187841
0.187767
0.187691
0.187614
0.187536
0.187456
0.187374
0.187292
0.187207
0.187121
0.187034
0.186946
0.186859
0.186785
0.189313
0.189265
0.189218
0.189173
0.189129
0.189084
0.189037
0.18899
0.188941
0.188892
0.18884
0.188788
0.188733
0.188678
0.188621
0.188563
0.188504
0.188443
0.188381
0.188318
0.188253
0.188187
0.18812
0.188051
0.187983
0.187912
0.187839
0.187764
0.187688
0.187611
0.187532
0.187451
0.187369
0.187286
0.1872
0.187113
0.187025
0.186935
0.186846
0.18677
0.189308
0.18926
0.189214
0.18917
0.189125
0.18908
0.189034
0.188987
0.188939
0.188889
0.188838
0.188786
0.188732
0.188677
0.18862
0.188562
0.188503
0.188442
0.18838
0.188317
0.188252
0.188186
0.188119
0.18805
0.187981
0.18791
0.187837
0.187762
0.187686
0.187608
0.187528
0.187447
0.187364
0.18728
0.187193
0.187105
0.187016
0.186925
0.186833
0.186754
0.189304
0.189256
0.18921
0.189166
0.189122
0.189077
0.189032
0.188985
0.188937
0.188887
0.188836
0.188784
0.188731
0.188675
0.188619
0.188561
0.188502
0.188442
0.18838
0.188317
0.188252
0.188186
0.188118
0.188049
0.18798
0.187909
0.187835
0.18776
0.187683
0.187605
0.187525
0.187443
0.187359
0.187274
0.187187
0.187097
0.187007
0.186914
0.18682
0.186739
1.51101e-08
9.86445e-08
1.42305e-06
4.35264e-05
7.02456e-08
4.36713e-07
5.4777e-06
0.000116258
2.39819e-07
1.3222e-06
1.4141e-05
0.000189946
6.49482e-07
3.15273e-06
2.59721e-05
0.000240706
1.52171e-06
6.15611e-06
3.96395e-05
0.000276641
3.0357e-06
1.01297e-05
5.36629e-05
0.000301652
5.33233e-06
1.52906e-05
6.90425e-05
0.00032994
8.5353e-06
2.16264e-05
8.53958e-05
0.000361547
1.28024e-05
2.94509e-05
0.000104883
0.000409498
1.8365e-05
3.91504e-05
0.000127987
0.000462922
2.54723e-05
5.10442e-05
0.000154701
0.000518082
3.44349e-05
6.54699e-05
0.000184813
0.000571551
4.55176e-05
8.25543e-05
0.000217558
0.000620822
5.89481e-05
0.000102375
0.000252566
0.000667325
7.4874e-05
0.000124866
0.000289203
0.000709961
9.33629e-05
0.00014986
0.000326798
0.00074847
0.000114366
0.000177061
0.000364735
0.000782915
0.000137772
0.000206227
0.000402949
0.000814187
0.00016342
0.000237091
0.000441005
0.000843002
0.000191098
0.000269357
0.000478645
0.000870063
0.000220562
0.000302722
0.000515673
0.000895668
0.000251546
0.000336896
0.000551937
0.000920046
0.000283774
0.000371609
0.000587368
0.00094343
0.00031699
0.000406657
0.000621908
0.000965768
0.000350949
0.000441835
0.000655503
0.000986857
0.000385423
0.000476957
0.000688064
0.00100641
0.000420195
0.000511838
0.000719438
0.00102405
0.000455058
0.000546289
0.000749443
0.00103944
0.000489804
0.00058011
0.00077785
0.00105223
0.000524237
0.000613108
0.000804469
0.00106223
0.000558151
0.00064507
0.00082905
0.00106921
0.000591351
0.000675827
0.000851559
0.00107354
0.000623643
0.000705178
0.000871682
0.00107424
0.000654829
0.000732957
0.000889494
0.00107308
0.000684737
0.000759054
0.000905097
0.00106989
0.000713199
0.000783327
0.000918336
0.00106399
0.000740055
0.000805684
0.00092928
0.00105623
0.000765173
0.000826035
0.00093799
0.00104685
0.000788464
0.00084435
0.000944594
0.00103608
0.000809811
0.000860551
0.000949109
0.00102409
0.000829192
0.000874742
0.00095189
0.00101112
0.000846514
0.000886759
0.000952307
0.000997119
0.000861758
0.000896759
0.000951532
0.000982275
0.000874955
0.000904871
0.000949401
0.000966696
0.000886149
0.000911063
0.00094538
0.000950324
0.000895262
0.00091529
0.000939899
0.000933195
0.000902546
0.000917918
0.000933106
0.000915377
0.00090765
0.000918147
0.000924916
0.000896903
0.000910977
0.000917299
0.000915515
0.000877832
0.000912498
0.000915029
0.000905017
0.000858226
0.000912103
0.000910784
0.000893394
0.000838115
0.000910536
0.00090513
0.000880728
0.000817526
0.000907149
0.00089809
0.00086708
0.000796479
0.000902044
0.000889697
0.0008525
0.00077499
0.000895464
0.000880017
0.000837033
0.000753076
0.000887472
0.000869115
0.000820724
0.000730752
0.000878132
0.000857053
0.000803619
0.000708048
0.000867511
0.000843891
0.000785754
0.000684935
0.000855674
0.000829685
0.000767156
0.000661415
0.000842685
0.000814488
0.000747862
0.000637538
0.000828603
0.000798351
0.00072791
0.000613362
0.000813487
0.000781326
0.000707352
0.000588976
0.000797395
0.000763466
0.000686235
0.000564421
0.000780381
0.000744823
0.000664609
0.000539758
0.000762501
0.000725446
0.000642514
0.000515014
0.000743805
0.000705382
0.000619998
0.000490266
0.000724343
0.000684677
0.000597099
0.000465548
0.000704162
0.000663375
0.000573866
0.000440953
0.000683306
0.000641519
0.000550349
0.000416574
0.000661819
0.000619153
0.000526608
0.000392501
0.000639739
0.000596318
0.000502691
0.000368797
0.000617107
0.000573061
0.000478668
0.00034558
0.000593959
0.000549417
0.000454565
0.000322793
0.000570328
0.000525421
0.000430435
0.00030056
0.000546244
0.000501111
0.000406327
0.000278917
0.000521735
0.000476518
0.000382271
0.000257827
0.000496826
0.000451667
0.000358293
0.000237298
0.000471539
0.000426588
0.000334438
0.000217403
0.000445898
0.000401317
0.000310763
0.000198206
0.000419939
0.000375903
0.000287348
0.000179807
0.000393708
0.000350408
0.000264281
0.000162245
0.000367268
0.000324913
0.000241656
0.000145563
0.000340703
0.000299517
0.00021958
0.000129814
0.00031412
0.000274341
0.000198172
0.000115055
0.000287656
0.000249528
0.000177559
0.000101336
0.000261474
0.000225239
0.000157871
8.87064e-05
0.000235762
0.000201655
0.000139232
7.71593e-05
0.000210728
0.000178959
0.000121747
6.66575e-05
0.000186592
0.000157339
0.000105521
5.72437e-05
0.000163578
0.000136974
9.06335e-05
4.88862e-05
0.000141899
0.000118026
7.71363e-05
4.15461e-05
0.000121747
0.000100622
6.50423e-05
3.5142e-05
0.000103275
8.48566e-05
5.43503e-05
2.96563e-05
8.65932e-05
7.07809e-05
4.50254e-05
2.50088e-05
7.176e-05
5.83992e-05
3.69989e-05
2.11047e-05
5.87772e-05
4.76704e-05
3.01804e-05
1.78575e-05
4.7594e-05
3.85133e-05
2.44621e-05
1.51797e-05
3.81133e-05
3.08135e-05
1.97268e-05
1.29919e-05
3.02011e-05
2.44332e-05
1.58514e-05
1.12103e-05
2.36978e-05
1.92196e-05
1.2712e-05
9.75257e-06
1.84299e-05
1.50152e-05
1.01921e-05
8.55935e-06
1.42214e-05
1.16668e-05
8.18679e-06
7.58047e-06
1.0902e-05
9.02939e-06
6.60049e-06
6.77563e-06
8.31469e-06
6.97368e-06
5.35556e-06
6.11125e-06
6.31955e-06
5.38595e-06
4.38117e-06
5.55244e-06
4.7955e-06
4.16863e-06
3.61834e-06
5.07439e-06
3.64088e-06
3.24082e-06
3.01972e-06
4.6589e-06
2.77111e-06
2.53492e-06
2.54432e-06
4.28592e-06
2.11889e-06
1.9991e-06
2.16425e-06
3.95299e-06
1.63096e-06
1.59171e-06
1.85783e-06
3.65124e-06
1.26577e-06
1.28014e-06
1.60682e-06
3.36801e-06
9.91663e-07
1.04009e-06
1.39738e-06
3.0965e-06
7.84383e-07
8.52304e-07
1.21622e-06
2.81872e-06
6.25982e-07
7.03214e-07
1.05826e-06
2.55161e-06
5.03638e-07
5.83641e-07
9.2134e-07
2.30395e-06
4.07775e-07
4.85862e-07
7.98348e-07
2.05229e-06
3.31698e-07
4.05159e-07
6.89673e-07
1.8199e-06
2.70617e-07
3.37904e-07
5.9298e-07
1.59875e-06
2.20998e-07
2.81214e-07
5.05988e-07
1.38588e-06
1.80297e-07
2.33122e-07
4.28126e-07
1.18684e-06
0.00212848
0.00352212
0.00396422
0.0716346
0.00191251
0.00387434
0.00650637
0.0767924
0.0017356
0.00334613
0.00494704
0.0716516
0.00148076
0.0027021
0.0031926
0.065441
0.00131323
0.00249681
0.00332086
0.0586865
0.00123317
0.00260501
0.0041802
0.0522257
0.00124596
0.00296459
0.00569012
0.0446637
0.00130351
0.00339738
0.0066874
0.0337761
0.0014328
0.00358329
0.00651415
0.0235485
0.0015012
0.00355012
0.00595672
0.0149525
0.00154378
0.00335899
0.00466017
0.00639823
0.00155725
0.00302448
0.00368435
0.00370728
0.00155224
0.00273069
0.00314327
0.00313202
0.0015377
0.00250792
0.00281664
0.00283902
0.00150557
0.00227662
0.00260762
0.00274981
0.00147505
0.0021595
0.0024558
0.00261121
0.00144858
0.00206843
0.00236206
0.00260088
0.00142905
0.0020059
0.00230512
0.00260107
0.00141371
0.00194698
0.00225953
0.00257471
0.0014025
0.00189855
0.00222349
0.00253936
0.00139403
0.00185502
0.00215546
0.00244086
0.00138812
0.00181911