/*--------------------------------*- C++ -*----------------------------------*\
  =========                 |
  \\      /  F ield         | OpenFOAM: The Open Source CFD Toolbox
   \\    /   O peration     | Website:  https://openfoam.org
    \\  /    A nd           | Version:  8
     \\/     M anipulation  |
\*---------------------------------------------------------------------------*/
FoamFile
{
    version     2.0;
    format      ascii;
    class       volScalarField;
    location    "20000/gas";
    object      p_rgh;
}
// * * * * * * * * * * * * * * * * * * * * * * * * * * * * * * * * * * * * * //

dimensions      [1 -1 -2 0 0 0 0];

internalField   nonuniform List<scalar> 
16000
(
-0.148448
0.00187242
0.0388862
0.107791
-0.09675
-0.0110026
0.0340643
0.107669
-0.0651622
-0.0189923
0.0284093
0.105113
-0.0544431
-0.0164519
0.0239309
0.102401
-0.0469158
-0.00906038
0.0211678
0.100509
-0.0393765
-0.00434953
0.0203376
0.0990078
-0.033383
-0.00286564
0.0212219
0.0976398
-0.0289137
-0.00180331
0.022262
0.0964748
-0.0255619
-0.000846011
0.0232761
0.0953809
-0.0228546
-7.74916e-06
0.024211
0.0942604
-0.0204725
0.000890879
0.0249638
0.0931055
-0.0182525
0.00188825
0.0255355
0.0919404
-0.0161454
0.00295363
0.0259769
0.0907817
-0.0141498
0.00405003
0.0263393
0.0896414
-0.0122725
0.00516168
0.0266426
0.0885342
-0.0105269
0.00626599
0.0269046
0.0874724
-0.00891853
0.00732916
0.0271504
0.0864611
-0.00743509
0.00834096
0.0273909
0.0854973
-0.00606385
0.00929648
0.0276316
0.0845763
-0.00479217
0.0101919
0.027877
0.0836931
-0.00360567
0.0110335
0.0281247
0.0828426
-0.00249276
0.0118264
0.0283728
0.0820205
-0.00144399
0.0125734
0.028621
0.0812232
-0.000451047
0.0132785
0.0288681
0.0804478
0.000492939
0.0139458
0.0291123
0.0796922
0.00139269
0.014578
0.0293525
0.078955
0.00225246
0.0151782
0.0295873
0.078235
0.00307577
0.0157481
0.0298164
0.0775314
0.00386522
0.0162918
0.0300377
0.076843
0.00462235
0.0168106
0.0302512
0.0761693
0.00534857
0.0173053
0.0304566
0.0755099
0.00604556
0.017777
0.0306542
0.0748644
0.0067141
0.0182262
0.0308429
0.0742316
0.0073573
0.0186554
0.0310249
0.073613
0.0079723
0.0190613
0.0311935
0.0730028
0.0085723
0.019455
0.0313662
0.0724161
0.00913317
0.0198116
0.0314903
0.071811
0.0097338
0.0201931
0.0317069
0.0713055
0.0102328
0.0204544
0.031593
0.0705802
0.0110852
0.0208892
0.032319
0.0704883
-0.0864459
-0.0451432
-0.0278425
-0.00756639
0.0103634
0.0265794
0.0415341
0.0554624
0.0685363
0.0808936
0.0926424
0.103868
0.114641
0.125019
0.13505
0.144776
0.154232
0.163449
0.172454
0.181271
0.189921
0.19842
0.206783
0.215019
0.223134
0.231132
0.239
0.246706
0.254251
0.262205
0.267699
0.278693
-0.0868162
-0.0413493
-0.0275864
-0.00691575
0.0107049
0.0267457
0.0416435
0.0555607
0.0686378
0.0810016
0.0927563
0.103986
0.114761
0.125139
0.13517
0.144894
0.154348
0.163562
0.172563
0.181375
0.190017
0.198508
0.20686
0.215084
0.223186
0.231172
0.23904
0.246754
0.254229
0.262691
0.267101
0.278885
-0.0849354
-0.0382979
-0.0269078
-0.005945
0.011293
0.0270741
0.0418338
0.0556769
0.068715
0.0810592
0.0928037
0.104028
0.114798
0.125172
0.135198
0.144917
0.154364
0.163572
0.172566
0.181369
0.190003
0.198483
0.206826
0.215041
0.223137
0.231123
0.239009
0.246762
0.254083
0.263092
0.266718
0.279038
-0.0816263
-0.0358084
-0.0255389
-0.00477342
0.0120594
0.0275498
0.0421122
0.0558228
0.0687748
0.0810644
0.0927741
0.103975
0.11473
0.125091
0.135106
0.144815
0.154253
0.163451
0.172435
0.181229
0.189853
0.198326
0.206663
0.214876
0.222977
0.230974
0.238882
0.246735
0.253859
0.26335
0.266537
0.27917
-0.0776824
-0.0333656
-0.0236474
-0.0034171
0.0129877
0.0281608
0.0424844
0.0560199
0.068848
0.0810515
0.0927017
0.103861
0.114585
0.124924
0.134921
0.144615
0.15404
0.163225
0.172199
0.180983
0.1896
0.198067
0.206402
0.214621
0.222735
0.230748
0.238671
0.246705
0.253593
0.263527
0.266436
0.279289
-0.0733381
-0.0308583
-0.0214492
-0.00188952
0.0140693
0.0288983
0.0429506
0.056278
0.0689508
0.0810404
0.0926074
0.103706
0.114385
0.12469
0.134661
0.144334
0.153741
0.162913
0.171874
0.180649
0.18926
0.197725
0.206065
0.214295
0.22243
0.230476
0.238462
0.246608
0.253298
0.263651
0.26636
0.279388
-0.0687191
-0.028273
-0.0190612
-0.000211987
0.0152872
0.0297508
0.0435073
0.0566005
0.069092
0.0810431
0.0925053
0.103525
0.114144
0.124403
0.134339
0.143984
0.15337
0.162525
0.171473
0.18024
0.188847
0.197314
0.205662
0.21391
0.222073
0.230158
0.238211
0.246444
0.253028
0.263709
0.266297
0.279463
-0.0639656
-0.0255971
-0.0165447
0.00159041
0.0166211
0.0307057
0.044149
0.0569883
0.0692775
0.0810695
0.0924078
0.103331
0.113877
0.124079
0.13397
0.143581
0.152941
0.162076
0.171011
0.17977
0.188374
0.196847
0.205208
0.213478
0.221672
0.229802
0.237915
0.246167
0.252875
0.263653
0.266249
0.27951
-0.059178
-0.0228369
-0.0139449
0.0034915
0.0180514
0.0317499
0.0448691
0.0574405
0.0695113
0.0811275
0.0923257
0.103138
0.113597
0.123731
0.133569
0.143139
0.152468
0.16158
0.1705
0.179251
0.187855
0.196335
0.204712
0.213008
0.221238
0.229417
0.237589
0.245843
0.252732
0.263514
0.266207
0.279527
-0.0544149
-0.020014
-0.0112953
0.00546721
0.0195599
0.0328709
0.0456602
0.0579544
0.0697951
0.0812225
0.0922672
0.102956
0.113316
0.123372
0.133148
0.142671
0.151964
0.16105
0.169954
0.178696
0.187301
0.19579
0.204185
0.212508
0.220777
0.229006
0.237237
0.245509
0.252573
0.26332
0.26614
0.279516
-0.0497138
-0.0171517
-0.00861995
0.00749705
0.0211305
0.0340568
0.0465148
0.0585265
0.0701292
0.0813579
0.0922384
0.102793
0.113044
0.123012
0.13272
0.142189
0.151441
0.160498
0.169383
0.178116
0.186721
0.19522
0.203634
0.211985
0.220292
0.228571
0.236859
0.245159
0.252409
0.263079
0.266043
0.279477
-0.0451015
-0.0142705
-0.00593649
0.00956422
0.0227495
0.0352972
0.0474256
0.059153
0.0705127
0.0815357
0.0922437
0.102655
0.112789
0.122662
0.132293
0.141702
0.150909
0.159934
0.168797
0.177519
0.186124
0.194631
0.203064
0.211444
0.219788
0.228115
0.236454
0.244786
0.252204
0.262815
0.265918
0.279413
-0.0405962
-0.0113871
-0.00325829
0.0116552
0.0244055
0.0365829
0.0483859
0.0598295
0.070944
0.0817566
0.0922861
0.102548
0.112557
0.122327
0.131876
0.14122
0.150376
0.159364
0.168203
0.176913
0.185515
0.194031
0.202481
0.210888
0.219268
0.227639
0.236026
0.244392
0.251958
0.262526
0.265766
0.279324
-0.036209
-0.00851485
-0.000595312
0.0137594
0.0260894
0.0379063
0.0493898
0.0605522
0.071421
0.0820206
0.0923672
0.102474
0.112352
0.122014
0.131475
0.140748
0.14985
0.158797
0.167609
0.176303
0.184901
0.193422
0.201889
0.210321
0.218735
0.227147
0.235579
0.243982
0.251679
0.262191
0.265596
0.279207
-0.0319456
-0.00566376
0.00204529
0.0158688
0.0277939
0.0392609
0.0504321
0.0613172
0.0719415
0.082327
0.0924878
0.102435
0.112177
0.121727
0.131094
0.140292
0.149335
0.158238
0.167019
0.175695
0.184286
0.192811
0.201291
0.209745
0.21819
0.22664
0.235114
0.243555
0.251371
0.261826
0.265395
0.279063
-0.0278083
-0.0028409
0.00465871
0.0179772
0.0295133
0.0406417
0.0515084
0.0621211
0.0725031
0.0826746
0.092648
0.102432
0.112036
0.121468
0.130737
0.139855
0.148835
0.15769
0.166437
0.175091
0.183672
0.192198
0.200689
0.209163
0.217635
0.22612
0.234633
0.243111
0.251034
0.261454
0.265146
0.27889
-0.023796
-5.08648e-05
0.00724219
0.0200808
0.0312436
0.0420447
0.0526152
0.0629609
0.0731036
0.083062
0.0928471
0.102467
0.111928
0.121239
0.130406
0.139441
0.148353
0.157157
0.165865
0.174495
0.183063
0.191586
0.200085
0.208575
0.217072
0.225589
0.234137
0.242651
0.250666
0.261069
0.26486
0.278691
-0.0199055
0.00270384
0.00979467
0.0221768
0.032982
0.043467
0.0537495
0.0638341
0.0737409
0.0834876
0.0930844
0.102538
0.111855
0.121041
0.130103
0.13905
0.147892
0.156639
0.165307
0.173908
0.182459
0.190977
0.19948
0.207983
0.216501
0.225045
0.233626
0.242174
0.250269
0.260663
0.264543
0.278464
-0.0161314
0.00542248
0.0123166
0.0242645
0.0347269
0.0449067
0.0549095
0.0647385
0.0744132
0.08395
0.0933586
0.102645
0.111816
0.120874
0.129828
0.138684
0.147451
0.15614
0.164762
0.173331
0.181862
0.190372
0.198875
0.207388
0.215923
0.224491
0.2331
0.24168
0.249846
0.260237
0.264197
0.278209
-0.0124672
0.00810608
0.0148099
0.0263438
0.0364778
0.0463628
0.0560935
0.0656727
0.0751187
0.0844476
0.0936685
0.102788
0.111809
0.120739
0.129581
0.138343
0.147032
0.155658
0.164231
0.172765
0.181273
0.189769
0.19827
0.206789
0.215338
0.223926
0.232561
0.24117
0.249398
0.259791
0.263826
0.277926
-0.00890459
0.0107571
0.0172776
0.0284164
0.0382354
0.0478351
0.0573011
0.0666354
0.0758562
0.0849789
0.0940127
0.102963
0.111835
0.120633
0.129362
0.138026
0.146634
0.155194
0.163715
0.17221
0.18069
0.189171
0.197665
0.206187
0.214746
0.223351
0.232008
0.240644
0.248927
0.259325
0.263431
0.277613
-0.00543459
0.0133794
0.0197241
0.0304847
0.0400012
0.0493243
0.0585319
0.067626
0.0766245
0.0855426
0.0943895
0.103171
0.111892
0.120556
0.129168
0.137733
0.146256
0.154746
0.163212
0.171664
0.180115
0.188576
0.19706
0.205581
0.214146
0.222765
0.231441
0.240102
0.248433
0.258837
0.263012
0.277273
-0.00204698
0.015978
0.0221547
0.0325522
0.0417777
0.0508318
0.0597866
0.0686443
0.0774228
0.0861374
0.0947976
0.10341
0.111978
0.120506
0.128999
0.137461
0.145897
0.154314
0.162722
0.171128
0.179544
0.187983
0.196454
0.20497
0.213539
0.222169
0.23086
0.239542
0.247917
0.25833
0.262562
0.276912
0.00126939
0.0185594
0.0245758
0.0346238
0.0435681
0.0523598
0.0610661
0.0696903
0.0782504
0.0867621
0.0952353
0.103677
0.112091
0.120481
0.128853
0.137209
0.145555
0.153897
0.162242
0.170599
0.178979
0.187391
0.195846
0.204355
0.212924
0.221561
0.230265
0.238967
0.247379
0.257804
0.262085
0.276526
0.00452675
0.0211314
0.0269952
0.036705
0.0453768
0.053911
0.062372
0.0707644
0.0791068
0.0874154
0.0957008
0.10397
0.112228
0.120479
0.128727
0.136975
0.145228
0.153491
0.161771
0.170077
0.178416
0.186799
0.195235
0.203733
0.2123
0.220941
0.229656
0.238374
0.24682
0.257259
0.261583
0.276115
0.00773854
0.0237034
0.0294216
0.0388029
0.0472088
0.0554888
0.0637062
0.0718672
0.0799915
0.088096
0.0961922
0.104288
0.112388
0.120497
0.128618
0.136756
0.144913
0.153095
0.161308
0.169559
0.177855
0.186206
0.19462
0.203105
0.211666
0.220309
0.229032
0.237764
0.24624
0.256695
0.261055
0.275679
0.0109196
0.0262868
0.0318656
0.0409254
0.0490701
0.0570974
0.0650708
0.0729994
0.0809039
0.0888025
0.0967073
0.104627
0.112567
0.120532
0.128525
0.136549
0.144608
0.152707
0.160849
0.169042
0.177293
0.185609
0.193998
0.202467
0.211021
0.219663
0.228392
0.237137
0.245638
0.25611
0.260502
0.275216
0.0140867
0.0288949
0.034339
0.0430822
0.0509678
0.0587411
0.0664683
0.0741616
0.0818433
0.0895329
0.0972436
0.104985
0.112762
0.12058
0.128442
0.136351
0.14431
0.152322
0.160392
0.168526
0.176728
0.185007
0.193369
0.20182
0.210364
0.219003
0.227736
0.236492
0.245015
0.255505
0.259925
0.274726
0.0172589
0.0315438
0.0368558
0.045284
0.0529094
0.0604248
0.0679009
0.0753539
0.0828082
0.0902848
0.0977979
0.105357
0.112969
0.120638
0.128367
0.136159
0.144015
0.151939
0.159935
0.168006
0.176159
0.184398
0.192731
0.201162
0.209693
0.218328
0.227062
0.235827
0.244371
0.254879
0.259323
0.27421
0.0204585
0.0342529
0.0394326
0.0475436
0.0549033
0.0621531
0.0693704
0.0765758
0.0837965
0.0910549
0.0983661
0.10574
0.113184
0.120702
0.128296
0.135968
0.14372
0.151554
0.159473
0.167481
0.175582
0.18378
0.192082
0.20049
0.209008
0.217636
0.226371
0.235143
0.243704
0.254231
0.258696
0.273667
0.0237125
0.0370462
0.0420888
0.0498748
0.0569583
0.0639304
0.0708774
0.0778256
0.0848048
0.0918388
0.0989434
0.106129
0.113402
0.120766
0.128223
0.135774
0.143421
0.151164
0.159005
0.166947
0.174994
0.18315
0.191419
0.199804
0.208306
0.216926
0.22566
0.234438
0.243014
0.253559
0.258044
0.273096
0.0270546
0.0399534
0.0448475
0.0522934
0.0590828
0.0657595
0.0724209
0.0790997
0.0858279
0.0926304
0.0995235
0.106517
0.113617
0.120825
0.128144
0.135573
0.143113
0.150763
0.158526
0.166402
0.174394
0.182506
0.190741
0.199101
0.207586
0.216197
0.224929
0.233712
0.242302
0.252864
0.257366
0.272497
0.0305287
0.0430128
0.0477361
0.0548154
0.0612837
0.0676406
0.0739969
0.0803914
0.0868581
0.093422
0.100099
0.106897
0.113821
0.120873
0.128053
0.13536
0.142792
0.15035
0.158033
0.165842
0.173779
0.181846
0.190046
0.19838
0.206847
0.215448
0.224176
0.232964
0.241565
0.252145
0.256662
0.271869
0.0341955
0.0462733
0.0507864
0.0574563
0.0635641
0.0695693
0.0755969
0.0816907
0.0878849
0.0942031
0.100659
0.10726
0.114008
0.120903
0.127944
0.135129
0.142454
0.149919
0.157523
0.165265
0.173146
0.181168
0.189332
0.197639
0.206088
0.214677
0.223401
0.232191
0.240803
0.2514
0.255932
0.271212
0.0381428
0.0497984
0.0540331
0.0602266
0.0659198
0.0715337
0.0772058
0.082982
0.0888937
0.094961
0.101194
0.107597
0.114169
0.120908
0.127812
0.134875
0.142094
0.149467
0.156992
0.164667
0.172492
0.180469
0.188597
0.196877
0.205306
0.213884
0.222602
0.231395
0.240016
0.250629
0.255174
0.270526
0.0425103
0.0536686
0.0575097
0.0631251
0.0683327
0.0735099
0.0787999
0.0842438
0.0898661
0.09568
0.10169
0.107896
0.114295
0.120881
0.127649
0.134593
0.141708
0.14899
0.156437
0.164046
0.171816
0.179747
0.187839
0.196091
0.204501
0.213066
0.221779
0.230573
0.239203
0.249831
0.254388
0.269809
0.0475214
0.05797
0.0612311
0.0661235
0.0707612
0.0754576
0.0803443
0.0854479
0.0907795
0.0963423
0.102134
0.108148
0.114377
0.120814
0.127449
0.134277
0.141291
0.148485
0.155855
0.163399
0.171114
0.179001
0.187057
0.195281
0.203671
0.212223
0.220931
0.229725
0.238362
0.249006
0.253573
0.26906
0.0536142
0.0627838
0.06517
0.0691468
0.0731302
0.077316
0.081793
0.0865601
0.0916086
0.0969291
0.10251
0.10834
0.114406
0.120699
0.127208
0.133924
0.140839
0.147947
0.155243
0.162724
0.170386
0.178228
0.186249
0.194446
0.202816
0.211355
0.220056
0.228851
0.237494
0.248152
0.25273
0.268281
0.0613362
0.0679354
0.0691207
0.0720196
0.0753126
0.0790008
0.0830907
0.087543
0.0923279
0.0974222
0.102806
0.108462
0.114375
0.120532
0.12692
0.133529
0.14035
0.147375
0.1546
0.162019
0.169629
0.177428
0.185414
0.193584
0.201934
0.21046
0.219154
0.227949
0.236598
0.24727
0.251857
0.26747
0.0718776
0.0729418
0.0727916
0.0745436
0.0771672
0.0804237
0.0841839
0.0883636
0.0929157
0.097807
0.103012
0.108508
0.114278
0.120307
0.126581
0.133089
0.13982
0.146766
0.153922
0.161282
0.168842
0.176599
0.184551
0.192695
0.201025
0.209538
0.218225
0.22702
0.235674
0.246359
0.250954
0.266627
-0.00106652
-0.000385269
-0.000323193
-0.000278603
-0.000250093
-0.000228285
-0.000206685
-0.000183572
-0.000158965
-0.000133089
-0.000106273
-7.88797e-05
-5.12516e-05
-2.36943e-05
3.52753e-06
3.01882e-05
5.60943e-05
8.10838e-05
0.000105024
0.000127811
0.000149367
0.000169642
0.000188613
0.000206285
0.000222694
0.000237906
0.000252026
0.000265198
0.000277619
0.000289544
0.00030131
0.000313365
0.000326323
0.000341085
0.000358933
0.000381998
0.000415639
0.000478993
0.000508456
0.00093112
-0.00134165
-0.000655339
-0.00057447
-0.000484832
-0.000423666
-0.000378074
-0.000337185
-0.000297516
-0.00025812
-0.000218479
-0.000178427
-0.000138023
-9.74251e-05
-5.68252e-05
-1.64225e-05
2.35937e-05
6.30562e-05
0.000101823
0.00013978
0.000176843
0.00021296
0.00024811
0.000282313
0.000315626
0.000348152
0.000380046
0.000411523
0.000442871
0.000474471
0.000506819
0.000540575
0.00057662
0.000616175
0.00066099
0.000713484
0.000777324
0.000860637
0.00099177
0.001061
0.00159458
-0.00190501
-0.0011573
-0.000982109
-0.000801374
-0.000677258
-0.000586849
-0.000512044
-0.000445478
-0.000383677
-0.000324554
-0.000266923
-0.000210165
-0.00015398
-9.82466e-05
-4.29426e-05
1.19035e-05
6.62419e-05
0.00012002
0.000173195
0.000225744
0.000277669
0.000329005
0.000379824
0.000430248
0.00048045
0.000530672
0.000581236
0.000632565
0.000685211
0.000739898
0.000797579
0.000859528
0.000927489
0.00100391
0.0010921
0.0011969
0.0013278
0.00151647
0.00163365
0.00222785
-0.00232099
-0.00158703
-0.00136955
-0.00113499
-0.000963248
-0.000832021
-0.000722465
-0.000626035
-0.000538007
-0.000455309
-0.000376021
-0.000298988
-0.000223524
-0.00014923
-7.58805e-05
-3.35804e-06
6.83979e-05
0.000139419
0.000209729
0.000279361
0.000348368
0.000416834
0.000484884
0.000552693
0.000620501
0.000688623
0.000757474
0.000827586
0.000899647
0.000974543
0.00105343
0.0011378
0.00122969
0.0013318
0.0014477
0.00158229
0.00174404
0.00196561
0.00210412
0.00270425
-0.00266778
-0.00196031
-0.00172251
-0.00145406
-0.00124687
-0.00108169
-0.000940971
-0.000816279
-0.000702522
-0.000596167
-0.000494866
-0.000397104
-0.000301906
-0.000208648
-0.000116932
-2.6507e-05
6.27907e-05
0.000151074
0.000238434
0.00032496
0.000410757
0.000495956
0.000580731
0.000665312
0.000749996
0.000835165
0.000921311
0.00100905
0.00109919
0.00119271
0.0012909
0.00139541
0.00150835
0.00163252
0.00177143
0.00192974
0.00211385
0.00235923
0.0025099
0.00310592
-0.00296272
-0.00228476
-0.00204048
-0.00175159
-0.00151871
-0.00132636
-0.00115897
-0.00100891
-0.000871275
-0.00074246
-0.000619951
-0.000502038
-0.000387565
-0.000275747
-0.000166055
-5.81269e-05
4.82902e-05
0.000153383
0.000257305
0.000360199
0.000462217
0.000563539
0.000664384
0.000765027
0.000865818
0.000967194
0.0010697
0.00117404
0.00128106
0.00139183
0.00150769
0.00163033
0.00176187
0.00190498
0.00206297
0.00224017
0.00243957
0.00270218
0.00285725
0.00344346
-0.00322095
-0.00257005
-0.00232729
-0.0020268
-0.00177592
-0.00156244
-0.00137289
-0.00120072
-0.00104154
-0.000891955
-0.000749487
-0.000612383
-0.000479406
-0.000349684
-0.000222603
-9.77245e-05
2.52724e-05
0.000146634
0.000266563
0.000385251
0.000502893
0.000619706
0.000735952
0.000851945
0.000968075
0.00108482
0.00120278
0.00132268
0.00144542
0.0015721
0.00170406
0.00184297
0.00199084
0.0021501
0.00232384
0.00251636
0.00272566
0.00300383
0.00315333
0.00373361
-0.00345124
-0.0028238
-0.00258717
-0.00228041
-0.00201739
-0.00178787
-0.00158028
-0.00138923
-0.00121103
-0.00104263
-0.000881746
-0.000726686
-0.000576228
-0.000429475
-0.000285778
-0.000144655
-5.74415e-06
0.000131241
0.000266544
0.000400389
0.000533005
0.000664643
0.000795594
0.000926207
0.0010569
0.00118818
0.00132068
0.00145514
0.00159248
0.00173378
0.00188038
0.00203384
0.00219601
0.00236907
0.00255604
0.00276097
0.00297225
0.00327579
0.00339848
0.00398798
-0.00365967
-0.00305206
-0.00282426
-0.00251418
-0.00224335
-0.00200183
-0.00177972
-0.0015728
-0.00137804
-0.00119287
-0.00101525
-0.000843635
-0.000676884
-0.000514132
-0.000354733
-0.000198197
-4.41445e-05
0.000107733
0.0002577
0.000406006
0.000552903
0.000698665
0.000843606
0.000988095
0.00113257
0.00127757
0.00142371
0.00157176
0.00172262
0.00187735
0.00203721
0.00220367
0.00237839
0.00256338
0.00276188
0.00297792
0.00317894
0.00351746
0.00360725
0.00421028
-0.00385054
-0.00325948
-0.00304229
-0.00273019
-0.00245474
-0.00220435
-0.00197065
-0.00175048
-0.00154148
-0.00134152
-0.00114885
-0.000962145
-0.000780372
-0.000602739
-0.000428638
-0.0002576
-8.92481e-05
7.67277e-05
0.000240601
0.000402632
0.000563084
0.000722246
0.000880444
0.00103806
0.00119554
0.00135343
0.00151235
0.00167305
0.0018364
0.00200343
0.00217532
0.00235341
0.00253912
0.0027344
0.00294143
0.00316082
0.00338351
0.00369765
0.00380787
0.00439406
-0.00402698
-0.00344966
-0.00324447
-0.00293043
-0.00265284
-0.00239597
-0.00215305
-0.00192189
-0.0017007
-0.00148779
-0.00128171
-0.00108136
-0.000885851
-0.000694487
-0.000506726
-0.000322138
-0.00014037
3.88741e-05
0.000215862
0.000390854
0.000564115
0.000735938
0.000906652
0.00107664
0.00124636
0.00141633
0.00158718
0.00175962
0.0019345
0.00211278
0.00229555
0.00248401
0.00267951
0.00288359
0.00309775
0.00332214
0.00355721
0.00385139
0.00398649
0.00454703
-0.00419147
-0.00362516
-0.00343376
-0.00311663
-0.00283901
-0.00257748
-0.00232722
-0.00208696
-0.0018554
-0.0016312
-0.00141324
-0.00120063
-0.000992641
-0.000788691
-0.000588317
-0.000391146
-0.000196863
-5.19818e-06
0.000184096
0.000371274
0.000556586
0.000740323
0.000922811
0.00110442
0.00128561
0.00146688
0.00164883
0.00183216
0.00201766
0.00220622
0.00239884
0.00259661
0.0028007
0.0030124
0.00323281
0.00346224
0.00370327
0.00398509
0.00413911
0.00467537
-0.00434656
-0.00378673
-0.00361364
-0.00328991
-0.00301463
-0.00274977
-0.00249364
-0.00224587
-0.0020055
-0.00177151
-0.00154307
-0.00131949
-0.00110022
-0.000884794
-0.000672824
-0.000464032
-0.000258133
-5.49006e-05
0.000145884
0.000344485
0.000541082
0.000735987
0.000929506
0.001122
0.0013139
0.0015057
0.00169797
0.00189136
0.00208662
0.00228457
0.00248612
0.00269223
0.00290392
0.00312226
0.00334809
0.0035818
0.00382608
0.00409995
0.00426729
0.00478223
-0.00449478
-0.00393449
-0.0037877
-0.00345009
-0.00318127
-0.00291383
-0.00265293
-0.00239896
-0.00215111
-0.00190864
-0.00167097
-0.00143762
-0.0012082
-0.00098237
-0.000759745
-0.000540282
-0.000323655
-0.000109689
0.000101798
0.00031101
0.000518156
0.000723494
0.000927316
0.00112997
0.00133185
0.00153343
0.00173525
0.00193792
0.00214214
0.00234865
0.00255828
0.00277187
0.00299031
0.00321446
0.00344496
0.00368218
0.00392848
0.00419675
0.00437347
0.00486959
-0.00463562
-0.00407778
-0.00394935
-0.0035999
-0.00334064
-0.00307034
-0.00280571
-0.00254666
-0.00229246
-0.00204265
-0.00179687
-0.00155483
-0.00131628
-0.001081
-0.000848776
-0.00061949
-0.000392976
-0.000169092
5.23079e-05
0.000271388
0.000488338
0.000703384
0.000916794
0.00112889
0.00134004
0.00155068
0.00176133
0.00197255
0.00218496
0.00239928
0.00261621
0.00283651
0.00306094
0.00329018
0.00352471
0.0037648
0.00401243
0.0042764
0.00445988
0.00493901
-0.004767
-0.00422655
-0.00408427
-0.00375774
-0.00348939
-0.00321987
-0.00295276
-0.00268947
-0.00242986
-0.00217369
-0.00192079
-0.00167105
-0.00142432
-0.00118051
-0.00093953
-0.000701289
-0.000465705
-0.000232689
-2.13632e-06
0.000226079
0.000452115
0.000676164
0.000898467
0.00111931
0.00133904
0.00155806
0.00177684
0.0019959
0.00221581
0.00243721
0.00266074
0.00288707
0.00311681
0.00335053
0.00358854
0.00383099
0.00407949
0.0043399
0.00452838
0.00499184
-0.00489267
-0.0043699
-0.00421412
-0.00390588
-0.00363362
-0.00336364
-0.00309463
-0.00282786
-0.00256365
-0.00230197
-0.00204283
-0.00178624
-0.00153221
-0.00128073
-0.0010318
-0.000785399
-0.00054152
-0.00030012
-6.11416e-05
0.000175501
0.000409929
0.000642302
0.000872825
0.00110176
0.00132941
0.00155614
0.00178238
0.00200862
0.00223536
0.00246319
0.00269268
0.00292439
0.00315886
0.00339651
0.00363752
0.00388191
0.00413096
0.00438828
0.00458052
0.00502928
-0.005014
-0.00450652
-0.00434189
-0.00404584
-0.00377311
-0.00350255
-0.00323195
-0.00296233
-0.0026942
-0.00242775
-0.00216313
-0.00190048
-0.00163992
-0.00138154
-0.00112541
-0.000871603
-0.000620154
-0.000371079
-0.000124367
0.000120027
0.000362183
0.000602225
0.000840326
0.0010767
0.00131164
0.00154545
0.00177854
0.00201132
0.00224428
0.00247792
0.00271276
0.00294929
0.00318794
0.00342904
0.00367262
0.00391861
0.00416795
0.0044225
0.00461761
0.00505241
-0.00513176
-0.00463743
-0.00446717
-0.00418004
-0.00390803
-0.00363718
-0.00336534
-0.00309336
-0.0028219
-0.00255132
-0.00228188
-0.00201386
-0.00174747
-0.00148289
-0.00122026
-0.000959734
-0.000701393
-0.000445309
-0.000191517
5.99842e-05
0.000309236
0.000556326
0.000801387
0.0010446
0.00128622
0.00152651
0.00176584
0.00200458
0.00224316
0.00248205
0.00272168
0.0029625
0.00320485
0.00344895
0.00369474
0.00394202
0.00419145
0.00444349
0.00464079
0.00506217
-0.00524649
-0.00476368
-0.00458983
-0.00430979
-0.00403896
-0.00376811
-0.00349533
-0.00322141
-0.00294712
-0.00267294
-0.00239929
-0.00212651
-0.00185492
-0.00158477
-0.00131629
-0.00104967
-0.000785068
-0.000522597
-0.000262341
-4.33868e-06
0.00025141
0.000504955
0.000756391
0.00100587
0.00125358
0.00149979
0.00174479
0.00198893
0.00223259
0.00247618
0.0027201
0.00296471
0.00321031
0.00345701
0.00370468
0.00395299
0.00420234
0.00445205
0.00465101
0.00505944
-0.00535867
-0.00488614
-0.00471005
-0.00443592
-0.00416649
-0.00389588
-0.00362243
-0.00334692
-0.00307021
-0.00279292
-0.00251556
-0.00223857
-0.00196234
-0.0016872
-0.00141345
-0.00114133
-0.000871049
-0.000602771
-0.000336625
-7.26924e-05
0.000188989
0.000448429
0.000705687
0.000960873
0.00121415
0.00146573
0.00171587
0.00196488
0.0022131
0.00246089
0.00270861
0.00295656
0.00320498
0.00345393
0.00370317
0.0039523
0.00420141
0.00444891
0.00464913
0.00504496
-0.00546871
-0.00500551
-0.0048281
-0.00455909
-0.00429119
-0.00402099
-0.0037471
-0.00347029
-0.00319154
-0.00291155
-0.00263093
-0.00235021
-0.00206985
-0.00179025
-0.00151175
-0.00123466
-0.000959237
-0.000685692
-0.000414192
-0.000144862
0.000122222
0.000387032
0.000649589
0.000909965
0.00116829
0.00142472
0.0016795
0.00193289
0.00218519
0.0024367
0.00268776
0.00293862
0.00318948
0.00344033
0.00369087
0.00394059
0.00418934
0.00443478
0.00463589
0.00501944
-0.00557702
-0.0051224
-0.00494429
-0.00467984
-0.00441355
-0.0041439
-0.00386975
-0.00359191
-0.00331142
-0.0030291
-0.00274563
-0.00246161
-0.00217757
-0.00189396
-0.0016112
-0.00132964
-0.00104957
-0.000771248
-0.000494893
-0.000220662
5.13286e-05
0.000321014
0.000588379
0.000853458
0.00111634
0.00137716
0.0016361
0.0018934
0.0021493
0.0024041
0.00265807
0.00291143
0.00316435
0.00341677
0.00366834
0.00391847
0.00416675
0.00441024
0.00461198
0.0049835
-0.00568395
-0.00523733
-0.00505896
-0.00479866
-0.00453402
-0.00426503
-0.00399079
-0.00371213
-0.00343018
-0.00314584
-0.00285987
-0.00257293
-0.00228562
-0.00199844
-0.00171185
-0.00142625
-0.00114199
-0.000859357
-0.000578606
-0.000299937
-2.35017e-05
0.000250598
0.000522311
0.000791636
0.00105862
0.00132337
0.00158603
0.00184679
0.00210587
0.00236353
0.00262
0.00287548
0.0031301
0.00338378
0.00363612
0.00388647
0.00413418
0.00437584
0.00457799
0.00493768
-0.00578984
-0.00535072
-0.00517241
-0.00491596
-0.00465301
-0.00438477
-0.00411056
-0.00383129
-0.00354812
-0.00326204
-0.00297388
-0.00268436
-0.00239414
-0.00210376
-0.00181374
-0.00152452
-0.00123648
-0.000949955
-0.000665235
-0.000382555
-0.000102104
0.000175982
0.000451614
0.000724756
0.000995422
0.00126368
0.00152963
0.00179344
0.00205529
0.0023154
0.00257398
0.00283121
0.00308719
0.00334182
0.00359469
0.00384505
0.0040921
0.00433205
0.00453443
0.00488247
-0.00589498
-0.00546298
-0.00528497
-0.00503212
-0.00477087
-0.00450346
-0.00422942
-0.00394969
-0.00366551
-0.00337794
-0.00308786
-0.00279608
-0.00250326
-0.00221004
-0.00191695
-0.00162447
-0.00133303
-0.001043
-0.000754701
-0.000468405
-0.000184335
9.7337e-05
0.000376489
0.00065305
0.000926997
0.00119836
0.00146721
0.00173368
0.00199791
0.0022601
0.00252042
0.00277904
0.00303604
0.00329132
0.00354445
0.00379465
0.00404094
0.00427928
0.00448174
0.0048183
-0.00599967
-0.00557446
-0.00539693
-0.00514748
-0.00488795
-0.00462144
-0.00434767
-0.00406763
-0.00378263
-0.00349378
-0.00320204
-0.00290825
-0.00261315
-0.00231738
-0.00202154
-0.00172614
-0.00143165
-0.00113846
-0.000846945
-0.000557397
-0.000270075
1.48151e-05
0.000297117
0.000576726
0.000853584
0.00112769
0.00139907
0.00166783
0.00193408
0.00219797
0.00245968
0.00271934
0.00297703
0.00323266
0.00348579
0.00373564
0.00398105
0.00421788
0.00442028
0.00474552
-0.00610415
-0.00568546
-0.00550856
-0.00526236
-0.00500457
-0.00473901
-0.00446561
-0.00418538
-0.00389972
-0.00360979
-0.00331661
-0.00302105
-0.00272392
-0.00242589
-0.0021276
-0.00182958
-0.00153235
-0.00123633
-0.000941924
-0.000649457
-0.00035922
-7.14521e-05
0.000213658
0.000495971
0.000775396
0.00105189
0.00132546
0.00159616
0.00186409
0.00212935
0.0023921
0.00265247
0.00291052
0.00316618
0.00341905
0.00366833
0.00391278
0.00414815
0.00435035
0.00466444
-0.00620868
-0.00579629
-0.00562012
-0.00537704
-0.005121
-0.00485645
-0.00458349
-0.0043032
-0.00401702
-0.00372618
-0.00343175
-0.00313466
-0.00283573
-0.00253569
-0.0022352
-0.00193485
-0.00163516
-0.00133661
-0.00103961
-0.000744527
-0.000451684
-0.00016135
0.000126254
0.000410955
0.00069263
0.000971201
0.00124664
0.00151896
0.00178823
0.00205454
0.002318
0.00257873
0.00283682
0.0030922
0.00334451
0.003593
0.00383636
0.0040703
0.00427226
0.00457532
-0.00631347
-0.0059072
-0.00573187
-0.0054918
-0.00523751
-0.00497402
-0.00470158
-0.00442133
-0.00413477
-0.00384317
-0.00354767
-0.00324923
-0.00294871
-0.00264689
-0.00234445
-0.00204201
-0.00174012
-0.0014393
-0.00113998
-0.000842562
-0.000547396
-0.000254781
3.50298e-05
0.00032183
0.000605462
0.000885814
0.00116282
0.00143647
0.00170678
0.00197381
0.00223767
0.00249845
0.00275623
0.00301099
0.00326243
0.00350987
0.00375199
0.00398443
0.00418627
0.00447838
-0.00641874
-0.00601844
-0.00584402
-0.00560688
-0.00535436
-0.00509197
-0.00482012
-0.00454
-0.00425317
-0.00396096
-0.00366454
-0.00336492
-0.00306301
-0.0027596
-0.00245543
-0.00215112
-0.00184728
-0.00154443
-0.00124303
-0.000943532
-0.000646297
-0.00035166
-5.99041e-05
0.000228732
0.000514055
0.000795921
0.00107423
0.00134892
0.00161999
0.00188746
0.00215141
0.0024119
0.00266904
0.00292282
0.00317303
0.0034191
0.00365978
0.00389064
0.00409254
0.0043738
-0.00652469
-0.00613023
-0.0059568
-0.00572251
-0.00547178
-0.00521052
-0.00493933
-0.00465943
-0.00437243
-0.00407973
-0.00378253
-0.0034819
-0.00317876
-0.00287396
-0.00256824
-0.00226228
-0.00195668
-0.00165201
-0.00134877
-0.00104741
-0.000748342
-0.000451916
-0.000158451
0.000131783
0.00041856
0.000701697
0.000981057
0.00125655
0.00152811
0.00179575
0.00205949
0.00231939
0.00257553
0.00282794
0.00307652
0.00332084
0.0035598
0.00378896
0.00399108
0.00426171
-0.00663151
-0.0062428
-0.00607041
-0.00583892
-0.00558999
-0.00532991
-0.00505942
-0.00477982
-0.00449275
-0.00419967
-0.00390183
-0.00360032
-0.00329611
-0.00299007
-0.00268298
-0.00237554
-0.00206839
-0.0017621
-0.00145721
-0.0011542
-0.000853497
-0.000555491
-0.000260526
3.1095e-05
0.000319112
0.000603306
0.000883501
0.00115956
0.00143139
0.00169895
0.00196221
0.0022212
0.00247599
0.00272664
0.00297311
0.0032152
0.00345207
0.00367932
0.00388184
0.00414217
-0.00673938
-0.00635634
-0.00618505
-0.00595632
-0.0057092
-0.00545033
-0.00518061
-0.00490137
-0.00461432
-0.00432096
-0.00402259
-0.00372033
-0.00341519
-0.00310807
-0.00279976
-0.00249101
-0.00218246
-0.00187473
-0.00156838
-0.00126389
-0.000961739
-0.000662337
-0.000366057
-7.32343e-05
0.000215837
0.000500902
0.000781744
0.00105818