/*--------------------------------*- C++ -*----------------------------------*\
  =========                 |
  \\      /  F ield         | OpenFOAM: The Open Source CFD Toolbox
   \\    /   O peration     | Website:  https://openfoam.org
    \\  /    A nd           | Version:  8
     \\/     M anipulation  |
\*---------------------------------------------------------------------------*/
FoamFile
{
    version     2.0;
    format      ascii;
    class       surfaceScalarField;
    location    "20000/gas";
    object      phi;
}
// * * * * * * * * * * * * * * * * * * * * * * * * * * * * * * * * * * * * * //

dimensions      [1 0 -1 0 0 0 0];

internalField   nonuniform List<scalar> 
31516
(
8.48866e-08
5.18083e-07
5.32571e-08
1.84054e-06
3.38018e-09
3.06473e-06
4.22417e-06
1.60518e-07
3.57565e-07
1.43762e-07
1.8573e-06
6.02416e-08
3.14825e-06
4.28441e-06
8.8289e-08
2.69276e-07
1.44184e-07
1.8014e-06
7.71475e-08
3.21528e-06
4.36156e-06
7.03113e-09
2.62245e-07
9.67669e-08
1.71166e-06
6.75576e-08
3.24449e-06
4.42912e-06
-2.75698e-08
2.89814e-07
4.15436e-08
1.64255e-06
5.15461e-08
3.23449e-06
4.48067e-06
-3.3396e-08
3.2321e-07
-1.1611e-09
1.61032e-06
3.64512e-08
3.19688e-06
4.51713e-06
-3.15532e-08
3.54763e-07
-2.00819e-08
1.59884e-06
2.33167e-08
3.15348e-06
4.54045e-06
-2.82718e-08
3.83035e-07
-2.63604e-08
1.59693e-06
1.52235e-08
3.1119e-06
4.55568e-06
-2.4107e-08
4.07142e-07
-2.49188e-08
1.59774e-06
1.06504e-08
3.07633e-06
4.56634e-06
-1.95936e-08
4.26736e-07
-2.01916e-08
1.59834e-06
8.16485e-09
3.04797e-06
4.57451e-06
-1.54655e-08
4.42201e-07
-1.51721e-08
1.59805e-06
6.5824e-09
3.02622e-06
4.5811e-06
-1.21101e-08
4.54311e-07
-1.119e-08
1.59713e-06
5.2994e-09
3.00973e-06
4.58641e-06
-9.57436e-09
4.63886e-07
-8.57206e-09
1.59613e-06
4.03153e-09
2.99713e-06
4.59045e-06
-7.7391e-09
4.71625e-07
-7.01471e-09
1.5954e-06
2.66076e-09
2.98746e-06
4.59313e-06
-6.45465e-09
4.7808e-07
-6.30491e-09
1.59526e-06
1.2012e-09
2.97996e-06
4.59434e-06
-5.5647e-09
4.83645e-07
-6.24687e-09
1.59594e-06
-2.70622e-10
2.97398e-06
4.59408e-06
-4.93102e-09
4.88576e-07
-6.49201e-09
1.5975e-06
-1.63087e-09
2.96913e-06
4.59247e-06
-4.46299e-09
4.93039e-07
-6.84745e-09
1.59989e-06
-2.81086e-09
2.96509e-06
4.58967e-06
-4.0981e-09
4.97138e-07
-7.18112e-09
1.60297e-06
-3.78492e-09
2.9617e-06
4.5859e-06
-3.79463e-09
5.00932e-07
-7.3863e-09
1.60656e-06
-4.55721e-09
2.95888e-06
4.58136e-06
-3.53269e-09
5.04466e-07
-7.47245e-09
1.61051e-06
-5.15094e-09
2.95656e-06
4.57623e-06
-3.30129e-09
5.07767e-07
-7.46779e-09
1.61467e-06
-5.59389e-09
2.95469e-06
4.57065e-06
-3.09316e-09
5.10861e-07
-7.38621e-09
1.61897e-06
-5.91412e-09
2.95323e-06
4.56475e-06
-2.90484e-09
5.13766e-07
-7.24875e-09
1.62331e-06
-6.13899e-09
2.95212e-06
4.55863e-06
-2.73505e-09
5.16502e-07
-7.07694e-09
1.62766e-06
-6.29153e-09
2.95134e-06
4.55236e-06
-2.58187e-09
5.19084e-07
-6.88624e-09
1.63197e-06
-6.39274e-09
2.95086e-06
4.54599e-06
-2.44484e-09
5.2153e-07
-6.69311e-09
1.63622e-06
-6.45194e-09
2.95062e-06
4.53956e-06
-2.32183e-09
5.23853e-07
-6.48424e-09
1.64038e-06
-6.47861e-09
2.95062e-06
4.5331e-06
-2.2122e-09
5.26066e-07
-6.285e-09
1.64446e-06
-6.48385e-09
2.95083e-06
4.52664e-06
-2.11429e-09
5.28181e-07
-6.09747e-09
1.64844e-06
-6.47203e-09
2.95121e-06
4.52019e-06
-2.02614e-09
5.30208e-07
-5.92161e-09
1.65234e-06
-6.44713e-09
2.95175e-06
4.51377e-06
-1.9459e-09
5.32155e-07
-5.75617e-09
1.65616e-06
-6.41281e-09
2.95241e-06
4.50738e-06
-1.87184e-09
5.34028e-07
-5.59833e-09
1.65989e-06
-6.37063e-09
2.9532e-06
4.50104e-06
-1.80357e-09
5.35832e-07
-5.45211e-09
1.66354e-06
-6.32532e-09
2.95408e-06
4.49474e-06
-1.73394e-09
5.37567e-07
-5.29643e-09
1.66711e-06
-6.27494e-09
2.95507e-06
4.48849e-06
-1.67045e-09
5.39239e-07
-5.18185e-09
1.67062e-06
-6.26316e-09
2.95616e-06
4.48226e-06
-1.54723e-09
5.40787e-07
-4.91112e-09
1.67399e-06
-6.13206e-09
2.95739e-06
4.47615e-06
-1.47669e-09
5.42265e-07
-5.04928e-09
1.67757e-06
-6.93427e-09
2.95929e-06
4.46925e-06
-7.58491e-10
5.43025e-07
-3.59325e-09
1.68041e-06
-3.12384e-09
2.95883e-06
4.46615e-06
-7.17316e-10
5.43744e-07
-5.97626e-09
1.68567e-06
-3.10537e-08
2.98392e-06
4.43513e-06
-1.56038e-09
1.83813e-05
7.78904e-08
2.04627e-05
8.70885e-08
2.26952e-05
1.06224e-07
2.48476e-05
1.21436e-07
2.70139e-05
1.32477e-07
2.91804e-05
1.40111e-07
3.13461e-05
1.4488e-07
3.35113e-05
1.47187e-07
3.56761e-05
1.47353e-07
3.78406e-05
1.4562e-07
4.00048e-05
1.4217e-07
4.21688e-05
1.37142e-07
4.43327e-05
1.30644e-07
4.64965e-05
1.22772e-07
4.86602e-05
1.13614e-07
5.08239e-05
1.03264e-07
5.29874e-05
9.18262e-08
5.51508e-05
7.94296e-08
5.73141e-05
6.62371e-08
5.94772e-05
5.24621e-08
6.16401e-05
3.83846e-08
6.38027e-05
2.43705e-08
6.5965e-05
1.08896e-08
6.81268e-05
-1.48736e-09
7.0288e-05
-1.21178e-08
7.24486e-05
-2.0139e-08
7.46083e-05
-2.54084e-08
7.67679e-05
-3.28943e-08
7.89325e-05
-1.22799e-08
8.10667e-05
-7.51397e-08
8.33125e-05
8.53368e-05
1.14898e-07
1.82664e-05
2.08201e-07
2.03694e-05
2.72087e-07
2.26314e-05
3.21854e-07
2.47979e-05
3.62175e-07
2.69736e-05
3.92843e-07
2.91497e-05
4.14345e-07
3.13246e-05
4.27505e-07
3.34981e-05
4.33254e-07
3.56703e-05
4.32486e-07
3.78413e-05
4.25994e-07
4.00113e-05
4.14438e-07
4.21804e-05
3.98367e-07
4.43488e-05
3.78234e-07
4.65167e-05
3.5443e-07
4.8684e-05
3.27306e-07
5.0851e-05
2.97208e-07
5.30175e-05
2.64495e-07
5.51835e-05
2.29578e-07
5.7349e-05
1.92941e-07
5.95138e-05
1.55179e-07
6.16779e-05
1.1703e-07
6.38409e-05
7.93962e-08
6.60026e-05
4.33591e-08
6.81628e-05
1.01468e-08
7.03212e-05
-1.89119e-08
7.24777e-05
-4.25372e-08
7.4632e-05
-5.99707e-08
7.67853e-05
-7.56631e-08
7.89481e-05
-7.20668e-08
8.10631e-05
-9.99439e-08
8.33404e-05
8.52369e-05
1.9203e-07
1.80744e-05
3.09159e-07
2.02522e-05
4.17792e-07
2.25227e-05
4.97947e-07
2.47177e-05
5.61241e-07
2.69103e-05
6.10209e-07
2.91007e-05
6.45676e-07
3.12891e-05
6.68503e-07
3.34753e-05
6.7973e-07
3.56591e-05
6.80476e-07
3.78406e-05
6.71842e-07
4.00199e-05
6.54851e-07
4.21974e-05
6.30424e-07
4.43732e-05
5.99377e-07
4.65477e-05
5.62442e-07
4.8721e-05
5.20297e-07
5.08931e-05
4.73597e-07
5.30642e-05
4.23013e-07
5.52341e-05
3.69269e-07
5.74027e-05
3.13181e-07
5.95699e-05
2.55696e-07
6.17354e-05
1.97921e-07
6.38987e-05
1.41144e-07
6.60594e-05
8.68214e-08
6.82172e-05
3.65125e-08
7.03715e-05
-8.27431e-09
7.25224e-05
-4.61469e-08
7.46698e-05
-7.43765e-08
7.68136e-05
-9.84912e-08
7.89722e-05
-1.05751e-07
8.10703e-05
-1.06013e-07
8.33406e-05
8.5131e-05
2.43358e-07
1.78311e-05
3.85018e-07
2.01106e-05
5.22031e-07
2.23857e-05
6.28439e-07
2.46113e-05
7.13069e-07
2.68256e-05
7.79357e-07
2.90344e-05
8.28698e-07
3.12398e-05
8.62105e-07
3.34419e-05
8.80623e-07
3.56406e-05
8.85394e-07
3.78358e-05
8.77621e-07
4.00277e-05
8.58515e-07
4.22165e-05
8.29242e-07
4.44025e-05
7.90907e-07
4.6586e-05
7.44551e-07
4.87673e-05
6.91166e-07
5.09465e-05
6.31728e-07
5.31236e-05
5.67224e-07
5.52986e-05
4.98699e-07
5.74713e-05
4.27283e-07
5.96413e-05
3.54232e-07
6.18084e-05
2.80944e-07
6.39719e-05
2.08965e-07
6.61314e-05
1.39965e-07
6.82861e-05
7.56643e-08
7.04358e-05
1.76214e-08
7.25805e-05
-3.30355e-08
7.47205e-05
-7.11277e-08
7.68516e-05
-1.03579e-07
7.90047e-05
-1.18825e-07
8.10856e-05
-1.02881e-07
8.33247e-05
8.50282e-05
2.72164e-07
1.75589e-05
4.38221e-07
1.99445e-05
5.93767e-07
2.22302e-05
7.20655e-07
2.44844e-05
8.23673e-07
2.67226e-05
9.05702e-07
2.89524e-05
9.68287e-07
3.11772e-05
1.01251e-06
3.33977e-05
1.03936e-06
3.56137e-05
1.04992e-06
3.78252e-05
1.04537e-06
4.00322e-05
1.02698e-06
4.22349e-05
9.96034e-07
4.44334e-05
9.53831e-07
4.66282e-05
9.01645e-07
4.88195e-05
8.40733e-07
5.10074e-05
7.72352e-07
5.3192e-05
6.9778e-07
5.53731e-05
6.18345e-07
5.75507e-05
5.35452e-07
5.97242e-05
4.50604e-07
6.18932e-05
3.65412e-07
6.40571e-05
2.81581e-07
6.62152e-05
2.00878e-07
6.83668e-05
1.25111e-07
7.05116e-05
5.63472e-08
7.26492e-05
-2.56316e-09
7.47794e-05
-5.44957e-08
7.69036e-05
-9.47662e-08
7.9045e-05
-1.18042e-07
8.11088e-05
-9.62395e-08
8.33029e-05
8.49322e-05
2.83847e-07
1.72751e-05
4.71562e-07
1.97568e-05
6.4043e-07
2.20613e-05
7.82753e-07
2.43421e-05
9.00767e-07
2.66046e-05
9.96457e-07
2.88567e-05
1.07116e-06
3.11025e-05
1.12586e-06
3.3343e-05
1.16143e-06
3.55782e-05
1.17885e-06
3.78078e-05
1.17919e-06
4.00319e-05
1.16369e-06
4.22504e-05
1.13367e-06
4.44635e-05
1.09051e-06
4.66714e-05
1.03564e-06
4.88744e-05
9.70524e-07
5.10725e-05
8.96627e-07
5.32659e-05
8.15463e-07
5.54543e-05
7.28591e-07
5.76375e-05
6.37629e-07
5.98152e-05
5.44259e-07
6.19866e-05
4.50224e-07
6.41512e-05
3.57302e-07
6.63081e-05
2.67272e-07
6.84569e-05
1.8189e-07
7.0597e-05
1.0288e-07
7.27282e-05
3.16011e-08
7.48506e-05
-3.0801e-08
7.6966e-05
-7.53354e-08
7.90895e-05
-1.08504e-07
8.1142e-05
-8.85393e-08
8.32829e-05
8.48438e-05
2.8473e-07
1.69903e-05
4.88772e-07
1.95527e-05
6.67634e-07
2.18824e-05
8.21404e-07
2.41883e-05
9.51232e-07
2.64748e-05
1.05836e-06
2.87496e-05
1.14376e-06
3.10171e-05
1.20821e-06
3.32785e-05
1.25243e-06
3.55339e-05
1.27722e-06
3.7783e-05
1.28354e-06
4.00256e-05
1.27251e-06
4.22614e-05
1.24541e-06
4.44906e-05
1.20365e-06
4.67131e-05
1.14873e-06
4.89293e-05
1.08223e-06
5.1139e-05
1.00576e-06
5.33423e-05
9.21012e-07
5.5539e-05
8.29695e-07
5.77289e-05
7.33577e-07
5.99113e-05
6.34454e-07
6.20857e-05
5.34136e-07
6.42515e-05
4.34413e-07
6.64078e-05
3.37027e-07
6.85542e-05
2.43662e-07
7.06903e-05
1.5591e-07
7.2816e-05
7.48034e-08
7.49317e-05
1.6643e-10
7.70406e-05
-4.45931e-08
7.91342e-05
-9.33917e-08
8.11908e-05
-7.80603e-08
8.32676e-05
8.4766e-05
2.79193e-07
1.67112e-05
4.93728e-07
1.93382e-05
6.79836e-07
2.16963e-05
8.41896e-07
2.40262e-05
9.80766e-07
2.63359e-05
1.09718e-06
2.86332e-05
1.19175e-06
3.09225e-05
1.26502e-06
3.32053e-05
1.31749e-06
3.54815e-05
1.34978e-06
3.77507e-05
1.36268e-06
4.00126e-05
1.3572e-06
4.22669e-05
1.33451e-06
4.45132e-05
1.29598e-06
4.67517e-05
1.24311e-06
4.89821e-05
1.17754e-06
5.12046e-05
1.10094e-06
5.34189e-05
1.01511e-06
5.56249e-05
9.21847e-07
5.78221e-05
8.23003e-07
6.00101e-05
7.20426e-07
6.21883e-05
6.1594e-07
6.43559e-05
5.11316e-07
6.65125e-05
4.08244e-07
6.86573e-05
3.08347e-07
7.07902e-05
2.13195e-07
7.29111e-05
1.24245e-07
7.50207e-05
4.39439e-08
7.71209e-05
-1.60247e-08
7.91942e-05
-7.33208e-08
8.12481e-05
-6.64023e-08
8.32608e-05
8.46999e-05
2.6975e-07
1.64414e-05
4.8969e-07
1.91183e-05
6.80604e-07
2.15054e-05
8.48415e-07
2.38584e-05
9.93991e-07
2.61903e-05
1.11775e-06
2.85094e-05
1.22001e-06
3.08203e-05
1.30104e-06
3.31242e-05
1.36117e-06
3.54213e-05
1.4008e-06
3.77111e-05
1.42056e-06
3.99929e-05
1.42129e-06
4.22661e-05
1.40404e-06
4.45305e-05
1.3701e-06
4.67856e-05
1.32091e-06
4.90313e-05
1.25808e-06
5.12674e-05
1.18331e-06
5.34937e-05
1.09842e-06
5.57098e-05
1.00525e-06
5.79153e-05
9.05654e-07
6.01097e-05
8.01494e-07
6.22924e-05
6.94568e-07
6.44629e-05
5.86598e-07
6.66204e-05
4.79217e-07
6.87647e-05
3.73998e-07
7.08954e-05
2.7253e-07
7.30126e-05
1.76732e-07
7.51165e-05
9.05218e-08
7.72071e-05
1.91576e-08
7.92656e-05
-4.54666e-08
8.13127e-05
-5.385e-08
8.32692e-05
8.46464e-05
2.58006e-07
1.61834e-05
4.79301e-07
1.8897e-05
6.72802e-07
2.13119e-05
8.4429e-07
2.36869e-05
9.94636e-07
2.604e-05
1.12406e-06
2.838e-05
1.23262e-06
3.07117e-05
1.32039e-06
3.30364e-05
1.38747e-06
3.53542e-05
1.4341e-06
3.76644e-05
1.46073e-06
3.99662e-05
1.46802e-06
4.22589e-05
1.45688e-06
4.45416e-05
1.42846e-06
4.6814e-05
1.38414e-06
4.90756e-05
1.32543e-06
5.13261e-05
1.254e-06
5.35651e-05
1.17164e-06
5.57921e-05
1.08015e-06
5.80068e-05
9.81385e-07
6.02085e-05
8.77142e-07
6.23967e-05
7.69168e-07
6.45708e-05
6.59119e-07
6.67305e-05
5.48561e-07
6.88752e-05
4.39012e-07
7.1005e-05
3.32063e-07
7.31195e-05
2.29745e-07
7.52188e-05
1.35794e-07
7.7301e-05
5.50149e-08
7.93463e-05
-1.77986e-08
8.13856e-05
-4.08904e-08
8.32923e-05
8.46058e-05
2.45048e-07
1.59384e-05
4.64617e-07
1.86774e-05
6.58746e-07
2.11178e-05
8.32199e-07
2.35135e-05
9.85729e-07
2.58864e-05
1.11938e-06
2.82463e-05
1.23303e-06
3.0598e-05
1.32655e-06
3.29429e-05
1.39986e-06
3.52809e-05
1.45304e-06
3.76113e-05
1.48635e-06
3.99329e-05
1.5003e-06
4.22449e-05
1.49563e-06
4.45463e-05
1.47335e-06
4.68363e-05
1.4347e-06
4.91143e-05
1.3811e-06
5.13797e-05
1.31413e-06
5.3632e-05
1.23549e-06
5.58708e-05
1.14692e-06
5.80953e-05
1.05019e-06
6.03052e-05
9.47045e-07
6.24998e-05
8.3914e-07
6.46787e-05
7.28052e-07
6.68415e-05
6.15272e-07
6.8988e-05
5.02259e-07
7.1118e-05
3.90573e-07
7.32312e-05
2.82223e-07
7.53271e-05
1.80442e-07
7.74028e-05
8.72232e-08
7.94396e-05
9.2503e-09
8.14636e-05
-2.80668e-08
8.33297e-05
8.45782e-05
2.31604e-07
1.57068e-05
4.472e-07
1.84618e-05
6.40309e-07
2.09247e-05
8.14324e-07
2.33395e-05
9.69743e-07
2.5731e-05
1.10644e-06
2.81096e-05
1.22412e-06
3.04803e-05
1.32249e-06
3.28446e-05
1.40132e-06
3.52021e-05
1.46054e-06
3.7552e-05
1.50024e-06
3.98932e-05
1.52075e-06
4.22244e-05
1.52268e-06
4.45443e-05
1.50687e-06
4.68521e-05
1.4744e-06
4.91468e-05
1.42656e-06
5.14275e-05
1.36482e-06
5.36938e-05
1.29075e-06
5.59448e-05
1.206e-06
5.81801e-05
1.11223e-06
6.03989e-05
1.01108e-06
6.2601e-05
9.04128e-07
6.47857e-05
7.92854e-07
6.69528e-05
6.78674e-07
6.91022e-05
5.6299e-07
7.12337e-05
4.47321e-07
7.33469e-05
3.33604e-07
7.54408e-05
2.24698e-07
7.75117e-05
1.22238e-07
7.9542e-05
3.54896e-08
8.15503e-05
-1.48553e-08
8.33801e-05
8.45638e-05
2.18162e-07
1.54887e-05
4.28221e-07
1.82518e-05
6.18998e-07
2.07339e-05
7.92443e-07
2.3166e-05
9.48708e-07
2.55747e-05
1.08747e-06
2.79709e-05
1.20828e-06
3.03595e-05
1.31072e-06
3.27421e-05
1.39441e-06
3.51184e-05
1.45913e-06
3.74873e-05
1.50484e-06
3.98475e-05
1.53171e-06
4.21975e-05
1.54019e-06
4.45359e-05
1.53094e-06
4.68613e-05
1.50491e-06
4.91728e-05
1.46321e-06
5.14692e-05
1.40718e-06
5.37498e-05
1.33825e-06
5.60137e-05
1.25793e-06
5.82604e-05
1.16778e-06
6.04891e-05
1.06931e-06
6.26994e-05
9.63989e-07
6.4891e-05
8.53217e-07
6.70636e-05
7.38334e-07
6.92171e-05
6.20688e-07
7.13513e-05
5.01752e-07
7.34658e-05
3.83384e-07
7.55592e-05
2.68168e-07
7.76269e-05
1.57881e-07
7.96523e-05
6.00633e-08
8.16482e-05
-9.78434e-10
8.34413e-05
8.45632e-05
2.05065e-07
1.52836e-05
4.08563e-07
1.80483e-05
5.96018e-07
2.05464e-05
7.68014e-07
2.2994e-05
9.24304e-07
2.54184e-05
1.06435e-06
2.78308e-05
1.18756e-06
3.02363e-05
1.29338e-06
3.26363e-05
1.38132e-06
3.50304e-05
1.45102e-06
3.74176e-05
1.50232e-06
3.97962e-05
1.53525e-06
4.21646e-05
1.55008e-06
4.4521e-05
1.54734e-06
4.68641e-05
1.52779e-06
4.91923e-05
1.4924e-06
5.15046e-05
1.44232e-06
5.37999e-05
1.37885e-06
5.60772e-05
1.30336e-06
5.83359e-05
1.21726e-06
6.05752e-05
1.12194e-06
6.27947e-05
1.01876e-06
6.49942e-05
9.09029e-07
6.71733e-05
7.94014e-07
6.93321e-05
6.75012e-07
7.14703e-05
5.53452e-07
7.35874e-05
4.31122e-07
7.56815e-05
3.10423e-07
7.77476e-05
1.93325e-07
7.97694e-05
8.81145e-08
8.17534e-05
1.33998e-08
8.35161e-05
8.45771e-05
1.92558e-07
1.50911e-05
3.88897e-07
1.78519e-05
5.72335e-07
2.0363e-05
7.42231e-07
2.28241e-05
8.9792e-07
2.52628e-05
1.03864e-06
2.76901e-05
1.16365e-06
3.01113e-05
1.27228e-06
3.25277e-05
1.36393e-06
3.49388e-05
1.43813e-06
3.73434e-05
1.49458e-06
3.97398e-05
1.5332e-06
4.21259e-05
1.55411e-06
4.45001e-05
1.55768e-06
4.68605e-05
1.5445e-06
4.92055e-05
1.51539e-06
5.15337e-05
1.47133e-06
5.38439e-05
1.41346e-06
5.61351e-05
1.34299e-06
5.84063e-05
1.26118e-06
6.0657e-05
1.16932e-06
6.28866e-05
1.06863e-06
6.50948e-05
9.60341e-07
6.72816e-05
8.45645e-07
6.94468e-05
7.25783e-07
7.15901e-05
6.02143e-07
7.3711e-05
4.7645e-07
7.58072e-05
3.50974e-07
7.78731e-05
2.27853e-07
7.98926e-05
1.17742e-07
8.18636e-05
2.79111e-08
8.3606e-05
8.46056e-05
1.80817e-07
1.49103e-05
3.69735e-07
1.7663e-05
5.48722e-07
2.0184e-05
7.16076e-07
2.26568e-05
8.70719e-07
2.51081e-05
1.01166e-06
2.75492e-05
1.13801e-06
2.99849e-05
1.24897e-06
3.24167e-05
1.34386e-06
3.48439e-05
1.4221e-06
3.72652e-05
1.48329e-06
3.96786e-05
1.5272e-06
4.2082e-05
1.55385e-06
4.44735e-05
1.56343e-06
4.68509e-05
1.55641e-06
4.92125e-05
1.53341e-06
5.15567e-05
1.49528e-06
5.38821e-05
1.44297e-06
5.61874e-05
1.37756e-06
5.84717e-05
1.30015e-06
6.07344e-05
1.21189e-06
6.29748e-05
1.11392e-06
6.51928e-05
1.00735e-06
6.73882e-05
8.93303e-07
6.95608e-05
7.72973e-07
7.17105e-05
6.4769e-07
7.38363e-05
5.19109e-07
7.59358e-05
3.89387e-07
7.80029e-05
2.60779e-07
8.00212e-05
1.43423e-07
8.1981e-05
4.22939e-08
8.37073e-05
8.46484e-05
1.69966e-07
1.47403e-05
3.51475e-07
1.74815e-05
5.25806e-07
2.00097e-05
6.90362e-07
2.24922e-05
8.43672e-07
2.49548e-05
9.84516e-07
2.74083e-05
1.11186e-06
2.98576e-05
1.22479e-06
3.23038e-05
1.32253e-06
3.47462e-05
1.4044e-06
3.71833e-05
1.4699e-06
3.9613e-05
1.51872e-06
4.20332e-05
1.55071e-06
4.44415e-05
1.56596e-06
4.68356e-05
1.56477e-06
4.92137e-05
1.54763e-06
5.15738e-05
1.51521e-06
5.39145e-05
1.46832e-06
5.62343e-05
1.40786e-06
5.85322e-05
1.33482e-06
6.08074e-05
1.2502e-06
6.30595e-05
1.15503e-06
6.5288e-05
1.05035e-06
6.74928e-05
9.37192e-07
6.96739e-05
8.1669e-07
7.1831e-05
6.9012e-07
7.39629e-05
5.59061e-07
7.60669e-05
4.25569e-07
7.81364e-05
2.92003e-07
8.01548e-05
1.67486e-07
8.21055e-05
5.65274e-08
8.38184e-05
8.47055e-05
1.60094e-07
1.45803e-05
3.34424e-07
1.73072e-05
5.04097e-07
1.984e-05
6.65769e-07
2.23305e-05
8.17608e-07
2.4803e-05
9.58171e-07
2.72678e-05
1.08627e-06
2.97295e-05
1.20089e-06
3.21891e-05
1.30115e-06
3.46459e-05
1.3863e-06
3.70981e-05
1.45574e-06
3.95436e-05
1.50904e-06
4.19799e-05
1.54598e-06
4.44045e-05
1.5665e-06
4.68151e-05
1.57078e-06
4.92094e-05
1.55915e-06
5.15855e-05
1.53213e-06
5.39415e-05
1.49039e-06
5.6276e-05
1.43469e-06
5.85879e-05
1.36588e-06
6.08762e-05
1.28483e-06
6.31405e-05
1.19247e-06
6.53803e-05
1.08974e-06
6.75956e-05
9.77616e-07
6.97861e-05
8.57158e-07
7.19514e-05
7.29585e-07
7.40904e-05
5.96406e-07
7.62001e-05
4.59584e-07
7.82732e-05
3.21511e-07
8.02929e-05
1.90227e-07
8.22369e-05
7.05399e-08
8.39382e-05
8.47767e-05
1.51265e-07
1.4429e-05
3.18832e-07
1.71397e-05
4.84019e-07
1.96748e-05
6.42874e-07
2.21717e-05
7.93239e-07
2.46526e-05
9.33452e-07
2.71276e-05
1.06218e-06
2.96008e-05
1.1783e-06
3.2073e-05
1.28083e-06
3.45434e-05
1.36894e-06
3.701e-05
1.44196e-06
3.94706e-05
1.49937e-06
4.19225e-05
1.54083e-06
4.43631e-05
1.56621e-06
4.67897e-05
1.57552e-06
4.92001e-05
1.569e-06
5.1592e-05
1.54702e-06
5.39635e-05
1.5101e-06
5.63129e-05
1.45887e-06
5.86391e-05
1.39406e-06
6.09411e-05
1.31642e-06
6.32181e-05
1.22678e-06
6.547e-05
1.12599e-06
6.76964e-05
1.01495e-06
6.98971e-05
8.94674e-07
7.20717e-05
7.6631e-07
7.42188e-05
6.31298e-07
7.63351e-05
4.91509e-07
7.8413e-05
3.49301e-07
8.04351e-05
2.11739e-07
8.23745e-05
8.433e-08
8.40658e-05
8.48617e-05
1.43531e-07
1.42855e-05
3.04903e-07
1.69783e-05
4.65933e-07
1.95138e-05
6.2218e-07
2.20155e-05
7.7119e-07
2.45036e-05
9.11096e-07
2.69876e-05
1.04042e-06
2.94714e-05
1.15791e-06
3.19555e-05
1.26252e-06
3.44388e-05
1.35334e-06
3.69192e-05
1.42962e-06
3.93943e-05
1.49076e-06
4.18613e-05
1.53634e-06
4.43175e-05
1.56612e-06
4.676e-05
1.58003e-06
4.91862e-05
1.57817e-06
5.15938e-05
1.5608e-06
5.39808e-05
1.5283e-06
5.63454e-05
1.4812e-06
5.86862e-05
1.42009e-06
6.10022e-05
1.34563e-06
6.32926e-05
1.25854e-06
6.5557e-05
1.15959e-06
6.77953e-05
1.04963e-06
7.00071e-05
9.29593e-07
7.21918e-05
8.00573e-07
7.43478e-05
6.63937e-07
7.64717e-05
5.21458e-07
7.85555e-05
3.75429e-07
8.05812e-05
2.32106e-07
8.25179e-05
9.80513e-08
8.42e-05
8.49604e-05
1.36931e-07
1.41486e-05
2.92818e-07
1.68224e-05
4.50162e-07
1.93565e-05
6.04138e-07
2.18615e-05
7.5203e-07
2.43557e-05
8.91771e-07
2.68479e-05
1.02173e-06
2.93415e-05
1.14057e-06
3.18367e-05
1.24713e-06
3.43322e-05
1.34044e-06
3.68259e-05
1.41969e-06
3.93151e-05
1.4842e-06
4.17968e-05
1.53349e-06
4.42682e-05
1.56724e-06
4.67262e-05
1.58527e-06
4.91682e-05
1.58759e-06
5.15915e-05
1.57436e-06
5.3994e-05
1.54585e-06
5.63739e-05
1.50247e-06
5.87296e-05
1.4447e-06
6.10599e-05
1.37312e-06
6.33642e-05
1.28835e-06
6.56418e-05
1.19109e-06
6.78926e-05
1.08212e-06
7.0116e-05
9.62307e-07
7.23116e-05
8.32694e-07
7.44774e-05
6.94568e-07
7.66099e-05
5.49596e-07
7.87005e-05
3.99973e-07
8.07309e-05
2.51354e-07
8.26666e-05
1.1002e-07
8.43416e-05
8.50711e-05
1.31506e-07
1.40171e-05
2.82741e-07
1.66712e-05
4.37004e-07
1.92022e-05
5.89173e-07
2.17093e-05
7.36293e-07
2.42086e-05
8.76108e-07
2.67081e-05
1.00685e-06
2.92107e-05
1.12705e-06
3.17165e-05
1.23549e-06
3.42238e-05
1.33112e-06
3.67302e-05
1.41306e-06
3.92331e-05
1.48061e-06
4.17293e-05
1.53321e-06
4.42156e-05
1.57047e-06
4.6689e-05
1.59214e-06
4.91465e-05
1.59815e-06
5.15855e-05
1.58856e-06
5.40036e-05
1.56355e-06
5.63989e-05
1.52344e-06
5.87697e-05
1.46861e-06
6.11148e-05
1.39955e-06
6.34332e-05
1.31682e-06
6.57245e-05
1.22103e-06
6.79883e-05
1.11289e-06
7.02242e-05
9.93234e-07
7.24312e-05
8.63025e-07
7.46077e-05
7.23477e-07
7.67494e-05
5.76151e-07
7.88478e-05
4.23117e-07
8.0884e-05
2.69604e-07
8.28202e-05
1.20486e-07
8.44909e-05
8.51923e-05
1.27302e-07
1.38899e-05
2.74838e-07
1.65237e-05
4.26755e-07
1.90503e-05
5.77699e-07
2.15584e-05
7.24501e-07
2.40618e-05
8.6472e-07
2.65679e-05
9.96439e-07
2.9079e-05
1.11809e-06
3.15948e-05
1.22838e-06
3.41135e-05
1.32619e-06
3.66324e-05
1.4106e-06
3.91487e-05
1.48085e-06
4.1659e-05
1.53636e-06
4.41601e-05
1.57667e-06
4.66486e-05
1.60148e-06
4.91217e-05
1.61066e-06
5.15763e-05
1.60419e-06
5.40101e-05
1.58217e-06
5.64209e-05
1.54484e-06
5.8807e-05
1.49251e-06
6.11671e-05
1.42558e-06
6.35002e-05
1.34454e-06
6.58056e-05
1.24994e-06
6.80829e-05
1.14244e-06
7.03317e-05
1.0228e-06
7.25509e-05
8.91935e-07
7.47385e-05
7.50977e-07
7.68904e-05
6.0139e-07
7.89975e-05
4.45118e-07
8.10403e-05
2.86982e-07
8.29785e-05
1.31029e-07
8.46471e-05
8.53241e-05
1.24377e-07
1.37655e-05
2.69289e-07
1.63788e-05
4.19725e-07
1.88999e-05
5.70148e-07
2.1408e-05
7.1719e-07
2.39147e-05
8.58226e-07
2.64268e-05
9.912e-07
2.8946e-05
1.11444e-06
3.14716e-05
1.22658e-06
3.40013e-05
1.32645e-06
3.65326e-05
1.4131e-06
3.9062e-05
1.48574e-06
4.15864e-05
1.54375e-06
4.41021e-05
1.58665e-06
4.66057e-05
1.6141e-06
4.90942e-05
1.62591e-06
5.15645e-05
1.62201e-06
5.4014e-05
1.60245e-06
5.64405e-05
1.56738e-06
5.88421e-05
1.51706e-06
6.12174e-05
1.45182e-06
6.35654e-05
1.37209e-06
6.58853e-05
1.27837e-06
6.81767e-05
1.17125e-06
7.04388e-05
1.05144e-06
7.26707e-05
9.19792e-07
7.48702e-05
7.77376e-07
7.70329e-05
6.25556e-07
7.91493e-05
4.6615e-07
8.11997e-05
3.03524e-07
8.31412e-05
1.41246e-07
8.48096e-05
8.54661e-05
1.22811e-07
1.36427e-05
2.66304e-07
1.62353e-05
4.1626e-07
1.87499e-05
5.66992e-07
2.12572e-05
7.14933e-07
2.37668e-05
8.57282e-07
2.62845e-05
9.91844e-07
2.88115e-05
1.11685e-06
3.13466e-05
1.23087e-06
3.38873e-05
1.3327e-06
3.64307e-05
1.42136e-06
3.89734e-05
1.49606e-06
4.15117e-05
1.55616e-06
4.40419e-05
1.60117e-06
4.65607e-05
1.63073e-06
4.90646e-05
1.64462e-06
5.15506e-05
1.64272e-06
5.40159e-05
1.62505e-06
5.64581e-05
1.59171e-06
5.88754e-05
1.54288e-06
6.12662e-05
1.47887e-06
6.36294e-05
1.40003e-06
6.59642e-05
1.30682e-06
6.82699e-05
1.19977e-06
7.05459e-05
1.07955e-06
7.27909e-05
9.46949e-07
7.50028e-05
8.02965e-07
7.71769e-05
6.48869e-07
7.93035e-05
4.86354e-07
8.13623e-05
3.19316e-07
8.33083e-05
1.51053e-07
8.49781e-05
8.56179e-05
1.22711e-07
1.352e-05
2.66142e-07
1.60919e-05
4.16768e-07
1.85993e-05
5.68768e-07
2.11052e-05
7.18372e-07
2.36172e-05
8.62602e-07
2.61403e-05
9.99131e-07
2.8675e-05
1.12611e-06
3.12196e-05
1.24204e-06
3.37714e-05
1.34571e-06
3.63271e-05
1.43616e-06
3.88829e-05
1.51257e-06
4.14352e-05
1.57434e-06
4.39802e-05
1.62096e-06
4.65141e-05
1.65208e-06
4.90335e-05
1.66747e-06
5.15352e-05
1.66699e-06
5.40164e-05
1.65062e-06
5.64745e-05
1.61842e-06
5.89076e-05
1.57056e-06
6.13141e-05
1.50727e-06
6.36927e-05
1.42887e-06
6.60426e-05
1.33576e-06
6.8363e-05
1.22844e-06
7.06532e-05
1.10752e-06
7.29119e-05
9.73744e-07
7.51366e-05
8.28026e-07
7.73226e-05
6.71551e-07
7.946e-05
5.0588e-07
8.15281e-05
3.34482e-07
8.34799e-05
1.60468e-07
8.51524e-05
8.57792e-05
1.24224e-07
1.33959e-05
2.69133e-07
1.5947e-05
4.21752e-07
1.84467e-05
5.76119e-07
2.09509e-05
7.28252e-07
2.34651e-05
8.74995e-07
2.59935e-05
1.0139e-06
2.8536e-05
1.14304e-06
3.10904e-05
1.26091e-06
3.36535e-05
1.3663e-06
3.62217e-05
1.45825e-06
3.8791e-05
1.53601e-06
4.13575e-05
1.59897e-06
4.39172e-05
1.64668e-06
4.64664e-05
1.67879e-06
4.90014e-05
1.69507e-06
5.15189e-05
1.6954e-06
5.4016e-05
1.67972e-06
5.64902e-05
1.64808e-06
5.89392e-05
1.60061e-06
6.13615e-05
1.53751e-06
6.37558e-05
1.45907e-06
6.6121e-05
1.36563e-06
6.84564e-05
1.25767e-06
7.07611e-05
1.13572e-06
7.30338e-05
1.00049e-06
7.52719e-05
8.52828e-07
7.74703e-05
6.93815e-07
7.9619e-05
5.24892e-07
8.16971e-05
3.49138e-07
8.36558e-05
1.69504e-07
8.53323e-05
8.59495e-05
1.2756e-07
1.32683e-05
2.75714e-07
1.57988e-05
4.31849e-07
1.82906e-05
5.89835e-07
2.07929e-05
7.45457e-07
2.33094e-05
8.9539e-07
2.58436e-05
1.03708e-06
2.83944e-05
1.16858e-06
3.09589e-05
1.28837e-06
3.35337e-05
1.39528e-06
3.61147e-05
1.48842e-06
3.86978e-05
1.56708e-06
4.12788e-05
1.63073e-06
4.38536e-05
1.67895e-06
4.64182e-05
1.71144e-06
4.89689e-05
1.72799e-06
5.15024e-05
1.72848e-06
5.40156e-05
1.71286e-06
5.65058e-05
1.68117e-06
5.89709e-05
1.63351e-06
6.14092e-05
1.57005e-06
6.38192e-05
1.49105e-06
6.62e-05
1.39683e-06
6.85507e-05
1.2878e-06
7.08702e-05
1.16448e-06
7.31571e-05
1.02749e-06
7.54089e-05
8.77617e-07
7.76202e-05
7.15866e-07
7.97808e-05
5.43547e-07
8.18695e-05
3.6339e-07
8.38361e-05
1.78188e-07
8.55178e-05
8.61286e-05
1.3301e-07
1.31354e-05
2.86473e-07
1.56454e-05
4.4789e-07
1.81292e-05
6.10909e-07
2.06299e-05
7.71067e-07
2.31493e-05
9.24885e-07
2.56898e-05
1.06975e-06
2.82495e-05
1.20371e-06
3.0825e-05
1.32532e-06
3.34121e-05
1.43349e-06
3.60066e-05
1.52741e-06
3.86039e-05
1.60648e-06
4.11997e-05
1.67024e-06
4.37898e-05
1.71835e-06
4.63701e-05
1.75056e-06
4.89367e-05
1.76671e-06
5.14862e-05
1.76669e-06
5.40156e-05
1.75048e-06
5.6522e-05
1.7181e-06
5.90033e-05
1.66964e-06
6.14577e-05
1.60526e-06
6.38836e-05
1.52518e-06
6.62801e-05
1.42969e-06
6.86462e-05
1.31916e-06
7.09807e-05
1.19407e-06
7.32823e-05
1.05498e-06
7.5548e-05
9.02616e-07
7.77726e-05
7.37888e-07
7.99456e-05
5.61991e-07
8.20455e-05
3.77339e-07
8.40209e-05
1.86563e-07
8.57088e-05
8.6316e-05
1.40996e-07
1.29944e-05
3.0223e-07
1.54842e-05
4.70985e-07
1.79604e-05
6.40621e-07
2.04602e-05
8.06416e-07
2.29835e-05
9.64783e-07
2.55314e-05
1.11312e-06
2.81012e-05
1.24955e-06
3.06885e-05
1.37274e-06
3.32889e-05
1.48177e-06
3.58975e-05
1.57596e-06
3.85097e-05
1.65483e-06
4.11209e-05
1.71804e-06
4.37266e-05
1.76535e-06
4.63227e-05
1.79659e-06
4.89055e-05
1.81163e-06
5.14712e-05
1.81041e-06
5.40168e-05
1.79293e-06
5.65395e-05
1.75921e-06
5.9037e-05
1.70933e-06
6.15075e-05
1.64345e-06
6.39495e-05
1.56175e-06
6.63618e-05
1.46449e-06
6.87434e-05
1.35202e-06
7.10932e-05
1.22474e-06
7.34096e-05
1.08319e-06
7.56896e-05
9.2802e-07
7.79278e-05
7.60048e-07
8.01137e-05
5.80358e-07
8.22252e-05
3.91081e-07
8.42103e-05
1.94682e-07
8.59056e-05
8.65116e-05
1.52138e-07
1.28423e-05
3.24142e-07
1.53122e-05
5.02646e-07
1.77819e-05
6.80637e-07
2.02823e-05
8.53168e-07
2.2811e-05
1.01664e-06
2.53679e-05
1.16857e-06
2.79492e-05
1.30727e-06
3.05498e-05
1.43165e-06
3.31645e-05
1.54096e-06
3.57882e-05
1.63475e-06
3.84159e-05
1.7127e-06
4.10429e-05
1.77462e-06
4.36647e-05
1.82037e-06
4.6277e-05
1.84987e-06
4.8876e-05
1.86306e-06
5.1458e-05
1.85992e-06
5.40199e-05
1.84047e-06
5.65589e-05
1.80475e-06
5.90728e-05
1.75284e-06
6.15594e-05
1.68486e-06
6.40175e-05
1.60099e-06
6.64457e-05
1.50146e-06
6.8843e-05
1.38657e-06
7.12081e-05
1.2567e-06
7.35394e-05
1.11231e-06
7.5834e-05
9.53992e-07
7.80862e-05
7.82485e-07
8.02852e-05
5.98764e-07
8.24091e-05
4.04702e-07
8.44045e-05
2.02595e-07
8.6108e-05
8.67151e-05
1.67383e-07
1.26749e-05
3.53895e-07
1.51257e-05
5.44965e-07
1.75909e-05
7.33152e-07
2.00941e-05
9.13405e-07
2.26307e-05
1.0823e-06
2.5199e-05
1.23766e-06
2.77939e-05
1.37817e-06
3.04093e-05
1.50304e-06
3.30397e-05
1.61186e-06
3.56794e-05
1.7044e-06
3.83234e-05
1.78057e-06
4.09667e-05
1.84034e-06
4.36049e-05
1.88369e-06
4.62336e-05
1.91063e-06
4.8849e-05
1.92119e-06
5.14474e-05
1.91539e-06
5.40257e-05
1.89327e-06
5.65811e-05
1.85488e-06
5.91112e-05
1.8003e-06
6.1614e-05
1.72964e-06
6.40882e-05
1.64306e-06
6.65323e-05
1.54075e-06
6.89453e-05
1.42298e-06
7.13259e-05
1.29008e-06
7.36724e-05
1.14247e-06
7.59816e-05
9.80658e-07
7.8248e-05
8.05314e-07
8.04606e-05
6.17306e-07
8.25972e-05
4.18277e-07
8.46037e-05
2.10351e-07
8.63163e-05
8.69264e-05
1.8823e-07
1.24868e-05
3.94013e-07
1.49199e-05
6.00893e-07
1.7384e-05
8.01073e-07
1.98939e-05
9.89717e-07
2.24421e-05
1.16392e-06
2.50248e-05
1.32211e-06
2.76357e-05
1.46353e-06
3.02679e-05
1.58789e-06
3.29153e-05
1.69514e-06
3.55722e-05
1.78539e-06
3.82331e-05
1.85876e-06
4.08934e-05
1.91541e-06
4.35483e-05
1.95544e-06
4.61936e-05
1.97898e-06
4.88255e-05
1.9861e-06
5.14403e-05
1.97688e-06
5.40349e-05
1.95137e-06
5.66066e-05
1.90965e-06
5.91529e-05
1.85178e-06
6.16719e-05
1.77786e-06
6.41621e-05
1.68802e-06
6.66221e-05
1.58244e-06
6.90509e-05
1.46133e-06
7.1447e-05
1.32498e-06
7.38087e-05
1.17376e-06
7.61329e-05
1.00811e-06
7.84137e-05
8.28619e-07
8.06402e-05
6.36059e-07
8.27899e-05
4.31865e-07
8.48081e-05
2.17991e-07
8.65305e-05
8.71453e-05
2.17193e-07
1.22696e-05
4.4839e-07
1.46888e-05
6.74637e-07
1.71578e-05
8.88238e-07
1.96803e-05
1.08526e-06
2.22451e-05
1.26393e-06
2.48462e-05
1.42369e-06
2.74759e-05
1.56459e-06
3.0127e-05
1.68699e-06
3.27929e-05
1.79131e-06
3.54678e-05
1.87799e-06
3.81465e-05
1.94739e-06
4.08239e-05
1.99984e-06
4.34958e-05
2.03559e-06
4.61578e-05
2.05483e-06
4.88062e-05
2.0577e-06
5.14374e-05
2.0443e-06
5.40483e-05
2.01471e-06
5.66362e-05
1.969e-06
5.91986e-05
1.90724e-06
6.17337e-05
1.8295e-06
6.42398e-05
1.73589e-06
6.67157e-05
1.62655e-06
6.91602e-05
1.50165e-06
7.15719e-05
1.36144e-06
7.3949e-05
1.20623e-06
7.62882e-05
1.03639e-06
7.85836e-05
8.52452e-07
8.08242e-05
6.55075e-07
8.29873e-05
4.45512e-07
8.50179e-05
2.25548e-07
8.67508e-05
8.73719e-05
2.58689e-07
1.20109e-05
5.23193e-07
1.44243e-05
7.72223e-07
1.69087e-05
9.99623e-07
1.94529e-05
1.20376e-06
2.20409e-05
1.3849e-06
2.4665e-05
1.54404e-06
2.73168e-05
1.68233e-06
2.99887e-05
1.80086e-06
3.26744e-05
1.90055e-06
3.53681e-05
1.98217e-06
3.80648e-05
2.04631e-06
4.07598e-05
2.09343e-06
4.34487e-05
2.12389e-06
4.61274e-05
2.13793e-06