/*--------------------------------*- C++ -*----------------------------------*\
  =========                 |
  \\      /  F ield         | OpenFOAM: The Open Source CFD Toolbox
   \\    /   O peration     | Website:  https://openfoam.org
    \\  /    A nd           | Version:  8
     \\/     M anipulation  |
\*---------------------------------------------------------------------------*/
FoamFile
{
    version     2.0;
    format      ascii;
    class       volScalarField;
    location    "20000/gas";
    object      Qdot;
}
// * * * * * * * * * * * * * * * * * * * * * * * * * * * * * * * * * * * * * //

dimensions      [1 -1 -3 0 0 0 0];

internalField   nonuniform List<scalar> 
16000
(
-1.40165e-58
-2.54209e-58
0
0
0
-1.62694e-56
0
-4.14109e-06
0
1.41656e-25
0
0
-2.00517e-60
0
0
0
-5.87896e-52
-4.14109e-06
0
0
0
-9.56664e-52
0
0
-4.14109e-06
1.41656e-25
-9.40634e-51
0
-6.57054e-56
2.83313e-25
0
0
0
0
0
-4.14109e-06
-1.54113e-46
2.83313e-25
0
0
0
0
-2.50784e-46
0
-4.14109e-06
0
0
-1.25392e-46
-3.15624e-43
0
-4.14109e-06
-2.46582e-45
0
2.83313e-25
-5.72427e-43
0
-4.40941e-48
0
0
0
-6.46399e-40
-4.14109e-06
0
-2.05442e-42
0
-2.10373e-39
0
-4.14109e-06
-9.03048e-45
-4.14109e-06
0
-4.14109e-06
0
0
-9.03048e-45
0
0
2.83313e-25
-7.22439e-44
-3.36596e-38
-1.3787e-34
2.83313e-25
-4.14109e-06
-4.14109e-06
-2.71119e-33
2.83313e-25
-4.14109e-06
0
0
2.83313e-25
-4.14109e-06
-4.14109e-06
0
0
0
0
2.83313e-25
0
-2.82357e-31
-4.33791e-32
-3.61417e-29
0
0
-3.78766e-38
0
-4.14109e-06
-4.14109e-06
-6.06025e-37
-4.14109e-06
0
0
-7.22835e-29
-9.09725e-26
0
0
0
0
-4.14109e-06
0
0
-4.14109e-06
0
-4.14109e-06
0
5.66626e-25
-1.86312e-22
-1.51589e-22
0
0
-5.40642e-21
-2.42543e-21
-4.14109e-06
-4.14109e-06
-5.20572e-27
-4.76958e-20
0
-6.2091e-19
-4.14109e-06
3.60975e-23
-1.90783e-19
-1.22098e-17
0
-4.88405e-17
-9.93457e-18
-4.14109e-06
-3.17906e-16
0
-7.81448e-16
-2.54325e-15
0
0
-4.14109e-06
-2.7293e-21
-4.14109e-06
0
0
0
0
0
0
-7.40183e-26
0
-4.73717e-24
-9.47434e-24
-1.17222e-11
0
0
0
-1.17222e-11
0
7.97455e-11
-1.17222e-11
-1.17222e-11
-1.43673e-23
7.97455e-11
-1.51589e-22
0
-1.43673e-23
0
-1.17222e-11
-1.17222e-11
0
-1.17222e-11
-9.31559e-23
0
-1.17222e-11
0
-1.89487e-23
-1.89487e-23
7.97455e-11
0
0
7.97455e-11
7.97455e-11
7.97455e-11
-4.14892e-23
-9.31559e-23
-1.58773e-22
0
-1.17222e-11
-1.17222e-11
-1.17222e-11
-7.45247e-22
0
-5.74692e-23
0
7.97455e-11
0
0
0
-1.17222e-11
-7.45247e-22
0
0
-1.38034e-21
0
7.97455e-11
-1.17222e-11
-1.17222e-11
0
-1.17222e-11
0
7.97455e-11
-5.92146e-25
0
0
0
-1.86312e-22
7.97455e-11
-3.03179e-22
0
-1.17222e-11
0
-5.74692e-23
0
-1.17222e-11
0
0
-1.21272e-21
-1.21272e-21
0
-1.14938e-22
-1.14938e-22
6.80232e-11
0
-1.49049e-21
0
-1.17222e-11
0
0
0
-1.43673e-23
0
-7.18365e-24
0
0
0
-1.17222e-11
-7.18365e-24
-3.72623e-22
0
0
0
7.97455e-11
7.97455e-11
-2.42543e-21
-2.98099e-21
0
0
0
-2.42543e-21
7.97455e-11
-2.42543e-21
0
0
0
7.97455e-11
0
0
-1.49049e-21
7.97455e-11
0
7.97455e-11
7.97455e-11
0
-1.43673e-23
0
0
7.97455e-11
-7.18365e-24
-3.03179e-22
7.97455e-11
0
0
-1.17222e-11
0
7.97455e-11
-2.42543e-21
0
0
-2.29877e-22
-5.96198e-21
-4.59753e-22
-1.17222e-11
7.97455e-11
0
-5.31062e-21
-4.59753e-22
0
-2.29877e-22
0
-2.42543e-21
-2.98099e-21
-1.14938e-22
0
0
0
0
-1.17222e-11
7.97455e-11
-3.59182e-24
-3.72623e-22
-6.06358e-22
0
0
7.97455e-11
0
7.97455e-11
7.97455e-11
-1.17222e-11
0
0
0
0
-4.59753e-22
-4.59753e-22
0
0
0
0
7.97455e-11
-4.85086e-21
0
-1.17222e-11
-6.19185e-21
0
7.97455e-11
-1.17222e-11
-1.17222e-11
0
-1.93495e-22
-1.17222e-11
-1.17222e-11
0
0
-1.49049e-21
7.97455e-11
0
-4.85086e-21
-4.85086e-21
0
-1.23837e-20
-9.70172e-21
0
-1.1924e-20
7.97455e-11
6.80232e-11
0
0
0
7.97455e-11
-2.25452e-20
-9.19507e-22
-1.17222e-11
0
7.97455e-11
0
0
0
-1.17222e-11
7.97455e-11
-1.17222e-11
0
-2.3289e-23
0
7.97455e-11
0
0
-1.17222e-11
-5.96198e-21
0
0
-1.17222e-11
-1.17222e-11
0
-1.83901e-21
-2.38479e-20
-2.38479e-20
0
-1.94034e-20
-1.94034e-20
-1.83901e-21
-4.32513e-20
-1.83901e-21
7.97455e-11
-9.19507e-22
7.97455e-11
-9.19507e-22
-1.17222e-11
-1.01615e-20
-4.59753e-22
0
-3.09593e-21
0
-2.87346e-23
-1.17222e-11
-3.72623e-22
-1.17222e-11
0
0
-5.96198e-21
-1.1924e-20
-9.70172e-21
0
-1.17222e-11
-1.83901e-21
-1.83901e-21
0
-4.76958e-20
0
-3.67803e-21
-5.13738e-20
-3.67803e-21
-3.67803e-21
-9.01807e-20
-3.88069e-20
0
0
-1.94034e-20
0
0
-2.16257e-20
0
-4.59753e-22
0
7.97455e-11
0
-7.57947e-23
-7.45247e-22
-1.14938e-22
-1.08128e-20
-4.59753e-22
-1.1924e-20
0
0
-1.83901e-21
0
-4.24849e-20
-1.17222e-11
7.97455e-11
-3.67803e-21
-8.12918e-20
-1.17222e-11
6.80232e-11
-7.35605e-21
-9.90696e-20
-3.67803e-21
-3.67803e-21
7.97455e-11
7.97455e-11
-3.67803e-21
-4.95348e-20
0
0
0
-1.17222e-11
0
0
0
0
0
-2.98099e-21
-5.31062e-21
0
7.97455e-11
-1.94034e-20
0
-1.17222e-11
-3.67803e-21
-3.67803e-21
-7.76138e-20
-1.17222e-11
-7.35605e-21
7.97455e-11
0
0
0
-1.17222e-11
-7.35605e-21
-7.35605e-21
-7.35605e-21
-1.80361e-19
-3.67803e-21
7.97455e-11
-3.67803e-21
-1.17222e-11
0
0
0
0
-2.70321e-21
-3.72623e-22
7.97455e-11
0
-1.1924e-20
0
0
-3.67803e-21
0
-1.17222e-11
-8.49698e-20
-1.90783e-19
7.97455e-11
7.97455e-11
0
-1.55228e-19
0
0
0
-1.17222e-11
-1.17222e-11
-1.47121e-20
-1.17222e-11
-1.17222e-11
-7.35605e-21
-7.35605e-21
-1.17222e-11
0
6.80232e-11
-2.38479e-20
0
0
0
0
0
-1.1924e-20
0
-1.17222e-11
-4.24849e-20
-1.17222e-11
7.97455e-11
7.97455e-11
0
0
-3.81566e-19
0
-1.17222e-11
-3.10455e-19
0
-1.17222e-11
0
-4.10991e-19
7.97455e-11
0
-3.25167e-19
0
-1.17222e-11
0
0
-7.35605e-21
7.97455e-11
0
0
0
-2.29877e-22
0
7.97455e-11
0
-2.38479e-20
6.80232e-11
6.80232e-11
-1.17222e-11
0
7.97455e-11
7.97455e-11
-3.10455e-19
0
7.97455e-11
0
0
0
-6.2091e-19
0
0
0
0
-1.41347e-18
7.97455e-11
-1.17222e-11
-3.10455e-19
-1.47121e-20
-7.35605e-21
0
-3.67803e-21
0
-1.17222e-11
-1.17222e-11
7.97455e-11
-1.17222e-11
0
-5.13738e-20
-3.67803e-21
0
0
0
0
0
7.97455e-11
-5.88484e-20
0
0
0
0
0
0
0
-1.52627e-18
0
7.97455e-11
-1.17222e-11
-6.2091e-19
-3.10455e-19
0
-1.17222e-11
0
-7.35605e-21
7.97455e-11
-2.38479e-20
-9.70172e-21
6.80232e-11
-1.17222e-11
-1.17222e-11
-3.67803e-21
-1.17222e-11
-1.17222e-11
-1.17222e-11
0
0
0
-1.17222e-11
0
7.97455e-11
-1.17222e-11
-1.17222e-11
0
7.97455e-11
0
0
0
0
0
0
7.97455e-11
0
0
-1.17222e-11
-1.17222e-11
7.97455e-11
-7.35605e-21
7.97455e-11
0
-2.29877e-22
0
-3.67803e-21
-7.35605e-21
0
-3.10455e-19
-2.94242e-20
0
0
7.97455e-11
0
0
0
0
0
0
-6.10506e-18
0
0
-3.05253e-18
7.97455e-11
-3.05253e-18
-2.60134e-18
7.97455e-11
-1.24182e-18
-1.52627e-18
-1.17222e-11
-1.17222e-11
-3.10455e-19
0
-3.67803e-21
0
0
0
6.80232e-11
0
0
-5.88484e-20
0
-1.17222e-11
-1.17697e-19
0
-6.34046e-18
-1.17222e-11
-1.17222e-11
-4.96728e-18
-1.17222e-11
7.97455e-11
7.97455e-11
0
7.97455e-11
-1.17222e-11
0
0
-1.17222e-11
0
-1.17222e-11
-1.64396e-18
-5.88484e-20
-6.2091e-19
0
-3.10455e-19
-8.49698e-20
-1.83901e-21
7.97455e-11
8.28247e-20
-7.35605e-21
0
0
0
0
-2.35394e-19
0
-1.17222e-11
-4.96728e-18
-9.93457e-18
-4.70787e-19
-1.17222e-11
7.97455e-11
0
7.97455e-11
-1.22101e-17
0
0
-9.93457e-18
-4.70787e-19
0
-6.34046e-18
7.97455e-11
0
0
-1.52627e-18
0
0
6.80232e-11
-3.67803e-21
0
-3.67803e-21
0
-7.63133e-19
-1.17222e-11
7.97455e-11
0
-1.17222e-11
0
0
-1.22101e-17
-9.41575e-19
-2.44203e-17
7.97454e-11
-1.17222e-11
0
0
-1.98691e-17
-1.17222e-11
-1.98691e-17
-4.42894e-17
-1.17222e-11
0
7.97455e-11
-1.17222e-11
0
-2.48364e-18
-2.48364e-18
0
0
-6.92022e-19
-1.17222e-11
0
7.97455e-11
0
0
-3.05253e-18
6.80232e-11
0
-1.22101e-17
-1.17222e-11
-2.44203e-17
-2.44203e-17
-1.98691e-17
0
0
-5.07237e-17
0
-4.88405e-17
0
7.97455e-11
-4.88405e-17
0
0
-2.44203e-17
7.97454e-11
0
0
0
-2.35394e-19
0
0
0
-1.47121e-20
-1.83901e-21
-1.17222e-11
0
-1.17697e-19
-2.35394e-19
-1.26809e-17
7.97455e-11
-1.98691e-17
7.97454e-11
0
0
-3.97383e-17
-1.17223e-11
0
-1.17222e-11
-1.01447e-16
-7.94765e-17
0
0
-3.97383e-17
0
0
0
7.97455e-11
0
-1.22101e-17
-1.17222e-11
0
0
-1.17697e-19
-5.88484e-20
-3.81566e-19
-1.17222e-11
0
-1.17222e-11
0
-1.17222e-11
-9.41575e-19
-2.44203e-17
7.97454e-11
-4.88405e-17
-8.32428e-17
-9.7681e-17
0
-1.17222e-11
-1.17222e-11
0
0
0
0
0
-1.77158e-16
7.97454e-11
0
-1.17222e-11
6.80232e-11
0
0
7.97455e-11
-1.17222e-11
0
-1.17222e-11
7.97455e-11
0
1.61971e-19
-1.17222e-11
-2.48364e-18
0
7.97455e-11
-1.17222e-11
-3.97383e-17
7.97455e-11
7.97455e-11
7.97455e-11
-1.95362e-16
-1.50652e-17
-1.74018e-16
0
0
0
0
0
0
-1.17222e-11
7.97453e-11
-1.17222e-11
0
7.97455e-11
0
-4.16214e-17
0
0
0
0
7.97455e-11
-6.2091e-19
1.58293e-19
0
-4.96728e-18
-1.17223e-11
7.97455e-11
-1.77158e-16
-8.70091e-17
0
7.97455e-11
-1.50652e-17
0
7.97455e-11
-3.17906e-16
0
0
-3.90724e-16
-3.17906e-16
-3.90724e-16
0
-4.05789e-16
0
-1.95362e-16
0
7.97453e-11
-1.17222e-11
-1.01447e-16
-3.97383e-17
6.80232e-11
0
-9.93457e-18
0
0
6.80232e-11
0
0
0
7.97454e-11
-1.17222e-11
0
-3.90724e-16
0
-6.65943e-16
0
0
0
0
7.97455e-11
7.97455e-11
-7.81448e-16
0
-7.81448e-16
0
0
-3.90724e-16
0
-1.74018e-16
0
6.80232e-11
7.97454e-11
0
7.97454e-11
-1.31517e-17
-1.10723e-17
-1.17222e-11
-2.94242e-20
7.97455e-11
0
0
-7.5326e-18
0
7.97455e-11
-8.11578e-16
0
-1.27162e-15
0
7.97442e-11
0
0
0
0
-1.27162e-15
7.97455e-11
-1.5629e-15
0
0
-6.35812e-16
0
0
0
7.97455e-11
-7.5326e-18
-7.5326e-18
0
-1.17222e-11
7.97455e-11
-3.28793e-18
-2.94242e-20
0
-9.7681e-17
-1.17224e-11
0
-6.35812e-16
-1.5629e-15
7.97455e-11
0
-1.20522e-16
-1.17248e-11
0
0
-3.12579e-15
0
0
0
0
6.80232e-11
0
-1.17238e-11
-1.5629e-15
-6.02608e-17
0
0
0
0
0
0
0
6.80232e-11
0
0
0
0
-7.81448e-16
-1.5629e-15
-1.17222e-11
0
0
-6.25158e-15
-1.17222e-11
0
-5.0865e-15
-6.25158e-15
7.97404e-11
-1.17285e-11
-1.17276e-11
0
0
0
-1.17222e-11
0
0
-1.20522e-16
-1.27162e-15
-6.02608e-17
-7.81448e-16
-3.90724e-16
0
7.97455e-11
0
-1.98691e-17
-1.17222e-11
0
0
7.97455e-11
0
0
-1.17222e-11
0
0
0
0
-9.64173e-16
0
0
0
0
0
0
0
-5.0865e-15
-1.17285e-11
-2.41043e-16
-2.54325e-15
-1.17222e-11
0
-1.17224e-11
0
-6.02608e-17
0
0
0
0
0
0
-3.90724e-16
6.80232e-11
0
0
-1.06551e-14
0
7.97205e-11
-9.64173e-16
7.97001e-11
-4.53523e-14
-2.50063e-14
-1.92835e-15
0
0
6.79973e-11
0
0
0
-1.25032e-14
0
7.97392e-11
0
-5.66904e-15
0
-1.17235e-11
0
0
0
0
-1.17222e-11
0
0
-1.17223e-11
7.97404e-11
0
0
0
-1.92835e-15
0
0
0
-1.17222e-11
-3.85669e-15
-5.00127e-14
0
0
0
7.97455e-11
-1.17242e-11
7.97435e-11
0
0
6.80232e-11
0
0
-1.17222e-11
0
0
0
0
-1.17226e-11
0
0
0
-1.17222e-11
-1.17222e-11
7.97455e-11
0
0
-1.17299e-11
0
7.93826e-11
0
-3.62819e-13
0
-8.1384e-14
7.97377e-11
0
7.97455e-11
0
7.97416e-11
0
-1.17722e-11
0
0
-1.25032e-14
0
0
-6.25158e-15
0
0
-1.17251e-11
0
0
-3.7663e-18
0
-1.0173e-14
0
6.80232e-11
-1.62768e-13
-3.25536e-13
-1.17222e-11
0
0
0
0
-1.54268e-14
0
0
7.97455e-11
6.80155e-11
-8.1384e-14
7.97455e-11
-3.85669e-15
7.97455e-11
-4.0692e-14
0
0
0
0
7.9745e-11
0
0
0
-7.81448e-16
0
-7.94765e-17
-9.41575e-19
-5.00127e-14
0
0
-1.17222e-11
-1.45127e-12
-1.17222e-11
-6.51072e-13
0
0
-3.08535e-14
0
-1.17222e-11
-3.25536e-13
-1.54268e-14
0
0
0
-2.00051e-13
0
6.80232e-11
0
7.97048e-11
7.97455e-11
-2.50063e-14
0
0
0
-1.17222e-11
0
-3.01304e-17
0
-1.88315e-18
-1.54268e-14
6.80232e-11
0
0
0
0
7.71412e-11
0
7.97455e-11
7.96838e-11
0
-6.1707e-14
-8.00203e-13
0
0
0
0
0
-1.19223e-11
-1.19223e-11
0
-1.18223e-11
-3.85669e-15
0
7.97455e-11
-1.0173e-14
0
0
-1.17222e-11
0
-1.50652e-17
0
-1.23414e-13
-1.17222e-11
-1.04171e-11
0
6.80232e-11
0
7.97455e-11
-2.46828e-13
-2.46828e-13
0
0
0
0
0
-1.17222e-11
0
0
0
7.93454e-11
0
-1.17222e-11
0
0
-4.0692e-14
-1.17222e-11
0
7.97455e-11
0
0
6.80232e-11
0
-3.7663e-18
7.97455e-11
-1.17222e-11
-4.16686e-11
0
-4.16686e-11
0
0
-4.93656e-13
-4.93656e-13
-6.40162e-12
-2.46828e-13
0
0
7.97455e-11
0
0
0
0
-3.08535e-14
-3.56389e-13
0
0
7.97377e-11
0
7.97455e-11
-4.45487e-14
-2.50063e-14
0
0
0
0
-7.5326e-18
-1.17222e-11
-1.17222e-11
0
0
0
-1.17222e-11
0
0
0
0
-1.17222e-11
-1.17222e-11
-5.20857e-12
-6.40162e-12
0
7.97455e-11
0
7.97455e-11
-8.6191e-13
-6.51072e-13
-3.25536e-13
0
0
0
-8.90973e-14
0
0
0
6.80098e-11
-3.12579e-15
0
-1.95362e-16
-6.55526e-09
0
-4.33162e-11
-8.35205e-10
0
-1.36829e-10
-1.17222e-11
-9.50594e-11
0
0
0
6.93283e-11
-9.87313e-13
0
0
0
-1.17222e-11
0
-1.23414e-13
-1.60041e-12
-6.51072e-13
0
0
7.97455e-11
-1.62768e-13
0
-4.45487e-14
0
6.80232e-11
0
0
0
-1.98214e-09
-3.03302e-09
-9.09907e-09
3.61274e-07
3.47119e-07
7.1033e-07
6.90149e-07
8.78652e-07
1.40449e-06
1.37719e-06
1.72734e-06
2.07742e-06
2.63426e-06
2.76955e-06
3.11566e-06
3.45971e-06
3.80675e-06
4.36258e-06
4.50191e-06
5.02371e-06
5.20926e-06
5.56842e-06
5.76202e-06
5.54416e-06
5.54214e-06
5.54821e-06
5.56135e-06
5.20214e-06
4.85207e-06
4.50898e-06
4.17409e-06
3.4627e-06
3.13685e-06
2.43258e-06
1.72831e-06
1.22775e-06
4.74281e-07
3.40037e-07
-1.41541e-08
-2.02202e-09
-1.70675e-07
-4.04989e-09
-1.11211e-08
3.59252e-07
1.35329e-07
4.98545e-07
6.89144e-07
1.0473e-06
1.40146e-06
1.37517e-06
1.72427e-06
2.07337e-06
2.42045e-06
2.76551e-06
3.32034e-06
4.00674e-06
4.18218e-06
4.52723e-06
4.87528e-06
5.05573e-06
5.20214e-06
5.94179e-06
5.75494e-06
5.91551e-06
5.9145e-06
6.30104e-06
5.55326e-06
5.19506e-06
5.39506e-06
4.71168e-06
4.37572e-06
3.45765e-06
3.13079e-06
2.42854e-06
1.72224e-06
1.3964e-06
6.82027e-07
3.40003e-07
-1.41541e-08
-2.02202e-09
0
-4.04403e-09
-1.21321e-08
3.56179e-07
3.42025e-07
7.0528e-07
4.75286e-07
1.04124e-06
1.3964e-06
1.92022e-06
2.09965e-06
2.44673e-06
2.79285e-06
3.13888e-06
3.48191e-06
3.99764e-06
4.17102e-06
4.51708e-06
5.03584e-06
5.21629e-06
5.57045e-06
5.54921e-06
5.91348e-06
6.11419e-06
5.90337e-06
5.90742e-06
5.54214e-06
5.56539e-06
5.38495e-06
5.08201e-06
4.15787e-06
3.83e-06
3.12472e-06
2.42247e-06
2.09869e-06
1.3924e-06
6.82027e-07
3.40003e-07
-2.23922e-07
-2.02202e-09
-1.70635e-07
-6.02618e-09
-3.94597e-07
3.55208e-07
3.39031e-07
7.01236e-07
6.79999e-07
1.03719e-06
1.39034e-06
1.74145e-06
2.09056e-06
2.43865e-06
2.78371e-06
3.12877e-06
3.64349e-06
3.81585e-06
4.15888e-06
4.50494e-06
5.06281e-06
5.20319e-06
5.55731e-06
5.91551e-06
6.11011e-06
6.06195e-06
5.88821e-06
5.89427e-06
6.28887e-06
5.76101e-06
5.20214e-06
4.86217e-06
4.73797e-06
3.8209e-06
3.11764e-06
2.58708e-06
2.0946e-06
1.39034e-06
6.79999e-07
3.37981e-07
-1.61761e-08
-2.02202e-09
-2.02202e-09
-6.02618e-09
-1.51253e-08
3.52135e-07
3.35959e-07
6.96221e-07
1.05539e-06
1.03113e-06
1.38427e-06
1.73438e-06
2.08247e-06
2.42854e-06
3.15404e-06
3.11768e-06
3.46068e-06
4.35483e-06
4.90763e-06
4.87225e-06
5.38797e-06
5.56847e-06
5.92258e-06
5.90034e-06
6.26461e-06
6.25551e-06
6.25349e-06
6.64105e-06
6.27471e-06
5.91753e-06
5.74112e-06
4.85e-06
4.51809e-06
3.8118e-06
3.11056e-06
2.79079e-06
2.09056e-06
1.38629e-06
1.05843e-06
3.35998e-07
-1.6182e-08
-2.1179e-07
-2.02202e-09
-6.06605e-09
1.92575e-07
3.49102e-07
3.31914e-07
6.93148e-07
1.05034e-06
1.40449e-06
1.37618e-06
1.72633e-06
2.07337e-06
2.41843e-06
2.76247e-06
3.48596e-06
3.82797e-06
4.17e-06
4.68371e-06
4.85606e-06
5.20315e-06
5.55225e-06
6.07611e-06
6.43427e-06
6.41809e-06
6.23731e-06
6.44711e-06
6.24338e-06
6.25959e-06
5.90337e-06
5.55528e-06
5.2173e-06
4.50696e-06
4.18214e-06
3.48292e-06
2.78472e-06
2.08652e-06
1.38228e-06
1.05236e-06
3.35959e-07
-1.61761e-08
-2.02202e-09
-2.02202e-09
-7.03719e-09
3.61274e-07
3.46069e-07
7.08313e-07
6.87082e-07
1.04427e-06
1.39742e-06
1.74857e-06
2.09764e-06
2.44371e-06
2.78876e-06
3.13079e-06
3.68258e-06
3.81484e-06
4.15584e-06
4.87734e-06
5.2224e-06
5.77617e-06
6.29595e-06
6.09798e-06
6.2464e-06
6.78135e-06
6.77225e-06
6.80932e-06
6.60663e-06
6.24342e-06
5.88724e-06
5.54113e-06
5.41396e-06
4.87528e-06
4.17102e-06
3.68258e-06
2.77663e-06
2.07843e-06
1.3782e-06
1.05236e-06
3.33937e-07
-1.61421e-08
-2.02202e-09
-1.988e-09
-9.09907e-09
3.60263e-07
3.43036e-07
7.04269e-07
6.83038e-07
1.03719e-06
1.39034e-06
1.74044e-06
2.08854e-06
2.43461e-06
2.94731e-06
3.11866e-06
3.66944e-06
4.18011e-06
4.52112e-06
4.86314e-06
5.20517e-06
5.54926e-06
6.27775e-06
6.42117e-06
6.78034e-06
6.76315e-06
6.75405e-06
7.13349e-06
6.76012e-06
6.60663e-06
6.63191e-06
5.90746e-06
5.57049e-06
4.86218e-06
4.16191e-06
3.46472e-06
2.76858e-06
2.07438e-06
1.37416e-06
1.04832e-06
3.31914e-07
3.64267e-07
-4.04403e-09
-2.02202e-09
-2.17856e-07
3.58241e-07
3.42019e-07
7.01236e-07
1.05742e-06
1.03113e-06
1.38326e-06
1.73236e-06
2.07847e-06
2.42247e-06
2.76652e-06
3.48697e-06
4.03674e-06
4.16595e-06
4.50495e-06
5.05472e-06
5.73809e-06
6.08319e-06
6.43124e-06
6.78337e-06
6.58945e-06
7.12439e-06
7.15543e-06
6.94259e-06
7.1615e-06
6.7982e-06
6.23529e-06
6.10202e-06
5.55629e-06
4.85e-06
4.53022e-06
4.2155e-06
3.14089e-06
2.06832e-06
1.54078e-06
1.04427e-06
3.31914e-07
3.64307e-07
-2.02202e-09
-2.02202e-09
-9.0592e-09
1.86515e-07
3.38992e-07
6.97232e-07
8.43642e-07
1.02607e-06
1.37719e-06
1.72326e-06
2.28011e-06
2.96449e-06
3.13483e-06
3.47382e-06
3.81281e-06
4.32248e-06
4.87022e-06
5.42e-06
5.93067e-06
5.89428e-06
6.41203e-06
6.59349e-06
6.95068e-06
7.10517e-06
7.5156e-06
7.30584e-06
6.93348e-06
7.16145e-06
6.97903e-06
6.46532e-06
5.92262e-06
5.42707e-06
4.51809e-06
3.82495e-06
3.1328e-06
2.44067e-06
1.74655e-06
1.04224e-06
7.10335e-07
3.62239e-07
-4.04403e-09
0
-1.00761e-08
3.54157e-07
3.34948e-07
6.93148e-07
1.04832e-06
1.40045e-06
1.74854e-06
2.09561e-06
2.44067e-06
2.78169e-06
3.1227e-06
3.46067e-06
4.1791e-06
4.51707e-06
4.85506e-06
5.19304e-06
5.91348e-06
6.25753e-06
6.77529e-06
7.1264e-06
7.14224e-06
7.29472e-06
7.66708e-06
7.66505e-06
7.29472e-06
7.14224e-06
6.9618e-06
6.23937e-06
5.90641e-06
5.20315e-06
4.50596e-06
4.1933e-06
3.12472e-06
2.43464e-06
1.74045e-06
1.03821e-06
7.08313e-07
3.60223e-07
-2.02202e-09
-2.02788e-09
-1.01101e-08
1.43377e-07
3.32926e-07
4.80347e-07
1.04326e-06
1.39438e-06
1.91314e-06
2.08753e-06
2.43056e-06
2.98033e-06
3.11057e-06
3.82798e-06
4.16498e-06
4.50191e-06
5.21933e-06
5.72701e-06
5.89634e-06
6.44809e-06
6.75507e-06
6.9345e-06
7.29168e-06
8.03639e-06
7.81753e-06
7.64584e-06
8.03643e-06
7.29476e-06
6.94259e-06
6.60263e-06
6.2727e-06
5.94988e-06
4.87326e-06
4.18315e-06
3.11461e-06
2.42854e-06
1.7364e-06
1.03618e-06
7.04269e-07
3.62285e-07
-2.11796e-07
-1.72697e-07
-1.11211e-08
3.52135e-07
7.10375e-07
6.86065e-07
1.03926e-06
1.38831e-06
1.73539e-06
2.07944e-06
2.42146e-06
3.14191e-06
3.64955e-06
3.81585e-06
4.1518e-06
5.03787e-06
5.20315e-06
6.29999e-06
6.25955e-06
6.981e-06
6.94561e-06
7.29674e-06
8.03336e-06
8.01517e-06
7.62664e-06
8.00506e-06
7.63573e-06
8.03438e-06
7.5146e-06
6.75507e-06
6.25449e-06
5.55427e-06
5.07089e-06
4.17102e-06
3.69673e-06
2.59112e-06
1.73033e-06
1.03214e-06
5.33595e-07
3.58201e-07
-4.01002e-09
-1.98214e-09
-1.83818e-07
3.49102e-07
7.08313e-07
6.82027e-07
1.03416e-06
1.38229e-06
1.7273e-06
2.07135e-06
2.79183e-06
3.13079e-06
3.46877e-06
4.56359e-06
4.68779e-06
5.02274e-06
5.56641e-06
5.90236e-06
6.24034e-06
7.17157e-06
7.68632e-06
7.82663e-06
7.84145e-06
8.16562e-06
8.36628e-06
7.98585e-06
7.99494e-06
8.01521e-06
7.66606e-06
6.94664e-06
6.23731e-06
6.29902e-06
4.84595e-06
4.1609e-06
3.4769e-06
3.00258e-06
1.72629e-06
1.02809e-06
7.02247e-07
3.60223e-07
-4.04403e-09
-2.02202e-09
-1.41541e-08
3.48091e-07
7.06291e-07
6.78994e-07
1.0291e-06
1.37618e-06
1.72124e-06
2.44269e-06
2.7827e-06
3.11967e-06
3.83708e-06
4.17101e-06
4.67359e-06
5.2173e-06
5.93067e-06
6.43731e-06
6.60263e-06
7.11427e-06
7.66712e-06
8.01618e-06
8.19965e-06
8.35416e-06
8.34506e-06
8.34404e-06
8.35314e-06
7.99498e-06
7.64483e-06
7.3079e-06
6.60057e-06
5.90236e-06
5.21225e-06
4.52719e-06
3.67651e-06
2.78476e-06
2.10071e-06
1.02611e-06
7.00225e-07
3.58201e-07
-4.04403e-09
-2.02202e-09
-1.84829e-07
3.4708e-07
7.03292e-07
1.05543e-06
1.40449e-06
1.7506e-06
2.09363e-06
2.43461e-06
2.94326e-06
3.10855e-06
3.82393e-06
4.15686e-06
4.86921e-06
5.20112e-06
5.91348e-06
6.24843e-06
6.7942e-06
7.47348e-06
8.0273e-06
8.20471e-06
8.52079e-06
8.54168e-06
8.49349e-06
8.70326e-06
8.5036e-06
8.14439e-06
8.00506e-06
7.6691e-06
6.9618e-06
6.26561e-06
5.19708e-06
4.68573e-06
4.00573e-06
2.77663e-06
2.09262e-06
1.40251e-06
5.27529e-07
3.56179e-07
-4.04403e-09
-2.02202e-09
-1.416e-08
3.45058e-07
6.99214e-07
1.0524e-06
1.39944e-06
1.74449e-06
2.08652e-06
2.42753e-06
2.7645e-06
3.68764e-06
3.98349e-06
4.69386e-06
4.85506e-06
5.56742e-06
5.89831e-06
6.99111e-06
7.32606e-06
7.49438e-06
7.79731e-06
8.18348e-06
8.53865e-06
8.9009e-06
8.68102e-06
8.85068e-06
8.89887e-06
8.54172e-06
7.98382e-06
7.81854e-06
7.15235e-06
6.24843e-06
5.56135e-06
4.67157e-06
3.82495e-06
2.76854e-06
2.08652e-06
1.3964e-06
6.96181e-07
3.56213e-07
-4.04403e-09
-2.02202e-09
-1.8584e-07
3.43036e-07
6.98203e-07
8.37531e-07
1.39438e-06
1.73843e-06
2.25116e-06
2.41745e-06
3.13386e-06
3.46877e-06
4.18113e-06
4.51105e-06
5.60078e-06
5.55023e-06
6.26162e-06
6.59252e-06
7.68729e-06
7.64483e-06
8.15652e-06
8.54269e-06
8.85776e-06
8.87768e-06
9.24797e-06
9.20791e-06
8.87764e-06
8.89887e-06
8.55179e-06
7.7973e-06
7.51257e-06
6.81943e-06
5.75397e-06
4.86723e-06
3.81281e-06
3.13892e-06
2.08049e-06
1.39438e-06
6.92137e-07
1.44388e-07
-4.04403e-09
-1.72697e-07
-2.25945e-07
3.42025e-07
6.9517e-07
1.0433e-06
1.21865e-06
1.73236e-06
2.07337e-06
2.79079e-06
3.12472e-06
3.45664e-06
4.16798e-06
4.8773e-06
5.58764e-06
6.29594e-06
6.4542e-06
7.12644e-06
7.45832e-06
7.83438e-06
8.34506e-06
8.86281e-06
9.21495e-06
9.40454e-06
9.22472e-06
9.18462e-06
9.23382e-06
9.21596e-06
8.49046e-06
8.15551e-06
7.28258e-06
6.59046e-06
6.1182e-06
4.85203e-06
4.18113e-06
3.12877e-06
2.07236e-06
1.38831e-06
6.90115e-07
3.52135e-07
-1.74719e-07
-2.02788e-09
3.62245e-07
3.38992e-07
6.92137e-07
1.04124e-06
1.38531e-06
1.72629e-06
2.44573e-06
2.78169e-06
3.11562e-06
3.99764e-06
4.15588e-06
4.86416e-06
5.57247e-06
5.89832e-06
6.60768e-06
7.31801e-06
7.85966e-06
8.15454e-06
8.4945e-06
8.87966e-06
9.02101e-06
9.76274e-06
9.54181e-06
9.37012e-06
9.76067e-06
9.19271e-06
8.67596e-06
8.55284e-06
7.6418e-06
7.16146e-06
6.26966e-06
5.2173e-06
4.16899e-06
3.32842e-06
2.44674e-06
1.38427e-06
6.88093e-07
1.83476e-07
-6.06605e-09
-2.02202e-09
3.62245e-07
1.67306e-07
6.88093e-07
1.03618e-06
1.38022e-06
1.72023e-06
2.43764e-06
2.77259e-06
3.486e-06
3.81686e-06
4.73392e-06
4.85203e-06
5.76707e-06
6.2636e-06
6.59147e-06
7.68022e-06
7.83944e-06
8.55386e-06
8.85375e-06
9.23689e-06
9.58797e-06
9.73843e-06
1.01067e-05
1.01057e-05
1.01158e-05
9.54787e-06
9.24292e-06
8.52858e-06
8.20977e-06
7.30989e-06
6.63191e-06
5.58156e-06
4.15483e-06
3.48899e-06
2.43865e-06
1.3782e-06
6.86065e-07
3.52175e-07
-1.74719e-07
-2.02202e-09
3.62239e-07
3.35959e-07
4.76303e-07
1.03218e-06
1.37516e-06
2.0946e-06
2.43157e-06
2.76349e-06
3.68561e-06
3.80473e-06
4.51202e-06
5.38899e-06
5.54214e-06
6.24746e-06
6.95371e-06
7.45023e-06
7.98989e-06
8.49348e-06
9.21191e-06
9.55394e-06
9.90607e-06
9.7142e-06
1.0463e-05
1.00805e-05
9.71113e-06
1.01128e-05
9.76876e-06
9.0564e-06
8.3582e-06
7.29068e-06
6.61371e-06
5.56539e-06
4.90157e-06
3.68865e-06
2.43056e-06
1.37416e-06
6.82021e-07
3.50113e-07
-6.06605e-09
-4.00416e-09
1.50454e-07
3.33976e-07
6.84049e-07
1.02911e-06
1.75157e-06
2.08858e-06
2.42453e-06
3.13685e-06
3.46573e-06
4.17404e-06
4.49888e-06
5.41292e-06
6.11723e-06
6.82146e-06
7.10618e-06
7.85157e-06
8.55988e-06
8.89179e-06
9.39944e-06
9.74147e-06
9.92093e-06
1.04498e-05
1.00562e-05
1.04346e-05
1.00653e-05
1.02582e-05
9.36304e-06
9.2018e-06
8.71539e-06
7.64887e-06
6.80326e-06
5.54619e-06
4.88538e-06
3.67449e-06
2.42247e-06
1.74853e-06
4.68209e-07
3.48085e-07
-1.74679e-07
-3.84487e-07
3.59212e-07
3.32926e-07
6.80039e-07
1.40449e-06
1.7455e-06
2.08251e-06
2.41543e-06
3.12775e-06
4.00775e-06
4.37172e-06
4.86618e-06
5.57045e-06
5.89225e-06
6.5945e-06
7.50752e-06
8.17371e-06
8.5006e-06
9.25105e-06
9.75663e-06
1.00976e-05
1.0238e-05
1.08039e-05
1.07908e-05
1.06181e-05
1.07989e-05
1.04417e-05
1.00966e-05
9.76779e-06
8.69113e-06
8.00607e-06
6.9527e-06
5.90944e-06
5.25167e-06
3.83304e-06
2.79284e-06
1.53068e-06
1.05644e-06
3.48085e-07
-4.04403e-09
-4.04403e-09
3.58201e-07
5.01578e-07
1.05745e-06
1.40045e-06
1.73948e-06
2.07641e-06
2.78977e-06
3.11866e-06
3.82697e-06
4.1518e-06
4.85405e-06
5.55634e-06
6.25652e-06
6.95776e-06
7.48932e-06
8.36326e-06
8.85978e-06
9.39843e-06
1.01138e-05
1.04538e-05
1.08019e-05
1.09894e-05
1.07645e-05
1.09321e-05
1.1152e-05
1.07948e-05
1.02791e-05
9.74147e-06
9.42573e-06
7.9818e-06
7.10113e-06
5.88922e-06
4.85506e-06
3.8209e-06
2.95337e-06
1.73438e-06
1.0524e-06
3.46069e-07
-6.06605e-09
-4.04403e-09
1.8752e-07
7.09324e-07
1.05539e-06
1.39641e-06
1.73442e-06
2.07034e-06
2.78169e-06
3.10956e-06
3.8169e-06
4.51909e-06
5.22236e-06
5.54214e-06
6.24136e-06
6.94157e-06
7.6418e-06
8.7255e-06
9.04933e-06
9.58697e-06
1.00916e-05
1.04296e-05
1.11571e-05
1.11318e-05
1.13285e-05
1.14961e-05
1.12944e-05
1.07655e-05
1.08039e-05
9.92292e-06
9.019e-06
8.33798e-06
7.28869e-06
6.46123e-06
5.42707e-06
3.80675e-06
2.77263e-06
1.72832e-06
1.04832e-06
3.46069e-07
-2.15834e-07
-4.04403e-09
1.47421e-07
7.07342e-07
1.05235e-06
1.22173e-06
1.73034e-06
2.44371e-06
2.77359e-06
3.48191e-06
3.80678e-06
4.50899e-06
5.41898e-06
6.0791e-06
6.60663e-06
7.51359e-06
8.17472e-06
8.70427e-06
9.0281e-06
9.94416e-06
1.04467e-05
1.06151e-05
1.11318e-05
1.11045e-05
1.16405e-05
1.16365e-05
1.14759e-05
1.14981e-05
1.11551e-05
1.04467e-05
9.37214e-06
8.86386e-06
7.85464e-06
6.78034e-06
5.19911e-06
4.17304e-06
2.76248e-06
1.72022e-06
1.04427e-06
3.44086e-07
-6.06605e-09
-2.13812e-07
1.85504e-07
7.0528e-07
1.04832e-06
1.38932e-06
1.72528e-06
2.43764e-06
2.9372e-06
3.47285e-06
4.34573e-06
4.8773e-06
5.19607e-06
6.10404e-06
6.59146e-06
7.28663e-06
8.36528e-06
9.06352e-06
9.55697e-06
1.00916e-05
1.08039e-05
1.07605e-05
1.11045e-05
1.16684e-05
1.20317e-05
1.21983e-05
1.16563e-05
1.16394e-05
1.15062e-05
1.06272e-05
9.93405e-06
8.87663e-06
8.00202e-06
6.79719e-06
5.73405e-06
4.15888e-06
3.34258e-06
2.09663e-06
1.04225e-06
3.42019e-07
-6.07191e-09
-4.00416e-09
3.54151e-07
7.02287e-07
1.04532e-06
1.38431e-06
2.09965e-06
2.43056e-06
3.13888e-06
3.46375e-06
4.16494e-06
4.86517e-06
5.56337e-06
6.43023e-06
6.95472e-06
8.03033e-06
8.3461e-06
9.42472e-06
9.74348e-06
1.04498e-05
1.11591e-05
1.14951e-05
1.14587e-05
1.19805e-05
1.17926e-05
1.2169e-05
1.21771e-05
1.21993e-05
1.14769e-05
1.09783e-05
1.02471e-05
9.22978e-06
8.14843e-06
7.11731e-06
5.54315e-06
4.69381e-06
3.12068e-06
2.08858e-06
1.03821e-06
3.40003e-07
-6.06605e-09
-4.00416e-09
3.53146e-07
4.91468e-07
1.04225e-06
1.37925e-06
2.0946e-06
2.42349e-06
3.13079e-06
3.83405e-06
4.15483e-06
4.85304e-06
5.55023e-06
6.41611e-06
6.93959e-06
7.8415e-06
8.7073e-06
9.40348e-06
9.72124e-06
1.06343e-05
1.09241e-05
1.18482e-05
1.18098e-05
1.25424e-05
1.21447e-05
1.28995e-05
1.25262e-05
1.25484e-05
1.14445e-05
1.13284e-05
1.04286e-05
9.58292e-06
8.33191e-06
7.30381e-06
6.11314e-06
4.50697e-06
3.48899e-06
2.08045e-06
1.03214e-06
3.3802e-07
-6.06605e-09
-1.76746e-07
3.52175e-07
6.99208e-07
1.03922e-06
1.37521e-06
2.08753e-06
2.41745e-06
3.12375e-06
3.82494e-06
4.52517e-06
5.22134e-06
5.91652e-06
6.78135e-06
7.30281e-06
8.37438e-06
8.89685e-06
9.59202e-06
1.00805e-05
1.09524e-05
1.1489e-05
1.20317e-05
1.25434e-05
1.27228e-05
1.28753e-05
1.28682e-05
1.28753e-05
1.28975e-05
1.19643e-05
1.16775e-05
1.09874e-05
9.89394e-06
8.85675e-06
7.48936e-06
6.47337e-06
5.03989e-06
3.47686e-06
2.07034e-06
1.02814e-06
3.37981e-07
-6.06605e-09
-6.02618e-09
1.80449e-07
6.96181e-07
1.03517e-06
1.75157e-06
2.0815e-06
3.00055e-06
3.11461e-06
3.98551e-06
4.68476e-06
5.20922e-06
6.11314e-06
6.76618e-06
7.28461e-06
8.35618e-06
8.87768e-06
9.53271e-06
1.04376e-05
1.11379e-05
1.18431e-05
1.21751e-05
1.28955e-05
1.30739e-05
1.32244e-05
1.32173e-05
1.30527e-05
1.28642e-05
1.25232e-05
1.18169e-05
1.15082e-05
1.02852e-05
9.41864e-06
7.80438e-06
6.45112e-06
5.02169e-06
3.67247e-06
2.61539e-06
1.40449e-06
3.35998e-07
-8.04819e-09
-1.76746e-07
3.50107e-07
6.94159e-07
1.03214e-06
1.74651e-06
2.07641e-06
2.7827e-06
3.48697e-06
4.01652e-06
4.50292e-06
5.19708e-06
5.88825e-06
7.13045e-06
7.64888e-06
8.33802e-06
9.2379e-06
1.01007e-05
1.07948e-05
1.1494e-05
1.20266e-05
1.23565e-05
1.32466e-05
1.33849e-05
1.34028e-05
1.33947e-05
1.35705e-05
1.35917e-05
1.26594e-05
1.25444e-05
1.14758e-05
1.05952e-05
9.56e-06
8.15955e-06
6.8073e-06
5.38393e-06
3.99967e-06
2.43465e-06
1.39843e-06
3.35959e-07
-8.08807e-09
-1.76701e-07
1.38322e-07
6.92137e-07
1.0291e-06
1.74146e-06
2.07135e-06
2.77663e-06
3.47787e-06
4.17708e-06
4.87225e-06
5.77419e-06
6.25551e-06
6.94461e-06
7.63169e-06
8.70022e-06
9.59808e-06
1.02872e-05
1.09423e-05
1.16394e-05
1.25515e-05
1.26696e-05
1.32163e-05
1.35644e-05
1.39216e-05
1.37418e-05
1.37088e-05
1.39398e-05
1.32153e-05
1.28915e-05
1.22044e-05
1.09443e-05
9.91113e-06
8.72247e-06
7.1264e-06
5.19308e-06
3.98555e-06
2.42251e-06
1.39236e-06
3.31909e-07
-2.17856e-07
-6.02618e-09
3.48091e-07
6.90115e-07
1.02506e-06
1.73843e-06
2.44573e-06
2.76955e-06
3.46982e-06
4.16697e-06
5.07089e-06
5.76105e-06
6.45112e-06
7.30887e-06
8.20471e-06
8.89079e-06
9.36709e-06
1.02259e-05
1.13375e-05
1.19946e-05
1.23144e-05
1.30598e-05
1.35684e-05
1.39135e-05
1.42697e-05
1.42585e-05
1.42636e-05
1.42848e-05
1.37701e-05
1.30658e-05
1.25495e-05
1.12924e-05
9.87982e-06
8.6942e-06
7.3119e-06
5.76303e-06
4.38891e-06
2.79281e-06
1.21764e-06
7.10335e-07
-8.09393e-09
-6.06605e-09
3.46063e-07
6.87082e-07
1.40146e-06
1.73337e-06
2.43966e-06
2.76248e-06
3.46169e-06
4.15584e-06
4.84899e-06
5.91955e-06
6.81741e-06
7.46341e-06
8.14742e-06
9.42269e-06
9.93607e-06
1.07938e-05
1.12742e-05
1.21771e-05
1.26666e-05
1.34109e-05
1.39175e-05
1.42616e-05
1.46178e-05
1.46056e-05
1.46087e-05
1.46299e-05
1.40761e-05
1.34119e-05
1.26857e-05
1.18482e-05
1.04397e-05
9.04633e-06
7.4563e-06
6.12325e-06
4.33157e-06
2.78068e-06
1.17046e-06
7.08313e-07
-8.08807e-09
-1.76741e-07
3.45058e-07
5.13375e-07
1.39943e-06
1.72832e-06
2.43364e-06
3.13483e-06
3.83202e-06
4.52719e-06
5.21831e-06
6.28685e-06
6.59248e-06
7.82768e-06
8.72045e-06
9.40352e-06
1.00865e-05
1.09422e-05
1.16695e-05
1.23606e-05
1.32294e-05
1.37631e-05
1.42666e-05
1.46097e-05
1.47931e-05
1.49507e-05
1.49537e-05
1.4973e-05
1.44602e-05
1.37158e-05
1.30699e-05
1.20236e-05
1.04063e-05
9.01596e-06
7.63978e-06
5.89124e-06
4.52521e-06
2.77057e-06
1.37618e-06
7.06291e-07
-8.08807e-09
-8.08807e-09
3.44047e-07
6.81016e-07
1.3954e-06
1.72225e-06
2.42757e-06
3.12775e-06
3.82495e-06
4.89752e-06
5.20622e-06
6.27371e-06
7.16753e-06
7.81045e-06
8.32286e-06
9.76471e-06