/*--------------------------------*- C++ -*----------------------------------*\
  =========                 |
  \\      /  F ield         | OpenFOAM: The Open Source CFD Toolbox
   \\    /   O peration     | Website:  https://openfoam.org
    \\  /    A nd           | Version:  8
     \\/     M anipulation  |
\*---------------------------------------------------------------------------*/
FoamFile
{
    version     2.0;
    format      ascii;
    class       volScalarField;
    location    "20000/gas";
    object      qr;
}
// * * * * * * * * * * * * * * * * * * * * * * * * * * * * * * * * * * * * * //

dimensions      [1 0 -3 0 0 0 0];

internalField   uniform 0;

boundaryField
{
    inletFuel
    {
        type            calculated;
        value           nonuniform List<scalar> 4(633.49 633.487 633.479 633.467);
    }
    inletAir
    {
        type            calculated;
        value           nonuniform List<scalar> 
32
(
638.556
638.569
638.581
638.591
638.599
638.606
638.612
638.617
638.622
638.625
638.628
638.63
638.631
638.632
638.632
638.632
638.631
638.629
638.627
638.625
638.622
638.618
638.614
638.61
638.604
638.599
638.592
638.585
638.578
638.569
638.56
638.55
)
;
    }
    outlet
    {
        type            calculated;
        value           nonuniform List<scalar> 
40
(
-1309.21
-1918.09
-2236.79
-2445.19
-2601.85
-2728.53
-2835.45
-2928.22
-3010.27
-3083.78
-3150.21
-3210.58
-3265.6
-3315.76
-3361.41
-3402.77
-3439.99
-3473.12
-3502.18
-3527.09
-3547.76
-3564.02
-3575.65
-3582.4
-3583.92
-3579.81
-3569.57
-3552.62
-3528.23
-3495.51
-3453.34
-3400.3
-3334.48
-3253.3
-3152.98
-3027.67
-2867.4
-2652.88
-2339.53
-1800.54
)
;
    }
    wedgeNeg
    {
        type            wedge;
    }
    wedgePos
    {
        type            wedge;
    }
    gas_to_solid
    {
        type            calculated;
        value           nonuniform List<scalar> 
692
(
429.194
422.425
415.611
408.749
401.834
394.862
387.829
380.731
373.562
366.318
358.993
351.582
344.081
336.482
328.782
320.972
313.049
305.004
296.833
288.527
280.081
271.487
262.738
253.827
244.745
235.484
226.037
216.395
206.548
196.489
186.208
175.697
164.949
153.959
142.733
131.293
119.7
108.114
96.9256
87.1408
433.917
427.137
420.307
413.423
406.479
399.472
392.396
385.249
378.024
370.717
363.323
355.837
348.254
340.568
332.774
324.866
316.837
308.683
300.395
291.969
283.397
274.672
265.787
256.735
247.508
238.098
228.497
218.696
208.687
198.46
188.006
177.313
166.369
155.16
143.663
131.847
119.656
106.992
93.6834
84.1829
76.801
71.1469
79.4765
71.9049
296.753
285.161
273.701
262.379
251.198
240.159
229.265
218.517
207.916
197.461
187.152
176.989
166.972
157.1
147.372
137.788
128.345
119.043
109.88
100.856
91.9684
83.2163
74.5981
66.1121
57.7569
49.5308
41.4321
33.4593
25.6106
17.8844
10.2791
2.7928
-4.57604
-11.8291
-18.9681
-25.9947
-32.9106
-39.7173
-46.4166
-53.0099
305.447
293.687
282.056
270.566
259.219
248.017
236.961
226.052
215.29
204.674
194.205
183.883
173.707
163.676
153.79
144.047
134.446
124.987
115.668
106.487
97.4437
88.5363
79.7634
71.1234
62.6148
54.2359
45.9853
37.8613
29.8621
21.9863
14.232
6.59768
-0.91837
-8.31782
-15.6023
-22.7735
-29.8331
-36.7827
-43.624
-50.3584
617.345
616.372
615.463
614.611
613.813
613.064
612.36
611.697
611.072
610.483
609.926
609.398
608.898
608.423
607.972
607.541
607.131
606.739
606.363
606.003
605.658
605.326
605.006
604.697
604.399
604.111
603.832
603.562
603.299
603.044
602.796
602.554
602.319
602.088
601.863
601.643
601.427
601.216
601.008
600.803
-59.4986
-65.9033
-72.2219
-78.4411
-84.5626
-90.5879
-96.5185
-102.356
-108.101
-113.756
-119.323
-124.801
-130.194
-135.501
-140.725
-145.867
-150.927
-155.908
-160.81
-165.635
-170.383
-175.057
-179.656
-184.182
-188.637
-193.02
-197.334
-201.579
-205.756
-209.866
-213.91
-217.889
-221.803
-225.654
-229.442
-233.168
-236.832
-240.436
-243.981
-247.466
-250.893
-254.261
-257.572
-260.827
-264.025
-267.168
-270.255
-273.288
-276.267
-279.191
-282.062
-284.881
-287.646
-290.36
-293.021
-295.632
-298.192
-300.703
-303.165
-305.579
-307.945
-310.265
-312.564
-314.838
-317.068
-319.255
-321.399
-323.501
-325.562
-327.582
-329.563
-331.503
-333.405
-335.269
-337.094
-338.883
-340.635
-342.35
-344.03
-345.675
-347.284
-348.86
-350.401
-351.91
-353.385
-354.827
-356.238
-357.617
-358.964
-360.281
-361.567
-362.824
-364.051
-365.248
-366.417
-367.557
-368.67
-369.755
-370.813
-371.845
-372.851
-373.832
-374.787
-375.719
-376.627
-377.512
-378.375
-379.216
-380.036
-380.836
-381.617
-382.379
-383.124
-383.85
-384.559
-385.248
-385.909
-386.529
-387.07
-387.436
-56.9876
-63.5289
-69.9867
-76.3437
-82.6018
-88.7626
-94.8276
-100.798
-106.676
-112.463
-118.159
-123.767
-129.288
-134.723
-140.073
-145.34
-150.525
-155.628
-160.653
-165.598
-170.466
-175.258
-179.975
-184.618
-189.188
-193.685
-198.112
-202.469
-206.756
-210.976
-215.128
-219.213
-223.234
-227.189
-231.08
-234.909
-238.674
-242.378
-246.02
-249.603
-253.125
-256.588
-259.992
-263.339
-266.628
-269.859
-273.035
-276.154
-279.217
-282.225
-285.179
-288.078
-290.922
-293.713
-296.449
-299.132
-301.762
-304.34
-306.868
-309.346
-311.776
-314.158
-316.514
-318.848
-321.136
-323.38
-325.578
-327.734
-329.846
-331.917
-333.946
-335.934
-337.881
-339.789
-341.658
-343.487
-345.278
-347.032
-348.748
-350.427
-352.071
-353.678
-355.25
-356.787
-358.288
-359.756
-361.191
-362.591
-363.959
-365.294
-366.598
-367.869
-369.109
-370.319
-371.498
-372.646
-373.764
-374.855
-375.913
-376.946
-377.949
-378.926
-379.876
-380.799
-381.697
-382.569
-383.417
-384.24
-385.04
-385.817
-386.572
-387.306
-388.021
-388.716
-389.396
-390.064
-390.727
-391.4
-392.109
-388.011
-389.895
-391.402
-392.903
-392.77
600.601
600.401
600.203
600.007
599.813
599.62
599.429
599.238
599.048
598.86
598.671
598.483
598.294
598.106
597.918
597.73
597.541
597.351
597.161
596.971
596.779
596.586
596.392
596.196
596
595.802
595.602
595.4
595.196
594.99
594.781
594.57
594.357
594.141
593.92
593.697
593.471
593.241
593.006
592.766
592.52
592.27
592.013
591.75
591.482
591.204
590.918
590.622
590.312
589.991
589.663
589.326
588.983
588.633
588.277
587.916
587.549
587.178
586.803
586.423
586.04
585.654
585.265
584.872
584.477
584.08
583.68
583.278
582.875
582.469
582.062
581.652
581.241
580.828
580.413
579.996
579.576
579.154
578.729
578.3
577.867
577.43
576.988
576.54
576.086
575.626
575.157
574.68
574.192
573.695
573.185
572.663
572.127
571.576
571.008
570.424
569.821
569.198
568.555
567.889
567.202
566.49
565.755
564.993
564.206
563.393
562.552
561.684
560.788
559.865
558.914
557.936
556.93
555.899
554.841
553.759
552.654
551.527
550.381
549.218
272.982
272.729
272.175
271.342
270.243
268.889
267.292
265.434
263.327
260.973
258.368
255.527
252.463
249.18
245.699
242.025
238.174
234.193
230.067
225.824
221.383
216.778
212.191
207.734
203.503
199.606
196.151
193.248
191.022
189.62
189.329
190.641
192.984
196.181
200.137
204.782
210.055
215.9
222.263
229.094
236.346
243.972
251.93
260.166
548.04
546.85
545.652
544.449
543.246
542.047
540.857
539.683
538.53
537.407
536.32
535.277
534.289
533.364
532.513
531.746
531.075
530.511
530.067
529.753
529.583
529.566
529.715
530.039
530.547
531.246
532.142
533.235
534.527
536.013
537.685
539.53
541.531
543.664
545.893
548.155
550.341
552.293
554.055
268.656
277.347
286.196
295.166
304.218
313.319
322.438
331.544
340.613
349.622
358.55
367.379
376.093
384.677
393.122
401.415
409.551
417.523
425.327
432.961
440.423
447.712
454.83
461.775
468.553
475.171
481.633
487.947
494.117
500.148
506.046
511.815
517.455
522.963
528.269
533.397
538.362
543.151
547.739
555.49
552.078
)
;
    }
}


// ************************************************************************* //
