/*--------------------------------*- C++ -*----------------------------------*\
  =========                 |
  \\      /  F ield         | OpenFOAM: The Open Source CFD Toolbox
   \\    /   O peration     | Website:  https://openfoam.org
    \\  /    A nd           | Version:  8
     \\/     M anipulation  |
\*---------------------------------------------------------------------------*/
FoamFile
{
    version     2.0;
    format      ascii;
    class       volScalarField;
    location    "20000/gas";
    object      rho;
}
// * * * * * * * * * * * * * * * * * * * * * * * * * * * * * * * * * * * * * //

dimensions      [1 -3 0 0 0 0 0];

internalField   nonuniform List<scalar> 
16000
(
6.43168
6.43167
6.4316
6.42981
6.43167
6.43159
6.43078
6.42171
6.43164
6.43138
6.4295
6.41422
6.43154
6.43105
6.42799
6.40707
6.43132
6.43053
6.42623
6.40016
6.43097
6.42982
6.42419
6.39341
6.4305
6.42891
6.42188
6.38676
6.4299
6.42782
6.41932
6.38021
6.42916
6.42653
6.41656
6.37374
6.42827
6.42507
6.41363
6.36733
6.42723
6.42344
6.41057
6.36096
6.42603
6.42166
6.4074
6.35461
6.42467
6.41973
6.40411
6.34829
6.42315
6.41765
6.40072
6.34198
6.42148
6.41544
6.39722
6.33566
6.41966
6.4131
6.39362
6.32933
6.41769
6.41063
6.38993
6.32297
6.41559
6.40805
6.38616
6.31657
6.41335
6.40536
6.38232
6.31012
6.411
6.40257
6.3784
6.30362
6.40853
6.39969
6.37441
6.29707
6.40596
6.39672
6.37036
6.29045
6.4033
6.39366
6.36624
6.28377
6.40054
6.39053
6.36206
6.27703
6.3977
6.38732
6.35782
6.27021
6.39479
6.38404
6.35352
6.26332
6.3918
6.38069
6.34917
6.25635
6.38874
6.37728
6.34476
6.2493
6.38562
6.37381
6.34029
6.24217
6.38243
6.37028
6.33577
6.23495
6.37919
6.36668
6.33119
6.22763
6.37588
6.36304
6.32656
6.22023
6.37253
6.35933
6.32187
6.21272
6.36912
6.35558
6.31713
6.20511
6.36566
6.35178
6.31233
6.1974
6.36215
6.34793
6.30748
6.18958
6.3586
6.34403
6.30257
6.18166
6.35501
6.3401
6.29763
6.17366
6.35136
6.33607
6.29239
6.16496
6.34771
6.33226
6.28903
6.16718
11.531
11.5323
11.5324
11.5324
11.5324
11.5324
11.5324
11.5324
11.5324
11.5324
11.5324
11.5324
11.5324
11.5324
11.5324
11.5324
11.5324
11.5324
11.5324
11.5324
11.5324
11.5324
11.5324
11.5324
11.5324
11.5324
11.5324
11.5324
11.5324
11.5324
11.5323
11.5298
11.5249
11.5317
11.5322
11.5323
11.5324
11.5324
11.5324
11.5324
11.5324
11.5324
11.5324
11.5324
11.5324
11.5324
11.5324
11.5324
11.5324
11.5324
11.5324
11.5324
11.5324
11.5324
11.5324
11.5324
11.5324
11.5324
11.5324
11.5324
11.5323
11.5322
11.5313
11.5184
11.5192
11.5307
11.5319
11.5322
11.5323
11.5323
11.5324
11.5324
11.5324
11.5324
11.5324
11.5324
11.5324
11.5324
11.5324
11.5324
11.5324
11.5324
11.5324
11.5324
11.5324
11.5324
11.5324
11.5324
11.5324
11.5324
11.5323
11.5323
11.5322
11.5318
11.53
11.5072
11.5139
11.5294
11.5314
11.532
11.5322
11.5323
11.5323
11.5324
11.5324
11.5324
11.5324
11.5324
11.5324
11.5324
11.5324
11.5324
11.5324
11.5324
11.5324
11.5324
11.5324
11.5324
11.5324
11.5324
11.5323
11.5323
11.5323
11.5322
11.532
11.5313
11.5283
11.4964
11.509
11.5279
11.5308
11.5317
11.532
11.5322
11.5323
11.5323
11.5323
11.5324
11.5324
11.5324
11.5324
11.5324
11.5324
11.5324
11.5324
11.5324
11.5324
11.5324
11.5324
11.5324
11.5323
11.5323
11.5323
11.5322
11.5322
11.532
11.5317
11.5307
11.5264
11.4857
11.5043
11.5262
11.5301
11.5313
11.5318
11.532
11.5322
11.5323
11.5323
11.5323
11.5324
11.5324
11.5324
11.5324
11.5324
11.5324
11.5324
11.5324
11.5324
11.5324
11.5324
11.5323
11.5323
11.5323
11.5322
11.5322
11.532
11.5318
11.5314
11.53
11.5243
11.4753
11.4998
11.5245
11.5293
11.5308
11.5315
11.5319
11.5321
11.5322
11.5323
11.5323
11.5323
11.5324
11.5324
11.5324
11.5324
11.5324
11.5324
11.5324
11.5324
11.5323
11.5323
11.5323
11.5323
11.5322
11.5322
11.5321
11.5319
11.5316
11.531
11.5292
11.522
11.4652
11.4956
11.5227
11.5283
11.5303
11.5312
11.5317
11.5319
11.5321
11.5322
11.5323
11.5323
11.5323
11.5323
11.5324
11.5324
11.5324
11.5324
11.5324
11.5323
11.5323
11.5323
11.5323
11.5322
11.5322
11.5321
11.5319
11.5317
11.5313
11.5305
11.5282
11.5195
11.4553
11.4915
11.5208
11.5273
11.5298
11.5309
11.5315
11.5318
11.532
11.5321
11.5322
11.5323
11.5323
11.5323
11.5323
11.5323
11.5323
11.5323
11.5323
11.5323
11.5323
11.5323
11.5322
11.5322
11.5321
11.532
11.5318
11.5315
11.531
11.5299
11.5272
11.5168
11.4457
11.4875
11.5188
11.5263
11.5291
11.5305
11.5312
11.5316
11.5319
11.532
11.5321
11.5322
11.5323
11.5323
11.5323
11.5323
11.5323
11.5323
11.5323
11.5323
11.5323
11.5322
11.5322
11.5321
11.532
11.5318
11.5316
11.5312
11.5306
11.5293
11.526
11.514
11.4364
11.4837
11.5168
11.5252
11.5285
11.5301
11.5309
11.5314
11.5317
11.5319
11.5321
11.5322
11.5322
11.5323
11.5323
11.5323
11.5323
11.5323
11.5323
11.5322
11.5322
11.5322
11.5321
11.532
11.5319
11.5317
11.5314
11.5309
11.5302
11.5286
11.5247
11.5111
11.4274
11.4799
11.5148
11.524
11.5278
11.5296
11.5306
11.5312
11.5316
11.5318
11.532
11.5321
11.5322
11.5322
11.5322
11.5323
11.5323
11.5323
11.5322
11.5322
11.5322
11.5321
11.532
11.5319
11.5317
11.5315
11.5312
11.5306
11.5296
11.5278
11.5232
11.508
11.4187
11.4762
11.5128
11.5229
11.527
11.5291
11.5303
11.531
11.5314
11.5317
11.5319
11.532
11.5321
11.5322
11.5322
11.5322
11.5322
11.5322
11.5322
11.5322
11.5321
11.532
11.5319
11.5318
11.5316
11.5313
11.5309
11.5302
11.5291
11.5269
11.5217
11.5048
11.4104
11.4725
11.5107
11.5216
11.5262
11.5286
11.5299
11.5307
11.5312
11.5316
11.5318
11.5319
11.532
11.5321
11.5322
11.5322
11.5322
11.5322
11.5321
11.5321
11.532
11.5319
11.5318
11.5316
11.5314
11.5311
11.5306
11.5298
11.5285
11.5259
11.52
11.5015
11.4024
11.469
11.5086
11.5204
11.5254
11.528
11.5295
11.5304
11.531
11.5314
11.5317
11.5318
11.532
11.532
11.5321
11.5321
11.5321
11.5321
11.5321
11.532
11.5319
11.5318
11.5317
11.5315
11.5312
11.5308
11.5302
11.5293
11.5278
11.5249
11.5183
11.4982
11.3947
11.4654
11.5065
11.5191
11.5246
11.5274
11.5291
11.5301
11.5308
11.5312
11.5315
11.5317
11.5319
11.532
11.532
11.5321
11.5321
11.5321
11.532
11.532
11.5319
11.5317
11.5316
11.5313
11.531
11.5305
11.5298
11.5288
11.527
11.5237
11.5164
11.4948
11.3873
11.4618
11.5044
11.5178
11.5237
11.5268
11.5287
11.5298
11.5306
11.5311
11.5314
11.5316
11.5318
11.5319
11.532
11.532
11.532
11.532
11.5319
11.5319
11.5318
11.5316
11.5314
11.5311
11.5307
11.5302
11.5294
11.5282
11.5262
11.5225
11.5145
11.4913
11.3802
11.4583
11.5023
11.5164
11.5228
11.5262
11.5282
11.5295
11.5303
11.5309
11.5313
11.5315
11.5317
11.5318
11.5319
11.5319
11.5319
11.5319
11.5319
11.5318
11.5316
11.5315
11.5312
11.5309
11.5305
11.5298
11.5289
11.5276
11.5253
11.5212
11.5125
11.4878
11.3734
11.4547
11.5001
11.5151
11.5219
11.5256
11.5278
11.5291
11.5301
11.5307
11.5311
11.5314
11.5316
11.5317
11.5318
11.5319
11.5319
11.5318
11.5318
11.5317
11.5315
11.5313
11.531
11.5307
11.5302
11.5295
11.5284
11.5269
11.5244
11.5199
11.5104
11.4843
11.3668
11.4512
11.498
11.5137
11.521
11.5249
11.5273
11.5288
11.5298
11.5305
11.5309
11.5313
11.5315
11.5316
11.5317
11.5318
11.5318
11.5317
11.5317
11.5315
11.5314
11.5311
11.5308
11.5304
11.5298
11.5291
11.5279
11.5262
11.5234
11.5185
11.5083
11.4808
11.3605
11.4476
11.4958
11.5123
11.52
11.5242
11.5268
11.5284
11.5295
11.5302
11.5307
11.5311
11.5314
11.5315
11.5316
11.5317
11.5317
11.5316
11.5315
11.5314
11.5312
11.531
11.5306
11.5301
11.5295
11.5286
11.5273
11.5254
11.5224
11.5171
11.5061
11.4773
11.3543
11.4439
11.4936
11.5108
11.519
11.5235
11.5262
11.528
11.5292
11.53
11.5306
11.5309
11.5312
11.5314
11.5315
11.5316
11.5316
11.5315
11.5314
11.5313
11.5311
11.5308
11.5304
11.5298
11.5291
11.5281
11.5267
11.5247
11.5213
11.5156
11.5039
11.4739
11.3484
11.4403
11.4913
11.5094
11.518
11.5228
11.5257
11.5276
11.5289
11.5297
11.5303
11.5308
11.5311
11.5313
11.5314
11.5315
11.5315
11.5314
11.5313
11.5311
11.5309
11.5305
11.5301
11.5295
11.5287
11.5276
11.5261
11.5238
11.5202
11.514
11.5017
11.4704
11.3426
11.4365
11.4891
11.5079
11.517
11.522
11.5251
11.5272
11.5285
11.5295
11.5301
11.5306
11.5309
11.5311
11.5313
11.5313
11.5313
11.5313
11.5311
11.531
11.5307
11.5303
11.5298
11.5292
11.5283
11.5271
11.5254
11.523
11.5191
11.5125
11.4995
11.467
11.337
11.4327
11.4868
11.5064
11.5159
11.5213
11.5246
11.5267
11.5282
11.5292
11.5299
11.5304
11.5308
11.531
11.5311
11.5312
11.5312
11.5311
11.531
11.5308
11.5305
11.5301
11.5295
11.5288
11.5279
11.5266
11.5247
11.5221
11.5179
11.5109
11.4972
11.4636
11.3315
11.4289
11.4845
11.5049
11.5148
11.5205
11.524
11.5263
11.5278
11.5289
11.5297
11.5302
11.5306
11.5308
11.531
11.5311
11.5311
11.531
11.5308
11.5306
11.5303
11.5298
11.5292
11.5284
11.5274
11.526
11.524
11.5212
11.5167
11.5093
11.495
11.4602
11.3261
11.4249
11.4821
11.5033
11.5137
11.5196
11.5234
11.5258
11.5275
11.5286
11.5294
11.53
11.5304
11.5307
11.5308
11.5309
11.5309
11.5308
11.5306
11.5304
11.53
11.5295
11.5289
11.528
11.5269
11.5254
11.5233
11.5202
11.5155
11.5077
11.4927
11.4569
11.3209
11.4208
11.4797
11.5017
11.5125
11.5188
11.5227
11.5253
11.5271
11.5283
11.5292
11.5298
11.5302
11.5305
11.5307
11.5308
11.5307
11.5306
11.5304
11.5302
11.5298
11.5292
11.5285
11.5276
11.5264
11.5248
11.5225
11.5193
11.5143
11.506
11.4905
11.4536
11.3157
11.4166
11.4772
11.5
11.5114
11.5179
11.522
11.5248
11.5267
11.528
11.5289
11.5296
11.53
11.5303
11.5305
11.5306
11.5306
11.5305
11.5302
11.5299
11.5295
11.5289
11.5282
11.5272
11.5259
11.5241
11.5217
11.5183
11.513
11.5044
11.4882
11.4503
11.3105
11.4123
11.4746
11.4983
11.5101
11.517
11.5214
11.5242
11.5262
11.5276
11.5286
11.5293
11.5298
11.5301
11.5303
11.5304
11.5304
11.5303
11.53
11.5297
11.5292
11.5286
11.5278
11.5268
11.5254
11.5235
11.5209
11.5173
11.5117
11.5027
11.486
11.4471
11.3055
11.4078
11.472
11.4965
11.5089
11.5161
11.5206
11.5237
11.5258
11.5273
11.5283
11.5291
11.5296
11.5299
11.5301
11.5302
11.5302
11.53
11.5298
11.5294
11.5289
11.5283
11.5274
11.5263
11.5248
11.5228
11.5201
11.5163
11.5105
11.501
11.4837
11.4438
11.3005
11.4031
11.4692
11.4947
11.5075
11.5151
11.5199
11.5231
11.5253
11.5269
11.528
11.5288
11.5293
11.5297
11.5299
11.53
11.53
11.5298
11.5296
11.5292
11.5286
11.5279
11.527
11.5258
11.5242
11.5221
11.5193
11.5152
11.5092
11.4994
11.4815
11.4407
11.2956
11.3982
11.4664
11.4927
11.5061
11.514
11.5191
11.5225
11.5248
11.5265
11.5276
11.5285
11.5291
11.5295
11.5297
11.5298
11.5298
11.5296
11.5293
11.5289
11.5283
11.5276
11.5266
11.5253
11.5237
11.5214
11.5184
11.5142
11.5079
11.4977
11.4793
11.4375
11.2907
11.393
11.4633
11.4907
11.5047
11.5129
11.5182
11.5218
11.5243
11.526
11.5273
11.5282
11.5288
11.5292
11.5295
11.5296
11.5295
11.5294
11.5291
11.5286
11.528
11.5272
11.5262
11.5248
11.5231
11.5207
11.5176
11.5131
11.5066
11.4961
11.477
11.4344
11.2858
11.3874
11.4601
11.4885
11.5031
11.5117
11.5173
11.5211
11.5237
11.5256
11.5269
11.5279
11.5285
11.529
11.5292
11.5293
11.5293
11.5291
11.5288
11.5283
11.5277
11.5268
11.5257
11.5243
11.5225
11.52
11.5167
11.5121
11.5053
11.4944
11.4749
11.4313
11.281
11.3813
11.4565
11.4861
11.5013
11.5104
11.5163
11.5203
11.5231
11.525
11.5265
11.5275
11.5282
11.5287
11.529
11.5291
11.529
11.5289
11.5285
11.528
11.5273
11.5264
11.5253
11.5238
11.5218
11.5193
11.5158
11.511
11.5039
11.4927
11.4727
11.4282
11.2763
11.3741
11.4525
11.4834
11.4993
11.5088
11.5151
11.5193
11.5223
11.5244
11.526
11.5271
11.5279
11.5284
11.5287
11.5288
11.5288
11.5286
11.5282
11.5277
11.527
11.526
11.5248
11.5232
11.5212
11.5185
11.515
11.51
11.5026
11.4911
11.4705
11.4251
11.2716
11.3641
11.4472
11.4796
11.4964
11.5067
11.5134
11.5181
11.5214
11.5237
11.5254
11.5266
11.5275
11.528
11.5284
11.5285
11.5285
11.5283
11.5279
11.5274
11.5266
11.5256
11.5243
11.5227
11.5206
11.5178
11.5141
11.5089
11.5013
11.4894
11.4683
11.4221
11.2669
11.3339
11.4351
11.4713
11.4908
11.5029
11.5108
11.5162
11.52
11.5227
11.5246
11.526
11.527
11.5276
11.528
11.5282
11.5282
11.528
11.5276
11.527
11.5262
11.5252
11.5239
11.5221
11.5199
11.517
11.5132
11.5078
11.5
11.4878
11.4662
11.4191
11.2622
11.0764
11.3379
11.4352
11.4747
11.4943
11.5058
11.513
11.5178
11.5212
11.5235
11.5252
11.5263
11.5271
11.5276
11.5278
11.5278
11.5276
11.5272
11.5266
11.5258
11.5248
11.5234
11.5216
11.5193
11.5163
11.5123
11.5067
11.4987
11.4861
11.464
11.4161
11.2576
8.63424
8.22953
8.05137
7.94462
7.86882
7.81006
7.76211
7.72165
7.68672
7.65607
7.62888
7.60457
7.58274
7.56309
7.54542
7.52958
7.51545
7.50297
7.4921
7.48282
7.47515
7.46913
7.4648
7.46226
7.46161
7.463
7.46662
7.4727
7.48153
7.49349
7.50909
7.52896
7.55402
7.58553
7.62543
7.67681
7.74516
7.84168
7.99431
8.29647
8.57987
8.20257
8.03589
7.93429
7.86122
7.80408
7.75719
7.71744
7.68302
7.65275
7.62584
7.60175
7.58009
7.56058
7.54302
7.52726
7.5132
7.50077
7.48994
7.48069
7.47304
7.46702
7.46269
7.46013
7.45947
7.46083
7.46441
7.47044
7.47921
7.49111
7.50662
7.52641
7.55136
7.58275
7.6225
7.67371
7.74185
7.83809
7.99023
8.29135
8.5308
8.1747
8.01724
7.92051
7.85041
7.79524
7.7497
7.71093
7.67723
7.64751
7.62103
7.59728
7.5759
7.55661
7.53923
7.52362
7.50969
7.49736
7.48661
7.47743
7.46984
7.46386
7.45956
7.45703
7.45638
7.45774
7.46132
7.46734
7.47609
7.48796
7.50344
7.52319
7.54811
7.57946
7.61918
7.67034
7.73843
7.83456
7.98638
8.28579
8.49381
8.15045
7.99912
7.90607
7.83848
7.78512
7.74092
7.70316
7.67025
7.64114
7.61516
7.59181
7.57075
7.55174
7.53459
7.51918
7.50541
7.49322
7.4826
7.47352
7.46601
7.46011
7.45587
7.45339
7.45278
7.45418
7.45778
7.46381
7.47257
7.48445
7.49993
7.51968
7.54458
7.57593
7.61563
7.66676
7.73478
7.83077
7.98215
8.27984
8.46413
8.12962
7.98253
7.89215
7.82653
7.77469
7.73166
7.69484
7.66268
7.63418
7.6087
7.58577
7.56507
7.54635
7.52946
7.51427
7.50069
7.48867
7.47819
7.46924
7.46184
7.45603
7.45188
7.44946
7.44891
7.45036
7.454
7.46006
7.46885
7.48075
7.49624
7.516
7.5409
7.57224
7.61191
7.663
7.73094
7.82674
7.97767
8.27362
8.43933
8.11154
7.96755
7.87916
7.81506
7.76444
7.72241
7.68641
7.65492
7.627
7.602
7.57947
7.55912
7.54071
7.52408
7.50911
7.49573
7.48389
7.47357
7.46476
7.45748
7.45178
7.44772
7.44539
7.4449
7.44641
7.4501
7.4562
7.46502
7.47693
7.49244
7.5122
7.5371
7.56842
7.60806
7.65909
7.72693
7.82253
7.97297
8.26719
8.41788
8.09557
7.95401
7.86715
7.80426
7.75461
7.71342
7.67812
7.64723
7.61982
7.59526
7.57312
7.5531
7.53498
7.51861
7.50387
7.49069
7.47903
7.46887
7.4602
7.45304
7.44745
7.44349
7.44124
7.44083
7.44239
7.44613
7.45227
7.46111
7.47304
7.48856
7.50831
7.5332
7.56449
7.60409
7.65505
7.72277
7.81815
7.9681
8.26061
8.39884
8.08125
7.9417
7.85608
7.79414
7.74531
7.7048
7.6701
7.63973
7.61277
7.58861
7.56683
7.54712
7.52928
7.51315
7.49863
7.48565
7.47416
7.46415
7.45562
7.44859
7.44311
7.43924
7.43707
7.43672
7.43834
7.44212
7.44829
7.45715
7.46909
7.4846
7.50434
7.52921
7.56046
7.60001
7.65089
7.71848
7.81363
7.96307
8.25391
8.38161
8.06824
7.93042
7.84583
7.7847
7.73653
7.69661
7.66241
7.6325
7.60594
7.58214
7.56067
7.54125
7.52366
7.50776
7.49345
7.48065
7.46933
7.45947
7.45107
7.44416
7.43878
7.435
7.4329
7.43261
7.43428
7.43809
7.44428
7.45316
7.46509
7.48059
7.50031
7.52514
7.55635
7.59583
7.64663
7.71408
7.80899
7.95792
8.24712
8.3658
8.05628
7.91998
7.8363
7.77586
7.72826
7.68883
7.65508
7.62556
7.59936
7.57587
7.55469
7.53552
7.51817
7.50248
7.48836
7.47574
7.46457
7.45485
7.44657
7.43977
7.43448
7.43077
7.42874
7.42851
7.43021
7.43405
7.44025
7.44913
7.46105
7.47653
7.49621
7.52099
7.55215
7.59156
7.64226
7.70957
7.80424
7.95264
8.24026
8.35113
8.04517
7.91027
7.82739
7.76755
7.72046
7.68146
7.64809
7.61892
7.59302
7.56982
7.54889
7.52996
7.51282
7.49733
7.48338
7.47092
7.45989
7.4503
7.44213
7.43542
7.43022
7.42658
7.42461
7.42441
7.42615
7.43
7.4362
7.44507
7.45697
7.47241
7.49205
7.51678
7.54787
7.58721
7.63781
7.70497
7.79939
7.94728
8.23331
8.33741
8.03477
7.90115
7.81901
7.75971
7.71307
7.67446
7.64143
7.61256
7.58694
7.56399
7.5433
7.52458
7.50763
7.49231
7.47852
7.4662
7.4553
7.44582
7.43775
7.43113
7.426
7.42242
7.42049
7.42033
7.42208
7.42594
7.43214
7.44098
7.45285
7.46825
7.48783
7.5125
7.54352
7.58277
7.63327
7.70029
7.79447
7.94184
8.22628
8.32449
8.02496
7.89254
7.81109
7.75229
7.70605
7.66779
7.63507
7.60647
7.5811
7.55838
7.53789
7.51936
7.50258
7.48742
7.47378
7.46158
7.4508
7.44142
7.43344
7.4269
7.42183
7.4183
7.41641
7.41626
7.41802
7.42187
7.42805
7.43687
7.4487
7.46404
7.48356
7.50816
7.5391
7.57826
7.62865
7.69552
7.78946
7.93632
8.2192
8.31226
8.01565
7.88435
7.80355
7.74522
7.69936
7.66141
7.62897
7.60063
7.57548
7.55296
7.53266
7.5143
7.49768
7.48266
7.46915
7.45707
7.44639
7.4371
7.4292
7.42272
7.4177
7.41421
7.41234
7.41221
7.41397
7.41781
7.42396
7.43273
7.44451
7.45979
7.47924
7.50376
7.53461
7.57367
7.62395
7.69068
7.78438
7.93075
8.21208
8.30061
8.00675
7.87652
7.79635
7.73847
7.69296
7.65531
7.62313
7.59501
7.57007
7.54773
7.5276
7.50939
7.49292
7.47802
7.46462
7.45265
7.44206
7.43285
7.42502
7.41859
7.41361
7.41015
7.4083
7.40818
7.40992
7.41374
7.41985
7.42858
7.44029
7.4555
7.47487
7.4993
7.53005
7.56902
7.61918
7.68577
7.77924
7.92512
8.20493
8.28942
7.9982
7.86902
7.78945
7.732
7.68683
7.64945
7.6175
7.58959
7.56484
7.54267
7.5227
7.50463
7.48828
7.4735
7.4602
7.44832
7.43782
7.42867
7.4209
7.41451
7.40957
7.40613
7.40429
7.40416
7.40589
7.40967
7.41574
7.4244
7.43605
7.45118
7.47046
7.49479
7.52544
7.5643
7.61434
7.68078
7.77403
7.91944
8.19777
8.27864
7.98998
7.8618
7.78282
7.72578
7.68092
7.64381
7.61208
7.58436
7.55978
7.53777
7.51793
7.49999
7.48376
7.46909
7.45588
7.44408
7.43364
7.42456
7.41683
7.41049
7.40557
7.40214
7.4003
7.40015
7.40185
7.40559
7.41161
7.42021
7.43177
7.44682
7.466
7.49022
7.52076
7.55951
7.60943
7.67573
7.76876
7.91371
8.1906
8.26819
7.98205
7.85485
7.77643
7.71978
7.67522
7.63836
7.60684
7.5793
7.55488
7.53301
7.5133
7.49548
7.47935
7.46477
7.45165
7.43992
7.42954
7.42051
7.41282
7.4065
7.4016
7.39818
7.39632
7.39616
7.39783
7.40152
7.40748
7.416
7.42748
7.44242
7.46149
7.48561
7.51603
7.55466
7.60446
7.67061
7.76344
7.90795
8.18344
8.25805
7.97437
7.84812
7.77026
7.71398
7.66971
7.63308
7.60176
7.57439
7.55012
7.52838
7.50879
7.49107
7.47504
7.46054
7.44749
7.43583
7.42551
7.41652
7.40886
7.40256
7.39767
7.39424
7.39238
7.39218
7.39381
7.39745
7.40333
7.41177
7.42316
7.438
7.45695
7.48094
7.51124
7.54974
7.59942
7.66543
7.75806
7.90215
8.17629
8.24816
7.96693
7.84161
7.76427
7.70836
7.66437
7.62796
7.59682
7.56961
7.54548
7.52387
7.50439
7.48677
7.47082
7.4564
7.44342
7.43181
7.42153
7.41258
7.40495
7.39866
7.39377
7.39034
7.38845
7.38822
7.3898
7.39337
7.39919
7.40754
7.41882
7.43354
7.45238
7.47623
7.5064
7.54477
7.59431
7.66019
7.75263
7.89632
8.16917
8.23852
7.95969
7.83528
7.75846
7.70291
7.65918
7.62298
7.59202
7.56496
7.54097
7.51947
7.50009
7.48256
7.46669
7.45234
7.43941
7.42785
7.41762
7.40869
7.40108
7.3948
7.38991
7.38646
7.38454
7.38427
7.3858
7.38931
7.39504
7.40329
7.41446
7.42906
7.44776
7.47148
7.50151
7.53973
7.58914
7.65488
7.74714
7.89046
8.16208
8.22909
7.95263
7.82912
7.75281
7.6976
7.65413
7.61813
7.58734
7.56043
7.53655
7.51516
7.49588
7.47843
7.46263
7.44834
7.43547
7.42396
7.41375
7.40485
7.39725
7.39098
7.38608
7.38261
7.38066
7.38034
7.38181
7.38524
7.39088
7.39903
7.41009
7.42456
7.44312
7.46669
7.49656
7.53464
7.58391
7.64951
7.7416
7.88458
8.15503
8.21987
7.94575
7.82312
7.7473
7.69242
7.6492
7.6134
7.58278
7.556
7.53224
7.51095
7.49176
7.47439
7.45865
7.44442
7.4316
7.42012
7.40994
7.40106
7.39347
7.38719
7.38227
7.37878
7.37679
7.37643
7.37783
7.38118
7.38673
7.39477
7.4057
7.42003
7.43844
7.46185
7.49156
7.52949
7.57861
7.64408
7.73601
7.87867
8.14804
8.21083
7.93903
7.81725
7.74191
7.68736
7.64439
7.60878
7.57831
7.55166
7.52802
7.50683
7.48771
7.47041
7.45474
7.44056
7.42778
7.41633
7.40618
7.39731
7.38972
7.38344
7.3785
7.37498
7.37295
7.37252
7.37386
7.37713
7.38257
7.3905
7.4013
7.41548
7.43373
7.45698
7.48652
7.52428
7.57325
7.63858
7.73036
7.87275
8.14111
8.20196
7.93244
7.81151
7.73665
7.68242
7.63968
7.60426
7.57394
7.54742
7.52388
7.50278
7.48374
7.46651
7.45089
7.43676
7.42401
7.41259
7.40246
7.3936
7.38601
7.37971
7.37476
7.3712
7.36912
7.36864
7.3699
7.37308
7.37842
7.38623
7.39689
7.41092
7.429
7.45207
7.48143
7.51901
7.56782
7.63301
7.72466
7.8668
8.13425
8.19325
7.92599
7.8059
7.73149
7.67757
7.63506
7.59982
7.56965
7.54325
7.51981
7.4988
7.47984
7.46267
7.4471
7.43301
7.4203
7.4089
7.39878
7.38993
7.38233
7.37602
7.37104
7.36744
7.36532
7.36477
7.36595
7.36904
7.37428
7.38196
7.39247
7.40634
7.42425
7.44712
7.47629
7.51368
7.56232
7.62737
7.7189
7.86084
8.12747
8.18468
7.91966
7.80039
7.72644
7.67282
7.63054
7.59547
7.56544
7.53916
7.51582
7.49489
7.476
7.45888
7.44337
7.42931
7.41663
7.40526
7.39515
7.38629
7.37869
7.37236
7.36735
7.36371
7.36153
7.36092
7.36202
7.36501
7.37013
7.37768
7.38805
7.40175
7.41947
7.44215
7.47111
7.5083
7.55675
7.62166
7.71308
7.85485
8.12078
8.17625
7.91344
7.79498
7.72148
7.66816
7.6261
7.5912
7.56131
7.53514
7.51189
7.49104
7.47221
7.45516
7.43969
7.42567
7.41301
7.40165
7.39155
7.38269
7.37508
7.36873
7.36369
7.36001
7.35777
7.35709
7.3581
7.361
7.366
7.37341
7.38363
7.39715
7.41468
7.43715
7.46589
7.50286
7.55112
7.61587
7.7072
7.84885
8.11419
8.16794
7.90732
7.78966
7.7166
7.66358
7.62173
7.587
7.55724
7.53118
7.50803
7.48725
7.46849
7.45148
7.43605
7.42207
7.40943
7.39809
7.38799
7.37913
7.3715
7.36513
7.36005
7.35632
7.35403
7.35327
7.3542
7.35699
7.36187
7.36915
7.3792
7.39255
7.40988
7.43212
7.46063
7.49737
7.54542
7.61001
7.70124
7.84282
8.1077
8.15975
7.90131
7.78443
7.71181
7.65907
7.61743
7.58287
7.55324
7.52729
7.50422
7.48352
7.46481
7.44786
7.43247
7.41851
7.4059
7.39456
7.38447
7.3756
7.36796
7.36156
7.35644
7.35266
7.35031
7.34948
7.35032
7.353
7.35776
7.36489
7.37478
7.38794
7.40506
7.42708
7.45534
7.49183
7.53966
7.60407
7.69522
7.83677
8.10132
8.15168
7.89538
7.77929
7.70709
7.65464
7.61321
7.5788
7.5493
7.52345
7.50047
7.47983
7.46119
7.44428
7.42892
7.41499
7.4024
7.39107
7.38098
7.3721
7.36444
7.35801
7.35285
7.34902
7.3466
7.3457
7.34645
7.34902
7.35366
7.36064
7.37036
7.38333
7.40024
7.42202
7.45002
7.48625
7.53382
7.59805
7.68912
7.83069
8.09507
8.14371
7.88954
7.77422
7.70244
7.65027
7.60904
7.57479
7.54541
7.51966
7.49677
7.4762
7.45761
7.44074
7.42542
7.41152
7.39894
7.38762
7.37752
7.36863
7.36095
7.35449
7.34929
7.34541
7.34293
7.34194
7.34259
7.34506
7.34956
7.3564
7.36596
7.37873
7.39541
7.41694
7.44467
7.48062
7.52793
7.59195
7.68293
7.82458
8.08895
8.13584
7.88378
7.76922
7.69786
7.64596
7.60494
7.57084
7.54158
7.51593
7.49312
7.47261
7.45408
7.43725
7.42196
7.40808
7.39551
7.3842
7.3741
7.3652
7.35749
7.351
7.34576
7.34182
7.33927
7.3382
7.33876
7.34111
7.34549
7.35218
7.36155
7.37413
7.39058
7.41186
7.43931
7.47495
7.52196
7.58575
7.67663
7.81841
8.08299
8.12806
7.8781
7.76429
7.69334
7.64172
7.60089
7.56694
7.5378
7.51225
7.48951
7.46907
7.45059
7.4338
7.41854
7.40468
7.39213
7.38081
7.37071
7.36179
7.35406
7.34753
7.34224
7.33825
7.33563
7.33448
7.33494
7.33718
7.34143
7.34796
7.35716
7.36954
7.38576
7.40677
7.43392
7.46924
7.51593
7.57945
7.67022
7.8122
8.0772
8.12038
7.87249
7.75943
7.68889
7.63753
7.59689
7.56309
7.53407
7.50861
7.48595
7.46557
7.44714
7.43039
7.41516
7.40132
7.38877
7.37746
7.36735
7.35841
7.35065
7.34409
7.33876
7.33471
7.33201
7.33078
7.33115
7.33327
7.33738
7.34376
7.35279
7.36496
7.38094
7.40168
7.42853
7.4635
7.50984
7.57304
7.66368
7.80592
8.0716
8.11277
7.86695
7.75463
7.68448
7.63339
7.59294
7.55929
7.53039
7.50502
7.48243
7.46212
7.44373
7.42702
7.41181
7.39799
7.38545
7.37414
7.36402
7.35506
7.34728
7.34068
7.33529
7.33118
7.32842
7.32711
7.32737
7.32938
7.33335
7.33958
7.34843
7.36039
7.37613
7.3966
7.42313
7.45775
7.50369
7.56654
7.65701
7.79957
8.06617
8.10525
7.86147
7.74988
7.68014
7.6293
7.58905
7.55554
7.52675
7.50147
7.47896
7.4587
7.44035
7.42368
7.4085
7.39469
7.38216
7.37085
7.36072
7.35174
7.34393
7.33729
7.33186
7.32769
7.32485
7.32345
7.32361
7.3255
7.32934
7.33541
7.34408
7.35583
7.37134
7.39153
7.41773
7.45199
7.49752
7.55997
7.65022
7.79314
8.06088
8.09781
7.85606
7.74519
7.67584
7.62527
7.5852
7.55183
7.52315
7.49797
7.47552
7.45532
7.43702
7.42038
7.40522
7.39143
7.3789
7.36759
7.35744
7.34845
7.3406
7.33392
7.32844
7.32421
7.3213
7.31981
7.31987
7.32165
7.32535
7.33126
7.33975
7.35129
7.36656
7.38646
7.41235
7.44622
7.49133
7.55334
7.64331
7.78657
8.05575
8.09044
7.85071
7.74056
7.6716
7.62128
7.58139
7.54817
7.5196
7.4945
7.47212
7.45198
7.43372
7.41711
7.40198
7.3882
7.37568
7.36436
7.3542
7.34518
7.33731
7.33059
7.32505
7.32076
7.31777
7.3162
7.31615
7.31781
7.32137
7.32713
7.33543
7.34677
7.36179
7.38141
7.40697
7.44047
7.48514
7.54668
7.63625
7.77969
8.05089
8.08314
7.84541
7.73598
7.6674
7.61733
7.57763
7.54454
7.51608
7.49107
7.46876
7.44867
7.43046
7.41388
7.39877
7.385
7.37248
7.36116
7.35098
7.34194
7.33404
7.32727
7.32169
7.31733
7.31427
7.3126
7.31245
7.31399
7.31742
7.32301
7.33113
7.34226
7.35704
7.37638
7.40161
7.43472
7.47895
7.53998
7.62904
7.77249
8.0464
6.34397
6.32767
6.27599
6.01443
6.33987
6.32141
6.25254
5.83616
6.33502
6.31274
6.22004
5.67477
6.32891
6.30115
6.17988
5.54219
6.32103
6.28619
6.1341
5.43688
6.31086
6.26742
6.08363
5.34831
6.2978
6.24441
6.02906
5.27055
6.28126
6.21676
5.97055
5.19799
6.26071
6.18418
5.90837
5.12753
6.23568
6.14648
5.84256
5.05647
6.20578
6.10349
5.77314
4.98424
6.17066
6.05513
5.70034
4.91239
6.1301
6.00142
5.62439
4.84079
6.08402
5.94252
5.54571
4.76956
6.03242
5.87854
5.46362
4.69904
5.9754
5.8098
5.37914
4.62928
5.91322
5.73682
5.29353
4.56033
5.84623
5.66022
5.20757
4.49208
5.7749
5.58061
5.12161
4.4245
5.69978
5.49857
5.03595
4.35757
5.62141
5.41468
4.95088
4.2914
5.54037
5.32947
4.86667
4.22616
5.45723
5.24343
4.78354
4.16198
5.37252
5.15702
4.70166
4.09897
5.28674
5.07062
4.62118
4.03714
5.20033
4.98455
4.54217
3.97654
5.11372
4.89914
4.46478
3.91721
5.02724
4.81459
4.38903
3.85922
4.94127
4.73125
4.31517
3.80275
4.85599
4.64911
4.24297
3.7476
4.77179
4.56866
4.17308
3.69446
4.68868
4.48952
4.1043
3.6415
4.60697
4.41236
4.03872
3.594
4.52679
4.33688
3.97425
3.54304
4.44816
4.26302
3.91135
3.49464
4.37122
4.19103
3.85041
3.44849
4.29599
4.12087
3.79126
3.4035
4.22268
4.05273
3.73395
3.35972
4.15104
3.98629
3.67817
3.31709
4.0816
3.92221
3.6246
3.2758
4.01361
3.85918
3.57134
3.23547
3.94799
3.7994
3.52374
3.19686
3.8842
3.74066
3.4729
3.15916
3.82229
3.6836
3.42484
3.1226
3.76194
3.62824
3.37918
3.08723
3.70408
3.57527
3.33509
3.05304
3.64674
3.52256
3.29208
3.01991
3.59355
3.47558
3.25096
2.98786
3.53967
3.42529
3.21085
2.95681
3.4911
3.37813
3.17198
2.92668
3.43999
3.33314
3.1344
2.89747
3.39103
3.28942
3.09804
2.86912
3.34475
3.24713
3.06282
2.8416
3.30023
3.20626
3.02873
2.81488
3.25715
3.16675
2.99572
2.78894
3.21549
3.12856
2.96375
2.76375
3.17521
3.09162
2.93279
2.7393
3.13626
3.0559
2.9028
2.71555
3.09862
3.02136
2.87375
2.6925
3.06223
2.98794
2.8456
2.67013
3.02704
2.9556
2.81832
2.64841
2.99303
2.92431
2.79187
2.62733
2.96013
2.89402
2.76623
2.60685
2.92832
2.86469
2.74136
2.58697
2.89754
2.83629
2.71723
2.56763
2.86776
2.80879
2.69382
2.54884
2.83894
2.78213
2.6711
2.53054
2.81104
2.75631
2.64904
2.51271
2.78402
2.73127
2.62763
2.49535
2.75786
2.70701
2.60683
2.47843
2.73252
2.68348
2.58664
2.46193
2.70797
2.66066
2.56701
2.44585
2.68418
2.63853
2.54792
2.43017
2.66112
2.61705
2.52935
2.41487
2.63876
2.59621
2.51126
2.39994
2.61708
2.57598
2.49365
2.38536
2.59605
2.55633
2.47648
2.37114
2.57564
2.53722
2.45976
2.35726
2.55582
2.51862
2.44346
2.34371
2.53655
2.50052
2.42757
2.3305
2.5178
2.4829
2.41208
2.31761
2.49956
2.46574
2.39698
2.30503
2.4818
2.44902
2.38226
2.29274
2.46451
2.43273
2.36789
2.28073
2.44767
2.41685
2.35387
2.269
2.43127
2.40138
2.3402
2.25754
2.41529
2.3863
2.32685
2.24634
2.39971
2.37159
2.31382
2.2354
2.38453
2.35725
2.30111
2.22471
2.36973
2.34326
2.2887
2.21427
2.35531
2.32961
2.27659
2.2041
2.34124
2.31631
2.26477
2.19412
2.32752
2.30332
2.25322
2.18439
2.31414
2.29065
2.24196
2.1749
2.30109
2.27829
2.23095
2.1656
2.28835
2.26622
2.2202
2.15652
2.27592
2.25443
2.20969
2.14764
2.26377
2.24292
2.19942
2.13896
2.25191
2.23167
2.18938
2.13047
2.24031
2.22066
2.17955
2.12216
2.22897
2.2099
2.16994
2.11404
2.21788
2.19938
2.16055
2.1061
2.20702
2.18906
2.1513
2.09837
2.19638
2.17895
2.14226
2.09081
2.18595
2.16904
2.13341
2.0834
2.17572
2.15933
2.12474
2.07615
2.16569
2.1498
2.11624
2.06906
2.15582
2.14042
2.10794
2.06208
2.14613
2.13122
2.09978
2.05524
2.1366
2.12218
2.09177
2.04854
2.12724
2.11332
2.08389
2.04199
2.11803
2.10459
2.07614
2.03555
2.10896
2.096
2.0685
2.02923
2.10002
2.08753
2.06098
2.02301
2.09119
2.07916
2.05356
2.01689
2.08247
2.07089
2.04624
2.01085
2.07383
2.06271
2.03899
2.0049
2.06527
2.0546
2.03181
1.99901
2.05677
2.04655
2.02469
1.99317
2.04831
2.03854
2.0176
1.98737
3.94389
2.73978
2.19776
2.40436
3.59621
2.51712
1.97159
2.28132
3.63015
2.52748
1.94574
2.21829
3.69895
2.59559
1.98507
2.18602
3.7665
2.6888
2.05559
2.15878
3.81856
2.77875
2.13444
2.13589
3.85931
2.85364
2.21174
2.11429
3.87977
2.90777
2.26519
2.05915
3.88402
2.94755
2.3061
2.00605
3.88259
2.98383
2.3566
1.97508
3.87684
3.01465
2.39859
1.9651
3.86671
3.0378
2.43369
1.98285
3.85088
3.05361
2.4618
2.01291
3.82995
3.06215
2.48452
2.04285
3.80434
3.06478
2.50221
2.06815
3.77559
3.06368
2.51669
2.09132
3.74452
3.0597
2.52895
2.11421
3.71161
3.05302
2.53852
2.13323
3.67705
3.04356
2.54454
2.14688
3.64106
3.03146
2.54732
2.15959
3.60398
3.01708
2.54742
2.16896
3.5662
3.001
2.54562
2.17682
3.52808
2.98366
2.54233
2.18296
3.48978
2.96524
2.53757
2.18731
3.45142
2.94585
2.53121
2.19052
3.4131
2.92552
2.52329
2.19081
3.37487
2.90433
2.51395
2.18921
3.33703
2.88276
2.50373
2.1866
3.2997
2.8608
2.49283
2.18339
3.26294
2.83876
2.48157
2.1799
3.227
2.81686
2.47015
2.17623
3.19159
2.79515
2.45864
2.17235
3.15737
2.77371
2.44703
2.16818
3.12379
2.75245
2.43523
2.16352
3.09072
2.73136
2.42311
2.15829
3.0583
2.71041
2.41067
2.15248
3.0265
2.68955
2.39791
2.14611
2.99537
2.66879
2.38486
2.13925
2.9649
2.6482
2.37174
2.13166
2.93512
2.62783
2.35847
2.12381
2.90605
2.60781
2.34532
2.11625
2.87781
2.58825
2.33244
2.10899
2.85039
2.56922
2.31988
2.1019
2.82378
2.55074
2.30767
2.09481
2.79798
2.53276
2.29576
2.088
2.77296
2.51526
2.28418
2.08199
2.74867
2.4982
2.27278
2.07524
2.72508
2.48153
2.26155
2.06858
2.70216
2.46523
2.25045
2.06195