/*--------------------------------*- C++ -*----------------------------------*\
  =========                 |
  \\      /  F ield         | OpenFOAM: The Open Source CFD Toolbox
   \\    /   O peration     | Website:  https://openfoam.org
    \\  /    A nd           | Version:  8
     \\/     M anipulation  |
\*---------------------------------------------------------------------------*/
FoamFile
{
    version     2.0;
    format      ascii;
    class       volScalarField;
    location    "20000/gas";
    object      T;
}
// * * * * * * * * * * * * * * * * * * * * * * * * * * * * * * * * * * * * * //

dimensions      [0 0 0 1 0 0 0];

internalField   nonuniform List<scalar> 
16000
(
300
300
300.004
300.087
300
300.004
300.042
300.466
300.002
300.014
300.102
300.817
300.006
300.03
300.172
301.152
300.017
300.054
300.255
301.478
300.033
300.087
300.35
301.796
300.055
300.129
300.458
302.11
300.083
300.18
300.578
302.42
300.118
300.24
300.707
302.727
300.159
300.309
300.844
303.032
300.208
300.385
300.988
303.335
300.264
300.468
301.137
303.638
300.327
300.559
301.291
303.941
300.398
300.656
301.451
304.243
300.477
300.759
301.616
304.546
300.562
300.869
301.786
304.851
300.654
300.985
301.96
305.158
300.753
301.106
302.138
305.467
300.857
301.233
302.32
305.779
300.968
301.364
302.506
306.094
301.084
301.5
302.695
306.413
301.204
301.64
302.888
306.735
301.33
301.784
303.084
307.061
301.459
301.932
303.283
307.391
301.593
302.084
303.485
307.726
301.731
302.239
303.69
308.064
301.872
302.397
303.899
308.407
302.016
302.559
304.11
308.755
302.164
302.724
304.324
309.108
302.315
302.892
304.541
309.466
302.469
303.063
304.761
309.829
302.625
303.236
304.985
310.198
302.785
303.413
305.211
310.573
302.947
303.592
305.44
310.954
303.111
303.774
305.672
311.341
303.278
303.958
305.907
311.734
303.448
304.145
306.146
312.134
303.619
304.333
306.386
312.538
303.794
304.527
306.641
312.98
303.968
304.71
306.807
312.895
300.037
300.002
300.001
300
300
300
300
300
300
300
300
300
300
300
300
300
300
300
300
300
300
300
300
300
300
300
300
300
300.001
300.001
300.004
300.068
300.196
300.019
300.005
300.002
300.001
300.001
300.001
300
300
300
300
300
300
300
300
300
300
300
300
300
300
300
300
300
300.001
300.001
300.001
300.002
300.003
300.007
300.028
300.366
300.345
300.046
300.014
300.006
300.003
300.002
300.001
300.001
300.001
300
300
300
300
300
300
300
300
300
300
300
300
300.001
300.001
300.001
300.001
300.002
300.002
300.004
300.007
300.016
300.064
300.656
300.482
300.079
300.026
300.012
300.006
300.004
300.002
300.002
300.001
300.001
300.001
300
300
300
300
300
300
300
300
300.001
300.001
300.001
300.001
300.002
300.002
300.003
300.004
300.007
300.012
300.028
300.107
300.941
300.612
300.118
300.042
300.019
300.011
300.006
300.004
300.003
300.002
300.001
300.001
300.001
300.001
300.001
300.001
300.001
300.001
300.001
300.001
300.001
300.001
300.001
300.002
300.002
300.003
300.005
300.007
300.01
300.019
300.044
300.156
301.22
300.734
300.161
300.061
300.029
300.016
300.01
300.006
300.004
300.003
300.002
300.002
300.001
300.001
300.001
300.001
300.001
300.001
300.001
300.001
300.001
300.002
300.002
300.003
300.004
300.005
300.007
300.01
300.015
300.028
300.062
300.211
301.493
300.85
300.206
300.082
300.041
300.023
300.014
300.009
300.006
300.004
300.003
300.002
300.002
300.001
300.001
300.001
300.001
300.001
300.001
300.001
300.002
300.002
300.003
300.004
300.005
300.007
300.009
300.014
300.021
300.038
300.084
300.271
301.76
300.961
300.254
300.106
300.054
300.031
300.019
300.012
300.008
300.006
300.004
300.003
300.002
300.002
300.002
300.001
300.001
300.002
300.002
300.002
300.002
300.003
300.004
300.005
300.007
300.009
300.013
300.018
300.029
300.051
300.109
300.336
302.02
301.068
300.304
300.132
300.069
300.04
300.025
300.016
300.011
300.008
300.005
300.004
300.003
300.003
300.002
300.002
300.002
300.002
300.002
300.003
300.003
300.004
300.005
300.007
300.009
300.012
300.017
300.024
300.037
300.065
300.136
300.406
302.273
301.173
300.354
300.159
300.085
300.05
300.032
300.021
300.014
300.01
300.007
300.005
300.004
300.003
300.003
300.003
300.002
300.003
300.003
300.003
300.004
300.005
300.007
300.009
300.011
300.015
300.021
300.031
300.047
300.081
300.168
300.479
302.519
301.274
300.406
300.188
300.103
300.061
300.039
300.026
300.018
300.012
300.009
300.007
300.005
300.004
300.004
300.003
300.003
300.003
300.004
300.004
300.005
300.007
300.008
300.011
300.014
300.019
300.027
300.038
300.059
300.1
300.202
300.556
302.757
301.373
300.458
300.218
300.121
300.073
300.047
300.032
300.022
300.015
300.011
300.008
300.007
300.005
300.005
300.004
300.004
300.004
300.005
300.006
300.007
300.008
300.011
300.014
300.018
300.024
300.033
300.047
300.072
300.121
300.239
300.637
302.986
301.47
300.512
300.249
300.141
300.086
300.056
300.038
300.026
300.019
300.014
300.01
300.008
300.007
300.006
300.005
300.005
300.005
300.006
300.007
300.008
300.01
300.013
300.017
300.022
300.029
300.04
300.057
300.087
300.144
300.279
300.72
303.208
301.565
300.566
300.281
300.161
300.1
300.065
300.044
300.031
300.022
300.016
300.012
300.01
300.008
300.007
300.006
300.006
300.006
300.007
300.008
300.01
300.012
300.016
300.02
300.026
300.035
300.048
300.069
300.103
300.169
300.323
300.806
303.421
301.66
300.62
300.313
300.182
300.114
300.076
300.052
300.036
300.026
300.019
300.015
300.012
300.01
300.008
300.008
300.007
300.008
300.009
300.01
300.012
300.015
300.019
300.024
300.032
300.042
300.057
300.081
300.121
300.197
300.368
300.894
303.626
301.754
300.675
300.347
300.204
300.129
300.086
300.059
300.042
300.031
300.023
300.017
300.014
300.011
300.01
300.009
300.009
300.009
300.01
300.012
300.015
300.018
300.022
300.029
300.037
300.049
300.067
300.095
300.141
300.226
300.416
300.983
303.823
301.847
300.73
300.381
300.227
300.145
300.097
300.068
300.048
300.035
300.026
300.02
300.016
300.013
300.012
300.011
300.011
300.011
300.012
300.014
300.017
300.021
300.026
300.034
300.044
300.058
300.078
300.11
300.162
300.258
300.467
301.073
304.013
301.941
300.786
300.416
300.25
300.161
300.109
300.076
300.055
300.04
300.03
300.023
300.019
300.015
300.014
300.013
300.012
300.013
300.015
300.017
300.02
300.025
300.031
300.039
300.051
300.067
300.09
300.126
300.184
300.291
300.519
301.165
304.195
302.034
300.842
300.452
300.274
300.178
300.121
300.085
300.062
300.045
300.034
300.027
300.021
300.018
300.016
300.015
300.014
300.015
300.017
300.02
300.023
300.029
300.036
300.045
300.059
300.077
300.103
300.143
300.208
300.326
300.574
301.256
304.371
302.128
300.899
300.488
300.298
300.195
300.134
300.095
300.069
300.051
300.039
300.03
300.024
300.02
300.018
300.017
300.017
300.018
300.02
300.023
300.027
300.033
300.041
300.052
300.067
300.088
300.117
300.162
300.234
300.362
300.629
301.348
304.541
302.223
300.956
300.525
300.324
300.213
300.147
300.104
300.076
300.057
300.044
300.034
300.028
300.023
300.021
300.019
300.019
300.02
300.023
300.026
300.031
300.038
300.047
300.059
300.076
300.099
300.132
300.181
300.26
300.4
300.685
301.44
304.705
302.319
301.014
300.562
300.349
300.232
300.161
300.115
300.084
300.063
300.048
300.038
300.031
300.026
300.023
300.022
300.022
300.023
300.026
300.03
300.035
300.043
300.053
300.067
300.086
300.111
300.148
300.202
300.288
300.439
300.743
301.531
304.865
302.416
301.072
300.6
300.376
300.251
300.175
300.125
300.092
300.07
300.054
300.043
300.035
300.03
300.026
300.025
300.025
300.026
300.029
300.034
300.04
300.049
300.06
300.075
300.096
300.124
300.164
300.224
300.317
300.479
300.801
301.622
305.02
302.515
301.131
300.639
300.403
300.27
300.189
300.137
300.101
300.076
300.059
300.047
300.039
300.033
300.03
300.028
300.028
300.03
300.033
300.038
300.045
300.055
300.067
300.084
300.107
300.138
300.182
300.246
300.347
300.519
300.859
301.712
305.171
302.616
301.192
300.678
300.43
300.29
300.204
300.148
300.11
300.084
300.065
300.052
300.043
300.037
300.033
300.032
300.032
300.034
300.037
300.043
300.051
300.061
300.075
300.094
300.118
300.152
300.2
300.269
300.377
300.561
300.918
301.802
305.319
302.718
301.253
300.719
300.459
300.311
300.22
300.16
300.119
300.091
300.071
300.057
300.047
300.041
300.037
300.035
300.035
300.038
300.042
300.048
300.056
300.068
300.083
300.103
300.13
300.167
300.218
300.293
300.409
300.603
300.977
301.89
305.464
302.824
301.315
300.76
300.488
300.332
300.236
300.172
300.129
300.099
300.078
300.063
300.052
300.045
300.041
300.039
300.039
300.042
300.046
300.053
300.062
300.075
300.092
300.114
300.143
300.183
300.238
300.318
300.44
300.645
301.036
301.978
305.606
302.932
301.378
300.802
300.518
300.355
300.253
300.185
300.139
300.107
300.084
300.068
300.057
300.05
300.045
300.043
300.044
300.046
300.051
300.059
300.069
300.083
300.101
300.125
300.156
300.199
300.258
300.343
300.473
300.688
301.096
302.065
305.747
303.043
301.444
300.846
300.549
300.377
300.27
300.199
300.15
300.116
300.092
300.074
300.062
300.054
300.05
300.048
300.048
300.051
300.057
300.065
300.076
300.091
300.11
300.136
300.17
300.215
300.278
300.369
300.506
300.731
301.155
302.152
305.885
303.158
301.511
300.89
300.581
300.401
300.288
300.213
300.161
300.125
300.099
300.081
300.068
300.06
300.054
300.052
300.053
300.056
300.062
300.071
300.083
300.099
300.12
300.147
300.184
300.232
300.299
300.395
300.539
300.775
301.214
302.237
306.021
303.277
301.58
300.937
300.614
300.426
300.307
300.228
300.173
300.134
300.107
300.087
300.074
300.065
300.06
300.057
300.058
300.062
300.068
300.077
300.09
300.108
300.13
300.159
300.198
300.25
300.32
300.421
300.572
300.818
301.272
302.322
306.156
303.402
301.652
300.985
300.648
300.452
300.327
300.243
300.185
300.144
300.115
300.095
300.08
300.071
300.065
300.063
300.063
300.067
300.074
300.084
300.098
300.117
300.141
300.172
300.213
300.268
300.342
300.448
300.606
300.862
301.331
302.406
306.29
303.532
301.728
301.035
300.685
300.479
300.347
300.259
300.198
300.155
300.124
300.102
300.087
300.076
300.071
300.068
300.069
300.073
300.08
300.091
300.106
300.126
300.151
300.185
300.228
300.286
300.364
300.475
300.64
300.905
301.389
302.49
306.423
303.671
301.808
301.089
300.723
300.508
300.37
300.277
300.212
300.166
300.133
300.11
300.094
300.083
300.076
300.074
300.075
300.079
300.087
300.099
300.115
300.135
300.163
300.198
300.244
300.304
300.387
300.502
300.674
300.949
301.447
302.572
306.554
303.82
301.894
301.146
300.765
300.539
300.394
300.295
300.227
300.178
300.144
300.119
300.101
300.09
300.083
300.08
300.081
300.086
300.094
300.107
300.123
300.145
300.174
300.211
300.259
300.323
300.409
300.53
300.708
300.993
301.505
302.654
306.685
303.984
301.988
301.209
300.811
300.573
300.42
300.316
300.244
300.192
300.155
300.128
300.109
300.097
300.09
300.087
300.088
300.093
300.102
300.115
300.132
300.156
300.186
300.225
300.275
300.342
300.432
300.558
300.742
301.036
301.563
302.736
306.814
304.174
302.094
301.282
300.864
300.614
300.452
300.341
300.263
300.208
300.168
300.139
300.119
300.105
300.097
300.094
300.095
300.1
300.109
300.123
300.142
300.166
300.198
300.239
300.292
300.361
300.455
300.585
300.777
301.08
301.62
302.817
306.943
304.443
302.233
301.38
300.938
300.67
300.494
300.373
300.288
300.227
300.183
300.151
300.129
300.114
300.105
300.102
300.102
300.108
300.117
300.132
300.151
300.177
300.21
300.253
300.308
300.381
300.478
300.613
300.811
301.123
301.677
302.897
307.071
305.252
302.551
301.596
301.085
300.769
300.562
300.422
300.323
300.253
300.203
300.167
300.142
300.125
300.115
300.11
300.111
300.116
300.126
300.141
300.161
300.188
300.223
300.267
300.325
300.4
300.501
300.642
300.846
301.166
301.733
302.976
307.198
312.304
305.128
302.543
301.505
300.992
300.694
300.505
300.379
300.292
300.231
300.188
300.159
300.138
300.126
300.12
300.12
300.125
300.135
300.15
300.171
300.199
300.236
300.282
300.342
300.42
300.525
300.67
300.88
301.209
301.79
303.055
307.324
399.107
418.728
427.987
433.732
437.904
441.194
443.914
446.234
448.257
450.046
451.644
453.082
454.381
455.555
456.616
457.571
458.426
459.182
459.842
460.406
460.872
461.237
461.498
461.649
461.683
461.59
461.36
460.979
460.428
459.687
458.726
457.509
455.985
454.085
451.703
448.675
444.709
439.231
430.84
415.145
401.633
420.101
428.81
434.295
438.327
441.53
444.195
446.477
448.472
450.24
451.823
453.25
454.539
455.706
456.761
457.712
458.562
459.316
459.974
460.537
461.002
461.367
461.628
461.78
461.815
461.724
461.496
461.117
460.57
459.832
458.876
457.664
456.145
454.251
451.876
448.855
444.899
439.431
431.058
415.4
403.94
421.531
429.805
435.049
438.929
442.03
444.623
446.853
448.809
450.547
452.107
453.515
454.79
455.945
456.99
457.932
458.776
459.524
460.177
460.736
461.198
461.561
461.821
461.971
462.005
461.914
461.687
461.308
460.762
460.025
459.069
457.858
456.341
454.447
452.072
449.051
445.094
439.628
431.265
415.677
405.697
422.783
430.776
435.842
439.595
442.603
445.125
447.302
449.216
450.922
452.455
453.841
455.098
456.238
457.27
458.202
459.036
459.776
460.423
460.976
461.434
461.792
462.048
462.196
462.227
462.134
461.905
461.525
460.978
460.24
459.283
458.071
456.553
454.658
452.282
449.26
445.303
439.84
431.493
415.975
407.117
423.864
431.669
436.608
440.264
443.195
445.656
447.784
449.658
451.331
452.837
454.201
455.438
456.562
457.58
458.5
459.324
460.055
460.694
461.24
461.691
462.044
462.295
462.438
462.466
462.37
462.138
461.756
461.206
460.466
459.508
458.294
456.775
454.878
452.502
449.479
445.523
440.065
431.735
416.287
408.311
424.807
432.479
437.326
440.908
443.778
446.189
448.273
450.112
451.755
453.235
454.577
455.795
456.902
457.906
458.813
459.626
460.347
460.977
461.515
461.959
462.306
462.552
462.69
462.714
462.614
462.379
461.994
461.442
460.7
459.74
458.525
457.004
455.107
452.73
449.707
445.754
440.301
431.988
416.61
409.35
425.643
433.213
437.992
441.517
444.339
446.707
448.756
450.563
452.179
453.636
454.957
456.157
457.248
458.238
459.132
459.934
460.645
461.266
461.796
462.233
462.574
462.814
462.947
462.967
462.863
462.624
462.237
461.683
460.939
459.978
458.762
457.24
455.342
452.965
449.944
445.993
440.546
432.251
416.941
410.277
426.395
433.883
438.607
442.088
444.871
447.205
449.223
451.004
452.596
454.032
455.334
456.517
457.593
458.57
459.452
460.243
460.944
461.556
462.078
462.508
462.842
463.077
463.206
463.221
463.114
462.872
462.483
461.927
461.182
460.22
459.003
457.481
455.584
453.207
450.187
446.24
440.8
432.523
417.278
411.118
427.081
434.499
439.179
442.623
445.374
447.68
449.672
451.43
453.001
454.418
455.703
456.871
457.934
458.898
459.768
460.549
461.241
461.845
462.359
462.782
463.111
463.34
463.464
463.476
463.366
463.122
462.731
462.173
461.428
460.466
459.249
457.728
455.831
453.456
450.438
446.493
441.061
432.802
417.621
411.894
427.714
435.07
439.711
443.125
445.849
448.131
450.102
451.839
453.392
454.793
456.063
457.217
458.267
459.219
460.079
460.85
461.534
462.13
462.637
463.054
463.378
463.602
463.723
463.731
463.619
463.373
462.98
462.423
461.677
460.715
459.499
457.979
456.084
453.71
450.694
446.753
441.329
433.089
417.968
412.616
428.303
435.603
440.21
443.597
446.298
448.559
450.512
452.232
453.769
455.155
456.411
457.553
458.592
459.534
460.384
461.147
461.822
462.411
462.912
463.324
463.642
463.863
463.98
463.986
463.872
463.625
463.232
462.674
461.929
460.968
459.754
458.235
456.341
453.969
450.956
447.019
441.602
433.38
418.32
413.294
428.856
436.104
440.681
444.044
446.725
448.967
450.903
452.608
454.131
455.504
456.749
457.88
458.908
459.84
460.683
461.437
462.106
462.688
463.184
463.591
463.905
464.122
464.237
464.241
464.125
463.877
463.484
462.927
462.184
461.224
460.012
458.495
456.604
454.234
451.223
447.29
441.88
433.676
418.676
413.934
429.379
436.579
441.126
444.468
447.13
449.357
451.278
452.969
454.48
455.841
457.075
458.196
459.215
460.14
460.974
461.721
462.384
462.961
463.451
463.854
464.165
464.379
464.492
464.494
464.378
464.131
463.738
463.182
462.441
461.484
460.273
458.759
456.871
454.504
451.496
447.566
442.163
433.976
419.036
414.541
429.876
437.031
441.551
444.872
447.517
449.729
451.637
453.317
454.816
456.167
457.391
458.504
459.514
460.431
461.259
462
462.657
463.229
463.715
464.114
464.422
464.635
464.745
464.747
464.631
464.384
463.993
463.439
462.7
461.746
460.539
459.028
457.142
454.778
451.773
447.847
442.451
434.28
419.398
415.122
430.353
437.464
441.958
445.259
447.888
450.087
451.982
453.651
455.14
456.482
457.698
458.802
459.806
460.716
461.537
462.273
462.925
463.493
463.976
464.372
464.677
464.888
464.998
465
464.884
464.638
464.249
463.698
462.961
462.01
460.807
459.3
457.418
455.057
452.055
448.133
442.743
434.588
419.763
415.681
430.812
437.88
442.348
445.63
448.245
450.43
452.315
453.973
455.454
456.787
457.995
459.092
460.09
460.994
461.81
462.541
463.188
463.752
464.232
464.626
464.93
465.14
465.249
465.252
465.137
464.893
464.506
463.958
463.225
462.278
461.079
459.576
457.697
455.34
452.341
448.423
443.038
434.899
420.129
416.222
431.254
438.281
442.724
445.988
448.588
450.762
452.636
454.286
455.758
457.083
458.284
459.375
460.367
461.265
462.077
462.804
463.447
464.009
464.486
464.878
465.181
465.39
465.5
465.503
465.389
465.148
464.764
464.219
463.49
462.548
461.353
459.855
457.981
455.628
452.632
448.717
443.338
435.212
420.495
416.747
431.682
438.668
443.087
446.334
448.92
451.083
452.947
454.588
456.052
457.371
458.566
459.651
460.637
461.531
462.338
463.062
463.702
464.261
464.737
465.127
465.429
465.638
465.749
465.753
465.642
465.403
465.023
464.482
463.758
462.82
461.631
460.138
458.269
455.919
452.928
449.015
443.641
435.528
420.862
417.258
432.096
439.042
443.438
446.668
449.242
451.394
453.249
454.882
456.339
457.652
458.841
459.921
460.902
461.792
462.595
463.316
463.954
464.51
464.984
465.374
465.676
465.885
465.997
466.003
465.894
465.659
465.282
464.746
464.027
463.095
461.911
460.424
458.56
456.215
453.227
449.318
443.948
435.847
421.229
417.757
432.499
439.406
443.779
446.993
449.554
451.696
453.542
455.168
456.619
457.925
459.109
460.184
461.161
462.048
462.848
463.565
464.202
464.757
465.23
465.619
465.921
466.131
466.244
466.252
466.147
465.915
465.543
465.011
464.298
463.372
462.194
460.713
458.855
456.515
453.531
449.625
444.258
436.168
421.596
418.245
432.891
439.76
444.11
447.309
449.858
451.99
453.828
455.447
456.891
458.193
459.371
460.442
461.416
462.299
463.097
463.812
464.446
465
465.472
465.861
466.164
466.375
466.49
466.501
466.398
466.171
465.803
465.277
464.57
463.651
462.48
461.005
459.154
456.819
453.839
449.936
444.572
436.491
421.961
418.723
433.274
440.105
444.433
447.616
450.154
452.277
454.107
455.719
457.158
458.454
459.629
460.696
461.666
462.546
463.341
464.054
464.687
465.24
465.712
466.102
466.405
466.618
466.735
466.749
466.65
466.427
466.064
465.545
464.844
463.931
462.768
461.301
459.456
457.128
454.152
450.251
444.889
436.816
422.324
419.192
433.649
440.442
444.749
447.917
450.443
452.557
454.38
455.986
457.419
458.711
459.881
460.945
461.912
462.789
463.582
464.294
464.926
465.478
465.95
466.34
466.645
466.86
466.979
466.996
466.901
466.683
466.326
465.812
465.118
464.214
463.058
461.599
459.762
457.44
454.468
450.57
445.209
437.142
422.686
419.653
434.016
440.772
445.057
448.211
450.726
452.831
454.647
456.247
457.675
458.962
460.129
461.189
462.153
463.029
463.82
464.53
465.161
465.714
466.186
466.577
466.883
467.1
467.222
467.243
467.152
466.939
466.588
466.081
465.394
464.498
463.351
461.9
460.071
457.756
454.789
450.893
445.534
437.47
423.045
420.106
434.375
441.095
445.359
448.499
451.003
453.1
454.909
456.503
457.926
459.209
460.372
461.43
462.391
463.265
464.055
464.764
465.395
465.947
466.42
466.812
467.119
467.339
467.464
467.489
467.403
467.195
466.85
466.35
465.671
464.783
463.645
462.204
460.383
458.076
455.115
451.221
445.861
437.8
423.4
420.552
434.728
441.412
445.655
448.781
451.275
453.363
455.166
456.754
458.173
459.452
460.612
461.667
462.626
463.498
464.287
464.995
465.625
466.178
466.651
467.045
467.354
467.576
467.705
467.734
467.653
467.45
467.112
466.619
465.949
465.07
463.942
462.51
460.699
458.4
455.445
451.554
446.193
438.131
423.752
420.991
435.075
441.723
445.946
449.058
451.542
453.622
455.419
457.002
458.416
459.691
460.848
461.9
462.858
463.728
464.516
465.224
465.854
466.407
466.881
467.276
467.588
467.813
467.945
467.978
467.902
467.705
467.374
466.889
466.227
465.358
464.24
462.818
461.018
458.728
455.779
451.892
446.529
438.464
424.1
421.425
435.416
442.029
446.232
449.33
451.805
453.877
455.667
457.245
458.655
459.927
461.081
462.131
463.086
463.955
464.742
465.45
466.08
466.634
467.109
467.506
467.82
468.048
468.184
468.221
468.151
467.96
467.636
467.159
466.506
465.647
464.539
463.129
461.339
459.059
456.119
452.234
446.869
438.798
424.444
421.853
435.752
442.33
446.513
449.598
452.063
454.128
455.912
457.485
458.891
460.159
461.31
462.358
463.312
464.18
464.966
465.674
466.304
466.858
467.336
467.734
468.051
468.282
468.422
468.464
468.399
468.215
467.897
467.429
466.785
465.936
464.84
463.442
461.664
459.395
456.462
452.581
447.213
439.134
424.783
422.275
436.083
442.626
446.79
449.862
452.317
454.375
456.153
457.721
459.123
460.388
461.537
462.583
463.535
464.402
465.188
465.895
466.526
467.082
467.56
467.961
468.28
468.515
468.659
468.706
468.646
468.468
468.159
467.699
467.065
466.226
465.142
463.756
461.991
459.734
456.811
452.934
447.563
439.472
425.116
422.693
436.41
442.918
447.063
450.122
452.568
454.618
456.39
457.954
459.352
460.615
461.761
462.805
463.756
464.622
465.407
466.115
466.747
467.303
467.783
468.186
468.509
468.746
468.895
468.946
468.892
468.721
468.42
467.968
467.344
466.517
465.444
464.072
462.32
460.076
457.164
453.292
447.917
439.812
425.443
423.106
436.732
443.206
447.332
450.379
452.815
454.858
456.625
458.184
459.579
460.838
461.982
463.024
463.974
464.839
465.624
466.332
466.965
467.522
468.005
468.41
468.735
468.977
469.129
469.186
469.138
468.974
468.68
468.238
467.624
466.807
465.748
464.389
462.652
460.421
457.521
453.656
448.277
440.155
425.764
423.515
437.051
443.491
447.598
450.632
453.059
455.095
456.856
458.411
459.802
461.059
462.2
463.241
464.19
465.055
465.84
466.548
467.181
467.74
468.224
468.632
468.961
469.206
469.363
469.425
469.383
469.226
468.94
468.506
467.903
467.098
466.051
464.706
462.985
460.77
457.883
454.026
448.643
440.501
426.077
423.919
437.365
443.772
447.86
450.882
453.3
455.329
457.085
458.635
460.023
461.277
462.417
463.456
464.404
465.268
466.053
466.762
467.396
467.957
468.443
468.853
469.185
469.434
469.595
469.663
469.627
469.477
469.199
468.775
468.182
467.389
466.355
465.025
463.319
461.121
458.25
454.402
449.017
440.85
426.381
424.32
437.676
444.05
448.12
451.129
453.538
455.56
457.311
458.857
460.241
461.493
462.63
463.668
464.615
465.479
466.264
466.974
467.609
468.171
468.659
469.072
469.407
469.66
469.827
469.899
469.87
469.727
469.457
469.043
468.46
467.679
466.659
465.344
463.655
461.475
458.621
454.786
449.4
441.204
426.676
424.717
437.984
444.324
448.376
451.373
453.773
455.789
457.534
459.076
460.457
461.706
462.842
463.878
464.825
465.688
466.474
467.184
467.82
468.384
468.875
469.29
469.629
469.886
470.057
470.135
470.112
469.976
469.715
469.31
468.738
467.969
466.963
465.663
463.992
461.831
458.995
455.176
449.79
441.562
426.962
425.111
438.289
444.596
448.629
451.614
454.006
456.015
457.755
459.293
460.671
461.918
463.052
464.087
465.033
465.896
466.681
467.392
468.03
468.596
469.088
469.507
469.849
470.11
470.286
470.37
470.353
470.225
469.972
469.576
469.015
468.258
467.266
465.983
464.329
462.187
459.373
455.571
450.188
441.925
427.24
425.501
438.59
444.864
448.88
451.853
454.236
456.238
457.973
459.507
460.883
462.127
463.259
464.293
465.238
466.101
466.887
467.599
468.238
468.805
469.301
469.722
470.067
470.333
470.514
470.603
470.593
470.472
470.227
469.841
469.291
468.547
467.569
466.301
464.666
462.544
459.751
455.969
450.594
442.297
427.512
425.888
438.889
445.13
449.128
452.089
454.463
456.46
458.19
459.72
461.092
462.334
463.464
464.497
465.442
466.305
467.091
467.804
468.444
469.014
469.511
469.936
470.285
470.555
470.74
470.835
470.832
470.719
470.483
470.106
469.567
468.835
467.871
466.62
465.002
462.901
460.131
456.371
451.01
442.687
427.768
426.272
439.185
445.393
449.373
452.323
454.689
456.679
458.404
459.93
461.299
462.539
463.668
464.7
465.644
466.507
467.294
468.007
468.649
469.22
469.721
470.148
470.501
470.775
470.966
471.067
471.07
470.964
470.737
470.37
469.842
469.123
468.173
466.938
465.339
463.258
460.511
456.776
451.436
443.096
428.006
304.148
304.934
307.482
322.072
304.346
305.245
308.746
333.949
304.584
305.687
310.582
345.498
304.889
306.298
312.91
355.326
305.291
307.103
315.609
363.464
305.823
308.128
318.622
370.409
306.517
309.399
321.93
376.768
307.408
310.946
325.554
383.036
308.53
312.794
329.512
389.392
309.915
314.969
333.816
395.987
311.595
317.493
338.482
402.851
313.599
320.389
343.513
409.889
315.954
323.673
348.915
417.103
318.678
327.355
354.684
424.547
321.791
331.452
360.896
432.251
325.305
335.97
367.516
440.207
329.229
340.902
374.483
448.404
333.566
346.241
381.774
456.84
338.315
351.977
389.375
465.53
343.47
358.098
397.276
474.485
349.023
364.591
405.466
483.704
354.964
371.443
413.932
493.172
361.282
378.638
422.661
502.871
367.965
386.164
431.643
512.792
374.999
394.008
440.871
522.933
382.372
402.158
450.339
533.292
390.074
410.605
460.04
543.861
398.091
419.332
469.959
554.624
406.414
428.336
480.098
565.578
415.027
437.593
490.415
576.65
423.93
447.113
500.964
587.969
433.1
456.854
511.593
599.075
442.539
466.85
522.573
611.414
452.24
477.083
533.622
622.46
462.193
487.535
544.787
633.928
472.39
498.195
556.133
645.828
482.811
509.05
567.639
657.816
493.464
520.112
579.315
669.91
504.311
531.327
591.085
682.066
515.405
542.79
603.117
694.376
526.635
554.265
614.863
706.6
538.126
566.167
627.991
719.178
549.789
578.058
639.605
731.601
561.619
590.038
651.637
743.977
573.535
602.112
664.067
756.382
585.742
614.481
676.607
768.84
597.763
626.503
689.038
781.267
610.557
640.048
701.793
793.744
622.761
651.904
714.408
806.21
636.281
664.378
727.019
818.654
648.423
677.197
739.69
831.083
660.749
689.982
752.386
843.497
673.57
702.816
765.098
855.891
686.572
715.71
777.822
868.26
699.617
728.647
790.55
880.6
712.703
741.615
803.275
892.901
725.821
754.603
815.988
905.162
738.964
767.603
828.683
917.374
752.125
780.607
841.353
929.529
765.297
793.608
853.993
941.62
778.473
806.599
866.598
953.643
791.644
819.574
879.161
965.588
804.808
832.53
891.682
977.464
817.953
845.457
904.151
989.243
831.074
858.349
916.562
1000.93
844.161
871.197
928.906
1012.51
857.206
883.994
941.179
1024.02
870.203
896.734
953.375
1035.44
883.142
909.408
965.49
1046.77
896.017
922.012
977.52
1058.01
908.822
934.539
989.46
1069.16
921.552
946.986
1001.31
1080.22
934.201
959.347
1013.07
1091.2
946.766
971.621
1024.76
1102.11
959.243
983.804
1036.36
1112.92
971.629
995.894
1047.87
1123.65
983.922
1007.9
1059.3
1134.28
996.119
1019.81
1070.64
1144.82
1008.23
1031.63
1081.9
1155.27
1020.24
1043.37
1093.05
1165.58
1032.17
1055.02
1104.11
1175.77
1044.01
1066.57
1115.07
1185.86
1055.75
1078.03
1125.92
1195.86
1067.4
1089.39
1136.68
1205.75
1078.96
1100.66
1147.34
1215.54
1090.41
1111.83
1157.9
1225.24
1101.77
1122.89
1168.35
1234.83
1113.03
1133.86
1178.71
1244.32
1124.19
1144.73
1188.96
1253.69
1135.25
1155.49
1199.11
1262.97
1146.2
1166.15
1209.14
1272.1
1157.04
1176.7
1219.07
1281.2
1167.79
1187.15
1228.9
1290.15
1178.42
1197.49
1238.62
1298.98
1188.96
1207.72
1248.24
1307.74
1199.39
1217.86
1257.75
1316.39
1209.71
1227.89
1267.16
1324.93
1219.94
1237.82
1276.47
1333.36
1230.07
1247.65
1285.68
1341.68
1240.1
1257.38
1294.78
1349.91
1250.04
1267.02
1303.79
1358.02
1259.89
1276.56
1312.69
1366.04
1269.65
1286.04
1321.59
1373.86
1279.34
1295.43
1330.37
1381.59
1288.95
1304.74
1339.04
1389.23
1298.49
1313.98
1347.6
1396.79
1307.95
1323.12
1356.08
1404.22
1317.37
1332.26
1364.41
1411.63
1326.74
1341.3
1372.68
1418.95
1336.03
1350.25
1380.88
1426.16
1345.25
1359.11
1389.02
1433.26
1354.41
1367.91
1397.1
1440.28
1363.52
1376.66
1405.12
1447.23
1372.59
1385.37
1413.09
1454.12
1381.62
1394.05
1421.02
1460.94
1390.64
1402.7
1428.91
1467.72
1399.66
1411.35
1436.79
1474.45
1408.68
1420.01
1444.65
1481.15
1417.72
1428.67
1452.51
1487.83
1426.8
1437.37
1460.4
1494.52
600.896
1023.84
1410.66
1395.22
636.995
1090.17
1565.95
1464.61
619.945
1055.66
1564.57
1496.25
598.15
1003.61
1506.64
1502.69
580.602
943.171
1428.35
1504.33
566.743
898.081
1353.97
1503.51
558.678
863.822
1287.79
1503.25
554.593
839.636
1242.44
1526.42
552.866
820.617
1207.68
1549.37
552.849
806.053
1165.54
1553.97
553.776
793.802
1130.08
1537.65
555.626
783.325
1101.27
1508.85
558.38
776.276
1080.91
1473.25
562.253
772.226
1063.94
1440.88
567.076
770.358
1051.23
1413.92
572.702
770.336
1041.07
1389.39
578.925
771.345
1032.32
1364.66
585.671
773.269
1025.52
1345.67
592.943
776.316
1021.35
1332.9
600.751
780.56
1019.13
1319.96
609.053
785.79
1018.77
1311.08
617.779
791.793
1019.58
1303.43
626.87
798.403
1021.25
1297.34
636.29
805.557
1023.88
1292.9
646.037
813.322
1027.93
1288.93
656.116
821.68
1032.79
1288.25
666.478
830.481
1038.53
1289.27
677.146
840.109
1044.33
1291.18
688.046
849.856
1050.93
1293.81
699.081
859.712
1057.99
1296.76
710.302
869.705
1065.37
1299.91
721.469
879.738
1072.96
1303.29
733.016
889.982
1080.78
1306.99
744.611
900.124
1088.88
1311.21
756.157
910.5
1097.37
1316.03
767.814
921.13
1106.24
1321.44
779.585
932.027
1115.47
1327.46
791.491
943.244
1125.05
1333.99
803.488
954.63
1134.58
1341.6
815.643
966.141
1144.46
1349.54
827.811
977.667
1154.4
1356.98
840.073
989.169
1164.28
1364.12
852.317
1000.61
1174.1
1371.24
864.497
1011.92
1183.82
1378.65
876.62
1023.17
1193.5
1385.77
888.697
1034.31
1202.9
1391.47
900.715
1045.37
1212.32
1398.57
912.694
1056.37
1221.74
1405.57
924.635
1067.35
1231.17
1412.57
936.534
1078.29
1240.62
1419.62
948.396
1089.22
1250.12
1426.75
960.219
1100.13
1259.66
1433.96
972.002
1111.03
1269.24
1441.17
983.742
1121.91
1278.82
1448.37
995.431
1132.74
1288.38
1455.54
1007.06
1143.52
1297.9
1462.68
1018.66