/*--------------------------------*- C++ -*----------------------------------*\
  =========                 |
  \\      /  F ield         | OpenFOAM: The Open Source CFD Toolbox
   \\    /   O peration     | Website:  https://openfoam.org
    \\  /    A nd           | Version:  8
     \\/     M anipulation  |
\*---------------------------------------------------------------------------*/
FoamFile
{
    version     2.0;
    format      ascii;
    class       volVectorField;
    location    "20000/gas";
    object      U;
}
// * * * * * * * * * * * * * * * * * * * * * * * * * * * * * * * * * * * * * //

dimensions      [0 1 -1 0 0 0 0];

internalField   nonuniform List<vector> 
16000
(
(0.0190466 0.152176 0.140129)
(0.00266433 0.149778 0.147167)
(0.000463958 0.150313 0.149277)
(0.00209313 0.14979 0.15081)
(0.0258365 0.10759 0.0835164)
(0.0149149 0.154531 0.13155)
(-0.001859 0.154421 0.146064)
(0.0110733 0.15095 0.15164)
(0.0064182 0.0705344 0.0513795)
(0.0200834 0.153057 0.112949)
(-0.00649414 0.158737 0.142968)
(0.0182647 0.153927 0.150433)
(-0.00904043 0.0622472 0.0452598)
(0.0181592 0.146181 0.0990144)
(-0.0110153 0.1613 0.140949)
(0.0224854 0.156964 0.147532)
(-0.0129219 0.0679961 0.0461152)
(0.0140886 0.13843 0.0905728)
(-0.013784 0.161759 0.139897)
(0.0239338 0.159274 0.143949)
(-0.0120312 0.0763234 0.0442488)
(0.0108716 0.134102 0.0861506)
(-0.0149073 0.160443 0.139456)
(0.0234877 0.160966 0.140438)
(-0.0104469 0.0845084 0.0413365)
(0.00849116 0.132773 0.0841805)
(-0.0149406 0.158255 0.139087)
(0.0222734 0.162175 0.137314)
(-0.00919742 0.0920084 0.0388252)
(0.00716387 0.132492 0.0833224)
(-0.0143303 0.156101 0.138507)
(0.0207698 0.162998 0.134668)
(-0.0082408 0.0985904 0.0368617)
(0.00668405 0.132539 0.0827091)
(-0.0134166 0.154225 0.137596)
(0.0192384 0.163595 0.132476)
(-0.0074506 0.104044 0.0353053)
(0.00663626 0.132663 0.0819245)
(-0.0124733 0.152696 0.136355)
(0.0178591 0.164081 0.130661)
(-0.00678913 0.108388 0.033982)
(0.00673222 0.132717 0.0808742)
(-0.0116568 0.151528 0.134868)
(0.0167141 0.164506 0.129118)
(-0.00624956 0.111791 0.0327993)
(0.00682735 0.132693 0.0796177)
(-0.0110164 0.150666 0.133228)
(0.0158075 0.164885 0.127754)
(-0.00581702 0.114467 0.0317267)
(0.0068679 0.132642 0.0782552)
(-0.0105512 0.150032 0.131493)
(0.0151097 0.165218 0.126513)
(-0.00547201 0.116612 0.0307586)
(0.00684963 0.132607 0.0768714)
(-0.0102464 0.149566 0.129723)
(0.0145897 0.165504 0.125349)
(-0.00520043 0.118382 0.0298942)
(0.00679412 0.132611 0.0755249)
(-0.0100706 0.149226 0.127976)
(0.0142125 0.16574 0.124224)
(-0.00499306 0.119892 0.0291304)
(0.00673239 0.132677 0.0742472)
(-0.00998348 0.14898 0.12629)
(0.0139387 0.165924 0.123112)
(-0.00483268 0.121225 0.0284575)
(0.0066729 0.132821 0.0730507)
(-0.0099433 0.1488 0.124681)
(0.01373 0.166056 0.122003)
(-0.00470422 0.122428 0.0278625)
(0.00661601 0.133041 0.0719372)
(-0.00992204 0.148668 0.123154)
(0.01356 0.166142 0.120891)
(-0.0045977 0.123534 0.0273323)
(0.00656291 0.133328 0.0709016)
(-0.00990179 0.148573 0.121705)
(0.01341 0.166191 0.119777)
(-0.00450555 0.124561 0.0268549)
(0.00651262 0.133668 0.0699345)
(-0.00987318 0.148509 0.120327)
(0.0132687 0.16621 0.118662)
(-0.00442405 0.125522 0.0264207)
(0.00646537 0.134045 0.0690258)
(-0.00983143 0.148474 0.119009)
(0.0131287 0.166206 0.11755)
(-0.00435125 0.126424 0.0260219)
(0.00642147 0.134447 0.0681668)
(-0.00977501 0.148464 0.117743)
(0.0129857 0.166185 0.116445)
(-0.00428504 0.127275 0.0256524)
(0.00637955 0.134866 0.0673498)
(-0.00970499 0.148476 0.116521)
(0.0128385 0.166152 0.11535)
(-0.00422383 0.128078 0.0253072)
(0.00633823 0.135295 0.0665686)
(-0.00962391 0.14851 0.115336)
(0.0126875 0.166111 0.114267)
(-0.00416644 0.128839 0.0249824)
(0.00629619 0.135726 0.0658187)
(-0.00953454 0.148562 0.114183)
(0.0125338 0.166065 0.113199)
(-0.00411237 0.129562 0.024675)
(0.0062534 0.136158 0.0650964)
(-0.00943993 0.148631 0.11306)
(0.0123791 0.166017 0.112147)
(-0.00406061 0.130251 0.0243826)
(0.00620856 0.136587 0.0643994)
(-0.00934191 0.148715 0.111964)
(0.0122248 0.165968 0.111111)
(-0.00401008 0.13091 0.0241033)
(0.0061606 0.137013 0.0637259)
(-0.00924236 0.148813 0.110892)
(0.0120721 0.165919 0.110093)
(-0.00396135 0.131541 0.0238356)
(0.00611116 0.137432 0.063074)
(-0.00914267 0.148923 0.109844)
(0.0119218 0.165872 0.109092)
(-0.00391457 0.132149 0.0235784)
(0.00606104 0.137846 0.0624423)
(-0.00904362 0.149045 0.108819)
(0.0117744 0.165827 0.108108)
(-0.00386963 0.132735 0.0233309)
(0.00601073 0.138254 0.0618291)
(-0.00894579 0.149176 0.107817)
(0.0116302 0.165786 0.10714)
(-0.00382644 0.133302 0.0230921)
(0.00596065 0.138656 0.0612331)
(-0.00884957 0.149316 0.106838)
(0.0114894 0.165748 0.106189)
(-0.00378482 0.133851 0.0228614)
(0.00591107 0.139053 0.060653)
(-0.00875494 0.149463 0.105881)
(0.0113517 0.165713 0.105253)
(-0.0037445 0.134385 0.0226381)
(0.00586167 0.139446 0.0600881)
(-0.00866209 0.149619 0.104946)
(0.011217 0.165685 0.104333)
(-0.0037052 0.134901 0.0224214)
(0.0058142 0.13983 0.0595366)
(-0.00857038 0.149775 0.104032)
(0.0110849 0.165654 0.103427)
(-0.00366626 0.135409 0.0222113)
(0.00576497 0.140218 0.0589998)
(-0.00848194 0.149957 0.10314)
(0.0109534 0.165649 0.102539)
(-0.00362547 0.13588 0.0220045)
(0.00573057 0.14058 0.0584683)
(-0.00839106 0.150093 0.102265)
(0.0108318 0.165588 0.101654)
(-0.00357802 0.136366 0.0218055)
(0.005666 0.140986 0.057965)
(-0.00831698 0.150391 0.101424)
(0.0106431 0.165698 0.100839)
(-0.00350547 0.136712 0.0215877)
(0.00574553 0.1413 0.0574046)
(-0.0082082 0.150318 0.100557)
(0.0108454 0.165327 0.0998103)
(-0.00337115 0.137025 0.0213882)
(0.00550391 0.141758 0.0569809)
(-0.00825297 0.15119 0.0998539)
(0.0087403 0.166454 0.099666)
(0.000822256 0.150095 -0.149382)
(-5.50374e-05 0.149939 -0.148269)
(0.000655865 0.150069 -0.148067)
(0.000586595 0.149992 -0.148596)
(0.000634937 0.149995 -0.148913)
(0.000657401 0.149997 -0.149092)
(0.000656242 0.149999 -0.149207)
(0.000640986 0.15 -0.149291)
(0.000616612 0.150001 -0.149357)
(0.000586005 0.150002 -0.149412)
(0.000551192 0.150002 -0.14946)
(0.000513561 0.150003 -0.149503)
(0.000474052 0.150003 -0.149543)
(0.00043332 0.150004 -0.14958)
(0.000391833 0.150004 -0.149615)
(0.000349953 0.150004 -0.149649)
(0.000307982 0.150005 -0.149682)
(0.000266195 0.150005 -0.149715)
(0.00022487 0.150005 -0.149749)
(0.000184319 0.150005 -0.149785)
(0.000144912 0.150006 -0.149822)
(0.000107108 0.150006 -0.149862)
(7.14792e-05 0.150006 -0.149905)
(3.87185e-05 0.150005 -0.149955)
(9.59614e-06 0.150005 -0.150011)
(-1.46677e-05 0.150004 -0.150078)
(-3.27938e-05 0.150003 -0.15016)
(-4.58078e-05 0.150001 -0.150266)
(-6.49266e-05 0.150008 -0.150408)
(-4.73637e-06 0.14999 -0.150549)
(-0.000138151 0.15003 -0.150446)
(0.000107461 0.150005 -0.150135)
(0.00329937 0.149853 -0.146611)
(-0.000194806 0.149153 -0.14347)
(0.0020517 0.149803 -0.143612)
(0.00176961 0.149788 -0.144931)
(0.001906 0.149839 -0.145952)
(0.00195407 0.149889 -0.14665)
(0.00194234 0.149929 -0.147137)
(0.00189245 0.14996 -0.147493)
(0.00181608 0.149983 -0.147769)
(0.00172111 0.150002 -0.147992)
(0.00161364 0.150016 -0.148181)
(0.00149817 0.150028 -0.148346)
(0.00137788 0.150037 -0.148494)
(0.00125503 0.150045 -0.148629)
(0.00113123 0.150051 -0.148756)
(0.00100768 0.150056 -0.148878)
(0.000885316 0.15006 -0.148996)
(0.000764933 0.150064 -0.149114)
(0.000647302 0.150066 -0.149233)
(0.000533233 0.150067 -0.149356)
(0.000423652 0.150068 -0.149487)
(0.000319654 0.150066 -0.149628)
(0.00022255 0.150064 -0.149783)
(0.000133864 0.150059 -0.149959)
(5.52434e-05 0.150053 -0.150162)
(-1.1267e-05 0.150045 -0.150401)
(-6.33629e-05 0.150034 -0.150689)
(-0.000100671 0.150023 -0.151038)
(-0.000167626 0.150026 -0.151432)
(7.00103e-06 0.149963 -0.15174)
(-0.000478063 0.150158 -0.15158)
(0.000452885 0.149967 -0.150592)
(0.00483562 0.148668 -0.143287)
(-0.000143011 0.148341 -0.138973)
(0.0031039 0.149224 -0.139329)
(0.00272159 0.14939 -0.141113)
(0.00295302 0.14955 -0.142688)
(0.00303121 0.149684 -0.143887)
(0.00302127 0.149793 -0.144779)
(0.00295391 0.14988 -0.145456)
(0.0028445 0.149949 -0.145986)
(0.00270406 0.150003 -0.146416)
(0.00254176 0.150046 -0.146777)
(0.00236476 0.15008 -0.147088)
(0.00217848 0.150107 -0.147365)
(0.00198698 0.150128 -0.147617)
(0.00179332 0.150145 -0.147852)
(0.00159982 0.150159 -0.148075)
(0.00140831 0.15017 -0.148292)
(0.00122035 0.150178 -0.148507)
(0.00103732 0.150183 -0.148725)
(0.00086061 0.150185 -0.148951)
(0.000691684 0.150184 -0.14919)
(0.000532153 0.15018 -0.149449)
(0.000383819 0.150172 -0.149734)
(0.00024865 0.15016 -0.150056)
(0.000128621 0.150143 -0.150424)
(2.57487e-05 0.150121 -0.15085)
(-5.73577e-05 0.150096 -0.151346)
(-0.000113441 0.150068 -0.151907)
(-0.000237132 0.150065 -0.152481)
(4.22715e-05 0.149963 -0.152866)
(-0.000710058 0.150217 -0.152577)
(0.000692611 0.149924 -0.151035)
(0.0055947 0.146855 -0.139641)
(7.59334e-05 0.14744 -0.134917)
(0.00379519 0.148405 -0.135393)
(0.00342312 0.148821 -0.137432)
(0.00374377 0.149137 -0.139395)
(0.00386171 0.149387 -0.141008)
(0.00386806 0.14959 -0.142279)
(0.00380041 0.149755 -0.14328)
(0.00367701 0.149889 -0.144081)
(0.00351112 0.149995 -0.144737)
(0.00331403 0.15008 -0.145289)
(0.00309485 0.150147 -0.145765)
(0.00286085 0.150201 -0.146187)
(0.00261774 0.150243 -0.146569)
(0.00237001 0.150277 -0.146923)
(0.00212122 0.150303 -0.14726)
(0.00187426 0.150323 -0.147586)
(0.00163156 0.150337 -0.147909)
(0.00139526 0.150346 -0.148237)
(0.00116739 0.150349 -0.148576)
(0.000949949 0.150346 -0.148935)
(0.000744986 0.150337 -0.149323)
(0.000554637 0.150321 -0.149748)
(0.000381097 0.150298 -0.150224)
(0.000226422 0.150267 -0.150762)
(9.22365e-05 0.15023 -0.151371)
(-2.02691e-05 0.150186 -0.152053)
(-8.87822e-05 0.150135 -0.152785)
(-0.000270829 0.150122 -0.153478)
(8.72216e-05 0.149991 -0.153882)
(-0.000839332 0.150215 -0.153447)
(0.000839204 0.149883 -0.151458)
(0.00585711 0.144752 -0.135839)
(0.000325865 0.146344 -0.131197)
(0.0042287 0.147431 -0.131768)
(0.00391842 0.148113 -0.133954)
(0.00431252 0.148614 -0.136187)
(0.0044749 0.149005 -0.138126)
(0.00450762 0.149322 -0.139727)
(0.00445235 0.149582 -0.141032)
(0.00432955 0.149794 -0.142101)
(0.00415422 0.149966 -0.14299)
(0.00393907 0.150105 -0.143743)
(0.00369463 0.150216 -0.144396)
(0.00342951 0.150305 -0.144973)
(0.00315077 0.150376 -0.145497)
(0.00286415 0.150432 -0.145981)
(0.00257439 0.150475 -0.14644)
(0.0022854 0.150507 -0.146885)
(0.00200052 0.150529 -0.147325)
(0.00172267 0.150542 -0.147771)
(0.0014545 0.150546 -0.148231)
(0.00119854 0.150541 -0.148717)
(0.000957192 0.150526 -0.14924)
(0.00073281 0.1505 -0.149811)
(0.000527699 0.150465 -0.150442)
(0.00034395 0.150419 -0.151143)
(0.000182669 0.150363 -0.15192)
(4.08993e-05 0.150299 -0.152764)
(-3.47207e-05 0.150225 -0.15363)
(-0.000272121 0.150195 -0.154405)
(0.00013413 0.150036 -0.154801)
(-0.000897119 0.150196 -0.154234)
(0.000924525 0.149846 -0.151874)
(0.00582669 0.142512 -0.132005)
(0.000532026 0.145063 -0.127723)
(0.00448311 0.14636 -0.128395)
(0.00425025 0.147299 -0.130681)
(0.00470257 0.147999 -0.133106)
(0.00490915 0.148547 -0.135301)
(0.00497336 0.148994 -0.137181)
(0.00493856 0.149361 -0.13876)
(0.00482661 0.149664 -0.140083)
(0.00465371 0.149912 -0.141201)
(0.00443351 0.150114 -0.142159)
(0.00417743 0.150278 -0.142994)
(0.00389505 0.150411 -0.143735)
(0.00359441 0.150516 -0.144408)
(0.00328228 0.150599 -0.145031)
(0.00296437 0.150663 -0.14562)
(0.00264551 0.150711 -0.146191)
(0.00232987 0.150743 -0.146754)
(0.00202108 0.150762 -0.147324)
(0.00172238 0.150767 -0.147911)
(0.00143673 0.15076 -0.148529)
(0.00116684 0.150738 -0.14919)
(0.000915177 0.150703 -0.149905)
(0.000684036 0.150654 -0.150688)
(0.000475275 0.150592 -0.151544)
(0.000289303 0.150518 -0.152472)
(0.000123034 0.150431 -0.153453)
(4.35517e-05 0.150339 -0.154428)
(-0.000250606 0.150281 -0.155262)
(0.000179479 0.150098 -0.155645)
(-0.000905979 0.150182 -0.154968)
(0.000970021 0.149818 -0.152291)
(0.0056481 0.140222 -0.12822)
(0.000677096 0.143644 -0.124443)
(0.00460811 0.145216 -0.125231)
(0.00445343 0.146406 -0.127597)
(0.00495202 0.14731 -0.130166)
(0.00519968 0.148025 -0.132564)
(0.00529686 0.14861 -0.134679)
(0.00528702 0.149094 -0.1365)
(0.00519267 0.149496 -0.138058)
(0.00503062 0.149829 -0.139396)
(0.00481507 0.150103 -0.140555)
(0.00455795 0.150327 -0.141573)
(0.00426944 0.150509 -0.142482)
(0.00395825 0.150655 -0.143309)
(0.00363189 0.15077 -0.144076)
(0.00329684 0.150859 -0.144802)
(0.00295867 0.150926 -0.145503)
(0.00262224 0.150971 -0.146196)
(0.00229178 0.150997 -0.146894)
(0.00197104 0.151005 -0.147612)
(0.00166334 0.150996 -0.148363)
(0.00137158 0.150969 -0.149161)
(0.00109834 0.150924 -0.150019)
(0.000845848 0.150862 -0.150945)
(0.000615715 0.150785 -0.151945)
(0.000407914 0.150692 -0.15301)
(0.000220779 0.150587 -0.15411)
(0.000134374 0.150476 -0.155176)
(-0.00021347 0.150371 -0.156058)
(0.000226478 0.150183 -0.156432)
(-0.000882874 0.150179 -0.155667)
(0.000990759 0.149803 -0.152716)
(0.0054043 0.137952 -0.124534)
(0.00076564 0.142128 -0.121328)
(0.00463836 0.144017 -0.122247)
(0.00455643 0.145456 -0.124685)
(0.00509198 0.146565 -0.127369)
(0.00537626 0.147451 -0.129931)
(0.00550563 0.148179 -0.132243)
(0.00552272 0.148786 -0.134276)
(0.00545003 0.149293 -0.136048)
(0.00530455 0.149717 -0.137592)
(0.00510065 0.150068 -0.138946)
(0.00485049 0.150358 -0.140145)
(0.00456452 0.150594 -0.141222)
(0.00425188 0.150786 -0.142206)
(0.00392053 0.150938 -0.14312)
(0.0035775 0.151056 -0.143986)
(0.00322891 0.151144 -0.144822)
(0.00288014 0.151205 -0.145647)
(0.00253591 0.151241 -0.146477)
(0.00220034 0.151253 -0.147327)
(0.00187703 0.151243 -0.148211)
(0.00156907 0.151211 -0.149145)
(0.00127906 0.151158 -0.15014)
(0.0010092 0.151085 -0.151203)
(0.000760977 0.150993 -0.152335)
(0.000534437 0.150884 -0.153522)
(0.00033004 0.150761 -0.154728)
(0.000225323 0.150632 -0.155873)
(-0.000165205 0.150476 -0.1568)
(0.000286935 0.150293 -0.157172)
(-0.000848334 0.150191 -0.156343)
(0.00100077 0.149804 -0.153155)
(0.0051358 0.135745 -0.120973)
(0.000807339 0.140555 -0.118362)
(0.00459985 0.142779 -0.119422)
(0.00458215 0.144465 -0.121929)
(0.00514728 0.145777 -0.12471)
(0.00546341 0.146834 -0.127408)
(0.00562296 0.147709 -0.129887)
(0.00566725 0.148441 -0.132107)
(0.00561836 0.149057 -0.134072)
(0.00549308 0.149574 -0.135807)
(0.0053057 0.150007 -0.137346)
(0.00506832 0.150367 -0.138721)
(0.00479148 0.150663 -0.139964)
(0.00448445 0.150904 -0.141104)
(0.00415547 0.151097 -0.142167)
(0.00381187 0.151247 -0.143174)
(0.00346014 0.15136 -0.144148)
(0.00310602 0.151438 -0.145107)
(0.00275456 0.151486 -0.146069)
(0.00241018 0.151505 -0.147051)
(0.00207666 0.151496 -0.148068)
(0.00175721 0.151461 -0.149134)
(0.00145447 0.151401 -0.150261)
(0.00117063 0.151318 -0.151453)
(0.000907119 0.151214 -0.152707)
(0.000664367 0.15109 -0.154005)
(0.000444909 0.15095 -0.155306)
(0.000315905 0.1508 -0.156522)
(-0.000106424 0.150607 -0.157492)
(0.000356657 0.150421 -0.157872)
(-0.000814696 0.150225 -0.157001)
(0.00101237 0.149823 -0.153609)
(0.00486172 0.133626 -0.117551)
(0.000814154 0.13896 -0.115534)
(0.00451201 0.141518 -0.116744)
(0.00454904 0.143446 -0.119319)
(0.00513773 0.144958 -0.122183)
(0.00548113 0.146185 -0.124997)
(0.00566832 0.147205 -0.127619)
(0.00573907 0.148064 -0.130002)
(0.00571475 0.14879 -0.13214)
(0.00561176 0.149404 -0.134053)
(0.00544406 0.149921 -0.135765)
(0.00522355 0.150353 -0.137309)
(0.00496063 0.150712 -0.138714)
(0.00466454 0.151005 -0.140009)
(0.00434359 0.151242 -0.141219)
(0.00400524 0.151428 -0.142369)
(0.00365616 0.151568 -0.14348)
(0.00330232 0.151667 -0.144573)
(0.00294897 0.151729 -0.145668)
(0.00260068 0.151756 -0.14678)
(0.00226138 0.151751 -0.147927)
(0.00193435 0.151715 -0.149122)
(0.00162228 0.151651 -0.150375)
(0.00132733 0.15156 -0.151688)
(0.00105096 0.151445 -0.153056)
(0.000793958 0.151309 -0.154456)
(0.00056035 0.151153 -0.155843)
(0.000406406 0.150981 -0.157126)
(-3.71949e-05 0.15076 -0.15814)
(0.000432001 0.150565 -0.158536)
(-0.000785699 0.150289 -0.157645)
(0.00102949 0.149862 -0.154081)
(0.00459194 0.131608 -0.114275)
(0.000796783 0.137367 -0.112834)
(0.00438971 0.140247 -0.114199)
(0.00447214 0.142411 -0.116844)
(0.00507927 0.144118 -0.119782)
(0.00544578 0.145511 -0.122695)
(0.0056579 0.146675 -0.125442)
(0.00575377 0.147659 -0.127969)
(0.00575389 0.148495 -0.130263)
(0.00567413 0.149207 -0.132337)
(0.00552799 0.149809 -0.134213)
(0.00532702 0.150316 -0.135917)
(0.00508135 0.150739 -0.137478)
(0.00480006 0.151088 -0.138924)
(0.00449134 0.151371 -0.14028)
(0.00416265 0.151594 -0.14157)
(0.00382071 0.151765 -0.142818)
(0.00347154 0.151887 -0.144045)
(0.0031205 0.151966 -0.14527)
(0.00277225 0.152004 -0.146512)
(0.00243077 0.152005 -0.147786)
(0.00209939 0.151971 -0.149104)
(0.00178084 0.151904 -0.150477)
(0.00147727 0.151808 -0.151904)
(0.00119021 0.151685 -0.153378)
(0.000920764 0.151538 -0.154874)
(0.000673789 0.151369 -0.156341)
(0.00049543 0.151177 -0.157688)
(4.04139e-05 0.150935 -0.158747)
(0.00051237 0.150721 -0.159168)
(-0.000762773 0.150383 -0.158276)
(0.00105207 0.149919 -0.154571)
(0.0043318 0.129696 -0.111147)
(0.000763496 0.135796 -0.110257)
(0.00424453 0.138978 -0.111779)
(0.00436375 0.141369 -0.114494)
(0.00498488 0.143265 -0.117501)
(0.00537077 0.144819 -0.120501)
(0.00560517 0.146123 -0.123357)
(0.0057245 0.14723 -0.126011)
(0.00574836 0.148176 -0.128446)
(0.00569196 0.148984 -0.130668)
(0.00556827 0.149673 -0.132696)
(0.0053884 0.150255 -0.134551)
(0.00516213 0.150744 -0.136262)
(0.00489823 0.15115 -0.137853)
(0.00460472 0.151481 -0.139351)
(0.0042889 0.151745 -0.14078)
(0.0039574 0.151948 -0.142163)
(0.00361624 0.152096 -0.143521)
(0.00327075 0.152194 -0.144875)
(0.00292561 0.152246 -0.146243)
(0.00258482 0.152255 -0.147639)
(0.00225173 0.152225 -0.149078)
(0.00192907 0.152159 -0.150565)
(0.00161907 0.15206 -0.152101)
(0.0013233 0.151932 -0.153674)
(0.0010432 0.151777 -0.155258)
(0.000784042 0.151597 -0.156801)
(0.000583393 0.15139 -0.158211)
(0.000121498 0.151132 -0.159317)
(0.000592229 0.150893 -0.159771)
(-0.000742799 0.150503 -0.158894)
(0.00107926 0.149995 -0.15508)
(0.00408425 0.127894 -0.108167)
(0.000720429 0.134261 -0.107795)
(0.00408549 0.137721 -0.109476)
(0.00423392 0.140328 -0.11226)
(0.00486518 0.142404 -0.115331)
(0.00526715 0.144114 -0.118409)
(0.00552132 0.145554 -0.121361)
(0.00566235 0.146782 -0.124129)
(0.00570888 0.147836 -0.126691)
(0.0056754 0.148739 -0.129049)
(0.00557432 0.149513 -0.131217)
(0.00541626 0.150172 -0.133216)
(0.00521057 0.150727 -0.135068)
(0.00496567 0.151191 -0.1368)
(0.0046893 0.151572 -0.138436)
(0.00438851 0.151878 -0.139999)
(0.0040698 0.152115 -0.141514)
(0.00373905 0.152291 -0.143001)
(0.00340151 0.152411 -0.144481)
(0.00306182 0.152479 -0.145971)
(0.00272394 0.152499 -0.147487)
(0.00239123 0.152476 -0.14904)
(0.00206646 0.152413 -0.150637)
(0.00175189 0.152315 -0.152275)
(0.0014492 0.152184 -0.153942)
(0.0011601 0.152024 -0.15561)
(0.0008901 0.151836 -0.157226)
(0.000669831 0.151617 -0.158696)
(0.000203235 0.151346 -0.159851)
(0.000667308 0.151083 -0.160345)
(-0.000724288 0.150646 -0.159499)
(0.00111038 0.150092 -0.155607)
(0.00385098 0.126199 -0.105331)
(0.000672142 0.132771 -0.105443)
(0.0039196 0.136484 -0.107281)
(0.00409085 0.139294 -0.110136)
(0.00472891 0.141542 -0.113268)
(0.00514409 0.143401 -0.116416)
(0.00541574 0.144973 -0.119454)
(0.00557668 0.146318 -0.122323)
(0.00564457 0.147476 -0.125)
(0.0056332 0.148474 -0.127482)
(0.00555436 0.149332 -0.129781)
(0.00541815 0.150066 -0.131913)
(0.00523347 0.150688 -0.133901)
(0.00500837 0.151211 -0.135767)
(0.00475021 0.151643 -0.137535)
(0.0044658 0.151992 -0.139229)
(0.00416137 0.152266 -0.140872)
(0.00384264 0.152472 -0.142484)
(0.00351472 0.152616 -0.144086)
(0.00318215 0.152702 -0.145695)
(0.00284887 0.152736 -0.147326)
(0.00251818 0.152723 -0.14899)
(0.00219289 0.152666 -0.150691)
(0.00187532 0.152571 -0.152427)
(0.00156726 0.15244 -0.154184)
(0.00127066 0.152277 -0.155932)
(0.000991133 0.152084 -0.157617)
(0.00075381 0.151856 -0.159146)
(0.000285043 0.151576 -0.160352)
(0.000735296 0.151293 -0.160893)
(-0.000710384 0.150811 -0.160092)
(0.00114729 0.150209 -0.156152)
(0.00363298 0.124608 -0.102636)
(0.000622056 0.131331 -0.103195)
(0.00375236 0.135271 -0.105188)
(0.00394119 0.138271 -0.108114)
(0.00458326 0.140682 -0.111303)
(0.00500921 0.142684 -0.114515)
(0.00529627 0.144382 -0.117631)
(0.00547541 0.14584 -0.120592)
(0.00556326 0.1471 -0.123373)
(0.00557291 0.14819 -0.125969)
(0.00551554 0.149131 -0.128388)
(0.00540074 0.149939 -0.130646)
(0.00523694 0.150629 -0.132761)
(0.00503176 0.15121 -0.134755)
(0.00479223 0.151694 -0.136651)
(0.0045248 0.152088 -0.138471)
(0.00423546 0.1524 -0.140237)
(0.00392969 0.152638 -0.141971)
(0.00361246 0.152808 -0.143691)
(0.00328815 0.152915 -0.145415)
(0.00296063 0.152965 -0.147157)
(0.00263319 0.152964 -0.148927)
(0.00230863 0.152916 -0.150728)
(0.00198933 0.152827 -0.152557)
(0.00167721 0.152699 -0.154399)
(0.00137441 0.152536 -0.156223)
(0.00108655 0.15234 -0.157976)
(0.000834415 0.152106 -0.159564)
(0.000365107 0.151819 -0.160823)
(0.00079701 0.151517 -0.161416)
(-0.000701975 0.151004 -0.160671)
(0.00119036 0.150348 -0.156712)
(0.00343079 0.123116 -0.100078)
(0.000572756 0.129945 -0.101047)
(0.00358808 0.134087 -0.103191)
(0.00379038 0.137263 -0.106187)
(0.00443423 0.139827 -0.109431)
(0.00486893 0.141964 -0.112703)
(0.00516957 0.143784 -0.115889)
(0.00536527 0.145351 -0.118933)
(0.00547165 0.146709 -0.121809)
(0.00550108 0.147889 -0.124509)
(0.00546415 0.148911 -0.12704)
(0.00536993 0.149793 -0.129415)
(0.0052264 0.150549 -0.13165)
(0.00504079 0.151189 -0.133765)
(0.00481972 0.151725 -0.135783)
(0.00456933 0.152165 -0.137724)
(0.00429531 0.152517 -0.13961)
(0.00400291 0.152789 -0.141461)
(0.00369689 0.152987 -0.143295)
(0.0033815 0.153117 -0.14513)
(0.00306049 0.153186 -0.146979)
(0.00273714 0.1532 -0.14885)
(0.00241424 0.153163 -0.150747)
(0.00209422 0.153082 -0.152665)
(0.00177909 0.152959 -0.154588)
(0.00147117 0.152799 -0.156486)
(0.00117604 0.152603 -0.158304)
(0.000910997 0.152366 -0.159952)
(0.000440829 0.152073 -0.161265)
(0.000855127 0.151752 -0.161915)
(-0.000694724 0.151222 -0.161236)
(0.00123542 0.150509 -0.157287)
(0.0032446 0.121716 -0.0976492)
(0.000526215 0.128613 -0.0989925)
(0.00343014 0.132934 -0.101283)
(0.0036429 0.136271 -0.104349)
(0.00428682 0.138979 -0.107646)
(0.00472862 0.141245 -0.110973)
(0.00504129 0.14318 -0.114224)
(0.00525205 0.144852 -0.117344)
(0.00537553 0.146306 -0.120306)
(0.00542339 0.147573 -0.123102)
(0.00540567 0.148674 -0.125737)
(0.00533094 0.149629 -0.128221)
(0.00520676 0.15045 -0.130569)
(0.00503993 0.15115 -0.132799)
(0.00483673 0.151739 -0.134933)
(0.00460297 0.152225 -0.13699)
(0.00434405 0.152618 -0.13899)
(0.00406495 0.152925 -0.140954)
(0.00377023 0.153152 -0.142898)
(0.003464 0.153308 -0.14484)
(0.0031499 0.153398 -0.146791)
(0.00283114 0.153429 -0.14876)
(0.00251053 0.153406 -0.150749)
(0.00219052 0.153335 -0.152752)
(0.00187322 0.153221 -0.154754)
(0.00156108 0.153066 -0.156722)
(0.00125961 0.152872 -0.158605)
(0.0009834 0.152634 -0.160311)
(0.000511664 0.152339 -0.161681)
(0.000910353 0.152001 -0.162391)
(-0.000686127 0.15146 -0.161786)
(0.00127935 0.150692 -0.157872)
(0.00307441 0.1204 -0.0953448)
(0.000483964 0.127335 -0.0970278)
(0.00328127 0.131811 -0.0994595)
(0.00350242 0.135297 -0.102594)
(0.00414523 0.138139 -0.105943)
(0.00459291 0.140527 -0.109321)
(0.00491628 0.142573 -0.112631)
(0.00514073 0.144346 -0.11582)
(0.00527992 0.145892 -0.118862)
(0.00534484 0.147243 -0.121747)
(0.00534497 0.148422 -0.124478)
(0.00528844 0.149448 -0.127063)
(0.0051824 0.150334 -0.129517)
(0.00503328 0.151093 -0.131857)
(0.00484702 0.151734 -0.134101)
(0.00462911 0.152268 -0.136268)
(0.00438466 0.152703 -0.138378)
(0.00411842 0.153046 -0.14045)
(0.00383473 0.153306 -0.142501)
(0.00353755 0.153488 -0.144545)
(0.00323041 0.153602 -0.146595)
(0.00291646 0.153652 -0.148657)
(0.0025985 0.153645 -0.150734)
(0.00227902 0.153587 -0.152819)
(0.00196017 0.153483 -0.154896)
(0.00164452 0.153335 -0.156934)
(0.00133753 0.153146 -0.158879)
(0.00105166 0.15291 -0.160643)
(0.000577873 0.152614 -0.162071)
(0.000962461 0.152265 -0.162845)
(-0.000675974 0.151715 -0.162321)
(0.00132123 0.150897 -0.158467)
(0.00292009 0.11916 -0.093158)
(0.000447235 0.126108 -0.0951481)
(0.00314366 0.130719 -0.0977145)
(0.00337208 0.134341 -0.100917)
(0.00401307 0.137308 -0.104315)
(0.00446578 0.139811 -0.107742)
(0.00479878 0.141962 -0.111106)
(0.00503572 0.143833 -0.114359)
(0.00518929 0.145468 -0.117473)
(0.00526985 0.146901 -0.12044)
(0.00528639 0.148157 -0.12326)
(0.00524662 0.149252 -0.125941)
(0.00515731 0.150202 -0.128495)
(0.00502458 0.15102 -0.130938)
(0.00485404 0.151714 -0.133286)
(0.00465089 0.152296 -0.135559)
(0.00442 0.152773 -0.137774)
(0.00416585 0.153154 -0.13995)
(0.00389262 0.153447 -0.142102)
(0.00360408 0.153659 -0.144245)
(0.00330368 0.153797 -0.146389)
(0.00299449 0.153868 -0.148542)
(0.00267931 0.153879 -0.150703)
(0.00236062 0.153837 -0.152867)
(0.00204064 0.153745 -0.155017)
(0.00172203 0.153607 -0.157121)
(0.00141017 0.153425 -0.159128)
(0.00111589 0.153193 -0.160951)
(0.000639708 0.152899 -0.162437)
(0.00101145 0.152542 -0.163278)
(-0.000664628 0.151986 -0.162841)
(0.0013613 0.151123 -0.159067)
(0.00278141 0.117988 -0.091082)
(0.000417057 0.124929 -0.0933488)
(0.00301916 0.129656 -0.0960431)
(0.00325457 0.133401 -0.0993108)
(0.00389352 0.136485 -0.102756)
(0.00435075 0.139097 -0.106229)
(0.00469257 0.141349 -0.109645)
(0.00494092 0.143313 -0.112956)
(0.00510761 0.145035 -0.116138)
(0.00520241 0.146549 -0.119181)
(0.00523385 0.147878 -0.122084)
(0.00520927 0.149042 -0.124854)
(0.00513514 0.150056 -0.127502)
(0.00501727 0.150931 -0.130042)
(0.00486101 0.151679 -0.13249)
(0.00467131 0.152309 -0.134863)
(0.00445278 0.15283 -0.137178)
(0.00420971 0.15325 -0.139453)
(0.00394608 0.153577 -0.141703)
(0.00366553 0.153819 -0.14394)
(0.00337139 0.153984 -0.146175)
(0.00306669 0.154079 -0.148414)
(0.00275417 0.15411 -0.150657)
(0.00243635 0.154084 -0.152897)
(0.00211548 0.154007 -0.155117)
(0.00179427 0.153881 -0.157287)
(0.00147804 0.153708 -0.159355)
(0.00117629 0.153482 -0.161236)
(0.000697438 0.153192 -0.162782)
(0.00105746 0.152831 -0.163691)
(-0.0006524 0.152269 -0.163344)
(0.0014003 0.151371 -0.159671)
(0.00265813 0.116875 -0.0891103)
(0.000394341 0.123792 -0.0916255)
(0.00290938 0.12862 -0.0944405)
(0.0031523 0.132476 -0.0977714)
(0.00378943 0.135669 -0.101263)
(0.00425104 0.138385 -0.104779)
(0.00460107 0.140734 -0.108243)
(0.0048599 0.142788 -0.111608)
(0.00503852 0.144594 -0.114853)
(0.00514615 0.146186 -0.117966)
(0.00519092 0.147588 -0.120946)
(0.00517989 0.14882 -0.1238)
(0.00511924 0.149897 -0.126536)
(0.00501455 0.15083 -0.129168)
(0.00487095 0.151631 -0.13171)
(0.00469315 0.152309 -0.134179)
(0.00448559 0.152874 -0.13659)
(0.00425235 0.153334 -0.13896)
(0.00399725 0.153697 -0.141302)
(0.0037238 0.153971 -0.14363)
(0.00343525 0.154164 -0.145953)
(0.00313453 0.154283 -0.148275)
(0.00282439 0.154337 -0.150597)
(0.00250732 0.15433 -0.15291)
(0.0021856 0.154269 -0.155199)
(0.00186198 0.154156 -0.157432)
(0.0015417 0.153994 -0.15956)
(0.00123321 0.153777 -0.161499)
(0.000751407 0.153493 -0.163105)
(0.00110051 0.153131 -0.164084)
(-0.000639337 0.152565 -0.163832)
(0.00144054 0.15164 -0.160276)
(0.00255001 0.115811 -0.0872361)
(0.000379947 0.122692 -0.0899735)
(0.00281582 0.127606 -0.0929018)
(0.00306753 0.131563 -0.0962934)
(0.00370349 0.134859 -0.0998293)
(0.00416966 0.137672 -0.103387)
(0.00452753 0.140115 -0.106895)
(0.00479602 0.142256 -0.110311)
(0.0049854 0.144145 -0.113614)
(0.00510444 0.145813 -0.116792)
(0.00516095 0.147288 -0.119845)
(0.00516171 0.148587 -0.122777)
(0.00511272 0.149725 -0.125596)
(0.00501938 0.150716 -0.128315)
(0.00488664 0.151571 -0.130947)
(0.00471906 0.152298 -0.133506)
(0.00452086 0.152907 -0.136009)
(0.00429602 0.153408 -0.13847)
(0.00404819 0.153808 -0.140902)
(0.00378078 0.154115 -0.143317)
(0.00349693 0.154338 -0.145723)
(0.00319952 0.154484 -0.148125)
(0.00289126 0.15456 -0.150523)
(0.00257465 0.154574 -0.152907)
(0.00225195 0.154531 -0.155262)
(0.00192595 0.154434 -0.157557)
(0.0016018 0.154284 -0.159744)
(0.00128708 0.154077 -0.161742)
(0.00080204 0.153801 -0.163409)
(0.00114112 0.15344 -0.16446)
(-0.000626047 0.152875 -0.164304)
(0.00148327 0.151927 -0.160877)
(0.00245691 0.114786 -0.0854529)
(0.000374765 0.121623 -0.0883884)
(0.00273995 0.12661 -0.0914224)
(0.00300247 0.130661 -0.094872)
(0.00363834 0.134052 -0.0984503)
(0.00410955 0.13696 -0.102047)
(0.00447506 0.139492 -0.105597)
(0.00475251 0.141719 -0.109061)
(0.00495153 0.143688 -0.112418)
(0.00508052 0.145432 -0.115657)
(0.00514706 0.146978 -0.118778)
(0.00515777 0.148343 -0.121783)
(0.00511851 0.149544 -0.124681)
(0.00503456 0.150592 -0.127482)
(0.00491074 0.1515 -0.130199)
(0.00475149 0.152277 -0.132845)
(0.00456093 0.152931 -0.135435)
(0.00434287 0.153473 -0.137982)
(0.00410088 0.153911 -0.1405)
(0.00383826 0.154252 -0.142999)
(0.00355806 0.154506 -0.145486)
(0.00326312 0.154679 -0.147965)
(0.0029561 0.154781 -0.150436)
(0.00263947 0.154817 -0.152889)
(0.00231552 0.154793 -0.155308)
(0.00198701 0.154713 -0.157665)
(0.00165902 0.154577 -0.15991)
(0.00133844 0.154383 -0.161966)
(0.000849769 0.154116 -0.163694)
(0.00118023 0.153759 -0.164817)
(-0.000613668 0.153198 -0.16476)
(0.00152683 0.15223 -0.161475)
(0.00237877 0.113791 -0.0837542)
(0.000379787 0.120577 -0.0868656)
(0.00268334 0.125627 -0.0899977)
(0.00295945 0.129763 -0.0935023)
(0.00359669 0.133245 -0.097121)
(0.00407372 0.136244 -0.100755)
(0.00444683 0.138864 -0.104344)
(0.00473256 0.141175 -0.107853)
(0.00494007 0.143223 -0.11126)
(0.00507751 0.145043 -0.114558)
(0.0051523 0.146659 -0.117742)
(0.00517098 0.148091 -0.120817)
(0.00513937 0.149353 -0.123789)
(0.00506269 0.150459 -0.126668)
(0.00494571 0.151421 -0.129465)
(0.00479278 0.152247 -0.132194)
(0.00460794 0.152947 -0.134867)
(0.00439492 0.153531 -0.137498)
(0.00415719 0.154007 -0.140098)
(0.00389795 0.154384 -0.142677)
(0.00362021 0.154669 -0.145241)
(0.00332674 0.154872 -0.147795)