/*--------------------------------*- C++ -*----------------------------------*\
  =========                 |
  \\      /  F ield         | OpenFOAM: The Open Source CFD Toolbox
   \\    /   O peration     | Website:  https://openfoam.org
    \\  /    A nd           | Version:  8
     \\/     M anipulation  |
\*---------------------------------------------------------------------------*/
FoamFile
{
    version     2.0;
    format      ascii;
    class       volScalarField;
    location    "220/fluid";
    object      CH4;
}
// * * * * * * * * * * * * * * * * * * * * * * * * * * * * * * * * * * * * * //

dimensions      [0 0 0 0 0 0 0];

internalField   nonuniform List<scalar> 
4000
(
0.999997
0.999988
0.999973
0.999948
0.999906
0.999837
0.999723
0.999538
0.999241
0.998767
0.998024
0.996876
0.995133
0.992541
0.98878
0.983467
0.976186
0.966527
0.954142
0.938797
0.920405
0.899025
0.874851
0.848171
0.819338
0.788735
0.756749
0.72376
0.690124
0.656167
0.622184
0.588436
0.555144
0.522499
0.490656
0.45974
0.429848
0.401056
0.373416
0.346961
0.321707
0.297657
0.274803
0.253126
0.232603
0.213202
0.194889
0.177625
0.16137
0.146083
0.131722
0.118244
0.105608
0.0937751
0.082705
0.0723613
0.0627094
0.0537173
0.0453565
0.0376019
0.0304948
0.0240332
0.0180016
0.0125298
0.0076237
0.00334626
0.00235095
0.00162906
0.00111116
0.000744387
0.000488609
0.000313467
0.000196118
0.000119542
7.12514e-05
4.22984e-05
2.66263e-05
1.95062e-05
1.4768e-05
1.06993e-05
7.29168e-06
4.62404e-06
2.71008e-06
1.46854e-06
7.41515e-07
3.55052e-07
1.64197e-07
7.39652e-08
3.26511e-08
1.41871e-08
6.08766e-09
2.58616e-09
1.08968e-09
4.55852e-10
1.89284e-10
7.77789e-11
3.13254e-11
1.20303e-11
4.03035e-12
7.07479e-13
0.999997
0.999988
0.999973
0.999947
0.999904
0.999833
0.999716
0.999525
0.999219
0.998731
0.997966
0.996787
0.995001
0.992354
0.988527
0.983142
0.975787
0.966062
0.953627
0.938253
0.919849
0.898474
0.874311
0.847643
0.818813
0.7882
0.75619
0.723161
0.689473
0.655455
0.621406
0.587587
0.554227
0.521516
0.489613
0.458644
0.428706
0.399876
0.372206
0.34573
0.320462
0.296406
0.273552
0.251882
0.23137
0.211985
0.193691
0.17645
0.160221
0.144962
0.130631
0.117184
0.104581
0.0927809
0.0817447
0.0714354
0.0618184
0.0528619
0.0445372
0.0368195
0.0298033
0.0233635
0.0173727
0.0119821
0.00720552
0.0031624
0.00222615
0.0015426
0.00105067
0.000702012
0.000459108
0.000293199
0.000182477
0.000110643
6.57425e-05
3.92495e-05
2.5434e-05
1.8893e-05
1.4076e-05
9.97799e-06
6.63688e-06
4.10336e-06
2.34939e-06
1.25099e-06
6.25852e-07
2.99594e-07
1.39161e-07
6.31369e-08
2.81061e-08
1.23175e-08
5.32851e-09
2.28033e-09
9.67075e-10
4.06885e-10
1.69815e-10
7.01011e-11
2.8351e-11
1.09272e-11
3.67059e-12
6.45212e-13
0.999997
0.999988
0.999972
0.999945
0.999901
0.999828
0.999707
0.99951
0.999194
0.998692
0.997906
0.996696
0.994869
0.992167
0.988272
0.982804
0.975358
0.965538
0.95301
0.937551
0.919076
0.897642
0.873432
0.846723
0.817854
0.787198
0.755136
0.722047
0.688287
0.654189
0.620052
0.586143
0.552691
0.519891
0.487902
0.456854
0.426846
0.397955
0.370235
0.343719
0.318423
0.294349
0.271488
0.249819
0.229318
0.209952
0.191684
0.174474
0.158282
0.143065
0.128779
0.115381
0.10283
0.0910835
0.0801031
0.0698515
0.0602939
0.0513988
0.0431383
0.0354891
0.0285887
0.0221312
0.0162513
0.0109711
0.00633574
0.00299634
0.00208913
0.00143556
0.00097014
0.000643253
0.000417436
0.000264484
0.000163316
9.83603e-05
5.83275e-05
3.52987e-05
2.39766e-05
1.79424e-05
1.31493e-05
9.14592e-06
5.96931e-06
3.6284e-06
2.05102e-06
1.08418e-06
5.4123e-07
2.59386e-07
1.20802e-07
5.49847e-08
2.45578e-08
1.07951e-08
4.68194e-09
2.0077e-09
8.52717e-10
3.59134e-10
1.49985e-10
6.19429e-11
2.50611e-11
9.66282e-12
3.24696e-12
5.70888e-13
0.999997
0.999987
0.999971
0.999944
0.999898
0.999823
0.9997
0.999499
0.999176
0.998663
0.997861
0.996627
0.994768
0.992023
0.988071
0.982533
0.975004
0.965089
0.952459
0.936894
0.918313
0.896775
0.872464
0.845655
0.816689
0.785935
0.753775
0.720585
0.686722
0.652519
0.618277
0.584263
0.550707
0.517807
0.485725
0.45459
0.424505
0.395546
0.36777
0.34121
0.315881
0.291786
0.268915
0.247247
0.226757
0.207412
0.189173
0.172001
0.155853
0.140686
0.126455
0.113117
0.100629
0.08895
0.0780397
0.0678608
0.0583784
0.0495606
0.0413789
0.0338086
0.0270067
0.0206239
0.0147926
0.00951744
0.00481558
0.00277546
0.00191871
0.00130745
0.000876186
0.000576062
0.000370637
0.000232815
0.000142585
8.53406e-05
5.06296e-05
3.13012e-05
2.22548e-05
1.66662e-05
1.20358e-05
8.22477e-06
5.26701e-06
3.14303e-06
1.7492e-06
9.14404e-07
4.53543e-07
2.17018e-07
1.01137e-07
4.61287e-08
2.06621e-08
9.1132e-09
3.96658e-09
1.70697e-09
7.27424e-10
3.07293e-10
1.28673e-10
5.32586e-11
2.1586e-11
8.33422e-12
2.80298e-12
4.93047e-13
0.999997
0.999987
0.999971
0.999943
0.999896
0.999819
0.999693
0.999488
0.999158
0.998635
0.997817
0.996561
0.994669
0.991879
0.987868
0.982255
0.974635
0.964615
0.95187
0.936182
0.917475
0.895811
0.871375
0.844443
0.815354
0.784479
0.752198
0.718887
0.684904
0.650581
0.616222
0.582093
0.548428
0.515424
0.483246
0.452023
0.421859
0.392834
0.365002
0.338398
0.313037
0.288922
0.266043
0.244379
0.223903
0.204582
0.186377
0.169246
0.153148
0.138037
0.123869
0.110599
0.098183
0.0865802
0.07575
0.0656549
0.0562604
0.0475354
0.0394534
0.0320205
0.0253058
0.0189852
0.0132536
0.00810084
0.00358466
0.00249295
0.00171288
0.00116009
0.000772543
0.00050456
0.000322376
0.000201068
0.00012236
7.30147e-05
4.36592e-05
2.79895e-05
2.05983e-05
1.53412e-05
1.09287e-05
7.35059e-06
4.62959e-06
2.72057e-06
1.49591e-06
7.75855e-07
3.83275e-07
1.83281e-07
8.54788e-08
3.90437e-08
1.75193e-08
7.74114e-09
3.37527e-09
1.45484e-09
6.20859e-10
2.62595e-10
1.10066e-10
4.55931e-11
1.84899e-11
7.14165e-12
2.40235e-12
4.22623e-13
0.999997
0.999987
0.99997
0.999942
0.999894
0.999816
0.999687
0.999478
0.999143
0.99861
0.997779
0.996502
0.99458
0.991749
0.987682
0.981997
0.974286
0.964158
0.95129
0.935468
0.916619
0.894809
0.870226
0.843148
0.813916
0.782899
0.750479
0.717033
0.682918
0.648468
0.613986
0.57974
0.545964
0.512858
0.480585
0.449278
0.419041
0.389954
0.362071
0.335429
0.310042
0.285912
0.26303
0.241374
0.220917
0.201625
0.183458
0.166375
0.150331
0.135282
0.121181
0.107984
0.0956465
0.0841254
0.0733802
0.0633729
0.0540686
0.0454362
0.0374498
0.0302132
0.0236437
0.0174755
0.0119415
0.00708037
0.00312009
0.0021824
0.00150194
0.00101597
0.000674408
0.000438454
0.000278609
0.000172774
0.000104657
6.2475e-05
3.79564e-05
2.55855e-05
1.91662e-05
1.41351e-05
9.92837e-06
6.57243e-06
4.0721e-06
2.35711e-06
1.28043e-06
6.5849e-07
3.2365e-07
1.54511e-07
7.20436e-08
3.29292e-08
1.47942e-08
6.54741e-09
2.8598e-09
1.23486e-09
5.27881e-10
2.23615e-10
9.38525e-11
3.89179e-11
1.57952e-11
6.10386e-12
2.0537e-12
3.61328e-13
0.999997
0.999987
0.999969
0.999941
0.999892
0.999813
0.999682
0.99947
0.999128
0.998587
0.997742
0.996446
0.994495
0.991623
0.9875
0.981742
0.97394
0.963702
0.950707
0.934745
0.915747
0.893783
0.869043
0.84181
0.812423
0.781255
0.748688
0.715099
0.680848
0.646267
0.61166
0.577298
0.543415
0.51021
0.477849
0.446464
0.41616
0.387018
0.359092
0.332418
0.307011
0.282874
0.259995
0.238354
0.217921
0.198663
0.18054
0.163509
0.147524
0.132541
0.118512
0.105392
0.0931366
0.0817013
0.0710451
0.0611288
0.051916
0.0433728
0.0354682
0.0283766
0.0218922
0.0158452
0.0104068
0.00560882
0.00288537
0.00199435
0.00135931
0.000911701
0.000600416
0.000387379
0.00024434
0.000150499
9.07314e-05
5.42435e-05
3.36361e-05
2.37969e-05
1.79028e-05
1.30562e-05
9.04428e-06
5.89677e-06
3.59826e-06
2.05489e-06
1.10463e-06
5.64024e-07
2.76268e-07
1.31693e-07
6.13792e-08
2.80615e-08
1.26152e-08
5.58788e-09
2.44309e-09
1.056e-09
4.51869e-10
1.91588e-10
8.04712e-11
3.33883e-11
1.3556e-11
5.23948e-12
1.76286e-12
3.10155e-13
0.999997
0.999987
0.999969
0.99994
0.999891
0.99981
0.999677
0.999461
0.999115
0.998566
0.997708
0.996393
0.994414
0.991503
0.987326
0.981496
0.973603
0.963256
0.950133
0.934029
0.914879
0.892756
0.867855
0.84046
0.810915
0.779592
0.746875
0.713142
0.678753
0.644043
0.609316
0.574841
0.540856
0.50756
0.475117
0.443662
0.4133
0.384111
0.35615
0.329453
0.304034
0.279896
0.257027
0.235406
0.215004
0.195785
0.177709
0.160733
0.144811
0.129897
0.115943
0.102903
0.0907321
0.0793867
0.0688256
0.0590106
0.0499071
0.0414851
0.0337208
0.026796
0.0202644
0.0143053
0.00892052
0.00415722
0.00265266
0.00181869
0.00123075
0.000820076
0.000536717
0.000344193
0.000215847
0.000132293
7.9581e-05
4.78614e-05
3.04993e-05
2.23173e-05
1.67637e-05
1.20998e-05
8.276e-06
5.321e-06
3.2023e-06
1.80673e-06
9.62143e-07
4.88046e-07
2.38309e-07
1.13409e-07
5.28179e-08
2.41443e-08
1.08572e-08
4.81181e-09
2.10527e-09
9.107e-10
3.90002e-10
1.65478e-10
6.95473e-11
2.88687e-11
1.17241e-11
4.5318e-12
1.52463e-12
2.68233e-13
0.999997
0.999986
0.999969
0.999939
0.999889
0.999807
0.999673
0.999454
0.999102
0.998545
0.997676
0.996342
0.994337
0.991388
0.987158
0.981258
0.973277
0.962821
0.949572
0.933328
0.914026
0.891746
0.866684
0.839129
0.809425
0.777949
0.745084
0.71121
0.676688
0.641853
0.60701
0.572431
0.538351
0.50497
0.472455
0.440939
0.410526
0.381299
0.353312
0.326598
0.301175
0.277042
0.254189
0.232594
0.212226
0.19305
0.175025
0.158107
0.142249
0.127404
0.113525
0.100564
0.0884769
0.0772186
0.0667478
0.0570261
0.0480187
0.0396951
0.0320798
0.0252463
0.0188179
0.01301
0.00782723
0.00336547
0.00235255
0.00162067
0.00109908
0.000732527
0.000478892
0.000306487
0.000191736
0.00011731
7.06888e-05
4.30502e-05
2.84716e-05
2.12549e-05
1.58614e-05
1.1323e-05
7.64745e-06
4.8514e-06
2.88227e-06
1.60831e-06
8.49244e-07
4.28199e-07
2.08464e-07
9.90291e-08
4.6075e-08
2.10522e-08
9.46587e-09
4.19585e-09
1.83639e-09
7.94731e-10
3.40499e-10
1.44538e-10
6.07689e-11
2.52308e-11
1.02477e-11
3.96094e-12
1.33235e-12
2.34391e-13
0.999997
0.999986
0.999968
0.999938
0.999888
0.999805
0.999668
0.999447
0.99909
0.998526
0.997645
0.996295
0.994264
0.991278
0.986998
0.981031
0.972964
0.962403
0.949033
0.932652
0.913203
0.890769
0.865551
0.83784
0.807983
0.776358
0.743351
0.709342
0.674693
0.639741
0.60479
0.570114
0.535947
0.502491
0.469912
0.438343
0.407889
0.378631
0.350625
0.323903
0.298481
0.27436
0.251527
0.229962
0.209632
0.190501
0.172528
0.155667
0.139873
0.125097
0.111291
0.0984076
0.0864003
0.0752251
0.0648399
0.0552063
0.0462894
0.0380595
0.0306352
0.0239119
0.0176054
0.0119595
0.00700633
0.00309373
0.00215665
0.00148252
0.00100332
0.000667225
0.000435149
0.000277785
0.000173373
0.000105955
6.40346e-05
3.95631e-05
2.7176e-05
2.04747e-05
1.51546e-05
1.07012e-05
7.13996e-06
4.47239e-06
2.62551e-06
1.4503e-06
7.59888e-07
3.81008e-07
1.84948e-07
8.76933e-08
4.07531e-08
1.8608e-08
8.36418e-09
3.70729e-09
1.62276e-09
7.02448e-10
3.01049e-10
1.27829e-10
5.37562e-11
2.23221e-11
9.06646e-12
3.504e-12
1.17841e-12
2.07299e-13
0.999997
0.999986
0.999968
0.999937
0.999886
0.999802
0.999664
0.99944
0.999079
0.998508
0.997617
0.99625
0.994195
0.991175
0.986847
0.980816
0.972667
0.962007
0.948521
0.93201
0.912421
0.889841
0.864474
0.836615
0.806613
0.774847
0.741706
0.70757
0.672803
0.637742
0.602693
0.567928
0.533684
0.500161
0.467527
0.435913
0.405425
0.376145
0.348125
0.3214
0.295985
0.27188
0.249072
0.227538
0.207248
0.188163
0.170242
0.153439
0.137707
0.122997
0.109261
0.0964503
0.084518
0.0734193
0.0631117
0.0535558
0.044716
0.0365606
0.0292304
0.0225898
0.0163604
0.0107666
0.00582681
0.00293035
0.00203326
0.00139176
0.00093818
0.000621599
0.000403971
0.00025704
0.000159988
9.76559e-05
5.9198e-05
3.71207e-05
2.63264e-05
1.98759e-05
1.45885e-05
1.01959e-05
6.72587e-06
4.16421e-06
2.41834e-06
1.32388e-06
6.88892e-07
3.43687e-07
1.66386e-07
7.87512e-08
3.65544e-08
1.66784e-08
7.49368e-09
3.32085e-09
1.45359e-09
6.29287e-10
2.6974e-10
1.14555e-10
4.81808e-11
2.00081e-11
8.12635e-12
3.14029e-12
1.05587e-12
1.85736e-13
0.999997
0.999986
0.999967
0.999937
0.999885
0.9998
0.999661
0.999434
0.999069
0.998492
0.99759
0.996208
0.994131
0.991078
0.986706
0.980616
0.972391
0.961638
0.948043
0.93141
0.911691
0.888974
0.863468
0.835471
0.805333
0.773437
0.740172
0.70592
0.671045
0.635885
0.600747
0.565903
0.53159
0.49801
0.465328
0.433677
0.403163
0.373865
0.345839
0.319116
0.293711
0.269624
0.246842
0.225342
0.205091
0.186052
0.168182
0.151435
0.135763
0.121117
0.107447
0.094705
0.0828435
0.071817
0.0615822
0.0520991
0.0433336
0.0352608
0.0279978
0.0214263
0.0152481
0.0096872
0.00478009
0.00280978
0.00194066
0.00132312
0.000888744
0.00058693
0.000380302
0.000241339
0.000149917
9.14771e-05
5.56751e-05
3.54445e-05
2.56901e-05
1.93772e-05
1.4116e-05
9.7759e-06
6.38379e-06
3.91191e-06
2.25048e-06
1.22242e-06
6.32313e-07
3.14086e-07
1.51696e-07
7.16818e-08
3.32361e-08
1.51533e-08
6.80541e-09
3.01515e-09
1.3197e-09
5.71348e-10
2.44932e-10
1.04033e-10
4.37597e-11
1.81728e-11
7.38069e-12
2.85185e-12
9.58693e-13
1.68644e-13
0.999997
0.999986
0.999967
0.999936
0.999884
0.999798
0.999657
0.999428
0.99906
0.998476
0.997566
0.99617
0.994072
0.99099
0.986577
0.980432
0.972137
0.961299
0.947604
0.930861
0.911021
0.888179
0.862547
0.834423
0.804162
0.772148
0.73877
0.704413
0.669441
0.634192
0.598975
0.564062
0.529689
0.49606
0.463338
0.431656
0.401121
0.371812
0.343782
0.317064
0.291673
0.267606
0.244851
0.223384
0.203172
0.184177
0.166356
0.149662
0.134046
0.119459
0.105852
0.0931751
0.0813809
0.0704239
0.0602607
0.0508537
0.0421701
0.0341633
0.0269767
0.0204413
0.0143019
0.00878637
0.00396278
0.00263492
0.00182602
0.00124739
0.000838694
0.000554058
0.000358979
0.00022777
0.000141525
8.65231e-05
5.30103e-05
3.43432e-05
2.52858e-05
1.90125e-05
1.37517e-05
9.44372e-06
6.11043e-06
3.7101e-06
2.11671e-06
1.14194e-06
5.87611e-07
2.90756e-07
1.40129e-07
6.61157e-08
3.06227e-08
1.39516e-08
6.26277e-09
2.77399e-09
1.21401e-09
5.25588e-10
2.2533e-10
9.57161e-11
4.02646e-11
1.67219e-11
6.79131e-12
2.62393e-12
8.81926e-13
1.55145e-13
0.999997
0.999986
0.999967
0.999935
0.999883
0.999796
0.999654
0.999423
0.999052
0.998463
0.997544
0.996136
0.99402
0.990911
0.986461
0.980267
0.971909
0.960995
0.94721
0.930367
0.91042
0.887466
0.86172
0.833483
0.803113
0.770993
0.737515
0.703065
0.668007
0.632681
0.597395
0.562421
0.527998
0.494327
0.461572
0.429866
0.399315
0.369998
0.341968
0.315257
0.28988
0.265834
0.243105
0.22167
0.201495
0.182541
0.164764
0.148119
0.132555
0.118022
0.104472
0.0918545
0.0801221
0.0692296
0.0591343
0.049799
0.0411789
0.0332553
0.0262201
0.0195897
0.0135791
0.00819359
0.00353837
0.00248304
0.00172162
0.00117729
0.000792552
0.00052425
0.000340102
0.0002161
0.000134546
8.25772e-05
5.1045e-05
3.37023e-05
2.50924e-05
1.87914e-05
1.34989e-05
9.19812e-06
5.9018e-06
3.5539e-06
2.01266e-06
1.07927e-06
5.52795e-07
2.72581e-07
1.31107e-07
6.17692e-08
2.85792e-08
1.30108e-08
5.83741e-09
2.58474e-09
1.13099e-09
4.89618e-10
2.09913e-10
8.91724e-11
3.75141e-11
1.55802e-11
6.3276e-12
2.44468e-12
8.21567e-13
1.44537e-13
0.999997
0.999985
0.999967
0.999935
0.999882
0.999795
0.999652
0.999419
0.999044
0.998451
0.997525
0.996106
0.993974
0.990842
0.98636
0.980123
0.97171
0.960729
0.946866
0.929935
0.909894
0.886843
0.860997
0.832663
0.802196
0.769984
0.73642
0.701889
0.666758
0.631365
0.59602
0.560996
0.52653
0.492823
0.460041
0.428316
0.397754
0.368432
0.340404
0.313701
0.288337
0.264311
0.241607
0.2202
0.200058
0.181141
0.163405
0.146802
0.131284
0.116799
0.103299
0.0907327
0.0790531
0.0682143
0.0581734
0.0488916
0.0403322
0.0325228
0.0255537
0.0189879
0.0130686
0.00780149
0.00330355
0.00233206
0.00162433
0.0011149
0.000752916
0.000499414
0.000324824
0.000206933
0.000129253
7.97334e-05
4.97812e-05
3.3517e-05
2.51034e-05
1.87157e-05
1.33593e-05
9.03619e-06
5.75376e-06
3.43906e-06
1.93477e-06
1.0319e-06
5.26301e-07
2.58719e-07
1.24196e-07
5.8427e-08
2.70027e-08
1.22828e-08
5.5075e-09
2.43767e-09
1.06637e-09
4.61581e-10
1.97884e-10
8.40633e-11
3.53659e-11
1.46883e-11
5.96545e-12
2.30472e-12
7.74455e-13
1.3626e-13
0.999997
0.999985
0.999966
0.999935
0.999881
0.999794
0.999649
0.999415
0.999038
0.998441
0.997509
0.996081
0.993935
0.990784
0.986274
0.980001
0.971542
0.960503
0.946575
0.92957
0.90945
0.886315
0.860386
0.831968
0.801421
0.769132
0.735495
0.700896
0.665703
0.630254
0.59486
0.559794
0.525293
0.491558
0.458755
0.427015
0.396443
0.367119
0.339093
0.312399
0.287048
0.26304
0.240357
0.218976
0.198863
0.179978
0.162276
0.14571
0.13023
0.115786
0.102327
0.0898031
0.0781674
0.0673735
0.0573786
0.0481417
0.0396293
0.0319262
0.0250091
0.0185024
0.0126541
0.00747415
0.00317547
0.00224224
0.00156335
0.00107467
0.000727078
0.000483266
0.000315042
0.000201239
0.000126131
7.82081e-05
4.9252e-05
3.36463e-05
2.52869e-05
1.87698e-05
1.33223e-05
8.95428e-06
5.66173e-06
3.36131e-06
1.87978e-06
9.97633e-07
5.06824e-07
2.48501e-07
1.19053e-07
5.59194e-08
2.58121e-08
1.17301e-08
5.25596e-09
2.32514e-09
1.01679e-09
4.40027e-10
1.88622e-10
8.0125e-11
3.37087e-11
1.40001e-11
5.68601e-12
2.19676e-12
7.3812e-13
1.29879e-13
0.999997
0.999985
0.999966
0.999934
0.999881
0.999793
0.999648
0.999412
0.999033
0.998433
0.997496
0.99606
0.993903
0.990736
0.986204
0.979902
0.971405
0.960321
0.946339
0.929274
0.90909
0.885888
0.859892
0.831406
0.800794
0.768442
0.734746
0.700093
0.66485
0.629357
0.593924
0.558824
0.524295
0.490538
0.457718
0.425967
0.395389
0.366063
0.338041
0.311354
0.286015
0.262021
0.239357
0.217997
0.197907
0.179048
0.161374
0.144838
0.129389
0.114977
0.101552
0.0890628
0.0774619
0.0667034
0.0567449
0.0475445
0.0390688
0.0314391
0.0245586
0.0180891
0.0122788
0.00713631
0.00310295
0.00219183
0.00152956
0.00105283
0.000713506
0.000475211
0.000310526
0.000198907
0.000125097
7.7937e-05
4.94539e-05
3.41897e-05
2.57005e-05
1.89813e-05
1.33932e-05
8.94573e-06
5.62126e-06
3.31665e-06
1.84463e-06
9.74502e-07
4.93243e-07
2.41234e-07
1.15341e-07
5.40899e-08
2.4936e-08
1.13207e-08
5.06863e-09
2.24099e-09
9.79586e-10
4.23812e-10
1.81641e-10
7.71529e-11
3.24572e-11
1.34802e-11
5.4749e-12
2.11522e-12
7.10684e-13
1.25064e-13
0.999997
0.999985
0.999966
0.999934
0.99988
0.999792
0.999646
0.99941
0.999029
0.998427
0.997486
0.996045
0.99388
0.990701
0.986152
0.979828
0.971302
0.960184
0.946161
0.929051
0.908818
0.885566
0.859517
0.830981
0.800319
0.76792
0.73418
0.699485
0.664204
0.628678
0.593215
0.558091
0.523541
0.489768
0.456936
0.425176
0.394594
0.365267
0.337248
0.310567
0.285237
0.261254
0.238605
0.217261
0.19719
0.178351
0.160698
0.144185
0.12876
0.114373
0.100973
0.0885096
0.0769354
0.0662041
0.0562721
0.0470985
0.0386498
0.031051
0.0241935
0.0177407
0.0119394
0.00679332
0.00304975
0.00215922
0.00151031
0.00104211
0.000708032
0.000472817
0.000309836
0.000199089
0.00012568
7.86771e-05
5.02542e-05
3.50447e-05
2.62912e-05
1.93152e-05
1.35508e-05
8.99729e-06
5.62019e-06
3.29803e-06
1.82529e-06
9.60283e-07
4.84402e-07
2.36348e-07
1.12791e-07
5.28132e-08
2.43178e-08
1.10294e-08
4.93451e-09
2.18046e-09
9.52744e-10
4.12084e-10
1.76584e-10
7.4998e-11
3.15495e-11
1.31031e-11
5.32186e-12
2.05615e-12
6.90816e-13
1.21578e-13
0.999997
0.999985
0.999966
0.999934
0.99988
0.999791
0.999645
0.999408
0.999027
0.998423
0.99748
0.996035
0.993864
0.990677
0.986118
0.979778
0.971234
0.960092
0.946042
0.928902
0.908636
0.88535
0.859267
0.830696
0.800001
0.76757
0.733799
0.699076
0.66377
0.628221
0.59274
0.557598
0.523036
0.489252
0.456412
0.424647
0.394061
0.364734
0.336717
0.31004
0.284716
0.260742
0.238102
0.21677
0.196711
0.177886
0.160248
0.143751
0.128342
0.113972
0.10059
0.0881445
0.0765879
0.0658734
0.055958
0.0468024
0.0383712
0.0307758
0.0239314
0.017485
0.0116814
0.00652026
0.00301402
0.00214055
0.00150174
0.00103922
0.000708119
0.00047428
0.000311763
0.000200998
0.000127357
8.00685e-05
5.13941e-05
3.60051e-05
2.69253e-05
1.96826e-05
1.3739e-05
9.07664e-06
5.64215e-06
3.29593e-06
1.81691e-06
9.52667e-07
4.79233e-07
2.33365e-07
1.11191e-07
5.19987e-08
2.39188e-08
1.08399e-08
4.84678e-09
2.14073e-09
9.35076e-10
4.04354e-10
1.73249e-10
7.35764e-11
3.09509e-11
1.28547e-11
5.22113e-12
2.01731e-12
6.77766e-13
1.19291e-13
0.999997
0.999985
0.999966
0.999934
0.99988
0.999791
0.999645
0.999407
0.999026
0.998421
0.997477
0.99603
0.993857
0.990666
0.986101
0.979754
0.971201
0.960048
0.945985
0.92883
0.908548
0.885245
0.859145
0.830557
0.799845
0.767398
0.733612
0.698875
0.663556
0.627996
0.592504
0.557355
0.522785
0.488997
0.456152
0.424384
0.393797
0.364469
0.336452
0.309777
0.284456
0.260486
0.237851
0.216525
0.196472
0.177654
0.160024
0.143534
0.128134
0.113772
0.100398
0.0879617
0.076414
0.0657088
0.0558029
0.0466566
0.0382344
0.0306368
0.0237986
0.0173549
0.0115493
0.00637828
0.00299804
0.00213492
0.00150147
0.00104143
0.00071123
0.000477442
0.000314575
0.000203314
0.000129168
8.14347e-05
5.2399e-05
3.67208e-05
2.73713e-05
1.99361e-05
1.38696e-05
9.13456e-06
5.66181e-06
3.29873e-06
1.81427e-06
9.49442e-07
4.76859e-07
2.31945e-07
1.10416e-07
5.15999e-08
2.37222e-08
1.07462e-08
4.8033e-09
2.121e-09
9.26297e-10
4.0051e-10
1.7159e-10
7.28692e-11
3.06531e-11
1.27311e-11
5.17104e-12
1.99801e-12
6.71282e-13
1.18154e-13
0.999997
0.999985
0.999966
0.999934
0.99988
0.999791
0.999645
0.999407
0.999026
0.998421
0.997477
0.99603
0.993856
0.990666
0.986101
0.979754
0.971201
0.960047
0.945984
0.928829
0.908547
0.885243
0.859143
0.830555
0.799842
0.767395
0.733609
0.698872
0.663553
0.627993
0.592501
0.557352
0.522782
0.488993
0.456149
0.424381
0.393793
0.364466
0.336449
0.309774
0.284454
0.260484
0.237848
0.216522
0.19647
0.177652
0.160022
0.143532
0.128132
0.11377
0.100397
0.08796
0.0764123
0.0657071
0.0558011
0.0466547
0.0382325
0.0306347
0.0237966
0.0173532
0.011548
0.0063771
0.002998
0.00213504
0.00150159
0.0010415
0.000711246
0.000477433
0.000314559
0.000203298
0.000129156
8.14269e-05
5.23943e-05
3.67182e-05
2.73695e-05
1.99348e-05
1.38686e-05
9.13389e-06
5.66141e-06
3.29852e-06
1.81417e-06
9.49389e-07
4.76836e-07
2.31936e-07
1.10413e-07
5.15989e-08
2.37219e-08
1.07461e-08
4.80326e-09
2.12098e-09
9.26288e-10
4.00506e-10
1.71587e-10
7.28677e-11
3.06523e-11
1.27307e-11
5.17087e-12
1.99794e-12
6.71255e-13
1.18151e-13
0.999997
0.999985
0.999966
0.999934
0.99988
0.999791
0.999645
0.999408
0.999027
0.998423
0.99748
0.996035
0.993864
0.990677
0.986117
0.979777
0.971232
0.96009
0.946039
0.928898
0.908632
0.885345
0.859261
0.83069
0.799994
0.767562
0.733791
0.699068
0.663762
0.628213
0.59273
0.557589
0.523026
0.489242
0.456402
0.424637
0.394052
0.364725
0.336708
0.310031
0.284707
0.260734
0.238094
0.216762
0.196704
0.177879
0.160242
0.143744
0.128336
0.113967
0.100584
0.0881392
0.0765827
0.0658683
0.0559528
0.0467972
0.0383663
0.0307702
0.023926
0.0174807
0.011678
0.00651669
0.00301364
0.00214071
0.00150196
0.00103931
0.000708114
0.000474226
0.000311701
0.000200947
0.000127322
8.00467e-05
5.13818e-05
3.59998e-05
2.69223e-05
1.96801e-05
1.3737e-05
9.07509e-06
5.64108e-06
3.29525e-06
1.81654e-06
9.5247e-07
4.79134e-07
2.33317e-07
1.11169e-07
5.19885e-08
2.39141e-08
1.08378e-08
4.84583e-09
2.1403e-09
9.34887e-10
4.04271e-10
1.73212e-10
7.35607e-11
3.09441e-11
1.28518e-11
5.21996e-12
2.01687e-12
6.77614e-13
1.19266e-13
0.999997
0.999985
0.999966
0.999934
0.99988
0.999792
0.999646
0.99941
0.999029
0.998427
0.997486
0.996045
0.993879
0.9907
0.986151
0.979825
0.971299
0.960179
0.946156
0.929045
0.90881
0.885557
0.859507
0.83097
0.800307
0.767907
0.734166
0.699471
0.664189
0.628662
0.5932
0.558075
0.523525
0.489752
0.456919
0.42516
0.394578
0.365251
0.337232
0.310552
0.285222
0.26124
0.238591
0.217248
0.197178
0.178339
0.160687
0.144174
0.12875
0.114364
0.100964
0.0885011
0.0769269
0.0661954
0.0562629
0.04709
0.0386424
0.0310434
0.0241868
0.0177354
0.0119354
0.00678826
0.00304883
0.00215916
0.0015104
0.00104208
0.000707903
0.000472659
0.000309702
0.000198995
0.000125622
7.86452e-05
5.02389e-05
3.50406e-05
2.62899e-05
1.93136e-05
1.35489e-05
8.99541e-06
5.61865e-06
3.29703e-06
1.82467e-06
9.59941e-07
4.84225e-07
2.36263e-07
1.1275e-07
5.27945e-08
2.43092e-08
1.10255e-08
4.93272e-09
2.17966e-09
9.52385e-10
4.11926e-10
1.76515e-10
7.49682e-11
3.15367e-11
1.30978e-11
5.31966e-12
2.05531e-12
6.90529e-13
1.21531e-13
0.999997
0.999985
0.999966
0.999934
0.999881
0.999793
0.999648
0.999412
0.999033
0.998433
0.997496
0.99606
0.993902
0.990735
0.986202
0.979899
0.971401
0.960315
0.946332
0.929265
0.909079
0.885876
0.859877
0.83139
0.800776
0.768423
0.734727
0.700072
0.664828
0.629335
0.593901
0.558801
0.524272
0.490515
0.457695
0.425944
0.395366
0.366041
0.338019
0.311333
0.285994
0.262001
0.239337
0.217978
0.19789
0.179032
0.161359
0.144823
0.129376
0.114965
0.10154
0.0890517
0.0774515
0.0666937
0.0567361
0.0475355
0.0390604
0.0314305
0.0245511
0.0180836
0.012275
0.00713114
0.00310168
0.00219161
0.00152951
0.00105264
0.000713227
0.000474928
0.000310296
0.000198745
0.000124995
7.78789e-05
4.94238e-05
3.4178e-05
2.56957e-05
1.89779e-05
1.33902e-05
8.94305e-06
5.61925e-06
3.31527e-06
1.84376e-06
9.74026e-07
4.92994e-07
2.41109e-07
1.1528e-07
5.40604e-08
2.49221e-08
1.13142e-08
5.06562e-09
2.23962e-09
9.78976e-10
4.23542e-10
1.81524e-10
7.71022e-11
3.24356e-11
1.34711e-11
5.47119e-12
2.1138e-12
7.10201e-13
1.24983e-13
0.999997
0.999985
0.999966
0.999935
0.999881
0.999794
0.999649
0.999415
0.999038
0.998441
0.997509
0.99608
0.993933
0.990782
0.986271
0.979997
0.971536
0.960496
0.946565
0.929558
0.909435
0.886299
0.860367
0.831947
0.801398
0.769107
0.735469
0.700869
0.665675
0.630226
0.594831
0.559765
0.525263
0.491528
0.458725
0.426985
0.396414
0.36709
0.339065
0.312371
0.287022
0.263014
0.240333
0.218953
0.198841
0.179957
0.162256
0.145691
0.130212
0.115769
0.102311
0.0897887
0.078154
0.0673611
0.0573673
0.048131
0.0396195
0.0319172
0.0250015
0.0184966
0.0126499
0.00746922
0.0031737
0.00224168
0.00156301
0.00107423
0.000726588
0.000482829
0.00031471
0.000201014
0.000125992
7.81282e-05
4.9209e-05
3.36271e-05
2.52772e-05
1.87631e-05
1.33171e-05
8.95053e-06
5.65906e-06
3.35952e-06
1.87872e-06
9.97038e-07
5.06505e-07
2.48335e-07
1.18969e-07
5.58783e-08
2.57923e-08
1.17208e-08
5.25161e-09
2.32315e-09
1.01589e-09
4.39629e-10
1.88448e-10
8.00498e-11
3.36767e-11
1.39867e-11
5.6805e-12
2.19465e-12
7.37403e-13
1.29759e-13
0.999997
0.999985
0.999967
0.999935
0.999882
0.999795
0.999651
0.999418
0.999044
0.998451
0.997525
0.996105
0.993972
0.99084
0.986356
0.980118
0.971703
0.96072
0.946854
0.929921
0.909877
0.886822
0.860974
0.832637
0.802168
0.769954
0.736388
0.701856
0.666723
0.631329
0.595984
0.560959
0.526493
0.492786
0.460004
0.428279
0.397717
0.368396
0.340369
0.313667
0.288305
0.264279
0.241577
0.220172
0.200031
0.181115
0.163381
0.146779
0.131262
0.116779
0.10328
0.0907153
0.0790371
0.0681998
0.0581603
0.0488792
0.0403209
0.0325134
0.0255459
0.0189815
0.0130635
0.00779641
0.00330097
0.00233083
0.00162338
0.00111413
0.000752321
0.000498978
0.000324522
0.000206736
0.000129131
7.96617e-05
4.97414e-05
3.34982e-05
2.50933e-05
1.87082e-05
1.33536e-05
9.03185e-06
5.75068e-06
3.43708e-06
1.93357e-06
1.0312e-06
5.25912e-07
2.5851e-07
1.24089e-07
5.83731e-08
2.69764e-08
1.22702e-08
5.50159e-09
2.43495e-09
1.06513e-09
4.61033e-10
1.97643e-10
8.39591e-11
3.53213e-11
1.46695e-11
5.95777e-12
2.30177e-12
7.73454e-13
1.3609e-13
0.999997
0.999986
0.999967
0.999935
0.999883
0.999796
0.999654
0.999423
0.999051
0.998462
0.997543
0.996135
0.994018
0.990908
0.986457
0.980261
0.971901
0.960984
0.947197
0.93035
0.910399
0.887442
0.861692
0.833453
0.803079
0.770957
0.737477
0.703025
0.667965
0.632638
0.597351
0.562377
0.527954
0.494282
0.461527
0.429822
0.399272
0.369956
0.341927
0.315217
0.289841
0.265796
0.243069
0.221635
0.201462
0.18251
0.164735
0.148091
0.132529
0.117998
0.104449
0.0918335
0.0801028
0.0692117
0.0591177
0.0497841
0.0411646
0.0332427
0.0262087
0.0195793
0.0135701
0.00818627
0.00353566
0.00248206
0.00172015
0.001176
0.000791625
0.00052365
0.00033974
0.000215891
0.000134429
8.25138e-05
5.10123e-05
3.36889e-05
2.50862e-05
1.87861e-05
1.34942e-05
9.19425e-06
5.89892e-06
3.55188e-06
2.01133e-06
1.07845e-06
5.52318e-07
2.7232e-07
1.3097e-07
6.16992e-08
2.85446e-08
1.29941e-08
5.82955e-09
2.58111e-09
1.12934e-09
4.88883e-10
2.0959e-10
8.90321e-11
3.74541e-11
1.55548e-11
6.31721e-12
2.44066e-12
8.2021e-13
1.44306e-13
0.999997
0.999986
0.999967
0.999936
0.999884
0.999798
0.999657
0.999428
0.999059
0.998476
0.997565
0.996168
0.99407
0.990987
0.986572
0.980425
0.972128
0.961287
0.947588
0.930841
0.910997
0.888151
0.862515
0.834387
0.804123
0.772106
0.738725
0.704366
0.669392
0.634142
0.598924
0.56401
0.529638
0.496008
0.463286
0.431605
0.401071
0.371763
0.343734
0.317018
0.291627
0.267563
0.24481
0.223344
0.203134
0.184141
0.166322
0.14963
0.134016
0.119431
0.105826
0.0931504
0.0813581
0.0704029
0.0602416
0.0508364
0.0421535
0.0341466
0.0269612
0.0204235
0.0142881
0.00877546
0.0039569
0.00263377
0.00182394
0.00124562
0.000837515
0.000553372
0.000358611
0.000227583
0.000141431
8.64753e-05
5.29868e-05
3.43363e-05
2.5285e-05
1.901e-05
1.37479e-05
9.43986e-06
6.10716e-06
3.70764e-06
2.11502e-06
1.14088e-06
5.86994e-07
2.90418e-07
1.39949e-07
6.60237e-08
3.05771e-08
1.39296e-08
6.2524e-09
2.76919e-09
1.21183e-09
5.24615e-10
2.24901e-10
9.55298e-11
4.01847e-11
1.66881e-11
6.77742e-12
2.61856e-12
8.8011e-13
1.54835e-13
0.999997
0.999986
0.999967
0.999937
0.999885
0.9998
0.99966
0.999433
0.999069
0.998491
0.997589
0.996206
0.994128
0.991075
0.9867
0.980608
0.97238
0.961624
0.948024
0.931388
0.911663
0.888942
0.863432
0.83543
0.805289
0.773389
0.740121
0.705867
0.67099
0.635828
0.600689
0.565844
0.531531
0.497951
0.465269
0.433619
0.403105
0.373809
0.345783
0.319062
0.293659
0.269574
0.246795
0.225296
0.205048
0.186011
0.168143
0.151398
0.135728
0.121084
0.107416
0.0946762
0.0828165
0.0717917
0.0615588
0.0520777
0.0433151
0.0352456
0.0279851
0.0214177
0.0152372
0.00967552
0.00477003
0.00280946
0.00193993
0.00132262
0.000888533
0.000586893
0.000380333
0.000241378
0.000149942
9.14874e-05
5.56767e-05
3.54467e-05
2.56933e-05
1.93751e-05
1.4111e-05
9.77053e-06
6.37924e-06
3.90854e-06
2.24821e-06
1.22101e-06
6.31495e-07
3.13638e-07
1.51459e-07
7.15606e-08
3.31761e-08
1.51244e-08
6.79176e-09
3.00884e-09
1.31683e-09
5.70064e-10
2.44366e-10
1.03787e-10
4.36538e-11
1.8128e-11
7.36225e-12
2.8447e-12
9.56274e-13
1.68229e-13
0.999997
0.999986