/*--------------------------------*- C++ -*----------------------------------*\
  =========                 |
  \\      /  F ield         | OpenFOAM: The Open Source CFD Toolbox
   \\    /   O peration     | Website:  https://openfoam.org
    \\  /    A nd           | Version:  8
     \\/     M anipulation  |
\*---------------------------------------------------------------------------*/
FoamFile
{
    version     2.0;
    format      ascii;
    class       volScalarField;
    location    "220/fluid";
    object      CO2;
}
// * * * * * * * * * * * * * * * * * * * * * * * * * * * * * * * * * * * * * //

dimensions      [0 0 0 0 0 0 0];

internalField   nonuniform List<scalar> 
4000
(
3.9233e-07
1.71323e-06
3.92897e-06
7.63023e-06
1.37821e-05
2.39457e-05
4.06172e-05
6.77328e-05
0.000111399
0.000180907
0.000290073
0.000458865
0.000715181
0.00109637
0.00164984
0.00243194
0.00350429
0.00492743
0.00675279
0.00901519
0.011728
0.0148825
0.0184505
0.0223896
0.026648
0.0311695
0.0358967
0.0407739
0.0457487
0.0507727
0.0558026
0.0608
0.065732
0.0705705
0.0752924
0.0798793
0.0843167
0.0885933
0.092701
0.096635
0.100392
0.103972
0.107376
0.110605
0.113662
0.116551
0.119276
0.121841
0.12425
0.126508
0.128617
0.13058
0.132398
0.134071
0.135597
0.13697
0.138184
0.139226
0.140077
0.140714
0.141101
0.141199
0.140956
0.140298
0.139135
0.137383
0.126848
0.116117
0.105363
0.0947196
0.0842979
0.0741892
0.0644713
0.0552125
0.0464751
0.0383195
0.0308496
0.0240409
0.0180205
0.0128651
0.00864799
0.00541392
0.00313457
0.00167911
0.000838704
0.000397575
0.000182187
8.13891e-05
3.56582e-05
1.53881e-05
6.56227e-06
2.77225e-06
1.16222e-06
4.84016e-07
2.00181e-07
8.1973e-08
3.29192e-08
1.26135e-08
4.21875e-09
7.39714e-10
3.99486e-07
1.74554e-06
4.00751e-06
7.79435e-06
1.41025e-05
2.45457e-05
4.1704e-05
6.96424e-05
0.000114654
0.000186283
0.000298654
0.000472074
0.000734724
0.00112407
0.00168736
0.00248037
0.00356374
0.0049968
0.00682988
0.00909712
0.0118119
0.0149663
0.0185331
0.022471
0.0267295
0.0312528
0.035984
0.0408674
0.0458501
0.0508834
0.0559234
0.0609312
0.0658734
0.0707216
0.0754524
0.0800473
0.0844914
0.0887736
0.0928856
0.0968226
0.100582
0.104163
0.107566
0.110793
0.113848
0.116734
0.119456
0.122017
0.124421
0.126674
0.128777
0.130733
0.132544
0.13421
0.135727
0.13709
0.138291
0.139316
0.140146
0.140752
0.141091
0.141118
0.140757
0.139906
0.138432
0.136089
0.125395
0.114557
0.103724
0.0930239
0.08256
0.0724225
0.0626889
0.0534289
0.0447076
0.0365899
0.0291723
0.0224648
0.0165883
0.0116241
0.00764346
0.0046724
0.00264583
0.00139411
0.000690682
0.00032772
0.000151033
6.8046e-05
3.01035e-05
1.31197e-05
5.64732e-06
2.40603e-06
1.01634e-06
4.26117e-07
1.773e-07
7.30021e-08
2.94628e-08
1.13381e-08
3.80486e-09
6.68352e-10
4.10158e-07
1.79284e-06
4.11896e-06
8.01804e-06
1.45203e-05
2.52931e-05
4.29988e-05
7.18239e-05
0.000118233
0.000191998
0.000307532
0.00048547
0.000754325
0.00115184
0.00172537
0.00253056
0.00362761
0.00507504
0.00692221
0.00920233
0.0119282
0.0150917
0.018666
0.0226106
0.0268754
0.0314057
0.0361452
0.0410382
0.046032
0.0510776
0.0561308
0.0611524
0.0661084
0.0709702
0.0757138
0.0803205
0.0847751
0.0890663
0.0931857
0.0971283
0.100892
0.104475
0.107878
0.111105
0.114158
0.11704
0.119757
0.122312
0.12471
0.126954
0.129048
0.130995
0.132795
0.134448
0.135951
0.137298
0.138482
0.139486
0.140291
0.140866
0.141163
0.141134
0.140685
0.139683
0.137921
0.133609
0.122853
0.111955
0.101077
0.0903513
0.0798853
0.0697708
0.0600875
0.0509078
0.0423007
0.0343406
0.0270838
0.0206146
0.0150159
0.0103624
0.00670677
0.00404151
0.00226482
0.00118713
0.00058786
0.000279611
0.000129314
5.84803e-05
2.59647e-05
1.13518e-05
4.89917e-06
2.09154e-06
8.84818e-07
3.71366e-07
1.54635e-07
6.37074e-08
2.5726e-08
9.90594e-09
3.32599e-09
5.84457e-10
4.20336e-07
1.83741e-06
4.22171e-06
8.21873e-06
1.48842e-05
2.5925e-05
4.40635e-05
7.35737e-05
0.000121045
0.000196419
0.000314333
0.000495697
0.000769343
0.00117333
0.0017553
0.00257101
0.00368057
0.00514221
0.00700478
0.00930094
0.012043
0.0152224
0.0188124
0.0227723
0.0270523
0.0315979
0.0363527
0.0412613
0.0462711
0.051333
0.0564026
0.0614405
0.0664124
0.0712895
0.0760475
0.0806674
0.0851339
0.0894353
0.0935632
0.0975125
0.101281
0.104867
0.108271
0.111497
0.114548
0.117426
0.120138
0.122686
0.125075
0.127309
0.129392
0.131326
0.133112
0.134748
0.136233
0.137561
0.138721
0.139701
0.14048
0.14103
0.141307
0.141281
0.140881
0.140031
0.138636
0.130608
0.119771
0.108818
0.0979161
0.0871983
0.0767737
0.0667337
0.0571581
0.0481194
0.0396865
0.0319608
0.0249436
0.0187524
0.0134617
0.0091356
0.00580682
0.00343816
0.00189826
0.000984519
0.000484592
0.000230199
0.000106558
4.82984e-05
2.15102e-05
9.43775e-06
4.08841e-06
1.75195e-06
7.43787e-07
3.13181e-07
1.30776e-07
5.40079e-08
2.18524e-08
8.4273e-09
2.83245e-09
4.97997e-10
4.29658e-07
1.87813e-06
4.31526e-06
8.4008e-06
1.52136e-05
2.64972e-05
4.50307e-05
7.51743e-05
0.000123643
0.000200557
0.000320791
0.000505561
0.000784056
0.00119472
0.00178552
0.00261244
0.0037356
0.00521297
0.00709297
0.00940767
0.0121688
0.0153675
0.0189766
0.0229555
0.0272544
0.0318187
0.0365922
0.0415196
0.0465481
0.0516285
0.0567163
0.0617719
0.0667608
0.0716539
0.0764269
0.0810604
0.0855389
0.0898506
0.0939871
0.0979431
0.101716
0.105305
0.10871
0.111935
0.114983
0.117857
0.120562
0.123102
0.125481
0.127704
0.129774
0.131693
0.133461
0.135078
0.13654
0.137841
0.138969
0.139908
0.140637
0.141121
0.14132
0.141191
0.140665
0.13967
0.138169
0.127475
0.116513
0.105493
0.0945753
0.0838882
0.0735362
0.0636073
0.0541789
0.0453213
0.0371019
0.0296201
0.0228776
0.0169893
0.0120219
0.00802792
0.00501813
0.00292595
0.00159618
0.000821446
0.000402756
0.000191232
8.85977e-05
4.02209e-05
1.79461e-05
7.88906e-06
3.42383e-06
1.46966e-06
6.24895e-07
2.6347e-07
1.10143e-07
4.55283e-08
1.84347e-08
7.11294e-09
2.39138e-09
4.20523e-10
4.38002e-07
1.91453e-06
4.39864e-06
8.56256e-06
1.55053e-05
2.70026e-05
4.58836e-05
7.65844e-05
0.000125932
0.00020421
0.000326512
0.000514348
0.000797267
0.00121412
0.00181328
0.00265108
0.00378781
0.00528138
0.00717987
0.00951486
0.0122975
0.0155183
0.0191498
0.0231509
0.0274718
0.0320579
0.0368527
0.041801
0.0468498
0.05195
0.0570568
0.0621305
0.0671366
0.0720456
0.0768332
0.0814797
0.0859697
0.090291
0.0944353
0.0983972
0.102174
0.105765
0.109171
0.112394
0.115438
0.118306
0.121004
0.123535
0.125904
0.128114
0.13017
0.132072
0.133821
0.135416
0.136852
0.138121
0.139211
0.140102
0.140765
0.141152
0.141217
0.14087
0.139978
0.138339
0.135422
0.124397
0.113259
0.102163
0.0912426
0.0806073
0.0703522
0.0605593
0.0513018
0.0426479
0.0346641
0.0274109
0.0209568
0.0153741
0.010724
0.00704718
0.00433285
0.00248833
0.00134105
0.000684337
0.00033385
0.000158265
7.33137e-05
3.33084e-05
1.48822e-05
6.55344e-06
2.84958e-06
1.22554e-06
5.22072e-07
2.20496e-07
9.2315e-08
3.8206e-08
1.54843e-08
5.97837e-09
2.01058e-09
3.5362e-10
4.45626e-07
1.9478e-06
4.4749e-06
8.71067e-06
1.57729e-05
2.74675e-05
4.66711e-05
7.7893e-05
0.00012807
0.000207643
0.00033193
0.000522734
0.000809975
0.00123293
0.00184042
0.00268914
0.00383959
0.00534969
0.00726722
0.00962327
0.0124284
0.0156726
0.0193278
0.0233528
0.0276972
0.0323064
0.0371239
0.042094
0.047164
0.0522844
0.0574104
0.0625021
0.0675249
0.0724492
0.0772505
0.0819093
0.0864096
0.0907395
0.0948905
0.0988573
0.102637
0.106229
0.109634
0.112854
0.115893
0.118755
0.121445
0.123966
0.126323
0.12852
0.13056
0.132445
0.134174
0.135746
0.137157
0.138397
0.139454
0.140307
0.140929
0.14127
0.141292
0.14091
0.140012
0.138434
0.132105
0.121077
0.109938
0.0988662
0.0880005
0.0774542
0.0673205
0.0576792
0.0486011
0.0401516
0.0324181
0.0254111
0.0192289
0.0139355
0.00958412
0.0062014
0.0037543
0.00212675
0.00113409
0.000574546
0.000279318
0.000132218
6.12249e-05
2.78248e-05
1.24412e-05
5.48398e-06
2.38724e-06
1.02791e-06
4.38389e-07
1.85351e-07
7.76735e-08
3.21704e-08
1.30451e-08
5.03818e-09
1.69455e-09
2.98049e-10
4.5266e-07
1.9785e-06
4.5453e-06
8.84747e-06
1.60203e-05
2.78978e-05
4.74011e-05
7.91084e-05
0.00013006
0.00021085
0.000337011
0.000530636
0.000822015
0.00125086
0.00186644
0.00272588
0.00388993
0.00541654
0.00735326
0.00973072
0.0125589
0.0158271
0.0195068
0.0235562
0.0279249
0.0325577
0.0373981
0.0423904
0.0474814
0.0526217
0.0577664
0.0628754
0.0679141
0.0728527
0.0776667
0.0823363
0.0868458
0.0911831
0.0953396
0.0993099
0.103091
0.106683
0.110086
0.113303
0.116336
0.119191
0.121872
0.124382
0.126727
0.128909
0.130933
0.132799
0.134507
0.136055
0.137437
0.138646
0.139666
0.140478
0.141055
0.141354
0.141348
0.140972
0.140156
0.138843
0.129013
0.117946
0.106803
0.0957629
0.0849643
0.0745175
0.0645131
0.055028
0.0461301
0.0378829
0.0303815
0.0236149
0.0176919
0.0126706
0.00859644
0.0054813
0.00327096
0.00182987
0.000966386
0.000486291
0.000235665
0.000111369
5.15361e-05
2.34212e-05
1.04767e-05
4.62137e-06
2.01355e-06
8.67862e-07
3.70502e-07
1.56796e-07
6.57607e-08
2.72538e-08
1.10563e-08
4.27098e-09
1.43653e-09
2.52672e-10
4.59212e-07
2.0071e-06
4.61094e-06
8.97515e-06
1.62515e-05
2.83006e-05
4.8086e-05
8.02517e-05
0.000131938
0.000213887
0.000341839
0.000538173
0.00083354
0.00126808
0.00189154
0.00276144
0.00393882
0.00548166
0.00743732
0.00983595
0.0126869
0.015979
0.019683
0.0237568
0.0281496
0.0328058
0.0376688
0.0426827
0.0477942
0.0529537
0.0581161
0.0632415
0.0682948
0.0732464
0.0780718
0.0827511
0.0872684
0.0916117
0.0957724
0.0997451
0.103527
0.107118
0.110518
0.11373
0.116757
0.119604
0.122275
0.124774
0.127106
0.129274
0.13128
0.133126
0.134812
0.136333
0.137684
0.138853
0.139825
0.140574
0.141063
0.141249
0.141077
0.14046
0.139289
0.137462
0.126384
0.115155
0.103953
0.0929235
0.082185
0.0718362
0.0619602
0.0526291
0.0439079
0.0358581
0.0285483
0.0220157
0.0163382
0.01157
0.00774968
0.00487461
0.00287123
0.0015885
0.000831862
0.00041614
0.000201105
9.48887e-05
4.38772e-05
1.99365e-05
8.91951e-06
3.93615e-06
1.71602e-06
7.40139e-07
3.16203e-07
1.33909e-07
5.61951e-08
2.32998e-08
9.45484e-09
3.65272e-09
1.22849e-09
2.16077e-10
4.65324e-07
2.03379e-06
4.6722e-06
9.0944e-06
1.64676e-05
2.86775e-05
4.87278e-05
8.13247e-05
0.000133704
0.000216748
0.000346399
0.000545309
0.000844482
0.00128448
0.0019155
0.00279547
0.00398571
0.00554426
0.00751827
0.00993746
0.0128106
0.0161259
0.0198536
0.0239511
0.0283671
0.033046
0.0379307
0.0429652
0.0480961
0.0532736
0.0584526
0.063593
0.0686597
0.0736231
0.0784584
0.0831459
0.0876698
0.0920178
0.0961815
0.100155
0.103937
0.107525
0.110922
0.114128
0.117149
0.119988
0.122649
0.125136
0.127455
0.129608
0.131598
0.133426
0.13509
0.136587
0.137908
0.139042
0.139969
0.140659
0.141063
0.141135
0.140786
0.139881
0.138223
0.134974
0.123793
0.112516
0.101314
0.090325
0.079661
0.069415
0.0596659
0.0504825
0.0419276
0.0340608
0.0269369
0.0206171
0.0151627
0.0106241
0.00703149
0.00436809
0.00254292
0.00139313
0.000724155
0.000360371
0.000173712
8.18404e-05
3.78129e-05
1.71754e-05
7.68426e-06
3.3919e-06
1.47937e-06
6.38399e-07
2.7289e-07
1.15628e-07
4.85459e-08
2.01349e-08
8.1721e-09
3.15725e-09
1.06174e-09
1.86743e-10
4.71006e-07
2.05861e-06
4.72919e-06
9.20538e-06
1.66689e-05
2.9029e-05
4.93268e-05
8.23278e-05
0.000135358
0.000219431
0.000350682
0.000552023
0.000854796
0.00129997
0.00193815
0.00282769
0.00403016
0.00560366
0.00759514
0.0100339
0.0129282
0.0162656
0.0200158
0.0241358
0.0285738
0.0332741
0.0381793
0.0432331
0.048382
0.0535762
0.0587704
0.0639243
0.069003
0.0739766
0.0788206
0.0835151
0.0880442
0.0923957
0.0965613
0.100536
0.104316
0.107901
0.111293
0.114494
0.117508
0.120337
0.122988
0.125465
0.127771
0.12991
0.131884
0.133695
0.135341
0.136817
0.138117
0.139228
0.140131
0.140798
0.141181
0.141241
0.1409
0.140049
0.138545
0.132503
0.121319
0.11006
0.0988995
0.0879741
0.077395
0.0672532
0.0576259
0.0485801
0.0401769
0.0324861
0.0255371
0.0194069
0.0141521
0.00981817
0.00642707
0.00394792
0.00227458
0.00123549
0.00063809
0.000316094
0.000152025
7.15231e-05
3.3019e-05
1.49918e-05
6.70656e-06
2.96065e-06
1.29162e-06
5.57578e-07
2.38439e-07
1.0107e-07
4.2448e-08
1.76098e-08
7.14801e-09
2.76156e-09
9.28533e-10
1.63312e-10
4.76244e-07
2.08148e-06
4.78174e-06
9.30777e-06
1.68547e-05
2.93536e-05
4.98806e-05
8.32559e-05
0.000136889
0.000221919
0.000354659
0.000558265
0.000864395
0.00131439
0.00195928
0.00285776
0.00407167
0.00565916
0.00766699
0.0101241
0.0130382
0.0163961
0.0201674
0.0243083
0.0287668
0.0334869
0.0384109
0.0434825
0.0486478
0.0538571
0.0590649
0.0642309
0.0693201
0.0743027
0.079154
0.0838542
0.0883874
0.0927415
0.096908
0.100882
0.10466
0.108242
0.111629
0.114824
0.11783
0.120651
0.123291
0.125757
0.12805
0.130175
0.132134
0.133928
0.135556
0.137014
0.138295
0.139387
0.140273
0.140926
0.141305
0.141377
0.141075
0.140308
0.13896
0.130289
0.119116
0.107881
0.0967624
0.0858983
0.0753987
0.0653532
0.0558368
0.046915
0.0386478
0.0311141
0.0243223
0.0183624
0.0132864
0.00913472
0.00592069
0.00360067
0.00205576
0.00110839
0.000569276
0.000280887
0.000134824
6.33493e-05
2.92224e-05
1.32621e-05
5.93172e-06
2.61863e-06
1.14258e-06
4.93365e-07
2.11041e-07
8.94833e-08
3.75909e-08
1.55973e-08
6.33149e-09
2.44601e-09
8.22299e-10
1.44628e-10
4.8101e-07
2.10231e-06
4.82958e-06
9.40099e-06
1.70239e-05
2.96495e-05
5.03857e-05
8.4103e-05
0.000138288
0.000224194
0.000358298
0.000563981
0.000873191
0.00132762
0.00197866
0.00288536
0.00410977
0.00571011
0.00773294
0.0102068
0.013139
0.0165159
0.0203063
0.0244663
0.0289435
0.0336815
0.0386226
0.0437101
0.0488903
0.0541129
0.0593328
0.0645093
0.0696076
0.0745978
0.0794552
0.08416
0.0886963
0.093052
0.0972188
0.101191
0.104967
0.108545
0.111927
0.115115
0.118113
0.120925
0.123556
0.12601
0.12829
0.130401
0.132344
0.134121
0.135729
0.137165
0.138422
0.139486
0.140342
0.140966
0.141315
0.141362
0.141044
0.140282
0.138998
0.128529
0.117275
0.106017
0.0949153
0.0840967
0.0736645
0.0637037
0.0542861
0.0454747
0.0373271
0.0299171
0.0232623
0.0174611
0.0125487
0.00855882
0.00549903
0.00331509
0.00187791
0.00100609
0.000514281
0.000252883
0.000121171
5.68685e-05
2.62133e-05
1.18911e-05
5.31735e-06
2.34729e-06
1.02427e-06
4.42351e-07
1.8926e-07
8.0265e-08
3.37245e-08
1.39946e-08
5.68109e-09
2.19464e-09
7.37673e-10
1.29746e-10
4.85272e-07
2.12092e-06
4.87235e-06
9.48437e-06
1.71754e-05
2.99143e-05
5.0838e-05
8.48619e-05
0.000139542
0.000226234
0.000361564
0.000569113
0.000881093
0.00133951
0.00199608
0.00291017
0.00414404
0.00575591
0.00779222
0.0102812
0.0132296
0.0166234
0.020431
0.024608
0.0291019
0.0338558
0.038812
0.0439136
0.0491067
0.0543411
0.0595714
0.064757
0.069863
0.0748595
0.0797218
0.0844302
0.0889687
0.0933253
0.0974917
0.101463
0.105235
0.108809
0.112186
0.115368
0.118358
0.121161
0.123782
0.126224
0.128492
0.130588
0.132514
0.134271
0.135858
0.137268
0.138493
0.139521
0.140331
0.140896
0.141169
0.141118
0.140662
0.139707
0.138152
0.126997
0.115686
0.104411
0.0933238
0.0825454
0.0721735
0.0622892
0.0529618
0.0442528
0.0362195
0.0289243
0.0224118
0.0167212
0.0119349
0.0080812
0.00515186
0.00308215
0.00173419
0.000924063
0.00047043
0.000230639
0.000110345
5.17339e-05
2.38299e-05
1.08052e-05
4.83055e-06
2.13219e-06
9.30432e-07
4.01866e-07
1.71964e-07
7.29416e-08
3.06516e-08
1.27205e-08
5.16398e-09
1.99479e-09
6.70396e-10
1.17917e-10
4.88994e-07
2.13718e-06
4.90971e-06
9.55721e-06
1.73077e-05
3.01457e-05
5.12334e-05
8.55257e-05
0.000140639
0.00022802
0.000364424
0.00057361
0.000888018
0.00134993
0.00201136
0.00293192
0.00417407
0.00579605
0.00784416
0.0103463
0.0133089
0.0167175
0.02054
0.0247319
0.0292402
0.034008
0.0389772
0.044091
0.0492952
0.0545396
0.0597786
0.0649719
0.0700843
0.0750859
0.0799521
0.0846632
0.0892032
0.0935601
0.0977256
0.101695
0.105464
0.109034
0.112405
0.115581
0.118564
0.121359
0.12397
0.126401
0.128655
0.130737
0.132647
0.134385
0.135948
0.137331
0.138523
0.139509
0.140266
0.140757
0.14094
0.140764
0.140136
0.13894
0.137054
0.125742
0.114351
0.10305
0.0919719
0.0812276
0.0709081
0.0610904
0.0518415
0.0432219
0.0352901
0.0281037
0.0216892
0.016124
0.0114395
0.00769078
0.00486946
0.00289408
0.001619
0.000858708
0.00043564
0.000213071
0.000101803
4.76842e-05
2.19503e-05
9.9486e-06
4.44644e-06
1.9624e-06
8.56318e-07
3.69875e-07
1.5829e-07
6.71496e-08
2.82206e-08
1.17123e-08
4.7548e-09
1.83667e-09
6.17174e-10
1.0856e-10
4.92143e-07
2.15094e-06
4.94132e-06
9.61884e-06
1.74196e-05
3.03416e-05
5.15682e-05
8.6088e-05
0.000141569
0.000229534
0.000366848
0.000577423
0.000893892
0.00135877
0.00202432
0.00295038
0.00419955
0.0058301
0.0078882
0.0104015
0.0133761
0.0167972
0.0206324
0.0248368
0.0293572
0.0341367
0.0391169
0.0442408
0.0494542
0.0547069
0.0599532
0.0651526
0.0702701
0.0752757
0.0801449
0.0848579
0.0893987
0.0937555
0.0979199
0.101887
0.105653
0.109219
0.112586
0.115755
0.118732
0.121519
0.124121
0.126542
0.128785
0.130854
0.132749
0.134469
0.136013
0.137371
0.138535
0.139485
0.140198
0.14063
0.140743
0.140471
0.139716
0.138347
0.13597
0.124606
0.113193
0.101892
0.0908338
0.0801251
0.0698544
0.0600966
0.0509179
0.0423757
0.0345237
0.0274016
0.0210764
0.0156054
0.0110342
0.0073802
0.00464291
0.00274385
0.00152762
0.000807161
0.000408299
0.000199368
9.51426e-05
4.45264e-05
2.0484e-05
9.28006e-06
4.14649e-06
1.82974e-06
7.98384e-07
3.44856e-07
1.47593e-07
6.26168e-08
2.63177e-08
1.09231e-08
4.4345e-09
1.71291e-09
5.75525e-10
1.0124e-10
4.94691e-07
2.16207e-06
4.9669e-06
9.66872e-06
1.75102e-05
3.05002e-05
5.18393e-05
8.65432e-05
0.000142322
0.000230761
0.000368813
0.000580513
0.000898654
0.00136593
0.00203483
0.00296535
0.00422021
0.00585771
0.0079239
0.0104463
0.0134306
0.0168617
0.0207072
0.0249217
0.029452
0.0342408
0.0392298
0.0443618
0.0495826
0.0548418
0.0600938
0.0652981
0.0704195
0.0754281
0.0802994
0.0850136
0.0895548
0.0939111
0.0980742
0.102039
0.105803
0.109365
0.112727
0.115892
0.118862
0.121642
0.124237
0.126649
0.128883
0.13094
0.132823
0.13453
0.136058
0.137399
0.138542
0.13947
0.140157
0.140559
0.140641
0.140333
0.139537
0.138123
0.135042
0.123656
0.112238
0.100949
0.0899172
0.079246
0.0690216
0.059316
0.0501915
0.0417015
0.0338999
0.026844
0.0205898
0.0151936
0.0106994
0.00713249
0.00446869
0.00262807
0.00145722
0.000767532
0.00038732
0.000188867
9.0043e-05
4.21095e-05
1.9362e-05
8.7685e-06
3.91696e-06
1.7282e-06
7.54034e-07
3.257e-07
1.39401e-07
5.91452e-08
2.48603e-08
1.03187e-08
4.18927e-09
1.61818e-09
5.43653e-10
9.5639e-11
4.96617e-07
2.17048e-06
4.98623e-06
9.70639e-06
1.75787e-05
3.062e-05
5.20441e-05
8.68873e-05
0.000142891
0.000231688
0.000370299
0.000582851
0.000902258
0.00137136
0.00204278
0.00297668
0.00423585
0.00587862
0.00795095
0.0104801
0.0134718
0.0169106
0.0207638
0.024986
0.0295237
0.0343196
0.0393152
0.0444533
0.0496796
0.0549437
0.0601999
0.0654077
0.0705318
0.0755425
0.0804151
0.08513
0.0896712
0.0940269
0.0981888
0.102152
0.105913
0.109472
0.112831
0.115991
0.118956
0.121731
0.124319
0.126724
0.12895
0.131
0.132873
0.13457
0.136087
0.137417
0.138549
0.139467
0.140145
0.140542
0.140626
0.140332
0.139569
0.138219
0.134353
0.122938
0.111515
0.100237
0.0892257
0.0785821
0.0683881
0.0587152
0.0496251
0.0411778
0.0334268
0.0264232
0.0202241
0.0148849
0.0104491
0.00694008
0.00433572
0.0025422
0.0014053
0.000738316
0.000371867
0.00018114
8.62929e-05
4.03333e-05
1.85378e-05
8.3929e-06
3.74849e-06
1.6537e-06
7.21504e-07
3.11654e-07
1.33396e-07
5.66015e-08
2.37929e-08
9.87635e-09
4.00986e-09
1.54892e-09
5.20359e-10
9.15467e-11
4.97903e-07
2.1761e-06
4.99914e-06
9.73156e-06
1.76244e-05
3.06999e-05
5.21807e-05
8.71167e-05
0.00014327
0.000232306
0.000371289
0.00058441
0.00090466
0.00137498
0.00204809
0.00298425
0.00424631
0.0058926
0.00796905
0.0105028
0.0134995
0.0169434
0.0208018
0.0250291
0.0295719
0.0343725
0.0393725
0.0445147
0.0497447
0.055012
0.0602709
0.0654809
0.0706068
0.0756186
0.0804919
0.085207
0.0897481
0.0941031
0.0982639
0.102225
0.105985
0.109542
0.112897
0.116054
0.119016
0.121787
0.12437
0.12677
0.128991
0.131034
0.132901
0.134591
0.136101
0.137425
0.138551
0.139465
0.140143
0.140546
0.140645
0.140381
0.139671
0.138407
0.133897
0.122455
0.111024
0.0997498
0.0887496
0.0781215
0.0679489
0.058302
0.0492424
0.040827
0.0331098
0.0261413
0.0199793
0.0146788
0.0102824
0.00681243
0.00424424
0.00248366
0.00137036
0.00071877
0.000361541
0.000175976
8.37872e-05
3.91469e-05
1.79876e-05
8.14232e-06
3.63618e-06
1.60408e-06
6.99853e-07
3.02313e-07
1.29406e-07
5.49129e-08
2.30851e-08
9.58328e-09
3.89114e-09
1.50314e-09
5.04973e-10
8.8845e-11
4.98541e-07
2.17888e-06
5.00551e-06
9.74394e-06
1.76468e-05
3.0739e-05
5.22473e-05
8.72282e-05
0.000143454
0.000232605
0.000371767
0.000585161
0.000905816
0.00137672
0.00205064
0.00298788
0.00425134
0.00589933
0.00797778
0.0105138
0.0135129
0.0169594
0.0208204
0.0250502
0.0295954
0.0343985
0.0394007
0.044545
0.0497768
0.0550457
0.060306
0.065517
0.0706436
0.075656
0.0805296
0.0852447
0.0897856
0.0941402
0.0983004
0.102261
0.106019
0.109575
0.112929
0.116084
0.119044
0.121812
0.124393
0.12679
0.129007
0.131047
0.13291
0.134596
0.136102
0.137422
0.138545
0.139457
0.140136
0.140543
0.140652
0.140407
0.13973
0.138518
0.133664
0.122204
0.110767
0.0994945
0.088502
0.0778855
0.0677263
0.0580941
0.0490504
0.0406518
0.0329521
0.0260019
0.0198588
0.0145778
0.0102013
0.00675065
0.00420029
0.00245456
0.00135297
0.000709094
0.000356461
0.000173446
8.25635e-05
3.85687e-05
1.77198e-05
8.02041e-06
3.58154e-06
1.57992e-06
6.89306e-07
2.97758e-07
1.27458e-07
5.40873e-08
2.27384e-08
9.43954e-09
3.83282e-09
1.48061e-09
4.97395e-10
8.75139e-11
4.98551e-07
2.17893e-06
5.00562e-06
9.74415e-06
1.76472e-05
3.07397e-05
5.22484e-05
8.72301e-05
0.000143457
0.00023261
0.000371775
0.000585173
0.000905834
0.00137674
0.00205068
0.00298793
0.0042514
0.00589942
0.00797789
0.0105139
0.013513
0.0169595
0.0208205
0.0250504
0.0295956
0.0343987
0.039401
0.0445452
0.049777
0.055046
0.0603063
0.0655173
0.0706439
0.0756562
0.0805298
0.0852449
0.0897858
0.0941404
0.0983006
0.102261
0.106019
0.109575
0.112929
0.116084
0.119044
0.121812
0.124393
0.12679
0.129007
0.131047
0.13291
0.134596
0.136102
0.137422
0.138545
0.139456
0.140135
0.140543
0.140651
0.140407
0.13973
0.138519
0.133662
0.122202
0.110766
0.0994933
0.0885009
0.0778844
0.0677252
0.058093
0.0490495
0.040651
0.0329514
0.0260012
0.0198582
0.0145772
0.0102008
0.00675029
0.00420002
0.00245438
0.00135286
0.000709039
0.000356432
0.000173432
8.25562e-05
3.85651e-05
1.77181e-05
8.01964e-06
3.58119e-06
1.57977e-06
6.8924e-07
2.9773e-07
1.27446e-07
5.40823e-08
2.27364e-08
9.43869e-09
3.83248e-09
1.48048e-09
4.9735e-10
8.75061e-11
4.97934e-07
2.17624e-06
4.99945e-06
9.73218e-06
1.76255e-05
3.07019e-05
5.2184e-05
8.71223e-05
0.000143279
0.000232321
0.000371312
0.000584445
0.000904713
0.00137505
0.0020482
0.0029844
0.00424651
0.00589285
0.00796935
0.0105032
0.0134999
0.0169439
0.0208023
0.0250297
0.0295724
0.0343731
0.0393732
0.0445154
0.0497454
0.0550127
0.0602717
0.0654817
0.0706075
0.0756194
0.0804927
0.0852077
0.0897487
0.0941037
0.0982645
0.102226
0.105985
0.109542
0.112898
0.116055
0.119016
0.121787
0.12437
0.12677
0.12899
0.131033
0.1329
0.13459
0.1361
0.137423
0.138549
0.139463
0.140141
0.140544
0.140644
0.140381
0.139672
0.138409
0.13389
0.12245
0.11102
0.0997457
0.0887457
0.0781178
0.0679453
0.0582985
0.0492392
0.0408242
0.0331072
0.0261391
0.0199773
0.0146771
0.010281
0.00681135
0.00424349
0.0024832
0.00137011
0.00071864
0.000361476
0.000175945
8.37725e-05
3.914e-05
1.79845e-05
8.14091e-06
3.63556e-06
1.60381e-06
6.99735e-07
3.02263e-07
1.29384e-07
5.49038e-08
2.30812e-08
9.58166e-09
3.89047e-09
1.50287e-09
5.04879e-10
8.8829e-11
4.96669e-07
2.17071e-06
4.98676e-06
9.70744e-06
1.75806e-05
3.06234e-05
5.20498e-05
8.68969e-05
0.000142907
0.000231713
0.000370339
0.000582914
0.000902352
0.0013715
0.00204298
0.00297695
0.00423621
0.00587908
0.00795152
0.0104808
0.0134726
0.0169115
0.0207648
0.024987
0.0295248
0.0343207
0.0393164
0.0444545
0.0496809
0.054945
0.0602012
0.065409
0.0705331
0.0755438
0.0804164
0.0851312
0.0896724
0.0940281
0.0981899
0.102153
0.105914
0.109473
0.112831
0.115992
0.118957
0.121731
0.124319
0.126724
0.12895
0.130999
0.132872
0.134569
0.136085
0.137415
0.138547
0.139464
0.140143
0.14054
0.140625
0.140332
0.139571
0.138219
0.134341
0.122929
0.111507
0.100229
0.0892188
0.0785752
0.0683812
0.0587075
0.0496193
0.041173
0.0334227
0.0264195
0.0202207
0.0148821
0.0104468
0.00693827
0.00433451
0.00254146
0.00140486
0.000738074
0.000371744
0.00018108
8.62649e-05
4.03205e-05
1.85321e-05
8.39035e-06
3.74737e-06
1.65322e-06
7.21299e-07
3.11567e-07
1.33359e-07
5.6586e-08
2.37864e-08
9.87364e-09
4.00874e-09
1.54848e-09
5.20204e-10
9.15202e-11
4.94765e-07
2.16239e-06
4.96765e-06
9.67017e-06
1.75129e-05
3.05048e-05
5.18472e-05
8.65565e-05
0.000142344
0.000230796
0.000368869
0.0005806
0.000898785
0.00136613
0.0020351
0.00296573
0.00422071
0.00585836
0.00792471
0.0104472
0.0134317
0.016863
0.0207086
0.0249232
0.0294536
0.0342424
0.0392315
0.0443636
0.0495844
0.0548436
0.0600957
0.0653
0.0704213
0.07543
0.0803013
0.0850154
0.0895566
0.0939129
0.0980759
0.102041
0.105804
0.109366
0.112728
0.115893
0.118863
0.121643
0.124237
0.126649
0.128883
0.13094
0.132823
0.134529
0.136056
0.137397
0.13854
0.139468
0.140154
0.140557
0.140639
0.140333
0.139538
0.13812
0.135026
0.123643
0.112228
0.10094
0.0899081
0.0792377
0.0690144
0.0593107
0.0501854
0.0416956
0.0338945
0.0268392
0.0205855
0.0151898
0.0106962
0.00713012
0.004467
0.00262693
0.00145656
0.00076718
0.000387145
0.000188784
9.00048e-05
4.20923e-05
1.93544e-05
8.76519e-06
3.91553e-06
1.72759e-06
7.53776e-07
3.25591e-07
1.39355e-07
5.9126e-08
2.48522e-08
1.03154e-08
4.18788e-09
1.61764e-09
5.43457e-10
9.56058e-11
4.92236e-07
2.15135e-06
4.94227e-06
9.62069e-06
1.7423e-05
3.03475e-05
5.15783e-05
8.61049e-05
0.000141597
0.000229579
0.00036692
0.000577534
0.000894061
0.00135901
0.00202467
0.00295087
0.0042002
0.00583095
0.00788925
0.0104028
0.0133776
0.0167988
0.0206342
0.0248387
0.0293593
0.0341389
0.0391191
0.0442431
0.0494566
0.0547093
0.0599556
0.0651551
0.0702726
0.0752783
0.0801474
0.0848603
0.0894012
0.0937579
0.0979222
0.101889
0.105655
0.109221
0.112588
0.115757
0.118733
0.12152
0.124122
0.126543
0.128786
0.130854
0.132749
0.134469
0.136012
0.13737
0.138533
0.139483
0.140196
0.140628
0.140742
0.14047
0.139714
0.138339
0.135954
0.124594
0.113181
0.101881
0.090823
0.0801148
0.0698449
0.0600879
0.05091
0.0423685
0.0345171
0.027396
0.0210716
0.0156011
0.0110305
0.00737726
0.00464068
0.00274235
0.00152673
0.000806686
0.000408067
0.000199259
9.50935e-05
4.45046e-05
2.04745e-05
9.27597e-06
4.14475e-06
1.829e-06
7.98076e-07
3.44728e-07
1.47539e-07
6.25942e-08
2.63082e-08
1.09192e-08
4.43285e-09
1.71226e-09
5.7529e-10
1.012e-10
4.89107e-07
2.13768e-06
4.91085e-06
9.55944e-06
1.73117e-05
3.01529e-05
5.12456e-05
8.55463e-05
0.000140673
0.000228075
0.000364511
0.000573745
0.000888223
0.00135023
0.00201179
0.00293253
0.00417488
0.00579709
0.00784545
0.0103479
0.0133107
0.0167195
0.0205423
0.0247344
0.0292428
0.0340108
0.0389801
0.044094
0.0492982
0.0545427
0.0597818
0.0649751
0.0700874
0.0750891
0.0799553
0.0846663
0.0892063
0.0935632
0.0977286
0.101697
0.105467
0.109037
0.112408
0.115583
0.118566
0.121361
0.123972
0.126402
0.128657
0.130739
0.132648
0.134386
0.135949
0.137332
0.138524
0.13951
0.140266
0.140757
0.14094
0.140763
0.140133
0.138932
0.137043
0.125731
0.11434
0.103037
0.0919589
0.0812146
0.0708953
0.0610781
0.0518299
0.0432115
0.0352818
0.028099
0.0216916
0.0161212
0.0114354
0.00768683
0.00486645
0.00289211
0.00161784
0.000858102
0.000435348
0.000212935
0.000101742
4.76576e-05
2.19388e-05
9.9437e-06
4.44437e-06
1.96153e-06
8.55958e-07
3.69725e-07
1.58228e-07
6.71236e-08
2.82097e-08
1.17077e-08
4.75288e-09
1.83591e-09
6.16898e-10
1.08513e-10
4.85404e-07
2.1215e-06
4.87369e-06
9.48699e-06
1.71801e-05
2.99227e-05
5.08523e-05
8.4886e-05
0.000139582
0.000226299
0.000361666
0.000569272
0.000881334
0.00133986
0.0019966
0.00291088
0.00414499
0.00575715
0.00779377
0.010283
0.0132318
0.0166259
0.0204337
0.024611
0.029105
0.0338592
0.0388155
0.0439172
0.0491104
0.0543449
0.0595752
0.0647609
0.0698669
0.0748634
0.0797257
0.084434
0.0889725
0.0933291
0.0974954
0.101466
0.105239
0.108813
0.112189
0.115371
0.118361
0.121164
0.123785
0.126227
0.128494
0.13059
0.132517
0.134274
0.13586
0.13727
0.138495
0.139523
0.140333
0.140896
0.141168
0.141114
0.140656
0.139697
0.138143
0.126989
0.115673
0.104397
0.0933091
0.0825307
0.072159
0.0622751
0.0529482
0.0442395
0.036206
0.028909
0.0223919
0.0167087
0.0119265
0.00807527
0.0051478
0.00307958
0.00173272
0.000923302
0.000470064
0.000230472
0.000110271
5.17015e-05
2.3816e-05
1.07993e-05
4.8281e-06
2.13117e-06
9.3001e-07
4.01691e-07
1.71891e-07
7.29113e-08
3.06389e-08
1.27151e-08
5.16174e-09
1.9939e-09
6.70072e-10
1.17861e-10
4.81162e-07
2.10297e-06
4.83111e-06
9.40399e-06
1.70294e-05
2.96591e-05
5.04021e-05
8.41305e-05
0.000138333
0.000224268
0.000358415
0.000564163
0.000873468
0.00132803
0.00197925
0.00288618
0.00411088
0.00571154
0.00773473
0.010209
0.0131415
0.0165188
0.0203095
0.0244698
0.0289473
0.0336855
0.0386267
0.0437144
0.0488946
0.0541174
0.0593373
0.0645139
0.0696122
0.0746024
0.0794598
0.0841646
0.0887008
0.0930565
0.0972232
0.101196
0.104971
0.108549
0.111931
0.115119
0.118117
0.120929
0.12356
0.126013
0.128294
0.130404
0.132348
0.134124
0.135732
0.137169
0.138425
0.139491
0.140347
0.140969
0.141317
0.141362
0.14104
0.140275
0.138991
0.128513
0.117254
0.105996
0.0948952
0.0840779
0.0736469
0.0636872
0.0542707
0.0454603
0.0373135
0.0299042
0.02325
0.0174505
0.0125399
0.00855201
0.00549417
0.00331196
0.0018761
0.00100514
0.000513822
0.000252675
0.000121079
5.68285e-05
2.61962e-05
1.1884e-05
5.31438e-06
2.34606e-06
1.02377e-06
4.42142e-07
1.89173e-07
8.02292e-08
3.37095e-08
1.39883e-08
5.67846e-09
2.19359e-09
7.3729e-10
1.29679e-10
4.76414e-07
2.08223e-06
4.78346e-06
9.31114e-06
1.68608e-05
2.93644e-05
4.98991e-05
8.32868e-05
0.00013694
0.000222002
0.000354791
0.00055847
0.000864707
0.00131485
0.00195995
0.00285869
0.00407292
0.00566079
0.00766903
0.0101265
0.0130411
0.0163994
0.0201711
0.0243123
0.0287711
0.0334914
0.0384156
0.0434874
0.0486529
0.0538622
0.0590701
0.0642362
0.0693254