/*--------------------------------*- C++ -*----------------------------------*\
  =========                 |
  \\      /  F ield         | OpenFOAM: The Open Source CFD Toolbox
   \\    /   O peration     | Website:  https://openfoam.org
    \\  /    A nd           | Version:  8
     \\/     M anipulation  |
\*---------------------------------------------------------------------------*/
FoamFile
{
    version     2.0;
    format      ascii;
    class       volScalarField;
    location    "220/fluid";
    object      H2O;
}
// * * * * * * * * * * * * * * * * * * * * * * * * * * * * * * * * * * * * * //

dimensions      [0 0 0 0 0 0 0];

internalField   nonuniform List<scalar> 
4000
(
3.21197e-07
1.40261e-06
3.21662e-06
6.24681e-06
1.12833e-05
1.96041e-05
3.32529e-05
5.54523e-05
9.12014e-05
0.000148107
0.00023748
0.000375669
0.000585513
0.000897587
0.00135071
0.00199101
0.00286893
0.00403404
0.00552845
0.00738065
0.00960161
0.0121841
0.0151053
0.0183302
0.0218165
0.0255182
0.0293883
0.0333812
0.037454
0.0415672
0.0456851
0.0497764
0.0538142
0.0577754
0.0616412
0.0653965
0.0690293
0.0725305
0.0758935
0.0791142
0.0821903
0.0851213
0.0879076
0.0905509
0.0930538
0.095419
0.0976499
0.0997499
0.101723
0.103571
0.105297
0.106904
0.108393
0.109763
0.111012
0.112136
0.11313
0.113983
0.11468
0.115201
0.115518
0.115599
0.1154
0.114861
0.113909
0.112475
0.103849
0.0950642
0.0862596
0.0775461
0.0690139
0.060738
0.0527821
0.045202
0.0380488
0.0313718
0.0252563
0.019682
0.0147532
0.0105325
0.00708003
0.00443233
0.00256624
0.00137467
0.00068664
0.000325491
0.000149155
6.66326e-05
2.91931e-05
1.25981e-05
5.37248e-06
2.26961e-06
9.51499e-07
3.9626e-07
1.63886e-07
6.71106e-08
2.69507e-08
1.03265e-08
3.45386e-09
6.05598e-10
3.27056e-07
1.42906e-06
3.28092e-06
6.38116e-06
1.15456e-05
2.00953e-05
3.41427e-05
5.70156e-05
9.38662e-05
0.000152508
0.000244505
0.000386483
0.000601512
0.000920268
0.00138143
0.00203066
0.0029176
0.00409083
0.00559156
0.00744773
0.00967033
0.0122527
0.0151729
0.0183968
0.0218832
0.0255864
0.0294598
0.0334578
0.0375371
0.0416578
0.045784
0.0498838
0.0539299
0.0578991
0.0617722
0.065534
0.0691724
0.0726781
0.0760447
0.0792678
0.0823455
0.085277
0.088063
0.0907054
0.0932065
0.0955693
0.0977973
0.099894
0.101863
0.103707
0.105428
0.10703
0.108513
0.109876
0.111118
0.112234
0.113218
0.114057
0.114736
0.115233
0.11551
0.115532
0.115236
0.11454
0.113333
0.111415
0.10266
0.0937865
0.0849183
0.0761578
0.0675912
0.0592917
0.0513229
0.0437418
0.0366018
0.0299559
0.0238831
0.0183917
0.0135807
0.00951654
0.00625764
0.00382526
0.00216611
0.00114135
0.000565455
0.000268301
0.000123649
5.57087e-05
2.46455e-05
1.0741e-05
4.62341e-06
1.96979e-06
8.32069e-07
3.48858e-07
1.45154e-07
5.97662e-08
2.41209e-08
9.28244e-09
3.11501e-09
5.47174e-10
3.35793e-07
1.46778e-06
3.37216e-06
6.5643e-06
1.18877e-05
2.07072e-05
3.52028e-05
5.88016e-05
9.6796e-05
0.000157187
0.000251774
0.00039745
0.00061756
0.000942998
0.00141254
0.00207175
0.00296989
0.00415489
0.00566715
0.00753387
0.00976554
0.0123554
0.0152817
0.0185111
0.0220027
0.0257116
0.0295917
0.0335976
0.037686
0.0418168
0.0459538
0.0500649
0.0541224
0.0581026
0.0619863
0.0657576
0.0694046
0.0729178
0.0762903
0.0795181
0.082599
0.0855324
0.088319
0.0909607
0.09346
0.0958199
0.098044
0.100136
0.102099
0.103936
0.105651
0.107244
0.108718
0.110071
0.111302
0.112405
0.113374
0.114196
0.114855
0.115326
0.115569
0.115545
0.115178
0.114357
0.112914
0.109384
0.100579
0.0916565
0.082751
0.0739698
0.0654014
0.0571208
0.0491931
0.0416778
0.0346312
0.0281143
0.0221733
0.016877
0.0122933
0.00848364
0.00549077
0.00330875
0.00185419
0.000971891
0.000481276
0.000228915
0.000105868
4.78773e-05
2.12571e-05
9.29365e-06
4.01091e-06
1.71232e-06
7.24393e-07
3.04034e-07
1.26598e-07
5.21567e-08
2.10617e-08
8.1099e-09
2.72296e-09
4.7849e-10
3.44125e-07
1.50427e-06
3.45627e-06
6.7286e-06
1.21856e-05
2.12246e-05
3.60744e-05
6.02342e-05
9.90981e-05
0.000160807
0.000257342
0.000405823
0.000629854
0.000960597
0.00143705
0.00210486
0.00301325
0.00420988
0.00573475
0.0076146
0.00985951
0.0124625
0.0154016
0.0186435
0.0221475
0.0258689
0.0297616
0.0337803
0.0378817
0.0420259
0.0461763
0.0503008
0.0543713
0.058364
0.0622595
0.0660417
0.0696984
0.0732199
0.0765994
0.0798327
0.0829175
0.0858533
0.0886409
0.091282
0.0937793
0.096136
0.0983555
0.100442
0.102398
0.104227
0.105932
0.107515
0.108977
0.110317
0.111533
0.11262
0.11357
0.114372
0.115009
0.11546
0.115687
0.115665
0.115338
0.114642
0.1135
0.106928
0.0980553
0.0890883
0.080163
0.0713885
0.0628539
0.0546343
0.0467949
0.0393949
0.032491
0.0261661
0.0204211
0.0153524
0.011021
0.00747924
0.00475399
0.00281479
0.00155409
0.000806017
0.000396731
0.000188462
8.72379e-05
3.95415e-05
1.76102e-05
7.7266e-06
3.34715e-06
1.4343e-06
6.08932e-07
2.56399e-07
1.07066e-07
4.42158e-08
1.78904e-08
6.89936e-09
2.3189e-09
4.07705e-10
3.51757e-07
1.53761e-06
3.53286e-06
6.87766e-06
1.24552e-05
2.1693e-05
3.68663e-05
6.15446e-05
0.000101225
0.000164194
0.000262629
0.000413898
0.0006419
0.000978106
0.00146179
0.00213878
0.0030583
0.00426782
0.00580695
0.00770197
0.00996252
0.0125812
0.015536
0.0187935
0.0223129
0.0260497
0.0299577
0.0339918
0.0381085
0.0422678
0.0464331
0.0505721
0.0546565
0.0586624
0.06257
0.0663634
0.0700299
0.0735599
0.0769464
0.0801851
0.0832738
0.0862119
0.0890002
0.0916405
0.0941354
0.0964883
0.0987027
0.100782
0.10273
0.10455
0.106245
0.107816
0.109264
0.110588
0.111784
0.112849
0.113772
0.114542
0.115138
0.115535
0.115698
0.115592
0.115161
0.114347
0.113118
0.104363
0.0953883
0.086366
0.0774279
0.0686785
0.0602034
0.0520748
0.0443558
0.0371041
0.030375
0.0242497
0.0187297
0.013909
0.00984224
0.00657239
0.0041083
0.00239545
0.00130678
0.000672511
0.000329733
0.00015656
7.25342e-05
3.29285e-05
1.46923e-05
6.4587e-06
2.80306e-06
1.2032e-06
5.11596e-07
2.15701e-07
9.01727e-08
3.72736e-08
1.50923e-08
5.82331e-09
1.9578e-09
3.44278e-10
3.58589e-07
1.56741e-06
3.60113e-06
7.01009e-06
1.26941e-05
2.21068e-05
3.75645e-05
6.2699e-05
0.0001031
0.000167185
0.000267313
0.000421092
0.000652715
0.000993987
0.00148452
0.00217042
0.00310105
0.00432382
0.0058781
0.00778973
0.0100679
0.0127047
0.0156777
0.0189534
0.0224909
0.0262455
0.030171
0.0342221
0.0383555
0.042531
0.0467119
0.0508657
0.0549642
0.0589831
0.0629027
0.0667067
0.0703826
0.0739205
0.0773134
0.0805569
0.0836489
0.0865887
0.089377
0.0920158
0.0945078
0.0968562
0.0990646
0.101137
0.103076
0.104886
0.106569
0.108126
0.109558
0.110864
0.11204
0.113079
0.113971
0.1147
0.115243
0.11556
0.115613
0.115329
0.114599
0.113257
0.110869
0.101843
0.092724
0.0836403
0.0746995
0.0659925
0.0575967
0.0495794
0.0420004
0.0349155
0.0283792
0.0224411
0.0171572
0.0125867
0.00877968
0.00576947
0.00354726
0.00203718
0.00109791
0.000560261
0.00027332
0.00012957
6.00213e-05
2.72693e-05
1.21839e-05
5.36525e-06
2.33293e-06
1.00334e-06
4.27416e-07
1.80518e-07
7.55775e-08
3.12789e-08
1.26769e-08
4.89443e-09
1.64605e-09
2.89505e-10
3.6483e-07
1.59464e-06
3.66356e-06
7.13135e-06
1.29132e-05
2.24874e-05
3.82092e-05
6.37703e-05
0.00010485
0.000169995
0.000271748
0.000427958
0.00066312
0.00100939
0.00150673
0.00220157
0.00314344
0.00437974
0.00594961
0.00787849
0.010175
0.012831
0.0158235
0.0191187
0.0226755
0.026449
0.030393
0.034462
0.0386127
0.0428047
0.0470014
0.0511699
0.055282
0.0593135
0.0632443
0.0670584
0.0707428
0.0742876
0.077686
0.0809336
0.0840279
0.0869685
0.0897561
0.0923927
0.0948809
0.0972241
0.0994258
0.10149
0.10342
0.105218
0.106888
0.108431
0.109847
0.111134
0.112289
0.113305
0.11417
0.114868
0.115378
0.115657
0.115674
0.115362
0.114627
0.113335
0.108153
0.0991249
0.0900056
0.0809409
0.0720453
0.0634111
0.0551147
0.0472215
0.0397893
0.0328717
0.0265404
0.0208039
0.0157425
0.0114088
0.00784643
0.00507703
0.00307362
0.00174115
0.000928469
0.000470376
0.000228676
0.000108245
5.01243e-05
2.27799e-05
1.01855e-05
4.48969e-06
1.95441e-06
8.4154e-07
3.58905e-07
1.51745e-07
6.35906e-08
2.63376e-08
1.06799e-08
4.12471e-09
1.38731e-09
2.4401e-10
3.70589e-07
1.61978e-06
3.72119e-06
7.24335e-06
1.31157e-05
2.28397e-05
3.88069e-05
6.47653e-05
0.000106479
0.000172621
0.000275908
0.000434427
0.000672976
0.00102407
0.00152804
0.00223165
0.00318465
0.00443447
0.00602005
0.00796645
0.0102819
0.0129575
0.01597
0.0192853
0.0228619
0.0266547
0.0306175
0.0347046
0.0388726
0.0430809
0.0472928
0.0514756
0.0556006
0.0596438
0.063585
0.067408
0.0710999
0.0746508
0.0780537
0.0813042
0.0843999
0.0873404
0.0901264
0.0927599
0.0952436
0.0975809
0.0997753
0.101831
0.10375
0.105537
0.107194
0.108721
0.11012
0.111387
0.112519
0.113508
0.114343
0.115008
0.115481
0.115725
0.11572
0.115412
0.114745
0.113669
0.105622
0.0965612
0.0874386
0.0784002
0.0695595
0.0610069
0.0528163
0.0450509
0.0377663
0.0310144
0.0248731
0.0193333
0.0144842
0.0103733
0.00703783
0.00448749
0.00267791
0.0014981
0.000791172
0.000398122
0.000192937
9.11765e-05
4.21921e-05
1.91747e-05
8.57722e-06
3.78348e-06
1.64848e-06
7.10511e-07
3.03326e-07
1.28367e-07
5.38377e-08
2.23124e-08
9.05167e-09
3.49662e-09
1.17608e-09
2.0686e-10
3.75953e-07
1.6432e-06
3.77493e-06
7.34788e-06
1.3305e-05
2.31694e-05
3.93676e-05
6.57013e-05
0.000108017
0.000175107
0.000279861
0.000440597
0.000682412
0.00103817
0.00154859
0.00226077
0.00322468
0.00448779
0.00608887
0.0080526
0.0103867
0.0130819
0.0161143
0.0194495
0.0230458
0.0268578
0.0308391
0.034944
0.0391287
0.0433527
0.0475792
0.0517752
0.0559123
0.0599662
0.0639167
0.0677476
0.0714459
0.0750017
0.078408
0.0816605
0.0847567
0.0876962
0.0904799
0.0931095
0.0955881
0.0979188
0.100105
0.102151
0.10406
0.105835
0.107478
0.108989
0.110369
0.111615
0.112721
0.113678
0.114473
0.115086
0.115487
0.115639
0.115499
0.114994
0.114035
0.112539
0.103469
0.0942761
0.0851054
0.0760756
0.0672842
0.0588117
0.0507262
0.043087
0.035947
0.0293567
0.0233722
0.0180241
0.0133759
0.00947227
0.0063446
0.0039908
0.00235065
0.00130049
0.000681038
0.00034069
0.000164643
7.76845e-05
3.59219e-05
1.63219e-05
7.30233e-06
3.22249e-06
1.40489e-06
6.05945e-07
2.58873e-07
1.0963e-07
4.60064e-08
1.90753e-08
7.74059e-09
2.99045e-09
1.00576e-09
1.769e-10
3.80957e-07
1.66505e-06
3.82509e-06
7.44551e-06
1.34819e-05
2.34781e-05
3.9893e-05
6.65799e-05
0.000109463
0.00017745
0.000283594
0.000446439
0.00069137
0.0010516
0.0015682
0.00228862
0.00326306
0.00453904
0.00615514
0.00813571
0.010488
0.0132021
0.016254
0.0196085
0.0232239
0.0270544
0.0310535
0.0351753
0.0393759
0.0436147
0.0478547
0.052063
0.0562111
0.0602745
0.0642332
0.0680709
0.0717745
0.0753341
0.0787429
0.0819964
0.0850923
0.0880301
0.0908107
0.093436
0.0959089
0.0982328
0.100411
0.102448
0.104346
0.106109
0.107738
0.109234
0.110597
0.111822
0.112904
0.113833
0.114591
0.115156
0.115487
0.115546
0.11526
0.114519
0.113162
0.110502
0.101348
0.0921156
0.0829448
0.0739483
0.0652178
0.0568295
0.0488479
0.0413296
0.0343258
0.0278853
0.022053
0.016879
0.0124136
0.00869783
0.00575662
0.00357612
0.00208187
0.00114054
0.00059286
0.000295033
0.000142216
6.7002e-05
3.09571e-05
1.40613e-05
6.29104e-06
2.77692e-06
1.21115e-06
5.22651e-07
2.23413e-07
9.46637e-08
3.97441e-08
1.64843e-08
6.69042e-09
2.58482e-09
8.69234e-10
1.52885e-10
3.85609e-07
1.68536e-06
3.87175e-06
7.53637e-06
1.36467e-05
2.37658e-05
4.03834e-05
6.7401e-05
0.000110816
0.000179646
0.000287101
0.000451937
0.000699814
0.00106427
0.00158675
0.002315
0.00329945
0.00458767
0.00621808
0.00821468
0.0105842
0.0133165
0.0163868
0.0197597
0.0233932
0.0272412
0.031257
0.0353946
0.0396099
0.0438624
0.0481148
0.0523342
0.0564921
0.060564
0.0645298
0.0683731
0.072081
0.0756436
0.0790539
0.0823076
0.0854025
0.0883379
0.0911149
0.0937354
0.0962024
0.0985192
0.100689
0.102717
0.104605
0.106356
0.107972
0.109455
0.110802
0.112011
0.113075
0.113985
0.114724
0.11527
0.115583
0.115633
0.115353
0.114657
0.113426
0.108479
0.0993232
0.0901055
0.0809682
0.0720236
0.0633626
0.0550596
0.0471778
0.0397721
0.0328924
0.0265961
0.020907
0.0158883
0.0115862
0.00803805
0.00526179
0.00323213
0.00186218
0.00101149
0.000522398
0.000258783
0.000124462
5.85554e-05
2.70324e-05
1.22736e-05
5.4906e-06
2.42386e-06
1.05744e-06
4.56484e-07
1.95208e-07
8.27454e-08
3.47518e-08
1.4417e-08
5.85202e-09
2.26087e-09
7.60182e-10
1.33702e-10
3.89897e-07
1.70409e-06
3.91477e-06
7.62019e-06
1.37988e-05
2.40315e-05
4.08368e-05
6.81609e-05
0.00011207
0.000181683
0.000290357
0.000457047
0.000707673
0.00107608
0.00160405
0.00233962
0.00333344
0.0046331
0.0062769
0.0082885
0.0106742
0.0134234
0.0165109
0.019901
0.0235512
0.0274154
0.0314466
0.0355987
0.0398276
0.0440923
0.0483559
0.0525853
0.0567517
0.0608309
0.0648027
0.0686507
0.072362
0.0759266
0.0793378
0.082591
0.0856842
0.0886168
0.0913898
0.0940052
0.096466
0.0987756
0.100938
0.102956
0.104833
0.106573
0.108177
0.109646
0.110979
0.112173
0.113221
0.114115
0.11484
0.115375
0.115685
0.115744
0.115497
0.114869
0.113766
0.106666
0.097519
0.0883212
0.0792185
0.0703242
0.0617283
0.0535041
0.0457131
0.0384089
0.0316406
0.0254729
0.0199124
0.0150331
0.0108774
0.00747851
0.00484721
0.00294783
0.00168303
0.000907432
0.000466061
0.00022996
0.000110379
5.18635e-05
2.39241e-05
1.08576e-05
4.85625e-06
2.14385e-06
9.35424e-07
4.03914e-07
1.72778e-07
7.32592e-08
3.07753e-08
1.27693e-08
5.18354e-09
2.00253e-09
6.73209e-10
1.18406e-10
3.93799e-07
1.72114e-06
3.95393e-06
7.69651e-06
1.39374e-05
2.42738e-05
4.12503e-05
6.88544e-05
0.000113215
0.000183546
0.000293335
0.000461726
0.000714874
0.00108691
0.00161991
0.00236222
0.00336464
0.00467481
0.00633089
0.00835624
0.0107568
0.0135214
0.0166246
0.0200303
0.0236958
0.0275748
0.03162
0.0357851
0.040026
0.0443018
0.0485752
0.0528132
0.0569871
0.0610726
0.0650493
0.068901
0.0726149
0.0761809
0.0795922
0.0828444
0.0859355
0.0888649
0.0916336
0.0942438
0.0966983
0.0990006
0.101154
0.103163
0.10503
0.106758
0.108349
0.109803
0.11112
0.112296
0.113324
0.114196
0.114897
0.115408
0.115693
0.115732
0.115471
0.114848
0.113797
0.105226
0.0960117
0.0867952
0.0777063
0.0688493
0.0603085
0.0521536
0.0444436
0.0372298
0.0305594
0.0244929
0.0190447
0.0142952
0.0102735
0.00700703
0.004502
0.00271403
0.00153743
0.000823681
0.000421037
0.000207033
9.92015e-05
4.65577e-05
2.14606e-05
9.73518e-06
4.35327e-06
1.92171e-06
8.38562e-07
3.62149e-07
1.54945e-07
6.57123e-08
2.76099e-08
1.14572e-08
4.65106e-09
1.79674e-09
6.03926e-10
1.06222e-10
3.97288e-07
1.73638e-06
3.98895e-06
7.76477e-06
1.40613e-05
2.44906e-05
4.16206e-05
6.94757e-05
0.000114242
0.000185216
0.000296009
0.000465928
0.000721343
0.00109664
0.00163418
0.00238253
0.00339269
0.00471231
0.00637942
0.00841711
0.0108309
0.0136094
0.0167267
0.0201464
0.0238254
0.0277175
0.031775
0.0359517
0.0402032
0.0444886
0.0487705
0.053016
0.0571962
0.0612868
0.0652676
0.0691222
0.0728379
0.0764046
0.0798156
0.0830665
0.0861552
0.0890812
0.0918456
0.0944505
0.0968987
0.0991938
0.101339
0.103338
0.105195
0.106911
0.108488
0.109927
0.111225
0.11238
0.113383
0.114225
0.114888
0.11535
0.115574
0.115532
0.115159
0.114376
0.113103
0.103972
0.0947108
0.0854801
0.0764033
0.0675792
0.0590878
0.0509956
0.0433593
0.0362294
0.0296526
0.0236801
0.0183483
0.0136895
0.00977102
0.00661601
0.00421778
0.00252333
0.00141976
0.000756522
0.000385137
0.000188822
9.03383e-05
4.23541e-05
1.95093e-05
8.84611e-06
3.95473e-06
1.74561e-06
7.61737e-07
3.29004e-07
1.40785e-07
5.97166e-08
2.50942e-08
1.04141e-08
4.2277e-09
1.63312e-09
5.48847e-10
9.65376e-11
4.00335e-07
1.74969e-06
4.01954e-06
7.8244e-06
1.41696e-05
2.468e-05
4.19443e-05
7.00192e-05
0.00011514
0.000186678
0.00029835
0.000469609
0.000727013
0.00110517
0.00164668
0.00240034
0.00341727
0.00474518
0.00642194
0.00847042
0.0108959
0.0136864
0.0168159
0.0202478
0.0239387
0.0278421
0.0319103
0.0360969
0.0403575
0.0446511
0.0489403
0.0531919
0.0573774
0.0614722
0.0654561
0.069313
0.0730299
0.0765968
0.0800071
0.0832564
0.0863426
0.0892652
0.0920253
0.0946251
0.0970673
0.0993554
0.101493
0.103483
0.105329
0.107033
0.108597
0.11002
0.1113
0.112432
0.113408
0.114215
0.114834
0.115237
0.115386
0.115242
0.114728
0.113749
0.112205
0.102944
0.0936185
0.0843661
0.0752966
0.0665003
0.0580518
0.0500141
0.0424422
0.0353854
0.0288917
0.0230083
0.0177567
0.0132006
0.00936544
0.00629638
0.00398658
0.00236936
0.00132546
0.000703017
0.000356655
0.000174439
8.33448e-05
3.90386e-05
1.79705e-05
8.14483e-06
3.64026e-06
1.6066e-06
7.0106e-07
3.02813e-07
1.29591e-07
5.49748e-08
2.3104e-08
9.58877e-09
3.89271e-09
1.50367e-09
5.05275e-10
8.88774e-11
4.02913e-07
1.76095e-06
4.04542e-06
7.87486e-06
1.42613e-05
2.48404e-05
4.22184e-05
7.04795e-05
0.000115901
0.000187918
0.000300336
0.000472731
0.000731822
0.00111241
0.00165729
0.00241545
0.00343813
0.00477305
0.006458
0.00851562
0.0109509
0.0137517
0.0168915
0.0203336
0.0240345
0.0279474
0.0320246
0.0362195
0.0404877
0.044788
0.0490831
0.0533399
0.0575295
0.0616276
0.065614
0.0694724
0.07319
0.0767568
0.0801662
0.0834137
0.0864974
0.0894168
0.0921729
0.0947679
0.0972046
0.0994863
0.101616
0.103598
0.105435
0.107129
0.10868
0.110089
0.111352
0.112465
0.113417
0.114195
0.114779
0.115133
0.115225
0.115003
0.114384
0.113263
0.111318
0.102014
0.0926698
0.083418
0.0743648
0.0655977
0.0571892
0.0492006
0.041686
0.0346926
0.0282642
0.0224334
0.017255
0.012776
0.00903364
0.00604211
0.00380111
0.00224636
0.00125065
0.000660816
0.000334271
0.000163221
7.78924e-05
3.64534e-05
1.67701e-05
7.5975e-06
3.3947e-06
1.49799e-06
6.5363e-07
2.82331e-07
1.20833e-07
5.12638e-08
2.15461e-08
8.94266e-09
3.63048e-09
1.40235e-09
4.71177e-10
8.28841e-11
4.04999e-07
1.77007e-06
4.06636e-06
7.91569e-06
1.43355e-05
2.49702e-05
4.24403e-05
7.08522e-05
0.000116518
0.000188922
0.000301944
0.000475261
0.00073572
0.00111828
0.00166589
0.0024277
0.00345505
0.00479565
0.00648723
0.00855225
0.0109955
0.0138045
0.0169528
0.0204032
0.0241121
0.0280326
0.0321171
0.0363186
0.0405928
0.0448985
0.0491983
0.053459
0.0576518
0.0617523
0.0657404
0.0695999
0.0733177
0.0768842
0.0802925
0.0835384
0.0866198
0.0895362
0.0922888
0.0948795
0.0973113
0.0995875
0.101711
0.103686
0.105515
0.1072
0.108741
0.110139
0.111389
0.112487
0.113423
0.114183
0.114745
0.115075
0.115141
0.114889
0.114238
0.11308
0.110558
0.101236
0.0918884
0.0826464
0.0736145
0.064878
0.0565073
0.0485615
0.0410913
0.0341406
0.0277535
0.021977
0.0168567
0.0124389
0.00875947
0.00583931
0.00365847
0.00215157
0.00119301
0.000628372
0.000317095
0.000154624
7.37174e-05
3.44747e-05
1.58515e-05
7.1787e-06
3.20678e-06
1.41486e-06
6.17321e-07
2.66648e-07
1.14126e-07
4.84216e-08
2.03529e-08
8.44787e-09
3.42972e-09
1.32479e-09
4.45084e-10
7.82988e-11
4.06576e-07
1.77695e-06
4.08218e-06
7.94654e-06
1.43915e-05
2.50683e-05
4.2608e-05
7.11338e-05
0.000116984
0.000189681
0.000303161
0.000477175
0.00073867
0.00112272
0.00167241
0.00243698
0.00346786
0.00481277
0.00650937
0.00858001
0.0110293
0.0138446
0.0169992
0.0204558
0.0241708
0.0280971
0.032187
0.0363935
0.0406723
0.0449819
0.0492851
0.0535487
0.0577438
0.061846
0.0658352
0.0696951
0.073413
0.076979
0.0803863
0.0836307
0.08671
0.089624
0.0923735
0.0949608
0.0973886
0.0996601
0.101779
0.103748
0.105571
0.107248
0.108782
0.110171
0.111413
0.112502
0.113429
0.11418
0.114736
0.115061
0.115129
0.114888
0.114264
0.113158
0.109994
0.100648
0.0912963
0.0820628
0.0730483
0.0643345
0.0559888
0.0480696
0.0406276
0.0337119
0.0273662
0.0216325
0.0165573
0.0121862
0.00855463
0.00568178
0.00354962
0.00208128
0.00115051
0.000604453
0.000304444
0.000148297
7.06472e-05
3.30205e-05
1.51767e-05
6.87119e-06
3.06885e-06
1.35387e-06
5.90689e-07
2.55148e-07
1.0921e-07
4.63391e-08
1.9479e-08
8.08568e-09
3.28284e-09
1.26809e-09
4.26013e-10
7.49485e-11
4.07629e-07
1.78155e-06
4.09275e-06
7.96714e-06
1.44289e-05
2.51338e-05
4.27199e-05
7.13217e-05
0.000117294
0.000190187
0.000303971
0.000478451
0.000740637
0.00112568
0.00167675
0.00244318
0.00347641
0.00482422
0.00652419
0.00859859
0.0110519
0.0138714
0.0170303
0.0204911
0.0242102
0.0281405
0.0322339
0.0364438
0.0407256
0.0450379
0.0493433
0.0536087
0.0578051
0.0619083
0.065898
0.0697582
0.073476
0.0770414
0.0804478
0.083691
0.0867688
0.0896808
0.0924281
0.0950127
0.0974375
0.0997057
0.101821
0.103786
0.105604
0.107276
0.108805
0.110189
0.111425
0.112508
0.113431
0.114179
0.114734
0.115064
0.115145
0.114929
0.114347
0.113313
0.10962
0.100253
0.0908947
0.0816643
0.0726585
0.0639574
0.0556292
0.0477313
0.0403143
0.0334247
0.0271067
0.0214017
0.0163569
0.0120174
0.00841815
0.00557728
0.00347473
0.00203335
0.0011219
0.000588451
0.00029599
0.00014407
6.85958e-05
3.20492e-05
1.47263e-05
6.66604e-06
2.97691e-06
1.31324e-06
5.72963e-07
2.47501e-07
1.05943e-07
4.49567e-08
1.88995e-08
7.84575e-09
3.18564e-09
1.23061e-09
4.13417e-10
7.27366e-11
4.08151e-07
1.78383e-06
4.09797e-06
7.97728e-06
1.44473e-05
2.51658e-05
4.27744e-05
7.1413e-05
0.000117445
0.000190431
0.000304363
0.000479066
0.000741584
0.00112711
0.00167884
0.00244615
0.00348053
0.00482973
0.00653134
0.00860758
0.0110629
0.0138845
0.0170454
0.0205084
0.0242295
0.0281617
0.032257
0.0364686
0.0407518
0.0450655
0.049372
0.0536382
0.0578353
0.0619389
0.0659289
0.0697891
0.0735067
0.0770718
0.0804777
0.0837201
0.086797
0.089708
0.092454
0.0950372
0.0974603
0.0997266
0.101839
0.103802
0.105617
0.107287
0.108813
0.110193
0.111426
0.112506
0.113426
0.114172
0.114728
0.115062
0.11515
0.11495
0.114395
0.113404
0.109429
0.100047
0.0906839
0.0814553
0.0724558
0.0637642
0.0554469
0.0475611
0.0401572
0.0332813
0.0269776
0.0212875
0.0162582
0.0119347
0.00835168
0.0055267
0.00343874
0.00200953
0.00110766
0.000580529
0.000291831
0.000141999
6.7594e-05
3.15758e-05
1.4507e-05
6.56624e-06
2.93217e-06
1.29347e-06
5.64329e-07
2.43772e-07
1.04349e-07
4.42808e-08
1.86158e-08
7.72807e-09
3.1379e-09
1.21217e-09
4.07213e-10
7.16469e-11
4.0816e-07
1.78387e-06
4.09806e-06
7.97745e-06
1.44476e-05
2.51663e-05
4.27753e-05
7.14145e-05
0.000117447
0.000190436
0.000304369
0.000479076
0.000741599
0.00112713
0.00167887
0.0024462
0.00348059
0.0048298
0.00653142
0.00860768
0.011063
0.0138846
0.0170456
0.0205085
0.0242297
0.0281619
0.0322572
0.0364688
0.040752
0.0450657
0.0493722
0.0536384
0.0578355
0.0619391
0.0659291
0.0697893
0.0735068
0.0770719
0.0804778
0.0837203
0.0867972
0.0897081
0.0924541
0.0950373
0.0974603
0.0997266
0.101839
0.103802
0.105617
0.107287
0.108812
0.110193
0.111426
0.112506
0.113425
0.114172
0.114727
0.115061
0.11515
0.11495
0.114396
0.113404
0.109428
0.100046
0.0906828
0.0814543
0.0724549
0.0637633
0.055446
0.0475602
0.0401564
0.0332806
0.026977
0.0212869
0.0162577
0.0119343
0.0083513
0.0055264
0.00343852
0.00200938
0.00110758
0.000580484
0.000291807
0.000141987
6.7588e-05
3.15729e-05
1.45057e-05
6.56561e-06
2.93189e-06
1.29334e-06
5.64274e-07
2.43749e-07
1.04339e-07
4.42767e-08
1.86141e-08
7.72738e-09
3.13762e-09
1.21206e-09
4.07176e-10
7.16405e-11
4.07654e-07
1.78166e-06
4.09301e-06
7.96765e-06
1.44299e-05
2.51354e-05
4.27226e-05
7.13262e-05
0.000117302
0.000190199
0.00030399
0.00047848
0.000740681
0.00112574
0.00167684
0.0024433
0.00347658
0.00482442
0.00652444
0.00859889
0.0110522
0.0138718
0.0170307
0.0204916
0.0242107
0.028141
0.0322345
0.0364444
0.0407261
0.0450384
0.0493439
0.0536093
0.0578058
0.0619089
0.0658986
0.0697588
0.0734765
0.0770419
0.0804483
0.0836914
0.0867692
0.0896812
0.0924284
0.095013
0.0974377
0.0997058
0.101821
0.103786
0.105603
0.107276
0.108804
0.110188
0.111424
0.112507
0.113429
0.114177
0.114732
0.115063
0.115144
0.114929
0.114349
0.113314
0.109614
0.100249
0.090891
0.0816609
0.0726553
0.0639544
0.0556262
0.0477284
0.0403117
0.0334224
0.0271046
0.0213998
0.0163553
0.012016
0.008417
0.00557639
0.00347411
0.00203297
0.00112169
0.000588344
0.000295938
0.000144045
6.85838e-05
3.20436e-05
1.47237e-05
6.66489e-06
2.9764e-06
1.31302e-06
5.72867e-07
2.4746e-07
1.05926e-07
4.49493e-08
1.88964e-08
7.84442e-09
3.18509e-09
1.23039e-09
4.1334e-10
7.27236e-11
4.06619e-07
1.77714e-06
4.08262e-06
7.9474e-06
1.43931e-05
2.50711e-05
4.26127e-05
7.11417e-05
0.000116996
0.000189702
0.000303193
0.000477226
0.000738747
0.00112283
0.00167257
0.0024372
0.00346815
0.00481315
0.00650984
0.00858056
0.0110299
0.0138453
0.0169999
0.0204566
0.0241717
0.0280981
0.032188
0.0363945
0.0406733
0.044983
0.0492862
0.0535497
0.0577449
0.0618471
0.0658362
0.0696962
0.073414
0.07698
0.0803872
0.0836315
0.0867108
0.0896247
0.0923741
0.0949613
0.097389
0.0996604
0.101779
0.103748
0.10557
0.107248
0.108781
0.11017
0.111412
0.112501
0.113427
0.114178
0.114733
0.115059
0.115128
0.114889
0.114265
0.113159
0.109984
0.100641
0.0912899
0.0820569
0.0730426
0.0643289
0.0559831
0.0480633
0.0406229
0.033708
0.0273629
0.0216294
0.0165545
0.0121838
0.00855268
0.0056803
0.00354862
0.00208067
0.00115015
0.000604255
0.000304343
0.000148248
7.06243e-05
3.301e-05
1.5172e-05
6.8691e-06
3.06794e-06
1.35348e-06
5.90521e-07
2.55077e-07
1.0918e-07
4.63265e-08
1.94737e-08
8.08346e-09
3.28192e-09
1.26773e-09
4.25886e-10
7.49268e-11
4.0506e-07
1.77033e-06
4.06697e-06
7.91688e-06
1.43377e-05
2.4974e-05
4.24468e-05
7.08631e-05
0.000116536
0.000188951
0.00030199
0.000475332
0.000735828
0.00111844
0.00166612
0.00242801
0.00345546
0.00479619
0.00648789
0.00855304
0.0109964
0.0138056
0.0169539
0.0204044
0.0241134
0.028034
0.0321185
0.0363201
0.0405943
0.0449
0.0491998
0.0534605
0.0576533
0.0617539
0.0657419
0.0696014
0.0733192
0.0768856
0.0802939
0.0835397
0.086621
0.0895374
0.0922898
0.0948805
0.0973121
0.0995881
0.101712
0.103687
0.105515
0.1072
0.108741
0.110138
0.111388
0.112486
0.113421
0.114181
0.114743
0.115073
0.11514
0.114889
0.114238
0.113078
0.110545
0.101226
0.0918798
0.0826385
0.073607
0.0648712
0.0565015
0.0485572
0.0410864
0.0341359
0.0277491
0.021973
0.0168532
0.0124358
0.00875689
0.00583737
0.00365709
0.00215065
0.00119247
0.000628084
0.000316952
0.000154556
7.36861e-05
3.44606e-05
1.58453e-05
7.17598e-06
3.20561e-06
1.41436e-06
6.1711e-07
2.66559e-07
1.14089e-07
4.84059e-08
2.03463e-08
8.44511e-09
3.42858e-09
1.32435e-09
4.44923e-10
7.82716e-11
4.0299e-07
1.76129e-06
4.04619e-06
7.87638e-06
1.42641e-05
2.48453e-05
4.22267e-05
7.04934e-05
0.000115924
0.000187955
0.000300394
0.000472822
0.00073196
0.00111261
0.00165758
0.00241585
0.00343867
0.00477374
0.00645886
0.00851665
0.0109521
0.013753
0.016893
0.0203353
0.0240362
0.0279492
0.0320265
0.0362214
0.0404897
0.04479
0.0490851
0.0533419
0.0575316
0.0616296
0.065616
0.0694744
0.073192
0.0767588
0.080168
0.0834155
0.0864991
0.0894184
0.0921744
0.0947693
0.0972059
0.0994874
0.101617
0.103599
0.105436
0.107129
0.10868
0.110089
0.111352
0.112464
0.113416
0.114194
0.114777
0.115131
0.115224
0.115002
0.114382
0.113257
0.111305
0.102004
0.0926605
0.0834089
0.074356
0.0655893
0.0571814
0.0491935
0.0416795
0.0346867
0.0282588
0.0224289
0.0172512
0.0127725
0.0090306
0.0060397
0.00379928
0.00224514
0.00124992
0.000660427
0.000334081
0.000163132
7.78522e-05
3.64355e-05
1.67623e-05
7.59416e-06
3.39327e-06
1.49739e-06
6.53378e-07
2.82225e-07
1.20789e-07
5.12453e-08
2.15383e-08
8.93941e-09
3.62914e-09
1.40181e-09
4.70985e-10
8.28517e-11
4.00427e-07
1.7501e-06
4.02047e-06
7.82623e-06
1.4173e-05
2.46859e-05
4.19544e-05
7.0036e-05
0.000115168
0.000186723
0.000298422
0.00046972
0.000727181
0.00110542
0.00164704
0.00240083
0.00341793
0.00474603
0.006423
0.0084717
0.0108974
0.0136881
0.0168178
0.0202498
0.0239409
0.0278443
0.0319127
0.0360993
0.04036
0.0446536
0.0489428
0.0531945
0.05738
0.0614748
0.0654587
0.0693156
0.0730324
0.0765993
0.0800095
0.0832588
0.0863448
0.0892674
0.0920274
0.094627
0.0970692
0.0993571
0.101494
0.103485
0.105331
0.107035
0.108598
0.110021
0.111301
0.112432
0.113408
0.114215
0.114835
0.115237
0.115386
0.115241
0.114726
0.113743
0.112196
0.102935
0.0936087
0.0843557
0.0752859
0.0664896
0.0580413
0.0500041
0.0424327
0.0353769
0.0288849
0.0230044
0.0177587
0.0131983
0.00936206
0.00629314
0.00398412
0.00236774
0.00132451
0.000702521
0.000356416
0.000174328
8.32952e-05
3.90168e-05
1.79611e-05
8.14082e-06
3.63857e-06
1.60589e-06
7.00765e-07
3.02691e-07
1.2954e-07
5.49535e-08
2.3095e-08
9.58501e-09
3.89114e-09
1.50304e-09
5.05049e-10
8.8839e-11
3.97396e-07
1.73685e-06
3.99005e-06
7.76692e-06
1.40652e-05
2.44974e-05
4.16323e-05
6.94954e-05
0.000114274
0.000185269
0.000296093
0.000466058
0.000721541
0.00109693
0.0016346
0.00238311
0.00339347
0.00471333
0.00638069
0.00841863
0.0108327
0.0136114
0.0167289
0.0201488
0.023828
0.0277202
0.0317779
0.0359546
0.0402063
0.0444917
0.0487737
0.0530191
0.0571994
0.06129
0.0652707
0.0691254
0.072841
0.0764077
0.0798186
0.0830694
0.086158
0.089084
0.0918483
0.094453
0.0969012
0.0991961
0.101341
0.103341
0.105197
0.106913
0.10849
0.109929
0.111227
0.112382
0.113385
0.114226
0.114889
0.115351
0.115573
0.115529
0.115153
0.114368
0.113097
0.103965
0.0947007
0.0854686
0.0763913
0.0675671
0.0590759
0.0509841
0.0433482
0.0362185
0.0296415
0.0236676
0.018332
0.0136793
0.00976413
0.00661115
0.00421446
0.00252123
0.00141857
0.000755899
0.000384837
0.000188686
9.02775e-05
4.23276e-05
1.9498e-05
8.84131e-06
3.95272e-06
1.74477e-06
7.61391e-07
3.28861e-07
1.40726e-07
5.96918e-08
2.50838e-08
1.04097e-08
4.22587e-09
1.63239e-09
5.48582e-10
9.64918e-11
3.93923e-07
1.72168e-06
3.95518e-06
7.69896e-06
1.39418e-05
2.42816e-05
4.12638e-05
6.88769e-05
0.000113252
0.000183606
0.000293431
0.000461875
0.0007151
0.00108725
0.00162039
0.00236289
0.00336554
0.00467599
0.00633236
0.00835801
0.0107589
0.0135238
0.0166272
0.0200332
0.0236989
0.027578
0.0316233
0.0357886
0.0400296
0.0443054
0.0485789
0.052817
0.0569909
0.0610763
0.065053
0.0689048
0.0726186
0.0761845
0.0795958
0.082848
0.0859389
0.0888682
0.0916369
0.094247
0.0967014
0.0990036
0.101157
0.103166
0.105033
0.106761
0.108352
0.109806
0.111123
0.112299
0.113328
0.1142
0.1149
0.11541
0.115695
0.115732
0.115469
0.114842
0.113791
0.105212
0.0959951
0.0867781
0.0776899
0.0688338
0.0602941
0.0521402
0.044431
0.037218
0.0305483
0.0244823
0.0190346
0.0142866
0.0102663
0.00700145
0.00449803
0.00271147
0.00153595
0.000822903
0.000420662
0.000206863
9.91261e-05
4.6525e-05
2.14466e-05
9.72933e-06
4.35084e-06
1.9207e-06
8.38148e-07
3.61978e-07
1.54875e-07
6.56829e-08
2.75977e-08
1.14521e-08
4.6489e-09
1.79587e-09
6.03613e-10
1.06167e-10
3.90036e-07
1.7047e-06
3.91618e-06
7.62294e-06
1.38038e-05
2.40404e-05