/*--------------------------------*- C++ -*----------------------------------*\
  =========                 |
  \\      /  F ield         | OpenFOAM: The Open Source CFD Toolbox
   \\    /   O peration     | Website:  https://openfoam.org
    \\  /    A nd           | Version:  8
     \\/     M anipulation  |
\*---------------------------------------------------------------------------*/
FoamFile
{
    version     2.0;
    format      ascii;
    class       volScalarField;
    location    "220/fluid";
    object      N2;
}
// * * * * * * * * * * * * * * * * * * * * * * * * * * * * * * * * * * * * * //

dimensions      [0 0 0 0 0 0 0];

internalField   nonuniform List<scalar> 
4000
(
1.96553e-06
8.58238e-06
1.96786e-05
3.8207e-05
6.89887e-05
0.000119818
0.000203151
0.000338613
0.000556636
0.000903492
0.00144793
0.00228927
0.00356615
0.00546402
0.00821813
0.0121078
0.017438
0.0245082
0.0335719
0.0448001
0.0582572
0.0738978
0.091581
0.111094
0.13218
0.154558
0.177943
0.20206
0.226647
0.251464
0.276297
0.300955
0.325275
0.349119
0.372373
0.394946
0.416766
0.437779
0.457946
0.477244
0.49566
0.513193
0.529849
0.545642
0.560589
0.574714
0.588043
0.600605
0.612428
0.623545
0.633987
0.643786
0.652974
0.661582
0.669641
0.677182
0.684232
0.690821
0.696976
0.702723
0.708041
0.712944
0.717609
0.72196
0.726017
0.729757
0.733416
0.73692
0.740274
0.743481
0.746541
0.749452
0.752211
0.75481
0.757243
0.759501
0.761559
0.763427
0.765077
0.766488
0.767642
0.768525
0.769147
0.769544
0.769772
0.769892
0.769951
0.769978
0.76999
0.769996
0.769998
0.769999
0.77
0.77
0.77
0.77
0.77
0.77
0.77
0.77
2.00064e-06
8.74104e-06
2.00648e-05
3.90149e-05
7.05677e-05
0.000122777
0.000208512
0.000348036
0.000572699
0.000930013
0.00149026
0.00235438
0.0036624
0.00560031
0.00840244
0.0123452
0.0177287
0.0248463
0.0339461
0.0451956
0.0586597
0.0742962
0.0919699
0.111474
0.132557
0.154941
0.178344
0.202488
0.227112
0.251974
0.276855
0.301564
0.325934
0.349826
0.373124
0.395735
0.417589
0.43863
0.458819
0.478132
0.496558
0.514096
0.530752
0.546541
0.56148
0.575594
0.588909
0.601454
0.613259
0.624355
0.634776
0.644553
0.653718
0.662303
0.670338
0.677855
0.684882
0.691448
0.69758
0.703307
0.708569
0.713473
0.718139
0.72248
0.726524
0.730249
0.733908
0.737413
0.740769
0.743978
0.747039
0.749951
0.752709
0.755305
0.757731
0.759976
0.762018
0.763858
0.765468
0.766827
0.767915
0.768727
0.76928
0.769621
0.769813
0.769911
0.769959
0.769982
0.769992
0.769996
0.769998
0.769999
0.77
0.77
0.77
0.77
0.77
0.77
0.77
0.77
2.05345e-06
8.97507e-06
2.06161e-05
4.01212e-05
7.26338e-05
0.000126472
0.000214912
0.000358815
0.000590373
0.000958225
0.00153405
0.0024204
0.0037589
0.00573684
0.00858906
0.0125913
0.0180412
0.0252282
0.0343954
0.045706
0.0592216
0.0748998
0.0926067
0.112139
0.133249
0.155664
0.179103
0.203291
0.227966
0.252886
0.27783
0.302604
0.327041
0.350998
0.374358
0.397027
0.418932
0.440017
0.460243
0.479585
0.498032
0.515583
0.532245
0.548032
0.562964
0.577065
0.590361
0.602883
0.614661
0.625728
0.636116
0.645858
0.654986
0.663533
0.671529
0.679006
0.685992
0.692516
0.698607
0.70429
0.709474
0.714407
0.719012
0.72331
0.727324
0.731055
0.734709
0.738207
0.741555
0.744755
0.747804
0.750699
0.753435
0.756004
0.758394
0.760593
0.762589
0.764363
0.765897
0.767171
0.768171
0.768899
0.769384
0.769677
0.76984
0.769924
0.769965
0.769984
0.769993
0.769997
0.769999
0.769999
0.77
0.77
0.77
0.77
0.77
0.77
0.77
0.77
2.10369e-06
9.19507e-06
2.11233e-05
4.11116e-05
7.44291e-05
0.000129589
0.000220161
0.000367437
0.000604219
0.000979979
0.00156748
0.00247063
0.00383258
0.00584216
0.0087355
0.0127888
0.0182994
0.0255549
0.0347961
0.0461832
0.0597754
0.0755287
0.0933085
0.112912
0.134092
0.156577
0.180086
0.204346
0.229095
0.25409
0.279109
0.30396
0.328471
0.352499
0.375927
0.398658
0.420619
0.441752
0.462018
0.481393
0.499863
0.51743
0.534099
0.549885
0.564809
0.578895
0.59217
0.604665
0.616412
0.627443
0.637791
0.647491
0.656574
0.665073
0.673021
0.680447
0.687381
0.693853
0.69989
0.705519
0.710633
0.715508
0.720062
0.724314
0.72828
0.732046
0.735683
0.739164
0.742492
0.745669
0.748691
0.751554
0.754252
0.756776
0.759115
0.761246
0.763174
0.764872
0.766322
0.767506
0.768416
0.769063
0.769483
0.769732
0.769868
0.769938
0.769971
0.769987
0.769994
0.769997
0.769999
0.77
0.77
0.77
0.77
0.77
0.77
0.77
0.77
0.77
2.14965e-06
9.39581e-06
2.15843e-05
4.20088e-05
7.60517e-05
0.000132406
0.000224922
0.000375312
0.000616996
0.00100031
0.0015992
0.00251903
0.00390471
0.00594689
0.0088833
0.0129912
0.0185677
0.0258994
0.0352245
0.0467004
0.0603837
0.076228
0.0940981
0.113791
0.135058
0.15763
0.181227
0.205574
0.230409
0.255489
0.280593
0.305525
0.330115
0.354218
0.377714
0.400509
0.422526
0.443707
0.464013
0.483419
0.501912
0.519493
0.536167
0.551951
0.566864
0.580932
0.594183
0.606648
0.618359
0.62935
0.639654
0.649305
0.658337
0.666784
0.674676
0.682045
0.688921
0.695333
0.701308
0.70685
0.711919
0.716774
0.721287
0.725487
0.729342
0.733119
0.736733
0.740187
0.743486
0.74663
0.749614
0.752434
0.755082
0.75755
0.759826
0.761888
0.763739
0.765354
0.766715
0.767808
0.768631
0.769203
0.769566
0.769777
0.769891
0.769948
0.769976
0.769989
0.769995
0.769998
0.769999
0.77
0.77
0.77
0.77
0.77
0.77
0.77
0.77
0.77
2.19071e-06
9.5749e-06
2.19945e-05
4.28043e-05
7.7486e-05
0.00013489
0.000229112
0.000382236
0.000628233
0.00101823
0.00162724
0.00256206
0.00396934
0.0060417
0.00901885
0.0131796
0.018822
0.0262319
0.0356463
0.0472197
0.0610058
0.0769556
0.0949316
0.114729
0.136101
0.158774
0.18247
0.206914
0.231844
0.257016
0.282208
0.307224
0.331893
0.35607
0.379633
0.402488
0.424558
0.445784
0.466126
0.485559
0.504071
0.521661
0.538338
0.554115
0.569014
0.583061
0.596284
0.608715
0.620387
0.631333
0.641589
0.651189
0.660166
0.668556
0.676389
0.6837
0.690517
0.696871
0.70279
0.708209
0.713203
0.718001
0.722465
0.72662
0.730442
0.734195
0.737782
0.741207
0.744473
0.747578
0.750518
0.753289
0.755882
0.758289
0.760496
0.762493
0.764265
0.765795
0.767069
0.768076
0.768818
0.769322
0.769635
0.769814
0.769909
0.769957
0.76998
0.769991
0.769996
0.769998
0.769999
0.77
0.77
0.77
0.77
0.77
0.77
0.77
0.77
0.77
2.22816e-06
9.73833e-06
2.23691e-05
4.35317e-05
7.87997e-05
0.000137172
0.000232975
0.000388652
0.000638707
0.00103504
0.00165375
0.00260308
0.00403145
0.00613357
0.00915123
0.013365
0.019074
0.0265639
0.0360701
0.0477449
0.0616389
0.0777004
0.0957895
0.1157
0.137183
0.159965
0.183767
0.208313
0.233342
0.258607
0.283889
0.308988
0.333734
0.357981
0.381608
0.404519
0.426636
0.447901
0.468274
0.487729
0.506255
0.52385
0.540523
0.55629
0.571171
0.585193
0.598385
0.610778
0.622407
0.633306
0.643511
0.653056
0.661976
0.670305
0.678078
0.685327
0.692083
0.69838
0.704248
0.709569
0.714511
0.719225
0.723617
0.727708
0.731527
0.735245
0.738798
0.742188
0.745415
0.748479
0.751373
0.754093
0.756631
0.758977
0.761113
0.76304
0.764737
0.766189
0.767381
0.768307
0.768976
0.76942
0.769691
0.769844
0.769924
0.769964
0.769983
0.769992
0.769997
0.769999
0.769999
0.77
0.77
0.77
0.77
0.77
0.77
0.77
0.77
0.77
2.26267e-06
9.88891e-06
2.27143e-05
4.42024e-05
8.00122e-05
0.00013928
0.00023655
0.000394602
0.000648447
0.00105073
0.00167859
0.00264168
0.00409021
0.00622099
0.00927802
0.0135439
0.0193187
0.0268886
0.0364874
0.0482652
0.0622697
0.078446
0.0966518
0.116679
0.138276
0.16117
0.18508
0.20973
0.234857
0.260216
0.285584
0.310763
0.335583
0.359895
0.38358
0.406541
0.428699
0.449998
0.470395
0.489866
0.5084
0.525996
0.542661
0.558413
0.573272
0.587265
0.600422
0.612775
0.62436
0.63521
0.645361
0.654849
0.66371
0.671977
0.679684
0.686863
0.693546
0.69976
0.705533
0.710738
0.715724
0.720372
0.724701
0.728694
0.73255
0.736236
0.739753
0.743106
0.746294
0.749314
0.752162
0.754832
0.757315
0.759602
0.761671
0.763532
0.765157
0.766534
0.76765
0.768503
0.769108
0.769501
0.769737
0.769868
0.769936
0.76997
0.769986
0.769994
0.769997
0.769999
0.769999
0.77
0.77
0.77
0.77
0.77
0.77
0.77
0.77
0.77
2.29477e-06
1.0029e-05
2.30357e-05
4.48274e-05
8.11436e-05
0.000141251
0.000239899
0.00040019
0.000657622
0.00106556
0.00170215
0.00267843
0.00414639
0.00630491
0.0094002
0.0137168
0.0195562
0.0272046
0.0368948
0.0487746
0.0628886
0.0791792
0.0975012
0.117644
0.139355
0.16236
0.186377
0.211129
0.236351
0.2618
0.287251
0.312506
0.337393
0.361766
0.385503
0.408507
0.430701
0.452026
0.472442
0.491924
0.510461
0.528051
0.544705
0.560437
0.575271
0.589233
0.602353
0.614665
0.626204
0.637004
0.647102
0.656535
0.665338
0.673545
0.681192
0.688311
0.694934
0.701091
0.706774
0.711938
0.71689
0.721489
0.725763
0.729669
0.733496
0.737149
0.740633
0.743949
0.747098
0.750076
0.752878
0.755498
0.757928
0.760158
0.762173
0.763969
0.765527
0.766835
0.767881
0.768669
0.769216
0.769567
0.769773
0.769887
0.769945
0.769974
0.769988
0.769995
0.769998
0.769999
0.77
0.77
0.77
0.77
0.77
0.77
0.77
0.77
0.77
0.77
2.32465e-06
1.01595e-05
2.33352e-05
4.54102e-05
8.21994e-05
0.000143092
0.000243032
0.000405427
0.000666237
0.00107951
0.00172437
0.00271319
0.00419965
0.00638468
0.00951665
0.0138821
0.0197838
0.0275081
0.0372868
0.0492656
0.0634862
0.079888
0.098323
0.118579
0.140401
0.163513
0.187632
0.212481
0.237795
0.263328
0.288856
0.314181
0.33913
0.363557
0.387339
0.410381
0.432604
0.45395
0.47438
0.493867
0.512402
0.529984
0.546622
0.562333
0.577139
0.591068
0.604151
0.616421
0.627913
0.638664
0.648711
0.65809
0.666836
0.674987
0.682576
0.689637
0.696203
0.702304
0.707865
0.712978
0.717887
0.722441
0.726674
0.730553
0.734351
0.737974
0.741426
0.744708
0.74782
0.750759
0.753519
0.756093
0.758474
0.760651
0.762614
0.764351
0.765848
0.767093
0.768077
0.768807
0.769306
0.76962
0.769803
0.769902
0.769953
0.769978
0.76999
0.769995
0.769998
0.769999
0.77
0.77
0.77
0.77
0.77
0.77
0.77
0.77
0.77
0.77
2.35239e-06
1.02806e-05
2.36133e-05
4.59516e-05
8.3181e-05
0.000144805
0.000245952
0.000410313
0.000674286
0.00109256
0.00174521
0.00274584
0.00424978
0.00645988
0.00962662
0.0140384
0.0199992
0.0277957
0.0376588
0.0497317
0.0640539
0.0805615
0.0991042
0.119467
0.141394
0.164607
0.188824
0.213764
0.239163
0.264774
0.290373
0.315761
0.340766
0.36524
0.389062
0.412135
0.434382
0.455744
0.476182
0.495671
0.514201
0.53177
0.54839
0.564077
0.578855
0.59275
0.605795
0.618024
0.629472
0.640176
0.650173
0.6595
0.668195
0.676292
0.683827
0.690835
0.697348
0.703399
0.708894
0.713947
0.718795
0.723296
0.727477
0.731352
0.73512
0.738714
0.742135
0.745385
0.748463
0.751365
0.754086
0.756619
0.758956
0.761083
0.762997
0.764681
0.766124
0.767313
0.768242
0.768921
0.769379
0.769663
0.769826
0.769914
0.769959
0.769981
0.769991
0.769996
0.769998
0.769999
0.77
0.77
0.77
0.77
0.77
0.77
0.77
0.77
0.77
0.77
2.3779e-06
1.0392e-05
2.38692e-05
4.645e-05
8.4085e-05
0.000146384
0.000248644
0.000414824
0.000681726
0.00110465
0.00176452
0.00277613
0.00429634
0.00652982
0.009729
0.014184
0.0202002
0.0280641
0.0380059
0.050167
0.064584
0.0811905
0.0998337
0.120296
0.142321
0.165629
0.189934
0.214958
0.240435
0.266117
0.29178
0.317225
0.342279
0.366794
0.39065
0.413749
0.436015
0.457389
0.477831
0.497318
0.51584
0.533395
0.549996
0.565659
0.580407
0.594269
0.607278
0.619467
0.630872
0.641531
0.651481
0.66076
0.669404
0.677452
0.684936
0.691893
0.698354
0.704345
0.709789
0.714786
0.719583
0.724036
0.72815
0.732046
0.735791
0.739359
0.742755
0.745978
0.749026
0.751896
0.754582
0.757078
0.759376
0.761458
0.763328
0.764966
0.76636
0.767499
0.76838
0.769016
0.769439
0.769698
0.769845
0.769924
0.769963
0.769983
0.769992
0.769996
0.769998
0.769999
0.77
0.77
0.77
0.77
0.77
0.77
0.77
0.77
0.77
0.77
2.40106e-06
1.04932e-05
2.41015e-05
4.69025e-05
8.49064e-05
0.000147819
0.000251094
0.00041893
0.000688506
0.00111567
0.00178214
0.0028038
0.00433891
0.00659382
0.00982273
0.0143174
0.0203843
0.0283101
0.0383241
0.0505659
0.0650698
0.0817669
0.100502
0.121056
0.14317
0.166563
0.190949
0.216049
0.241596
0.267342
0.293062
0.318556
0.343652
0.368203
0.392087
0.415208
0.437488
0.45887
0.479314
0.498797
0.517308
0.534849
0.55143
0.567069
0.581789
0.59562
0.608593
0.620744
0.632109
0.642726
0.652633
0.661867
0.670465
0.678465
0.685902
0.692808
0.699215
0.705164
0.710558
0.715534
0.720307
0.724723
0.728757
0.732658
0.73638
0.739925
0.743297
0.746494
0.749515
0.752356
0.755011
0.757475
0.759738
0.761786
0.763618
0.765212
0.766561
0.767656
0.768495
0.769094
0.769487
0.769725
0.76986
0.769931
0.769967
0.769985
0.769993
0.769997
0.769999
0.769999
0.77
0.77
0.77
0.77
0.77
0.77
0.77
0.77
0.77
0.77
2.4217e-06
1.05833e-05
2.43086e-05
4.7306e-05
8.56388e-05
0.0001491
0.00025328
0.000422598
0.000694564
0.00112552
0.00179791
0.00282859
0.00437706
0.00665119
0.0099068
0.0144371
0.0205494
0.0285309
0.0386096
0.0509238
0.0655056
0.0822837
0.101101
0.121736
0.14393
0.167399
0.191858
0.217025
0.242633
0.268435
0.294204
0.319742
0.344874
0.369455
0.393363
0.4165
0.438792
0.460179
0.480622
0.5001
0.518601
0.536127
0.552688
0.568304
0.582998
0.596799
0.60974
0.621857
0.633186
0.643765
0.653632
0.662826
0.671383
0.67934
0.686734
0.693596
0.699966
0.705867
0.711167
0.716243
0.720956
0.725327
0.729308
0.733191
0.736892
0.740417
0.743766
0.74694
0.749936
0.752751
0.755378
0.757811
0.760041
0.762057
0.76385
0.765414
0.766729
0.767787
0.76859
0.769157
0.769526
0.769748
0.769872
0.769937
0.76997
0.769986
0.769994
0.769997
0.769999
0.769999
0.77
0.77
0.77
0.77
0.77
0.77
0.77
0.77
0.77
0.77
2.43966e-06
1.06618e-05
2.44887e-05
4.76571e-05
8.62763e-05
0.000150214
0.000255184
0.000425793
0.000699845
0.00113412
0.00181167
0.00285022
0.00441038
0.00670133
0.00998028
0.0145417
0.0206939
0.0287239
0.0388593
0.0512367
0.0658864
0.0827354
0.101624
0.122331
0.144593
0.168129
0.19265
0.217876
0.243537
0.269387
0.295198
0.320772
0.345936
0.370541
0.394468
0.417619
0.439919
0.461309
0.481751
0.501222
0.519713
0.537224
0.553768
0.569363
0.584033
0.597808
0.610721
0.622808
0.634105
0.644651
0.654484
0.663644
0.672167
0.680091
0.687451
0.694284
0.700623
0.706458
0.711732
0.716794
0.721485
0.725833
0.729785
0.733648
0.73733
0.740835
0.744165
0.747318
0.750293
0.753084
0.755687
0.758094
0.760296
0.762281
0.764047
0.765577
0.766864
0.767893
0.768667
0.769208
0.769558
0.769766
0.769881
0.769942
0.769972
0.769987
0.769994
0.769997
0.769999
0.769999
0.77
0.77
0.77
0.77
0.77
0.77
0.77
0.77
0.77
0.77
2.45478e-06
1.07278e-05
2.46404e-05
4.79528e-05
8.68132e-05
0.000151153
0.000256788
0.000428487
0.000704299
0.00114137
0.00182329
0.00286849
0.00443853
0.00674369
0.0100424
0.0146302
0.020816
0.0288871
0.0390704
0.0515013
0.0662085
0.0831173
0.102067
0.122834
0.145154
0.168746
0.19332
0.218594
0.2443
0.27019
0.296037
0.321641
0.346829
0.371455
0.395397
0.418559
0.440865
0.462256
0.482696
0.502161
0.520642
0.538141
0.554669
0.570246
0.584895
0.598648
0.611537
0.623598
0.634869
0.645387
0.655193
0.664324
0.672819
0.680715
0.688049
0.694857
0.701172
0.706942
0.712196
0.717239
0.721912
0.726241
0.730177
0.734025
0.737692
0.741182
0.744495
0.747631
0.750587
0.75336
0.755941
0.758326
0.760505
0.762472
0.764213
0.765718
0.766974
0.767978
0.768729
0.769249
0.769582
0.76978
0.769889
0.769946
0.769974
0.769988
0.769994
0.769997
0.769999
0.77
0.77
0.77
0.77
0.77
0.77
0.77
0.77
0.77
0.77
0.77
2.46695e-06
1.07809e-05
2.47625e-05
4.81906e-05
8.72452e-05
0.000151909
0.000258079
0.000430655
0.000707885
0.00114721
0.00183265
0.00288322
0.00446123
0.00677787
0.0100925
0.0147016
0.0209147
0.0290189
0.039241
0.0517152
0.0664689
0.0834261
0.102425
0.12324
0.145608
0.169245
0.193861
0.219175
0.244917
0.270839
0.296714
0.322342
0.34755
0.372192
0.396146
0.419316
0.441626
0.463018
0.483456
0.502915
0.521388
0.538876
0.555392
0.570953
0.585586
0.59932
0.612189
0.62423
0.635479
0.645976
0.655759
0.664868
0.67334
0.681214
0.688525
0.695311
0.701606
0.707328
0.712562
0.717588
0.722242
0.726556
0.730484
0.734322
0.737978
0.741455
0.744755
0.747877
0.750818
0.753574
0.75614
0.75851
0.760674
0.762623
0.764345
0.76583
0.767065
0.768045
0.768776
0.769281
0.769602
0.76979
0.769894
0.769948
0.769975
0.769989
0.769995
0.769998
0.769999
0.77
0.77
0.77
0.77
0.77
0.77
0.77
0.77
0.77
0.77
0.77
2.47607e-06
1.08208e-05
2.4854e-05
4.8369e-05
8.7569e-05
0.000152475
0.000259048
0.000432281
0.000710575
0.0011516
0.00183968
0.00289428
0.00447829
0.00680358
0.0101303
0.0147554
0.020989
0.0291183
0.0393696
0.0518766
0.0666655
0.0836594
0.102695
0.123547
0.145951
0.169622
0.194271
0.219615
0.245384
0.27133
0.297226
0.322872
0.348095
0.372749
0.396711
0.419887
0.4422
0.463593
0.484029
0.503484
0.52195
0.53943
0.555935
0.571485
0.586105
0.599825
0.612679
0.624704
0.635937
0.646418
0.656184
0.665276
0.673731
0.681587
0.688881
0.695649
0.701925
0.707625
0.712841
0.717849
0.722488
0.726787
0.730711
0.734542
0.738189
0.741657
0.744947
0.748059
0.750991
0.753737
0.756294
0.758651
0.760802
0.762737
0.764444
0.765913
0.767133
0.768097
0.768812
0.769304
0.769616
0.769798
0.769898
0.769951
0.769976
0.769989
0.769995
0.769998
0.769999
0.77
0.77
0.77
0.77
0.77
0.77
0.77
0.77
0.77
0.77
0.77
2.48213e-06
1.08472e-05
2.49147e-05
4.84871e-05
8.77833e-05
0.00015285
0.000259687
0.000433356
0.000712352
0.00115449
0.00184432
0.00290159
0.00448957
0.00682059
0.0101552
0.0147911
0.0210383
0.0291844
0.0394553
0.0519841
0.0667967
0.0838153
0.102876
0.123753
0.146181
0.169876
0.194546
0.21991
0.245698
0.27166
0.29757
0.323228
0.348461
0.373122
0.39709
0.42027
0.442585
0.463979
0.484413
0.503865
0.522327
0.539801
0.556299
0.571841
0.586452
0.600163
0.613007
0.625021
0.636243
0.646712
0.656466
0.665546
0.67399
0.681835
0.689117
0.695873
0.702136
0.707831
0.713033
0.718028
0.722653
0.726941
0.730862
0.734687
0.738329
0.741792
0.745077
0.748183
0.751109
0.753848
0.756396
0.758746
0.760888
0.762813
0.76451
0.765969
0.767178
0.768132
0.768837
0.76932
0.769625
0.769804
0.769901
0.769952
0.769977
0.769989
0.769995
0.769998
0.769999
0.77
0.77
0.77
0.77
0.77
0.77
0.77
0.77
0.77
0.77
0.77
2.4851e-06
1.08602e-05
2.49443e-05
4.85447e-05
8.78874e-05
0.000153031
0.000259996
0.000433872
0.000713203
0.00115587
0.00184653
0.00290508
0.00449494
0.00682869
0.0101672
0.0148081
0.0210619
0.029216
0.0394964
0.052036
0.0668602
0.0838909
0.102964
0.123854
0.146294
0.17
0.194682
0.220056
0.245853
0.271823
0.297741
0.323405
0.348642
0.373307
0.397278
0.42046
0.442777
0.464171
0.484604
0.504055
0.522515
0.539986
0.556481
0.572019
0.586626
0.600332
0.613171
0.62518
0.636396
0.64686
0.656609
0.665683
0.674121
0.68196
0.689236
0.695986
0.702241
0.707937
0.713131
0.718119
0.722736
0.727017
0.730937
0.73476
0.738399
0.741859
0.745142
0.748245
0.751167
0.753903
0.756447
0.758792
0.76093
0.76285
0.764543
0.765996
0.7672
0.768148
0.768849
0.769328
0.76963
0.769806
0.769903
0.769953
0.769977
0.769989
0.769995
0.769998
0.769999
0.77
0.77
0.77
0.77
0.77
0.77
0.77
0.77
0.77
0.77
0.77
2.48515e-06
1.08604e-05
2.49448e-05
4.85456e-05
8.7889e-05
0.000153034
0.000260001
0.00043388
0.000713218
0.0011559
0.00184657
0.00290514
0.00449505
0.00682885
0.0101674
0.0148084
0.0210624
0.0292167
0.0394973
0.052037
0.0668614
0.0838924
0.102966
0.123856
0.146296
0.170002
0.194684
0.220058
0.245855
0.271826
0.297743
0.323407
0.348645
0.373309
0.397281
0.420463
0.44278
0.464174
0.484607
0.504058
0.522517
0.539989
0.556483
0.572021
0.586628
0.600334
0.613173
0.625182
0.636398
0.646861
0.65661
0.665685
0.674122
0.681962
0.689238
0.695988
0.702243
0.707939
0.713133
0.71812
0.722737
0.727018
0.730938
0.73476
0.7384
0.74186
0.745142
0.748245
0.751167
0.753903
0.756447
0.758793
0.76093
0.76285
0.764543
0.765996
0.7672
0.768148
0.768849
0.769328
0.76963
0.769806
0.769903
0.769953
0.769977
0.769989
0.769995
0.769998
0.769999
0.77
0.77
0.77
0.77
0.77
0.77
0.77
0.77
0.77
0.77
0.77
2.48227e-06
1.08479e-05
2.49161e-05
4.849e-05
8.77886e-05
0.000152859
0.000259704
0.000433383
0.000712397
0.00115457
0.00184444
0.00290179
0.00448988
0.00682106
0.0101559
0.0147921
0.0210397
0.0291863
0.0394577
0.0519872
0.0668004
0.0838196
0.102881
0.123759
0.146187
0.169882
0.194553
0.219917
0.245705
0.271667
0.297578
0.323236
0.348469
0.37313
0.397098
0.420279
0.442594
0.463987
0.484421
0.503873
0.522334
0.539808
0.556306
0.571848
0.586458
0.600169
0.613013
0.625027
0.636248
0.646717
0.656471
0.665551
0.673995
0.68184
0.689123
0.695879
0.702141
0.707837
0.713038
0.718032
0.722656
0.726944
0.730865
0.734689
0.73833
0.741793
0.745078
0.748185
0.75111
0.753849
0.756397
0.758747
0.760888
0.762813
0.764511
0.76597
0.767179
0.768132
0.768837
0.76932
0.769625
0.769804
0.769901
0.769952
0.769977
0.769989
0.769995
0.769998
0.769999
0.77
0.77
0.77
0.77
0.77
0.77
0.77
0.77
0.77
0.77
0.77
2.47633e-06
1.08219e-05
2.48566e-05
4.83741e-05
8.75784e-05
0.000152492
0.000259076
0.00043233
0.000710656
0.00115173
0.00183989
0.00289463
0.00447883
0.00680441
0.0101315
0.0147572
0.0209914
0.0291216
0.0393739
0.0518819
0.0666719
0.0836669
0.102704
0.123557
0.145962
0.169633
0.194283
0.219627
0.245397
0.271343
0.297239
0.322886
0.348109
0.372763
0.396725
0.419901
0.442214
0.463607
0.484042
0.503497
0.521963
0.539442
0.555947
0.571496
0.586115
0.599835
0.612689
0.624714
0.635946
0.646426
0.656192
0.665284
0.673739
0.681595
0.68889
0.695658
0.701933
0.707632
0.712847
0.717854
0.722491
0.726792
0.730717
0.734545
0.738192
0.741659
0.74495
0.748062
0.750993
0.75374
0.756295
0.758653
0.760804
0.762738
0.764445
0.765914
0.767134
0.768098
0.768812
0.769304
0.769616
0.769798
0.769899
0.769951
0.769976
0.769989
0.769995
0.769998
0.769999
0.77
0.77
0.77
0.77
0.77
0.77
0.77
0.77
0.77
0.77
0.77
2.46732e-06
1.07826e-05
2.47663e-05
4.8198e-05
8.72587e-05
0.000151933
0.000258121
0.000430726
0.000708002
0.00114741
0.00183296
0.00288372
0.004462
0.00677904
0.0100943
0.0147041
0.0209181
0.0290235
0.0392469
0.0517226
0.0664779
0.0834366
0.102437
0.123253
0.145623
0.16926
0.193878
0.219192
0.244935
0.270857
0.296733
0.322361
0.34757
0.372212
0.396166
0.419336
0.441645
0.463038
0.483475
0.502934
0.521406
0.538893
0.555408
0.570969
0.585601
0.599334
0.612203
0.624243
0.635491
0.645987
0.65577
0.664878
0.67335
0.681223
0.688534
0.695321
0.701614
0.707336
0.712569
0.717592
0.722245
0.726562
0.730491
0.734327
0.737981
0.741458
0.744758
0.74788
0.75082
0.753576
0.756142
0.758511
0.760676
0.762625
0.764347
0.765831
0.767066
0.768046
0.768776
0.769281
0.769602
0.76979
0.769894
0.769949
0.769975
0.769989
0.769995
0.769998
0.769999
0.77
0.77
0.77
0.77
0.77
0.77
0.77
0.77
0.77
0.77
0.77
2.45528e-06
1.073e-05
2.46454e-05
4.79626e-05
8.68312e-05
0.000151185
0.000256843
0.000428579
0.000704453
0.00114162
0.0018237
0.00286914
0.00443953
0.0067452
0.0100446
0.0146334
0.0208204
0.028893
0.039078
0.0515109
0.0662201
0.0831309
0.102082
0.122851
0.145173
0.168766
0.193342
0.218617
0.244324
0.270214
0.296061
0.321666
0.346855
0.37148
0.395422
0.418584
0.44089
0.462281
0.48272
0.502185
0.520665
0.538163
0.55469
0.570266
0.584914
0.598666
0.611554
0.623614
0.634884
0.645402
0.655207
0.664337
0.672831
0.680727
0.688059
0.694867
0.701181
0.70695
0.712203
0.717245
0.721916
0.726248
0.730184
0.73403
0.737696
0.741186
0.744499
0.747635
0.750591
0.753363
0.755944
0.758328
0.760507
0.762473
0.764215
0.765719
0.766975
0.767978
0.768729
0.76925
0.769583
0.76978
0.769889
0.769946
0.769974
0.769988
0.769994
0.769997
0.769999
0.77
0.77
0.77
0.77
0.77
0.77
0.77
0.77
0.77
0.77
0.77
2.44028e-06
1.06645e-05
2.4495e-05
4.76694e-05
8.62987e-05
0.000150254
0.000255252
0.000425908
0.000700036
0.00113443
0.00181217
0.00285101
0.00441161
0.00670318
0.00998301
0.0145456
0.0206993
0.0287311
0.0388686
0.0512484
0.0659006
0.082752
0.101643
0.122352
0.144617
0.168154
0.192677
0.217904
0.243566
0.269417
0.295229
0.320804
0.345967
0.370573
0.394499
0.41765
0.43995
0.461339
0.48178
0.501251
0.51974
0.537251
0.553794
0.569387
0.584056
0.59783
0.610742
0.622827
0.634123
0.644668
0.6545
0.663659
0.67218
0.680103
0.687463
0.694295
0.700633
0.706466
0.711739
0.7168
0.72149
0.72584
0.729791
0.733652
0.737335
0.74084
0.74417
0.747323
0.750297
0.753088
0.755691
0.758097
0.760298
0.762282
0.764046
0.765578
0.766865
0.767894
0.768668
0.769209
0.769558
0.769766
0.769881
0.769942
0.769972
0.769987
0.769994
0.769997
0.769999
0.769999
0.77
0.77
0.77
0.77
0.77
0.77
0.77
0.77
0.77
0.77
2.42245e-06
1.05866e-05
2.43161e-05
4.73208e-05
8.56658e-05
0.000149147
0.000253361
0.000422735
0.000694792
0.0011259
0.00179851
0.00282953
0.00437852
0.00665339
0.00991003
0.0144417
0.0205558
0.0285394
0.0386207
0.0509377
0.0655223
0.0823035
0.101124
0.121762
0.143958
0.167429
0.19189
0.217059
0.242668
0.268471
0.294241
0.319779
0.344912
0.369492
0.3934
0.416537
0.438828
0.460214
0.480657
0.500134
0.518633
0.536158
0.552718
0.568332
0.583025
0.596825
0.609765
0.62188
0.633208
0.643785
0.653651
0.662843
0.671399
0.679355
0.686747
0.693608
0.699978
0.705878
0.711177
0.716254
0.720966
0.725337
0.729313
0.733194
0.736897
0.740422
0.743772
0.746945
0.749941
0.752755
0.755382
0.757815
0.760045
0.762061
0.763855
0.765418
0.766731
0.767788
0.768591
0.769158
0.769527
0.769748
0.769872
0.769937
0.76997
0.769986
0.769994
0.769997
0.769999
0.769999
0.77
0.77
0.77
0.77
0.77
0.77
0.77
0.77
0.77
0.77
2.40195e-06
1.04971e-05
2.41104e-05
4.69199e-05
8.49381e-05
0.000147875
0.000251189
0.000419091
0.000688772
0.0011161
0.00178284
0.0028049
0.0043406
0.00659637
0.00982647
0.0143228
0.0203916
0.02832
0.0383369
0.0505819
0.0650892
0.0817898
0.100528
0.121085
0.143202
0.166598
0.190987
0.216089
0.241637
0.267384
0.293104
0.318599
0.343696
0.368246
0.39213
0.415251
0.43753
0.458911
0.479354
0.498836
0.517346
0.534886
0.551465
0.567102
0.58182
0.595649
0.608621
0.620771
0.632134
0.64275
0.652654
0.661886
0.670483
0.678481
0.685916
0.692821
0.699227
0.705176
0.71057
0.715549
0.72032
0.724735
0.728764
0.732664
0.736388
0.739934
0.743304
0.746501
0.749521
0.752361
0.755016
0.757479
0.759742
0.761789
0.763621
0.765215
0.766564
0.767658
0.768497
0.769095
0.769488
0.769726
0.76986
0.769931
0.769967
0.769985
0.769993
0.769997
0.769999
0.769999
0.77
0.77
0.77
0.77
0.77
0.77
0.77
0.77
0.77
0.77
2.37893e-06
1.03965e-05
2.38795e-05
4.647e-05
8.41216e-05
0.000146448
0.000248754
0.000415008
0.000682031
0.00110514
0.00176531
0.00277738
0.00429827
0.00653272
0.00973325
0.0141901
0.0202085
0.0280753
0.0380204
0.0501852
0.064606
0.0812166
0.0998636
0.12033
0.142358
0.165669
0.189977
0.215003
0.240482
0.266165
0.291829
0.317274
0.342328
0.366843
0.390699
0.413798
0.436063
0.457436
0.477877
0.497363
0.515882
0.533437
0.550036
0.565696
0.580443
0.594303
0.60731
0.619497
0.6309
0.641557
0.651506
0.660783
0.669426
0.677472
0.684955
0.691911
0.698369
0.704357
0.709799
0.714793
0.719592
0.724045
0.728156
0.732053
0.735799
0.739368
0.742762
0.745985
0.749032
0.751901
0.754587
0.757083
0.75938
0.761463
0.763332
0.76497
0.766363
0.767501
0.768382
0.769017
0.769439
0.769698
0.769845
0.769924
0.769963
0.769983
0.769992
0.769996
0.769998
0.769999
0.77
0.77
0.77
0.77
0.77
0.77
0.77
0.77
0.77
0.77
2.35355e-06
1.02857e-05
2.3625e-05
4.59744e-05
8.32224e-05
0.000144877
0.000246075
0.00041052
0.000674629
0.00109312
0.0017461
0.00274724
0.00425194
0.00646313
0.00963138
0.0140452
0.0200086
0.0278083
0.037675
0.0497521
0.0640786
0.0805908
0.0991379
0.119505
0.141436
0.164653
0.188872
0.213814
0.239215
0.264828
0.290428
0.315817
0.340821
0.365295
0.389117
0.41219
0.434436
0.455797
0.476234
0.495721
0.514249
0.531817
0.548435
0.56412
0.578895
0.592788
0.605831
0.618058
0.629504
0.640206
0.650201
0.659526
0.668219
0.676315
0.683849
0.690856
0.697367
0.703416
0.70891
0.713961
0.718806
0.723306
0.727492
0.731367
0.735133
0.738724
0.742144
0.745394
0.748471
0.751372
0.754093
0.756625
0.758961
0.761088
0.763001
0.764685
0.766127
0.767315
0.768244
0.768923
0.76938
0.769663
0.769826
0.769914
0.769959
0.769981
0.769991
0.769996
0.769998
0.769999
0.77
0.77
0.77
0.77
0.77
0.77
0.77
0.77
0.77
0.77
2.32596e-06
1.01652e-05
2.33483e-05
4.54357e-05
8.22458e-05
0.000143173
0.000243171
0.000405659
0.000666619
0.00108013
0.00172536
0.00271475
0.00420205
0.00638828
0.00952193
0.0138896
0.0197942
0.027522
0.0373048
0.0492881
0.0635136
0.0799204
0.0983604
0.118621
0.140447
0.163563
0.187685
0.212537
0.237853
0.263388
0.288917
0.314243
0.339192
0.363618
0.387401
0.410442
0.432664
0.454009
0.474437
0.493923
0.512456
0.530035
0.546671
0.562379
0.577183
0.59111
0.60419
0.616458
0.627948
0.638697
0.648742
0.658118
0.666863
0.675012
0.682599
0.689658
0.696221
0.702319
0.707876
0.712987
0.717892
0.722446
0.726685
0.730571
0.734365
0.737986
0.741437
0.744719
0.74783
0.750768
0.753527
0.756101
0.758481
0.760657
0.76262
0.764356
0.765852
0.767096
0.76808
0.768808
0.769307
0.769621
0.769803
0.769902
0.769953
0.769978
0.76999
0.769995
0.769998
0.769999
0.77
0.77
0.77
0.77
0.77
0.77
0.77
0.77
0.77
0.77
2.29621e-06
1.00353e-05
2.30502e-05
4.48556e-05
8.11948e-05
0.00014134
0.000240052
0.000400446
0.000658043
0.00106624
0.00170324
0.00268014
0.00414902
0.00630885
0.00940598
0.013725
0.0195676
0.0272198
0.0369146
0.0487994
0.0629188
0.0792149
0.0975423
0.11769
0.139406
0.162415
0.186436
0.21119
0.236415
0.261866
0.287318
0.312574
0.337461
0.361834
0.38557
0.408574
0.430767
0.45209
0.472505
0.491985
0.510519
0.528108
0.544759
0.560489
0.57532
0.589279
0.602397
0.614707
0.626242
0.63704
0.647136
0.656566
0.665366
0.673571
0.681216
0.688333
0.694953
0.701109
0.706792
0.71196
0.716912
0.721509
0.725784
0.729682
0.733504
0.737158
0.740642
0.743959
0.747108
0.750085
0.752887
0.755507
0.757936
0.760165
0.76218
0.763974
0.765532
0.766839
0.767884
0.768671
0.769218
0.769568
0.769774
0.769887
0.769945
0.769974
0.769988
0.769995
0.769998
0.769999
0.77
0.77
0.77
0.77
0.77
0.77
0.77
0.77
0.77
0.77
2.26426e-06
9.89583e-06
2.27302e-05
4.42333e-05
8.00683e-05
0.000139378
0.000236717
0.000394881
0.000648906
0.00105147
0.00167978
0.00264354
0.00409307
0.00622528
0.00928431
0.0135528
0.0193311
0.0269052
0.0365089
0.0482923
0.0623026
0.078485
0.0966967
0.116729
0.138332
0.16123
0.185144
0.209798
0.234927
0.260288
0.285657
0.310838
0.335657
0.35997
0.383654
0.406614
0.428771
0.450068
0.470463
0.489933
0.508464
0.526057
0.54272
0.558469
0.573325
0.587315
0.600469
0.61282
0.624401
0.635249
0.645397
0.654883
0.663741
0.672005
0.67971
0.686888
0.693569
0.699782
0.705554
0.710759
0.715748
0.720395
0.724721
0.728705