/*--------------------------------*- C++ -*----------------------------------*\
  =========                 |
  \\      /  F ield         | OpenFOAM: The Open Source CFD Toolbox
   \\    /   O peration     | Website:  https://openfoam.org
    \\  /    A nd           | Version:  8
     \\/     M anipulation  |
\*---------------------------------------------------------------------------*/
FoamFile
{
    version     2.0;
    format      ascii;
    class       volScalarField;
    location    "220/fluid";
    object      O2;
}
// * * * * * * * * * * * * * * * * * * * * * * * * * * * * * * * * * * * * * //

dimensions      [0 0 0 0 0 0 0];

internalField   nonuniform List<scalar> 
4000
(
3.40289e-10
1.48532e-09
3.40283e-09
6.59738e-09
1.18878e-08
2.05882e-08
3.47795e-08
5.77065e-08
9.43367e-08
1.52112e-07
2.41895e-07
3.79054e-07
5.84499e-07
8.85348e-07
1.31466e-06
1.90969e-06
2.7082e-06
3.74302e-06
5.03609e-06
6.59353e-06
8.40364e-06
1.04381e-05
1.2656e-05
1.50082e-05
1.74426e-05
1.99076e-05
2.23545e-05
2.47397e-05
2.70253e-05
2.91799e-05
3.11789e-05
3.30059e-05
3.46552e-05
3.61362e-05
3.74822e-05
3.87617e-05
4.00918e-05
4.1652e-05
4.36957e-05
4.65609e-05
5.06776e-05
5.65796e-05
6.49242e-05
7.65215e-05
9.23759e-05
0.000113745
0.000142218
0.000179821
0.000229152
0.000293556
0.000377348
0.0004861
0.000627013
0.000809393
0.00104527
0.00135018
0.00174421
0.00225327
0.00291073
0.0037595
0.00484511
0.00622526
0.00803309
0.0103517
0.0133145
0.0170382
0.0335362
0.0502698
0.0669928
0.0835092
0.0996587
0.115307
0.13034
0.144656
0.158161
0.170765
0.182309
0.19283
0.202134
0.210103
0.216623
0.221624
0.225149
0.227401
0.228702
0.229384
0.229718
0.229874
0.229945
0.229976
0.22999
0.229996
0.229998
0.229999
0.23
0.23
0.23
0.23
0.23
0.23
3.50435e-10
1.53093e-09
3.51278e-09
6.82468e-09
1.23267e-08
2.14019e-08
3.62423e-08
6.02663e-08
9.87013e-08
1.59361e-07
2.53609e-07
3.97446e-07
6.12524e-07
9.26737e-07
1.37387e-06
1.99171e-06
2.81829e-06
3.88639e-06
5.21765e-06
6.81772e-06
8.6744e-06
1.07588e-05
1.30293e-05
1.5436e-05
1.79259e-05
2.0446e-05
2.29467e-05
2.5383e-05
2.77159e-05
2.99129e-05
3.1949e-05
3.38074e-05
3.54827e-05
3.69857e-05
3.83525e-05
3.96563e-05
4.1022e-05
4.26384e-05
4.47701e-05
4.77681e-05
5.20757e-05
5.82397e-05
6.69309e-05
7.89737e-05
9.53895e-05
0.000117457
0.000146796
0.00018547
0.00023613
0.000302195
0.000388077
0.00049949
0.000643833
0.000830708
0.00107259
0.00138575
0.0017914
0.00231736
0.00300024
0.00388844
0.00502784
0.0065132
0.00849538
0.0110916
0.0145049
0.0190844
0.0358108
0.0527014
0.0695379
0.0861387
0.10235
0.118041
0.133097
0.147414
0.160894
0.173439
0.184902
0.195267
0.204349
0.212023
0.218177
0.222771
0.225906
0.227842
0.228931
0.229493
0.229766
0.229895
0.229953
0.22998
0.229991
0.229996
0.229998
0.229999
0.23
0.23
0.23
0.23
0.23
0.23
3.65502e-10
1.59755e-09
3.66897e-09
7.13623e-09
1.2905e-08
2.2431e-08
3.80196e-08
6.32602e-08
1.0363e-07
1.67296e-07
2.66102e-07
4.1667e-07
6.41419e-07
9.69142e-07
1.43461e-06
2.07659e-06
2.93401e-06
4.04031e-06
5.41753e-06
7.07142e-06
8.98956e-06
1.11426e-05
1.3488e-05
1.5975e-05
1.8549e-05
2.11555e-05
2.37429e-05
2.62645e-05
2.86794e-05
3.09535e-05
3.30602e-05
3.4982e-05
3.67136e-05
3.82674e-05
3.96835e-05
4.10424e-05
4.24805e-05
4.42016e-05
4.64885e-05
4.97129e-05
5.43396e-05
6.09377e-05
7.02009e-05
8.29789e-05
0.000100323
0.000123551
0.000154329
0.00019479
0.000247668
0.00031649
0.000405812
0.000521526
0.000671266
0.000864935
0.00111541
0.00143945
0.00185902
0.00240296
0.00310943
0.00402939
0.00520555
0.00678233
0.00887418
0.0116798
0.0155049
0.0229547
0.0397699
0.0567457
0.0736463
0.0902811
0.106492
0.122145
0.137121
0.151312
0.164615
0.176917
0.18813
0.198127
0.20678
0.213974
0.219626
0.223747
0.226495
0.228163
0.22909
0.229567
0.2298
0.229909
0.22996
0.229982
0.229992
0.229997
0.229999
0.229999
0.23
0.23
0.23
0.23
0.23
0.23
3.81003e-10
1.66543e-09
3.8255e-09
7.44213e-09
1.34605e-08
2.33989e-08
3.96599e-08
6.59809e-08
1.0806e-07
1.74382e-07
2.77244e-07
4.33889e-07
6.67551e-07
1.00805e-06
1.49134e-06
2.15752e-06
3.04679e-06
4.19376e-06
5.62133e-06
7.33575e-06
9.32463e-06
1.15582e-05
1.3993e-05
1.65769e-05
1.92536e-05
2.19667e-05
2.46625e-05
2.72919e-05
2.98119e-05
3.21864e-05
3.4387e-05
3.63952e-05
3.82054e-05
3.9832e-05
4.13197e-05
4.27586e-05
4.42992e-05
4.61643e-05
4.86599e-05
5.21837e-05
5.72279e-05
6.439e-05
7.43939e-05
8.81237e-05
0.000106673
0.000131414
0.000164086
0.000206913
0.000262755
0.000335299
0.000429304
0.000550923
0.000708109
0.000911147
0.00117334
0.00151189
0.00194905
0.00251352
0.00324235
0.0041832
0.00536633
0.00692273
0.00892604
0.0114953
0.014769
0.0276432
0.0445722
0.0616223
0.0785522
0.0951682
0.111311
0.126845
0.141652
0.155624
0.168657
0.180596
0.191439
0.201006
0.209184
0.215871
0.221018
0.224681
0.227063
0.228476
0.22925
0.229644
0.229835
0.229925
0.229967
0.229985
0.229994
0.229997
0.229999
0.23
0.23
0.23
0.23
0.23
0.23
0.23
3.96227e-10
1.73197e-09
3.97845e-09
7.74013e-09
1.40006e-08
2.43398e-08
4.12581e-08
6.86441e-08
1.12425e-07
1.81427e-07
2.88433e-07
4.51362e-07
6.94346e-07
1.04833e-06
1.55063e-06
2.24281e-06
3.16658e-06
4.35791e-06
5.84072e-06
7.6219e-06
9.68918e-06
1.20124e-05
1.45473e-05
1.72403e-05
2.00335e-05
2.28684e-05
2.5689e-05
2.84438e-05
3.10872e-05
3.35809e-05
3.58944e-05
3.80077e-05
3.99152e-05
4.16333e-05
4.32128e-05
4.47547e-05
4.64266e-05
4.84737e-05
5.12295e-05
5.5122e-05
6.06747e-05
6.85183e-05
7.94126e-05
9.42837e-05
0.000114279
0.00014084
0.0001758
0.000221508
0.00028099
0.000358158
0.000458071
0.000587289
0.000754316
0.000970193
0.00124926
0.00161016
0.00207712
0.00268157
0.00346426
0.00447401
0.00575765
0.00745741
0.00963296
0.012395
0.0157867
0.0325495
0.0496532
0.0667938
0.0837378
0.100299
0.116324
0.131683
0.146261
0.159951
0.172653
0.184214
0.194633
0.203732
0.21141
0.217584
0.222238
0.225473
0.22753
0.228729
0.229376
0.229704
0.229863
0.229938
0.229972
0.229988
0.229995
0.229998
0.229999
0.23
0.23
0.23
0.23
0.23
0.23
0.23
4.10895e-10
1.79603e-09
4.12548e-09
8.02613e-09
1.45183e-08
2.52413e-08
4.279e-08
7.12008e-08
1.16628e-07
1.88236e-07
2.99306e-07
4.68454e-07
7.20767e-07
1.08843e-06
1.61025e-06
2.32954e-06
3.28976e-06
4.52856e-06
6.07118e-06
7.92532e-06
1.00789e-05
1.25015e-05
1.51478e-05
1.79628e-05
2.08868e-05
2.3859e-05
2.68209e-05
2.97185e-05
3.25034e-05
3.51347e-05
3.75797e-05
3.98168e-05
4.18402e-05
4.36689e-05
4.53608e-05
4.70302e-05
4.88645e-05
5.11339e-05
5.42041e-05
5.85364e-05
6.46893e-05
7.33297e-05
8.52582e-05
0.00010145
0.000123114
0.000151776
0.000189378
0.000238416
0.000302115
0.000384651
0.000491442
0.00062954
0.000808138
0.00103926
0.00133867
0.00172717
0.00223234
0.00289097
0.0037527
0.00486638
0.0063233
0.00832317
0.0110164
0.0147035
0.0201474
0.037383
0.0547334
0.0719731
0.0889109
0.105384
0.121254
0.1364
0.150711
0.164085
0.176422
0.187629
0.197602
0.20623
0.213417
0.219101
0.223298
0.22615
0.227925
0.228941
0.229483
0.229755
0.229886
0.229948
0.229977
0.22999
0.229996
0.229998
0.229999
0.23
0.23
0.23
0.23
0.23
0.23
0.23
4.2515e-10
1.8583e-09
4.26849e-09
8.30462e-09
1.50233e-08
2.61229e-08
4.42933e-08
7.37207e-08
1.20791e-07
1.95022e-07
3.1021e-07
4.85714e-07
7.47633e-07
1.12948e-06
1.67172e-06
2.41953e-06
3.41839e-06
4.70784e-06
6.31466e-06
8.2476e-06
1.0495e-05
1.30261e-05
1.57948e-05
1.87447e-05
2.1814e-05
2.49397e-05
2.80607e-05
3.11199e-05
3.40662e-05
3.68556e-05
3.94528e-05
4.18346e-05
4.39949e-05
4.59562e-05
4.77844e-05
4.96099e-05
5.1642e-05
5.41794e-05
5.76234e-05
6.24717e-05
6.93194e-05
7.88726e-05
9.19757e-05
0.000109658
0.000133198
0.000164211
0.000204759
0.000257495
0.000325845
0.000414245
0.000528446
0.000675916
0.000866369
0.00111246
0.00143073
0.00184284
0.00237729
0.00307182
0.00397675
0.00512766
0.00663059
0.00865704
0.0113369
0.0149152
0.0253285
0.0425579
0.0598987
0.0770933
0.0939384
0.110269
0.125947
0.140856
0.154888
0.167945
0.179895
0.190721
0.200274
0.208454
0.21518
0.220409
0.224193
0.22671
0.228245
0.229111
0.229568
0.229795
0.229905
0.229957
0.229981
0.229992
0.229996
0.229998
0.229999
0.23
0.23
0.23
0.23
0.23
0.23
0.23
4.39039e-10
1.91898e-09
4.40793e-09
8.5764e-09
1.55168e-08
2.69862e-08
4.57691e-08
7.62023e-08
1.24907e-07
2.01759e-07
3.2109e-07
5.03029e-07
7.74746e-07
1.17117e-06
1.73455e-06
2.51214e-06
3.55164e-06
4.89474e-06
6.57007e-06
8.58766e-06
1.09365e-05
1.35857e-05
1.64883e-05
1.95867e-05
2.2817e-05
2.61138e-05
2.94132e-05
3.26551e-05
3.57853e-05
3.87564e-05
4.15303e-05
4.40816e-05
4.64045e-05
4.85247e-05
5.05187e-05
5.25342e-05
5.48062e-05
5.7666e-05
6.15518e-05
6.69993e-05
7.46425e-05
8.52282e-05
9.9648e-05
0.00011899
0.000144611
0.000178228
0.000222038
0.000278872
0.000352387
0.000447321
0.000569807
0.000727801
0.000931613
0.0011946
0.00153406
0.00197235
0.00253824
0.00326863
0.00421036
0.00538637
0.00694285
0.00893888
0.0114776
0.0146369
0.0301626
0.0474385
0.0647743
0.0819106
0.0986454
0.114817
0.130293
0.144957
0.158709
0.171453
0.183044
0.193498
0.20265
0.21041
0.216707
0.221523
0.22494
0.227169
0.228505
0.229247
0.229635
0.229828
0.22992
0.229964
0.229984
0.229993
0.229997
0.229999
0.229999
0.23
0.23
0.23
0.23
0.23
0.23
0.23
4.52589e-10
1.97821e-09
4.54412e-09
8.8422e-09
1.60003e-08
2.7834e-08
4.72224e-08
7.86544e-08
1.2899e-07
2.08471e-07
3.31981e-07
5.20448e-07
8.02164e-07
1.21356e-06
1.79877e-06
2.60731e-06
3.68931e-06
5.08887e-06
6.83676e-06
8.94458e-06
1.14022e-05
1.41789e-05
1.72273e-05
2.04882e-05
2.38961e-05
2.73832e-05
3.08827e-05
3.43314e-05
3.76714e-05
4.0852e-05
4.38319e-05
4.65834e-05
4.91005e-05
5.14138e-05
5.36109e-05
5.58601e-05
5.84241e-05
6.167e-05
6.60748e-05
7.22127e-05
8.07565e-05
9.24942e-05
0.000108366
0.000129522
0.000157401
0.000193827
0.000241146
0.000302385
0.000381467
0.000483489
0.000615084
0.000784896
0.00100421
0.00128777
0.00165492
0.00213099
0.00274934
0.0035539
0.00459594
0.00592782
0.00771592
0.010047
0.0130857
0.0169635
0.0342984
0.0517996
0.06921
0.0863193
0.102954
0.11897
0.134244
0.148668
0.162146
0.174584
0.185878
0.19597
0.204743
0.212112
0.218017
0.222461
0.225559
0.227542
0.228713
0.229356
0.229689
0.229853
0.229932
0.229969
0.229986
0.229994
0.229997
0.229999
0.23
0.23
0.23
0.23
0.23
0.23
0.23
0.23
4.65761e-10
2.0358e-09
4.67666e-09
9.10116e-09
1.64722e-08
2.86631e-08
4.86475e-08
8.10663e-08
1.3302e-07
2.15122e-07
3.42819e-07
5.37861e-07
8.29704e-07
1.25635e-06
1.86393e-06
2.70437e-06
3.83045e-06
5.28896e-06
7.11308e-06
9.31635e-06
1.18899e-05
1.48035e-05
1.80093e-05
2.14474e-05
2.50505e-05
2.87485e-05
3.24719e-05
3.61542e-05
3.9734e-05
4.31569e-05
4.6378e-05
4.93673e-05
5.21189e-05
5.46687e-05
5.71179e-05
5.96572e-05
6.25791e-05
6.62895e-05
7.13048e-05
7.82376e-05
8.77981e-05
0.000100814
0.000118273
0.000141384
0.000171662
0.000211037
0.000261985
0.000327709
0.000412366
0.000521366
0.000661768
0.000842808
0.00107661
0.00137917
0.00177162
0.00228213
0.00294844
0.0038215
0.00494949
0.00642807
0.00846177
0.0111986
0.0149342
0.020878
0.0383515
0.0559123
0.0733121
0.0903511
0.106866
0.122719
0.137794
0.151989
0.165208
0.177363
0.188369
0.198133
0.206561
0.213575
0.219127
0.223245
0.226067
0.227845
0.228879
0.229442
0.229731
0.229873
0.229941
0.229973
0.229988
0.229995
0.229998
0.229999
0.23
0.23
0.23
0.23
0.23
0.23
0.23
0.23
4.78477e-10
2.09141e-09
4.80474e-09
9.35174e-09
1.69295e-08
2.94684e-08
5.00354e-08
8.34224e-08
1.3697e-07
2.21667e-07
3.53526e-07
5.55138e-07
8.57149e-07
1.29918e-06
1.92948e-06
2.80248e-06
3.97383e-06
5.49326e-06
7.39669e-06
9.69996e-06
1.23958e-05
1.5455e-05
1.88297e-05
2.24595e-05
2.62758e-05
3.02064e-05
3.41794e-05
3.81251e-05
4.19786e-05
4.56816e-05
4.91859e-05
5.24587e-05
5.5495e-05
5.83369e-05
6.11017e-05
6.40046e-05
6.73691e-05
7.16431e-05
7.73824e-05
8.52373e-05
9.59539e-05
0.000110399
0.000129606
0.000154841
0.000187692
0.000230174
0.000284875
0.000355128
0.000445247
0.000560824
0.000709122
0.000899606
0.00114463
0.00146038
0.00186812
0.00239591
0.00308091
0.00397259
0.00511161
0.00658898
0.00859175
0.0112318
0.0147259
0.0247351
0.0422037
0.0597288
0.0770593
0.0939955
0.110375
0.126065
0.14095
0.154931
0.167916
0.179798
0.190533
0.200004
0.208123
0.214821
0.220062
0.223895
0.226482
0.228089
0.229013
0.229511
0.229765
0.229889
0.229949
0.229977
0.22999
0.229995
0.229998
0.229999
0.23
0.23
0.23
0.23
0.23
0.23
0.23
0.23
4.90622e-10
2.14454e-09
4.92721e-09
9.59161e-09
1.73681e-08
3.02423e-08
5.13727e-08
8.56993e-08
1.408e-07
2.28034e-07
3.63984e-07
5.72081e-07
8.84179e-07
1.34156e-06
1.99462e-06
2.90045e-06
4.11771e-06
5.69931e-06
7.68424e-06
1.0091e-05
1.29145e-05
1.61267e-05
1.96808e-05
2.35159e-05
2.75629e-05
3.1748e-05
3.59972e-05
4.0238e-05
4.44024e-05
4.84285e-05
5.22644e-05
5.58753e-05
5.92573e-05
6.24608e-05
6.56214e-05
6.89811e-05
7.28965e-05
7.78585e-05
8.44625e-05
9.33962e-05
0.000105443
0.000121512
0.000142687
0.000170295
0.000206001
0.000251913
0.000310728
0.000385906
0.000481899
0.000604445
0.000760944
0.000960955
0.00121684
0.00154461
0.00196502
0.00250506
0.00319954
0.00409319
0.00522296
0.00666651
0.00859607
0.0110999
0.0143436
0.0281901
0.045634
0.0631152
0.0803753
0.0972128
0.113467
0.129006
0.143718
0.157507
0.17028
0.181919
0.192411
0.201619
0.209462
0.215878
0.220845
0.224432
0.22682
0.228285
0.229119
0.229565
0.229791
0.229902
0.229955
0.229979
0.229991
0.229996
0.229998
0.229999
0.23
0.23
0.23
0.23
0.23
0.23
0.23
0.23
5.02054e-10
2.19458e-09
5.04262e-09
9.81796e-09
1.77827e-08
3.09754e-08
5.26426e-08
8.78677e-08
1.44459e-07
2.34139e-07
3.74047e-07
5.88449e-07
9.10399e-07
1.38284e-06
2.05836e-06
2.99675e-06
4.25983e-06
5.90386e-06
7.97121e-06
1.04834e-05
1.3438e-05
1.68089e-05
2.05505e-05
2.46026e-05
2.88959e-05
3.33561e-05
3.79076e-05
4.24759e-05
4.69903e-05
5.13857e-05
5.56075e-05
5.96191e-05
6.34189e-05
6.70675e-05
7.07217e-05
7.4652e-05
7.92505e-05
8.50488e-05
9.26827e-05
0.000102878
0.000116461
0.000134387
0.000157803
0.000188112
0.000227075
0.00027692
0.00034049
0.000421422
0.000524385
0.000655368
0.000822071
0.00103439
0.00130505
0.00165044
0.00209163
0.00265543
0.00337565
0.0042996
0.0054573
0.00693073
0.00887638
0.0113602
0.0144857
0.0309523
0.048508
0.066015
0.0832428
0.100006
0.116153
0.131559
0.146118
0.159734
0.172323
0.18377
0.19405
0.203012
0.210603
0.216768
0.221497
0.224873
0.227095
0.228444
0.229204
0.229609
0.229812
0.229912
0.229959
0.229982
0.229992
0.229996
0.229998
0.229999
0.23
0.23
0.23
0.23
0.23
0.23
0.23
0.23
5.12614e-10
2.24081e-09
5.14935e-09
1.00275e-08
1.81671e-08
3.16568e-08
5.38258e-08
8.9894e-08
1.47889e-07
2.39881e-07
3.83546e-07
6.03955e-07
9.35336e-07
1.42226e-06
2.11949e-06
3.08952e-06
4.39737e-06
6.10283e-06
8.25181e-06
1.08693e-05
1.39558e-05
1.74878e-05
2.14217e-05
2.56988e-05
3.02505e-05
3.50027e-05
3.98795e-05
4.48053e-05
4.97078e-05
5.452e-05
5.9185e-05
6.36661e-05
6.79654e-05
7.21566e-05
7.64196e-05
8.1053e-05
8.64828e-05
9.32799e-05
0.000102119
0.000113767
0.000129094
0.000149116
0.000175051
0.000208398
0.000251036
0.000305345
0.000374361
0.000461966
0.000573139
0.000714271
0.000893579
0.00112164
0.00141207
0.00178243
0.00225541
0.00285988
0.00363592
0.00463086
0.00587013
0.00751723
0.00964412
0.012396
0.0158986
0.0333571
0.0509897
0.0685152
0.0857143
0.102411
0.118462
0.133749
0.148167
0.161624
0.174036
0.185305
0.195365
0.204157
0.211552
0.217507
0.222034
0.225234
0.227318
0.228571
0.229272
0.229643
0.229829
0.22992
0.229963
0.229983
0.229993
0.229997
0.229999
0.229999
0.23
0.23
0.23
0.23
0.23
0.23
0.23
0.23
5.22128e-10
2.28248e-09
5.24562e-09
1.02168e-08
1.8515e-08
3.22746e-08
5.49013e-08
9.17407e-08
1.51024e-07
2.45147e-07
3.92286e-07
6.18274e-07
9.58448e-07
1.45894e-06
2.17659e-06
3.17655e-06
4.527e-06
6.29124e-06
8.51889e-06
1.12386e-05
1.44542e-05
1.81455e-05
2.22714e-05
2.67755e-05
3.15911e-05
3.66456e-05
4.18638e-05
4.71708e-05
5.24942e-05
5.77664e-05
6.29306e-05
6.79512e-05
7.2837e-05
7.76774e-05
8.26768e-05
8.81561e-05
9.45713e-05
0.000102529
0.000112739
0.000126008
0.000143259
0.000165569
0.000194241
0.000230879
0.000277497
0.000336649
0.000411591
0.000506491
0.000626704
0.000779118
0.000972615
0.00121867
0.00153216
0.0019324
0.00244452
0.00310104
0.0039453
0.00502583
0.00638776
0.00821222
0.0105825
0.0136758
0.0176524
0.0353351
0.0530758
0.0706339
0.0878137
0.104454
0.120422
0.135604
0.1499
0.163219
0.175473
0.186574
0.196482
0.20508
0.212318
0.218111
0.222471
0.225525
0.227496
0.228672
0.229326
0.22967
0.229842
0.229926
0.229966
0.229985
0.229993
0.229997
0.229999
0.229999
0.23
0.23
0.23
0.23
0.23
0.23
0.23
0.23
5.30418e-10
2.3188e-09
5.32961e-09
1.03822e-08
1.88194e-08
3.28163e-08
5.58467e-08
9.33684e-08
1.53796e-07
2.49815e-07
4.0006e-07
6.31052e-07
9.79144e-07
1.4919e-06
2.2281e-06
3.25537e-06
4.64488e-06
6.46335e-06
8.76405e-06
1.15793e-05
1.49168e-05
1.87596e-05
2.307e-05
2.77947e-05
3.287e-05
3.82259e-05
4.37898e-05
4.94892e-05
5.52536e-05
6.10175e-05
6.67265e-05
7.23495e-05
7.79054e-05
8.35028e-05
8.93686e-05
9.58342e-05
0.000103378
0.000112633
0.000124344
0.000139353
0.000158635
0.000183333
0.000214829
0.000254833
0.000305488
0.000369506
0.000450345
0.000552426
0.000681426
0.000844647
0.00105151
0.00131421
0.00164854
0.0020751
0.00262075
0.00332116
0.00422241
0.00536899
0.00682684
0.00878448
0.0113349
0.0146748
0.0193594
0.037112
0.0548819
0.072434
0.0895795
0.106163
0.122054
0.137142
0.151329
0.164528
0.176658
0.18766
0.19743
0.205882
0.212945
0.218591
0.222822
0.225757
0.227637
0.228751
0.229368
0.229692
0.229853
0.229931
0.229968
0.229986
0.229994
0.229997
0.229999
0.229999
0.23
0.23
0.23
0.23
0.23
0.23
0.23
0.23
5.3731e-10
2.349e-09
5.39952e-09
1.052e-08
1.90735e-08
3.32695e-08
5.66394e-08
9.47369e-08
1.56132e-07
2.53763e-07
4.06653e-07
6.41922e-07
9.96804e-07
1.52012e-06
2.27234e-06
3.3233e-06
4.74685e-06
6.61283e-06
8.97789e-06
1.1878e-05
1.53243e-05
1.93036e-05
2.37819e-05
2.87096e-05
3.40266e-05
3.96671e-05
4.55625e-05
5.16445e-05
5.78473e-05
6.41106e-05
7.0386e-05
7.66517e-05
8.29418e-05
8.93883e-05
9.62342e-05
0.000103802
0.000112581
0.000123226
0.000136504
0.000153296
0.000174623
0.000201691
0.000235957
0.000279222
0.000333737
0.000402342
0.000488648
0.000597257
0.000734059
0.000906608
0.00112462
0.00140064
0.00175088
0.00219633
0.00276426
0.00349099
0.00442314
0.00559955
0.00709708
0.00910156
0.0117048
0.015104
0.0208128
0.0385947
0.0563662
0.0738965
0.091
0.107524
0.123343
0.13835
0.152452
0.16557
0.177623
0.188522
0.198182
0.206519
0.213463
0.218974
0.223091
0.225936
0.227746
0.228813
0.229401
0.229708
0.229861
0.229935
0.22997
0.229986
0.229994
0.229997
0.229999
0.229999
0.23
0.23
0.23
0.23
0.23
0.23
0.23
0.23
5.42639e-10
2.37237e-09
5.45364e-09
1.06268e-08
1.92709e-08
3.36223e-08
5.72579e-08
9.58073e-08
1.57965e-07
2.56867e-07
4.11852e-07
6.50518e-07
1.01081e-06
1.54255e-06
2.30762e-06
3.37763e-06
4.82866e-06
6.73313e-06
9.15059e-06
1.21201e-05
1.5656e-05
1.97486e-05
2.43675e-05
2.94667e-05
3.49905e-05
4.08774e-05
4.70641e-05
5.34882e-05
6.00906e-05
6.68192e-05
7.36361e-05
8.05343e-05
8.757e-05
9.49054e-05
0.000102791
0.000111518
0.00012157
0.00013361
0.000148426
0.000166932
0.000190192
0.000219468
0.000256282
0.000302509
0.000360481
0.00043313
0.000524163
0.000638282
0.000781475
0.000961379
0.00118776
0.00147314
0.00183359
0.0022898
0.00286869
0.0036053
0.00454445
0.00572131
0.0072103
0.00918975
0.0117404
0.0150425
0.0218923
0.0397122
0.0574894
0.0750016
0.0920709
0.108551
0.124323
0.139279
0.153328
0.16638
0.178354
0.189172
0.198748
0.206996
0.21385
0.219272
0.223297
0.226069
0.227827
0.228858
0.229425
0.22972
0.229866
0.229938
0.229971
0.229987
0.229994
0.229997
0.229999
0.23
0.23
0.23
0.23
0.23
0.23
0.23
0.23
0.23
5.46259e-10
2.38825e-09
5.49047e-09
1.06996e-08
1.94055e-08
3.38633e-08
5.76813e-08
9.65416e-08
1.59225e-07
2.59006e-07
4.15443e-07
6.5647e-07
1.02053e-06
1.55816e-06
2.33222e-06
3.4156e-06
4.88598e-06
6.81763e-06
9.27225e-06
1.22912e-05
1.58913e-05
2.00655e-05
2.47862e-05
3.00108e-05
3.5687e-05
4.17577e-05
4.81645e-05
5.48506e-05
6.17644e-05
6.88625e-05
7.61191e-05
8.35435e-05
9.12162e-05
9.93241e-05
0.00010815
0.000118025
0.000129284
0.000142596
0.00015877
0.000178754
0.000203653
0.000234777
0.000273703
0.000322361
0.000383145
0.000459049
0.000553835
0.000672257
0.000820334
0.0010057
0.00123807
0.00152982
0.00189675
0.00235911
0.00294282
0.00368099
0.00461648
0.00578295
0.00724611
0.00917742
0.0116469
0.0148192
0.0226074
0.0404639
0.0582502
0.0757552
0.0928072
0.109263
0.125001
0.139918
0.15392
0.166922
0.178844
0.189608
0.199127
0.207315
0.214108
0.21947
0.223439
0.22616
0.227881
0.228888
0.229441
0.229728
0.22987
0.229939
0.229972
0.229987
0.229994
0.229998
0.229999
0.23
0.23
0.23
0.23
0.23
0.23
0.23
0.23
0.23
5.48053e-10
2.39612e-09
5.50866e-09
1.07355e-08
1.94717e-08
3.39816e-08
5.7889e-08
9.69014e-08
1.59842e-07
2.60054e-07
4.17202e-07
6.59386e-07
1.02529e-06
1.56582e-06
2.3443e-06
3.43429e-06
4.91424e-06
6.8594e-06
9.33255e-06
1.23762e-05
1.60087e-05
2.02243e-05
2.49971e-05
3.02863e-05
3.60419e-05
4.2209e-05
4.87324e-05
5.55592e-05
6.26421e-05
6.9944e-05
7.74468e-05
8.51711e-05
9.32112e-05
0.000101775
0.00011119
0.000121836
0.000134065
0.00014829
0.000165381
0.000186329
0.00021228
0.000244579
0.000284843
0.00033504
0.000397603
0.000475565
0.000572728
0.000693876
0.000845048
0.00103388
0.00127006
0.00156585
0.00193684
0.00240289
0.00298927
0.00372829
0.00466132
0.00582143
0.00726837
0.00916975
0.0115894
0.014683
0.0229711
0.0408543
0.0586485
0.0761494
0.0931893
0.109628
0.125345
0.140239
0.154216
0.167193
0.179088
0.189824
0.199313
0.207471
0.214233
0.219565
0.223507
0.226205
0.227908
0.228903
0.229449
0.229732
0.229872
0.22994
0.229973
0.229988
0.229994
0.229998
0.229999
0.23
0.23
0.23
0.23
0.23
0.23
0.23
0.23
0.23
5.48015e-10
2.39594e-09
5.50823e-09
1.07345e-08
1.94699e-08
3.3978e-08
5.78821e-08
9.68886e-08
1.59819e-07
2.60012e-07
4.17129e-07
6.59261e-07
1.02509e-06
1.56549e-06
2.34378e-06
3.4335e-06
4.91309e-06
6.8578e-06
9.3304e-06
1.23735e-05
1.60053e-05
2.02202e-05
2.49924e-05
3.02812e-05
3.60365e-05
4.22037e-05
4.87274e-05
5.55549e-05
6.2639e-05
6.99425e-05
7.74474e-05
8.51744e-05
9.32175e-05
0.000101785
0.000111204
0.000121855
0.00013409
0.000148323
0.000165423
0.000186383
0.000212348
0.000244665
0.000284951
0.000335175
0.000397772
0.000475776
0.000572988
0.000694198
0.000845444
0.00103437
0.00127064
0.00156654
0.00193766
0.00240384
0.00299034
0.00372945
0.00466253
0.00582261
0.00726929
0.00917013
0.011589
0.014682
0.0229741
0.0408566
0.0586504
0.0761512
0.0931911
0.109629
0.125347
0.14024
0.154218
0.167194
0.179089
0.189825
0.199314
0.207472
0.214234
0.219566
0.223507
0.226205
0.227908
0.228903
0.229449
0.229732
0.229872
0.22994
0.229973
0.229988
0.229994
0.229998
0.229999
0.23
0.23
0.23
0.23
0.23
0.23
0.23
0.23
0.23
5.46153e-10
2.38777e-09
5.48928e-09
1.06971e-08
1.94004e-08
3.38534e-08
5.76624e-08
9.65064e-08
1.59161e-07
2.58892e-07
4.15242e-07
6.56127e-07
1.01996e-06
1.55724e-06
2.33077e-06
3.41342e-06
4.88279e-06
6.81314e-06
9.26618e-06
1.22833e-05
1.58814e-05
2.00537e-05
2.47726e-05
2.99958e-05
3.56711e-05
4.17417e-05
4.81491e-05
5.4837e-05
6.17536e-05
6.8856e-05
7.61181e-05
8.35496e-05
9.12309e-05
9.93488e-05
0.000108187
0.000118075
0.000129351
0.000142683
0.000158883
0.000178897
0.000203835
0.000235007
0.000273992
0.000322724
0.000383601
0.000459617
0.000554543
0.000673136
0.000821419
0.00100703
0.0012397
0.00153178
0.00189908
0.00236183
0.00294588
0.00368429
0.00461983
0.00578607
0.00724831
0.00917793
0.0116453
0.0148173
0.0226176
0.0404716
0.0582567
0.0757612
0.0928129
0.109269
0.125007
0.139923
0.153924
0.166927
0.178848
0.189612
0.19913
0.207318
0.21411
0.219471
0.22344
0.226161
0.227881
0.228889
0.229441
0.229728
0.22987
0.229939
0.229972
0.229987
0.229994
0.229998
0.229999
0.23
0.23
0.23
0.23
0.23
0.23
0.23
0.23
0.23
5.42477e-10
2.37164e-09
5.45185e-09
1.0623e-08
1.92632e-08
3.36072e-08
5.72291e-08
9.57535e-08
1.57867e-07
2.56691e-07
4.11543e-07
6.49991e-07
1.00993e-06
1.54114e-06
2.30539e-06
3.37425e-06
4.82372e-06
6.72616e-06
9.14115e-06
1.21078e-05
1.56406e-05
1.97301e-05
2.43461e-05
2.94429e-05
3.49651e-05
4.08514e-05
4.70388e-05
5.34651e-05
6.00713e-05
6.68056e-05
7.36302e-05
8.0538e-05
8.75855e-05
9.49347e-05
0.000102837
0.000111582
0.000121657
0.000133724
0.000148574
0.000167121
0.000190433
0.000219772
0.000256667
0.000302993
0.00036109
0.000433895
0.000525121
0.000639479
0.000782963
0.00096322
0.00119002
0.00147589
0.0018369
0.00229371
0.00287318
0.00360995
0.00454901
0.00572534
0.00721274
0.00918969
0.011738
0.0150421
0.0219103
0.0397259
0.0575009
0.0750123
0.0920811
0.108562
0.124333
0.13929
0.153337
0.166387
0.178361
0.189178
0.198753
0.207001
0.213853
0.219275
0.223299
0.22607
0.227827
0.228858
0.229425
0.22972
0.229867
0.229938
0.229971
0.229987
0.229994
0.229997
0.229999
0.23
0.23
0.23
0.23
0.23
0.23
0.23
0.23
0.23
5.37109e-10
2.3481e-09
5.39728e-09
1.05152e-08
1.90638e-08
3.32505e-08
5.6603e-08
9.46687e-08
1.56007e-07
2.53538e-07
4.06257e-07
6.41244e-07
9.95671e-07
1.51828e-06
2.26944e-06
3.31888e-06
4.74036e-06
6.60361e-06
8.96532e-06
1.18615e-05
1.53035e-05
1.92784e-05
2.37524e-05
2.86764e-05
3.39907e-05
3.96296e-05
4.5525e-05
5.16087e-05
5.78153e-05
6.40844e-05
7.03678e-05
7.66438e-05
8.29463e-05
8.94074e-05
9.62701e-05
0.000103857
0.000112659
0.00012333
0.000136641
0.000153473
0.00017485
0.00020198
0.000236324
0.000279686
0.000334322
0.00040308
0.000489576
0.000598422
0.000735513
0.000908413
0.00112684
0.00140333
0.00175407
0.00220002
0.00276836
0.00349559
0.00442782
0.00560374
0.00709976
0.00910208
0.0117042
0.0151094
0.0208367
0.0386129
0.0563818
0.0739109
0.0910136
0.107537
0.123354
0.138357
0.152461
0.165579
0.177631
0.188529
0.198189
0.206525
0.213467
0.218978
0.223094
0.225938
0.227747
0.228813
0.229401
0.229708
0.229861
0.229935
0.22997
0.229986
0.229994
0.229997
0.229999
0.229999
0.23
0.23
0.23
0.23
0.23
0.23
0.23
0.23
5.30197e-10
2.31779e-09
5.32712e-09
1.03768e-08
1.88085e-08
3.27948e-08
5.58053e-08
9.32903e-08
1.53652e-07
2.49555e-07
3.996e-07
6.30261e-07
9.77815e-07
1.48973e-06
2.22467e-06
3.25011e-06
4.63711e-06
6.45226e-06
8.74884e-06
1.15593e-05
1.48913e-05
1.87284e-05
2.30332e-05
2.77528e-05
3.28239e-05
3.81769e-05
4.37396e-05
4.94395e-05
5.52065e-05
6.09752e-05
6.66911e-05
7.23232e-05
7.78901e-05
8.35003e-05
8.93803e-05
9.58617e-05
0.000103423
0.0001127
0.000124434
0.000139473
0.000158791
0.000183532
0.000215084
0.000255156
0.000305896
0.000370021
0.000450992
0.00055324
0.000682447
0.000845922
0.00105309
0.00131616
0.00165092
0.00207794
0.00262407
0.0033249
0.00422637
0.0053728
0.00683004
0.00878701
0.0113384
0.0146863
0.0193832
0.0371308
0.0548989
0.0724505
0.0895956
0.106178
0.122068
0.137155
0.151341
0.164539
0.176668
0.187668
0.197437
0.205889
0.21295
0.218596
0.222825
0.225759
0.227639
0.228752
0.229369
0.229692
0.229853
0.229931
0.229968
0.229986
0.229994
0.229997
0.229999
0.229999
0.23
0.23
0.23
0.23
0.23
0.23
0.23
0.23
5.21903e-10
2.28145e-09
5.24307e-09
1.02113e-08
1.85037e-08
3.22521e-08
5.48576e-08
9.16576e-08
1.5087e-07
2.44866e-07
3.91787e-07
6.1741e-07
9.5699e-07
1.45655e-06
2.17278e-06
3.17069e-06
4.51828e-06
6.27873e-06
8.50162e-06
1.12156e-05
1.44249e-05
1.81093e-05
2.22283e-05
2.6726e-05
3.15359e-05
3.65859e-05
4.18012e-05
4.71071e-05
5.24313e-05
5.77065e-05
6.28754e-05
6.79027e-05
7.27968e-05
7.76466e-05
8.26561e-05
8.81459e-05
9.45718e-05
0.00010254
0.000112763
0.000126045
0.00014331
0.000165637
0.000194327
0.000230986
0.000277628
0.000336807
0.00041178
0.000506714
0.000626965
0.000779418
0.000972955
0.00121905
0.00153256
0.0019328
0.00244487
0.00310151
0.0039459
0.00502661
0.00638899
0.00821464
0.0105879
0.0136885
0.0176693
0.0353513
0.0530937
0.0706529
0.0878332
0.104474
0.120442
0.135623
0.149917
0.163235
0.175485
0.186581
0.196479
0.205084
0.212324
0.218117
0.222476
0.225528
0.227498
0.228673
0.229326
0.229671
0.229843
0.229926
0.229966
0.229985
0.229993
0.229997
0.229999
0.229999
0.23
0.23
0.23
0.23
0.23
0.23
0.23
0.23
5.12402e-10
2.23984e-09
5.14692e-09
1.00222e-08
1.81561e-08
3.16346e-08
5.37823e-08
8.98104e-08
1.47732e-07
2.39594e-07
3.83032e-07
6.03059e-07
9.33815e-07
1.41975e-06
2.11547e-06
3.08329e-06
4.38805e-06
6.08938e-06
8.23313e-06
1.08443e-05
1.39236e-05
1.74478e-05
2.13738e-05
2.56431e-05
3.01877e-05
3.49339e-05
3.9806e-05
4.4729e-05
4.96303e-05
5.44432e-05
5.91106e-05
6.35956e-05
6.79002e-05
7.20972e-05
7.63662e-05
8.10049e-05
8.6439e-05
9.3239e-05
0.000102079
0.000113726
0.000129049
0.000149064
0.000174987
0.000208316
0.000250929
0.000305205
0.000374176
0.000461723
0.000572823
0.000713867
0.000893076
0.00112103
0.00141138
0.00178173
0.00225482
0.00285945
0.00363599
0.00463201
0.00587339
0.00752384
0.00965514
0.0124116
0.0159113
0.0333702
0.0510084
0.0685365
0.0857365
0.102433
0.118484
0.13377
0.148187
0.161645
0.174056
0.185329
0.195396
0.204176
0.211565
0.217516
0.222041
0.225238
0.22732
0.228572
0.229273
0.229643
0.229829
0.22992
0.229963
0.229983
0.229993
0.229997
0.229999
0.229999
0.23
0.23
0.23
0.23
0.23
0.23
0.23
0.23
5.01868e-10
2.19372e-09
5.04045e-09
9.81314e-09
1.77725e-08
3.09547e-08
5.26014e-08
8.77878e-08
1.44307e-07
2.33859e-07
3.73542e-07
5.8756e-07
9.08878e-07
1.38031e-06
2.05428e-06
2.99039e-06
4.25026e-06
5.88997e-06
7.95179e-06
1.04573e-05
1.34041e-05
1.67665e-05
2.04993e-05
2.45426e-05
2.88277e-05
3.32805e-05
3.78259e-05
4.23896e-05
4.6901e-05
5.12951e-05
5.55171e-05
5.95303e-05
6.33328e-05
6.69846e-05
7.06417e-05
7.45739e-05
7.91725e-05
8.49684e-05
9.25965e-05
0.000102782
0.000116349
0.000134254
0.000157638
0.000187905
0.00022681
0.000276578
0.000340046
0.000420845
0.000523635
0.000654397
0.000820821
0.0010328
0.00130307
0.00164802
0.0020888
0.00265225
0.00337249
0.00429714
0.00545653
0.00693381
0.0088834
0.011372
0.0144967
0.0309764
0.0485383
0.0660464
0.083273
0.100034
0.11618
0.131584
0.146141
0.159756
0.172343
0.18379
0.194069
0.203029
0.210616
0.216779
0.221505
0.224878
0.227098
0.228445
0.229205
0.229609
0.229813
0.229912
0.229959
0.229982
0.229992
0.229996
0.229998
0.229999
0.23
0.23
0.23
0.23
0.23
0.23
0.23
0.23
4.90472e-10
2.14385e-09
4.92541e-09
9.58753e-09
1.73593e-08
3.0224e-08
5.13356e-08
8.56263e-08
1.40659e-07
2.27772e-07
3.63505e-07
5.71232e-07
8.82714e-07
1.3391e-06
1.99064e-06
2.89419e-06
4.10822e-06
5.68545e-06