/*--------------------------------*- C++ -*----------------------------------*\
  =========                 |
  \\      /  F ield         | OpenFOAM: The Open Source CFD Toolbox
   \\    /   O peration     | Website:  https://openfoam.org
    \\  /    A nd           | Version:  8
     \\/     M anipulation  |
\*---------------------------------------------------------------------------*/
FoamFile
{
    version     2.0;
    format      ascii;
    class       surfaceScalarField;
    location    "220/fluid";
    object      phi;
}
// * * * * * * * * * * * * * * * * * * * * * * * * * * * * * * * * * * * * * //

dimensions      [1 0 -1 0 0 0 0];

internalField   nonuniform List<scalar> 
7860
(
6.57466e-07
-1.72183e-08
6.55206e-07
-5.14948e-08
6.51991e-07
-8.54842e-08
6.4773e-07
-1.19196e-07
6.42314e-07
-1.5269e-07
6.35606e-07
-1.8595e-07
6.27451e-07
-2.18916e-07
6.17679e-07
-2.51494e-07
6.06114e-07
-2.83548e-07
5.92583e-07
-3.1489e-07
5.76922e-07
-3.45272e-07
5.58995e-07
-3.74376e-07
5.38718e-07
-4.01799e-07
5.16101e-07
-4.27047e-07
4.91359e-07
-4.49547e-07
4.64743e-07
-4.68638e-07
4.3659e-07
-4.83683e-07
4.07331e-07
-4.94191e-07
3.77455e-07
-4.99962e-07
3.47466e-07
-5.01159e-07
3.17821e-07
-4.98294e-07
2.88894e-07
-4.92115e-07
2.60953e-07
-4.83446e-07
2.34174e-07
-4.73057e-07
2.08685e-07
-4.61576e-07
1.84539e-07
-4.49467e-07
1.61711e-07
-4.37046e-07
1.4014e-07
-4.24521e-07
1.1975e-07
-4.12029e-07
1.00467e-07
-3.9966e-07
8.22141e-08
-3.87476e-07
6.49226e-08
-3.75525e-07
4.85277e-08
-3.6385e-07
3.29694e-08
-3.5249e-07
1.81916e-08
-3.41484e-07
4.14084e-09
-3.3087e-07
-9.22744e-09
-3.2068e-07
-2.19527e-08
-3.10914e-07
-3.40763e-08
-3.01576e-07
-4.56397e-08
-2.92691e-07
-5.66821e-08
-2.84277e-07
-6.72405e-08
-2.76345e-07
-7.73499e-08
-2.68904e-07
-8.70433e-08
-2.61957e-07
-9.63516e-08
-2.55504e-07
-1.05304e-07
-2.49541e-07
-1.13927e-07
-2.44061e-07
-1.22246e-07
-2.39056e-07
-1.30283e-07
-2.34515e-07
-1.38061e-07
-2.30427e-07
-1.45597e-07
-2.26777e-07
-1.52909e-07
-2.23553e-07
-1.60012e-07
-2.20739e-07
-1.66919e-07
-2.18322e-07
-1.73643e-07
-2.16289e-07
-1.80194e-07
-2.1463e-07
-1.86582e-07
-2.13336e-07
-1.92816e-07
-2.12404e-07
-1.98907e-07
-2.11838e-07
-2.0487e-07
-2.11649e-07
-2.10721e-07
-2.11889e-07
-2.16491e-07
-2.12586e-07
-2.22193e-07
-2.13781e-07
-2.27853e-07
-2.15616e-07
-2.33642e-07
-2.18212e-07
-2.44557e-07
-2.217e-07
-2.53019e-07
-2.36809e-07
-2.62871e-07
-2.53445e-07
-2.73858e-07
-2.71452e-07
-2.86036e-07
-2.90965e-07
-2.9956e-07
-3.12165e-07
-3.14633e-07
-3.35218e-07
-3.31517e-07
-3.60316e-07
-3.50557e-07
-3.87692e-07
-3.72208e-07
-4.17621e-07
-3.97064e-07
-4.50427e-07
-4.25888e-07
-4.86633e-07
-4.59631e-07
-5.26566e-07
-4.9932e-07
-5.69733e-07
-5.45773e-07
-6.14379e-07
-5.98809e-07
-6.56762e-07
-6.57775e-07
-6.90734e-07
-7.20833e-07
-7.09702e-07
-7.84939e-07
-7.10186e-07
-8.46781e-07
-6.93697e-07
-9.03884e-07
-6.64705e-07
-9.54985e-07
-6.279e-07
-9.99678e-07
-5.86563e-07
-1.03786e-06
-5.42564e-07
-1.06978e-06
-4.96892e-07
-1.09616e-06
-4.50122e-07
-1.11774e-06
-4.02724e-07
-1.13521e-06
-3.55053e-07
-1.14916e-06
-3.07354e-07
-1.16015e-06
-2.5978e-07
-1.16864e-06
-2.12414e-07
-1.175e-06
-1.65293e-07
-1.17955e-06
-1.18386e-07
-1.18254e-06
-7.142e-08
-2.39768e-08
6.57999e-07
-1.66834e-08
6.56178e-07
-4.96739e-08
6.53009e-07
-8.23147e-08
6.48492e-07
-1.14679e-07
6.42569e-07
-1.46768e-07
6.35154e-07
-1.78535e-07
6.26147e-07
-2.09908e-07
6.1544e-07
-2.40787e-07
6.02935e-07
-2.71041e-07
5.88545e-07
-3.00497e-07
5.72209e-07
-3.28931e-07
5.53898e-07
-3.56057e-07
5.33623e-07
-3.81512e-07
5.11452e-07
-4.04857e-07
4.87538e-07
-4.25604e-07
4.62073e-07
-4.43132e-07
4.35314e-07
-4.56867e-07
4.07588e-07
-4.6639e-07
3.7927e-07
-4.71551e-07
3.50757e-07
-4.72533e-07
3.22417e-07
-4.69826e-07
2.94566e-07
-4.64121e-07
2.67443e-07
-4.56171e-07
2.41215e-07
-4.46671e-07
2.16001e-07
-4.36201e-07
1.91868e-07
-4.25172e-07
1.68836e-07
-4.13853e-07
1.46897e-07
-4.02423e-07
1.26023e-07
-3.91002e-07
1.0618e-07
-3.79667e-07
8.73259e-08
-3.68476e-07
6.94155e-08
-3.57474e-07
5.24028e-08
-3.46702e-07
3.62405e-08
-3.36198e-07
2.08811e-08
-3.26001e-07
6.2769e-09
-3.16147e-07
-7.61658e-09
-3.06672e-07
-2.08412e-08
-2.97573e-07
-3.3438e-08
-2.88858e-07
-4.54494e-08
-2.80555e-07
-5.69161e-08
-2.72681e-07
-6.78775e-08
-2.6525e-07
-7.83715e-08
-2.58273e-07
-8.84339e-08
-2.51754e-07
-9.8099e-08
-2.45694e-07
-1.07399e-07
-2.40093e-07
-1.16365e-07
-2.34944e-07
-1.25024e-07
-2.30243e-07
-1.33403e-07
-2.25979e-07
-1.41528e-07
-2.22143e-07
-1.49421e-07
-2.18724e-07
-1.57104e-07
-2.15708e-07
-1.64597e-07
-2.13085e-07
-1.71918e-07
-2.1084e-07
-1.79086e-07
-2.08963e-07
-1.86119e-07
-2.07442e-07
-1.93035e-07
-2.0627e-07
-1.99855e-07
-2.05443e-07
-2.06601e-07
-2.04961e-07
-2.13302e-07
-2.04833e-07
-2.1999e-07
-2.05117e-07
-2.26733e-07
-2.05794e-07
-2.33573e-07
-2.06949e-07
-2.40563e-07
-2.08724e-07
-2.47802e-07
-2.11257e-07
-2.61219e-07
-2.15551e-07
-2.69586e-07
-2.29282e-07
-2.79577e-07
-2.44455e-07
-2.91076e-07
-2.61132e-07
-3.04079e-07
-2.79344e-07
-3.18696e-07
-2.99158e-07
-3.35104e-07
-3.20682e-07
-3.53532e-07
-3.44062e-07
-3.74262e-07
-3.69484e-07
-3.97637e-07
-3.9717e-07
-4.24029e-07
-4.27421e-07
-4.53848e-07
-4.60734e-07
-4.87598e-07
-4.97285e-07
-5.25802e-07
-5.36484e-07
-5.68867e-07
-5.76542e-07
-6.16789e-07
-6.13932e-07
-6.69189e-07
-6.42752e-07
-7.24798e-07
-6.57415e-07
-7.81417e-07
-6.55718e-07
-8.36651e-07
-6.39687e-07
-8.88674e-07
-6.13308e-07
-9.36483e-07
-5.80394e-07
-9.79663e-07
-5.43523e-07
-1.01804e-06
-5.04248e-07
-1.0516e-06
-4.63359e-07
-1.08052e-06
-4.21217e-07
-1.10507e-06
-3.78182e-07
-1.12557e-06
-3.34546e-07
-1.14241e-06
-2.90523e-07
-1.15592e-06
-2.46263e-07
-1.16647e-06
-2.01873e-07
-1.17433e-06
-1.57429e-07
-1.17975e-06
-1.12965e-07
-1.18286e-06
-6.83135e-08
-2.30132e-08
6.57741e-07
-1.58905e-08
6.55445e-07
-4.7378e-08
6.51656e-07
-7.85257e-08
6.46343e-07
-1.09366e-07
6.39467e-07
-1.39891e-07
6.30981e-07
-1.70048e-07
6.20835e-07
-1.99762e-07
6.08987e-07
-2.28938e-07
5.95404e-07
-2.57456e-07
5.80073e-07
-2.85163e-07
5.63004e-07
-3.11857e-07
5.44235e-07
-3.37281e-07
5.23834e-07
-3.611e-07
5.01892e-07
-3.82897e-07
4.78492e-07
-4.02178e-07
4.53797e-07
-4.18401e-07
4.28041e-07
-4.3106e-07
4.01511e-07
-4.39794e-07
3.74528e-07
-4.44485e-07
3.47417e-07
-4.45322e-07
3.20478e-07
-4.42772e-07
2.93962e-07
-4.37478e-07
2.68064e-07
-4.30136e-07
2.42914e-07
-4.21378e-07
2.18579e-07
-4.1172e-07
1.95094e-07
-4.01539e-07
1.72482e-07
-3.91095e-07
1.50758e-07
-3.80555e-07
1.29924e-07
-3.70026e-07
1.09974e-07
-3.59578e-07
9.0893e-08
-3.49261e-07
7.26602e-08
-3.39112e-07
5.52501e-08
-3.29167e-07
3.86332e-08
-3.19461e-07
2.27765e-08
-3.10029e-07
7.64495e-09
-3.00906e-07
-6.79689e-09
-2.92124e-07
-2.05837e-08
-2.83678e-07
-3.37502e-08
-2.75579e-07
-4.63341e-08
-2.67854e-07
-5.83734e-08
-2.6052e-07
-6.99057e-08
-2.53592e-07
-8.09678e-08
-2.47081e-07
-9.15959e-08
-2.40991e-07
-1.01825e-07
-2.35327e-07
-1.11688e-07
-2.30087e-07
-1.21218e-07
-2.25268e-07
-1.30446e-07
-2.20865e-07
-1.39402e-07
-2.16871e-07
-1.48115e-07
-2.13276e-07
-1.56611e-07
-2.10071e-07
-1.64917e-07
-2.07244e-07
-1.7306e-07
-2.04783e-07
-1.81066e-07
-2.02676e-07
-1.8896e-07
-2.00911e-07
-1.9677e-07
-1.99476e-07
-2.04527e-07
-1.98362e-07
-2.12264e-07
-1.9756e-07
-2.20019e-07
-1.97066e-07
-2.27841e-07
-1.9688e-07
-2.35781e-07
-1.97053e-07
-2.43947e-07
-1.97518e-07
-2.52425e-07
-1.98368e-07
-2.61292e-07
-1.99755e-07
-2.70398e-07
-2.01844e-07
-2.84042e-07
-2.08768e-07
-2.93124e-07
-2.21161e-07
-3.03682e-07
-2.35001e-07
-3.15716e-07
-2.50368e-07
-3.29296e-07
-2.67226e-07
-3.44539e-07
-2.85602e-07
-3.61585e-07
-3.05581e-07
-3.80595e-07
-3.27297e-07
-4.0174e-07
-3.50928e-07
-4.25195e-07
-3.76696e-07
-4.51082e-07
-4.04968e-07
-4.79525e-07
-4.36226e-07
-5.10721e-07
-4.70508e-07
-5.44959e-07
-5.07037e-07
-5.82734e-07
-5.43672e-07
-6.24871e-07
-5.76394e-07
-6.7156e-07
-5.99892e-07
-7.21839e-07
-6.09907e-07
-7.73691e-07
-6.05612e-07
-8.249e-07
-5.89456e-07
-8.73778e-07
-5.6493e-07
-9.19354e-07
-5.35059e-07
-9.61202e-07
-5.01787e-07
-9.99258e-07
-4.66243e-07
-1.03354e-06
-4.29096e-07
-1.06401e-06
-3.90763e-07
-1.09066e-06
-3.51532e-07
-1.1136e-06
-3.11613e-07
-1.13296e-06
-2.71161e-07
-1.14893e-06
-2.30295e-07
-1.16169e-06
-1.8911e-07
-1.17143e-06
-1.47691e-07
-1.1783e-06
-1.06095e-07
-1.18242e-06
-6.41908e-08
-2.16128e-08
6.57741e-07
-1.50981e-08
6.55349e-07
-4.49854e-08
6.51353e-07
-7.45299e-08
6.45749e-07
-1.03762e-07
6.38525e-07
-1.32667e-07
6.29663e-07
-1.61186e-07
6.19148e-07
-1.89246e-07
6.06966e-07
-2.16755e-07
5.9311e-07
-2.436e-07
5.77584e-07
-2.69634e-07
5.60403e-07
-2.94672e-07
5.41599e-07
-3.18471e-07
5.2123e-07
-3.4072e-07
4.99381e-07
-3.61033e-07
4.76179e-07
-3.78953e-07
4.51795e-07
-3.93985e-07
4.26451e-07
-4.05672e-07
4.00405e-07
-4.1369e-07
3.73942e-07
-4.17949e-07
3.47348e-07
-4.18639e-07
3.20887e-07
-4.16209e-07
2.94784e-07
-4.11262e-07
2.69214e-07
-4.04445e-07
2.44305e-07
-3.96341e-07
2.20139e-07
-3.87422e-07
1.96764e-07
-3.78032e-07
1.74207e-07
-3.68405e-07
1.52477e-07
-3.58694e-07
1.31574e-07
-3.48994e-07
1.11488e-07
-3.39367e-07
9.22081e-08
-3.29858e-07
7.37148e-08
-3.205e-07
5.59877e-08
-3.11326e-07
3.90027e-08
-3.02367e-07
2.27329e-08
-2.93655e-07
7.14907e-09
-2.85223e-07
-7.77862e-09
-2.771e-07
-2.20796e-08
-2.69277e-07
-3.57838e-08
-2.61771e-07
-4.89248e-08
-2.54604e-07
-6.15372e-08
-2.47794e-07
-7.3656e-08
-2.41355e-07
-8.5316e-08
-2.35297e-07
-9.65522e-08
-2.29628e-07
-1.07399e-07
-2.24348e-07
-1.1789e-07
-2.1946e-07
-1.28058e-07
-2.1496e-07
-1.37937e-07
-2.10843e-07
-1.47556e-07
-2.07104e-07
-1.56949e-07
-2.03734e-07
-1.66144e-07
-2.00723e-07
-1.75172e-07
-1.98061e-07
-1.84063e-07
-1.95736e-07
-1.92849e-07
-1.93735e-07
-2.01559e-07
-1.92046e-07
-2.10227e-07
-1.90656e-07
-2.18887e-07
-1.89552e-07
-2.27578e-07
-1.88725e-07
-2.36344e-07
-1.88165e-07
-2.45231e-07
-1.87868e-07
-2.54303e-07
-1.87866e-07
-2.63629e-07
-1.8808e-07
-2.73323e-07
-1.88553e-07
-2.83665e-07
-1.89254e-07
-2.93377e-07
-1.90103e-07
-3.05691e-07
-1.99876e-07
-3.16233e-07
-2.11607e-07
-3.27834e-07
-2.24539e-07
-3.40687e-07
-2.38829e-07
-3.54935e-07
-2.5449e-07
-3.70716e-07
-2.7156e-07
-3.88167e-07
-2.90128e-07
-4.07427e-07
-3.10334e-07
-4.28633e-07
-3.32356e-07
-4.51918e-07
-3.56429e-07
-4.77371e-07
-3.8297e-07
-5.05149e-07
-4.12366e-07
-5.35525e-07
-4.44467e-07
-5.6889e-07
-4.78279e-07
-6.05747e-07
-5.11401e-07
-6.4652e-07
-5.39769e-07
-6.9109e-07
-5.58633e-07
-7.38431e-07
-5.64868e-07
-7.86832e-07
-5.58616e-07
-8.3457e-07
-5.42489e-07
-8.80355e-07
-5.19535e-07
-9.23393e-07
-4.92208e-07
-9.63258e-07
-4.62009e-07
-9.99747e-07
-4.29794e-07
-1.03279e-06
-3.96069e-07
-1.06239e-06
-3.6117e-07
-1.08859e-06
-3.25342e-07
-1.11143e-06
-2.88772e-07
-1.13099e-06
-2.51601e-07
-1.14735e-06
-2.13935e-07
-1.16059e-06
-1.75866e-07
-1.1708e-06
-1.37482e-07
-1.17805e-06
-9.88499e-08
-1.18238e-06
-5.98584e-08
-2.01705e-08
6.57675e-07
-1.42396e-08
6.55125e-07
-4.24354e-08
6.50897e-07
-7.03013e-08
6.44992e-07
-9.78569e-08
6.3741e-07
-1.25085e-07
6.28152e-07
-1.51928e-07
6.17219e-07
-1.78313e-07
6.04619e-07
-2.04154e-07
5.90364e-07
-2.29344e-07
5.74479e-07
-2.53747e-07
5.57001e-07
-2.77191e-07
5.37984e-07
-2.99448e-07
5.17503e-07
-3.20231e-07
4.95659e-07
-3.39177e-07
4.72585e-07
-3.5586e-07
4.48449e-07
-3.69821e-07
4.23455e-07
-3.8064e-07
3.97839e-07
-3.88024e-07
3.71856e-07
-3.91902e-07
3.4576e-07
-3.92466e-07
3.19784e-07
-3.90144e-07
2.94126e-07
-3.85505e-07
2.68942e-07
-3.79153e-07
2.44345e-07
-3.71631e-07
2.2041e-07
-3.63371e-07
1.97187e-07
-3.5469e-07
1.74703e-07
-3.45802e-07
1.52971e-07
-3.36844e-07
1.31995e-07
-3.27902e-07
1.11772e-07
-3.19031e-07
9.22935e-08
-3.10268e-07
7.35459e-08
-3.01645e-07
5.55132e-08
-2.9319e-07
3.81758e-08
-2.8493e-07
2.15114e-08
-2.76896e-07
5.49495e-09
-2.69117e-07
-9.89928e-09
-2.61617e-07
-2.46964e-08
-2.54389e-07
-3.89234e-08
-2.47448e-07
-5.26106e-08
-2.40815e-07
-6.57896e-08
-2.34508e-07
-7.8493e-08
-2.2854e-07
-9.07538e-08
-2.2292e-07
-1.02605e-07
-2.17655e-07
-1.14081e-07
-2.12747e-07
-1.25214e-07
-2.08196e-07
-1.36038e-07
-2.04001e-07
-1.46585e-07
-2.00158e-07
-1.56887e-07
-1.96659e-07
-1.66976e-07
-1.93499e-07
-1.76885e-07
-1.90666e-07
-1.86645e-07
-1.88151e-07
-1.96287e-07
-1.85942e-07
-2.05842e-07
-1.84026e-07
-2.15344e-07
-1.82392e-07
-2.24823e-07
-1.81026e-07
-2.34312e-07
-1.79917e-07
-2.43843e-07
-1.79056e-07
-2.53447e-07
-1.78436e-07
-2.6314e-07
-1.78074e-07
-2.72961e-07
-1.77975e-07
-2.82924e-07
-1.781e-07
-2.93023e-07
-1.78527e-07
-3.03261e-07
-1.79236e-07
-3.18159e-07
-1.80356e-07
-3.2854e-07
-1.90358e-07
-3.39764e-07
-2.01397e-07
-3.51969e-07
-2.1351e-07
-3.65351e-07
-2.26801e-07
-3.80059e-07
-2.41335e-07
-3.96215e-07
-2.57182e-07
-4.13936e-07
-2.74443e-07
-4.33335e-07
-2.93263e-07
-4.54522e-07
-3.13828e-07
-4.7758e-07
-3.36401e-07
-5.02572e-07
-3.61426e-07
-5.29642e-07
-3.89159e-07
-5.59028e-07
-4.1929e-07
-5.91083e-07
-4.50598e-07
-6.26268e-07
-4.80443e-07
-6.64945e-07
-5.04777e-07
-7.06955e-07
-5.19452e-07
-7.51333e-07
-5.22387e-07
-7.96601e-07
-5.14476e-07
-8.41333e-07
-4.98366e-07
-8.84476e-07
-4.76698e-07
-9.25371e-07
-4.5146e-07
-9.6363e-07
-4.2382e-07
-9.99015e-07
-3.9444e-07
-1.03138e-06
-3.63715e-07
-1.06065e-06
-3.31913e-07
-1.08676e-06
-2.99231e-07
-1.10971e-06
-2.65822e-07
-1.12951e-06
-2.31803e-07
-1.14618e-06
-1.97264e-07
-1.15976e-06
-1.62287e-07
-1.17028e-06
-1.26957e-07
-1.17779e-06
-9.13432e-08
-1.18231e-06
-5.53438e-08
-1.8654e-08
6.57657e-07
-1.3363e-08
6.55039e-07
-3.98174e-08
6.50694e-07
-6.59555e-08
6.44631e-07
-9.17945e-08
6.36862e-07
-1.17316e-07
6.27397e-07
-1.42463e-07
6.16251e-07
-1.67166e-07
6.03441e-07
-1.91343e-07
5.88991e-07
-2.14893e-07
5.72936e-07
-2.3769e-07
5.55318e-07
-2.5957e-07
5.36197e-07
-2.80323e-07
5.15651e-07
-2.99677e-07
4.93781e-07
-3.17296e-07
4.70721e-07
-3.32784e-07
4.46638e-07
-3.45715e-07
4.21734e-07
-3.55703e-07
3.96239e-07
-3.62486e-07
3.70399e-07
-3.66008e-07
3.4446e-07
-3.66461e-07
3.18644e-07
-3.6425e-07
2.93137e-07
-3.59912e-07
2.68086e-07
-3.54007e-07
2.43594e-07
-3.47039e-07
2.19731e-07
-3.39405e-07
1.96541e-07
-3.31395e-07
1.74048e-07
-3.23203e-07
1.52263e-07
-3.14953e-07
1.31189e-07
-3.06723e-07
1.10822e-07
-2.98561e-07
9.11537e-08
-2.90501e-07
7.21731e-08
-2.82568e-07
5.38652e-08
-2.74789e-07
3.62128e-08
-2.67188e-07
1.91957e-08
-2.59794e-07
2.79155e-09
-2.52632e-07
-1.30221e-08
-2.45724e-07
-2.82675e-08
-2.3906e-07
-4.29696e-08
-2.32657e-07
-5.71562e-08
-2.26534e-07
-7.08565e-08
-2.20708e-07
-8.41009e-08
-2.15191e-07
-9.69205e-08
-2.09991e-07
-1.09347e-07
-2.05113e-07
-1.21412e-07
-2.00561e-07
-1.33149e-07
-1.96335e-07
-1.44588e-07
-1.92432e-07
-1.55763e-07
-1.88849e-07
-1.66705e-07
-1.8558e-07
-1.77445e-07
-1.82617e-07
-1.88016e-07
-1.7995e-07
-1.98449e-07
-1.77571e-07
-2.08774e-07
-1.75466e-07
-2.19024e-07
-1.73625e-07
-2.2923e-07
-1.72035e-07
-2.39424e-07
-1.70682e-07
-2.49636e-07
-1.69556e-07
-2.59899e-07
-1.68648e-07
-2.70244e-07
-1.67953e-07
-2.80688e-07
-1.67508e-07
-2.91272e-07
-1.67291e-07
-3.02006e-07
-1.67305e-07
-3.12826e-07
-1.67721e-07
-3.23584e-07
-1.68691e-07
-3.39536e-07
-1.7186e-07
-3.49957e-07
-1.80835e-07
-3.61521e-07
-1.90866e-07
-3.74175e-07
-2.02045e-07
-3.87992e-07
-2.14348e-07
-4.0308e-07
-2.27808e-07
-4.19542e-07
-2.42504e-07
-4.37479e-07
-2.58546e-07
-4.56986e-07
-2.7608e-07
-4.78161e-07
-2.95298e-07
-5.01068e-07
-3.16499e-07
-5.25793e-07
-3.40099e-07
-5.52513e-07
-3.66206e-07
-5.81499e-07
-3.94345e-07
-6.13128e-07
-4.23078e-07
-6.47832e-07
-4.49597e-07
-6.85828e-07
-4.70029e-07
-7.26733e-07
-4.8095e-07
-7.69465e-07
-4.81217e-07
-8.12637e-07
-4.7221e-07
-8.55047e-07
-4.56438e-07
-8.95851e-07
-4.36134e-07
-9.34539e-07
-4.12888e-07
-9.70804e-07
-3.87608e-07
-1.00446e-06
-3.60811e-07
-1.03537e-06
-3.32812e-07
-1.06346e-06
-3.0383e-07
-1.08866e-06
-2.74033e-07
-1.11093e-06
-2.43551e-07
-1.13025e-06
-2.12484e-07
-1.1466e-06
-1.80912e-07
-1.15998e-06
-1.48907e-07
-1.17039e-06
-1.16546e-07
-1.17784e-06
-8.38977e-08
-1.18232e-06
-5.08629e-08
-1.71525e-08
6.57634e-07
-1.24631e-08
6.54953e-07
-3.71363e-08
6.50508e-07
-6.1511e-08
6.44315e-07
-8.56012e-08
6.36388e-07
-1.09389e-07
6.26745e-07
-1.32819e-07
6.15406e-07
-1.55827e-07
6.02397e-07
-1.78334e-07
5.87752e-07
-2.00247e-07
5.7151e-07
-2.21447e-07
5.53723e-07
-2.41781e-07
5.34459e-07
-2.61054e-07
5.13801e-07
-2.79013e-07
4.91857e-07
-2.95344e-07
4.68764e-07
-3.09677e-07
4.44688e-07
-3.2162e-07
4.1983e-07
-3.30817e-07
3.94413e-07
-3.37032e-07
3.68673e-07
-3.40222e-07
3.42845e-07
-3.40575e-07
3.17138e-07
-3.38477e-07
2.9173e-07
-3.34428e-07
2.66757e-07
-3.28952e-07
2.42318e-07
-3.22511e-07
2.18477e-07
-3.15473e-07
1.95275e-07
-3.08099e-07
1.72734e-07
-3.00568e-07
1.50866e-07
-2.9299e-07
1.2967e-07
-2.85435e-07
1.09146e-07
-2.77945e-07
8.92837e-08
-2.7055e-07
7.0074e-08
-2.63272e-07
5.1503e-08
-2.56135e-07
3.35548e-08
-2.49161e-07
1.6211e-08
-2.42374e-07
-5.49164e-10
-2.35801e-07
-1.67463e-08
-2.29455e-07
-3.23994e-08
-2.2333e-07
-4.75324e-08
-2.17441e-07
-6.21714e-08
-2.11808e-07
-7.63437e-08
-2.06443e-07
-9.00778e-08
-2.01359e-07
-1.03403e-07
-1.96562e-07
-1.1635e-07
-1.92058e-07
-1.28948e-07
-1.87849e-07
-1.41229e-07
-1.83935e-07
-1.53223e-07
-1.80314e-07
-1.64962e-07
-1.76982e-07
-1.76476e-07
-1.73933e-07
-1.87796e-07
-1.7116e-07
-1.98952e-07
-1.68654e-07
-2.09975e-07
-1.66404e-07
-2.20896e-07
-1.644e-07
-2.31744e-07
-1.62629e-07
-2.42551e-07
-1.61079e-07
-2.53347e-07
-1.59737e-07
-2.64163e-07
-1.58591e-07
-2.75029e-07
-1.57631e-07
-2.8598e-07
-1.56848e-07
-2.97044e-07
-1.56281e-07
-3.08274e-07
-1.55872e-07
-3.19708e-07
-1.55646e-07
-3.31417e-07
-1.55708e-07
-3.41593e-07
-1.56111e-07
-3.55895e-07
-1.61918e-07
-3.67377e-07
-1.70213e-07
-3.79766e-07
-1.79481e-07
-3.93145e-07
-1.89829e-07
-4.07603e-07
-2.01233e-07
-4.23235e-07
-2.13719e-07
-4.40143e-07
-2.27362e-07
-4.58428e-07
-2.42276e-07
-4.78189e-07
-2.58613e-07
-4.99523e-07
-2.76568e-07
-5.225e-07
-2.96473e-07
-5.47233e-07
-3.18678e-07
-5.73917e-07
-3.43157e-07
-6.02815e-07
-3.69287e-07
-6.34268e-07
-3.95447e-07
-6.68596e-07
-4.18757e-07
-7.05837e-07
-4.35628e-07
-7.4546e-07
-4.43359e-07
-7.86409e-07
-4.41552e-07
-8.27491e-07
-4.3186e-07
-8.67734e-07
-4.16577e-07
-9.06463e-07
-3.97596e-07
-9.43256e-07
-3.76186e-07
-9.77844e-07
-3.53063e-07
-1.01004e-06
-3.28632e-07
-1.03972e-06
-3.03147e-07
-1.06676e-06
-2.76787e-07
-1.09111e-06
-2.49692e-07
-1.11268e-06
-2.21973e-07
-1.13146e-06
-1.93714e-07
-1.14739e-06
-1.64983e-07
-1.16045e-06
-1.3584e-07
-1.17064e-06
-1.06358e-07
-1.17794e-06
-7.6597e-08
-1.18234e-06
-4.64602e-08
-1.5674e-08
6.57621e-07
-1.15503e-08
6.54899e-07
-3.44147e-08
6.50388e-07
-5.69996e-08
6.44104e-07
-7.93176e-08
6.36067e-07
-1.01351e-07
6.26297e-07
-1.2305e-07
6.14821e-07
-1.4435e-07
6.01669e-07
-1.65181e-07
5.86877e-07
-1.85455e-07
5.70492e-07
-2.0506e-07
5.52568e-07
-2.23856e-07
5.33176e-07
-2.41659e-07
5.12403e-07
-2.58236e-07
4.9036e-07
-2.73294e-07
4.67186e-07
-2.86492e-07
4.43048e-07
-2.97467e-07
4.18147e-07
-3.05894e-07
3.92706e-07
-3.11561e-07
3.66959e-07
-3.14437e-07
3.41135e-07
-3.14703e-07
3.15439e-07
-3.12723e-07
2.90041e-07
-3.08965e-07
2.65072e-07
-3.0391e-07
2.40622e-07
-2.97985e-07
2.16753e-07
-2.91523e-07
1.93501e-07
-2.84765e-07
1.70886e-07
-2.77869e-07
1.48917e-07
-2.70937e-07
1.27593e-07
-2.64028e-07
1.06911e-07
-2.57182e-07
8.68645e-08
-2.50423e-07
6.74415e-08
-2.43772e-07
4.86298e-08
-2.37249e-07
3.04141e-08
-2.30874e-07
1.2777e-08
-2.2467e-07
-4.3003e-09
-2.1866e-07
-2.08362e-08
-2.12854e-07
-3.68494e-08
-2.07246e-07
-5.23624e-08
-2.01852e-07
-6.73993e-08
-1.96689e-07
-8.1986e-08
-1.9177e-07
-9.61494e-08
-1.87103e-07
-1.09917e-07
-1.82696e-07
-1.23318e-07
-1.78554e-07
-1.36381e-07
-1.74678e-07
-1.49135e-07
-1.71068e-07
-1.61609e-07
-1.67721e-07
-1.73833e-07
-1.64635e-07
-1.85836e-07
-1.61802e-07
-1.97647e-07
-1.59217e-07
-2.09295e-07
-1.5687e-07
-2.20809e-07
-1.54751e-07
-2.32216e-07
-1.52851e-07
-2.43545e-07
-1.51157e-07
-2.54823e-07
-1.49658e-07
-2.66077e-07
-1.48342e-07
-2.77334e-07
-1.47196e-07
-2.88622e-07
-1.46212e-07
-2.99969e-07
-1.45382e-07
-3.1142e-07
-1.44727e-07
-3.22942e-07
-1.44166e-07
-3.34685e-07
-1.43722e-07
-3.46852e-07
-1.4333e-07
-3.56946e-07
-1.43064e-07
-3.69933e-07
-1.50208e-07
-3.82575e-07
-1.58353e-07
-3.9582e-07
-1.67195e-07
-4.0989e-07
-1.76894e-07
-4.24931e-07
-1.87514e-07
-4.41058e-07
-1.99113e-07
-4.58384e-07
-2.11776e-07
-4.77018e-07
-2.25626e-07
-4.97066e-07
-2.40819e-07
-5.18627e-07
-2.57559e-07
-5.41789e-07
-2.76193e-07
-5.66697e-07
-2.96982e-07
-5.93554e-07
-3.19785e-07
-6.22619e-07
-3.43848e-07
-6.54187e-07
-3.67413e-07
-6.88457e-07
-3.87622e-07
-7.2529e-07
-4.0127e-07
-7.64019e-07
-4.06349e-07
-8.03603e-07
-4.03029e-07
-8.42998e-07
-3.9306e-07
-8.81403e-07
-3.78479e-07
-9.18281e-07
-3.6087e-07
-9.53296e-07
-3.41244e-07
-9.86229e-07
-3.20164e-07
-1.01692e-06
-2.97957e-07
-1.04525e-06
-2.74826e-07
-1.07112e-06
-2.50923e-07
-1.09444e-06
-2.26367e-07
-1.11516e-06
-2.01253e-07
-1.13322e-06
-1.75654e-07
-1.14858e-06
-1.49627e-07
-1.1612e-06
-1.23223e-07
-1.17105e-06
-9.65049e-08
-1.17812e-06
-6.95264e-08
-1.18239e-06
-4.21916e-08
-1.42399e-08
6.57609e-07
-1.06254e-08
6.54852e-07
-3.16582e-08
6.50285e-07
-5.2432e-08
6.43925e-07
-7.29581e-08
6.35794e-07
-9.32202e-08
6.25915e-07
-1.13171e-07
6.14317e-07
-1.32752e-07
6.01034e-07
-1.51898e-07
5.86105e-07
-1.70525e-07
5.69579e-07
-1.88534e-07
5.51515e-07
-2.05791e-07
5.31987e-07
-2.22129e-07
5.11086e-07
-2.37332e-07
4.88925e-07
-2.51128e-07
4.65646e-07
-2.63205e-07
4.4142e-07
-2.73229e-07
4.16448e-07
-2.80905e-07
3.90953e-07
-2.86041e-07
3.65167e-07
-2.88618e-07
3.39314e-07
-2.8881e-07
3.13594e-07
-2.86955e-07
2.88172e-07
-2.83488e-07
2.63173e-07
-2.78849e-07
2.38684e-07
-2.73428e-07
2.14762e-07
-2.6753e-07
1.9144e-07
-2.61369e-07
1.68735e-07
-2.5509e-07
1.46655e-07
-2.48782e-07
1.252e-07
-2.42499e-07
1.04364e-07
-2.36274e-07
8.41406e-08
-2.30129e-07
6.45191e-08
-2.24082e-07
4.5487e-08
-2.18151e-07
2.70298e-08
-2.12355e-07
9.13074e-09
-2.06712e-07
-8.22698e-09
-2.01245e-07
-2.50611e-08
-1.9596e-07
-4.13892e-08
-1.90853e-07
-5.72328e-08
-1.85938e-07
-7.26147e-08
-1.81231e-07
-8.75592e-08
-1.76744e-07
-1.02092e-07
-1.72484e-07
-1.16239e-07
-1.68457e-07
-1.30028e-07
-1.64668e-07
-1.43485e-07
-1.61117e-07
-1.56639e-07
-1.57805e-07
-1.69517e-07
-1.5473e-07
-1.82147e-07
-1.51886e-07
-1.94555e-07
-1.4927e-07
-2.0677e-07
-1.46874e-07
-2.18818e-07
-1.4469e-07
-2.30725e-07
-1.42709e-07
-2.42517e-07
-1.40922e-07
-2.54218e-07
-1.39317e-07
-2.65852e-07
-1.37886e-07
-2.77439e-07
-1.36617e-07
-2.89e-07
-1.35503e-07
-3.0055e-07
-1.34537e-07
-3.12094e-07
-1.33734e-07
-3.23644e-07
-1.33099e-07
-3.35169e-07
-1.32604e-07
-3.46632e-07
-1.32304e-07
-3.57966e-07
-1.32191e-07
-3.73648e-07
-1.326e-07
-3.85278e-07
-1.3923e-07
-3.97778e-07
-1.46666e-07
-4.11125e-07
-1.5482e-07
-4.25403e-07
-1.63753e-07
-4.40704e-07
-1.73526e-07
-4.57117e-07
-1.84204e-07
-4.74735e-07
-1.95873e-07
-4.93655e-07
-2.08654e-07
-5.13979e-07
-2.227e-07
-5.35804e-07
-2.38225e-07
-5.59237e-07
-2.55561e-07
-5.84439e-07
-2.74878e-07
-6.11609e-07
-2.95941e-07
-6.40978e-07
-3.17887e-07
-6.72757e-07
-3.38885e-07
-7.07004e-07
-3.56187e-07
-7.43411e-07
-3.67019e-07
-7.81237e-07
-3.69983e-07
-8.19513e-07
-3.65635e-07
-8.57353e-07
-3.55707e-07
-8.94109e-07
-3.41974e-07
-9.29349e-07
-3.25753e-07
-9.62798e-07
-3.07854e-07
-9.94266e-07
-2.88724e-07
-1.02361e-06
-2.68624e-07
-1.05072e-06
-2.47724e-07
-1.07549e-06
-2.2615e-07
-1.09786e-06
-2.04005e-07
-1.11774e-06
-1.81369e-07
-1.13509e-06
-1.58306e-07
-1.14985e-06
-1.34861e-07
-1.162e-06
-1.11079e-07
-1.17149e-06
-8.70117e-08
-1.17831e-06
-6.27065e-08
-1.18243e-06
-3.80689e-08
-1.28532e-08
6.57599e-07
-9.6909e-09
6.54814e-07
-2.88733e-08
6.502e-07
-4.78179e-08
6.43777e-07
-6.65352e-08
6.35567e-07
-8.50101e-08
6.25596e-07
-1.03199e-07
6.13892e-07
-1.21049e-07
6.00493e-07
-1.38498e-07
5.85441e-07
-1.55473e-07
5.68785e-07
-1.71878e-07
5.50588e-07
-1.87594e-07
5.30926e-07
-2.02466e-07
5.09892e-07
-2.16296e-07
4.87604e-07
-2.28836e-07
4.64204e-07
-2.398e-07
4.39867e-07
-2.48884e-07
4.14797e-07
-2.55821e-07
3.89216e-07
-2.60441e-07
3.63358e-07
-2.62733e-07
3.37444e-07
-2.62862e-07
3.11671e-07
-2.61141e-07
2.86199e-07
-2.57967e-07
2.61147e-07
-2.53743e-07
2.366e-07
-2.48822e-07
2.12609e-07
-2.43477e-07
1.89207e-07
-2.37902e-07
1.66407e-07
-2.32225e-07
1.44217e-07
-2.26525e-07
1.22634e-07
-2.2085e-07
1.01653e-07
-2.15228e-07
8.12672e-08
-2.0968e-07
6.14658e-08
-2.0422e-07
4.22368e-08
-1.98864e-07
2.35659e-08
-1.93629e-07
5.43695e-09
-1.88532e-07
-1.21651e-08
-1.83592e-07
-2.9257e-08
-1.78814e-07
-4.58561e-08
-1.74194e-07
-6.19826e-08
-1.69747e-07
-7.76584e-08
-1.65485e-07
-9.29066e-08
-1.6142e-07
-1.07751e-07
-1.57557e-07
-1.22218e-07
-1.53904e-07
-1.36331e-07
-1.50462e-07
-1.50118e-07
-1.47233e-07
-1.63604e-07
-1.44216e-07
-1.76814e-07
-1.4141e-07
-1.89776e-07
-1.38811e-07
-2.02516e-07
-1.36412e-07
-2.15057e-07
-1.34209e-07
-2.27426e-07
-1.32194e-07
-2.39647e-07
-1.30357e-07
-2.51743e-07
-1.28691e-07
-2.63739e-07
-1.27186e-07
-2.75655e-07
-1.25832e-07
-2.87513e-07
-1.24622e-07
-2.99331e-07
-1.23548e-07
-3.11128e-07
-1.22609e-07
-3.22911e-07
-1.21832e-07
-3.34697e-07
-1.21211e-07
-3.46482e-07
-1.20746e-07
-3.58195e-07
-1.20571e-07
-3.69686e-07
-1.20821e-07
-3.86493e-07
-1.22629e-07
-3.98129e-07
-1.28392e-07
-4.10738e-07
-1.34952e-07
-4.24281e-07
-1.42291e-07
-4.38799e-07
-1.50386e-07
-4.54366e-07
-1.59266e-07
-4.71062e-07
-1.68991e-07
-4.88973e-07
-1.79643e-07
-5.08193e-07
-1.91337e-07
-5.28822e-07
-2.04216e-07
-5.50962e-07
-2.18503e-07
-5.74738e-07
-2.34494e-07
-6.00318e-07
-2.52271e-07
-6.27893e-07
-2.71527e-07
-6.57649e-07
-2.9132e-07
-6.89709e-07
-3.0981e-07
-7.23984e-07
-3.24431e-07
-7.60032e-07
-3.32855e-07
-7.97071e-07
-3.34189e-07
-8.34214e-07
-3.29232e-07
-8.70711e-07
-3.19615e-07
-9.06031e-07
-3.06861e-07
-9.39828e-07
-2.92058e-07
-9.71877e-07
-2.75854e-07
-1.00202e-06
-2.58608e-07
-1.03012e-06
-2.40532e-07
-1.05608e-06
-2.21764e-07
-1.07982e-06
-2.02414e-07
-1.10126e-06
-1.82569e-07
-1.12033e-06
-1.623e-07
-1.13698e-06
-1.41658e-07
-1.15115e-06
-1.20684e-07
-1.16282e-06
-9.94108e-08
-1.17195e-06
-7.78841e-08
-1.17851e-06
-5.61433e-08
-1.18248e-06
-3.40969e-08
-1.15159e-08
6.57591e-07
-8.74777e-09
6.5478e-07
-2.60629e-08
6.50125e-07
-4.31624e-08
6.43645e-07
-6.00555e-08
6.35364e-07
-7.67288e-08
6.25307e-07
-9.31427e-08
6.13507e-07
-1.09249e-07
6e-07
-1.24991e-07
5.8483e-07
-1.40303e-07
5.6805e-07
-1.55097e-07
5.49723e-07
-1.69267e-07
5.29927e-07
-1.8267e-07
5.08759e-07
-1.95126e-07
4.86338e-07
-2.06413e-07
4.62811e-07
-2.16269e-07
4.38356e-07
-2.24422e-07
4.13177e-07
-2.30632e-07
3.87501e-07
-2.3475e-07
3.6156e-07
-2.3677e-07
3.35573e-07
-2.36847e-07
3.09734e-07
-2.35267e-07
2.842e-07
-2.32391e-07
2.59087e-07
-2.28583e-07
2.34473e-07
-2.24156e-07
2.10409e-07
-2.19358e-07
1.86923e-07
-2.14359e-07
1.6403e-07
-2.09272e-07
1.41733e-07
-2.04168e-07
1.2003e-07
-1.99088e-07
9.89157e-08
-1.94057e-07
7.83827e-08
-1.89091e-07
5.84206e-08
-1.84204e-07
3.90174e-08
-1.79409e-07
2.01595e-08
-1.74722e-07
1.83117e-09
-1.70158e-07
-1.59817e-08
-1.65734e-07
-3.32941e-08
-1.61452e-07
-5.01235e-08
-1.5731e-07
-6.64894e-08
-1.53321e-07
-8.24126e-08
-1.49497e-07
-9.79151e-08
-1.45846e-07
-1.1302e-07
-1.42376e-07
-1.27751e-07
-1.39091e-07
-1.42133e-07
-1.35993e-07
-1.5619e-07
-1.33083e-07
-1.69946e-07
-1.30361e-07
-1.83427e-07
-1.27826e-07
-1.96657e-07
-1.25472e-07
-2.0966e-07
-1.23295e-07
-2.2246e-07
-1.2129e-07
-2.35081e-07
-1.1945e-07
-2.47546e-07
-1.17766e-07
-2.59877e-07
-1.16229e-07
-2.72097e-07
-1.14832e-07
-2.84227e-07
-1.13565e-07
-2.96289e-07
-1.12419e-07
-3.08306e-07
-1.11388e-07
-3.20298e-07
-1.10468e-07
-3.32287e-07
-1.09685e-07
-3.443e-07
-1.09025e-07
-3.56362e-07
-1.08484e-07
-3.685e-07
-1.08175e-07
-3.79196e-07
-1.08184e-07
-3.94908e-07
-1.11446e-07
-4.07389e-07
-1.16688e-07
-4.2062e-07
-1.22597e-07
-4.34691e-07
-1.29209e-07
-4.49682e-07
-1.36515e-07
-4.65679e-07
-1.44539e-07
-4.82775e-07
-1.53334e-07
-5.01066e-07
-1.62982e-07
-5.20654e-07
-1.7359e-07
-5.41651e-07
-1.85293e-07
-5.64172e-07
-1.98317e-07
-5.88359e-07
-2.1291e-07
-6.14386e-07
-2.29086e-07
-6.42423e-07
-2.46483e-07
-6.72607e-07
-2.64119e-07
-7.04957e-07
-2.80201e-07
-7.39251e-07
-2.92401e-07
-7.74943e-07
-2.98818e-07
-8.11248e-07
-2.98957e-07
-8.47372e-07
-2.93738e-07
-8.82684e-07
-2.84644e-07
-9.16751e-07
-2.72968e-07
-9.49291e-07
-2.59603e-07
-9.80116e-07
-2.4507e-07
-1.00909e-06
-2.29657e-07
-1.03609e-06
-2.13536e-07
-1.06103e-06
-1.96824e-07
-1.08384e-06
-1.79613e-07
-1.10443e-06
-1.61977e-07
-1.12275e-06
-1.43978e-07
-1.13875e-06
-1.2566e-07
-1.15238e-06
-1.07055e-07
-1.1636e-06
-8.81903e-08
-1.17238e-06
-6.91024e-08
-1.1787e-06
-4.98239e-08
-1.18253e-06
-3.02684e-08
-1.02255e-08
6.57583e-07
-7.79689e-09
6.5475e-07
-2.32296e-08
6.50057e-07
-3.84693e-08
6.43525e-07
-5.35243e-08
6.35179e-07
-6.83826e-08
6.25045e-07
-8.30087e-08
6.13156e-07
-9.73593e-08
5.99549e-07
-1.11384e-07
5.84269e-07
-1.25023e-07
5.67371e-07
-1.382e-07
5.4892e-07
-1.50816e-07
5.28995e-07
-1.62745e-07
5.07696e-07
-1.73827e-07
4.85144e-07
-1.8386e-07
4.61489e-07
-1.92612e-07
4.36913e-07
-1.99841e-07
4.11622e-07
-2.05334e-07
3.85846e-07
-2.08961e-07
3.59815e-07
-2.10722e-07
3.3375e-07
-2.10758e-07
3.0784e-07
-2.09328e-07
2.8224e-07
-2.06755e-07
2.57061e-07
-2.03362e-07
2.3238e-07
-1.99429e-07
2.08243e-07
-1.95172e-07
1.84677e-07
-1.90741e-07
1.61695e-07
-1.86237e-07
1.39299e-07
-1.81719e-07
1.17487e-07
-1.77223e-07
9.62528e-08
-1.72771e-07
7.55892e-08
-1.68377e-07
5.54859e-08
-1.64053e-07
3.59312e-08
-1.5981e-07
1.69117e-08
-1.55661e-07
-1.58748e-09
-1.5162e-07
-1.95789e-08
-1.47703e-07
-3.70779e-08
-1.43908e-07
-5.41011e-08
-1.40237e-07
-7.06672e-08
-1.367e-07
-8.67961e-08
-1.33307e-07
-1.02509e-07
-1.30067e-07
-1.17828e-07
-1.26985e-07
-1.32776e-07
-1.24065e-07
-1.47376e-07
-1.2131e-07
-1.61652e-07
-1.18719e-07
-1.75627e-07
-1.16293e-07
-1.89324e-07
-1.1403e-07
-2.02767e-07
-1.11925e-07
-2.15978e-07
-1.09975e-07
-2.2898e-07
-1.08174e-07
-2.41796e-07
-1.06517e-07
-2.54446e-07
-1.04994e-07
-2.66951e-07
-1.036e-07
-2.79331e-07
-1.02324e-07
-2.91606e-07
-1.0116e-07
-3.03795e-07
-1.00098e-07
-3.15917e-07
-9.91324e-08
-3.27994e-07
-9.82574e-08
-3.40047e-07
-9.74922e-08