/*--------------------------------*- C++ -*----------------------------------*\
  =========                 |
  \\      /  F ield         | OpenFOAM: The Open Source CFD Toolbox
   \\    /   O peration     | Website:  https://openfoam.org
    \\  /    A nd           | Version:  8
     \\/     M anipulation  |
\*---------------------------------------------------------------------------*/
FoamFile
{
    version     2.0;
    format      ascii;
    class       volScalarField;
    location    "220/fluid";
    object      Qdot;
}
// * * * * * * * * * * * * * * * * * * * * * * * * * * * * * * * * * * * * * //

dimensions      [1 -1 -3 0 0 0 0];

internalField   nonuniform List<scalar> 
4000
(
0
7.00848e-13
-1.79992e-12
-6.79833e-12
-6.33196e-12
0
0
0
-1.27458e-10
0
0
-2.99348e-10
1.03781e-18
0
-1.25151e-09
4.0037e-07
-6.12938e-17
-5.20037e-09
-6.14472e-15
3.33667e-08
5.48259e-07
6.71057e-06
7.89529e-05
0.000827328
0.00725779
0.0526811
0.31662
1.59035
6.76715
24.7642
79.1048
223.601
565.981
1295.52
2702.12
5164.03
9106.04
15005.6
23348.1
34617.5
49433.9
68648.4
93408.4
125276
166391
219621
288819
379049
496947
651156
852962
1.11709e+06
1.46282e+06
1.91534e+06
2.50766e+06
3.28302e+06
4.29804e+06
5.62685e+06
7.36651e+06
9.64394e+06
1.26051e+07
1.64244e+07
2.15082e+07
2.81431e+07
3.6771e+07
4.13971e+08
2.92488e+07
2.1351e+07
1.53739e+07
1.08944e+07
7.58008e+06
5.16593e+06
3.44105e+06
2.23835e+06
1.42707e+06
907910
559004
120896
6797.51
142.917
1.52883
0.0117385
0.000114562
2.47901e-06
1.46953e-07
2.12519e-08
5.04252e-09
1.58982e-09
6.83509e-10
2.82203e-10
1.1076e-10
4.77424e-11
1.80396e-11
7.74639e-12
4.47087e-12
1.34815e-12
5.85474e-13
5.66552e-12
7.11566e-14
1.32501e-14
0
2.04299e-17
0
8.8659e-17
-1.40235e-11
-3.22896e-07
-5.96507e-11
3.41345e-07
5.62502e-11
2.40749e-19
2.33952e-10
5.29948e-10
0
0
-2.07306e-18
3.90589e-07
-7.22126e-17
-6.62551e-16
5.11239e-09
4.69746e-08
6.08836e-07
7.15621e-06
8.74831e-05
0.000908818
0.00792019
0.0571963
0.342525
1.71612
7.28902
26.6365
84.9829
239.931
606.504
1385.95
2884.13
5493.95
9640.59
15793.9
24445.7
36051.7
51218.8
70798.4
95947.9
128271
169963
223972
294242
385956
505904
662955
868715
1.13839e+06
1.49198e+06
1.95577e+06
2.56452e+06
3.36416e+06
4.41571e+06
5.80048e+06
7.62738e+06
1.00431e+07
1.32042e+07
1.73948e+07
2.30777e+07
3.06655e+07
4.55566e+07
3.91771e+08
2.80598e+07
2.04416e+07
1.46818e+07
1.03707e+07
7.18671e+06
4.87402e+06
3.22837e+06
2.08766e+06
1.32529e+06
845902
453347
69231.2
2760.94
45.2986
0.405701
0.00305199
3.56782e-05
1.0432e-06
8.30842e-08
1.40494e-08
3.95198e-09
1.42794e-09
4.85945e-10
2.45768e-10
9.38776e-11
4.69952e-11
1.81162e-11
7.20832e-12
3.14712e-12
1.34771e-12
5.1264e-13
1.79367e-13
-5.19445e-12
1.19011e-14
3.7157e-13
-2.77108e-07
0
8.78904e-17
6.21978e-12
3.18319e-07
-2.63082e-11
6.61995e-11
1.25944e-11
-2.34693e-19
0
-2.83493e-10
-3.62609e-07
0
9.55124e-10
-1.21458e-17
5.69758e-14
-7.71478e-16
-8.31332e-15
5.43642e-08
7.16008e-07
8.46865e-06
0.000100819
0.001039
0.0089915
0.064574
0.385021
1.92265
8.14596
29.7115
94.6468
266.836
673.476
1535.96
3187.3
6045.89
10543.7
17151.5
26373.1
38638.9
54555.4
74995.7
101162
134748
178067
234229
307370
402923
528004
691916
906859
1.18886e+06
1.55902e+06
2.04521e+06
2.68435e+06
3.52551e+06
4.63419e+06
6.09839e+06
8.03721e+06
1.06135e+07
1.3984e+07
1.85993e+07
2.48726e+07
3.35074e+07
1.1711e+08
3.01e+08
2.70185e+07
1.94646e+07
1.38367e+07
9.67735e+06
6.64038e+06
4.45863e+06
2.92369e+06
1.87341e+06
1.18355e+06
761295
297508
30709
904.973
12.325
0.103597
0.000876712
1.34412e-05
5.33802e-07
5.38433e-08
1.11859e-08
3.2743e-09
1.207e-09
4.72914e-10
1.94767e-10
7.75189e-11
4.09354e-11
1.60116e-11
7.13123e-12
-3.10287e-12
1.13594e-12
4.90288e-13
1.80262e-13
5.41383e-14
1.05705e-14
-4.86214e-18
0
0
0
7.56862e-12
3.69618e-16
0
0
6.63444e-11
3.40752e-07
3.45813e-07
-2.25228e-10
3.53528e-07
-3.5909e-07
9.28585e-10
3.64104e-07
-2.33039e-09
-8.84666e-16
3.85797e-07
6.14309e-08
8.25683e-07
1.00316e-05
0.000117484
0.00120551
0.0103966
0.0744016
0.442221
2.20233
9.30989
33.8926
107.787
303.394
764.361
1739.05
3595.88
6783.47
11744.1
18962.5
28939
42086
59023.3
80656.2
108272
143693
189399
248725
326081
427258
559836
733742
962004
1.26175e+06
1.65553e+06
2.17311e+06
2.85376e+06
3.74945e+06
4.92896e+06
6.48346e+06
8.53395e+06
1.12413e+07
1.47343e+07
1.94388e+07
2.56688e+07
3.39177e+07
3.31578e+08
1.41042e+08
2.54618e+07
1.8176e+07
1.27924e+07
8.85343e+06
6.00901e+06
3.98981e+06
2.58775e+06
1.643e+06
1.03511e+06
656870
172372
11375.8
258.572
2.9864
0.0243877
0.000240672
4.92448e-06
2.65528e-07
3.42314e-08
7.98083e-09
2.44606e-09
9.68792e-10
4.05603e-10
1.80305e-10
6.99518e-11
3.17419e-11
1.42044e-11
5.40678e-12
2.37676e-12
9.89321e-13
3.64021e-13
-6.45217e-13
5.46903e-14
-7.36563e-13
-2.64414e-07
2.02119e-17
0
0
-3.02734e-07
0
-5.35345e-20
0
-3.28895e-07
0
-4.55477e-19
0
-5.44543e-10
0
2.00821e-09
-1.524e-17
-2.25607e-09
-1.03473e-15
-1.12916e-14
8.48007e-08
9.88174e-07
1.18332e-05
0.000138264
0.00141862
0.0121954
0.0869925
0.5155
2.56048
10.7993
39.2376
124.566
350.009
879.996
1996.48
4110.24
7700.61
13220.2
21180.3
32053.7
46242
64389.9
87453.4
116833
154515
203183
266446
349054
457252
599215
785689
1.03081e+06
1.35323e+06
1.77758e+06
2.33647e+06
3.07309e+06
4.0447e+06
5.32723e+06
7.02123e+06
9.25958e+06
1.221e+07
1.60403e+07
2.11979e+07
2.79351e+07
3.66264e+07
4.46767e+08
3.26489e+07
2.33983e+07
1.65629e+07
1.15547e+07
7.92331e+06
5.32627e+06
3.50204e+06
2.2507e+06
1.42046e+06
898893
510405
86099.2
3821.47
70.1581
0.720093
0.00608583
7.37799e-05
2.0382e-06
1.45535e-07
2.2403e-08
5.93331e-09
2.20059e-09
7.92098e-10
3.32872e-10
1.50751e-10
5.87206e-11
2.22593e-11
1.0743e-11
3.71562e-12
2.07637e-12
8.3371e-13
3.1626e-13
1.21489e-13
4.33066e-14
7.9173e-15
-2.64069e-07
0
0
-5.87306e-12
-1.34369e-11
3.0647e-07
3.09293e-11
0
6.38412e-11
0
0
-2.1426e-10
-1.26049e-14
0
-1.07558e-09
3.44434e-07
-1.34198e-16
-1.18968e-15
-1.31941e-14
7.82444e-08
1.17668e-06
1.37285e-05
0.00016458
0.00168389
0.0144418
0.102742
0.607199
3.00846
12.6606
45.9104
145.485
408.021
1023.5
2314.38
4739.63
8804.23
14972
23802.4
35693.9
51053.8
70563.2
95247.6
126649
166932
219025
286838
375511
491800
644574
845524
1.11009e+06
1.45875e+06
1.9187e+06
2.52625e+06
3.32997e+06
4.39518e+06
5.81015e+06
7.69496e+06
1.02143e+07
1.35488e+07
1.80019e+07
2.42268e+07
3.27573e+07
5.67841e+07
3.80185e+08
2.91781e+07
2.09297e+07
1.47874e+07
1.0272e+07
7.00116e+06
4.6723e+06
3.04828e+06
1.94568e+06
1.22531e+06
784653
339047
37787.2
1236.73
18.9649
0.179997
0.00164483
2.50672e-05
9.27342e-07
8.45343e-08
1.61792e-08
4.41206e-09
1.54651e-09
7.09596e-10
2.95304e-10
1.22864e-10
5.54391e-11
2.1277e-11
9.51932e-12
3.96026e-12
1.67059e-12
6.90826e-13
2.93471e-13
1.15823e-13
3.65042e-14
6.8962e-15
0
-1.53104e-12
0
0
0
1.4964e-11
0
1.05472e-19
0
0
-3.22334e-07
0
4.20237e-10
0
-8.49192e-10
-3.31641e-07
-2.11517e-09
-1.38274e-15
7.81717e-09
9.83572e-08
1.56309e-06
1.65369e-05
0.000196568
0.00200949
0.0172034
0.122115
0.720011
3.55949
14.9494
54.112
171.181
479.201
1199.15
2701.4
5497.53
10107.6
17010.9
26835.2
39846.9
56485.9
77468.4
103921
137542
180690
236555
309358
404647
529701
694087
910419
1.19536e+06
1.57102e+06
2.06672e+06
2.72158e+06
3.58782e+06
4.73546e+06
6.2588e+06
8.2856e+06
1.09902e+07
1.45227e+07
1.92502e+07
2.57923e+07
3.47016e+07
2.35045e+08
2.24228e+08
2.70583e+07
1.92005e+07
1.34345e+07
9.24697e+06
6.24618e+06
4.13173e+06
2.67321e+06
1.69534e+06
1.06731e+06
684454
201204
15519.8
401.172
5.31406
0.0486766
0.000500441
9.71284e-06
4.69347e-07
5.39243e-08
1.12343e-08
3.49581e-09
1.32949e-09
5.75734e-10
2.40506e-10
1.08904e-10
4.19357e-11
2.03026e-11
8.22826e-12
2.50843e-12
7.49764e-13
-4.8673e-12
2.56887e-13
9.91846e-14
2.93559e-14
5.93445e-15
-2.63358e-07
0
0
7.09406e-12
-1.72232e-16
-3.50888e-16
-5.44086e-11
6.07773e-11
3.10495e-07
3.12914e-07
0
0
0
-1.0086e-09
3.20528e-07
-2.08053e-17
-4.87654e-14
-1.59502e-15
1.16938e-08
-4.39032e-08
1.3091e-06
1.96386e-05
0.000235327
0.00240431
0.0205585
0.145672
0.857248
4.23006
17.7357
64.0995
202.477
565.852
1412.5
3168.72
6400.51
11646.8
19409.3
30291.6
44510.6
62512.2
85057.6
113396
149395
195622
255534
333678
436027
570408
747123
979747
1.28622e+06
1.6903e+06
2.22343e+06
2.92732e+06
3.85726e+06
5.08648e+06
6.71188e+06
8.86133e+06
1.17028e+07
1.53536e+07
2.01738e+07
2.6663e+07
3.51221e+07
4.26375e+08
7.55136e+07
2.50245e+07
1.76099e+07
1.22224e+07
8.3465e+06
5.59413e+06
3.67242e+06
2.35989e+06
1.49035e+06
941643
570430
116577
6267.39
134.233
1.58858
0.0145911
0.000173291
4.27521e-06
2.64431e-07
3.65754e-08
8.59618e-09
2.96559e-09
1.11808e-09
4.69248e-10
2.14046e-10
8.94963e-11
3.62689e-11
1.69849e-11
6.59757e-12
3.14833e-12
1.274e-12
5.89807e-12
2.119e-13
8.78549e-14
-7.30944e-13
4.92267e-15
-2.62995e-07
0
-5.86268e-21
0
0
0
-7.01742e-16
5.97068e-11
0
3.06203e-07
5.78066e-15
8.32061e-19
3.97666e-10
-3.09186e-07
9.8053e-10
4.66945e-14
-1.95307e-16
3.16884e-07
1.05111e-08
1.43005e-07
1.80046e-06
2.35769e-05
0.000281527
0.00287707
0.0245845
0.173981
1.02238
5.03795
21.0973
76.1672
240.342
670.741
1670.34
3729.77
7467.15
13430
22156.9
34183.2
49678.4
69102.8
93276.6
123590
162076
211523
275648
359327
468956
612935
802337
1.0518e+06
1.38074e+06
1.81494e+06
2.38875e+06
3.14795e+06
4.15369e+06
5.48768e+06
7.25926e+06
9.6147e+06
1.27344e+07
1.68029e+07
2.23541e+07
2.97257e+07
3.94437e+07
4.42397e+08
3.12806e+07
2.23637e+07
1.57635e+07
1.09374e+07
7.45568e+06
4.98307e+06
3.26047e+06
2.08941e+06
1.32021e+06
843244
433576
63671.1
2597.82
47.6445
0.519424
0.00493479
6.87148e-05
2.12676e-06
1.63227e-07
2.60346e-08
6.82278e-09
2.44153e-09
9.10556e-10
3.65236e-10
1.86385e-10
7.92451e-11
3.11681e-11
1.46064e-11
5.79072e-12
2.61767e-12
6.48527e-12
4.66602e-13
1.99486e-13
5.29364e-12
7.82106e-13
5.04234e-12
-6.92367e-22
0
2.76153e-07
-1.26378e-11
-2.86552e-07
0
0
-1.06336e-10
0
0
2.99895e-07
0
0
0
1.72089e-09
-2.91506e-17
3.0256e-07
-2.11239e-15
1.01002e-08
1.7228e-07
2.16231e-06
2.81274e-05
0.000335788
0.00343602
0.0293558
0.207607
1.21895
6.00199
25.1192
90.6455
285.889
797.114
1980.61
4399.88
8715.35
15471
25271.3
38514.8
55346.1
76232.3
102086
134440
175492
228237
296624
385827
502613
655880
857366
1.12262e+06
1.47231e+06
1.93402e+06
2.54464e+06
3.35374e+06
4.42819e+06
5.85864e+06
7.76864e+06
1.03278e+07
1.37157e+07
1.82507e+07
2.45992e+07
3.33081e+07
7.35575e+07
3.69765e+08
2.85533e+07
2.03691e+07
1.43262e+07
9.9153e+06
6.73945e+06
4.4902e+06
2.92902e+06
1.8734e+06
1.18617e+06
766661
313207
34148.5
1129.45
18.2321
0.18826
0.00189308
3.10323e-05
1.18318e-06
1.08936e-07
2.03058e-08
5.4206e-09
2.14712e-09
9.03939e-10
3.38087e-10
1.54441e-10
7.4235e-11
3.00848e-11
1.13963e-11
6.57129e-12
2.32971e-12
1.07786e-12
-4.86734e-12
1.6948e-13
5.90658e-14
2.12958e-14
3.58353e-15
0
0
-5.78539e-21
0
0
0
0
9.81464e-20
2.92051e-07
0
0
-3.75933e-10
2.91608e-07
0
9.17016e-10
1.49035e-09
-2.43756e-16
-2.4116e-15
1.3373e-08
1.94806e-07
2.28525e-06
3.33307e-05
0.00039883
0.00408673
0.0349296
0.247015
1.45012
7.1399
29.8857
107.878
340.32
948.56
2352.14
5194.84
10157.1
17769.6
28755.6
43274.2
61484.5
83874.3
111470
145945
189659
245793
318498
413192
536940
699006
911578
1.19076e+06
1.55789e+06
2.04132e+06
2.67888e+06
3.52113e+06
4.63596e+06
6.11488e+06
8.08179e+06
1.07054e+07
1.41448e+07
1.87229e+07
2.50694e+07
3.36575e+07
2.27833e+08
2.44367e+08
2.67758e+07
1.90076e+07
1.33089e+07
9.17281e+06
6.21003e+06
4.12191e+06
2.68002e+06
1.71106e+06
1.08604e+06
704544
220402
18610.9
521.952
7.59183
0.0759995
0.000821258
1.57943e-05
7.2508e-07
7.76537e-08
1.64649e-08
4.8353e-09
1.74052e-09
7.50458e-10
3.35263e-10
1.34175e-10
5.60118e-11
3.30419e-11
1.13503e-11
4.5887e-12
2.02353e-12
8.83062e-13
3.7112e-13
1.40742e-13
-7.00725e-13
1.99809e-14
3.25864e-15
4.80882e-18
0
8.00597e-17
2.76573e-07
0
2.82474e-07
0
-1.34161e-15
0
0
2.84816e-07
0
3.63577e-10
-2.1126e-14
-9.05586e-18
-3.60986e-17
2.78093e-07
-6.38788e-09
1.91968e-08
2.33842e-07
2.92271e-06
3.93172e-05
0.000470744
0.00483062
0.0413309
0.292474
1.71804
8.46544
35.4692
128.182
404.812
1128.7
2793.62
6127.71
11805.4
20345.5
32578
48410
68027.1
91968.8
121394
158111
204650
264358
341584
441967
572837
743767
967295
1.2599e+06
1.64328e+06
2.14605e+06
2.80603e+06
3.67325e+06
4.81403e+06
6.31637e+06
8.29691e+06
1.09091e+07
1.42962e+07
1.8734e+07
2.47868e+07
3.28155e+07
3.6023e+08
1.28977e+08
2.53433e+07
1.79244e+07
1.25035e+07
8.58586e+06
5.79184e+06
3.8315e+06
2.48435e+06
1.58431e+06
1.00873e+06
642474
159869
10479.9
257.642
3.44977
0.0341286
0.000399714
8.92929e-06
4.83734e-07
5.87824e-08
1.30377e-08
4.0466e-09
1.54012e-09
6.95747e-10
2.89061e-10
1.3837e-10
5.03707e-11
2.5233e-11
1.1291e-11
4.18591e-12
1.73974e-12
7.85841e-13
3.49654e-13
1.35711e-13
5.36924e-14
1.71866e-14
2.92712e-15
0
0
0
0
1.11311e-11
-1.12048e-11
0
0
1.10628e-10
0
0
-2.75428e-07
4.3278e-10
2.7132e-07
-8.72726e-18
3.07567e-09
-3.06304e-09
6.11292e-09
1.83296e-08
2.56713e-07
3.4262e-06
4.5671e-05
0.000550376
0.00566267
0.0485299
0.343887
2.02287
9.98365
41.91
151.779
480.294
1340.53
3311.76
7202.68
13655.4
23191.4
36642.4
53794.4
74820.3
100362
131715
170835
220419
283989
366106
472658
611289
791951
1.02765e+06
1.33541e+06
1.73757e+06
2.26347e+06
2.95167e+06
3.85289e+06
5.03391e+06
6.58206e+06
8.6103e+06
1.1272e+07
1.46969e+07
1.91693e+07
2.52046e+07
3.31006e+07
4.4948e+08
5.84545e+07
2.36336e+07
1.67434e+07
1.16869e+07
8.02405e+06
5.40947e+06
3.57563e+06
2.31733e+06
1.47934e+06
947127
575287
115489
6196.87
136.772
1.71616
0.0170135
0.000216495
5.55144e-06
3.45782e-07
4.73717e-08
1.09478e-08
3.63593e-09
1.42418e-09
5.93385e-10
2.57193e-10
1.19651e-10
4.39416e-11
2.20076e-11
8.93159e-12
4.16403e-12
1.73335e-12
7.62508e-13
3.01935e-13
1.29311e-13
4.79809e-14
1.72623e-14
7.40388e-13
0
3.89809e-17
0
-1.59461e-16
0
-2.74318e-07
0
9.84414e-11
-1.84454e-19
2.71713e-07
0
0
0
1.50305e-09
-8.39771e-18
-3.87124e-14
-2.93214e-09
2.5676e-07
2.32787e-08
4.28427e-07
3.85118e-06
5.27484e-05
0.000636672
0.00656851
0.0564159
0.400586
2.36154
11.684
49.1868
178.682
567.077
1585.36
3907.97
8404.69
15621.5
26129
40750.1
59163.7
81566.6
108732
142087
183747
236569
304267
391631
504849
651945
843364
1.09275e+06
1.41798e+06
1.84245e+06
2.39692e+06
3.12179e+06
4.07017e+06
5.3119e+06
6.93724e+06
9.07239e+06
1.18786e+07
1.54599e+07
2.03045e+07
2.66888e+07
3.50856e+07
4.55698e+08
3.08194e+07
2.21019e+07
1.56517e+07
1.09249e+07
7.50213e+06
5.05904e+06
3.34562e+06
2.17069e+06
1.38985e+06
896853
509276
84481.8
3877.4
78.3316
0.934995
0.00937674
0.000129338
3.74648e-06
2.63692e-07
3.88283e-08
9.7134e-09
3.22825e-09
1.35366e-09
5.39572e-10
2.35738e-10
1.06541e-10
4.56124e-11
2.10662e-11
1.2486e-11
3.76139e-12
1.72428e-12
5.794e-12
5.42342e-12
1.17564e-13
4.80475e-14
1.58724e-14
-5.00922e-12
0
0
0
2.68719e-07
-2.69843e-07
-2.70182e-07
-6.34265e-16
0
1.9167e-10
-1.90027e-10
0
-6.98833e-19
-4.04517e-10
-1.36167e-18
-7.88446e-10
1.26853e-09
1.2566e-09
3.06598e-09
2.76446e-08
4.60932e-07
4.43775e-06
5.98555e-05
0.000726768
0.00752037
0.0647646
0.461083
2.72601
13.5313
57.1735
208.523
664.271
1860.9
4572.53
9681.6
17548.2
28910
44569.8
64097.2
87781.8
116528
151885
196119
252234
324136
416856
536901
692717
895314
1.1591e+06
1.50296e+06
1.95175e+06
2.5382e+06
3.30552e+06
4.31089e+06
5.63016e+06
7.36377e+06
9.64642e+06
1.26407e+07
1.65033e+07
2.17676e+07
2.87443e+07
3.81626e+07
4.42458e+08
2.8484e+07
2.05223e+07
1.45862e+07
1.0211e+07
7.02884e+06
4.74982e+06
3.14763e+06
2.04751e+06
1.31677e+06
857535
442844
63528.1
2580.57
48.5117
0.557668
0.00568843
8.45483e-05
2.72078e-06
2.11919e-07
3.42594e-08
8.90221e-09
2.99972e-09
1.11557e-09
5.31064e-10
2.49354e-10
1.05114e-10
4.50701e-11
1.86409e-11
8.04535e-12
3.73258e-12
1.43473e-12
6.37061e-13
-4.82906e-12
1.05802e-13
-7.03868e-13
1.44692e-14
2.43884e-15
-4.78162e-18
-2.77385e-21
-7.78435e-17
-1.1935e-11
2.24767e-20
-4.48904e-20
-8.94122e-20
-2.63189e-07
0
0
0
-2.50572e-07
-9.27372e-15
1.82499e-14
7.56171e-10
-1.21287e-09
-4.11719e-16
-4.15376e-15
2.09521e-08
3.6952e-07
5.0076e-06
6.69964e-05
0.000816423
0.00847592
0.0732115
0.522825
3.10156
15.455
65.5877
240.338
768.966
2158.59
5276.15
10918.6
19154.4
31132.8
47579.8
67994.4
92787.5
122964
160196
206852
266067
341906
439610
565961
729771
942529
1.21928e+06
1.57976e+06
2.04996e+06
2.66416e+06
3.46771e+06
4.52071e+06
5.90282e+06
7.72362e+06
1.0124e+07
1.32595e+07
1.73402e+07
2.29213e+07
3.03474e+07
5.29456e+07
4.1893e+08
2.68823e+07
1.93809e+07
1.37908e+07
9.66805e+06
6.66583e+06
4.51259e+06
2.99676e+06
1.9549e+06
1.26281e+06
828722
398344
49663.6
1835.86
32.5483
0.3639
0.00378255
6.0047e-05
2.11129e-06
1.77137e-07
2.96657e-08
7.876e-09
2.94036e-09
1.14214e-09
4.77924e-10
2.2373e-10
9.56028e-11
4.5743e-11
1.98614e-11
1.29486e-11
3.33379e-12
1.51649e-12
5.87455e-13
2.52904e-13
1.05576e-13
3.80933e-14
7.52867e-13
2.26932e-15
-2.00949e-13
-2.93708e-12
0
0
3.09141e-16
0
0
-2.57616e-07
1.82665e-10
2.50838e-07
0
6.95569e-10
-3.7622e-10
-2.51669e-18
-1.31292e-09
1.15724e-09
-4.34479e-16
5.00768e-09
3.46322e-08
4.01142e-07
5.3235e-06
7.36091e-05
0.000900409
0.00937682
0.0812391
0.582037
3.46541
17.3401
73.9359
272.307
875.225
2460.08
5957.93
11902
19989.5
32233.6
49101.1
70088.8
95712.3
127052
165860
214568
276403
355538
457362
588846
759038
979728
1.26632e+06
1.63902e+06
2.12435e+06
2.75729e+06
3.584e+06
4.66554e+06
6.0829e+06
7.94488e+06
1.0396e+07
1.35771e+07
1.7728e+07
2.33943e+07
3.09204e+07
8.60397e+07
3.86417e+08
2.57422e+07
1.85669e+07
1.32224e+07
9.28047e+06
6.40807e+06
4.34586e+06
2.89232e+06
1.89204e+06
1.22716e+06
810380
360538
40754.3
1401.28
23.7157
0.259618
0.0027471
4.60551e-05
1.73915e-06
1.55498e-07
2.80024e-08
7.55053e-09
2.78395e-09
1.15579e-09
4.92192e-10
2.09934e-10
9.07798e-11
4.1004e-11
1.81809e-11
7.15601e-12
3.30126e-12
1.46318e-12
5.83684e-13
2.61951e-13
1.05244e-13
4.2194e-14
1.30644e-14
2.35488e-15
0
-3.83092e-17
-5.50736e-21
2.60755e-07
-2.32938e-11
1.03758e-11
4.58002e-11
4.05778e-11
-2.4823e-07
-2.43881e-07
-2.39095e-07
6.31698e-19
-8.60353e-15
-2.41362e-18
-9.43761e-18
-5.54217e-17
-2.10772e-07
4.73215e-09
2.79458e-08
4.40427e-07
5.78552e-06
7.91699e-05
0.000972176
0.0101518
0.0881986
0.633817
3.78676
19.0238
81.4845
301.565
973.125
2733.09
6509.55
12270.4
19404.5
31466.7
48332.1
69499.6
95549.9
127623
167492
217620
281269
362665
467272
602142
776417
1.00197e+06
1.29427e+06
1.67351e+06
2.1661e+06
2.80666e+06
3.64065e+06
4.72799e+06
6.14871e+06
8.00691e+06
1.04418e+07
1.35814e+07
1.76623e+07
2.32015e+07
3.05135e+07
1.29857e+08
3.52202e+08
2.47808e+07
1.79078e+07
1.27778e+07
8.98632e+06
6.21786e+06
4.22619e+06
2.81962e+06
1.85003e+06
1.20472e+06
799659
331349
35261
1149.13
18.7686
0.202291
0.00217067
3.79402e-05
1.51104e-06
1.42351e-07
2.60282e-08
7.35576e-09
2.64331e-09
1.12907e-09
5.00423e-10
2.09502e-10
9.4584e-11
4.03448e-11
1.65237e-11
7.45578e-12
3.36373e-12
-3.53695e-12
5.99628e-13
2.27529e-13
-4.90551e-12
3.63971e-14
1.23486e-14
2.27888e-15
0
2.91126e-12
0
0
-2.56235e-07
-4.27979e-20
5.88599e-16
2.46476e-07
-1.63302e-19
0
1.8322e-10
0
3.48027e-10
1.60958e-14
-9.0002e-18
-5.70261e-17
-4.75484e-16
4.45758e-09
3.29914e-08
4.54191e-07
6.12646e-06
8.34205e-05
0.00102497
0.0107243
0.0933745
0.672619
4.02964
20.3088
87.304
324.294
1048.65
2929.12
6757.61
12599.2
19883.6
28025.7
44464
65321.8
91244.9
123393
163524
214092
278343
360502
466022
601948
777382
1.00412e+06
1.29747e+06
1.67734e+06
2.16966e+06
2.8083e+06
3.6375e+06
4.71528e+06
6.11718e+06
7.94277e+06
1.03231e+07
1.3378e+07
1.73218e+07
2.26395e+07
2.96084e+07
1.67286e+08
3.24259e+08
2.39287e+07
1.73411e+07
1.24057e+07
8.74626e+06
6.0666e+06
4.13376e+06
2.76535e+06
1.81982e+06
1.18915e+06
792082
312309
32153
1010.81
16.1046
0.171705
0.0018599
3.34249e-05
1.37863e-06
1.32759e-07
2.52519e-08
7.28219e-09
2.57184e-09
1.05653e-09
4.47889e-10
2.00348e-10
8.98161e-11
3.8425e-11
1.7639e-11
7.66535e-12
3.30523e-12
2.10368e-12
5.74492e-13
2.3847e-13
9.2987e-14
3.91271e-14
1.30447e-14
2.28047e-15
-2.58821e-07
0
-2.57314e-07
0
-2.13297e-20
1.00432e-11
0
-8.6458e-11
0
-9.1028e-11
-1.77216e-10
2.17861e-07
2.71762e-10
5.26861e-10
5.1078e-10
-6.23378e-17
-2.86189e-14
4.18434e-09
3.0822e-08
4.62078e-07
6.23394e-06
8.55005e-05
0.00105187
0.0110196
0.0960606
0.692897
4.15752
20.9905
90.4078
336.321
1085.92
2989.18
6882.71
13147.8
20730
28031
36914.9
56865.7
81878.5
113118
152313
201861
264947
345726
449572
583423
756244
979634
1.26862e+06
1.64271e+06
2.12723e+06
2.75513e+06
3.56928e+06
4.62556e+06
5.9968e+06
7.77818e+06
1.00942e+07
1.30596e+07
1.68702e+07
2.19866e+07
2.86599e+07
1.86966e+08
3.094e+08
2.31932e+07
1.68459e+07
1.20751e+07
8.52855e+06
5.9258e+06
4.04476e+06
2.71063e+06
1.78719e+06
1.17012e+06
780549
303760
30802.3
951.745
14.9729
0.158766
0.0017277
3.14666e-05
1.31905e-06
1.28595e-07
2.44034e-08
7.0513e-09
2.64744e-09
1.0355e-09
4.36536e-10
2.01335e-10
8.55837e-11
3.88845e-11
1.59887e-11
6.54968e-12
3.10589e-12
1.37026e-12
5.2473e-13
-4.98057e-13
9.24592e-14
5.00251e-12
1.231e-14
2.10302e-15
0
0
-7.56088e-17
0
0
2.49536e-07
0
2.40916e-07
0
9.10231e-11
4.21059e-15
0
0
6.47509e-10
-8.56431e-18
-6.23342e-17
9.63637e-10
4.18406e-09
-1.50963e-07
4.66436e-07
6.14892e-06
8.53813e-05
0.00105157
0.011016
0.0960331
0.69272
4.15661
20.9867
90.3959
336.294
1085.89
2989.23
6883.26
13149.3
20732.9
28035.5
36921.8
56878.5
81899.9
113151
152363
201933
265049
345869
449768
583688
756600
980107
1.26925e+06
1.64352e+06
2.12828e+06
2.75646e+06
3.57094e+06
4.62758e+06
5.99919e+06
7.7809e+06
1.00972e+07
1.30625e+07
1.68724e+07
2.19872e+07
2.86586e+07
1.87119e+08
3.09266e+08
2.31937e+07
1.68469e+07
1.20757e+07
8.52876e+06
5.92576e+06
4.04462e+06
2.71049e+06
1.78709e+06
1.17005e+06
780511
303684
30792.4
951.334
14.9651
0.158676
0.00172674
3.14506e-05
1.31788e-06
1.29746e-07
2.4405e-08
7.05163e-09
2.64752e-09
1.07047e-09
4.36546e-10
1.95711e-10
8.55853e-11
3.88851e-11
1.59885e-11
7.24222e-12
3.01012e-12
1.37032e-12
5.691e-13
2.46703e-13
9.80833e-14
3.61504e-14
7.44997e-13
2.28025e-15
0
2.59596e-07
0
0
3.01161e-16
-4.27966e-20
0
0
2.42128e-07
-9.37592e-11
-4.35301e-15
0
-2.83142e-10
6.77464e-10
1.1963e-09
-2.33228e-09
-3.03125e-14
4.45701e-09
2.81697e-08
4.54127e-07
6.02576e-06
8.33257e-05
0.00102391
0.0107145
0.0932959
0.672107
4.02696
20.2975
87.2663
324.199
1048.5
2929.12
6758.24
12602.6
19890.5
28039.1
44489.5
65365.3
91313.9
123497
163676
214308
278646
360919
466592
602717
778412
1.00548e+06
1.29926e+06
1.67968e+06
2.17268e+06
2.81212e+06
3.64225e+06
4.72104e+06
6.12397e+06
7.95042e+06
1.03312e+07
1.33857e+07
1.73271e+07
2.26405e+07
2.96043e+07
1.6775e+08
3.23835e+08
2.39294e+07
1.73432e+07
1.2407e+07
8.74663e+06
6.06642e+06
4.1334e+06
2.76502e+06
1.81959e+06
1.18902e+06
792006
312081
32121.2
1009.45
16.0789
0.171409
0.00185689
3.3377e-05
1.37411e-06
1.33309e-07
2.49859e-08
7.14576e-09
2.65827e-09
1.02073e-09
4.47924e-10
2.10804e-10
8.45004e-11
3.69344e-11
1.83338e-11
7.66575e-12
3.22638e-12
1.34605e-12
5.49816e-13
2.48586e-13
9.61104e-14
3.62912e-14
1.30448e-14
2.10322e-15
-2.00651e-13
-1.31185e-12
-2.62752e-12
-2.60762e-07
-2.19028e-20
-2.57784e-07
4.57985e-11
1.70095e-19
2.48217e-07
0
0
0
-3.62062e-10
-5.75712e-10
-7.07747e-18
-5.54154e-17
-1.08014e-09
4.73155e-09
3.05099e-08
5.31052e-07
5.66832e-06
7.91391e-05
0.000970824
0.0101376
0.0880834
0.633059
3.78273
19.0066
81.425
301.404
972.813
2732.82
6510.1
12272.3
19411.5
31488.8
48372.5
69566.4
95653.3
127776
167712
217930
281698
363252
468067
603212
777843
1.00386e+06
1.29675e+06
1.67674e+06
2.17026e+06
2.81194e+06
3.64725e+06
4.73602e+06
6.15815e+06
8.01744e+06
1.04527e+07
1.35915e+07
1.76688e+07
2.32019e+07
3.05084e+07
1.3049e+08
3.51574e+08
2.47799e+07
1.79089e+07
1.27778e+07
8.98538e+06
6.2166e+06
4.22512e+06
2.8189e+06
1.84963e+06
1.20453e+06
799588
331020
35206.3
1146.65
18.7196
0.201718
0.00216478
3.78542e-05
1.50755e-06
1.42922e-07
2.57541e-08
7.18317e-09
2.57154e-09
1.12918e-09
4.81687e-10
2.04734e-10
8.91655e-11
4.22775e-11
1.71512e-11
7.77315e-12
3.26556e-12
1.40022e-12
6.24605e-13
2.27537e-13
9.91284e-14
5.04613e-12
1.30607e-14
2.10154e-15
-3.64448e-13
2.76175e-21
-2.63039e-07
0
-2.63054e-07
0
2.60099e-07
0
0
-3.38558e-19
-1.58874e-10
6.95515e-10
3.76188e-10
2.33041e-07
7.23835e-10
-1.42215e-09
-1.39964e-09
-2.76083e-09
3.19001e-08
4.01086e-07
5.4183e-06
7.33322e-05
0.000898654
0.00935857
0.0810899
0.581039
3.46
17.3162
73.8493
272.052
874.629
2459.06
5956.96
11902.1
19995
32254.1
49140.4
70155.3
95815.8
127205
166079
214876
276827
356114
458140
589888
760424
981560
1.26873e+06
1.64214e+06
2.12837e+06
2.7624e+06
3.59038e+06
4.67333e+06
6.09206e+06
7.95517e+06
1.04068e+07
1.35872e+07
1.77351e+07
2.33971e+07
3.09216e+07
8.65909e+07
3.85755e+08
2.57404e+07
1.85661e+07
1.32197e+07
9.27674e+06
6.40456e+06
4.34323e+06
2.89064e+06
1.89112e+06
1.22675e+06
810242
360137
40670.7
1397.24
23.633
0.25863
0.00273717
4.59176e-05
1.73589e-06
1.54964e-07
2.80068e-08
7.87497e-09
2.78426e-09
1.15591e-09
4.87846e-10
1.97953e-10
9.70141e-11
4.1008e-11
1.6049e-11
2.95481e-12
8.26013e-12
1.50401e-12
6.29362e-13
2.51702e-13
1.02681e-13
3.93354e-14
1.30652e-14
-4.99526e-12
0
0
0
0
0
2.3869e-11
0
9.44449e-11
0
8.30049e-11
0
2.50875e-07
3.90332e-10
-7.68079e-10
6.15184e-10
-1.21271e-09
-1.47193e-09
-2.37023e-09
2.3299e-08
4.87255e-07
4.87978e-06
6.68085e-05
0.000814538
0.00845542
0.0730392
0.521656
3.0951
15.4256
65.477
239.99
768.058
2156.65
5272.86
10914.3
19152.5
31141.2
47601.3
68035.3
92855
123067
160344
207059
266351
342288
440119
566634
730651
943675
1.22076e+06
1.58167e+06
2.0524e+06
2.66724e+06
3.47155e+06
4.52541e+06
5.90848e+06
7.73026e+06
1.01314e+07
1.32671e+07
1.73473e+07
2.29283e+07
3.03587e+07
5.3238e+07
4.18431e+08
2.68772e+07
1.93762e+07
1.37836e+07
9.65994e+06
6.65855e+06
4.507e+06
2.99294e+06
1.95254e+06
1.26147e+06
828029
397700
49517.7
1828.66
32.3988
0.362115
0.00376497
5.98196e-05
2.10546e-06
1.7646e-07
3.06204e-08
7.87718e-09
2.94073e-09
1.09487e-09
4.77973e-10
2.23753e-10
9.79206e-11
4.447e-11
1.8424e-11
7.96408e-12
3.33415e-12
1.47545e-12
5.87506e-13
-5.02305e-13
1.05585e-13
3.93855e-14
1.30578e-14
-4.99989e-12
-4.78865e-18
0
0
0
2.27619e-20
0
0
2.68842e-07
1.91661e-10
0
3.76055e-10
0
0
-6.49593e-10
-2.49656e-07
-1.55893e-09
-3.73964e-16
-5.55992e-09
2.21128e-08
4.60872e-07
4.4262e-06
5.96621e-05
0.000724713
0.00749893
0.0645822
0.459826
2.71892
13.4983
57.0453
208.102
663.092
1858.08
4566.81
9671.78
17535.7
28899.8
44562.3
64095.4
87788.4
116545
151915
196163
252293
324209
416942
536993
692806
895383
1.15912e+06
1.5029e+06
1.95156e+06
2.53779e+06
3.3048e+06
4.30971e+06
5.62828e+06
7.36138e+06
9.64349e+06
1.26377e+07
1.65017e+07
2.17706e+07
2.87577e+07
3.82295e+07
4.42277e+08
2.84707e+07
2.05086e+07
1.45729e+07
1.01998e+07
7.02047e+06
4.74415e+06
3.14408e+06
2.04545e+06
1.31565e+06
856983
442233
63319.6
2568.65
48.246
0.554364
0.00565623
8.41573e-05
2.71354e-06
2.10629e-07
3.38948e-08
8.71591e-09
3.17307e-09
1.25203e-09
5.11118e-10
2.50099e-10
1.05852e-10
4.34794e-11
2.08424e-11
8.04648e-12
4.10286e-12
1.62054e-12
6.83615e-13
2.77123e-13
1.17408e-13
4.51695e-14
1.44712e-14
5.00949e-12
2.61129e-07
2.79785e-21
2.68715e-07
0
2.45097e-11
-2.46078e-11
2.74646e-07
2.74399e-07
0
2.71806e-07
0
0
0
2.61746e-07
-8.39691e-18
-3.87084e-14
-3.47364e-16
7.30142e-14
2.64844e-08
3.01958e-07
3.71297e-06
5.24423e-05
0.000634826
0.00654739
0.0562356
0.399326
2.35432
11.6497
49.0503
178.219
565.725
1581.93
3900.4
8390.21
15598.9
26100.1
40712.5
59117
81509.8
108663
142000
183635
236420
304063
391351
504461
651407
842620
1.09173e+06
1.41659e+06
1.84061e+06
2.39453e+06
3.11879e+06
4.0666e+06
5.30797e+06
6.93309e+06
9.06908e+06
1.18782e+07
1.54657e+07
2.03209e+07
2.67199e+07
3.51307e+07
4.55519e+08
3.08119e+07
2.20897e+07
1.564e+07
1.09156e+07
7.49561e+06
5.05476e+06
3.34298e+06
2.16912e+06
1.38895e+06
896361
508544
84193.7
3857.33
77.8375
0.928512
0.00931375
0.000128611
3.7311e-06
2.62387e-07
3.8908e-08
9.90761e-09
3.22881e-09
1.31294e-09
5.85161e-10
2.4354e-10
1.06558e-10
4.56215e-11
2.18033e-11
8.8644e-12
8.90427e-12
6.01672e-12
6.86856e-13
2.65038e-13
1.05917e-13
5.14103e-12
-7.29458e-13
2.784e-15
-6.89415e-22
0
0
-1.15558e-20
2.33303e-20
-2.49752e-11
2.79467e-07
-9.44303e-20
-1.10623e-10
-2.61994e-15
5.21323e-15
0
-2.73727e-07
6.98843e-10
-6.93877e-10
-3.75934e-17
-3.11034e-16
-3.08636e-15
1.83274e-08
3.89729e-07
3.42576e-06
4.55062e-05
0.000548497
0.00564342
0.0483626
0.342701
2.01599
9.95046
41.7753
151.312
478.892
1336.85
3303.28
7185.53
13626.2
23149.3
36582.4
53713.9
74715.8
100228
131544
170614
220130
283607
365597
471975
610367
790703
1.02596e+06
1.33312e+06
1.7345e+06
2.25938e+06
2.9463e+06
3.84601e+06
5.02537e+06
6.57186e+06
8.59903e+06
1.12611e+07
1.4688e+07
1.91664e+07
2.52119e+07
3.31186e+07
4.4927e+08
5.79511e+07
2.35956e+07
1.67148e+07
1.16688e+07
8.01371e+06
5.40407e+06
3.57301e+06
2.31612e+06
1.47881e+06
946908
574634
115079
6159.96
135.762
1.70205
0.0168755
0.000214991
5.51772e-06
3.44479e-07
4.73844e-08
1.11112e-08
3.63599e-09
1.33288e-09
5.98481e-10
2.70185e-10
1.19674e-10
4.90853e-11
2.20121e-11
9.68951e-12
3.78586e-12
1.73362e-12
7.83893e-13
3.01991e-13
-5.02966e-12
-7.04937e-13
1.58217e-14
2.76908e-15
-3.67112e-13
3.00071e-12
0
-1.24061e-11
0
1.39723e-11
0
5.64633e-11
-1.13086e-10
0
0
0
0
0
-9.05508e-18
-3.91032e-17
3.1932e-09
-2.73872e-15
1.91947e-08
2.2806e-07
2.74955e-06
3.90491e-05
0.000469016
0.00481373
0.0411843
0.291423
1.71186
8.43525
35.3449
127.745
403.477
1125.12
2785.17
6110.09
11774
20297.6
32507.5
48313.4
67900.8
91808.3
121192
157859
204335
263962
341084
441334
572033
742744
965992
1.25824e+06
1.64116e+06
2.14334e+06
2.80257e+06
3.66883e+06
4.80837e+06
6.30916e+06
8.28761e+06
1.0897e+07
1.42811e+07
1.87135e+07
2.47563e+07
3.27644e+07
3.61242e+08
1.2767e+08
2.53207e+07
1.79104e+07
1.2497e+07
8.58379e+06
5.79174e+06
3.83196e+06
2.48476e+06
1.5845e+06
1.00877e+06
642115
159284
10408.1
255.412
3.41614
0.0337953
0.000396316
8.87607e-06
4.79561e-07
5.8475e-08
1.28391e-08
4.04828e-09
1.62892e-09
6.52954e-10
3.0865e-10
1.27579e-10
5.5597e-11
2.52387e-11
1.05202e-11
4.57049e-12
1.8458e-12
1.41265e-14
3.49728e-13
1.29235e-13
5.95596e-14
1.71906e-14
2.92785e-15
0
0
-5.78535e-21