/*--------------------------------*- C++ -*----------------------------------*\
  =========                 |
  \\      /  F ield         | OpenFOAM: The Open Source CFD Toolbox
   \\    /   O peration     | Website:  https://openfoam.org
    \\  /    A nd           | Version:  8
     \\/     M anipulation  |
\*---------------------------------------------------------------------------*/
FoamFile
{
    version     2.0;
    format      ascii;
    class       volScalarField;
    location    "220/fluid";
    object      rDeltaT;
}
// * * * * * * * * * * * * * * * * * * * * * * * * * * * * * * * * * * * * * //

dimensions      [0 0 -1 0 0 0 0];

internalField   nonuniform List<scalar> 
4000
(
513.068
538.242
562.332
585.541
607.841
629.156
649.387
668.418
686.132
702.433
717.266
730.645
742.675
753.575
763.685
773.459
783.264
793.313
803.592
813.822
823.492
831.949
838.521
842.623
843.827
841.911
836.804
828.527
817.186
802.96
786.071
766.776
745.347
722.06
697.186
670.987
661.39
677.925
703.038
728.079
753.167
778.416
803.93
829.804
856.123
882.962
910.381
938.428
967.137
996.528
1026.6
1057.35
1088.73
1120.7
1153.19
1186.09
1219.28
1252.61
1285.91
1318.97
1351.5
1383.23
1414.08
1443.64
1471.82
16629.1
1503
1489.06
1468.53
1441.46
1407.98
1368.13
1321.99
1269.78
1211.91
1149.05
1081.99
1012.01
941.386
873.202
811.092
759.287
721.056
696.932
684.239
678.621
675.906
673.188
668.864
662.24
653.274
642.209
629.37
615.073
599.589
583.139
565.895
547.984
529.464
510.105
512.662
537.266
560.668
582.89
603.931
623.733
642.223
659.324
674.971
689.136
701.844
713.204
723.418
732.796
741.756
750.695
759.947
769.694
779.892
790.231
800.168
809.017
816.065
820.684
822.412
820.959
816.183
808.088
796.787
782.476
765.404
745.849
724.104
700.463
675.209
648.614
635.465
649.301
675.931
702.478
729.052
755.762
782.713
809.999
837.71
865.922
894.702
924.107
954.179
984.947
1016.43
1048.62
1081.5
1115.04
1149.18
1183.85
1218.94
1254.33
1289.86
1325.32
1360.36
1394.78
1428.33
1460.38
1664.83
15995.8
1518.69
1497.14
1470.93
1439.25
1401.66
1357.9
1307.85
1251.54
1189.28
1121.62
1049.26
973.831
898.268
826.606
763.647
713.706
679.209
659.247
650.054
647.072
646.489
645.894
644.026
640.271
634.395
626.454
616.62
605.098
592.086
577.766
562.29
545.78
528.286
509.697
512.061
535.33
557.24
577.837
597.089
614.948
631.368
646.316
659.782
671.801
682.465
691.947
700.51
708.499
716.31
724.311
732.828
742.045
751.914
762.122
772.119
781.209
788.664
793.83
796.189
795.375
791.19
783.6
772.7
758.677
741.773
722.269
700.46
676.64
651.1
624.115
608.903
621.695
650.091
678.474
706.94
735.586
764.507
793.791
823.524
853.783
884.636
916.141
948.348
981.293
1015
1049.48
1084.74
1120.74
1157.46
1194.84
1232.79
1271.21
1309.95
1348.82
1387.37
1425.6
1462.88
1498.48
3968.7
12730
1544.11
1514.93
1481.18
1442.14
1397.36
1346.56
1289.63
1226.63
1157.93
1084.18
1006.36
926.724
848.814
777.14
716.631
670.971
641.214
625.254
618.941
617.98
619.016
619.976
619.812
618.056
614.49
609.068
601.841
592.904
582.368
570.346
556.945
542.263
526.361
509.106
511.46
533.517
554.139
573.36
591.162
607.516
622.398
635.802
647.745
658.285
667.534
675.673
682.965
689.751
696.427
703.397
710.999
719.41
728.572
738.158
747.604
756.205
763.221
767.992
769.995
768.877
764.452
756.679
745.631
731.473
714.423
694.741
672.701
648.583
622.665
595.213
581.455
596.849
626.993
657.235
687.657
718.343
749.377
780.842
812.814
845.367
878.567
912.471
947.131
982.584
1018.86
1055.97
1093.93
1132.71
1172.28
1212.59
1253.56
1295.07
1336.96
1379.05
1420.83
1462.33
1503.02
1542.71
12307.9
6347.8
1557.76
1523.36
1483.31
1437.5
1385.75
1328.02
1264.41
1195.21
1121.08
1042.83
961.911
881.138
804.343
735.965
680.261
639.969
615.081
602.796
598.912
599.507
601.663
603.616
604.441
603.713
601.277
597.115
591.27
583.805
574.789
564.287
552.368
539.098
524.515
508.498
510.809
531.534
550.764
568.537
584.839
599.65
612.962
624.783
635.151
644.143
651.893
658.604
664.556
670.107
675.661
681.624
688.325
695.928
704.36
713.281
722.119
730.162
736.67
740.975
742.554
741.046
736.258
728.142
716.763
702.271
684.874
664.816
642.359
617.769
591.311
563.241
553.089
573.358
605.216
637.296
669.667
702.402
735.574
769.256
803.519
838.428
874.044
910.422
947.606
985.634
1024.53
1064.31
1104.97
1146.48
1188.81
1231.88
1275.59
1319.76
1364.18
1408.5
1452.19
1495.08
1536.21
1574.69
17869.1
1599.08
1566.01
1525.63
1479.04
1426.55
1368.25
1304.25
1234.84
1160.54
1082.18
1000.72
918.061
837.357
762.538
697.862
646.996
611.73
591.099
581.822
579.808
581.552
584.548
587.313
589.055
589.39
588.155
585.302
580.844
574.814
567.251
558.199
547.705
535.822
522.58
507.858
510.144
529.537
547.405
563.787
578.675
592.057
603.935
614.33
623.291
630.908
637.323
642.75
647.476
651.858
656.303
661.211
666.904
673.54
681.036
689.045
696.997
704.181
709.864
713.388
714.231
712.038
706.614
697.904
685.964
670.933
653.006
632.41
609.393
584.207
557.103
528.32
523.734
550.883
584.339
618.139
652.344
687.014
722.213
758.005
794.451
831.608
869.53
908.262
947.842
988.3
1029.65
1071.9
1115.03
1159
1203.76
1249.21
1295.2
1341.54
1387.94
1433.83
1478.75
1522.17
1562.51
2038.45
15647.3
1608.65
1567.3
1520.21
1467.32
1408.78
1344.76
1275.51
1201.45
1123.29
1041.97
958.669
875.68
796.369
724.655
664.491
618.871
588.659
572.094
565.596
565.257
567.958
571.549
574.797
577.048
577.985
577.471
575.462
571.957
566.972
560.528
552.647
543.359
532.703
520.699
507.226
509.462
527.487
543.971
558.952
572.425
584.384
594.839
603.818
611.381
617.625
622.705
626.841
630.327
633.527
636.846
640.683
645.351
650.995
657.523
664.578
671.585
677.834
682.599
685.227
685.207
682.187
675.975
666.516
653.859
638.137
619.533
598.263
574.562
548.669
520.82
491.943
494.123
528.629
563.553
598.936
634.827
671.279
708.345
746.079
784.533
823.754
863.787
904.668
946.425
989.077
1032.63
1077.07
1122.37
1168.48
1215.31
1262.75
1310.64
1358.74
1406.76
1454.01
1500.18
1544.78
1586.71
8360.67
9748.53
1599.79
1554.74
1503.56
1446.45
1383.68
1315.59
1242.62
1165.39
1084.77
1001.76
917.82
835.581
758.485
690.357
634.781
594.074
568.289
555.088
550.785
551.74
555.189
559.288
562.99
565.741
567.267
567.441
566.219
563.591
559.561
554.138
547.333
539.167
529.669
518.855
506.604
508.77
525.415
540.511
554.096
566.17
576.73
585.792
593.392
599.595
604.505
608.284
611.157
613.422
615.443
617.624
620.358
623.95
628.536
634.012
640.016
645.969
651.168
654.892
656.5
655.489
651.516
644.392
634.062
620.575
604.053
584.672
562.638
538.175
511.507
482.86
460.521
470.437
506.145
542.383
579.184
616.587
654.634
693.369
732.837
773.079
814.134
856.035
898.808
942.47
987.025
1032.47
1078.77
1125.88
1173.73
1222.21
1271.17
1320.41
1369.66
1418.56
1466.37
1512.9
1557.69
1599.85
16147.3
3483.63
1582.13
1534.58
1480.27
1419.88
1353.9
1282.82
1207.23
1127.91
1045.86
962.145
878.496
797.78
723.467
659.232
608.257
572.204
550.432
540.184
537.774
539.839
543.92
548.435
552.498
555.64
557.631
558.36
557.787
555.898
552.691
548.167
542.329
535.188
526.768
517.078
506
508.068
523.317
537.014
549.197
559.867
569.029
576.702
582.926
587.772
591.351
593.829
595.435
596.472
597.303
598.33
599.942
602.434
605.931
610.319
615.228
620.077
624.166
626.783
627.299
625.219
620.212
612.094
600.812
586.412
569.015
548.789
525.931
500.653
473.17
443.696
428.263
446.243
483.011
520.409
558.46
597.193
636.642
676.842
717.826
759.628
802.275
845.791
890.189
935.475
981.641
1028.66
1076.5
1125.09
1174.33
1224.08
1274.17
1324.34
1374.27
1423.43
1471.1
1517.07
1559.97
1598.25
17868.9
1608.57
1563.95
1512.27
1454.34
1390.73
1321.92
1248.46
1170.98
1090.34
1007.6
923.878
841.177
762.488
691.249
630.948
584.345
552.5
534.203
526.428
525.574
528.558
533.187
538.092
542.512
546.045
548.492
549.756
549.798
548.603
546.166
542.483
537.552
531.378
523.981
515.366
505.416
507.36
521.2
533.488
544.263
553.529
561.292
567.578
572.43
575.924
578.176
579.356
579.696
579.5
579.133
578.993
579.462
580.826
583.2
586.46
590.229
593.924
596.851
598.307
597.673
594.468
588.37
579.201
566.913
551.552
533.235
512.124
488.41
462.294
433.983
403.678
395.224
421.272
458.958
497.36
536.493
576.378
617.038
658.499
700.787
743.923
787.927
832.812
878.581
925.229
972.737
1021.07
1070.17
1119.96
1170.33
1221.12
1272.13
1323.09
1373.62
1423.01
1470.71
1516.14
1557.55
2590.87
15303.4
1590.35
1541.04
1485.77
1424.88
1358.77
1287.9
1212.82
1134.21
1052.98
970.188
887.047
805.792
729.466
661.451
605.016
562.512
534.461
519.199
513.543
514.022
517.807
522.938
528.22
532.993
536.91
539.798
541.572
542.197
541.659
539.948
537.058
532.985
527.73
521.307
513.719
504.854
506.645
519.064
529.934
539.293
547.147
553.508
558.403
561.88
564.02
564.942
564.82
563.889
562.455
560.88
559.561
558.87
559.088
560.317
562.422
565.022
567.533
569.265
569.525
567.706
563.341
556.116
545.864
532.539
516.189
496.929
474.916
450.335
423.378
394.244
363.125
361.468
395.323
433.79
473.049
513.106
553.972
595.662
638.194
681.584
725.845
770.987
817.013
863.917
911.685
960.286
1009.68
1059.79
1110.53
1161.79
1213.4
1265.15
1316.77
1367.91
1417.81
1466.07
1512.2
1554.85
8209.6
10518.8
1560.46
1509.9
1453.27
1391.08
1323.8
1251.95
1176.17
1097.23
1016.1
933.812
851.742
772.301
698.545
633.779
581.047
542.312
517.629
504.993
501.147
502.773
507.274
512.886
518.554
523.701
528.022
531.364
533.655
534.859
534.964
533.959
531.838
528.592
524.22
518.733
512.132
504.31
505.923
516.911
526.354
534.289
540.726
545.679
549.178
551.278
552.062
551.651
550.225
548.019
545.341
542.552
540.042
538.181
537.236
537.301
538.231
539.639
540.942
541.455
540.496
537.471
531.925
523.555
512.203
497.829
480.481
460.273
437.359
411.917
384.133
354.196
325.148
330.015
368.269
407.389
447.366
488.198
529.888
572.442
615.869
660.177
705.37
751.45
798.411
846.238
894.906
944.378
994.598
1045.49
1096.96
1148.87
1201.06
1253.31
1305.34
1356.8
1407.01
1455.57
1502.2
1545.81
13908.2
5715.11
1525.48
1474.79
1417.72
1355.02
1287.3
1215.17
1139.32
1060.6
980.051
898.689
818.039
740.635
669.534
607.946
558.694
523.385
501.682
491.326
489.047
491.683
496.847
502.934
509.007
514.552
519.301
523.117
525.934
527.722
528.466
528.157
526.786
524.346
520.831
516.25
510.601
503.785
505.197
514.743
522.75
529.254
534.266
537.806
539.907
540.626
540.049
538.304
535.57
532.088
528.162
524.152
520.447
517.405
515.286
514.173
513.914
514.115
514.196
513.477
511.288
507.046
500.311
490.792
478.338
462.914
444.572
423.425
399.623
373.339
344.753
314.046
290.328
301.314
340.034
379.688
420.256
461.727
504.097
547.364
591.529
636.589
682.543
729.383
777.095
825.655
875.03
925.171
976.015
1027.48
1079.45
1131.79
1184.33
1236.84
1289.04
1340.6
1390.82
1439.44
1486.12
1529.76
17608.9
2720.53
1488.83
1438.33
1381.28
1318.53
1250.77
1178.73
1103.17
1025
945.293
865.085
786.033
710.754
642.28
583.719
537.679
505.446
486.362
477.987
477.074
480.619
486.408
492.978
499.48
505.455
510.662
514.977
518.34
520.724
522.113
522.498
521.87
520.221
517.544
513.844
509.118
503.277
504.465
512.561
519.125
524.19
527.774
529.896
530.594
529.93
527.992
524.911
520.869
516.108
510.932
505.7
500.794
496.565
493.266
490.966
489.508
488.494
487.344
485.388
481.964
476.505
468.583
457.919
444.371
427.91
408.589
386.522
361.855
334.758
305.403
273.966
255.032
271.5
310.585
350.662
391.704
433.693
476.615
520.461
565.222
610.891
657.457
704.904
753.21
802.343
852.26
902.905
954.2
1006.05
1058.33
1110.88
1163.5
1215.92
1267.85
1318.84
1368.03
1415.5
1460.09
1500.57
18323.9
1504
1458.35
1405.93
1347.53
1283.9
1215.7
1143.58
1068.3
990.754
911.993
833.045
755.671
682.521
616.584
560.858
517.748
488.26
471.472
464.825
465.119
469.495
475.891
482.956
489.917
496.356
502.052
506.895
510.827
513.822
515.865
516.948
517.061
516.195
514.341
511.503
507.677
502.782
503.729
510.367
515.48
519.103
521.253
521.954
521.248
519.199
515.9
511.483
506.134
500.095
493.671
487.216
481.107
475.69
471.204
467.714
465.052
462.819
460.436
457.242
452.587
445.918
436.819
425.024
410.398
392.919
372.642
349.681
324.182
296.306
266.223
234.101
219.327
240.562
279.916
320.316
361.727
404.122
447.481
491.785
537.021
583.172
630.22
678.142
726.91
776.483
826.813
877.832
929.458
981.584
1034.07
1086.76
1139.42
1191.79
1243.52
1294.09
1342.73
1389.33
1432.54
1477.74
17857.5
1475.2
1427.28
1373.35
1313.98
1249.79
1181.37
1109.38
1034.55
957.78
880.077
802.476
726.824
655.769
592.249
539.15
498.691
471.636
456.857
451.717
453.089
458.241
465.237
472.817
480.268
487.205
493.426
498.826
503.352
506.978
509.69
511.478
512.333
512.245
511.207
509.217
506.271
502.3
502.989
508.162
511.82
513.996
514.709
513.988
511.878
508.445
503.785
498.036
491.382
484.069
476.398
468.723
461.413
454.807
449.135
444.452
440.585
437.132
433.52
429.094
423.217
415.351
405.091
392.183
376.502
358.031
336.828
313.007
286.71
258.097
227.33
194.573
183.278
208.507
248.041
288.672
330.355
373.058
416.75
461.407
507.009
553.532
600.951
649.239
698.361
748.27
798.912
850.216
902.091
954.426
1007.08
1059.87
1112.58
1164.93
1216.56
1266.83
1315.11
1361.13
1403.46
1898.16
17072.5
1443.86
1394.67
1339.87
1279.99
1215.62
1147.32
1075.74
1001.6
925.794
849.299
773.16
699.27
630.272
569.047
518.377
480.313
455.419
442.409
438.563
440.911
446.805
454.403
462.522
470.497
477.969
484.748
490.736
495.882
500.16
503.556
506.06
507.662
508.353
508.124
506.973
504.894
501.827
502.246
505.949
508.148
508.874
508.149
506.006
502.492
497.678
491.662
484.584
476.631
468.048
459.136
450.245
441.738
433.944
427.088
421.214
416.144
411.477
406.642
400.994
393.909
384.862
373.462
359.467
342.758
323.326
301.231
276.586
249.533
220.226
188.825
155.483
146.947
175.357
214.991
255.766
297.634
340.551
384.483
429.397
475.267
522.062
569.755
618.31
667.688
717.839
768.704
820.209
872.259
924.742
977.513
1030.39
1083.16
1135.52
1187.13
1237.28
1285.48
1331.35
1373.51
2978.35
15937.3
1409.41
1359.94
1305.02
1245.23
1181.14
1113.35
1042.49
969.29
894.65
819.511
744.927
672.832
605.845
546.79
498.356
462.449
439.469
428.048
425.329
428.565
435.17
443.373
452.052
460.581
468.62
475.989
482.595
488.387
493.34
497.438
500.67
503.028
504.501
505.081
504.762
503.539
501.363
501.501
503.73
504.467
503.742
501.581
498.017
493.103
486.911
479.545
471.144
461.899
452.053
441.907
431.805
422.106
413.131
405.094
398.033
391.766
385.891
379.843
372.986
364.711
354.504
341.99
326.934
309.23
288.871
265.922
240.495
212.729
182.777
150.791
116.92
110.396
141.149
180.802
221.643
263.611
306.658
350.742
395.824
441.871
488.848
536.722
585.454
635
685.308
736.316
787.946
840.106
892.679
945.524
998.463
1051.28
1103.69
1155.34
1205.54
1253.83
1299.89
1342.4
4502.56
14704.4
1372.33
1323.26
1268.82
1209.62
1146.25
1079.32
1009.49
937.484
864.203
790.564
717.63
647.354
582.324
525.308
478.912
444.936
423.668
413.676
411.987
416.04
423.324
432.13
441.387
450.496
459.131
467.121
474.374
480.839
486.49
491.309
495.286
498.41
500.671
502.061
502.573
502.2
500.905
500.754
501.506
500.781
498.606
495.01
490.029
483.72
476.157
467.446
457.731
447.201
436.102
424.73
413.426
402.542
392.392
383.18
374.939
367.482
360.408
353.159
345.111
335.665
324.323
310.721
294.638
275.972
254.724
230.961
204.796
176.365
145.816
113.298
100
100
105.922
145.523
186.351
228.341
271.437
315.589
360.754
406.891
453.964
501.932
550.753
600.382
650.763
701.832
753.511
805.708
858.307
911.168
964.119
1016.94
1069.37
1121.06
1171.34
1219.78
1266.11
1309.09
5901.5
13672.5
1333.95
1285.6
1231.94
1173.62
1111.25
1045.44
976.848
906.219
834.444
762.418
691.2
622.747
559.606
504.492
459.936
427.65
407.877
399.148
398.463
403.291
411.23
420.642
430.493
440.207
449.469
458.11
466.039
473.206
479.579
485.142
489.881
493.785
496.846
499.052
500.396
500.871
500.45
500.006
499.281
497.095
493.472
488.444
482.052
474.353
465.427
455.381
444.36
432.556
420.212
407.624
395.127
383.067
371.749
361.37
351.956
343.318
335.057
326.622
317.4
306.806
294.355
279.696
262.618
243.029
220.933
196.399
169.541
140.494
109.402
100
100
100
100
109.203
149.946
191.882
234.947
279.086
324.251
370.395
417.477
465.453
514.278
563.904
614.273
665.321
716.969
769.125
821.675
874.482
927.376
980.146
1032.53
1084.19
1134.49
1182.99
1229.48
1272.74
6676.97
13110.5
1295.41
1247.84
1195.06
1137.75
1076.51
1011.95
944.739
875.606
805.436
735.101
665.645
598.999
537.665
484.302
441.378
410.549
392.022
384.338
384.645
390.228
398.82
408.848
419.317
429.667
439.589
448.916
457.556
465.454
472.579
478.911
484.433
489.136
493.007
496.039
498.221
499.548
500
500.006
499.28
497.091
493.467
488.438
482.044
474.344
465.416
455.369
444.347
432.541
420.196
407.606
395.108
383.047
371.727
361.347
351.932
343.293
335.032
326.597
317.374
306.78
294.329
279.671
262.594
243.005
220.91
196.378
169.521
140.474
109.382
100
100
100
100
109.204
149.947
191.884
234.949
279.089
324.254
370.398
417.479
465.455
514.28
563.905
614.274
665.321
716.968
769.123
821.672
874.478
927.371
980.14
1032.52
1084.19
1134.49
1182.99
1229.48
1272.74
6682.98
13105.2
1295.39
1247.83
1195.06
1137.75
1076.51
1011.96
944.746
875.616
805.448
735.114
665.658
599.012
537.68
484.317
441.393
410.564
392.037
384.352
384.659
390.241
398.833
408.86
419.328
429.677
439.599
448.925
457.563
465.46
472.585
478.915
484.437
489.138
493.008
496.038
498.221
499.549
500.002
500.754
501.503
500.775
498.597
494.997
490.014
483.701
476.136
467.422
457.703
447.171
436.068
424.693
413.387
402.5
392.347
383.134
374.89
367.432
360.356
353.107
345.058
335.612
324.27
310.669
294.586
275.922
254.675
230.913
204.749
176.319
145.771
113.255
100
100
105.93
145.533
186.363
228.355
271.452
315.605
360.771
406.909
453.981
501.949
550.77
600.398
650.777
701.845
753.523
805.718
858.314
911.173
964.122
1016.94
1069.37
1121.06
1171.34
1219.78
1266.12
1309.11
5918.85
13656.6
1333.91
1285.57
1231.93
1173.61
1111.25
1045.45
976.858
906.233
834.461
762.436
691.219
622.766
559.626
504.512
459.958
427.675
407.903
399.176
398.491
403.318
411.256
420.666
430.516
440.228
449.487
458.127
466.054
473.218
479.59
485.151
489.888
493.79
496.847
499.051
500.396
500.874
500.454
501.501
503.727
504.461
503.733
501.568
498.002
493.084
486.89
479.519
471.116
461.867
452.018
441.869
431.764
422.062
413.085
405.045
397.983
391.713
385.836
379.787
372.929
364.653
354.446
341.931
326.875
309.172
288.813
265.864
240.437
212.672
182.72
150.734
116.864
110.379
141.175
180.832
221.675
263.645
306.695
350.78
395.863
441.911
488.889
536.764
585.496
635.041
685.349
736.355
787.984
840.142
892.714
945.556
998.493
1051.3
1103.71
1155.36
1205.56
1253.86
1299.93
1342.44
4524.68
14682.2
1372.3
1323.24
1268.81
1209.61
1146.25
1079.32
1009.49
937.487
864.207
790.567
717.632
647.356
582.326
525.313
478.921
444.95
423.687
413.7
412.012
416.066
423.349
432.155
441.41
450.516
459.15
467.138
474.388
480.851
486.5
491.317
495.292
498.414
500.673
502.06
502.573
502.203
500.908
502.246
505.946
508.142
508.865
508.137
505.991
502.474
497.656
491.637
484.555
476.599
468.012
459.097
450.202
441.692
433.896
427.037
421.161
416.089
411.42
406.583
400.933
393.847
384.798
373.398
359.401
342.692
323.259
301.164
276.519
249.465
220.158
188.755
155.413
146.932
175.402
215.039
255.818
297.688
340.609
384.543
429.459
475.33
522.127
569.821
618.376
667.754
717.906
768.77
820.274
872.323
924.803
977.572
1030.45
1083.21
1135.57
1187.18
1237.33
1285.52
1331.39
1373.54
2996.27
15914.7
1409.41
1359.94
1305.02
1245.23
1181.13
1113.34
1042.48
969.278
894.637
819.496
744.91
672.814
605.828
546.777
498.35
462.452
439.481
428.066
425.351
428.589
435.194
443.396
452.074
460.601
468.638
476.005
482.608
488.399
493.35
497.446
500.677
503.032
504.503
505.08
504.762
503.542
501.367
502.989
508.16
511.815
513.987
514.697
513.973
511.859
508.423
503.76
498.007
491.349
484.032
476.358
468.679
461.367
454.757
449.083
444.398
440.528
437.073
433.459
429.031
423.152
415.283
405.022
392.112
376.43
357.957
336.753
312.93
286.632
258.017
227.249
194.49
183.265
208.569
248.109
288.743
330.431
373.136
416.832
461.492
507.096
553.62
601.041
649.331
698.452
748.362
799.004
850.307
902.181
954.514
1007.16
1059.96
1112.66
1165.01
1216.63
1266.89
1315.18
1361.19
1403.5
1907.12
17056.8
1443.88
1394.67
1339.86
1279.97
1215.59
1147.29
1075.71
1001.57
925.757
849.26
773.118
699.227
630.232
569.013
518.354
480.303
455.421
442.422
438.583
440.934
446.829
454.426
462.543
470.517
477.986
484.763
490.749
495.893
500.17
503.564
506.066
507.666
508.355
508.124
506.974
504.897
501.831
503.729
510.364
515.475
519.095
521.241
521.94
521.23
519.178
515.874
511.454
506.101
500.058
493.63
487.172
481.06
475.64
471.152
467.659
464.994
462.758
460.373
457.176
452.519
445.847
436.745
424.947
410.319
392.837
372.559
349.596
324.094
296.215
266.13
234.006
219.317
240.644
280.003
320.407
361.823
404.222
447.584
491.892
537.13
583.284
630.334
678.258
727.026
776.601
826.931
877.951
929.576
981.701
1034.19
1086.87
1139.53
1191.9
1243.62
1294.19
1342.82
1389.41
1432.61
1479.01
17855.2
1475.22
1427.27
1373.32
1313.94
1249.73
1181.31
1109.32
1034.49
957.71
880.004
802.402
726.75
655.7
592.189
539.106
498.664
471.627
456.864
451.733
453.11
458.264
465.26
472.838
480.287
487.223
493.442
498.839
503.363
506.987
509.698
511.484
512.337
512.247
511.207
509.218
506.274
502.303
504.465
512.559
519.12
524.183
527.763
529.882
530.577
529.909
527.967
524.882
520.836
516.071
510.892
505.656
500.746
496.515
493.212
490.91
489.449
488.433
487.28
485.32
481.892
476.431
468.505
457.838
444.287
427.822
408.498
386.427
361.758
334.657
305.299
273.859
255.025
271.601
310.692
350.774
391.821
433.814
476.74
520.59
565.354
611.026
657.594
705.043
753.35
802.485
852.403
903.048
954.343
1006.19
1058.47
1111.02
1163.64
1216.06
1267.98
1318.97
1368.15
1415.61
1460.18
1500.64
18319.7
1504.06
1458.36
1405.91
1347.49
1283.84
1215.62
1143.49
1068.2
990.65
911.884
832.935
755.562
682.42
616.496
560.79
517.704
488.239
471.471
464.837
465.138
469.517
475.914
482.977
489.937
496.374
502.068
506.909
510.839
513.832
515.874
516.955
517.066
516.197
514.342
511.505
507.68
502.785
505.196
514.741
522.746
529.247
534.257
537.793
539.891
540.606
540.026
538.277
535.538
532.052
528.121
524.108
520.399
517.354
515.233
514.117
513.855
514.053
514.131
513.408
511.215
506.969
500.23
490.706
478.248
462.82
444.474
423.323
399.517
373.229
344.639
313.928
290.324
301.434
340.161
379.82
420.393
461.87
504.244
547.515
591.683
636.746
682.703
729.545
777.258
825.82
875.196
925.338
976.183
1027.65
1079.62
1131.96
1184.5
1237.01
1289.22
1340.77
1390.98
1439.58
1486.25
1529.87
17614.7
2700.21
1488.83
1438.31
1381.24
1318.46
1250.69
1178.63
1103.05
1024.87
945.156
864.944
785.893
710.622
642.165
583.628
537.617
505.414
486.355
477.997
477.093
480.642
486.432
493.001
499.502
505.475
510.679
514.992
518.353
520.734
522.121
522.505
521.875
520.224
517.546
513.846
509.121
503.279
505.923
516.909
526.35
534.283
540.717
545.667
549.163
551.26
552.039
551.625
550.194
547.984
545.302
542.508
539.996
538.131
537.183
537.245
538.172
539.577
540.876
541.386
540.422
537.392
531.841
523.466
512.109
497.729
480.376
460.163
437.245
411.797
384.008
354.067
325.148
330.154
368.415
407.542
447.525
488.361
530.056
572.614
616.045
660.355
705.551
751.633
798.596
846.424
895.094
944.566
994.787
1045.68
1097.15
1149.06
1201.25
1253.5
1305.54
1357
1407.21
1455.76
1502.38
1545.95
13985.5
5661.29
1525.44
1474.72
1417.63
1354.93
1287.19
1215.04
1139.18
1060.45
979.887
898.52
817.869
740.475
669.392
607.831
558.614
523.341
501.668
491.334
489.067
491.709
496.873
502.96
509.031
514.573
519.319
523.133
525.947
527.733
528.475
528.164
526.792
524.35
520.834
516.253
510.604
503.788
506.644
519.062
529.931
539.288
547.139
553.497
558.389
561.863
563.999
564.917
564.79
563.855
562.417
560.838
559.515
558.821
559.036
560.262
562.364
564.96
567.468
569.195
569.45
567.625
563.254
556.023
545.765
532.434
516.078
496.812
474.794
450.207
423.244
394.104
362.979
361.472
395.489
433.964
473.229
513.29
554.161
595.856
638.391
681.783
726.047
771.19
817.218
864.123
911.891
960.492
1009.88
1059.99
1110.74
1161.99
1213.6
1265.35
1316.97
1368.11
1418.02
1466.29
1512.45
1555.15
8330.08
10417.3
1560.36
1509.84
1453.21
1391.01
1323.7
1251.83
1176.03
1097.06
1015.92
933.623
851.55
772.115
698.378
633.642
580.949
542.256
517.61
505.001
501.17
502.802
507.305
512.916
518.581
523.725
528.043
531.382
533.67
534.872
534.974
533.968
531.844
528.597
524.224
518.737
512.135
504.312
507.36
521.199
533.486
544.259
553.523
561.284
567.566
572.415
575.905
578.153
579.328
579.664
579.464
579.092
578.949
579.414
580.776
583.147
586.403
590.168
593.859
596.781
598.232
597.591
594.38
588.274
579.099
566.804
551.436
533.112
511.994
488.273
462.15
433.832
403.521
395.233
421.46
459.153
497.561
536.699
576.589
617.253
658.717
701.007
744.146
788.151
833.037
878.806
925.453
972.959
1021.29
1070.39
1120.17
1170.54
1221.33
1272.34
1323.29
1373.82
1423.21
1470.91
1516.35
1557.74
2640.36
15220.9
1590.44
1541.11
1485.8
1424.87
1358.72
1287.81
1212.69
1134.05
1052.8
969.988
886.838
805.585
729.275
661.29
604.898
562.442
534.434
519.205
513.568
514.055
517.843
522.972
528.251
533.02
536.934
539.818
541.589
542.211
541.67
539.957
537.065
532.991
527.735
521.311
513.721
504.855
508.068
523.317
537.013
549.194
559.863
569.022
576.692
582.913
587.755
591.33
593.803
595.405
596.437
597.264
598.288
599.896
602.385
605.879
610.264
615.169
620.013
624.097
626.708
627.216
625.129
620.114
611.988
600.698
586.29
568.885
548.651
525.785
500.499
473.008
443.526
428.276
446.453
483.228
520.632
558.688
597.426
636.879
677.081
718.068
759.872
802.52
846.035
890.432
935.716
981.88
1028.9
1076.73
1125.31
1174.55
1224.3
1274.38
1324.55
1374.48
1423.65
1471.34
1517.27
1560.1
1598.26
17848.7
1608.72
1564.02
1512.27
1454.3
1390.65
1321.81
1248.31
1170.81
1090.15
1007.39
923.647
840.946
762.27
691.062
630.806
584.256
552.463
534.205
526.455
525.612
528.598
533.226
538.127
542.543
546.072
548.514
549.774
549.813
548.615
546.176
542.49
537.558
531.383
523.985
515.368
505.417
508.77
525.415
540.511
554.095
566.167
576.725
585.785
593.381
599.58
604.486
608.261
611.129
613.39
615.406
617.584
620.314
623.904
628.487
633.959
639.959
645.907
651.1
654.817
656.417
655.398
651.416
644.283
633.944
620.447
603.916
584.526
562.484
538.011
511.335
482.679
460.539
470.669
506.384
542.628
579.434
616.842
654.893
693.631
733.101
773.345
814.4
856.301
899.072
942.732
987.284
1032.72
1079.02
1126.12
1173.96
1222.44
1271.39
1320.62
1369.86
1418.75
1466.56
1513.25
1557.88
1599.93
16178.4
3429.67
1582.11
1534.54
1480.2
1419.78
1353.77
1282.66
1207.04
1127.69
1045.62
961.887
878.234
797.53
723.246
659.059
608.144
572.151
550.428
540.211
537.815
539.884
543.964
548.475
552.532
555.67
557.655
558.381
557.804
555.911
552.701
548.174
542.335
535.194
526.772
517.08
506
509.462
527.488
543.972
558.952
572.424
584.381
594.833
603.81
611.369
617.609
622.684
626.816
630.298
633.494
636.809
640.642
645.307
650.949
657.473
664.524
671.525
677.768
682.525
685.145
685.115
682.085
675.864
666.394
653.727
637.994
619.379
598.099
574.388
548.485
520.626
491.966
494.38
528.892
563.822
599.21
635.106
671.562
708.63
746.366
784.82
824.042
864.074
904.953
946.708
989.355
1032.9
1077.34
1122.63
1168.73
1215.56
1263
1310.89
1358.99
1407.02
1454.27
1500.46
1545.09
1587.05
8536.02
9611.48
1599.63
1554.61
1503.43
1446.31
1383.52
1315.41
1242.41
1165.14
1084.5
1001.47
917.524
835.293
758.226
690.147
634.637
594
568.273
555.111
550.828
551.789
555.237
559.332
563.028
565.774
567.293
567.463
566.236
563.604
559.571
554.145
547.34
539.173
529.674
518.856
506.602
510.144
529.538
547.407
563.789
578.677
592.057
603.933
614.325
623.282
630.895
637.307
642.729
647.451
651.829
656.269
661.174
666.864
673.497
680.989
688.994
696.939
704.117
709.792
713.306
714.139
711.935
706.499
697.778
685.826
670.784
652.845
632.237
609.209
584.012
556.897
528.104
523.761
551.17
584.632
618.438
652.647
687.32
722.522
758.316
794.762
831.919
869.839
908.569
948.146
988.599
1029.95
1072.19
1115.31
1159.28
1204.03
1249.47
1295.45
1341.78
1388.17
1434.06
1478.97
1522.38
1562.69
2074.91
15569.9
1608.73
1567.31
1520.16
1467.23
1408.65
1344.58
1275.29
1201.2
1123.01
1041.66
958.343
875.358
796.071
724.405
664.311
618.769
588.627
572.112
565.64
565.31
568.01
571.597
574.837
577.082
578.013
577.493
575.479
571.97
566.982
560.535
552.653
543.364
532.706
520.698
507.224
510.809
531.536
550.767
568.541
584.843
599.653
612.962
624.781
635.146
644.134
651.88
658.586
664.535
670.081
675.632
681.591
688.289
695.889
704.317
713.233
722.065
730.101
736.599
740.895
742.462
740.941
736.142
728.013
716.621
702.116
684.706
664.635
642.164
617.562
591.093
563.01
553.121
573.67
605.534
637.619
669.994
702.732
735.907
769.59
803.854
838.762
874.377
910.752
947.933
985.957
1024.85
1064.62
1105.27
1146.78
1189.1
1232.15
1275.84
1320
1364.39
1408.69
1452.33
1495.14
1536.17
1574.45
17842.2
1599.38
1566.1
1525.6
1478.94
1426.39
1368.04
1304
1234.56
1160.23
1081.83
1000.36
917.699
837.015
762.243
697.639
646.859
611.675
591.106
581.864
579.864
581.608
584.599
587.356
589.091
589.419
588.176
585.319
580.856
574.822
567.256
558.204
547.709
535.824
522.579
507.856
511.46
533.52
554.143
573.366
591.168
607.521
622.402
635.804
647.745
658.281
667.526
675.661
682.949
689.731
696.403
703.369
710.968
719.375
728.534
738.114
747.554
756.146
763.153
767.913
769.903
768.772
764.333
756.545
745.484
731.31
714.247
694.55
672.496
648.364
622.433
594.967
581.493
597.187
627.337
657.584
688.009
718.698
749.735
781.2
813.173
845.725
878.923
912.825
947.481
982.93
1019.2
1056.31
1094.25
1133.03
1172.59
1212.89
1253.84
1295.34
1337.22
1379.29
1421.06
1462.55
1503.25
1542.99
12449.3
6230.08
1557.45
1523.11
1483.08
1437.25
1385.47
1327.71
1264.07
1194.85
1120.69
1042.43
961.507
880.751
804
735.695
680.083
639.885
615.072
602.833
598.967
599.564
601.715
603.659
604.475
603.739
601.296
597.129
591.279
583.81
574.792
564.29
552.371
539.099
524.512
508.494
512.061
535.334
557.246
577.845
597.098
614.956
631.376
646.322
659.786
671.801
682.462
691.94
700.499
708.484
716.291
724.289
732.803
742.016
751.88
762.083
772.074