/*--------------------------------*- C++ -*----------------------------------*\
  =========                 |
  \\      /  F ield         | OpenFOAM: The Open Source CFD Toolbox
   \\    /   O peration     | Website:  https://openfoam.org
    \\  /    A nd           | Version:  8
     \\/     M anipulation  |
\*---------------------------------------------------------------------------*/
FoamFile
{
    version     2.0;
    format      ascii;
    class       volScalarField;
    location    "220/fluid";
    object      rho;
}
// * * * * * * * * * * * * * * * * * * * * * * * * * * * * * * * * * * * * * //

dimensions      [1 -3 0 0 0 0 0];

internalField   nonuniform List<scalar> 
4000
(
0.658527
0.658505
0.658468
0.658406
0.658303
0.658133
0.657854
0.657401
0.656674
0.65552
0.653717
0.650952
0.646806
0.640754
0.632201
0.620565
0.605415
0.586631
0.564515
0.539799
0.51351
0.486755
0.460514
0.435518
0.412216
0.390813
0.371336
0.353699
0.337755
0.323332
0.310255
0.298362
0.287506
0.27756
0.268415
0.25998
0.252178
0.244918
0.238126
0.231753
0.225757
0.220105
0.214764
0.209709
0.204918
0.200373
0.196056
0.191956
0.188061
0.184362
0.180852
0.177525
0.174379
0.17141
0.168619
0.166009
0.163586
0.161356
0.159334
0.157539
0.156008
0.154776
0.153851
0.153322
0.15327
0.153819
0.162652
0.173112
0.185434
0.199941
0.217059
0.237349
0.261548
0.29062
0.32582
0.368777
0.421721
0.487311
0.567891
0.664383
0.774033
0.887953
0.991786
1.07234
1.1253
1.15533
1.17059
1.17787
1.18121
1.18269
1.18334
1.18362
1.18374
1.18379
1.18381
1.18382
1.18382
1.18382
1.18382
1.18382
0.658527
0.658504
0.658467
0.658403
0.658297
0.658123
0.657836
0.657369
0.65662
0.655431
0.653576
0.650738
0.646494
0.640321
0.631633
0.619864
0.604605
0.585755
0.563631
0.53896
0.512754
0.486099
0.459957
0.435045
0.411808
0.390451
0.371005
0.353386
0.337452
0.323034
0.309959
0.298066
0.287209
0.277262
0.268116
0.259681
0.25188
0.244619
0.237827
0.231454
0.22546
0.219808
0.214469
0.209416
0.204628
0.200085
0.195772
0.191675
0.187784
0.184089
0.180584
0.177263
0.174122
0.17116
0.168377
0.165777
0.163364
0.161148
0.159145
0.157375
0.155893
0.154716
0.153887
0.153519
0.15374
0.154832
0.163976
0.174779
0.187507
0.202513
0.220262
0.241367
0.266631
0.297109
0.33418
0.379644
0.43596
0.50587
0.591536
0.693086
0.806009
0.919167
1.0174
1.08971
1.13519
1.16023
1.17283
1.17884
1.18161
1.18286
1.18341
1.18364
1.18375
1.18379
1.18381
1.18382
1.18382
1.18382
1.18382
1.18382
0.658527
0.658504
0.658465
0.658399
0.658291
0.65811
0.657814
0.657333
0.65656
0.655336
0.65343
0.65052
0.646181
0.639888
0.631059
0.619139
0.603737
0.584772
0.562576
0.537886
0.51171
0.485119
0.45906
0.434234
0.411076
0.389786
0.370392
0.352814
0.33691
0.322512
0.309451
0.297567
0.286717
0.276773
0.26763
0.259197
0.251397
0.244135
0.237342
0.230969
0.224974
0.219322
0.213984
0.208932
0.204146
0.199605
0.195295
0.191203
0.187316
0.183628
0.180129
0.176815
0.173684
0.170732
0.167961
0.165374
0.162977
0.160781
0.1588
0.157058
0.155621
0.154477
0.153728
0.153494
0.153967
0.156861
0.166376
0.177654
0.190978
0.206729
0.225413
0.247699
0.274465
0.306861
0.346375
0.394971
0.455236
0.529736
0.620068
0.725095
0.838423
0.947578
1.03834
1.1027
1.14217
1.16363
1.1744
1.17954
1.18192
1.18299
1.18346
1.18367
1.18376
1.18379
1.18381
1.18382
1.18382
1.18382
1.18382
1.18382
0.658527
0.658503
0.658463
0.658396
0.658284
0.6581
0.657797
0.657304
0.656514
0.655264
0.653319
0.650355
0.645941
0.639553
0.630608
0.618557
0.60302
0.583931
0.561637
0.536885
0.510685
0.484103
0.458077
0.433298
0.410192
0.388953
0.369606
0.352069
0.336197
0.321827
0.308787
0.29692
0.286081
0.276147
0.267011
0.258583
0.250787
0.243526
0.236733
0.23036
0.224365
0.218714
0.213376
0.208325
0.20354
0.199002
0.194696
0.190607
0.186727
0.183044
0.179554
0.17625
0.17313
0.170192
0.167436
0.164867
0.16249
0.160316
0.158359
0.156641
0.155228
0.154087
0.1533
0.152937
0.153096
0.159387
0.169392
0.181269
0.195323
0.211972
0.231766
0.255433
0.283929
0.318495
0.36073
0.412784
0.477282
0.556526
0.651419
0.759415
0.872264
0.976517
1.05935
1.11573
1.14927
1.16715
1.17604
1.18028
1.18224
1.18313
1.18352
1.18369
1.18377
1.1838
1.18381
1.18382
1.18382
1.18382
1.18382
1.18382
0.658527
0.658502
0.658461
0.658393
0.658279
0.65809
0.657781
0.657278
0.656471
0.655195
0.653213
0.650195
0.645707
0.63922
0.630153
0.617962
0.602277
0.583048
0.560638
0.535807
0.509567
0.482982
0.45698
0.432243
0.409187
0.388001
0.368703
0.35121
0.335377
0.321038
0.308024
0.296177
0.285356
0.275435
0.266309
0.257891
0.250101
0.242843
0.236051
0.229678
0.223684
0.218034
0.212697
0.207647
0.202864
0.198329
0.194027
0.189943
0.186069
0.182394
0.178914
0.175621
0.172515
0.169593
0.166857
0.164312
0.161964
0.159826
0.157915
0.156261
0.154914
0.153854
0.153175
0.152944
0.153238
0.162112
0.172716
0.185291
0.200174
0.217821
0.238833
0.264002
0.294359
0.331243
0.376369
0.432053
0.500853
0.584692
0.683588
0.793435
0.904321
1.00254
1.07732
1.12644
1.15495
1.16993
1.17735
1.18087
1.1825
1.18324
1.18357
1.18371
1.18378
1.1838
1.18381
1.18382
1.18382
1.18382
1.18382
1.18382
0.658526
0.658502
0.65846
0.65839
0.658274
0.658082
0.657766
0.657254
0.656433
0.655135
0.65312
0.650053
0.645497
0.638919
0.629737
0.617409
0.601575
0.582198
0.559659
0.534729
0.508429
0.481823
0.455831
0.431125
0.408114
0.386976
0.367728
0.35028
0.334488
0.320184
0.3072
0.295378
0.284577
0.274672
0.265561
0.257154
0.249373
0.242119
0.235331
0.228961
0.222969
0.21732
0.211985
0.206938
0.202158
0.197626
0.193328
0.18925
0.185383
0.181718
0.178248
0.174969
0.171878
0.168975
0.166261
0.163743
0.161428
0.159333
0.157477
0.155922
0.154694
0.153821
0.153458
0.153791
0.155388
0.164924
0.176214
0.18955
0.205314
0.22401
0.246293
0.273021
0.305307
0.344577
0.392687
0.452067
0.525115
0.613289
0.715586
0.826315
0.93422
1.02594
1.093
1.13562
1.15979
1.1723
1.17846
1.18138
1.18273
1.18334
1.18361
1.18373
1.18378
1.18381
1.18381
1.18382
1.18382
1.18382
1.18382
1.18382
0.658526
0.658501
0.658459
0.658388
0.65827
0.658074
0.657753
0.657232
0.656398
0.655079
0.653031
0.649917
0.645295
0.638627
0.62933
0.616865
0.60088
0.581352
0.558678
0.533644
0.507278
0.480644
0.454656
0.429978
0.407008
0.385918
0.366719
0.349318
0.333568
0.319301
0.306349
0.294555
0.283776
0.27389
0.264795
0.256403
0.248632
0.241384
0.234601
0.228235
0.222247
0.216601
0.211269
0.206225
0.201449
0.196922
0.192629
0.188559
0.1847
0.181045
0.177587
0.174322
0.171248
0.168364
0.165673
0.163181
0.160896
0.158833
0.157012
0.155507
0.154317
0.153482
0.15313
0.153415
0.158133
0.168114
0.179972
0.194007
0.210622
0.230354
0.253909
0.282205
0.316429
0.358097
0.409218
0.47226
0.549388
0.641502
0.74647
0.857072
0.961118
1.04614
1.10607
1.14307
1.16365
1.17419
1.17934
1.18178
1.18291
1.18342
1.18365
1.18375
1.18379
1.18381
1.18382
1.18382
1.18382
1.18382
1.18382
1.18382
0.658526
0.658501
0.658458
0.658386
0.658266
0.658067
0.657741
0.657212
0.656365
0.655026
0.652948
0.64979
0.645104
0.63835
0.628941
0.616341
0.600206
0.580527
0.557716
0.532574
0.506138
0.479472
0.453484
0.42883
0.405899
0.384856
0.365706
0.348351
0.332644
0.318416
0.305498
0.293732
0.282977
0.273113
0.264035
0.255659
0.247899
0.24066
0.233883
0.227523
0.221539
0.215898
0.21057
0.20553
0.200759
0.196238
0.191952
0.187889
0.18404
0.180396
0.176951
0.173702
0.170647
0.167785
0.16512
0.162658
0.160409
0.158387
0.156615
0.155163
0.153978
0.153147
0.152735
0.152825
0.160765
0.171243
0.183691
0.198429
0.21589
0.23665
0.261463
0.291308
0.327448
0.371486
0.425577
0.492153
0.573099
0.668674
0.775567
0.885185
0.98484
1.06335
1.1169
1.14914
1.16675
1.17569
1.18005
1.1821
1.18305
1.18348
1.18367
1.18376
1.18379
1.18381
1.18382
1.18382
1.18382
1.18382
1.18382
1.18382
0.658526
0.6585
0.658457
0.658383
0.658262
0.65806
0.65773
0.657193
0.656334
0.654976
0.65287
0.649668
0.644921
0.638083
0.628566
0.615835
0.599554
0.579726
0.556781
0.531532
0.505026
0.478326
0.452338
0.427706
0.404813
0.383816
0.364713
0.347405
0.331741
0.317551
0.304667
0.292929
0.2822
0.272357
0.263299
0.254939
0.247192
0.239961
0.233192
0.226838
0.22086
0.215225
0.209902
0.204869
0.200103
0.195589
0.19131
0.187257
0.183418
0.179786
0.176355
0.173123
0.170088
0.16725
0.164613
0.162186
0.15998
0.158014
0.156326
0.154968
0.15392
0.153298
0.153199
0.15378
0.163101
0.174165
0.187244
0.202697
0.220997
0.242764
0.268803
0.300156
0.338154
0.384505
0.441469
0.511386
0.595824
0.694335
0.802438
0.91038
1.00538
1.07777
1.12574
1.15401
1.16922
1.17689
1.18061
1.18236
1.18317
1.18353
1.1837
1.18377
1.1838
1.18381
1.18382
1.18382
1.18382
1.18382
1.18382
1.18382
0.658526
0.6585
0.658456
0.658382
0.658258
0.658054
0.657719
0.657176
0.656305
0.654929
0.652795
0.649553
0.644748
0.63783
0.628209
0.615352
0.59893
0.578959
0.555883
0.530531
0.503957
0.477225
0.451235
0.426626
0.403769
0.382816
0.363759
0.346496
0.330874
0.316722
0.303871
0.292163
0.281459
0.271638
0.262599
0.254257
0.246522
0.239301
0.23254
0.226194
0.220223
0.214594
0.209277
0.20425
0.199491
0.194984
0.190714
0.18667
0.182842
0.179222
0.175806
0.17259
0.169574
0.166758
0.164148
0.161753
0.159587
0.157673
0.156074
0.154815
0.15392
0.153545
0.153875
0.155765
0.165509
0.177056
0.190692
0.206802
0.225889
0.248608
0.275814
0.308603
0.348373
0.396938
0.456626
0.52964
0.617201
0.71812
0.826805
0.932585
1.02293
1.08975
1.13293
1.15792
1.17119
1.17784
1.18105
1.18256
1.18326
1.18357
1.18371
1.18377
1.1838
1.18381
1.18382
1.18382
1.18382
1.18382
1.18382
1.18382
0.658526
0.658499
0.658455
0.65838
0.658255
0.658048
0.657709
0.657159
0.656277
0.654885
0.652725
0.649445
0.644584
0.637591
0.627871
0.614895
0.59834
0.578233
0.555035
0.529585
0.502947
0.476185
0.450194
0.425605
0.402783
0.381872
0.36286
0.34564
0.330059
0.315944
0.303125
0.291445
0.280765
0.270966
0.261946
0.253621
0.245898
0.238688
0.231936
0.225598
0.219634
0.214012
0.208703
0.203682
0.198931
0.194432
0.19017
0.186135
0.182318
0.178711
0.175308
0.172107
0.169108
0.16631
0.163721
0.161347
0.159203
0.157311
0.155736
0.154491
0.153593
0.153175
0.153374
0.157818
0.167899
0.179854
0.193983
0.210688
0.230498
0.254103
0.282397
0.316532
0.357964
0.408616
0.470839
0.546675
0.636976
0.739806
0.848557
0.951886
1.03775
1.09962
1.13874
1.16104
1.17275
1.17859
1.1814
1.18272
1.18333
1.1836
1.18373
1.18378
1.1838
1.18381
1.18382
1.18382
1.18382
1.18382
1.18382
1.18382
0.658526
0.658499
0.658454
0.658378
0.658252
0.658043
0.6577
0.657144
0.656252
0.654844
0.652661
0.649344
0.644432
0.637368
0.627557
0.61447
0.59779
0.577557
0.554244
0.528705
0.502007
0.475217
0.449226
0.424658
0.401869
0.380998
0.362027
0.344848
0.329305
0.315224
0.302436
0.290783
0.280127
0.270349
0.261347
0.253039
0.245328
0.238128
0.231386
0.225056
0.2191
0.213485
0.208183
0.20317
0.198426
0.193935
0.189683
0.185658
0.181852
0.178256
0.174868
0.171682
0.168698
0.165919
0.163348
0.160993
0.158867
0.156992
0.155425
0.154178
0.153253
0.152771
0.152853
0.159699
0.170089
0.182421
0.197006
0.214261
0.23474
0.259164
0.288469
0.323851
0.366827
0.419414
0.483955
0.562323
0.654987
0.759286
0.867711
0.968472
1.05018
1.10771
1.14344
1.16354
1.174
1.17919
1.18168
1.18285
1.18339
1.18363
1.18374
1.18379
1.18381
1.18382
1.18382
1.18382
1.18382
1.18382
1.18382
1.18382
0.658526
0.658499
0.658453
0.658376
0.658249
0.658038
0.657692
0.65713
0.656229
0.654807
0.652601
0.649252
0.644293
0.637164
0.627269
0.61408
0.597287
0.576939
0.553522
0.5279
0.501149
0.474335
0.448345
0.423795
0.401037
0.380203
0.361271
0.34413
0.328622
0.314573
0.301813
0.290185
0.279551
0.269792
0.260809
0.252516
0.244817
0.237627
0.230893
0.224571
0.218623
0.213016
0.207721
0.202715
0.19798
0.193497
0.189254
0.18524
0.181445
0.177863
0.174488
0.171319
0.168354
0.165595
0.163047
0.160719
0.158623
0.156776
0.15524
0.154014
0.153105
0.152625
0.152682
0.161211
0.171961
0.184681
0.199706
0.217478
0.238577
0.263756
0.293986
0.33051
0.3749
0.429255
0.495884
0.576491
0.671157
0.776543
0.884368
0.982582
1.06052
1.11432
1.14722
1.16553
1.17499
1.17966
1.1819
1.18295
1.18343
1.18365
1.18375
1.18379
1.18381
1.18382
1.18382
1.18382
1.18382
1.18382
1.18382
1.18382
0.658526
0.658498
0.658452
0.658375
0.658246
0.658034
0.657684
0.657117
0.656208
0.654773
0.652548
0.64917
0.644168
0.636981
0.627011
0.61373
0.596835
0.576384
0.552874
0.52718
0.500382
0.473547
0.447558
0.423026
0.400296
0.379495
0.360598
0.343491
0.328015
0.313995
0.301261
0.289656
0.279042
0.269301
0.260333
0.252055
0.244366
0.237186
0.230461
0.224147
0.218206
0.212606
0.207319
0.202321
0.197593
0.193119
0.188885
0.184881
0.181098
0.177529
0.17417
0.171018
0.168074
0.165339
0.16282
0.160526
0.15847
0.156676
0.155221
0.154048
0.153265
0.152959
0.153275
0.162575
0.173629
0.186692
0.202112
0.220349
0.242006
0.267863
0.298925
0.336475
0.38214
0.43808
0.506559
0.589108
0.685443
0.791602
0.898661
0.994453
1.06905
1.1197
1.15027
1.16712
1.17577
1.18004
1.18208
1.18303
1.18347
1.18367
1.18375
1.18379
1.18381
1.18382
1.18382
1.18382
1.18382
1.18382
1.18382
1.18382
0.658526
0.658498
0.658452
0.658374
0.658244
0.65803
0.657678
0.657106
0.65619
0.654744
0.652502
0.649098
0.644059
0.636821
0.626784
0.613424
0.59644
0.575899
0.552309
0.526552
0.499713
0.47286
0.446873
0.422357
0.399652
0.37888
0.360013
0.342937
0.327489
0.313494
0.300783
0.289198
0.278602
0.268877
0.259923
0.251658
0.243979
0.236807
0.23009
0.223784
0.217851
0.212257
0.206976
0.201986
0.197265
0.1928
0.188575
0.184581
0.180809
0.177253
0.173909
0.170775
0.167851
0.16514
0.16265
0.160392
0.158382
0.15666
0.15528
0.154212
0.153577
0.153484
0.154114
0.163712
0.175062
0.18844
0.204214
0.222864
0.245012
0.271465
0.303259
0.34171
0.3885
0.445832
0.515913
0.600119
0.697818
0.804501
0.910721
1.0043
1.07602
1.12403
1.15269
1.16839
1.1764
1.18033
1.18221
1.18309
1.1835
1.18368
1.18376
1.18379
1.18381
1.18382
1.18382
1.18382
1.18382
1.18382
1.18382
1.18382
0.658526
0.658498
0.658451
0.658373
0.658242
0.658026
0.657672
0.657097
0.656175
0.654719
0.652462
0.649036
0.643966
0.636685
0.626593
0.613165
0.596105
0.575489
0.551831
0.526021
0.499148
0.472281
0.446295
0.421793
0.399109
0.378362
0.359522
0.342471
0.327047
0.313074
0.300382
0.288814
0.278234
0.268522
0.259582
0.251328
0.243657
0.236493
0.229783
0.223483
0.217556
0.211969
0.206694
0.20171
0.196997
0.192538
0.188322
0.184337
0.180575
0.177031
0.1737
0.170581
0.167674
0.164985
0.16252
0.160291
0.158319
0.156656
0.155336
0.15435
0.153826
0.153888
0.154976
0.164769
0.176338
0.189965
0.206029
0.225021
0.247584
0.274542
0.306958
0.346176
0.393925
0.452439
0.523872
0.609453
0.708244
0.815265
0.92066
1.0123
1.08161
1.12746
1.15461
1.16937
1.17688
1.18056
1.18232
1.18314
1.18352
1.18369
1.18376
1.1838
1.18381
1.18382
1.18382
1.18382
1.18382
1.18382
1.18382
1.18382
0.658526
0.658498
0.658451
0.658372
0.658241
0.658024
0.657668
0.657089
0.656162
0.654699
0.65243
0.648987
0.643891
0.636575
0.626437
0.612955
0.595834
0.575157
0.551444
0.525592
0.498692
0.471813
0.445829
0.421338
0.398672
0.377945
0.359126
0.342096
0.326691
0.312736
0.30006
0.288506
0.277938
0.268238
0.259308
0.251064
0.2434
0.236243
0.229539
0.223245
0.217323
0.211741
0.206472
0.201493
0.196786
0.192334
0.188124
0.184147
0.180394
0.176859
0.173539
0.170431
0.167539
0.164864
0.162417
0.160208
0.158258
0.156627
0.155335
0.15438
0.153893
0.153998
0.155734
0.165676
0.177413
0.191236
0.20753
0.226799
0.249696
0.277065
0.309987
0.349829
0.398364
0.457844
0.530371
0.617052
0.716689
0.823916
0.928567
1.0186
1.08596
1.13012
1.15608
1.17013
1.17725
1.18074
1.1824
1.18318
1.18353
1.1837
1.18377
1.1838
1.18381
1.18382
1.18382
1.18382
1.18382
1.18382
1.18382
1.18382
0.658525
0.658497
0.65845
0.658371
0.65824
0.658022
0.657664
0.657084
0.656153
0.654684
0.652406
0.648949
0.643834
0.636492
0.62632
0.612796
0.59563
0.574906
0.551152
0.525267
0.498347
0.47146
0.445477
0.420995
0.398341
0.37763
0.358828
0.341813
0.326423
0.312482
0.299818
0.288275
0.277717
0.268026
0.259104
0.250866
0.243209
0.236056
0.229357
0.223068
0.21715
0.211572
0.206308
0.201334
0.196631
0.192184
0.18798
0.184009
0.180262
0.176735
0.173423
0.170324
0.167441
0.164776
0.162338
0.160139
0.158197
0.156572
0.15528
0.154315
0.153801
0.153851
0.156305
0.166372
0.178243
0.192217
0.208687
0.228166
0.251318
0.278999
0.312307
0.352627
0.401764
0.461983
0.535343
0.622853
0.723111
0.830458
0.934504
1.02329
1.08918
1.13208
1.15717
1.17068
1.17753
1.18087
1.18246
1.18321
1.18355
1.1837
1.18377
1.1838
1.18381
1.18382
1.18382
1.18382
1.18382
1.18382
1.18382
1.18382
0.658525
0.658497
0.65845
0.658371
0.658239
0.658021
0.657662
0.65708
0.656147
0.654674
0.65239
0.648924
0.643797
0.636437
0.626242
0.61269
0.595493
0.574739
0.550957
0.525051
0.498117
0.471224
0.445242
0.420765
0.39812
0.37742
0.358628
0.341624
0.326244
0.312311
0.299656
0.288121
0.277569
0.267885
0.258968
0.250736
0.243082
0.235934
0.229238
0.222952
0.217037
0.211463
0.206201
0.20123
0.196531
0.192088
0.187888
0.183921
0.18018
0.176657
0.173351
0.170258
0.16738
0.164721
0.162288
0.160092
0.158151
0.156521
0.155217
0.154227
0.15367
0.153646
0.156687
0.166846
0.178812
0.192891
0.209482
0.229103
0.252427
0.28032
0.31389
0.354534
0.40408
0.4648
0.538724
0.626792
0.727461
0.834874
0.938493
1.02643
1.09133
1.13339
1.15789
1.17105
1.17771
1.18096
1.1825
1.18323
1.18356
1.1837
1.18377
1.1838
1.18381
1.18382
1.18382
1.18382
1.18382
1.18382
1.18382
1.18382
0.658525
0.658497
0.65845
0.658371
0.658239
0.65802
0.657661
0.657078
0.656144
0.654669
0.652382
0.648912
0.643778
0.63641
0.626204
0.612639
0.595427
0.574658
0.550863
0.524946
0.498006
0.471109
0.445127
0.420653
0.398012
0.377316
0.35853
0.341531
0.326155
0.312228
0.299576
0.288045
0.277497
0.267815
0.258902
0.250672
0.243021
0.235874
0.22918
0.222895
0.216982
0.211409
0.20615
0.201181
0.196483
0.192042
0.187845
0.18388
0.180141
0.176622
0.173319
0.170229
0.167355
0.164699
0.162269
0.160075
0.158134
0.156498
0.155187
0.154182
0.153598
0.153529
0.156882
0.167092
0.17911
0.193242
0.209894
0.229586
0.252995
0.280993
0.314692
0.355496
0.405244
0.466209
0.540407
0.628743
0.729603
0.837035
0.940433
1.02795
1.09237
1.13402
1.15824
1.17123
1.1778
1.181
1.18252
1.18323
1.18356
1.18371
1.18377
1.1838
1.18381
1.18382
1.18382
1.18382
1.18382
1.18382
1.18382
1.18382
0.658525
0.658497
0.65845
0.658371
0.658239
0.65802
0.657661
0.657078
0.656144
0.654669
0.652382
0.648912
0.643778
0.63641
0.626204
0.612638
0.595426
0.574657
0.550861
0.524945
0.498004
0.471108
0.445126
0.420652
0.398011
0.377315
0.358529
0.34153
0.326155
0.312227
0.299575
0.288044
0.277496
0.267815
0.258901
0.250672
0.24302
0.235873
0.229179
0.222895
0.216982
0.211409
0.206149
0.20118
0.196483
0.192042
0.187844
0.18388
0.180141
0.176622
0.173319
0.170229
0.167355
0.164699
0.162269
0.160075
0.158134
0.156498
0.155187
0.154182
0.153597
0.153528
0.156884
0.167094
0.179111
0.193244
0.209895
0.229588
0.252998
0.280996
0.314695
0.3555
0.405249
0.466216
0.540415
0.628753
0.729616
0.837048
0.940445
1.02796
1.09238
1.13402
1.15824
1.17123
1.1778
1.181
1.18252
1.18323
1.18356
1.18371
1.18377
1.1838
1.18381
1.18382
1.18382
1.18382
1.18382
1.18382
1.18382
1.18382
0.658525
0.658497
0.65845
0.658371
0.658239
0.65802
0.657662
0.65708
0.656147
0.654674
0.65239
0.648924
0.643796
0.636435
0.62624
0.612688
0.59549
0.574735
0.550953
0.525047
0.498113
0.47122
0.445238
0.420762
0.398117
0.377417
0.358625
0.341621
0.326241
0.312309
0.299654
0.288119
0.277568
0.267883
0.258967
0.250735
0.243081
0.235932
0.229237
0.22295
0.217036
0.211461
0.2062
0.201229
0.19653
0.192087
0.187887
0.183921
0.180179
0.176657
0.17335
0.170258
0.16738
0.164722
0.162289
0.160093
0.158152
0.156521
0.155217
0.154226
0.153668
0.153644
0.156693
0.166851
0.178817
0.192897
0.209488
0.22911
0.252436
0.28033
0.313901
0.354548
0.404098
0.464822
0.538751
0.626825
0.727499
0.834913
0.938529
1.02646
1.09135
1.1334
1.15789
1.17106
1.17771
1.18096
1.1825
1.18323
1.18356
1.1837
1.18377
1.1838
1.18381
1.18382
1.18382
1.18382
1.18382
1.18382
1.18382
1.18382
0.658525
0.658497
0.65845
0.658371
0.65824
0.658022
0.657664
0.657083
0.656153
0.654684
0.652405
0.648948
0.643833
0.63649
0.626317
0.612792
0.595625
0.5749
0.551145
0.52526
0.49834
0.471453
0.44547
0.420989
0.398336
0.377625
0.358823
0.341809
0.326419
0.312478
0.299814
0.288272
0.277714
0.268023
0.259101
0.250864
0.243206
0.236054
0.229355
0.223065
0.217148
0.21157
0.206306
0.201332
0.196629
0.192182
0.187979
0.184008
0.180261
0.176734
0.173422
0.170324
0.167441
0.164776
0.162338
0.160139
0.158197
0.156573
0.155279
0.154313
0.153799
0.15385
0.156315
0.166381
0.178252
0.192227
0.208698
0.228179
0.251332
0.279016
0.312327
0.352651
0.401794
0.46202
0.535388
0.622908
0.723174
0.830524
0.934564
1.02334
1.08921
1.1321
1.15717
1.17069
1.17753
1.18087
1.18246
1.18321
1.18355
1.1837
1.18377
1.1838
1.18381
1.18382
1.18382
1.18382
1.18382
1.18382
1.18382
1.18382
0.658526
0.658498
0.658451
0.658372
0.658241
0.658024
0.657667
0.657089
0.656162
0.654699
0.652429
0.648985
0.643889
0.636572
0.626433
0.612949
0.595827
0.575149
0.551435
0.525581
0.498682
0.471803
0.445819
0.421329
0.398663
0.377937
0.359119
0.342089
0.326685
0.31273
0.300055
0.288502
0.277934
0.268234
0.259304
0.25106
0.243397
0.236239
0.229535
0.223241
0.217319
0.211738
0.206469
0.20149
0.196783
0.192331
0.188122
0.184145
0.180392
0.176857
0.173537
0.17043
0.167538
0.164864
0.162417
0.160208
0.158258
0.156627
0.155334
0.154379
0.153892
0.153999
0.155747
0.165688
0.177425
0.191249
0.207545
0.226816
0.249717
0.277089
0.310016
0.349864
0.398406
0.457896
0.530435
0.617128
0.716775
0.824005
0.928647
1.01866
1.086
1.13014
1.15609
1.17013
1.17726
1.18074
1.1824
1.18318
1.18353
1.1837
1.18377
1.1838
1.18381
1.18382
1.18382
1.18382
1.18382
1.18382
1.18382
1.18382
0.658526
0.658498
0.658451
0.658373
0.658242
0.658026
0.657672
0.657097
0.656174
0.654718
0.652461
0.649034
0.643963
0.636681
0.626587
0.613157
0.596096
0.575478
0.551818
0.526008
0.499135
0.472268
0.446282
0.421781
0.399098
0.378352
0.359513
0.342462
0.327039
0.313067
0.300375
0.288808
0.278228
0.268516
0.259576
0.251322
0.243652
0.236488
0.229778
0.223479
0.217551
0.211964
0.20669
0.201706
0.196993
0.192534
0.188318
0.184333
0.180572
0.177028
0.173697
0.170579
0.167673
0.164983
0.162519
0.160291
0.158319
0.156656
0.155336
0.154349
0.153827
0.153893
0.154988
0.164781
0.17635
0.18998
0.206046
0.225043
0.247609
0.274573
0.306995
0.34622
0.393979
0.452505
0.523953
0.60955
0.708354
0.815378
0.920763
1.01238
1.08166
1.12749
1.15462
1.16938
1.17689
1.18057
1.18232
1.18314
1.18352
1.18369
1.18376
1.1838
1.18381
1.18382
1.18382
1.18382
1.18382
1.18382
1.18382
1.18382
0.658526
0.658498
0.658452
0.658374
0.658244
0.65803
0.657677
0.657106
0.65619
0.654743
0.6525
0.649095
0.644055
0.636816
0.626777
0.613415
0.596428
0.575886
0.552293
0.526535
0.499696
0.472844
0.446857
0.422342
0.399638
0.378867
0.360002
0.342926
0.327479
0.313485
0.300774
0.28919
0.278594
0.268869
0.259917
0.251652
0.243973
0.236801
0.230084
0.223778
0.217845
0.212251
0.206971
0.20198
0.19726
0.192794
0.18857
0.184576
0.180805
0.177249
0.173905
0.170771
0.167847
0.165137
0.162647
0.160389
0.15838
0.156658
0.155279
0.154211
0.153578
0.153489
0.154122
0.163722
0.175075
0.188456
0.204234
0.222888
0.245042
0.271501
0.303302
0.341762
0.388564
0.445912
0.516011
0.600236
0.697952
0.80464
0.910849
1.0044
1.07609
1.12407
1.15271
1.1684
1.1764
1.18033
1.18221
1.18309
1.1835
1.18368
1.18376
1.18379
1.18381
1.18382
1.18382
1.18382
1.18382
1.18382
1.18382
1.18382
0.658526
0.658498
0.658452
0.658375
0.658246
0.658033
0.657684
0.657117
0.656208
0.654772
0.652546
0.649167
0.644164
0.636975
0.627003
0.61372
0.596821
0.576368
0.552856
0.527161
0.500362
0.473527
0.447539
0.423008
0.40028
0.379479
0.360584
0.343478
0.328003
0.313984
0.30125
0.289646
0.279033
0.269292
0.260325
0.252047
0.244358
0.237178
0.230453
0.22414
0.218199
0.212599
0.207312
0.202314
0.197586
0.193112
0.188879
0.184875
0.181092
0.177523
0.174164
0.171013
0.168069
0.165334
0.162815
0.160521
0.158466
0.156674
0.155219
0.154048
0.153268
0.152965
0.153281
0.162582
0.173641
0.186709
0.202133
0.220376
0.242038
0.267902
0.298973
0.336534
0.382213
0.438171
0.506672
0.589246
0.685602
0.79177
0.898817
0.994577
1.06914
1.11975
1.15029
1.16714
1.17578
1.18004
1.18208
1.18303
1.18347
1.18367
1.18375
1.18379
1.18381
1.18382
1.18382
1.18382
1.18382
1.18382
1.18382
1.18382
0.658526
0.658499
0.658453
0.658376
0.658249
0.658038
0.657691
0.657129
0.656228
0.654806
0.652599
0.649249
0.644288
0.637157
0.62726
0.614068
0.597271
0.57692
0.5535
0.527877
0.501126
0.474312
0.448322
0.423774
0.401018
0.380185
0.361254
0.344115
0.328608
0.31456
0.301801
0.290174
0.27954
0.269782
0.260799
0.252506
0.244807
0.237617
0.230884
0.224563
0.218615
0.213007
0.207713
0.202707
0.197972
0.19349
0.189247
0.185232
0.181438
0.177856
0.174481
0.171312
0.168347
0.165589
0.163041
0.160712
0.158617
0.15677
0.155235
0.15401
0.153105
0.152628
0.152686
0.161225
0.171981
0.184706
0.199735
0.217512
0.238617
0.263802
0.294042
0.330578
0.374984
0.42936
0.496014
0.57665
0.671342
0.776742
0.884557
0.982735
1.06063
1.11439
1.14725
1.16555
1.17499
1.17966
1.1819
1.18295
1.18343
1.18365
1.18375
1.18379
1.18381
1.18382
1.18382
1.18382
1.18382
1.18382
1.18382
1.18382
0.658526
0.658499
0.658454
0.658378
0.658252
0.658043
0.6577
0.657143
0.656251
0.654843
0.652658
0.649341
0.644427
0.63736
0.627546
0.614456
0.597772
0.577536
0.55422
0.528679
0.50198
0.475191
0.449201
0.424634
0.401847
0.380977
0.362008
0.344831
0.329289
0.315209
0.302422
0.29077
0.280115
0.270337
0.261336
0.253028
0.245318
0.238118
0.231375
0.225046
0.21909
0.213475
0.208173
0.20316
0.198417
0.193926
0.189674
0.18565
0.181843
0.178248
0.17486
0.171674
0.168691
0.165911
0.16334
0.160986
0.158861
0.156986
0.155419
0.154174
0.153249
0.152766
0.152843
0.159717
0.170113
0.18245
0.197039
0.214299
0.234784
0.259217
0.288532
0.323929
0.366922
0.419534
0.484104
0.562507
0.655201
0.759519
0.867936
0.968659
1.05031
1.10779
1.14348
1.16356
1.17401
1.17919
1.18168
1.18285
1.18339
1.18363
1.18374
1.18379
1.18381
1.18382
1.18382
1.18382
1.18382
1.18382
1.18382
1.18382
0.658526
0.658499
0.658455
0.65838
0.658255
0.658048
0.657709
0.657158
0.656276
0.654883
0.652723
0.649441
0.644578
0.637582
0.627859
0.61488
0.59832
0.578209
0.555007
0.529556
0.502916
0.476155
0.450165
0.425578
0.402758
0.381849
0.362838
0.34562
0.33004
0.315926
0.303109
0.29143
0.280751
0.270952
0.261933
0.253609
0.245886
0.238676
0.231924
0.225587
0.219623
0.214001
0.208692
0.203672
0.198921
0.194422
0.190161
0.186126
0.182309
0.178702
0.1753
0.172099
0.1691
0.166303
0.163713
0.16134
0.159197
0.157304
0.155729
0.154484
0.153584
0.153163
0.153356
0.157848
0.167931
0.17989
0.194023
0.210733
0.230549
0.254163
0.28247
0.316621
0.358074
0.408752
0.471009
0.546884
0.637222
0.740078
0.848825
0.952114
1.03792
1.09971
1.13879
1.16107
1.17277
1.17859
1.1814
1.18272
1.18333
1.1836
1.18373
1.18378
1.1838
1.18381
1.18382
1.18382
1.18382
1.18382
1.18382
1.18382
0.658526
0.6585
0.658456
0.658381
0.658258
0.658054
0.657719
0.657175
0.656303
0.654927
0.652793
0.649549
0.644741
0.63782
0.628196
0.615335
0.598908
0.578933
0.555853
0.530499
0.503923
0.477192
0.451203
0.426595
0.403741
0.382789
0.363735
0.346474
0.330854
0.316703
0.303853
0.292146
0.281443
0.271623
0.262584
0.254243
0.246508
0.239287
0.232527
0.226181
0.22021
0.214581
0.209265
0.204238
0.19948
0.194973
0.190703
0.186659
0.182831
0.179212
0.175796
0.172581
0.169565
0.166749
0.16414
0.161745
0.159579
0.157665
0.156066
0.154807
0.153913
0.153542
0.153883
0.155809
0.165549
0.177098
0.190738
0.206854
0.225948
0.248678
0.275896
0.308703
0.348496
0.39709
0.456816
0.529874
0.617479
0.718431
0.827118
0.932859
1.02313
1.08987
1.13299
1.15795
1.17121
1.17784
1.18105
1.18256
1.18326
1.18357
1.18371
1.18377
1.1838
1.18381
1.18382
1.18382
1.18382
1.18382
1.18382
1.18382
0.658526
0.6585
0.658457
0.658383
0.658262
0.65806
0.657729
0.657193
0.656333
0.654974
0.652867
0.649664
0.644914
0.638073
0.628552
0.615816
0.59953
0.579697
0.556748
0.531496
0.504989
0.47829
0.452302
0.427673
0.404782
0.383787
0.364686
0.34738
0.331718
0.31753
0.304646
0.29291
0.282182
0.27234
0.263282
0.254923
0.247176
0.239946
0.233177
0.226824
0.220846
0.215211
0.209889
0.204855
0.20009
0.195576
0.191298
0.187245
0.183406
0.179775
0.176345
0.173114
0.170079
0.167241
0.164606
0.162179
0.159975
0.15801
0.156322
0.154966
0.153921
0.153304
0.153215
0.153802
0.163126
0.174199
0.187287
0.202748
0.221059
0.242838
0.268893
0.300265
0.338288
0.38467
0.441675
0.511641
0.59613
0.694682
0.802797
0.910703
1.00563
1.07793
1.12583
1.15406
1.16924
1.1769
1.18061
1.18236
1.18317
1.18353
1.1837
1.18377
1.1838
1.18381
1.18382
1.18382
1.18382
1.18382
1.18382
1.18382
0.658526
0.658501
0.658458
0.658386
0.658265
0.658067
0.657741
0.657212
0.656363
0.655024
0.652945
0.649785
0.645096
0.638339
0.628926
0.616321
0.60018
0.580496
0.55768
0.532536
0.506098
0.479432
0.453445
0.428793
0.405865
0.384824
0.365676
0.348324
0.332619
0.318393
0.305476
0.293711
0.282957
0.273094
0.264017
0.255641
0.247882
0.240643
0.233867
0.227507
0.221523
0.215882
0.210555
0.205516
0.200745
0.196224
0.191939
0.187876
0.184028
0.180384
0.17694
0.173692
0.170637
0.167776
0.165112
0.16265
0.160402
0.158382
0.156611
0.155161
0.153977
0.15315
0.152741
0.152829
0.160794
0.171282
0.18374
0.198487
0.215959
0.236731
0.261559
0.291425
0.32759
0.371661
0.425796
0.492425
0.573429
0.669055
0.77597
0.885561
0.985136
1.06355
1.11701
1.14919
1.16678
1.1757
1.18005
1.1821
1.18305
1.18348
1.18367
1.18376
1.18379
1.18381
1.18382
1.18382
1.18382
1.18382
1.18382
1.18382
0.658526
0.658501
0.658459
0.658388
0.65827
0.658074
0.657753
0.657232
0.656396
0.655077
0.653028
0.649912
0.645287
0.638616
0.629314
0.616843
0.600852
0.581318
0.558639
0.533602
0.507235
0.480601
0.454614
0.429938
0.40697
0.385883
0.366686
0.349288
0.33354
0.319275
0.306325
0.294531
0.283754
0.273869
0.264775
0.256383
0.248613
0.241366
0.234583
0.228218
0.22223
0.216584
0.211253
0.206209
0.201433
0.196907
0.192615
0.188544
0.184686
0.181031
0.177574
0.17431
0.171236
0.168353
0.165663
0.163171
0.160887
0.158824
0.157003
0.155497
0.154306
0.153469
0.153114
0.153393
0.158179
0.168165
0.18003
0.194071
0.210695
0.230439
0.254009
0.282325