/*--------------------------------*- C++ -*----------------------------------*\
  =========                 |
  \\      /  F ield         | OpenFOAM: The Open Source CFD Toolbox
   \\    /   O peration     | Website:  https://openfoam.org
    \\  /    A nd           | Version:  8
     \\/     M anipulation  |
\*---------------------------------------------------------------------------*/
FoamFile
{
    version     2.0;
    format      ascii;
    class       volScalarField;
    location    "220/fluid";
    object      T;
}
// * * * * * * * * * * * * * * * * * * * * * * * * * * * * * * * * * * * * * //

dimensions      [0 0 0 1 0 0 0];

internalField   nonuniform List<scalar> 
4000
(
293.003
293.014
293.033
293.063
293.114
293.199
293.337
293.562
293.924
294.5
295.404
296.802
298.923
302.076
306.648
313.099
321.925
333.599
348.506
366.871
388.733
413.942
442.214
473.185
506.479
541.744
578.682
617.05
656.663
697.378
739.087
781.704
825.154
869.366
914.263
959.76
1005.77
1052.29
1099.33
1146.84
1194.73
1242.95
1291.41
1340.06
1388.81
1437.58
1486.28
1534.83
1583.11
1631.03
1678.47
1725.3
1771.37
1816.54
1860.62
1903.4
1944.63
1984
2021.17
2055.67
2086.68
2113.46
2136.01
2152.7
2162.18
2162.58
2052.75
1935.62
1813.21
1687.2
1559.06
1430.09
1301.5
1174.49
1050.28
930.137
815.131
706.814
607.583
520.12
446.989
390.01
349.412
323.303
308.162
300.192
296.296
294.472
293.645
293.278
293.119
293.05
293.021
293.009
293.004
293.001
293.001
293
293
293
293.003
293.014
293.033
293.065
293.117
293.204
293.346
293.577
293.95
294.544
295.475
296.911
299.084
302.304
306.957
313.497
322.411
334.164
349.129
367.529
389.399
414.6
442.855
473.812
507.102
542.38
579.35
617.772
657.458
698.264
740.08
782.817
826.397
870.747
915.789
961.434
1007.59
1054.27
1101.47
1149.13
1197.18
1245.55
1294.16
1342.96
1391.84
1440.75
1489.57
1538.23
1586.63
1634.65
1682.17
1729.08
1775.22
1820.43
1864.53
1907.3
1948.48
1987.77
2024.76
2058.99
2089.3
2115.4
2136.66
2151.06
2156.69
2149.51
2037.19
1918.12
1794.08
1666.63
1537.18
1407.01
1277.36
1149.43
1024.53
903.968
788.893
681.194
583.54
498.761
429.382
376.848
340.663
318.175
305.49
298.929
295.733
294.231
293.545
293.237
293.102
293.043
293.018
293.008
293.003
293.001
293.001
293
293
293
293.003
293.015
293.034
293.067
293.12
293.21
293.357
293.595
293.98
294.591
295.548
297.021
299.246
302.532
307.269
313.908
322.933
334.801
349.876
368.374
390.325
415.589
443.894
474.893
508.226
543.557
580.594
619.102
658.894
699.83
741.796
784.704
828.474
873.03
918.292
964.168
1010.56
1057.5
1104.96
1152.89
1201.2
1249.84
1298.72
1347.77
1396.91
1446.05
1495.11
1543.99
1592.59
1640.8
1688.49
1735.54
1781.8
1827.1
1871.26
1914.04
1955.19
1994.38
2031.2
2065.13
2094.82
2120.63
2140.72
2153.2
2155.24
2123.45
2009.46
1888.62
1762.9
1633.96
1503.25
1372.11
1241.84
1113.72
989.148
869.454
755.946
650.854
556.943
476.919
412.895
365.616
333.83
314.446
303.633
298.06
295.34
294.058
293.47
293.205
293.089
293.038
293.016
293.007
293.003
293.001
293
293
293
293
293.003
293.015
293.035
293.068
293.123
293.215
293.365
293.61
294.003
294.628
295.604
297.105
299.369
302.709
307.515
314.24
323.366
335.347
350.544
369.165
391.238
416.62
445.037
476.147
509.591
545.038
582.199
620.844
660.789
701.894
744.05
787.167
831.166
875.969
921.493
967.646
1014.33
1061.58
1109.36
1157.62
1206.27
1255.23
1304.45
1353.83
1403.29
1452.75
1502.11
1551.28
1600.15
1648.6
1696.51
1743.75
1790.16
1835.57
1879.79
1922.59
1963.68
2002.76
2039.41
2073.14
2102.54
2128.34
2148.97
2163.22
2169.6
2091.91
1975.65
1852.79
1725.35
1595.06
1463.4
1331.76
1201.48
1073.91
950.506
832.509
721.476
619.859
530.379
455.528
396.98
354.844
327.245
310.793
301.767
297.166
294.928
293.874
293.389
293.171
293.074
293.032
293.013
293.006
293.002
293.001
293
293
293
293
293.004
293.016
293.036
293.07
293.126
293.22
293.373
293.623
294.025
294.662
295.657
297.187
299.49
302.885
307.763
314.579
323.815
335.922
351.257
370.022
392.24
417.764
446.321
477.568
511.152
546.742
584.056
622.865
662.989
704.29
746.66
790.01
834.262
879.336
925.148
971.601
1018.6
1066.19
1114.33
1162.95
1211.96
1261.3
1310.89
1360.64
1410.47
1460.28
1509.98
1559.47
1608.63
1657.36
1705.51
1752.95
1799.52
1845.04
1889.29
1932.05
1973
2011.8
2048
2080.91
2109.49
2134.26
2153.35
2165.69
2169.9
2059.01
1939.71
1814.48
1685.27
1553.77
1421.46
1289.72
1159.91
1033.42
911.696
795.923
687.935
590.302
505.632
436.138
382.996
345.684
321.814
307.851
300.288
296.461
294.604
293.728
293.325
293.143
293.062
293.027
293.011
293.005
293.002
293.001
293
293
293
293
293.004
293.016
293.036
293.071
293.129
293.224
293.38
293.635
294.043
294.692
295.704
297.259
299.599
303.044
307.991
314.896
324.241
336.478
351.959
370.882
393.264
418.953
447.674
479.085
512.832
548.59
586.077
625.069
665.39
706.902
749.5
793.097
837.613
882.97
929.079
975.843
1023.17
1071.12
1119.62
1168.61
1218
1267.73
1317.7
1367.83
1418.03
1468.21
1518.26
1568.08
1617.55
1666.55
1714.95
1762.59
1809.3
1854.91
1899.18
1941.86
1982.62
2021.07
2056.69
2088.25
2115.2
2137.34
2151.95
2156.23
2142.3
2026.13
1903.27
1775.58
1644.76
1512.33
1379.71
1248.23
1119.26
994.207
874.43
761.173
656.517
563.041
483.205
418.903
370.812
337.844
317.221
305.376
299.042
295.865
294.327
293.603
293.269
293.119
293.052
293.022
293.009
293.004
293.002
293.001
293
293
293
293
293.004
293.016
293.037
293.072
293.131
293.228
293.387
293.645
294.061
294.72
295.749
297.328
299.704
303.199
308.213
315.207
324.664
337.033
352.665
371.752
394.305
420.169
449.066
480.652
514.575
550.511
588.183
627.368
667.893
709.625
752.457
796.305
841.088
886.728
933.134
980.207
1027.87
1076.16
1125.02
1174.38
1224.15
1274.25
1324.61
1375.11
1425.68
1476.22
1526.61
1576.75
1626.52
1675.78
1724.4
1772.22
1819.06
1864.74
1909.01
1951.61
1992.21
2030.43
2065.75
2096.64
2123.13
2144.68
2159.05
2163.9
2107.44
1989.83
1865.47
1736.55
1604.88
1472.06
1339.52
1208.63
1080.77
957.367
839.654
729.05
627.826
538.504
463.368
403.97
360.496
331.354
313.492
303.394
298.055
295.393
294.108
293.504
293.225
293.099
293.043
293.019
293.008
293.003
293.001
293.001
293
293
293
293
293.004
293.016
293.038
293.073
293.133
293.231
293.393
293.655
294.077
294.746
295.791
297.393
299.803
303.346
308.427
315.508
325.075
337.577
353.36
372.613
395.343
421.387
450.464
482.231
516.335
552.454
590.314
629.696
670.427
712.377
755.442
799.537
844.583
890.499
937.195
984.566
1032.55
1081.17
1130.38
1180.1
1230.23
1280.7
1331.41
1382.28
1433.2
1484.07
1534.78
1585.22
1635.25
1684.75
1733.57
1781.53
1828.46
1874.15
1918.36
1960.8
2001.12
2038.9
2073.62
2103.74
2130.39
2151.85
2167.01
2174.42
2075.11
1955.45
1829.51
1699.46
1567.15
1434.15
1301.89
1171.77
1045.15
923.47
807.855
699.946
602.119
516.812
446.112
391.222
351.862
326.02
310.468
301.799
297.266
295.016
293.933
293.424
293.19
293.084
293.036
293.016
293.007
293.003
293.001
293
293
293
293
293
293.004
293.017
293.038
293.074
293.135
293.235
293.398
293.665
294.093
294.771
295.831
297.455
299.897
303.488
308.633
315.799
325.473
338.105
354.039
373.457
396.361
422.584
451.841
483.788
518.072
554.373
592.42
631.994
672.927
715.09
758.381
802.715
848.013
894.194
941.164
988.819
1037.1
1086.05
1135.58
1185.63
1236.1
1286.91
1337.96
1389.16
1440.4
1491.58
1542.58
1593.29
1643.56
1693.27
1742.24
1790.32
1837.31
1882.97
1927.06
1969.27
2009.2
2046.38
2080
2108.9
2133.68
2152.17
2162.77
2163.06
2047.38
1924.45
1796.42
1665.14
1532.22
1399.14
1267.29
1138.02
1012.72
892.728
779.188
673.934
579.382
497.872
431.28
380.463
344.714
321.681
308.042
300.531
296.64
294.718
293.794
293.361
293.161
293.071
293.031
293.013
293.006
293.002
293.001
293
293
293
293
293
293.004
293.017
293.039
293.075
293.136
293.238
293.404
293.674
294.107
294.795
295.868
297.514
299.987
303.622
308.829
316.077
325.856
338.614
354.692
374.27
397.344
423.741
453.173
485.295
519.754
556.231
594.457
634.217
675.344
717.71
761.215
805.775
851.311
897.739
944.967
992.885
1041.45
1090.69
1140.53
1190.89
1241.67
1292.78
1344.14
1395.64
1447.17
1498.63
1549.89
1600.83
1651.32
1701.2
1750.31
1798.48
1845.5
1891.14
1935.11
1977.09
2016.65
2053.27
2085.61
2113.18
2135.82
2150.76
2155.26
2137.42
2019.36
1894.65
1765.39
1633.37
1500.17
1367.23
1235.91
1107.57
983.579
865.216
753.676
650.971
559.506
481.514
418.657
371.459
338.833
318.164
306.097
299.523
296.145
294.481
293.684
293.311
293.139
293.061
293.027
293.012
293.005
293.002
293.001
293
293
293
293
293
293.004
293.017
293.039
293.076
293.138
293.241
293.409
293.682
294.121
294.817
295.903
297.569
300.072
303.749
309.015
316.341
326.218
339.096
355.313
375.043
398.277
424.84
454.439
486.727
521.352
557.996
596.392
636.326
677.634
720.191
763.896
808.666
854.421
901.079
948.543
996.703
1045.53
1095.04
1145.15
1195.78
1246.84
1298.24
1349.87
1401.63
1453.43
1505.13
1556.62
1607.76
1658.43
1708.46
1757.68
1805.93
1852.98
1898.6
1942.51
1984.38
2023.79
2060.23
2092.29
2119.66
2142.32
2157.81
2164.06
2111.35
1992.19
1866.59
1736.71
1604.37
1471.15
1338.51
1207.82
1080.42
957.711
840.872
731.222
630.908
542.296
467.509
407.997
363.971
334.018
315.323
304.542
298.721
295.752
294.295
293.598
293.271
293.121
293.054
293.023
293.01
293.004
293.002
293.001
293
293
293
293
293
293.004
293.017
293.04
293.077
293.14
293.243
293.413
293.69
294.134
294.838
295.936
297.62
300.151
303.868
309.188
316.586
326.557
339.546
355.892
375.765
399.15
425.867
455.622
488.064
522.843
559.642
598.195
638.291
679.766
722.497
766.386
811.348
857.303
904.169
951.847
1000.23
1049.29
1099.04
1149.4
1200.27
1251.58
1303.22
1355.09
1407.09
1459.1
1511.01
1562.69
1614.01
1664.82
1714.96
1764.27
1812.56
1859.61
1905.2
1949.04
1990.8
2030.08
2066.35
2098.34
2125.76
2148.78
2165.15
2172.93
2087.97
1967.89
1841.56
1711.17
1578.59
1445.42
1313.1
1183.01
1056.51
934.989
819.55
711.656
613.537
527.517
455.606
399.05
357.774
330.087
313.031
303.298
298.084
295.44
294.146
293.529
293.24
293.107
293.047
293.021
293.009
293.004
293.002
293.001
293
293
293
293
293
293.004
293.017
293.04
293.078
293.141
293.246
293.417
293.697
294.145
294.856
295.966
297.667
300.223
303.976
309.346
316.812
326.867
339.959
356.424
376.427
399.95
426.809
456.705
489.288
524.208
561.148
599.843
640.085
681.712
724.601
768.654
813.788
859.924
906.974
954.842
1003.41
1052.68
1102.65
1153.22
1204.32
1255.84
1307.69
1359.77
1411.96
1464.17
1516.25
1568.08
1619.53
1670.45
1720.67
1770.01
1818.3
1865.31
1910.79
1954.46
1995.97
2034.92
2070.87
2102.45
2129.61
2152.42
2168.73
2176.69
2069.69
1947.66
1820.09
1688.98
1556.07
1422.9
1290.87
1161.33
1035.66
915.204
801.04
694.75
598.617
514.918
445.556
391.582
352.666
326.886
311.182
302.302
297.576
295.192
294.029
293.474
293.215
293.096
293.042
293.019
293.008
293.003
293.001
293.001
293
293
293
293
293
293.004
293.018
293.04
293.079
293.142
293.248
293.421
293.703
294.155
294.873
295.993
297.709
300.288
304.074
309.489
317.015
327.146
340.331
356.901
377.022
400.668
427.653
457.676
490.386
525.431
562.496
601.318
641.69
683.452
726.48
770.678
815.964
862.256
909.469
957.502
1006.24
1055.69
1105.84
1156.6
1207.88
1259.59
1311.62
1363.87
1416.23
1468.59
1520.81
1572.77
1624.32
1675.31
1725.56
1774.91
1823.15
1870.06
1915.36
1958.77
1999.92
2038.4
2073.63
2103.99
2130.66
2151.59
2165.32
2169.49
2053.45
1929.97
1801.4
1669.69
1536.51
1403.36
1271.6
1142.59
1017.66
898.153
785.128
680.276
585.921
504.276
437.141
385.393
348.48
324.29
309.696
301.506
297.172
294.996
293.936
293.431
293.195
293.087
293.039
293.017
293.007
293.003
293.001
293.001
293
293
293
293
293
293.004
293.018
293.041
293.079
293.143
293.25
293.424
293.708
294.164
294.888
296.016
297.746
300.345
304.159
309.614
317.192
327.39
340.656
357.32
377.542
401.296
428.392
458.525
491.345
526.499
563.673
602.605
643.09
684.967
728.115
772.439
817.855
864.282
911.633
959.807
1008.69
1058.29
1108.6
1159.51
1210.95
1262.81
1314.99
1367.39
1419.89
1472.37
1524.7
1576.75
1628.37
1679.4
1729.68
1779
1827.17
1873.95
1919.06
1962.18
2002.94
2040.85
2075.07
2104.37
2129.57
2148.36
2159.02
2158.74
2040.14
1915.03
1785.46
1653.19
1519.78
1386.66
1255.17
1126.63
1002.37
883.689
771.659
668.082
575.271
495.405
430.181
380.321
345.082
322.202
308.509
300.874
296.852
294.841
293.862
293.397
293.18
293.08
293.035
293.015
293.007
293.003
293.001
293.001
293
293
293
293
293
293.004
293.018
293.041
293.08
293.144
293.251
293.427
293.713
294.172
294.9
296.036
297.777
300.393
304.231
309.72
317.343
327.597
340.932
357.674
377.983
401.828
429.017
459.244
492.156
527.401
564.667
603.693
644.271
686.246
729.495
773.923
819.447
865.987
913.453
961.743
1010.74
1060.47
1110.9
1161.95
1213.51
1265.5
1317.8
1370.31
1422.92
1475.49
1527.91
1580.03
1631.7
1682.76
1733.04
1782.33
1830.43
1877.09
1922.03
1964.9
2005.32
2042.77
2076.12
2104.59
2128.63
2145.81
2154.24
2147.59
2027.83
1901.89
1771.77
1639.19
1505.7
1372.68
1241.46
1113.35
989.685
871.711
760.545
658.05
566.546
488.169
424.54
376.24
342.37
320.546
307.574
300.377
296.603
294.719
293.805
293.37
293.168
293.075
293.033
293.014
293.006
293.003
293.001
293
293
293
293
293
293
293.004
293.018
293.041
293.08
293.145
293.253
293.429
293.717
294.178
294.91
296.052
297.803
300.432
304.29
309.806
317.465
327.765
341.155
357.961
378.34
402.259
429.523
459.825
492.812
528.132
565.472
604.572
645.226
687.279
730.609
775.121
820.732
867.36
914.917
963.299
1012.39
1062.22
1112.75
1163.9
1215.56
1267.64
1320.04
1372.64
1425.33
1477.98
1530.46
1582.63
1634.33
1685.41
1735.68
1784.94
1832.98
1879.55
1924.36
1967.06
2007.26
2044.44
2077.3
2105.38
2128.96
2145.59
2153.4
2137.82
2017.36
1890.92
1760.49
1627.77
1494.28
1361.39
1230.43
1102.7
979.538
862.153
751.689
650.078
559.635
482.464
420.112
373.055
340.265
319.268
306.854
299.997
296.412
294.627
293.761
293.35
293.158
293.071
293.031
293.014
293.006
293.003
293.001
293
293
293
293
293
293
293.004
293.018
293.041
293.08
293.146
293.254
293.431
293.719
294.183
294.918
296.064
297.822
300.461
304.334
309.871
317.557
327.892
341.324
358.178
378.61
402.585
429.906
460.265
493.309
528.684
566.08
605.236
645.949
688.06
731.451
776.025
821.701
868.396
916.02
964.47
1013.63
1063.54
1114.14
1165.36
1217.09
1269.24
1321.71
1374.37
1427.12
1479.82
1532.34
1584.54
1636.27
1687.35
1737.61
1786.85
1834.85
1881.36
1926.09
1968.7
2008.8
2045.88
2078.64
2106.72
2130.42
2147.41
2155.96
2130.5
2009.38
1882.53
1751.87
1619.07
1485.61
1352.85
1222.11
1094.69
971.914
854.974
745.045
644.108
554.473
478.214
416.826
370.699
338.713
318.328
306.325
299.717
296.273
294.559
293.729
293.335
293.152
293.068
293.03
293.013
293.006
293.002
293.001
293
293
293
293
293
293
293.004
293.018
293.041
293.081
293.146
293.254
293.432
293.721
294.186
294.923
296.072
297.834
300.481
304.364
309.914
317.619
327.977
341.437
358.323
378.79
402.803
430.162
460.56
493.641
529.055
566.489
605.683
646.433
688.584
732.015
776.631
822.35
869.088
916.756
965.25
1014.46
1064.41
1115.06
1166.33
1218.11
1270.3
1322.81
1375.51
1428.29
1481.02
1533.57
1585.79
1637.52
1688.6
1738.85
1788.07
1836.04
1882.5
1927.19
1969.76
2009.82
2046.89
2079.76
2107.98
2132.01
2149.61
2159.18
2125.63
2003.97
1876.81
1745.99
1613.15
1479.73
1347.08
1216.5
1089.29
966.783
850.15
740.588
640.111
551.021
475.378
414.637
369.133
337.683
317.704
305.974
299.531
296.18
294.514
293.707
293.325
293.147
293.066
293.029
293.013
293.005
293.002
293.001
293
293
293
293
293
293
293.004
293.018
293.041
293.081
293.146
293.255
293.433
293.722
294.188
294.925
296.076
297.841
300.49
304.378
309.935
317.648
328.018
341.491
358.393
378.878
402.909
430.287
460.704
493.804
529.237
566.689
605.902
646.672
688.842
732.294
776.931
822.67
869.429
917.118
965.634
1014.87
1064.84
1115.51
1166.8
1218.61
1270.82
1323.35
1376.07
1428.87
1481.61
1534.16
1586.39
1638.12
1689.2
1739.44
1788.64
1836.59
1883.03
1927.68
1970.22
2010.26
2047.33
2080.27
2108.59
2132.83
2150.8
2161
2123.16
2001.16
1873.83
1742.94
1610.09
1476.71
1344.13
1213.65
1086.57
964.215
847.747
738.38
638.14
549.328
473.993
413.574
368.377
337.187
317.404
305.805
299.441
296.135
294.492
293.697
293.32
293.145
293.065
293.029
293.012
293.005
293.002
293.001
293
293
293
293
293
293
293.004
293.018
293.041
293.081
293.146
293.255
293.433
293.722
294.188
294.925
296.076
297.841
300.49
304.378
309.935
317.649
328.018
341.492
358.394
378.879
402.91
430.288
460.705
493.806
529.239
566.691
605.904
646.674
688.845
732.297
776.934
822.673
869.433
917.122
965.637
1014.87
1064.84
1115.52
1166.81
1218.61
1270.83
1323.35
1376.07
1428.87
1481.61
1534.17
1586.39
1638.12
1689.2
1739.44
1788.64
1836.59
1883.03
1927.68
1970.22
2010.26
2047.33
2080.27
2108.59
2132.84
2150.81
2161.01
2123.14
2001.15
1873.81
1742.93
1610.08
1476.7
1344.12
1213.64
1086.56
964.203
847.736
738.369
638.13
549.319
473.985
413.567
368.372
337.184
317.402
305.804
299.441
296.134
294.492
293.697
293.32
293.145
293.065
293.029
293.012
293.005
293.002
293.001
293
293
293
293
293
293
293.004
293.018
293.041
293.081
293.146
293.254
293.432
293.721
294.186
294.923
296.073
297.835
300.481
304.365
309.915
317.62
327.979
341.439
358.326
378.794
402.807
430.167
460.565
493.647
529.061
566.495
605.689
646.44
688.592
732.023
776.64
822.359
869.098
916.767
965.261
1014.47
1064.42
1115.07
1166.34
1218.12
1270.32
1322.82
1375.53
1428.31
1481.04
1533.58
1585.8
1637.53
1688.61
1738.86
1788.08
1836.04
1882.51
1927.19
1969.76
2009.82
2046.89
2079.76
2107.99
2132.03
2149.64
2159.21
2125.56
2003.91
1876.76
1745.95
1613.1
1479.68
1347.03
1216.46
1089.25
966.745
850.113
740.553
640.078
550.992
475.353
414.617
369.119
337.674
317.699
305.971
299.53
296.179
294.514
293.707
293.325
293.147
293.066
293.029
293.013
293.005
293.002
293.001
293
293
293
293
293
293
293.004
293.018
293.041
293.08
293.146
293.254
293.431
293.719
294.183
294.918
296.065
297.822
300.462
304.336
309.873
317.56
327.896
341.328
358.183
378.616
402.592
429.914
460.274
493.318
528.695
566.092
605.248
645.961
688.073
731.465
776.041
821.717
868.413
916.038
964.489
1013.65
1063.56
1114.16
1165.38
1217.12
1269.27
1321.73
1374.4
1427.14
1479.84
1532.36
1584.56
1636.29
1687.37
1737.63
1786.87
1834.86
1881.37
1926.1
1968.71
2008.8
2045.88
2078.65
2106.74
2130.45
2147.45
2155.99
2130.37
2009.28
1882.44
1751.79
1618.99
1485.53
1352.78
1222.04
1094.62
971.848
854.911
744.986
644.054
554.424
478.173
416.793
370.676
338.698
318.319
306.321
299.715
296.271
294.558
293.728
293.335
293.152
293.068
293.03
293.013
293.006
293.002
293.001
293
293
293
293
293
293
293.004
293.018
293.041
293.08
293.145
293.253
293.429
293.717
294.178
294.91
296.053
297.803
300.433
304.292
309.808
317.468
327.77
341.161
357.968
378.349
402.269
429.535
459.838
492.826
528.147
565.488
604.589
645.245
687.298
730.63
775.143
820.755
867.385
914.944
963.327
1012.42
1062.25
1112.79
1163.93
1215.6
1267.68
1320.07
1372.68
1425.36
1478.01
1530.49
1582.66
1634.37
1685.44
1735.71
1784.97
1833.01
1879.57
1924.38
1967.08
2007.27
2044.45
2077.31
2105.4
2128.99
2145.62
2153.4
2137.65
2017.22
1890.8
1760.37
1627.66
1494.17
1361.28
1230.33
1102.6
979.443
862.063
751.605
650
559.567
482.407
420.067
373.023
340.244
319.256
306.848
299.993
296.411
294.626
293.76
293.35
293.158
293.071
293.031
293.014
293.006
293.003
293.001
293
293
293
293
293
293
293.004
293.018
293.041
293.08
293.144
293.251
293.427
293.713
294.172
294.9
296.037
297.778
300.394
304.234
309.723
317.347
327.603
340.939
357.684
377.994
401.842
429.032
459.261
492.174
527.421
564.689
603.715
644.296
686.271
729.522
773.952
819.478
866.019
913.487
961.779
1010.78
1060.51
1110.95
1161.99
1213.56
1265.54
1317.85
1370.36
1422.97
1475.55
1527.96
1580.08
1631.75
1682.81
1733.09
1782.38
1830.47
1877.13
1922.06
1964.93
2005.34
2042.79
2076.14
2104.61
2128.64
2145.81
2154.19
2147.43
2027.7
1901.76
1771.63
1639.06
1505.56
1372.54
1241.32
1113.22
989.561
871.594
760.435
657.949
566.456
488.094
424.481
376.198
342.343
320.531
307.565
300.373
296.601
294.719
293.804
293.37
293.168
293.075
293.033
293.014
293.006
293.003
293.001
293
293
293
293
293
293
293.004
293.018
293.041
293.079
293.143
293.25
293.424
293.708
294.165
294.888
296.017
297.747
300.346
304.162
309.618
317.198
327.398
340.665
357.331
377.556
401.313
428.41
458.546
491.368
526.523
563.699
602.634
643.12
684.999
728.149
772.475
817.893
864.322
911.676
959.852
1008.74
1058.34
1108.65
1159.57
1211.01
1262.87
1315.05
1367.45
1419.95
1472.43
1524.77
1576.82
1628.44
1679.47
1729.74
1779.07
1827.24
1874.01
1919.12
1962.24
2002.99
2040.9
2075.11
2104.41
2129.59
2148.35
2158.97
2158.63
2040.03
1914.9
1785.32
1653.03
1519.62
1386.49
1255.01
1126.47
1002.22
883.545
771.523
667.955
575.159
495.31
430.107
380.267
345.048
322.182
308.499
300.869
296.85
294.839
293.861
293.396
293.18
293.08
293.035
293.015
293.007
293.003
293.001
293.001
293
293
293
293
293
293.004
293.018
293.04
293.079
293.142
293.248
293.421
293.703
294.156
294.874
295.994
297.711
300.29
304.077
309.494
317.021
327.155
340.342
356.915
377.038
400.688
427.676
457.701
490.413
525.46
562.528
601.353
641.727
683.49
726.52
770.721
816.009
862.305
909.52
957.556
1006.3
1055.75
1105.9
1156.67
1207.95
1259.66
1311.69
1363.95
1416.31
1468.67
1520.89
1572.85
1624.4
1675.39
1725.65
1775
1823.24
1870.14
1915.45
1958.85
1999.99
2038.47
2073.69
2104.03
2130.67
2151.57
2165.26
2169.42
2053.36
1929.84
1801.25
1669.52
1536.34
1403.18
1271.42
1142.41
1017.49
897.985
784.968
680.129
585.787
504.161
437.049
385.326
348.437
324.265
309.683
301.5
297.169
294.994
293.935
293.431
293.195
293.087
293.038
293.017
293.007
293.003
293.001
293.001
293
293
293
293
293
293.004
293.017
293.04
293.078
293.141
293.246
293.418
293.697
294.146
294.857
295.967
297.669
300.225
303.98
309.352
316.819
326.877
339.972
356.44
376.447
399.973
426.835
456.734
489.32
524.243
561.185
599.883
640.128
681.758
724.649
768.705
813.842
859.98
907.034
954.905
1003.48
1052.75
1102.72
1153.3
1204.4
1255.92
1307.77
1359.86
1412.06
1464.26
1516.34
1568.18
1619.63
1670.55
1720.77
1770.12
1818.4
1865.41
1910.89
1954.56
1996.08
2035.03
2070.97
2102.54
2129.69
2152.45
2168.71
2176.65
2069.52
1947.44
1819.85
1688.75
1555.84
1422.67
1290.64
1161.12
1035.45
915.002
800.847
694.569
598.453
514.777
445.443
391.499
352.612
326.854
311.165
302.293
297.572
295.191
294.028
293.474
293.215
293.096
293.042
293.018
293.008
293.003
293.001
293.001
293
293
293
293
293
293.004
293.017
293.04
293.077
293.14
293.243
293.413
293.69
294.134
294.838
295.937
297.622
300.154
303.872
309.194
316.595
326.568
339.561
355.91
375.787
399.176
425.897
455.655
488.101
522.883
559.685
598.241
638.339
679.818
722.552
766.444
811.409
857.369
904.238
951.919
1000.3
1049.37
1099.12
1149.48
1200.37
1251.68
1303.32
1355.19
1407.19
1459.21
1511.12
1562.8
1614.12
1664.93
1715.07
1764.39
1812.67
1859.73
1905.32
1949.16
1990.92
2030.19
2066.45
2098.43
2125.83
2148.86
2165.24
2173.07
2087.75
1967.63
1841.28
1710.9
1578.32
1445.15
1312.84
1182.76
1056.27
934.749
819.32
711.439
613.339
527.346
455.467
398.947
357.706
330.046
313.009
303.287
298.079
295.438
294.145
293.528
293.24
293.107
293.047
293.021
293.009
293.004
293.002
293.001
293
293
293
293
293
293.004
293.017
293.039
293.076
293.138
293.241
293.409
293.682
294.122
294.818
295.905
297.571
300.075
303.754
309.021
316.35
326.231
339.112
355.333
375.068
398.307
424.874
454.477
486.768
521.396
558.044
596.443
636.381
677.693
720.253
763.962
808.735
854.495
901.157
948.625
996.789
1045.62
1095.13
1145.25
1195.89
1246.95
1298.35
1349.98
1401.75
1453.54
1505.25
1556.74
1607.89
1658.55
1708.58
1757.81
1806.05
1853.1
1898.72
1942.63
1984.5
2023.91
2060.34
2092.41
2119.79
2142.47
2158
2164.34
2110.97
1991.82
1866.24
1736.37
1604.04
1470.84
1338.2
1207.51
1080.12
957.424
840.596
730.962
630.67
542.088
467.339
407.869
363.885
333.966
315.295
304.529
298.715
295.749
294.293
293.597
293.271
293.121
293.054
293.023
293.01
293.004
293.002
293.001
293
293
293
293
293
293.004
293.017
293.039
293.075
293.137
293.238
293.404
293.674
294.108
294.796
295.869
297.516
299.991
303.627
308.836
316.087
325.87
338.632
354.715
374.298
397.376
423.778
453.215
485.34
519.804
556.285
594.515
634.278
675.409
717.779
761.288
805.853
851.393
897.826
945.059
992.982
1041.55
1090.8
1140.64
1191
1241.79
1292.9
1344.27
1395.77
1447.3
1498.76
1550.03
1600.97
1651.46
1701.34
1750.45
1798.62
1845.64
1891.27
1935.24
1977.22
2016.78
2053.4
2085.74
2113.3
2135.93
2150.81
2155.17
2136.86
2018.89
1894.22
1764.98
1632.98
1499.79
1366.86
1235.55
1107.22
983.239
864.89
753.367
650.688
559.257
481.308
418.5
371.351
338.767
318.128
306.08
299.515
296.141
294.48
293.684
293.311
293.139
293.061
293.027
293.012
293.005
293.002
293.001
293
293
293
293
293
293.004
293.017
293.038
293.074
293.135
293.235
293.399
293.665
294.094
294.772
295.832
297.457
299.901
303.493
308.64
315.81
325.488
338.125
354.063
373.487
396.396
422.624
451.887
483.838
518.127
554.432
592.483
632.062
672.999
715.167
758.462
802.801
848.104
894.289
941.266
988.925
1037.21
1086.16
1135.71
1185.76
1236.23
1287.04
1338.1
1389.3
1440.54
1491.73
1542.73
1593.44
1643.72
1693.42
1742.39
1790.47
1837.45
1883.11
1927.19
1969.39
2009.31
2046.48
2080.08
2108.97
2133.71
2152.12
2162.58
2162.78
2047.08
1924.09
1796.03
1664.73
1531.8
1398.73
1266.88
1137.62
1012.32
892.35
778.829
673.602
579.088
497.625
431.088
380.329
344.63
321.634
308.019
300.521
296.636
294.716
293.793
293.36
293.161
293.071
293.031
293.013
293.006
293.002
293.001
293
293
293
293
293
293.004
293.016
293.038
293.073
293.133
293.231
293.393
293.656
294.078
294.748
295.792
297.396
299.807
303.352
308.435
315.52
325.091
337.598
353.387
372.646
395.381
421.431
450.514
482.286
516.395
552.519
590.384
629.77
670.506
712.461
755.531
799.631
844.683
890.604
937.306
984.683
1032.67
1081.3
1130.52
1180.24
1230.37
1280.85
1331.56
1382.43
1433.36
1484.23
1534.95
1585.38
1635.42
1684.92
1733.73
1781.69
1828.62
1874.31
1918.51
1960.93
2001.24
2039.01
2073.7
2103.81
2130.45
2151.87
2166.97
2174.39
2074.76
1955.03
1829.04
1698.99
1566.67
1433.67
1301.43
1171.31
1044.71
923.041
807.446
699.564
601.776
516.52
445.882
391.058
351.757
325.961
310.439
301.786
297.26
295.014
293.932
293.423
293.189
293.084
293.036
293.016
293.007
293.003
293.001
293
293
293
293
293
293.004
293.016
293.037
293.072
293.131
293.228
293.387
293.646
294.062
294.721
295.751
297.331
299.708
303.205
308.222
315.22
324.681
337.056
352.694
371.787
394.347
420.217
449.12
480.712
514.64
550.581
588.258
627.449
667.979
709.716
752.554
796.407
841.197
886.842
933.255
980.334
1028
1076.3
1125.17
1174.53
1224.31
1274.42
1324.77
1375.29
1425.86
1476.4
1526.79
1576.93
1626.7
1675.96
1724.58
1772.4
1819.24
1864.91
1909.17
1951.77
1992.37
2030.58
2065.89
2096.8
2123.3
2144.91
2159.31
2164.24
2106.87
1989.26
1864.91
1736
1604.35
1471.54
1339.01
1208.13
1080.28
956.891
839.197
728.618
627.433
538.164
463.094
403.77
360.365
331.279
313.454
303.376
298.048
295.39
294.107
293.503
293.225
293.099
293.043
293.019
293.008
293.003
293.001
293.001
293
293
293
293
293.004
293.016
293.036
293.071
293.129
293.224
293.381
293.635
294.044
294.693
295.706
297.262
299.604
303.051
308
314.909
324.26
336.502
351.99
370.919
393.308
419.004
447.732
479.149
512.903
548.666
586.159
625.157
665.482
707.001
749.605
793.208
837.731
883.093
929.209
975.98
1023.32
1071.27
1119.78
1168.77
1218.17
1267.9
1317.88
1368.02
1418.22
1468.4
1518.46
1568.28
1617.75
1666.75
1715.14
1762.78
1809.5
1855.1
1899.37
1942.04
1982.8
2021.25
2056.87
2088.43
2115.38
2137.5
2152.02
2156.11
2141.67
2025.56
1902.7
1775.02
1644.21
1511.78
1379.16
1247.69
1118.73
993.685
873.924
760.69
656.071
562.649
482.883
418.661
370.65
337.748
317.172
305.354
299.033
295.861
294.326
293.602
293.269
293.118
293.052
293.022
293.009
293.004
293.002
293.001
293
293
293
293
293.004
293.016
293.036
293.07
293.126
293.22
293.374
293.624
294.025
294.663
295.659
297.19
299.495
302.892
307.773
314.594
323.835
335.948
351.289
370.062
392.287
417.819
446.383
477.637
511.227
546.824
584.144
622.958
663.088
704.396
746.772
790.129
834.388
879.469
925.288
971.749
1018.76
1066.36
1114.5
1163.12
1212.15
1261.49
1311.09
1360.84
1410.67
1460.49
1510.19
1559.68
1608.85
1657.58
1705.73
1753.17
1799.73
1845.25
1889.5
1932.24
1973.19
2011.98
2048.16
2081.06
2109.59
2134.3
2153.3
2165.5
2169.63
2058.68
1939.29
1813.99
1684.75
1553.22
1420.9
1289.15
1159.34
1032.86
911.144
795.39
687.437
589.856
505.258
435.85
382.797
345.563
321.751
307.822
300.276
296.457
294.602
293.727
293.325
293.143
293.062
293.027
293.011
293.005
293.002
293.001
293
293
293
293
293.003
293.015
293.035
293.068
293.124
293.215
293.366
293.61
294.004
294.629
295.606
297.109
299.374
302.717
307.526
314.255
323.386
335.374
350.578
369.208
391.289
416.678
445.103
476.22
509.672
545.125
582.293
620.944
660.896
702.008
744.17
787.294
831.301
876.111
921.644
967.803
1014.5
1061.75
1109.55
1157.81
1206.46
1255.44
1304.66
1354.04
1403.51
1452.98
1502.34
1551.51
1600.38
1648.84
1696.75
1743.99
1790.4
1835.81
1880.02
1922.81
1963.9
2002.96
2039.59
2073.28
2102.68
2128.46
2149.08
2163.36
2169.85
2091.47
1975.15
1852.24
1724.78
1594.46
1462.79
1331.15
1200.86
1073.3
949.902
831.924
720.921
619.354
529.947
455.187
396.738
354.693
327.165
310.756
301.752
297.16
294.927
293.873
293.389
293.171
293.074
293.032
293.013
293.006
293.002
293.001
293
293
293
293
293.003
293.015
293.034
293.067
293.121
293.21
293.357
293.596
293.981
294.593
295.55
297.025
299.251
302.54
307.281
313.925
322.955
334.829
349.913
368.419
390.379
415.651
443.964
474.971
508.312
543.649
580.694
619.208
659.008
699.951
741.924
784.84
828.618
873.182
918.452
964.336
1010.74
1057.69
1105.16
1153.09
1201.41
1250.06
1298.94
1348
1397.14
1446.29
1495.36
1544.24
1592.85
1641.05
1688.75
1735.8
1782.06
1827.36
1871.51
1914.29
1955.43
1994.62
2031.43
2065.37
2095.06
2120.87
2140.95
2153.42
2155.43
2122.81
2008.85
1888.02
1762.29
1633.33
1502.61
1371.47
1241.18
1113.06
988.496
868.815
755.332
650.288
556.448
476.518
412.602
365.429
333.727
314.398
303.614
298.053
295.338
294.058
293.47
293.205
293.089
293.038
293.016
293.007
293.003
293.001
293
293
293
293
293.003
293.014
293.033
293.065
293.117