/*--------------------------------*- C++ -*----------------------------------*\
  =========                 |
  \\      /  F ield         | OpenFOAM: The Open Source CFD Toolbox
   \\    /   O peration     | Website:  https://openfoam.org
    \\  /    A nd           | Version:  8
     \\/     M anipulation  |
\*---------------------------------------------------------------------------*/
FoamFile
{
    version     2.0;
    format      ascii;
    class       volVectorField;
    location    "220/fluid";
    object      U;
}
// * * * * * * * * * * * * * * * * * * * * * * * * * * * * * * * * * * * * * //

dimensions      [0 1 -1 0 0 0 0];

internalField   nonuniform List<vector> 
4000
(
(0.0999543 -0.00679868 0)
(0.0997047 -0.0201914 0)
(0.0993018 -0.0334343 0)
(0.0987455 -0.0465955 0)
(0.0980295 -0.0597135 0)
(0.097139 -0.0727975 0)
(0.0960568 -0.0858421 0)
(0.0947663 -0.0988329 0)
(0.0932538 -0.111748 0)
(0.0915109 -0.124559 0)
(0.0895374 -0.13724 0)
(0.087344 -0.149767 0)
(0.084955 -0.162124 0)
(0.0824117 -0.174302 0)
(0.0797776 -0.186282 0)
(0.0771281 -0.198109 0)
(0.0745233 -0.209814 0)
(0.0719996 -0.221406 0)
(0.0695619 -0.232857 0)
(0.0671796 -0.244106 0)
(0.0647919 -0.255051 0)
(0.0623204 -0.265567 0)
(0.0596854 -0.275519 0)
(0.056821 -0.284778 0)
(0.0536891 -0.293218 0)
(0.0502783 -0.300761 0)
(0.0465914 -0.307376 0)
(0.0426403 -0.313051 0)
(0.038444 -0.317796 0)
(0.0340262 -0.321642 0)
(0.0294131 -0.324637 0)
(0.0246308 -0.326844 0)
(0.0197041 -0.32834 0)
(0.0146557 -0.329206 0)
(0.00950544 -0.32953 0)
(0.00427082 -0.329399 0)
(-0.00103195 -0.328901 0)
(-0.00638798 -0.328122 0)
(-0.011786 -0.327144 0)
(-0.0172185 -0.326047 0)
(-0.0226803 -0.324903 0)
(-0.0281676 -0.323779 0)
(-0.0336778 -0.322734 0)
(-0.039209 -0.32182 0)
(-0.0447601 -0.321082 0)
(-0.0503302 -0.320559 0)
(-0.0559187 -0.320284 0)
(-0.0615244 -0.320283 0)
(-0.0671459 -0.320575 0)
(-0.072781 -0.321176 0)
(-0.0784262 -0.322094 0)
(-0.084077 -0.323333 0)
(-0.0897269 -0.324893 0)
(-0.0953675 -0.326766 0)
(-0.100988 -0.328942 0)
(-0.106574 -0.331406 0)
(-0.112108 -0.334139 0)
(-0.11757 -0.33712 0)
(-0.122931 -0.340329 0)
(-0.128156 -0.343743 0)
(-0.133195 -0.347346 0)
(-0.138003 -0.351123 0)
(-0.142561 -0.355086 0)
(-0.14686 -0.359261 0)
(-0.150831 -0.363781 0)
(-0.153662 -0.368744 0)
(-0.153112 -0.373972 0)
(-0.149112 -0.37696 0)
(-0.144516 -0.377452 0)
(-0.139732 -0.375668 0)
(-0.134596 -0.371696 0)
(-0.129067 -0.365507 0)
(-0.12317 -0.35707 0)
(-0.116954 -0.346398 0)
(-0.110478 -0.333565 0)
(-0.103805 -0.318716 0)
(-0.0970166 -0.302075 0)
(-0.0902673 -0.283957 0)
(-0.0838338 -0.264817 0)
(-0.0781018 -0.245264 0)
(-0.0735085 -0.225991 0)
(-0.0705088 -0.208037 0)
(-0.0694418 -0.192057 0)
(-0.0702901 -0.178134 0)
(-0.0726511 -0.165825 0)
(-0.0759273 -0.154489 0)
(-0.0795534 -0.143591 0)
(-0.0831219 -0.132796 0)
(-0.0863855 -0.121925 0)
(-0.0892253 -0.110959 0)
(-0.0916249 -0.0999813 0)
(-0.093615 -0.0890457 0)
(-0.0952415 -0.0781955 0)
(-0.0965528 -0.0674603 0)
(-0.0975946 -0.0568547 0)
(-0.098408 -0.0463802 0)
(-0.0990285 -0.0360288 0)
(-0.0994843 -0.0257787 0)
(-0.0997945 -0.0155568 0)
(-0.0999743 -0.00523424 0)
(0.0999997 -0.00642892 0)
(0.099824 -0.0191774 0)
(0.0994614 -0.0318027 0)
(0.098892 -0.0443259 0)
(0.0981171 -0.0567537 0)
(0.097133 -0.0690735 0)
(0.0959312 -0.0812653 0)
(0.0945041 -0.0933042 0)
(0.0928486 -0.105162 0)
(0.090969 -0.116811 0)
(0.0888796 -0.128227 0)
(0.0866073 -0.139397 0)
(0.0841927 -0.150326 0)
(0.0816895 -0.16105 0)
(0.0791638 -0.171652 0)
(0.0766791 -0.182156 0)
(0.0742867 -0.192594 0)
(0.0720132 -0.202992 0)
(0.0698515 -0.213351 0)
(0.0677584 -0.223631 0)
(0.0656605 -0.233754 0)
(0.0634675 -0.243606 0)
(0.061089 -0.25306 0)
(0.0584497 -0.261992 0)
(0.0554986 -0.270308 0)
(0.0522128 -0.277912 0)
(0.0485923 -0.284711 0)
(0.0446516 -0.290654 0)
(0.0404163 -0.295726 0)
(0.035918 -0.299942 0)
(0.0311908 -0.303338 0)
(0.0262684 -0.30597 0)
(0.021182 -0.307904 0)
(0.01596 -0.309218 0)
(0.0106268 -0.309993 0)
(0.00520377 -0.310311 0)
(-0.000290677 -0.310254 0)
(-0.00584075 -0.309904 0)
(-0.0114343 -0.309343 0)
(-0.0170631 -0.308645 0)
(-0.0227212 -0.307884 0)
(-0.0284048 -0.307122 0)
(-0.0341115 -0.306418 0)
(-0.0398403 -0.305823 0)
(-0.0455906 -0.305382 0)
(-0.0513627 -0.305134 0)
(-0.0571572 -0.305112 0)
(-0.0629743 -0.305343 0)
(-0.0688141 -0.305847 0)
(-0.0746762 -0.306641 0)
(-0.0805592 -0.307736 0)
(-0.0864606 -0.309138 0)
(-0.0923766 -0.310847 0)
(-0.0983016 -0.31286 0)
(-0.104228 -0.315167 0)
(-0.110145 -0.317756 0)
(-0.11604 -0.320609 0)
(-0.121897 -0.323703 0)
(-0.127693 -0.327012 0)
(-0.133394 -0.330503 0)
(-0.138958 -0.334136 0)
(-0.144341 -0.337866 0)
(-0.149519 -0.341651 0)
(-0.154477 -0.34543 0)
(-0.159138 -0.349061 0)
(-0.162614 -0.352046 0)
(-0.162043 -0.354254 0)
(-0.157255 -0.354922 0)
(-0.151932 -0.353798 0)
(-0.146606 -0.350719 0)
(-0.141029 -0.345557 0)
(-0.135082 -0.338206 0)
(-0.12875 -0.328605 0)
(-0.122059 -0.31675 0)
(-0.115034 -0.302712 0)
(-0.107703 -0.286658 0)
(-0.100125 -0.268877 0)
(-0.0924712 -0.249839 0)
(-0.0850839 -0.230248 0)
(-0.0784558 -0.211075 0)
(-0.0731646 -0.193481 0)
(-0.0697439 -0.178038 0)
(-0.0684648 -0.164973 0)
(-0.0691761 -0.153985 0)
(-0.0713806 -0.144409 0)
(-0.0744703 -0.135556 0)
(-0.0779221 -0.126934 0)
(-0.0813782 -0.118284 0)
(-0.0846347 -0.109526 0)
(-0.0875852 -0.100598 0)
(-0.09018 -0.0914339 0)
(-0.0924141 -0.0820747 0)
(-0.0943019 -0.0725787 0)
(-0.0958678 -0.0629975 0)
(-0.0971408 -0.05337 0)
(-0.0981503 -0.0437234 0)
(-0.0989224 -0.0340766 0)
(-0.0994756 -0.024436 0)
(-0.0998226 -0.0147626 0)
(-0.0999942 -0.00496467 0)
(0.0999819 -0.0061901 0)
(0.0997551 -0.0184529 0)
(0.0993109 -0.0305902 0)
(0.0986331 -0.0426205 0)
(0.0977246 -0.0545461 0)
(0.0965858 -0.0663535 0)
(0.0952151 -0.0780241 0)
(0.0936138 -0.0895379 0)
(0.0917888 -0.100874 0)
(0.0897554 -0.112014 0)
(0.0875386 -0.122943 0)
(0.0851759 -0.133656 0)
(0.0827171 -0.144157 0)
(0.0802217 -0.154463 0)
(0.0777501 -0.164606 0)
(0.0753589 -0.174626 0)
(0.0730953 -0.184568 0)
(0.0709835 -0.194465 0)
(0.0690134 -0.204322 0)
(0.0671374 -0.214106 0)
(0.0652765 -0.223746 0)
(0.0633342 -0.233138 0)
(0.0612138 -0.242163 0)
(0.058832 -0.250699 0)
(0.056126 -0.258635 0)
(0.0530569 -0.265886 0)
(0.0496114 -0.272388 0)
(0.045799 -0.278105 0)
(0.0416439 -0.283026 0)
(0.0371786 -0.287163 0)
(0.0324399 -0.290545 0)
(0.0274644 -0.293219 0)
(0.0222872 -0.295244 0)
(0.0169402 -0.296687 0)
(0.0114518 -0.297622 0)
(0.00584686 -0.298123 0)
(0.000147053 -0.298267 0)
(-0.0056291 -0.298128 0)
(-0.011467 -0.297782 0)
(-0.0173562 -0.297301 0)
(-0.0232891 -0.296751 0)
(-0.0292608 -0.296195 0)
(-0.035268 -0.295686 0)
(-0.041309 -0.295274 0)
(-0.0473835 -0.295003 0)
(-0.0534918 -0.29491 0)
(-0.0596351 -0.295027 0)
(-0.0658146 -0.295379 0)
(-0.0720316 -0.295988 0)
(-0.0782872 -0.29687 0)
(-0.0845822 -0.298035 0)
(-0.0909165 -0.299488 0)
(-0.0972892 -0.30123 0)
(-0.103698 -0.303257 0)
(-0.11014 -0.305557 0)
(-0.116608 -0.308114 0)
(-0.123097 -0.310908 0)
(-0.129594 -0.31391 0)
(-0.136086 -0.317085 0)
(-0.14254 -0.320388 0)
(-0.148922 -0.323765 0)
(-0.155219 -0.327153 0)
(-0.16143 -0.330508 0)
(-0.167484 -0.33381 0)
(-0.17265 -0.336897 0)
(-0.175412 -0.338803 0)
(-0.173649 -0.339032 0)
(-0.16807 -0.337863 0)
(-0.161902 -0.335238 0)
(-0.155643 -0.330903 0)
(-0.149099 -0.324666 0)
(-0.142154 -0.316418 0)
(-0.134795 -0.306121 0)
(-0.127036 -0.293815 0)
(-0.118897 -0.27963 0)
(-0.110406 -0.263809 0)
(-0.101656 -0.246725 0)
(-0.0928993 -0.228911 0)
(-0.084577 -0.211058 0)
(-0.0772805 -0.193963 0)
(-0.0716604 -0.178389 0)
(-0.0682125 -0.164872 0)
(-0.0670479 -0.153497 0)
(-0.0678545 -0.143872 0)
(-0.0700637 -0.135354 0)
(-0.0730811 -0.127341 0)
(-0.0764312 -0.119424 0)
(-0.0798014 -0.111383 0)
(-0.0830197 -0.103139 0)
(-0.0860017 -0.0946896 0)
(-0.0887022 -0.0860647 0)
(-0.0910978 -0.0772983 0)
(-0.0931827 -0.0684224 0)
(-0.0949626 -0.0594639 0)
(-0.0964496 -0.0504443 0)
(-0.0976593 -0.0413807 0)
(-0.0986066 -0.0322885 0)
(-0.0993015 -0.0231764 0)
(-0.0997511 -0.0140126 0)
(-0.0999827 -0.0047156 0)
(0.0999855 -0.00588387 0)
(0.0997508 -0.0175385 0)
(0.0992841 -0.0290644 0)
(0.0985684 -0.0404734 0)
(0.0976107 -0.0517631 0)
(0.0964162 -0.0629163 0)
(0.0949886 -0.0739126 0)
(0.0933341 -0.0847311 0)
(0.0914642 -0.0953516 0)
(0.0893975 -0.105756 0)
(0.087161 -0.115934 0)
(0.0847923 -0.125882 0)
(0.0823396 -0.135612 0)
(0.0798609 -0.14515 0)
(0.0774195 -0.154539 0)
(0.0750768 -0.163827 0)
(0.0728803 -0.173065 0)
(0.0708516 -0.182292 0)
(0.068976 -0.191516 0)
(0.0672007 -0.200711 0)
(0.0654412 -0.209812 0)
(0.0635957 -0.218722 0)
(0.0615626 -0.227327 0)
(0.0592548 -0.23551 0)
(0.0566091 -0.243166 0)
(0.0535884 -0.250207 0)
(0.0501795 -0.256566 0)
(0.046389 -0.262206 0)
(0.0422376 -0.267109 0)
(0.0377544 -0.271282 0)
(0.0329732 -0.274751 0)
(0.0279289 -0.277557 0)
(0.0226555 -0.279752 0)
(0.0171845 -0.281397 0)
(0.0115446 -0.282559 0)
(0.00576133 -0.283307 0)
(-0.000142562 -0.28371 0)
(-0.00614754 -0.283838 0)
(-0.0122379 -0.283761 0)
(-0.0184019 -0.283547 0)
(-0.0246311 -0.283258 0)
(-0.0309194 -0.28295 0)
(-0.0372629 -0.282678 0)
(-0.0436593 -0.282486 0)
(-0.050108 -0.282416 0)
(-0.0566093 -0.282503 0)
(-0.0631645 -0.282778 0)
(-0.0697754 -0.283265 0)
(-0.076444 -0.283984 0)
(-0.0831723 -0.28495 0)
(-0.0899625 -0.286172 0)
(-0.0968159 -0.287653 0)
(-0.103733 -0.289394 0)
(-0.110715 -0.291385 0)
(-0.117758 -0.293614 0)
(-0.12486 -0.296061 0)
(-0.132016 -0.298699 0)
(-0.139216 -0.30149 0)
(-0.146445 -0.304389 0)
(-0.153663 -0.307337 0)
(-0.160845 -0.310263 0)
(-0.168016 -0.313082 0)
(-0.175287 -0.315713 0)
(-0.182497 -0.318072 0)
(-0.187231 -0.319927 0)
(-0.187676 -0.320853 0)
(-0.183745 -0.319643 0)
(-0.177584 -0.317032 0)
(-0.170832 -0.313073 0)
(-0.163725 -0.307548 0)
(-0.156172 -0.30029 0)
(-0.148148 -0.291216 0)
(-0.139674 -0.280321 0)
(-0.13079 -0.267676 0)
(-0.121546 -0.25345 0)
(-0.112008 -0.237913 0)
(-0.102347 -0.221465 0)
(-0.0929117 -0.204653 0)
(-0.0842197 -0.188159 0)
(-0.0768821 -0.172728 0)
(-0.0714736 -0.159025 0)
(-0.0683412 -0.147407 0)
(-0.0674493 -0.137781 0)
(-0.0683983 -0.129662 0)
(-0.0706129 -0.122428 0)
(-0.0735419 -0.115553 0)
(-0.0767623 -0.108698 0)
(-0.0799991 -0.101685 0)
(-0.0830958 -0.0944466 0)
(-0.0859717 -0.0869697 0)
(-0.0885889 -0.0792724 0)
(-0.0909317 -0.0713858 0)
(-0.0929958 -0.063343 0)
(-0.0947825 -0.0551727 0)
(-0.096297 -0.0468986 0)
(-0.0975459 -0.0385409 0)
(-0.0985353 -0.0301192 0)
(-0.0992669 -0.0216481 0)
(-0.099741 -0.0131031 0)
(-0.0999841 -0.00441299 0)
(0.0999828 -0.0055712 0)
(0.0997314 -0.016604 0)
(0.0992355 -0.0275112 0)
(0.0984791 -0.0383028 0)
(0.0974711 -0.0489755 0)
(0.0962193 -0.0595121 0)
(0.09473 -0.0698932 0)
(0.0930125 -0.0800996 0)
(0.0910815 -0.0901134 0)
(0.0889587 -0.0999198 0)
(0.0866747 -0.10951 0)
(0.0842703 -0.118882 0)
(0.0817971 -0.12805 0)
(0.0793154 -0.137038 0)
(0.0768903 -0.145883 0)
(0.0745829 -0.154634 0)
(0.0724394 -0.163336 0)
(0.0704782 -0.172026 0)
(0.0686812 -0.180712 0)
(0.0669916 -0.189372 0)
(0.0653205 -0.197947 0)
(0.063562 -0.206349 0)
(0.0616106 -0.214474 0)
(0.0593753 -0.222217 0)
(0.0567896 -0.229478 0)
(0.0538134 -0.236176 0)
(0.0504313 -0.242252 0)
(0.046648 -0.247667 0)
(0.0424823 -0.252407 0)
(0.0379621 -0.256475 0)
(0.0331199 -0.259895 0)
(0.0279899 -0.262702 0)
(0.0226054 -0.264943 0)
(0.0169977 -0.266673 0)
(0.0111954 -0.267953 0)
(0.00522417 -0.268845 0)
(-0.00089285 -0.269414 0)
(-0.00713564 -0.269722 0)
(-0.0134881 -0.269835 0)
(-0.019938 -0.269814 0)
(-0.0264762 -0.269716 0)
(-0.0330961 -0.269596 0)
(-0.0397931 -0.269501 0)
(-0.0465647 -0.269474 0)
(-0.0534098 -0.269552 0)
(-0.0603285 -0.269769 0)
(-0.067322 -0.270153 0)
(-0.0743921 -0.270725 0)
(-0.081541 -0.271503 0)
(-0.0887708 -0.272499 0)
(-0.096084 -0.273722 0)
(-0.103482 -0.275172 0)
(-0.110966 -0.276846 0)
(-0.118534 -0.278733 0)
(-0.126186 -0.280818 0)
(-0.133914 -0.283075 0)
(-0.141709 -0.285474 0)
(-0.149555 -0.287972 0)
(-0.15742 -0.290519 0)
(-0.165249 -0.293047 0)
(-0.172983 -0.295473 0)
(-0.180612 -0.297696 0)
(-0.188169 -0.299574 0)
(-0.195495 -0.300899 0)
(-0.20046 -0.301334 0)
(-0.199805 -0.300964 0)
(-0.193742 -0.298958 0)
(-0.186457 -0.295559 0)
(-0.178823 -0.29078 0)
(-0.170736 -0.284511 0)
(-0.162124 -0.276661 0)
(-0.153015 -0.2672 0)
(-0.143464 -0.256162 0)
(-0.133531 -0.243658 0)
(-0.12329 -0.229886 0)
(-0.112848 -0.215139 0)
(-0.102448 -0.19983 0)
(-0.0925107 -0.184494 0)
(-0.0835928 -0.169757 0)
(-0.0762972 -0.156251 0)
(-0.0711273 -0.144461 0)
(-0.0683059 -0.134554 0)
(-0.0676701 -0.126308 0)
(-0.0687495 -0.119226 0)
(-0.0709689 -0.112774 0)
(-0.0738185 -0.106538 0)
(-0.076924 -0.100262 0)
(-0.0800476 -0.0938184 0)
(-0.0830529 -0.087161 0)
(-0.0858655 -0.0802862 0)
(-0.0884462 -0.0732119 0)
(-0.0907748 -0.0659644 0)
(-0.0928422 -0.0585698 0)
(-0.094645 -0.0510509 0)
(-0.0961838 -0.0434262 0)
(-0.0974611 -0.0357126 0)
(-0.0984789 -0.0279281 0)
(-0.0992355 -0.0200869 0)
(-0.0997284 -0.0121665 0)
(-0.0999826 -0.00409992 0)
(0.0999829 -0.00524058 0)
(0.099725 -0.0156178 0)
(0.0992154 -0.0258738 0)
(0.0984381 -0.0360163 0)
(0.0974039 -0.0460408 0)
(0.0961221 -0.05593 0)
(0.0946012 -0.0656646 0)
(0.0928522 -0.0752261 0)
(0.0908918 -0.0845976 0)
(0.0887434 -0.0937654 0)
(0.086439 -0.102722 0)
(0.0840207 -0.111469 0)
(0.0815405 -0.120018 0)
(0.0790595 -0.128398 0)
(0.0766427 -0.136645 0)
(0.0743508 -0.144809 0)
(0.0722289 -0.152937 0)
(0.0702943 -0.161065 0)
(0.068527 -0.169204 0)
(0.0668678 -0.177333 0)
(0.065226 -0.185397 0)
(0.063494 -0.193314 0)
(0.0615641 -0.200986 0)
(0.0593441 -0.208314 0)
(0.0567656 -0.215204 0)
(0.0537869 -0.22158 0)
(0.050391 -0.227386 0)
(0.0465806 -0.232584 0)
(0.0423725 -0.23716 0)
(0.0377929 -0.241117 0)
(0.0328728 -0.244475 0)
(0.0276448 -0.247265 0)
(0.0221411 -0.24953 0)
(0.0163922 -0.251321 0)
(0.010426 -0.252692 0)
(0.00426785 -0.2537 0)
(-0.00205908 -0.254403 0)
(-0.00853476 -0.254861 0)
(-0.0151433 -0.255133 0)
(-0.0218724 -0.255275 0)
(-0.0287125 -0.25534 0)
(-0.0356566 -0.255377 0)
(-0.0426998 -0.25543 0)
(-0.0498392 -0.255538 0)
(-0.0570732 -0.255736 0)
(-0.0644016 -0.256054 0)
(-0.0718249 -0.256515 0)
(-0.0793446 -0.25714 0)
(-0.0869622 -0.257945 0)
(-0.0946796 -0.258938 0)
(-0.102498 -0.260125 0)
(-0.110418 -0.261506 0)
(-0.11844 -0.263074 0)
(-0.126561 -0.264818 0)
(-0.134775 -0.266716 0)
(-0.143075 -0.268745 0)
(-0.151446 -0.27087 0)
(-0.159865 -0.27305 0)
(-0.168282 -0.275233 0)
(-0.176626 -0.277355 0)
(-0.184829 -0.279338 0)
(-0.192825 -0.281105 0)
(-0.200502 -0.282584 0)
(-0.207332 -0.283576 0)
(-0.211316 -0.283203 0)
(-0.209342 -0.281323 0)
(-0.202117 -0.278243 0)
(-0.193822 -0.274018 0)
(-0.185235 -0.268536 0)
(-0.176181 -0.261703 0)
(-0.166591 -0.253474 0)
(-0.156507 -0.243848 0)
(-0.146008 -0.232884 0)
(-0.135177 -0.22071 0)
(-0.124111 -0.207534 0)
(-0.112969 -0.193655 0)
(-0.102061 -0.179475 0)
(-0.091866 -0.165499 0)
(-0.0829618 -0.152292 0)
(-0.0759213 -0.140387 0)
(-0.0711575 -0.130146 0)
(-0.0687605 -0.121615 0)
(-0.0684499 -0.114511 0)
(-0.0697021 -0.108354 0)
(-0.0719528 -0.102675 0)
(-0.0747343 -0.0971281 0)
(-0.0777175 -0.0915064 0)
(-0.0806991 -0.0857094 0)
(-0.0835644 -0.0797011 0)
(-0.0862508 -0.0734807 0)
(-0.0887246 -0.0670651 0)
(-0.0909673 -0.060478 0)
(-0.0929689 -0.0537433 0)
(-0.0947241 -0.0468814 0)
(-0.0962301 -0.0399096 0)
(-0.0974864 -0.0328438 0)
(-0.0984916 -0.0257017 0)
(-0.0992413 -0.0184981 0)
(-0.0997306 -0.0112119 0)
(-0.099983 -0.00378043 0)
(0.0999823 -0.00490327 0)
(0.0997178 -0.0146116 0)
(0.0991962 -0.0242049 0)
(0.0984016 -0.0336899 0)
(0.0973454 -0.0430619 0)
(0.0960383 -0.0523043 0)
(0.0944896 -0.0613989 0)
(0.0927118 -0.0703284 0)
(0.0907227 -0.0790772 0)
(0.0885472 -0.0876332 0)
(0.0862188 -0.0959899 0)
(0.0837809 -0.104149 0)
(0.0812869 -0.112125 0)
(0.0787988 -0.119942 0)
(0.0763823 -0.127638 0)
(0.074098 -0.135258 0)
(0.0719902 -0.142847 0)
(0.0700744 -0.150439 0)
(0.0683282 -0.158045 0)
(0.0666899 -0.165646 0)
(0.0650661 -0.173191 0)
(0.063347 -0.180605 0)
(0.0614232 -0.187797 0)
(0.0592009 -0.194676 0)
(0.0566108 -0.201157 0)
(0.0536101 -0.207167 0)
(0.0501805 -0.212656 0)
(0.0463237 -0.217588 0)
(0.0420553 -0.221949 0)
(0.0374005 -0.225742 0)
(0.0323888 -0.228984 0)
(0.0270521 -0.231703 0)
(0.0214214 -0.233938 0)
(0.0155266 -0.235735 0)
(0.0093946 -0.237143 0)
(0.00305055 -0.238215 0)
(-0.00348227 -0.239002 0)
(-0.010184 -0.23956 0)
(-0.0170393 -0.239943 0)
(-0.0240361 -0.240201 0)
(-0.0311645 -0.240384 0)
(-0.0384174 -0.240536 0)
(-0.0457894 -0.240696 0)
(-0.0532772 -0.2409 0)
(-0.0608788 -0.241179 0)
(-0.0685933 -0.241559 0)
(-0.0764206 -0.242062 0)
(-0.0843613 -0.242706 0)
(-0.0924162 -0.243502 0)
(-0.100586 -0.244459 0)
(-0.10887 -0.245579 0)
(-0.117268 -0.246859 0)
(-0.125778 -0.248291 0)
(-0.134395 -0.24986 0)
(-0.143112 -0.251546 0)
(-0.151915 -0.25332 0)
(-0.16079 -0.255146 0)
(-0.169705 -0.256982 0)
(-0.178602 -0.258776 0)
(-0.187404 -0.260463 0)
(-0.196099 -0.261984 0)
(-0.204728 -0.263286 0)
(-0.213033 -0.264374 0)
(-0.218622 -0.265089 0)
(-0.219668 -0.264279 0)
(-0.215344 -0.261413 0)
(-0.207607 -0.257483 0)
(-0.198911 -0.252635 0)
(-0.189715 -0.246707 0)
(-0.179941 -0.239595 0)
(-0.16959 -0.231267 0)
(-0.158741 -0.22174 0)
(-0.147498 -0.211091 0)
(-0.135968 -0.199459 0)
(-0.124276 -0.187058 0)
(-0.112634 -0.174182 0)
(-0.101416 -0.16122 0)
(-0.0911396 -0.148641 0)
(-0.0823826 -0.136943 0)
(-0.075672 -0.12656 0)
(-0.071324 -0.117731 0)
(-0.0693104 -0.110401 0)
(-0.0692643 -0.104244 0)
(-0.0706382 -0.098818 0)
(-0.0728924 -0.0937283 0)
(-0.075601 -0.0887007 0)
(-0.0784735 -0.083578 0)
(-0.0813333 -0.0782861 0)
(-0.0840807 -0.0728004 0)
(-0.0866603 -0.0671234 0)
(-0.0890412 -0.0612708 0)
(-0.0912055 -0.0552634 0)
(-0.0931426 -0.0491215 0)
(-0.0948459 -0.0428623 0)
(-0.0963115 -0.0365002 0)
(-0.097537 -0.0300488 0)
(-0.09852 -0.0235237 0)
(-0.0992545 -0.0169385 0)
(-0.0997348 -0.0102726 0)
(-0.0999832 -0.00346548 0)
(0.0999821 -0.00455886 0)
(0.0997136 -0.0135848 0)
(0.0991841 -0.0225024 0)
(0.0983776 -0.0313177 0)
(0.0973064 -0.0400261 0)
(0.0959816 -0.0486118 0)
(0.0944134 -0.0570572 0)
(0.092615 -0.0653464 0)
(0.0906052 -0.0734649 0)
(0.0884098 -0.0814014 0)
(0.0860631 -0.0891506 0)
(0.0836094 -0.096715 0)
(0.0811028 -0.104108 0)
(0.0786059 -0.111354 0)
(0.0761845 -0.118489 0)
(0.0738992 -0.125558 0)
(0.0717933 -0.132602 0)
(0.0698812 -0.139654 0)
(0.0681386 -0.146725 0)
(0.0665018 -0.153797 0)
(0.0648757 -0.160824 0)
(0.0631487 -0.167735 0)
(0.0612104 -0.174447 0)
(0.0589661 -0.180874 0)
(0.0563455 -0.186938 0)
(0.0533053 -0.192574 0)
(0.0498264 -0.197731 0)
(0.0459095 -0.20238 0)
(0.0415695 -0.206506 0)
(0.0368302 -0.21011 0)
(0.0317205 -0.213209 0)
(0.0262711 -0.215827 0)
(0.0205124 -0.218001 0)
(0.0144732 -0.219771 0)
(0.00818016 -0.221182 0)
(0.0016582 -0.222281 0)
(-0.00507007 -0.223117 0)
(-0.0119852 -0.223739 0)
(-0.019072 -0.224197 0)
(-0.0263181 -0.224537 0)
(-0.0337139 -0.224804 0)
(-0.041252 -0.225036 0)
(-0.0489266 -0.22527 0)
(-0.056734 -0.225538 0)
(-0.0646715 -0.225866 0)
(-0.0727375 -0.22628 0)
(-0.080931 -0.226797 0)
(-0.0892514 -0.227432 0)
(-0.0976981 -0.228194 0)
(-0.10627 -0.229091 0)
(-0.114965 -0.230121 0)
(-0.123781 -0.23128 0)
(-0.132712 -0.232558 0)
(-0.141749 -0.233938 0)
(-0.150881 -0.235398 0)
(-0.160092 -0.236908 0)
(-0.169355 -0.23843 0)
(-0.178636 -0.239918 0)
(-0.187858 -0.241312 0)
(-0.196972 -0.242544 0)
(-0.205976 -0.243537 0)
(-0.214998 -0.244195 0)
(-0.223812 -0.244413 0)
(-0.22806 -0.244117 0)
(-0.226177 -0.242866 0)
(-0.219935 -0.239973 0)
(-0.211719 -0.235996 0)
(-0.202688 -0.231058 0)
(-0.192967 -0.225084 0)
(-0.182562 -0.218024 0)
(-0.171558 -0.209874 0)
(-0.160069 -0.200679 0)
(-0.148218 -0.190531 0)
(-0.136132 -0.179581 0)
(-0.123964 -0.168043 0)
(-0.11198 -0.156204 0)
(-0.100604 -0.144433 0)
(-0.0903777 -0.133159 0)
(-0.0818683 -0.122815 0)
(-0.0755479 -0.113749 0)
(-0.0716359 -0.106109 0)
(-0.0699988 -0.0997728 0)
(-0.0702028 -0.0944077 0)
(-0.0716896 -0.0896165 0)
(-0.0739462 -0.0850661 0)
(-0.0765849 -0.080535 0)
(-0.0793495 -0.0758992 0)
(-0.0820871 -0.0711022 0)
(-0.0847119 -0.0661268 0)
(-0.0871764 -0.0609772 0)
(-0.0894531 -0.0556682 0)
(-0.091526 -0.0502186 0)
(-0.0933846 -0.0446462 0)
(-0.0950221 -0.0389662 0)
(-0.0964337 -0.0331909 0)
(-0.0976162 -0.0273322 0)
(-0.0985662 -0.021404 0)
(-0.0992772 -0.0154187 0)
(-0.0997427 -0.00935581 0)
(-0.0999837 -0.00315774 0)
(0.0999818 -0.00420993 0)
(0.0997099 -0.0125446 0)
(0.0991736 -0.0207784 0)
(0.0983572 -0.0289168 0)
(0.0972732 -0.0369555 0)
(0.0959333 -0.0448796 0)
(0.0943481 -0.0526731 0)
(0.0925313 -0.0603208 0)
(0.0905025 -0.0678096 0)
(0.088288 -0.0751294 0)
(0.085923 -0.0822754 0)
(0.0834524 -0.0892504 0)
(0.0809313 -0.0960672 0)
(0.0784228 -0.10275 0)
(0.0759929 -0.109332 0)
(0.0737022 -0.115854 0)
(0.0715934 -0.122357 0)
(0.0696793 -0.128871 0)
(0.067934 -0.135405 0)
(0.0662918 -0.141944 0)
(0.0646555 -0.148444 0)
(0.062912 -0.154841 0)
(0.0609498 -0.161059 0)
(0.0586736 -0.167019 0)
(0.0560128 -0.172649 0)
(0.0529235 -0.177888 0)
(0.0493863 -0.182692 0)
(0.0454016 -0.187032 0)
(0.0409834 -0.190895 0)
(0.036155 -0.194283 0)
(0.0309446 -0.197208 0)
(0.025382 -0.199695 0)
(0.019497 -0.201775 0)
(0.0133179 -0.203485 0)
(0.00687088 -0.204865 0)
(0.000180676 -0.205959 0)
(-0.00673036 -0.20681 0)
(-0.0138433 -0.207463 0)
(-0.0211431 -0.207963 0)
(-0.0286176 -0.208353 0)
(-0.0362569 -0.208671 0)
(-0.0440533 -0.208953 0)
(-0.0520009 -0.209232 0)
(-0.0600952 -0.209535 0)
(-0.0683328 -0.209888 0)
(-0.0767113 -0.21031 0)
(-0.0852285 -0.210818 0)
(-0.0938826 -0.211423 0)
(-0.102671 -0.212135 0)
(-0.111592 -0.212956 0)
(-0.12064 -0.213885 0)
(-0.129809 -0.214916 0)
(-0.139092 -0.216038 0)
(-0.148474 -0.217235 0)
(-0.15794 -0.218483 0)
(-0.167463 -0.219753 0)
(-0.177012 -0.221009 0)
(-0.186524 -0.222205 0)
(-0.195916 -0.22328 0)
(-0.205089 -0.224166 0)
(-0.214005 -0.22478 0)
(-0.222631 -0.224987 0)
(-0.230621 -0.224587 0)
(-0.235213 -0.223532 0)
(-0.233039 -0.221608 0)
(-0.225083 -0.218766 0)
(-0.215768 -0.214881 0)
(-0.205975 -0.210011 0)
(-0.195559 -0.204157 0)
(-0.184494 -0.197311 0)
(-0.172871 -0.189496 0)
(-0.160812 -0.180772 0)
(-0.148447 -0.171245 0)
(-0.135911 -0.161068 0)
(-0.123384 -0.15045 0)
(-0.111177 -0.139669 0)
(-0.099752 -0.129069 0)
(-0.0896603 -0.119037 0)
(-0.0814493 -0.109944 0)
(-0.0755292 -0.102062 0)
(-0.0720266 -0.0954615 0)
(-0.07072 -0.089977 0)
(-0.0711292 -0.0852845 0)
(-0.0726986 -0.0810345 0)
(-0.0749446 -0.076951 0)
(-0.0775145 -0.0728568 0)
(-0.0801804 -0.0686562 0)
(-0.0828083 -0.0643067 0)
(-0.0853234 -0.0597971 0)
(-0.0876836 -0.055133 0)
(-0.0898646 -0.0503282 0)
(-0.0918515 -0.0453992 0)
(-0.0936346 -0.0403619 0)
(-0.095207 -0.035229 0)
(-0.0965638 -0.030011 0)
(-0.0977016 -0.0247177 0)
(-0.0986164 -0.019361 0)
(-0.0993018 -0.0139517 0)
(-0.0997512 -0.00846957 0)
(-0.0999842 -0.00285984 0)
(0.0999816 -0.00385689 0)
(0.0997069 -0.0114923 0)
(0.0991651 -0.0190347 0)
(0.0983405 -0.0264891 0)
(0.0972459 -0.0338514 0)
(0.0958932 -0.0411079 0)
(0.0942935 -0.0482438 0)
(0.0924608 -0.0552453 0)
(0.090415 -0.0621001 0)
(0.0881833 -0.0687993 0)
(0.0858012 -0.0753386 0)
(0.0833143 -0.0817211 0)
(0.0807783 -0.0879588 0)
(0.0782567 -0.0940742 0)
(0.0758159 -0.100099 0)
(0.0735163 -0.106072 0)
(0.0713999 -0.112029 0)
(0.0694784 -0.118 0)
(0.0677242 -0.123993 0)
(0.0660698 -0.129993 0)
(0.0644162 -0.135961 0)
(0.0626491 -0.141837 0)
(0.060656 -0.147552 0)
(0.0583413 -0.153034 0)
(0.055634 -0.158218 0)
(0.0524903 -0.163048 0)
(0.0488905 -0.167483 0)
(0.0448345 -0.171497 0)
(0.0403363 -0.175079 0)
(0.0354185 -0.178229 0)
(0.0301088 -0.180959 0)
(0.0244365 -0.183291 0)
(0.0184309 -0.185252 0)
(0.0121196 -0.186876 0)
(0.00552873 -0.1882 0)
(-0.00131719 -0.189262 0)
(-0.00839592 -0.190101 0)
(-0.015689 -0.190758 0)
(-0.0231816 -0.191275 0)
(-0.0308614 -0.191688 0)
(-0.0387186 -0.192032 0)
(-0.0467451 -0.192341 0)
(-0.0549345 -0.192641 0)
(-0.0632817 -0.192958 0)
(-0.0717826 -0.193314 0)
(-0.0804339 -0.193727 0)
(-0.0892324 -0.194209 0)
(-0.0981747 -0.194772 0)
(-0.107257 -0.195421 0)
(-0.116475 -0.196158 0)
(-0.125821 -0.196982 0)
(-0.135288 -0.197886 0)
(-0.144864 -0.198858 0)
(-0.154534 -0.199882 0)
(-0.164274 -0.200937 0)
(-0.174058 -0.201996 0)
(-0.183842 -0.203026 0)
(-0.193555 -0.203987 0)
(-0.203094 -0.20483 0)
(-0.212371 -0.205506 0)
(-0.221301 -0.20597 0)
(-0.229732 -0.206174 0)
(-0.236892 -0.205981 0)
(-0.240481 -0.204826 0)
(-0.237393 -0.202157 0)
(-0.228645 -0.198842 0)
(-0.218679 -0.194769 0)
(-0.208276 -0.189882 0)
(-0.197286 -0.184148 0)
(-0.185681 -0.177561 0)
(-0.173557 -0.170146 0)
(-0.161042 -0.161962 0)
(-0.148272 -0.153115 0)
(-0.135393 -0.14375 0)
(-0.122613 -0.134068 0)
(-0.110282 -0.124328 0)
(-0.0988902 -0.114847 0)
(-0.0889917 -0.105968 0)
(-0.0811065 -0.0980052 0)
(-0.0755819 -0.0911646 0)
(-0.0724599 -0.0854601 0)
(-0.0714465 -0.0807051 0)
(-0.0720306 -0.0765956 0)
(-0.0736654 -0.0728288 0)
(-0.0758964 -0.0691759 0)
(-0.0784013 -0.0654948 0)
(-0.0809764 -0.0617103 0)
(-0.0835036 -0.0577903 0)
(-0.0859171 -0.0537279 0)
(-0.0881799 -0.0495291 0)
(-0.0902704 -0.0452068 0)
(-0.092175 -0.0407758 0)
(-0.0938848 -0.0362499 0)
(-0.0953933 -0.0316403 0)
(-0.0966958 -0.0269556 0)
(-0.0977887 -0.0222038 0)
(-0.0986681 -0.0173951 0)
(-0.0993273 -0.0125388 0)
(-0.09976 -0.00761492 0)
(-0.0999847 -0.00257221 0)
(0.0999815 -0.00350044 0)
(0.0997042 -0.01043 0)
(0.0991575 -0.0172747 0)
(0.0983256 -0.024039 0)
(0.0972214 -0.0307194 0)
(0.0958572 -0.0373033 0)
(0.0942441 -0.0437771 0)
(0.0923966 -0.0501283 0)
(0.090335 -0.056346 0)
(0.0880868 -0.0624219 0)
(0.085688 -0.0683523 0)
(0.0831849 -0.0741404 0)
(0.0806335 -0.0797975 0)
(0.0780979 -0.0853443 0)
(0.0756449 -0.0908105 0)
(0.0733345 -0.0962308 0)
(0.0712083 -0.10164 0)
(0.0692768 -0.107063 0)
(0.0675108 -0.112508 0)
(0.065841 -0.117963 0)
(0.0641669 -0.12339 0)
(0.0623729 -0.128737 0)
(0.0603459 -0.133939 0)
(0.0579899 -0.138932 0)
(0.0552339 -0.143656 0)
(0.0520341 -0.148063 0)
(0.0483707 -0.152114 0)
(0.0442437 -0.155787 0)
(0.0396667 -0.159069 0)
(0.0346622 -0.161963 0)
(0.0292574 -0.164479 0)
(0.0234813 -0.166635 0)
(0.0173627 -0.168456 0)
(0.010929 -0.169974 0)
(0.00420595 -0.171219 0)
(-0.00278181 -0.172226 0)
(-0.0100121 -0.173031 0)
(-0.0174669 -0.173672 0)
(-0.0251314 -0.174183 0)
(-0.0329935 -0.174598 0)
(-0.041043 -0.174949 0)
(-0.0492714 -0.175263 0)
(-0.0576719 -0.175567 0)
(-0.066239 -0.175881 0)
(-0.0749677 -0.176225 0)
(-0.0838537 -0.176614 0)
(-0.0928927 -0.17706 0)
(-0.10208 -0.177571 0)
(-0.111411 -0.178151 0)
(-0.120878 -0.178802 0)
(-0.130473 -0.179521 0)
(-0.140187 -0.1803 0)
(-0.150004 -0.181128 0)
(-0.159908 -0.181989 0)
(-0.169875 -0.182863 0)
(-0.179874 -0.183725 0)
(-0.189863 -0.184543 0)
(-0.199763 -0.185284 0)
(-0.20948 -0.185907 0)
(-0.218975 -0.186377 0)
(-0.228283 -0.186674 0)
(-0.237105 -0.186831 0)
(-0.243032 -0.186813 0)
(-0.244084 -0.185666 0)
(-0.239205 -0.182716 0)
(-0.230238 -0.179184 0)
(-0.220161 -0.175074 0)
(-0.209481 -0.170294 0)
(-0.198142 -0.164798 0)
(-0.186176 -0.158576 0)
(-0.173702 -0.151652 0)
(-0.16086 -0.144085 0)
(-0.147799 -0.135975 0)
(-0.134677 -0.127459 0)
(-0.121734 -0.118724 0)
(-0.109358 -0.110008 0)
(-0.0980588 -0.1016 0)
(-0.0883874 -0.0937979 0)
(-0.0808328 -0.0868668 0)
(-0.0756817 -0.0809554 0)
(-0.0729009 -0.0760381 0)
(-0.0721392 -0.0719208 0)
(-0.0728664 -0.0683267 0)
(-0.0745495 -0.0649965 0)
(-0.0767614 -0.0617421 0)
(-0.0792061 -0.0584496 0)
(-0.0817001 -0.05506 0)
(-0.084138 -0.0515494 0)
(-0.0864613 -0.0479136 0)
(-0.0886372 -0.0441591 0)
(-0.0906462 -0.0402976 0)
(-0.0924763 -0.0363424 0)
(-0.0941191 -0.0323054 0)
(-0.0955686 -0.0281961 0)
(-0.0968205 -0.0240217 0)
(-0.0978713 -0.0197886 0)
(-0.0987171 -0.0155053 0)
(-0.0993516 -0.0111792 0)
(-0.0997684 -0.00679162 0)
(-0.0999852 -0.00229482 0)
(0.0999813 -0.00314088 0)
(0.0997017 -0.00935855 0)
(0.0991507 -0.0154997 0)
(0.0983121 -0.0215684 0)
(0.0971993 -0.0275615 0)
(0.0958245 -0.0334676 0)
(0.0941992 -0.0392746 0)
(0.0923381 -0.0449712 0)
(0.0902618 -0.0505475 0)
(0.0879979 -0.0559962 0)
(0.0855832 -0.0613143 0)
(0.0830643 -0.0665046 0)
(0.0804978 -0.0715776 0)
(0.0779481 -0.0765524 0)
(0.0754821 -0.0814559 0)
(0.07316 -0.0863198 0)
(0.0710226 -0.0911753 0)
(0.0690795 -0.0960453 0)
(0.0672998 -0.100938 0)
(0.0656129 -0.105839 0)
(0.0639166 -0.110719 0)
(0.0620945 -0.115527 0)
(0.0600327 -0.120207 0)
(0.057635 -0.124701 0)
(0.0548305 -0.128956 0)
(0.0515754 -0.132928 0)
(0.0478503 -0.136583 0)
(0.043655 -0.139901 0)
(0.0390031 -0.14287 0)
(0.0339169 -0.145493 0)
(0.0284233 -0.147778 0)
(0.0225512 -0.149742 0)
(0.0163291 -0.151407 0)
(0.00978403 -0.1528 0)
(0.00294175 -0.153949 0)
(-0.00417295 -0.154885 0)
(-0.0115381 -0.155639 0)
(-0.019136 -0.156245 0)
(-0.0269519 -0.156733 0)
(-0.0349735 -0.157135 0)
(-0.0431903 -0.157476 0)
(-0.0515937 -0.157782 0)
(-0.0601763 -0.158075 0)
(-0.068932 -0.158374 0)
(-0.0778551 -0.158695 0)
(-0.0869404 -0.159052 0)
(-0.0961825 -0.159453 0)
(-0.105576 -0.159907 0)
(-0.115113 -0.160416 0)
(-0.124787 -0.16098 0)
(-0.134586 -0.161596 0)
(-0.1445 -0.162256 0)
(-0.15451 -0.16295 0)
(-0.164598 -0.163661 0)
(-0.174737 -0.164371 0)
(-0.184895 -0.165056 0)
(-0.195023 -0.165688 0)
(-0.205041 -0.166235 0)
(-0.214856 -0.166665 0)
(-0.224485 -0.166939 0)
(-0.234076 -0.167031 0)
(-0.243081 -0.166972 0)
(-0.248122 -0.166736 0)
(-0.246979 -0.165391 0)
(-0.240395 -0.162665 0)
(-0.231204 -0.159331 0)
(-0.221042 -0.155458 0)
(-0.210144 -0.150987 0)
(-0.198524 -0.145889 0)
(-0.186274 -0.140162 0)
(-0.173529 -0.133834 0)
(-0.160439 -0.126964 0)
(-0.14716 -0.119647 0)
(-0.133866 -0.112012 0)
(-0.120826 -0.10423 0)
(-0.108458 -0.0965203 0)
(-0.0972855 -0.089138 0)
(-0.0878534 -0.082344 0)
(-0.0806183 -0.0763553 0)
(-0.0758097 -0.0712772 0)
(-0.0733295 -0.0670578 0)
(-0.072782 -0.0635072 0)
(-0.0736266 -0.0603793 0)
(-0.0753457 -0.0574544 0)
(-0.0775369 -0.0545784 0)
(-0.0799269 -0.05166 0)
(-0.0823489 -0.0486528 0)
(-0.084708 -0.045539 0)
(-0.0869517 -0.0423163 0)
(-0.0890505 -0.0389912 0)
(-0.090987 -0.0355744 0)
(-0.0927502 -0.0320776 0)
(-0.0943327 -0.028511 0)
(-0.0957289 -0.0248828 0)
(-0.0969348 -0.0211989 0)
(-0.0979471 -0.0174643 0)