/*--------------------------------*- C++ -*----------------------------------*\
  =========                 |
  \\      /  F ield         | OpenFOAM: The Open Source CFD Toolbox
   \\    /   O peration     | Website:  https://openfoam.org
    \\  /    A nd           | Version:  8
     \\/     M anipulation  |
\*---------------------------------------------------------------------------*/
FoamFile
{
    version     2.0;
    format      ascii;
    class       volScalarField;
    location    "700/fluid";
    object      CH4;
}
// * * * * * * * * * * * * * * * * * * * * * * * * * * * * * * * * * * * * * //

dimensions      [0 0 0 0 0 0 0];

internalField   nonuniform List<scalar> 
4000
(
0.999997
0.999986
0.999968
0.999938
0.999888
0.999805
0.999667
0.999443
0.99908
0.9985
0.997586
0.996169
0.994014
0.990811
0.986174
0.979658
0.970796
0.95916
0.944422
0.926403
0.905097
0.880655
0.853354
0.823559
0.791681
0.758152
0.7234
0.687835
0.65184
0.615762
0.579912
0.54456
0.509936
0.476228
0.443589
0.412137
0.381966
0.353137
0.325689
0.299639
0.274986
0.251714
0.229796
0.209195
0.189868
0.171764
0.154833
0.139018
0.124264
0.110515
0.0977173
0.0858171
0.074764
0.0645106
0.0550127
0.0462309
0.0381304
0.0307828
0.0241358
0.0179163
0.0123114
0.00733293
0.00328198
0.00230207
0.00159419
0.00108794
0.000730244
0.000481064
0.000310341
0.000195647
0.000120416
7.25758e-05
4.35178e-05
2.74062e-05
1.99645e-05
1.53159e-05
1.13519e-05
7.97451e-06
5.25493e-06
3.22433e-06
1.83889e-06
9.79641e-07
4.9206e-07
2.3683e-07
1.10644e-07
5.04782e-08
2.25863e-08
9.94423e-09
4.31904e-09
1.85432e-09
7.8833e-10
3.32331e-10
1.39075e-10
5.78077e-11
2.38545e-11
9.74355e-12
3.90314e-12
1.49284e-12
4.99207e-13
8.75694e-14
0.999997
0.999986
0.999968
0.999938
0.999888
0.999804
0.999666
0.99944
0.999075
0.998493
0.997578
0.996164
0.99402
0.990844
0.98626
0.979835
0.971114
0.959671
0.945177
0.92744
0.906432
0.882284
0.855251
0.825682
0.793978
0.760566
0.725872
0.690312
0.654274
0.618114
0.582148
0.546656
0.511873
0.477995
0.44518
0.413551
0.383204
0.354205
0.326595
0.300392
0.275597
0.252194
0.230157
0.209449
0.190025
0.171835
0.154827
0.138945
0.124133
0.110334
0.0974938
0.0855579
0.074475
0.064197
0.0546793
0.0458818
0.0377693
0.0304167
0.0237671
0.0175433
0.0119363
0.00696462
0.00322583
0.00226105
0.0015636
0.00106497
0.00071303
0.000468313
0.00030107
0.000189083
0.000115939
6.9699e-05
4.18769e-05
2.67574e-05
1.97667e-05
1.5068e-05
1.10461e-05
7.66809e-06
4.99416e-06
3.03455e-06
1.72089e-06
9.1663e-07
4.62852e-07
2.24454e-07
1.05801e-07
4.87138e-08
2.19858e-08
9.75293e-09
4.26196e-09
1.83832e-09
7.84028e-10
3.31146e-10
1.38688e-10
5.76413e-11
2.37683e-11
9.69728e-12
3.8796e-12
1.48202e-12
4.95098e-13
8.68246e-14
0.999997
0.999986
0.999968
0.999938
0.999887
0.999803
0.999664
0.999438
0.999072
0.998489
0.997573
0.996161
0.994025
0.990869
0.986324
0.979966
0.971348
0.960054
0.945754
0.928255
0.907517
0.883655
0.856909
0.827608
0.796139
0.762918
0.728364
0.69289
0.656885
0.620706
0.584678
0.549084
0.514166
0.480129
0.447136
0.415316
0.384772
0.355574
0.327766
0.301371
0.276391
0.252814
0.230614
0.209755
0.190192
0.171877
0.154758
0.138778
0.123879
0.110005
0.0970996
0.0851079
0.0739782
0.0636616
0.0541129
0.0452912
0.0371609
0.0298051
0.0231548
0.0169372
0.0113514
0.00639186
0.00318352
0.00221903
0.0015263
0.00103398
0.000688499
0.00044966
0.000287414
0.000179473
0.00010949
6.56611e-05
3.96733e-05
2.59805e-05
1.94577e-05
1.47165e-05
1.06716e-05
7.32808e-06
4.72647e-06
2.85087e-06
1.61026e-06
8.57263e-07
4.33928e-07
2.11192e-07
1.00006e-07
4.62795e-08
2.09959e-08
9.36086e-09
4.10973e-09
1.77996e-09
7.61768e-10
3.22629e-10
1.35395e-10
5.63479e-11
2.32518e-11
9.48876e-12
3.79569e-12
1.44947e-12
4.84001e-13
8.48521e-14
0.999997
0.999986
0.999968
0.999938
0.999887
0.999803
0.999664
0.999439
0.999074
0.998494
0.997585
0.996185
0.99407
0.990947
0.986455
0.980175
0.971665
0.960513
0.946387
0.929089
0.908573
0.884941
0.858422
0.829334
0.798056
0.764994
0.730565
0.695174
0.65921
0.623031
0.586963
0.551293
0.516268
0.482098
0.44895
0.41696
0.386235
0.356849
0.328853
0.30227
0.277109
0.253358
0.230992
0.209975
0.190266
0.171821
0.154583
0.138496
0.123503
0.109546
0.0965692
0.0845172
0.0733372
0.0629796
0.0533985
0.0445526
0.0364058
0.0290601
0.0224274
0.0162203
0.0106343
0.00569506
0.00314304
0.00217606
0.00148633
0.000999818
0.000661068
0.000428724
0.000272148
0.000168837
0.000102455
6.13356e-05
3.7372e-05
2.51979e-05
1.90328e-05
1.42661e-05
1.02302e-05
6.94539e-06
4.43166e-06
2.64917e-06
1.48717e-06
7.8943e-07
3.99593e-07
1.94873e-07
9.25673e-08
4.29968e-08
1.95848e-08
8.76739e-09
3.86459e-09
1.68016e-09
7.21576e-10
3.06562e-10
1.29001e-10
5.38087e-11
2.22448e-11
9.09079e-12
3.6403e-12
1.39108e-12
4.64637e-13
8.1467e-14
0.999997
0.999986
0.999968
0.999938
0.999887
0.999804
0.999666
0.999441
0.999079
0.998502
0.9976
0.99621
0.994114
0.991021
0.986575
0.98036
0.971942
0.960908
0.946928
0.929799
0.909468
0.886027
0.859697
0.830788
0.799668
0.76674
0.732412
0.697091
0.661162
0.624983
0.588882
0.553149
0.518033
0.483748
0.450467
0.418328
0.387443
0.357891
0.329724
0.302971
0.277641
0.253726
0.231204
0.210045
0.190206
0.171638
0.154289
0.138102
0.12302
0.108987
0.0959444
0.0838373
0.0726125
0.0622195
0.0526119
0.043747
0.0355993
0.028287
0.0216559
0.0154427
0.00987447
0.00500013
0.00310076
0.00212435
0.00143738
0.000958623
0.000628826
0.000404807
0.000255197
0.000157341
9.50341e-05
5.68657e-05
3.50631e-05
2.44457e-05
1.85001e-05
1.37417e-05
9.75854e-06
6.56259e-06
4.15182e-06
2.46542e-06
1.37838e-06
7.30616e-07
3.70088e-07
1.8086e-07
8.61453e-08
4.01325e-08
1.83343e-08
8.23063e-09
3.63737e-09
1.58503e-09
6.8211e-10
2.90304e-10
1.2234e-10
5.10927e-11
2.11427e-11
8.64685e-12
3.46437e-12
1.32426e-12
4.42335e-13
7.75538e-14
0.999997
0.999986
0.999968
0.999938
0.999888
0.999805
0.999668
0.999445
0.999085
0.998513
0.997619
0.996242
0.994166
0.991104
0.986701
0.980549
0.972213
0.961282
0.947425
0.930435
0.910252
0.886964
0.860782
0.83201
0.801011
0.768183
0.733931
0.698659
0.66275
0.626565
0.59043
0.554637
0.519441
0.485055
0.451656
0.419388
0.388364
0.358667
0.330354
0.303455
0.277978
0.253919
0.231262
0.209976
0.190019
0.171342
0.153894
0.13762
0.122462
0.108363
0.0952656
0.0831141
0.0718553
0.0614385
0.051817
0.0429484
0.034796
0.0275021
0.0208633
0.0146647
0.00911952
0.00430611
0.00295194
0.00200732
0.00135017
0.000895952
0.000585089
0.000375095
0.000235564
0.000144769
8.72949e-05
5.23716e-05
3.27612e-05
2.3434e-05
1.77941e-05
1.31514e-05
9.28073e-06
6.1992e-06
3.89635e-06
2.30106e-06
1.28157e-06
6.77928e-07
3.43233e-07
1.67888e-07
8.00861e-08
3.73785e-08
1.71106e-08
7.69735e-09
3.40873e-09
1.48835e-09
6.41691e-10
2.73563e-10
1.15458e-10
4.82808e-11
2.00006e-11
8.18679e-12
3.28208e-12
1.25504e-12
4.19243e-13
7.35029e-14
0.999997
0.999986
0.999968
0.999939
0.999889
0.999806
0.99967
0.999449
0.999092
0.998525
0.997638
0.996273
0.994215
0.99118
0.986817
0.980719
0.972454
0.961611
0.947858
0.930983
0.910921
0.887756
0.861691
0.833026
0.80212
0.769366
0.735167
0.699925
0.664024
0.627823
0.591651
0.5558
0.520528
0.48605
0.452547
0.420164
0.389017
0.359192
0.330747
0.303717
0.278116
0.253942
0.231174
0.209781
0.189724
0.170956
0.153426
0.13708
0.121859
0.107707
0.0945665
0.0823819
0.0710996
0.0606693
0.0510447
0.0421843
0.034052
0.0268404
0.0200664
0.0139389
0.00846056
0.00372812
0.00260508
0.0017942
0.00121704
0.000812025
0.000532059
0.000341736
0.000214812
0.0001321
7.97905e-05
4.81525e-05
3.06564e-05
2.24555e-05
1.71208e-05
1.26308e-05
8.8818e-06
5.90471e-06
3.69236e-06
2.17069e-06
1.20491e-06
6.36096e-07
3.21776e-07
1.57427e-07
7.51441e-08
3.51022e-08
1.60844e-08
7.24323e-09
3.21101e-09
1.40349e-09
6.05711e-10
2.58469e-10
1.09182e-10
4.5692e-11
1.89407e-11
7.75699e-12
3.11091e-12
1.18979e-12
3.97419e-13
6.96688e-14
0.999997
0.999986
0.999969
0.999939
0.999889
0.999807
0.999672
0.999453
0.999099
0.998536
0.997656
0.996303
0.994261
0.991252
0.986924
0.980873
0.972669
0.961901
0.948233
0.931453
0.91149
0.888421
0.862448
0.833865
0.803027
0.770324
0.73616
0.700933
0.665029
0.628805
0.592593
0.556686
0.521343
0.486783
0.453189
0.420707
0.389456
0.359524
0.330968
0.303827
0.278121
0.253843
0.230978
0.209494
0.189354
0.170511
0.152914
0.136509
0.121239
0.107046
0.0938735
0.0816648
0.0703666
0.0599282
0.0503026
0.0414473
0.0333624
0.0261779
0.0194352
0.0133732
0.0079996
0.003433
0.00239684
0.00165179
0.00112177
0.000749439
0.000491674
0.000316193
0.000199051
0.000122697
7.44739e-05
4.54572e-05
2.9649e-05
2.20811e-05
1.68099e-05
1.23411e-05
8.62868e-06
5.70292e-06
3.54561e-06
2.07359e-06
1.14621e-06
6.0328e-07
3.04562e-07
1.48879e-07
7.10368e-08
3.3182e-08
1.52075e-08
6.85084e-09
3.03855e-09
1.32886e-09
5.73861e-10
2.45033e-10
1.03571e-10
4.33688e-11
1.79868e-11
7.36931e-12
2.95623e-12
1.13075e-12
3.77653e-13
6.61943e-14
0.999997
0.999986
0.999969
0.999939
0.99989
0.999809
0.999675
0.999456
0.999105
0.998547
0.997673
0.99633
0.994304
0.991316
0.987018
0.981008
0.972856
0.96215
0.948554
0.931851
0.911967
0.888976
0.863073
0.834551
0.803762
0.771095
0.73695
0.701728
0.665811
0.629561
0.593307
0.557346
0.521937
0.487301
0.453622
0.421049
0.389703
0.359676
0.331031
0.303804
0.27801
0.253648
0.230703
0.209145
0.188938
0.170035
0.152385
0.135935
0.120627
0.106403
0.0932076
0.0809833
0.0696768
0.0592378
0.0496197
0.0407814
0.0327425
0.02558
0.0188647
0.0128396
0.00751039
0.00327305
0.00228203
0.00157059
0.00106532
0.000710922
0.000465892
0.000299282
0.000188219
0.000115982
7.05374e-05
4.34334e-05
2.89939e-05
2.19168e-05
1.66881e-05
1.22145e-05
8.49749e-06
5.58058e-06
3.44792e-06
2.00497e-06
1.10305e-06
5.78457e-07
2.91248e-07
1.42152e-07
6.77562e-08
3.16278e-08
1.44891e-08
6.5259e-09
2.89434e-09
1.26593e-09
5.46794e-10
2.3354e-10
9.8744e-11
4.13609e-11
1.71592e-11
7.03196e-12
2.82132e-12
1.07916e-12
3.60367e-13
6.31502e-14
0.999997
0.999987
0.999969
0.99994
0.999891
0.99981
0.999677
0.99946
0.999111
0.998556
0.997688
0.996354
0.994341
0.991372
0.987101
0.981125
0.973016
0.962362
0.948825
0.932185
0.912364
0.889433
0.863584
0.835108
0.804353
0.771708
0.737573
0.702346
0.666413
0.630133
0.593838
0.557826
0.522357
0.487655
0.453906
0.421258
0.389832
0.359725
0.330999
0.303693
0.277825
0.253393
0.230382
0.208764
0.188503
0.169552
0.151861
0.135376
0.120039
0.105794
0.092582
0.0803474
0.069036
0.0585969
0.0489828
0.0401513
0.0321374
0.0250032
0.0183096
0.0123007
0.00698346
0.00320813
0.00223185
0.00153349
0.00103891
0.000692774
0.000453854
0.000291601
0.000183539
0.000113306
6.91831e-05
4.29562e-05
2.91501e-05
2.21556e-05
1.67996e-05
1.22288e-05
8.4601e-06
5.52239e-06
3.38858e-06
1.95854e-06
1.07202e-06
5.59901e-07
2.81015e-07
1.36883e-07
6.51465e-08
3.03755e-08
1.39041e-08
6.25885e-09
2.77491e-09
1.21346e-09
5.24108e-10
2.23864e-10
9.46652e-11
3.96592e-11
1.64561e-11
6.74484e-12
2.70633e-12
1.03514e-12
3.45616e-13
6.0547e-14
0.999997
0.999987
0.999969
0.99994
0.999891
0.999811
0.999679
0.999463
0.999116
0.998564
0.997702
0.996375
0.994373
0.99142
0.987171
0.981225
0.973152
0.962541
0.949052
0.932462
0.912691
0.889807
0.863999
0.835555
0.804824
0.772192
0.738058
0.702822
0.666868
0.630557
0.594223
0.558162
0.522638
0.487875
0.454059
0.421344
0.389854
0.359682
0.330891
0.303521
0.277592
0.253103
0.230039
0.208374
0.18807
0.169082
0.151359
0.134848
0.119491
0.10523
0.0920078
0.0797678
0.0684555
0.0580195
0.0484123
0.0395916
0.0316013
0.024486
0.0178056
0.011814
0.00651462
0.00317893
0.00220909
0.00151632
0.00102633
0.000683827
0.000447706
0.000287547
0.000181017
0.000111894
6.85612e-05
4.29429e-05
2.96653e-05
2.26337e-05
1.70882e-05
1.23669e-05
8.49912e-06
5.51043e-06
3.35973e-06
1.92961e-06
1.0507e-06
5.46456e-07
2.73348e-07
1.32849e-07
6.31149e-08
2.93877e-08
1.34376e-08
6.04402e-09
2.67811e-09
1.17068e-09
5.05508e-10
2.15894e-10
9.12936e-11
3.82486e-11
1.58721e-11
6.50591e-12
2.61054e-12
9.98454e-13
3.33335e-13
5.83942e-14
0.999997
0.999987
0.999969
0.99994
0.999892
0.999812
0.99968
0.999466
0.99912
0.998572
0.997713
0.996393
0.994401
0.991461
0.987231
0.981308
0.973265
0.962689
0.949239
0.932689
0.912958
0.890109
0.864332
0.835912
0.805196
0.772569
0.738432
0.703184
0.667208
0.630868
0.594496
0.558393
0.522821
0.488006
0.454135
0.421364
0.389816
0.359586
0.330739
0.303316
0.277337
0.252801
0.229695
0.207992
0.187655
0.168638
0.150892
0.134362
0.11899
0.104719
0.0914917
0.0792502
0.0679404
0.0575104
0.0479141
0.0391092
0.0311374
0.0240342
0.0173711
0.0113979
0.00611724
0.00315687
0.00219535
0.00150793
0.00102139
0.00068106
0.000446252
0.000286872
0.000180805
0.000111974
6.88811e-05
4.3514e-05
3.0549e-05
2.33132e-05
1.75078e-05
1.25923e-05
8.59648e-06
5.53501e-06
3.35261e-06
1.91436e-06
1.03697e-06
5.37091e-07
2.67767e-07
1.29833e-07
6.15678e-08
2.86247e-08
1.30733e-08
5.87475e-09
2.60128e-09
1.13651e-09
4.9058e-10
2.09472e-10
8.85668e-11
3.71044e-11
1.53973e-11
6.31144e-12
2.53256e-12
9.68626e-13
3.23379e-13
5.66445e-14
0.999997
0.999987
0.99997
0.999941
0.999892
0.999813
0.999681
0.999468
0.999124
0.998578
0.997723
0.996408
0.994424
0.991496
0.98728
0.981378
0.973359
0.962812
0.949392
0.932874
0.913173
0.890352
0.864598
0.836193
0.805486
0.772861
0.738717
0.703454
0.667457
0.631089
0.594683
0.558541
0.522926
0.488065
0.454148
0.421329
0.389733
0.359456
0.330564
0.303098
0.277078
0.252505
0.229366
0.207633
0.18727
0.168232
0.150468
0.133924
0.118543
0.104266
0.0910364
0.078796
0.0674909
0.0570712
0.0474874
0.0386916
0.0307345
0.0236478
0.017001
0.011045
0.00578193
0.00313816
0.00218558
0.00150339
0.00101976
0.000680946
0.000446861
0.000287758
0.000181739
0.000112869
6.97392e-05
4.44026e-05
3.15644e-05
2.40688e-05
1.7986e-05
1.2863e-05
8.72774e-06
5.58414e-06
3.36166e-06
1.90936e-06
1.02955e-06
5.31098e-07
2.63933e-07
1.27688e-07
6.044e-08
2.80585e-08
1.27991e-08
5.74593e-09
2.54228e-09
1.11007e-09
4.78953e-10
2.04442e-10
8.64221e-11
3.62011e-11
1.50214e-11
6.15712e-12
2.47059e-12
9.44896e-13
3.15464e-13
5.52517e-14
0.999997
0.999987
0.99997
0.999941
0.999893
0.999813
0.999683
0.99947
0.999127
0.998583
0.997731
0.99642
0.994443
0.991524
0.987321
0.981435
0.973435
0.96291
0.949516
0.933022
0.913345
0.890545
0.864806
0.836412
0.80571
0.773083
0.738932
0.703654
0.667637
0.631244
0.594808
0.558632
0.522981
0.488082
0.454125
0.421265
0.389629
0.359313
0.330384
0.302882
0.27683
0.252228
0.229062
0.207306
0.186923
0.167869
0.150093
0.13354
0.118152
0.103873
0.090643
0.0784069
0.0671092
0.056696
0.0471166
0.0383301
0.0303921
0.0233201
0.0166868
0.0107436
0.00550859
0.00312272
0.00217918
0.001502
0.00102088
0.000683121
0.00044927
0.000289991
0.000183638
0.00011442
7.1011e-05
4.55062e-05
3.25995e-05
2.48439e-05
1.84916e-05
1.31616e-05
8.88328e-06
5.65228e-06
3.38429e-06
1.91268e-06
1.02719e-06
5.28126e-07
2.61656e-07
1.26317e-07
5.96842e-08
2.76662e-08
1.26044e-08
5.65269e-09
2.49892e-09
1.09041e-09
4.70226e-10
2.00638e-10
8.47896e-11
3.55101e-11
1.47327e-11
6.0382e-12
2.42275e-12
9.26519e-13
3.09362e-13
5.41736e-14
0.999997
0.999987
0.99997
0.999941
0.999893
0.999814
0.999684
0.999471
0.99913
0.998587
0.997738
0.996431
0.994458
0.991547
0.987354
0.98148
0.973497
0.962989
0.949614
0.93314
0.913481
0.890695
0.864968
0.836581
0.805881
0.773251
0.739091
0.7038
0.667764
0.631348
0.594887
0.558682
0.523
0.488069
0.454079
0.421186
0.389518
0.35917
0.330211
0.302682
0.276603
0.251978
0.228792
0.207019
0.186621
0.167555
0.14977
0.133211
0.11782
0.103541
0.0903147
0.0780831
0.0667886
0.0563791
0.0468081
0.0380315
0.0301095
0.0230497
0.0164279
0.0104955
0.00528511
0.00311015
0.0021756
0.00150315
0.00102421
0.00068711
0.000453114
0.000293318
0.000186339
0.000116535
7.2658e-05
4.68385e-05
3.37472e-05
2.56854e-05
1.90461e-05
1.34969e-05
9.06593e-06
5.73972e-06
3.41991e-06
1.92419e-06
1.02931e-06
5.27515e-07
2.6069e-07
1.25606e-07
5.92486e-08
2.74226e-08
1.24772e-08
5.58956e-09
2.46881e-09
1.07649e-09
4.63956e-10
1.97874e-10
8.35929e-11
3.49999e-11
1.45186e-11
5.9495e-12
2.38719e-12
9.12716e-13
3.04831e-13
5.33697e-14
0.999997
0.999987
0.99997
0.999941
0.999893
0.999814
0.999684
0.999473
0.999132
0.99859
0.997743
0.996439
0.994471
0.991565
0.98738
0.981516
0.973545
0.963051
0.94969
0.933231
0.913585
0.890811
0.865092
0.836709
0.806009
0.773375
0.739206
0.703903
0.667852
0.631417
0.594935
0.558706
0.522999
0.488042
0.454025
0.421106
0.389411
0.359039
0.330056
0.302505
0.276407
0.251764
0.228562
0.206775
0.186367
0.167293
0.149502
0.13294
0.117549
0.103271
0.0900451
0.0778138
0.0665236
0.0561215
0.0465589
0.0377913
0.0298818
0.0228325
0.0162207
0.0102984
0.00510867
0.00310021
0.00217455
0.00150661
0.00102949
0.000692707
0.00045823
0.000297618
0.000189758
0.000119161
7.46518e-05
4.83908e-05
3.50082e-05
2.65966e-05
1.96499e-05
1.38675e-05
9.27349e-06
5.84424e-06
3.46671e-06
1.94259e-06
1.03545e-06
5.29022e-07
2.60746e-07
1.25371e-07
5.90342e-08
2.72862e-08
1.24008e-08
5.54967e-09
2.44912e-09
1.06714e-09
4.59669e-10
1.95955e-10
8.27548e-11
3.46387e-11
1.43678e-11
5.88545e-12
2.36263e-12
9.02879e-13
3.01651e-13
5.28028e-14
0.999997
0.999987
0.99997
0.999941
0.999894
0.999815
0.999685
0.999474
0.999133
0.998593
0.997747
0.996445
0.99448
0.991579
0.9874
0.981543
0.973581
0.963098
0.949748
0.933299
0.913663
0.890897
0.865183
0.836803
0.806102
0.773464
0.739289
0.703976
0.667912
0.631461
0.594961
0.558714
0.522987
0.488009
0.453972
0.421032
0.389317
0.358926
0.329925
0.302358
0.276245
0.251589
0.228376
0.20658
0.186165
0.167086
0.149292
0.132728
0.117335
0.103055
0.0898302
0.0776031
0.0663181
0.0559223
0.0463667
0.0376068
0.0297028
0.0226607
0.0160531
0.0101311
0.00494669
0.00309275
0.00217582
0.0015121
0.00103651
0.000699717
0.000464461
0.000302768
0.000193805
0.000122231
7.69416e-05
5.01162e-05
3.63513e-05
2.75555e-05
2.02862e-05
1.42609e-05
9.49726e-06
5.96013e-06
3.52107e-06
1.96571e-06
1.04434e-06
5.32053e-07
2.61596e-07
1.25532e-07
5.90134e-08
2.72383e-08
1.23649e-08
5.52844e-09
2.43794e-09
1.06151e-09
4.57013e-10
1.94732e-10
8.2216e-11
3.44003e-11
1.42721e-11
5.8436e-12
2.34697e-12
8.96445e-13
2.99589e-13
5.24346e-14
0.999997
0.999987
0.99997
0.999941
0.999894
0.999815
0.999685
0.999474
0.999135
0.998595
0.99775
0.996449
0.994487
0.991589
0.987414
0.981563
0.973607
0.963132
0.949789
0.933348
0.913719
0.890958
0.865248
0.836869
0.806167
0.773526
0.739345
0.704024
0.66795
0.631488
0.594975
0.558715
0.522973
0.48798
0.453928
0.420973
0.389244
0.358839
0.329826
0.302247
0.276123
0.251458
0.228238
0.206436
0.186016
0.166932
0.149134
0.132567
0.117174
0.102895
0.0896734
0.0774499
0.0661692
0.0557785
0.0462285
0.0374744
0.0295766
0.0225401
0.015937
0.0100181
0.00484242
0.00308725
0.00217897
0.00151926
0.00104491
0.000707832
0.000471545
0.000308558
0.000198315
0.000125623
7.9437e-05
5.19496e-05
3.77206e-05
2.85161e-05
2.09189e-05
1.46512e-05
9.72024e-06
6.07707e-06
3.5772e-06
1.99041e-06
1.05436e-06
5.3579e-07
2.6286e-07
1.25925e-07
5.91122e-08
2.72503e-08
1.23579e-08
5.52045e-09
2.43284e-09
1.05868e-09
4.55662e-10
1.94061e-10
8.19354e-11
3.42682e-11
1.42194e-11
5.81996e-12
2.33803e-12
8.92699e-13
2.98413e-13
5.22189e-14
0.999997
0.999987
0.99997
0.999941
0.999894
0.999815
0.999686
0.999475
0.999135
0.998596
0.997752
0.996452
0.994491
0.991595
0.987423
0.981576
0.973624
0.963153
0.949816
0.933379
0.913754
0.890997
0.865289
0.836911
0.806208
0.773564
0.739379
0.704053
0.667973
0.631504
0.594982
0.558712
0.522961
0.487958
0.453896
0.420932
0.389195
0.358781
0.329759
0.302173
0.276042
0.251371
0.228145
0.206339
0.185915
0.166828
0.149029
0.132462
0.117069
0.102792
0.0895725
0.0773519
0.0660747
0.0556878
0.046142
0.0373922
0.0294991
0.0224665
0.0158658
0.00994743
0.00477392
0.00308373
0.00218364
0.00152749
0.00105402
0.000716385
0.000478882
0.000314483
0.000202889
0.000129031
8.19124e-05
5.37221e-05
3.89839e-05
2.93766e-05
2.14747e-05
1.49893e-05
9.91182e-06
6.17739e-06
3.62561e-06
2.01197e-06
1.06325e-06
5.39206e-07
2.64066e-07
1.26368e-07
5.92596e-08
2.72869e-08
1.23711e-08
5.52087e-09
2.43273e-09
1.05784e-09
4.55289e-10
1.93796e-10
8.1827e-11
3.42092e-11
1.41962e-11
5.80867e-12
2.33388e-12
8.90829e-13
2.97848e-13
5.21112e-14
0.999997
0.999987
0.99997
0.999941
0.999894
0.999815
0.999686
0.999475
0.999136
0.998596
0.997753
0.996454
0.994493
0.991598
0.987428
0.981582
0.973632
0.963163
0.949828
0.933394
0.913771
0.891015
0.865308
0.836931
0.806227
0.773582
0.739395
0.704067
0.667983
0.63151
0.594985
0.55871
0.522954
0.487947
0.45388
0.420911
0.389169
0.358751
0.329725
0.302135
0.276002
0.251327
0.228099
0.206291
0.185865
0.166778
0.148978
0.132411
0.117019
0.102743
0.0895248
0.0773059
0.0660308
0.0556463
0.046103
0.0373558
0.0294654
0.0224349
0.015835
0.00991564
0.00474028
0.00308199
0.00218858
0.00153493
0.00106178
0.000723412
0.000484766
0.000319153
0.000206446
0.000131652
8.37894e-05
5.50254e-05
3.98482e-05
2.99329e-05
2.18194e-05
1.51924e-05
1.00242e-05
6.23527e-06
3.65328e-06
2.02427e-06
1.06835e-06
5.41193e-07
2.64782e-07
1.26621e-07
5.93656e-08
2.73156e-08
1.23828e-08
5.52315e-09
2.43358e-09
1.05779e-09
4.55255e-10
1.93725e-10
8.17972e-11
3.41894e-11
1.41884e-11
5.80452e-12
2.33237e-12
8.90107e-13
2.97632e-13
5.20697e-14
0.999997
0.999987
0.99997
0.999941
0.999894
0.999815
0.999686
0.999475
0.999136
0.998596
0.997753
0.996454
0.994493
0.991598
0.987428
0.981582
0.973632
0.963163
0.949828
0.933394
0.913771
0.891015
0.865308
0.83693
0.806227
0.773582
0.739395
0.704066
0.667983
0.63151
0.594984
0.55871
0.522954
0.487947
0.45388
0.420911
0.389169
0.358751
0.329725
0.302135
0.276001
0.251327
0.228099
0.206291
0.185865
0.166778
0.148978
0.132411
0.117019
0.102743
0.0895248
0.0773059
0.0660307
0.0556463
0.046103
0.0373557
0.0294654
0.0224348
0.015835
0.00991563
0.00474027
0.00308199
0.00218858
0.00153493
0.00106178
0.000723413
0.000484766
0.000319153
0.000206446
0.000131652
8.37894e-05
5.50254e-05
3.98483e-05
2.99329e-05
2.18194e-05
1.51924e-05
1.00242e-05
6.23528e-06
3.65329e-06
2.02427e-06
1.06835e-06
5.41187e-07
2.64819e-07
1.26589e-07
5.9372e-08
2.73168e-08
1.2383e-08
5.5233e-09
2.4336e-09
1.0578e-09
4.55254e-10
1.93726e-10
8.17965e-11
3.41894e-11
1.41882e-11
5.80448e-12
2.33231e-12
8.90104e-13
2.97615e-13
5.20691e-14
0.999997
0.999987
0.99997
0.999941
0.999894
0.999815
0.999686
0.999475
0.999135
0.998596
0.997752
0.996452
0.994491
0.991595
0.987423
0.981576
0.973624
0.963153
0.949815
0.933379
0.913754
0.890996
0.865288
0.83691
0.806207
0.773563
0.739379
0.704052
0.667972
0.631503
0.594981
0.558712
0.52296
0.487958
0.453896
0.420932
0.389194
0.35878
0.329759
0.302172
0.276042
0.251371
0.228145
0.206339
0.185914
0.166828
0.149029
0.132462
0.117069
0.102792
0.0895724
0.0773517
0.0660745
0.0556878
0.046142
0.0373922
0.029499
0.0224665
0.0158657
0.0099474
0.0047739
0.00308374
0.00218364
0.00152749
0.00105402
0.000716386
0.000478883
0.000314484
0.000202889
0.000129031
8.19128e-05
5.37223e-05
3.8984e-05
2.93767e-05
2.14748e-05
1.49893e-05
9.91187e-06
6.17743e-06
3.62563e-06
2.01199e-06
1.06326e-06
5.39217e-07
2.64096e-07
1.26328e-07
5.92712e-08
2.72895e-08
1.23717e-08
5.52127e-09
2.43277e-09
1.05789e-09
4.55287e-10
1.938e-10
8.18254e-11
3.42093e-11
1.41957e-11
5.80859e-12
2.33369e-12
8.9083e-13
2.97802e-13
5.21094e-14
0.999997
0.999987
0.99997
0.999941
0.999894
0.999815
0.999685
0.999474
0.999134
0.998595
0.99775
0.996449
0.994487
0.991589
0.987414
0.981563
0.973607
0.963131
0.949789
0.933347
0.913718
0.890957
0.865247
0.836868
0.806166
0.773524
0.739343
0.704022
0.667949
0.631487
0.594974
0.558713
0.522972
0.487979
0.453927
0.420972
0.389243
0.358838
0.329825
0.302246
0.276123
0.251458
0.228237
0.206436
0.186015
0.166932
0.149134
0.132567
0.117173
0.102895
0.0896732
0.0774497
0.0661691
0.0557784
0.0462284
0.0374743
0.0295765
0.0225401
0.0159369
0.0100181
0.00484238
0.00308727
0.00217898
0.00151926
0.00104492
0.000707835
0.000471547
0.000308559
0.000198316
0.000125623
7.94375e-05
5.19499e-05
3.77208e-05
2.85163e-05
2.09191e-05
1.46513e-05
9.72033e-06
6.07713e-06
3.57724e-06
1.99044e-06
1.05438e-06
5.358e-07
2.62868e-07
1.25926e-07
5.91152e-08
2.72515e-08
1.23584e-08
5.52078e-09
2.4329e-09
1.05873e-09
4.55666e-10
1.94067e-10
8.19347e-11
3.42688e-11
1.42189e-11
5.81993e-12
2.33777e-12
8.92712e-13
2.9835e-13
5.22162e-14
0.999997
0.999987
0.99997
0.999941
0.999894
0.999815
0.999685
0.999474
0.999133
0.998593
0.997747
0.996445
0.99448
0.991579
0.987399
0.981543
0.97358
0.963097
0.949747
0.933298
0.913662
0.890896
0.865182
0.836802
0.806101
0.773462
0.739287
0.703974
0.66791
0.63146
0.59496
0.558712
0.522985
0.488008
0.45397
0.42103
0.389316
0.358925
0.329924
0.302357
0.276244
0.251588
0.228375
0.20658
0.186165
0.167086
0.149291
0.132727
0.117334
0.103054
0.0898299
0.0776029
0.0663178
0.0559221
0.0463665
0.0376066
0.0297027
0.0226606
0.016053
0.010131
0.00494664
0.00309277
0.00217583
0.00151211
0.00103652
0.000699722
0.000464464
0.000302771
0.000193807
0.000122232
7.69423e-05
5.01166e-05
3.63516e-05
2.75557e-05
2.02864e-05
1.4261e-05
9.49737e-06
5.96021e-06
3.52113e-06
1.96574e-06
1.04437e-06
5.32068e-07
2.61604e-07
1.25536e-07
5.90158e-08
2.72395e-08
1.23655e-08
5.52869e-09
2.43806e-09
1.06156e-09
4.57035e-10
1.94741e-10
8.22191e-11
3.44019e-11
1.42721e-11
5.84384e-12
2.3466e-12
8.96484e-13
2.99527e-13
5.24308e-14
0.999997
0.999987
0.99997
0.999941
0.999893
0.999814
0.999684
0.999473
0.999132
0.99859
0.997743
0.996439
0.99447
0.991565
0.98738
0.981516
0.973544
0.96305
0.949689
0.933229
0.913584
0.890809
0.86509
0.836707
0.806007
0.773372
0.739204
0.703901
0.66785
0.631415
0.594932
0.558704
0.522997
0.488039
0.454023
0.421104
0.389409
0.359037
0.330054
0.302503
0.276405
0.251762
0.228561
0.206774
0.186366
0.167292
0.149501
0.13294
0.117549
0.103271
0.0900447
0.0778135
0.0665233
0.0561213
0.0465587
0.0377911
0.0298817
0.0228324
0.0162206
0.0102983
0.0051086
0.00310024
0.00217457
0.00150662
0.0010295
0.000692713
0.000458235
0.000297621
0.00018976
0.000119163
7.46529e-05
4.83915e-05
3.50086e-05
2.65969e-05
1.96501e-05
1.38677e-05
9.27362e-06
5.84434e-06
3.46678e-06
1.94264e-06
1.03548e-06
5.2904e-07
2.60756e-07
1.25376e-07
5.90368e-08
2.72876e-08
1.24014e-08
5.55e-09
2.44926e-09
1.06721e-09
4.59697e-10
1.95968e-10
8.27599e-11
3.4641e-11
1.43681e-11
5.88616e-12
2.36233e-12
9.02961e-13
3.01601e-13
5.28012e-14
0.999997
0.999987
0.99997
0.999941
0.999893
0.999814
0.999684
0.999471
0.99913
0.998587
0.997737
0.99643
0.994458
0.991547
0.987354
0.98148
0.973496
0.962988
0.949612
0.933138
0.913479
0.890693
0.864966
0.836579
0.805878
0.773248
0.739088
0.703797
0.667762
0.631345
0.594884
0.55868
0.522997
0.488066
0.454076
0.421184
0.389516
0.359168
0.330209
0.30268
0.276602
0.251977
0.228791
0.207017
0.18662
0.167554
0.149769
0.13321
0.11782
0.10354
0.0903142
0.0780826
0.0667882
0.0563788
0.0468079
0.0380313
0.0301093
0.0230496
0.0164277
0.0104954
0.00528504
0.00311018
0.00217562
0.00150317
0.00102422
0.000687117
0.000453119
0.000293321
0.000186341
0.000116537
7.26592e-05
4.68395e-05
3.37479e-05
2.56859e-05
1.90464e-05
1.34972e-05
9.06611e-06
5.73985e-06
3.42e-06
1.92424e-06
1.02934e-06
5.27536e-07
2.60701e-07
1.25612e-07
5.92517e-08
2.74241e-08
1.2478e-08
5.58994e-09
2.46898e-09
1.07657e-09
4.63991e-10
1.97889e-10
8.35994e-11
3.50027e-11
1.45197e-11
5.95001e-12
2.38726e-12
9.12827e-13
3.04819e-13
5.3372e-14
0.999997
0.999987
0.99997
0.999941
0.999893
0.999813
0.999683
0.99947
0.999127
0.998583
0.997731
0.99642
0.994443
0.991524
0.987321
0.981434
0.973434
0.962909
0.949514
0.93302
0.913343
0.890542
0.864804
0.83641
0.805707
0.77308
0.738928
0.703651
0.667634
0.63124
0.594805
0.558629
0.522978
0.488079
0.454122
0.421263
0.389627
0.359311
0.330382
0.30288
0.276828
0.252226
0.22906
0.207305
0.186922
0.167868
0.150092
0.133539
0.118152
0.103872
0.0906424
0.0784063
0.0671088
0.0566956
0.0471162
0.0383298
0.0303919
0.0233199
0.0166866
0.0107435
0.0055085
0.00312276
0.00217921
0.00150201
0.00102089
0.000683129
0.000449276
0.000289995
0.00018364
0.00011442
7.10099e-05
4.55047e-05
3.25984e-05
2.48435e-05
1.84916e-05
1.31617e-05
8.88342e-06
5.6524e-06
3.38438e-06
1.91274e-06
1.02723e-06
5.28149e-07
2.61669e-07
1.26324e-07
5.9688e-08
2.76681e-08
1.26054e-08
5.65313e-09
2.49912e-09
1.0905e-09
4.70267e-10
2.00656e-10
8.47974e-11
3.55134e-11
1.4734e-11
6.03878e-12
2.42296e-12
9.26613e-13
3.09381e-13
5.41791e-14
0.999997
0.999987
0.99997
0.999941
0.999892
0.999813
0.999681
0.999468
0.999124
0.998578
0.997723
0.996408
0.994423
0.991495
0.98728
0.981377
0.973358
0.96281
0.94939
0.932872
0.913171
0.890349
0.864595
0.83619
0.805482
0.772857
0.738713
0.703451
0.667454
0.631085
0.59468
0.558538
0.522923
0.488062
0.454145
0.421326
0.38973
0.359454
0.330561
0.303096
0.277076
0.252503
0.229364
0.207631
0.187268
0.16823
0.150467
0.133923
0.118542
0.104266
0.0910356
0.0787953
0.0674903
0.0570707
0.047487
0.0386912
0.0307342
0.0236475
0.0170008
0.0110449
0.00578179
0.00313821
0.00218562
0.00150342
0.00101979
0.000680966
0.000446877
0.000287772
0.000181754
0.000112884
6.97538e-05
4.44142e-05
3.15713e-05
2.40722e-05
1.79875e-05
1.28637e-05
8.72807e-06
5.58433e-06
3.36178e-06
1.90943e-06
1.0296e-06
5.31124e-07
2.63948e-07
1.27696e-07
6.04442e-08
2.80606e-08
1.28002e-08
5.74643e-09
2.54251e-09
1.11017e-09
4.79e-10
2.04463e-10
8.6431e-11
3.62049e-11
1.5023e-11
6.15778e-12
2.47085e-12
9.44999e-13
3.15499e-13
5.52579e-14
0.999997
0.999987
0.999969
0.99994
0.999892
0.999812
0.99968
0.999466
0.99912
0.998572
0.997713
0.996392
0.9944
0.991461
0.98723
0.981308
0.973264
0.962688
0.949237
0.932687
0.912955
0.890106
0.864329
0.835908
0.805192
0.772565
0.738428
0.703179
0.667204
0.630863
0.594492
0.558388
0.522817
0.488002
0.454131
0.42136
0.389812
0.359583
0.330736
0.303314
0.277334
0.252799
0.229693
0.20799
0.187653
0.168637
0.150891
0.13436
0.118989
0.104718
0.0914908
0.0792494
0.0679396
0.0575098
0.0479135
0.0391087
0.031137
0.0240338
0.0173708
0.0113976
0.00611692
0.00315687
0.00219532
0.00150787
0.00102132
0.000680984
0.000446177
0.0002868
0.000180735
0.000111911
6.88306e-05
4.348e-05
3.0531e-05
2.33058e-05
1.75054e-05
1.25918e-05
8.59651e-06
5.53515e-06
3.35273e-06
1.91444e-06
1.03702e-06
5.37121e-07
2.67784e-07
1.29842e-07
6.15724e-08
2.8627e-08
1.30744e-08
5.87528e-09
2.60153e-09
1.13662e-09