/*--------------------------------*- C++ -*----------------------------------*\
  =========                 |
  \\      /  F ield         | OpenFOAM: The Open Source CFD Toolbox
   \\    /   O peration     | Website:  https://openfoam.org
    \\  /    A nd           | Version:  8
     \\/     M anipulation  |
\*---------------------------------------------------------------------------*/
FoamFile
{
    version     2.0;
    format      ascii;
    class       volScalarField;
    location    "700/fluid";
    object      CO2;
}
// * * * * * * * * * * * * * * * * * * * * * * * * * * * * * * * * * * * * * //

dimensions      [0 0 0 0 0 0 0];

internalField   nonuniform List<scalar> 
4000
(
4.73277e-07
2.06801e-06
4.74921e-06
9.24276e-06
1.67413e-05
2.91851e-05
4.96931e-05
8.32082e-05
0.00013743
0.000224109
0.000360733
0.000572535
0.000894563
0.00137319
0.00206614
0.00304
0.00436446
0.00610359
0.00830645
0.0109996
0.0141843
0.0178379
0.0219189
0.0263729
0.0311384
0.0361508
0.0413463
0.0466634
0.0520451
0.0574393
0.0627995
0.0680854
0.0732627
0.078303
0.0831836
0.0878865
0.0923978
0.096708
0.100811
0.104704
0.108387
0.111861
0.115131
0.1182
0.121073
0.123758
0.126259
0.128583
0.130734
0.132715
0.13453
0.136178
0.137656
0.138959
0.140074
0.140985
0.141666
0.142076
0.142175
0.141897
0.141145
0.139793
0.137115
0.126566
0.115843
0.105127
0.0945557
0.0842386
0.0742628
0.0646992
0.0556076
0.0470409
0.0390488
0.0317173
0.0250191
0.0190602
0.0139046
0.00961572
0.00624008
0.00377175
0.00211985
0.00111351
0.000551839
0.000262281
0.000121115
5.46646e-05
2.42189e-05
1.05668e-05
4.55151e-06
1.93939e-06
8.18843e-07
3.43055e-07
1.42763e-07
5.90475e-08
2.42608e-08
9.87289e-09
3.943e-09
1.50463e-09
5.02388e-10
8.80679e-11
4.74154e-07
2.07238e-06
4.76158e-06
9.27313e-06
1.68092e-05
2.93246e-05
4.99578e-05
8.36701e-05
0.000138163
0.000225135
0.0003619
0.000573303
0.000893689
0.00136832
0.00205335
0.00301359
0.00431712
0.0060273
0.00819369
0.0108449
0.0139849
0.0175945
0.0216353
0.0260555
0.0307949
0.0357899
0.0409765
0.0462928
0.0516808
0.0570873
0.0624647
0.0677716
0.0729725
0.0780382
0.0829451
0.0876745
0.092212
0.0965475
0.100675
0.104591
0.108294
0.111788
0.115075
0.11816
0.121048
0.123745
0.126257
0.12859
0.130748
0.132736
0.134556
0.136208
0.13769
0.138994
0.140111
0.141023
0.141704
0.142113
0.14221
0.141928
0.141171
0.139809
0.13626
0.12564
0.114862
0.104101
0.0934932
0.0831468
0.0731487
0.0635706
0.0544734
0.0459121
0.037939
0.0306449
0.0240064
0.0181358
0.0130989
0.00895738
0.00574709
0.00344089
0.00192371
0.00101096
0.000504132
0.000241676
0.000112729
5.14086e-05
2.29992e-05
1.01208e-05
4.39034e-06
1.88109e-06
7.97446e-07
3.35002e-07
1.39638e-07
5.77975e-08
2.37499e-08
9.66239e-09
3.85726e-09
1.47127e-09
4.91083e-10
8.6095e-11
4.75762e-07
2.07966e-06
4.77948e-06
9.31066e-06
1.68815e-05
2.94557e-05
5.01813e-05
8.40268e-05
0.000138688
0.000225827
0.000362653
0.000573763
0.000892972
0.00136466
0.0020439
0.00299416
0.00428216
0.00597018
0.00810743
0.0107231
0.0138227
0.0173894
0.0213875
0.0257674
0.0304716
0.035438
0.0406035
0.0459069
0.0512899
0.0566989
0.0620857
0.0674077
0.0726287
0.0777181
0.0826516
0.0874094
0.0919764
0.0963416
0.100498
0.104443
0.108174
0.111693
0.115004
0.11811
0.121018
0.123733
0.126261
0.128607
0.130778
0.132775
0.134603
0.136261
0.137747
0.139055
0.140173
0.141084
0.141764
0.142169
0.14226
0.141969
0.141196
0.139812
0.134744
0.124075
0.113254
0.102457
0.0918251
0.0814681
0.0714745
0.0619179
0.0528615
0.0443624
0.0364756
0.0292801
0.0227841
0.0170833
0.0122385
0.00830084
0.00528773
0.00315026
0.00175801
0.000925077
0.000463051
0.000222981
0.000104533
4.79189e-05
2.1548e-05
9.52816e-06
4.15148e-06
1.78558e-06
7.59392e-07
3.19828e-07
1.33564e-07
5.53537e-08
2.27627e-08
9.26384e-09
3.69834e-09
1.41049e-09
4.70685e-10
8.25049e-11
4.75889e-07
2.08022e-06
4.78073e-06
9.31266e-06
1.68829e-05
2.94494e-05
5.01457e-05
8.39062e-05
0.000138357
0.000225028
0.0003609
0.000570216
0.000886305
0.00135292
0.00202427
0.00296291
0.00423476
0.00590164
0.00801287
0.0105983
0.0136649
0.0171972
0.0211612
0.0255092
0.0301848
0.0351271
0.0402741
0.0455649
0.0509416
0.0563505
0.0617431
0.0670764
0.0723132
0.0774225
0.0823789
0.0871621
0.0917561
0.0961492
0.100334
0.104306
0.108064
0.111609
0.114944
0.118074
0.121002
0.123736
0.12628
0.12864
0.130822
0.13283
0.134665
0.136329
0.137819
0.139128
0.140245
0.141153
0.141826
0.142221
0.142299
0.14199
0.141194
0.139776
0.132854
0.122172
0.111333
0.100525
0.0898935
0.0795521
0.0695926
0.0600906
0.051111
0.0427123
0.0349509
0.0278787
0.0215542
0.0160414
0.011396
0.00766004
0.00483666
0.00285996
0.00158778
0.000833518
0.000417305
0.000201351
9.46731e-05
4.35515e-05
1.9658e-05
8.7261e-06
3.81656e-06
1.64754e-06
7.03061e-07
2.97008e-07
1.24365e-07
5.1658e-08
2.12825e-08
8.67433e-09
3.46692e-09
1.32327e-09
4.41749e-10
7.7447e-11
4.74647e-07
2.0747e-06
4.76763e-06
9.28588e-06
1.68309e-05
2.93506e-05
4.99591e-05
8.35563e-05
0.000137706
0.00022383
0.000358735
0.000566388
0.000879712
0.0013419
0.00200647
0.00293522
0.00419342
0.00584253
0.00793195
0.0104921
0.0135311
0.0170347
0.0209703
0.0252916
0.0299434
0.0348657
0.0399972
0.0452775
0.0506489
0.0560577
0.061455
0.0667977
0.072048
0.0771743
0.0821506
0.0869559
0.0915736
0.0959914
0.100201
0.104198
0.107981
0.11155
0.114908
0.118058
0.121005
0.123755
0.126314
0.128687
0.13088
0.132895
0.134737
0.136404
0.137894
0.139201
0.140313
0.141212
0.141873
0.14225
0.142307
0.14197
0.141135
0.139675
0.130865
0.120201
0.109361
0.0985524
0.0879319
0.0776189
0.067708
0.0582755
0.0493866
0.0410995
0.0334839
0.0265603
0.0204061
0.0150787
0.0106272
0.00708391
0.00443746
0.00260686
0.00144108
0.000755083
0.000378103
0.000182711
8.60949e-05
3.97032e-05
1.79665e-05
7.99487e-06
3.50482e-06
1.51617e-06
6.48224e-07
2.74298e-07
1.1502e-07
4.78343e-08
1.97268e-08
8.04661e-09
3.21793e-09
1.22869e-09
4.10216e-10
7.19188e-11
4.72291e-07
2.06427e-06
4.74311e-06
9.23651e-06
1.67376e-05
2.91795e-05
4.96511e-05
8.30087e-05
0.000136744
0.000222165
0.000355897
0.000561647
0.000871975
0.00132961
0.00198753
0.00290703
0.00415295
0.00578662
0.00785765
0.0103971
0.0134137
0.0168945
0.020808
0.0251086
0.0297421
0.0346494
0.0397694
0.0450423
0.0504104
0.0558201
0.0612224
0.0665737
0.0718361
0.0769773
0.081971
0.0867956
0.0914339
0.0958733
0.100105
0.104124
0.107928
0.111518
0.114894
0.118062
0.121025
0.12379
0.126361
0.128745
0.130945
0.132967
0.134811
0.136478
0.137964
0.139264
0.140365
0.141248
0.141888
0.142237
0.142263
0.141889
0.141015
0.13953
0.129231
0.118477
0.107569
0.0967236
0.0860958
0.0758042
0.0659405
0.0565787
0.0477815
0.0396048
0.0321307
0.025351
0.0193596
0.0142076
0.00993701
0.00657004
0.00408279
0.00238188
0.00130985
0.000684079
0.00034202
0.000165282
7.7948e-05
3.59952e-05
1.63161e-05
7.27413e-06
3.1951e-06
1.38488e-06
5.93203e-07
2.51454e-07
1.05608e-07
4.39813e-08
1.81593e-08
7.4144e-09
2.96725e-09
1.13349e-09
3.78483e-10
6.63556e-11
4.69429e-07
2.05168e-06
4.71381e-06
9.17837e-06
1.66297e-05
2.89858e-05
4.93107e-05
8.24192e-05
0.000135737
0.000220466
0.000353077
0.000557049
0.000864635
0.00131817
0.00197022
0.00288162
0.00411695
0.00573745
0.00779299
0.0103151
0.0133135
0.0167759
0.0206717
0.0249562
0.0295758
0.0344719
0.0395839
0.0448521
0.0502189
0.0556308
0.0610385
0.0663983
0.0716718
0.0768266
0.0818357
0.0866772
0.0913336
0.0957916
0.100042
0.10408
0.107903
0.111509
0.114902
0.118084
0.121061
0.123837
0.126418
0.128809
0.131015
0.133039
0.134883
0.136547
0.138026
0.139313
0.140395
0.141252
0.141856
0.142157
0.142122
0.141666
0.140692
0.139106
0.128222
0.117135
0.106043
0.0951029
0.084442
0.0741604
0.064339
0.0550448
0.0463346
0.0382587
0.0308991
0.0242498
0.0184127
0.0134281
0.00932834
0.0061223
0.00377681
0.00218937
0.0011982
0.000623826
0.000311378
0.000150429
7.09662e-05
3.27943e-05
1.48793e-05
6.64087e-06
2.92038e-06
1.26733e-06
5.43498e-07
2.30648e-07
9.69736e-08
4.04245e-08
1.67048e-08
6.82518e-09
2.7328e-09
1.04422e-09
3.48675e-10
6.11248e-11
4.66391e-07
2.03835e-06
4.68289e-06
9.11734e-06
1.65171e-05
2.87854e-05
4.89615e-05
8.18204e-05
0.000134725
0.000218782
0.000350318
0.000552615
0.000857659
0.00130747
0.00195426
0.00285857
0.00408476
0.00569411
0.00773674
0.0102447
0.0132283
0.0166761
0.0205582
0.0248304
0.0294397
0.0343279
0.0394346
0.0447003
0.0500675
0.0554825
0.060896
0.0662641
0.071548
0.076715
0.0817378
0.0865942
0.0912661
0.0957401
0.100007
0.104061
0.107898
0.111519
0.114925
0.118119
0.121106
0.123892
0.12648
0.128877
0.131086
0.133111
0.134952
0.13661
0.13808
0.139352
0.140412
0.141237
0.141791
0.142025
0.141888
0.141275
0.140055
0.138075
0.12699
0.11576
0.104579
0.0935955
0.0829291
0.0726731
0.0629036
0.0536842
0.0450701
0.037112
0.0298819
0.0233719
0.0176557
0.012787
0.00881398
0.00574138
0.00351637
0.00202548
0.00110299
0.000572235
0.000284986
0.000137558
6.48779e-05
2.99865e-05
1.36121e-05
6.07958e-06
2.67583e-06
1.1623e-06
4.98943e-07
2.11947e-07
8.91942e-08
3.72136e-08
1.53896e-08
6.29167e-09
2.52028e-09
9.63224e-10
3.21615e-10
5.63745e-11
4.6342e-07
2.02533e-06
4.65281e-06
9.0582e-06
1.64086e-05
2.85933e-05
4.86291e-05
8.1255e-05
0.000133778
0.000217219
0.000347782
0.000548578
0.000851373
0.00129792
0.00194015
0.00283836
0.0040568
0.00565679
0.00768869
0.0101851
0.0131568
0.016593
0.0204643
0.0247273
0.0293291
0.0342118
0.0393154
0.0445803
0.0499491
0.055368
0.0607875
0.0661635
0.0714571
0.0766352
0.0816702
0.0865396
0.0912252
0.0957131
0.0999934
0.10406
0.107909
0.111542
0.114959
0.118163
0.121158
0.123951
0.126544
0.128945
0.131155
0.13318
0.135019
0.136671
0.138132
0.139391
0.140434
0.141237
0.14176
0.141956
0.141767
0.141088
0.139781
0.136913
0.125714
0.114411
0.103191
0.092199
0.0815487
0.0713305
0.0616179
0.0524733
0.0439517
0.0361069
0.0290105
0.0226297
0.0170391
0.0122842
0.00839547
0.00541939
0.00329549
0.00188664
0.00102243
0.0005286
0.000262641
0.000126639
5.96985e-05
2.75898e-05
1.25264e-05
5.59688e-06
2.4647e-06
1.07127e-06
4.60191e-07
1.95627e-07
8.23853e-08
3.43959e-08
1.42328e-08
5.82157e-09
2.33273e-09
8.91667e-10
2.97696e-10
5.21713e-11
4.60646e-07
2.01319e-06
4.62479e-06
9.00325e-06
1.6308e-05
2.8416e-05
4.83235e-05
8.07376e-05
0.000132915
0.000215804
0.000345502
0.000544974
0.0008458
0.00128952
0.00192783
0.00282086
0.00403277
0.00562495
0.00764805
0.010135
0.0130972
0.0165243
0.0203874
0.0246435
0.02924
0.0341193
0.0392213
0.0444866
0.0498577
0.0552808
0.0607063
0.0660898
0.0713921
0.07658
0.0816257
0.0865063
0.0912036
0.095703
0.0999944
0.104072
0.107932
0.111574
0.114999
0.118211
0.121213
0.12401
0.126607
0.12901
0.131221
0.133244
0.135081
0.136728
0.138182
0.139433
0.140465
0.141255
0.141765
0.141949
0.141751
0.141074
0.139793
0.135663
0.124439
0.113126
0.10191
0.0909374
0.080321
0.0701499
0.0604963
0.0514207
0.0429804
0.0352207
0.0281562
0.0218583
0.0163763
0.0117528
0.00801927
0.0051452
0.00310438
0.00176753
0.00095372
0.000491497
0.00024366
0.000117362
5.52934e-05
2.55481e-05
1.15998e-05
5.18399e-06
2.28372e-06
9.93079e-07
4.26835e-07
1.81554e-07
7.65039e-08
3.19586e-08
1.32309e-08
5.41394e-09
2.16997e-09
8.29526e-10
2.76924e-10
4.85173e-11
4.58142e-07
2.00223e-06
4.59954e-06
8.95382e-06
1.62178e-05
2.82573e-05
4.8051e-05
8.02779e-05
0.000132152
0.000214558
0.000343504
0.000541832
0.000840968
0.00128227
0.00191727
0.00280595
0.00401242
0.00559816
0.00761405
0.0100934
0.013048
0.0164681
0.020325
0.024576
0.0291688
0.034046
0.0391475
0.044414
0.049788
0.0552154
0.0606466
0.0660369
0.0713473
0.0765439
0.081599
0.0864894
0.0911962
0.0957049
0.100006
0.104092
0.10796
0.11161
0.115042
0.118259
0.121266
0.124067
0.126666
0.12907
0.131281
0.133302
0.135136
0.136779
0.138227
0.139471
0.140495
0.141276
0.141776
0.141952
0.141749
0.14107
0.139792
0.134466
0.123243
0.111939
0.100741
0.089798
0.0792239
0.0691057
0.0595139
0.0505067
0.0421301
0.0344161
0.0274278
0.0212142
0.0158247
0.0112989
0.00766277
0.00490719
0.00294473
0.00166644
0.000895665
0.000460241
0.000227693
0.00010956
5.15864e-05
2.38281e-05
1.0818e-05
4.8351e-06
2.13052e-06
9.26777e-07
3.98501e-07
1.6958e-07
7.1492e-08
2.98787e-08
1.2375e-08
5.06542e-09
2.03072e-09
7.76343e-10
2.59157e-10
4.54023e-11
4.55936e-07
1.99259e-06
4.57734e-06
8.91042e-06
1.61387e-05
2.81185e-05
4.78132e-05
7.98779e-05
0.00013149
0.000213482
0.000341784
0.000539137
0.000836842
0.00127611
0.00190834
0.0027934
0.00399539
0.00557586
0.00758592
0.0100592
0.0130078
0.0164224
0.0202746
0.024522
0.0291124
0.0339885
0.0390903
0.0443585
0.0497354
0.055167
0.0606035
0.0660001
0.0713173
0.0765216
0.0815846
0.0864831
0.0911979
0.0957147
0.100023
0.104117
0.107992
0.111647
0.115084
0.118305
0.121315
0.124118
0.126719
0.129122
0.131332
0.133352
0.135181
0.13682
0.138262
0.139499
0.140516
0.141289
0.14178
0.141948
0.141739
0.141056
0.139778
0.13342
0.122193
0.1109
0.0997309
0.0888302
0.0782962
0.0682177
0.058665
0.0496953
0.041357
0.0337097
0.0267945
0.0206601
0.0153538
0.0109137
0.0073627
0.00468642
0.0028094
0.00158223
0.000846734
0.000434006
0.000214323
0.000103033
4.84859e-05
2.23891e-05
1.01636e-05
4.54277e-06
2.00202e-06
8.71095e-07
3.74677e-07
1.59498e-07
6.72671e-08
2.81234e-08
1.1652e-08
4.77082e-09
1.913e-09
7.31421e-10
2.44172e-10
4.2775e-11
4.54035e-07
1.98428e-06
4.55822e-06
8.87309e-06
1.60708e-05
2.79995e-05
4.76098e-05
7.95365e-05
0.000130927
0.000212568
0.000340328
0.000536865
0.000833375
0.00127096
0.0019009
0.00278298
0.00398131
0.00555751
0.00756289
0.0100313
0.0129753
0.0163857
0.0202344
0.0244792
0.0290681
0.0339437
0.0390463
0.0443164
0.0496962
0.0551317
0.060573
0.065975
0.0712984
0.0765091
0.0815788
0.0864838
0.0912054
0.0957287
0.100043
0.104142
0.108022
0.111682
0.115123
0.118347
0.121359
0.124163
0.126764
0.129166
0.131374
0.133391
0.135216
0.13685
0.138286
0.139516
0.140525
0.14129
0.141773
0.141934
0.141718
0.141031
0.139755
0.132521
0.121284
0.109997
0.0988434
0.0879523
0.0774406
0.0673941
0.0578824
0.0489634
0.0406882
0.0331044
0.0262549
0.02019
0.0149563
0.0105905
0.00711313
0.00450542
0.00268653
0.00151341
0.000807087
0.000412281
0.000203235
9.76321e-05
4.59227e-05
2.11995e-05
9.62221e-06
4.30071e-06
1.89549e-06
8.24871e-07
3.54871e-07
1.51106e-07
6.37455e-08
2.66586e-08
1.1048e-08
4.5245e-09
1.81452e-09
6.93827e-10
2.31633e-10
4.05763e-11
4.52429e-07
1.97726e-06
4.54208e-06
8.8416e-06
1.60136e-05
2.78995e-05
4.74389e-05
7.92503e-05
0.000130456
0.000211805
0.000339116
0.000534979
0.000830507
0.00126671
0.00189477
0.00277445
0.00396982
0.00554261
0.00754426
0.0100089
0.0129493
0.0163564
0.0202026
0.0244456
0.0290336
0.0339093
0.0390129
0.0442848
0.0496674
0.0551064
0.0605517
0.0659585
0.0712869
0.076503
0.0815781
0.0864887
0.0912156
0.095744
0.100063
0.104167
0.108051
0.111714
0.115157
0.118383
0.121396
0.1242
0.1268
0.129201
0.131406
0.133419
0.13524
0.136868
0.138299
0.139522
0.140523
0.14128
0.141754
0.141908
0.141686
0.140996
0.139726
0.131764
0.120512
0.109226
0.0980759
0.0872047
0.0767197
0.066706
0.0572326
0.0483572
0.0401303
0.0325984
0.0258037
0.0197973
0.0146247
0.0103219
0.006907
0.00435737
0.00258761
0.00145158
0.000774873
0.000395226
0.00019435
9.32606e-05
4.38422e-05
2.02311e-05
9.18037e-06
4.10269e-06
1.80816e-06
7.86908e-07
3.3858e-07
1.44193e-07
6.08412e-08
2.54492e-08
1.05488e-08
4.32079e-09
1.73304e-09
6.62704e-10
2.21263e-10
3.87572e-11
4.51101e-07
1.97146e-06
4.52875e-06
8.81561e-06
1.59664e-05
2.7817e-05
4.72984e-05
7.90153e-05
0.00013007
0.000211181
0.000338127
0.000533443
0.000828176
0.00126326
0.00188983
0.00276758
0.0039606
0.00553068
0.00752942
0.00999111
0.0129287
0.0163335
0.0201778
0.0244196
0.0290071
0.0338831
0.0389877
0.0442613
0.0496463
0.0550883
0.0605372
0.0659478
0.0712805
0.0765008
0.0815802
0.0864951
0.0912262
0.0957586
0.100081
0.104188
0.108075
0.11174
0.115184
0.118411
0.121424
0.124228
0.126827
0.129225
0.131428
0.133437
0.135253
0.136876
0.1383
0.139516
0.14051
0.141259
0.141726
0.141873
0.141646
0.140955
0.139692
0.13113
0.119862
0.108572
0.0974338
0.0865812
0.0761206
0.066136
0.0566957
0.047857
0.0396701
0.032181
0.0254317
0.0194736
0.0143519
0.0101014
0.00673843
0.004237
0.00250792
0.00140251
0.000746358
0.000381093
0.000187513
8.98382e-05
4.21735e-05
1.94479e-05
8.822e-06
3.94185e-06
1.73714e-06
7.56006e-07
3.25306e-07
1.38556e-07
5.84714e-08
2.44618e-08
1.01413e-08
4.15438e-09
1.66655e-09
6.37288e-10
2.12812e-10
3.72747e-11
4.50032e-07
1.96679e-06
4.51802e-06
8.79471e-06
1.59285e-05
2.77508e-05
4.71857e-05
7.88271e-05
0.000129761
0.000210683
0.000337339
0.000532221
0.000826326
0.00126053
0.00188592
0.00276216
0.00395335
0.00552134
0.00751783
0.00997728
0.0129128
0.0163158
0.0201587
0.0243997
0.0289871
0.0338634
0.038969
0.0442441
0.0496311
0.0550756
0.0605272
0.0659409
0.0712768
0.0765005
0.0815832
0.0865014
0.0912356
0.0957707
0.100096
0.104205
0.108093
0.111759
0.115205
0.118432
0.121444
0.124247
0.126844
0.12924
0.131439
0.133444
0.135256
0.136873
0.138292
0.139501
0.140489
0.141231
0.141692
0.141835
0.141606
0.140915
0.139658
0.130618
0.119335
0.108041
0.0969101
0.0860726
0.0756324
0.0656723
0.0562598
0.0474515
0.0392974
0.0318433
0.0251309
0.0192122
0.0141318
0.00992385
0.00660306
0.00414067
0.00244444
0.00136366
0.000723971
0.000368619
0.000181173
8.69421e-05
4.08254e-05
1.88186e-05
8.53346e-06
3.81223e-06
1.67997e-06
7.31152e-07
3.14641e-07
1.3403e-07
5.657e-08
2.36699e-08
9.81504e-09
4.02102e-09
1.61371e-09
6.17042e-10
2.06094e-10
3.60961e-11
4.49202e-07
1.96317e-06
4.5097e-06
8.77851e-06
1.58991e-05
2.76996e-05
4.70985e-05
7.86817e-05
0.000129522
0.000210299
0.000336732
0.000531282
0.000824906
0.00125844
0.00188293
0.00275803
0.00394783
0.00551425
0.00750905
0.00996683
0.0129008
0.0163025
0.0201445
0.024385
0.0289723
0.033849
0.0389553
0.0442317
0.0496203
0.0550666
0.0605205
0.0659365
0.0712747
0.0765008
0.0815859
0.0865063
0.0912426
0.0957796
0.100107
0.104217
0.108106
0.111773
0.115218
0.118445
0.121456
0.124257
0.126852
0.129245
0.131441
0.133442
0.135249
0.136862
0.138274
0.139478
0.14046
0.141199
0.141657
0.141802
0.141581
0.14091
0.139698
0.130211
0.118911
0.107617
0.0964925
0.0856682
0.0752454
0.0653058
0.0559161
0.0471325
0.0390048
0.0315786
0.0248956
0.0190079
0.0139601
0.00978568
0.00649797
0.00406611
0.00239547
0.00133388
0.000707049
0.000359511
0.000176482
8.45939e-05
3.97505e-05
1.83341e-05
8.31283e-06
3.71283e-06
1.63594e-06
7.11917e-07
3.06382e-07
1.30523e-07
5.50998e-08
2.30579e-08
9.56512e-09
3.91889e-09
1.57336e-09
6.01561e-10
2.00961e-10
3.51957e-11
4.48596e-07
1.96052e-06
4.50362e-06
8.76667e-06
1.58776e-05
2.76621e-05
4.70349e-05
7.85756e-05
0.000129349
0.000210019
0.00033629
0.000530599
0.000823876
0.00125693
0.00188077
0.00275504
0.00394385
0.00550914
0.00750275
0.00995934
0.0128922
0.0162931
0.0201345
0.0243746
0.0289618
0.0338388
0.0389458
0.0442231
0.0496129
0.0550606
0.0605159
0.0659335
0.0712733
0.0765009
0.0815875
0.0865092
0.0912466
0.0957847
0.100113
0.104223
0.108113
0.11178
0.115225
0.11845
0.121461
0.12426
0.126852
0.129243
0.131435
0.133432
0.135235
0.136842
0.138249
0.139448
0.140424
0.141158
0.141613
0.141756
0.141537
0.140872
0.139672
0.129917
0.118597
0.107297
0.0961773
0.0853629
0.0749539
0.0650305
0.0556588
0.0468945
0.0387871
0.0313822
0.0247213
0.0188571
0.0138336
0.00968413
0.00642097
0.00401166
0.0023598
0.00131221
0.000694743
0.000352909
0.000173096
8.29152e-05
3.89259e-05
1.79488e-05
8.14361e-06
3.63922e-06
1.6039e-06
6.98117e-07
3.00501e-07
1.2803e-07
5.40618e-08
2.26247e-08
9.38777e-09
3.8463e-09
1.54456e-09
5.90504e-10
1.97296e-10
3.45519e-11
4.48201e-07
1.95879e-06
4.49966e-06
8.75895e-06
1.58636e-05
2.76378e-05
4.69935e-05
7.85066e-05
0.000129236
0.000209838
0.000336004
0.000530157
0.000823208
0.00125595
0.00187937
0.00275311
0.00394128
0.00550584
0.00749869
0.00995453
0.0128867
0.016287
0.020128
0.024368
0.0289552
0.0338324
0.0389398
0.0442177
0.0496082
0.0550567
0.060513
0.0659315
0.0712722
0.0765007
0.081588
0.0865103
0.0912482
0.0957866
0.100115
0.104226
0.108115
0.111781
0.115226
0.118451
0.12146
0.124257
0.126847
0.129235
0.131424
0.133418
0.135216
0.136819
0.138221
0.139414
0.140386
0.141114
0.141566
0.141708
0.14149
0.140834
0.139653
0.129724
0.118385
0.107079
0.0959607
0.0851534
0.0747546
0.0648433
0.0554847
0.0467343
0.0386413
0.0312512
0.0246056
0.0187572
0.0137503
0.00961749
0.00637068
0.00397628
0.00233673
0.00129821
0.000686784
0.000348638
0.000170907
8.18555e-05
3.84213e-05
1.77103e-05
8.03442e-06
3.58969e-06
1.58283e-06
6.89032e-07
2.96693e-07
1.26415e-07
5.33944e-08
2.23463e-08
9.27421e-09
3.79982e-09
1.52617e-09
5.83429e-10
1.94955e-10
3.41401e-11
4.48009e-07
1.95796e-06
4.49773e-06
8.75521e-06
1.58569e-05
2.7626e-05
4.69736e-05
7.84735e-05
0.000129182
0.000209751
0.000335867
0.000529946
0.000822892
0.00125548
0.00187871
0.0027522
0.00394007
0.00550429
0.00749677
0.00995225
0.0128842
0.0162841
0.020125
0.0243648
0.0289521
0.0338294
0.038937
0.0442151
0.049606
0.0550549
0.0605115
0.0659305
0.0712717
0.0765005
0.0815881
0.0865104
0.0912482
0.0957866
0.100115
0.104225
0.108114
0.111781
0.115224
0.118449
0.121456
0.124253
0.126841
0.129227
0.131414
0.133405
0.135201
0.1368
0.138199
0.139388
0.140356
0.141081
0.141529
0.14167
0.141455
0.140806
0.139642
0.12963
0.118274
0.106962
0.0958451
0.0850425
0.0746502
0.0647464
0.0553956
0.0466531
0.0385682
0.0311861
0.0245487
0.0187086
0.0137099
0.00958552
0.00634676
0.00395959
0.00232595
0.00129172
0.000683106
0.000346664
0.000169898
8.13641e-05
3.8194e-05
1.76027e-05
7.98597e-06
3.56746e-06
1.57298e-06
6.8467e-07
2.94848e-07
1.25629e-07
5.30692e-08
2.22107e-08
9.21896e-09
3.77721e-09
1.51723e-09
5.79988e-10
1.93816e-10
3.39398e-11
4.4801e-07
1.95796e-06
4.49775e-06
8.75525e-06
1.58569e-05
2.76261e-05
4.69738e-05
7.84738e-05
0.000129182
0.000209752
0.000335869
0.000529948
0.000822894
0.00125549
0.00187872
0.00275221
0.00394008
0.0055043
0.00749679
0.00995227
0.0128842
0.0162842
0.020125
0.0243648
0.0289521
0.0338294
0.038937
0.0442152
0.049606
0.0550549
0.0605116
0.0659305
0.0712717
0.0765006
0.0815881
0.0865105
0.0912483
0.0957866
0.100115
0.104225
0.108114
0.111781
0.115224
0.118449
0.121457
0.124253
0.126841
0.129227
0.131414
0.133405
0.135201
0.1368
0.138199
0.139388
0.140356
0.141081
0.141529
0.14167
0.141455
0.140806
0.139642
0.12963
0.118274
0.106962
0.0958451
0.0850425
0.0746502
0.0647464
0.0553956
0.0466531
0.0385681
0.0311861
0.0245487
0.0187086
0.0137099
0.00958552
0.00634676
0.00395959
0.00232595
0.00129173
0.000683107
0.000346663
0.000169907
8.13546e-05
3.81955e-05
1.76033e-05
7.98612e-06
3.56752e-06
1.57299e-06
6.84673e-07
2.94847e-07
1.25629e-07
5.30687e-08
2.22105e-08
9.21882e-09
3.77715e-09
1.51719e-09
5.79976e-10
1.93808e-10
3.39387e-11
4.48206e-07
1.95882e-06
4.49971e-06
8.75905e-06
1.58638e-05
2.76381e-05
4.6994e-05
7.85075e-05
0.000129237
0.00020984
0.000336007
0.000530162
0.000823216
0.00125596
0.00187939
0.00275313
0.00394131
0.00550588
0.00749874
0.00995459
0.0128868
0.0162871
0.0201281
0.0243681
0.0289553
0.0338325
0.0389399
0.0442178
0.0496083
0.0550568
0.0605131
0.0659316
0.0712723
0.0765008
0.0815881
0.0865103
0.0912483
0.0957867
0.100115
0.104226
0.108115
0.111781
0.115226
0.118451
0.12146
0.124257
0.126847
0.129235
0.131424
0.133418
0.135216
0.136819
0.138221
0.139414
0.140386
0.141114
0.141566
0.141708
0.14149
0.140834
0.139652
0.129724
0.118385
0.107079
0.0959606
0.0851533
0.0747545
0.0648433
0.0554847
0.0467343
0.0386413
0.0312512
0.0246056
0.0187572
0.0137503
0.0096175
0.00637069
0.00397629
0.00233674
0.00129822
0.000686789
0.000348641
0.000170913
8.18443e-05
3.84246e-05
1.77115e-05
8.03481e-06
3.58984e-06
1.58285e-06
6.89039e-07
2.9669e-07
1.26414e-07
5.3393e-08
2.23458e-08
9.27385e-09
3.79967e-09
1.52606e-09
5.83399e-10
1.94932e-10
3.4137e-11
4.48605e-07
1.96056e-06
4.50371e-06
8.76684e-06
1.58779e-05
2.76627e-05
4.70358e-05
7.85771e-05
0.000129351
0.000210023
0.000336296
0.000530608
0.00082389
0.00125695
0.0018808
0.00275508
0.0039439
0.00550921
0.00750283
0.00995945
0.0128924
0.0162932
0.0201346
0.0243748
0.028962
0.033839
0.038946
0.0442233
0.0496131
0.0550608
0.0605161
0.0659336
0.0712735
0.0765011
0.0815876
0.0865093
0.0912468
0.0957849
0.100113
0.104223
0.108113
0.11178
0.115225
0.118451
0.121461
0.12426
0.126852
0.129243
0.131435
0.133432
0.135235
0.136842
0.138249
0.139448
0.140424
0.141158
0.141613
0.141756
0.141537
0.140872
0.139672
0.129917
0.118597
0.107297
0.0961772
0.0853628
0.0749538
0.0650304
0.0556587
0.0468944
0.0387871
0.0313822
0.0247213
0.0188571
0.0138336
0.00968415
0.00642099
0.00401168
0.00235982
0.00131222
0.00069475
0.000352913
0.000173098
8.29162e-05
3.89269e-05
1.79493e-05
8.14388e-06
3.63934e-06
1.60393e-06
6.98127e-07
3.00501e-07
1.28029e-07
5.40607e-08
2.26242e-08
9.38733e-09
3.84611e-09
1.5444e-09
5.90461e-10
1.97263e-10
3.45473e-11
4.49215e-07
1.96322e-06
4.50983e-06
8.77875e-06
1.58995e-05
2.77003e-05
4.70998e-05
7.86837e-05
0.000129526
0.000210304
0.00033674
0.000531294
0.000824925
0.00125847
0.00188297
0.00275808
0.0039479
0.00551434
0.00750917
0.00996697
0.012901
0.0163027
0.0201448
0.0243852
0.0289725
0.0338492
0.0389556
0.044232
0.0496206
0.0550669
0.0605207
0.0659367
0.0712749
0.076501
0.0815861
0.0865065
0.0912428
0.0957798
0.100107
0.104217
0.108106
0.111773
0.115218
0.118445
0.121456
0.124257
0.126852
0.129245
0.131441
0.133442
0.135249
0.136862
0.138274
0.139478
0.14046
0.141199
0.141657
0.141802
0.141581
0.14091
0.139698
0.130211
0.118911
0.107616
0.0964923
0.085668
0.0752453
0.0653057
0.055916
0.0471325
0.0390048
0.0315786
0.0248955
0.0190079
0.0139602
0.0097857
0.00649799
0.00406613
0.00239549
0.0013339
0.000707058
0.000359516
0.000176485
8.45955e-05
3.97514e-05
1.83345e-05
8.31307e-06
3.71291e-06
1.63597e-06
7.1193e-07
3.06387e-07
1.30525e-07
5.51003e-08
2.30581e-08
9.5649e-09
3.91879e-09
1.57317e-09
6.01519e-10
2.00926e-10
3.51906e-11
4.50048e-07
1.96686e-06
4.51818e-06
8.79501e-06
1.5929e-05
2.77517e-05
4.71873e-05
7.88297e-05
0.000129765
0.000210689
0.000337349
0.000532237
0.00082635
0.00126057
0.00188597
0.00276223
0.00395344
0.00552146
0.00751798
0.00997746
0.012913
0.016316
0.020159
0.0244
0.0289874
0.0338637
0.0389693
0.0442444
0.0496315
0.0550759
0.0605275
0.0659412
0.0712771
0.0765008
0.0815835
0.0865017
0.0912358
0.095771
0.100096
0.104205
0.108093
0.11176
0.115205
0.118432
0.121445
0.124247
0.126844
0.12924
0.131439
0.133444
0.135256
0.136873
0.138292
0.139501
0.140489
0.141232
0.141692
0.141836
0.141606
0.140915
0.139658
0.130618
0.119335
0.108041
0.0969099
0.0860724
0.0756323
0.0656722
0.0562597
0.0474514
0.0392973
0.0318432
0.0251308
0.0192122
0.0141318
0.00992386
0.00660308
0.0041407
0.00244446
0.00136368
0.000723981
0.000368625
0.000181176
8.69439e-05
4.08262e-05
1.88191e-05
8.5336e-06
3.81233e-06
1.68001e-06
7.31175e-07
3.1465e-07
1.34034e-07
5.65716e-08
2.36706e-08
9.81513e-09
4.02116e-09
1.61357e-09
6.17023e-10
2.06066e-10
3.60923e-11
4.5112e-07
1.97154e-06
4.52894e-06
8.81597e-06
1.5967e-05
2.78181e-05
4.73003e-05
7.90184e-05
0.000130075
0.000211189
0.000338139
0.000533462
0.000828205
0.0012633
0.00188989
0.00276766
0.00396071
0.00553083
0.0075296
0.00999133
0.012929
0.0163338
0.0201781
0.0244199
0.0290075
0.0338835
0.0389881
0.0442617
0.0496467
0.0550887
0.0605376
0.0659482
0.0712808
0.0765012
0.0815806
0.0864955
0.0912266
0.0957589
0.100082
0.104188
0.108075
0.11174
0.115185
0.118411
0.121424
0.124228
0.126827
0.129225
0.131428
0.133437
0.135253
0.136876
0.1383
0.139516
0.14051
0.141259
0.141726
0.141873
0.141646
0.140955
0.139692
0.13113
0.119862
0.108572
0.0974338
0.0865813
0.0761206
0.066136
0.0566956
0.0478569
0.0396699
0.0321809
0.0254316
0.0194735
0.0143518
0.0101014
0.00673844
0.00423702
0.00250794
0.00140252
0.000746369
0.0003811
0.000187516
8.98402e-05
4.21747e-05
1.94484e-05
8.8223e-06
3.94198e-06
1.73721e-06
7.56034e-07
3.25318e-07
1.38561e-07
5.84737e-08
2.44628e-08
1.01416e-08
4.15455e-09
1.66657e-09
6.37308e-10
2.12803e-10
3.72738e-11
4.52451e-07
1.97736e-06
4.5423e-06
8.84202e-06
1.60143e-05
2.79007e-05
4.74411e-05
7.92539e-05
0.000130462
0.000211814
0.00033913
0.000535001
0.00083054
0.00126676
0.00189484
0.00277455
0.00396995
0.00554277
0.00754447
0.0100092
0.0129496
0.0163568
0.020203
0.024446
0.0290341
0.0339098
0.0390134
0.0442853
0.0496679
0.0551068
0.0605522
0.0659589
0.0712874
0.0765035
0.0815785
0.0864891
0.091216
0.0957444
0.100064
0.104167
0.108051
0.111714
0.115157
0.118383
0.121396
0.1242
0.1268
0.129201
0.131406
0.133419
0.135241
0.136869
0.138299
0.139522
0.140523
0.14128
0.141754
0.141908
0.141686
0.140996
0.139726
0.131763
0.120512
0.109226
0.0980766
0.0872056
0.0767203
0.0667062
0.0572325
0.0483569
0.04013
0.0325981
0.0258035
0.0197971
0.0146246
0.0103218
0.00690698
0.00435737
0.00258763
0.00145159
0.000774883
0.000395232
0.000194354
9.32628e-05
4.38435e-05
2.02318e-05
9.18071e-06
4.10285e-06
1.80824e-06
7.86943e-07
3.38595e-07
1.442e-07
6.0844e-08
2.54504e-08
1.05493e-08
4.321e-09
1.73312e-09
6.62735e-10
2.21269e-10
3.87586e-11
4.5406e-07
1.98439e-06
4.55846e-06
8.87356e-06
1.60716e-05
2.8001e-05
4.76122e-05
7.95405e-05
0.000130934
0.000212578
0.000340344
0.00053689
0.000833413
0.00127101
0.00190097
0.00278309
0.00398145
0.0055577
0.00756312
0.0100316
0.0129756
0.016386
0.0202348
0.0244796
0.0290686
0.0339443
0.0390469
0.0443169
0.0496968
0.0551323
0.0605735
0.0659755
0.0712989
0.0765096
0.0815792
0.0864843
0.0912058
0.0957291
0.100044
0.104143
0.108023
0.111682
0.115123
0.118347
0.121359
0.124163
0.126764
0.129167
0.131375
0.133391
0.135217
0.13685
0.138286
0.139516
0.140525
0.14129
0.141773
0.141934
0.141718
0.141031
0.139755
0.13252
0.121285
0.109998
0.0988461
0.0879583
0.0774428
0.0673944
0.0578815
0.0489619
0.040687
0.0331035
0.0262543
0.0201896
0.014956
0.0105903
0.00711306
0.0045054
0.00268653
0.00151342
0.000807095
0.000412287
0.000203239
9.76346e-05
4.59242e-05
2.12002e-05
9.62259e-06
4.3009e-06
1.89558e-06
8.24911e-07
3.54889e-07
1.51114e-07
6.37489e-08
2.666e-08
1.10486e-08
4.52475e-09
1.81462e-09
6.93865e-10
2.31646e-10
4.05784e-11
4.55964e-07
1.99271e-06
4.57761e-06
8.91095e-06
1.61397e-05
2.81202e-05
4.7816e-05
7.98824e-05
0.000131498
0.000213493
0.000341802
0.000539165
0.000836884
0.00127618
0.00190843
0.00279352
0.00399555
0.00557607
0.00758618
0.0100595