/*--------------------------------*- C++ -*----------------------------------*\
  =========                 |
  \\      /  F ield         | OpenFOAM: The Open Source CFD Toolbox
   \\    /   O peration     | Website:  https://openfoam.org
    \\  /    A nd           | Version:  8
     \\/     M anipulation  |
\*---------------------------------------------------------------------------*/
FoamFile
{
    version     2.0;
    format      ascii;
    class       volScalarField;
    location    "700/fluid";
    object      H2O;
}
// * * * * * * * * * * * * * * * * * * * * * * * * * * * * * * * * * * * * * //

dimensions      [0 0 0 0 0 0 0];

internalField   nonuniform List<scalar> 
4000
(
3.87468e-07
1.69306e-06
3.88814e-06
7.56697e-06
1.3706e-05
2.38936e-05
4.06833e-05
6.81218e-05
0.000112513
0.000183476
0.000295329
0.000468729
0.000732371
0.00112422
0.00169153
0.00248883
0.00357314
0.00499696
0.00680042
0.00900531
0.0116126
0.0146037
0.0179448
0.0215913
0.0254927
0.0295963
0.0338498
0.0382029
0.0426089
0.047025
0.0514134
0.0557409
0.0599795
0.064106
0.0681017
0.0719519
0.0756453
0.079174
0.0825331
0.0857204
0.0887355
0.0915799
0.0942565
0.096769
0.0991218
0.10132
0.103368
0.10527
0.107031
0.108653
0.110139
0.111488
0.112698
0.113764
0.114677
0.115423
0.115981
0.116316
0.116398
0.11617
0.115554
0.114447
0.112255
0.103618
0.0948399
0.0860665
0.0774119
0.0689654
0.0607983
0.0529686
0.0455255
0.038512
0.0319689
0.0259667
0.0204829
0.0156044
0.0113836
0.00787231
0.0051087
0.0030879
0.00173551
0.000911622
0.000451786
0.000214727
9.91559e-05
4.47535e-05
1.98278e-05
8.65095e-06
3.72628e-06
1.58776e-06
6.7038e-07
2.80856e-07
1.16879e-07
4.83417e-08
1.98621e-08
8.08285e-09
3.2281e-09
1.23182e-09
4.11301e-10
7.21004e-11
3.88185e-07
1.69664e-06
3.89826e-06
7.59183e-06
1.37615e-05
2.40078e-05
4.09e-05
6.85e-05
0.000113113
0.000184316
0.000296284
0.000469358
0.000731656
0.00112023
0.00168106
0.0024672
0.00353439
0.00493449
0.00670811
0.00887858
0.0114493
0.0144045
0.0177127
0.0213314
0.0252115
0.0293009
0.0335471
0.0378995
0.0423106
0.0467368
0.0511393
0.055484
0.059742
0.0638892
0.0679064
0.0717784
0.0754932
0.0790426
0.0824215
0.0856274
0.0886597
0.09152
0.094211
0.0967364
0.0991006
0.101309
0.103365
0.105275
0.107043
0.10867
0.11016
0.111513
0.112725
0.113793
0.114708
0.115454
0.116012
0.116346
0.116426
0.116196
0.115576
0.114461
0.111555
0.10286
0.0940365
0.0852265
0.0765421
0.0680716
0.0598862
0.0520447
0.0445969
0.0375878
0.0310603
0.0250887
0.0196538
0.0148476
0.0107239
0.00733333
0.00470509
0.00281702
0.00157492
0.000827661
0.000412728
0.000197858
9.22906e-05
4.20878e-05
1.88292e-05
8.28579e-06
3.59434e-06
1.54003e-06
6.52862e-07
2.74263e-07
1.1432e-07
4.73183e-08
1.94438e-08
7.91052e-09
3.15791e-09
1.20452e-09
4.02045e-10
7.04852e-11
3.89502e-07
1.7026e-06
3.91292e-06
7.62256e-06
1.38208e-05
2.41151e-05
4.1083e-05
6.8792e-05
0.000113543
0.000184883
0.0002969
0.000469735
0.000731068
0.00111724
0.00167332
0.00245129
0.00350576
0.00488773
0.00663748
0.00877887
0.0113165
0.0142366
0.0175097
0.0210956
0.0249468
0.0290127
0.0332417
0.0375836
0.0419906
0.0464189
0.050829
0.0551861
0.0594604
0.0636271
0.0676661
0.0715613
0.0753002
0.078874
0.082277
0.0855062
0.0885609
0.0914422
0.0941526
0.0966959
0.0990766
0.101299
0.103369
0.10529
0.107066
0.108702
0.110198
0.111556
0.112772
0.113843
0.114758
0.115504
0.116061
0.116392
0.116467
0.116228
0.115596
0.114463
0.110314
0.101579
0.0927197
0.0838806
0.0751764
0.0666972
0.0585155
0.0506916
0.0432772
0.0363191
0.0298622
0.0239714
0.0186531
0.013986
0.0100196
0.00679582
0.00432902
0.00257909
0.00143927
0.000757352
0.000379096
0.000182553
8.55801e-05
3.92308e-05
1.76411e-05
7.80062e-06
3.39878e-06
1.46184e-06
6.21707e-07
2.6184e-07
1.09347e-07
4.53176e-08
1.86356e-08
7.58423e-09
3.0278e-09
1.15476e-09
3.85345e-10
6.75461e-11
3.89606e-07
1.70306e-06
3.91394e-06
7.6242e-06
1.38219e-05
2.411e-05
4.10538e-05
6.86933e-05
0.000113272
0.000184229
0.000295466
0.000466831
0.00072561
0.00110762
0.00165725
0.00242571
0.00346696
0.00483162
0.00656007
0.00867674
0.0111873
0.0140792
0.0173245
0.0208841
0.024712
0.0287582
0.032972
0.0373036
0.0417054
0.0461337
0.0505485
0.0549148
0.0592022
0.0633851
0.0674429
0.0713589
0.0751199
0.0787165
0.0821425
0.0853944
0.0884711
0.0913734
0.0941037
0.0966658
0.0990635
0.101301
0.103384
0.105317
0.107103
0.108747
0.110249
0.111612
0.112831
0.113903
0.114817
0.115561
0.116112
0.116435
0.116499
0.116246
0.115594
0.114434
0.108766
0.100021
0.0911475
0.0822992
0.073595
0.0651286
0.0569748
0.0491956
0.0418441
0.0349682
0.028614
0.022824
0.0176462
0.0131329
0.00932978
0.00627121
0.00395973
0.00234143
0.0012999
0.000682394
0.000341644
0.000164844
7.7508e-05
3.56552e-05
1.60939e-05
7.14398e-06
3.12458e-06
1.34883e-06
5.7559e-07
2.43157e-07
1.01816e-07
4.2292e-08
1.74238e-08
7.1016e-09
2.83834e-09
1.08335e-09
3.61656e-10
6.34051e-11
3.8859e-07
1.69854e-06
3.90322e-06
7.60227e-06
1.37793e-05
2.4029e-05
4.09011e-05
6.84068e-05
0.000112739
0.000183248
0.000293693
0.000463697
0.000720213
0.0010986
0.00164268
0.00240304
0.00343312
0.00478323
0.00649382
0.00858982
0.0110778
0.0139461
0.0171682
0.020706
0.0245144
0.0285442
0.0327454
0.0370683
0.0414658
0.0458939
0.0503127
0.0546867
0.058985
0.0631819
0.0672559
0.07119
0.0749705
0.0785873
0.0820339
0.0853063
0.0884031
0.0913248
0.0940738
0.0966527
0.0990654
0.101317
0.103412
0.105355
0.10715
0.1088
0.110308
0.111673
0.112893
0.113962
0.114873
0.115609
0.11615
0.116459
0.116506
0.11623
0.115546
0.11435
0.107138
0.0984072
0.0895327
0.080684
0.071989
0.0635459
0.0554319
0.0477097
0.0404324
0.0336478
0.027413
0.0217447
0.0167063
0.0123448
0.00870042
0.00579954
0.00363291
0.00213421
0.0011798
0.000618179
0.000309549
0.000149583
7.04851e-05
3.25046e-05
1.4709e-05
6.54533e-06
2.86937e-06
1.24127e-06
5.30695e-07
2.24565e-07
9.41659e-08
3.91615e-08
1.61501e-08
6.58769e-09
2.63449e-09
1.00592e-09
3.3584e-10
5.88793e-11
3.8666e-07
1.69e-06
3.88314e-06
7.56185e-06
1.37029e-05
2.3889e-05
4.06489e-05
6.79585e-05
0.000111951
0.000181885
0.00029137
0.000459816
0.000713879
0.00108854
0.00162718
0.00237996
0.00339999
0.00473746
0.00643299
0.00851199
0.0109817
0.0138314
0.0170353
0.0205562
0.0243496
0.0283671
0.0325589
0.0368757
0.0412705
0.0456994
0.0501222
0.0545033
0.0588115
0.0630207
0.0671089
0.0710588
0.0748561
0.0784906
0.081955
0.0852452
0.0883596
0.0912985
0.094063
0.0966562
0.0990822
0.101346
0.103451
0.105402
0.107204
0.108859
0.110368
0.111733
0.11295
0.114014
0.114915
0.115639
0.116162
0.116448
0.11647
0.116163
0.115447
0.114232
0.1058
0.0969957
0.0880661
0.0791867
0.0704859
0.0620602
0.0539849
0.0463205
0.0391183
0.0324241
0.0263051
0.0207546
0.0158495
0.0116316
0.00813534
0.00537884
0.00334255
0.00195003
0.00107236
0.000560049
0.000280008
0.000135315
6.38154e-05
2.9469e-05
1.33579e-05
5.95526e-06
2.6158e-06
1.13379e-06
4.8565e-07
2.05863e-07
8.64604e-08
3.60071e-08
1.48669e-08
6.0701e-09
2.42926e-09
9.27979e-10
3.09861e-10
5.43247e-11
3.84317e-07
1.67969e-06
3.85915e-06
7.51425e-06
1.36146e-05
2.37304e-05
4.03702e-05
6.74758e-05
0.000111127
0.000180494
0.000289061
0.000456052
0.000707869
0.00107918
0.001613
0.00235916
0.00337051
0.0046972
0.00638005
0.0084449
0.0108996
0.0137343
0.0169237
0.0204314
0.0242135
0.0282218
0.032407
0.03672
0.0411138
0.0455444
0.0499717
0.0543597
0.0586771
0.0628972
0.0669981
0.0709619
0.074774
0.0784238
0.0819037
0.0852095
0.088339
0.0912915
0.0940689
0.0966743
0.0991112
0.101384
0.103497
0.105455
0.107261
0.108918
0.110428
0.11179
0.113
0.114054
0.11494
0.115642
0.116136
0.116383
0.116354
0.11598
0.115183
0.113885
0.104974
0.0958975
0.0868162
0.0778599
0.0691319
0.0607144
0.0526738
0.0450647
0.0379338
0.0313221
0.0252968
0.0198531
0.0150743
0.0109934
0.00763703
0.00501227
0.00309204
0.00179242
0.000980958
0.000510721
0.000254923
0.000123155
5.80994e-05
2.68484e-05
1.21816e-05
5.43682e-06
2.39089e-06
1.03755e-06
4.44957e-07
1.8883e-07
7.93914e-08
3.30952e-08
1.36761e-08
5.58772e-09
2.23732e-09
8.54894e-10
2.85457e-10
5.00423e-11
3.8183e-07
1.66878e-06
3.83384e-06
7.46429e-06
1.35224e-05
2.35664e-05
4.00843e-05
6.69857e-05
0.000110298
0.000179115
0.000286802
0.000452421
0.000702158
0.00107042
0.00159994
0.00234028
0.00334416
0.00466172
0.006334
0.00838726
0.0108299
0.0136526
0.0168308
0.0203284
0.0241021
0.0281039
0.0322848
0.0365957
0.0409898
0.045423
0.0498551
0.0542498
0.0585757
0.0628059
0.066918
0.0708939
0.0747187
0.0783816
0.081875
0.0851938
0.0883352
0.0912994
0.0940878
0.0967031
0.0991488
0.101429
0.103548
0.10551
0.107319
0.108977
0.110484
0.111842
0.113045
0.114086
0.114954
0.115629
0.116083
0.116275
0.116162
0.115661
0.114662
0.113041
0.103966
0.0947719
0.0856176
0.0766258
0.0678933
0.0594968
0.0514986
0.0439508
0.0368985
0.0303833
0.024464
0.0191344
0.0144546
0.0104686
0.00721593
0.00470042
0.00287882
0.00165825
0.000903009
0.000468484
0.000233315
0.000112618
5.3115e-05
2.45497e-05
1.11441e-05
4.9773e-06
2.19068e-06
9.51561e-07
4.0848e-07
1.73519e-07
7.30225e-08
3.04665e-08
1.25993e-08
5.15094e-09
2.06333e-09
7.88583e-10
2.63303e-10
4.61533e-11
3.79398e-07
1.65812e-06
3.80921e-06
7.41587e-06
1.34336e-05
2.34091e-05
3.98122e-05
6.65228e-05
0.000109523
0.000177835
0.000284726
0.000449116
0.000697012
0.0010626
0.00158839
0.00232374
0.00332127
0.00463116
0.00629467
0.00833843
0.0107713
0.0135845
0.016754
0.020244
0.0240115
0.0280089
0.0321872
0.0364975
0.0408929
0.0453293
0.0497662
0.0541675
0.0585013
0.0627405
0.0668626
0.0708492
0.0746853
0.0783595
0.0818637
0.0851928
0.0883445
0.0913184
0.0941157
0.0967388
0.0991914
0.101477
0.103601
0.105566
0.107376
0.109033
0.110539
0.111891
0.113087
0.114118
0.114972
0.115629
0.116057
0.116218
0.116064
0.115508
0.114437
0.112089
0.102921
0.0936673
0.0844815
0.0754825
0.0667632
0.0583976
0.0504461
0.0429594
0.0359829
0.0295604
0.0237507
0.0185267
0.0139498
0.010057
0.0068733
0.00443681
0.00269799
0.00154458
0.000837057
0.00043276
0.000215022
0.000103678
4.88746e-05
2.25875e-05
1.02553e-05
4.58211e-06
2.01783e-06
8.7704e-07
3.76754e-07
1.60158e-07
6.74481e-08
2.81597e-08
1.16523e-08
4.76607e-09
1.90979e-09
7.3e-10
2.43721e-10
4.27122e-11
3.77127e-07
1.64818e-06
3.78627e-06
7.37088e-06
1.33512e-05
2.32639e-05
3.95621e-05
6.60992e-05
0.000108816
0.000176677
0.00028286
0.000446165
0.000692449
0.00105572
0.0015783
0.00230941
0.0033016
0.0046051
0.00626139
0.00829743
0.0107226
0.0135283
0.016691
0.0201754
0.0239386
0.0279331
0.0321101
0.0364208
0.0408181
0.0452579
0.0496997
0.0541071
0.0584481
0.0626954
0.0668262
0.0708219
0.0746676
0.0783512
0.0818645
0.0852026
0.0883628
0.0913444
0.0941487
0.0967781
0.0992358
0.101526
0.103652
0.105619
0.10743
0.109086
0.110589
0.111938
0.113129
0.114153
0.114998
0.115645
0.116061
0.116212
0.116051
0.115496
0.114447
0.111066
0.101877
0.0926152
0.083433
0.0744497
0.0657581
0.0574311
0.0495278
0.0420976
0.0351877
0.0288349
0.0230513
0.0178952
0.0134071
0.0096219
0.00656531
0.00421233
0.00254153
0.00144706
0.000780802
0.000402385
0.000199482
9.60835e-05
4.52682e-05
2.0916e-05
9.49664e-06
4.24409e-06
1.86966e-06
8.13025e-07
3.49446e-07
1.48637e-07
6.26331e-08
2.61642e-08
1.0832e-08
4.43235e-09
1.77653e-09
6.79126e-10
2.26715e-10
3.97207e-11
3.75077e-07
1.63921e-06
3.7656e-06
7.33042e-06
1.32774e-05
2.3134e-05
3.9339e-05
6.57228e-05
0.000108192
0.000175657
0.000281224
0.000443593
0.000688493
0.00104978
0.00156965
0.00229721
0.00328493
0.00458317
0.00623356
0.00826338
0.0106823
0.0134823
0.0166399
0.0201201
0.0238803
0.0278731
0.0320497
0.0363614
0.040761
0.0452044
0.0496508
0.0540639
0.0584114
0.0626659
0.0668044
0.0708081
0.0746615
0.0783528
0.0818738
0.0852192
0.0883862
0.091374
0.0941838
0.0968178
0.0992793
0.101572
0.103701
0.105668
0.107478
0.109133
0.110634
0.11198
0.113165
0.114184
0.115022
0.115662
0.116071
0.116215
0.116049
0.115493
0.114447
0.110086
0.100898
0.0916432
0.0824759
0.0735168
0.0648599
0.0565763
0.0487235
0.0413494
0.0344915
0.0281762
0.0224549
0.0173679
0.0129556
0.00925028
0.00627344
0.00401748
0.00241083
0.0013643
0.000733273
0.000376796
0.00018641
8.9696e-05
4.22333e-05
1.95078e-05
8.85661e-06
3.95845e-06
1.74424e-06
7.58744e-07
3.2625e-07
1.38833e-07
5.85299e-08
2.44614e-08
1.01313e-08
4.14702e-09
1.66253e-09
6.35585e-10
2.1217e-10
3.71704e-11
3.73271e-07
1.63132e-06
3.74742e-06
7.29488e-06
1.32126e-05
2.30204e-05
3.91443e-05
6.53953e-05
0.00010765
0.000174775
0.000279815
0.000441387
0.000685115
0.00104474
0.00156234
0.00228693
0.00327099
0.00456491
0.00621052
0.00823536
0.0106494
0.0134449
0.0165986
0.0200759
0.0238341
0.027826
0.0320029
0.0363159
0.0407179
0.0451648
0.0496155
0.0540337
0.0583869
0.0626475
0.0667926
0.0708029
0.0746629
0.0783608
0.0818881
0.0852393
0.0884117
0.0914043
0.0942182
0.0968556
0.0993198
0.101614
0.103744
0.105711
0.107521
0.109174
0.110672
0.112013
0.113194
0.114207
0.115039
0.115672
0.116074
0.116212
0.11604
0.115481
0.114435
0.10923
0.100038
0.090793
0.0816488
0.0727245
0.0641004
0.0558492
0.0480285
0.0406851
0.0338586
0.0275978
0.0219364
0.0169142
0.01257
0.00893494
0.00602778
0.00383673
0.00230003
0.00129536
0.000693213
0.000355317
0.000175464
8.43522e-05
3.9695e-05
1.83298e-05
8.32083e-06
3.71913e-06
1.63904e-06
7.13158e-07
3.06745e-07
1.3058e-07
5.5071e-08
2.30244e-08
9.53937e-09
3.90582e-09
1.56616e-09
5.98808e-10
1.99902e-10
3.50195e-11
3.71714e-07
1.62451e-06
3.73177e-06
7.26432e-06
1.3157e-05
2.2923e-05
3.89777e-05
6.51158e-05
0.000107189
0.000174027
0.000278623
0.000439526
0.000682277
0.00104052
0.00155625
0.0022784
0.00325946
0.00454989
0.00619167
0.00821256
0.0106228
0.0134148
0.0165657
0.0200409
0.0237978
0.0277894
0.0319669
0.0362814
0.0406859
0.0451359
0.0495906
0.0540132
0.0583713
0.0626373
0.0667878
0.0708036
0.074669
0.0783722
0.0819045
0.0852604
0.0884369
0.0914332
0.0942501
0.0968898
0.0993556
0.101651
0.10378
0.105747
0.107555
0.109206
0.1107
0.112038
0.113214
0.114221
0.115047
0.115673
0.116068
0.1162
0.116023
0.115461
0.114416
0.108493
0.0992945
0.0900534
0.0809223
0.0720058
0.0633999
0.055175
0.0473878
0.0400859
0.0333111
0.0271023
0.0214946
0.0165294
0.0122446
0.00867031
0.00582345
0.00368855
0.00219944
0.00123902
0.000660755
0.000337531
0.000166387
7.99305e-05
3.75965e-05
1.73558e-05
7.87762e-06
3.52095e-06
1.55182e-06
6.75314e-07
2.9053e-07
1.23709e-07
5.21879e-08
2.18252e-08
9.04488e-09
3.70417e-09
1.48553e-09
5.6803e-10
1.89636e-10
3.32195e-11
3.70399e-07
1.61877e-06
3.71856e-06
7.23854e-06
1.31102e-05
2.2841e-05
3.88378e-05
6.48815e-05
0.000106803
0.000173403
0.000277631
0.000437982
0.000679929
0.00103704
0.00155124
0.00227142
0.00325006
0.00453768
0.00617642
0.0081942
0.0106015
0.0133909
0.0165397
0.0200134
0.0237696
0.0277613
0.0319395
0.0362556
0.0406622
0.0451151
0.0495732
0.0539996
0.058362
0.0626324
0.0667873
0.0708075
0.0746774
0.0783848
0.081921
0.0852804
0.08846
0.0914589
0.0942778
0.096919
0.0993856
0.101681
0.10381
0.105776
0.107581
0.109229
0.11072
0.112053
0.113224
0.114225
0.115045
0.115664
0.116053
0.116179
0.115997
0.115432
0.114393
0.107874
0.0986619
0.0894224
0.0802939
0.0713937
0.0628098
0.0546116
0.0468558
0.0395896
0.0328543
0.026688
0.0211253
0.0162078
0.0119731
0.00845042
0.0056547
0.00356734
0.00211846
0.00118839
0.000634382
0.000323568
0.000159113
7.63516e-05
3.58932e-05
1.65631e-05
7.51589e-06
3.35883e-06
1.48033e-06
6.44235e-07
2.77192e-07
1.18049e-07
4.98101e-08
2.0835e-08
8.63623e-09
3.53739e-09
1.41882e-09
5.4255e-10
1.81146e-10
3.17302e-11
3.69312e-07
1.61402e-06
3.70765e-06
7.21726e-06
1.30715e-05
2.27735e-05
3.87228e-05
6.46891e-05
0.000106487
0.000172892
0.000276822
0.000436725
0.000678021
0.00103422
0.00154719
0.00226579
0.0032425
0.00452792
0.00616427
0.00817964
0.0105846
0.0133721
0.0165194
0.0199921
0.0237479
0.0277398
0.0319189
0.0362364
0.040645
0.0451003
0.0495613
0.0539909
0.0583567
0.0626305
0.066789
0.0708128
0.0746861
0.0783967
0.0819358
0.0852979
0.0884797
0.0914802
0.0943004
0.0969423
0.099409
0.101704
0.103832
0.105796
0.107599
0.109244
0.110731
0.112059
0.113225
0.114221
0.115034
0.115648
0.11603
0.11615
0.115964
0.115398
0.114364
0.107355
0.0981299
0.0888873
0.0797682
0.0708833
0.0623193
0.054145
0.0464163
0.0391801
0.0324775
0.0263463
0.0208207
0.0159429
0.0117497
0.0082699
0.00551669
0.0034688
0.00205321
0.00114822
0.000611037
0.000311998
0.000153515
7.35497e-05
3.45271e-05
1.59218e-05
7.2225e-06
3.22715e-06
1.42218e-06
6.18935e-07
2.66325e-07
1.13435e-07
4.787e-08
2.00267e-08
8.30256e-09
3.40116e-09
1.36439e-09
5.21742e-10
1.74227e-10
3.05165e-11
3.68437e-07
1.61019e-06
3.69887e-06
7.20015e-06
1.30405e-05
2.27193e-05
3.86305e-05
6.4535e-05
0.000106234
0.000172484
0.000276176
0.000435725
0.000676506
0.00103199
0.00154399
0.00226136
0.00323657
0.00452027
0.00615478
0.00816831
0.0105716
0.0133576
0.0165038
0.0199759
0.0237315
0.0277237
0.0319035
0.0362223
0.0406326
0.0450899
0.0495531
0.0539852
0.0583537
0.0626303
0.0667915
0.0708179
0.0746938
0.0784067
0.0819479
0.0853117
0.0884949
0.0914965
0.0943172
0.0969592
0.0994255
0.10172
0.103846
0.105808
0.107608
0.10925
0.110733
0.112057
0.113218
0.114209
0.115017
0.115625
0.116002
0.116119
0.115932
0.115366
0.114337
0.106936
0.0976983
0.0884525
0.0793394
0.0704668
0.0619196
0.0537654
0.0460594
0.0388481
0.0321724
0.0260698
0.0205744
0.0157288
0.0115696
0.00812457
0.00540586
0.00338993
0.00200124
0.00111642
0.000592709
0.000301785
0.000148325
7.11787e-05
3.34234e-05
1.54067e-05
6.98627e-06
3.12104e-06
1.37538e-06
5.98588e-07
2.57594e-07
1.09729e-07
4.63133e-08
1.93783e-08
8.03549e-09
3.29197e-09
1.32113e-09
5.05166e-10
1.68727e-10
2.95516e-11
3.67758e-07
1.60723e-06
3.69205e-06
7.18689e-06
1.30164e-05
2.26774e-05
3.85591e-05
6.4416e-05
0.000106039
0.00017217
0.000275679
0.000434956
0.000675344
0.00103028
0.00154154
0.00225797
0.00323205
0.00451446
0.0061476
0.00815976
0.0105618
0.0133467
0.0164922
0.0199638
0.0237193
0.0277118
0.0318924
0.0362121
0.0406237
0.0450826
0.0495476
0.0539816
0.058352
0.0626305
0.0667937
0.070822
0.0746995
0.0784139
0.0819565
0.0853213
0.0885053
0.0915073
0.0943281
0.0969697
0.0994352
0.101728
0.103852
0.105812
0.10761
0.109248
0.110727
0.112047
0.113204
0.11419
0.114994
0.115598
0.115974
0.116092
0.115911
0.115362
0.114369
0.106603
0.0973515
0.0881047
0.0789976
0.0701358
0.0616028
0.0534653
0.045778
0.038587
0.0319329
0.0258531
0.0203818
0.0155616
0.011429
0.00801145
0.00531983
0.00332889
0.00196115
0.00109204
0.000578855
0.000294328
0.000144484
6.92563e-05
3.25434e-05
1.50099e-05
6.80564e-06
3.03966e-06
1.33933e-06
5.8284e-07
2.50832e-07
1.06858e-07
4.51097e-08
1.88773e-08
7.83088e-09
3.20836e-09
1.2881e-09
4.92493e-10
1.64525e-10
2.88144e-11
3.67262e-07
1.60506e-06
3.68708e-06
7.17719e-06
1.29989e-05
2.26468e-05
3.85071e-05
6.43292e-05
0.000105897
0.000171941
0.000275318
0.000434397
0.0006745
0.00102904
0.00153977
0.00225553
0.00322879
0.00451028
0.00614243
0.00815363
0.0105548
0.013339
0.0164839
0.0199553
0.0237108
0.0277036
0.0318846
0.0362051
0.0406176
0.0450776
0.0495438
0.0539791
0.0583508
0.0626306
0.066795
0.0708243
0.0747028
0.0784181
0.0819613
0.0853267
0.0885109
0.0915129
0.0943334
0.0969743
0.0994388
0.10173
0.103853
0.10581
0.107605
0.10924
0.110716
0.112031
0.113183
0.114165
0.114964
0.115565
0.115937
0.116054
0.115875
0.115331
0.114348
0.106362
0.0970946
0.0878435
0.0787395
0.0698859
0.0613641
0.0532399
0.0455673
0.0383921
0.0317547
0.0256923
0.0202391
0.0154381
0.0113255
0.00792832
0.00525679
0.00328431
0.00193195
0.0010743
0.00056878
0.000288924
0.000141712
6.78819e-05
3.18683e-05
1.46945e-05
6.6671e-06
2.9794e-06
1.3131e-06
5.71542e-07
2.46018e-07
1.04817e-07
4.426e-08
1.85227e-08
7.68568e-09
3.14893e-09
1.26452e-09
4.8344e-10
1.61524e-10
2.82873e-11
3.66938e-07
1.60365e-06
3.68383e-06
7.17087e-06
1.29874e-05
2.26268e-05
3.84731e-05
6.42726e-05
0.000105804
0.000171792
0.000275083
0.000434034
0.000673953
0.00102823
0.00153863
0.00225395
0.00322669
0.00450759
0.00613911
0.00814969
0.0105503
0.013334
0.0164786
0.0199498
0.0237054
0.0276983
0.0318797
0.0362006
0.0406138
0.0450745
0.0495414
0.0539775
0.05835
0.0626305
0.0667954
0.0708252
0.0747041
0.0784197
0.0819631
0.0853286
0.0885127
0.0915145
0.0943344
0.0969746
0.099438
0.101728
0.103849
0.105804
0.107596
0.109228
0.1107
0.112012
0.11316
0.114137
0.114932
0.115529
0.115899
0.116015
0.115837
0.1153
0.114332
0.106204
0.0969209
0.0876645
0.0785622
0.0697143
0.0612009
0.0530866
0.0454249
0.038261
0.0316353
0.0255851
0.0201444
0.0153564
0.0112572
0.00787375
0.00521562
0.00325534
0.00191306
0.00106284
0.000562264
0.000285426
0.00013992
6.70144e-05
3.14551e-05
1.44992e-05
6.57771e-06
2.93885e-06
1.29585e-06
5.64104e-07
2.429e-07
1.03495e-07
4.37135e-08
1.82947e-08
7.59272e-09
3.11088e-09
1.24946e-09
4.77648e-10
1.59608e-10
2.79502e-11
3.66781e-07
1.60296e-06
3.68226e-06
7.16781e-06
1.29819e-05
2.26172e-05
3.84569e-05
6.42456e-05
0.00010576
0.000171721
0.000274972
0.000433862
0.000673694
0.00102785
0.00153808
0.0022532
0.0032257
0.00450631
0.00613754
0.00814782
0.0105481
0.0133317
0.0164761
0.0199473
0.0237028
0.0276958
0.0318774
0.0361985
0.040612
0.045073
0.0495403
0.0539767
0.0583495
0.0626303
0.0667954
0.0708253
0.0747041
0.0784197
0.081963
0.0853284
0.0885123
0.0915137
0.0943332
0.0969728
0.0994354
0.101724
0.103844
0.105797
0.107588
0.109218
0.110688
0.111997
0.113142
0.114116
0.114908
0.115502
0.115869
0.115984
0.115808
0.115276
0.114324
0.106127
0.0968296
0.0875688
0.0784675
0.0696235
0.0611155
0.0530073
0.0453519
0.0381945
0.0315754
0.0255318
0.0200978
0.0153165
0.0112242
0.00784758
0.00519603
0.00324168
0.00190423
0.00105752
0.000559253
0.000283811
0.000139094
6.66121e-05
3.12691e-05
1.44112e-05
6.53804e-06
2.92065e-06
1.28778e-06
5.60533e-07
2.41389e-07
1.02852e-07
4.34473e-08
1.81837e-08
7.54748e-09
3.09237e-09
1.24214e-09
4.74831e-10
1.58676e-10
2.77862e-11
3.66782e-07
1.60297e-06
3.68227e-06
7.16784e-06
1.29819e-05
2.26173e-05
3.8457e-05
6.42458e-05
0.00010576
0.000171722
0.000274973
0.000433864
0.000673696
0.00102786
0.00153809
0.00225321
0.00322571
0.00450632
0.00613755
0.00814784
0.0105482
0.0133317
0.0164762
0.0199473
0.0237028
0.0276958
0.0318774
0.0361986
0.040612
0.045073
0.0495403
0.0539767
0.0583495
0.0626303
0.0667955
0.0708254
0.0747041
0.0784197
0.0819631
0.0853284
0.0885123
0.0915138
0.0943333
0.0969728
0.0994354
0.101724
0.103844
0.105797
0.107588
0.109218
0.110688
0.111997
0.113142
0.114116
0.114908
0.115502
0.115869
0.115984
0.115808
0.115276
0.114324
0.106127
0.0968295
0.0875688
0.0784675
0.0696235
0.0611155
0.0530073
0.0453519
0.0381945
0.0315754
0.0255318
0.0200978
0.0153165
0.0112242
0.00784758
0.00519604
0.00324169
0.00190424
0.00105753
0.000559253
0.00028381
0.000139102
6.66043e-05
3.12704e-05
1.44116e-05
6.53817e-06
2.9207e-06
1.28779e-06
5.60536e-07
2.41389e-07
1.02851e-07
4.34469e-08
1.81835e-08
7.54737e-09
3.09232e-09
1.24211e-09
4.74822e-10
1.58669e-10
2.77853e-11
3.66943e-07
1.60367e-06
3.68387e-06
7.17096e-06
1.29876e-05
2.26271e-05
3.84736e-05
6.42734e-05
0.000105805
0.000171794
0.000275086
0.000434039
0.00067396
0.00102824
0.00153864
0.00225397
0.00322672
0.00450762
0.00613915
0.00814973
0.0105503
0.0133341
0.0164787
0.0199499
0.0237055
0.0276984
0.0318798
0.0362007
0.0406139
0.0450746
0.0495415
0.0539776
0.05835
0.0626305
0.0667955
0.0708253
0.0747041
0.0784197
0.0819632
0.0853286
0.0885128
0.0915145
0.0943345
0.0969746
0.099438
0.101728
0.103849
0.105804
0.107596
0.109228
0.1107
0.112012
0.11316
0.114137
0.114932
0.115529
0.115899
0.116015
0.115837
0.1153
0.114332
0.106204
0.0969208
0.0876644
0.0785621
0.0697143
0.0612009
0.0530866
0.0454248
0.0382609
0.0316353
0.0255851
0.0201444
0.0153564
0.0112572
0.00787376
0.00521563
0.00325535
0.00191307
0.00106284
0.000562268
0.00028543
0.000139925
6.70052e-05
3.14579e-05
1.45003e-05
6.57803e-06
2.93897e-06
1.29587e-06
5.6411e-07
2.42897e-07
1.03494e-07
4.37124e-08
1.82943e-08
7.59242e-09
3.11075e-09
1.24937e-09
4.77624e-10
1.59589e-10
2.79477e-11
3.67269e-07
1.60509e-06
3.68715e-06
7.17734e-06
1.29991e-05
2.26472e-05
3.85078e-05
6.43304e-05
0.000105899
0.000171944
0.000275323
0.000434404
0.000674511
0.00102905
0.00153979
0.00225556
0.00322884
0.00451034
0.0061425
0.00815371
0.0105549
0.0133391
0.016484
0.0199554
0.0237109
0.0277037
0.0318848
0.0362052
0.0406178
0.0450778
0.049544
0.0539793
0.058351
0.0626308
0.0667951
0.0708244
0.0747029
0.0784182
0.0819614
0.0853268
0.088511
0.091513
0.0943335
0.0969744
0.0994389
0.10173
0.103853
0.10581
0.107605
0.10924
0.110716
0.112031
0.113183
0.114165
0.114964
0.115565
0.115937
0.116054
0.115875
0.115331
0.114348
0.106362
0.0970945
0.0878434
0.0787394
0.0698858
0.061364
0.0532398
0.0455673
0.0383921
0.0317547
0.0256923
0.0202391
0.0154381
0.0113255
0.00792833
0.00525681
0.00328432
0.00193196
0.0010743
0.000568786
0.000288927
0.000141714
6.78827e-05
3.18691e-05
1.46949e-05
6.66732e-06
2.97949e-06
1.31312e-06
5.7155e-07
2.46018e-07
1.04817e-07
4.4259e-08
1.85223e-08
7.68533e-09
3.14878e-09
1.26439e-09
4.83405e-10
1.61497e-10
2.82836e-11
3.67768e-07
1.60727e-06
3.69216e-06
7.18708e-06
1.30168e-05
2.2678e-05
3.85602e-05
6.44177e-05
0.000106041
0.000172174
0.000275686
0.000434966
0.000675359
0.0010303
0.00154157
0.00225802
0.00323211
0.00451454
0.00614769
0.00815987
0.0105619
0.0133469
0.0164923
0.019964
0.0237195
0.027712
0.0318926
0.0362123
0.0406239
0.0450828
0.0495478
0.0539818
0.0583522
0.0626307
0.0667939
0.0708221
0.0746996
0.0784141
0.0819566
0.0853214
0.0885054
0.0915074
0.0943282
0.0969698
0.0994353
0.101728
0.103853
0.105812
0.10761
0.109248
0.110728
0.112047
0.113204
0.11419
0.114994
0.115598
0.115974
0.116092
0.115911
0.115362
0.114369
0.106602
0.0973514
0.0881046
0.0789974
0.0701357
0.0616027
0.0534652
0.0457779
0.0385869
0.0319329
0.0258531
0.0203818
0.0155616
0.0114291
0.00801147
0.00531985
0.00332891
0.00196117
0.00109205
0.000578862
0.000294333
0.000144487
6.92576e-05
3.25441e-05
1.50103e-05
6.80584e-06
3.03973e-06
1.33936e-06
5.82851e-07
2.50836e-07
1.0686e-07
4.51101e-08
1.88775e-08
7.8307e-09
3.20828e-09
1.28794e-09
4.92458e-10
1.64496e-10
2.88102e-11
3.6845e-07
1.61025e-06
3.69899e-06
7.2004e-06
1.30409e-05
2.27201e-05
3.86318e-05
6.45372e-05
0.000106237
0.00017249
0.000276185
0.000435737
0.000676525
0.00103202
0.00154403
0.00226141
0.00323665
0.00452037
0.0061549
0.00816846
0.0105718
0.0133578
0.016504
0.0199761
0.0237317
0.0277239
0.0319038
0.0362225
0.0406328
0.0450901
0.0495534
0.0539855
0.0583539
0.0626305
0.0667917
0.0708182
0.074694
0.0784069
0.0819481
0.0853118
0.088495
0.0914966
0.0943174
0.0969593
0.0994256
0.10172
0.103846
0.105808
0.107608
0.10925
0.110733
0.112057
0.113218
0.114209
0.115017
0.115625
0.116002
0.116119
0.115932
0.115366
0.114337
0.106936
0.0976981
0.0884523
0.0793393
0.0704667
0.0619195
0.0537653
0.0460593
0.0388481
0.0321724
0.0260698
0.0205744
0.0157288
0.0115696
0.00812458
0.00540588
0.00338995
0.00200125
0.00111643
0.000592717
0.00030179
0.000148327
7.11802e-05
3.34241e-05
1.5407e-05
6.98639e-06
3.12112e-06
1.37541e-06
5.98607e-07
2.57601e-07
1.09732e-07
4.63146e-08
1.93789e-08
8.03556e-09
3.29209e-09
1.32102e-09
5.05151e-10
1.68704e-10
2.95484e-11
3.69328e-07
1.61408e-06
3.7078e-06
7.21756e-06
1.30721e-05
2.27744e-05
3.87243e-05
6.46917e-05
0.000106491
0.000172899
0.000276832
0.00043674
0.000678044
0.00103426
0.00154724
0.00226586
0.00324259
0.00452804
0.00616441
0.00817981
0.0105848
0.0133723
0.0165196
0.0199924
0.0237482
0.0277401
0.0319192
0.0362367
0.0406453
0.0451006
0.0495616
0.0539912
0.058357
0.0626308
0.0667893
0.0708131
0.0746864
0.0783969
0.0819361
0.0852981
0.0884798
0.0914804
0.0943006
0.0969424
0.0994091
0.101704
0.103832
0.105796
0.107599
0.109244
0.110731
0.112059
0.113225
0.114221
0.115034
0.115648
0.11603
0.11615
0.115964
0.115398
0.114365
0.107355
0.0981298
0.0888872
0.0797682
0.0708833
0.0623193
0.0541449
0.0464162
0.03918
0.0324774
0.0263462
0.0208206
0.0159428
0.0117497
0.0082699
0.0055167
0.00346881
0.00205323
0.00114823
0.000611046
0.000312003
0.000153518
7.35514e-05
3.4528e-05
1.59223e-05
7.22274e-06
3.22727e-06
1.42224e-06
6.18958e-07
2.66335e-07
1.13439e-07
4.78719e-08
2.00275e-08
8.30285e-09
3.40129e-09
1.3644e-09
5.21759e-10
1.7422e-10
3.05158e-11
3.70417e-07
1.61884e-06
3.71874e-06
7.23889e-06
1.31108e-05
2.28421e-05
3.88396e-05
6.48845e-05
0.000106808
0.00017341
0.000277643
0.000438
0.000679956
0.00103708
0.00155129
0.0022715
0.00325016
0.00453782
0.00617659
0.00819441
0.0106017
0.0133911
0.01654
0.0200137
0.0237699
0.0277616
0.0319399
0.036256
0.0406626
0.0451155
0.0495736
0.054
0.0583623
0.0626327
0.0667876
0.0708078
0.0746777
0.0783851
0.0819213
0.0852807
0.0884603
0.0914591
0.094278
0.0969192
0.0993857
0.101681
0.10381
0.105776
0.107581
0.109229
0.11072
0.112053
0.113224
0.114225
0.115045
0.115664
0.116053
0.116179
0.115997
0.115432
0.114393
0.107874
0.098662
0.0894227
0.0802945
0.0713945
0.0628102
0.0546118
0.0468557
0.0395894
0.0328541
0.0266878
0.0211251
0.0162077
0.011973
0.00845038
0.00565468
0.00356734
0.00211847
0.00118841
0.00063439
0.000323573
0.000159116
7.63534e-05
3.58943e-05
1.65636e-05
7.51617e-06
3.35897e-06
1.48039e-06
6.44263e-07
2.77205e-07
1.18055e-07
4.98125e-08
2.0836e-08
8.63664e-09
3.53756e-09
1.41889e-09
5.42575e-10
1.81151e-10
3.17313e-11
3.71735e-07
1.6246e-06
3.73198e-06
7.26471e-06
1.31577e-05
2.29242e-05
3.89797e-05
6.51191e-05
0.000107194
0.000174036
0.000278637
0.000439547
0.000682308
0.00104057
0.00155631
0.00227849
0.00325958
0.00455004
0.00619186
0.00821279
0.010623
0.0134151
0.0165661
0.0200413
0.0237982
0.0277899
0.0319673
0.0362819
0.0406863
0.0451363
0.049591
0.0540136
0.0583717
0.0626377
0.0667882
0.0708039
0.0746694
0.0783725
0.0819048
0.0852607
0.0884372
0.0914334
0.0942503
0.09689
0.0993558
0.101651
0.103781
0.105748
0.107555
0.109206
0.110701
0.112038
0.113214
0.114221
0.115047
0.115673
0.116068
0.1162
0.116023
0.115461
0.114416
0.108493
0.0992947
0.0900543
0.0809245
0.0720107
0.0634017
0.0551752
0.0473871
0.0400847
0.0333101
0.0271016
0.0214941
0.016529
0.0122443
0.00867019
0.0058234
0.00368853
0.00219944
0.00123902
0.000660761
0.000337536
0.00016639
7.99326e-05
3.75977e-05
1.73565e-05
7.87793e-06
3.52111e-06
1.55189e-06
6.75347e-07
2.90544e-07
1.23715e-07
5.21907e-08
2.18263e-08
9.04537e-09
3.70437e-09
1.48561e-09