/*--------------------------------*- C++ -*----------------------------------*\
  =========                 |
  \\      /  F ield         | OpenFOAM: The Open Source CFD Toolbox
   \\    /   O peration     | Website:  https://openfoam.org
    \\  /    A nd           | Version:  8
     \\/     M anipulation  |
\*---------------------------------------------------------------------------*/
FoamFile
{
    version     2.0;
    format      ascii;
    class       volScalarField;
    location    "700/fluid";
    object      N2;
}
// * * * * * * * * * * * * * * * * * * * * * * * * * * * * * * * * * * * * * //

dimensions      [0 0 0 0 0 0 0];

internalField   nonuniform List<scalar> 
4000
(
2.30609e-06
1.00766e-05
2.31409e-05
4.50358e-05
8.15723e-05
0.000142204
0.000242127
0.000405424
0.00066961
0.00109193
0.00175759
0.00278951
0.00435844
0.00669025
0.0100662
0.0148105
0.0212625
0.0297344
0.0404649
0.0535834
0.0690953
0.0868904
0.106767
0.128459
0.151667
0.176078
0.201378
0.227271
0.253477
0.279742
0.305842
0.331579
0.356787
0.381327
0.405089
0.427987
0.449952
0.47094
0.490923
0.509889
0.527838
0.544782
0.560741
0.575742
0.589818
0.603004
0.615339
0.626864
0.637621
0.647651
0.656996
0.665697
0.673793
0.681322
0.688323
0.694829
0.700875
0.706418
0.711508
0.716375
0.720902
0.725115
0.728986
0.732701
0.736256
0.739654
0.742897
0.745984
0.748916
0.751689
0.754299
0.75674
0.759006
0.761076
0.762962
0.764638
0.766088
0.767295
0.768244
0.768939
0.769404
0.769687
0.769845
0.769926
0.769966
0.769985
0.769993
0.769997
0.769999
0.769999
0.77
0.77
0.77
0.77
0.77
0.77
0.77
0.77
0.77
0.77
2.31023e-06
1.00973e-05
2.31998e-05
4.51811e-05
8.18981e-05
0.000142875
0.000243402
0.00040765
0.00067314
0.00109686
0.00176317
0.0027931
0.00435397
0.00666624
0.0100035
0.0146813
0.0210313
0.029362
0.0399148
0.0528286
0.068123
0.0857043
0.105385
0.126913
0.149995
0.17432
0.199578
0.225467
0.251704
0.27803
0.304214
0.330053
0.355376
0.38004
0.403931
0.426957
0.449051
0.470163
0.490264
0.509341
0.527394
0.544433
0.560479
0.575558
0.589704
0.602953
0.615344
0.626919
0.637718
0.647785
0.657161
0.665888
0.674006
0.681554
0.688569
0.695087
0.701142
0.706689
0.711782
0.716653
0.721183
0.725394
0.729269
0.732993
0.736555
0.73996
0.743208
0.746301
0.749236
0.752011
0.75462
0.757059
0.759318
0.761378
0.763246
0.764898
0.766315
0.76748
0.768383
0.769032
0.769459
0.769716
0.769858
0.769932
0.769968
0.769986
0.769994
0.769997
0.769999
0.769999
0.77
0.77
0.77
0.77
0.77
0.77
0.77
0.77
0.77
0.77
2.31793e-06
1.01322e-05
2.32857e-05
4.53614e-05
8.22464e-05
0.000143507
0.00024448
0.000409371
0.000675674
0.0011002
0.00176678
0.00279525
0.00435032
0.00664819
0.00995712
0.0145862
0.0208605
0.0290833
0.0394941
0.0522348
0.0673328
0.0847053
0.104178
0.12551
0.148421
0.172608
0.197764
0.22359
0.249803
0.276142
0.302372
0.328286
0.353707
0.378487
0.402507
0.425672
0.447909
0.469167
0.489412
0.508629
0.526816
0.543982
0.560147
0.575337
0.589584
0.602924
0.615396
0.627042
0.637905
0.648027
0.657451
0.666219
0.674372
0.681949
0.688988
0.695524
0.701594
0.707144
0.712239
0.717109
0.721627
0.725834
0.729727
0.733464
0.737035
0.740445
0.743695
0.746786
0.749716
0.752482
0.755078
0.757497
0.759731
0.761761
0.76359
0.765193
0.766556
0.767664
0.768512
0.769114
0.769505
0.76974
0.76987
0.769937
0.769971
0.769987
0.769994
0.769997
0.769999
0.769999
0.77
0.77
0.77
0.77
0.77
0.77
0.77
0.77
0.77
0.77
2.31841e-06
1.01343e-05
2.32904e-05
4.53685e-05
8.22481e-05
0.000143468
0.000244292
0.00040876
0.000674024
0.00109625
0.00175816
0.00277785
0.00431768
0.00659077
0.00986122
0.0144337
0.0206292
0.028749
0.039033
0.0516268
0.0665638
0.0837689
0.103076
0.124253
0.147025
0.171095
0.196161
0.221927
0.248111
0.27445
0.300709
0.326678
0.352176
0.377054
0.401186
0.424476
0.446845
0.468238
0.488621
0.507974
0.526294
0.543587
0.559872
0.575177
0.58953
0.602966
0.615526
0.62725
0.638182
0.648365
0.657842
0.666655
0.674846
0.682454
0.689517
0.696074
0.702158
0.707703
0.712788
0.717655
0.722179
0.726381
0.730289
0.734032
0.737605
0.741013
0.744258
0.74734
0.750256
0.753003
0.755574
0.757964
0.760161
0.762155
0.763935
0.765486
0.766793
0.767844
0.768639
0.769195
0.769553
0.769765
0.769883
0.769943
0.769973
0.769988
0.769994
0.769998
0.769999
0.77
0.77
0.77
0.77
0.77
0.77
0.77
0.77
0.77
0.77
0.77
2.31221e-06
1.01067e-05
2.32251e-05
4.52353e-05
8.19902e-05
0.000142978
0.000243371
0.000407036
0.000670821
0.00109037
0.00174755
0.00275911
0.00428544
0.00653693
0.0097743
0.0142986
0.0204276
0.0284608
0.0386387
0.0511095
0.065912
0.0829776
0.102147
0.123195
0.145851
0.169824
0.194816
0.220531
0.246689
0.273029
0.299311
0.325327
0.350892
0.375852
0.400082
0.42348
0.445966
0.467481
0.487988
0.507465
0.525908
0.543321
0.55972
0.575128
0.589577
0.603102
0.615743
0.62754
0.638537
0.648777
0.658303
0.667158
0.675383
0.683018
0.690104
0.696677
0.702766
0.70829
0.71338
0.718259
0.722781
0.726944
0.730879
0.734625
0.738196
0.741599
0.744834
0.747901
0.750798
0.753521
0.756064
0.75842
0.760574
0.762526
0.764258
0.765757
0.767009
0.768006
0.768751
0.769266
0.769594
0.769787
0.769894
0.769949
0.769976
0.769989
0.769995
0.769998
0.769999
0.77
0.77
0.77
0.77
0.77
0.77
0.77
0.77
0.77
0.77
0.77
2.30061e-06
1.00554e-05
2.31045e-05
4.49926e-05
8.15316e-05
0.000142139
0.00024186
0.000404353
0.000666114
0.00108222
0.00173367
0.00273595
0.00424766
0.00647694
0.00968193
0.0141611
0.0202303
0.0281884
0.0382767
0.0506466
0.0653408
0.0822957
0.101357
0.122305
0.144873
0.168774
0.19371
0.21939
0.245533
0.271877
0.298185
0.324243
0.349868
0.374902
0.399217
0.422709
0.445296
0.466916
0.487529
0.507113
0.525662
0.54318
0.559678
0.575179
0.589715
0.60332
0.616033
0.627895
0.638949
0.649238
0.658805
0.667694
0.675946
0.683602
0.690701
0.697282
0.70338
0.708898
0.714003
0.718881
0.723396
0.727519
0.731453
0.735199
0.738766
0.74216
0.745383
0.748433
0.751309
0.754007
0.756521
0.758843
0.760956
0.762866
0.764552
0.766002
0.767204
0.768151
0.768851
0.76933
0.769631
0.769807
0.769904
0.769953
0.769978
0.76999
0.769995
0.769998
0.769999
0.77
0.77
0.77
0.77
0.77
0.77
0.77
0.77
0.77
0.77
0.77
2.28656e-06
9.99363e-06
2.29607e-05
4.47075e-05
8.10027e-05
0.00014119
0.000240194
0.000401469
0.000661187
0.00107392
0.0017199
0.0027135
0.00421184
0.00642115
0.00959747
0.0140372
0.0200549
0.0279488
0.0379619
0.0502477
0.0648532
0.0817189
0.100695
0.121564
0.144066
0.167912
0.192811
0.218468
0.244606
0.270962
0.297297
0.323397
0.349077
0.374177
0.398568
0.422145
0.444821
0.466536
0.487245
0.506925
0.525564
0.543166
0.559745
0.575324
0.589932
0.603604
0.616377
0.628293
0.639394
0.649722
0.659323
0.668238
0.67651
0.68418
0.691287
0.697869
0.703962
0.70943
0.714656
0.719502
0.723994
0.728083
0.732003
0.735739
0.739297
0.74268
0.745888
0.74892
0.751775
0.754447
0.756933
0.759224
0.761303
0.763176
0.764818
0.766221
0.767375
0.768277
0.768937
0.769384
0.769663
0.769824
0.769912
0.769958
0.76998
0.769991
0.769996
0.769998
0.769999
0.77
0.77
0.77
0.77
0.77
0.77
0.77
0.77
0.77
0.77
0.77
2.27168e-06
9.92832e-06
2.28094e-05
4.44088e-05
8.04519e-05
0.00014021
0.000238487
0.000398543
0.000656245
0.00106569
0.00170643
0.00269186
0.00417782
0.00636899
0.00951971
0.0139249
0.0198981
0.0277379
0.0376882
0.0499053
0.0644392
0.0812342
0.100144
0.120954
0.143406
0.167215
0.192088
0.217734
0.243875
0.270247
0.296611
0.322752
0.348483
0.373644
0.398102
0.42175
0.444501
0.466292
0.487083
0.506844
0.525561
0.543238
0.559889
0.575535
0.590204
0.603931
0.616754
0.628713
0.639851
0.650211
0.659837
0.668772
0.67706
0.68474
0.691854
0.698441
0.704511
0.709977
0.715208
0.720047
0.724527
0.728599
0.732509
0.736235
0.739781
0.743151
0.746343
0.749357
0.75219
0.754836
0.757291
0.759548
0.761589
0.763422
0.765031
0.766401
0.767519
0.768384
0.76901
0.76943
0.769689
0.769839
0.76992
0.769961
0.769982
0.769992
0.769996
0.769998
0.769999
0.77
0.77
0.77
0.77
0.77
0.77
0.77
0.77
0.77
0.77
0.77
2.25714e-06
9.86464e-06
2.26622e-05
4.41195e-05
7.99214e-05
0.000139271
0.000236863
0.000395782
0.00065162
0.00105807
0.00169406
0.00267218
0.00414718
0.00632245
0.00945099
0.0138265
0.0197621
0.0275563
0.0374546
0.0496154
0.0640917
0.0808307
0.0996889
0.120455
0.14287
0.166654
0.191513
0.217156
0.243305
0.269697
0.296091
0.322273
0.348052
0.373268
0.397788
0.421503
0.444324
0.466185
0.48704
0.506863
0.525644
0.543383
0.560091
0.575791
0.59051
0.604282
0.617143
0.629137
0.640303
0.650687
0.660331
0.66928
0.677576
0.685261
0.692374
0.698954
0.704997
0.710457
0.715681
0.720511
0.724981
0.729049
0.732955
0.736676
0.740214
0.743573
0.746751
0.749747
0.752559
0.755182
0.757608
0.759831
0.761834
0.763631
0.765204
0.766542
0.767637
0.768474
0.769072
0.769469
0.769712
0.769851
0.769926
0.769964
0.769983
0.769992
0.769996
0.769998
0.769999
0.77
0.77
0.77
0.77
0.77
0.77
0.77
0.77
0.77
0.77
0.77
2.24358e-06
9.80529e-06
2.25252e-05
4.3851e-05
7.94302e-05
0.000138405
0.000235371
0.000393257
0.000647413
0.00105117
0.00168295
0.00265462
0.00412003
0.00628153
0.00939102
0.0137414
0.0196452
0.0274016
0.0372571
0.0493724
0.0638027
0.0804978
0.0993167
0.120049
0.14244
0.166208
0.19106
0.216706
0.242868
0.269281
0.295705
0.321924
0.347746
0.37301
0.397581
0.42135
0.444229
0.46615
0.487064
0.506945
0.52578
0.54357
0.560327
0.576071
0.59083
0.604637
0.617529
0.629549
0.640737
0.651138
0.660796
0.669754
0.678055
0.685742
0.692855
0.699434
0.705462
0.710903
0.716113
0.720929
0.725383
0.72945
0.733352
0.737065
0.740594
0.743941
0.747104
0.750084
0.752877
0.755479
0.757882
0.76008
0.762074
0.763847
0.76539
0.766692
0.767742
0.768551
0.769126
0.769502
0.769731
0.769862
0.769931
0.769967
0.769984
0.769993
0.769997
0.769999
0.769999
0.77
0.77
0.77
0.77
0.77
0.77
0.77
0.77
0.77
0.77
0.77
2.23135e-06
9.75177e-06
2.24019e-05
4.36097e-05
7.89899e-05
0.000137631
0.000234042
0.000391016
0.000643694
0.0010451
0.00167322
0.00263932
0.00409651
0.00624628
0.00933967
0.0136689
0.0195463
0.0272715
0.0370922
0.0491707
0.0635646
0.0802257
0.0990149
0.119724
0.142098
0.165856
0.190707
0.21636
0.242537
0.268973
0.295426
0.32168
0.347543
0.372852
0.397472
0.421289
0.444215
0.466182
0.487144
0.507072
0.525952
0.543784
0.560579
0.576358
0.591148
0.604983
0.617899
0.629938
0.641143
0.651556
0.661222
0.670186
0.67849
0.686176
0.693286
0.699859
0.705871
0.7113
0.716501
0.721305
0.725744
0.729808
0.733705
0.737412
0.740932
0.744267
0.747417
0.750381
0.753155
0.755737
0.758121
0.760306
0.762278
0.764028
0.765545
0.766819
0.767842
0.768618
0.769171
0.769531
0.769748
0.76987
0.769936
0.769969
0.769985
0.769993
0.769997
0.769999
0.769999
0.77
0.77
0.77
0.77
0.77
0.77
0.77
0.77
0.77
0.77
0.77
2.22058e-06
9.70471e-06
2.22936e-05
4.3398e-05
7.86042e-05
0.000136954
0.000232883
0.000389067
0.000640471
0.00103986
0.00166484
0.00262621
0.00407645
0.00621635
0.00929629
0.013608
0.0194637
0.0271633
0.0369559
0.0490052
0.0633704
0.0800054
0.0987724
0.119464
0.141827
0.165581
0.190435
0.216098
0.24229
0.268747
0.295227
0.321512
0.34741
0.372757
0.397417
0.421276
0.444244
0.466254
0.487256
0.507223
0.526139
0.544006
0.560832
0.576639
0.591454
0.60531
0.618244
0.630298
0.641514
0.651935
0.661607
0.670573
0.678877
0.68656
0.693664
0.700227
0.706227
0.711649
0.716839
0.72163
0.726054
0.730119
0.73401
0.737709
0.741219
0.744541
0.747679
0.75063
0.753393
0.755964
0.758338
0.760504
0.762455
0.764183
0.765677
0.766927
0.767927
0.76868
0.769209
0.769554
0.769762
0.769878
0.76994
0.769971
0.769986
0.769994
0.769997
0.769999
0.769999
0.77
0.77
0.77
0.77
0.77
0.77
0.77
0.77
0.77
0.77
0.77
2.21131e-06
9.66419e-06
2.22004e-05
4.3216e-05
7.82732e-05
0.000136375
0.000231893
0.000387405
0.00063773
0.00103541
0.00165776
0.00261517
0.00405961
0.00619132
0.00926015
0.0135575
0.0193955
0.0270745
0.0368445
0.0488707
0.0632136
0.0798287
0.0985795
0.11926
0.141616
0.165369
0.190228
0.215901
0.242109
0.268587
0.295092
0.321406
0.347335
0.372716
0.397409
0.421303
0.444306
0.46635
0.487386
0.507384
0.52633
0.544224
0.561075
0.576904
0.591738
0.60561
0.618558
0.630623
0.641846
0.652273
0.661948
0.670914
0.679216
0.686894
0.69399
0.700548
0.706539
0.711951
0.717129
0.721908
0.726319
0.730385
0.734273
0.737966
0.74147
0.744788
0.747918
0.750861
0.753612
0.756169
0.758525
0.760673
0.762606
0.764314
0.765788
0.767017
0.767997
0.768731
0.769243
0.769574
0.769773
0.769884
0.769943
0.769972
0.769987
0.769994
0.769997
0.769999
0.769999
0.77
0.77
0.77
0.77
0.77
0.77
0.77
0.77
0.77
0.77
0.77
2.20349e-06
9.63001e-06
2.21218e-05
4.30628e-05
7.79948e-05
0.000135888
0.000231062
0.000386014
0.00063544
0.00103171
0.00165188
0.00260601
0.00404569
0.00617071
0.0092305
0.0135161
0.0193399
0.0270025
0.0367547
0.0487627
0.0630886
0.0796887
0.0984277
0.1191
0.141453
0.165208
0.190072
0.215756
0.241979
0.268475
0.295002
0.32134
0.347296
0.372705
0.397427
0.42135
0.444383
0.466456
0.487519
0.507543
0.526513
0.544429
0.5613
0.577146
0.591995
0.605879
0.618837
0.630909
0.642138
0.652568
0.662244
0.671209
0.679506
0.687181
0.694276
0.700829
0.706808
0.71221
0.71738
0.72215
0.726537
0.73061
0.734495
0.738184
0.741684
0.744996
0.748119
0.751052
0.753793
0.756338
0.758681
0.760814
0.762732
0.764424
0.765881
0.767092
0.768054
0.768772
0.769271
0.769591
0.769782
0.769889
0.769945
0.769974
0.769988
0.769994
0.769997
0.769999
0.769999
0.77
0.77
0.77
0.77
0.77
0.77
0.77
0.77
0.77
0.77
0.77
2.19703e-06
9.60179e-06
2.2057e-05
4.29364e-05
7.77654e-05
0.000135487
0.000230379
0.000384873
0.000633566
0.00102868
0.00164709
0.00259857
0.0040344
0.00615404
0.00920658
0.0134829
0.0192954
0.026945
0.0366833
0.0486773
0.0629902
0.0795793
0.09831
0.118977
0.141329
0.165086
0.189957
0.215651
0.241887
0.2684
0.294946
0.321305
0.347284
0.372715
0.397462
0.42141
0.444466
0.466562
0.487647
0.507692
0.526681
0.544614
0.5615
0.577359
0.59222
0.606113
0.619078
0.631156
0.642388
0.652819
0.662493
0.671456
0.679753
0.687427
0.694517
0.701065
0.707034
0.712428
0.717591
0.722353
0.726719
0.730797
0.73468
0.738366
0.741862
0.745168
0.748284
0.75121
0.753942
0.756477
0.758809
0.760931
0.762835
0.764514
0.765957
0.767154
0.768101
0.768806
0.769293
0.769605
0.76979
0.769893
0.769947
0.769975
0.769988
0.769995
0.769998
0.769999
0.77
0.77
0.77
0.77
0.77
0.77
0.77
0.77
0.77
0.77
0.77
0.77
2.19184e-06
9.57911e-06
2.20049e-05
4.28349e-05
7.75814e-05
0.000135166
0.000229833
0.000383961
0.000632069
0.00102627
0.00164327
0.00259266
0.00402546
0.00614085
0.00918772
0.0134568
0.0192605
0.0269001
0.0366277
0.0486111
0.0629143
0.0794953
0.0982203
0.118885
0.141236
0.164996
0.189873
0.215576
0.241823
0.26835
0.294912
0.321288
0.347285
0.372737
0.397503
0.42147
0.444546
0.46666
0.487763
0.507823
0.526827
0.544773
0.561671
0.577541
0.59241
0.60631
0.61928
0.63136
0.642593
0.653025
0.6627
0.671664
0.679959
0.687629
0.694715
0.701257
0.707218
0.712606
0.717761
0.722515
0.726864
0.730948
0.734828
0.738513
0.742005
0.745306
0.748417
0.751336
0.754062
0.756588
0.758912
0.761024
0.762919
0.764587
0.766018
0.767204
0.768139
0.768833
0.769311
0.769616
0.769796
0.769896
0.769949
0.769975
0.769988
0.769995
0.769998
0.769999
0.77
0.77
0.77
0.77
0.77
0.77
0.77
0.77
0.77
0.77
0.77
0.77
2.18782e-06
9.56155e-06
2.19646e-05
4.27564e-05
7.7439e-05
0.000134918
0.000229411
0.000383257
0.000630916
0.00102441
0.00164034
0.00258812
0.00401861
0.00613078
0.00917333
0.0134369
0.019234
0.0268661
0.0365858
0.0485614
0.0628575
0.0794328
0.0981538
0.118816
0.141169
0.164932
0.189814
0.215524
0.241781
0.268319
0.294894
0.321284
0.347295
0.372762
0.397543
0.421526
0.444616
0.466744
0.48786
0.507933
0.526949
0.544904
0.561811
0.577688
0.592562
0.606466
0.61944
0.631522
0.642758
0.653192
0.662867
0.67183
0.680122
0.687789
0.694871
0.701409
0.707366
0.712748
0.717898
0.722646
0.726978
0.731068
0.734946
0.738628
0.742116
0.745414
0.748521
0.751435
0.754155
0.756676
0.758992
0.761097
0.762984
0.764643
0.766066
0.767242
0.768169
0.768854
0.769325
0.769624
0.769801
0.769899
0.76995
0.769976
0.769989
0.769995
0.769998
0.769999
0.77
0.77
0.77
0.77
0.77
0.77
0.77
0.77
0.77
0.77
0.77
0.77
2.18488e-06
9.54874e-06
2.19352e-05
4.26992e-05
7.73353e-05
0.000134737
0.000229103
0.000382745
0.000630078
0.00102306
0.00163821
0.00258484
0.00401365
0.00612349
0.00916294
0.0134226
0.0192149
0.0268417
0.0365557
0.0485259
0.0628171
0.0793886
0.098107
0.118769
0.141122
0.164887
0.189773
0.215489
0.241754
0.2683
0.294884
0.321284
0.347307
0.372784
0.397577
0.42157
0.444672
0.46681
0.487935
0.508017
0.52704
0.545003
0.561916
0.577797
0.592676
0.606584
0.619561
0.631646
0.642884
0.653317
0.662992
0.671953
0.680244
0.687908
0.694988
0.701522
0.707476
0.712854
0.717999
0.722743
0.727065
0.731155
0.735032
0.738712
0.742198
0.745493
0.748597
0.751508
0.754224
0.75674
0.759051
0.761151
0.763032
0.764685
0.766101
0.76727
0.76819
0.768869
0.769335
0.76963
0.769804
0.769901
0.769951
0.769977
0.769989
0.769995
0.769998
0.769999
0.77
0.77
0.77
0.77
0.77
0.77
0.77
0.77
0.77
0.77
0.77
0.77
2.18298e-06
9.54041e-06
2.1916e-05
4.26619e-05
7.72679e-05
0.00013462
0.000228904
0.000382413
0.000629535
0.00102219
0.00163683
0.00258271
0.00401045
0.00611879
0.00915625
0.0134134
0.0192027
0.0268261
0.0365365
0.0485032
0.0627913
0.0793604
0.0980774
0.118739
0.141092
0.164859
0.189748
0.215468
0.241737
0.26829
0.29488
0.321287
0.347316
0.372801
0.397601
0.421601
0.44471
0.466854
0.487986
0.508074
0.527102
0.54507
0.561986
0.577872
0.592754
0.606665
0.619643
0.63173
0.642967
0.653401
0.663075
0.672035
0.680325
0.687987
0.695065
0.701598
0.707549
0.712924
0.718067
0.722808
0.727124
0.731212
0.735088
0.738767
0.742252
0.745546
0.748648
0.751556
0.754269
0.756782
0.75909
0.761186
0.763063
0.764712
0.766124
0.767289
0.768204
0.768879
0.769341
0.769634
0.769806
0.769902
0.769952
0.769977
0.769989
0.769995
0.769998
0.769999
0.77
0.77
0.77
0.77
0.77
0.77
0.77
0.77
0.77
0.77
0.77
0.77
2.18205e-06
9.53638e-06
2.19068e-05
4.2644e-05
7.72355e-05
0.000134563
0.000228809
0.000382255
0.000629276
0.00102178
0.00163618
0.00258171
0.00400894
0.00611658
0.0091531
0.0134091
0.0191969
0.0268187
0.0365275
0.0484925
0.0627792
0.0793471
0.0980634
0.118724
0.141079
0.164846
0.189737
0.215459
0.24173
0.268285
0.294878
0.321289
0.347322
0.37281
0.397613
0.421618
0.444729
0.466877
0.488012
0.508103
0.527134
0.545104
0.562023
0.57791
0.592793
0.606705
0.619684
0.631771
0.643009
0.653442
0.663116
0.672076
0.680365
0.688027
0.695103
0.701635
0.707585
0.712959
0.718101
0.722841
0.727152
0.73124
0.735115
0.738794
0.742279
0.745571
0.748672
0.75158
0.754291
0.756803
0.759109
0.761204
0.763078
0.764725
0.766135
0.767298
0.768211
0.768884
0.769344
0.769636
0.769807
0.769902
0.769952
0.769977
0.769989
0.769995
0.769998
0.769999
0.77
0.77
0.77
0.77
0.77
0.77
0.77
0.77
0.77
0.77
0.77
0.77
2.18206e-06
9.53643e-06
2.19069e-05
4.26443e-05
7.72359e-05
0.000134564
0.00022881
0.000382257
0.00062928
0.00102178
0.00163619
0.00258172
0.00400895
0.0061166
0.00915313
0.0134091
0.019197
0.0268188
0.0365276
0.0484926
0.0627793
0.0793473
0.0980636
0.118725
0.141079
0.164847
0.189737
0.215459
0.24173
0.268285
0.294879
0.321289
0.347322
0.37281
0.397614
0.421618
0.444729
0.466877
0.488012
0.508103
0.527134
0.545104
0.562023
0.57791
0.592793
0.606705
0.619684
0.631771
0.643009
0.653442
0.663116
0.672076
0.680365
0.688027
0.695103
0.701635
0.707585
0.712959
0.718101
0.722841
0.727152
0.73124
0.735115
0.738794
0.742279
0.745571
0.748672
0.75158
0.754291
0.756803
0.759109
0.761204
0.763078
0.764725
0.766135
0.767298
0.768211
0.768884
0.769344
0.769636
0.769807
0.769902
0.769952
0.769977
0.769989
0.769995
0.769998
0.769999
0.77
0.77
0.77
0.77
0.77
0.77
0.77
0.77
0.77
0.77
0.77
0.77
2.18301e-06
9.54057e-06
2.19164e-05
4.26627e-05
7.72692e-05
0.000134622
0.000228908
0.000382419
0.000629544
0.00102221
0.00163686
0.00258275
0.0040105
0.00611887
0.00915635
0.0134135
0.0192029
0.0268263
0.0365368
0.0485035
0.0627917
0.0793608
0.0980778
0.118739
0.141093
0.16486
0.189749
0.215469
0.241738
0.26829
0.29488
0.321287
0.347317
0.372801
0.397601
0.421602
0.44471
0.466855
0.487986
0.508074
0.527102
0.54507
0.561987
0.577872
0.592754
0.606665
0.619643
0.63173
0.642967
0.653401
0.663075
0.672035
0.680325
0.687988
0.695065
0.701598
0.707549
0.712924
0.718067
0.722808
0.727124
0.731212
0.735088
0.738767
0.742252
0.745546
0.748648
0.751556
0.754269
0.756782
0.75909
0.761186
0.763063
0.764712
0.766124
0.767289
0.768204
0.768879
0.769341
0.769634
0.769806
0.769902
0.769952
0.769977
0.769989
0.769995
0.769998
0.769999
0.77
0.77
0.77
0.77
0.77
0.77
0.77
0.77
0.77
0.77
0.77
0.77
2.18495e-06
9.54902e-06
2.19358e-05
4.27004e-05
7.73375e-05
0.000134741
0.00022911
0.000382755
0.000630094
0.00102309
0.00163825
0.0025849
0.00401374
0.00612362
0.00916312
0.0134228
0.0192152
0.0268421
0.0365562
0.0485265
0.0628178
0.0793893
0.0981078
0.11877
0.141123
0.164888
0.189774
0.21549
0.241755
0.268301
0.294885
0.321285
0.347308
0.372785
0.397578
0.421571
0.444672
0.46681
0.487936
0.508018
0.527041
0.545003
0.561916
0.577798
0.592676
0.606585
0.619561
0.631647
0.642884
0.653318
0.662992
0.671953
0.680244
0.687908
0.694988
0.701522
0.707476
0.712854
0.717999
0.722743
0.727065
0.731155
0.735032
0.738712
0.742198
0.745494
0.748597
0.751508
0.754224
0.75674
0.759051
0.761151
0.763032
0.764685
0.766101
0.76727
0.76819
0.768869
0.769335
0.76963
0.769804
0.769901
0.769951
0.769977
0.769989
0.769995
0.769998
0.769999
0.77
0.77
0.77
0.77
0.77
0.77
0.77
0.77
0.77
0.77
0.77
0.77
2.1879e-06
9.56193e-06
2.19654e-05
4.27581e-05
7.7442e-05
0.000134923
0.000229419
0.000383271
0.000630938
0.00102445
0.00164039
0.0025882
0.00401873
0.00613095
0.00917357
0.0134373
0.0192344
0.0268667
0.0365864
0.0485622
0.0628584
0.0794338
0.0981549
0.118818
0.14117
0.164933
0.189815
0.215525
0.241782
0.26832
0.294895
0.321285
0.347297
0.372763
0.397544
0.421527
0.444617
0.466745
0.487861
0.507934
0.526949
0.544905
0.561812
0.577688
0.592562
0.606467
0.61944
0.631522
0.642758
0.653192
0.662868
0.67183
0.680123
0.687789
0.694871
0.701409
0.707366
0.712748
0.717898
0.722646
0.726978
0.731068
0.734946
0.738628
0.742116
0.745414
0.748521
0.751435
0.754155
0.756676
0.758992
0.761097
0.762984
0.764643
0.766066
0.767242
0.768169
0.768854
0.769325
0.769624
0.769801
0.769899
0.76995
0.769976
0.769989
0.769995
0.769998
0.769999
0.77
0.77
0.77
0.77
0.77
0.77
0.77
0.77
0.77
0.77
0.77
0.77
2.19195e-06
9.57959e-06
2.2006e-05
4.2837e-05
7.75851e-05
0.000135172
0.000229843
0.000383978
0.000632097
0.00102631
0.00164334
0.00259276
0.00402561
0.00614107
0.00918802
0.0134572
0.019261
0.0269008
0.0366285
0.0486121
0.0629154
0.0794966
0.0982217
0.118886
0.141238
0.164998
0.189875
0.215578
0.241825
0.268352
0.294914
0.32129
0.347287
0.372738
0.397504
0.421472
0.444547
0.466661
0.487764
0.507824
0.526828
0.544774
0.561672
0.577542
0.59241
0.606311
0.61928
0.63136
0.642594
0.653025
0.6627
0.671664
0.679959
0.687629
0.694715
0.701258
0.707218
0.712606
0.717762
0.722515
0.726864
0.730948
0.734828
0.738513
0.742005
0.745306
0.748417
0.751337
0.754062
0.756588
0.758912
0.761024
0.762919
0.764587
0.766018
0.767204
0.768139
0.768833
0.769311
0.769616
0.769796
0.769896
0.769949
0.769975
0.769988
0.769995
0.769998
0.769999
0.77
0.77
0.77
0.77
0.77
0.77
0.77
0.77
0.77
0.77
0.77
0.77
2.19716e-06
9.60236e-06
2.20583e-05
4.29389e-05
7.77698e-05
0.000135495
0.000230392
0.000384893
0.000633599
0.00102873
0.00164716
0.00259869
0.00403458
0.00615429
0.00920694
0.0134834
0.019296
0.0269459
0.0366843
0.0486785
0.0629916
0.0795808
0.0983116
0.118979
0.141331
0.165088
0.189959
0.215653
0.241889
0.268402
0.294948
0.321307
0.347285
0.372717
0.397464
0.421411
0.444468
0.466563
0.487648
0.507693
0.526682
0.544615
0.561501
0.57736
0.59222
0.606114
0.619079
0.631156
0.642388
0.652819
0.662493
0.671456
0.679753
0.687427
0.694517
0.701065
0.707034
0.712428
0.717591
0.722353
0.726719
0.730797
0.73468
0.738366
0.741862
0.745167
0.748284
0.75121
0.753942
0.756477
0.758809
0.760931
0.762835
0.764514
0.765957
0.767154
0.768101
0.768806
0.769293
0.769605
0.76979
0.769893
0.769947
0.769975
0.769988
0.769995
0.769998
0.769999
0.77
0.77
0.77
0.77
0.77
0.77
0.77
0.77
0.77
0.77
0.77
0.77
2.20364e-06
9.63066e-06
2.21233e-05
4.30656e-05
7.79999e-05
0.000135897
0.000231076
0.000386038
0.000635478
0.00103177
0.00165197
0.00260615
0.0040459
0.00617101
0.00923091
0.0135167
0.0193406
0.0270035
0.0367559
0.0487641
0.0630902
0.0796905
0.0984297
0.119102
0.141456
0.16521
0.190074
0.215758
0.241981
0.268478
0.295005
0.321343
0.347299
0.372707
0.397429
0.421352
0.444385
0.466457
0.48752
0.507544
0.526515
0.54443
0.561301
0.577147
0.591996
0.60588
0.618838
0.63091
0.642139
0.652569
0.662244
0.671209
0.679507
0.687181
0.694276
0.700829
0.706808
0.712211
0.71738
0.72215
0.726537
0.73061
0.734494
0.738184
0.741684
0.744995
0.748119
0.751052
0.753793
0.756338
0.758681
0.760815
0.762732
0.764424
0.765881
0.767092
0.768054
0.768772
0.769271
0.769591
0.769782
0.769889
0.769945
0.769974
0.769988
0.769994
0.769997
0.769999
0.769999
0.77
0.77
0.77
0.77
0.77
0.77
0.77
0.77
0.77
0.77
0.77
2.21148e-06
9.66493e-06
2.22021e-05
4.32193e-05
7.8279e-05
0.000136385
0.000231909
0.000387432
0.000637773
0.00103548
0.00165787
0.00261532
0.00405984
0.00619166
0.00926062
0.0135581
0.0193963
0.0270756
0.0368459
0.0488722
0.0632155
0.0798308
0.0985817
0.119262
0.141619
0.165372
0.19023
0.215904
0.242112
0.26859
0.295095
0.321408
0.347337
0.372718
0.397411
0.421305
0.444308
0.466352
0.487387
0.507385
0.526332
0.544225
0.561076
0.576905
0.591739
0.605611
0.618559
0.630623
0.641847
0.652274
0.661948
0.670915
0.679216
0.686894
0.69399
0.700548
0.70654
0.711951
0.71713
0.721908
0.726319
0.730385
0.734273
0.737966
0.741469
0.744786
0.747918
0.750861
0.753613
0.756169
0.758525
0.760674
0.762606
0.764314
0.765788
0.767017
0.767997
0.768731
0.769243
0.769574
0.769773
0.769884
0.769943
0.769972
0.769987
0.769994
0.769997
0.769999
0.769999
0.77
0.77
0.77
0.77
0.77
0.77
0.77
0.77
0.77
0.77
0.77
2.22077e-06
9.70552e-06
2.22954e-05
4.34015e-05
7.86105e-05
0.000136965
0.000232901
0.000389096
0.000640518
0.00103993
0.00166496
0.00262638
0.0040767
0.00621672
0.0092968
0.0136087
0.0194646
0.0271645
0.0369574
0.0490069
0.0633725
0.0800077
0.0987749
0.119467
0.14183
0.165584
0.190438
0.216101
0.242293
0.26875
0.295231
0.321516
0.347414
0.372761
0.39742
0.421279
0.444247
0.466256
0.487258
0.507225
0.526141
0.544007
0.560834
0.576641
0.591455
0.605311
0.618245
0.630299
0.641515
0.651936
0.661608
0.670573
0.678877
0.686561
0.693664
0.700227
0.706227
0.711649
0.716839
0.72163
0.726054
0.730119
0.734011
0.73771
0.741221
0.744543
0.74768
0.750631
0.753395
0.755967
0.758339
0.760505
0.762455
0.764183
0.765677
0.766927
0.767927
0.76868
0.769209
0.769554
0.769762
0.769878
0.76994
0.769971
0.769986
0.769994
0.769997
0.769999
0.769999
0.77
0.77
0.77
0.77
0.77
0.77
0.77
0.77
0.77
0.77
0.77
2.23155e-06
9.75265e-06
2.24039e-05
4.36136e-05
7.89967e-05
0.000137643
0.000234062
0.000391047
0.000643745
0.00104518
0.00167334
0.00263951
0.00409679
0.00624668
0.00934024
0.0136697
0.0195474
0.0272728
0.0370938
0.0491727
0.0635669
0.0802283
0.0990177
0.119727
0.142101
0.165859
0.19071
0.216364
0.24254
0.268976
0.295429
0.321683
0.347545
0.372854
0.397473
0.421291
0.444217
0.466185
0.487146
0.507074
0.525954
0.543786
0.560581
0.57636
0.59115
0.604984
0.6179
0.629939
0.641144
0.651557
0.661223
0.670187
0.67849
0.686177
0.693287
0.699859
0.705871
0.711301
0.716501
0.721305
0.725745
0.729808
0.733705
0.737412
0.740931
0.744267
0.747416
0.750379
0.753153
0.755734
0.75812
0.760304
0.762277
0.764028
0.765545
0.766819
0.767843
0.768618
0.769171
0.769531
0.769748
0.76987
0.769936
0.769969
0.769985
0.769993
0.769997
0.769999
0.769999
0.77
0.77
0.77
0.77
0.77
0.77
0.77
0.77
0.77
0.77
0.77
2.2438e-06
9.80622e-06
2.25274e-05
4.38551e-05
7.94375e-05
0.000138418
0.000235392
0.000393291
0.000647468
0.00105126
0.00168308
0.00265482
0.00412033
0.00628196
0.00939163
0.0137422
0.0196463
0.027403
0.0372589
0.0493745
0.0638051
0.0805006
0.0993198
0.120053
0.142444
0.166211
0.191063
0.21671
0.242872
0.269285
0.29571
0.321928
0.347751
0.373015
0.397587
0.421356
0.444235
0.466154
0.487067
0.506947
0.525783
0.543573
0.560329
0.576073
0.590831
0.604638
0.617531
0.62955
0.640738
0.651139
0.660797
0.669755
0.678056
0.685743
0.692856
0.699434
0.705462
0.710903
0.716113
0.72093
0.725384
0.72945
0.733353
0.737067
0.740597
0.743944
0.747109
0.750089
0.752883
0.755484
0.757889
0.760089
0.762077
0.763848
0.765391
0.766692
0.767743
0.768552
0.769126
0.769502
0.769731
0.769862
0.769931
0.769967
0.769984
0.769993
0.769997
0.769999
0.769999
0.77
0.77
0.77
0.77
0.77
0.77
0.77
0.77
0.77
0.77
0.77
2.25737e-06
9.86563e-06
2.26644e-05
4.41238e-05
7.9929e-05
0.000139284
0.000236885
0.000395818
0.000651678
0.00105816
0.0016942
0.0026724
0.0041475
0.00632292
0.00945164
0.0138274
0.0197633
0.0275578
0.0374565
0.0496177
0.0640944
0.0808337
0.0996923
0.120458
0.142874
0.166658
0.191517
0.217161
0.24331
0.269702
0.296096
0.322277
0.348056
0.373271
0.39779
0.421503
0.444323
0.466185
0.487041
0.506865
0.525646
0.543385
0.560094
0.575793
0.590512
0.604283
0.617145
0.629138
0.640304
0.650688
0.660332
0.669281
0.677577
0.685261
0.692374
0.698954
0.704997
0.710457
0.715681
0.720511
0.724981
0.729049
0.732955
0.736674
0.740212
0.743569
0.746746
0.749742
0.752552
0.755173
0.757599
0.759823
0.761833
0.763631
0.765205
0.766543
0.767637
0.768474
0.769072
0.769469
0.769712
0.769851
0.769926
0.769964
0.769983
0.769992
0.769996
0.769998
0.769999
0.77
0.77
0.77
0.77
0.77
0.77
0.77
0.77
0.77
0.77
0.77
2.27192e-06
9.92935e-06
2.28117e-05
4.44132e-05
8.04599e-05
0.000140223
0.000238509
0.00039858
0.000656305
0.00106579
0.00170658
0.00269209
0.00417815
0.00636948
0.0095204
0.0139258
0.0198994
0.0277395
0.0376902
0.0499077
0.0644421
0.0812374
0.100148
0.120958
0.14341
0.167219
0.192093
0.217739
0.24388
0.270252
0.296616
0.322757
0.348488
0.373649
0.398107
0.421756
0.444508
0.4663
0.48709
0.506849
0.525565
0.543242
0.559892
0.575537
0.590207
0.603934
0.616756
0.628715
0.639853
0.650212
0.659838
0.668774
0.677061
0.684741
0.691855
0.698442
0.704512
0.709978
0.715208
0.720048
0.724528
0.7286
0.732509
0.736235
0.739782
0.743152
0.746345
0.749359
0.752192
0.754839
0.757296
0.759554
0.761596
0.763429
0.765035
0.766403