/*--------------------------------*- C++ -*----------------------------------*\
  =========                 |
  \\      /  F ield         | OpenFOAM: The Open Source CFD Toolbox
   \\    /   O peration     | Website:  https://openfoam.org
    \\  /    A nd           | Version:  8
     \\/     M anipulation  |
\*---------------------------------------------------------------------------*/
FoamFile
{
    version     2.0;
    format      ascii;
    class       volScalarField;
    location    "700/fluid";
    object      O2;
}
// * * * * * * * * * * * * * * * * * * * * * * * * * * * * * * * * * * * * * //

dimensions      [0 0 0 0 0 0 0];

internalField   nonuniform List<scalar> 
4000
(
4.56844e-10
1.99473e-09
4.57314e-09
8.87576e-09
1.60146e-08
2.77774e-08
4.69991e-08
7.80998e-08
1.27834e-07
2.06278e-07
3.28023e-07
5.1346e-07
7.89863e-07
1.19193e-06
1.76027e-06
2.53794e-06
3.56466e-06
4.86934e-06
6.4633e-06
8.33636e-06
1.04571e-05
1.27771e-05
1.52365e-05
1.77707e-05
2.0315e-05
2.2808e-05
2.51946e-05
2.7427e-05
2.94656e-05
3.128e-05
3.28506e-05
3.41717e-05
3.52583e-05
3.61554e-05
3.69518e-05
3.77937e-05
3.88977e-05
4.0561e-05
4.3172e-05
4.72266e-05
5.33574e-05
6.23779e-05
7.5342e-05
9.36209e-05
0.000119004
0.00015383
0.000201176
0.00026495
0.000350617
0.000465152
0.000617735
0.000820425
0.00108905
0.00144438
0.00191362
0.00253249
0.00334788
0.00440698
0.00578316
0.00764155
0.010087
0.0133126
0.0183618
0.0348126
0.0514666
0.0680647
0.0844056
0.100331
0.115713
0.130448
0.144448
0.157635
0.169933
0.181213
0.191516
0.200682
0.208612
0.215209
0.220402
0.224198
0.226739
0.228287
0.229151
0.229597
0.229814
0.229916
0.229963
0.229984
0.229993
0.229997
0.229999
0.229999
0.23
0.23
0.23
0.23
0.23
0.23
0.23
0.23
4.64291e-10
2.02868e-09
4.65682e-09
9.05297e-09
1.63644e-08
2.8437e-08
4.82029e-08
8.02317e-08
1.31496e-07
2.1237e-07
3.37801e-07
5.28477e-07
8.11447e-07
1.22282e-06
1.80339e-06
2.59657e-06
3.64262e-06
4.97134e-06
6.59528e-06
8.50557e-06
1.06719e-05
1.30464e-05
1.5569e-05
1.81743e-05
2.07958e-05
2.33703e-05
2.58405e-05
2.81561e-05
3.02755e-05
3.21665e-05
3.38077e-05
3.51926e-05
3.63358e-05
3.72836e-05
3.81276e-05
3.902e-05
4.01867e-05
4.19371e-05
4.46745e-05
4.8911e-05
5.52955e-05
6.4657e-05
7.80636e-05
9.68995e-05
0.000122967
0.000158583
0.000206679
0.000271642
0.000358623
0.000474624
0.000628841
0.000833344
0.00110397
0.00146148
0.00193311
0.00255462
0.00337298
0.00443505
0.00581481
0.00767928
0.0101335
0.0133716
0.0196905
0.0362463
0.0529829
0.069648
0.0860437
0.102013
0.117428
0.132185
0.146193
0.159371
0.17164
0.182862
0.193074
0.202104
0.209851
0.216222
0.22116
0.224707
0.227041
0.228445
0.229225
0.229628
0.229827
0.229921
0.229965
0.229984
0.229993
0.229997
0.229999
0.229999
0.23
0.23
0.23
0.23
0.23
0.23
0.23
0.23
4.74256e-10
2.07247e-09
4.75845e-09
9.25257e-09
1.67258e-08
2.90534e-08
4.92442e-08
8.19573e-08
1.34302e-07
2.1687e-07
3.45004e-07
5.40227e-07
8.3167e-07
1.25367e-06
1.84799e-06
2.65915e-06
3.72871e-06
5.08802e-06
6.75135e-06
8.71153e-06
1.09397e-05
1.33886e-05
1.59985e-05
1.87029e-05
2.14339e-05
2.41261e-05
2.67196e-05
2.91612e-05
3.14063e-05
3.34199e-05
3.51783e-05
3.6673e-05
3.79179e-05
3.89602e-05
3.98959e-05
4.08857e-05
4.21693e-05
4.40753e-05
4.703e-05
5.15714e-05
5.83745e-05
6.82937e-05
8.24193e-05
0.000102156
0.000129279
0.000166046
0.00021593
0.000282789
0.00037198
0.000490536
0.000647687
0.000855541
0.00112998
0.00149182
0.00196839
0.00259562
0.00342074
0.00448983
0.0058789
0.00775699
0.0102295
0.0134988
0.0220319
0.0386618
0.0554653
0.0721836
0.0886148
0.104599
0.120006
0.134729
0.148674
0.161756
0.173892
0.184961
0.194954
0.203723
0.211175
0.217232
0.221866
0.225154
0.227296
0.228577
0.229288
0.229657
0.229839
0.229926
0.229967
0.229985
0.229994
0.229997
0.229999
0.23
0.23
0.23
0.23
0.23
0.23
0.23
0.23
0.23
4.84699e-10
2.11825e-09
4.86497e-09
9.4657e-09
1.7131e-08
2.98176e-08
5.05847e-08
8.42159e-08
1.37992e-07
2.22725e-07
3.53996e-07
5.53479e-07
8.5002e-07
1.27997e-06
1.88608e-06
2.71423e-06
3.80772e-06
5.19999e-06
6.90751e-06
8.92517e-06
1.12256e-05
1.37624e-05
1.64756e-05
1.92977e-05
2.2159e-05
2.49917e-05
2.7733e-05
3.03269e-05
3.27255e-05
3.48908e-05
3.67964e-05
3.84315e-05
3.98091e-05
4.09781e-05
4.20396e-05
4.31654e-05
4.46124e-05
4.67333e-05
4.99837e-05
5.49343e-05
6.22952e-05
7.29572e-05
8.80364e-05
0.000108884
0.000137309
0.000176091
0.00022815
0.000297625
0.000389943
0.000512221
0.000673786
0.00088687
0.0011675
0.00153671
0.00202209
0.00265992
0.00349801
0.00458022
0.00598571
0.00788859
0.0103979
0.0137144
0.0249485
0.0415996
0.058428
0.0751624
0.091592
0.107551
0.122904
0.137542
0.151368
0.164295
0.176237
0.187117
0.196845
0.205325
0.212471
0.218217
0.22256
0.225601
0.227558
0.228718
0.229358
0.22969
0.229854
0.229933
0.22997
0.229987
0.229994
0.229997
0.229999
0.23
0.23
0.23
0.23
0.23
0.23
0.23
0.23
0.23
4.95523e-10
2.16585e-09
4.97512e-09
9.6807e-09
1.75165e-08
3.04661e-08
5.16676e-08
8.59995e-08
1.40887e-07
2.27355e-07
3.61301e-07
5.64851e-07
8.67504e-07
1.30653e-06
1.92593e-06
2.77315e-06
3.89349e-06
5.32267e-06
7.07952e-06
9.16112e-06
1.15418e-05
1.41759e-05
1.70034e-05
1.99559e-05
2.29619e-05
2.59513e-05
2.88583e-05
3.16237e-05
3.41965e-05
3.65353e-05
3.86106e-05
4.04096e-05
4.19444e-05
4.3266e-05
4.44826e-05
4.5779e-05
4.74332e-05
4.98264e-05
5.34483e-05
5.8906e-05
6.69466e-05
7.84892e-05
9.46161e-05
0.000116825
0.000147325
0.000188376
0.000243225
0.000316119
0.000412618
0.000540004
0.000707812
0.000928529
0.00121851
0.00159919
0.0020987
0.00275404
0.00361209
0.00471417
0.006151
0.00809867
0.0106628
0.0140308
0.0280171
0.0446432
0.0614729
0.0782062
0.0946165
0.110529
0.125807
0.140336
0.154022
0.166776
0.178494
0.189145
0.198611
0.206806
0.213653
0.219104
0.223174
0.22599
0.227783
0.228839
0.229418
0.229719
0.229868
0.229939
0.229972
0.229988
0.229995
0.229998
0.229999
0.23
0.23
0.23
0.23
0.23
0.23
0.23
0.23
0.23
5.04778e-10
2.20616e-09
5.06716e-09
9.85838e-09
1.78351e-08
3.10155e-08
5.25942e-08
8.75386e-08
1.43413e-07
2.31455e-07
3.67887e-07
5.75324e-07
8.83982e-07
1.33216e-06
1.96527e-06
2.83262e-06
3.98181e-06
5.45114e-06
7.26209e-06
9.41406e-06
1.18831e-05
1.46243e-05
1.75777e-05
2.06736e-05
2.38389e-05
2.70008e-05
3.00906e-05
3.30459e-05
3.58121e-05
3.83444e-05
4.06102e-05
4.25943e-05
4.43084e-05
4.58065e-05
4.72053e-05
4.87056e-05
5.06105e-05
5.33352e-05
5.74114e-05
6.34904e-05
7.23277e-05
8.48052e-05
0.00010222
0.000126378
0.00015905
0.000202823
0.00026107
0.000338201
0.000439988
0.000573987
0.000750083
0.000981209
0.00128428
0.00168143
0.0022016
0.00288275
0.00377368
0.0049139
0.00640078
0.00840268
0.0110225
0.0144134
0.0305648
0.0473218
0.0642481
0.0810335
0.0974505
0.113327
0.12853
0.142949
0.156492
0.169076
0.180576
0.191005
0.200221
0.208146
0.214715
0.219894
0.22372
0.226336
0.227985
0.228948
0.229474
0.229746
0.22988
0.229945
0.229975
0.229989
0.229995
0.229998
0.229999
0.23
0.23
0.23
0.23
0.23
0.23
0.23
0.23
0.23
5.13217e-10
2.24296e-09
5.15142e-09
1.00219e-08
1.81308e-08
3.15309e-08
5.34733e-08
8.90165e-08
1.45869e-07
2.35496e-07
3.7447e-07
5.85935e-07
9.00893e-07
1.35877e-06
2.00651e-06
2.89549e-06
4.07578e-06
5.5885e-06
7.45801e-06
9.68625e-06
1.22511e-05
1.51087e-05
1.81989e-05
2.14511e-05
2.47901e-05
2.81407e-05
3.14311e-05
3.45953e-05
3.75751e-05
4.0322e-05
4.28e-05
4.49914e-05
4.69076e-05
4.86062e-05
5.02145e-05
5.19515e-05
5.41468e-05
5.72489e-05
6.18279e-05
6.8552e-05
7.81945e-05
9.18745e-05
0.000111058
0.000137172
0.000172308
0.000219177
0.000281317
0.000363357
0.00047136
0.000613275
0.000799517
0.00104373
0.0013638
0.00178316
0.00233247
0.00305189
0.00399363
0.00518944
0.00680223
0.00891295
0.0116705
0.0151987
0.0321964
0.049434
0.0666269
0.0835454
0.100006
0.115863
0.130998
0.145311
0.158719
0.171147
0.18247
0.192699
0.201678
0.209345
0.215651
0.220583
0.22419
0.226632
0.228157
0.22904
0.229521
0.229769
0.229891
0.22995
0.229977
0.22999
0.229996
0.229998
0.229999
0.23
0.23
0.23
0.23
0.23
0.23
0.23
0.23
0.23
5.21255e-10
2.27804e-09
5.23195e-09
1.01787e-08
1.84154e-08
3.20293e-08
5.43281e-08
9.04623e-08
1.48289e-07
2.39508e-07
3.81061e-07
5.96656e-07
9.18137e-07
1.38615e-06
2.04933e-06
2.96126e-06
4.17474e-06
5.73397e-06
7.6664e-06
9.97675e-06
1.2645e-05
1.56283e-05
1.88666e-05
2.22884e-05
2.58165e-05
2.93733e-05
3.28835e-05
3.62777e-05
3.94937e-05
4.24789e-05
4.51937e-05
4.76177e-05
4.97619e-05
5.16888e-05
5.35382e-05
5.55524e-05
5.80962e-05
6.16414e-05
6.6753e-05
7.41579e-05
8.48288e-05
0.000100008
0.000120853
0.000149064
0.000186828
0.000236986
0.000303248
0.000390478
0.000505056
0.000655368
0.000852438
0.00111078
0.00144954
0.00189403
0.00247777
0.00324545
0.00425271
0.00554494
0.00730739
0.00964318
0.0127556
0.016851
0.0341379
0.0515814
0.0689007
0.0858783
0.102343
0.118157
0.133209
0.147406
0.160665
0.172912
0.184035
0.194049
0.202842
0.210331
0.216442
0.221169
0.224591
0.226884
0.228303
0.22912
0.229562
0.229788
0.2299
0.229954
0.229979
0.229991
0.229996
0.229998
0.229999
0.23
0.23
0.23
0.23
0.23
0.23
0.23
0.23
0.23
5.29126e-10
2.31244e-09
5.31102e-09
1.03331e-08
1.86966e-08
3.25236e-08
5.51798e-08
9.19103e-08
1.50726e-07
2.43574e-07
3.87783e-07
6.07659e-07
9.35941e-07
1.41457e-06
2.094e-06
3.03018e-06
4.27883e-06
5.88745e-06
7.88687e-06
1.02849e-05
1.30637e-05
1.6182e-05
1.95799e-05
2.3185e-05
2.69186e-05
3.07002e-05
3.44517e-05
3.80996e-05
4.15777e-05
4.48291e-05
4.78101e-05
5.04972e-05
5.29009e-05
5.50878e-05
5.7209e-05
5.95237e-05
6.24194e-05
6.63845e-05
7.20567e-05
8.04085e-05
9.23858e-05
0.000108966
0.000131558
0.000161933
0.000202369
0.000255816
0.000326133
0.000418369
0.000539148
0.000697171
0.000903872
0.0011743
0.0015283
0.00199207
0.00260027
0.00339895
0.00444334
0.00578861
0.00762331
0.0100535
0.01329
0.0186758
0.0361276
0.0536751
0.0710479
0.0880349
0.104471
0.120225
0.135189
0.14927
0.162386
0.174458
0.185375
0.195191
0.20379
0.211104
0.217086
0.221664
0.224931
0.227098
0.228427
0.229187
0.229596
0.229805
0.229908
0.229958
0.229981
0.229991
0.229996
0.229998
0.229999
0.23
0.23
0.23
0.23
0.23
0.23
0.23
0.23
0.23
5.36906e-10
2.34645e-09
5.3893e-09
1.04861e-08
1.8976e-08
3.30162e-08
5.60311e-08
9.33632e-08
1.53182e-07
2.47689e-07
3.94616e-07
6.18895e-07
9.54206e-07
1.44386e-06
2.14022e-06
3.10175e-06
4.38729e-06
6.04787e-06
8.11797e-06
1.06087e-05
1.35051e-05
1.67673e-05
2.03362e-05
2.41388e-05
2.80949e-05
3.21218e-05
3.61379e-05
4.00662e-05
4.38363e-05
4.73868e-05
5.06698e-05
5.36593e-05
5.63664e-05
5.88667e-05
6.13329e-05
6.40334e-05
6.7324e-05
7.18071e-05
7.83868e-05
8.77391e-05
0.000100845
0.000118869
0.000143253
0.000175821
0.000218916
0.000275579
0.000349772
0.000446672
0.000573059
0.00073781
0.000952564
0.00123259
0.00159797
0.00207509
0.00269876
0.00351494
0.00457504
0.00593276
0.00777574
0.0101991
0.0133934
0.0206128
0.0380996
0.0556604
0.0730238
0.0899796
0.106363
0.122043
0.136915
0.150889
0.163881
0.175821
0.186689
0.196377
0.20481
0.211922
0.217665
0.222085
0.225225
0.227281
0.228533
0.229244
0.229625
0.229819
0.229915
0.229961
0.229982
0.229992
0.229996
0.229998
0.229999
0.23
0.23
0.23
0.23
0.23
0.23
0.23
0.23
0.23
5.4459e-10
2.38006e-09
5.46672e-09
1.06377e-08
1.92532e-08
3.3506e-08
5.68801e-08
9.48164e-08
1.55646e-07
2.51832e-07
4.01522e-07
6.30291e-07
9.72796e-07
1.47377e-06
2.18757e-06
3.17531e-06
4.49909e-06
6.21372e-06
8.35761e-06
1.09456e-05
1.39657e-05
1.73803e-05
2.11311e-05
2.51453e-05
2.93415e-05
3.36348e-05
3.7941e-05
4.21793e-05
4.62751e-05
5.01624e-05
5.37886e-05
5.71235e-05
6.0177e-05
6.3028e-05
6.58591e-05
6.89351e-05
7.27383e-05
7.80499e-05
8.54705e-05
9.58673e-05
0.000110251
0.000129831
0.000156091
0.000190908
0.000236684
0.000296529
0.000374485
0.000475822
0.000607413
0.000778236
0.00100002
0.00128812
0.00166261
0.00214986
0.00278445
0.00361179
0.00468086
0.0060464
0.00789527
0.0103175
0.013502
0.0224614
0.0399453
0.0574903
0.0748246
0.0917341
0.108051
0.12365
0.138427
0.152295
0.165189
0.177059
0.18781
0.197368
0.205658
0.21262
0.218213
0.222452
0.22547
0.227437
0.228622
0.229292
0.22965
0.229831
0.229921
0.229963
0.229983
0.229993
0.229997
0.229999
0.229999
0.23
0.23
0.23
0.23
0.23
0.23
0.23
0.23
0.23
5.52111e-10
2.41297e-09
5.54258e-09
1.07864e-08
1.95255e-08
3.39881e-08
5.77175e-08
9.62534e-08
1.58089e-07
2.55952e-07
4.0841e-07
6.41694e-07
9.91454e-07
1.50389e-06
2.23539e-06
3.24982e-06
4.6127e-06
6.38278e-06
8.60272e-06
1.12914e-05
1.44403e-05
1.80145e-05
2.19573e-05
2.61963e-05
3.06497e-05
3.52311e-05
3.98539e-05
4.44343e-05
4.88938e-05
5.31622e-05
5.7183e-05
6.09237e-05
6.43969e-05
6.76882e-05
7.09373e-05
7.45041e-05
7.90691e-05
8.51445e-05
9.35082e-05
0.000105058
0.000120835
0.00014208
0.00017032
0.000207476
0.000256005
0.000319079
0.00040081
0.00050654
0.000643217
0.00081989
0.00104835
0.00134396
0.00172682
0.00222318
0.0028672
0.00370376
0.00478175
0.00615619
0.00801112
0.0104353
0.0136148
0.0240746
0.041563
0.0590895
0.0763797
0.0932233
0.109478
0.125016
0.139732
0.153543
0.166378
0.178145
0.188783
0.19822
0.206382
0.213212
0.218674
0.222791
0.225678
0.227566
0.228698
0.229332
0.22967
0.229842
0.229925
0.229966
0.229984
0.229993
0.229997
0.229999
0.229999
0.23
0.23
0.23
0.23
0.23
0.23
0.23
0.23
0.23
5.59363e-10
2.4447e-09
5.61579e-09
1.093e-08
1.97889e-08
3.44552e-08
5.85303e-08
9.76513e-08
1.60472e-07
2.59981e-07
4.15162e-07
6.52903e-07
1.00985e-06
1.53366e-06
2.28282e-06
3.32395e-06
4.7261e-06
6.55215e-06
8.8492e-06
1.16405e-05
1.49216e-05
1.86608e-05
2.28035e-05
2.72788e-05
3.20049e-05
3.6895e-05
4.18607e-05
4.68159e-05
5.16789e-05
5.63756e-05
6.08459e-05
6.50549e-05
6.90172e-05
7.28032e-05
7.66349e-05
8.09466e-05
8.62497e-05
9.32198e-05
0.000102661
0.000115497
0.000132797
0.000155836
0.00018618
0.000225797
0.000277197
0.000343613
0.000429222
0.000539435
0.000681271
0.000863842
0.00109899
0.00140212
0.00179322
0.00229808
0.00295106
0.00379797
0.00488567
0.00626798
0.00812899
0.0105546
0.0137278
0.0254625
0.0429627
0.06048
0.077745
0.0945735
0.110794
0.126282
0.140936
0.154669
0.167406
0.179076
0.189613
0.198942
0.206993
0.213709
0.219058
0.223069
0.225867
0.227672
0.228758
0.229366
0.229687
0.22985
0.229929
0.229967
0.229985
0.229993
0.229997
0.229999
0.229999
0.23
0.23
0.23
0.23
0.23
0.23
0.23
0.23
0.23
5.66208e-10
2.47466e-09
5.68493e-09
1.10658e-08
2.00381e-08
3.48978e-08
5.93021e-08
9.89812e-08
1.62744e-07
2.63831e-07
4.21632e-07
6.63671e-07
1.02757e-06
1.56243e-06
2.32879e-06
3.39605e-06
4.83679e-06
6.7181e-06
9.09174e-06
1.19857e-05
1.53999e-05
1.93064e-05
2.36538e-05
2.83732e-05
3.33843e-05
3.86004e-05
4.39329e-05
4.9294e-05
5.45996e-05
5.97728e-05
6.47501e-05
6.9495e-05
7.40148e-05
7.83654e-05
8.28876e-05
8.807e-05
9.43222e-05
0.00010237
0.000113053
0.000127327
0.000146294
0.000171266
0.00020385
0.000246063
0.000300473
0.000370371
0.00046
0.000574838
0.000721969
0.000910574
0.00115249
0.00146299
0.00186205
0.00237606
0.00303968
0.00389685
0.00499309
0.00638332
0.00825057
0.0106781
0.0138352
0.0266303
0.0441526
0.0616658
0.0789253
0.0957228
0.111902
0.12734
0.141935
0.155601
0.168264
0.179854
0.190307
0.199546
0.207503
0.214122
0.219375
0.223297
0.22602
0.227767
0.228808
0.229392
0.229701
0.229857
0.229933
0.229969
0.229986
0.229994
0.229997
0.229999
0.229999
0.23
0.23
0.23
0.23
0.23
0.23
0.23
0.23
0.23
5.72491e-10
2.50217e-09
5.74843e-09
1.11906e-08
2.02675e-08
3.53057e-08
6.00142e-08
1.00211e-07
1.64848e-07
2.67405e-07
4.27653e-07
6.73718e-07
1.04415e-06
1.58943e-06
2.37207e-06
3.46416e-06
4.94175e-06
6.87613e-06
9.32375e-06
1.23175e-05
1.58622e-05
1.99343e-05
2.44861e-05
2.94521e-05
3.47544e-05
4.03082e-05
4.6026e-05
5.18203e-05
5.76064e-05
6.33054e-05
6.88509e-05
7.42035e-05
7.93516e-05
8.45605e-05
9.00044e-05
9.6115e-05
0.000103434
0.000112698
0.000124767
0.00014062
0.000161389
0.000188424
0.000223378
0.000268319
0.000325869
0.000399383
0.000493167
0.000612752
0.000765242
0.000959744
0.00120812
0.0015259
0.00193358
0.00245721
0.00313017
0.00399675
0.0051011
0.00649846
0.00837081
0.0107989
0.0139395
0.0276076
0.0451529
0.0626708
0.0799121
0.0966808
0.112823
0.128216
0.14276
0.15637
0.168971
0.180495
0.190879
0.200044
0.207923
0.214461
0.219634
0.223482
0.226142
0.227843
0.228852
0.229414
0.229712
0.229862
0.229935
0.22997
0.229986
0.229994
0.229997
0.229999
0.229999
0.23
0.23
0.23
0.23
0.23
0.23
0.23
0.23
0.23
5.78047e-10
2.5265e-09
5.80463e-09
1.13011e-08
2.04708e-08
3.56676e-08
6.06471e-08
1.01305e-07
1.66725e-07
2.70599e-07
4.33046e-07
6.8274e-07
1.05908e-06
1.61381e-06
2.41127e-06
3.52607e-06
5.03754e-06
7.02097e-06
9.5374e-06
1.26247e-05
1.62926e-05
2.05225e-05
2.52714e-05
3.04778e-05
3.60677e-05
4.196e-05
4.80706e-05
5.43152e-05
6.06121e-05
6.68859e-05
7.30752e-05
7.91493e-05
8.51108e-05
9.11425e-05
9.76259e-05
0.000104883
0.000113455
0.000124101
0.0001377
0.000155259
0.000177945
0.000207152
0.000244581
0.000292356
0.000353148
0.000430356
0.000528309
0.000652516
0.000810176
0.00101058
0.00126599
0.00159181
0.00200763
0.00253932
0.00322044
0.00409471
0.00520508
0.00660646
0.00847994
0.0109048
0.0140315
0.028397
0.045964
0.0634869
0.0807164
0.0974619
0.113573
0.128928
0.143429
0.156993
0.169544
0.181014
0.191341
0.200446
0.208261
0.214734
0.219842
0.22363
0.22624
0.227902
0.228886
0.229433
0.229721
0.229866
0.229937
0.229971
0.229987
0.229994
0.229997
0.229999
0.23
0.23
0.23
0.23
0.23
0.23
0.23
0.23
0.23
0.23
5.82717e-10
2.54695e-09
5.85188e-09
1.1394e-08
2.06419e-08
3.59726e-08
6.11812e-08
1.0223e-07
1.68314e-07
2.73308e-07
4.3763e-07
6.90425e-07
1.07182e-06
1.63469e-06
2.44495e-06
3.57944e-06
5.12042e-06
7.1468e-06
9.72389e-06
1.28942e-05
1.66724e-05
2.10449e-05
2.59734e-05
3.14016e-05
3.72603e-05
4.34735e-05
4.9962e-05
5.66471e-05
6.34526e-05
7.03094e-05
7.71632e-05
8.399e-05
9.08726e-05
9.79759e-05
0.0001056
0.000114141
0.000124103
0.00013625
0.000151478
0.000170821
0.000195485
0.000226901
0.000266818
0.000317397
0.000381349
0.000462137
0.000564182
0.000693167
0.00085648
0.00106341
0.00132562
0.00165845
0.00208165
0.00262067
0.00330848
0.00418783
0.00530031
0.00669777
0.00855734
0.0109507
0.0140083
0.0290252
0.0466152
0.064139
0.0813571
0.0980823
0.114167
0.129491
0.143957
0.157483
0.169993
0.181421
0.191703
0.20076
0.208525
0.214947
0.220004
0.223745
0.226315
0.227948
0.228912
0.229447
0.229729
0.22987
0.229939
0.229972
0.229987
0.229994
0.229997
0.229999
0.23
0.23
0.23
0.23
0.23
0.23
0.23
0.23
0.23
0.23
5.86354e-10
2.56288e-09
5.88869e-09
1.14665e-08
2.07754e-08
3.62108e-08
6.15987e-08
1.02954e-07
1.69559e-07
2.75435e-07
4.41234e-07
6.96481e-07
1.08189e-06
1.65122e-06
2.47169e-06
3.62195e-06
5.18665e-06
7.24775e-06
9.87413e-06
1.31124e-05
1.69815e-05
2.14723e-05
2.65517e-05
3.21679e-05
3.82573e-05
4.47497e-05
5.15724e-05
5.86534e-05
6.59246e-05
7.33254e-05
8.08105e-05
8.83717e-05
9.61332e-05
0.000104263
0.000113166
0.000123107
0.000134538
0.000148222
0.000165074
0.000186159
0.000212721
0.000246245
0.000288531
0.000341814
0.0004089
0.000493392
0.000599767
0.00073375
0.000902465
0.00111522
0.00138388
0.0017237
0.00215425
0.00270073
0.00339569
0.00428122
0.00539783
0.00679622
0.00865219
0.0110356
0.0140717
0.0294791
0.0470972
0.0646281
0.0818399
0.0985499
0.114613
0.129913
0.144352
0.157848
0.170328
0.181723
0.19197
0.200992
0.208719
0.215103
0.220122
0.223829
0.22637
0.227981
0.228931
0.229457
0.229734
0.229872
0.22994
0.229972
0.229987
0.229994
0.229998
0.229999
0.23
0.23
0.23
0.23
0.23
0.23
0.23
0.23
0.23
0.23
5.88837e-10
2.57375e-09
5.91383e-09
1.1516e-08
2.08666e-08
3.63734e-08
6.18839e-08
1.03449e-07
1.7041e-07
2.7689e-07
4.43703e-07
7.00635e-07
1.08881e-06
1.66259e-06
2.49013e-06
3.65134e-06
5.23259e-06
7.318e-06
9.97907e-06
1.32654e-05
1.71992e-05
2.17751e-05
2.69635e-05
3.27171e-05
3.89769e-05
4.56781e-05
5.27543e-05
6.01414e-05
6.77808e-05
7.56246e-05
8.36465e-05
9.18687e-05
0.000100396
0.000109479
0.000119453
0.000130703
0.000143513
0.000158611
0.000176939
0.000199597
0.000227882
0.000263335
0.000307822
0.000363647
0.000433683
0.000521455
0.000631509
0.000769595
0.000943006
0.00116105
0.0014356
0.00178186
0.0022193
0.00277291
0.00347486
0.00436665
0.0054877
0.00688743
0.00873961
0.0111105
0.0141177
0.0297756
0.0474225
0.0649625
0.082171
0.0988702
0.114918
0.130199
0.144618
0.158094
0.170551
0.181924
0.192148
0.201145
0.208847
0.215205
0.2202
0.223883
0.226405
0.228003
0.228943
0.229464
0.229737
0.229874
0.229941
0.229973
0.229988
0.229994
0.229998
0.229999
0.23
0.23
0.23
0.23
0.23
0.23
0.23
0.23
0.23
0.23
5.9008e-10
2.57918e-09
5.92635e-09
1.15406e-08
2.09118e-08
3.64538e-08
6.20243e-08
1.03692e-07
1.70828e-07
2.77602e-07
4.44909e-07
7.0266e-07
1.09218e-06
1.66814e-06
2.49913e-06
3.66571e-06
5.2551e-06
7.35253e-06
1.00309e-05
1.33413e-05
1.73078e-05
2.19268e-05
2.71711e-05
3.29958e-05
3.93447e-05
4.61562e-05
5.33681e-05
6.09211e-05
6.87629e-05
7.68537e-05
8.5177e-05
9.37649e-05
0.000102745
0.000112378
0.00012306
0.000135226
0.000149253
0.000165458
0.000184842
0.000208575
0.000238006
0.00027472
0.000320623
0.000378052
0.0004499
0.000539791
0.000652295
0.000793198
0.000969842
0.00119157
0.00147028
0.00182116
0.00226364
0.0028226
0.00352997
0.00442681
0.00555166
0.00695279
0.00880193
0.0111615
0.0141419
0.0299217
0.0475929
0.0651404
0.082347
0.0990391
0.115077
0.130347
0.144755
0.158218
0.170663
0.182024
0.192235
0.20122
0.208909
0.215254
0.220236
0.223909
0.226422
0.228013
0.228949
0.229467
0.229739
0.229875
0.229941
0.229973
0.229988
0.229995
0.229998
0.229999
0.23
0.23
0.23
0.23
0.23
0.23
0.23
0.23
0.23
0.23
5.90082e-10
2.5792e-09
5.92638e-09
1.15406e-08
2.09119e-08
3.6454e-08
6.20246e-08
1.03692e-07
1.70828e-07
2.77603e-07
4.44911e-07
7.02663e-07
1.09219e-06
1.66815e-06
2.49914e-06
3.66572e-06
5.25512e-06
7.35256e-06
1.00309e-05
1.33413e-05
1.73078e-05
2.19268e-05
2.71711e-05
3.29958e-05
3.93446e-05
4.6156e-05
5.33678e-05
6.09206e-05
6.87622e-05
7.68528e-05
8.51757e-05
9.3763e-05
0.000102743
0.000112375
0.000123056
0.000135222
0.000149251
0.000165456
0.00018484
0.000208575
0.000238006
0.00027472
0.000320624
0.000378052
0.000449901
0.000539792
0.000652296
0.000793199
0.000969844
0.00119157
0.00147028
0.00182116
0.00226365
0.00282261
0.00352998
0.00442681
0.00555166
0.0069528
0.00880193
0.0111615
0.0141419
0.0299218
0.0475929
0.0651405
0.082347
0.0990392
0.115077
0.130347
0.144755
0.158218
0.170663
0.182024
0.192235
0.20122
0.208909
0.215254
0.220236
0.223909
0.226422
0.228013
0.228949
0.229467
0.229739
0.229875
0.229941
0.229973
0.229988
0.229995
0.229998
0.229999
0.23
0.23
0.23
0.23
0.23
0.23
0.23
0.23
0.23
0.23
5.88845e-10
2.57379e-09
5.91391e-09
1.15161e-08
2.08669e-08
3.6374e-08
6.18847e-08
1.0345e-07
1.70413e-07
2.76894e-07
4.4371e-07
7.00644e-07
1.08882e-06
1.66262e-06
2.49016e-06
3.65138e-06
5.23264e-06
7.31806e-06
9.97915e-06
1.32655e-05
1.71993e-05
2.17752e-05
2.69635e-05
3.27171e-05
3.89769e-05
4.56779e-05
5.2754e-05
6.01408e-05
6.778e-05
7.56236e-05
8.36449e-05
9.18643e-05
0.000100388
0.000109468
0.000119438
0.00013069
0.000143503
0.000158605
0.000176935
0.000199595
0.000227881
0.000263334
0.000307822
0.000363647
0.000433684
0.000521458
0.000631513
0.000769599
0.000943011
0.00116105
0.00143561
0.00178187
0.00221931
0.00277292
0.00347487
0.00436666
0.00548772
0.00688745
0.00873962
0.0111105
0.0141177
0.0297757
0.0474226
0.0649626
0.0821711
0.0988703
0.114918
0.130199
0.144619
0.158094
0.170551
0.181924
0.192148
0.201145
0.208847
0.215205
0.2202
0.223883
0.226405
0.228003
0.228943
0.229464
0.229737
0.229874
0.229941
0.229973
0.229988
0.229994
0.229998
0.229999
0.23
0.23
0.23
0.23
0.23
0.23
0.23
0.23
0.23
0.23
5.86366e-10
2.56293e-09
5.88881e-09
1.14667e-08
2.07758e-08
3.62115e-08
6.15999e-08
1.02956e-07
1.69562e-07
2.7544e-07
4.41241e-07
6.96492e-07
1.08191e-06
1.65124e-06
2.47171e-06
3.62198e-06
5.18669e-06
7.24779e-06
9.87416e-06
1.31124e-05
1.69814e-05
2.14722e-05
2.65515e-05
3.21675e-05
3.82567e-05
4.47487e-05
5.15708e-05
5.86509e-05
6.59207e-05
7.33195e-05
8.08024e-05
8.83632e-05
9.61247e-05
0.000104255
0.000113163
0.000123105
0.000134536
0.000148219
0.000165071
0.000186156
0.000212719
0.000246243
0.00028853
0.000341813
0.000408901
0.000493396
0.000599772
0.000733757
0.000902473
0.00111523
0.00138389
0.00172371
0.00215426
0.00270075
0.00339571
0.00428124
0.00539785
0.00679625
0.00865221
0.0110356
0.0140717
0.0294794
0.0470974
0.0646283
0.08184
0.0985501
0.114613
0.129913
0.144352
0.157848
0.170328
0.181723
0.19197
0.200992
0.208719
0.215103
0.220122
0.223829
0.22637
0.227981
0.228931
0.229457
0.229734
0.229872
0.22994
0.229972
0.229987
0.229994
0.229998
0.229999
0.23
0.23
0.23
0.23
0.23
0.23
0.23
0.23
0.23
0.23
5.82733e-10
2.54702e-09
5.85204e-09
1.13943e-08
2.06425e-08
3.59736e-08
6.11828e-08
1.02233e-07
1.68318e-07
2.73315e-07
4.3764e-07
6.9044e-07
1.07185e-06
1.63472e-06
2.44499e-06
3.5795e-06
5.12049e-06
7.14688e-06
9.72398e-06
1.28943e-05
1.66725e-05
2.1045e-05
2.59736e-05
3.14018e-05
3.72605e-05
4.34738e-05
4.99625e-05
5.66476e-05
6.34531e-05
7.03094e-05
7.71619e-05
8.39858e-05
9.08608e-05
9.79498e-05
0.000105594
0.000114142
0.000124107
0.000136255
0.000151484
0.000170827
0.000195491
0.000226908
0.000266824
0.000317403
0.000381353
0.000462141
0.000564186
0.000693173
0.000856488
0.00106342
0.00132563
0.00165847
0.00208166
0.00262069
0.0033085
0.00418786
0.00530033
0.0066978
0.00855737
0.0109507
0.0140083
0.0290255
0.0466155
0.0641392
0.0813573
0.0980825
0.114167
0.129491
0.143957
0.157483
0.169993
0.181421
0.191703
0.20076
0.208525
0.214946
0.220004
0.223745
0.226315
0.227948
0.228912
0.229447
0.229729
0.22987
0.229939
0.229972
0.229987
0.229994
0.229997
0.229999
0.23
0.23
0.23
0.23
0.23
0.23
0.23
0.23
0.23
0.23
5.78067e-10
2.52658e-09
5.80482e-09
1.13014e-08
2.04714e-08
3.56688e-08
6.06491e-08
1.01308e-07
1.6673e-07
2.70607e-07
4.33059e-07
6.82759e-07
1.05911e-06
1.61385e-06
2.41133e-06
3.52615e-06
5.03764e-06
7.02109e-06
9.53756e-06
1.26249e-05
1.62929e-05
2.05229e-05
2.52719e-05
3.04785e-05
3.60688e-05
4.19617e-05
4.8073e-05
5.43187e-05
6.06172e-05
6.68934e-05
7.30861e-05
7.91657e-05
8.51356e-05
9.1183e-05
9.76501e-05
0.000104899
0.000113466
0.00012411
0.000137708
0.000155266
0.000177952
0.000207159
0.000244589
0.000292365
0.000353158
0.000430366
0.000528319
0.000652525
0.000810185
0.00101059
0.001266
0.00159182
0.00200765
0.00253934
0.00322046
0.00409474
0.0052051
0.00660649
0.00847997
0.0109048
0.0140315
0.0283974
0.0459643
0.0634872
0.0807167
0.0974621
0.113573
0.128928
0.14343
0.156993
0.169544
0.181014
0.191341
0.200446
0.208261
0.214734
0.219842
0.22363
0.22624
0.227902
0.228886
0.229433
0.229721
0.229866
0.229937
0.229971
0.229987
0.229994
0.229997
0.229999
0.23
0.23
0.23
0.23
0.23
0.23
0.23
0.23
0.23
0.23
5.72514e-10
2.50227e-09
5.74866e-09
1.1191e-08
2.02683e-08
3.53071e-08
6.00166e-08
1.00215e-07
1.64854e-07
2.67415e-07
4.27669e-07
6.73742e-07
1.04418e-06
1.58948e-06
2.37214e-06
3.46426e-06
4.94189e-06
6.8763e-06
9.32397e-06
1.23178e-05
1.58625e-05
1.99347e-05
2.44868e-05
2.9453e-05
3.47556e-05
4.031e-05
4.60286e-05
5.18239e-05
5.76115e-05
6.33127e-05
6.88611e-05
7.42176e-05
7.93686e-05
8.45814e-05
9.0021e-05
9.61279e-05
0.000103444
0.000112706
0.000124774
0.000140626
0.000161395
0.000188431
0.000223385
0.000268327
0.000325878
0.000399393
0.000493178
0.000612766
0.000765256
0.000959757
0.00120814
0.00152592
0.0019336
0.00245723
0.0031302
0.00399678
0.00510113
0.00649848
0.00837083
0.0107989
0.0139395
0.027608
0.0451532
0.0626709
0.0799121
0.0966808
0.112823
0.128216
0.14276
0.15637
0.168971
0.180495
0.190879
0.200044
0.207923
0.214461
0.219634
0.223482
0.226142
0.227843
0.228852
0.229414
0.229712
0.229862
0.229935
0.22997
0.229986
0.229994
0.229997
0.229999
0.229999
0.23
0.23
0.23
0.23
0.23
0.23
0.23
0.23
0.23
5.66235e-10
2.47478e-09
5.68519e-09
1.10663e-08
2.0039e-08
3.48994e-08
5.93047e-08
9.89856e-08
1.62751e-07
2.63842e-07
4.2165e-07
6.63698e-07
1.02761e-06
1.56249e-06
2.32887e-06
3.39617e-06
4.83695e-06
6.71831e-06
9.092e-06
1.1986e-05
1.54003e-05
1.93069e-05
2.36544e-05
2.8374e-05
3.33853e-05
3.86017e-05
4.39346e-05
4.92962e-05
5.46024e-05
5.97762e-05
6.47536e-05
6.94979e-05
7.40182e-05
7.83681e-05
8.28929e-05
8.8076e-05
9.43281e-05
0.000102375
0.000113058
0.000127332
0.0001463
0.000171271
0.000203856
0.00024607
0.00030048
0.00037038
0.000460011
0.00057485
0.000721983
0.000910591
0.00115251
0.001463
0.00186206
0.00237608
0.0030397
0.00389687
0.00499311
0.00638332
0.00825055
0.010678
0.0138351
0.0266306
0.0441524
0.0616651
0.0789242
0.0957215
0.111902
0.12734
0.141935
0.155601
0.168264
0.179854
0.190307
0.199547
0.207503
0.214122
0.219375
0.223297
0.22602
0.227767
0.228808
0.229392
0.229701
0.229857
0.229933
0.229969
0.229986
0.229994
0.229997
0.229999
0.229999
0.23
0.23
0.23
0.23
0.23
0.23
0.23
0.23
0.23
5.59392e-10
2.44483e-09
5.61607e-09
1.09306e-08
1.97898e-08
3.44569e-08
5.85332e-08
9.7656e-08
1.60479e-07
2.59993e-07
4.15181e-07
6.52932e-07
1.00989e-06
1.53373e-06
2.28291e-06
3.32408e-06
4.72628e-06
6.55238e-06
8.84949e-06
1.16409e-05
1.49221e-05
1.86613e-05
2.28041e-05
2.72795e-05
3.20058e-05
3.6896e-05
4.18619e-05
4.68174e-05
5.16806e-05
5.63777e-05
6.08487e-05
6.5059e-05
6.90243e-05
7.281e-05
7.66394e-05
8.09505e-05
8.62534e-05
9.32235e-05
0.000102665
0.000115501
0.000132801
0.000155841
0.000186186
0.000225803
0.000277204
0.000343621
0.000429232
0.000539447
0.000681285
0.000863858
0.00109901
0.00140214
0.00179324
0.0022981
0.00295109
0.003798
0.0048857
0.00626801
0.008129
0.0105546
0.0137277
0.0254629
0.0429624
0.0604783
0.0777409
0.0945643
0.110791
0.126282
0.140937
0.154671
0.167408
0.179077
0.189614
0.198943
0.206994
0.213709
0.219058
0.223069
0.225867
0.227672
0.228758
0.229366
0.229687
0.22985
0.229929
0.229967
0.229985
0.229993
0.229997
0.229999
0.229999
0.23
0.23
0.23
0.23
0.23
0.23
0.23
0.23
0.23
5.52142e-10
2.4131e-09
5.54289e-09
1.0787e-08
1.95265e-08
3.39899e-08
5.77205e-08
9.62584e-08
1.58097e-07
2.55965e-07
4.0843e-07
6.41725e-07
9.91501e-07
1.50396e-06
2.23549e-06
3.24996e-06
4.61288e-06
6.38303e-06
8.60303e-06
1.12918e-05
1.44407e-05
1.8015e-05
2.19579e-05
2.6197e-05
3.06505e-05
3.5232e-05
3.98549e-05
4.44353e-05
4.88948e-05
5.3163e-05
5.71832e-05
6.09226e-05
6.43926e-05
6.76813e-05
7.09338e-05
7.45045e-05
7.90708e-05
8.51467e-05
9.35107e-05
0.000105061
0.000120838
0.000142084
0.000170325
0.000207481