/*--------------------------------*- C++ -*----------------------------------*\
  =========                 |
  \\      /  F ield         | OpenFOAM: The Open Source CFD Toolbox
   \\    /   O peration     | Website:  https://openfoam.org
    \\  /    A nd           | Version:  8
     \\/     M anipulation  |
\*---------------------------------------------------------------------------*/
FoamFile
{
    version     2.0;
    format      ascii;
    class       surfaceScalarField;
    location    "700/fluid";
    object      phi;
}
// * * * * * * * * * * * * * * * * * * * * * * * * * * * * * * * * * * * * * //

dimensions      [1 0 -1 0 0 0 0];

internalField   nonuniform List<scalar> 
7860
(
6.57268e-07
-1.77601e-08
6.54594e-07
-5.32795e-08
6.50789e-07
-8.86207e-08
6.45741e-07
-1.23682e-07
6.39319e-07
-1.58463e-07
6.31359e-07
-1.92921e-07
6.21678e-07
-2.26971e-07
6.10075e-07
-2.60493e-07
5.96348e-07
-2.9332e-07
5.80301e-07
-3.25231e-07
5.61764e-07
-3.55938e-07
5.40615e-07
-3.85076e-07
5.16827e-07
-4.12188e-07
4.9057e-07
-4.36731e-07
4.62123e-07
-4.58067e-07
4.31851e-07
-4.75532e-07
4.00219e-07
-4.8857e-07
3.67771e-07
-4.96882e-07
3.35066e-07
-5.00555e-07
3.02613e-07
-5.0007e-07
2.70819e-07
-4.9621e-07
2.39971e-07
-4.89884e-07
2.10248e-07
-4.81949e-07
1.81782e-07
-4.73103e-07
1.54621e-07
-4.63831e-07
1.28731e-07
-4.54434e-07
1.04041e-07
-4.45076e-07
8.04771e-08
-4.35824e-07
5.79672e-08
-4.26691e-07
3.6449e-08
-4.17659e-07
1.58699e-08
-4.08699e-07
-3.81275e-09
-3.99786e-07
-2.26271e-08
-3.90899e-07
-4.06007e-08
-3.82029e-07
-5.7765e-08
-3.73179e-07
-7.41435e-08
-3.64338e-07
-8.97557e-08
-3.55467e-07
-1.0462e-07
-3.46579e-07
-1.18756e-07
-3.37692e-07
-1.32181e-07
-3.28829e-07
-1.44913e-07
-3.20013e-07
-1.56971e-07
-3.1127e-07
-1.68373e-07
-3.02626e-07
-1.79139e-07
-2.94108e-07
-1.89288e-07
-2.85743e-07
-1.9884e-07
-2.77557e-07
-2.07815e-07
-2.69577e-07
-2.16233e-07
-2.61828e-07
-2.24114e-07
-2.54338e-07
-2.31479e-07
-2.47131e-07
-2.3835e-07
-2.40233e-07
-2.44748e-07
-2.33673e-07
-2.50697e-07
-2.27479e-07
-2.56222e-07
-2.21685e-07
-2.61352e-07
-2.16328e-07
-2.6612e-07
-2.11452e-07
-2.70569e-07
-2.07111e-07
-2.74753e-07
-2.03399e-07
-2.78728e-07
-2.00386e-07
-2.8257e-07
-1.98132e-07
-2.86407e-07
-1.96879e-07
-2.90675e-07
-1.96802e-07
-2.95654e-07
-1.98997e-07
-3.02539e-07
-2.10118e-07
-3.10474e-07
-2.22553e-07
-3.19265e-07
-2.36276e-07
-3.28963e-07
-2.51469e-07
-3.39688e-07
-2.68371e-07
-3.51599e-07
-2.87256e-07
-3.64913e-07
-3.08451e-07
-3.79926e-07
-3.32352e-07
-3.97031e-07
-3.59424e-07
-4.16757e-07
-3.90205e-07
-4.39791e-07
-4.25419e-07
-4.66996e-07
-4.65723e-07
-4.99346e-07
-5.11136e-07
-5.3774e-07
-5.60586e-07
-5.82463e-07
-6.1114e-07
-6.33274e-07
-6.57308e-07
-6.88979e-07
-6.91985e-07
-7.47222e-07
-7.09553e-07
-8.05073e-07
-7.08943e-07
-8.6002e-07
-6.93398e-07
-9.10508e-07
-6.67593e-07
-9.55877e-07
-6.35551e-07
-9.95944e-07
-5.99874e-07
-1.03059e-06
-5.61999e-07
-1.06016e-06
-5.22614e-07
-1.0852e-06
-4.82154e-07
-1.10625e-06
-4.40951e-07
-1.12378e-06
-3.99257e-07
-1.13827e-06
-3.57265e-07
-1.15011e-06
-3.15126e-07
-1.15966e-06
-2.72948e-07
-1.16725e-06
-2.30805e-07
-1.17316e-06
-1.88737e-07
-1.17762e-06
-1.46752e-07
-1.18082e-06
-1.04829e-07
-1.18292e-06
-6.29089e-08
-2.09775e-08
6.57909e-07
-1.71358e-08
6.55779e-07
-5.11493e-08
6.52066e-07
-8.4907e-08
6.46767e-07
-1.18383e-07
6.39816e-07
-1.51512e-07
6.31113e-07
-1.84218e-07
6.20545e-07
-2.16403e-07
6.07996e-07
-2.47944e-07
5.93361e-07
-2.78686e-07
5.76561e-07
-3.0843e-07
5.57549e-07
-3.36925e-07
5.36326e-07
-3.63852e-07
5.12958e-07
-3.88819e-07
4.87606e-07
-4.11377e-07
4.60498e-07
-4.30957e-07
4.31927e-07
-4.46958e-07
4.02259e-07
-4.58897e-07
3.7191e-07
-4.66527e-07
3.41304e-07
-4.69941e-07
3.10826e-07
-4.69583e-07
2.80787e-07
-4.66163e-07
2.51411e-07
-4.60499e-07
2.22841e-07
-4.5337e-07
1.95174e-07
-4.45427e-07
1.68463e-07
-4.37112e-07
1.4272e-07
-4.28683e-07
1.17932e-07
-4.20281e-07
9.40819e-08
-4.11967e-07
7.11464e-08
-4.03749e-07
4.91038e-08
-3.9561e-07
2.79332e-08
-3.87524e-07
7.61464e-09
-3.79463e-07
-1.18708e-08
-3.71409e-07
-3.05402e-08
-3.63355e-07
-4.84114e-08
-3.55303e-07
-6.54988e-08
-3.47247e-07
-8.18161e-08
-3.39146e-07
-9.73785e-08
-3.31012e-07
-1.12202e-07
-3.22865e-07
-1.26303e-07
-3.14724e-07
-1.39699e-07
-3.06613e-07
-1.52408e-07
-2.98557e-07
-1.64451e-07
-2.9058e-07
-1.75846e-07
-2.82709e-07
-1.86615e-07
-2.7497e-07
-1.9678e-07
-2.67389e-07
-2.06361e-07
-2.59992e-07
-2.15383e-07
-2.52803e-07
-2.23869e-07
-2.45849e-07
-2.31845e-07
-2.39153e-07
-2.39335e-07
-2.3274e-07
-2.46369e-07
-2.26637e-07
-2.52977e-07
-2.20869e-07
-2.59195e-07
-2.15465e-07
-2.65063e-07
-2.10458e-07
-2.7063e-07
-2.05883e-07
-2.75957e-07
-2.01783e-07
-2.8112e-07
-1.98235e-07
-2.8622e-07
-1.95283e-07
-2.91402e-07
-1.92949e-07
-2.96892e-07
-1.91387e-07
-3.02971e-07
-1.9072e-07
-3.08789e-07
-1.93224e-07
-3.15837e-07
-2.03075e-07
-3.24116e-07
-2.14279e-07
-3.33525e-07
-2.26872e-07
-3.44055e-07
-2.40945e-07
-3.55779e-07
-2.56652e-07
-3.68831e-07
-2.74209e-07
-3.83392e-07
-2.93895e-07
-3.99698e-07
-3.16052e-07
-4.1804e-07
-3.41088e-07
-4.38762e-07
-3.69488e-07
-4.62246e-07
-4.0194e-07
-4.88967e-07
-4.39007e-07
-5.19458e-07
-4.80648e-07
-5.54236e-07
-5.25811e-07
-5.93626e-07
-5.7175e-07
-6.37713e-07
-6.13221e-07
-6.8592e-07
-6.43777e-07
-7.36704e-07
-6.58768e-07
-7.87922e-07
-6.57723e-07
-8.37618e-07
-6.43701e-07
-8.84473e-07
-6.20737e-07
-9.27841e-07
-5.92182e-07
-9.67463e-07
-5.60252e-07
-1.00318e-06
-5.2628e-07
-1.03499e-06
-4.90807e-07
-1.06299e-06
-4.54156e-07
-1.08735e-06
-4.16587e-07
-1.1083e-06
-3.78306e-07
-1.12609e-06
-3.39476e-07
-1.14099e-06
-3.0023e-07
-1.15326e-06
-2.60678e-07
-1.16316e-06
-2.20905e-07
-1.17092e-06
-1.80976e-07
-1.17674e-06
-1.40933e-07
-1.18077e-06
-1.00799e-07
-1.18309e-06
-6.05851e-08
-2.02468e-08
6.57612e-07
-1.62138e-08
6.54944e-07
-4.84819e-08
6.50543e-07
-8.05056e-08
6.44373e-07
-1.12213e-07
6.36392e-07
-1.43532e-07
6.26553e-07
-1.74379e-07
6.14809e-07
-2.04658e-07
6.01121e-07
-2.34256e-07
5.85472e-07
-2.63037e-07
5.67869e-07
-2.90827e-07
5.48352e-07
-3.17408e-07
5.27e-07
-3.42499e-07
5.03921e-07
-3.6574e-07
4.79233e-07
-3.86688e-07
4.53112e-07
-4.04834e-07
4.25821e-07
-4.19664e-07
3.9768e-07
-4.30752e-07
3.69043e-07
-4.37886e-07
3.40259e-07
-4.41151e-07
3.11634e-07
-4.40952e-07
2.83411e-07
-4.37934e-07
2.5576e-07
-4.32842e-07
2.28783e-07
-4.26386e-07
2.0251e-07
-4.19148e-07
1.76947e-07
-4.11542e-07
1.52103e-07
-4.03832e-07
1.27986e-07
-3.96158e-07
1.04601e-07
-3.88577e-07
8.19535e-08
-3.81096e-07
6.0045e-08
-3.73697e-07
3.88763e-08
-3.66351e-07
1.84463e-08
-3.59029e-07
-1.24737e-09
-3.51712e-07
-2.02098e-08
-3.44389e-07
-3.84472e-08
-3.37063e-07
-5.59647e-08
-3.29726e-07
-7.27678e-08
-3.22339e-07
-8.88651e-08
-3.14912e-07
-1.04267e-07
-3.0746e-07
-1.18984e-07
-3.00003e-07
-1.33032e-07
-2.92562e-07
-1.46424e-07
-2.85161e-07
-1.59178e-07
-2.77823e-07
-1.71312e-07
-2.70571e-07
-1.82848e-07
-2.63431e-07
-1.93806e-07
-2.56428e-07
-2.04209e-07
-2.49585e-07
-2.14083e-07
-2.42926e-07
-2.23455e-07
-2.36474e-07
-2.32354e-07
-2.30251e-07
-2.40813e-07
-2.24279e-07
-2.48866e-07
-2.18581e-07
-2.56555e-07
-2.13178e-07
-2.63924e-07
-2.08094e-07
-2.71025e-07
-2.03355e-07
-2.7792e-07
-1.98986e-07
-2.8468e-07
-1.9502e-07
-2.91389e-07
-1.91524e-07
-2.98151e-07
-1.8852e-07
-3.05087e-07
-1.86012e-07
-3.12335e-07
-1.84138e-07
-3.20055e-07
-1.82995e-07
-3.26842e-07
-1.86468e-07
-3.34638e-07
-1.95283e-07
-3.43512e-07
-2.05409e-07
-3.53488e-07
-2.16901e-07
-3.64611e-07
-2.29826e-07
-3.76956e-07
-2.4431e-07
-3.90627e-07
-2.60543e-07
-4.05747e-07
-2.78779e-07
-4.22461e-07
-2.99341e-07
-4.40929e-07
-3.22622e-07
-4.61305e-07
-3.49114e-07
-4.83739e-07
-3.79507e-07
-5.0846e-07
-4.14286e-07
-5.358e-07
-4.53307e-07
-5.66267e-07
-4.95341e-07
-6.00653e-07
-5.3736e-07
-6.39525e-07
-5.74343e-07
-6.82669e-07
-6.00628e-07
-7.28811e-07
-6.12622e-07
-7.76024e-07
-6.10507e-07
-8.22485e-07
-5.97239e-07
-8.66898e-07
-5.76323e-07
-9.08541e-07
-5.50538e-07
-9.4711e-07
-5.21683e-07
-9.82606e-07
-4.90784e-07
-1.015e-06
-4.58415e-07
-1.04425e-06
-4.24905e-07
-1.07037e-06
-3.90466e-07
-1.09343e-06
-3.55249e-07
-1.11353e-06
-3.19379e-07
-1.13079e-06
-2.82965e-07
-1.14537e-06
-2.46099e-07
-1.15741e-06
-2.08866e-07
-1.16705e-06
-1.71332e-07
-1.17443e-06
-1.33557e-07
-1.17964e-06
-9.5588e-08
-1.18276e-06
-5.74593e-08
-1.91895e-08
6.5763e-07
-1.53104e-08
6.54897e-07
-4.57483e-08
6.50328e-07
-7.59364e-08
6.4392e-07
-1.05805e-07
6.35664e-07
-1.35276e-07
6.25549e-07
-1.64264e-07
6.13566e-07
-1.92675e-07
5.99712e-07
-2.20402e-07
5.83995e-07
-2.47319e-07
5.66435e-07
-2.73267e-07
5.47074e-07
-2.98047e-07
5.25979e-07
-3.21405e-07
5.03253e-07
-3.43013e-07
4.7904e-07
-3.62474e-07
4.53537e-07
-3.79329e-07
4.26991e-07
-3.93116e-07
3.99691e-07
-4.0345e-07
3.71945e-07
-4.10136e-07
3.44051e-07
-4.13253e-07
3.16272e-07
-4.13169e-07
2.88818e-07
-4.10476e-07
2.61842e-07
-4.0586e-07
2.35438e-07
-3.99978e-07
2.09663e-07
-3.93368e-07
1.84542e-07
-3.86416e-07
1.60084e-07
-3.7937e-07
1.3629e-07
-3.7236e-07
1.13161e-07
-3.65443e-07
9.06934e-08
-3.58625e-07
6.88874e-08
-3.51888e-07
4.77426e-08
-3.45203e-07
2.72591e-08
-3.38543e-07
7.43655e-09
-3.31886e-07
-1.17262e-08
-3.25224e-07
-3.02323e-08
-3.18554e-07
-4.80832e-08
-3.11872e-07
-6.52808e-08
-3.05139e-07
-8.18296e-08
-2.9836e-07
-9.77362e-08
-2.91551e-07
-1.1301e-07
-2.84727e-07
-1.2766e-07
-2.77909e-07
-1.41702e-07
-2.71118e-07
-1.55149e-07
-2.64374e-07
-1.68019e-07
-2.577e-07
-1.80331e-07
-2.51118e-07
-1.92105e-07
-2.44652e-07
-2.03365e-07
-2.38323e-07
-2.14138e-07
-2.32151e-07
-2.24452e-07
-2.26158e-07
-2.34337e-07
-2.20364e-07
-2.43828e-07
-2.14786e-07
-2.52962e-07
-2.09445e-07
-2.61782e-07
-2.04357e-07
-2.70333e-07
-1.99541e-07
-2.78669e-07
-1.95017e-07
-2.86848e-07
-1.90806e-07
-2.94936e-07
-1.86931e-07
-3.03005e-07
-1.83455e-07
-3.11143e-07
-1.80381e-07
-3.19439e-07
-1.77715e-07
-3.27992e-07
-1.75584e-07
-3.36889e-07
-1.74095e-07
-3.44657e-07
-1.78715e-07
-3.53277e-07
-1.86665e-07
-3.62817e-07
-1.95872e-07
-3.73336e-07
-2.06384e-07
-3.84905e-07
-2.18259e-07
-3.97602e-07
-2.31614e-07
-4.11516e-07
-2.4663e-07
-4.26744e-07
-2.63551e-07
-4.43397e-07
-2.82688e-07
-4.61596e-07
-3.04421e-07
-4.81459e-07
-3.2925e-07
-5.03138e-07
-3.57824e-07
-5.26908e-07
-3.9051e-07
-5.53167e-07
-4.27041e-07
-5.82459e-07
-4.66039e-07
-6.15401e-07
-5.04408e-07
-6.52374e-07
-5.37361e-07
-6.93086e-07
-5.59908e-07
-7.36398e-07
-5.69304e-07
-7.80698e-07
-5.66202e-07
-8.24488e-07
-5.53447e-07
-8.66682e-07
-5.34128e-07
-9.06617e-07
-5.10603e-07
-9.43934e-07
-4.84366e-07
-9.7847e-07
-4.56247e-07
-1.01017e-06
-4.26712e-07
-1.03904e-06
-3.96037e-07
-1.0651e-06
-3.64405e-07
-1.0884e-06
-3.31953e-07
-1.10898e-06
-2.98795e-07
-1.12692e-06
-2.65029e-07
-1.14227e-06
-2.30744e-07
-1.15512e-06
-1.96018e-07
-1.16553e-06
-1.60924e-07
-1.17356e-06
-1.25525e-07
-1.17927e-06
-8.98815e-08
-1.18268e-06
-5.40443e-08
-1.80518e-08
6.57567e-07
-1.43441e-08
6.54695e-07
-4.28755e-08
6.49928e-07
-7.11699e-08
6.43273e-07
-9.91504e-08
6.34736e-07
-1.26739e-07
6.24325e-07
-1.53853e-07
6.12053e-07
-1.80403e-07
5.9794e-07
-2.0629e-07
5.82019e-07
-2.31397e-07
5.64334e-07
-2.55582e-07
5.44951e-07
-2.78664e-07
5.23958e-07
-3.00411e-07
5.01473e-07
-3.20528e-07
4.77648e-07
-3.38649e-07
4.52675e-07
-3.54356e-07
4.26783e-07
-3.67223e-07
4.00231e-07
-3.76896e-07
3.7329e-07
-3.83194e-07
3.46223e-07
-3.86183e-07
3.19257e-07
-3.86201e-07
2.92574e-07
-3.8379e-07
2.66303e-07
-3.79586e-07
2.40529e-07
-3.74201e-07
2.153e-07
-3.68135e-07
1.90641e-07
-3.61755e-07
1.66564e-07
-3.5529e-07
1.43074e-07
-3.48867e-07
1.20172e-07
-3.42539e-07
9.78596e-08
-3.36311e-07
7.6138e-08
-3.30164e-07
5.50092e-08
-3.24072e-07
3.44752e-08
-3.18007e-07
1.45377e-08
-3.11947e-07
-4.80282e-09
-3.05882e-07
-2.35467e-08
-2.99809e-07
-4.16948e-08
-2.93723e-07
-5.9247e-08
-2.87585e-07
-7.62056e-08
-2.814e-07
-9.25753e-08
-2.75179e-07
-1.08363e-07
-2.68938e-07
-1.23577e-07
-2.62693e-07
-1.38229e-07
-2.56463e-07
-1.52333e-07
-2.50267e-07
-1.65904e-07
-2.44127e-07
-1.78959e-07
-2.38061e-07
-1.91519e-07
-2.3209e-07
-2.03606e-07
-2.26233e-07
-2.15246e-07
-2.2051e-07
-2.26465e-07
-2.14937e-07
-2.37294e-07
-2.09534e-07
-2.47765e-07
-2.04314e-07
-2.57913e-07
-1.99295e-07
-2.67776e-07
-1.94492e-07
-2.77397e-07
-1.89919e-07
-2.86821e-07
-1.85592e-07
-2.96098e-07
-1.81528e-07
-3.05282e-07
-1.77746e-07
-3.14428e-07
-1.74308e-07
-3.23609e-07
-1.712e-07
-3.32892e-07
-1.6843e-07
-3.42358e-07
-1.66118e-07
-3.52074e-07
-1.64376e-07
-3.60845e-07
-1.69947e-07
-3.70282e-07
-1.77229e-07
-3.80468e-07
-1.85687e-07
-3.91497e-07
-1.95356e-07
-4.03456e-07
-2.063e-07
-4.1643e-07
-2.18638e-07
-4.30507e-07
-2.32552e-07
-4.45776e-07
-2.48279e-07
-4.62335e-07
-2.66126e-07
-4.80289e-07
-2.86461e-07
-4.99735e-07
-3.09797e-07
-5.20821e-07
-3.36729e-07
-5.43806e-07
-3.67514e-07
-5.69061e-07
-4.01773e-07
-5.97089e-07
-4.37996e-07
-6.28445e-07
-4.73037e-07
-6.63456e-07
-5.02336e-07
-7.01837e-07
-5.21516e-07
-7.42574e-07
-5.28558e-07
-7.84284e-07
-5.24488e-07
-8.25695e-07
-5.12033e-07
-8.65885e-07
-4.93937e-07
-9.04269e-07
-4.72219e-07
-9.40503e-07
-4.48131e-07
-9.74383e-07
-4.22367e-07
-1.00579e-06
-3.9531e-07
-1.03464e-06
-3.67184e-07
-1.0609e-06
-3.3814e-07
-1.08457e-06
-3.08288e-07
-1.10564e-06
-2.77725e-07
-1.12413e-06
-2.46536e-07
-1.14007e-06
-2.148e-07
-1.1535e-06
-1.82593e-07
-1.16444e-06
-1.49985e-07
-1.17292e-06
-1.17043e-07
-1.17897e-06
-8.38311e-08
-1.1826e-06
-5.04097e-08
-1.68345e-08
6.57564e-07
-1.33747e-08
6.54663e-07
-3.99745e-08
6.49844e-07
-6.635e-08
6.4312e-07
-9.24271e-08
6.34511e-07
-1.1813e-07
6.24037e-07
-1.43378e-07
6.11724e-07
-1.6809e-07
5.97605e-07
-1.92171e-07
5.81723e-07
-2.15515e-07
5.64131e-07
-2.3799e-07
5.44899e-07
-2.59432e-07
5.24117e-07
-2.79629e-07
5.01901e-07
-2.98312e-07
4.78399e-07
-3.15146e-07
4.53794e-07
-3.29751e-07
4.28306e-07
-3.41734e-07
4.02181e-07
-3.50771e-07
3.75677e-07
-3.56689e-07
3.49044e-07
-3.59549e-07
3.22499e-07
-3.59655e-07
2.96216e-07
-3.57505e-07
2.70318e-07
-3.53687e-07
2.44885e-07
-3.48766e-07
2.19963e-07
-3.43212e-07
1.95575e-07
-3.37364e-07
1.71727e-07
-3.31441e-07
1.48423e-07
-3.25562e-07
1.25662e-07
-3.19776e-07
1.03441e-07
-3.14088e-07
8.1761e-08
-3.08483e-07
6.06223e-08
-3.02932e-07
4.00264e-08
-2.9741e-07
1.99748e-08
-2.91894e-07
4.68205e-10
-2.86374e-07
-1.84943e-08
-2.80845e-07
-3.6912e-08
-2.75304e-07
-5.47841e-08
-2.69713e-07
-7.21118e-08
-2.64071e-07
-8.88986e-08
-2.58391e-07
-1.0515e-07
-2.52686e-07
-1.20873e-07
-2.46969e-07
-1.36077e-07
-2.41258e-07
-1.50774e-07
-2.3557e-07
-1.64977e-07
-2.29923e-07
-1.78703e-07
-2.24334e-07
-1.9197e-07
-2.18822e-07
-2.04799e-07
-2.13404e-07
-2.17212e-07
-2.08096e-07
-2.29235e-07
-2.02914e-07
-2.40893e-07
-1.97875e-07
-2.52215e-07
-1.92991e-07
-2.63232e-07
-1.88277e-07
-2.73978e-07
-1.83746e-07
-2.84485e-07
-1.79412e-07
-2.94789e-07
-1.75287e-07
-3.04928e-07
-1.71389e-07
-3.1494e-07
-1.67733e-07
-3.24862e-07
-1.64385e-07
-3.3476e-07
-1.61301e-07
-3.44659e-07
-1.58532e-07
-3.54634e-07
-1.56142e-07
-3.64765e-07
-1.54243e-07
-3.74541e-07
-1.60171e-07
-3.8472e-07
-1.67049e-07
-3.9548e-07
-1.74926e-07
-4.06955e-07
-1.83879e-07
-4.19249e-07
-1.94002e-07
-4.32456e-07
-2.05428e-07
-4.46665e-07
-2.18338e-07
-4.61968e-07
-2.32971e-07
-4.78461e-07
-2.49625e-07
-4.96253e-07
-2.6866e-07
-5.15452e-07
-2.90586e-07
-5.36236e-07
-3.15931e-07
-5.58885e-07
-3.44849e-07
-5.8379e-07
-3.7685e-07
-6.11448e-07
-4.10318e-07
-6.42353e-07
-4.42113e-07
-6.76707e-07
-4.67966e-07
-7.14099e-07
-4.8411e-07
-7.53494e-07
-4.89155e-07
-7.93607e-07
-4.84369e-07
-8.33323e-07
-4.72315e-07
-8.71853e-07
-4.55404e-07
-9.08707e-07
-4.35364e-07
-9.43592e-07
-4.13245e-07
-9.76334e-07
-3.89625e-07
-1.00682e-06
-3.64822e-07
-1.03498e-06
-3.39026e-07
-1.06076e-06
-3.12363e-07
-1.08412e-06
-2.84929e-07
-1.10503e-06
-2.56807e-07
-1.1235e-06
-2.28073e-07
-1.1395e-06
-1.988e-07
-1.15304e-06
-1.69056e-07
-1.16411e-06
-1.3891e-07
-1.17273e-06
-1.08427e-07
-1.17888e-06
-7.76726e-08
-1.18258e-06
-4.67092e-08
-1.5598e-08
6.57554e-07
-1.23954e-08
6.54631e-07
-3.70512e-08
6.4978e-07
-6.14991e-08
6.4302e-07
-8.56674e-08
6.34375e-07
-1.09484e-07
6.23871e-07
-1.32875e-07
6.11544e-07
-1.55762e-07
5.97432e-07
-1.7806e-07
5.81587e-07
-1.9967e-07
5.6407e-07
-2.20472e-07
5.44955e-07
-2.40317e-07
5.24338e-07
-2.59013e-07
5.02337e-07
-2.76311e-07
4.79098e-07
-2.91908e-07
4.548e-07
-3.05453e-07
4.29653e-07
-3.16588e-07
4.03892e-07
-3.25009e-07
3.77759e-07
-3.30557e-07
3.5149e-07
-3.3328e-07
3.25292e-07
-3.33456e-07
2.99329e-07
-3.31542e-07
2.73719e-07
-3.28078e-07
2.48542e-07
-3.23589e-07
2.2384e-07
-3.1851e-07
1.99636e-07
-3.1316e-07
1.75938e-07
-3.07743e-07
1.52747e-07
-3.0237e-07
1.3006e-07
-2.97088e-07
1.07875e-07
-2.91903e-07
8.61901e-08
-2.86798e-07
6.5006e-08
-2.81748e-07
4.43227e-08
-2.76726e-07
2.41413e-08
-2.71713e-07
4.46245e-09
-2.66695e-07
-1.47137e-08
-2.61669e-07
-3.33876e-08
-2.5663e-07
-5.1558e-08
-2.51542e-07
-6.92251e-08
-2.46403e-07
-8.63913e-08
-2.41224e-07
-1.03061e-07
-2.36015e-07
-1.19239e-07
-2.3079e-07
-1.34934e-07
-2.25562e-07
-1.50156e-07
-2.20348e-07
-1.64917e-07
-2.15161e-07
-1.79231e-07
-2.1002e-07
-1.93114e-07
-2.04938e-07
-2.06585e-07
-1.99933e-07
-2.19662e-07
-1.95018e-07
-2.32367e-07
-1.90208e-07
-2.44725e-07
-1.85517e-07
-2.56759e-07
-1.80957e-07
-2.68496e-07
-1.7654e-07
-2.79962e-07
-1.72279e-07
-2.91186e-07
-1.68187e-07
-3.02196e-07
-1.64278e-07
-3.13018e-07
-1.60566e-07
-3.23676e-07
-1.57075e-07
-3.34192e-07
-1.53869e-07
-3.44604e-07
-1.50889e-07
-3.54905e-07
-1.4823e-07
-3.65104e-07
-1.45942e-07
-3.75196e-07
-1.44138e-07
-3.85563e-07
-1.49802e-07
-3.96329e-07
-1.56281e-07
-4.07615e-07
-1.63637e-07
-4.19536e-07
-1.71953e-07
-4.32198e-07
-1.81335e-07
-4.45695e-07
-1.91924e-07
-4.6012e-07
-2.03904e-07
-4.75571e-07
-2.1751e-07
-4.92152e-07
-2.33032e-07
-5.09977e-07
-2.50818e-07
-5.29174e-07
-2.71368e-07
-5.49945e-07
-2.95138e-07
-5.72578e-07
-3.22194e-07
-5.97448e-07
-3.51958e-07
-6.24997e-07
-3.82746e-07
-6.55611e-07
-4.11476e-07
-6.89364e-07
-4.34194e-07
-7.25773e-07
-4.47687e-07
-7.63854e-07
-4.51063e-07
-8.02475e-07
-4.45743e-07
-8.40677e-07
-4.34109e-07
-8.77787e-07
-4.18292e-07
-9.13374e-07
-3.99777e-07
-9.47167e-07
-3.79451e-07
-9.78994e-07
-3.57798e-07
-1.00873e-06
-3.35084e-07
-1.03629e-06
-3.11465e-07
-1.06161e-06
-2.87047e-07
-1.08463e-06
-2.61911e-07
-1.10531e-06
-2.36129e-07
-1.12361e-06
-2.09767e-07
-1.13952e-06
-1.8289e-07
-1.15302e-06
-1.55562e-07
-1.16408e-06
-1.27847e-07
-1.1727e-06
-9.98057e-08
-1.17887e-06
-7.15023e-08
-1.18258e-06
-4.29985e-08
-1.43574e-08
6.57557e-07
-1.14186e-08
6.54638e-07
-3.41322e-08
6.49793e-07
-5.66545e-08
6.43045e-07
-7.89187e-08
6.34418e-07
-1.00858e-07
6.23946e-07
-1.22402e-07
6.11665e-07
-1.43481e-07
5.9762e-07
-1.64015e-07
5.81865e-07
-1.83914e-07
5.64462e-07
-2.0307e-07
5.4549e-07
-2.21346e-07
5.25043e-07
-2.38565e-07
5.03236e-07
-2.54504e-07
4.80213e-07
-2.68885e-07
4.56147e-07
-2.81388e-07
4.31242e-07
-2.91682e-07
4.05723e-07
-2.99491e-07
3.79828e-07
-3.04663e-07
3.53785e-07
-3.07239e-07
3.27798e-07
-3.0747e-07
3.02027e-07
-3.05773e-07
2.76591e-07
-3.02643e-07
2.51565e-07
-2.98564e-07
2.26993e-07
-2.93939e-07
2.02896e-07
-2.89064e-07
1.7928e-07
-2.84128e-07
1.56144e-07
-2.79235e-07
1.33485e-07
-2.74429e-07
1.11297e-07
-2.69716e-07
8.95797e-08
-2.6508e-07
6.83296e-08
-2.60498e-07
4.7547e-08
-2.55944e-07
2.72322e-08
-2.51398e-07
7.38561e-09
-2.46848e-07
-1.19929e-08
-2.4229e-07
-3.09036e-08
-2.37719e-07
-4.9345e-08
-2.331e-07
-6.7317e-08
-2.28432e-07
-8.48207e-08
-2.23721e-07
-1.01858e-07
-2.18978e-07
-1.18434e-07
-2.14214e-07
-1.34556e-07
-2.09441e-07
-1.5023e-07
-2.04673e-07
-1.65468e-07
-1.99923e-07
-1.80282e-07
-1.95206e-07
-1.94684e-07
-1.90536e-07
-2.08691e-07
-1.85926e-07
-2.22318e-07
-1.8139e-07
-2.35586e-07
-1.76941e-07
-2.48513e-07
-1.7259e-07
-2.61121e-07
-1.68349e-07
-2.73433e-07
-1.64229e-07
-2.8547e-07
-1.60242e-07
-2.97259e-07
-1.56399e-07
-3.08821e-07
-1.52715e-07
-3.20183e-07
-1.49205e-07
-3.3136e-07
-1.45898e-07
-3.42384e-07
-1.42844e-07
-3.53267e-07
-1.40007e-07
-3.64003e-07
-1.37494e-07
-3.74553e-07
-1.35391e-07
-3.8462e-07
-1.34048e-07
-3.95147e-07
-1.39273e-07
-4.06173e-07
-1.4525e-07
-4.17763e-07
-1.52043e-07
-4.2999e-07
-1.59721e-07
-4.42936e-07
-1.68383e-07
-4.56685e-07
-1.78168e-07
-4.71327e-07
-1.89254e-07
-4.86961e-07
-2.01867e-07
-5.03697e-07
-2.16285e-07
-5.2166e-07
-2.32844e-07
-5.40996e-07
-2.52018e-07
-5.61926e-07
-2.74189e-07
-5.84744e-07
-2.99351e-07
-6.09816e-07
-3.26857e-07
-6.37538e-07
-3.54996e-07
-6.68196e-07
-3.80791e-07
-7.01739e-07
-4.00629e-07
-7.376e-07
-4.1181e-07
-7.74811e-07
-4.13842e-07
-8.12337e-07
-4.08211e-07
-8.49338e-07
-3.97105e-07
-8.85235e-07
-3.82393e-07
-9.19661e-07
-3.65351e-07
-9.52383e-07
-3.46729e-07
-9.83246e-07
-3.26935e-07
-1.01214e-06
-3.06192e-07
-1.03897e-06
-2.84632e-07
-1.06367e-06
-2.62346e-07
-1.08618e-06
-2.39402e-07
-1.10645e-06
-2.15863e-07
-1.12442e-06
-1.91788e-07
-1.14008e-06
-1.67235e-07
-1.15338e-06
-1.42261e-07
-1.1643e-06
-1.16925e-07
-1.17282e-06
-9.12852e-08
-1.17892e-06
-6.53999e-08
-1.1826e-06
-3.93282e-08
-1.31309e-08
6.5756e-07
-1.04448e-08
6.54651e-07
-3.12228e-08
6.49823e-07
-5.18266e-08
6.43099e-07
-7.21947e-08
6.34506e-07
-9.22651e-08
6.24079e-07
-1.11975e-07
6.11856e-07
-1.31259e-07
5.97885e-07
-1.50044e-07
5.8222e-07
-1.6825e-07
5.64926e-07
-1.85777e-07
5.46081e-07
-2.02501e-07
5.2578e-07
-2.18264e-07
5.04136e-07
-2.32861e-07
4.81291e-07
-2.46041e-07
4.57413e-07
-2.57511e-07
4.32699e-07
-2.6697e-07
4.07371e-07
-2.74164e-07
3.81659e-07
-2.78953e-07
3.55786e-07
-2.81369e-07
3.29951e-07
-2.81638e-07
3.04315e-07
-2.80138e-07
2.78993e-07
-2.77323e-07
2.54063e-07
-2.73636e-07
2.29567e-07
-2.69446e-07
2.05526e-07
-2.65025e-07
1.81946e-07
-2.60549e-07
1.58826e-07
-2.56115e-07
1.36159e-07
-2.51763e-07
1.13941e-07
-2.47499e-07
9.21673e-08
-2.43308e-07
7.0836e-08
-2.39167e-07
4.99455e-08
-2.35054e-07
2.94957e-08
-2.30949e-07
9.48679e-09
-2.2684e-07
-1.00814e-08
-2.22722e-07
-2.92092e-08
-2.18591e-07
-4.78947e-08
-2.14415e-07
-6.6137e-08
-2.1019e-07
-8.3936e-08
-2.05922e-07
-1.01293e-07
-2.01621e-07
-1.18212e-07
-1.97295e-07
-1.34697e-07
-1.92956e-07
-1.50755e-07
-1.88615e-07
-1.66393e-07
-1.84285e-07
-1.81622e-07
-1.79978e-07
-1.96452e-07
-1.75706e-07
-2.10897e-07
-1.71482e-07
-2.2497e-07
-1.67318e-07
-2.38686e-07
-1.63225e-07
-2.52063e-07
-1.59214e-07
-2.65117e-07
-1.55295e-07
-2.77869e-07
-1.51478e-07
-2.90336e-07
-1.47774e-07
-3.02541e-07
-1.44195e-07
-3.14502e-07
-1.40753e-07
-3.26243e-07
-1.37464e-07
-3.37782e-07
-1.3436e-07
-3.49147e-07
-1.3148e-07
-3.60357e-07
-1.28797e-07
-3.71428e-07
-1.26423e-07
-3.82371e-07
-1.24449e-07
-3.92556e-07
-1.23821e-07
-4.03259e-07
-1.28563e-07
-4.14493e-07
-1.34009e-07
-4.26307e-07
-1.40218e-07
-4.38765e-07
-1.47251e-07
-4.51939e-07
-1.55196e-07
-4.65906e-07
-1.64183e-07
-4.80757e-07
-1.74384e-07
-4.96591e-07
-1.86011e-07
-5.13529e-07
-1.99324e-07
-5.31702e-07
-2.14646e-07
-5.51277e-07
-2.32418e-07
-5.72486e-07
-2.52954e-07
-5.95621e-07
-2.76186e-07
-6.21023e-07
-3.01423e-07
-6.49025e-07
-3.26963e-07
-6.79807e-07
-3.4998e-07
-7.13203e-07
-3.67211e-07
-7.48588e-07
-3.76408e-07
-7.85034e-07
-3.77385e-07
-8.21609e-07
-3.7163e-07
-8.57577e-07
-3.61134e-07
-8.92439e-07
-3.4753e-07
-9.25872e-07
-3.31917e-07
-9.57669e-07
-3.14931e-07
-9.87687e-07
-2.96917e-07
-1.01582e-06
-2.78061e-07
-1.04197e-06
-2.58477e-07
-1.06608e-06
-2.38239e-07
-1.08808e-06
-2.17407e-07
-1.1079e-06
-1.96037e-07
-1.12551e-06
-1.7418e-07
-1.14086e-06
-1.51886e-07
-1.15391e-06
-1.29209e-07
-1.16464e-06
-1.062e-07
-1.17301e-06
-8.29127e-08
-1.17901e-06
-5.94011e-08
-1.18262e-06
-3.57196e-08
-1.19253e-08
6.57565e-07
-9.47625e-09
6.54671e-07
-2.83283e-08
6.49867e-07
-4.70233e-08
6.43178e-07
-6.5505e-08
6.3463e-07
-8.37174e-08
6.24258e-07
-1.01604e-07
6.12104e-07
-1.19104e-07
5.98213e-07
-1.36153e-07
5.82641e-07
-1.52678e-07
5.65453e-07
-1.68589e-07
5.46727e-07
-1.83775e-07
5.26555e-07
-1.98092e-07
5.0505e-07
-2.11357e-07
4.82349e-07
-2.23341e-07
4.58618e-07
-2.33781e-07
4.34049e-07
-2.42403e-07
4.08859e-07
-2.48976e-07
3.83274e-07
-2.5337e-07
3.57515e-07
-2.55612e-07
3.31779e-07
-2.55904e-07
3.06225e-07
-2.54587e-07
2.8097e-07
-2.52072e-07
2.56091e-07
-2.4876e-07
2.31632e-07
-2.44989e-07
2.07613e-07
-2.41008e-07
1.84039e-07
-2.36977e-07
1.60907e-07
-2.32986e-07
1.38212e-07
-2.2907e-07
1.15947e-07
-2.25236e-07
9.41065e-08
-2.21469e-07
7.26881e-08
-2.1775e-07
5.16895e-08
-2.14056e-07
3.11102e-08
-2.1037e-07
1.09501e-08
-2.06681e-07
-8.79091e-09
-2.02982e-07
-2.8113e-08
-1.9927e-07
-4.70139e-08
-1.95515e-07
-6.54916e-08
-1.91713e-07
-8.35454e-08
-1.87869e-07
-1.01176e-07
-1.83991e-07
-1.18385e-07
-1.80087e-07
-1.35176e-07
-1.76166e-07
-1.51553e-07
-1.72239e-07
-1.67522e-07
-1.68316e-07
-1.83092e-07
-1.64409e-07
-1.9827e-07
-1.60529e-07
-2.13067e-07
-1.56686e-07
-2.27495e-07
-1.52891e-07
-2.41567e-07
-1.49155e-07
-2.55295e-07
-1.45486e-07
-2.68695e-07
-1.41895e-07
-2.81782e-07
-1.38392e-07
-2.94573e-07
-1.34984e-07
-3.07085e-07
-1.31684e-07
-3.19336e-07
-1.28503e-07
-3.31345e-07
-1.25456e-07
-3.43133e-07
-1.22573e-07
-3.54725e-07
-1.19888e-07
-3.66143e-07
-1.17379e-07
-3.77423e-07
-1.15145e-07
-3.88609e-07
-1.13266e-07
-3.99022e-07
-1.13354e-07
-4.09947e-07
-1.17631e-07
-4.21394e-07
-1.22555e-07
-4.3342e-07
-1.28186e-07
-4.46089e-07
-1.34575e-07
-4.59469e-07
-1.41807e-07
-4.73642e-07
-1.50001e-07
-4.88698e-07
-1.59317e-07
-5.04743e-07
-1.69952e-07
-5.21902e-07
-1.82148e-07
-5.40319e-07
-1.96208e-07
-5.60174e-07
-2.12536e-07
-5.81711e-07
-2.31385e-07
-6.05221e-07
-2.52643e-07
-6.31016e-07
-2.75594e-07
-6.59363e-07
-2.98582e-07
-6.90346e-07
-3.18966e-07
-7.23697e-07
-3.33836e-07
-7.58744e-07
-3.41344e-07
-7.94595e-07
-3.41523e-07
-8.30398e-07
-3.35821e-07
-8.65506e-07
-3.26022e-07
-8.99482e-07
-3.13552e-07
-9.32045e-07
-2.99353e-07
-9.63011e-07
-2.83964e-07
-9.92252e-07
-2.67676e-07
-1.01967e-06
-2.50647e-07
-1.04517e-06
-2.32973e-07
-1.06869e-06
-2.14718e-07
-1.09016e-06
-1.95934e-07
-1.10953e-06
-1.76669e-07
-1.12674e-06
-1.56966e-07
-1.14176e-06
-1.36873e-07
-1.15453e-06
-1.16435e-07
-1.16503e-06
-9.56994e-08
-1.17323e-06
-7.4713e-08
-1.17911e-06
-5.35252e-08
-1.18264e-06
-3.2185e-08
-1.07446e-08
6.5757e-07
-8.51295e-09
6.54691e-07
-2.54493e-08
6.49914e-07
-4.22454e-08
6.43259e-07
-5.88507e-08
6.34757e-07
-7.52151e-08
6.24441e-07
-9.12874e-08
6.12351e-07
-1.07014e-07
5.98535e-07
-1.22337e-07
5.83049e-07
-1.37191e-07
5.65955e-07
-1.51496e-07
5.47331e-07
-1.65152e-07
5.27269e-07
-1.7803e-07
5.05879e-07
-1.89967e-07
4.83295e-07
-2.00759e-07
4.59681e-07
-2.10168e-07
4.35225e-07
-2.17949e-07
4.10139e-07
-2.23893e-07
3.84648e-07
-2.27881e-07
3.58969e-07
-2.29937e-07
3.33299e-07
-2.30237e-07
3.07796e-07
-2.29089e-07
2.82579e-07
-2.26859e-07
2.57725e-07
-2.23909e-07
2.33278e-07
-2.20546e-07
2.09258e-07
-2.16991e-07
1.8567e-07
-2.13393e-07
1.62512e-07
-2.09829e-07
1.39775e-07
-2.06336e-07
1.17454e-07
-2.02917e-07
9.55428e-08
-1.9956e-07
7.40368e-08
-1.96245e-07
5.29342e-08
-1.92955e-07
3.22339e-08
-1.89671e-07
1.19361e-08
-1.86384e-07
-7.95946e-09
-1.83087e-07
-2.74526e-08
-1.79778e-07
-4.65405e-08
-1.76428e-07
-6.52208e-08
-1.73033e-07
-8.34918e-08
-1.69599e-07
-1.01353e-07
-1.66131e-07
-1.18805e-07
-1.62636e-07
-1.35849e-07
-1.59123e-07
-1.5249e-07
-1.556e-07
-1.6873e-07
-1.52077e-07
-1.84576e-07
-1.48564e-07
-2.00035e-07
-1.45071e-07
-2.15114e-07
-1.41607e-07
-2.29824e-07
-1.38182e-07
-2.44175e-07
-1.34805e-07
-2.58178e-07
-1.31484e-07
-2.71845e-07
-1.28229e-07
-2.8519e-07
-1.25048e-07
-2.98228e-07
-1.21949e-07
-3.10972e-07
-1.18942e-07
-3.23439e-07
-1.16037e-07
-3.35646e-07
-1.13249e-07
-3.47614e-07
-1.10606e-07
-3.59368e-07
-1.08136e-07
-3.7093e-07
-1.05818e-07
-3.82336e-07
-1.03739e-07
-3.93618e-07
-1.01986e-07
-4.04284e-07
-1.02631e-07
-4.1544e-07
-1.06466e-07
-4.27098e-07
-1.10887e-07
-4.39324e-07
-1.15948e-07
-4.52185e-07
-1.217e-07
-4.65758e-07
-1.28219e-07
-4.80123e-07
-1.35618e-07
-4.95378e-07
-1.44042e-07
-5.11634e-07
-1.53674e-07
-5.29025e-07
-1.64732e-07
-5.47702e-07
-1.77503e-07
-5.67861e-07
-1.92347e-07
-5.89753e-07
-2.0946e-07
-6.13658e-07
-2.28701e-07
-6.39859e-07
-2.49356e-07
-6.6856e-07
-2.69846e-07
-6.99752e-07
-2.87743e-07
-7.33082e-07
-3.00482e-07
-7.67847e-07
-3.06561e-07
-8.03193e-07
-3.06167e-07
-8.38343e-07
-3.00665e-07
-8.7272e-07
-2.91641e-07
-9.05942e-07
-2.80329e-07
-9.37758e-07
-2.67536e-07
-9.68005e-07
-2.53717e-07
-9.96564e-07
-2.39117e-07
-1.02334e-06
-2.23871e-07
-1.04825e-06
-2.0806e-07
-1.07123e-06
-1.91737e-07
-1.09222e-06
-1.74949e-07
-1.11115e-06
-1.57735e-07
-1.12798e-06
-1.40136e-07
-1.14267e-06
-1.22191e-07
-1.15516e-06
-1.0394e-07
-1.16544e-06
-8.54259e-08
-1.17346e-06
-6.66899e-08
-1.17921e-06
-4.77755e-08
-1.18267e-06
-2.87265e-08
-9.58959e-09
6.57576e-07
-7.55478e-09
6.54712e-07
-2.25854e-08
6.49958e-07
-3.74921e-08
6.43338e-07
-5.22304e-08
6.34879e-07
-6.67557e-08
6.24614e-07
-8.1023e-08
6.12585e-07
-9.49848e-08
5.98837e-07
-1.0859e-07
5.83426e-07
-1.2178e-07
5.66415e-07
-1.34485e-07
5.47879e-07
-1.46616e-07
5.27908e-07
-1.5806e-07
5.06612e-07
-1.68672e-07
4.84123e-07
-1.7827e-07
4.606e-07
-1.86646e-07
4.36229e-07
-1.93581e-07
4.11221e-07
-1.98887e-07
3.85796e-07
-2.0246e-07
3.60172e-07
-2.04316e-07
3.34543e-07
-2.04613e-07
3.0907e-07
-2.0362e-07
2.83871e-07
-2.01663e-07
2.59023e-07
-1.99066e-07
2.34572e-07
-1.96098e-07
2.10538e-07
-1.92961e-07
1.86926e-07
-1.89784e-07
1.63732e-07
-1.86638e-07
1.40949e-07
-1.83556e-07
1.1857e-07
-1.8054e-07
9.65878e-08
-1.77579e-07
7.49986e-08
-1.74658e-07
5.37996e-08
-1.71757e-07
3.299e-08
-1.68863e-07
1.25697e-08
-1.65965e-07
-7.4612e-09
-1.63058e-07
-2.71022e-08
-1.60138e-07
-4.63504e-08
-1.57181e-07
-6.52024e-08
-1.54182e-07
-8.3656e-08
-1.51147e-07
-1.01709e-07
-1.48079e-07
-1.19362e-07
-1.44985e-07
-1.36615e-07
-1.41871e-07
-1.5347e-07
-1.38747e-07
-1.6993e-07
-1.35619e-07
-1.85998e-07
-1.32497e-07
-2.01681e-07
-1.29389e-07
-2.16985e-07
-1.26305e-07
-2.31917e-07
-1.23251e-07
-2.46487e-07
-1.20237e-07
-2.60703e-07
-1.17269e-07
-2.74576e-07
-1.14357e-07
-2.88119e-07
-1.11506e-07
-3.01343e-07
-1.08726e-07
-3.14261e-07
-1.06025e-07
-3.26888e-07
-1.03411e-07
-3.3924e-07
-1.00898e-07
-3.51337e-07
-9.85105e-08
-3.632e-07