/*--------------------------------*- C++ -*----------------------------------*\
  =========                 |
  \\      /  F ield         | OpenFOAM: The Open Source CFD Toolbox
   \\    /   O peration     | Website:  https://openfoam.org
    \\  /    A nd           | Version:  8
     \\/     M anipulation  |
\*---------------------------------------------------------------------------*/
FoamFile
{
    version     2.0;
    format      ascii;
    class       volScalarField;
    location    "700/fluid";
    object      Qdot;
}
// * * * * * * * * * * * * * * * * * * * * * * * * * * * * * * * * * * * * * //

dimensions      [1 -1 -3 0 0 0 0];

internalField   nonuniform List<scalar> 
4000
(
-2.65801e-07
2.05155e-17
0
0
-2.66755e-20
-2.9367e-11
-3.34165e-11
-3.47511e-07
0
0
0
3.77511e-07
1.44024e-14
-3.87727e-07
-8.46963e-18
-2.04284e-09
-2.53893e-09
-3.03987e-15
3.25099e-08
9.7557e-08
4.21272e-06
5.50792e-05
0.000652723
0.00643679
0.0518112
0.339872
1.83322
8.24832
31.4677
103.45
297.405
757.173
1726.06
3559.2
6698.18
11630
18878.5
29037
42908.6
61671.8
87009.8
121163
167049
228523
310715
420530
567153
762321
1.02242e+06
1.36832e+06
1.82739e+06
2.43557e+06
3.24002e+06
4.30275e+06
5.7054e+06
7.55587e+06
9.99744e+06
1.31789e+07
1.73337e+07
2.29812e+07
3.04902e+07
6.83786e+07
3.80194e+08
2.95241e+07
2.12578e+07
1.512e+07
1.06035e+07
7.31779e+06
4.9599e+06
3.29577e+06
2.14569e+06
1.37345e+06
878531
563474
148855
11056.6
302.613
4.25594
0.0402832
0.000412464
7.80776e-06
3.68874e-07
4.14475e-08
8.71963e-09
2.75641e-09
1.15072e-09
4.32023e-10
1.69276e-10
6.39455e-11
2.93305e-11
1.36188e-11
5.86177e-12
2.4623e-12
1.00119e-12
3.88679e-13
1.80742e-13
6.60964e-14
2.65956e-14
8.86188e-15
1.47657e-15
0
2.04726e-17
2.92952e-12
7.49129e-12
-2.6479e-20
3.24119e-07
2.68471e-11
6.76837e-11
0
3.35159e-15
-5.20079e-10
9.91759e-19
0
9.68036e-10
2.85485e-14
-3.31311e-17
-2.45478e-09
-2.93924e-15
2.32671e-08
7.59925e-08
4.01744e-06
4.99439e-05
0.000594387
0.00590361
0.0480489
0.319318
1.74606
7.96281
30.7697
102.361
297.469
764.659
1757.03
3645.31
6893.57
12005.2
19511.8
30000.4
44256.1
63430.1
89177
123704
169924
231706
314215
424349
570834
766833
1.02786e+06
1.37497e+06
1.83578e+06
2.44661e+06
3.25522e+06
4.32456e+06
5.73778e+06
7.60518e+06
1.00737e+07
1.3296e+07
1.75149e+07
2.32687e+07
3.09437e+07
1.10398e+08
3.43329e+08
2.93507e+07
2.10594e+07
1.49297e+07
1.04348e+07
7.17489e+06
4.84317e+06
3.20368e+06
2.07594e+06
1.32363e+06
846726
516893
110999
6589.65
155.808
1.97502
0.0183304
0.000206457
4.67385e-06
2.69348e-07
3.45818e-08
8.14088e-09
2.63688e-09
1.05404e-09
4.41453e-10
1.62919e-10
6.62735e-11
3.21406e-11
1.32697e-11
5.7352e-12
2.41878e-12
9.87131e-13
4.668e-13
1.76706e-13
6.92473e-14
2.68361e-14
8.51776e-15
-5.06786e-12
2.65194e-07
-2.0387e-17
0
0
-3.09796e-07
-3.74809e-16
-5.86927e-11
0
2.30021e-19
-3.46372e-07
0
-9.58889e-19
5.67928e-10
0
-1.15649e-09
-3.58321e-17
-2.89604e-16
-2.91298e-15
2.6285e-08
2.66276e-07
3.40191e-06
4.70663e-05
0.000556111
0.00554243
0.0454441
0.305034
1.68729
7.78962
30.4759
102.624
301.737
784.214
1819.31
3802.5
7236.04
12653.7
20605.8
31678.9
46641
66616.8
93236.3
128684
175897
238801
322458
433583
582581
781159
1.04555e+06
1.39712e+06
1.86399e+06
2.48324e+06
3.30379e+06
4.3904e+06
5.82896e+06
7.73388e+06
1.02583e+07
1.35598e+07
1.78971e+07
2.38295e+07
3.17551e+07
1.82655e+08
2.75023e+08
2.94159e+07
2.09584e+07
1.47535e+07
1.02382e+07
6.98842e+06
4.68188e+06
3.07334e+06
1.97705e+06
1.25423e+06
804304
438380
73034.7
3485.16
73.0458
0.875231
0.00845372
0.000109266
2.97258e-06
2.01237e-07
2.93699e-08
7.13374e-09
2.30839e-09
9.45189e-10
3.99726e-10
1.73394e-10
7.55581e-11
3.28358e-11
1.29343e-11
6.48775e-12
2.37378e-12
1.10971e-13
6.15566e-12
1.63626e-13
-5.438e-12
8.15639e-13
8.84369e-15
1.47868e-15
0
-2.03086e-17
-8.44109e-17
0
0
3.14623e-07
0
-1.10839e-19
1.32206e-10
-1.09101e-10
-3.43353e-07
0
-4.4972e-10
1.11392e-09
-1.12235e-09
-3.8594e-17
-2.80475e-16
-3.75698e-09
1.31488e-08
2.57512e-07
3.40932e-06
4.42586e-05
0.000527603
0.00529168
0.0437707
0.296893
1.66103
7.75896
30.7152
104.632
311.094
817.166
1914.35
4031.74
7710.84
13535.9
22077.5
33923.8
49826.8
70892.5
98729.9
135526
184270
248769
334276
448912
601620
805008
1.07569e+06
1.43555e+06
1.91347e+06
2.54759e+06
3.3884e+06
4.50282e+06
5.97989e+06
7.93841e+06
1.05376e+07
1.39343e+07
1.84032e+07
2.45304e+07
3.27324e+07
2.69298e+08
1.90746e+08
2.93918e+07
2.07727e+07
1.44993e+07
9.97449e+06
6.74819e+06
4.4806e+06
2.91546e+06
1.86088e+06
1.17528e+06
757210
348014
44522.6
1754.2
32.8611
0.374691
0.0037844
5.61443e-05
1.82816e-06
1.44801e-07
2.35293e-08
6.53851e-09
2.257e-09
8.79393e-10
3.5984e-10
1.55079e-10
6.3867e-11
3.03033e-11
1.44655e-11
5.52853e-12
2.34431e-12
1.75396e-12
4.05533e-13
9.95e-13
6.23577e-14
2.36654e-14
8.10847e-15
1.48281e-15
0
-1.70232e-12
6.01742e-21
0
0
0
-3.16676e-07
1.08762e-19
0
-1.06595e-10
2.64607e-10
-4.34045e-10
5.37056e-10
-1.95996e-09
1.08739e-09
3.45893e-07
-2.78721e-16
-2.83042e-15
8.18481e-09
4.28993e-07
3.29072e-06
4.27265e-05
0.000511138
0.00515858
0.0430289
0.294728
1.66637
7.86885
31.4906
108.425
325.727
864.065
2042.6
4331.38
8315.6
14639.8
23893.2
36662.6
53684
76057.5
105398
143883
194349
260985
350199
468868
626863
837196
1.11703e+06
1.48902e+06
1.98305e+06
2.6387e+06
3.50835e+06
4.66153e+06
6.1908e+06
8.2197e+06
1.09082e+07
1.44093e+07
1.90375e+07
2.5393e+07
3.38843e+07
3.53746e+08
1.04374e+08
2.90955e+07
2.0357e+07
1.40729e+07
9.59171e+06
6.43108e+06
4.23304e+06
2.73197e+06
1.73202e+06
1.09096e+06
705645
248400
26168.3
880.12
15.0079
0.166301
0.00178914
3.06577e-05
1.18627e-06
1.08563e-07
1.9271e-08
5.52929e-09
1.99245e-09
7.98537e-10
3.50864e-10
1.495e-10
6.26233e-11
3.16491e-11
1.25209e-11
5.87507e-12
2.22212e-12
9.52863e-13
3.74213e-13
1.5488e-13
-7.36156e-13
2.50029e-14
8.11893e-15
1.30802e-15
0
2.014e-17
0
0
0
0
3.08391e-11
-3.16613e-07
1.03253e-10
3.04632e-15
0
0
0
1.79182e-18
1.05576e-09
-3.62169e-17
-3.87945e-09
-2.79738e-15
7.91175e-09
4.232e-07
3.04884e-06
4.19921e-05
0.000503432
0.00511903
0.0430662
0.297809
1.70075
8.11327
32.7982
114.048
345.9
925.872
2206.52
4706.28
9058.29
15970.4
26048.2
39865.7
58132.5
81937
112849
152970
205666
275869
368956
492709
657420
876661
1.16835e+06
1.55614e+06
2.07133e+06
2.75531e+06
3.66291e+06
4.86684e+06
6.46361e+06
8.58159e+06
1.13891e+07
1.50366e+07
1.98614e+07
2.64435e+07
3.51762e+07
4.24663e+08
3.94853e+07
2.77065e+07
1.92653e+07
1.32419e+07
8.97526e+06
5.98475e+06
3.91793e+06
2.51581e+06
1.589e+06
1.00113e+06
641510
184910
15161
448.809
7.08181
0.0773179
0.000891903
1.75659e-05
7.96101e-07
8.42304e-08
1.68809e-08
5.01761e-09
1.73954e-09
7.84237e-10
3.06674e-10
1.48378e-10
6.35602e-11
2.78096e-11
1.16018e-11
4.96914e-12
1.97137e-12
8.42309e-13
3.43904e-13
9.60583e-13
5.58773e-14
5.31094e-12
-4.40736e-12
1.31329e-15
0
1.37354e-12
0
2.89114e-07
0
0
-3.06796e-07
0
0
0
0
0
4.1413e-10
1.02108e-09
-1.85809e-09
1.67444e-09
-1.68454e-09
4.1734e-09
1.10701e-08
2.47175e-07
3.03367e-06
4.17598e-05
0.000503826
0.00516101
0.0437899
0.305616
1.76206
8.48673
34.634
121.546
371.911
1003.73
2409.34
5166.32
9960.19
17534
28539.1
43515.7
63133.1
88395.8
120795
162952
218688
292186
389597
519076
691402
920819
1.22617e+06
1.6324e+06
2.1726e+06
2.89066e+06
3.84487e+06
5.11269e+06
6.79705e+06
9.0348e+06
1.20068e+07
1.58432e+07
2.1085e+07
2.80476e+07
3.72566e+07
4.50496e+08
3.48877e+07
2.48026e+07
1.73923e+07
1.20164e+07
8.16792e+06
5.45324e+06
3.571e+06
2.29336e+06
1.45074e+06
920042
573706
135172
8993.12
239.145
3.53853
0.0385235
0.000479046
1.07812e-05
5.65066e-07
6.70661e-08
1.38149e-08
4.51982e-09
1.81189e-09
6.64774e-10
2.86901e-10
1.32711e-10
6.06978e-11
2.41053e-11
1.22024e-11
4.50198e-12
2.06544e-12
9.37016e-13
3.44397e-13
1.42365e-13
5.57471e-14
2.04689e-14
7.40702e-15
1.22856e-15
4.83567e-18
0
2.79587e-07
2.86472e-07
1.71892e-16
-1.19803e-11
0
3.0554e-07
3.08429e-07
-9.98803e-11
4.47259e-10
0
4.95489e-10
0
-9.94143e-10
-4.08088e-17
-1.62996e-09
-2.84051e-15
1.88189e-08
2.44998e-07
3.07244e-06
4.21597e-05
0.000511511
0.00527646
0.0451463
0.317901
1.84967
8.99005
37.017
131.039
404.281
1099.4
2655.79
5717.93
11022.2
19335.7
31340.4
47497
68402.4
95059.4
129255
173917
232266
309128
410932
546197
726177
965777
1.28476e+06
1.70939e+06
2.27464e+06
3.02716e+06
4.02932e+06
5.36472e+06
7.14579e+06
9.52443e+06
1.26948e+07
1.68326e+07
2.25522e+07
3.02496e+07
4.06296e+07
4.38236e+08
3.20395e+07
2.27801e+07
1.59832e+07
1.10483e+07
7.51088e+06
5.01305e+06
3.28063e+06
2.10579e+06
1.33346e+06
851158
501316
98297.1
5536.29
134.678
1.89128
0.0207027
0.00027751
7.06524e-06
4.21522e-07
5.47704e-08
1.27782e-08
3.73159e-09
1.48178e-09
6.59858e-10
2.55712e-10
1.43575e-10
5.33147e-11
2.37869e-11
1.0417e-11
4.45421e-12
1.84411e-12
7.2898e-13
2.92626e-13
1.29453e-13
-7.32777e-13
4.4877e-12
6.68435e-15
1.14342e-15
1.65347e-13
0
0
0
1.69919e-16
0
0
0
2.03904e-19
-9.77211e-11
0
1.14553e-14
1.14553e-14
0
-3.06263e-07
-1.57088e-09
-2.97247e-16
-2.88156e-15
2.13331e-08
2.43815e-07
3.14306e-06
4.29632e-05
0.000525188
0.00545947
0.0470967
0.33451
1.96343
9.62641
39.9771
142.692
443.7
1215.18
2952.1
6374.15
12264.5
21407.1
34501.3
51822.5
73910.1
102139
138387
185084
245947
326004
431912
572469
759285
1.00774e+06
1.33822e+06
1.77784e+06
2.36274e+06
3.14109e+06
4.17734e+06
5.55783e+06
7.39852e+06
9.85568e+06
1.3123e+07
1.74068e+07
2.33312e+07
3.13059e+07
8.00424e+07
4.01636e+08
3.03638e+07
2.15579e+07
1.51085e+07
1.04346e+07
7.08957e+06
4.73103e+06
3.09759e+06
1.99176e+06
1.26668e+06
816460
442386
73282.6
3588.03
80.7154
1.08569
0.0120111
0.000173123
4.92867e-06
3.27845e-07
4.67319e-08
1.14023e-08
3.57921e-09
1.45024e-09
5.92915e-10
2.52303e-10
1.28568e-10
5.25372e-11
2.18675e-11
9.48964e-12
4.0061e-12
1.82692e-12
7.23405e-13
2.90892e-13
5.47258e-12
5.54361e-14
2.04391e-14
5.96244e-15
1.23671e-15
0
0
0
0
0
0
-2.92515e-07
0
0
0
0
-8.0113e-19
0
1.59583e-18
-2.95083e-07
-4.45912e-17
1.8703e-09
-2.96441e-07
2.05397e-08
2.51298e-07
3.39125e-06
4.44334e-05
0.00054494
0.00570569
0.0496193
0.355395
2.10379
10.4018
43.5563
156.72
491.029
1353.89
3305.45
7147.3
13691.6
23703
37874.6
56421.9
80138.8
109956
147761
196332
259524
342502
452082
597233
789781
1.04535e+06
1.38466e+06
1.83516e+06
2.43341e+06
3.22804e+06
4.28388e+06
5.68754e+06
7.55492e+06
1.00415e+07
1.33289e+07
1.76182e+07
2.35246e+07
3.14217e+07
1.44736e+08
3.43518e+08
2.94506e+07
2.08588e+07
1.45852e+07
1.0051e+07
6.8144e+06
4.53814e+06
2.96613e+06
1.90573e+06
1.21432e+06
789396
392593
55951.2
2447.87
51.4347
0.667065
0.00748955
0.000115597
3.63755e-06
2.66659e-07
4.07305e-08
1.00609e-08
3.51323e-09
1.42339e-09
6.31315e-10
2.72774e-10
1.01558e-10
4.63753e-11
2.31452e-11
9.37279e-12
4.35667e-12
-2.80096e-12
6.10084e-12
2.89042e-13
1.2157e-13
4.92706e-14
1.89327e-14
5.9681e-15
-7.38228e-13
0
2.83092e-21
-6.14426e-12
1.17526e-20
0
0
0
0
0
9.34583e-11
0
0
2.88327e-07
7.38501e-10
2.87311e-07
-4.30884e-17
-3.07661e-16
-3.02681e-15
1.9745e-08
4.05102e-07
3.37118e-06
4.62315e-05
0.00057001
0.00601166
0.0526929
0.380513
2.27121
11.3227
47.7998
173.357
547.25
1518.89
3725.3
8058.81
15337.6
26248.7
41543.6
61501.5
86537.6
117750
157107
207497
272899
358582
471466
620623
817984
1.07928e+06
1.4253e+06
1.8836e+06
2.49068e+06
3.29503e+06
4.36112e+06
5.77476e+06
7.65041e+06
1.01407e+07
1.34191e+07
1.76876e+07
2.3552e+07
3.1366e+07
2.02648e+08
2.87815e+08
2.88438e+07
2.04105e+07
1.42613e+07
9.82245e+06
6.65712e+06
4.43287e+06
2.89795e+06
1.86354e+06
1.19038e+06
778385
351881
44051.1
1754.85
34.76
0.43763
0.00499091
8.20815e-05
2.81954e-06
2.23056e-07
3.63283e-08
9.49555e-09
3.25589e-09
1.29984e-09
5.71407e-10
2.19391e-10
1.12129e-10
4.95757e-11
2.13548e-11
9.25368e-12
3.91753e-12
1.59661e-12
6.63046e-13
2.87057e-13
1.20929e-13
4.90941e-14
1.80892e-14
5.97014e-15
1.06344e-15
2.61791e-07
-1.96354e-17
0
1.23826e-11
-1.64078e-16
-3.30941e-16
0
0
0
-2.83882e-07
0
2.81229e-07
8.02579e-10
-3.00004e-18
-8.94953e-18
-4.7526e-17
-3.20052e-16
-3.12924e-15
1.89482e-08
2.69082e-07
3.53499e-06
4.82929e-05
0.000599971
0.00637214
0.0562901
0.409769
2.46586
12.394
52.7483
192.829
613.301
1713.1
4217.22
9105.05
17136.5
28962.1
45538.7
66732.6
93014
125552
166404
218558
286085
374327
490268
643035
844600
1.11072e+06
1.46216e+06
1.92639e+06
2.53971e+06
3.35024e+06
4.42179e+06
5.83914e+06
7.71437e+06
1.01971e+07
1.34588e+07
1.77002e+07
2.35105e+07
3.1234e+07
2.51921e+08
2.4112e+08
2.82813e+07
2.00201e+07
1.39919e+07
9.63879e+06
6.53388e+06
4.35209e+06
2.84693e+06
1.83343e+06
1.17529e+06
773584
310513
35764.4
1317.63
24.8047
0.304894
0.00353585
6.15553e-05
2.28246e-06
1.9481e-07
3.41628e-08
8.93231e-09
3.18666e-09
1.27369e-09
6.07131e-10
2.39133e-10
1.10182e-10
4.84676e-11
2.01857e-11
9.13004e-12
3.87106e-12
1.537e-12
7.05134e-13
2.61059e-13
1.20236e-13
4.59437e-14
1.73944e-14
5.60715e-15
9.76036e-16
-2.61416e-07
1.49274e-12
-6.06106e-12
0
1.62148e-16
0
4.99736e-11
0
0
-1.98888e-10
-5.18076e-15
0
2.71233e-07
1.54429e-09
-8.64442e-18
-4.00795e-17
-3.03095e-09
6.049e-09
1.81484e-08
1.40763e-07
3.58706e-06
5.05957e-05
0.000633789
0.00678147
0.0603637
0.442911
2.68689
13.6155
58.4234
215.314
690.137
1940.49
4794.41
10308.9
19142.3
31918.2
49611
71947.6
99387.4
133192
175499
229388
298990
389702
508543
664666
870051
1.14043e+06
1.4965e+06
1.96557e+06
2.58367e+06
3.39846e+06
4.47277e+06
5.88921e+06
7.75901e+06
1.02324e+07
1.34737e+07
1.76777e+07
2.34244e+07
3.10443e+07
2.93373e+08
2.02153e+08
2.77226e+07
1.96513e+07
1.37512e+07
9.48381e+06
6.43613e+06
4.2922e+06
2.8119e+06
1.81475e+06
1.16762e+06
772039
278575
29857.4
1031.21
18.5952
0.224289
0.00264531
4.84527e-05
1.92332e-06
1.7409e-07
3.05993e-08
8.72611e-09
3.29278e-09
1.24576e-09
5.534e-10
2.34466e-10
9.63915e-11
4.63202e-11
2.42828e-11
8.24901e-12
3.8227e-12
1.56284e-12
6.51063e-13
2.5906e-13
9.58984e-14
4.57422e-14
1.58937e-14
7.51548e-13
9.7738e-16
0
0
-2.6839e-07
1.14266e-20
0
-4.61662e-20
0
0
-1.28004e-15
0
0
-2.65719e-07
0
0
-5.55919e-18
-4.40806e-17
-2.91003e-09
-3.34541e-15
1.73459e-08
2.83163e-07
3.78322e-06
5.33362e-05
0.000671001
0.00722934
0.0648327
0.479415
2.93167
14.9775
64.7992
240.775
777.733
2200.32
5446.14
11621.8
21183.3
34736.9
53462.8
76819.9
105329
140346
184079
239681
311320
404428
526039
685312
894208
1.1684e+06
1.52848e+06
2.00156e+06
2.62321e+06
3.44015e+06
4.51436e+06
5.92882e+06
7.79418e+06
1.02539e+07
1.34665e+07
1.76272e+07
2.3303e+07
3.08118e+07
3.27446e+08
1.70705e+08
2.71615e+07
1.92894e+07
1.35221e+07
9.34229e+06
6.35146e+06
4.24373e+06
2.78604e+06
1.8028e+06
1.16424e+06
771456
261762
25597.4
838.725
14.5938
0.17348
0.00207947
3.98183e-05
1.66998e-06
1.60508e-07
2.91586e-08
8.16427e-09
2.94187e-09
1.16786e-09
5.36429e-10
2.29647e-10
1.0612e-10
4.55058e-11
1.88267e-11
8.12927e-12
3.77309e-12
1.54496e-12
6.44666e-13
2.56943e-13
1.04372e-13
-7.10961e-13
1.7297e-14
5.59738e-15
9.78173e-16
-2.6067e-07
-1.93926e-17
0
2.68334e-07
-1.5828e-16
-2.41929e-11
0
0
0
0
-2.6135e-07
-4.85106e-15
2.54568e-07
-2.71218e-18
-5.355e-18
2.4513e-07
1.2511e-09
-7.60344e-14
2.2054e-08
4.22009e-07
3.99073e-06
5.61259e-05
0.000710016
0.00770132
0.0695665
0.518344
3.19489
16.4561
71.7953
269.027
875.932
2493.16
6170.78
13060.3
23225.6
37239.1
56768.1
80947.2
110395
146533
191641
248903
322513
417906
542120
704298
916361
1.19388e+06
1.55719e+06
2.03288e+06
2.65603e+06
3.47324e+06
4.54688e+06
5.95801e+06
7.81258e+06
1.02527e+07
1.34312e+07
1.75413e+07
2.31368e+07
3.05235e+07
3.55174e+08
1.45247e+08
2.66007e+07
1.89337e+07
1.33023e+07
9.21103e+06
6.27652e+06
4.20371e+06
2.767e+06
1.79594e+06
1.1643e+06
772711
248659
22581.4
708.644
11.9703
0.140677
0.00171109
3.40299e-05
1.49531e-06
1.4895e-07
2.77033e-08
7.94411e-09
2.95909e-09
1.18672e-09
5.23329e-10
2.24689e-10
1.04001e-10
4.17991e-11
1.85113e-11
8.00598e-12
3.35348e-12
1.52658e-12
6.38009e-13
2.54737e-13
1.06257e-13
3.94888e-14
1.57945e-14
5.23019e-15
9.78535e-16
2.603e-07
1.93112e-17
-2.64705e-07
1.12108e-20
-6.58186e-12
-2.65724e-07
0
9.43089e-11
0
-1.84747e-10
2.53963e-07
-4.70421e-15
0
2.4225e-07
2.38481e-07
-5.07737e-17
2.32257e-07
2.91289e-09
2.38684e-08
3.07644e-07
4.08632e-06
5.87538e-05
0.000748967
0.0081756
0.0743611
0.55813
3.46674
18.0019
79.2103
299.42
983.133
2816.04
6969.99
14481.3
24833.9
38859.5
58891.9
83661.9
113883
151022
197403
256211
331645
429133
555686
720385
935007
1.21484e+06
1.58008e+06
2.05725e+06
2.68177e+06
3.49937e+06
4.56942e+06
5.97119e+06
7.80921e+06
1.0222e+07
1.33569e+07
1.74034e+07
2.2902e+07
3.01495e+07
3.76504e+08
1.25423e+08
2.60403e+07
1.85827e+07
1.30895e+07
9.08726e+06
6.20876e+06
4.16997e+06
2.75308e+06
1.79297e+06
1.16701e+06
774821
239133
20492.6
621.023
10.2383
0.119233
0.00146826
3.0122e-05
1.37621e-06
1.42692e-07
2.68805e-08
8.03956e-09
2.87755e-09
1.24029e-09
5.11272e-10
2.30549e-10
1.01831e-10
4.4526e-11
1.81869e-11
7.87922e-12
2.75418e-12
1.41616e-12
-1.10818e-13
2.52446e-13
5.17403e-12
4.21533e-14
1.57354e-14
5.22048e-15
8.89634e-16
0
0
-7.7242e-17
2.22061e-20
1.54468e-16
0
0
0
0
2.50826e-07
-2.46774e-07
-2.42399e-07
3.06346e-10
-2.51942e-18
-9.89062e-18
-4.86024e-17
1.14184e-09
5.0261e-09
2.48706e-08
3.25425e-07
4.40387e-06
6.13204e-05
0.000785453
0.00862327
0.0789219
0.596348
3.7308
19.5221
86.6009
330.12
1092.51
3143.99
7759.12
15704.9
25520.3
38886.5
59051.7
84128.9
114884
152825
200260
260355
337271
436386
564641
731057
947376
1.22895e+06
1.59604e+06
2.0748e+06
2.69889e+06
3.51307e+06
4.57591e+06
5.9644e+06
7.77983e+06
1.01557e+07
1.32337e+07
1.71916e+07
2.25474e+07
2.95712e+07
3.9951e+08
1.07138e+08
2.54794e+07
1.82345e+07
1.28809e+07
8.96839e+06
6.14573e+06
4.1404e+06
2.74255e+06
1.7925e+06
1.17124e+06
778825
232821
19105.4
563.299
9.10803
0.105308
0.00130941
2.75224e-05
1.293e-06
1.36845e-07
2.66431e-08
8.10433e-09
2.95484e-09
1.12417e-09
5.40253e-10
2.29914e-10
9.71729e-11
4.2939e-11
1.92571e-11
9.17573e-12
3.4367e-12
6.68538e-13
6.24129e-13
2.50066e-13
-4.92229e-12
4.1908e-14
1.71023e-14
5.02392e-12
8.89382e-16
-4.76681e-18
1.46165e-12
0
0
1.16446e-11
0
2.52597e-11
-4.9902e-11
-1.16804e-15
-7.86439e-11
-6.46754e-19
6.33327e-19
-2.95544e-10
-2.25653e-07
6.94834e-10
-1.10747e-09
-3.78228e-16
4.76865e-09
2.61099e-08
3.278e-07
4.46174e-06
6.34592e-05
0.00081652
0.00900831
0.0828803
0.629855
3.96504
20.8887
93.3438
358.558
1194.96
3449.72
8412.23
16257.3
24415.7
36318.5
56221.9
81232.1
112156
150498
198522
259352
337105
437138
566394
733967
951517
1.23424e+06
1.6016e+06
2.07929e+06
2.70075e+06
3.50974e+06
4.56348e+06
5.93697e+06
7.72869e+06
1.00682e+07
1.3092e+07
1.69721e+07
2.22115e+07
2.90707e+07
4.12022e+08
9.61885e+07
2.49171e+07
1.78863e+07
1.26731e+07
8.85055e+06
6.08377e+06
4.11177e+06
2.7327e+06
1.79237e+06
1.17537e+06
782722
229269
18260.6
527.382
8.40135
0.0965931
0.00120944
2.58676e-05
1.24255e-06
1.33232e-07
2.63365e-08
7.67719e-09
2.86457e-09
1.17201e-09
5.2593e-10
2.40493e-10
1.00301e-10
4.20485e-11
1.81998e-11
8.31585e-12
3.56113e-12
1.46834e-12
5.71989e-13
2.47632e-13
8.43288e-13
4.16506e-14
1.63893e-14
5.19642e-15
9.77634e-16
2.5919e-07
0
0
2.58122e-07
5.15838e-12
0
0
-8.85996e-11
1.63676e-19
9.40468e-11
-1.83916e-10
4.26502e-15
6.34693e-10
-2.32591e-18
-6.64631e-10
-1.05545e-09
-3.89401e-16
-3.8342e-15
2.19555e-07
3.33851e-07
4.49441e-06
6.50349e-05
0.000839261
0.00929139
0.0858149
0.654914
4.14198
21.9328
98.5575
380.772
1274.82
3674.43
8755.48
15624.2
23748.2
31303.3
49537.1
74022.3
104589
142721
190642
251428
329155
429146
558301
725433
942071
1.22315e+06
1.58805e+06
2.06201e+06
2.67786e+06
3.47848e+06
4.51982e+06
5.87503e+06
7.63993e+06
9.94024e+06
1.29077e+07
1.6708e+07
2.18272e+07
2.85124e+07
4.20945e+08
8.93721e+07
2.43498e+07
1.75314e+07
1.24579e+07
8.72522e+06
6.01487e+06
4.07708e+06
2.71778e+06
1.78805e+06
1.1759e+06
784240
227689
17829.4
507.696
8.0036
0.0916459
0.00115249
2.49259e-05
1.21225e-06
1.31623e-07
2.65431e-08
7.7145e-09
2.92462e-09
1.21483e-09
5.30684e-10
2.34364e-10
1.00281e-10
4.38007e-11
1.85259e-11
7.47654e-12
3.5054e-12
1.44816e-12
6.09577e-13
2.6753e-13
8.36763e-13
4.13862e-14
5.00385e-12
5.53765e-15
9.76873e-16
0
1.89866e-17
2.57375e-07
0
-1.13519e-11
2.9365e-16
-2.46031e-07
1.13575e-15
-1.11216e-15
-2.31049e-07
-1.78201e-10
-2.1897e-07
-2.73907e-10
-2.22887e-18
1.50624e-14
-5.04721e-17
-3.8911e-16
2.34446e-09
2.4959e-08
2.49535e-07
4.5877e-06
6.58453e-05
0.000850998
0.0094374
0.0873383
0.668031
4.23543
22.4893
101.357
392.642
1315.02
3752.24
8526.1
16081
24745.3
32642.8
39217.8
62021.7
91463.6
128396
174991
234240
310128
407856
534171
697802
910065
1.18563e+06
1.54356e+06
2.00861e+06
2.61304e+06
3.39884e+06
4.42079e+06
5.75038e+06
7.48109e+06
9.73523e+06
1.26404e+07
1.63564e+07
2.13529e+07
2.78632e+07
4.25685e+08
8.63674e+07
2.37634e+07
1.71484e+07
1.22111e+07
8.56888e+06
5.91798e+06
4.01865e+06
2.68364e+06
1.76866e+06
1.16477e+06
777732
226580
17682.7
499.976
7.83814
0.0895489
0.00112828
2.45287e-05
1.19965e-06
1.31136e-07
2.6387e-08
7.87592e-09
2.82602e-09
1.1769e-09
5.15353e-10
2.23669e-10
1.00647e-10
4.28269e-11
1.94794e-11
8.0221e-12
3.449e-12
7.25816e-13
6.02115e-13
2.42602e-13
-6.20393e-13
4.39287e-14
4.98227e-12
5.52235e-15
9.75997e-16
0
-1.89866e-17
0
0
0
0
-8.30223e-20
2.41573e-07
2.36556e-07
0
0
2.18969e-07
2.73906e-10
0
-1.08188e-17
-5.04719e-17
-2.17791e-09
-3.86223e-15
2.26653e-08
4.33295e-07
4.58766e-06
6.5934e-05
0.000850926
0.00943763
0.0873391
0.668033
4.23542
22.489
101.355
392.629
1314.96
3752.04
8525.66
16080.2
24744.3
32641.8
39216.9
62019.7
91461.6
128394
174989
234239
310127
407855
534170
697802
910065
1.18563e+06
1.54356e+06
2.00862e+06
2.61304e+06
3.39885e+06
4.42079e+06
5.75039e+06
7.4811e+06
9.73524e+06
1.26404e+07
1.63565e+07
2.13529e+07
2.78632e+07
4.25687e+08
8.63661e+07
2.37634e+07
1.71485e+07
1.22111e+07
8.56889e+06
5.91799e+06
4.01865e+06
2.68364e+06
1.76866e+06
1.16477e+06
777733
226581
17682.8
499.981
7.83823
0.08955
0.00112829
2.45264e-05
1.20183e-06
1.30642e-07
2.60785e-08
7.87601e-09
2.82597e-09
1.17283e-09
5.15966e-10
2.22644e-10
1.00647e-10
4.28269e-11
1.94798e-11
8.02232e-12
2.585e-12
2.2164e-12
6.02129e-13
2.64797e-13
1.07708e-13
4.39287e-14
1.54605e-14
5.16834e-15
9.76026e-16
0
-8.02512e-13
2.59212e-07
0
0
0
2.48007e-11
1.16055e-15
0
2.37649e-07
1.83915e-10
0
-2.21711e-07
2.15394e-07
-6.64625e-10
-4.86697e-17
-2.01371e-07
-3.83416e-15
2.21592e-08
4.327e-07
4.58778e-06
6.49514e-05
0.000839483
0.00929182
0.0858174
0.654924
4.14197
21.9321
98.5513
380.732
1274.62
3673.68
8753.64
15620.7
23743.4
31298.9
49530.9
74016.9
104585
142717
190639
251424
329153
429144
558300
725434
942073
1.22315e+06
1.58806e+06
2.06201e+06
2.67788e+06
3.4785e+06
4.51984e+06
5.87505e+06
7.63996e+06
9.94027e+06
1.29078e+07
1.6708e+07
2.18272e+07
2.85124e+07
4.20949e+08
8.93685e+07
2.43498e+07
1.75314e+07
1.24579e+07
8.72525e+06
6.01489e+06
4.07709e+06
2.71779e+06
1.78805e+06
1.1759e+06
784243
227692
17829.8
507.711
8.00387
0.0916492
0.00115253
2.49269e-05
1.21224e-06
1.31624e-07
2.62231e-08
7.87409e-09
2.92452e-09
1.13686e-09
5.11339e-10
2.24141e-10
9.5062e-11
4.38006e-11
1.85259e-11
8.17008e-12
3.33136e-12
1.44813e-12
5.89623e-13
2.45138e-13
1.02981e-13
4.26547e-14
1.55331e-14
5.34195e-15
-4.98744e-12
4.76681e-18
-1.46165e-12
0
0
2.59583e-07
-2.3128e-11
2.55312e-07
2.52283e-07
0
-1.75301e-10
3.43898e-10
4.41185e-15
-2.3013e-07
1.28827e-09
6.94828e-10
-2.46862e-09
-2.42309e-09
2.12392e-07
2.56263e-08
3.2988e-07
4.36173e-06
6.34722e-05
0.000816684
0.00900871
0.0828831
0.629863
3.96498
20.8875
93.3322
358.475
1194.46
3446.99
8408.97
16254.1
24413.9
36317.2
56220.5
81229.6
112153
150495
198518
259348
337101
437135
566395
733970
951523
1.23425e+06
1.60162e+06
2.0793e+06
2.70077e+06
3.50977e+06
4.56351e+06
5.93701e+06
7.72874e+06
1.00682e+07
1.30921e+07
1.69722e+07
2.22115e+07
2.90707e+07
4.12029e+08
9.61824e+07
2.49172e+07
1.78864e+07
1.26732e+07
8.85059e+06
6.0838e+06
4.11179e+06
2.73272e+06
1.79238e+06
1.17537e+06
782729
229274
18261.2
527.406
8.4018
0.0965988
0.00120951
2.58677e-05
1.24255e-06
1.32051e-07
2.63363e-08
7.84606e-09
2.86457e-09
1.17198e-09
5.2593e-10
2.34726e-10
9.73584e-11
4.47609e-11
1.88953e-11
3.52023e-12
4.35354e-12
1.41917e-12
6.16915e-13
2.47624e-13
8.4329e-13
4.16506e-14
1.56043e-14
-5.00048e-12
9.77663e-16
-2.59929e-07
-1.46785e-12
7.72419e-17
-6.5106e-12
0
-4.41624e-20
0
0
0
2.35848e-15
-1.95318e-10
-2.42397e-07
8.94594e-15
-2.5194e-18
-9.89054e-18
2.25044e-07
-1.14186e-09
2.25478e-09
2.71018e-08
3.2049e-07
4.29198e-06
6.12291e-05
0.000785442
0.00862394
0.0789298
0.596408
3.73121
19.5246
86.6157
330.202
1092.94
3146.29
7760.81
15703
25521.2
38889.2
59055.6
84133.5
114889
152831
200266
260362
337277
436393
564646
731061
947382
1.22896e+06
1.59606e+06
2.07482e+06
2.69892e+06
3.5131e+06
4.57595e+06
5.96445e+06
7.77989e+06
1.01558e+07
1.32338e+07
1.71917e+07
2.25475e+07
2.95713e+07
3.9952e+08
1.07128e+08
2.54795e+07
1.82346e+07
1.2881e+07
8.96844e+06
6.14577e+06
4.14043e+06
2.74257e+06
1.79251e+06
1.17125e+06
778834
232828
19106.3
563.335
9.1087
0.105316
0.0013095
2.75222e-05
1.293e-06
1.36845e-07
2.63648e-08
8.10845e-09
2.95489e-09
1.20648e-09
5.40239e-10
2.25107e-10
9.66131e-11
4.29399e-11
1.85498e-11
3.26838e-12
3.61589e-12
1.39789e-12
-1.09866e-13
2.50066e-13
1.10392e-13
-4.25029e-12
1.56716e-14
-5.01314e-12
-4.99614e-12
-2.60299e-07
-2.6288e-07
0
2.65778e-07
-6.58185e-12
4.48298e-20
0
0
0
-1.84746e-10
0
-2.50181e-07
0
1.82201e-14
-6.14287e-10
-4.56959e-17
1.47062e-09
-5.28286e-09
2.91123e-08
3.12855e-07
4.20025e-06
5.88651e-05
0.000749189
0.00817702
0.0743728
0.558223
3.46739
18.0058
79.2315
299.523
983.577
2817.73
6974.18
14491.2
24842.8
38867.6
58899.6
83669.1
113890
151030
197411
256220
331656
429146
555701
720401
935025
1.21486e+06
1.5801e+06
2.05727e+06
2.6818e+06
3.49941e+06
4.56947e+06
5.97124e+06
7.80927e+06
1.0222e+07
1.3357e+07
1.74035e+07
2.2902e+07
3.01496e+07
3.76517e+08
1.25411e+08
2.60405e+07
1.85829e+07
1.30896e+07
9.08734e+06
6.20881e+06
4.17e+06
2.7531e+06
1.79299e+06
1.16702e+06
774830
239142
20493.8
621.072
10.2392
0.119244
0.00146839
3.01244e-05
1.37506e-06
1.42124e-07
2.68808e-08
8.03945e-09
2.87754e-09
1.24029e-09
5.11271e-10
2.30549e-10
1.01833e-10
4.45259e-11
1.96134e-11
3.65074e-12
3.66948e-12
1.41616e-12
6.56497e-13
9.96625e-13
1.05482e-13
5.10753e-12
1.57359e-14
5.22048e-15
8.89663e-16
-3.65415e-13
1.48026e-12
0
1.13186e-20
0
0
4.83076e-11
2.68094e-07
0
0
0
-3.32236e-10
0
-2.71216e-18
-1.4237e-09
2.47943e-07
3.6178e-14
2.4849e-09
2.75673e-08
2.96838e-07
3.86527e-06
5.60269e-05
0.000710179
0.00770282
0.0695795
0.51844
3.19548
16.4593
71.8103
269.088
876.141
2493.73
6172.86
13065.4
23231.8
37245.9
56775.1
80954.3
110402
146540
191649
248913
322523
417919
542136
704316
916383
1.19391e+06
1.55722e+06
2.0329e+06
2.65606e+06
3.47327e+06
4.54693e+06
5.95806e+06
7.81264e+06
1.02527e+07
1.34313e+07
1.75414e+07
2.31368e+07
3.05234e+07
3.55189e+08
1.45233e+08
2.66009e+07
1.89339e+07
1.33025e+07
9.21113e+06
6.2766e+06
4.20376e+06
2.76704e+06
1.79597e+06
1.16431e+06
772721
248667
22582.9
708.705
11.9716
0.140693
0.00171126
3.40322e-05
1.4953e-06
1.49671e-07
2.77031e-08
8.27828e-09
2.95908e-09
1.18671e-09
5.24008e-10
2.35873e-10
1.07126e-10
4.53949e-11
1.85108e-11
8.73769e-12
8.7824e-12
1.52655e-12
5.91581e-13
2.5473e-13
1.06257e-13
4.23869e-14
1.57945e-14
7.47195e-13
9.78535e-16
0
0
-2.68383e-07
-1.14266e-20
-2.72637e-07
-2.73644e-07
4.91394e-11
0
-2.72372e-07
0
5.04517e-15
0
0
2.60065e-07
-1.93686e-14
2.92986e-09
-3.44774e-16
2.59939e-09
2.05337e-08
2.8316e-07
3.92053e-06
5.33407e-05
0.000671171
0.00723087
0.0648463
0.47951
2.93223
14.9802
64.8106
240.817
777.874
2200.75
5447.21
11622.8
21185.5
34740.6
53467.6
76825.4
105336
140353
184086
239690
311331
404440
526053
685330
894230
1.16843e+06
1.52851e+06
2.0016e+06
2.62326e+06
3.44019e+06
4.51441e+06
5.92887e+06
7.79424e+06
1.0254e+07
1.34666e+07
1.76273e+07
2.33031e+07
3.08117e+07
3.2746e+08
1.70688e+08
2.71619e+07
1.92897e+07
1.35222e+07
9.34238e+06
6.35151e+06
4.24377e+06
2.78609e+06
1.80285e+06
1.16429e+06
771508
261787
25600.4
838.829
14.5957
0.173502
0.00207972
3.98248e-05
1.67146e-06
1.60505e-07
2.91583e-08
8.50762e-09
2.86355e-09
1.12805e-09
5.37139e-10
2.29647e-10
1.05388e-10
4.84291e-11
1.88271e-11
8.12901e-12
8.14906e-12
1.54496e-12
5.9774e-13
-4.89947e-12
1.01141e-13
5.16614e-12
4.36379e-12
5.59738e-15
9.78144e-16
3.66455e-13
-6.69654e-13
5.69927e-21
0
2.32764e-20
2.77588e-07
9.39812e-20
-1.31028e-15
1.87762e-19
2.77196e-07
0
7.38265e-19
-2.7158e-07
2.70494e-07
-8.64436e-18
-4.00792e-17
-3.30601e-16
6.04887e-09
1.81483e-08
1.40762e-07
3.71922e-06
5.06195e-05
0.000633987
0.00678309
0.0603781
0.443009
2.68745
13.6181
58.4337
215.348
690.234
1940.7
4794.67
10309.6
19144
31921
49614.8
71952.1
99392.6
133198
175506
229396
299000
389714
508557
664684
870074
1.14046e+06
1.49653e+06
1.96561e+06
2.58372e+06
3.39852e+06
4.47283e+06
5.88927e+06
7.75908e+06
1.02325e+07
1.34738e+07
1.76778e+07
2.34244e+07
3.10442e+07
2.93395e+08
2.02128e+08
2.77227e+07
1.96513e+07
1.37512e+07
9.48374e+06
6.43604e+06
4.29208e+06
2.81174e+06
1.81455e+06
1.16741e+06
771859
278530
29856.4
1031.26
18.5971
0.224318
0.00264565
4.8458e-05
1.9205e-06
1.74089e-07
2.99014e-08
8.7261e-09
3.11392e-09
1.24647e-09
5.48491e-10
2.34466e-10
1.02286e-10
4.63202e-11
2.0633e-11
7.48741e-12
3.82283e-12
1.5203e-12
-4.56137e-12
2.82736e-13
1.07695e-13
4.28091e-14
1.58933e-14
7.51187e-13
-7.36252e-13
-1.64637e-13
0
5.73834e-21
0
1.64055e-16
3.30941e-16
5.08086e-11
0
1.33596e-15
0
0
-5.2887e-15
-1.05143e-14
-3.00002e-18
-8.94947e-18
-4.15849e-17
4.09616e-14
-3.12921e-15
1.89479e-08
4.07729e-07
3.66781e-06
4.83179e-05
0.000600029
0.00637401
0.0563051
0.40987
2.46642
12.3965
52.7581
192.862
613.399
1713.38
4218.02
9107.57
17140.2
28965.5
45542.4
66736.8
93018.9
125558
166411
218566
286095
374339
490283
643053
844624
1.11075e+06
1.4622e+06
1.92643e+06
2.53977e+06
3.35032e+06
4.42188e+06
5.83925e+06
7.7145e+06
1.01972e+07
1.34589e+07
1.77004e+07
2.35107e+07
3.12342e+07
2.51977e+08
2.41081e+08
2.82819e+07
2.0021e+07
1.39931e+07
9.63999e+06
6.53507e+06
4.35326e+06
2.84807e+06
1.83451e+06
1.17621e+06
774233
310734
35780.6
1318.01
24.81
0.304948
0.00353639
6.15573e-05
2.28244e-06
1.94167e-07
3.3446e-08
8.9323e-09
3.0857e-09