/*--------------------------------*- C++ -*----------------------------------*\
  =========                 |
  \\      /  F ield         | OpenFOAM: The Open Source CFD Toolbox
   \\    /   O peration     | Website:  https://openfoam.org
    \\  /    A nd           | Version:  8
     \\/     M anipulation  |
\*---------------------------------------------------------------------------*/
FoamFile
{
    version     2.0;
    format      ascii;
    class       volScalarField;
    location    "700/fluid";
    object      rDeltaT;
}
// * * * * * * * * * * * * * * * * * * * * * * * * * * * * * * * * * * * * * //

dimensions      [0 0 -1 0 0 0 0];

internalField   nonuniform List<scalar> 
4000
(
513.491
539.519
564.362
588.162
610.86
632.354
652.517
671.209
688.298
703.686
717.335
729.298
739.755
749.034
757.625
766.031
774.64
783.638
792.926
802.119
810.618
817.729
822.796
825.296
824.901
821.424
814.755
804.861
791.778
775.589
756.416
741.082
758.073
802.499
846.135
888.869
930.62
971.317
1010.9
1049.34
1086.6
1122.66
1157.51
1191.14
1223.56
1254.77
1284.77
1313.58
1341.21
1367.66
1392.94
1417.06
1440.03
1461.85
1482.52
1502.04
1520.4
1537.47
1553.24
1567.93
1581.47
2698.56
15234.8
1571.72
1535.28
1493.93
1448.16
1398.48
1345.32
1289.06
1230.1
1168.94
1106.14
1042.23
977.943
914.737
854.618
800.009
753.868
718.832
695.871
683.523
678.527
677.358
677.199
676.292
673.655
668.939
662.175
653.552
643.304
631.668
618.862
605.08
590.486
575.212
559.363
543.008
526.19
508.86
513.017
538.389
562.442
585.109
606.36
626.121
644.3
660.807
675.577
688.596
699.922
709.718
718.266
725.994
733.384
740.909
748.951
757.696
767.058
776.651
785.855
793.929
800.143
803.895
804.734
802.352
796.59
787.405
774.844
759.014
740.064
718.166
715.173
746.569
791.384
835.493
878.794
921.198
962.634
1003.05
1042.39
1080.65
1117.79
1153.8
1188.68
1222.43
1255.05
1286.55
1316.93
1346.21
1374.41
1401.52
1427.58
1452.59
1476.57
1499.53
1521.47
1542.26
1561.94
1580.82
1598.8
4363.42
13776.4
1582.61
1541.38
1496.53
1447.93
1395.68
1339.97
1281.01
1219.1
1154.61
1088
1019.73
950.711
882.831
818.728
761.67
714.913
680.785
659.482
648.795
645.19
645.261
646.481
647.3
646.903
644.838
640.953
635.276
627.914
619.009
608.717
597.191
584.573
570.986
556.531
541.283
525.279
508.551
512.317
536.138
558.466
579.268
598.481
616.047
631.909
646.034
658.426
669.143
678.322
686.196
693.096
699.443
705.685
712.277
719.6
727.854
736.966
746.574
756.073
764.729
771.798
776.62
778.65
777.5
772.957
764.946
753.487
738.676
720.648
699.573
677.864
689.513
734.624
779.325
823.499
867.042
909.873
951.923
993.138
1033.48
1072.92
1111.43
1149
1185.63
1221.32
1256.06
1289.88
1322.78
1354.79
1385.92
1416.19
1445.64
1474.28
1502.13
1529.17
1555.22
1580.24
1604.37
1627.06
7232.61
11060.2
1601.82
1555.82
1506.09
1452.68
1395.69
1335.26
1271.58
1204.92
1135.68
1064.37
991.574
918.584
847.708
781.96
724.839
679.428
647.387
628.167
619.16
616.837
617.981
620.247
622.199
623.13
622.676
620.67
617.066
611.891
605.213
597.118
587.702
577.06
565.28
552.441
538.605
523.821
508.105
511.631
534.077
554.961
574.238
591.867
607.808
622.036
634.546
645.371
654.593
662.36
668.903
674.549
679.708
684.854
690.461
696.917
704.421
712.902
722.002
731.119
739.519
746.45
751.246
753.373
752.457
748.27
740.708
729.764
715.501
698.03
677.496
654.063
650
681.077
726.107
770.89
815.318
859.303
902.771
945.664
987.932
1029.54
1070.46
1110.68
1150.18
1188.95
1227
1264.33
1300.95
1336.86
1372.09
1406.63
1440.5
1473.67
1506.13
1537.8
1568.36
1597.67
1625.74
1651.8
10684.6
7691.84
1614.28
1564.39
1510.23
1452.07
1390.2
1324.87
1256.4
1185.19
1111.78
1036.84
961.147
886.372
815.04
750.182
694.997
652.124
622.679
605.65
598.243
597.032
599.027
602.086
604.882
606.703
607.209
606.261
603.827
599.924
594.599
587.907
579.909
570.668
560.242
548.683
536.039
522.345
507.624
510.897
531.848
551.188
568.881
584.89
599.191
611.773
622.652
631.88
639.561
645.864
651.038
655.419
659.429
663.538
668.216
673.842
680.609
688.447
697.003
705.685
713.763
720.486
725.178
727.298
726.457
722.415
715.052
704.347
690.348
673.151
652.884
629.698
612.77
630.435
675.664
720.907
766.057
811.025
855.735
900.123
944.138
987.743
1030.9
1073.58
1115.76
1157.44
1198.6
1239.24
1279.34
1318.9
1357.91
1396.35
1434.17
1471.33
1507.74
1543.21
1577.29
1609.86
1640.74
1668.93
14062.5
4221.16
1618.19
1565.36
1507.53
1445.32
1379.23
1309.73
1237.28
1162.44
1085.89
1008.39
930.878
855.276
784.18
720.572
667.435
627.007
599.913
584.752
578.622
578.236
580.833
584.472
587.943
590.586
592.058
592.201
590.954
588.309
584.286
578.918
572.246
564.312
555.16
544.829
533.357
520.776
507.11
510.161
529.643
547.504
563.71
578.233
591.059
602.189
611.651
619.509
625.877
630.929
634.918
638.179
641.126
644.224
647.934
652.629
658.501
665.489
673.249
681.204
688.638
694.808
699.042
700.797
699.68
695.438
687.943
677.157
663.116
645.9
625.624
602.424
576.448
583.84
628.245
673.843
719.586
765.386
811.165
856.857
902.41
947.773
992.905
1037.77
1082.35
1126.62
1170.54
1214.09
1257.26
1300
1342.27
1384.01
1425.15
1465.58
1505.11
1543.54
1580.26
1615.11
1647.77
1677.09
16914.7
1662.63
1614.23
1558.79
1497.79
1432.18
1362.67
1289.88
1214.41
1136.94
1058.28
979.223
900.902
825.386
755.304
693.556
642.89
605.165
580.57
567.386
562.628
563.127
566.316
570.419
574.349
577.507
579.586
580.438
579.999
578.25
575.195
570.852
565.244
558.399
550.344
541.108
530.72
519.205
506.588
509.417
527.415
543.796
558.528
571.589
582.972
592.686
600.768
607.29
612.372
616.195
619.015
621.166
623.06
625.155
627.904
631.672
636.649
642.772
649.704
656.876
663.581
669.083
672.713
673.93
672.337
667.678
659.817
648.708
634.377
616.896
596.368
572.916
546.678
546.404
583.11
628.982
675.213
721.713
768.404
815.219
862.093
908.976
955.822
1002.59
1049.24
1095.73
1142.03
1188.08
1233.84
1279.26
1324.26
1368.75
1412.61
1455.67
1497.71
1538.41
1577
1613.66
1647.24
1676.67
17978.7
1656.04
1603.95
1545.46
1481.66
1413.4
1341.42
1266.36
1188.92
1109.84
1030.02
950.269
871.885
797.031
728.329
668.583
620.321
585.071
562.667
551.16
547.546
548.792
552.506
557.055
561.445
565.125
567.806
569.341
569.662
568.742
566.576
563.169
558.535
552.691
545.658
537.456
528.108
517.636
506.064
508.676
525.201
540.122
553.412
565.054
575.045
583.401
590.165
595.414
599.272
601.921
603.617
604.691
605.548
606.637
608.403
611.205
615.227
620.408
626.417
632.695
638.543
643.235
646.106
646.617
644.371
639.109
630.689
619.063
604.248
586.307
565.337
541.45
514.777
508.754
539.793
585.857
632.467
679.533
726.975
774.719
822.703
870.868
919.161
967.529
1015.92
1064.29
1112.57
1160.71
1208.63
1256.26
1303.5
1350.22
1396.27
1441.44
1485.47
1527.9
1568.02
1605.78
1639.82
1668.64
17526.4
1642.09
1587.24
1526.43
1460.56
1390.44
1316.78
1240.28
1161.66
1081.75
1001.45
921.621
843.683
769.879
702.81
645.182
599.324
566.472
546.159
536.253
533.745
535.722
539.947
544.913
549.708
553.832
557.017
559.128
560.096
559.889
558.497
555.918
552.158
547.228
541.139
533.909
525.553
516.092
505.546
507.936
522.994
536.465
548.327
558.566
567.186
574.206
579.673
583.668
586.317
587.804
588.383
588.383
588.2
588.279
589.052
590.873
593.919
598.128
603.175
608.504
613.427
617.221
619.231
618.918
615.888
609.882
600.757
588.46
573.005
554.451
532.887
508.422
481.175
470.857
497.768
543.94
590.824
638.327
686.366
734.867
783.761
832.983
882.472
932.166
982.002
1031.92
1081.84
1131.68
1181.37
1230.8
1279.84
1328.34
1376.12
1422.95
1468.52
1512.32
1553.69
1592.5
1627.45
3166
16092.1
1622.4
1565.66
1503.24
1435.98
1364.65
1289.97
1212.67
1133.5
1053.31
973.047
893.571
816.437
743.919
678.591
623.064
579.487
548.842
530.415
521.94
520.429
523.086
527.81
533.198
538.411
542.984
546.671
549.341
550.928
551.399
550.738
548.939
546.004
541.939
536.751
530.451
523.055
514.577
505.037
507.201
520.8
532.832
543.279
552.133
559.397
565.098
569.285
572.042
573.496
573.832
573.301
572.227
571.001
570.059
569.824
570.64
572.681
575.883
579.921
584.247
588.178
590.999
592.061
590.829
586.911
580.052
570.106
557.022
540.811
521.528
499.258
474.106
446.188
432.698
456.655
502.851
549.904
597.72
646.214
695.309
744.93
795.006
845.467
896.244
947.263
998.446
1049.71
1100.96
1152.1
1202.99
1253.51
1303.47
1352.68
1400.88
1447.74
1492.74
1535.22
1575.1
1611.15
5730.87
13787.3
1597.64
1540.03
1476.79
1408.8
1336.86
1261.72
1184.12
1104.86
1024.83
944.95
866.142
790.041
718.946
655.401
601.93
560.518
531.928
515.24
508.088
507.513
510.829
516.052
521.869
527.503
532.524
536.701
539.912
542.093
543.21
543.245
542.19
540.043
536.805
532.482
527.082
520.615
513.094
504.538
506.469
518.618
529.22
538.26
545.735
551.653
556.043
558.956
560.479
560.74
559.924
558.28
556.127
553.85
551.876
550.62
550.416
551.433
553.602
556.6
559.884
562.775
564.567
564.615
562.391
557.507
549.709
538.857
524.896
507.838
487.739
464.681
438.765
410.104
394.274
416.136
462.275
509.399
557.415
606.236
655.778
705.963
756.715
807.956
859.608
911.589
963.81
1016.18
1068.58
1120.91
1173.02
1224.76
1275.94
1326.35
1375.7
1423.67
1469.7
1513.15
1553.96
1590.85
8031.27
11570.3
1569.52
1511.63
1448.11
1379.89
1307.79
1232.6
1155.1
1076.1
996.532
917.305
839.373
764.448
694.844
633.073
581.576
542.193
515.492
500.389
494.447
494.746
498.699
504.426
510.691
516.766
522.251
526.929
530.686
533.459
535.214
535.933
535.605
534.226
531.795
528.314
523.789
518.229
511.645
504.05
505.742
516.447
525.625
533.266
539.368
543.945
547.026
548.669
548.959
548.027
546.057
543.294
540.055
536.719
533.701
531.411
530.172
530.145
531.259
533.19
535.398
537.21
537.927
536.909
533.636
527.725
518.925
507.098
492.195
474.226
453.247
429.341
402.607
373.155
355.595
375.981
421.984
469.091
517.204
566.234
616.095
666.702
717.975
769.83
822.182
874.939
928.006
981.275
1034.63
1087.95
1141.07
1193.83
1246.04
1297.45
1347.79
1396.7
1443.62
1487.91
1529.48
1567.05
9993.25
9706.46
1539.23
1481.39
1417.92
1349.79
1277.87
1202.96
1125.85
1047.39
968.517
890.127
813.212
739.558
671.477
611.446
561.831
524.34
499.382
485.732
480.908
482.034
486.613
492.853
499.584
506.122
512.089
517.284
521.595
524.964
527.358
528.756
529.146
528.524
526.885
524.231
520.565
515.894
510.225
503.573
505.018
514.286
522.046
528.291
533.024
536.261
538.036
538.407
537.462
535.334
532.203
528.316
523.983
519.577
515.506
512.17
509.882
508.797
508.838
509.681
510.787
511.49
511.096
508.973
504.606
497.62
487.769
474.92
459.024
440.097
418.194
393.399
365.811
335.539
316.679
336.017
381.814
428.821
476.939
526.076
576.142
627.05
678.712
731.041
783.944
837.324
891.075
945.085
999.228
1053.36
1107.33
1160.96
1214.03
1266.31
1317.49
1367.23
1414.93
1459.97
1502.23
1540.42
11646.8
8146.93
1507.43
1449.85
1386.69
1318.92
1247.44
1173.04
1096.55
1018.83
940.816
863.403
787.615
715.292
648.738
590.397
542.565
506.834
483.475
471.16
467.372
469.284
474.48
481.245
488.464
495.489
501.962
507.692
512.575
516.552
519.59
521.67
522.778
522.908
522.055
520.218
517.399
513.602
508.834
503.105
504.297
512.133
518.479
523.332
526.697
528.595
529.063
528.16
525.978
522.647
518.352
513.332
507.898
502.413
497.28
492.887
489.539
487.383
486.336
486.073
486.057
485.626
484.092
480.833
475.34
467.244
456.306
442.397
425.475
405.556
382.699
356.988
328.524
297.415
277.551
296.122
341.649
388.483
436.524
485.678
535.851
586.954
638.894
691.578
744.909
798.783
853.089
907.705
962.499
1017.32
1072.01
1126.37
1180.19
1233.22
1285.15
1335.63
1384.04
1429.76
1472.69
1511.52
13008
6885.83
1474.64
1417.46
1354.77
1287.56
1216.69
1142.99
1067.29
990.457
913.441
837.113
762.532
691.573
626.533
569.824
523.675
489.579
467.692
456.601
453.778
456.443
462.253
469.557
477.285
484.821
491.825
498.113
503.584
508.183
511.877
514.645
516.475
517.358
517.288
516.262
514.281
511.348
507.466
502.646
503.578
509.987
514.922
518.384
520.383
520.941
520.1
517.921
514.496
509.96
504.492
498.335
491.79
485.219
479.015
473.557
469.14
465.902
463.756
462.373
461.218
459.634
456.94
452.52
445.876
436.644
424.592
409.599
391.625
370.691
346.861
320.219
290.867
258.915
238.237
256.213
301.411
348.007
395.899
444.992
495.188
546.396
598.519
651.459
705.115
759.377
814.128
869.242
924.578
979.982
1035.28
1090.28
1144.76
1198.46
1251.07
1302.22
1351.29
1397.68
1441.27
1480.76
14117.4
5862.9
1441.12
1384.47
1322.39
1255.86
1185.76
1112.91
1038.14
962.311
886.39
811.228
737.907
668.33
604.783
549.646
505.088
472.512
451.979
442.011
440.084
443.473
449.894
457.752
466.013
474.086
481.644
488.511
494.59
499.828
504.19
507.657
510.215
511.854
512.567
512.351
511.203
509.125
506.12
502.194
502.861
507.846
511.373
513.445
514.077
513.295
511.142
507.684
503.013
497.265
490.62
483.318
475.657
467.993
460.711
454.18
448.687
444.359
441.104
438.589
436.283
433.531
429.66
424.062
416.247
405.86
392.677
376.581
357.54
335.579
310.764
283.183
252.94
220.146
198.765
216.235
261.052
307.352
355.033
403.996
454.143
505.378
557.603
610.716
664.609
719.171
774.279
829.801
885.591
941.49
997.321
1052.88
1107.95
1162.25
1215.48
1267.26
1316.97
1364.01
1408.27
1448.44
14972.1
5065.2
1407.09
1351.06
1289.7
1223.98
1154.76
1082.87
1009.13
934.401
859.65
785.711
713.686
645.496
583.414
529.79
486.74
455.593
436.323
427.384
426.261
430.348
437.384
445.811
454.627
463.26
471.396
478.864
485.571
491.464
496.509
500.686
503.981
506.381
507.88
508.473
508.155
506.927
504.79
501.748
502.146
505.71
507.829
508.512
507.777
505.653
502.187
497.445
491.525
484.56
476.733
468.28
459.497
450.734
442.367
434.758
428.182
422.758
418.386
414.732
411.264
407.333
402.272
395.484
386.484
374.929
360.602
343.392
323.275
300.279
274.475
245.955
214.824
181.193
159.163
176.157
220.546
266.499
313.912
362.686
412.722
463.918
516.175
569.388
623.447
678.234
733.623
789.479
845.653
901.979
958.275
1014.34
1069.93
1124.78
1178.59
1230.97
1281.3
1329
1373.96
1414.92
15892
4327.93
1372.61
1317.31
1256.79
1191.98
1123.75
1052.91
980.278
906.727
833.202
760.529
689.822
623.009
562.351
510.168
468.534
438.724
420.671
412.744
412.345
417.096
424.738
433.74
443.125
452.337
461.07
469.158
476.51
483.074
488.816
493.715
497.755
500.925
503.214
504.617
505.129
504.748
503.473
501.306
501.432
503.576
504.289
503.583
501.48
498.012
493.229
487.201
480.027
471.842
462.827
453.218
443.309
433.441
423.986
415.293
407.629
401.103
395.609
390.809
386.172
381.053
374.795
366.805
356.613
343.881
328.402
310.073
288.874
264.843
238.051
208.595
176.582
142.126
119.459
135.965
179.884
225.444
272.541
321.074
370.941
422.042
474.271
527.522
581.682
636.631
692.24
748.369
804.865
861.559
918.265
974.774
1030.85
1086.22
1140.58
1193.53
1244.48
1292.82
1338.46
1380.15
16394.4
3886.41
1337.89
1283.39
1223.77
1159.95
1092.78
1023.07
951.621
879.3
807.045
735.669
666.292
600.842
541.563
490.746
450.423
421.826
404.89
397.982
398.32
403.718
411.957
421.536
431.499
441.303
450.649
459.375
467.389
474.64
481.093
486.727
491.523
495.47
498.557
500.775
502.118
502.582
502.166
500.869
500.719
501.443
500.75
498.655
495.182
490.369
484.267
476.949
468.517
459.107
448.901
438.132
427.09
416.114
405.565
395.785
387.03
379.399
372.778
366.827
361.015
354.703
347.24
338.043
326.652
312.738
296.103
276.653
254.374
229.308
201.533
171.148
138.265
102.998
100
100
139.07
184.197
230.934
279.179
328.829
379.78
431.928
485.163
539.368
594.423
650.194
706.539
763.302
820.312
877.38
934.294
990.815
1046.67
1101.54
1155.05
1206.59
1255.56
1301.88
1344.3
16752.5
3611.36
1302.98
1249.34
1190.69
1127.94
1061.9
993.374
923.163
852.117
781.168
711.116
643.078
578.977
521.034
471.51
432.4
404.898
388.94
382.964
384.111
390.165
399
409.162
419.715
430.128
440.106
449.488
458.184
466.139
473.32
479.703
485.269
490.004
493.895
496.934
499.112
500.424
500.865
500.434
500.006
499.312
497.212
493.726
488.882
482.72
475.297
466.687
456.993
446.354
434.951
423.018
410.841
398.752
387.107
376.236
366.386
357.646
349.895
342.79
335.799
328.289
319.616
309.209
296.615
281.517
263.725
243.154
219.797
193.702
164.952
133.65
100
100
100
100
100
142.776
189.113
237.027
286.415
337.171
389.187
442.354
496.553
551.66
607.541
664.051
721.031
778.31
835.695
892.972
949.902
1006.21
1061.57
1115.62
1167.74
1217.32
1264.32
1307.46
16942.7
3490.12
1267.88
1215.19
1157.59
1095.96
1031.11
963.829
894.897
825.164
755.551
686.844
620.154
557.387
500.744
452.455
414.482
387.988
372.869
367.627
369.598
376.328
385.782
396.552
407.722
418.77
429.405
439.468
448.866
457.547
465.475
472.624
478.974
484.51
489.217
493.085
496.104
498.266
499.566
500
500.006
499.312
497.212
493.726
488.882
482.72
475.296
466.686
456.992
446.353
434.95
423.017
410.84
398.751
387.105
376.234
366.384
357.644
349.893
342.787
335.796
328.286
319.613
309.206
296.612
281.513
263.721
243.15
219.793
193.698
164.948
133.646
100
100
100
100
100
142.773
189.11
237.025
286.412
337.168
389.185
442.352
496.552
551.659
607.54
664.05
721.031
778.309
835.694
892.972
949.902
1006.21
1061.57
1115.62
1167.74
1217.33
1264.32
1307.47
16942.7
3490.06
1267.88
1215.19
1157.59
1095.96
1031.11
963.829
894.898
825.165
755.551
686.844
620.154
557.387
500.744
452.455
414.482
387.988
372.869
367.627
369.598
376.327
385.782
396.552
407.722
418.77
429.405
439.467
448.866
457.547
465.475
472.624
478.974
484.51
489.217
493.085
496.104
498.266
499.566
500
500.719
501.443
500.75
498.654
495.181
490.367
484.265
476.948
468.515
459.105
448.898
438.129
427.088
416.111
405.562
395.781
387.026
379.394
372.773
366.822
361.01
354.697
347.234
338.037
326.645
312.731
296.095
276.645
254.365
229.299
201.524
171.14
138.256
102.989
100
100
139.064
184.191
230.929
279.174
328.824
379.776
431.925
485.159
539.366
594.42
650.192
706.537
763.3
820.311
877.379
934.293
990.815
1046.67
1101.54
1155.06
1206.59
1255.56
1301.88
1344.3
16752.6
3611.21
1302.98
1249.34
1190.69
1127.94
1061.9
993.375
923.163
852.118
781.169
711.117
643.079
578.978
521.035
471.51
432.401
404.898
388.94
382.963
384.111
390.164
399
409.161
419.715
430.128
440.106
449.488
458.183
466.139
473.32
479.703
485.269
490.004
493.895
496.934
499.112
500.424
500.865
500.434
501.432
503.575
504.288
503.582
501.479
498.011
493.228
487.199
480.025
471.839
462.824
453.215
443.306
433.438
423.982
415.289
407.625
401.099
395.604
390.804
386.166
381.047
374.788
366.799
356.606
343.873
328.394
310.064
288.866
264.834
238.042
208.585
176.572
142.116
119.452
135.959
179.879
225.439
272.537
321.07
370.938
422.038
474.268
527.52
581.68
636.63
692.239
748.368
804.864
861.558
918.265
974.774
1030.85
1086.22
1140.58
1193.53
1244.48
1292.82
1338.46
1380.15
16394.7
3886.15
1337.9
1283.39
1223.77
1159.95
1092.78
1023.07
951.622
879.301
807.046
735.67
666.293
600.843
541.564
490.746
450.423
421.826
404.89
397.981
398.319
403.718
411.957
421.536
431.498
441.302
450.648
459.374
467.389
474.639
481.093
486.726
491.523
495.47
498.557
500.775
502.118
502.582
502.166
500.869
502.146
505.709
507.828
508.512
507.776
505.652
502.185
497.443
491.523
484.558
476.73
468.277
459.494
450.731
442.364
434.754
428.178
422.753
418.381
414.727
411.258
407.327
402.266
395.477
386.477
374.921
360.593
343.384
323.265
300.27
274.466
245.945
214.813
181.183
159.155
176.153
220.542
266.495
313.909
362.684
412.719
463.916
516.174
569.387
623.446
678.233
733.623
789.479
845.653
901.979
958.275
1014.34
1069.93
1124.78
1178.59
1230.97
1281.31
1329
1373.96
1414.93
15892.5
4327.53
1372.61
1317.31
1256.79
1191.98
1123.75
1052.91
980.278
906.728
833.203
760.529
689.822
623.01
562.352
510.169
468.535
438.724
420.67
412.744
412.345
417.095
424.737
433.74
443.125
452.336
461.069
469.158
476.51
483.074
488.816
493.715
497.755
500.924
503.214
504.617
505.129
504.748
503.473
501.306
502.861
507.846
511.372
513.445
514.076
513.294
511.141
507.682
503.011
497.263
490.618
483.315
475.654
467.99
460.707
454.176
448.683
444.355
441.099
438.584
436.277
433.525
429.653
424.055
416.239
405.852
392.668
376.572
357.53
335.569
310.753
283.173
252.929
220.135
198.757
216.232
261.049
307.349
355.031
403.994
454.142
505.377
557.602
610.715
664.609
719.172
774.28
829.801
885.592
941.491
997.322
1052.89
1107.95
1162.25
1215.48
1267.26
1316.98
1364.02
1408.27
1448.44
14972.6
5064.66
1407.09
1351.06
1289.7
1223.98
1154.76
1082.87
1009.13
934.402
859.651
785.711
713.687
645.497
583.414
529.79
486.74
455.593
436.323
427.384
426.261
430.347
437.383
445.81
454.626
463.26
471.396
478.864
485.571
491.463
496.509
500.686
503.98
506.381
507.88
508.472
508.155
506.927
504.79
501.748
503.578
509.987
514.922
518.384
520.382
520.94
520.098
517.919
514.494
509.957
504.49
498.332
491.787
485.216
479.011
473.553
469.136
465.898
463.751
462.368
461.212
459.628
456.933
452.513
445.868
436.635
424.583
409.589
391.614
370.681
346.85
320.208
290.856
258.903
238.23
256.211
301.409
348.006
395.899
444.991
495.188
546.396
598.519
651.46
705.116
759.378
814.13
869.244
924.58
979.984
1035.28
1090.28
1144.76
1198.46
1251.07
1302.22
1351.3
1397.68
1441.27
1480.76
14118.1
5862.25
1441.11
1384.47
1322.39
1255.86
1185.76
1112.91
1038.14
962.311
886.391
811.228
737.908
668.33
604.784
549.647
505.088
472.512
451.979
442.011
440.083
443.473
449.894
457.751
466.012
474.085
481.643
488.51
494.59
499.827
504.19
507.657
510.215
511.854
512.567
512.351
511.203
509.125
506.12
502.194
504.297
512.133
518.479
523.331
526.696
528.594
529.061
528.158
525.976
522.645
518.349
513.33
507.894
502.41
497.276
492.883
489.535
487.378
486.331
486.068
486.051
485.62
484.086
480.826
475.332
467.236
456.297
442.388
425.464
405.544
382.687
356.976
328.512
297.402
277.544
296.121
341.649
388.483
436.525
485.679
535.852
586.955
638.896
691.58
744.911
798.786
853.091
907.708
962.501
1017.32
1072.01
1126.37
1180.19
1233.22
1285.15
1335.63
1384.04
1429.77
1472.69
1511.52
13008.7
6885.04
1474.63
1417.46
1354.77
1287.55
1216.68
1142.99
1067.29
990.457
913.441
837.114
762.533
691.574
626.534
569.825
523.675
489.579
467.692
456.601
453.778
456.443
462.252
469.556
477.285
484.821
491.825
498.112
503.583
508.182
511.876
514.645
516.475
517.358
517.288
516.262
514.281
511.348
507.466
502.646
505.018
514.286
522.046
528.291
533.023
536.26
538.035
538.405
537.46
535.332
532.201
528.313
523.98
519.573
515.503
512.166
509.878
508.792
508.833
509.676
510.782
511.484
511.089
508.965
504.598
497.611
487.76
474.909
459.013
440.085
418.182
393.386
365.798
335.525
316.673
336.017
381.815
428.823
476.941
526.078
576.144
627.053
678.715
731.044
783.948
837.327
891.079
945.089
999.231
1053.37
1107.34
1160.96
1214.04
1266.31
1317.49
1367.23
1414.94
1459.97
1502.23
1540.42
11647.7
8145.85
1507.43
1449.85
1386.69
1318.92
1247.43
1173.04
1096.55
1018.83
940.817
863.404
787.616
715.293
648.738
590.398
542.565
506.834
483.475
471.159
467.371
469.283
474.479
481.245
488.464
495.488
501.962
507.692
512.574
516.551
519.59
521.67
522.778
522.908
522.055
520.218
517.399
513.602
508.834
503.105
505.742
516.447
525.625
533.266
539.368
543.944
547.025
548.667
548.957
548.025
546.054
543.291
540.052
536.715
533.698
531.407
530.167
530.14
531.254
533.185
535.393
537.204
537.92
536.902
533.628
527.716
518.915
507.087
492.183
474.214
453.234
429.328
402.593
373.14
355.588
375.983
421.987
469.094
517.208
566.238
616.099
666.707
717.98
769.835
822.187
874.944
928.011
981.28
1034.64
1087.95
1141.07
1193.84
1246.04
1297.45
1347.79
1396.7
1443.62
1487.91
1529.48
1567.05
9995.51
9704.77
1539.22
1481.38
1417.92
1349.79
1277.87
1202.95
1125.85
1047.39
968.517
890.127
813.212
739.559
671.477
611.447
561.832
524.34
499.382
485.732
480.908
482.033
486.612
492.853
499.584
506.121
512.089
517.283
521.595
524.964
527.358
528.755
529.146
528.524
526.885
524.231
520.565
515.894
510.225
503.573
506.469
518.618
529.219
538.26
545.734
551.652
556.041
558.955
560.477
560.738
559.922
558.277
556.124
553.847
551.872
550.616
550.412
551.428
553.597
556.595
559.879
562.769
564.56
564.607
562.382
557.498
549.699
538.845
524.884
507.825
487.725
464.667
438.75
410.088
394.268
416.14
462.279
509.404
557.42
606.241
655.784
705.969
756.721
807.962
859.614
911.595
963.817
1016.18
1068.59
1120.92
1173.03
1224.77
1275.95
1326.35
1375.71
1423.68
1469.71
1513.16
1553.96
1590.85
8033.2
11569
1569.51
1511.63
1448.11
1379.89
1307.79
1232.6
1155.1
1076.1
996.533
917.307
839.374
764.449
694.845
633.074
581.577
542.193
515.492
500.389
494.446
494.745
498.698
504.426
510.691
516.766
522.251
526.929
530.686
533.459
535.214
535.933
535.605
534.226
531.795
528.314
523.789
518.229
511.645
504.05
507.201
520.8
532.832
543.279
552.132
559.396
565.097
569.284
572.04
573.494
573.829
573.298
572.224
570.998
570.055
569.82
570.636
572.677
575.879
579.916
584.242
588.172
590.993
592.053
590.82
586.902
580.041
570.095
557.01
540.797
521.513
499.243
474.09
446.171
432.692
456.661
502.858
549.911
597.727
646.222
695.317
744.938
795.014
845.476
896.252
947.271
998.454
1049.72
1100.97
1152.1
1203
1253.51
1303.48
1352.68
1400.88
1447.74
1492.74
1535.22
1575.1
1611.15
5730.69
13787.3
1597.63
1540.02
1476.77
1408.79
1336.85
1261.71
1184.12
1104.86
1024.83
944.952
866.146
790.045
718.948
655.402
601.931
560.519
531.928
515.24
508.088
507.513
510.828
516.052
521.869
527.503
532.524
536.701
539.912
542.093
543.21
543.245
542.19
540.043
536.805
532.482
527.082
520.615
513.094
504.538
507.936
522.994
536.465
548.326
558.566
567.185
574.205
579.672
583.666
586.315
587.802
588.381
588.38
588.197
588.275
589.049
590.869
593.914
598.124
603.17
608.499
613.421
617.214
619.223
618.909
615.878
609.871
600.744
588.447
572.991
554.436
532.871
508.404
481.157
470.852
497.777
543.949
590.833
638.337
686.376
734.877
783.771
832.993
882.482
932.176
982.012
1031.93
1081.84
1131.69
1181.38
1230.8
1279.84
1328.35
1376.13
1422.96
1468.52
1512.32
1553.69
1592.51
1627.45
3165.89
16092.1
1622.39
1565.66
1503.24
1435.98
1364.65
1289.97
1212.66
1133.49
1053.31
973.036
893.563
816.431
743.917
678.592
623.065
579.488
548.843
530.416
521.941
520.429
523.086
527.81
533.198
538.411
542.984
546.671
549.341
550.928
551.399
550.738
548.939
546.005
541.939
536.751
530.451
523.055
514.577
505.037
508.676
525.201
540.122
553.411
565.053
575.044
583.401
590.164
595.413
599.27
601.919
603.614
604.688
605.545
606.634
608.4
611.201
615.223
620.403
626.412
632.69
638.537
643.228
646.098
646.608
644.361
639.097
630.676
619.049
604.232
586.291
565.319
541.432
514.757
508.748
539.803
585.868
632.478
679.545
726.987
774.732
822.715
870.88
919.173
967.541
1015.93
1064.3
1112.58
1160.72
1208.64
1256.27
1303.51
1350.23
1396.28
1441.45
1485.47
1527.9
1568.03
1605.78
1639.82
1668.64
17526
1642.08
1587.24
1526.42
1460.56
1390.43
1316.77
1240.28
1161.66
1081.75
1001.45
921.62
843.686
769.882
702.812
645.183
599.325
566.472
546.159
536.253
533.745
535.723
539.948
544.913
549.709
553.832
557.018
559.128
560.096
559.889
558.497
555.918
552.158
547.228
541.14
533.909
525.553
516.092
505.546
509.417
527.415
543.796
558.527
571.589
582.972
592.686
600.767
607.289
612.37
616.193
619.012
621.164
623.057
625.152
627.9
631.669
636.645
642.768
649.7
656.871
663.575
669.076
672.705
673.921
672.327
667.666
659.803
648.693
634.361
616.878
596.349
572.896
546.657
546.4
583.124
628.997
675.228
721.728
768.42
815.234
862.108
908.991
955.837
1002.6
1049.25
1095.74
1142.04
1188.09
1233.86
1279.27
1324.27
1368.76
1412.62
1455.68
1497.71
1538.42
1577.01
1613.66
1647.24
1676.66
17978.4
1656.03
1603.94
1545.45
1481.65
1413.4
1341.41
1266.36
1188.91
1109.84
1030.02
950.268
871.881
797.027
728.327
668.582
620.322
585.072
562.668
551.161
547.547
548.793
552.506
557.056
561.446
565.126
567.806
569.341
569.662
568.742
566.576
563.169
558.535
552.691
545.658
537.456
528.108
517.636
506.064
510.161
529.643
547.504
563.71
578.233
591.059
602.188
611.65
619.508
625.875
630.927
634.916
638.177
641.124
644.221
647.93
652.625
658.498
665.485
673.244
681.199
688.632
694.801
699.034
700.788
699.669
695.426
687.928
677.142
663.099
645.881
625.604
602.402
576.425
583.836
628.262
673.86
719.604
765.403
811.182
856.874
902.427
947.79
992.922
1037.79
1082.37
1126.63
1170.55
1214.11
1257.27
1300.01
1342.28
1384.02
1425.16
1465.58
1505.12
1543.55
1580.27
1615.11
1647.77
1677.09
16915.8
1662.63
1614.22
1558.79
1497.79
1432.18
1362.67
1289.88
1214.41
1136.94
1058.28
979.22
900.9
825.385
755.303
693.556
642.891
605.166
580.571
567.387
562.629
563.128
566.317
570.42
574.349
577.508
579.587
580.439
580
578.25
575.196
570.852
565.245
558.399
550.344
541.108
530.72
519.205
506.588
510.897
531.848
551.188
568.881
584.89
599.191
611.772
622.651
631.879
639.56
645.862
651.036
655.417
659.426
663.535
668.213
673.839
680.606
688.443
696.999
705.68
713.757
720.479
725.169
727.288
726.446
722.402
715.037
704.331
690.33
673.131
652.862
629.675
612.767
630.454
675.684
720.927
766.078
811.047
855.756
900.144
944.16
987.763
1030.92
1073.6
1115.78
1157.46
1198.62
1239.25
1279.36
1318.92
1357.92
1396.36
1434.18
1471.34
1507.74
1543.21
1577.3
1609.86
1640.74
1668.93
14065.6
4217.45
1618.18
1565.35
1507.52
1445.31
1379.23
1309.73
1237.28
1162.43
1085.89
1008.38
930.875
855.274
784.178
720.572
667.436
627.008
599.914
584.754
578.624
578.237
580.835
584.473
587.944
590.586
592.058
592.201
590.954
588.31
584.286
578.918
572.246
564.312
555.16
544.829
533.357
520.776
507.11
511.631
534.077
554.961
574.239
591.867
607.808
622.036
634.546
645.371
654.592
662.358
668.902
674.547
679.706
684.852
690.458
696.914
704.417
712.899
721.998
731.114
739.513
746.443
751.237
753.363
752.445
748.256
740.692
729.746
715.481
698.008
677.472
654.038
649.998
681.1
726.131
770.913
815.342
859.327
902.795
945.687
987.955
1029.56
1070.49
1110.71
1150.2
1188.97
1227.02
1264.35
1300.96
1336.88
1372.1
1406.64
1440.51
1473.68
1506.14
1537.81
1568.36
1597.67
1625.74
1651.8
10688.6
7687.55
1614.27
1564.38
1510.21
1452.06
1390.19
1324.86
1256.39
1185.18
1111.77
1036.83
961.143
886.369
815.038
750.181
694.997
652.124
622.681
605.651
598.244
597.033
599.028
602.088
604.883
606.704
607.209
606.262
603.827
599.925
594.599
587.907
579.909
570.668
560.242
548.683
536.039
522.345
507.624
512.317
536.138
558.467
579.268
598.482
616.047
631.909
646.035
658.426
669.142
678.321
686.195
693.095
699.441
705.683
712.274
719.598
727.851
736.963