/*--------------------------------*- C++ -*----------------------------------*\
  =========                 |
  \\      /  F ield         | OpenFOAM: The Open Source CFD Toolbox
   \\    /   O peration     | Website:  https://openfoam.org
    \\  /    A nd           | Version:  8
     \\/     M anipulation  |
\*---------------------------------------------------------------------------*/
FoamFile
{
    version     2.0;
    format      ascii;
    class       volScalarField;
    location    "700/fluid";
    object      rho;
}
// * * * * * * * * * * * * * * * * * * * * * * * * * * * * * * * * * * * * * //

dimensions      [1 -3 0 0 0 0 0];

internalField   nonuniform List<scalar> 
4000
(
0.658526
0.658499
0.658454
0.65838
0.658255
0.658047
0.657706
0.65715
0.656251
0.654822
0.652582
0.649146
0.644001
0.636528
0.626064
0.612027
0.594101
0.572403
0.547553
0.52059
0.492735
0.465143
0.438711
0.414016
0.391341
0.370746
0.352149
0.335393
0.320288
0.30664
0.294267
0.283008
0.272724
0.263298
0.254634
0.246632
0.23919
0.232245
0.225746
0.219651
0.213922
0.208528
0.203443
0.198642
0.194109
0.189826
0.18578
0.181961
0.178359
0.174968
0.171783
0.168802
0.166025
0.163455
0.1611
0.158971
0.157087
0.155497
0.154228
0.153289
0.152795
0.152863
0.154198
0.163086
0.173591
0.185931
0.200402
0.217398
0.237434
0.261183
0.289517
0.323562
0.364762
0.415074
0.476873
0.552329
0.642576
0.745986
0.855965
0.960552
1.04672
1.1075
1.14469
1.16489
1.175
1.17982
1.18205
1.18305
1.18349
1.18368
1.18376
1.1838
1.18381
1.18382
1.18382
1.18382
1.18382
1.18382
1.18382
1.18382
0.658526
0.658499
0.658454
0.658379
0.658254
0.658045
0.657702
0.657142
0.656239
0.654805
0.652563
0.649133
0.644015
0.636604
0.626254
0.612399
0.594721
0.573315
0.548762
0.52205
0.494369
0.466857
0.440421
0.415656
0.392867
0.372135
0.353395
0.336499
0.321261
0.307492
0.295011
0.283655
0.273284
0.263782
0.255048
0.246988
0.239493
0.232501
0.225961
0.219829
0.214066
0.208642
0.203529
0.198704
0.194149
0.189846
0.185782
0.181947
0.178331
0.174928
0.171732
0.168742
0.165957
0.16338
0.161019
0.158885
0.156997
0.155404
0.154134
0.153194
0.1527
0.152773
0.154884
0.16394
0.174646
0.187231
0.202011
0.219401
0.239945
0.264354
0.293554
0.328736
0.371434
0.42373
0.488037
0.566414
0.659581
0.765006
0.874875
0.976579
1.05799
1.11409
1.14796
1.16635
1.17561
1.18006
1.18214
1.18308
1.1835
1.18368
1.18376
1.1838
1.18381
1.18382
1.18382
1.18382
1.18382
1.18382
1.18382
1.18382
0.658526
0.658499
0.658454
0.658379
0.658252
0.658043
0.657698
0.657136
0.656231
0.654793
0.652551
0.649126
0.644027
0.63666
0.626395
0.612673
0.59518
0.574001
0.549691
0.523207
0.495708
0.468315
0.441931
0.417159
0.394318
0.373504
0.354664
0.33766
0.322314
0.308439
0.295858
0.284408
0.273951
0.264368
0.25556
0.247433
0.239879
0.232831
0.22624
0.22006
0.214254
0.20879
0.20364
0.198781
0.194194
0.189862
0.185773
0.181914
0.178277
0.174855
0.171642
0.168637
0.165839
0.163252
0.160882
0.158741
0.156847
0.155254
0.153985
0.153048
0.152566
0.152653
0.156126
0.165411
0.176408
0.18936
0.204598
0.222564
0.243834
0.269161
0.29952
0.336163
0.380699
0.435286
0.50226
0.583394
0.678804
0.785001
0.893291
0.991123
1.06772
1.11967
1.1508
1.16768
1.1762
1.18031
1.18224
1.18312
1.18352
1.18369
1.18377
1.1838
1.18381
1.18382
1.18382
1.18382
1.18382
1.18382
1.18382
1.18382
0.658526
0.658499
0.658454
0.658378
0.658252
0.658043
0.657699
0.657138
0.656236
0.654807
0.65258
0.649184
0.644132
0.636842
0.626686
0.613113
0.595803
0.574826
0.550714
0.524398
0.49702
0.469693
0.443322
0.41852
0.395618
0.374725
0.355795
0.338698
0.323259
0.309295
0.296628
0.285098
0.274566
0.264912
0.256038
0.24785
0.24024
0.23314
0.2265
0.220274
0.214425
0.208921
0.203733
0.198839
0.194218
0.189857
0.185739
0.181855
0.178195
0.174752
0.171522
0.168501
0.16569
0.163092
0.160713
0.158567
0.156672
0.155084
0.153824
0.152899
0.152431
0.152545
0.157702
0.167239
0.178563
0.191931
0.20769
0.226304
0.24838
0.27471
0.306315
0.344499
0.390949
0.447878
0.517507
0.601318
0.69882
0.80561
0.912188
1.00612
1.07792
1.1257
1.15398
1.16923
1.17691
1.18063
1.18238
1.18318
1.18354
1.1837
1.18377
1.1838
1.18381
1.18382
1.18382
1.18382
1.18382
1.18382
1.18382
1.18382
0.658526
0.658499
0.658454
0.658379
0.658253
0.658045
0.657702
0.657144
0.656247
0.654826
0.652615
0.649245
0.644237
0.637012
0.626951
0.613504
0.596348
0.57554
0.551593
0.525418
0.49814
0.470866
0.444504
0.419675
0.396722
0.37576
0.356753
0.339576
0.324058
0.310018
0.297279
0.285681
0.275084
0.26537
0.256439
0.248199
0.240539
0.233394
0.22671
0.220443
0.214555
0.209013
0.20379
0.198863
0.194213
0.189823
0.185679
0.181771
0.17809
0.174628
0.171381
0.168347
0.165525
0.162919
0.160537
0.15839
0.1565
0.154927
0.15368
0.152773
0.152336
0.152506
0.159389
0.169174
0.180838
0.19464
0.210941
0.230224
0.253126
0.280474
0.313331
0.353048
0.401397
0.460609
0.532758
0.619005
0.718229
0.825148
0.929635
1.01959
1.08689
1.13093
1.15672
1.17057
1.17754
1.18092
1.18251
1.18324
1.18356
1.18371
1.18377
1.1838
1.18381
1.18382
1.18382
1.18382
1.18382
1.18382
1.18382
1.18382
0.658526
0.658499
0.658455
0.65838
0.658255
0.658048
0.657707
0.657153
0.656263
0.654854
0.652662
0.649322
0.64436
0.637202
0.627233
0.613903
0.596883
0.576218
0.552403
0.526336
0.499128
0.471885
0.445517
0.420654
0.397648
0.376622
0.357547
0.340299
0.324714
0.310608
0.297807
0.286152
0.2755
0.265735
0.256755
0.24847
0.240769
0.233584
0.226863
0.22056
0.214638
0.209063
0.20381
0.198854
0.194177
0.189763
0.185596
0.181668
0.177968
0.17449
0.171231
0.168187
0.165359
0.162751
0.160371
0.158232
0.156352
0.154799
0.153569
0.152688
0.15228
0.152486
0.160803
0.170908
0.182964
0.197234
0.214096
0.234055
0.257775
0.286119
0.320192
0.36139
0.411567
0.472947
0.547455
0.635922
0.736605
0.843419
0.94574
1.03191
1.09505
1.13571
1.15926
1.17182
1.17813
1.18119
1.18263
1.18329
1.18359
1.18372
1.18378
1.1838
1.18381
1.18382
1.18382
1.18382
1.18382
1.18382
1.18382
1.18382
0.658526
0.6585
0.658455
0.658381
0.658257
0.658051
0.657713
0.657163
0.65628
0.654882
0.652708
0.649396
0.644476
0.637379
0.627491
0.614263
0.59736
0.576815
0.553111
0.52713
0.499976
0.472751
0.446372
0.421475
0.398418
0.377334
0.358196
0.340888
0.325242
0.31108
0.298227
0.286521
0.275824
0.266015
0.256994
0.248671
0.240935
0.233716
0.226963
0.220629
0.214678
0.209076
0.203797
0.198818
0.194118
0.189682
0.185497
0.181551
0.177837
0.174348
0.171079
0.16803
0.165201
0.162596
0.160225
0.158103
0.156249
0.154743
0.153531
0.15272
0.1524
0.152708
0.161641
0.172266
0.184816
0.199604
0.217041
0.237666
0.262177
0.291474
0.326703
0.369308
0.421216
0.484627
0.561312
0.651763
0.753632
0.860097
0.960177
1.04275
1.10213
1.13982
1.16144
1.1729
1.17865
1.18142
1.18273
1.18334
1.18361
1.18373
1.18378
1.1838
1.18381
1.18382
1.18382
1.18382
1.18382
1.18382
1.18382
1.18382
0.658526
0.6585
0.658456
0.658382
0.658259
0.658054
0.657719
0.657173
0.656297
0.65491
0.652753
0.649468
0.644587
0.637544
0.627729
0.61459
0.597787
0.577343
0.553729
0.527815
0.500699
0.473483
0.447088
0.422155
0.399052
0.377914
0.358722
0.341359
0.325662
0.311452
0.298553
0.286805
0.276069
0.266223
0.257167
0.248812
0.241046
0.2338
0.227019
0.22066
0.214685
0.20906
0.20376
0.19876
0.194042
0.189589
0.185388
0.181429
0.177703
0.174205
0.170931
0.167879
0.165051
0.162453
0.160095
0.157993
0.156181
0.154727
0.153594
0.152913
0.152803
0.15347
0.162726
0.173705
0.186647
0.201878
0.219829
0.241062
0.266302
0.296481
0.332783
0.3767
0.430222
0.495506
0.574167
0.666366
0.769177
0.87513
0.973001
1.05226
1.10828
1.14337
1.16332
1.17384
1.17909
1.18163
1.18283
1.18338
1.18363
1.18374
1.18379
1.18381
1.18381
1.18382
1.18382
1.18382
1.18382
1.18382
1.18382
1.18382
0.658526
0.6585
0.658456
0.658383
0.65826
0.658057
0.657724
0.657182
0.656312
0.654935
0.652794
0.649533
0.644687
0.637692
0.62794
0.614877
0.598158
0.577799
0.554258
0.528397
0.501309
0.474096
0.447682
0.422715
0.399569
0.378384
0.359143
0.341733
0.325991
0.311739
0.298802
0.287019
0.276249
0.266372
0.257288
0.248906
0.241115
0.233844
0.227041
0.220661
0.214666
0.209023
0.203705
0.198689
0.193955
0.189488
0.185275
0.181306
0.177571
0.174067
0.170788
0.167735
0.164909
0.162317
0.159969
0.157883
0.156099
0.154673
0.153581
0.152956
0.152922
0.154389
0.163901
0.175167
0.188435
0.204048
0.222451
0.244226
0.270124
0.301105
0.338386
0.383511
0.438517
0.505509
0.585947
0.679667
0.783204
0.888521
0.984254
1.06047
1.11355
1.14639
1.16492
1.17463
1.17947
1.18181
1.18291
1.18341
1.18364
1.18374
1.18379
1.18381
1.18382
1.18382
1.18382
1.18382
1.18382
1.18382
1.18382
1.18382
0.658526
0.6585
0.658457
0.658384
0.658262
0.65806
0.657729
0.657191
0.656327
0.654959
0.652832
0.649592
0.644776
0.637823
0.628124
0.615125
0.598478
0.578188
0.554707
0.528887
0.501819
0.474604
0.44817
0.423172
0.399987
0.37876
0.359477
0.342027
0.326247
0.311959
0.298989
0.287176
0.276378
0.266475
0.257367
0.248963
0.241151
0.233861
0.22704
0.220643
0.214631
0.208973
0.20364
0.19861
0.193864
0.189387
0.185164
0.181186
0.177445
0.173936
0.170654
0.1676
0.164775
0.162186
0.159843
0.157764
0.155991
0.154576
0.153491
0.152864
0.152809
0.155411
0.165112
0.176605
0.190146
0.206085
0.224883
0.247139
0.273624
0.305327
0.343493
0.389713
0.446058
0.514584
0.596604
0.691636
0.795717
0.900327
0.994046
1.06754
1.11803
1.14895
1.16626
1.1753
1.17979
1.18195
1.18297
1.18344
1.18365
1.18375
1.18379
1.18381
1.18382
1.18382
1.18382
1.18382
1.18382
1.18382
1.18382
1.18382
0.658526
0.6585
0.658457
0.658385
0.658264
0.658063
0.657734
0.657199
0.656339
0.654979
0.652865
0.649643
0.644853
0.637935
0.628282
0.615338
0.598749
0.578517
0.555083
0.529295
0.502241
0.475021
0.448569
0.423542
0.400322
0.379058
0.359739
0.342254
0.326442
0.312125
0.299127
0.287289
0.276468
0.266543
0.257415
0.248993
0.241164
0.233858
0.227022
0.22061
0.214586
0.208915
0.203571
0.19853
0.193775
0.189289
0.185059
0.181075
0.177329
0.173816
0.170533
0.167478
0.164655
0.162068
0.159729
0.157656
0.15589
0.154481
0.1534
0.152774
0.152717
0.156405
0.166264
0.177948
0.191723
0.207947
0.227092
0.249773
0.276781
0.309127
0.348083
0.395287
0.452838
0.522733
0.606142
0.702292
0.806768
0.910639
1.00249
1.07356
1.12181
1.1511
1.16739
1.17586
1.18006
1.18208
1.18303
1.18347
1.18367
1.18375
1.18379
1.18381
1.18382
1.18382
1.18382
1.18382
1.18382
1.18382
1.18382
1.18382
0.658526
0.658501
0.658457
0.658385
0.658265
0.658065
0.657738
0.657205
0.65635
0.654997
0.652893
0.649686
0.644918
0.638031
0.628415
0.615517
0.598976
0.57879
0.555395
0.529632
0.502586
0.475361
0.448891
0.423838
0.400588
0.379293
0.359944
0.342429
0.32659
0.312247
0.299227
0.287368
0.276528
0.266586
0.257441
0.249004
0.241161
0.233842
0.226994
0.220571
0.214536
0.208855
0.203502
0.198453
0.193691
0.189198
0.184963
0.180974
0.177226
0.173711
0.170427
0.167373
0.164551
0.161968
0.159634
0.157566
0.155807
0.154404
0.153328
0.152707
0.152651
0.157283
0.167291
0.17915
0.193134
0.209609
0.22906
0.252116
0.279584
0.312497
0.352152
0.400233
0.458855
0.529955
0.614574
0.711667
0.816419
0.919559
1.00972
1.07867
1.125
1.1529
1.16834
1.17633
1.18028
1.18218
1.18308
1.18349
1.18367
1.18376
1.18379
1.18381
1.18382
1.18382
1.18382
1.18382
1.18382
1.18382
1.18382
1.18382
0.658526
0.658501
0.658458
0.658386
0.658266
0.658067
0.657741
0.657211
0.65636
0.655012
0.652917
0.649723
0.644973
0.638111
0.628527
0.615665
0.599165
0.579016
0.55565
0.529906
0.502866
0.475635
0.449148
0.424074
0.400798
0.379477
0.360101
0.342562
0.3267
0.312337
0.299298
0.287422
0.276566
0.26661
0.257452
0.249003
0.241149
0.23382
0.226962
0.22053
0.214486
0.208798
0.203438
0.198383
0.193614
0.189117
0.184878
0.180887
0.177137
0.173621
0.170338
0.167285
0.164466
0.161887
0.159559
0.157496
0.155744
0.154347
0.153277
0.15266
0.152605
0.158042
0.168184
0.180198
0.194365
0.211059
0.230777
0.254158
0.282028
0.315439
0.355708
0.404558
0.464118
0.536268
0.621928
0.719808
0.824746
0.927188
1.01584
1.08295
1.12765
1.15439
1.16912
1.17671
1.18047
1.18227
1.18312
1.18351
1.18368
1.18376
1.1838
1.18381
1.18382
1.18382
1.18382
1.18382
1.18382
1.18382
1.18382
1.18382
0.658526
0.658501
0.658458
0.658386
0.658267
0.658069
0.657744
0.657216
0.656367
0.655025
0.652936
0.649754
0.645019
0.638177
0.628619
0.615787
0.599318
0.579199
0.555858
0.530128
0.503091
0.475853
0.449352
0.424259
0.400962
0.379618
0.360221
0.342662
0.326782
0.312402
0.299348
0.287458
0.27659
0.266622
0.257454
0.248995
0.241132
0.233795
0.226929
0.22049
0.21444
0.208746
0.20338
0.198321
0.193549
0.189048
0.184807
0.180814
0.177063
0.173548
0.170266
0.167216
0.164401
0.161826
0.159501
0.157444
0.155699
0.154308
0.153243
0.152628
0.152576
0.158679
0.168943
0.181095
0.19542
0.212305
0.232252
0.255915
0.284131
0.31797
0.358768
0.408283
0.468649
0.541699
0.628244
0.726777
0.831832
0.933632
1.02097
1.08651
1.12985
1.15562
1.16976
1.17703
1.18062
1.18234
1.18315
1.18352
1.18369
1.18376
1.1838
1.18381
1.18382
1.18382
1.18382
1.18382
1.18382
1.18382
1.18382
1.18382
0.658526
0.658501
0.658458
0.658387
0.658268
0.65807
0.657746
0.65722
0.656374
0.655035
0.652953
0.649778
0.645056
0.63823
0.628693
0.615885
0.599442
0.579346
0.556023
0.530303
0.503269
0.476025
0.449512
0.424402
0.401088
0.379726
0.360312
0.342737
0.326842
0.312449
0.299383
0.287482
0.276604
0.266627
0.257451
0.248985
0.241115
0.233771
0.226899
0.220455
0.2144
0.208701
0.203332
0.19827
0.193495
0.188992
0.184749
0.180757
0.177006
0.173492
0.170212
0.167165
0.164353
0.161781
0.159462
0.157409
0.155671
0.154286
0.153224
0.152612
0.152561
0.159212
0.169581
0.18185
0.196312
0.213358
0.233499
0.257399
0.285908
0.320108
0.361354
0.411431
0.472478
0.546287
0.633571
0.732635
0.837761
0.938989
1.0252
1.08944
1.13164
1.15662
1.17028
1.17729
1.18074
1.1824
1.18318
1.18353
1.18369
1.18377
1.1838
1.18381
1.18382
1.18382
1.18382
1.18382
1.18382
1.18382
1.18382
1.18382
0.658526
0.658501
0.658459
0.658387
0.658268
0.658072
0.657748
0.657223
0.656379
0.655043
0.652966
0.649798
0.645086
0.638273
0.628751
0.615962
0.599539
0.579461
0.556152
0.53044
0.503406
0.476157
0.449635
0.424512
0.401183
0.379807
0.360379
0.342792
0.326885
0.312482
0.299406
0.287497
0.276611
0.266628
0.257446
0.248974
0.241099
0.23375
0.226874
0.220426
0.214368
0.208666
0.203294
0.19823
0.193453
0.18895
0.184707
0.180714
0.176964
0.173452
0.170174
0.16713
0.164321
0.161754
0.159438
0.157391
0.155658
0.154276
0.153217
0.152605
0.152556
0.159643
0.170105
0.182473
0.197049
0.214228
0.23453
0.258625
0.287375
0.321872
0.363486
0.414027
0.475635
0.550066
0.637951
0.737441
0.842605
0.943344
1.02863
1.09179
1.13307
1.15742
1.1707
1.1775
1.18084
1.18245
1.1832
1.18354
1.1837
1.18377
1.1838
1.18381
1.18382
1.18382
1.18382
1.18382
1.18382
1.18382
1.18382
1.18382
0.658526
0.658501
0.658459
0.658388
0.658269
0.658072
0.65775
0.657225
0.656383
0.65505
0.652976
0.649814
0.645108
0.638305
0.628796
0.616022
0.599613
0.579549
0.55625
0.530544
0.50351
0.476257
0.449726
0.424594
0.401254
0.379867
0.360429
0.342831
0.326916
0.312505
0.299423
0.287507
0.276616
0.266628
0.257441
0.248965
0.241087
0.233735
0.226856
0.220406
0.214345
0.208641
0.203267
0.198202
0.193424
0.188921
0.184678
0.180686
0.176938
0.173427
0.170152
0.16711
0.164305
0.161742
0.15943
0.157386
0.155654
0.154271
0.153205
0.152578
0.152497
0.159984
0.170522
0.182973
0.197641
0.214927
0.235356
0.259607
0.288546
0.323279
0.365184
0.416093
0.478144
0.553065
0.641421
0.741236
0.846417
0.946758
1.0313
1.09362
1.13419
1.15804
1.17102
1.17765
1.18092
1.18248
1.18321
1.18355
1.1837
1.18377
1.1838
1.18381
1.18382
1.18382
1.18382
1.18382
1.18382
1.18382
1.18382
1.18382
0.658526
0.658501
0.658459
0.658388
0.658269
0.658073
0.657751
0.657227
0.656386
0.655054
0.652983
0.649825
0.645125
0.638329
0.628829
0.616064
0.599666
0.579612
0.55632
0.530618
0.503585
0.476328
0.449791
0.424651
0.401304
0.379909
0.360463
0.342859
0.326938
0.312521
0.299434
0.287514
0.276619
0.266628
0.257439
0.24896
0.24108
0.233726
0.226845
0.220393
0.21433
0.208626
0.203251
0.198185
0.193408
0.188904
0.184662
0.180671
0.176925
0.173416
0.170143
0.167105
0.164303
0.161744
0.159436
0.157395
0.155666
0.154284
0.153217
0.152584
0.152495
0.160236
0.170838
0.183355
0.198093
0.215461
0.235986
0.260351
0.289433
0.32434
0.366462
0.417643
0.480023
0.555307
0.644007
0.744055
0.849237
0.949272
1.03326
1.09496
1.13501
1.1585
1.17126
1.17777
1.18097
1.18251
1.18323
1.18356
1.1837
1.18377
1.1838
1.18381
1.18382
1.18382
1.18382
1.18382
1.18382
1.18382
1.18382
1.18382
0.658526
0.658501
0.658459
0.658388
0.658269
0.658073
0.657752
0.657228
0.656388
0.655057
0.652987
0.649832
0.645135
0.638344
0.62885
0.616092
0.599701
0.579653
0.556365
0.530666
0.503632
0.476373
0.449833
0.424688
0.401335
0.379936
0.360485
0.342877
0.326951
0.312531
0.299441
0.287519
0.276622
0.266629
0.257438
0.248958
0.241077
0.233721
0.22684
0.220387
0.214324
0.208618
0.203244
0.198177
0.1934
0.188897
0.184656
0.180667
0.176922
0.173416
0.170146
0.167111
0.164312
0.161756
0.159452
0.157414
0.155688
0.154306
0.153238
0.152598
0.152495
0.160403
0.171055
0.183619
0.198408
0.215831
0.23642
0.260862
0.290037
0.32506
0.367325
0.418686
0.481282
0.556803
0.645726
0.74592
0.851092
0.950914
1.03454
1.09583
1.13554
1.1588
1.17142
1.17785
1.18101
1.18252
1.18323
1.18356
1.18371
1.18377
1.1838
1.18381
1.18382
1.18382
1.18382
1.18382
1.18382
1.18382
1.18382
1.18382
0.658526
0.658501
0.658459
0.658388
0.65827
0.658074
0.657752
0.657229
0.656389
0.655059
0.65299
0.649835
0.645141
0.638351
0.62886
0.616105
0.599717
0.579672
0.556387
0.530688
0.503655
0.476395
0.449853
0.424706
0.401351
0.379948
0.360495
0.342885
0.326958
0.312536
0.299444
0.287521
0.276623
0.266629
0.257438
0.248958
0.241076
0.233721
0.226839
0.220386
0.214322
0.208617
0.203242
0.198176
0.193399
0.188897
0.184657
0.180669
0.176925
0.173421
0.170153
0.16712
0.164324
0.161771
0.159469
0.157434
0.15571
0.154329
0.153259
0.152613
0.152496
0.160486
0.17117
0.183762
0.198577
0.216028
0.236649
0.261128
0.290348
0.325426
0.367761
0.419207
0.481904
0.557535
0.646561
0.746818
0.851977
0.951691
1.03513
1.09623
1.13579
1.15894
1.17149
1.17788
1.18103
1.18253
1.18324
1.18356
1.18371
1.18377
1.1838
1.18381
1.18382
1.18382
1.18382
1.18382
1.18382
1.18382
1.18382
1.18382
0.658526
0.658501
0.658459
0.658388
0.65827
0.658074
0.657752
0.657229
0.656389
0.655059
0.65299
0.649835
0.645141
0.638351
0.62886
0.616105
0.599717
0.579672
0.556387
0.530688
0.503655
0.476395
0.449853
0.424706
0.40135
0.379948
0.360495
0.342885
0.326958
0.312536
0.299444
0.287521
0.276623
0.266629
0.257438
0.248958
0.241076
0.233721
0.226839
0.220385
0.214322
0.208617
0.203242
0.198176
0.193399
0.188897
0.184657
0.180669
0.176925
0.173421
0.170153
0.16712
0.164324
0.161771
0.159469
0.157434
0.15571
0.154329
0.153259
0.152613
0.152496
0.160486
0.17117
0.183762
0.198577
0.216028
0.236649
0.261128
0.290348
0.325426
0.367761
0.419207
0.481904
0.557535
0.64656
0.746818
0.851977
0.951691
1.03513
1.09623
1.13579
1.15894
1.17149
1.17788
1.18103
1.18253
1.18324
1.18356
1.18371
1.18377
1.1838
1.18381
1.18382
1.18382
1.18382
1.18382
1.18382
1.18382
1.18382
1.18382
0.658526
0.658501
0.658459
0.658388
0.658269
0.658073
0.657752
0.657228
0.656388
0.655057
0.652987
0.649832
0.645135
0.638344
0.62885
0.616092
0.5997
0.579652
0.556365
0.530665
0.503632
0.476373
0.449832
0.424688
0.401335
0.379935
0.360485
0.342876
0.326951
0.312531
0.299441
0.287518
0.276621
0.266628
0.257438
0.248958
0.241076
0.233721
0.22684
0.220387
0.214324
0.208618
0.203244
0.198177
0.1934
0.188897
0.184656
0.180667
0.176922
0.173416
0.170146
0.16711
0.164312
0.161756
0.159452
0.157414
0.155687
0.154306
0.153238
0.152598
0.152495
0.160403
0.171055
0.183619
0.198408
0.215831
0.23642
0.260862
0.290037
0.325059
0.367325
0.418686
0.481282
0.556802
0.645725
0.745919
0.851091
0.950914
1.03454
1.09583
1.13554
1.1588
1.17142
1.17785
1.18101
1.18252
1.18323
1.18356
1.18371
1.18377
1.1838
1.18381
1.18382
1.18382
1.18382
1.18382
1.18382
1.18382
1.18382
1.18382
0.658526
0.658501
0.658459
0.658388
0.658269
0.658073
0.657751
0.657227
0.656386
0.655054
0.652983
0.649825
0.645125
0.638328
0.628828
0.616064
0.599665
0.579611
0.556319
0.530617
0.503584
0.476327
0.44979
0.424651
0.401303
0.379908
0.360463
0.342858
0.326937
0.312521
0.299433
0.287514
0.276619
0.266628
0.257438
0.24896
0.241079
0.233725
0.226845
0.220392
0.21433
0.208625
0.203251
0.198185
0.193407
0.188904
0.184662
0.180671
0.176924
0.173416
0.170143
0.167105
0.164303
0.161744
0.159436
0.157395
0.155665
0.154283
0.153217
0.152584
0.152495
0.160236
0.170838
0.183355
0.198093
0.21546
0.235986
0.260351
0.289432
0.324339
0.366462
0.417643
0.480023
0.555306
0.644006
0.744054
0.849236
0.94927
1.03326
1.09496
1.13501
1.1585
1.17126
1.17777
1.18097
1.18251
1.18323
1.18356
1.1837
1.18377
1.1838
1.18381
1.18382
1.18382
1.18382
1.18382
1.18382
1.18382
1.18382
1.18382
0.658526
0.658501
0.658459
0.658388
0.658269
0.658072
0.65775
0.657225
0.656383
0.65505
0.652975
0.649813
0.645108
0.638305
0.628796
0.616021
0.599612
0.579548
0.556249
0.530542
0.503509
0.476255
0.449725
0.424592
0.401253
0.379866
0.360428
0.342831
0.326915
0.312504
0.299422
0.287507
0.276615
0.266627
0.257441
0.248965
0.241087
0.233735
0.226856
0.220405
0.214344
0.208641
0.203267
0.198201
0.193424
0.188921
0.184678
0.180686
0.176938
0.173427
0.170151
0.16711
0.164305
0.161741
0.15943
0.157385
0.155654
0.154271
0.153205
0.152577
0.152496
0.159984
0.170522
0.182973
0.197641
0.214927
0.235356
0.259606
0.288546
0.323278
0.365184
0.416092
0.478143
0.553064
0.641419
0.741234
0.846415
0.946756
1.0313
1.09362
1.13419
1.15804
1.17102
1.17765
1.18092
1.18248
1.18321
1.18355
1.1837
1.18377
1.1838
1.18381
1.18382
1.18382
1.18382
1.18382
1.18382
1.18382
1.18382
1.18382
0.658526
0.658501
0.658458
0.658387
0.658268
0.658072
0.657748
0.657223
0.656379
0.655043
0.652965
0.649798
0.645085
0.638272
0.628751
0.615962
0.599538
0.57946
0.55615
0.530439
0.503405
0.476156
0.449633
0.424511
0.401182
0.379806
0.360378
0.342791
0.326884
0.312481
0.299405
0.287496
0.276611
0.266627
0.257445
0.248973
0.241099
0.23375
0.226874
0.220426
0.214367
0.208666
0.203294
0.198229
0.193453
0.188949
0.184706
0.180714
0.176964
0.173452
0.170174
0.167129
0.164321
0.161754
0.159438
0.157391
0.155657
0.154275
0.153217
0.152605
0.152555
0.159643
0.170105
0.182473
0.197049
0.214228
0.23453
0.258625
0.287375
0.321872
0.363486
0.414027
0.475634
0.550065
0.63795
0.737439
0.842603
0.943343
1.02862
1.09178
1.13307
1.15742
1.1707
1.17749
1.18084
1.18245
1.1832
1.18354
1.1837
1.18377
1.1838
1.18381
1.18382
1.18382
1.18382
1.18382
1.18382
1.18382
1.18382
1.18382
0.658526
0.658501
0.658458
0.658387
0.658268
0.65807
0.657746
0.65722
0.656374
0.655035
0.652952
0.649778
0.645056
0.63823
0.628692
0.615884
0.59944
0.579345
0.556021
0.530301
0.503267
0.476023
0.44951
0.424401
0.401086
0.379725
0.36031
0.342736
0.326841
0.312448
0.299382
0.287481
0.276603
0.266626
0.25745
0.248984
0.241114
0.23377
0.226899
0.220455
0.2144
0.208701
0.203332
0.198269
0.193494
0.188992
0.184749
0.180756
0.177005
0.173492
0.170211
0.167164
0.164352
0.161781
0.159461
0.157409
0.155671
0.154285
0.153224
0.152612
0.152561
0.159212
0.169581
0.18185
0.196312
0.213357
0.233499
0.257399
0.285908
0.320108
0.361353
0.41143
0.472477
0.546285
0.633569
0.732633
0.837759
0.938987
1.0252
1.08943
1.13164
1.15662
1.17028
1.17729
1.18074
1.1824
1.18318
1.18353
1.18369
1.18377
1.1838
1.18381
1.18382
1.18382
1.18382
1.18382
1.18382
1.18382
1.18382
1.18382
0.658526
0.658501
0.658458
0.658386
0.658267
0.658069
0.657744
0.657216
0.656367
0.655025
0.652936
0.649753
0.645019
0.638176
0.628618
0.615786
0.599317
0.579198
0.555855
0.530125
0.503089
0.475851
0.44935
0.424256
0.40096
0.379616
0.360219
0.342661
0.32678
0.312401
0.299347
0.287457
0.276589
0.266621
0.257453
0.248994
0.241132
0.233794
0.226928
0.22049
0.214439
0.208745
0.20338
0.19832
0.193548
0.189048
0.184806
0.180814
0.177063
0.173548
0.170265
0.167215
0.1644
0.161825
0.159501
0.157443
0.155698
0.154308
0.153242
0.152628
0.152576
0.158679
0.168943
0.181095
0.19542
0.212305
0.232252
0.255914
0.284131
0.317969
0.358767
0.408282
0.468647
0.541697
0.628242
0.726774
0.831829
0.933629
1.02097
1.08651
1.12984
1.15562
1.16976
1.17703
1.18062
1.18234
1.18315
1.18352
1.18369
1.18376
1.1838
1.18381
1.18382
1.18382
1.18382
1.18382
1.18382
1.18382
1.18382
1.18382
0.658526
0.658501
0.658458
0.658386
0.658266
0.658067
0.657741
0.657211
0.656359
0.655012
0.652916
0.649723
0.644973
0.63811
0.628526
0.615664
0.599163
0.579014
0.555648
0.529904
0.502864
0.475632
0.449146
0.424071
0.400796
0.379475
0.360099
0.34256
0.326699
0.312336
0.299297
0.287421
0.276565
0.266609
0.257451
0.249002
0.241148
0.233819
0.226961
0.220529
0.214485
0.208797
0.203437
0.198382
0.193614
0.189117
0.184878
0.180887
0.177136
0.173621
0.170337
0.167285
0.164466
0.161887
0.159558
0.157495
0.155743
0.154347
0.153276
0.152659
0.152605
0.158042
0.168184
0.180199
0.194365
0.21106
0.230777
0.254158
0.282028
0.315438
0.355707
0.404557
0.464117
0.536266
0.621926
0.719806
0.824743
0.927185
1.01584
1.08295
1.12765
1.15439
1.16912
1.17671
1.18047
1.18227
1.18312
1.18351
1.18368
1.18376
1.1838
1.18381
1.18382
1.18382
1.18382
1.18382
1.18382
1.18382
1.18382
1.18382
0.658526
0.658501
0.658457
0.658385
0.658265
0.658065
0.657738
0.657205
0.65635
0.654997
0.652892
0.649686
0.644918
0.63803
0.628414
0.615515
0.598975
0.578788
0.555392
0.529629
0.502583
0.475358
0.448888
0.423835
0.400586
0.379291
0.359941
0.342427
0.326588
0.312246
0.299226
0.287366
0.276526
0.266585
0.25744
0.249003
0.24116
0.233841
0.226993
0.22057
0.214535
0.208854
0.203501
0.198453
0.19369
0.189197
0.184962
0.180974
0.177225
0.17371
0.170426
0.167372
0.164551
0.161967
0.159633
0.157566
0.155807
0.154404
0.153328
0.152706
0.152651
0.157283
0.167291
0.17915
0.193133
0.209609
0.22906
0.252115
0.279583
0.312496
0.352151
0.400232
0.458853
0.529953
0.614572
0.711664
0.816416
0.919556
1.00971
1.07866
1.125
1.1529
1.16834
1.17633
1.18028
1.18218
1.18308
1.18349
1.18367
1.18376
1.18379
1.18381
1.18382
1.18382
1.18382
1.18382
1.18382
1.18382
1.18382
1.18382
0.658526
0.6585
0.658457
0.658385
0.658264
0.658063
0.657734
0.657199
0.656339
0.654979
0.652864
0.649642
0.644852
0.637934
0.628281
0.615336
0.598747
0.578514
0.55508
0.529292
0.502237
0.475018
0.448565
0.423539
0.400319
0.379056
0.359737
0.342252
0.32644
0.312123
0.299125
0.287287
0.276466
0.266542
0.257414
0.248992
0.241163
0.233857
0.227021
0.22061
0.214585
0.208914
0.20357
0.19853
0.193774
0.189288
0.185058
0.181074
0.177329
0.173816
0.170532
0.167478
0.164654
0.162068
0.159729
0.157655
0.15589
0.154481
0.153399
0.152773
0.152716
0.156405
0.166264
0.177949
0.191723
0.207947
0.227092
0.249773
0.276781
0.309127
0.348083
0.395287
0.452837
0.522731
0.60614
0.702289
0.806765
0.910636
1.00249
1.07356
1.12181
1.1511
1.16739
1.17586
1.18006
1.18208
1.18303
1.18347
1.18367
1.18375
1.18379
1.18381
1.18382
1.18382
1.18382
1.18382
1.18382
1.18382
1.18382
1.18382
0.658526
0.6585
0.658457
0.658384
0.658262
0.65806
0.657729
0.657191
0.656326
0.654959
0.652831
0.649591
0.644775
0.637822
0.628122
0.615124
0.598476
0.578185
0.554704
0.528884
0.501815
0.4746
0.448167
0.423169
0.399983
0.378757
0.359474
0.342024
0.326244
0.311957
0.298987
0.287174
0.276376
0.266474
0.257365
0.248962
0.24115
0.233859
0.227039
0.220642
0.21463
0.208972
0.203639
0.198609
0.193864
0.189386
0.185163
0.181186
0.177445
0.173935
0.170654
0.167599
0.164775
0.162186
0.159843
0.157764
0.155991
0.154576
0.153491
0.152863
0.152809
0.155411
0.165112
0.176604
0.190145
0.206084
0.224882
0.247137
0.273622
0.305324
0.34349
0.389709
0.446056
0.514583
0.596602
0.691634
0.795715
0.900325
0.994044
1.06754
1.11802
1.14895
1.16626
1.1753
1.17979
1.18195
1.18297
1.18344
1.18365
1.18375
1.18379
1.18381
1.18382
1.18382
1.18382
1.18382
1.18382
1.18382
1.18382
1.18382
0.658526
0.6585
0.658456
0.658383
0.65826
0.658057
0.657724
0.657182
0.656312
0.654935
0.652794
0.649533
0.644686
0.637691
0.627938
0.614875
0.598156
0.577796
0.554255
0.528393
0.501305
0.474092
0.447678
0.422712
0.399565
0.37838
0.35914
0.34173
0.325989
0.311737
0.2988
0.287017
0.276247
0.26637
0.257286
0.248905
0.241114
0.233843
0.22704
0.22066
0.214665
0.209022
0.203704
0.198688
0.193954
0.189487
0.185274
0.181305
0.177571
0.174066
0.170788
0.167734
0.164909
0.162316
0.159969
0.157883
0.156099
0.154673
0.153581
0.152956
0.152922
0.154389
0.163902
0.175168
0.188437
0.20405
0.222453
0.244229
0.270127
0.301109
0.33839
0.383514
0.438517
0.505508
0.585946
0.679665
0.783202
0.888519
0.984252
1.06047
1.11354
1.14639
1.16492
1.17463
1.17947
1.18181
1.18291
1.18341
1.18364
1.18374
1.18379
1.18381
1.18382
1.18382
1.18382
1.18382
1.18382
1.18382
1.18382
1.18382
0.658526
0.6585
0.658456
0.658382
0.658259
0.658054
0.657719
0.657173
0.656296
0.654909
0.652753
0.649468
0.644586
0.637543
0.627727
0.614587
0.597784
0.57734
0.553725
0.527811
0.500694
0.473479
0.447083
0.422151
0.399048
0.37791
0.358719
0.341356
0.325659
0.311449
0.29855
0.286803
0.276067
0.266221
0.257166
0.248811
0.241045
0.233798
0.227017
0.220658
0.214683
0.209059
0.203759
0.198759
0.194041
0.189588
0.185387
0.181428
0.177703
0.174204
0.17093
0.167878
0.165051
0.162453
0.160095
0.157993
0.156181
0.154726
0.153594
0.152912
0.152803
0.153471
0.162726
0.173705
0.186647
0.201878
0.219829
0.241062
0.266301
0.296481
0.332782
0.376698
0.43022
0.495505
0.574167
0.666366
0.769177
0.875129
0.973
1.05225
1.10828
1.14337
1.16332
1.17384
1.17909
1.18163
1.18283
1.18338
1.18363
1.18374
1.18379
1.18381
1.18381
1.18382
1.18382
1.18382
1.18382
1.18382
1.18382
1.18382
0.658526
0.6585
0.658455
0.658381
0.658257
0.658051
0.657713
0.657163
0.65628
0.654882
0.652707
0.649396
0.644476
0.637378
0.627489
0.61426
0.597357
0.576811
0.553107
0.527125
0.499971
0.472746
0.446367
0.42147
0.398414
0.37733
0.358193
0.340884
0.325239
0.311077
0.298224
0.286519
0.275822
0.266013
0.256992
0.248669
0.240933
0.233715
0.226961
0.220628
0.214676
0.209075
0.203796
0.198817
0.194117
0.189681
0.185496
0.181551
0.177836
0.174347
0.171078
0.168029
0.1652
0.162596
0.160225
0.158102
0.156249
0.154743
0.153531
0.15272
0.1524
0.152708
0.161641
0.172266
0.184817
0.199604
0.217041
0.237667
0.262178
0.291475
0.326705
0.36931
0.421219