/*--------------------------------*- C++ -*----------------------------------*\
  =========                 |
  \\      /  F ield         | OpenFOAM: The Open Source CFD Toolbox
   \\    /   O peration     | Website:  https://openfoam.org
    \\  /    A nd           | Version:  8
     \\/     M anipulation  |
\*---------------------------------------------------------------------------*/
FoamFile
{
    version     2.0;
    format      ascii;
    class       volScalarField;
    location    "700/fluid";
    object      T;
}
// * * * * * * * * * * * * * * * * * * * * * * * * * * * * * * * * * * * * * //

dimensions      [0 0 0 1 0 0 0];

internalField   nonuniform List<scalar> 
4000
(
293.004
293.017
293.039
293.076
293.138
293.241
293.409
293.686
294.132
294.847
295.972
297.716
300.366
304.302
309.994
317.978
328.805
342.965
360.799
382.447
407.828
436.684
468.645
503.302
540.268
579.209
619.853
661.995
705.475
750.172
795.987
842.828
890.602
939.204
988.513
1038.46
1089.07
1140.25
1191.92
1243.95
1296.25
1348.7
1401.2
1453.63
1505.86
1557.77
1609.22
1660.08
1710.2
1759.43
1807.57
1854.46
1899.86
1943.51
1985.11
2024.27
2060.53
2092.81
2120.51
2143.7
2160.23
2168.27
2157.77
2047.73
1930.65
1808.67
1683.55
1556.78
1429.64
1303.31
1178.89
1057.48
940.213
828.003
722.098
624.526
537.617
463.669
404.491
360.708
331.173
313.09
302.967
297.74
295.189
293.988
293.438
293.191
293.082
293.035
293.015
293.006
293.003
293.001
293
293
293
293
293
293
293.004
293.017
293.039
293.076
293.139
293.242
293.412
293.689
294.138
294.855
295.981
297.722
300.359
304.262
309.889
317.761
328.419
342.344
359.888
381.206
406.244
434.768
466.43
500.835
537.602
576.396
616.944
659.032
702.498
747.214
793.077
839.994
887.869
936.594
986.047
1036.15
1086.93
1138.3
1190.15
1242.39
1294.9
1347.57
1400.3
1452.95
1505.4
1557.53
1609.21
1660.29
1710.62
1760.04
1808.39
1855.45
1901.02
1944.84
1986.58
2025.88
2062.25
2094.61
2122.38
2145.62
2162.17
2170.15
2148.81
2037.65
1919.57
1796.66
1670.67
1543.06
1415.14
1288.1
1163.06
1041.17
923.619
811.34
705.786
609.158
523.879
452.227
395.805
354.822
327.663
311.248
302.108
297.368
295.038
293.93
293.416
293.183
293.079
293.034
293.014
293.006
293.003
293.001
293
293
293
293
293
293
293.004
293.017
293.039
293.077
293.139
293.243
293.414
293.692
294.143
294.861
295.988
297.726
300.353
304.232
309.811
317.602
328.133
341.88
359.191
380.229
404.955
433.153
464.492
498.596
535.092
573.654
614.011
655.95
699.308
743.956
789.79
836.716
884.637
933.446
983.02
1033.27
1084.22
1135.79
1187.87
1240.36
1293.15
1346.11
1399.14
1452.11
1504.89
1557.36
1609.36
1660.77
1711.43
1761.17
1809.82
1857.18
1903.02
1947.09
1989.07
2028.57
2065.11
2097.57
2125.39
2148.62
2165.02
2172.8
2132.69
2020.49
1901.31
1777.34
1650.35
1521.88
1393.25
1265.7
1140.42
1018.63
901.523
790.111
686.042
591.609
509.171
440.792
387.697
349.645
324.693
309.703
301.367
297.031
294.89
293.866
293.39
293.172
293.075
293.032
293.014
293.006
293.002
293.001
293
293
293
293
293
293
293.004
293.017
293.039
293.077
293.139
293.243
293.413
293.691
294.14
294.854
295.973
297.697
300.298
304.135
309.65
317.345
327.745
341.322
358.426
379.228
403.699
431.637
462.723
496.587
532.865
571.233
611.423
653.223
696.47
741.039
786.827
833.739
881.681
930.548
980.216
1030.59
1081.69
1133.45
1185.76
1238.5
1291.56
1344.82
1398.17
1451.49
1504.63
1557.46
1609.84
1661.62
1712.65
1762.75
1811.75
1859.44
1905.59
1949.94
1992.16
2031.86
2068.55
2101.01
2128.75
2151.87
2168.12
2175.51
2112.56
1999.54
1879.43
1754.53
1626.71
1497.57
1368.5
1240.79
1115.69
994.453
878.273
768.209
666.066
574.148
494.707
429.596
379.715
344.464
321.637
308.053
300.541
296.64
294.711
293.787
293.355
293.158
293.069
293.03
293.013
293.005
293.002
293.001
293
293
293
293
293
293
293.004
293.017
293.039
293.077
293.139
293.242
293.412
293.688
294.135
294.844
295.955
297.665
300.244
304.044
309.503
317.118
327.407
340.841
357.772
378.376
402.635
430.356
461.23
494.895
530.991
569.198
609.249
650.933
694.089
738.592
784.339
831.24
879.202
928.121
977.874
1028.36
1079.61
1131.54
1184.06
1237.04
1290.37
1343.93
1397.6
1451.25
1504.74
1557.93
1610.68
1662.83
1714.22
1764.68
1814.01
1862.02
1908.45
1953.05
1995.47
2035.32
2072.04
2104.33
2131.98
2154.93
2170.76
2177.29
2091.42
1977.84
1856.9
1731.13
1602.57
1472.9
1343.58
1215.94
1091.25
970.826
855.777
747.261
647.215
557.899
481.446
419.494
372.632
339.936
318.998
306.637
299.832
296.302
294.556
293.717
293.325
293.144
293.063
293.027
293.012
293.005
293.002
293.001
293
293
293
293
293
293
293.004
293.017
293.039
293.076
293.138
293.24
293.409
293.684
294.127
294.83
295.932
297.626
300.18
303.943
309.348
316.887
327.076
340.386
357.171
377.613
401.7
429.25
459.959
493.471
529.429
567.514
607.461
649.06
692.151
736.609
782.334
829.236
877.226
926.199
976.037
1026.63
1078.02
1130.12
1182.82
1236.02
1289.6
1343.45
1397.42
1451.38
1505.19
1558.72
1611.81
1664.31
1716.04
1766.82
1816.45
1864.72
1911.39
1956.15
1998.67
2038.54
2075.24
2107.33
2134.82
2157.45
2172.87
2178.81
2074.23
1958.89
1836.37
1709.32
1579.83
1449.57
1320.03
1192.54
1068.37
948.827
834.956
728.02
630.03
543.194
469.53
410.468
366.324
335.9
316.631
305.352
299.177
295.985
294.408
293.65
293.295
293.131
293.058
293.025
293.011
293.005
293.002
293.001
293
293
293
293
293
293
293.004
293.017
293.039
293.076
293.137
293.239
293.406
293.679
294.118
294.816
295.909
297.588
300.119
303.849
309.205
316.679
326.782
339.986
356.648
376.955
400.902
428.314
458.892
492.284
528.137
566.132
606.005
647.546
690.596
735.031
780.751
827.67
875.697
924.732
974.657
1025.36
1076.88
1129.14
1182.03
1235.45
1289.26
1343.35
1397.58
1451.82
1505.94
1559.77
1613.17
1665.97
1718
1769.05
1818.94
1867.42
1914.24
1959.09
2001.61
2041.36
2077.78
2109.18
2136.72
2158.31
2172.45
2176.87
2064.6
1944.5
1818.93
1689.92
1559.19
1428.26
1298.48
1171.15
1047.52
928.847
816.12
710.701
614.645
530.111
459.003
402.561
360.848
332.426
314.607
304.256
298.62
295.715
294.281
293.592
293.268
293.12
293.053
293.023
293.01
293.004
293.002
293.001
293
293
293
293
293
293
293.004
293.017
293.039
293.075
293.136
293.237
293.403
293.674
294.11
294.802
295.886
297.551
300.062
303.761
309.074
316.49
326.519
339.633
356.192
376.389
400.224
427.526
458.003
491.305
527.08
565.011
604.834
646.339
689.368
733.796
779.527
826.473
874.547
923.648
973.66
1024.47
1076.12
1128.52
1181.59
1235.2
1289.22
1343.53
1398.01
1452.51
1506.89
1561
1614.67
1667.73
1720.01
1771.3
1821.39
1870.04
1916.97
1961.86
2004.33
2043.9
2079.79
2110.53
2137
2156.75
2167.86
2167.17
2051.87
1929.35
1801.97
1671.67
1540.12
1408.76
1278.91
1151.83
1028.76
910.921
799.271
695.274
601.016
518.591
449.793
395.69
356.119
329.44
312.869
303.315
298.139
295.481
294.17
293.541
293.245
293.11
293.048
293.021
293.009
293.004
293.002
293.001
293
293
293
293
293
293
293.004
293.017
293.038
293.075
293.135
293.236
293.401
293.669
294.102
294.79
295.865
297.518
300.01
303.682
308.958
316.324
326.29
339.329
355.803
375.91
399.654
426.869
457.268
490.502
526.221
564.108
603.9
645.386
688.408
732.844
778.596
825.578
873.704
922.876
972.976
1023.89
1075.66
1128.21
1181.43
1235.21
1289.41
1343.93
1398.62
1453.35
1507.96
1562.31
1616.21
1669.5
1722
1773.48
1823.75
1872.53
1919.56
1964.48
2006.91
2046.33
2081.86
2112.25
2138.17
2157.13
2167.15
2155.24
2038.06
1914.1
1785.64
1654.6
1522.59
1391.06
1261.29
1134.54
1012.05
895.004
784.349
681.663
589.038
508.516
441.791
389.763
352.07
326.9
311.399
302.52
297.732
295.282
294.076
293.497
293.226
293.101
293.044
293.019
293.008
293.004
293.001
293.001
293
293
293
293
293
293
293.004
293.017
293.038
293.074
293.134
293.234
293.398
293.665
294.095
294.778
295.846
297.488
299.964
303.613
308.857
316.18
326.094
339.07
355.474
375.507
399.179
426.327
456.666
489.85
525.529
563.388
603.162
644.642
687.668
732.12
777.9
824.924
873.104
922.344
972.527
1023.54
1075.42
1128.1
1181.46
1235.39
1289.77
1344.47
1399.35
1454.28
1509.09
1563.64
1617.74
1671.23
1723.9
1775.56
1825.97
1874.87
1921.99
1966.97
2009.42
2048.82
2084.24
2114.49
2140.33
2159.32
2169.61
2141.92
2023.92
1899.25
1770.26
1638.85
1506.67
1375.13
1245.56
1119.19
997.284
880.987
771.279
669.789
578.627
499.793
434.891
384.682
348.622
324.748
310.157
301.85
297.39
295.115
293.997
293.461
293.209
293.093
293.041
293.018
293.008
293.003
293.001
293.001
293
293
293
293
293
293
293.004
293.016
293.038
293.074
293.134
293.233
293.396
293.661
294.089
294.768
295.83
297.463
299.924
303.554
308.77
316.058
325.927
338.851
355.199
375.173
398.787
425.882
456.176
489.324
524.976
562.818
602.584
644.066
687.104
731.578
777.39
824.457
872.692
922
972.263
1023.37
1075.35
1128.14
1181.63
1235.7
1290.23
1345.08
1400.13
1455.22
1510.21
1564.92
1619.2
1672.84
1725.67
1777.46
1827.99
1877
1924.19
1969.22
2011.68
2051.08
2086.43
2116.61
2142.42
2161.39
2171.7
2129.07
2010.61
1885.56
1756.29
1624.72
1492.49
1361.04
1231.7
1105.73
984.373
868.764
759.89
659.471
569.613
492.275
428.979
380.353
345.701
322.935
309.115
301.289
297.103
294.975
293.93
293.43
293.195
293.087
293.038
293.017
293.007
293.003
293.001
293.001
293
293
293
293
293
293
293.004
293.016
293.038
293.073
293.133
293.232
293.394
293.658
294.083
294.759
295.815
297.44
299.89
303.503
308.697
315.955
325.788
338.67
354.971
374.898
398.467
425.521
455.781
488.903
524.538
562.371
602.136
643.626
686.68
731.178
777.023
824.132
872.419
921.789
972.125
1023.31
1075.39
1128.28
1181.88
1236.07
1290.73
1345.72
1400.9
1456.14
1511.27
1566.13
1620.54
1674.32
1727.26
1779.16
1829.78
1878.86
1926.1
1971.16
2013.62
2052.98
2088.25
2118.39
2144.13
2163.03
2173.3
2117.83
1998.87
1873.47
1743.97
1612.27
1480.05
1348.74
1219.65
1094.06
973.215
858.204
750.063
650.587
561.874
485.844
423.945
376.687
343.24
321.415
308.245
300.821
296.864
294.858
293.875
293.404
293.183
293.082
293.036
293.016
293.007
293.003
293.001
293.001
293
293
293
293
293
293
293.004
293.016
293.038
293.073
293.132
293.231
293.392
293.655
294.079
294.751
295.803
297.422
299.862
303.46
308.635
315.869
325.673
338.52
354.784
374.674
398.207
425.231
455.466
488.57
524.194
562.023
601.792
643.292
686.364
730.887
776.765
823.914
872.25
921.677
972.077
1023.34
1075.49
1128.48
1182.17
1236.46
1291.23
1346.33
1401.64
1456.99
1512.24
1567.21
1621.73
1675.62
1728.66
1780.64
1831.32
1880.45
1927.71
1972.77
2015.2
2054.53
2089.74
2119.8
2145.46
2164.29
2174.53
2108.23
1988.78
1863.06
1733.35
1601.59
1469.4
1338.21
1209.35
1084.08
963.672
849.175
741.672
643.016
555.294
480.394
419.695
373.608
341.184
320.15
307.523
300.434
296.667
294.762
293.829
293.383
293.174
293.078
293.034
293.015
293.006
293.003
293.001
293
293
293
293
293
293
293
293.004
293.016
293.037
293.073
293.132
293.23
293.391
293.653
294.075
294.745
295.793
297.406
299.838
303.425
308.585
315.799
325.579
338.399
354.633
374.493
398
425
455.217
488.309
523.927
561.756
601.531
643.043
686.133
730.679
776.587
823.773
872.152
921.627
972.084
1023.41
1075.63
1128.69
1182.47
1236.85
1291.7
1346.9
1402.3
1457.75
1513.09
1568.16
1622.77
1676.73
1729.84
1781.87
1832.6
1881.75
1929.01
1974.06
2016.48
2055.77
2090.89
2120.88
2146.47
2165.25
2175.41
2100.22
1980.28
1854.24
1724.36
1592.53
1460.36
1329.28
1200.62
1075.64
955.604
841.551
734.597
636.641
549.764
475.825
416.144
371.045
339.48
319.106
306.928
300.115
296.505
294.682
293.791
293.365
293.166
293.074
293.033
293.014
293.006
293.003
293.001
293
293
293
293
293
293
293
293.004
293.016
293.037
293.073
293.132
293.229
293.39
293.651
294.072
294.74
295.785
297.393
299.819
303.397
308.544
315.743
325.503
338.302
354.513
374.35
397.836
424.819
455.023
488.106
523.722
561.553
601.335
642.859
685.965
730.533
776.467
823.685
872.1
921.618
972.122
1023.5
1075.78
1128.9
1182.75
1237.19
1292.12
1347.4
1402.87
1458.4
1513.81
1568.95
1623.62
1677.64
1730.79
1782.86
1833.61
1882.76
1930.03
1975.06
2017.44
2056.68
2091.72
2121.64
2147.17
2165.92
2176.02
2093.59
1973.2
1846.88
1716.84
1584.95
1452.81
1321.83
1193.34
1068.6
948.89
835.211
728.72
631.353
545.185
472.05
413.219
368.941
338.085
318.255
306.445
299.857
296.373
294.618
293.76
293.351
293.159
293.071
293.031
293.014
293.006
293.003
293.001
293
293
293
293
293
293
293
293.004
293.016
293.037
293.072
293.131
293.229
293.389
293.649
294.069
294.736
295.779
297.383
299.804
303.375
308.512
315.699
325.444
338.226
354.419
374.239
397.709
424.679
454.874
487.952
523.566
561.4
601.189
642.724
685.845
730.431
776.388
823.631
872.077
921.629
972.17
1023.59
1075.92
1129.09
1182.98
1237.49
1292.47
1347.8
1403.34
1458.92
1514.39
1569.57
1624.29
1678.34
1731.52
1783.61
1834.37
1883.52
1930.78
1975.78
2018.12
2057.31
2092.28
2122.14
2147.63
2166.36
2176.41
2088.24
1967.42
1840.84
1710.66
1578.73
1446.61
1315.73
1187.39
1062.87
943.422
830.053
723.946
627.062
541.475
468.998
410.86
367.248
336.966
317.573
306.058
299.651
296.268
294.567
293.736
293.339
293.154
293.069
293.03
293.013
293.006
293.002
293.001
293
293
293
293
293
293
293
293.004
293.016
293.037
293.072
293.131
293.228
293.388
293.648
294.067
294.732
295.774
297.376
299.792
303.357
308.488
315.665
325.399
338.168
354.348
374.155
397.613
424.574
454.762
487.838
523.452
561.289
601.084
642.627
685.76
730.361
776.335
823.599
872.068
921.646
972.217
1023.67
1076.03
1129.24
1183.17
1237.72
1292.74
1348.12
1403.69
1459.31
1514.82
1570.03
1624.77
1678.85
1732.04
1784.14
1834.9
1884.04
1931.26
1976.23
2018.53
2057.68
2092.63
2122.5
2148.08
2167.03
2177.5
2084.05
1962.83
1836.02
1705.73
1573.77
1441.69
1310.89
1182.68
1058.34
939.112
825.995
720.195
623.698
538.573
466.615
409.022
365.932
336.098
317.044
305.759
299.491
296.187
294.527
293.717
293.331
293.15
293.067
293.03
293.013
293.006
293.002
293.001
293
293
293
293
293
293
293
293.004
293.016
293.037
293.072
293.131
293.228
293.388
293.647
294.066
294.73
295.77
297.37
299.783
303.345
308.47
315.64
325.366
338.126
354.297
374.095
397.545
424.5
454.684
487.757
523.371
561.211
601.011
642.561
685.702
730.314
776.301
823.579
872.065
921.661
972.251
1023.72
1076.11
1129.34
1183.3
1237.87
1292.93
1348.33
1403.93
1459.57
1515.1
1570.33
1625.09
1679.17
1732.37
1784.46
1835.2
1884.31
1931.5
1976.43
2018.68
2057.78
2092.7
2122.55
2148.14
2167.16
2177.72
2080.95
1959.37
1832.36
1701.98
1570
1437.95
1307.24
1179.14
1054.94
935.895
822.974
717.411
621.207
536.429
464.86
407.673
364.968
335.463
316.657
305.539
299.373
296.127
294.498
293.703
293.324
293.147
293.066
293.029
293.013
293.005
293.002
293.001
293
293
293
293
293
293
293
293.004
293.016
293.037
293.072
293.131
293.228
293.387
293.647
294.065
294.729
295.768
297.366
299.778
303.337
308.458
315.624
325.345
338.099
354.264
374.056
397.501
424.452
454.633
487.705
523.32
561.162
600.964
642.519
685.666
730.285
776.28
823.568
872.063
921.67
972.272
1023.75
1076.15
1129.4
1183.38
1237.96
1293.03
1348.45
1404.06
1459.72
1515.26
1570.5
1625.26
1679.34
1732.53
1784.6
1835.32
1884.4
1931.55
1976.42
2018.63
2057.68
2092.55
2122.38
2147.99
2167.1
2177.84
2078.9
1957
1829.82
1699.37
1567.39
1435.39
1304.74
1176.74
1052.65
933.733
820.953
715.558
619.556
535.014
463.707
406.79
364.341
335.052
316.407
305.397
299.297
296.088
294.479
293.694
293.32
293.145
293.065
293.029
293.012
293.005
293.002
293.001
293
293
293
293
293
293
293
293.004
293.016
293.037
293.072
293.131
293.228
293.387
293.647
294.064
294.728
295.767
297.364
299.775
303.333
308.453
315.617
325.335
338.086
354.249
374.038
397.48
424.429
454.609
487.681
523.296
561.138
600.943
642.5
685.65
730.272
776.27
823.562
872.063
921.675
972.281
1023.77
1076.17
1129.42
1183.41
1238
1293.08
1348.5
1404.12
1459.78
1515.32
1570.56
1625.31
1679.39
1732.56
1784.62
1835.31
1884.37
1931.48
1976.32
2018.48
2057.49
2092.33
2122.14
2147.76
2166.95
2177.89
2077.89
1955.74
1828.44
1697.97
1566
1434.03
1303.44
1175.51
1051.49
932.646
819.948
714.645
618.75
534.33
463.154
406.37
364.046
334.859
316.291
305.331
299.261
296.07
294.47
293.69
293.318
293.144
293.064
293.028
293.012
293.005
293.002
293.001
293
293
293
293
293
293
293
293.004
293.016
293.037
293.072
293.131
293.228
293.387
293.647
294.064
294.728
295.767
297.364
299.775
303.333
308.453
315.617
325.335
338.087
354.249
374.038
397.481
424.429
454.609
487.681
523.296
561.139
600.943
642.5
685.65
730.272
776.271
823.563
872.063
921.675
972.282
1023.77
1076.17
1129.42
1183.41
1238
1293.08
1348.5
1404.12
1459.78
1515.32
1570.56
1625.31
1679.39
1732.57
1784.62
1835.31
1884.37
1931.48
1976.32
2018.48
2057.5
2092.33
2122.14
2147.76
2166.95
2177.89
2077.89
1955.74
1828.44
1697.97
1566
1434.03
1303.44
1175.51
1051.49
932.646
819.948
714.646
618.75
534.33
463.154
406.37
364.046
334.86
316.291
305.331
299.262
296.07
294.47
293.69
293.318
293.144
293.064
293.028
293.012
293.005
293.002
293.001
293
293
293
293
293
293
293
293.004
293.016
293.037
293.072
293.131
293.228
293.387
293.647
294.065
294.729
295.768
297.366
299.778
303.337
308.458
315.624
325.345
338.099
354.265
374.056
397.502
424.452
454.634
487.706
523.321
561.162
600.965
642.52
685.667
730.286
776.281
823.569
872.064
921.671
972.273
1023.76
1076.16
1129.4
1183.38
1237.96
1293.03
1348.45
1404.06
1459.72
1515.26
1570.5
1625.26
1679.34
1732.53
1784.6
1835.32
1884.4
1931.55
1976.42
2018.63
2057.68
2092.55
2122.38
2147.99
2167.1
2177.84
2078.9
1957
1829.82
1699.37
1567.39
1435.39
1304.74
1176.74
1052.65
933.733
820.954
715.558
619.556
535.015
463.708
406.791
364.342
335.052
316.407
305.397
299.297
296.088
294.479
293.694
293.32
293.145
293.065
293.029
293.012
293.005
293.002
293.001
293
293
293
293
293
293
293
293.004
293.016
293.037
293.072
293.131
293.228
293.388
293.647
294.066
294.73
295.77
297.37
299.784
303.345
308.47
315.64
325.366
338.127
354.298
374.095
397.546
424.501
454.685
487.758
523.373
561.212
601.012
642.562
685.704
730.316
776.303
823.581
872.067
921.663
972.253
1023.72
1076.11
1129.34
1183.3
1237.87
1292.93
1348.33
1403.93
1459.57
1515.1
1570.33
1625.09
1679.18
1732.38
1784.47
1835.2
1884.32
1931.51
1976.43
2018.68
2057.79
2092.7
2122.55
2148.14
2167.16
2177.72
2080.95
1959.37
1832.36
1701.98
1570
1437.96
1307.24
1179.14
1054.94
935.896
822.975
717.412
621.208
536.43
464.861
407.673
364.969
335.463
316.658
305.539
299.373
296.127
294.498
293.703
293.324
293.147
293.066
293.029
293.013
293.005
293.002
293.001
293
293
293
293
293
293
293
293.004
293.016
293.037
293.072
293.131
293.228
293.388
293.648
294.067
294.732
295.774
297.376
299.792
303.358
308.488
315.665
325.399
338.168
354.349
374.156
397.614
424.576
454.764
487.839
523.454
561.291
601.086
642.629
685.762
730.363
776.338
823.601
872.071
921.649
972.219
1023.67
1076.03
1129.24
1183.17
1237.72
1292.75
1348.12
1403.69
1459.31
1514.82
1570.03
1624.77
1678.85
1732.05
1784.15
1834.9
1884.04
1931.27
1976.23
2018.53
2057.68
2092.64
2122.51
2148.08
2167.04
2177.5
2084.05
1962.83
1836.02
1705.73
1573.77
1441.69
1310.89
1182.68
1058.34
939.114
825.996
720.197
623.699
538.574
466.616
409.023
365.932
336.098
317.044
305.759
299.491
296.187
294.527
293.717
293.331
293.15
293.067
293.03
293.013
293.006
293.002
293.001
293
293
293
293
293
293
293
293.004
293.016
293.037
293.072
293.131
293.229
293.389
293.649
294.069
294.736
295.779
297.383
299.804
303.375
308.512
315.699
325.444
338.226
354.42
374.24
397.71
424.681
454.876
487.954
523.569
561.403
601.192
642.727
685.847
730.434
776.391
823.634
872.08
921.632
972.174
1023.59
1075.92
1129.09
1182.99
1237.49
1292.48
1347.81
1403.34
1458.92
1514.39
1569.58
1624.29
1678.34
1731.53
1783.61
1834.37
1883.53
1930.78
1975.78
2018.12
2057.31
2092.28
2122.15
2147.64
2166.37
2176.42
2088.24
1967.42
1840.84
1710.67
1578.73
1446.62
1315.73
1187.39
1062.87
943.424
830.054
723.947
627.063
541.477
468.999
410.861
367.248
336.967
317.573
306.059
299.651
296.268
294.567
293.736
293.339
293.154
293.069
293.03
293.013
293.006
293.002
293.001
293
293
293
293
293
293
293
293.004
293.016
293.037
293.073
293.132
293.229
293.39
293.651
294.072
294.74
295.785
297.393
299.819
303.397
308.545
315.744
325.504
338.303
354.515
374.352
397.838
424.821
455.025
488.109
523.724
561.556
601.338
642.862
685.968
730.537
776.471
823.688
872.104
921.622
972.126
1023.5
1075.79
1128.91
1182.75
1237.2
1292.13
1347.4
1402.87
1458.4
1513.82
1568.95
1623.62
1677.64
1730.8
1782.87
1833.61
1882.76
1930.03
1975.06
2017.45
2056.69
2091.73
2121.64
2147.17
2165.92
2176.03
2093.59
1973.2
1846.88
1716.84
1584.95
1452.81
1321.83
1193.34
1068.6
948.892
835.213
728.722
631.355
545.187
472.051
413.22
368.942
338.086
318.255
306.445
299.857
296.373
294.618
293.76
293.351
293.159
293.071
293.031
293.014
293.006
293.003
293.001
293
293
293
293
293
293
293
293.004
293.016
293.037
293.073
293.132
293.23
293.391
293.653
294.075
294.745
295.793
297.406
299.838
303.426
308.585
315.8
325.579
338.4
354.635
374.495
398.002
425.003
455.22
488.312
523.93
561.76
601.535
643.047
686.137
730.684
776.592
823.777
872.156
921.632
972.088
1023.41
1075.64
1128.7
1182.47
1236.85
1291.71
1346.91
1402.3
1457.75
1513.1
1568.16
1622.77
1676.73
1729.84
1781.88
1832.61
1881.75
1929.02
1974.06
2016.48
2055.78
2090.9
2120.88
2146.47
2165.26
2175.42
2100.22
1980.28
1854.24
1724.36
1592.53
1460.36
1329.28
1200.62
1075.64
955.606
841.553
734.599
636.643
549.766
475.826
416.146
371.046
339.48
319.106
306.928
300.115
296.505
294.682
293.791
293.365
293.166
293.074
293.033
293.014
293.006
293.003
293.001
293
293
293
293
293
293
293
293.004
293.016
293.038
293.073
293.132
293.231
293.392
293.655
294.079
294.751
295.803
297.422
299.862
303.461
308.636
315.87
325.674
338.522
354.786
374.676
398.21
425.234
455.469
488.573
524.198
562.027
601.797
643.297
686.369
730.892
776.77
823.919
872.255
921.682
972.083
1023.34
1075.5
1128.48
1182.18
1236.47
1291.24
1346.34
1401.64
1457
1512.24
1567.22
1621.74
1675.62
1728.66
1780.64
1831.33
1880.45
1927.72
1972.77
2015.2
2054.54
2089.75
2119.81
2145.47
2164.3
2174.53
2108.22
1988.78
1863.05
1733.35
1601.59
1469.4
1338.21
1209.35
1084.08
963.674
849.177
741.674
643.019
555.296
480.396
419.696
373.609
341.184
320.151
307.523
300.434
296.667
294.762
293.829
293.383
293.174
293.078
293.034
293.015
293.006
293.003
293.001
293
293
293
293
293
293
293
293.004
293.016
293.038
293.073
293.133
293.232
293.394
293.658
294.083
294.759
295.816
297.44
299.891
303.503
308.697
315.956
325.789
338.671
354.973
374.9
398.47
425.525
455.785
488.907
524.543
562.375
602.141
643.631
686.685
731.183
777.029
824.138
872.426
921.795
972.132
1023.32
1075.4
1128.29
1181.89
1236.08
1290.73
1345.72
1400.91
1456.15
1511.28
1566.13
1620.55
1674.32
1727.27
1779.17
1829.79
1878.87
1926.11
1971.16
2013.62
2052.98
2088.26
2118.4
2144.14
2163.04
2173.31
2117.83
1998.87
1873.48
1743.97
1612.28
1480.06
1348.74
1219.65
1094.06
973.22
858.207
750.065
650.59
561.876
485.846
423.946
376.689
343.241
321.416
308.245
300.821
296.864
294.858
293.875
293.404
293.183
293.082
293.036
293.016
293.007
293.003
293.001
293.001
293
293
293
293
293
293
293.004
293.016
293.038
293.074
293.134
293.233
293.396
293.661
294.089
294.768
295.83
297.463
299.925
303.554
308.771
316.059
325.928
338.853
355.201
375.176
398.79
425.886
456.18
489.328
524.981
562.823
602.589
644.072
687.11
731.584
777.397
824.463
872.699
922.006
972.269
1023.38
1075.36
1128.15
1181.64
1235.71
1290.23
1345.09
1400.14
1455.23
1510.22
1564.93
1619.2
1672.85
1725.68
1777.47
1828
1877
1924.19
1969.22
2011.69
2051.09
2086.43
2116.62
2142.43
2161.4
2171.71
2129.07
2010.61
1885.56
1756.29
1624.71
1492.48
1361.04
1231.7
1105.72
984.372
868.762
759.892
659.473
569.615
492.277
428.98
380.354
345.701
322.935
309.115
301.289
297.103
294.975
293.93
293.43
293.195
293.087
293.038
293.017
293.007
293.003
293.001
293.001
293
293
293
293
293
293
293.004
293.017
293.038
293.074
293.134
293.234
293.398
293.665
294.095
294.778
295.846
297.489
299.965
303.614
308.858
316.181
326.095
339.072
355.477
375.51
399.183
426.331
456.67
489.855
525.535
563.394
603.168
644.648
687.675
732.127
777.908
824.931
873.112
922.352
972.536
1023.55
1075.43
1128.11
1181.47
1235.4
1289.78
1344.48
1399.36
1454.29
1509.1
1563.64
1617.75
1671.23
1723.91
1775.56
1825.97
1874.88
1921.99
1966.98
2009.42
2048.83
2084.25
2114.5
2140.33
2159.32
2169.62
2141.92
2023.92
1899.26
1770.27
1638.87
1506.68
1375.15
1245.57
1119.21
997.299
881.002
771.285
669.792
578.629
499.795
434.893
384.684
348.623
324.748
310.157
301.85
297.39
295.115
293.997
293.461
293.209
293.093
293.041
293.018
293.008
293.003
293.001
293.001
293
293
293
293
293
293
293.004
293.017
293.038
293.075
293.135
293.236
293.401
293.67
294.102
294.79
295.865
297.518
300.01
303.683
308.959
316.325
326.292
339.331
355.806
375.913
399.658
426.874
457.273
490.508
526.227
564.115
603.906
645.393
688.416
732.852
778.604
825.587
873.712
922.884
972.984
1023.9
1075.67
1128.22
1181.44
1235.21
1289.42
1343.94
1398.63
1453.36
1507.97
1562.32
1616.22
1669.51
1722
1773.49
1823.75
1872.54
1919.56
1964.49
2006.92
2046.34
2081.87
2112.25
2138.17
2157.13
2167.15
2155.24
2038.05
1914.08
1785.62
1654.58
1522.57
1391.03
1261.27
1134.52
1012.03
894.989
784.347
681.664
589.04
508.518
441.792
389.764
352.071
326.9
311.399
302.52
297.732
295.282
294.076
293.497
293.226
293.101
293.044
293.019
293.008
293.004
293.001
293.001
293
293
293
293
293
293
293.004
293.017
293.039
293.075
293.136
293.237
293.403
293.674
294.11
294.803
295.886
297.552
300.062
303.762
309.075
316.491
326.521
339.635
356.195
376.393
400.228
427.531
458.009
491.311
527.087
565.018
604.841
646.347
689.376
733.805
779.536
826.482
874.556
923.658
973.671
1024.48
1076.13
1128.54
1181.6
1235.21
1289.23
1343.54
1398.02
1452.52
1506.9
1561.01
1614.68
1667.74
1720.02
1771.31
1821.4
1870.04
1916.98
1961.87
2004.34
2043.9
2079.79
2110.54
2137
2156.75
2167.86
2167.17
2051.87
1929.35
1801.97
1671.67
1540.12
1408.76
1278.92
1151.84
1028.77
910.932
799.281
695.281
601.019
518.593
449.794
395.69
356.12
329.44
312.869
303.315
298.139
295.481
294.17
293.541
293.245
293.11
293.048
293.021
293.009
293.004
293.002
293.001
293
293
293
293
293
293
293.004
293.017
293.039
293.076
293.137
293.239
293.406
293.679
294.118
294.816
295.909
297.588
300.12
303.85
309.206
316.68
326.784
339.988
356.651
376.959
400.907
428.319
458.898
492.291
528.144
566.14
606.013
647.555
690.605
735.04
780.761
827.68
875.707
924.742
974.667
1025.37
1076.89
1129.15
1182.04
1235.45
1289.27
1343.36
1397.59
1451.83
1505.95
1559.78
1613.18
1665.98
1718.01
1769.06
1818.95
1867.43
1914.25
1959.1
2001.62
2041.37
2077.78
2109.19
2136.73
2158.31
2172.45
2176.87
2064.6
1944.5
1818.93
1689.91
1559.18
1428.25
1298.48
1171.15
1047.51
928.84
816.11
710.693
614.642
530.11
459.003
402.561
360.848
332.426
314.607
304.256
298.62
295.715
294.281
293.592
293.268
293.12
293.053
293.023
293.01
293.004
293.002
293.001
293
293
293
293
293
293
293.004
293.017
293.039
293.076
293.138
293.24
293.409
293.684
294.127
294.831
295.932
297.626
300.18
303.944
309.349
316.889
327.079
340.389
357.174
377.617
401.706
429.256
459.966
493.478
529.437
567.522
607.47
649.069
692.16
736.619
782.345
829.247
877.237
926.211
976.049
1026.64
1078.03
1130.13
1182.84
1236.04
1289.62
1343.46
1397.43
1451.39
1505.21
1558.73
1611.83
1664.32
1716.05
1766.83
1816.46
1864.73
1911.4
1956.16
1998.68
2038.55
2075.25
2107.34
2134.83
2157.45
2172.88
2178.82
2074.22
1958.88
1836.36
1709.32
1579.82
1449.57
1320.03
1192.53
1068.36
948.821
834.951
728.017
630.027
543.193
469.529
410.468
366.324
335.9
316.631
305.351
299.177
295.985
294.408
293.65
293.295
293.131
293.058
293.025
293.011
293.005
293.002
293.001
293
293
293
293
293
293
293.004
293.017
293.039
293.077
293.139
293.242
293.412
293.689
294.135
294.844
295.955
297.665
300.244
304.045
309.504
317.12
327.41
340.844
357.776
378.381
402.64
430.362
461.237
494.903
531
569.207
609.258
650.943
694.1
738.603
784.351
831.252
879.215
928.133
977.887
1028.37
1079.62
1131.56
1184.07
1237.05
1290.38
1343.94
1397.61
1451.26
1504.75
1557.94
1610.69
1662.84
1714.23
1764.69
1814.03
1862.03
1908.47
1953.06
1995.48
2035.33
2072.05
2104.34
2131.99
2154.94
2170.77
2177.3
2091.41
1977.82
1856.88
1731.12
1602.56
1472.89
1343.57
1215.93
1091.25
970.819
855.77
747.255
647.211
557.895
481.444
419.493
372.631
339.935
318.997
306.637
299.832
296.302
294.556
293.717
293.325
293.144
293.063
293.027
293.012
293.005
293.002
293.001
293
293
293
293
293
293
293.004
293.017
293.039
293.077
293.139
293.243
293.413
293.691
294.14
294.854
295.973
297.697
300.299
304.136
309.651
317.347
327.748
341.325
358.431
379.234
403.706
431.644
462.731
496.596
532.875
571.243
611.433
653.234
696.482
741.051
786.839
833.752
881.695
930.562
980.231
1030.6
1081.71
1133.47
1185.77
1238.51
1291.57
1344.84
1398.19
1451.51
1504.65
1557.48
1609.86
1661.64
1712.67
1762.77
1811.76
1859.45
1905.61
1949.95
1992.17
2031.87
2068.56
2101.02
2128.76
2151.87
2168.12
2175.52
2112.54
1999.52
1879.42
1754.51
1626.69
1497.55
1368.49
1240.78
1115.68
994.443
878.264
768.201
666.06
574.143
494.703
429.593
379.713
344.462
321.636
308.052
300.541
296.639
294.711
293.787
293.355
293.158
293.069
293.03
293.013
293.005
293.002
293.001
293
293
293
293
293
293
293.004
293.017
293.039
293.077
293.139
293.243
293.414
293.692
294.143
294.861
295.988
297.726
300.354
304.233
309.812
317.604
328.135
341.883
359.196
380.235
404.961
433.16
464.501
498.605
535.102
573.665
614.023
655.962
699.32
743.969
789.804
836.731
884.652
933.462
983.035
1033.28
1084.23
1135.81
1187.89
1240.38
1293.16
1346.13
1399.16
1452.12
1504.9
1557.37
1609.38
1660.79
1711.45
1761.19
1809.84
1857.2
1903.04
1947.11
1989.08
2028.58
2065.12
2097.58
2125.4
2148.63
2165.03
2172.81
2132.66
2020.46
1901.29
1777.32
1650.33
1521.86
1393.23
1265.69
1140.41
1018.61
901.512
790.101
686.034
591.602
509.165
440.789
387.694
349.644
324.692
309.702
301.367
297.031
294.89
293.866
293.39
293.172
293.075
293.032
293.014
293.006
293.002
293.001
293
293
293
293
293
293
293.004
293.017
293.039
293.076
293.139
293.242
293.412
293.69
294.139
294.855
295.982
297.723
300.36
304.263
309.89
317.763
328.422
342.348
359.893
381.212
406.251
434.776
466.439
500.845
537.613
576.408
616.956
659.045
702.511
747.228
793.092
840.01
887.885
936.61
986.064
1036.17
1086.95