/*--------------------------------*- C++ -*----------------------------------*\
  =========                 |
  \\      /  F ield         | OpenFOAM: The Open Source CFD Toolbox
   \\    /   O peration     | Website:  https://openfoam.org
    \\  /    A nd           | Version:  8
     \\/     M anipulation  |
\*---------------------------------------------------------------------------*/
FoamFile
{
    version     2.0;
    format      ascii;
    class       volVectorField;
    location    "700/fluid";
    object      U;
}
// * * * * * * * * * * * * * * * * * * * * * * * * * * * * * * * * * * * * * //

dimensions      [0 1 -1 0 0 0 0];

internalField   nonuniform List<vector> 
4000
(
(0.0999457 -0.00705265 0)
(0.0996503 -0.0209862 0)
(0.0991736 -0.0348048 0)
(0.0985152 -0.0485471 0)
(0.097667 -0.0622312 0)
(0.0966113 -0.0758588 0)
(0.0953278 -0.0894195 0)
(0.093797 -0.102893 0)
(0.0920037 -0.116253 0)
(0.0899394 -0.12947 0)
(0.0876057 -0.142518 0)
(0.0850185 -0.155376 0)
(0.0822115 -0.168035 0)
(0.0792434 -0.180483 0)
(0.0761923 -0.192762 0)
(0.0731315 -0.204942 0)
(0.0701118 -0.217085 0)
(0.0671511 -0.229231 0)
(0.0642263 -0.241392 0)
(0.0612739 -0.253541 0)
(0.058202 -0.265615 0)
(0.0549098 -0.277524 0)
(0.0513075 -0.289161 0)
(0.0473373 -0.300397 0)
(0.0429733 -0.311138 0)
(0.0382077 -0.32132 0)
(0.0330459 -0.33088 0)
(0.0275049 -0.339763 0)
(0.0216101 -0.347921 0)
(0.0153926 -0.35532 0)
(0.00888556 -0.361938 0)
(0.0021239 -0.367761 0)
(-0.00485572 -0.372788 0)
(-0.0120171 -0.377024 0)
(-0.0193274 -0.380482 0)
(-0.0267571 -0.383182 0)
(-0.034279 -0.385148 0)
(-0.0418673 -0.386411 0)
(-0.0494974 -0.387005 0)
(-0.0571461 -0.38697 0)
(-0.0647915 -0.386345 0)
(-0.0724127 -0.385175 0)
(-0.0799899 -0.383503 0)
(-0.0875038 -0.381377 0)
(-0.0949358 -0.378845 0)
(-0.102268 -0.375954 0)
(-0.109481 -0.372754 0)
(-0.116559 -0.369295 0)
(-0.123482 -0.365628 0)
(-0.130232 -0.361805 0)
(-0.13679 -0.35788 0)
(-0.143136 -0.353908 0)
(-0.149248 -0.349946 0)
(-0.155103 -0.346056 0)
(-0.160678 -0.342305 0)
(-0.165942 -0.338765 0)
(-0.170854 -0.33552 0)
(-0.175364 -0.332656 0)
(-0.179444 -0.330272 0)
(-0.183129 -0.328524 0)
(-0.186489 -0.327688 0)
(-0.18892 -0.32812 0)
(-0.188335 -0.329673 0)
(-0.183524 -0.330611 0)
(-0.176528 -0.329828 0)
(-0.169095 -0.327447 0)
(-0.16143 -0.32376 0)
(-0.153469 -0.318915 0)
(-0.145231 -0.312973 0)
(-0.136788 -0.305969 0)
(-0.128218 -0.297938 0)
(-0.119606 -0.288911 0)
(-0.111041 -0.278932 0)
(-0.102616 -0.268047 0)
(-0.0944793 -0.256315 0)
(-0.0868738 -0.243848 0)
(-0.0801282 -0.230847 0)
(-0.0746124 -0.217588 0)
(-0.0707025 -0.204636 0)
(-0.0686941 -0.1925 0)
(-0.0686205 -0.181423 0)
(-0.0701818 -0.171315 0)
(-0.0728631 -0.161864 0)
(-0.0761267 -0.152739 0)
(-0.079545 -0.143698 0)
(-0.0828374 -0.134594 0)
(-0.085832 -0.125333 0)
(-0.0884619 -0.115958 0)
(-0.0907253 -0.106518 0)
(-0.0926469 -0.0970461 0)
(-0.0942606 -0.0875735 0)
(-0.0956017 -0.078127 0)
(-0.0967044 -0.0687279 0)
(-0.0976003 -0.0593901 0)
(-0.0983181 -0.0501205 0)
(-0.0988831 -0.040919 0)
(-0.0993171 -0.0317785 0)
(-0.0996374 -0.0226855 0)
(-0.0998556 -0.0136188 0)
(-0.0999821 -0.00455001 0)
(0.0999999 -0.00661612 0)
(0.0997946 -0.0197899 0)
(0.0993701 -0.0328775 0)
(0.0987025 -0.0458614 0)
(0.0977935 -0.0587232 0)
(0.0966385 -0.0714398 0)
(0.0952284 -0.0839833 0)
(0.0935553 -0.0963223 0)
(0.0916171 -0.108424 0)
(0.0894211 -0.12026 0)
(0.0869868 -0.13181 0)
(0.0843485 -0.143072 0)
(0.0815567 -0.154076 0)
(0.0786779 -0.164904 0)
(0.0757853 -0.175619 0)
(0.0729454 -0.186279 0)
(0.0702046 -0.196958 0)
(0.0675751 -0.207722 0)
(0.0650268 -0.218611 0)
(0.062487 -0.229624 0)
(0.0598525 -0.240713 0)
(0.0570084 -0.251799 0)
(0.0538486 -0.262788 0)
(0.050291 -0.273598 0)
(0.046287 -0.284114 0)
(0.0418178 -0.294205 0)
(0.0368858 -0.303767 0)
(0.03151 -0.312724 0)
(0.0257212 -0.321017 0)
(0.019557 -0.328607 0)
(0.0130576 -0.335467 0)
(0.00626397 -0.341583 0)
(-0.000783851 -0.346949 0)
(-0.0080469 -0.35157 0)
(-0.0154882 -0.355459 0)
(-0.0230737 -0.358634 0)
(-0.0307723 -0.361119 0)
(-0.0385556 -0.362942 0)
(-0.0463971 -0.364133 0)
(-0.0542719 -0.364727 0)
(-0.0621568 -0.364762 0)
(-0.07003 -0.364278 0)
(-0.077871 -0.363316 0)
(-0.0856602 -0.361918 0)
(-0.0933788 -0.36013 0)
(-0.101009 -0.357996 0)
(-0.108533 -0.355562 0)
(-0.115933 -0.352876 0)
(-0.123192 -0.349986 0)
(-0.130294 -0.346939 0)
(-0.13722 -0.343785 0)
(-0.143954 -0.340574 0)
(-0.150479 -0.337359 0)
(-0.156775 -0.334193 0)
(-0.162825 -0.331129 0)
(-0.168607 -0.328225 0)
(-0.174088 -0.325537 0)
(-0.179225 -0.323117 0)
(-0.184019 -0.321019 0)
(-0.188569 -0.319295 0)
(-0.192984 -0.317998 0)
(-0.196314 -0.317119 0)
(-0.195931 -0.316153 0)
(-0.190666 -0.314498 0)
(-0.183151 -0.311957 0)
(-0.175332 -0.308424 0)
(-0.167374 -0.303855 0)
(-0.159144 -0.298225 0)
(-0.150629 -0.29152 0)
(-0.141877 -0.283732 0)
(-0.132949 -0.274865 0)
(-0.12391 -0.264932 0)
(-0.114822 -0.253975 0)
(-0.10576 -0.242075 0)
(-0.0968731 -0.229387 0)
(-0.0884403 -0.216192 0)
(-0.0808566 -0.202947 0)
(-0.0745854 -0.190284 0)
(-0.0700836 -0.178622 0)
(-0.067642 -0.16823 0)
(-0.0672314 -0.159116 0)
(-0.0684925 -0.151004 0)
(-0.0708938 -0.143486 0)
(-0.0739184 -0.136198 0)
(-0.0771692 -0.128905 0)
(-0.080388 -0.121502 0)
(-0.0834334 -0.113981 0)
(-0.0862202 -0.106255 0)
(-0.0887134 -0.0983009 0)
(-0.0909074 -0.0901481 0)
(-0.0928104 -0.0818365 0)
(-0.0944385 -0.0734046 0)
(-0.0958121 -0.0648856 0)
(-0.0969534 -0.0563072 0)
(-0.0978845 -0.0476903 0)
(-0.0986264 -0.03905 0)
(-0.0991967 -0.0303951 0)
(-0.0996073 -0.0217294 0)
(-0.0998662 -0.0130512 0)
(-0.0999951 -0.00435601 0)
(0.0999788 -0.00633799 0)
(0.0997153 -0.0189456 0)
(0.0991992 -0.0314647 0)
(0.0984117 -0.0438749 0)
(0.0973567 -0.0561541 0)
(0.0960352 -0.0682788 0)
(0.0944467 -0.0802239 0)
(0.0925941 -0.0919645 0)
(0.0904878 -0.103478 0)
(0.0881477 -0.114745 0)
(0.0856063 -0.125756 0)
(0.0829093 -0.136511 0)
(0.0801154 -0.147025 0)
(0.0772891 -0.157332 0)
(0.0744963 -0.167485 0)
(0.0717984 -0.177558 0)
(0.0692406 -0.18763 0)
(0.0668356 -0.197772 0)
(0.0645534 -0.208027 0)
(0.0623212 -0.218402 0)
(0.0600346 -0.22886 0)
(0.0575756 -0.239333 0)
(0.0548315 -0.249725 0)
(0.0517065 -0.259936 0)
(0.0481306 -0.269864 0)
(0.0440659 -0.279419 0)
(0.0395038 -0.288519 0)
(0.0344578 -0.297095 0)
(0.0289551 -0.305092 0)
(0.0230317 -0.312466 0)
(0.0167275 -0.319187 0)
(0.0100838 -0.325235 0)
(0.00314135 -0.330599 0)
(-0.00405922 -0.335279 0)
(-0.0114798 -0.339282 0)
(-0.0190854 -0.342621 0)
(-0.0268433 -0.345316 0)
(-0.0347236 -0.347388 0)
(-0.0426989 -0.348867 0)
(-0.0507433 -0.349782 0)
(-0.0588329 -0.350166 0)
(-0.0669452 -0.350057 0)
(-0.0750591 -0.34949 0)
(-0.083155 -0.348506 0)
(-0.0912141 -0.347146 0)
(-0.099219 -0.345449 0)
(-0.107152 -0.34346 0)
(-0.114998 -0.34122 0)
(-0.122741 -0.338774 0)
(-0.130367 -0.336164 0)
(-0.137862 -0.333435 0)
(-0.145212 -0.330631 0)
(-0.152405 -0.327795 0)
(-0.159428 -0.32497 0)
(-0.166271 -0.322198 0)
(-0.172917 -0.319518 0)
(-0.179337 -0.316966 0)
(-0.185493 -0.314567 0)
(-0.191398 -0.312341 0)
(-0.197167 -0.310306 0)
(-0.202787 -0.308466 0)
(-0.206731 -0.306758 0)
(-0.206039 -0.304537 0)
(-0.200139 -0.301522 0)
(-0.192112 -0.297814 0)
(-0.18373 -0.293337 0)
(-0.175138 -0.287991 0)
(-0.166234 -0.281715 0)
(-0.157014 -0.27448 0)
(-0.147522 -0.266284 0)
(-0.137812 -0.257145 0)
(-0.127944 -0.247116 0)
(-0.117977 -0.236283 0)
(-0.108 -0.224782 0)
(-0.0982057 -0.212817 0)
(-0.0889384 -0.200677 0)
(-0.0806628 -0.188729 0)
(-0.0739082 -0.177379 0)
(-0.0691378 -0.166993 0)
(-0.0665708 -0.157777 0)
(-0.0660801 -0.149673 0)
(-0.0672444 -0.142393 0)
(-0.0695219 -0.135563 0)
(-0.072414 -0.128866 0)
(-0.0755459 -0.122098 0)
(-0.0786783 -0.115157 0)
(-0.0816812 -0.108009 0)
(-0.0844891 -0.100667 0)
(-0.0870646 -0.0931494 0)
(-0.0893896 -0.0854759 0)
(-0.0914592 -0.0776673 0)
(-0.0932769 -0.0697447 0)
(-0.0948509 -0.061728 0)
(-0.0961922 -0.0536352 0)
(-0.0973132 -0.045482 0)
(-0.0982266 -0.0372814 0)
(-0.0989435 -0.0290436 0)
(-0.0994705 -0.0207758 0)
(-0.0998116 -0.0124829 0)
(-0.0999872 -0.00416722 0)
(0.0999836 -0.00598491 0)
(0.0997157 -0.0178902 0)
(0.099182 -0.0297024 0)
(0.0983632 -0.0413947 0)
(0.097268 -0.0529403 0)
(0.0959031 -0.0643121 0)
(0.0942739 -0.0754832 0)
(0.092389 -0.0864285 0)
(0.0902631 -0.0971256 0)
(0.0879193 -0.107558 0)
(0.0853903 -0.117719 0)
(0.0827207 -0.127612 0)
(0.0799667 -0.137262 0)
(0.0771945 -0.146711 0)
(0.0744745 -0.15602 0)
(0.0718714 -0.165267 0)
(0.0694307 -0.174535 0)
(0.0671638 -0.183895 0)
(0.0650393 -0.193396 0)
(0.0629827 -0.203051 0)
(0.0608869 -0.21283 0)
(0.0586302 -0.22267 0)
(0.0560961 -0.232487 0)
(0.0531877 -0.242183 0)
(0.049836 -0.25166 0)
(0.0460009 -0.260826 0)
(0.0416683 -0.2696 0)
(0.0368444 -0.277912 0)
(0.0315499 -0.285706 0)
(0.0258148 -0.29294 0)
(0.0196743 -0.299581 0)
(0.0131657 -0.305608 0)
(0.00632708 -0.311011 0)
(-0.000804017 -0.315784 0)
(-0.00819099 -0.319932 0)
(-0.0157994 -0.323466 0)
(-0.0235975 -0.3264 0)
(-0.0315561 -0.328754 0)
(-0.0396482 -0.330552 0)
(-0.0478485 -0.331821 0)
(-0.0561333 -0.332589 0)
(-0.0644806 -0.332887 0)
(-0.07287 -0.33275 0)
(-0.0812823 -0.332212 0)
(-0.0896991 -0.331308 0)
(-0.0981031 -0.330075 0)
(-0.106478 -0.328551 0)
(-0.11481 -0.326772 0)
(-0.123084 -0.324777 0)
(-0.131286 -0.322602 0)
(-0.139405 -0.320283 0)
(-0.147429 -0.317857 0)
(-0.155345 -0.315356 0)
(-0.163141 -0.312811 0)
(-0.170807 -0.310252 0)
(-0.178323 -0.307701 0)
(-0.185649 -0.305174 0)
(-0.192737 -0.302678 0)
(-0.199609 -0.300212 0)
(-0.206387 -0.297778 0)
(-0.212892 -0.29537 0)
(-0.216937 -0.292926 0)
(-0.215487 -0.289707 0)
(-0.208852 -0.285667 0)
(-0.200372 -0.281012 0)
(-0.191454 -0.275701 0)
(-0.182187 -0.26964 0)
(-0.172518 -0.262771 0)
(-0.162481 -0.255071 0)
(-0.152143 -0.246542 0)
(-0.141575 -0.237216 0)
(-0.130857 -0.227158 0)
(-0.12007 -0.216466 0)
(-0.109346 -0.205286 0)
(-0.0989378 -0.193829 0)
(-0.0892422 -0.182379 0)
(-0.0807463 -0.171287 0)
(-0.0739495 -0.160925 0)
(-0.069241 -0.151604 0)
(-0.0667542 -0.143451 0)
(-0.0662966 -0.136354 0)
(-0.0674238 -0.130009 0)
(-0.0696084 -0.124059 0)
(-0.0723824 -0.118215 0)
(-0.075399 -0.11229 0)
(-0.0784333 -0.106189 0)
(-0.0813559 -0.0998728 0)
(-0.0840995 -0.0933339 0)
(-0.0866321 -0.0865827 0)
(-0.0889398 -0.0796381 0)
(-0.0910183 -0.0725221 0)
(-0.0928682 -0.065257 0)
(-0.0944927 -0.0578641 0)
(-0.0958967 -0.0503629 0)
(-0.0970863 -0.042771 0)
(-0.0980677 -0.035104 0)
(-0.0988459 -0.0273758 0)
(-0.099422 -0.0195981 0)
(-0.0997958 -0.0117812 0)
(-0.0999874 -0.00393381 0)
(0.0999806 -0.00563086 0)
(0.0996975 -0.0168305 0)
(0.0991384 -0.02794 0)
(0.0982853 -0.0389322 0)
(0.0971492 -0.0497804 0)
(0.0957394 -0.0604583 0)
(0.0940646 -0.0709409 0)
(0.0921367 -0.0812052 0)
(0.0899737 -0.0912317 0)
(0.0876021 -0.101007 0)
(0.085058 -0.110525 0)
(0.0823887 -0.119793 0)
(0.0796531 -0.12883 0)
(0.076919 -0.137676 0)
(0.0742575 -0.146387 0)
(0.0717331 -0.155032 0)
(0.0693904 -0.163689 0)
(0.0672406 -0.172425 0)
(0.065252 -0.181289 0)
(0.0633498 -0.190295 0)
(0.061426 -0.199422 0)
(0.0593568 -0.208618 0)
(0.057022 -0.217808 0)
(0.0543204 -0.226905 0)
(0.0511781 -0.235821 0)
(0.0475502 -0.244471 0)
(0.0434179 -0.252782 0)
(0.0387833 -0.260687 0)
(0.033663 -0.268135 0)
(0.0280837 -0.275083 0)
(0.0220773 -0.2815 0)
(0.0156786 -0.287363 0)
(0.00892282 -0.292659 0)
(0.00184538 -0.297382 0)
(-0.00551893 -0.301535 0)
(-0.0131373 -0.305123 0)
(-0.0209795 -0.308159 0)
(-0.0290177 -0.310659 0)
(-0.037226 -0.312643 0)
(-0.0455802 -0.314132 0)
(-0.0540576 -0.315153 0)
(-0.0626371 -0.315732 0)
(-0.0712991 -0.315898 0)
(-0.0800246 -0.31568 0)
(-0.0887961 -0.315109 0)
(-0.097597 -0.314217 0)
(-0.106412 -0.313036 0)
(-0.115226 -0.311596 0)
(-0.124025 -0.30993 0)
(-0.132795 -0.308067 0)
(-0.141523 -0.306037 0)
(-0.150196 -0.303868 0)
(-0.158798 -0.301584 0)
(-0.167315 -0.299207 0)
(-0.175729 -0.296755 0)
(-0.184012 -0.294241 0)
(-0.192108 -0.29167 0)
(-0.199957 -0.289037 0)
(-0.207592 -0.286334 0)
(-0.215135 -0.283557 0)
(-0.222217 -0.280691 0)
(-0.225993 -0.27769 0)
(-0.223579 -0.273801 0)
(-0.216252 -0.269147 0)
(-0.207384 -0.263928 0)
(-0.197978 -0.258118 0)
(-0.188075 -0.251648 0)
(-0.177684 -0.244481 0)
(-0.166885 -0.236612 0)
(-0.155771 -0.22806 0)
(-0.144438 -0.218871 0)
(-0.132985 -0.20912 0)
(-0.121516 -0.198915 0)
(-0.110198 -0.188405 0)
(-0.0993277 -0.177794 0)
(-0.0893294 -0.167345 0)
(-0.080693 -0.157362 0)
(-0.0738919 -0.148146 0)
(-0.0692591 -0.139916 0)
(-0.0668575 -0.132723 0)
(-0.0664384 -0.126411 0)
(-0.0675376 -0.120693 0)
(-0.0696405 -0.115264 0)
(-0.0723065 -0.109887 0)
(-0.0752154 -0.104414 0)
(-0.0781609 -0.0987712 0)
(-0.0810218 -0.0929282 0)
(-0.0837314 -0.0868816 0)
(-0.0862543 -0.08064 0)
(-0.0885721 -0.0742181 0)
(-0.0906762 -0.0676325 0)
(-0.0925631 -0.0609008 0)
(-0.0942326 -0.0540401 0)
(-0.0956859 -0.0470671 0)
(-0.0969254 -0.0399975 0)
(-0.0979544 -0.032846 0)
(-0.0987746 -0.0256263 0)
(-0.0993846 -0.0183516 0)
(-0.0997818 -0.0110339 0)
(-0.0999861 -0.00368451 0)
(0.0999812 -0.00526184 0)
(0.0996956 -0.015728 0)
(0.0991303 -0.026108 0)
(0.0982676 -0.036374 0)
(0.0971202 -0.0464994 0)
(0.0956995 -0.056458 0)
(0.094016 -0.0662257 0)
(0.0920834 -0.0757805 0)
(0.0899216 -0.0851043 0)
(0.0875582 -0.0941849 0)
(0.0850301 -0.103018 0)
(0.0823849 -0.11161 0)
(0.0796812 -0.119984 0)
(0.0769863 -0.128176 0)
(0.0743711 -0.136242 0)
(0.0718998 -0.14425 0)
(0.0696175 -0.152274 0)
(0.0675364 -0.160383 0)
(0.0656264 -0.168622 0)
(0.0638143 -0.177008 0)
(0.0619931 -0.185523 0)
(0.0600392 -0.19412 0)
(0.0578312 -0.202731 0)
(0.0552657 -0.211274 0)
(0.0522656 -0.219668 0)
(0.0487822 -0.227834 0)
(0.0447927 -0.235703 0)
(0.040295 -0.243214 0)
(0.0353021 -0.250316 0)
(0.0298369 -0.256969 0)
(0.0239281 -0.263142 0)
(0.0176076 -0.268813 0)
(0.010908 -0.273969 0)
(0.00386185 -0.278603 0)
(-0.00349724 -0.282713 0)
(-0.0111383 -0.286305 0)
(-0.0190336 -0.289388 0)
(-0.0271563 -0.291976 0)
(-0.035482 -0.294084 0)
(-0.0439876 -0.295732 0)
(-0.0526517 -0.29694 0)
(-0.0614538 -0.297731 0)
(-0.0703746 -0.298131 0)
(-0.0793959 -0.298164 0)
(-0.0885005 -0.297855 0)
(-0.0976723 -0.297233 0)
(-0.106895 -0.296323 0)
(-0.116154 -0.295151 0)
(-0.125433 -0.293743 0)
(-0.134718 -0.292124 0)
(-0.143992 -0.290316 0)
(-0.153238 -0.288341 0)
(-0.162437 -0.286218 0)
(-0.171569 -0.283962 0)
(-0.180605 -0.281584 0)
(-0.189507 -0.279091 0)
(-0.198203 -0.276482 0)
(-0.206621 -0.273748 0)
(-0.214798 -0.270877 0)
(-0.222851 -0.267856 0)
(-0.230236 -0.264653 0)
(-0.23357 -0.261244 0)
(-0.230214 -0.256988 0)
(-0.222263 -0.252041 0)
(-0.212984 -0.246521 0)
(-0.203088 -0.240431 0)
(-0.192594 -0.233748 0)
(-0.181559 -0.226464 0)
(-0.170098 -0.218592 0)
(-0.158328 -0.210164 0)
(-0.146363 -0.201231 0)
(-0.134322 -0.191873 0)
(-0.122329 -0.182192 0)
(-0.110585 -0.172331 0)
(-0.0994229 -0.162476 0)
(-0.0892844 -0.152865 0)
(-0.0806565 -0.143765 0)
(-0.0739819 -0.135431 0)
(-0.0695356 -0.128039 0)
(-0.0673117 -0.121603 0)
(-0.0670092 -0.115961 0)
(-0.0681456 -0.110838 0)
(-0.0702166 -0.105958 0)
(-0.0728052 -0.101109 0)
(-0.0756148 -0.096161 0)
(-0.0784569 -0.0910463 0)
(-0.0812219 -0.0857378 0)
(-0.0838493 -0.0802309 0)
(-0.0863064 -0.0745328 0)
(-0.0885756 -0.0686558 0)
(-0.0906472 -0.0626149 0)
(-0.0925157 -0.056426 0)
(-0.0941782 -0.0501052 0)
(-0.0956334 -0.0436681 0)
(-0.0968809 -0.0371299 0)
(-0.0979209 -0.0305056 0)
(-0.0987531 -0.0238093 0)
(-0.0993735 -0.0170549 0)
(-0.099778 -0.0102558 0)
(-0.0999861 -0.00342477 0)
(0.0999808 -0.00489182 0)
(0.0996926 -0.0146222 0)
(0.0991232 -0.0242719 0)
(0.0982552 -0.0338146 0)
(0.0971018 -0.0432246 0)
(0.0956757 -0.0524774 0)
(0.0939882 -0.0615503 0)
(0.0920542 -0.0704231 0)
(0.0898946 -0.0790795 0)
(0.087538 -0.0875083 0)
(0.085022 -0.0957063 0)
(0.0823949 -0.10368 0)
(0.0797156 -0.11145 0)
(0.0770518 -0.119052 0)
(0.0744743 -0.126536 0)
(0.0720474 -0.133965 0)
(0.0698165 -0.141409 0)
(0.0677942 -0.14893 0)
(0.0659512 -0.156573 0)
(0.0642148 -0.164357 0)
(0.0624784 -0.172266 0)
(0.0606179 -0.18026 0)
(0.058511 -0.188277 0)
(0.0560519 -0.196246 0)
(0.0531611 -0.20409 0)
(0.049787 -0.211739 0)
(0.0459037 -0.219127 0)
(0.0415061 -0.226199 0)
(0.0366043 -0.232906 0)
(0.0312185 -0.239211 0)
(0.0253748 -0.245084 0)
(0.0191028 -0.250503 0)
(0.0124331 -0.255455 0)
(0.00539639 -0.259931 0)
(-0.00197634 -0.26393 0)
(-0.0096557 -0.267454 0)
(-0.0176146 -0.27051 0)
(-0.025828 -0.27311 0)
(-0.0342727 -0.275266 0)
(-0.0429266 -0.276994 0)
(-0.0517691 -0.278311 0)
(-0.0607802 -0.279237 0)
(-0.0699412 -0.279792 0)
(-0.0792343 -0.279998 0)
(-0.0886425 -0.279875 0)
(-0.0981488 -0.279447 0)
(-0.107737 -0.278735 0)
(-0.117389 -0.27776 0)
(-0.12709 -0.276544 0)
(-0.136821 -0.275106 0)
(-0.146564 -0.273465 0)
(-0.156297 -0.271636 0)
(-0.165996 -0.269635 0)
(-0.175633 -0.267473 0)
(-0.185174 -0.265159 0)
(-0.194566 -0.262695 0)
(-0.203719 -0.260079 0)
(-0.212557 -0.257301 0)
(-0.221108 -0.254352 0)
(-0.229443 -0.251207 0)
(-0.236894 -0.247817 0)
(-0.239815 -0.244157 0)
(-0.235695 -0.239732 0)
(-0.22708 -0.234679 0)
(-0.217259 -0.229058 0)
(-0.206856 -0.222895 0)
(-0.19585 -0.216202 0)
(-0.184294 -0.208996 0)
(-0.172314 -0.2013 0)
(-0.160039 -0.193155 0)
(-0.147599 -0.184618 0)
(-0.135123 -0.175766 0)
(-0.122756 -0.166699 0)
(-0.110726 -0.157548 0)
(-0.0993914 -0.148487 0)
(-0.0892064 -0.139728 0)
(-0.0806473 -0.131505 0)
(-0.0741244 -0.12403 0)
(-0.0698605 -0.117431 0)
(-0.0677931 -0.111685 0)
(-0.0675839 -0.106619 0)
(-0.0687428 -0.101981 0)
(-0.07078 -0.0975294 0)
(-0.0733006 -0.0930853 0)
(-0.0760277 -0.0885412 0)
(-0.0787863 -0.0838419 0)
(-0.0814746 -0.0789654 0)
(-0.0840358 -0.0739078 0)
(-0.0864382 -0.0686749 0)
(-0.0886639 -0.0632769 0)
(-0.0907023 -0.0577264 0)
(-0.0925468 -0.0520367 0)
(-0.094193 -0.0462216 0)
(-0.0956381 -0.0402952 0)
(-0.0968802 -0.0342711 0)
(-0.0979182 -0.0281632 0)
(-0.0987504 -0.021985 0)
(-0.0993717 -0.01575 0)
(-0.0997773 -0.00947163 0)
(-0.099986 -0.00316289 0)
(0.0999809 -0.00452014 0)
(0.0996932 -0.0135117 0)
(0.0991245 -0.0224286 0)
(0.0982576 -0.0312459 0)
(0.0971063 -0.0399395 0)
(0.0956836 -0.0484862 0)
(0.0940015 -0.056865 0)
(0.0920754 -0.0650571 0)
(0.0899268 -0.0730474 0)
(0.0875844 -0.080826 0)
(0.0850861 -0.08839 0)
(0.0824802 -0.0957461 0)
(0.0798253 -0.102913 0)
(0.0771888 -0.109925 0)
(0.0746413 -0.116828 0)
(0.0722471 -0.123682 0)
(0.0700521 -0.130551 0)
(0.0680695 -0.137494 0)
(0.0662713 -0.144555 0)
(0.0645859 -0.151751 0)
(0.0629075 -0.159071 0)
(0.0611121 -0.166477 0)
(0.0590763 -0.173914 0)
(0.0566929 -0.181317 0)
(0.0538803 -0.188617 0)
(0.0505843 -0.195747 0)
(0.0467765 -0.202648 0)
(0.0424492 -0.209268 0)
(0.0376101 -0.215562 0)
(0.0322769 -0.221495 0)
(0.0264738 -0.227038 0)
(0.0202282 -0.232172 0)
(0.0135689 -0.236881 0)
(0.00652514 -0.241158 0)
(-0.000873973 -0.244999 0)
(-0.00860034 -0.248406 0)
(-0.016628 -0.251384 0)
(-0.0249332 -0.253942 0)
(-0.0334935 -0.25609 0)
(-0.0422876 -0.257841 0)
(-0.0512952 -0.259209 0)
(-0.060497 -0.26021 0)
(-0.0698745 -0.260863 0)
(-0.0794099 -0.261183 0)
(-0.0890856 -0.26119 0)
(-0.098884 -0.2609 0)
(-0.108787 -0.260334 0)
(-0.118778 -0.259507 0)
(-0.128836 -0.258437 0)
(-0.138942 -0.25714 0)
(-0.149073 -0.25563 0)
(-0.159206 -0.25392 0)
(-0.16931 -0.25202 0)
(-0.179353 -0.249941 0)
(-0.189292 -0.247687 0)
(-0.199064 -0.245262 0)
(-0.208566 -0.242661 0)
(-0.217716 -0.239879 0)
(-0.226519 -0.236911 0)
(-0.234997 -0.233743 0)
(-0.242322 -0.230344 0)
(-0.244768 -0.226597 0)
(-0.239961 -0.222093 0)
(-0.23077 -0.217024 0)
(-0.220463 -0.211451 0)
(-0.209611 -0.205393 0)
(-0.198169 -0.19887 0)
(-0.186188 -0.191903 0)
(-0.173794 -0.184526 0)
(-0.161126 -0.176783 0)
(-0.148325 -0.168729 0)
(-0.135527 -0.160441 0)
(-0.122893 -0.152012 0)
(-0.110676 -0.143563 0)
(-0.0992545 -0.135254 0)
(-0.089089 -0.127274 0)
(-0.0806455 -0.119829 0)
(-0.0743045 -0.113099 0)
(-0.0702414 -0.107178 0)
(-0.0683444 -0.102025 0)
(-0.0682431 -0.09747 0)
(-0.0694409 -0.093279 0)
(-0.0714607 -0.0892378 0)
(-0.0739265 -0.0851922 0)
(-0.0765792 -0.0810492 0)
(-0.0792569 -0.0767619 0)
(-0.0818659 -0.0723112 0)
(-0.0843539 -0.0676939 0)
(-0.0866914 -0.0629148 0)
(-0.0888612 -0.0579827 0)
(-0.0908526 -0.0529087 0)
(-0.0926585 -0.0477045 0)
(-0.0942738 -0.0423826 0)
(-0.0956946 -0.0369556 0)
(-0.096918 -0.0314362 0)
(-0.0979421 -0.0258372 0)
(-0.0987642 -0.0201714 0)
(-0.0993785 -0.0144517 0)
(-0.0997797 -0.00869108 0)
(-0.0999862 -0.00290218 0)
(0.0999809 -0.00414982 0)
(0.0996942 -0.012405 0)
(0.0991273 -0.020592 0)
(0.0982634 -0.0286876 0)
(0.0971164 -0.0366694 0)
(0.0956995 -0.0445162 0)
(0.0940248 -0.0522086 0)
(0.0921082 -0.0597294 0)
(0.0899712 -0.0670648 0)
(0.0876427 -0.0742059 0)
(0.0851607 -0.0811502 0)
(0.0825733 -0.087904 0)
(0.0799391 -0.0944848 0)
(0.0773252 -0.100923 0)
(0.0748021 -0.107262 0)
(0.0724343 -0.113557 0)
(0.0702678 -0.119866 0)
(0.0683168 -0.126245 0)
(0.0665537 -0.132734 0)
(0.0649079 -0.139349 0)
(0.063274 -0.146083 0)
(0.0615277 -0.152902 0)
(0.0595451 -0.159757 0)
(0.0572177 -0.166588 0)
(0.0544619 -0.173333 0)
(0.0512218 -0.179931 0)
(0.0474668 -0.186327 0)
(0.0431873 -0.192474 0)
(0.0383889 -0.19833 0)
(0.0330877 -0.203862 0)
(0.0273061 -0.209044 0)
(0.0210699 -0.213857 0)
(0.0144064 -0.218286 0)
(0.00734357 -0.222323 0)
(-9.07461e-05 -0.225963 0)
(-0.00786955 -0.229209 0)
(-0.0159678 -0.232062 0)
(-0.0243625 -0.23453 0)
(-0.0330319 -0.23662 0)
(-0.0419551 -0.238344 0)
(-0.0511124 -0.239714 0)
(-0.0604846 -0.240742 0)
(-0.0700531 -0.241442 0)
(-0.0797997 -0.24183 0)
(-0.0897061 -0.241921 0)
(-0.0997537 -0.241728 0)
(-0.109923 -0.241268 0)
(-0.120196 -0.240553 0)
(-0.130549 -0.239599 0)
(-0.140961 -0.238417 0)
(-0.151406 -0.237019 0)
(-0.161856 -0.235416 0)
(-0.172277 -0.233616 0)
(-0.182631 -0.231625 0)
(-0.19287 -0.229448 0)
(-0.202921 -0.227088 0)
(-0.212676 -0.224542 0)
(-0.222058 -0.221808 0)
(-0.231083 -0.218889 0)
(-0.239732 -0.215799 0)
(-0.246859 -0.212532 0)
(-0.248669 -0.208794 0)
(-0.243134 -0.204303 0)
(-0.233498 -0.199315 0)
(-0.222824 -0.193901 0)
(-0.211612 -0.188069 0)
(-0.199815 -0.181834 0)
(-0.18749 -0.175221 0)
(-0.17477 -0.168263 0)
(-0.161798 -0.161005 0)
(-0.148722 -0.153502 0)
(-0.135687 -0.145825 0)
(-0.122864 -0.13806 0)
(-0.11053 -0.130321 0)
(-0.0990777 -0.122752 0)
(-0.0889699 -0.115524 0)
(-0.0806608 -0.108817 0)
(-0.0745024 -0.102782 0)
(-0.0706282 -0.0974872 0)
(-0.0688851 -0.0928756 0)
(-0.0688783 -0.0887808 0)
(-0.0701092 -0.0849914 0)
(-0.0721135 -0.0813197 0)
(-0.0745323 -0.0776337 0)
(-0.0771215 -0.0738551 0)
(-0.0797297 -0.0699446 0)
(-0.0822698 -0.0658866 0)
(-0.0846928 -0.0616785 0)
(-0.0869709 -0.0573245 0)
(-0.0890877 -0.0528323 0)
(-0.0910326 -0.0482111 0)
(-0.0927985 -0.0434715 0)
(-0.0943797 -0.0386243 0)
(-0.095772 -0.0336806 0)
(-0.0969721 -0.028652 0)
(-0.0979776 -0.0235499 0)
(-0.0987852 -0.0183863 0)
(-0.099389 -0.013173 0)
(-0.0997834 -0.00792198 0)
(-0.0999865 -0.00264527 0)
(0.0999811 -0.00378106 0)
(0.0996958 -0.0113031 0)
(0.0991318 -0.0187632 0)
(0.0982723 -0.0261402 0)
(0.0971312 -0.0334137 0)
(0.0957217 -0.0405643 0)
(0.0940561 -0.0475743 0)
(0.0921503 -0.0544281 0)
(0.0900257 -0.0611131 0)
(0.0877114 -0.0676214 0)
(0.0852451 -0.0739506 0)
(0.0826747 -0.0801066 0)
(0.0800586 -0.0861055 0)
(0.0774636 -0.0919749 0)
(0.07496 -0.0977547 0)
(0.0726125 -0.103495 0)
(0.0704673 -0.109249 0)
(0.0685392 -0.115069 0)
(0.0668014 -0.120991 0)
(0.0651841 -0.127031 0)
(0.0635821 -0.133184 0)
(0.0618713 -0.139419 0)
(0.059927 -0.145692 0)
(0.0576396 -0.15195 0)
(0.0549241 -0.158135 0)
(0.0517229 -0.164192 0)
(0.0480038 -0.170073 0)
(0.0437555 -0.175732 0)
(0.038982 -0.181133 0)
(0.033698 -0.186244 0)
(0.0279246 -0.191041 0)
(0.0216863 -0.195506 0)
(0.0150093 -0.199625 0)
(0.00792048 -0.203391 0)
(0.000446709 -0.206797 0)
(-0.00738583 -0.209845 0)
(-0.0155528 -0.212537 0)
(-0.0240317 -0.214877 0)
(-0.0328011 -0.216872 0)
(-0.0418407 -0.218531 0)
(-0.0511309 -0.219863 0)
(-0.0606524 -0.22088 0)
(-0.0703863 -0.221592 0)
(-0.0803138 -0.222013 0)
(-0.0904158 -0.222154 0)
(-0.100673 -0.222028 0)
(-0.111065 -0.221647 0)
(-0.121569 -0.221022 0)
(-0.132164 -0.220166 0)
(-0.142824 -0.219087 0)
(-0.15352 -0.217797 0)
(-0.164221 -0.216303 0)
(-0.174891 -0.214612 0)
(-0.185488 -0.21273 0)
(-0.195958 -0.210662 0)
(-0.206223 -0.208409 0)
(-0.216173 -0.205972 0)
(-0.225742 -0.203349 0)
(-0.234975 -0.200552 0)
(-0.243799 -0.197599 0)
(-0.250589 -0.1945 0)
(-0.25157 -0.190816 0)
(-0.245325 -0.186441 0)
(-0.235392 -0.181638 0)
(-0.224485 -0.176477 0)
(-0.213014 -0.17096 0)
(-0.200945 -0.165098 0)
(-0.188355 -0.158913 0)
(-0.175383 -0.15244 0)
(-0.16218 -0.14572 0)
(-0.148897 -0.138806 0)
(-0.135686 -0.131764 0)
(-0.122732 -0.124672 0)
(-0.110327 -0.117634 0)
(-0.098878 -0.11078 0)
(-0.0888485 -0.104264 0)
(-0.0806812 -0.0982445 0)
(-0.0747016 -0.0928482 0)
(-0.0710063 -0.088123 0)
(-0.0694067 -0.0840043 0)
(-0.0694887 -0.0803341 0)
(-0.0707529 -0.076922 0)
(-0.0727465 -0.0736037 0)
(-0.0751258 -0.0702656 0)
(-0.0776595 -0.0668412 0)
(-0.0802056 -0.0632973 0)
(-0.0826825 -0.0596209 0)
(-0.0850446 -0.05581 0)
(-0.087266 -0.0518683 0)
(-0.089331 -0.0478025 0)
(-0.0912294 -0.0436208 0)
(-0.092954 -0.0393324 0)
(-0.0944993 -0.0349468 0)
(-0.0958608 -0.030474 0)
(-0.0970351 -0.0259242 0)
(-0.0980192 -0.0213079 0)
(-0.0988101 -0.0166358 0)
(-0.0994015 -0.0119187 0)
(-0.0997879 -0.00716751 0)
(-0.0999868 -0.00239326 0)
(0.0999812 -0.00341437 0)
(0.0996974 -0.0102072 0)
(0.0991364 -0.0169444 0)
(0.0982815 -0.0236069 0)
(0.0971464 -0.0301762 0)
(0.0957444 -0.0366349 0)
(0.0940878 -0.0429671 0)
(0.0921922 -0.0491586 0)
(0.0900793 -0.0551982 0)
(0.0877777 -0.0610786 0)
(0.0853252 -0.066798 0)
(0.0827694 -0.0723616 0)
(0.0801684 -0.0777839 0)
(0.0775888 -0.0830899 0)
(0.0751009 -0.0883155 0)
(0.0727693 -0.0935059 0)
(0.0706405 -0.0987102 0)
(0.0687297 -0.103974 0)
(0.067011 -0.109333 0)
(0.0654149 -0.114801 0)
(0.0638367 -0.120372 0)
(0.0621519 -0.126023 0)
(0.0602354 -0.131711 0)
(0.0579766 -0.13739 0)
(0.0552893 -0.143008 0)
(0.0521146 -0.148517 0)
(0.048419 -0.15387 0)
(0.0441898 -0.159027 0)
(0.0394299 -0.163955 0)
(0.0341528 -0.168626 0)
(0.0283785 -0.173018 0)
(0.0221306 -0.177112 0)
(0.0154345 -0.180896 0)
(0.00831601 -0.184363 0)
(0.00080156 -0.187508 0)
(-0.00708334 -0.19033 0)
(-0.0153148 -0.19283 0)
(-0.0238707 -0.195011 0)
(-0.03273 -0.19688 0)
(-0.0418726 -0.198443 0)
(-0.0512787 -0.199707 0)
(-0.0609288 -0.200683 0)
(-0.0708038 -0.201379 0)
(-0.0808843 -0.201806 0)
(-0.0911505 -0.201974 0)
(-0.101582 -0.201892 0)
(-0.112156 -0.201572 0)
(-0.122852 -0.201022 0)
(-0.133642 -0.200253 0)
(-0.144501 -0.199272 0)
(-0.155399 -0.198088 0)
(-0.1663 -0.196708 0)
(-0.177165 -0.195138 0)
(-0.187951 -0.193382 0)
(-0.198601 -0.191445 0)
(-0.20903 -0.18933 0)
(-0.219129 -0.187035 0)
(-0.228845 -0.184563 0)
(-0.238242 -0.181922 0)
(-0.24717 -0.179128 0)
(-0.253535 -0.176209 0)
(-0.253681 -0.172679 0)
(-0.24684 -0.168536 0)
(-0.236712 -0.164022 0)
(-0.22565 -0.159199 0)
(-0.213985 -0.15407 0)
(-0.201709 -0.148644 0)
(-0.188913 -0.142944 0)
(-0.175747 -0.137003 0)
(-0.162367 -0.130859 0)
(-0.14893 -0.124561 0)
(-0.135589 -0.118169 0)
(-0.122543 -0.111754 0)
(-0.1101 -0.10541 0)
(-0.0986759 -0.099255 0)
(-0.0887339 -0.0934253 0)
(-0.0807055 -0.0880594 0)
(-0.0748926 -0.083264 0)
(-0.0713591 -0.0790707 0)
(-0.069887 -0.0754113 0)
(-0.0700468 -0.0721387 0)
(-0.0713402 -0.0690832 0)
(-0.0733251 -0.0661019 0)
(-0.0756708 -0.0630977 0)
(-0.0781568 -0.0600144 0)
(-0.0806491 -0.0568243 0)
(-0.0830708 -0.0535166 0)
(-0.0853792 -0.0500898 0)
(-0.0875496 -0.0465473 0)
(-0.0895673 -0.0428948 0)
(-0.0914225 -0.0391396 0)
(-0.0931082 -0.0352895 0)
(-0.0946191 -0.0313531 0)
(-0.0959505 -0.0273391 0)
(-0.0970991 -0.0232565 0)
(-0.0980619 -0.0191146 0)
(-0.0988357 -0.0149229 0)
(-0.0994144 -0.0106912 0)
(-0.0997925 -0.00642913 0)
(-0.099987 -0.00214664 0)
(0.0999813 -0.00304966 0)
(0.099699 -0.00911707 0)
(0.0991409 -0.0151351 0)
(0.0982903 -0.0210868 0)
(0.097161 -0.0269555 0)
(0.0957661 -0.0327259 0)
(0.0941178 -0.0383836 0)
(0.0922317 -0.0439162 0)
(0.0901292 -0.0493136 0)
(0.087839 -0.0545694 0)
(0.0853984 -0.0596819 0)
(0.0828549 -0.0646557 0)
(0.0802664 -0.0695039 0)
(0.0776994 -0.0742488 0)
(0.0752238 -0.0789225 0)
(0.0729044 -0.0835653 0)
(0.0707879 -0.0882214 0)
(0.06889 -0.092932 0)
(0.0671852 -0.0977281 0)
(0.0656046 -0.102624 0)
(0.0640434 -0.107615 0)
(0.0623774 -0.112679 0)
(0.0604807 -0.117781 0)
(0.0582419 -0.122877 0)
(0.055574 -0.127922 0)
(0.0524168 -0.132873 0)
(0.0487359 -0.137688 0)
(0.0445174 -0.142332 0)
(0.0397633 -0.146774 0)
(0.0344862 -0.15099 0)
(0.0287054 -0.154957 0)
(0.0224436 -0.158662 0)
(0.0157256 -0.162092 0)
(0.00857675 -0.165239 0)
(0.00102281 -0.1681 0)
(-0.00691104 -0.170671 0)
(-0.0152013 -0.172956 0)
(-0.023826 -0.174955 0)
(-0.0327645 -0.176673 0)
(-0.0419964 -0.178116 0)
(-0.051502 -0.17929 0)
(-0.0612615 -0.180202 0)
(-0.0712554 -0.180861 0)
(-0.0814637 -0.181274 0)
(-0.0918659 -0.181451 0)
(-0.10244 -0.181399 0)
(-0.113165 -0.181127 0)
(-0.124014 -0.180643 0)
(-0.134963 -0.179954 0)
(-0.145981 -0.179069 0)
(-0.157038 -0.177993 0)
(-0.168096 -0.176733 0)
(-0.179114 -0.175293 0)
(-0.190046 -0.173679 0)
(-0.200833 -0.171893 0)
(-0.211385 -0.169937 0)
(-0.221593 -0.167812 0)
(-0.231416 -0.165519 0)
(-0.24093 -0.163066 0)
(-0.249917 -0.160463 0)
(-0.255853 -0.157769 0)
(-0.255249 -0.154476 0)
(-0.24791 -0.150649 0)
(-0.237629 -0.146496 0)
(-0.22645 -0.142073 0)
(-0.214639 -0.137384 0)
(-0.202203 -0.132441 0)
(-0.189251 -0.127266 0)
(-0.175937 -0.12189 0)
(-0.162425 -0.116347 0)
(-0.148871 -0.110683 0)
(-0.135436 -0.104949 0)
(-0.122327 -0.099211 0)
(-0.109867 -0.0935527 0)
(-0.0984793 -0.0880793 0)
(-0.0886264 -0.0829114 0)
(-0.0807292 -0.0781693 0)
(-0.0750682 -0.0739418 0)
(-0.0716792 -0.0702488 0)
(-0.0703197 -0.067022 0)
(-0.0705479 -0.0641272 0)
(-0.0718674 -0.0614148 0)
(-0.0738455 -0.0587613 0)
(-0.0761627 -0.0560839 0)
(-0.078608 -0.0533354 0)
(-0.0810537 -0.0504924 0)
(-0.0834272 -0.0475462 0)
(-0.0856881 -0.0444956 0)
(-0.0878131 -0.0413435 0)
(-0.0897882 -0.0380952 0)
(-0.0916041 -0.0347568 0)
(-0.0932541 -0.0313353 0)
(-0.0947329 -0.0278379 0)
(-0.0960362 -0.0242723 0)
(-0.0971604 -0.0206466 0)
(-0.0981029 -0.0169687 0)