/*--------------------------------*- C++ -*----------------------------------*\
  =========                 |
  \\      /  F ield         | OpenFOAM: The Open Source CFD Toolbox
   \\    /   O peration     | Website:  https://openfoam.org
    \\  /    A nd           | Version:  8
     \\/     M anipulation  |
\*---------------------------------------------------------------------------*/
FoamFile
{
    version     2.0;
    format      ascii;
    class       volScalarField;
    location    "620/fluid";
    object      CH4;
}
// * * * * * * * * * * * * * * * * * * * * * * * * * * * * * * * * * * * * * //

dimensions      [0 0 0 0 0 0 0];

internalField   nonuniform List<scalar> 
4000
(
0.999997
0.999986
0.999968
0.999939
0.999889
0.999806
0.99967
0.999448
0.999088
0.998513
0.997607
0.996202
0.994067
0.990893
0.986298
0.979837
0.971046
0.959497
0.944859
0.926951
0.905761
0.881435
0.854248
0.824558
0.792776
0.759332
0.724652
0.689145
0.653195
0.617148
0.581316
0.54597
0.51134
0.477615
0.44495
0.413465
0.383252
0.354376
0.326876
0.300771
0.276059
0.252728
0.230749
0.210088
0.1907
0.172538
0.155549
0.139678
0.124871
0.111072
0.0982264
0.0862812
0.0751859
0.064893
0.0553585
0.0465428
0.0384111
0.0310339
0.0243611
0.0181193
0.0124952
0.00750144
0.00331127
0.00232184
0.00160763
0.0010971
0.000736455
0.000485244
0.000313119
0.000197461
0.000121573
7.32908e-05
4.39386e-05
2.76312e-05
2.00899e-05
1.54102e-05
1.14255e-05
8.02969e-06
5.29378e-06
3.24961e-06
1.85393e-06
9.8783e-07
4.96175e-07
2.38789e-07
1.11539e-07
5.08743e-08
2.27571e-08
1.00164e-08
4.34901e-09
1.8666e-09
7.933e-10
3.34326e-10
1.3987e-10
5.8123e-11
2.3979e-11
9.79237e-12
3.92202e-12
1.49987e-12
5.01516e-13
8.79718e-14
0.999997
0.999986
0.999968
0.999938
0.999888
0.999805
0.999668
0.999444
0.999082
0.998504
0.997596
0.996192
0.994064
0.990912
0.986362
0.979982
0.971319
0.959948
0.945538
0.927895
0.906987
0.882941
0.856009
0.826537
0.794922
0.76159
0.726967
0.691466
0.655474
0.619348
0.583405
0.547924
0.513142
0.479254
0.44642
0.414765
0.384384
0.355345
0.327691
0.301439
0.276592
0.253136
0.231044
0.21028
0.190801
0.172556
0.155495
0.139562
0.124701
0.110856
0.0979707
0.0859926
0.0748701
0.064555
0.0550027
0.0461731
0.0380308
0.0306482
0.0239734
0.0177265
0.0120978
0.0071057
0.00323872
0.00227136
0.00157153
0.00107087
0.000717316
0.000471348
0.000303166
0.000190491
0.000116855
7.02716e-05
4.22131e-05
2.69313e-05
1.98705e-05
1.51483e-05
1.11084e-05
7.71376e-06
5.02533e-06
3.0541e-06
1.73209e-06
9.22529e-07
4.65744e-07
2.25814e-07
1.06417e-07
4.89852e-08
2.21021e-08
9.80177e-09
4.2821e-09
1.8465e-09
7.87312e-10
3.32453e-10
1.39205e-10
5.7845e-11
2.38484e-11
9.72868e-12
3.89178e-12
1.48658e-12
4.96606e-13
8.70898e-14
0.999997
0.999986
0.999968
0.999938
0.999888
0.999804
0.999666
0.999441
0.999077
0.998498
0.997588
0.996184
0.994061
0.990924
0.986406
0.980084
0.971513
0.960277
0.946045
0.928622
0.907966
0.884188
0.857526
0.828306
0.796914
0.763763
0.729272
0.693851
0.657889
0.621745
0.585741
0.550161
0.515249
0.481208
0.448203
0.416364
0.385794
0.356565
0.328722
0.302287
0.277265
0.253643
0.231397
0.210489
0.190877
0.172516
0.155351
0.139325
0.124383
0.110468
0.0975223
0.0854931
0.0743281
0.0639782
0.0543984
0.0455477
0.0373905
0.0300059
0.023332
0.0170894
0.0114796
0.00650719
0.00318728
0.00222321
0.00153017
0.00103724
0.000691076
0.000451599
0.000288811
0.000180441
0.000110133
6.60693e-05
3.99149e-05
2.61061e-05
1.95437e-05
1.4785e-05
1.07238e-05
7.36526e-06
4.75088e-06
2.86554e-06
1.61834e-06
8.61369e-07
4.35874e-07
2.12085e-07
1.004e-07
4.64475e-08
2.10656e-08
9.38903e-09
4.12085e-09
1.78426e-09
7.63404e-10
3.23242e-10
1.35622e-10
5.64317e-11
2.32827e-11
9.50021e-12
3.79994e-12
1.45102e-12
4.84514e-13
8.49442e-14
0.999997
0.999986
0.999968
0.999938
0.999887
0.999804
0.999666
0.999441
0.999078
0.998501
0.997596
0.996202
0.994097
0.990989
0.986518
0.980265
0.971792
0.960684
0.946611
0.929373
0.90892
0.885355
0.858903
0.829881
0.798666
0.765662
0.731285
0.69594
0.660014
0.623866
0.587821
0.552167
0.51715
0.48298
0.449826
0.417824
0.38708
0.357671
0.329647
0.303034
0.277838
0.254049
0.231642
0.210586
0.190842
0.172358
0.155081
0.138957
0.123927
0.109935
0.0969248
0.0848408
0.0736306
0.0632447
0.0536373
0.0447668
0.0365973
0.0292252
0.0225725
0.0163509
0.0107525
0.00579234
0.00314514
0.00217847
0.00148871
0.00100193
0.000662804
0.000430064
0.00027313
0.000169525
0.000102916
6.16323e-05
3.75553e-05
2.53073e-05
1.91139e-05
1.43278e-05
1.02745e-05
6.97477e-06
4.44951e-06
2.65901e-06
1.49212e-06
7.9171e-07
4.00563e-07
1.95277e-07
9.27267e-08
4.3056e-08
1.96052e-08
8.77374e-09
3.86623e-09
1.6804e-09
7.21492e-10
3.06455e-10
1.28929e-10
5.37694e-11
2.22254e-11
9.08187e-12
3.63646e-12
1.38956e-12
4.64131e-13
8.13814e-14
0.999997
0.999986
0.999968
0.999938
0.999888
0.999804
0.999667
0.999443
0.999081
0.998507
0.997607
0.996222
0.994133
0.991051
0.986619
0.980424
0.972032
0.961031
0.94709
0.930005
0.90972
0.88633
0.860051
0.831192
0.800121
0.767239
0.732953
0.697669
0.661772
0.62562
0.58954
0.553821
0.518715
0.484433
0.45115
0.419004
0.388107
0.358539
0.330353
0.303578
0.278222
0.254277
0.231726
0.210537
0.190667
0.172068
0.154687
0.13847
0.123358
0.109296
0.0962263
0.0840931
0.0728435
0.0624274
0.0527982
0.0439137
0.0357454
0.0284121
0.0217656
0.0155379
0.00995613
0.00506468
0.00309957
0.00212589
0.00143954
0.000960603
0.000630399
0.000405964
0.000256006
0.000157885
9.53895e-05
5.70943e-05
3.52127e-05
2.45526e-05
1.85802e-05
1.37978e-05
9.79479e-06
6.58389e-06
4.16299e-06
2.47054e-06
1.38038e-06
7.31233e-07
3.70189e-07
1.80834e-07
8.60995e-08
4.00966e-08
1.83116e-08
8.21784e-09
3.63063e-09
1.58167e-09
6.80491e-10
2.8955e-10
1.21999e-10
5.09417e-11
2.10774e-11
8.61928e-12
3.45309e-12
1.3199e-12
4.40886e-13
7.73037e-14
0.999997
0.999986
0.999968
0.999938
0.999888
0.999805
0.999668
0.999445
0.999087
0.998516
0.997623
0.996249
0.994177
0.991121
0.986728
0.980589
0.972269
0.96136
0.947528
0.930567
0.910417
0.887163
0.861017
0.832281
0.801318
0.768524
0.734304
0.699061
0.663178
0.627014
0.590897
0.555118
0.519931
0.48555
0.452152
0.419881
0.38885
0.359142
0.330814
0.303894
0.278397
0.254323
0.231648
0.210341
0.190361
0.171661
0.15419
0.137892
0.122712
0.108591
0.0954719
0.0833001
0.0720218
0.0615866
0.0519475
0.0430618
0.0348964
0.0275849
0.020934
0.014724
0.00916797
0.00434343
0.00297191
0.00201834
0.00135641
0.000899562
0.0005872
0.000376332
0.000236284
0.000145181
8.75287e-05
5.25058e-05
3.28462e-05
2.35011e-05
1.78462e-05
1.31875e-05
9.30242e-06
6.20995e-06
3.90024e-06
2.30151e-06
1.28082e-06
6.77045e-07
3.42565e-07
1.67485e-07
7.98615e-08
3.72599e-08
1.70505e-08
7.66789e-09
3.3947e-09
1.48184e-09
6.38731e-10
2.72243e-10
1.1488e-10
4.80319e-11
1.9895e-11
8.1428e-12
3.26425e-12
1.24819e-12
4.16961e-13
7.31073e-14
0.999997
0.999986
0.999968
0.999939
0.999889
0.999806
0.99967
0.999449
0.999092
0.998526
0.997639
0.996275
0.994219
0.991187
0.986828
0.980736
0.972479
0.961647
0.947907
0.931048
0.911005
0.88786
0.861817
0.833175
0.802292
0.76956
0.735384
0.700163
0.664281
0.628097
0.591939
0.556101
0.520838
0.486367
0.452868
0.420486
0.389338
0.359508
0.331054
0.304014
0.278404
0.254217
0.231434
0.210025
0.189952
0.171168
0.153622
0.137259
0.122022
0.107855
0.0946992
0.0825
0.071204
0.0607608
0.0511239
0.0422518
0.0341071
0.026885
0.0201013
0.0139646
0.00847712
0.00373484
0.00261035
0.00179787
0.00121944
0.000813542
0.000532999
0.000342316
0.000215176
0.000132342
7.99699e-05
4.83119e-05
3.08203e-05
2.25769e-05
1.71892e-05
1.26643e-05
8.89495e-06
5.90691e-06
3.68986e-06
2.16705e-06
1.2018e-06
6.33942e-07
3.20462e-07
1.5671e-07
7.47702e-08
3.49143e-08
1.59929e-08
7.19976e-09
3.19084e-09
1.39431e-09
6.01614e-10
2.56669e-10
1.08403e-10
4.53594e-11
1.88006e-11
7.69894e-12
3.08744e-12
1.18078e-12
3.9442e-13
6.9148e-14
0.999997
0.999986
0.999969
0.999939
0.999889
0.999807
0.999672
0.999452
0.999098
0.998535
0.997655
0.996301
0.994259
0.991249
0.986921
0.98087
0.972665
0.961898
0.948234
0.931457
0.911499
0.888438
0.862474
0.833901
0.803074
0.770384
0.736233
0.70102
0.665128
0.628917
0.592716
0.55682
0.521486
0.486933
0.453343
0.420863
0.38961
0.359674
0.33112
0.303981
0.278271
0.253988
0.231115
0.209623
0.189474
0.170622
0.153015
0.136601
0.121321
0.107118
0.0939358
0.0817182
0.0704117
0.0599661
0.0503346
0.0414755
0.0333799
0.0261868
0.0194382
0.0133721
0.0079961
0.00342923
0.00239465
0.00165041
0.0011208
0.000748696
0.000491063
0.000315674
0.00019861
0.000122332
7.41865e-05
4.52513e-05
2.95521e-05
2.20722e-05
1.68169e-05
1.23442e-05
8.62582e-06
5.69604e-06
3.53741e-06
2.06648e-06
1.14112e-06
6.00068e-07
3.02711e-07
1.47899e-07
7.05379e-08
3.29361e-08
1.50895e-08
6.79558e-09
3.0132e-09
1.31745e-09
5.68805e-10
2.42827e-10
1.02622e-10
4.29653e-11
1.78175e-11
7.29933e-12
2.92798e-12
1.11991e-12
3.74045e-13
6.55671e-14
0.999997
0.999986
0.999969
0.999939
0.99989
0.999808
0.999674
0.999455
0.999103
0.998544
0.997669
0.996324
0.994295
0.991304
0.987002
0.980986
0.972826
0.962113
0.948509
0.931799
0.911909
0.888912
0.863007
0.834484
0.803696
0.771032
0.736892
0.701676
0.665767
0.629525
0.59328
0.557327
0.521927
0.4873
0.453629
0.421061
0.38972
0.359699
0.331057
0.303831
0.278037
0.253675
0.230728
0.209169
0.188958
0.170052
0.152399
0.135944
0.120632
0.106404
0.0932036
0.0809748
0.0696639
0.0592203
0.0495972
0.0407528
0.0327158
0.0255525
0.0188356
0.0128102
0.00748115
0.003266
0.00227744
0.00156759
0.0010634
0.000709719
0.000465182
0.000298902
0.00018805
0.000115938
7.05601e-05
4.34892e-05
2.90766e-05
2.19721e-05
1.67101e-05
1.2216e-05
8.4875e-06
5.5668e-06
3.43487e-06
1.99481e-06
1.09622e-06
5.74317e-07
2.88929e-07
1.40944e-07
6.71492e-08
3.13318e-08
1.43485e-08
6.46053e-09
2.86456e-09
1.25259e-09
5.4092e-10
2.30988e-10
9.76497e-11
4.08972e-11
1.6965e-11
6.95183e-12
2.78901e-12
1.06677e-12
3.56243e-13
6.24327e-14
0.999997
0.999986
0.999969
0.99994
0.999891
0.999809
0.999676
0.999458
0.999108
0.998552
0.997682
0.996344
0.994327
0.991352
0.987072
0.981085
0.972963
0.962294
0.94874
0.932082
0.912244
0.889297
0.863435
0.834947
0.804184
0.771533
0.737396
0.702169
0.666237
0.629962
0.593673
0.557667
0.522206
0.487511
0.453767
0.421127
0.389714
0.359617
0.330899
0.3036
0.277738
0.253311
0.230304
0.208691
0.188432
0.169483
0.151794
0.13531
0.119975
0.10573
0.0925182
0.0802839
0.0689728
0.0585341
0.0489206
0.0400902
0.0320793
0.0249469
0.0182562
0.0122483
0.00693278
0.00320479
0.00222836
0.00153031
0.00103618
0.000690518
0.00045206
0.000290232
0.000182546
0.000112637
6.87803e-05
4.27727e-05
2.91294e-05
2.21699e-05
1.68011e-05
1.22173e-05
8.44131e-06
5.50151e-06
3.37085e-06
1.94554e-06
1.06358e-06
5.54919e-07
2.78275e-07
1.35471e-07
6.44439e-08
3.00356e-08
1.37436e-08
6.1847e-09
2.74129e-09
1.19848e-09
5.1753e-10
2.21015e-10
9.34467e-11
3.9144e-11
1.62408e-11
6.65606e-12
2.67056e-12
1.02144e-12
3.41052e-13
5.97526e-14
0.999997
0.999987
0.999969
0.99994
0.999891
0.99981
0.999677
0.999461
0.999113
0.998559
0.997694
0.996362
0.994354
0.991393
0.987132
0.98117
0.973077
0.962444
0.94893
0.932313
0.912516
0.889606
0.863775
0.835311
0.804562
0.771917
0.737774
0.702532
0.666576
0.630266
0.593935
0.557881
0.522364
0.487609
0.453804
0.421102
0.389623
0.359461
0.330681
0.303322
0.277403
0.252924
0.229869
0.208213
0.187916
0.168936
0.15122
0.134715
0.119363
0.105107
0.09189
0.0796545
0.0683466
0.0579149
0.048312
0.0394953
0.0315098
0.0243989
0.0177225
0.011736
0.00644148
0.00317222
0.00220398
0.00151244
0.00102343
0.000681682
0.000446141
0.000286424
0.000180229
0.000111361
6.8236e-05
4.27934e-05
2.96765e-05
2.26535e-05
1.70849e-05
1.23473e-05
8.47224e-06
5.48367e-06
3.33728e-06
1.91387e-06
1.04074e-06
5.40683e-07
2.70218e-07
1.31251e-07
6.23255e-08
2.90083e-08
1.32595e-08
5.96211e-09
2.64113e-09
1.15425e-09
4.98321e-10
2.1279e-10
8.99687e-11
3.76893e-11
1.56386e-11
6.40978e-12
2.57184e-12
9.83626e-13
3.28395e-13
5.75209e-14
0.999997
0.999987
0.999969
0.99994
0.999892
0.999811
0.999679
0.999463
0.999116
0.998565
0.997703
0.996377
0.994377
0.991427
0.987182
0.98124
0.973172
0.962567
0.949084
0.9325
0.912733
0.889851
0.864042
0.835592
0.804852
0.772205
0.738053
0.702793
0.666811
0.630468
0.594098
0.557998
0.522432
0.487627
0.453769
0.421011
0.389478
0.359262
0.33043
0.303022
0.277057
0.252535
0.229443
0.207753
0.187428
0.168423
0.150688
0.134168
0.118806
0.104545
0.0913257
0.0790924
0.0677903
0.0573678
0.0477779
0.0389803
0.0310188
0.0239229
0.0172669
0.011301
0.00602806
0.00315069
0.00219009
0.00150361
0.00101794
0.000678403
0.00044427
0.00028544
0.000179808
0.000111316
6.84879e-05
4.33394e-05
3.05709e-05
2.33258e-05
1.74915e-05
1.25596e-05
8.5587e-06
5.50042e-06
3.32566e-06
1.89562e-06
1.02547e-06
5.30548e-07
2.64269e-07
1.28064e-07
6.07005e-08
2.82104e-08
1.28798e-08
5.78616e-09
2.56143e-09
1.11887e-09
4.8288e-10
2.06153e-10
8.71529e-11
3.65083e-11
1.51487e-11
6.20916e-12
2.49142e-12
9.52865e-13
3.18118e-13
5.57207e-14
0.999997
0.999987
0.999969
0.99994
0.999892
0.999812
0.99968
0.999465
0.999119
0.99857
0.997711
0.99639
0.994397
0.991456
0.987223
0.981297
0.973249
0.962667
0.949209
0.932649
0.912905
0.890042
0.864248
0.835808
0.805069
0.772418
0.738254
0.702975
0.666968
0.630595
0.594188
0.558049
0.522442
0.487592
0.453688
0.420883
0.389303
0.359043
0.330168
0.30272
0.276718
0.252163
0.229041
0.207325
0.186979
0.167956
0.150207
0.133677
0.11831
0.104046
0.090828
0.0785992
0.0673046
0.0568938
0.0473192
0.0385344
0.0305906
0.0235133
0.0168757
0.0109288
0.00568055
0.00313164
0.00218004
0.00149882
0.00101612
0.000678124
0.000444733
0.000286201
0.000180639
0.000112129
6.92792e-05
4.41643e-05
3.14974e-05
2.40263e-05
1.79342e-05
1.28071e-05
8.675e-06
5.5403e-06
3.32934e-06
1.88802e-06
1.01659e-06
5.23857e-07
2.60112e-07
1.2577e-07
5.95055e-08
2.76143e-08
1.25926e-08
5.65168e-09
2.50001e-09
1.0914e-09
4.70825e-10
2.00945e-10
8.49341e-11
3.55746e-11
1.47603e-11
6.04977e-12
2.42742e-12
9.28368e-13
3.0993e-13
5.42885e-14
0.999997
0.999987
0.999969
0.99994
0.999892
0.999812
0.999681
0.999467
0.999122
0.998575
0.997718
0.9964
0.994413
0.991479
0.987256
0.981343
0.973311
0.962747
0.949307
0.932766
0.91304
0.890191
0.864406
0.83597
0.805231
0.772572
0.738395
0.703099
0.667068
0.630667
0.594229
0.558055
0.522412
0.487523
0.45358
0.420737
0.389119
0.358822
0.329913
0.302432
0.276401
0.25182
0.228675
0.206939
0.186576
0.167541
0.149783
0.133247
0.117876
0.103613
0.0903977
0.078175
0.0668911
0.0564924
0.046927
0.0381514
0.0302285
0.0231671
0.0165446
0.0106123
0.00539622
0.00311582
0.00217328
0.00149711
0.00101697
0.000680072
0.000446964
0.000288299
0.000182438
0.000113609
7.05015e-05
4.5236e-05
3.25094e-05
2.47781e-05
1.84203e-05
1.30908e-05
8.81993e-06
5.60148e-06
3.34778e-06
1.889e-06
1.01314e-06
5.20305e-07
2.57557e-07
1.24271e-07
5.86918e-08
2.71963e-08
1.23867e-08
5.55363e-09
2.45461e-09
1.07088e-09
4.61738e-10
1.96992e-10
8.32401e-11
3.48584e-11
1.44613e-11
5.92673e-12
2.37789e-12
9.09402e-13
3.03574e-13
5.31828e-14
0.999997
0.999987
0.99997
0.999941
0.999892
0.999813
0.999682
0.999468
0.999124
0.998578
0.997724
0.996409
0.994425
0.991498
0.987283
0.98138
0.97336
0.96281
0.949385
0.932857
0.913143
0.890304
0.864525
0.836091
0.805348
0.772682
0.738493
0.703179
0.667128
0.630702
0.594238
0.558035
0.52236
0.487439
0.453464
0.420588
0.388939
0.358613
0.329676
0.30217
0.276116
0.251514
0.228352
0.206602
0.186227
0.167183
0.149418
0.132879
0.117508
0.103246
0.0900366
0.0778216
0.0665443
0.0561506
0.0465946
0.037832
0.0299275
0.0228806
0.0162722
0.0103546
0.00516731
0.00310305
0.00216948
0.00149806
0.0010201
0.000683895
0.000450671
0.000291517
0.000185057
0.000115666
7.21125e-05
4.6554e-05
3.36475e-05
2.56067e-05
1.89625e-05
1.34158e-05
8.99479e-06
5.68362e-06
3.38014e-06
1.89867e-06
1.01428e-06
5.19265e-07
2.56385e-07
1.23457e-07
5.82063e-08
2.69306e-08
1.225e-08
5.48656e-09
2.42285e-09
1.05628e-09
4.55183e-10
1.9411e-10
8.1995e-11
3.43287e-11
1.42387e-11
5.83508e-12
2.34067e-12
8.95367e-13
2.98784e-13
5.23595e-14
0.999997
0.999987
0.99997
0.999941
0.999893
0.999813
0.999682
0.999469
0.999126
0.998581
0.997728
0.996415
0.994435
0.991512
0.987304
0.981409
0.973398
0.962858
0.949444
0.932926
0.913221
0.890388
0.864613
0.836179
0.805432
0.772758
0.738558
0.703229
0.66716
0.630714
0.594227
0.558
0.522299
0.487353
0.453351
0.42045
0.388776
0.358427
0.329468
0.301943
0.275871
0.251253
0.228078
0.206317
0.185934
0.166883
0.149116
0.132575
0.117206
0.102948
0.0897431
0.0775317
0.0662588
0.0558735
0.0463271
0.0375751
0.0296818
0.0226458
0.0160457
0.0101329
0.00495943
0.0030931
0.00216835
0.00150139
0.00102525
0.000689367
0.000455677
0.000295726
0.000188406
0.000118239
7.40699e-05
4.80823e-05
3.48956e-05
2.65054e-05
1.95555e-05
1.37775e-05
9.19573e-06
5.78364e-06
3.42417e-06
1.91553e-06
1.01962e-06
5.20367e-07
2.56259e-07
1.23147e-07
5.79659e-08
2.67836e-08
1.21685e-08
5.44438e-09
2.40213e-09
1.04649e-09
4.50702e-10
1.92111e-10
8.11198e-11
3.39542e-11
1.4079e-11
5.771e-12
2.3137e-12
8.85502e-13
2.95384e-13
5.17727e-14
0.999997
0.999987
0.99997
0.999941
0.999893
0.999813
0.999683
0.99947
0.999127
0.998583
0.997731
0.996421
0.994443
0.991523
0.987319
0.98143
0.973426
0.962894
0.949487
0.932978
0.913279
0.890449
0.864676
0.836241
0.80549
0.77281
0.738599
0.703259
0.667175
0.630712
0.594207
0.557961
0.52224
0.487273
0.453251
0.420331
0.388638
0.358271
0.329296
0.301756
0.27567
0.251042
0.227857
0.206088
0.1857
0.166646
0.148877
0.132338
0.116969
0.102712
0.0895083
0.0773014
0.0660355
0.0556579
0.0461198
0.0373765
0.0294944
0.0224675
0.0158752
0.00996927
0.00481142
0.00308556
0.00216952
0.00150678
0.00103217
0.000696277
0.000461818
0.000300801
0.000192393
0.000121265
7.63315e-05
4.97958e-05
3.62311e-05
2.74553e-05
2.01832e-05
1.41636e-05
9.4139e-06
5.89568e-06
3.47617e-06
1.93732e-06
1.02783e-06
5.23064e-07
2.56953e-07
1.2324e-07
5.79128e-08
2.67211e-08
1.21268e-08
5.4207e-09
2.38975e-09
1.04042e-09
4.47829e-10
1.90809e-10
8.05363e-11
3.37101e-11
1.39705e-11
5.72924e-12
2.29557e-12
8.78982e-13
2.931e-13
5.13831e-14
0.999997
0.999987
0.99997
0.999941
0.999893
0.999814
0.999683
0.99947
0.999128
0.998584
0.997733
0.996424
0.994448
0.991531
0.987331
0.981446
0.973447
0.962919
0.949518
0.933014
0.913319
0.890492
0.86472
0.836283
0.805529
0.772843
0.738625
0.703275
0.66718
0.630705
0.594186
0.557925
0.52219
0.487209
0.453172
0.420237
0.388531
0.358151
0.329164
0.301614
0.275519
0.250883
0.227692
0.205919
0.185527
0.166471
0.1487
0.132159
0.11679
0.102536
0.0893359
0.0771337
0.0658734
0.0555021
0.0459706
0.0372343
0.0293613
0.0223411
0.0157544
0.00985235
0.00470329
0.00308028
0.00217274
0.00151393
0.00104052
0.00070433
0.000468838
0.000306532
0.000196854
0.000124619
7.88022e-05
5.1618e-05
3.75929e-05
2.84076e-05
2.08082e-05
1.45475e-05
9.63202e-06
6.00933e-06
3.5303e-06
1.96093e-06
1.03728e-06
5.2653e-07
2.58092e-07
1.23577e-07
5.79861e-08
2.67221e-08
1.21145e-08
5.41056e-09
2.38358e-09
1.03724e-09
4.46205e-10
1.90101e-10
8.01948e-11
3.35723e-11
1.39068e-11
5.70486e-12
2.2846e-12
8.75078e-13
2.91703e-13
5.11475e-14
0.999997
0.999987
0.99997
0.999941
0.999893
0.999814
0.999683
0.999471
0.999129
0.998585
0.997735
0.996426
0.994452
0.991536
0.987338
0.981455
0.97346
0.962936
0.949538
0.933036
0.913344
0.890519
0.864746
0.836309
0.805553
0.772863
0.73864
0.703283
0.667181
0.630698
0.59417
0.5579
0.522155
0.487163
0.453117
0.420173
0.388459
0.358071
0.329077
0.301519
0.275419
0.250778
0.227583
0.205806
0.185411
0.166353
0.148582
0.132041
0.116674
0.102421
0.0892247
0.0770262
0.0657701
0.0554035
0.045877
0.0371458
0.0292789
0.0222633
0.0156796
0.00977874
0.00463268
0.00307694
0.0021775
0.00152219
0.00104962
0.000712846
0.000476131
0.000312413
0.000201388
0.000127995
8.12541e-05
5.33752e-05
3.8846e-05
2.92593e-05
2.13567e-05
1.48799e-05
9.81955e-06
6.10701e-06
3.57715e-06
1.98164e-06
1.04575e-06
5.29752e-07
2.59222e-07
1.23972e-07
5.81112e-08
2.67566e-08
1.21207e-08
5.41034e-09
2.3818e-09
1.03632e-09
4.45519e-10
1.8982e-10
8.0034e-11
3.3509e-11
1.38748e-11
5.69292e-12
2.27886e-12
8.7307e-13
2.90962e-13
5.10236e-14
0.999997
0.999987
0.99997
0.999941
0.999893
0.999814
0.999683
0.999471
0.999129
0.998586
0.997736
0.996428
0.994453
0.991539
0.987341
0.98146
0.973466
0.962943
0.949547
0.933047
0.913355
0.890531
0.864759
0.836321
0.805563
0.772872
0.738646
0.703287
0.667181
0.630693
0.594161
0.557886
0.522136
0.48714
0.45309
0.420141
0.388423
0.358031
0.329033
0.301472
0.275369
0.250725
0.227528
0.20575
0.185354
0.166296
0.148524
0.131984
0.116618
0.102367
0.0891718
0.0769755
0.0657219
0.055358
0.0458344
0.0371062
0.0292428
0.0222295
0.0156471
0.00974553
0.00459803
0.00307531
0.00218249
0.00152964
0.00105737
0.000719852
0.000481987
0.000317054
0.000204919
0.000130594
8.31122e-05
5.4662e-05
3.96997e-05
2.98082e-05
2.16962e-05
1.50793e-05
9.92949e-06
6.16336e-06
3.60395e-06
1.99348e-06
1.05061e-06
5.31605e-07
2.59942e-07
1.24223e-07
5.82038e-08
2.67839e-08
1.21294e-08
5.41213e-09
2.38188e-09
1.03618e-09
4.45315e-10
1.89737e-10
7.99762e-11
3.34865e-11
1.38625e-11
5.68829e-12
2.27653e-12
8.72265e-13
2.90657e-13
5.09731e-14
0.999997
0.999987
0.99997
0.999941
0.999893
0.999814
0.999683
0.999471
0.999129
0.998586
0.997736
0.996428
0.994453
0.991539
0.987341
0.98146
0.973466
0.962943
0.949547
0.933047
0.913355
0.890531
0.864759
0.83632
0.805563
0.772871
0.738646
0.703286
0.66718
0.630693
0.59416
0.557886
0.522136
0.48714
0.45309
0.420141
0.388422
0.35803
0.329033
0.301472
0.275369
0.250725
0.227528
0.20575
0.185354
0.166296
0.148524
0.131984
0.116618
0.102367
0.0891718
0.0769754
0.0657218
0.0553579
0.0458344
0.0371061
0.0292427
0.0222295
0.0156471
0.0097455
0.00459801
0.00307531
0.00218249
0.00152964
0.00105737
0.000719852
0.000481987
0.000317054
0.000204919
0.000130594
8.31122e-05
5.4662e-05
3.96997e-05
2.98082e-05
2.16962e-05
1.50794e-05
9.92949e-06
6.16337e-06
3.60395e-06
1.99348e-06
1.05061e-06
5.31599e-07
2.5996e-07
1.24214e-07
5.82087e-08
2.67823e-08
1.213e-08
5.41204e-09
2.38192e-09
1.03619e-09
4.45318e-10
1.89737e-10
7.99769e-11
3.34865e-11
1.38626e-11
5.6883e-12
2.27655e-12
8.72261e-13
2.90659e-13
5.0973e-14
0.999997
0.999987
0.99997
0.999941
0.999893
0.999814
0.999683
0.999471
0.999129
0.998585
0.997735
0.996426
0.994452
0.991536
0.987338
0.981455
0.973459
0.962935
0.949538
0.933036
0.913343
0.890518
0.864746
0.836308
0.805552
0.772862
0.738639
0.703282
0.66718
0.630697
0.594168
0.557898
0.522153
0.487162
0.453116
0.420172
0.388458
0.35807
0.329076
0.301518
0.275418
0.250777
0.227582
0.205805
0.185411
0.166353
0.148581
0.132041
0.116673
0.102421
0.0892243
0.0770259
0.0657698
0.0554032
0.0458768
0.0371456
0.0292787
0.0222631
0.0156795
0.00977865
0.00463261
0.00307694
0.0021775
0.00152219
0.00104962
0.000712847
0.000476131
0.000312413
0.000201388
0.000127995
8.1254e-05
5.33752e-05
3.8846e-05
2.92593e-05
2.13567e-05
1.48799e-05
9.81956e-06
6.10702e-06
3.57716e-06
1.98165e-06
1.04576e-06
5.29747e-07
2.59252e-07
1.23956e-07
5.81208e-08
2.6754e-08
1.21219e-08
5.41025e-09
2.38187e-09
1.03633e-09
4.45529e-10
1.89822e-10
8.00362e-11
3.35091e-11
1.38751e-11
5.69291e-12
2.27894e-12
8.73049e-13
2.90967e-13
5.1023e-14
0.999997
0.999987
0.99997
0.999941
0.999893
0.999814
0.999683
0.99947
0.999128
0.998584
0.997733
0.996424
0.994448
0.991531
0.98733
0.981445
0.973446
0.962919
0.949518
0.933013
0.913317
0.890491
0.864718
0.836281
0.805527
0.772841
0.738623
0.703273
0.667178
0.630703
0.594184
0.557924
0.522188
0.487207
0.45317
0.420235
0.388529
0.358149
0.329163
0.301612
0.275518
0.250882
0.227691
0.205918
0.185526
0.16647
0.1487
0.132159
0.11679
0.102535
0.0893354
0.0771333
0.065873
0.0555017
0.0459703
0.037234
0.029361
0.0223409
0.0157542
0.0098522
0.00470318
0.00308029
0.00217275
0.00151394
0.00104052
0.000704332
0.00046884
0.000306533
0.000196854
0.000124619
7.88023e-05
5.1618e-05
3.75929e-05
2.84076e-05
2.08083e-05
1.45475e-05
9.63205e-06
6.00936e-06
3.53032e-06
1.96094e-06
1.03729e-06
5.26537e-07
2.58098e-07
1.23578e-07
5.79879e-08
2.67227e-08
1.21148e-08
5.41073e-09
2.38364e-09
1.03726e-09
4.4622e-10
1.90104e-10
8.01979e-11
3.35726e-11
1.39073e-11
5.70485e-12
2.28472e-12
8.75053e-13
2.91712e-13
5.11468e-14
0.999997
0.999987
0.99997
0.999941
0.999893
0.999813
0.999683
0.99947
0.999127
0.998583
0.997731
0.99642
0.994443
0.991523
0.987319
0.98143
0.973426
0.962893
0.949486
0.932976
0.913277
0.890448
0.864674
0.836238
0.805488
0.772807
0.738597
0.703256
0.667172
0.63071
0.594204
0.557958
0.522237
0.487271
0.453249
0.420328
0.388636
0.358269
0.329294
0.301754
0.275668
0.25104
0.227855
0.206087
0.185698
0.166645
0.148876
0.132337
0.116968
0.102711
0.0895076
0.0773007
0.0660349
0.0556574
0.0461193
0.0373761
0.0294941
0.0224672
0.015875
0.00996905
0.00481126
0.00308557
0.00216953
0.00150679
0.00103217
0.000696281
0.000461821
0.000300803
0.000192394
0.000121266
7.63318e-05
4.9796e-05
3.62312e-05
2.74554e-05
2.01832e-05
1.41636e-05
9.41393e-06
5.89571e-06
3.4762e-06
1.93735e-06
1.02785e-06
5.23075e-07
2.56959e-07
1.23244e-07
5.79147e-08
2.67221e-08
1.21271e-08
5.42088e-09
2.38985e-09
1.04046e-09
4.47846e-10
1.90816e-10
8.054e-11
3.37112e-11
1.39713e-11
5.72925e-12
2.29574e-12
8.78954e-13
2.93112e-13
5.13829e-14
0.999997
0.999987
0.99997
0.999941
0.999893
0.999813
0.999682
0.999469
0.999126
0.998581
0.997728
0.996415
0.994435
0.991512
0.987303
0.981408
0.973397
0.962857
0.949442
0.932925
0.913219
0.890386
0.86461
0.836176
0.805429
0.772755
0.738554
0.703226
0.667157
0.63071
0.594223
0.557996
0.522295
0.487349
0.453348
0.420447
0.388773
0.358424
0.329466
0.30194
0.275868
0.251251
0.228076
0.206315
0.185932
0.166882
0.149114
0.132574
0.117205
0.102947
0.0897421
0.0775308
0.066258
0.0558729
0.0463265
0.0375746
0.0296813
0.0226454
0.0160454
0.0101326
0.00495922
0.00309311
0.00216835
0.00150139
0.00102526
0.000689372
0.000455681
0.000295729
0.000188407
0.00011824
7.40703e-05
4.80826e-05
3.48958e-05
2.65055e-05
1.95556e-05
1.37776e-05
9.19578e-06
5.78368e-06
3.42421e-06
1.91556e-06
1.01964e-06
5.20379e-07
2.56267e-07
1.23151e-07
5.79678e-08
2.67846e-08
1.21691e-08
5.44467e-09
2.40225e-09
1.04655e-09
4.50726e-10
1.92122e-10
8.11245e-11
3.39563e-11
1.408e-11
5.77114e-12
2.31394e-12
8.8548e-13
2.95404e-13
5.17736e-14
0.999997
0.999987
0.99997
0.999941
0.999892
0.999813
0.999682
0.999468
0.999124
0.998578
0.997723
0.996409
0.994425
0.991497
0.987282
0.981379
0.973359
0.962808
0.949383
0.932855
0.913141
0.890301
0.864522
0.836087
0.805344
0.772678
0.738489
0.703175
0.667124
0.630698
0.594233
0.558031
0.522355
0.487435
0.45346
0.420584
0.388936
0.35861
0.329673
0.302167
0.276113
0.251512
0.228349
0.206599
0.186225
0.167181
0.149416
0.132877
0.117506
0.103245
0.0900353
0.0778205
0.0665433
0.0561497
0.0465938
0.0378313
0.0299269
0.0228801
0.0162718
0.0103542
0.00516704
0.00310306
0.00216948
0.00149806
0.0010201
0.000683899
0.000450674
0.00029152
0.000185059
0.000115667
7.21132e-05
4.65544e-05
3.36479e-05
2.56069e-05
1.89627e-05
1.34159e-05
8.99486e-06
5.68367e-06
3.38018e-06
1.8987e-06
1.01431e-06
5.1928e-07
2.56393e-07
1.23462e-07
5.82089e-08
2.6932e-08
1.22507e-08
5.48688e-09
2.423e-09
1.05635e-09
4.55214e-10
1.94124e-10
8.20012e-11
3.43314e-11
1.42399e-11
5.83555e-12
2.34093e-12
8.9539e-13
2.98816e-13
5.23618e-14
0.999997
0.999987
0.999969
0.99994
0.999892
0.999812
0.999681
0.999467
0.999122
0.998575
0.997718
0.9964
0.994412
0.991479
0.987255
0.981342
0.97331
0.962745
0.949305
0.932764
0.913037
0.890187
0.864402
0.835966
0.805226
0.772568
0.73839
0.703094
0.667063
0.630662
0.594224
0.558051
0.522407
0.487518
0.453575
0.420732
0.389114
0.358818
0.329909
0.302429
0.276397
0.251816
0.228672
0.206936
0.186574
0.167539
0.149781
0.133245
0.117875
0.103611
0.0903962
0.0781736
0.0668899
0.0564914
0.046926
0.0381505
0.0302278
0.0231665
0.0165441
0.0106119
0.00539588
0.00311582
0.00217327
0.00149711
0.00101697
0.000680075
0.000446967
0.000288301
0.00018244
0.00011361
7.05023e-05
4.52366e-05
3.251e-05
2.47784e-05
1.84206e-05
1.30909e-05
8.82002e-06
5.60155e-06
3.34783e-06
1.88904e-06
1.01316e-06
5.20319e-07
2.57566e-07
1.24276e-07
5.86948e-08
2.71979e-08
1.23874e-08
5.554e-09
2.45479e-09
1.07096e-09
4.61775e-10
1.97008e-10
8.32475e-11
3.48616e-11
1.44627e-11
5.92731e-12
2.37814e-12
9.09489e-13
3.03608e-13
5.31901e-14
0.999997
0.999987
0.999969
0.99994
0.999892
0.999812
0.99968
0.999465
0.999119
0.99857
0.997711
0.99639
0.994396
0.991455
0.987222
0.981296
0.973248
0.962665
0.949206
0.932646
0.912902
0.890038
0.864244
0.835803
0.805064
0.772412
0.738248
0.702969
0.666962
0.630588
0.594182
0.558043
0.522436
0.487586
0.453682
0.420878
0.389298
0.359038
0.330164
0.302716
0.276714
0.252159
0.229038
0.207322
0.186975
0.167953
0.150205
0.133675
0.118308
0.104044
0.0908263
0.0785976
0.0673032
0.0568926
0.0473182
0.0385335
0.0305898
0.0235125
0.016875
0.0109282
0.00568008
0.00313161
0.00218001
0.00149881
0.00101611
0.000678119
0.000444731
0.000286199
0.000180638
0.000112128
6.92786e-05
4.4164e-05
3.14974e-05
2.40264e-05
1.79343e-05
1.28072e-05
8.6751e-06
5.54037e-06
3.32939e-06
1.88806e-06
1.01661e-06
5.23874e-07
2.60122e-07
1.25776e-07
5.95087e-08
2.76159e-08
1.25934e-08
5.65208e-09
2.5002e-09
1.09149e-09
4.70866e-10
2.00964e-10
8.49424e-11
3.55782e-11
1.47619e-11
6.05043e-12
2.4277e-12
9.28477e-13
3.09961e-13
5.42987e-14
0.999997
0.999987
0.999969
0.99994
0.999892
0.999811
0.999679
0.999463
0.999116
0.998565
0.997703
0.996377
0.994377
0.991426
0.987181
0.981238
0.97317
0.962565
0.949082
0.932496
0.912729
0.889846
0.864037
0.835587
0.804846
0.772199
0.738046
0.702786
0.666804
0.630461
0.59409
0.557991
0.522426
0.48762
0.453763
0.421005
0.389471
0.359256
0.330425
0.303017
0.277052
0.252531
0.229439
0.207749
0.187424
0.16842
0.150685
0.134165
0.118804
0.104542
0.0913236
0.0790905
0.0677886
0.0573662
0.0477763
0.0389788
0.0310173
0.0239215
0.0172659
0.0113004
0.0060276
0.00315083
0.00219021
0.0015037
0.00101801
0.000678447
0.000444297
0.000285455
0.000179817
0.00011132
6.84904e-05
4.33409e-05
3.05719e-05
2.33263e-05
1.74917e-05
1.25597e-05
8.55878e-06
5.50048e-06
3.32571e-06
1.89565e-06
1.02549e-06
5.30564e-07
2.64279e-07
1.2807e-07
6.07037e-08
2.82121e-08
1.28806e-08
5.78657e-09
2.56163e-09
1.11896e-09
4.82923e-10