/*--------------------------------*- C++ -*----------------------------------*\
  =========                 |
  \\      /  F ield         | OpenFOAM: The Open Source CFD Toolbox
   \\    /   O peration     | Website:  https://openfoam.org
    \\  /    A nd           | Version:  8
     \\/     M anipulation  |
\*---------------------------------------------------------------------------*/
FoamFile
{
    version     2.0;
    format      ascii;
    class       volScalarField;
    location    "620/fluid";
    object      CO2;
}
// * * * * * * * * * * * * * * * * * * * * * * * * * * * * * * * * * * * * * //

dimensions      [0 0 0 0 0 0 0];

internalField   nonuniform List<scalar> 
4000
(
4.69686e-07
2.05226e-06
4.71276e-06
9.17098e-06
1.66093e-05
2.89509e-05
4.92865e-05
8.25128e-05
0.000136256
0.000222153
0.00035752
0.000567352
0.000886372
0.00136057
0.00204726
0.00301268
0.00432629
0.00605222
0.00823985
0.0109164
0.0140836
0.0177197
0.0217838
0.026222
0.0309732
0.0359731
0.0411579
0.0464665
0.0518416
0.0572313
0.062589
0.0678742
0.0730525
0.0780954
0.0829799
0.087688
0.0922056
0.0965228
0.100634
0.104535
0.108227
0.11171
0.114988
0.118066
0.120949
0.123642
0.126152
0.128484
0.130643
0.132632
0.134454
0.136108
0.137592
0.1389
0.140021
0.140936
0.141621
0.142035
0.142136
0.141858
0.141104
0.139746
0.137414
0.126855
0.116119
0.105385
0.0947952
0.0844584
0.0744626
0.0648791
0.0557681
0.0471825
0.0391722
0.0318228
0.0251079
0.019133
0.0139622
0.00965908
0.00627051
0.00379131
0.00213122
0.00111948
0.0005547
0.000263569
0.000121668
5.48935e-05
2.43106e-05
1.06026e-05
4.56513e-06
1.94447e-06
8.20697e-07
3.4372e-07
1.42998e-07
5.91292e-08
2.42888e-08
9.8824e-09
3.94618e-09
1.50567e-09
5.02702e-10
8.81209e-11
4.70972e-07
2.05845e-06
4.72942e-06
9.21002e-06
1.66937e-05
2.9121e-05
4.96075e-05
8.30776e-05
0.000137171
0.000223493
0.000359224
0.000569011
0.000886913
0.00135789
0.0020378
0.00299113
0.00428576
0.005985
0.00813865
0.0107756
0.0139006
0.0174949
0.0215207
0.0259264
0.0306525
0.0356356
0.0408119
0.0461196
0.0515007
0.0569022
0.0622764
0.0675817
0.0727828
0.07785
0.0827598
0.0874932
0.0920358
0.0963773
0.100511
0.104434
0.108146
0.111648
0.114943
0.118036
0.120932
0.123637
0.126157
0.128497
0.130663
0.132658
0.134485
0.136143
0.13763
0.13894
0.140062
0.140978
0.141664
0.142077
0.142177
0.141899
0.141144
0.139784
0.136563
0.125922
0.115123
0.104342
0.093713
0.0833459
0.0733275
0.0637294
0.0546131
0.0460332
0.0380424
0.0307319
0.0240774
0.0181918
0.0131411
0.00898726
0.00576657
0.00345235
0.00192974
0.00101381
0.000505346
0.000242169
0.000112917
5.14749e-05
2.30207e-05
1.01269e-05
4.39163e-06
1.8811e-06
7.97249e-07
3.34844e-07
1.39545e-07
5.77498e-08
2.37273e-08
9.65233e-09
3.85302e-09
1.46962e-09
4.90528e-10
8.59999e-11
4.73193e-07
2.06845e-06
4.75371e-06
9.26019e-06
1.67888e-05
2.92901e-05
4.98898e-05
8.35209e-05
0.000137832
0.000224408
0.000360347
0.000570105
0.000887328
0.00135614
0.0020313
0.00297602
0.00425687
0.00593609
0.00806306
0.0106672
0.0137546
0.0173087
0.0212941
0.025662
0.0303547
0.0353107
0.0404671
0.0457626
0.0511391
0.0565432
0.0619265
0.0672465
0.0724668
0.0775569
0.0824921
0.0872529
0.0918237
0.0961936
0.100356
0.104306
0.108043
0.11157
0.114887
0.118001
0.120916
0.123638
0.126173
0.128526
0.130702
0.132706
0.13454
0.136204
0.137695
0.139008
0.140131
0.141047
0.141731
0.14214
0.142236
0.141949
0.141182
0.139803
0.135024
0.124329
0.113483
0.102664
0.0920104
0.0816326
0.0716192
0.0620436
0.0529692
0.0444531
0.0365502
0.0293411
0.0228312
0.0171181
0.0122627
0.00831623
0.0052965
0.00315459
0.00175977
0.000925603
0.000463098
0.000222918
0.000104463
4.78696e-05
2.15183e-05
9.51194e-06
4.14316e-06
1.78151e-06
7.57469e-07
3.18948e-07
1.33172e-07
5.5183e-08
2.26899e-08
9.23352e-09
3.6861e-09
1.40581e-09
4.69131e-10
8.22367e-11
4.73863e-07
2.07136e-06
4.7603e-06
9.27262e-06
1.68096e-05
2.93204e-05
4.9924e-05
8.35321e-05
0.000137732
0.000223996
0.000359221
0.000567532
0.000882103
0.00134649
0.0020147
0.00294908
0.0042154
0.00587548
0.0079787
0.0105552
0.0136121
0.0171343
0.0210883
0.0254265
0.0300927
0.0350265
0.0401657
0.0454498
0.0508208
0.0562253
0.0616145
0.0669456
0.0721814
0.0772907
0.0822481
0.0870332
0.0916299
0.0960265
0.100215
0.104192
0.107955
0.111506
0.114847
0.117982
0.120916
0.123655
0.126205
0.128571
0.130759
0.132772
0.134612
0.136281
0.137775
0.139089
0.14021
0.141123
0.141801
0.1422
0.142283
0.141979
0.141188
0.139777
0.133093
0.122381
0.111516
0.100686
0.090033
0.0796723
0.0696949
0.0601762
0.0511811
0.0427682
0.0349938
0.02791
0.0215753
0.016054
0.0114019
0.00766141
0.00483542
0.00285776
0.00158568
0.000831939
0.000416284
0.000200775
9.43656e-05
4.33945e-05
1.95807e-05
8.68911e-06
3.79932e-06
1.63969e-06
6.99554e-07
2.95469e-07
1.237e-07
5.13755e-08
2.11641e-08
8.62557e-09
3.44735e-09
1.31581e-09
4.3927e-10
7.70179e-11
4.73284e-07
2.06875e-06
4.754e-06
9.25929e-06
1.67824e-05
2.92649e-05
4.98109e-05
8.33032e-05
0.000137279
0.00022312
0.000357571
0.000564514
0.00087676
0.00133736
0.00199968
0.00292536
0.00417957
0.00582372
0.00790727
0.0104608
0.0134925
0.0169886
0.0209166
0.0252304
0.0298749
0.0347904
0.0399157
0.0451905
0.0505572
0.0559621
0.0613564
0.0666969
0.071946
0.0770719
0.0820485
0.0868549
0.0914744
0.0958947
0.100107
0.104108
0.107895
0.111468
0.11483
0.117984
0.120936
0.123691
0.126254
0.128632
0.130829
0.132849
0.134695
0.136366
0.13786
0.13917
0.140286
0.14119
0.141854
0.142236
0.142298
0.141966
0.141138
0.139684
0.131036
0.120344
0.109482
0.0986545
0.088017
0.0776885
0.0677632
0.0583176
0.0494168
0.0411191
0.0334942
0.0265627
0.0204022
0.0150702
0.0106162
0.00707255
0.00442742
0.00259913
0.00143579
0.000751817
0.00037624
0.000181733
8.56015e-05
3.94619e-05
1.78517e-05
7.9415e-06
3.48051e-06
1.5053e-06
6.43444e-07
2.72226e-07
1.14134e-07
4.74602e-08
1.95709e-08
7.9826e-09
3.19226e-09
1.2189e-09
4.06963e-10
7.13547e-11
4.71555e-07
2.06107e-06
4.73579e-06
9.22223e-06
1.67114e-05
2.91329e-05
4.95695e-05
8.28672e-05
0.000136502
0.000221755
0.000355216
0.000560534
0.000870198
0.00132684
0.00198335
0.00290088
0.00414422
0.00577465
0.00784178
0.0103767
0.0133884
0.016864
0.0207721
0.0250673
0.0296956
0.0345978
0.0397132
0.0449817
0.0503461
0.0557526
0.0611523
0.0665016
0.0717627
0.0769032
0.0818968
0.0867218
0.0913612
0.095802
0.100036
0.104058
0.107865
0.111457
0.114836
0.118007
0.120974
0.123742
0.126317
0.128704
0.130908
0.132932
0.13478
0.13645
0.13794
0.139242
0.140346
0.141233
0.141876
0.142229
0.142259
0.141889
0.141021
0.139542
0.129271
0.118524
0.107614
0.0967601
0.0861228
0.0758211
0.0659476
0.0565769
0.047772
0.0395893
0.0321106
0.0253272
0.019333
0.0141801
0.00991102
0.00654767
0.00406538
0.00236964
0.00130204
0.000679502
0.000339512
0.000163998
7.73133e-05
3.569e-05
1.61728e-05
7.20825e-06
3.16538e-06
1.37169e-06
5.87438e-07
2.48968e-07
1.0455e-07
4.35358e-08
1.7974e-08
7.33837e-09
2.93677e-09
1.12186e-09
3.74613e-10
6.56841e-11
4.69274e-07
2.05102e-06
4.71231e-06
9.17543e-06
1.66241e-05
2.89753e-05
4.92906e-05
8.2381e-05
0.000135665
0.000220335
0.000352843
0.000556641
0.000863944
0.00131704
0.00196843
0.00287889
0.00411294
0.00573177
0.00778524
0.0103049
0.0133005
0.0167598
0.0206523
0.0249334
0.0295496
0.0344423
0.039551
0.0448161
0.0501801
0.0555895
0.0609951
0.0663531
0.0716253
0.0767792
0.0817878
0.0866292
0.0912859
0.0957448
0.0999971
0.104036
0.10786
0.111468
0.114863
0.118047
0.121026
0.123805
0.126388
0.128782
0.13099
0.133017
0.134863
0.136529
0.13801
0.139299
0.140384
0.141243
0.141849
0.142153
0.142121
0.141669
0.140703
0.139129
0.128234
0.117138
0.106037
0.095088
0.0844188
0.0741294
0.0643012
0.0550014
0.0462875
0.0382111
0.0308539
0.0242023
0.0183654
0.0133838
0.00928944
0.00609058
0.00375337
0.00217359
0.00118847
0.000618269
0.000308395
0.000148922
7.02276e-05
3.2442e-05
1.4715e-05
6.56571e-06
2.88662e-06
1.2524e-06
5.36994e-07
2.27851e-07
9.57846e-08
3.99246e-08
1.6497e-08
6.73997e-09
2.69863e-09
1.03117e-09
3.44332e-10
6.03708e-11
4.66771e-07
2.04002e-06
4.68677e-06
9.12488e-06
1.65305e-05
2.88081e-05
4.89982e-05
8.18778e-05
0.000134812
0.000218908
0.000350496
0.000552855
0.000857969
0.00130785
0.00195468
0.00285898
0.00408509
0.00569421
0.00773643
0.0102438
0.0132265
0.0166732
0.0205539
0.0248246
0.0294322
0.0343184
0.0394232
0.0446869
0.0500522
0.0554654
0.0608773
0.0662438
0.0715265
0.0766924
0.0817144
0.0865703
0.0912424
0.0957169
0.0999839
0.104037
0.107875
0.111497
0.114904
0.118099
0.121088
0.123875
0.126465
0.128863
0.131073
0.133099
0.134943
0.136602
0.138072
0.139345
0.140406
0.141232
0.141787
0.142021
0.141883
0.141269
0.140045
0.138056
0.126956
0.115714
0.104523
0.0935321
0.0828594
0.0725981
0.0628244
0.0536013
0.0449829
0.0370183
0.029785
0.0232818
0.0175758
0.0127198
0.00876154
0.0057022
0.00348836
0.00200708
0.00109186
0.000565968
0.000281659
0.000135888
6.40641e-05
2.95998e-05
1.34324e-05
5.99763e-06
2.6391e-06
1.14609e-06
4.91893e-07
2.08918e-07
8.79082e-08
3.66733e-08
1.5165e-08
6.19959e-09
2.48334e-09
9.49109e-10
3.16916e-10
5.55586e-11
4.64291e-07
2.02915e-06
4.6616e-06
9.07532e-06
1.64394e-05
2.86465e-05
4.87178e-05
8.13996e-05
0.000134008
0.00021758
0.000348337
0.000549411
0.000852595
0.00129967
0.00194258
0.00284164
0.00406107
0.00566214
0.00769516
0.0101926
0.0131652
0.0166021
0.0204738
0.0247369
0.0293386
0.0342208
0.0393237
0.0445877
0.0499554
0.0553731
0.0607913
0.066166
0.0714584
0.0766353
0.0816692
0.086538
0.0912231
0.0957101
0.0999896
0.104056
0.107905
0.111538
0.114955
0.118159
0.121155
0.123948
0.126542
0.128942
0.131154
0.133179
0.135018
0.136671
0.138132
0.139392
0.140435
0.141237
0.14176
0.141956
0.141765
0.141084
0.139772
0.136839
0.125627
0.114315
0.103087
0.0920888
0.0814345
0.0712141
0.0615011
0.0523576
0.0438386
0.0359977
0.0289028
0.0225309
0.016951
0.0122084
0.00833282
0.00537344
0.00326356
0.00186598
0.00101012
0.000521752
0.00025904
0.000124841
5.88261e-05
2.71767e-05
1.23349e-05
5.50976e-06
2.42573e-06
1.0541e-06
4.52732e-07
1.92426e-07
8.10271e-08
3.38256e-08
1.39959e-08
5.72439e-09
2.29374e-09
8.76763e-10
2.92734e-10
5.13097e-11
4.61962e-07
2.01895e-06
4.63805e-06
9.02907e-06
1.63547e-05
2.84967e-05
4.84594e-05
8.09614e-05
0.000133277
0.000216378
0.000346397
0.000546342
0.000847846
0.00129251
0.00193208
0.00282673
0.00404061
0.00563507
0.00766065
0.0101502
0.0131149
0.0165443
0.0204094
0.0246671
0.0292649
0.0341449
0.0392474
0.0445127
0.0498835
0.055306
0.0607306
0.066113
0.0714142
0.076601
0.0816457
0.0865252
0.0912208
0.0957186
0.100009
0.104085
0.107944
0.111586
0.11501
0.118221
0.121223
0.12402
0.126617
0.129019
0.13123
0.133253
0.135089
0.136736
0.13819
0.13944
0.140472
0.141261
0.141769
0.141952
0.141753
0.141073
0.139788
0.135521
0.124292
0.112973
0.101752
0.0907747
0.080155
0.0699828
0.0603308
0.0512603
0.0428281
0.0350811
0.0280264
0.0217403
0.0162724
0.0116648
0.00794854
0.0050911
0.00306881
0.00174491
0.000940416
0.000484172
0.000239836
0.000115462
5.43747e-05
2.51144e-05
1.13992e-05
5.09292e-06
2.24305e-06
9.75191e-07
4.19072e-07
1.78226e-07
7.50925e-08
3.13661e-08
1.29848e-08
5.31305e-09
2.12948e-09
8.1405e-10
2.7177e-10
4.76224e-11
4.59857e-07
2.00974e-06
4.61681e-06
8.98746e-06
1.62786e-05
2.83629e-05
4.82293e-05
8.05728e-05
0.000132631
0.000215324
0.000344705
0.00054368
0.000843754
0.00128637
0.00192315
0.00281414
0.00402346
0.00561254
0.00763216
0.0101154
0.013074
0.0164978
0.0203582
0.0246122
0.0292076
0.0340866
0.0391896
0.044457
0.0498313
0.0552586
0.0606893
0.0660788
0.071388
0.0765836
0.0816371
0.0865256
0.0912305
0.0957376
0.100037
0.104121
0.107988
0.111636
0.115067
0.118283
0.121288
0.124088
0.126686
0.129089
0.131299
0.133319
0.135152
0.136794
0.138241
0.139484
0.140507
0.141286
0.141784
0.141958
0.141753
0.14107
0.139788
0.13428
0.123051
0.111744
0.100545
0.0896012
0.0790275
0.0689115
0.0593233
0.0503212
0.0419536
0.0342502
0.0272759
0.0210786
0.0157071
0.0112007
0.00758493
0.00484919
0.00290403
0.00164202
0.000881466
0.000452497
0.000223682
0.000107576
5.06307e-05
2.33783e-05
1.06105e-05
4.74109e-06
2.08862e-06
9.08371e-07
3.90523e-07
1.66162e-07
7.00435e-08
2.9271e-08
1.21226e-08
4.96195e-09
1.9892e-09
7.60471e-10
2.53867e-10
4.44756e-11
4.58008e-07
2.00166e-06
4.59819e-06
8.95102e-06
1.62122e-05
2.82462e-05
4.80292e-05
8.02361e-05
0.000132074
0.000214417
0.000343256
0.000541413
0.000840286
0.00128121
0.00191567
0.00280365
0.00400927
0.00559403
0.00760891
0.0100873
0.0130412
0.0164608
0.0203178
0.0245694
0.0291635
0.0340425
0.0391467
0.0444164
0.0497943
0.0552263
0.0606626
0.0660585
0.071375
0.0765778
0.0816388
0.0865352
0.0912479
0.0957626
0.100069
0.10416
0.108033
0.111686
0.115121
0.118341
0.121349
0.12415
0.126749
0.12915
0.131359
0.133376
0.135204
0.136841
0.138282
0.139517
0.140532
0.141303
0.141791
0.141957
0.141743
0.141055
0.139772
0.133184
0.121956
0.110663
0.0994922
0.0885911
0.0780667
0.0679966
0.0584529
0.0494931
0.0411654
0.0335306
0.0266303
0.0205136
0.0152271
0.0108085
0.00728003
0.00462566
0.00276797
0.00155587
0.000831939
0.000426007
0.000210203
0.000101001
4.75092e-05
2.19301e-05
9.9521e-06
4.44706e-06
1.9594e-06
8.52384e-07
3.66571e-07
1.56027e-07
6.57964e-08
2.75064e-08
1.13957e-08
4.66575e-09
1.87084e-09
7.153e-10
2.38794e-10
4.18339e-11
4.5642e-07
1.99471e-06
4.58221e-06
8.91981e-06
1.61554e-05
2.81466e-05
4.78589e-05
7.99502e-05
0.000131602
0.000213652
0.000342039
0.000539516
0.000837397
0.00127692
0.0019095
0.00279504
0.00399768
0.00557902
0.00759018
0.0100648
0.0130152
0.0164318
0.0202863
0.0245364
0.02913
0.0340095
0.0391152
0.0443875
0.0497689
0.0552052
0.0606465
0.0660482
0.0713704
0.0765795
0.0816472
0.0865501
0.0912692
0.0957899
0.100102
0.104198
0.108075
0.111733
0.115171
0.118392
0.121402
0.124203
0.126802
0.129202
0.131408
0.133422
0.135246
0.136877
0.138311
0.139539
0.140545
0.141307
0.141786
0.141943
0.141721
0.141028
0.139745
0.132245
0.121012
0.109728
0.0985807
0.0876986
0.0771903
0.0671508
0.0576485
0.048741
0.0404792
0.0329107
0.0260785
0.0200334
0.0148215
0.0104793
0.00702644
0.00444237
0.00264413
0.00148703
0.00079174
0.000404153
0.000199072
9.55757e-05
4.4934e-05
2.07349e-05
9.40831e-06
4.20398e-06
1.85245e-06
8.0599e-07
3.46696e-07
1.47606e-07
6.22631e-08
2.60367e-08
1.07897e-08
4.41858e-09
1.77201e-09
6.77571e-10
2.26202e-10
3.9628e-11
4.55086e-07
1.98888e-06
4.56879e-06
8.89363e-06
1.61078e-05
2.80633e-05
4.77167e-05
7.97121e-05
0.000131211
0.000213019
0.000341034
0.000537954
0.000835028
0.00127342
0.00190448
0.00278808
0.00398835
0.005567
0.00757528
0.0100471
0.0129948
0.0164091
0.0202621
0.0245114
0.0291049
0.0339852
0.0390926
0.0443673
0.0497519
0.055192
0.0606378
0.0660441
0.0713714
0.0765858
0.0816589
0.0865671
0.0912913
0.0958168
0.100133
0.104233
0.108114
0.111774
0.115214
0.118437
0.121447
0.124248
0.126845
0.129243
0.131446
0.133456
0.135275
0.136901
0.138328
0.139548
0.140546
0.141299
0.141769
0.141918
0.141689
0.14099
0.13971
0.131452
0.120206
0.108926
0.0977831
0.0869198
0.0764436
0.0664402
0.0569787
0.048117
0.0399057
0.0323914
0.0256162
0.0196315
0.0144828
0.0102055
0.00681688
0.00429231
0.00254423
0.00142483
0.000759474
0.000386806
0.000190059
9.11593e-05
4.28364e-05
1.97605e-05
8.96438e-06
4.00525e-06
1.76488e-06
7.67947e-07
3.30376e-07
1.40683e-07
5.93548e-08
2.48257e-08
1.02899e-08
4.21459e-09
1.6904e-09
6.46409e-10
2.158e-10
3.78067e-11
4.53988e-07
1.98409e-06
4.55777e-06
8.87213e-06
1.60687e-05
2.79951e-05
4.76005e-05
7.95179e-05
0.000130892
0.000212504
0.00034022
0.000536693
0.000833121
0.00127061
0.00190047
0.00278253
0.00398097
0.00555752
0.00756359
0.0100332
0.012979
0.0163918
0.0202438
0.0244926
0.0290864
0.0339676
0.0390766
0.0443535
0.0497409
0.0551843
0.0606337
0.066044
0.0713755
0.0765942
0.0816715
0.0865839
0.0913121
0.0958412
0.100161
0.104264
0.108147
0.111808
0.115249
0.118473
0.121482
0.124282
0.126878
0.129274
0.131473
0.133479
0.135292
0.136912
0.138333
0.139546
0.140537
0.141282
0.141744
0.141887
0.141652
0.14095
0.139672
0.130792
0.11953
0.108248
0.0971172
0.086274
0.0758241
0.0658517
0.0564252
0.0476021
0.0394326
0.0319628
0.0252347
0.0193003
0.0142041
0.0099808
0.00664554
0.00417036
0.00246377
0.00137546
0.000730885
0.000372669
0.00018302
8.76725e-05
4.1157e-05
1.89766e-05
8.60656e-06
3.84476e-06
1.69404e-06
7.37126e-07
3.17137e-07
1.35061e-07
5.69906e-08
2.38406e-08
9.88296e-09
4.0485e-09
1.62391e-09
6.21081e-10
2.07332e-10
3.63264e-11
4.53109e-07
1.98025e-06
4.54895e-06
8.85494e-06
1.60375e-05
2.79407e-05
4.75079e-05
7.93633e-05
0.000130638
0.000212096
0.000339576
0.000535699
0.00083162
0.00126841
0.00189733
0.00277821
0.00397523
0.0055502
0.00755461
0.0100226
0.012967
0.0163788
0.0202301
0.0244787
0.0290729
0.0339551
0.0390654
0.0443443
0.049734
0.0551801
0.0606324
0.0660459
0.0713807
0.0766027
0.0816833
0.0865987
0.0913298
0.0958615
0.100183
0.104288
0.108172
0.111835
0.115276
0.1185
0.121508
0.124307
0.1269
0.129293
0.131488
0.13349
0.135299
0.136913
0.138327
0.139534
0.140518
0.141258
0.141716
0.141857
0.141628
0.140942
0.139702
0.130253
0.11898
0.107696
0.0965748
0.0857481
0.0753201
0.0653736
0.0559763
0.0471849
0.0390496
0.0316162
0.0249265
0.0190328
0.0139794
0.00979995
0.00650802
0.00407283
0.00239976
0.00133651
0.000708633
0.00036051
0.000177177
8.49345e-05
3.98488e-05
1.83587e-05
8.32217e-06
3.71686e-06
1.63753e-06
7.12518e-07
3.0656e-07
1.30567e-07
5.51006e-08
2.30532e-08
9.55757e-09
3.91629e-09
1.57087e-09
6.00964e-10
2.00604e-10
3.51496e-11
4.52431e-07
1.97728e-06
4.54214e-06
8.84168e-06
1.60135e-05
2.78988e-05
4.74366e-05
7.92446e-05
0.000130444
0.000211784
0.000339084
0.000534939
0.000830477
0.00126673
0.00189495
0.00277495
0.00397091
0.0055447
0.0075479
0.0100148
0.0129582
0.0163692
0.0202201
0.0244688
0.0290633
0.0339463
0.0390578
0.0443382
0.0497298
0.0551779
0.0606325
0.0660484
0.0713857
0.0766101
0.0816928
0.0866104
0.0913433
0.0958767
0.1002
0.104306
0.108191
0.111853
0.115295
0.118517
0.121525
0.124321
0.126912
0.129301
0.131493
0.133491
0.135294
0.136903
0.138311
0.139511
0.140489
0.141222
0.141674
0.141812
0.141581
0.140897
0.139666
0.129837
0.118545
0.107259
0.0961446
0.0853315
0.0749215
0.0649963
0.0556227
0.0468571
0.0387492
0.0313448
0.0246854
0.0188239
0.0138042
0.00965923
0.00640128
0.00399732
0.00235031
0.0013065
0.000691577
0.00035127
0.000172296
8.25446e-05
3.877e-05
1.78741e-05
8.10095e-06
3.61715e-06
1.59336e-06
6.93307e-07
2.98313e-07
1.27072e-07
5.36323e-08
2.24452e-08
9.30631e-09
3.81487e-09
1.53015e-09
5.85546e-10
1.95446e-10
3.42485e-11
4.51937e-07
1.97512e-06
4.53719e-06
8.83203e-06
1.5996e-05
2.78683e-05
4.73848e-05
7.91583e-05
0.000130303
0.000211557
0.000338728
0.00053439
0.000829653
0.00126553
0.00189324
0.00277261
0.00396782
0.00554079
0.00754314
0.0100092
0.0129519
0.0163625
0.0202132
0.0244619
0.0290568
0.0339404
0.0390528
0.0443344
0.0497273
0.0551769
0.0606331
0.0660506
0.0713895
0.0766154
0.0816996
0.0866184
0.0913524
0.0958867
0.100211
0.104317
0.108202
0.111864
0.115305
0.118526
0.121532
0.124327
0.126915
0.129302
0.13149
0.133483
0.135281
0.136884
0.138287
0.13948
0.140451
0.141178
0.141626
0.14176
0.141529
0.14085
0.139633
0.129532
0.118221
0.10693
0.09582
0.0850173
0.0746216
0.0647132
0.0553583
0.0466126
0.0385258
0.0311434
0.024507
0.0186697
0.0136751
0.00955584
0.0063231
0.00394221
0.00231431
0.00128468
0.000679209
0.000344636
0.00016889
8.08582e-05
3.79439e-05
1.74896e-05
7.9324e-06
3.54337e-06
1.56121e-06
6.79427e-07
2.92373e-07
1.24569e-07
5.25795e-08
2.20102e-08
9.12628e-09
3.74205e-09
1.50086e-09
5.74452e-10
1.91731e-10
3.35998e-11
4.51615e-07
1.97372e-06
4.53396e-06
8.82575e-06
1.59846e-05
2.78485e-05
4.73512e-05
7.91024e-05
0.000130212
0.000211411
0.000338497
0.000534036
0.00082912
0.00126475
0.00189214
0.0027711
0.00396584
0.00553828
0.00754009
0.0100057
0.012948
0.0163582
0.0202088
0.0244576
0.0290527
0.0339367
0.0390498
0.0443321
0.0497258
0.0551764
0.0606336
0.0660521
0.0713919
0.0766187
0.0817035
0.0866228
0.0913572
0.0958918
0.100216
0.104322
0.108207
0.111869
0.115309
0.118529
0.121533
0.124326
0.126912
0.129296
0.13148
0.133469
0.135264
0.136861
0.138259
0.139447
0.140412
0.141134
0.141577
0.141709
0.14148
0.140808
0.13961
0.129331
0.118001
0.106704
0.0955967
0.0848016
0.0744167
0.0645209
0.0551796
0.0464482
0.0383763
0.0310092
0.0243886
0.0185677
0.01359
0.00948801
0.00627207
0.00390642
0.00229105
0.00127061
0.000671227
0.000340361
0.000166707
7.97984e-05
3.74388e-05
1.72534e-05
7.82293e-06
3.49513e-06
1.54017e-06
6.70463e-07
2.88525e-07
1.22961e-07
5.19024e-08
2.17316e-08
9.01085e-09
3.69543e-09
1.48208e-09
5.67336e-10
1.89346e-10
3.31833e-11
4.51459e-07
1.97304e-06
4.5324e-06
8.82272e-06
1.59792e-05
2.78389e-05
4.73351e-05
7.90756e-05
0.000130168
0.000211341
0.000338387
0.000533868
0.000828868
0.00126438
0.00189162
0.00277039
0.00396491
0.0055371
0.00753866
0.010004
0.0129461
0.0163562
0.0202067
0.0244556
0.0290508
0.033935
0.0390484
0.044331
0.0497252
0.0551762
0.0606339
0.0660528
0.0713931
0.0766202
0.0817053
0.0866246
0.0913588
0.0958933
0.100217
0.104323
0.108208
0.111869
0.115309
0.118528
0.121531
0.124323
0.126907
0.129289
0.131471
0.133457
0.135248
0.136843
0.138236
0.13942
0.140382
0.1411
0.141539
0.14167
0.141442
0.140778
0.139597
0.129231
0.117885
0.106583
0.0954777
0.0846877
0.0743095
0.0644214
0.0550882
0.046365
0.0383014
0.0309426
0.0243304
0.018518
0.0135489
0.0094555
0.0062478
0.00388954
0.00228018
0.00126409
0.000667532
0.000338373
0.000165722
7.9317e-05
3.72115e-05
1.71465e-05
7.7738e-06
3.47253e-06
1.53009e-06
6.66104e-07
2.86649e-07
1.22178e-07
5.15727e-08
2.15961e-08
8.95478e-09
3.67278e-09
1.47295e-09
5.63879e-10
1.88187e-10
3.29807e-11
4.51461e-07
1.97305e-06
4.53242e-06
8.82276e-06
1.59792e-05
2.78391e-05
4.73353e-05
7.9076e-05
0.000130169
0.000211342
0.000338389
0.00053387
0.000828872
0.00126439
0.00189163
0.0027704
0.00396492
0.00553712
0.00753868
0.010004
0.0129461
0.0163563
0.0202068
0.0244556
0.0290509
0.0339351
0.0390484
0.0443311
0.0497252
0.0551763
0.0606339
0.0660529
0.0713931
0.0766202
0.0817053
0.0866246
0.0913589
0.0958934
0.100217
0.104323
0.108208
0.111869
0.115309
0.118528
0.121531
0.124323
0.126907
0.129289
0.131471
0.133457
0.135248
0.136843
0.138236
0.13942
0.140382
0.1411
0.141539
0.14167
0.141442
0.140778
0.139597
0.129231
0.117885
0.106583
0.0954777
0.0846877
0.0743095
0.0644214
0.0550881
0.046365
0.0383013
0.0309426
0.0243304
0.018518
0.0135489
0.0094555
0.0062478
0.00388954
0.00228018
0.00126409
0.000667532
0.000338372
0.000165726
7.93149e-05
3.72126e-05
1.71461e-05
7.77394e-06
3.47251e-06
1.5301e-06
6.66105e-07
2.86649e-07
1.22178e-07
5.15727e-08
2.1596e-08
8.95474e-09
3.67275e-09
1.47294e-09
5.63873e-10
1.88185e-10
3.29803e-11
4.51621e-07
1.97375e-06
4.53402e-06
8.82587e-06
1.59848e-05
2.78488e-05
4.73518e-05
7.91034e-05
0.000130213
0.000211414
0.000338501
0.000534042
0.00082913
0.00126477
0.00189216
0.00277113
0.00396588
0.00553834
0.00754016
0.0100057
0.0129481
0.0163583
0.0202089
0.0244577
0.0290529
0.0339369
0.03905
0.0443323
0.049726
0.0551766
0.0606338
0.0660523
0.0713921
0.0766188
0.0817037
0.0866229
0.0913573
0.0958919
0.100216
0.104322
0.108207
0.111869
0.115309
0.118529
0.121533
0.124326
0.126912
0.129296
0.13148
0.133469
0.135264
0.136861
0.138259
0.139447
0.140412
0.141134
0.141577
0.141709
0.14148
0.140808
0.13961
0.12933
0.118
0.106704
0.0955966
0.0848015
0.0744165
0.0645208
0.0551795
0.0464482
0.0383763
0.0310092
0.0243886
0.0185676
0.01359
0.009488
0.00627206
0.00390641
0.00229105
0.00127061
0.000671226
0.000340358
0.000166714
7.97943e-05
3.7441e-05
1.72528e-05
7.82322e-06
3.49511e-06
1.54019e-06
6.70464e-07
2.88525e-07
1.2296e-07
5.19019e-08
2.17312e-08
9.01071e-09
3.69534e-09
1.48204e-09
5.67315e-10
1.8934e-10
3.3182e-11
4.51947e-07
1.97517e-06
4.53729e-06
8.83223e-06
1.59964e-05
2.78689e-05
4.73859e-05
7.91601e-05
0.000130306
0.000211562
0.000338735
0.000534402
0.00082967
0.00126555
0.00189328
0.00277266
0.0039679
0.00554088
0.00754326
0.0100094
0.0129521
0.0163627
0.0202134
0.0244621
0.029057
0.0339406
0.0390531
0.0443347
0.0497276
0.0551772
0.0606334
0.0660509
0.0713898
0.0766157
0.0816999
0.0866186
0.0913527
0.0958869
0.100211
0.104317
0.108202
0.111865
0.115305
0.118527
0.121532
0.124327
0.126915
0.129302
0.13149
0.133483
0.135281
0.136884
0.138287
0.13948
0.140451
0.141178
0.141626
0.14176
0.141529
0.14085
0.139633
0.129532
0.11822
0.10693
0.0958197
0.085017
0.0746213
0.064713
0.0553581
0.0466125
0.0385257
0.0311433
0.0245069
0.0186696
0.013675
0.00955581
0.00632309
0.0039422
0.00231431
0.00128468
0.000679207
0.000344635
0.00016889
8.08583e-05
3.79443e-05
1.74898e-05
7.93258e-06
3.54345e-06
1.56123e-06
6.79434e-07
2.92374e-07
1.24568e-07
5.25791e-08
2.20098e-08
9.12611e-09
3.74192e-09
1.50081e-09
5.74422e-10
1.91721e-10
3.35979e-11
4.52445e-07
1.97735e-06
4.54229e-06
8.84196e-06
1.6014e-05
2.78996e-05
4.74381e-05
7.9247e-05
0.000130448
0.00021179
0.000339094
0.000534955
0.000830501
0.00126677
0.001895
0.00277502
0.00397101
0.00554483
0.00754807
0.010015
0.0129584
0.0163695
0.0202204
0.0244691
0.0290637
0.0339467
0.0390582
0.0443387
0.0497302
0.0551784
0.060633
0.0660488
0.0713861
0.0766104
0.0816932
0.0866108
0.0913437
0.0958771
0.1002
0.104306
0.108191
0.111854
0.115295
0.118517
0.121525
0.124321
0.126912
0.129302
0.131494
0.133491
0.135294
0.136903
0.138311
0.139511
0.140489
0.141222
0.141674
0.141812
0.141581
0.140897
0.139666
0.129837
0.118544
0.107258
0.0961442
0.0853311
0.0749212
0.064996
0.0556225
0.0468569
0.0387491
0.0313446
0.0246853
0.0188239
0.0138041
0.00965919
0.00640126
0.00399731
0.0023503
0.00130649
0.000691574
0.000351268
0.000172295
8.25436e-05
3.87693e-05
1.78737e-05
8.1007e-06
3.61702e-06
1.59332e-06
6.93291e-07
2.98306e-07
1.27069e-07
5.36313e-08
2.24446e-08
9.30609e-09
3.8147e-09
1.53009e-09
5.85507e-10
1.95433e-10
3.42461e-11
4.53128e-07
1.98033e-06
4.54913e-06
8.8553e-06
1.60382e-05
2.79418e-05
4.75097e-05
7.93664e-05
0.000130643
0.000212104
0.000339589
0.000535719
0.000831651
0.00126845
0.00189739
0.0027783
0.00397536
0.00555036
0.00755482
0.0100229
0.0129673
0.0163791
0.0202305
0.0244792
0.0290734
0.0339556
0.0390659
0.0443449
0.0497346
0.0551807
0.060633
0.0660464
0.0713813
0.0766033
0.0816838
0.0865992
0.0913302
0.0958619
0.100184
0.104289
0.108173
0.111835
0.115277
0.1185
0.121508
0.124307
0.1269
0.129293
0.131489
0.13349
0.135299
0.136913
0.138327
0.139534
0.140518
0.141258
0.141716
0.141857
0.141628
0.140942
0.139702
0.130252
0.118979
0.107696
0.0965743
0.0857477
0.0753197
0.0653732
0.055976
0.0471847
0.0390494
0.0316161
0.0249264
0.0190327
0.0139793
0.0097999
0.00650799
0.00407281
0.00239974
0.0013365
0.000708628
0.000360506
0.000177175
8.49334e-05
3.98481e-05
1.83582e-05
8.32197e-06
3.71675e-06
1.63747e-06
7.12492e-07
3.0655e-07
1.30563e-07
5.50989e-08
2.30525e-08
9.55733e-09
3.91612e-09
1.57081e-09
6.00921e-10
2.00591e-10
3.51471e-11
4.5401e-07
1.98418e-06
4.55799e-06
8.87256e-06
1.60695e-05
2.79965e-05
4.76028e-05
7.95217e-05
0.000130898
0.000212514
0.000340236
0.000536718
0.000833158
0.00127067
0.00190055
0.00278264
0.00398112
0.00555772
0.00756385
0.0100335
0.0129794
0.0163922
0.0202443
0.0244931
0.029087
0.0339682
0.0390772
0.0443542
0.0497416
0.055185
0.0606344
0.0660446
0.0713762
0.0765949
0.0816721
0.0865845
0.0913126
0.0958417
0.100161
0.104264
0.108147
0.111809
0.11525
0.118473
0.121483
0.124283
0.126878
0.129274
0.131473
0.133479
0.135293
0.136912
0.138333
0.139546
0.140537
0.141282
0.141745
0.141887
0.141652
0.14095
0.139671
0.130792
0.11953
0.108247
0.0971166
0.0862735
0.0758236
0.0658512
0.0564249
0.0476018
0.0394323
0.0319626
0.0252346
0.0193001
0.014204
0.00998074
0.00664549
0.00417033
0.00246375
0.00137545
0.000730877
0.000372664
0.000183018
8.76709e-05
4.11562e-05
1.89762e-05
8.60635e-06
3.84466e-06
1.69399e-06
7.37104e-07
3.17127e-07
1.35056e-07
5.69889e-08
2.38398e-08
9.88267e-09
4.04837e-09
1.62386e-09
6.21045e-10
2.07321e-10
3.63242e-11
4.55111e-07
1.98899e-06
4.56905e-06
8.89413e-06
1.61087e-05
2.80649e-05
4.77194e-05
7.97165e-05
0.000131218
0.00021303
0.000341053
0.000537983
0.000835071
0.00127348
0.00190457
0.00278821
0.00398853
0.00556723
0.00757558
0.0100474
0.0129952
0.0164097
0.0202627
0.024512
0.0291056
0.033986
0.0390933
0.0443681
0.0497527
0.0551928
0.0606385
0.0660449
0.0713722
0.0765866
0.0816596
0.0865678
0.091292
0.0958175
0.100134
0.104234
0.108115
0.111774
0.115214
0.118437
0.121447
0.124248
0.126846
0.129244
0.131446
0.133457
0.135275
0.136901
0.138328
0.139548
0.140546
0.141299
0.141769
0.141918
0.141689
0.14099
0.139711
0.131451
0.120205
0.108926
0.0977823
0.0869191
0.076443
0.0664396
0.0569782
0.0481166
0.0399054
0.0323911
0.0256159
0.0196314
0.0144827
0.0102054
0.00681681
0.00429227
0.0025442
0.00142481
0.000759463
0.0003868
0.000190056
9.11575e-05
4.28355e-05
1.976e-05
8.96416e-06
4.00515e-06
1.76483e-06
7.67925e-07
3.30366e-07
1.40679e-07
5.93528e-08
2.48249e-08
1.02895e-08
4.21444e-09
1.69034e-09
6.46383e-10
2.15791e-10
3.78056e-11
4.5645e-07
1.99484e-06
4.58251e-06
8.92039e-06
1.61564e-05
2.81484e-05
4.78619e-05
7.99553e-05
0.000131611
0.000213665
0.00034206
0.000539548
0.000837447
0.00127699
0.0019096
0.00279519
0.00399789
0.00557929
0.00759053
0.0100653
0.0130157
0.0164323
0.020287
0.0245372
0.0291308
0.0340103
0.0391161
0.0443884
0.0497698
0.0552061
0.0606474
0.0660491
0.0713713
0.0765804
0.081648
0.0865509
0.09127
0.0957907
0.100103
0.104199
0.108076
0.111733
0.115171
0.118393
0.121402
0.124204
0.126802
0.129202
0.131408
0.133422
0.135246
0.136877
0.138311
0.139539
0.140545
0.141307
0.141786
0.141943
0.141722
0.141028
0.139745
0.132244
0.121011
0.109727
0.0985797
0.0876978
0.0771896
0.0671501
0.0576479
0.0487405
0.0404787
0.0329103
0.0260782
0.0200332
0.0148213
0.0104792
0.00702635
0.0044423
0.00264409
0.00148701
0.000791726
0.000404144
0.000199068
9.55734e-05
4.49328e-05
2.07344e-05
9.40804e-06
4.20385e-06
1.85239e-06
8.05962e-07
3.46683e-07
1.47601e-07
6.22607e-08
2.60357e-08
1.07892e-08
4.41839e-09
1.77193e-09
6.77541e-10
2.2619e-10
3.96271e-11
4.58042e-07
2.0018e-06
4.59852e-06
8.95167e-06
1.62134e-05
2.82482e-05
4.80327e-05
8.02418e-05
0.000132083
0.000214432
0.00034328
0.00054145
0.000840343
0.00128129
0.00191579
0.00280382
0.0040095
0.00559434
0.00760931