/*--------------------------------*- C++ -*----------------------------------*\
  =========                 |
  \\      /  F ield         | OpenFOAM: The Open Source CFD Toolbox
   \\    /   O peration     | Website:  https://openfoam.org
    \\  /    A nd           | Version:  8
     \\/     M anipulation  |
\*---------------------------------------------------------------------------*/
FoamFile
{
    version     2.0;
    format      ascii;
    class       volScalarField;
    location    "620/fluid";
    object      H2O;
}
// * * * * * * * * * * * * * * * * * * * * * * * * * * * * * * * * * * * * * //

dimensions      [0 0 0 0 0 0 0];

internalField   nonuniform List<scalar> 
4000
(
3.84527e-07
1.68017e-06
3.8583e-06
7.5082e-06
1.35979e-05
2.37018e-05
4.03504e-05
6.75525e-05
0.000111552
0.000181875
0.000292699
0.000464486
0.000725665
0.00111388
0.00167607
0.00246646
0.0035419
0.0049549
0.0067459
0.00893713
0.0115301
0.014507
0.0178342
0.0214677
0.0253575
0.0294508
0.0336956
0.0380417
0.0424423
0.0468547
0.051241
0.055568
0.0598074
0.063936
0.0679349
0.0717894
0.0754879
0.0790224
0.0823879
0.0855819
0.0886042
0.0914559
0.0941399
0.0966598
0.0990199
0.101225
0.10328
0.105189
0.106956
0.108584
0.110076
0.11143
0.112646
0.113717
0.114634
0.115383
0.115944
0.116283
0.116365
0.116138
0.115521
0.114409
0.1125
0.103855
0.0950654
0.0862781
0.077608
0.0691454
0.0609619
0.053116
0.0456568
0.0386279
0.03207
0.026053
0.0205556
0.015664
0.0114308
0.0079078
0.00513361
0.00310391
0.00174481
0.000916511
0.000454128
0.000215782
9.96089e-05
4.49408e-05
1.99029e-05
8.68022e-06
3.73743e-06
1.59192e-06
6.71898e-07
2.81401e-07
1.17071e-07
4.84085e-08
1.9885e-08
8.09063e-09
3.23071e-09
1.23268e-09
4.11558e-10
7.21438e-11
3.85581e-07
1.68523e-06
3.87193e-06
7.54016e-06
1.36669e-05
2.38411e-05
4.06132e-05
6.80149e-05
0.0001123
0.000182972
0.000294093
0.000465844
0.000726108
0.00111169
0.00166833
0.00244881
0.00350871
0.00489987
0.00666304
0.00882193
0.0113803
0.0143229
0.0176188
0.0212257
0.025095
0.0291746
0.0334123
0.0377577
0.0421632
0.0465853
0.0509851
0.0553286
0.0595866
0.0637351
0.0677547
0.0716299
0.0753489
0.0789033
0.0822877
0.0854995
0.0885382
0.091405
0.0941026
0.0966347
0.0990057
0.101221
0.103284
0.1052
0.106973
0.108606
0.110102
0.111459
0.112677
0.113749
0.114668
0.115418
0.115979
0.116317
0.116399
0.116171
0.115553
0.11444
0.111803
0.103091
0.0942505
0.0854235
0.076722
0.0682346
0.0600326
0.0521747
0.0447112
0.037687
0.031145
0.0251599
0.019712
0.0148935
0.0107585
0.00735779
0.00472104
0.00282641
0.00157986
0.000829994
0.000413722
0.000198261
9.24438e-05
4.21421e-05
1.88468e-05
8.29078e-06
3.59539e-06
1.54004e-06
6.52701e-07
2.74134e-07
1.14244e-07
4.72792e-08
1.94253e-08
7.90228e-09
3.15443e-09
1.20316e-09
4.01591e-10
7.04074e-11
3.87399e-07
1.69342e-06
3.89182e-06
7.58123e-06
1.37449e-05
2.39795e-05
4.08443e-05
6.83778e-05
0.000112842
0.000183721
0.000295013
0.00046674
0.000726448
0.00111026
0.00166301
0.00243645
0.00348506
0.00485983
0.00660115
0.00873313
0.0112607
0.0141704
0.0174333
0.0210092
0.0248512
0.0289085
0.03313
0.0374654
0.0418672
0.0462914
0.0506987
0.0550541
0.0593279
0.0634951
0.0675356
0.0714331
0.0751752
0.0787529
0.0821602
0.0853943
0.0884542
0.091341
0.0940571
0.0966064
0.0989931
0.101221
0.103296
0.105223
0.107005
0.108645
0.110147
0.111509
0.11273
0.113804
0.114724
0.115474
0.116034
0.116369
0.116447
0.116213
0.115584
0.114455
0.110543
0.101787
0.0929077
0.08405
0.0753281
0.0668319
0.058634
0.0507946
0.0433654
0.0363934
0.0299234
0.0240213
0.0186917
0.0140144
0.0100393
0.00680842
0.0043362
0.00258263
0.00144071
0.000757783
0.000379134
0.000182501
8.55233e-05
3.91904e-05
1.76169e-05
7.78735e-06
3.39197e-06
1.45851e-06
6.20133e-07
2.6112e-07
1.09026e-07
4.51778e-08
1.8576e-08
7.55941e-09
3.01777e-09
1.15093e-09
3.84074e-10
6.73265e-11
3.87948e-07
1.6958e-06
3.89721e-06
7.59142e-06
1.37619e-05
2.40044e-05
4.08724e-05
6.8387e-05
0.00011276
0.000183384
0.000294091
0.000464634
0.00072217
0.00110236
0.00164942
0.00241438
0.00345111
0.0048102
0.00653209
0.00864141
0.0111441
0.0140277
0.0172648
0.0208164
0.0246367
0.0286758
0.0328833
0.0372093
0.0416066
0.0460311
0.0504433
0.0548077
0.0590942
0.0632772
0.0673358
0.0712533
0.0750166
0.078616
0.0820454
0.085301
0.0883819
0.0912887
0.0940241
0.096591
0.098993
0.101235
0.103323
0.10526
0.107051
0.108699
0.110206
0.111572
0.112795
0.113871
0.114789
0.115536
0.116091
0.116418
0.116486
0.116237
0.11559
0.114434
0.108962
0.100192
0.0912975
0.0824305
0.0737092
0.065227
0.0570586
0.0492658
0.0419015
0.0350139
0.0286491
0.0228497
0.0176635
0.0131433
0.00933467
0.00627233
0.00395871
0.00233962
0.00129818
0.000681101
0.000340808
0.000164373
7.72563e-05
3.55267e-05
1.60305e-05
7.1137e-06
3.11047e-06
1.3424e-06
5.72718e-07
2.41898e-07
1.01272e-07
4.20606e-08
1.73269e-08
7.06168e-09
2.82231e-09
1.07724e-09
3.59627e-10
6.30538e-11
3.87473e-07
1.69367e-06
3.89206e-06
7.5805e-06
1.37396e-05
2.39589e-05
4.07798e-05
6.81996e-05
0.000112389
0.000182666
0.00029274
0.000462163
0.000717796
0.00109488
0.00163712
0.00239497
0.00342178
0.00476783
0.00647362
0.00856418
0.0110462
0.0139084
0.0171242
0.0206559
0.0244583
0.0284826
0.0326787
0.0369971
0.0413907
0.0458157
0.050232
0.0546042
0.0589015
0.0630981
0.0671724
0.0711074
0.0748893
0.0785081
0.0819571
0.0852323
0.0883324
0.0912581
0.0940104
0.0965926
0.0990091
0.101264
0.103363
0.10531
0.107109
0.108762
0.110273
0.111642
0.112865
0.113938
0.114851
0.115591
0.116135
0.116447
0.116498
0.116226
0.115548
0.114358
0.107278
0.0985243
0.0896317
0.0807676
0.0720587
0.0636029
0.0554771
0.0477441
0.0404571
0.0336638
0.0274214
0.0217467
0.0167031
0.0123378
0.00869143
0.00579023
0.00362469
0.00212788
0.00117547
0.000615506
0.000308025
0.000148783
7.00812e-05
3.23071e-05
1.4615e-05
6.50164e-06
2.84947e-06
1.23237e-06
5.26782e-07
2.22869e-07
9.34406e-08
3.88553e-08
1.60225e-08
6.53528e-09
2.61348e-09
9.97904e-10
3.33177e-10
5.84174e-11
3.86058e-07
1.68738e-06
3.87715e-06
7.55016e-06
1.36815e-05
2.38509e-05
4.05821e-05
6.78427e-05
0.000111753
0.000181549
0.000290812
0.000458905
0.000712423
0.00108627
0.00162375
0.00237493
0.00339284
0.00472765
0.00642
0.00849534
0.010961
0.0138064
0.0170059
0.0205224
0.0243115
0.0283249
0.0325128
0.0368262
0.0412179
0.0456441
0.0500648
0.0544443
0.0587515
0.06296
0.0670482
0.0709984
0.0747966
0.0784323
0.0818985
0.0851911
0.0883081
0.0912489
0.0940156
0.0966114
0.0990402
0.101306
0.103414
0.105369
0.107173
0.108831
0.110343
0.11171
0.11293
0.113997
0.1149
0.115626
0.116153
0.116442
0.116466
0.116164
0.115452
0.114241
0.105833
0.0970342
0.0881023
0.0792167
0.070508
0.062074
0.0539907
0.046319
0.0391105
0.0324114
0.0262886
0.0207352
0.0158278
0.0116091
0.00811406
0.00536052
0.00332829
0.00194001
0.00106597
0.000556302
0.000277956
0.000134264
6.32957e-05
2.92191e-05
1.32405e-05
5.90133e-06
2.59147e-06
1.12299e-06
4.80931e-07
2.03828e-07
8.55939e-08
3.56423e-08
1.47152e-08
6.00786e-09
2.40431e-09
9.18454e-10
3.06693e-10
5.3775e-11
3.8419e-07
1.67915e-06
3.85793e-06
7.51185e-06
1.361e-05
2.37218e-05
4.03538e-05
6.74446e-05
0.000111068
0.000180387
0.000288869
0.000455717
0.000707303
0.00107825
0.00161154
0.00235693
0.00336723
0.00469255
0.0063737
0.00843654
0.010889
0.0137211
0.0169078
0.0204128
0.024192
0.0281976
0.0323801
0.0366905
0.041082
0.0455106
0.0499361
0.0543227
0.058639
0.0628585
0.066959
0.0709226
0.074735
0.0783854
0.0818667
0.0851737
0.088304
0.0912579
0.0940371
0.0966442
0.0990831
0.101358
0.103473
0.105433
0.107241
0.1089
0.110411
0.111775
0.112988
0.114043
0.114931
0.115634
0.116131
0.116379
0.116353
0.115983
0.115192
0.113904
0.104984
0.0958998
0.0868112
0.0778477
0.0691129
0.0606891
0.0526429
0.0450292
0.0378951
0.0312831
0.0252598
0.0198142
0.0150356
0.0109572
0.00760518
0.00498631
0.00307285
0.0017795
0.000972994
0.000506172
0.000252481
0.000121921
5.74947e-05
2.656e-05
1.2047e-05
5.37529e-06
2.36325e-06
1.02533e-06
4.39633e-07
1.8654e-07
7.8418e-08
3.2686e-08
1.3506e-08
5.51796e-09
2.20934e-09
8.44209e-10
2.81901e-10
4.9425e-11
3.82141e-07
1.67015e-06
3.83702e-06
7.47046e-06
1.35334e-05
2.35849e-05
4.01144e-05
6.70326e-05
0.000110369
0.000179218
0.000286948
0.000452617
0.000702412
0.00107072
0.00160028
0.00234062
0.00334443
0.0046618
0.00633375
0.00838649
0.0108284
0.0136502
0.0168273
0.0203237
0.0240958
0.0280962
0.0322754
0.0365848
0.0409773
0.0454091
0.0498397
0.0542332
0.0585581
0.0627874
0.0668989
0.0708743
0.0746993
0.0783626
0.0818559
0.0851746
0.0883165
0.0912815
0.0940707
0.096687
0.0991338
0.101415
0.103535
0.105499
0.107308
0.108967
0.110476
0.111835
0.113038
0.114081
0.114949
0.115626
0.11608
0.116272
0.116159
0.115656
0.114653
0.113025
0.103938
0.0947341
0.0855719
0.0765739
0.0678362
0.0594355
0.0514338
0.0438829
0.0368271
0.0303066
0.0243847
0.0190606
0.0143892
0.0104136
0.00717299
0.00466834
0.00285589
0.00164318
0.000893893
0.000463353
0.000230592
0.00011125
5.24488e-05
2.42331e-05
1.0997e-05
4.91021e-06
2.16061e-06
9.38294e-07
4.02709e-07
1.7104e-07
7.19697e-08
3.00241e-08
1.24155e-08
5.07555e-09
2.03309e-09
7.77027e-10
2.59456e-10
4.54853e-11
3.80111e-07
1.66125e-06
3.81641e-06
7.42988e-06
1.34588e-05
2.34526e-05
3.98849e-05
6.66412e-05
0.000109712
0.000178131
0.00028518
0.000449798
0.000698012
0.00106403
0.00159038
0.00232643
0.00332477
0.00463555
0.00629996
0.00834458
0.0107782
0.013592
0.0167618
0.0202519
0.0240192
0.0280163
0.032194
0.0365035
0.040898
0.0453334
0.0497693
0.0541695
0.0585023
0.0627406
0.0668619
0.0708479
0.0746836
0.078357
0.0818606
0.0851894
0.088341
0.0913149
0.0941123
0.0967357
0.0991885
0.101475
0.103599
0.105564
0.107374
0.109032
0.110538
0.111891
0.113088
0.114119
0.114973
0.11563
0.116058
0.116218
0.116062
0.115504
0.11443
0.112029
0.10285
0.0935884
0.0843962
0.0753923
0.0666697
0.0583024
0.0503504
0.0428647
0.0358903
0.029471
0.0236625
0.0184458
0.0138776
0.00999488
0.00682201
0.00439919
0.00267185
0.00152766
0.000826975
0.000427154
0.000212074
0.000102206
4.81604e-05
2.22493e-05
1.00985e-05
4.51079e-06
1.98592e-06
8.62986e-07
3.70648e-07
1.57538e-07
6.63362e-08
2.76927e-08
1.14583e-08
4.68651e-09
1.87787e-09
7.17798e-10
2.39658e-10
4.20068e-11
3.78204e-07
1.6529e-06
3.79713e-06
7.39202e-06
1.33894e-05
2.333e-05
3.96733e-05
6.62824e-05
0.000109113
0.000177147
0.000283592
0.000447285
0.000694124
0.00105816
0.00158178
0.00231422
0.00330801
0.00461338
0.0062717
0.00830985
0.010737
0.0135447
0.016709
0.0201948
0.0239589
0.0279542
0.0321315
0.0364421
0.0408392
0.0452785
0.0497196
0.0541261
0.0584662
0.0627126
0.0668426
0.0708374
0.0746816
0.078364
0.0818764
0.0852136
0.088373
0.0913541
0.0941578
0.0967867
0.099244
0.101534
0.10366
0.105626
0.107437
0.109093
0.110596
0.111945
0.113135
0.114159
0.115003
0.115649
0.116065
0.116215
0.116052
0.115495
0.114443
0.110949
0.101757
0.09249
0.0833035
0.0743164
0.0656222
0.0572943
0.0493923
0.0419664
0.035063
0.0287206
0.022945
0.0177986
0.0133221
0.0095499
0.0065074
0.00416804
0.00251241
0.00142855
0.00076991
0.000396387
0.000196352
9.45276e-05
4.45161e-05
2.05609e-05
9.33242e-06
4.16953e-06
1.83637e-06
7.9838e-07
3.4309e-07
1.45912e-07
6.14776e-08
2.56792e-08
1.06306e-08
4.34974e-09
1.74339e-09
6.66455e-10
2.22496e-10
3.89881e-11
3.76481e-07
1.64536e-06
3.77975e-06
7.35796e-06
1.33272e-05
2.32205e-05
3.94849e-05
6.59643e-05
0.000108584
0.000176284
0.000282207
0.000445106
0.000690774
0.00105314
0.00157447
0.00230391
0.00329397
0.00459494
0.00624838
0.00828142
0.0107036
0.0135066
0.016667
0.0201498
0.023912
0.0279064
0.0320842
0.0363965
0.0407965
0.0452397
0.0496858
0.0540981
0.0584448
0.0626983
0.0668356
0.0708377
0.0746896
0.0783795
0.0818992
0.0852432
0.0884089
0.0913955
0.0942041
0.096837
0.0992976
0.10159
0.103717
0.105684
0.107493
0.109147
0.110648
0.111992
0.113177
0.114194
0.115032
0.11567
0.116078
0.11622
0.116052
0.115493
0.114443
0.109933
0.100741
0.0914835
0.0823152
0.0733557
0.0646991
0.0564172
0.0485674
0.0411975
0.034347
0.0280403
0.0223305
0.0172569
0.0128593
0.00916995
0.00620972
0.00396999
0.0023775
0.00134431
0.000721648
0.000370455
0.000183126
8.80713e-05
4.14509e-05
1.91396e-05
8.68674e-06
3.88149e-06
1.70994e-06
7.43675e-07
3.19717e-07
1.36035e-07
5.7344e-08
2.39639e-08
9.92469e-09
4.0623e-09
1.62854e-09
6.22591e-10
2.07839e-10
3.64118e-11
3.74967e-07
1.63874e-06
3.76449e-06
7.32812e-06
1.32728e-05
2.31249e-05
3.93211e-05
6.56886e-05
0.000108128
0.000175541
0.000281021
0.00044325
0.000687935
0.00104891
0.00156834
0.00229532
0.00328235
0.00457979
0.00622935
0.00825841
0.0106767
0.0134763
0.016634
0.0201147
0.0238759
0.0278703
0.032049
0.0363633
0.0407662
0.0452133
0.0496639
0.0540816
0.058434
0.0626935
0.066837
0.0708456
0.0747039
0.0784
0.0819255
0.0852749
0.0884455
0.0914364
0.0942486
0.0968844
0.099347
0.10164
0.103768
0.105734
0.107542
0.109194
0.110691
0.112031
0.11321
0.114222
0.115052
0.115683
0.116083
0.116219
0.116044
0.115481
0.11443
0.109036
0.0998443
0.0905984
0.0814534
0.0725287
0.0639125
0.0556683
0.0478549
0.0405196
0.0337018
0.0274512
0.021802
0.0167943
0.0124663
0.00884886
0.0059601
0.00378699
0.00226611
0.00127378
0.000681101
0.000348768
0.000172091
8.26884e-05
3.88953e-05
1.7954e-05
8.14769e-06
3.64077e-06
1.60414e-06
6.9784e-07
3.00108e-07
1.27738e-07
5.3867e-08
2.25193e-08
9.3296e-09
3.81981e-09
1.53164e-09
5.8561e-10
1.95499e-10
3.4249e-11
3.73667e-07
1.63306e-06
3.75142e-06
7.30257e-06
1.32263e-05
2.30434e-05
3.91817e-05
6.54545e-05
0.000107742
0.000174915
0.000280025
0.000441697
0.000685569
0.0010454
0.00156329
0.00228828
0.00327287
0.00456749
0.00621402
0.00823999
0.0106554
0.0134525
0.0166082
0.0200878
0.0238485
0.0278433
0.0320233
0.0363397
0.0407453
0.045196
0.0496508
0.054073
0.0584304
0.062695
0.0668438
0.0708578
0.0747213
0.0784224
0.0819525
0.0853062
0.0884805
0.0914745
0.0942892
0.0969268
0.0993906
0.101684
0.103812
0.105777
0.107583
0.109232
0.110724
0.11206
0.113234
0.114239
0.115063
0.115687
0.116079
0.116207
0.116026
0.115459
0.114408
0.108268
0.0990712
0.0898331
0.0807071
0.0717981
0.063195
0.0549758
0.0471963
0.0399038
0.0331399
0.0269437
0.0213502
0.0164012
0.0121342
0.0085793
0.00575248
0.00363693
0.00216472
0.00121742
0.00064819
0.000330876
0.000162979
7.8247e-05
3.67871e-05
1.69755e-05
7.7025e-06
3.44176e-06
1.51658e-06
6.59857e-07
2.83837e-07
1.20844e-07
5.09743e-08
2.1316e-08
8.83342e-09
3.61745e-09
1.45073e-09
5.54721e-10
1.8519e-10
3.24431e-11
3.72575e-07
1.62828e-06
3.74043e-06
7.28113e-06
1.31873e-05
2.29752e-05
3.90653e-05
6.52596e-05
0.000107421
0.000174396
0.000279202
0.000440419
0.00068363
0.00104254
0.00155918
0.00228257
0.00326523
0.00455765
0.00620181
0.00822544
0.0106387
0.013434
0.0165884
0.0200673
0.0238279
0.0278234
0.0320047
0.0363231
0.0407314
0.0451852
0.0496436
0.0540697
0.0584312
0.0627002
0.0668534
0.0708717
0.0747394
0.0784444
0.0819781
0.085335
0.088512
0.0915082
0.0943246
0.0969632
0.0994273
0.101721
0.103847
0.10581
0.107614
0.10926
0.110748
0.112079
0.113248
0.114247
0.115064
0.11568
0.116065
0.116187
0.115999
0.115428
0.11438
0.107619
0.0984117
0.0891771
0.0800542
0.0711605
0.0625837
0.054394
0.046648
0.039393
0.0326705
0.0265185
0.0209717
0.0160722
0.011857
0.00835518
0.00558092
0.00351408
0.00208294
0.0011665
0.000621774
0.000316674
0.0001556
7.46313e-05
3.50698e-05
1.61777e-05
7.33906e-06
3.27906e-06
1.44489e-06
6.28712e-07
2.70476e-07
1.15176e-07
4.85932e-08
2.03246e-08
8.42422e-09
3.45045e-09
1.38391e-09
5.29209e-10
1.76674e-10
3.0952e-11
3.71676e-07
1.62435e-06
3.73141e-06
7.26354e-06
1.31553e-05
2.29194e-05
3.89701e-05
6.51006e-05
0.00010716
0.000173975
0.000278535
0.000439386
0.000682069
0.00104024
0.00155589
0.00227803
0.00325918
0.00454989
0.00619225
0.00821411
0.0106258
0.0134198
0.0165734
0.0200519
0.0238128
0.027809
0.0319916
0.0363118
0.0407224
0.0451789
0.0496403
0.0540696
0.0584345
0.062707
0.0668638
0.0708855
0.0747564
0.0784643
0.0820007
0.0853599
0.0885387
0.0915363
0.0943536
0.0969926
0.0994565
0.101749
0.103874
0.105835
0.107636
0.109278
0.110763
0.112089
0.113252
0.114245
0.115056
0.115666
0.116045
0.116161
0.11597
0.115395
0.114348
0.107079
0.0978584
0.0886215
0.079509
0.0706318
0.0620765
0.0539122
0.0461948
0.0389714
0.0322831
0.0261677
0.0206595
0.015801
0.0116288
0.0081712
0.00544064
0.00341423
0.00201706
0.00112608
0.000598369
0.000305101
0.000149837
7.17767e-05
3.36949e-05
1.5536e-05
7.04611e-06
3.14767e-06
1.3869e-06
6.03478e-07
2.59637e-07
1.10573e-07
4.66577e-08
1.95181e-08
8.09109e-09
3.31447e-09
1.32948e-09
5.08473e-10
1.69741e-10
2.97401e-11
3.70957e-07
1.62121e-06
3.72419e-06
7.24946e-06
1.31298e-05
2.28748e-05
3.88943e-05
6.49741e-05
0.000106953
0.000173641
0.000278008
0.000438572
0.00068084
0.00103843
0.00155333
0.0022745
0.00325449
0.0045439
0.00618489
0.00820544
0.010616
0.0134091
0.0165622
0.0200405
0.0238017
0.0277987
0.0319825
0.0363043
0.0407168
0.0451755
0.0496393
0.0540712
0.0584388
0.062714
0.0668734
0.0708976
0.0747709
0.0784809
0.0820192
0.0853798
0.0885598
0.0915582
0.0943757
0.0970145
0.0994777
0.101769
0.103892
0.105851
0.107648
0.109287
0.110768
0.112089
0.113247
0.114235
0.115041
0.115646
0.116021
0.116137
0.115949
0.115388
0.114373
0.106637
0.0974078
0.0881698
0.0790649
0.0702012
0.0616639
0.0535208
0.0458273
0.0386299
0.0319696
0.0258839
0.0204071
0.015582
0.0114448
0.00802313
0.00532806
0.00333439
0.00196466
0.00109419
0.000580152
0.000295146
0.000145053
6.95351e-05
3.26239e-05
1.50301e-05
6.81329e-06
3.04296e-06
1.34063e-06
5.83332e-07
2.50978e-07
1.06894e-07
4.51104e-08
1.88734e-08
7.82469e-09
3.20624e-09
1.28606e-09
4.92004e-10
1.64233e-10
2.87767e-11
3.70401e-07
1.61878e-06
3.71861e-06
7.23861e-06
1.31101e-05
2.28405e-05
3.88359e-05
6.48768e-05
0.000106793
0.000173386
0.000277605
0.00043795
0.000679904
0.00103706
0.00155138
0.00227183
0.00325095
0.0045394
0.0061794
0.00819901
0.0106087
0.0134013
0.016554
0.0200324
0.0237939
0.0277915
0.0319763
0.0362993
0.0407133
0.0451737
0.0496393
0.0540732
0.0584428
0.06272
0.0668812
0.0709072
0.074782
0.0784934
0.0820328
0.0853943
0.0885749
0.0915735
0.0943908
0.097029
0.0994911
0.101781
0.103902
0.105858
0.107653
0.109288
0.110764
0.112081
0.113234
0.114217
0.115017
0.115617
0.115988
0.1161
0.115911
0.115351
0.114343
0.106297
0.0970516
0.0878118
0.0787127
0.0698601
0.0613376
0.0532119
0.0455378
0.0383615
0.0317237
0.0256617
0.0202097
0.015411
0.0113014
0.00790792
0.00524067
0.00327257
0.00192418
0.00106962
0.000566188
0.000287581
0.000141057
6.75785e-05
3.17406e-05
1.46334e-05
6.63217e-06
2.96133e-06
1.30447e-06
5.67605e-07
2.44226e-07
1.04032e-07
4.39083e-08
1.83757e-08
7.619e-09
3.1232e-09
1.25272e-09
4.79381e-10
1.6001e-10
2.80389e-11
3.69997e-07
1.61702e-06
3.71455e-06
7.2307e-06
1.30958e-05
2.28155e-05
3.87935e-05
6.48062e-05
0.000106678
0.0001732
0.000277313
0.000437501
0.000679229
0.00103608
0.00154998
0.00226991
0.00324842
0.00453619
0.0061755
0.00819445
0.0106036
0.0133958
0.0165483
0.0200267
0.0237885
0.0277867
0.0319722
0.0362962
0.0407113
0.0451729
0.0496398
0.054075
0.0584459
0.0627244
0.0668867
0.0709137
0.0747894
0.0785016
0.0820415
0.0854034
0.088584
0.0915824
0.0943992
0.0970365
0.0994974
0.101785
0.103904
0.105858
0.10765
0.109281
0.110754
0.112066
0.113214
0.114191
0.114986
0.115582
0.115948
0.116058
0.115869
0.115313
0.114317
0.106047
0.0967863
0.0875425
0.078447
0.0696029
0.061092
0.0529801
0.0453213
0.0381613
0.0315408
0.0254968
0.0200637
0.0152847
0.0111957
0.00782328
0.00517667
0.00322745
0.00189471
0.00105176
0.000556063
0.00028215
0.000138269
6.61979e-05
3.10644e-05
1.43185e-05
6.49419e-06
2.90093e-06
1.27814e-06
5.56241e-07
2.39363e-07
1.01983e-07
4.30464e-08
1.80196e-08
7.4716e-09
3.06358e-09
1.22874e-09
4.70299e-10
1.56969e-10
2.75079e-11
3.69733e-07
1.61587e-06
3.71191e-06
7.22556e-06
1.30865e-05
2.27993e-05
3.8766e-05
6.47604e-05
0.000106603
0.00017308
0.000277125
0.00043721
0.000678793
0.00103544
0.00154908
0.00226868
0.0032468
0.00453414
0.00617301
0.00819155
0.0106004
0.0133923
0.0165448
0.0200232
0.0237852
0.0277837
0.0319697
0.0362943
0.0407101
0.0451725
0.0496402
0.0540763
0.0584479
0.062727
0.06689
0.0709173
0.0747933
0.0785058
0.0820458
0.0854077
0.0885881
0.0915861
0.0944023
0.0970387
0.0994983
0.101785
0.103902
0.105853
0.107642
0.10927
0.110739
0.112047
0.113191
0.114164
0.114954
0.115545
0.115908
0.116016
0.115828
0.115278
0.114297
0.105882
0.096606
0.0873576
0.0782642
0.0694264
0.0609243
0.0528227
0.045175
0.0380268
0.0314184
0.025387
0.0199667
0.0152012
0.011126
0.00776775
0.00513489
0.00319815
0.00187566
0.00104024
0.000549528
0.00027865
0.000136482
6.53302e-05
3.06508e-05
1.41252e-05
6.40456e-06
2.86143e-06
1.26093e-06
5.48903e-07
2.36213e-07
1.00667e-07
4.2492e-08
1.77915e-08
7.37711e-09
3.02542e-09
1.21336e-09
4.64473e-10
1.55016e-10
2.71669e-11
3.69606e-07
1.61531e-06
3.71064e-06
7.22308e-06
1.3082e-05
2.27915e-05
3.87528e-05
6.47385e-05
0.000106567
0.000173023
0.000277035
0.000437073
0.000678587
0.00103514
0.00154865
0.0022681
0.00324604
0.00453317
0.00617184
0.00819018
0.0105989
0.0133907
0.0165431
0.0200215
0.0237836
0.0277823
0.0319686
0.0362934
0.0407096
0.0451723
0.0496404
0.0540769
0.0584489
0.0627283
0.0668914
0.0709188
0.0747947
0.078507
0.0820469
0.0854086
0.0885888
0.0915864
0.0944021
0.0970378
0.0994966
0.101782
0.103898
0.105847
0.107634
0.10926
0.110727
0.112032
0.113173
0.114142
0.114929
0.115517
0.115877
0.115984
0.115798
0.115254
0.114287
0.1058
0.0965113
0.0872589
0.0781668
0.0693331
0.0608366
0.0527412
0.0451002
0.0379586
0.031357
0.0253324
0.0199191
0.0151605
0.0110924
0.00774113
0.00511502
0.00318434
0.00186677
0.0010349
0.000546503
0.000277023
0.000135675
6.49361e-05
3.04647e-05
1.40377e-05
6.36434e-06
2.84293e-06
1.25267e-06
5.45333e-07
2.34677e-07
1.00026e-07
4.22221e-08
1.76805e-08
7.3312e-09
3.00687e-09
1.20589e-09
4.61642e-10
1.54067e-10
2.7001e-11
3.69607e-07
1.61532e-06
3.71065e-06
7.22312e-06
1.30821e-05
2.27916e-05
3.8753e-05
6.47388e-05
0.000106568
0.000173024
0.000277036
0.000437075
0.00067859
0.00103514
0.00154866
0.00226811
0.00324605
0.00453319
0.00617186
0.00819021
0.0105989
0.0133907
0.0165431
0.0200216
0.0237837
0.0277824
0.0319686
0.0362935
0.0407096
0.0451723
0.0496405
0.0540769
0.0584489
0.0627283
0.0668914
0.0709188
0.0747947
0.078507
0.082047
0.0854087
0.0885889
0.0915865
0.0944021
0.0970379
0.0994966
0.101782
0.103898
0.105847
0.107634
0.10926
0.110727
0.112032
0.113173
0.114142
0.114929
0.115517
0.115877
0.115984
0.115798
0.115254
0.114287
0.1058
0.0965112
0.0872589
0.0781667
0.069333
0.0608365
0.0527412
0.0451002
0.0379586
0.031357
0.0253324
0.0199191
0.0151605
0.0110924
0.00774113
0.00511502
0.00318434
0.00186677
0.0010349
0.000546503
0.000277022
0.000135679
6.49344e-05
3.04656e-05
1.40374e-05
6.36446e-06
2.84291e-06
1.25268e-06
5.45334e-07
2.34677e-07
1.00026e-07
4.22221e-08
1.76804e-08
7.33116e-09
3.00685e-09
1.20588e-09
4.61637e-10
1.54065e-10
2.70007e-11
3.69738e-07
1.61589e-06
3.71196e-06
7.22566e-06
1.30867e-05
2.27996e-05
3.87665e-05
6.47612e-05
0.000106604
0.000173082
0.000277128
0.000437216
0.000678802
0.00103545
0.0015491
0.0022687
0.00324683
0.00453419
0.00617307
0.00819162
0.0106005
0.0133924
0.0165449
0.0200233
0.0237853
0.0277838
0.0319699
0.0362944
0.0407102
0.0451726
0.0496404
0.0540764
0.0584481
0.0627272
0.0668901
0.0709174
0.0747935
0.0785059
0.0820459
0.0854078
0.0885882
0.0915862
0.0944023
0.0970388
0.0994984
0.101785
0.103902
0.105853
0.107642
0.10927
0.110739
0.112047
0.113191
0.114164
0.114954
0.115545
0.115908
0.116016
0.115828
0.115278
0.114297
0.105882
0.0966059
0.0873575
0.0782641
0.0694262
0.0609242
0.0528226
0.0451749
0.0380267
0.0314183
0.0253869
0.0199667
0.0152012
0.011126
0.00776774
0.00513488
0.00319814
0.00187566
0.00104024
0.000549527
0.000278648
0.000136488
6.53269e-05
3.06526e-05
1.41247e-05
6.4048e-06
2.86141e-06
1.26094e-06
5.48903e-07
2.36212e-07
1.00666e-07
4.24916e-08
1.77912e-08
7.37699e-09
3.02534e-09
1.21334e-09
4.64456e-10
1.55011e-10
2.71658e-11
3.70005e-07
1.61705e-06
3.71464e-06
7.23087e-06
1.30961e-05
2.2816e-05
3.87944e-05
6.48077e-05
0.00010668
0.000173204
0.000277319
0.00043751
0.000679244
0.0010361
0.00155001
0.00226995
0.00324848
0.00453627
0.0061756
0.00819457
0.0106038
0.013396
0.0165485
0.0200269
0.0237887
0.0277869
0.0319724
0.0362964
0.0407115
0.0451731
0.04964
0.0540753
0.0584462
0.0627246
0.066887
0.0709139
0.0747896
0.0785018
0.0820417
0.0854036
0.0885842
0.0915826
0.0943994
0.0970367
0.0994975
0.101785
0.103904
0.105858
0.10765
0.109281
0.110754
0.112066
0.113214
0.114191
0.114986
0.115582
0.115948
0.116058
0.115869
0.115313
0.114317
0.106046
0.096786
0.0875423
0.0784468
0.0696027
0.0610918
0.05298
0.0453212
0.0381612
0.0315407
0.0254967
0.0200636
0.0152846
0.0111956
0.00782326
0.00517666
0.00322744
0.0018947
0.00105176
0.000556061
0.00028215
0.000138269
6.6198e-05
3.10647e-05
1.43188e-05
6.49433e-06
2.90099e-06
1.27817e-06
5.56247e-07
2.39364e-07
1.01983e-07
4.3046e-08
1.80193e-08
7.47146e-09
3.06348e-09
1.2287e-09
4.70274e-10
1.56961e-10
2.75063e-11
3.70413e-07
1.61884e-06
3.71873e-06
7.23884e-06
1.31105e-05
2.28412e-05
3.88371e-05
6.48788e-05
0.000106797
0.000173391
0.000277613
0.000437963
0.000679924
0.00103709
0.00155142
0.00227188
0.00325103
0.00453951
0.00617954
0.00819917
0.0106089
0.0134015
0.0165543
0.0200326
0.0237942
0.0277918
0.0319766
0.0362997
0.0407137
0.045174
0.0496397
0.0540736
0.0584431
0.0627203
0.0668815
0.0709075
0.0747823
0.0784937
0.0820331
0.0853946
0.0885751
0.0915737
0.094391
0.0970292
0.0994913
0.101781
0.103902
0.105858
0.107653
0.109288
0.110764
0.112081
0.113234
0.114217
0.115017
0.115617
0.115988
0.1161
0.115911
0.115351
0.114343
0.106296
0.0970512
0.0878115
0.0787124
0.0698599
0.0613373
0.0532117
0.0455376
0.0383613
0.0317235
0.0256616
0.0202097
0.0154109
0.0113013
0.0079079
0.00524065
0.00327256
0.00192417
0.00106961
0.000566185
0.00028758
0.000141056
6.75777e-05
3.17401e-05
1.46331e-05
6.63197e-06
2.96122e-06
1.30444e-06
5.67591e-07
2.4422e-07
1.0403e-07
4.39074e-08
1.83752e-08
7.61881e-09
3.12306e-09
1.25267e-09
4.7935e-10
1.59999e-10
2.8037e-11
3.70972e-07
1.62128e-06
3.72434e-06
7.24975e-06
1.31303e-05
2.28757e-05
3.88958e-05
6.49766e-05
0.000106957
0.000173648
0.000278019
0.000438588
0.000680865
0.00103847
0.00155338
0.00227457
0.00325459
0.00454403
0.00618507
0.00820565
0.0106162
0.0134094
0.0165625
0.0200409
0.0238021
0.0277991
0.0319829
0.0363047
0.0407172
0.0451759
0.0496397
0.0540716
0.0584392
0.0627144
0.0668738
0.070898
0.0747712
0.0784813
0.0820195
0.0853801
0.0885601
0.0915585
0.094376
0.0970148
0.0994779
0.101769
0.103892
0.105851
0.107649
0.109287
0.110768
0.112089
0.113247
0.114235
0.115041
0.115646
0.116021
0.116137
0.115949
0.115388
0.114373
0.106637
0.0974073
0.0881694
0.0790645
0.0702009
0.0616635
0.0535205
0.045827
0.0386297
0.0319694
0.0258838
0.020407
0.0155819
0.0114448
0.00802309
0.00532803
0.00333438
0.00196465
0.00109418
0.000580147
0.000295143
0.000145052
6.95342e-05
3.26233e-05
1.50297e-05
6.81312e-06
3.04287e-06
1.34058e-06
5.83311e-07
2.50969e-07
1.06891e-07
4.5109e-08
1.88729e-08
7.82451e-09
3.20609e-09
1.28601e-09
4.91969e-10
1.64222e-10
2.87746e-11
3.71694e-07
1.62443e-06
3.73159e-06
7.26389e-06
1.3156e-05
2.29205e-05
3.8972e-05
6.51037e-05
0.000107165
0.000173983
0.000278548
0.000439406
0.000682099
0.00104028
0.00155596
0.00227813
0.00325931
0.00455006
0.00619246
0.00821436
0.0106261
0.0134202
0.0165738
0.0200523
0.0238132
0.0278095
0.0319922
0.0363124
0.040723
0.0451794
0.0496408
0.0540702
0.058435
0.0627075
0.0668643
0.0708859
0.0747568
0.0784648
0.0820011
0.0853602
0.0885391
0.0915367
0.0943539
0.0969929
0.0994567
0.101749
0.103874
0.105835
0.107636
0.109278
0.110763
0.112089
0.113252
0.114245
0.115056
0.115667
0.116045
0.116161
0.11597
0.115395
0.114348
0.107078
0.0978578
0.0886209
0.0795085
0.0706313
0.0620761
0.0539118
0.0461945
0.0389712
0.0322829
0.0261675
0.0206593
0.0158008
0.0116287
0.00817114
0.00544061
0.00341421
0.00201705
0.00112607
0.000598363
0.000305097
0.000149835
7.17754e-05
3.36942e-05
1.55356e-05
7.04594e-06
3.14759e-06
1.38686e-06
6.0346e-07
2.59629e-07
1.10569e-07
4.66563e-08
1.95175e-08
8.09086e-09
3.31437e-09
1.32944e-09
5.08444e-10
1.69732e-10
2.97383e-11
3.72596e-07
1.62837e-06
3.74064e-06
7.28154e-06
1.3188e-05
2.29765e-05
3.90674e-05
6.52632e-05
0.000107427
0.000174406
0.000279217
0.000440442
0.000683666
0.00104259
0.00155926
0.00228268
0.00326538
0.00455784
0.00620206
0.00822574
0.0106391
0.0134344
0.0165889
0.0200678
0.0238285
0.027824
0.0320054
0.0363238
0.0407321
0.0451858
0.0496442
0.0540704
0.0584318
0.0627008
0.066854
0.0708723
0.07474
0.0784449
0.0819786
0.0853354
0.0885124
0.0915086
0.0943249
0.0969636
0.0994276
0.101721
0.103847
0.105811
0.107614
0.10926
0.110749
0.112079
0.113248
0.114247
0.115064
0.115681
0.116065
0.116187
0.115999
0.115428
0.11438
0.107618
0.098411
0.0891765
0.0800535
0.0711599
0.0625832
0.0543935
0.0466476
0.0393926
0.0326702
0.0265183
0.0209715
0.016072
0.0118569
0.00835511
0.00558087
0.00351404
0.00208292
0.00116648
0.000621765
0.00031667
0.000155597
7.46299e-05
3.50691e-05
1.61774e-05
7.33888e-06
3.27898e-06
1.44485e-06
6.28693e-07
2.70468e-07
1.15172e-07
4.85916e-08
2.03239e-08
8.42393e-09
3.45032e-09
1.38386e-09
5.29188e-10
1.76666e-10
3.09512e-11
3.73692e-07
1.63316e-06
3.75166e-06
7.30304e-06
1.32271e-05
2.30449e-05
3.91841e-05
6.54587e-05
0.000107749
0.000174926
0.000280042
0.000441724
0.00068561
0.00104546
0.00156338
0.0022884
0.00327304
0.00456772
0.0062143
0.00824034
0.0106558
0.013453
0.0166088
0.0200884
0.0238491
0.027844
0.032024
0.0363404
0.0407461
0.0451967
0.0496515
0.0540738
0.0584311
0.0626957
0.0668445
0.0708584
0.0747219
0.078423
0.0819531
0.0853067
0.088481
0.091475
0.0942897
0.0969273
0.099391
0.101685
0.103812
0.105777
0.107583
0.109232
0.110725
0.11206
0.113234
0.114239
0.115063
0.115687
0.116079
0.116207
0.116026
0.115459
0.114408
0.108267
0.0990703
0.0898322
0.0807064
0.0717974
0.0631944
0.0549752
0.0471958
0.0399034
0.0331396
0.0269434
0.02135
0.016401
0.0121341
0.0085792
0.00575241
0.00363688
0.00216469
0.0012174
0.000648179
0.000330869
0.000162975
7.82451e-05
3.67861e-05
1.6975e-05
7.70228e-06
3.44165e-06
1.51653e-06
6.59834e-07
2.83826e-07
1.20839e-07
5.09723e-08
2.13152e-08
8.83305e-09
3.61729e-09
1.45066e-09