/*--------------------------------*- C++ -*----------------------------------*\
  =========                 |
  \\      /  F ield         | OpenFOAM: The Open Source CFD Toolbox
   \\    /   O peration     | Website:  https://openfoam.org
    \\  /    A nd           | Version:  8
     \\/     M anipulation  |
\*---------------------------------------------------------------------------*/
FoamFile
{
    version     2.0;
    format      ascii;
    class       volScalarField;
    location    "620/fluid";
    object      N2;
}
// * * * * * * * * * * * * * * * * * * * * * * * * * * * * * * * * * * * * * //

dimensions      [0 0 0 0 0 0 0];

internalField   nonuniform List<scalar> 
4000
(
2.28993e-06
1.00056e-05
2.29764e-05
4.4711e-05
8.09731e-05
0.000141137
0.000240268
0.000402232
0.0006642
0.00108288
0.00174267
0.00276536
0.00432015
0.00663108
0.00997739
0.0146817
0.0210821
0.029491
0.0401485
0.0531868
0.0686147
0.0863252
0.106119
0.127735
0.150873
0.175221
0.200469
0.226319
0.252492
0.278734
0.304821
0.330553
0.355765
0.380317
0.404098
0.42702
0.449015
0.470038
0.490059
0.509065
0.527056
0.544044
0.560047
0.575092
0.589211
0.60244
0.614817
0.626383
0.637179
0.647246
0.656626
0.665359
0.673486
0.681044
0.688071
0.694603
0.700672
0.706236
0.711346
0.71623
0.720773
0.724999
0.72888
0.732606
0.736169
0.739575
0.742825
0.74592
0.748858
0.751637
0.754253
0.7567
0.758971
0.761047
0.762937
0.764618
0.766072
0.767283
0.768236
0.768933
0.7694
0.769685
0.769844
0.769926
0.769966
0.769985
0.769993
0.769997
0.769999
0.769999
0.77
0.77
0.77
0.77
0.77
0.77
0.77
0.77
0.77
0.77
2.29587e-06
1.00344e-05
2.30543e-05
4.4895e-05
8.13729e-05
0.000141946
0.000241799
0.000404929
0.000668565
0.00108927
0.00175075
0.0027731
0.00432228
0.00661736
0.00993041
0.0145755
0.0208832
0.0291618
0.0396535
0.0524992
0.0677211
0.0852281
0.104836
0.126293
0.14931
0.173577
0.198783
0.224629
0.250832
0.277132
0.303299
0.32913
0.354453
0.379123
0.403027
0.426073
0.448191
0.469332
0.489465
0.508578
0.526668
0.543747
0.559833
0.574953
0.589139
0.602428
0.614857
0.626469
0.637304
0.647405
0.656814
0.665571
0.673718
0.681293
0.688334
0.694875
0.700953
0.706521
0.711633
0.716521
0.721067
0.725293
0.729175
0.732906
0.736476
0.739888
0.743144
0.746243
0.749185
0.751965
0.754581
0.757025
0.75929
0.761353
0.763227
0.764882
0.766303
0.767471
0.768378
0.769029
0.769457
0.769715
0.769858
0.769932
0.769968
0.769986
0.769994
0.769997
0.769999
0.769999
0.77
0.77
0.77
0.77
0.77
0.77
0.77
0.77
0.77
0.77
2.3064e-06
1.00819e-05
2.31698e-05
4.51339e-05
8.18269e-05
0.000142754
0.000243148
0.000407049
0.00067173
0.00109364
0.00175609
0.00277823
0.004324
0.00660836
0.00989803
0.0145009
0.0207412
0.028922
0.0392836
0.0519691
0.0670079
0.0843192
0.103731
0.125004
0.147859
0.171994
0.197105
0.222892
0.249073
0.275387
0.301599
0.327502
0.352919
0.377701
0.401729
0.424909
0.447164
0.468444
0.488715
0.507961
0.526179
0.543378
0.559576
0.574801
0.589084
0.602458
0.614964
0.626643
0.637538
0.64769
0.657143
0.665939
0.674117
0.681718
0.68878
0.695338
0.701427
0.706998
0.71211
0.716998
0.721533
0.725749
0.729646
0.73339
0.736969
0.740385
0.743642
0.746739
0.749675
0.752446
0.755047
0.757472
0.75971
0.761744
0.763577
0.765184
0.76655
0.76766
0.76851
0.769112
0.769505
0.76974
0.76987
0.769937
0.769971
0.769987
0.769994
0.769997
0.769999
0.769999
0.77
0.77
0.77
0.77
0.77
0.77
0.77
0.77
0.77
0.77
2.30941e-06
1.00949e-05
2.31994e-05
4.51898e-05
8.192e-05
0.000142888
0.000243291
0.000407063
0.000671175
0.00109152
0.00175043
0.00276544
0.00429818
0.00656083
0.00981647
0.0143688
0.0205382
0.0286255
0.0388713
0.0514219
0.0663123
0.083469
0.102727
0.123857
0.146583
0.170611
0.195639
0.221371
0.247526
0.273842
0.300084
0.326042
0.351535
0.376411
0.400548
0.423846
0.446229
0.467639
0.488042
0.507418
0.525763
0.543083
0.559399
0.574732
0.589111
0.602575
0.615162
0.626914
0.637873
0.648082
0.657583
0.66642
0.674632
0.682261
0.689344
0.695918
0.702018
0.707582
0.712682
0.717558
0.722091
0.726306
0.730221
0.733972
0.737552
0.740967
0.744219
0.747306
0.750227
0.752979
0.755555
0.757948
0.760149
0.762147
0.763929
0.765483
0.766792
0.767844
0.768639
0.769196
0.769554
0.769766
0.769883
0.769943
0.769973
0.769988
0.769994
0.769998
0.769999
0.77
0.77
0.77
0.77
0.77
0.77
0.77
0.77
0.77
0.77
0.77
2.30629e-06
1.00809e-05
2.31658e-05
4.51191e-05
8.17772e-05
0.0001426
0.000242712
0.000405904
0.0006689
0.00108715
0.00174224
0.00275053
0.00427185
0.00651592
0.00974273
0.0142526
0.0203627
0.0283724
0.0385223
0.0509614
0.0657292
0.0827584
0.101891
0.122902
0.145522
0.169463
0.194423
0.220111
0.246246
0.272565
0.298833
0.324837
0.350395
0.375353
0.399585
0.422987
0.445481
0.467008
0.487529
0.507022
0.525483
0.542919
0.559339
0.574769
0.58924
0.602789
0.615452
0.627272
0.638291
0.648552
0.658098
0.666972
0.675214
0.682867
0.689968
0.696556
0.702659
0.708199
0.713299
0.718188
0.722718
0.726893
0.730833
0.734584
0.738161
0.741569
0.744809
0.747881
0.750783
0.753509
0.756056
0.758414
0.760571
0.762525
0.764259
0.765759
0.767013
0.76801
0.768754
0.769269
0.769596
0.769788
0.769894
0.769949
0.769976
0.769989
0.769995
0.769998
0.769999
0.77
0.77
0.77
0.77
0.77
0.77
0.77
0.77
0.77
0.77
0.77
2.2976e-06
1.00423e-05
2.30744e-05
4.49336e-05
8.14227e-05
0.000141943
0.000241513
0.000403744
0.000665058
0.00108042
0.00173064
0.00273096
0.00423963
0.00646434
0.00966273
0.0141327
0.0201899
0.0281326
0.0382025
0.0505511
0.0652217
0.0821515
0.101187
0.122108
0.144651
0.168526
0.19344
0.219098
0.245222
0.271551
0.297845
0.323893
0.349511
0.374541
0.398855
0.42235
0.444942
0.46657
0.487194
0.506794
0.525358
0.542886
0.559397
0.574914
0.589466
0.603088
0.615818
0.627697
0.638767
0.649072
0.658655
0.667559
0.675825
0.683494
0.690607
0.6972
0.703307
0.708837
0.71395
0.718836
0.723358
0.727488
0.731427
0.735178
0.73875
0.742148
0.745374
0.748428
0.751307
0.754008
0.756524
0.758847
0.760962
0.762873
0.76456
0.76601
0.767211
0.768157
0.768856
0.769333
0.769634
0.769809
0.769904
0.769954
0.769978
0.76999
0.769995
0.769998
0.769999
0.77
0.77
0.77
0.77
0.77
0.77
0.77
0.77
0.77
0.77
0.77
2.28625e-06
9.99234e-06
2.29578e-05
4.47014e-05
8.09899e-05
0.000141162
0.000240135
0.000401345
0.000660935
0.00107343
0.00171898
0.00271184
0.00420895
0.00641634
0.00958972
0.0140252
0.020037
0.0279232
0.0379266
0.0502009
0.064793
0.0816439
0.100604
0.121457
0.143941
0.167772
0.192654
0.218296
0.24442
0.270763
0.297087
0.323178
0.348851
0.373947
0.398335
0.42191
0.444587
0.466304
0.48702
0.506707
0.525353
0.542965
0.559555
0.575146
0.589766
0.60345
0.616235
0.628163
0.639275
0.649615
0.659227
0.668153
0.676435
0.684114
0.69123
0.697821
0.703922
0.709398
0.71463
0.719482
0.723979
0.728072
0.731996
0.735736
0.739298
0.742683
0.745894
0.748929
0.751786
0.75446
0.756946
0.759237
0.761316
0.763189
0.764832
0.766234
0.767386
0.768286
0.768944
0.769388
0.769665
0.769826
0.769913
0.769958
0.76998
0.769991
0.769996
0.769998
0.769999
0.77
0.77
0.77
0.77
0.77
0.77
0.77
0.77
0.77
0.77
0.77
2.27387e-06
9.93793e-06
2.28315e-05
4.44516e-05
8.05281e-05
0.000140338
0.000238694
0.000398868
0.000656737
0.00106642
0.00170746
0.00269328
0.00417969
0.00637134
0.00952249
0.0139279
0.019901
0.0277399
0.0376886
0.049903
0.064433
0.0812228
0.100126
0.120929
0.143372
0.167172
0.192035
0.217672
0.243803
0.270166
0.296522
0.322655
0.34838
0.373536
0.39799
0.421637
0.44439
0.466184
0.486974
0.506733
0.525452
0.543134
0.559789
0.575441
0.590117
0.603851
0.616681
0.628647
0.639792
0.65016
0.659792
0.668734
0.677027
0.684713
0.691832
0.698421
0.704499
0.709972
0.715207
0.720051
0.724534
0.728609
0.732521
0.736249
0.739798
0.74317
0.746364
0.749379
0.752213
0.75486
0.757317
0.759574
0.761617
0.763448
0.765054
0.76642
0.767534
0.768395
0.769018
0.769435
0.769693
0.769841
0.769921
0.769962
0.769982
0.769992
0.769996
0.769998
0.769999
0.77
0.77
0.77
0.77
0.77
0.77
0.77
0.77
0.77
0.77
0.77
2.26162e-06
9.88426e-06
2.27073e-05
4.42073e-05
8.00791e-05
0.000139542
0.000237315
0.000396519
0.000652795
0.00105991
0.00169688
0.00267642
0.00415339
0.00633135
0.00946337
0.0138432
0.0197838
0.0275836
0.0374876
0.0496539
0.0641348
0.0808774
0.0997378
0.120504
0.142919
0.1667
0.191556
0.217195
0.243338
0.269724
0.296112
0.322287
0.348059
0.373269
0.397783
0.421493
0.444311
0.466167
0.487021
0.506844
0.525624
0.543363
0.560073
0.575775
0.590496
0.60427
0.617134
0.62913
0.6403
0.650687
0.660335
0.669287
0.677587
0.685275
0.692392
0.698976
0.705018
0.710479
0.715705
0.720535
0.725007
0.729076
0.732984
0.736706
0.740246
0.743605
0.746784
0.749781
0.752592
0.755214
0.75764
0.759862
0.761865
0.763659
0.765229
0.766564
0.767654
0.768487
0.769081
0.769475
0.769716
0.769853
0.769927
0.769965
0.769983
0.769992
0.769997
0.769998
0.769999
0.77
0.77
0.77
0.77
0.77
0.77
0.77
0.77
0.77
0.77
0.77
2.25015e-06
9.83402e-06
2.25913e-05
4.39796e-05
7.96623e-05
0.000138807
0.000236046
0.000394368
0.000649208
0.00105402
0.00168739
0.0026614
0.00413018
0.00629636
0.00941211
0.0137705
0.0196841
0.0274518
0.0373197
0.0494477
0.0638905
0.0805972
0.0994261
0.120167
0.142564
0.166335
0.191189
0.216836
0.242996
0.269407
0.295827
0.32204
0.347857
0.373116
0.397683
0.421446
0.444317
0.466229
0.487137
0.507013
0.525844
0.543631
0.560384
0.576125
0.590882
0.604687
0.617579
0.629597
0.640785
0.651186
0.660843
0.669801
0.678103
0.685789
0.692902
0.69948
0.705506
0.710946
0.716154
0.720971
0.725424
0.729493
0.733396
0.737111
0.740641
0.743989
0.747153
0.750133
0.752925
0.755525
0.757925
0.76012
0.762111
0.763881
0.765419
0.766716
0.767762
0.768567
0.769136
0.769509
0.769735
0.769864
0.769932
0.769967
0.769985
0.769993
0.769997
0.769999
0.769999
0.77
0.77
0.77
0.77
0.77
0.77
0.77
0.77
0.77
0.77
0.77
2.23979e-06
9.78872e-06
2.24869e-05
4.37751e-05
7.92889e-05
0.00013815
0.000234918
0.000392464
0.000646047
0.00104886
0.00167911
0.0026484
0.0041102
0.00626644
0.00936858
0.0137092
0.0196006
0.0273422
0.0371813
0.0492793
0.0636926
0.0803724
0.0991786
0.119902
0.142289
0.166056
0.190914
0.216572
0.24275
0.269186
0.295636
0.321885
0.347743
0.373046
0.397657
0.421466
0.444384
0.466344
0.487297
0.507217
0.52609
0.543915
0.560704
0.576476
0.591261
0.60509
0.618002
0.630036
0.641237
0.651646
0.661309
0.67027
0.67857
0.686254
0.693361
0.699931
0.70594
0.711367
0.716565
0.721367
0.725803
0.729866
0.733764
0.73747
0.74099
0.744325
0.747474
0.750436
0.75321
0.755789
0.758171
0.760353
0.762321
0.764066
0.765578
0.766846
0.767864
0.768635
0.769182
0.769538
0.769752
0.769873
0.769937
0.76997
0.769986
0.769993
0.769997
0.769999
0.769999
0.77
0.77
0.77
0.77
0.77
0.77
0.77
0.77
0.77
0.77
0.77
2.23071e-06
9.74899e-06
2.23954e-05
4.35963e-05
7.8963e-05
0.000137578
0.000233938
0.000390816
0.000643322
0.00104443
0.00167204
0.00263734
0.00409329
0.00624126
0.00933216
0.0136582
0.0195317
0.0272524
0.0370687
0.0491432
0.0635342
0.0801942
0.0989846
0.119697
0.142078
0.165847
0.190712
0.216383
0.24258
0.269039
0.295519
0.321801
0.347694
0.373034
0.397684
0.421533
0.444492
0.46649
0.487482
0.507438
0.526344
0.5442
0.561017
0.576814
0.59162
0.605468
0.618394
0.63044
0.641649
0.652064
0.661729
0.670689
0.678987
0.686666
0.693765
0.700323
0.706316
0.711733
0.716918
0.721705
0.726126
0.73019
0.734082
0.73778
0.741289
0.744611
0.747745
0.750694
0.753454
0.756022
0.758392
0.760555
0.762501
0.764224
0.765712
0.766956
0.76795
0.768697
0.76922
0.769562
0.769766
0.76988
0.769941
0.769972
0.769987
0.769994
0.769997
0.769999
0.769999
0.77
0.77
0.77
0.77
0.77
0.77
0.77
0.77
0.77
0.77
0.77
2.22292e-06
9.71494e-06
2.23171e-05
4.34433e-05
7.86847e-05
0.00013709
0.000233105
0.000389419
0.000641019
0.0010407
0.0016661
0.00262809
0.00407922
0.00622041
0.00930215
0.0136164
0.0194755
0.0271797
0.0369781
0.0490347
0.063409
0.0800547
0.0988343
0.119541
0.14192
0.165692
0.190566
0.216251
0.242466
0.268948
0.295453
0.321765
0.347689
0.373061
0.397745
0.421628
0.44462
0.466652
0.487675
0.50766
0.526593
0.544474
0.561312
0.577129
0.591952
0.605812
0.618749
0.630804
0.642017
0.652435
0.662101
0.671059
0.679353
0.687025
0.694115
0.700665
0.706647
0.712053
0.717226
0.721999
0.726401
0.730468
0.734354
0.738046
0.741547
0.744861
0.747991
0.750931
0.753679
0.756232
0.758584
0.760728
0.762656
0.764358
0.765826
0.767049
0.768021
0.768749
0.769255
0.769581
0.769777
0.769886
0.769944
0.769973
0.769987
0.769994
0.769997
0.769999
0.769999
0.77
0.77
0.77
0.77
0.77
0.77
0.77
0.77
0.77
0.77
0.77
2.21638e-06
9.68638e-06
2.22514e-05
4.33152e-05
7.8452e-05
0.000136683
0.000232411
0.000388258
0.000639109
0.00103761
0.00166121
0.0026205
0.00406771
0.00620342
0.00927781
0.0135826
0.0194304
0.0271217
0.0369063
0.0489493
0.0633112
0.0799469
0.0987195
0.119423
0.141803
0.16558
0.190463
0.216161
0.242394
0.268896
0.295425
0.321761
0.347712
0.373112
0.397825
0.421737
0.444756
0.466815
0.487863
0.507872
0.526827
0.544727
0.561583
0.577414
0.592249
0.60612
0.619064
0.631124
0.64234
0.652759
0.662424
0.671379
0.679667
0.687331
0.694417
0.700962
0.706931
0.712326
0.71749
0.722254
0.726629
0.730703
0.734585
0.738272
0.74177
0.745078
0.748198
0.751129
0.753866
0.756406
0.758744
0.760873
0.762785
0.76447
0.76592
0.767125
0.76808
0.768791
0.769283
0.769599
0.769786
0.769891
0.769946
0.769974
0.769988
0.769994
0.769997
0.769999
0.77
0.77
0.77
0.77
0.77
0.77
0.77
0.77
0.77
0.77
0.77
0.77
2.21102e-06
9.66295e-06
2.21976e-05
4.32103e-05
7.82616e-05
0.000136351
0.000231845
0.000387312
0.000637558
0.00103511
0.00165726
0.00261438
0.00405847
0.00618982
0.00925841
0.0135558
0.0193948
0.0270761
0.0368503
0.0488831
0.0632361
0.0798648
0.0986332
0.119335
0.141718
0.165501
0.190393
0.216103
0.242351
0.268871
0.29542
0.321777
0.347751
0.373175
0.397911
0.421846
0.444889
0.466969
0.488038
0.508065
0.527037
0.544953
0.561822
0.577664
0.592508
0.606386
0.619336
0.631399
0.642617
0.653035
0.662697
0.671648
0.679933
0.687595
0.694675
0.701213
0.70717
0.712556
0.71771
0.722463
0.726816
0.730898
0.734778
0.738462
0.741954
0.745257
0.748369
0.751291
0.754019
0.756549
0.758876
0.760992
0.762891
0.764563
0.765998
0.767188
0.768128
0.768825
0.769306
0.769612
0.769794
0.769895
0.769948
0.769975
0.769988
0.769995
0.769998
0.769999
0.77
0.77
0.77
0.77
0.77
0.77
0.77
0.77
0.77
0.77
0.77
0.77
2.20673e-06
9.64424e-06
2.21546e-05
4.31266e-05
7.81098e-05
0.000136086
0.000231395
0.000386562
0.000636329
0.00103313
0.00165414
0.00260957
0.00405121
0.00617918
0.00924328
0.0135351
0.0193672
0.027041
0.0368074
0.0488328
0.0631794
0.0798035
0.0985695
0.119272
0.141657
0.165446
0.190346
0.216068
0.242328
0.268864
0.295429
0.321804
0.347796
0.37324
0.397995
0.421949
0.44501
0.467107
0.488192
0.508234
0.527219
0.545146
0.562025
0.577876
0.592727
0.60661
0.619563
0.631627
0.642845
0.653262
0.662922
0.671871
0.680154
0.687812
0.694886
0.701418
0.707367
0.712745
0.717891
0.722636
0.726968
0.731057
0.734933
0.738614
0.742102
0.7454
0.748507
0.751422
0.754142
0.756664
0.758982
0.761088
0.762976
0.764637
0.766061
0.767239
0.768166
0.768852
0.769324
0.769623
0.7698
0.769898
0.76995
0.769976
0.769989
0.769995
0.769998
0.769999
0.77
0.77
0.77
0.77
0.77
0.77
0.77
0.77
0.77
0.77
0.77
0.77
2.20343e-06
9.62983e-06
2.21215e-05
4.30622e-05
7.79931e-05
0.000135883
0.000231049
0.000385987
0.000635389
0.00103162
0.00165177
0.00260591
0.00404571
0.00617113
0.00923186
0.0135194
0.0193466
0.0270148
0.0367755
0.0487957
0.0631379
0.079759
0.0985237
0.119227
0.141615
0.165409
0.190316
0.216047
0.242318
0.268866
0.295444
0.321834
0.347841
0.373299
0.398069
0.422038
0.445112
0.467223
0.48832
0.508373
0.527368
0.545304
0.562191
0.578048
0.592902
0.606788
0.619743
0.631808
0.643026
0.653443
0.663104
0.672051
0.680331
0.687984
0.695054
0.701581
0.707523
0.712895
0.718035
0.722775
0.727092
0.73118
0.735055
0.738733
0.742218
0.745512
0.748614
0.751524
0.754239
0.756754
0.759064
0.761163
0.763043
0.764695
0.76611
0.767278
0.768196
0.768873
0.769338
0.769632
0.769805
0.769901
0.769951
0.769977
0.769989
0.769995
0.769998
0.769999
0.77
0.77
0.77
0.77
0.77
0.77
0.77
0.77
0.77
0.77
0.77
0.77
2.20104e-06
9.61938e-06
2.20976e-05
4.30155e-05
7.79086e-05
0.000135736
0.0002308
0.000385571
0.00063471
0.00103054
0.00165005
0.00260327
0.00404176
0.00616536
0.0092237
0.0135082
0.0193319
0.0269962
0.036753
0.0487696
0.0631089
0.0797282
0.0984924
0.119196
0.141587
0.165385
0.190298
0.216035
0.242315
0.268872
0.29546
0.32186
0.347878
0.373347
0.398129
0.422108
0.445193
0.467312
0.488418
0.50848
0.527482
0.545423
0.562315
0.578176
0.593034
0.606922
0.619879
0.631945
0.643165
0.653582
0.66324
0.672186
0.680462
0.688113
0.69518
0.701702
0.707639
0.713006
0.718143
0.722878
0.727184
0.731269
0.735143
0.738819
0.742302
0.745594
0.748693
0.751599
0.754309
0.75682
0.759125
0.761218
0.763092
0.764737
0.766145
0.767306
0.768218
0.768889
0.769348
0.769638
0.769809
0.769903
0.769952
0.769977
0.769989
0.769995
0.769998
0.769999
0.77
0.77
0.77
0.77
0.77
0.77
0.77
0.77
0.77
0.77
0.77
0.77
2.19949e-06
9.61262e-06
2.2082e-05
4.29853e-05
7.78539e-05
0.000135641
0.000230638
0.000385303
0.000634273
0.00102983
0.00164895
0.00260158
0.00403922
0.00616167
0.00921848
0.0135011
0.0193225
0.0269845
0.0367388
0.0487531
0.0630907
0.0797089
0.0984729
0.119178
0.14157
0.165371
0.190288
0.21603
0.242315
0.268878
0.295473
0.32188
0.347905
0.373381
0.39817
0.422156
0.445247
0.467373
0.488484
0.508551
0.527558
0.545503
0.562398
0.578262
0.593122
0.607013
0.619971
0.632038
0.643257
0.653673
0.663331
0.672275
0.68055
0.688198
0.695263
0.701783
0.707716
0.713081
0.718214
0.722946
0.727245
0.731328
0.735201
0.738877
0.742358
0.745648
0.748745
0.751649
0.754356
0.756863
0.759165
0.761255
0.763124
0.764765
0.766169
0.767325
0.768232
0.768899
0.769354
0.769642
0.769811
0.769904
0.769953
0.769978
0.769989
0.769995
0.769998
0.769999
0.77
0.77
0.77
0.77
0.77
0.77
0.77
0.77
0.77
0.77
0.77
0.77
2.19874e-06
9.60936e-06
2.20746e-05
4.29709e-05
7.78278e-05
0.000135595
0.000230562
0.000385176
0.000634066
0.0010295
0.00164844
0.00260079
0.00403803
0.00615994
0.00921604
0.0134978
0.0193182
0.026979
0.0367322
0.0487455
0.0630823
0.0797
0.098464
0.119169
0.141563
0.165365
0.190284
0.216028
0.242316
0.268881
0.29548
0.32189
0.347919
0.373399
0.39819
0.42218
0.445275
0.467404
0.488518
0.508587
0.527596
0.545544
0.56244
0.578306
0.593167
0.607058
0.620017
0.632084
0.643303
0.653719
0.663376
0.672319
0.680593
0.688241
0.695304
0.701823
0.707754
0.713118
0.71825
0.72298
0.727275
0.731357
0.73523
0.738905
0.742386
0.745674
0.74877
0.751673
0.754379
0.756885
0.759185
0.761272
0.76314
0.764779
0.76618
0.767334
0.768239
0.768903
0.769357
0.769644
0.769812
0.769905
0.769953
0.769978
0.76999
0.769995
0.769998
0.769999
0.77
0.77
0.77
0.77
0.77
0.77
0.77
0.77
0.77
0.77
0.77
0.77
2.19876e-06
9.60943e-06
2.20747e-05
4.29712e-05
7.78284e-05
0.000135596
0.000230563
0.000385179
0.00063407
0.00102951
0.00164845
0.0026008
0.00403806
0.00615997
0.00921608
0.0134979
0.0193182
0.0269791
0.0367323
0.0487456
0.0630824
0.0797002
0.0984642
0.119169
0.141563
0.165365
0.190284
0.216028
0.242316
0.268882
0.29548
0.321891
0.347919
0.373399
0.398191
0.42218
0.445275
0.467404
0.488518
0.508587
0.527596
0.545544
0.56244
0.578306
0.593167
0.607058
0.620017
0.632084
0.643303
0.653719
0.663376
0.672319
0.680593
0.688241
0.695304
0.701823
0.707754
0.713118
0.71825
0.72298
0.727275
0.731357
0.73523
0.738905
0.742386
0.745674
0.74877
0.751673
0.754379
0.756885
0.759185
0.761272
0.76314
0.764779
0.76618
0.767334
0.768239
0.768903
0.769357
0.769644
0.769812
0.769905
0.769953
0.769978
0.76999
0.769995
0.769998
0.769999
0.77
0.77
0.77
0.77
0.77
0.77
0.77
0.77
0.77
0.77
0.77
0.77
2.19954e-06
9.61283e-06
2.20825e-05
4.29863e-05
7.78556e-05
0.000135644
0.000230643
0.000385311
0.000634285
0.00102985
0.00164898
0.00260163
0.00403929
0.00616176
0.00921862
0.0135013
0.0193228
0.0269848
0.0367392
0.0487536
0.0630913
0.0797095
0.0984736
0.119178
0.141571
0.165372
0.190289
0.216031
0.242316
0.268879
0.295474
0.321881
0.347906
0.373382
0.39817
0.422156
0.445248
0.467374
0.488485
0.508552
0.527558
0.545504
0.562398
0.578262
0.593123
0.607013
0.619971
0.632038
0.643258
0.653674
0.663331
0.672275
0.68055
0.688199
0.695263
0.701783
0.707716
0.713081
0.718214
0.722946
0.727245
0.731328
0.735201
0.738877
0.742358
0.745648
0.748745
0.751649
0.754356
0.756863
0.759165
0.761255
0.763124
0.764765
0.766169
0.767325
0.768232
0.768899
0.769354
0.769642
0.769811
0.769904
0.769953
0.769978
0.769989
0.769995
0.769998
0.769999
0.77
0.77
0.77
0.77
0.77
0.77
0.77
0.77
0.77
0.77
0.77
0.77
2.20112e-06
9.61974e-06
2.20984e-05
4.30171e-05
7.79114e-05
0.000135741
0.000230808
0.000385585
0.000634731
0.00103057
0.00165011
0.00260335
0.00404187
0.00616553
0.00922393
0.0135086
0.0193323
0.0269968
0.0367537
0.0487704
0.0631098
0.0797292
0.0984935
0.119198
0.141589
0.165386
0.1903
0.216037
0.242317
0.268873
0.295462
0.321862
0.34788
0.373349
0.39813
0.422109
0.445194
0.467314
0.488419
0.508481
0.527483
0.545424
0.562316
0.578176
0.593034
0.606922
0.619879
0.631946
0.643165
0.653582
0.663241
0.672186
0.680463
0.688113
0.69518
0.701702
0.707639
0.713007
0.718143
0.722878
0.727184
0.731269
0.735143
0.73882
0.742303
0.745594
0.748693
0.751599
0.754309
0.75682
0.759125
0.761218
0.763092
0.764738
0.766145
0.767306
0.768218
0.768889
0.769348
0.769638
0.769809
0.769903
0.769952
0.769977
0.769989
0.769995
0.769998
0.769999
0.77
0.77
0.77
0.77
0.77
0.77
0.77
0.77
0.77
0.77
0.77
0.77
2.20355e-06
9.63032e-06
2.21227e-05
4.30644e-05
7.7997e-05
0.00013589
0.00023106
0.000386005
0.000635418
0.00103167
0.00165184
0.00260601
0.00404587
0.00617136
0.00923219
0.0135198
0.0193471
0.0270156
0.0367764
0.0487968
0.0631392
0.0797604
0.0985253
0.119228
0.141617
0.165411
0.190318
0.216049
0.24232
0.268868
0.295446
0.321836
0.347843
0.373301
0.398071
0.422039
0.445114
0.467224
0.488321
0.508375
0.52737
0.545305
0.562192
0.578049
0.592903
0.606789
0.619744
0.631809
0.643027
0.653444
0.663104
0.672052
0.680331
0.687985
0.695055
0.701581
0.707523
0.712895
0.718035
0.722775
0.727092
0.73118
0.735055
0.738733
0.742218
0.745512
0.748614
0.751524
0.754239
0.756754
0.759064
0.761163
0.763043
0.764695
0.76611
0.767278
0.768196
0.768873
0.769338
0.769632
0.769805
0.769901
0.769951
0.769977
0.769989
0.769995
0.769998
0.769999
0.77
0.77
0.77
0.77
0.77
0.77
0.77
0.77
0.77
0.77
0.77
0.77
2.20687e-06
9.64486e-06
2.2156e-05
4.31293e-05
7.81146e-05
0.000136094
0.000231408
0.000386584
0.000636365
0.00103319
0.00165423
0.0026097
0.00405141
0.00617947
0.00924369
0.0135356
0.019368
0.0270419
0.0368085
0.0488342
0.063181
0.0798053
0.0985715
0.119274
0.141659
0.165448
0.190349
0.21607
0.242331
0.268866
0.295431
0.321807
0.347799
0.373242
0.397997
0.421951
0.445012
0.467109
0.488194
0.508236
0.527221
0.545148
0.562027
0.577878
0.592728
0.606611
0.619564
0.631628
0.642846
0.653262
0.662922
0.671872
0.680155
0.687812
0.694887
0.701418
0.707367
0.712745
0.717891
0.722636
0.726968
0.731057
0.734933
0.738614
0.742103
0.7454
0.748507
0.751422
0.754143
0.756664
0.758982
0.761088
0.762976
0.764637
0.766061
0.767239
0.768166
0.768852
0.769324
0.769623
0.7698
0.769898
0.76995
0.769976
0.769989
0.769995
0.769998
0.769999
0.77
0.77
0.77
0.77
0.77
0.77
0.77
0.77
0.77
0.77
0.77
0.77
2.21119e-06
9.66369e-06
2.21993e-05
4.32136e-05
7.82673e-05
0.000136361
0.000231861
0.000387339
0.000637601
0.00103518
0.00165737
0.00261454
0.00405871
0.00619017
0.0092589
0.0135565
0.0193957
0.0270772
0.0368517
0.0488848
0.063238
0.079867
0.0986356
0.119338
0.141721
0.165504
0.190396
0.216107
0.242354
0.268874
0.295423
0.321781
0.347754
0.373178
0.397914
0.421849
0.444892
0.466971
0.48804
0.508068
0.527039
0.544955
0.561824
0.577666
0.59251
0.606388
0.619337
0.6314
0.642618
0.653036
0.662698
0.671649
0.679933
0.687596
0.694676
0.701213
0.70717
0.712556
0.71771
0.722463
0.726816
0.730898
0.734778
0.738462
0.741954
0.745257
0.74837
0.751291
0.754019
0.756549
0.758876
0.760992
0.762891
0.764563
0.765998
0.767188
0.768128
0.768825
0.769306
0.769612
0.769794
0.769895
0.769948
0.769975
0.769988
0.769995
0.769998
0.769999
0.77
0.77
0.77
0.77
0.77
0.77
0.77
0.77
0.77
0.77
0.77
0.77
2.21658e-06
9.68724e-06
2.22534e-05
4.3319e-05
7.84586e-05
0.000136695
0.00023243
0.000388289
0.000639159
0.00103769
0.00166134
0.00262069
0.00406799
0.00620382
0.00927838
0.0135834
0.0194314
0.027123
0.036908
0.0489513
0.0633135
0.0799495
0.0987224
0.119426
0.141806
0.165584
0.190467
0.216165
0.242397
0.2689
0.295429
0.321765
0.347715
0.373116
0.397828
0.42174
0.44476
0.466818
0.487866
0.507875
0.526829
0.544729
0.561585
0.577416
0.592251
0.606121
0.619066
0.631125
0.642342
0.65276
0.662425
0.67138
0.679668
0.687332
0.694417
0.700963
0.706931
0.712327
0.71749
0.722254
0.726629
0.730703
0.734586
0.738272
0.74177
0.745079
0.748199
0.751129
0.753866
0.756406
0.758744
0.760873
0.762785
0.76447
0.76592
0.767125
0.76808
0.768791
0.769283
0.769599
0.769786
0.769891
0.769946
0.769974
0.769988
0.769994
0.769997
0.769999
0.77
0.77
0.77
0.77
0.77
0.77
0.77
0.77
0.77
0.77
0.77
0.77
2.22314e-06
9.71591e-06
2.23193e-05
4.34475e-05
7.86922e-05
0.000137103
0.000233126
0.000389454
0.000641075
0.00104078
0.00166624
0.0026283
0.00407954
0.00622086
0.0093028
0.0136172
0.0194767
0.0271812
0.03698
0.049037
0.0634116
0.0800577
0.0988377
0.119544
0.141924
0.165696
0.19057
0.216255
0.24247
0.268952
0.295458
0.321769
0.347693
0.373065
0.397749
0.421632
0.444624
0.466655
0.487678
0.507663
0.526596
0.544476
0.561315
0.577132
0.591954
0.605814
0.618751
0.630805
0.642019
0.652436
0.662102
0.67106
0.679354
0.687026
0.694116
0.700666
0.706648
0.712053
0.717226
0.722
0.726401
0.730469
0.734355
0.738046
0.741547
0.744862
0.747991
0.750931
0.753679
0.756232
0.758584
0.760728
0.762656
0.764358
0.765826
0.767049
0.768021
0.768749
0.769255
0.769581
0.769777
0.769886
0.769944
0.769973
0.769987
0.769994
0.769997
0.769999
0.769999
0.77
0.77
0.77
0.77
0.77
0.77
0.77
0.77
0.77
0.77
0.77
2.23095e-06
9.75005e-06
2.23978e-05
4.36009e-05
7.89712e-05
0.000137592
0.000233961
0.000390854
0.000643384
0.00104453
0.00167219
0.00263757
0.00409364
0.00624176
0.00933287
0.0136591
0.019533
0.0272541
0.0370708
0.0491458
0.0635372
0.0801976
0.0989884
0.119702
0.142083
0.165852
0.190717
0.216388
0.242585
0.269044
0.295524
0.321806
0.347699
0.373039
0.397689
0.421538
0.444496
0.466494
0.487486
0.507442
0.526347
0.544203
0.56102
0.576817
0.591623
0.60547
0.618396
0.630442
0.641651
0.652065
0.661731
0.670691
0.678989
0.686667
0.693766
0.700324
0.706317
0.711734
0.716919
0.721705
0.726126
0.730191
0.734082
0.73778
0.74129
0.744611
0.747745
0.750694
0.753454
0.756022
0.758392
0.760555
0.762501
0.764224
0.765712
0.766956
0.76795
0.768697
0.76922
0.769562
0.769766
0.76988
0.769941
0.769972
0.769987
0.769994
0.769997
0.769999
0.769999
0.77
0.77
0.77
0.77
0.77
0.77
0.77
0.77
0.77
0.77
0.77
2.24006e-06
9.78986e-06
2.24895e-05
4.37801e-05
7.92978e-05
0.000138165
0.000234943
0.000392506
0.000646115
0.00104896
0.00167928
0.00264865
0.00411058
0.00626699
0.00936936
0.0137102
0.0196021
0.0273441
0.0371837
0.0492821
0.0636959
0.0803762
0.0991829
0.119907
0.142294
0.166062
0.19092
0.216578
0.242756
0.269191
0.295642
0.321891
0.347749
0.373051
0.397662
0.421471
0.444389
0.466348
0.487302
0.507221
0.526094
0.543918
0.560707
0.57648
0.591264
0.605093
0.618004
0.630039
0.641239
0.651648
0.661311
0.670271
0.678572
0.686255
0.693362
0.699932
0.705941
0.711367
0.716566
0.721367
0.725804
0.729867
0.733764
0.73747
0.74099
0.744325
0.747474
0.750437
0.75321
0.75579
0.758171
0.760353
0.762321
0.764066
0.765578
0.766847
0.767864
0.768635
0.769182
0.769538
0.769752
0.769873
0.769937
0.76997
0.769986
0.769993
0.769997
0.769999
0.769999
0.77
0.77
0.77
0.77
0.77
0.77
0.77
0.77
0.77
0.77
0.77
2.25043e-06
9.83523e-06
2.25941e-05
4.39849e-05
7.96717e-05
0.000138823
0.000236074
0.000394413
0.00064928
0.00105413
0.00168757
0.00266167
0.00413058
0.00629695
0.00941295
0.0137717
0.0196857
0.0274538
0.0373222
0.0494508
0.0638942
0.0806014
0.0994308
0.120172
0.142569
0.166341
0.191196
0.216842
0.243003
0.269413
0.295833
0.322046
0.347863
0.373122
0.397689
0.421452
0.444322
0.466234
0.487142
0.507018
0.525848
0.543635
0.560388
0.576129
0.590885
0.60469
0.617582
0.6296
0.640787
0.651188
0.660845
0.669803
0.678104
0.685791
0.692903
0.699481
0.705506
0.710946
0.716154
0.720971
0.725425
0.729493
0.733397
0.737112
0.740642
0.743989
0.747153
0.750133
0.752925
0.755525
0.757926
0.76012
0.762111
0.763881
0.76542
0.766716
0.767762
0.768567
0.769136
0.769509
0.769735
0.769864
0.769932
0.769967
0.769985
0.769993
0.769997
0.769999
0.769999
0.77
0.77
0.77
0.77
0.77
0.77
0.77
0.77
0.77
0.77
0.77
2.26191e-06
9.88554e-06
2.27102e-05
4.42128e-05
8.0089e-05
0.000139559
0.000237344
0.000396565
0.000652871
0.00106003
0.00169707
0.0026767
0.00415382
0.00633198
0.00946428
0.0138445
0.0197855
0.0275858
0.0374904
0.0496572
0.0641388
0.0808819
0.0997429
0.12051
0.142925
0.166707
0.191562
0.217202
0.243345
0.269731
0.296119
0.322294
0.348066
0.373276
0.39779
0.4215
0.444317
0.466174
0.487027
0.506849
0.525629
0.543368
0.560078
0.575779
0.590499
0.604273
0.617138
0.629134
0.640303
0.65069
0.660337
0.669289
0.677589
0.685276
0.692393
0.698978
0.70502
0.710481
0.715706
0.720536
0.725007
0.729076
0.732984
0.736706
0.740246
0.743605
0.746784
0.749781
0.752593
0.755215
0.757641
0.759862
0.761865
0.763659
0.765229
0.766564
0.767655
0.768487
0.769081
0.769475
0.769716
0.769853
0.769927
0.769965
0.769983
0.769992
0.769997
0.769998
0.769999
0.77
0.77
0.77
0.77
0.77
0.77
0.77
0.77
0.77
0.77
0.77
2.27417e-06
9.93925e-06
2.28345e-05
4.44573e-05
8.05383e-05
0.000140356
0.000238724
0.000398917
0.000656816
0.00106655
0.00170766
0.00269358
0.00418014
0.00637201
0.00952344
0.0139292
0.0199028
0.0277423
0.0376916
0.0499067
0.0644373
0.0812278
0.100132
0.120935
0.143379
0.167179
0.192043
0.21768
0.243811
0.270174
0.29653
0.322663
0.348388
0.373543
0.397998
0.421644
0.444396
0.466191
0.48698
0.506739
0.525458
0.543139
0.559794
0.575446
0.590121
0.603855
0.616685
0.628651
0.639795
0.650162
0.659795
0.668737
0.67703
0.684715
0.691833
0.698423
0.704501
0.709973
0.715209
0.720052
0.724535
0.728609
0.732522
0.73625
0.739799
0.743171
0.746365
0.74938
0.752213
0.754861
0.757317
0.759575
0.761617
0.763448
0.765054
0.76642
0.767534
0.768395