/*--------------------------------*- C++ -*----------------------------------*\
  =========                 |
  \\      /  F ield         | OpenFOAM: The Open Source CFD Toolbox
   \\    /   O peration     | Website:  https://openfoam.org
    \\  /    A nd           | Version:  8
     \\/     M anipulation  |
\*---------------------------------------------------------------------------*/
FoamFile
{
    version     2.0;
    format      ascii;
    class       volScalarField;
    location    "620/fluid";
    object      O2;
}
// * * * * * * * * * * * * * * * * * * * * * * * * * * * * * * * * * * * * * //

dimensions      [0 0 0 0 0 0 0];

internalField   nonuniform List<scalar> 
4000
(
4.53552e-10
1.98032e-09
4.54e-09
8.81109e-09
1.58971e-08
2.75718e-08
4.66465e-08
7.75038e-08
1.26841e-07
2.04658e-07
3.25449e-07
5.09475e-07
7.83815e-07
1.18272e-06
1.74679e-06
2.51918e-06
3.53977e-06
4.83791e-06
6.42557e-06
8.29332e-06
1.04105e-05
1.27294e-05
1.51907e-05
1.773e-05
2.02827e-05
2.27876e-05
2.51894e-05
2.74402e-05
2.95001e-05
3.13383e-05
3.29348e-05
3.42835e-05
3.53983e-05
3.63233e-05
3.71459e-05
3.80113e-05
3.91351e-05
4.08149e-05
4.34397e-05
4.75075e-05
5.36528e-05
6.2691e-05
7.56778e-05
9.39852e-05
0.000119403
0.000154274
0.000201556
0.000265423
0.000351176
0.000465802
0.00061849
0.000821317
0.00109014
0.00144574
0.00191543
0.00253499
0.00335148
0.00441255
0.00579165
0.00765449
0.0101071
0.0133442
0.0178954
0.034362
0.051039
0.0676645
0.084035
0.0999908
0.115404
0.13017
0.1442
0.157416
0.169743
0.18105
0.191379
0.20057
0.208523
0.215142
0.220355
0.224168
0.226722
0.228278
0.229147
0.229595
0.229813
0.229916
0.229963
0.229984
0.229993
0.229997
0.229999
0.229999
0.23
0.23
0.23
0.23
0.23
0.23
0.23
0.23
4.61221e-10
2.01522e-09
4.62584e-09
8.9929e-09
1.62568e-08
2.82534e-08
4.78936e-08
7.97099e-08
1.30601e-07
2.10887e-07
3.35463e-07
5.2503e-07
8.06947e-07
1.21491e-06
1.79155e-06
2.58011e-06
3.62088e-06
4.94398e-06
6.56243e-06
8.46801e-06
1.06311e-05
1.30044e-05
1.55286e-05
1.81382e-05
2.07672e-05
2.33524e-05
2.58364e-05
2.8169e-05
3.03081e-05
3.22213e-05
3.3887e-05
3.5298e-05
3.64682e-05
3.74427e-05
3.83122e-05
3.92277e-05
4.04143e-05
4.21817e-05
4.49341e-05
4.91854e-05
5.55865e-05
6.49685e-05
7.84004e-05
9.72644e-05
0.000123351
0.000158841
0.000207127
0.000272111
0.000359117
0.000475142
0.000629378
0.000833895
0.00110453
0.00146205
0.00193371
0.00255527
0.00337377
0.00443648
0.00581684
0.00768199
0.0101373
0.0133769
0.0192207
0.0358093
0.0525783
0.0692759
0.085704
0.101705
0.117152
0.13194
0.145978
0.159184
0.171481
0.182728
0.192964
0.202017
0.209786
0.216176
0.22113
0.22469
0.227032
0.228441
0.229223
0.229627
0.229826
0.229921
0.229965
0.229984
0.229993
0.229997
0.229999
0.229999
0.23
0.23
0.23
0.23
0.23
0.23
0.23
0.23
4.71861e-10
2.06218e-09
4.73544e-09
9.20967e-09
1.66536e-08
2.89445e-08
4.90501e-08
8.15728e-08
1.33487e-07
2.15426e-07
3.42566e-07
5.36151e-07
8.24756e-07
1.24515e-06
1.83691e-06
2.64459e-06
3.7099e-06
5.06453e-06
6.72319e-06
8.67931e-06
1.09046e-05
1.33525e-05
1.59635e-05
1.86716e-05
2.14091e-05
2.41108e-05
2.67164e-05
2.91731e-05
3.1436e-05
3.34698e-05
3.52505e-05
3.67692e-05
3.8039e-05
3.91063e-05
4.0066e-05
4.10779e-05
4.2381e-05
4.43039e-05
4.72742e-05
5.18315e-05
5.86535e-05
6.85984e-05
8.27646e-05
0.000102519
0.000129596
0.000166498
0.000216341
0.000283175
0.000372337
0.000490842
0.000647905
0.000855617
0.00112983
0.00149136
0.00196748
0.00259407
0.00341835
0.00448686
0.00587461
0.00775122
0.0102218
0.0134858
0.0215995
0.0382697
0.0551105
0.071864
0.0883287
0.104345
0.119783
0.134535
0.148508
0.161616
0.173776
0.184867
0.194881
0.203669
0.211137
0.217208
0.221853
0.225148
0.227293
0.228576
0.229288
0.229657
0.229839
0.229926
0.229967
0.229985
0.229994
0.229997
0.229999
0.23
0.23
0.23
0.23
0.23
0.23
0.23
0.23
0.23
4.82096e-10
2.10671e-09
4.8375e-09
9.40894e-09
1.70183e-08
2.95936e-08
5.0196e-08
8.36098e-08
1.37188e-07
2.21553e-07
3.52223e-07
5.50784e-07
8.45983e-07
1.27408e-06
1.87772e-06
2.70274e-06
3.79254e-06
5.18077e-06
6.88428e-06
8.89842e-06
1.11963e-05
1.37321e-05
1.64462e-05
1.92713e-05
2.2138e-05
2.49788e-05
2.77307e-05
3.03377e-05
3.27519e-05
3.49352e-05
3.68606e-05
3.85173e-05
3.99174e-05
4.11092e-05
4.21929e-05
4.33392e-05
4.48045e-05
4.69416e-05
5.02066e-05
5.51705e-05
6.25421e-05
7.31982e-05
8.81843e-05
0.000108899
0.000137476
0.000176337
0.000228423
0.000297887
0.000390154
0.00051233
0.000673725
0.000886541
0.00116677
0.00153539
0.00201993
0.00265657
0.00349303
0.0045739
0.00597679
0.00787535
0.0103788
0.01369
0.0245799
0.0412769
0.0581449
0.0749146
0.0913764
0.107365
0.122746
0.13741
0.15126
0.164208
0.176171
0.187068
0.196813
0.205306
0.212461
0.218215
0.222562
0.225604
0.227561
0.22872
0.22936
0.229691
0.229855
0.229933
0.22997
0.229987
0.229994
0.229997
0.229999
0.23
0.23
0.23
0.23
0.23
0.23
0.23
0.23
0.23
4.93573e-10
2.15732e-09
4.95547e-09
9.64223e-09
1.74465e-08
3.03443e-08
5.14643e-08
8.56702e-08
1.40363e-07
2.26525e-07
3.59996e-07
5.62827e-07
8.64432e-07
1.30199e-06
1.91942e-06
2.76415e-06
3.88153e-06
5.30744e-06
7.06101e-06
9.13967e-06
1.15182e-05
1.41513e-05
1.69794e-05
1.99343e-05
2.29447e-05
2.59408e-05
2.88567e-05
3.16334e-05
3.42196e-05
3.6574e-05
3.86668e-05
4.04848e-05
4.20396e-05
4.33817e-05
4.46185e-05
4.59338e-05
4.76056e-05
5.00156e-05
5.36552e-05
5.91372e-05
6.71831e-05
7.86291e-05
9.46972e-05
0.000117118
0.000147606
0.000188653
0.000243489
0.000316348
0.000412775
0.000540035
0.000707639
0.000928039
0.00121754
0.00159752
0.002096
0.00274984
0.00360625
0.00470638
0.00613969
0.00808225
0.0106395
0.0140008
0.0277528
0.0444221
0.0612857
0.0780481
0.0944846
0.110421
0.125721
0.140271
0.153975
0.166746
0.178478
0.189141
0.198617
0.206819
0.21367
0.219121
0.22319
0.226002
0.227791
0.228844
0.229421
0.22972
0.229868
0.229939
0.229973
0.229988
0.229995
0.229998
0.229999
0.23
0.23
0.23
0.23
0.23
0.23
0.23
0.23
0.23
5.03535e-10
2.20076e-09
5.05484e-09
9.83454e-09
1.77922e-08
3.09409e-08
5.24676e-08
8.73271e-08
1.43064e-07
2.30887e-07
3.66977e-07
5.73896e-07
8.81792e-07
1.3289e-06
1.96055e-06
2.82605e-06
3.973e-06
5.43983e-06
7.24822e-06
9.39786e-06
1.18651e-05
1.46054e-05
1.7559e-05
2.06567e-05
2.38254e-05
2.69926e-05
3.00897e-05
3.30542e-05
3.58318e-05
3.83774e-05
4.06583e-05
4.26591e-05
4.4391e-05
4.59073e-05
4.73242e-05
4.88415e-05
5.07615e-05
5.34984e-05
5.75739e-05
6.36e-05
7.23363e-05
8.48348e-05
0.000102487
0.000126656
0.000159336
0.000203112
0.000261352
0.000338456
0.000440187
0.000574083
0.000750012
0.00098088
0.00128357
0.00168016
0.00219955
0.00287962
0.00376852
0.00490686
0.00639029
0.00838739
0.011001
0.0143855
0.0304979
0.0472461
0.064178
0.0809757
0.0974079
0.1133
0.128518
0.142951
0.156506
0.1691
0.180606
0.191041
0.200262
0.208188
0.214755
0.219928
0.223747
0.226355
0.227997
0.228955
0.229478
0.229748
0.229881
0.229945
0.229975
0.229989
0.229995
0.229998
0.229999
0.23
0.23
0.23
0.23
0.23
0.23
0.23
0.23
0.23
5.12572e-10
2.24016e-09
5.14504e-09
1.00095e-08
1.81083e-08
3.14913e-08
5.34047e-08
8.88991e-08
1.45671e-07
2.35166e-07
3.73932e-07
5.85075e-07
8.99553e-07
1.35674e-06
2.00354e-06
2.89128e-06
4.07005e-06
5.58103e-06
7.4487e-06
9.67518e-06
1.22386e-05
1.50953e-05
1.81855e-05
2.14387e-05
2.47801e-05
2.81345e-05
3.14304e-05
3.46019e-05
3.75908e-05
4.03488e-05
4.28398e-05
4.50459e-05
4.69783e-05
4.86942e-05
5.03204e-05
5.20755e-05
5.42893e-05
5.73861e-05
6.18818e-05
6.84753e-05
7.8207e-05
9.21137e-05
0.000111318
0.000137452
0.000172608
0.000219494
0.000281646
0.000363686
0.000471672
0.000613541
0.000799695
0.00104376
0.0013636
0.00178261
0.00233141
0.00305014
0.003991
0.0051851
0.00679493
0.0089006
0.0116489
0.0151602
0.0321756
0.0494282
0.0666352
0.0835673
0.100041
0.11591
0.131055
0.145377
0.158791
0.17122
0.18254
0.192772
0.20175
0.209413
0.215711
0.220631
0.224226
0.226657
0.228172
0.229049
0.229526
0.229771
0.229892
0.22995
0.229977
0.22999
0.229996
0.229998
0.229999
0.23
0.23
0.23
0.23
0.23
0.23
0.23
0.23
0.23
5.21136e-10
2.27754e-09
5.23081e-09
1.01765e-08
1.84111e-08
3.20211e-08
5.43124e-08
9.04324e-08
1.48233e-07
2.39406e-07
3.8088e-07
5.96345e-07
9.1762e-07
1.38532e-06
2.04804e-06
2.95935e-06
4.17202e-06
5.73024e-06
7.66154e-06
9.9707e-06
1.26378e-05
1.56203e-05
1.88583e-05
2.22803e-05
2.58097e-05
2.93687e-05
3.28825e-05
3.62817e-05
3.95044e-05
4.24981e-05
4.52235e-05
4.76602e-05
4.98194e-05
5.17636e-05
5.36325e-05
5.56653e-05
5.81894e-05
6.16436e-05
6.67041e-05
7.42763e-05
8.5104e-05
0.000100277
0.00012113
0.000149361
0.000187153
0.000237345
0.000303645
0.000390914
0.000505533
0.000655882
0.000852982
0.00111134
0.0014501
0.00189452
0.0024781
0.00324537
0.00425405
0.00554805
0.00731271
0.0096522
0.0127717
0.0168807
0.0341904
0.0516521
0.0689861
0.0859753
0.102449
0.118271
0.13333
0.147533
0.160799
0.173055
0.184184
0.194188
0.202965
0.210434
0.216523
0.221229
0.224634
0.226913
0.22832
0.229129
0.229567
0.229791
0.229901
0.229954
0.229979
0.229991
0.229996
0.229998
0.229999
0.23
0.23
0.23
0.23
0.23
0.23
0.23
0.23
0.23
5.29494e-10
2.31406e-09
5.31474e-09
1.03402e-08
1.87093e-08
3.2545e-08
5.52141e-08
9.19636e-08
1.50806e-07
2.4369e-07
3.87945e-07
6.07876e-07
9.36218e-07
1.4149e-06
2.09435e-06
3.0305e-06
4.27902e-06
5.88737e-06
7.88635e-06
1.02837e-05
1.30618e-05
1.61793e-05
1.95764e-05
2.31811e-05
2.69146e-05
3.06968e-05
3.44497e-05
3.81e-05
4.15818e-05
4.48385e-05
4.78265e-05
5.05228e-05
5.29388e-05
5.51431e-05
5.72792e-05
5.95725e-05
6.2404e-05
6.63691e-05
7.22521e-05
8.06977e-05
9.26436e-05
0.000109221
0.000131829
0.000162234
0.000202712
0.000256214
0.000326597
0.000418916
0.000539801
0.000697959
0.000904842
0.00117553
0.0015299
0.00199423
0.00260335
0.00340354
0.0044482
0.00579485
0.00763236
0.0100665
0.0133094
0.0187902
0.036261
0.0538235
0.0712079
0.0882042
0.104647
0.120404
0.135368
0.149447
0.16256
0.174626
0.185541
0.195343
0.203926
0.211221
0.217182
0.221734
0.22498
0.22713
0.228446
0.229197
0.229602
0.229808
0.22991
0.229958
0.229981
0.229992
0.229996
0.229998
0.229999
0.23
0.23
0.23
0.23
0.23
0.23
0.23
0.23
0.23
5.3773e-10
2.35006e-09
5.3976e-09
1.05022e-08
1.90048e-08
3.30655e-08
5.6113e-08
9.34956e-08
1.53391e-07
2.48012e-07
3.95106e-07
6.19618e-07
9.55243e-07
1.4453e-06
2.14215e-06
3.10423e-06
4.39031e-06
6.05134e-06
8.12169e-06
1.06124e-05
1.35083e-05
1.67698e-05
2.03376e-05
2.4139e-05
2.80938e-05
3.21194e-05
3.61347e-05
4.00628e-05
4.38333e-05
4.73851e-05
5.06703e-05
5.36622e-05
5.6371e-05
5.88534e-05
6.12304e-05
6.3796e-05
6.71443e-05
7.18466e-05
7.84776e-05
8.78731e-05
0.000101013
0.000119071
0.000143494
0.00017611
0.000219264
0.000275999
0.000350281
0.000447296
0.000573827
0.000738765
0.000953764
0.00123412
0.00159992
0.00207762
0.00270205
0.00351922
0.00458038
0.00593992
0.00778539
0.0102126
0.0134119
0.0208324
0.0383268
0.0558957
0.0732671
0.0902299
0.106618
0.1223
0.137169
0.151136
0.164115
0.176036
0.186889
0.196558
0.204969
0.212057
0.217773
0.222169
0.225279
0.227316
0.228553
0.229255
0.229631
0.229822
0.229916
0.229961
0.229982
0.229992
0.229997
0.229998
0.229999
0.23
0.23
0.23
0.23
0.23
0.23
0.23
0.23
0.23
5.45843e-10
2.38554e-09
5.47931e-09
1.06621e-08
1.92971e-08
3.35817e-08
5.70068e-08
9.50234e-08
1.55977e-07
2.52353e-07
4.02322e-07
6.31495e-07
9.74559e-07
1.47628e-06
2.19102e-06
3.17987e-06
4.50485e-06
6.22064e-06
8.36548e-06
1.0954e-05
1.3974e-05
1.7388e-05
2.11374e-05
2.51496e-05
2.93433e-05
3.36338e-05
3.79371e-05
4.21728e-05
4.62665e-05
5.01528e-05
5.37796e-05
5.71182e-05
6.01612e-05
6.29359e-05
6.56698e-05
6.88401e-05
7.27768e-05
7.80985e-05
8.55409e-05
9.59667e-05
0.000110385
0.000130005
0.000156313
0.000191188
0.000237034
0.000296966
0.000375033
0.000476511
0.000608284
0.000779345
0.00100144
0.00128995
0.00166499
0.00215295
0.00278848
0.00361715
0.00468793
0.00605568
0.00790774
0.0103344
0.0135248
0.0227483
0.0402404
0.0577905
0.0751267
0.0920367
0.108353
0.123948
0.13872
0.152581
0.16546
0.177314
0.188043
0.197576
0.205839
0.21277
0.218332
0.222541
0.225533
0.227474
0.228644
0.229304
0.229656
0.229835
0.229922
0.229964
0.229984
0.229993
0.229997
0.229999
0.229999
0.23
0.23
0.23
0.23
0.23
0.23
0.23
0.23
0.23
5.53764e-10
2.4202e-09
5.55919e-09
1.08186e-08
1.95836e-08
3.40885e-08
5.78861e-08
9.65305e-08
1.58536e-07
2.56658e-07
4.09504e-07
6.43352e-07
9.93906e-07
1.50741e-06
2.24029e-06
3.25637e-06
4.6211e-06
6.39306e-06
8.61466e-06
1.13045e-05
1.44538e-05
1.80275e-05
2.19687e-05
2.62052e-05
3.0655e-05
3.5232e-05
3.98499e-05
4.44251e-05
4.88792e-05
5.31426e-05
5.71588e-05
6.08806e-05
6.42632e-05
6.74497e-05
7.07871e-05
7.44966e-05
7.90713e-05
8.51639e-05
9.35515e-05
0.000105131
0.000120945
0.000142235
0.000170528
0.00020775
0.00025636
0.000319537
0.0004014
0.000507301
0.000644204
0.000821177
0.00105004
0.0013462
0.00172979
0.00222716
0.00287268
0.00371107
0.004791
0.00616849
0.00802771
0.0104576
0.0136449
0.0244388
0.0419281
0.0594554
0.0767471
0.0935911
0.109832
0.125356
0.140058
0.153854
0.166672
0.17842
0.189036
0.198445
0.206577
0.213374
0.218801
0.222885
0.225742
0.227607
0.22872
0.229345
0.229677
0.229845
0.229927
0.229966
0.229985
0.229993
0.229997
0.229999
0.229999
0.23
0.23
0.23
0.23
0.23
0.23
0.23
0.23
0.23
5.61385e-10
2.45354e-09
5.63609e-09
1.09695e-08
1.98601e-08
3.45784e-08
5.87378e-08
9.79934e-08
1.61025e-07
2.60859e-07
4.1653e-07
6.54987e-07
1.01295e-06
1.53814e-06
2.28909e-06
3.33242e-06
4.73706e-06
6.5657e-06
8.86514e-06
1.16583e-05
1.49404e-05
1.86793e-05
2.28205e-05
2.72927e-05
3.20145e-05
3.6899e-05
4.18582e-05
4.6806e-05
5.16612e-05
5.63499e-05
6.08054e-05
6.49401e-05
6.88025e-05
7.26257e-05
7.65275e-05
8.08837e-05
8.6216e-05
9.32118e-05
0.000102681
0.00011555
0.00013289
0.000155977
0.00018638
0.00022607
0.000277563
0.000344097
0.000429859
0.000540272
0.000682373
0.000865297
0.00110092
0.0014047
0.00179675
0.00230316
0.0029581
0.00380708
0.00489742
0.00628394
0.008151
0.0105849
0.0137657
0.0258865
0.0433829
0.0608943
0.0781495
0.0949639
0.111179
0.126657
0.141295
0.155011
0.167727
0.179373
0.189884
0.199183
0.207201
0.21388
0.219191
0.223166
0.225933
0.227713
0.228782
0.229378
0.229694
0.229853
0.229931
0.229968
0.229986
0.229994
0.229997
0.229999
0.229999
0.23
0.23
0.23
0.23
0.23
0.23
0.23
0.23
0.23
5.68565e-10
2.48497e-09
5.7086e-09
1.11118e-08
2.01212e-08
3.50419e-08
5.95451e-08
9.93828e-08
1.63395e-07
2.64868e-07
4.23253e-07
6.66151e-07
1.03127e-06
1.56781e-06
2.33636e-06
3.40633e-06
4.85019e-06
6.73482e-06
9.11161e-06
1.20082e-05
1.54239e-05
1.93306e-05
2.36767e-05
2.8393e-05
3.33992e-05
3.86089e-05
4.39337e-05
4.92865e-05
5.4584e-05
5.97507e-05
6.46949e-05
6.93929e-05
7.39046e-05
7.83316e-05
8.29209e-05
8.80662e-05
9.43072e-05
0.000102361
0.000113063
0.000127367
0.000146375
0.000171399
0.000204049
0.000246346
0.000300861
0.000370894
0.000460698
0.000575765
0.000723197
0.000912194
0.00115469
0.00146606
0.00186613
0.00238129
0.00304654
0.00390672
0.00500638
0.00640202
0.00827729
0.0107162
0.0138844
0.0271099
0.0446234
0.0621271
0.079376
0.0961613
0.112327
0.127749
0.142325
0.15597
0.168609
0.180172
0.190595
0.199801
0.207721
0.214301
0.219514
0.223397
0.226086
0.227808
0.228832
0.229405
0.229708
0.22986
0.229934
0.22997
0.229986
0.229994
0.229997
0.229999
0.229999
0.23
0.23
0.23
0.23
0.23
0.23
0.23
0.23
0.23
5.75145e-10
2.51377e-09
5.77509e-09
1.12424e-08
2.03612e-08
3.54683e-08
6.0289e-08
1.00665e-07
1.65587e-07
2.68585e-07
4.29503e-07
6.76557e-07
1.0484e-06
1.59564e-06
2.38084e-06
3.47613e-06
4.95747e-06
6.89588e-06
9.34744e-06
1.23446e-05
1.58916e-05
1.99644e-05
2.45153e-05
2.94781e-05
3.4775e-05
4.03212e-05
4.60294e-05
5.18126e-05
5.75875e-05
6.3269e-05
6.87666e-05
7.40851e-05
7.93243e-05
8.45209e-05
8.99647e-05
9.60711e-05
0.000103392
0.000112668
0.00012476
0.000140647
0.000161463
0.000188558
0.000223588
0.000268627
0.000326302
0.000399976
0.000493962
0.00061382
0.000766699
0.000961789
0.00121087
0.00152948
0.00193793
0.00246273
0.00313739
0.00400641
0.00511361
0.00651586
0.00839613
0.0108373
0.0139971
0.0281278
0.0456638
0.0631708
0.0803995
0.0971536
0.113279
0.128653
0.143176
0.156762
0.169336
0.180831
0.191181
0.200311
0.20815
0.214647
0.219777
0.223585
0.22621
0.227884
0.228876
0.229427
0.229718
0.229865
0.229937
0.229971
0.229987
0.229994
0.229997
0.229999
0.23
0.23
0.23
0.23
0.23
0.23
0.23
0.23
0.23
0.23
5.80959e-10
2.53922e-09
5.83386e-09
1.1358e-08
2.05736e-08
3.58463e-08
6.09494e-08
1.01806e-07
1.67541e-07
2.71905e-07
4.35097e-07
6.85896e-07
1.06382e-06
1.62075e-06
2.42113e-06
3.5396e-06
5.0554e-06
7.04357e-06
9.56476e-06
1.26563e-05
1.63274e-05
2.05589e-05
2.53073e-05
3.05107e-05
3.60945e-05
4.19771e-05
4.8073e-05
5.42958e-05
6.05601e-05
6.677e-05
7.29345e-05
7.90408e-05
8.50535e-05
9.11301e-05
9.75822e-05
0.000104822
0.000113393
0.000124051
0.000137677
0.000155277
0.00017802
0.000207299
0.00024482
0.000292709
0.000353659
0.000431086
0.000529346
0.000654005
0.000812162
0.00101313
0.00126895
0.00159535
0.0020123
0.00254525
0.00322774
0.00410337
0.0052145
0.00661569
0.00848621
0.0109015
0.013998
0.0289597
0.0465105
0.0640185
0.0812327
0.0979613
0.114053
0.129388
0.143866
0.157403
0.169925
0.181363
0.191655
0.200722
0.208495
0.214925
0.219989
0.223735
0.226308
0.227944
0.22891
0.229445
0.229727
0.229869
0.229939
0.229972
0.229987
0.229994
0.229997
0.229999
0.23
0.23
0.23
0.23
0.23
0.23
0.23
0.23
0.23
0.23
5.8584e-10
2.5606e-09
5.88325e-09
1.14551e-08
2.07524e-08
3.61647e-08
6.15064e-08
1.0277e-07
1.69194e-07
2.7472e-07
4.39851e-07
6.93851e-07
1.07699e-06
1.64227e-06
2.45576e-06
3.59434e-06
5.1402e-06
7.17203e-06
9.75472e-06
1.29303e-05
1.67128e-05
2.10882e-05
2.60179e-05
3.14452e-05
3.73009e-05
4.35089e-05
4.99905e-05
5.66674e-05
6.34643e-05
7.03043e-05
7.71497e-05
8.39781e-05
9.08367e-05
9.79061e-05
0.000105516
0.000114046
0.000124009
0.000136171
0.000151433
0.000170831
0.00019557
0.000227091
0.000267149
0.000317922
0.000382141
0.000463261
0.000565689
0.000695101
0.000858818
0.00106631
0.00132957
0.00166371
0.00208861
0.00262987
0.00332065
0.00420399
0.00532103
0.0067259
0.00859677
0.0110076
0.0140882
0.0296011
0.0471795
0.0646899
0.0818927
0.0986005
0.114665
0.129967
0.144408
0.157906
0.170386
0.181781
0.192026
0.201043
0.208765
0.215141
0.220153
0.223851
0.226384
0.22799
0.228936
0.22946
0.229735
0.229873
0.22994
0.229973
0.229988
0.229994
0.229998
0.229999
0.23
0.23
0.23
0.23
0.23
0.23
0.23
0.23
0.23
0.23
5.8964e-10
2.57724e-09
5.9217e-09
1.15308e-08
2.08917e-08
3.64131e-08
6.19416e-08
1.03524e-07
1.70489e-07
2.76929e-07
4.43589e-07
7.00119e-07
1.08739e-06
1.65931e-06
2.48326e-06
3.63796e-06
5.20802e-06
7.27517e-06
9.9079e-06
1.31523e-05
1.70268e-05
2.15218e-05
2.66037e-05
3.22207e-05
3.8309e-05
4.47984e-05
5.16162e-05
5.86903e-05
6.59522e-05
7.33613e-05
8.08595e-05
8.84455e-05
9.61978e-05
0.000104336
0.000113204
0.000123124
0.000134552
0.000148256
0.000165154
0.000186312
0.00021298
0.000246647
0.000289118
0.000342622
0.000409967
0.000494701
0.000601433
0.000735884
0.000905396
0.00111915
0.00138914
0.00173071
0.00216358
0.00271316
0.00341226
0.00430337
0.00542635
0.0068346
0.00870452
0.0111068
0.0141627
0.0300717
0.0476773
0.0651942
0.08239
0.0990819
0.115125
0.130401
0.144814
0.158282
0.17073
0.18209
0.1923
0.20128
0.208963
0.2153
0.220273
0.223936
0.22644
0.228024
0.228955
0.22947
0.22974
0.229876
0.229942
0.229973
0.229988
0.229995
0.229998
0.229999
0.23
0.23
0.23
0.23
0.23
0.23
0.23
0.23
0.23
0.23
5.92233e-10
2.58859e-09
5.94794e-09
1.15824e-08
2.09868e-08
3.65827e-08
6.22386e-08
1.04038e-07
1.71374e-07
2.78439e-07
4.46148e-07
7.04417e-07
1.09453e-06
1.67104e-06
2.50223e-06
3.66813e-06
5.25506e-06
7.34695e-06
1.00149e-05
1.3308e-05
1.7248e-05
2.18289e-05
2.70209e-05
3.27764e-05
3.90363e-05
4.57357e-05
5.28085e-05
6.01906e-05
6.78249e-05
7.56772e-05
8.37092e-05
9.19357e-05
0.000100469
0.000109568
0.000119566
0.000130831
0.000143654
0.000158777
0.000177143
0.00019986
0.000228226
0.000263787
0.00030842
0.000364443
0.000434732
0.000522915
0.000633485
0.000772244
0.000946551
0.00116577
0.00144188
0.0017902
0.00223035
0.00278755
0.00349427
0.00439238
0.00552054
0.00693099
0.00879795
0.0111884
0.0142156
0.0303822
0.0480148
0.0655397
0.0827314
0.0994116
0.115438
0.130696
0.145088
0.158534
0.170959
0.182296
0.192482
0.201436
0.209094
0.215404
0.220351
0.223991
0.226476
0.228045
0.228967
0.229476
0.229744
0.229877
0.229942
0.229973
0.229988
0.229995
0.229998
0.229999
0.23
0.23
0.23
0.23
0.23
0.23
0.23
0.23
0.23
0.23
5.93529e-10
2.59426e-09
5.96101e-09
1.1608e-08
2.10339e-08
3.66664e-08
6.23849e-08
1.04291e-07
1.71808e-07
2.79178e-07
4.47398e-07
7.06515e-07
1.09802e-06
1.67676e-06
2.5115e-06
3.6829e-06
5.27816e-06
7.38233e-06
1.00679e-05
1.33855e-05
1.73586e-05
2.19833e-05
2.7232e-05
3.30596e-05
3.94099e-05
4.62216e-05
5.34327e-05
6.09845e-05
6.88258e-05
7.69174e-05
8.52423e-05
9.38327e-05
0.000102818
0.000112461
0.000123157
0.000135339
0.000149382
0.000165599
0.000185019
0.000208814
0.000238336
0.000275178
0.000321256
0.000378921
0.000451086
0.000541402
0.000654468
0.000796109
0.000973724
0.00119673
0.00147711
0.0018302
0.00227559
0.00283838
0.00355078
0.00445426
0.00558651
0.00699874
0.00886305
0.0112426
0.0142434
0.0305356
0.0481917
0.0657234
0.0829126
0.0995853
0.115602
0.130847
0.145228
0.158661
0.171074
0.182398
0.192571
0.201513
0.209157
0.215454
0.220389
0.224017
0.226492
0.228055
0.228973
0.229479
0.229745
0.229878
0.229943
0.229974
0.229988
0.229995
0.229998
0.229999
0.23
0.23
0.23
0.23
0.23
0.23
0.23
0.23
0.23
0.23
5.93532e-10
2.59428e-09
5.96103e-09
1.16081e-08
2.1034e-08
3.66666e-08
6.23852e-08
1.04292e-07
1.71809e-07
2.7918e-07
4.47401e-07
7.0652e-07
1.09803e-06
1.67678e-06
2.51152e-06
3.68294e-06
5.27822e-06
7.3824e-06
1.0068e-05
1.33856e-05
1.73589e-05
2.19837e-05
2.72325e-05
3.30603e-05
3.94108e-05
4.62227e-05
5.3434e-05
6.0986e-05
6.88271e-05
7.69184e-05
8.52427e-05
9.38327e-05
0.000102818
0.00011246
0.000123157
0.000135339
0.000149382
0.000165598
0.000185018
0.000208813
0.000238336
0.000275178
0.000321257
0.000378921
0.000451087
0.000541404
0.00065447
0.000796111
0.000973727
0.00119673
0.00147712
0.00183021
0.0022756
0.00283838
0.00355079
0.00445427
0.00558652
0.00699875
0.00886306
0.0112426
0.0142434
0.0305357
0.0481918
0.0657235
0.0829127
0.0995853
0.115602
0.130847
0.145228
0.158661
0.171074
0.182398
0.192571
0.201513
0.209157
0.215454
0.220389
0.224017
0.226492
0.228055
0.228973
0.229479
0.229745
0.229878
0.229943
0.229974
0.229988
0.229995
0.229998
0.229999
0.23
0.23
0.23
0.23
0.23
0.23
0.23
0.23
0.23
0.23
5.92239e-10
2.58862e-09
5.948e-09
1.15825e-08
2.09871e-08
3.65831e-08
6.22394e-08
1.0404e-07
1.71377e-07
2.78444e-07
4.46156e-07
7.0443e-07
1.09455e-06
1.67107e-06
2.50229e-06
3.66822e-06
5.2552e-06
7.34715e-06
1.00152e-05
1.33084e-05
1.72486e-05
2.18297e-05
2.7022e-05
3.27779e-05
3.90384e-05
4.57386e-05
5.28123e-05
6.01953e-05
6.78298e-05
7.56821e-05
8.37096e-05
9.19347e-05
0.000100468
0.000109566
0.000119564
0.000130829
0.000143652
0.000158775
0.000177141
0.000199858
0.000228224
0.000263786
0.000308421
0.000364444
0.000434735
0.000522918
0.00063349
0.000772249
0.000946558
0.00116578
0.00144189
0.00179021
0.00223036
0.00278757
0.00349429
0.0043924
0.00552056
0.00693102
0.00879799
0.0111885
0.0142157
0.0303825
0.0480151
0.06554
0.0827316
0.0994119
0.115438
0.130696
0.145088
0.158534
0.170959
0.182296
0.192482
0.201436
0.209094
0.215404
0.220351
0.223991
0.226476
0.228045
0.228967
0.229476
0.229744
0.229877
0.229942
0.229973
0.229988
0.229995
0.229998
0.229999
0.23
0.23
0.23
0.23
0.23
0.23
0.23
0.23
0.23
0.23
5.89648e-10
2.57728e-09
5.92178e-09
1.15309e-08
2.0892e-08
3.64136e-08
6.19424e-08
1.03525e-07
1.70492e-07
2.76932e-07
4.43595e-07
7.0013e-07
1.08741e-06
1.65934e-06
2.4833e-06
3.63802e-06
5.20811e-06
7.27529e-06
9.90807e-06
1.31525e-05
1.70271e-05
2.15222e-05
2.66043e-05
3.22215e-05
3.83102e-05
4.48002e-05
5.16191e-05
5.86955e-05
6.59617e-05
7.33683e-05
8.08671e-05
8.84519e-05
9.62031e-05
0.000104341
0.000113209
0.000123128
0.000134556
0.000148261
0.000165158
0.000186316
0.000212984
0.00024665
0.00028912
0.000342625
0.00040997
0.000494706
0.000601439
0.000735892
0.000905406
0.00111917
0.00138916
0.00173073
0.0021636
0.00271318
0.00341229
0.00430341
0.00542639
0.00683465
0.00870457
0.0111069
0.0141628
0.0300722
0.0476778
0.0651947
0.0823904
0.0990823
0.115125
0.130401
0.144814
0.158282
0.17073
0.18209
0.1923
0.20128
0.208963
0.2153
0.220273
0.223936
0.22644
0.228024
0.228955
0.22947
0.22974
0.229876
0.229942
0.229973
0.229988
0.229995
0.229998
0.229999
0.23
0.23
0.23
0.23
0.23
0.23
0.23
0.23
0.23
0.23
5.8585e-10
2.56064e-09
5.88335e-09
1.14553e-08
2.07527e-08
3.61653e-08
6.15075e-08
1.02772e-07
1.69197e-07
2.74725e-07
4.39859e-07
6.93864e-07
1.07701e-06
1.6423e-06
2.4558e-06
3.59441e-06
5.1403e-06
7.17216e-06
9.75489e-06
1.29305e-05
1.67131e-05
2.10885e-05
2.60182e-05
3.14454e-05
3.73008e-05
4.35085e-05
4.99893e-05
5.66648e-05
6.346e-05
7.0302e-05
7.7149e-05
8.39784e-05
9.08378e-05
9.79079e-05
0.000105518
0.000114049
0.000124013
0.000136176
0.000151439
0.000170837
0.000195577
0.000227098
0.000267156
0.000317929
0.000382148
0.000463268
0.000565695
0.000695109
0.00085883
0.00106633
0.00132959
0.00166373
0.00208864
0.0026299
0.00332068
0.00420404
0.00532109
0.00672596
0.00859684
0.0110077
0.0140883
0.0296019
0.0471802
0.0646906
0.0818933
0.0986011
0.114665
0.129967
0.144409
0.157907
0.170387
0.181781
0.192026
0.201043
0.208765
0.215141
0.220153
0.223851
0.226384
0.22799
0.228936
0.22946
0.229735
0.229873
0.22994
0.229973
0.229988
0.229994
0.229998
0.229999
0.23
0.23
0.23
0.23
0.23
0.23
0.23
0.23
0.23
0.23
5.8097e-10
2.53928e-09
5.83398e-09
1.13582e-08
2.05741e-08
3.5847e-08
6.09507e-08
1.01808e-07
1.67545e-07
2.71911e-07
4.35106e-07
6.8591e-07
1.06384e-06
1.62079e-06
2.42118e-06
3.53967e-06
5.05548e-06
7.04367e-06
9.56488e-06
1.26565e-05
1.63275e-05
2.05589e-05
2.53072e-05
3.05102e-05
3.60936e-05
4.19756e-05
4.80705e-05
5.42922e-05
6.05551e-05
6.67649e-05
7.29315e-05
7.90379e-05
8.50509e-05
9.11281e-05
9.75813e-05
0.000104822
0.000113394
0.000124053
0.00013768
0.000155281
0.000178025
0.000207305
0.000244826
0.000292717
0.000353669
0.000431097
0.000529358
0.000654018
0.000812176
0.00101314
0.00126897
0.00159538
0.00201234
0.00254529
0.00322779
0.00410342
0.00521456
0.00661577
0.0084863
0.0109016
0.0139981
0.0289607
0.0465115
0.0640194
0.0812334
0.097962
0.114054
0.129388
0.143866
0.157403
0.169925
0.181364
0.191655
0.200722
0.208495
0.214925
0.219989
0.223735
0.226308
0.227944
0.22891
0.229445
0.229727
0.229869
0.229939
0.229972
0.229987
0.229994
0.229997
0.229999
0.23
0.23
0.23
0.23
0.23
0.23
0.23
0.23
0.23
0.23
5.75159e-10
2.51383e-09
5.77523e-09
1.12427e-08
2.03617e-08
3.54691e-08
6.02905e-08
1.00668e-07
1.65591e-07
2.68592e-07
4.29513e-07
6.76572e-07
1.04843e-06
1.59567e-06
2.38088e-06
3.47619e-06
4.95754e-06
6.89595e-06
9.3475e-06
1.23446e-05
1.58915e-05
1.99643e-05
2.45149e-05
2.94773e-05
3.47737e-05
4.03191e-05
4.60261e-05
5.18078e-05
5.75806e-05
6.32621e-05
6.87581e-05
7.40766e-05
7.9319e-05
8.45182e-05
8.99637e-05
9.60713e-05
0.000103393
0.00011267
0.000124762
0.00014065
0.000161467
0.000188563
0.000223594
0.000268634
0.000326311
0.000399986
0.000493975
0.000613836
0.000766717
0.00096181
0.0012109
0.00152951
0.00193796
0.00246277
0.00313745
0.00400647
0.00511368
0.00651594
0.00839623
0.0108374
0.0139973
0.028129
0.045665
0.0631719
0.0804005
0.0971545
0.11328
0.128654
0.143176
0.156762
0.169337
0.180831
0.191182
0.200311
0.20815
0.214647
0.219777
0.223585
0.22621
0.227884
0.228876
0.229427
0.229718
0.229865
0.229937
0.229971
0.229987
0.229994
0.229997
0.229999
0.23
0.23
0.23
0.23
0.23
0.23
0.23
0.23
0.23
0.23
5.68581e-10
2.48504e-09
5.70875e-09
1.11121e-08
2.01218e-08
3.50428e-08
5.95467e-08
9.93855e-08
1.63399e-07
2.64875e-07
4.23264e-07
6.66167e-07
1.0313e-06
1.56785e-06
2.33641e-06
3.40639e-06
4.85026e-06
6.73489e-06
9.11167e-06
1.20082e-05
1.54239e-05
1.93306e-05
2.36766e-05
2.83928e-05
3.3399e-05
3.86087e-05
4.39339e-05
4.92874e-05
5.45865e-05
5.97563e-05
6.47056e-05
6.94041e-05
7.39145e-05
7.83388e-05
8.29258e-05
8.80696e-05
9.43098e-05
0.000102363
0.000113065
0.00012737
0.000146379
0.000171404
0.000204054
0.000246352
0.000300868
0.000370904
0.00046071
0.000575779
0.000723214
0.000912215
0.00115471
0.00146609
0.00186617
0.00238133
0.0030466
0.00390679
0.00500646
0.00640212
0.0082774
0.0107163
0.0138846
0.0271114
0.0446248
0.0621284
0.0793773
0.0961624
0.112328
0.12775
0.142326
0.155971
0.16861
0.180172
0.190595
0.199801
0.207721
0.214301
0.219514
0.223397
0.226086
0.227808
0.228832
0.229405
0.229708
0.22986
0.229934
0.22997
0.229986
0.229994
0.229997
0.229999
0.229999
0.23
0.23
0.23
0.23
0.23
0.23
0.23
0.23
0.23
5.61403e-10
2.45362e-09
5.63627e-09
1.09698e-08
1.98607e-08
3.45795e-08
5.87397e-08
9.79964e-08
1.6103e-07
2.60867e-07
4.16542e-07
6.55005e-07
1.01297e-06
1.53818e-06
2.28914e-06
3.33248e-06
4.73713e-06
6.56578e-06
8.86522e-06
1.16584e-05
1.49404e-05
1.86794e-05
2.28207e-05
2.72931e-05
3.20152e-05
3.69002e-05
4.186e-05
4.68086e-05
5.16641e-05
5.63518e-05
6.0806e-05
6.49424e-05
6.88031e-05
7.26258e-05
7.65275e-05
8.08839e-05
8.62166e-05
9.32128e-05
0.000102682
0.000115552
0.000132892
0.000155981
0.000186385
0.000226076
0.00027757
0.000344106
0.00042987
0.000540286
0.00068239
0.000865319
0.00110095
0.00140473
0.0017968
0.00230321
0.00295816
0.00380715
0.00489751
0.00628404
0.00815111
0.010585
0.0137658
0.0258882
0.0433846
0.060896
0.078151
0.0949651
0.11118
0.126658
0.141296
0.155012
0.167728
0.179374
0.189885
0.199184
0.207201
0.21388
0.219192
0.223167
0.225933
0.227713
0.228782
0.229378
0.229694
0.229853
0.229931
0.229968
0.229986
0.229994
0.229997
0.229999
0.229999
0.23
0.23
0.23
0.23
0.23
0.23
0.23
0.23
0.23
5.53784e-10
2.42028e-09
5.55939e-09
1.0819e-08
1.95843e-08
3.40897e-08
5.78882e-08
9.65339e-08
1.58541e-07
2.56667e-07
4.09517e-07
6.43372e-07
9.93934e-07
1.50745e-06
2.24034e-06
3.25644e-06
4.62118e-06
6.39314e-06
8.61473e-06
1.13045e-05
1.44538e-05
1.80275e-05
2.19687e-05
2.62051e-05
3.06549e-05
3.5232e-05
3.985e-05
4.44253e-05
4.88796e-05
5.31432e-05
5.71598e-05
6.08827e-05
6.42669e-05
6.74537e-05
7.0791e-05
7.45e-05
7.90742e-05
8.51664e-05
9.3554e-05
0.000105134
0.000120948
0.000142238
0.000170533
0.000207755
0.000256367