/*--------------------------------*- C++ -*----------------------------------*\
  =========                 |
  \\      /  F ield         | OpenFOAM: The Open Source CFD Toolbox
   \\    /   O peration     | Website:  https://openfoam.org
    \\  /    A nd           | Version:  8
     \\/     M anipulation  |
\*---------------------------------------------------------------------------*/
FoamFile
{
    version     2.0;
    format      ascii;
    class       volScalarField;
    location    "620/fluid";
    object      Qdot;
}
// * * * * * * * * * * * * * * * * * * * * * * * * * * * * * * * * * * * * * //

dimensions      [1 -1 -3 0 0 0 0];

internalField   nonuniform List<scalar> 
4000
(
4.88117e-18
0
0
1.28388e-20
-1.85745e-16
2.9358e-11
-7.93755e-16
0
-3.56205e-07
3.64453e-07
-5.01158e-19
1.01914e-18
-3.82973e-07
0
-8.47274e-18
-3.4271e-17
-2.59953e-16
-2.84924e-15
1.88707e-08
4.94217e-07
3.86208e-06
5.09665e-05
0.000607316
0.00601557
0.0486701
0.321014
1.74106
7.87597
30.2035
99.7893
288.26
737.277
1688.04
3495.54
6604.56
11508
18736.5
28887.3
42760.7
61526.3
86855.1
120974
166787
228140
310149
419713
565661
760505
1.02013e+06
1.36542e+06
1.82377e+06
2.43115e+06
3.23477e+06
4.29673e+06
5.69883e+06
7.54925e+06
9.99168e+06
1.31763e+07
1.73367e+07
2.29937e+07
3.0519e+07
5.13706e+07
3.96417e+08
2.97312e+07
2.14055e+07
1.52257e+07
1.0679e+07
7.3714e+06
4.99759e+06
3.32187e+06
2.16339e+06
1.38508e+06
885784
570061
153171
11560
318.473
4.49233
0.0424467
0.000431458
8.08308e-06
3.81757e-07
4.33664e-08
8.70305e-09
2.86576e-09
1.09965e-09
3.97013e-10
2.00143e-10
8.48735e-11
3.30962e-11
1.44452e-11
6.26864e-12
2.46055e-12
1.06105e-12
4.1795e-13
-5.56715e-12
5.64508e-12
2.8279e-14
9.6032e-15
1.47586e-15
-3.72241e-13
-3.12499e-12
6.1391e-21
0
0
-1.60288e-11
5.98298e-11
1.15404e-19
-3.49658e-07
-1.41053e-10
0
0
0
-3.78106e-07
-8.20285e-18
-3.31521e-17
2.45659e-09
-2.78924e-15
2.73862e-08
4.6009e-07
3.57601e-06
4.6983e-05
0.000558529
0.00556845
0.0455041
0.303748
1.6685
7.6436
29.667
99.1165
289.245
746.583
1722.28
3586.18
6806.01
11890.6
19377.8
29858.4
44114.3
63288
89021.8
123510
169653
231306
313587
422947
569477
764919
1.02527e+06
1.37156e+06
1.83137e+06
2.441e+06
3.24821e+06
4.31593e+06
5.72737e+06
7.59282e+06
1.00593e+07
1.32809e+07
1.74985e+07
2.32505e+07
3.09241e+07
9.47223e+07
3.59555e+08
2.94454e+07
2.11391e+07
1.49938e+07
1.04846e+07
7.2125e+06
4.87078e+06
3.22339e+06
2.08956e+06
1.33265e+06
852277
523548
113942
6836.37
162.183
2.05592
0.0190075
0.000212518
4.76977e-06
2.70654e-07
3.50449e-08
8.60716e-09
2.63329e-09
9.86502e-10
4.06906e-10
1.56328e-10
7.45897e-11
3.26677e-11
7.81979e-12
6.13468e-12
2.41741e-12
1.11703e-13
4.37355e-13
1.65018e-13
6.92218e-14
2.82038e-14
8.84902e-15
-7.43686e-13
0
2.775e-07
0
7.41531e-12
0
-3.74755e-16
-7.68838e-16
-5.38344e-11
0
1.3709e-10
-5.04134e-10
-3.55771e-07
4.62288e-10
-3.6434e-07
-1.15728e-09
-3.18765e-17
-2.7377e-16
-2.78573e-15
1.27073e-08
4.60111e-07
3.40488e-06
4.44775e-05
0.000528321
0.00528159
0.04344
0.292605
1.62444
7.52692
29.5542
99.8714
294.659
768.455
1788.86
3750.63
7157.65
12550.7
20485
31550.3
46511.3
66484.3
93088.5
128498
175650
238346
321589
432741
581160
779084
1.04268e+06
1.39325e+06
1.85886e+06
2.47652e+06
3.29508e+06
4.37921e+06
5.81468e+06
7.71575e+06
1.02354e+07
1.35327e+07
1.78632e+07
2.3788e+07
3.17043e+07
1.69157e+08
2.89536e+08
2.94408e+07
2.09909e+07
1.47858e+07
1.02668e+07
7.01197e+06
4.70021e+06
3.08696e+06
1.98672e+06
1.26074e+06
808337
444300
74564.6
3574.84
74.9405
0.896008
0.00861735
0.000110799
3.00157e-06
2.00058e-07
2.93251e-08
7.32363e-09
2.30553e-09
9.50312e-10
3.68362e-10
1.73242e-10
8.34461e-11
3.28151e-11
1.47027e-11
6.48486e-12
2.37282e-12
1.83276e-12
-4.65611e-13
1.63586e-13
6.88159e-14
2.81111e-14
8.8424e-15
1.47848e-15
-6.98175e-22
2.0307e-17
2.87241e-07
-5.98124e-12
0
-1.26622e-11
3.22034e-07
5.2881e-11
2.25482e-19
3.38904e-07
2.7145e-10
0
4.49967e-10
-1.11464e-09
2.03707e-09
-3.86286e-17
3.62977e-07
-2.75145e-15
4.67923e-09
2.4068e-07
3.25787e-06
4.26761e-05
0.000506825
0.00509337
0.0422303
0.287212
1.61139
7.54858
29.967
102.368
305.203
803.91
1888.64
3988.08
7643.65
13447.5
21973.5
33811.9
49710.3
70765.6
98574.7
135284
183660
247587
333165
447639
599967
802776
1.07266e+06
1.43146e+06
1.90798e+06
2.54029e+06
3.37872e+06
4.49007e+06
5.96314e+06
7.91647e+06
1.0509e+07
1.38997e+07
1.83588e+07
2.44706e+07
3.26528e+07
2.5851e+08
2.02921e+08
2.94038e+07
2.07923e+07
1.45208e+07
9.99442e+06
6.76498e+06
4.49382e+06
2.92534e+06
1.86792e+06
1.18008e+06
760371
351267
45075.8
1775.3
33.1682
0.376767
0.00379067
5.60981e-05
1.8279e-06
1.44632e-07
2.35032e-08
6.53176e-09
2.25474e-09
8.16683e-10
3.59568e-10
1.46316e-10
6.06736e-11
2.87168e-11
1.34998e-11
5.52706e-12
2.34381e-12
9.62075e-13
3.7694e-13
-6.58123e-13
6.23579e-14
2.33537e-14
-5.19778e-12
1.48291e-15
-2.64453e-07
-2.02227e-17
-2.85299e-07
0
0
-1.53426e-11
7.44441e-16
0
1.05336e-10
1.06626e-10
0
0
0
0
-1.9738e-09
1.78371e-09
-4.00988e-09
-2.75002e-15
1.63912e-08
5.17006e-08
3.19506e-06
4.13473e-05
0.000495969
0.00501337
0.0418873
0.287461
1.62863
7.70677
30.9071
106.64
321.038
853.445
2021.97
4296.46
8261.61
14569.3
23811.2
36574.9
53591.6
75954.4
105200
143331
193523
260526
349470
467813
625379
835137
1.1142e+06
1.48516e+06
1.97785e+06
2.6317e+06
3.49898e+06
4.64901e+06
6.17405e+06
8.19723e+06
1.08796e+07
1.43736e+07
1.89901e+07
2.53291e+07
3.37994e+07
3.46618e+08
1.13435e+08
2.91057e+07
2.03802e+07
1.40972e+07
9.6125e+06
6.44726e+06
4.24488e+06
2.74025e+06
1.7376e+06
1.09464e+06
708136
249298
26192.8
877.127
14.8823
0.164156
0.00176171
3.02064e-05
1.1719e-06
1.07546e-07
1.96424e-08
5.52433e-09
1.98517e-09
7.98012e-10
3.51532e-10
1.57011e-10
6.9474e-11
2.58073e-11
1.15771e-11
5.64067e-12
2.22203e-12
9.52896e-13
4.25425e-13
9.7519e-13
6.49529e-14
2.36523e-14
7.38298e-15
1.30844e-15
-2.64074e-07
2.01393e-17
5.97696e-21
0
2.99325e-07
3.05978e-07
0
1.06855e-19
0
-1.04346e-10
0
0
-3.30551e-07
0
-7.20813e-18
-3.62526e-17
5.0603e-14
-2.75657e-15
1.14766e-08
2.24442e-07
3.1564e-06
4.14203e-05
0.000493444
0.00502047
0.0422797
0.29273
1.674
7.9969
32.3745
112.741
342.448
918.053
2191.48
4682.66
9024.92
15921.1
25992
39807
58059.7
81750.5
112387
152418
205476
275516
368395
491876
656228
874994
1.16605e+06
1.55302e+06
2.06712e+06
2.74968e+06
3.65544e+06
4.85698e+06
6.45067e+06
8.56472e+06
1.13654e+07
1.5007e+07
1.98213e+07
2.63892e+07
3.51052e+07
4.23522e+08
3.97648e+07
2.78657e+07
1.93584e+07
1.32975e+07
9.00905e+06
6.00547e+06
3.93069e+06
2.52373e+06
1.59401e+06
1.00449e+06
643537
184528
14990.2
440.308
6.89856
0.0749547
0.000864259
1.7099e-05
7.77693e-07
8.08848e-08
1.60398e-08
4.59503e-09
1.73879e-09
7.83918e-10
2.91812e-10
1.40929e-10
5.58576e-11
2.44418e-11
1.06769e-11
4.73972e-12
2.0859e-12
8.4251e-13
3.44009e-13
1.61107e-13
5.58995e-14
2.19853e-14
7.39808e-15
4.30871e-12
-6.9517e-22
2.00549e-17
0
0
2.49613e-20
-1.21466e-11
2.46993e-11
6.15438e-11
-1.24436e-10
-2.98158e-15
-3.19559e-07
5.07493e-10
-4.14393e-10
-3.2276e-07
1.8597e-09
-3.86451e-17
1.6864e-09
-2.77911e-15
1.5304e-08
2.32061e-07
3.17738e-06
4.12446e-05
0.000498492
0.005105
0.0433316
0.302592
1.74583
8.41499
34.3698
120.726
369.753
998.934
2400.59
5154.34
9946.07
17512.2
28516.7
43453.3
62890
87856.8
120346
162892
218563
291960
389231
518525
690610
919714
1.22466e+06
1.63036e+06
2.16988e+06
2.88707e+06
3.84018e+06
5.10658e+06
6.78913e+06
9.0246e+06
1.1994e+07
1.58257e+07
2.10591e+07
2.80069e+07
3.71882e+07
4.51944e+08
3.49743e+07
2.48647e+07
1.74337e+07
1.20426e+07
8.18359e+06
5.46197e+06
3.57534e+06
2.29507e+06
1.45098e+06
919559
571430
133083
8744.56
230.434
3.38371
0.0366972
0.000457419
1.03789e-05
5.48393e-07
6.5471e-08
1.33673e-08
4.10907e-09
1.55831e-09
7.12042e-10
3.13128e-10
1.25191e-10
6.273e-11
2.41097e-11
1.13712e-11
3.85789e-12
1.86183e-12
9.37341e-13
3.19487e-13
1.35616e-13
4.9686e-14
7.9574e-13
7.41152e-15
1.2294e-15
4.83566e-18
1.9971e-17
-3.45768e-12
0
0
-1.47263e-11
0
1.43643e-15
-9.92668e-11
0
0
0
-3.13702e-07
0
9.9501e-10
3.17231e-07
-4.79372e-14
-2.83012e-15
1.4771e-08
2.38651e-07
3.05524e-06
4.22104e-05
0.00050999
0.00526021
0.0450017
0.316874
1.84383
8.96312
36.9155
130.724
403.484
1097.83
2653.84
5718.9
11031.1
19352.6
31355.4
47409.4
68177.1
95013.3
129437
174017
232292
309081
410809
545987
725868
965355
1.28421e+06
1.70871e+06
2.27382e+06
3.02621e+06
4.02827e+06
5.36356e+06
7.14448e+06
9.52266e+06
1.26985e+07
1.68438e+07
2.25733e+07
3.02872e+07
4.06961e+07
4.38628e+08
3.20331e+07
2.27798e+07
1.59853e+07
1.1051e+07
7.51363e+06
5.01579e+06
3.28347e+06
2.1088e+06
1.3366e+06
854310
500661
96169.4
5319.62
127.843
1.77915
0.0194176
0.000261627
6.73805e-06
4.06301e-07
5.3237e-08
1.22129e-08
3.8433e-09
1.57779e-09
6.54461e-10
2.83109e-10
1.1774e-10
5.33337e-11
2.70468e-11
1.04215e-11
1.00219e-11
1.84517e-12
7.29483e-13
5.7467e-12
5.51614e-12
4.95903e-14
-4.44787e-12
7.6287e-13
1.14444e-15
4.82796e-18
1.36204e-12
5.85681e-21
0
0
0
0
4.83185e-11
-2.16907e-10
-2.85474e-15
-3.04397e-07
0
3.04752e-07
-7.84856e-10
-6.58182e-18
-3.95473e-17
1.93867e-09
-2.89151e-15
2.13598e-08
4.00467e-07
3.15557e-06
4.35284e-05
0.000528046
0.00548209
0.0472614
0.335482
1.96815
9.64564
40.0451
142.908
444.339
1216.98
2957.02
6386.95
12285.2
21394.8
34398.5
51683.9
74053.6
102435
138608
185251
246080
326121
432029
572606
759473
1.00802e+06
1.33867e+06
1.77859e+06
2.36397e+06
3.14312e+06
4.18068e+06
5.56332e+06
7.40758e+06
9.87072e+06
1.31413e+07
1.74331e+07
2.33718e+07
3.13676e+07
8.30122e+07
3.99269e+08
3.03287e+07
2.15305e+07
1.50853e+07
1.04142e+07
7.0716e+06
4.7154e+06
3.08439e+06
1.98119e+06
1.2591e+06
812385
433263
70681
3396.71
75.4281
1.00537
0.0111069
0.000161417
4.6631e-06
3.16177e-07
4.44771e-08
1.06346e-08
3.58134e-09
1.35262e-09
6.43164e-10
2.52434e-10
1.21381e-10
5.60796e-11
2.11645e-11
8.32937e-12
4.0091e-12
1.73889e-12
7.73523e-13
3.15732e-13
-5.2152e-12
-5.23755e-12
1.89751e-14
6.69817e-15
5.03535e-12
0
2.6959e-07
0
-5.65974e-12
1.41392e-11
1.16561e-11
-2.92563e-07
-5.83219e-11
-1.39251e-15
1.1752e-10
0
0
-4.6914e-10
1.59688e-18
-9.34931e-10
-4.46298e-17
-3.06505e-16
2.96761e-07
2.0564e-08
2.56133e-07
3.28615e-06
4.48902e-05
0.00055161
0.00576709
0.0500972
0.35842
2.1195
10.4698
43.8053
157.507
493.216
1359.3
3317.51
7167.59
13690.4
23603
37754.6
56473.5
80228.6
110083
147910
196504
259728
342759
452418
597692
790421
1.04626e+06
1.38596e+06
1.83705e+06
2.43614e+06
3.23199e+06
4.28961e+06
5.6958e+06
7.56676e+06
1.00582e+07
1.33519e+07
1.7651e+07
2.35714e+07
3.14894e+07
1.51279e+08
3.37196e+08
2.94301e+07
2.08395e+07
1.45693e+07
1.00388e+07
6.80541e+06
4.53171e+06
2.96161e+06
1.90259e+06
1.21229e+06
788337
385540
53402.6
2288.23
47.3957
0.609143
0.00684081
0.000106761
3.41926e-06
2.55311e-07
3.97095e-08
1.00728e-08
3.51616e-09
1.42435e-09
5.82724e-10
2.72941e-10
1.09542e-10
5.17947e-11
2.15895e-11
1.01695e-11
4.18347e-12
1.81075e-12
6.91291e-13
2.89341e-13
1.16282e-13
4.6337e-14
7.81738e-13
5.24825e-15
1.06225e-15
0
0
0
-1.63752e-16
-2.38337e-20
0
0
1.03855e-10
0
-2.90557e-07
0
-1.0874e-14
-1.55506e-18
9.08204e-10
9.05051e-10
-4.31227e-17
-3.14096e-16
2.94405e-09
1.61337e-08
1.14152e-07
3.44203e-06
4.7036e-05
0.000580393
0.00611233
0.0534938
0.385686
2.29861
11.4433
48.2481
174.789
551.237
1528.65
3743.9
8069.85
15301.3
26237.8
41640.6
61612.9
86666.2
117903
157294
207733
273207
358995
472029
621399
819061
1.08078e+06
1.42741e+06
1.88655e+06
2.49483e+06
3.30085e+06
4.36926e+06
5.78613e+06
7.66621e+06
1.01628e+07
1.34497e+07
1.77295e+07
2.36101e+07
3.1446e+07
2.11131e+08
2.79822e+08
2.88225e+07
2.03857e+07
1.42363e+07
9.79958e+06
6.63759e+06
4.41719e+06
2.88616e+06
1.85539e+06
1.18542e+06
776054
341148
41612.1
1621.37
31.6258
0.394658
0.0045102
7.51964e-05
2.63902e-06
2.14953e-07
3.56698e-08
9.13855e-09
3.25965e-09
1.30192e-09
5.66783e-10
2.43885e-10
9.99985e-11
5.17808e-11
2.50575e-11
9.26301e-12
3.53302e-12
1.79277e-12
6.63844e-13
2.87397e-13
1.21073e-13
4.32149e-14
1.89226e-14
5.97804e-15
1.06487e-15
0
1.96387e-17
-5.7386e-21
2.76056e-07
-1.64093e-16
-4.75125e-20
2.83204e-07
0
1.33627e-15
-3.83012e-19
0
7.59492e-19
-1.05192e-14
-1.59609e-09
-5.97004e-18
-4.16148e-17
-3.26243e-16
7.94491e-14
1.8967e-08
2.70022e-07
3.49077e-06
4.9476e-05
0.0006142
0.00651362
0.0574276
0.41721
2.50572
12.5711
53.412
194.958
619.241
1726.75
4234.89
9110.69
17169.8
29073.5
45669.7
66881.8
93184.4
125754
166655
218883
286518
374913
491070
644137
846121
1.11282e+06
1.46508e+06
1.93044e+06
2.54535e+06
3.3581e+06
4.43275e+06
5.85441e+06
7.73598e+06
1.02269e+07
1.34983e+07
1.77542e+07
2.35849e+07
3.13359e+07
2.62509e+08
2.30725e+08
2.82586e+07
1.99951e+07
1.39677e+07
9.61706e+06
6.51543e+06
4.33713e+06
2.83541e+06
1.82516e+06
1.17008e+06
770765
295189
33454.5
1204.09
22.3035
0.271846
0.00316488
5.60039e-05
2.12367e-06
1.8408e-07
3.20968e-08
8.587e-09
3.19112e-09
1.1825e-09
5.13767e-10
2.39419e-10
1.10307e-10
5.23629e-11
2.09802e-11
9.14089e-12
-1.39393e-12
1.5292e-12
6.10147e-13
1.05726e-12
1.08505e-13
5.23165e-12
1.74194e-14
5.61566e-15
1.06677e-15
3.66463e-13
-2.80735e-21
0
-1.15357e-20
2.32785e-20
-2.77633e-07
0
0
1.30806e-15
0
0
-5.1446e-15
0
-2.90554e-18
-8.64902e-18
2.68328e-07
-3.42247e-16
-3.31872e-15
1.81645e-08
2.91132e-07
3.7122e-06
5.20257e-05
0.000652283
0.0069648
0.0618548
0.452773
2.74027
13.8549
59.3254
218.205
697.905
1954.6
4809.48
10341.5
19214.5
32034.5
49765.1
72133.3
99606.2
133456
175831
229820
299565
390478
509598
666105
872019
1.14312e+06
1.5002e+06
1.97065e+06
2.59066e+06
3.4081e+06
4.48628e+06
5.9087e+06
7.78637e+06
1.0269e+07
1.35226e+07
1.7745e+07
2.3518e+07
3.11737e+07
3.05379e+08
1.90267e+08
2.76973e+07
1.9623e+07
1.37237e+07
9.45914e+06
6.41523e+06
4.27535e+06
2.79897e+06
1.80541e+06
1.16151e+06
767670
268978
27631.5
932.062
16.5347
0.19792
0.00234791
4.3819e-05
1.7814e-06
1.65058e-07
2.99889e-08
8.39153e-09
2.94031e-09
1.24762e-09
5.03204e-10
2.34789e-10
1.08322e-10
4.63836e-11
1.91619e-11
8.26122e-12
-1.37128e-12
2.33102e-12
6.04593e-13
2.35788e-13
1.07862e-13
4.28775e-14
1.7376e-14
7.51166e-13
9.78993e-16
6.88193e-22
0
0
1.14273e-20
1.60236e-16
-2.45504e-11
0
0
-1.28025e-15
1.94214e-10
0
0
-9.89137e-15
2.60163e-07
2.57523e-07
-2.9314e-09
-2.91178e-09
-2.5246e-07
2.31454e-08
1.69054e-07
3.92524e-06
5.5272e-05
0.000693737
0.00745603
0.0666947
0.491864
2.99985
15.2871
65.9824
244.621
787.632
2219.97
5490.61
11718.3
21350.9
34942.2
53696
77078.5
105623
140694
184512
240240
312060
405417
527371
687112
896642
1.1717e+06
1.53295e+06
2.0076e+06
2.63152e+06
3.4518e+06
4.53021e+06
5.94984e+06
7.82246e+06
1.02942e+07
1.35215e+07
1.77043e+07
2.34125e+07
3.09667e+07
3.40504e+08
1.57488e+08
2.71355e+07
1.92599e+07
1.34932e+07
9.31625e+06
6.32931e+06
4.2258e+06
2.77223e+06
1.79276e+06
1.15761e+06
766296
251217
23495
751.418
12.8589
0.151797
0.00183322
3.58442e-05
1.54289e-06
1.50402e-07
2.85704e-08
7.84012e-09
2.86935e-09
1.21885e-09
5.37281e-10
2.30014e-10
1.01226e-10
4.76721e-11
1.88579e-11
8.14267e-12
2.65126e-12
1.54741e-12
1.40369e-12
2.5737e-13
1.07174e-13
5.16876e-12
1.44262e-14
5.24714e-15
9.79876e-16
6.87212e-22
-2.78388e-21
2.66553e-07
1.13192e-20
0
-2.41945e-11
-6.32834e-16
1.80954e-19
-2.66354e-07
0
-3.74925e-10
-6.96505e-19
-3.2795e-10
-6.47168e-10
-1.42421e-09
-2.4523e-07
-3.62054e-16
2.48632e-09
2.51098e-08
1.88292e-07
4.16303e-06
5.8185e-05
0.000736652
0.00797158
0.0718082
0.533484
3.27877
16.8427
73.3048
274.039
889.783
2528.04
6253.08
13189.3
23395.7
37474.1
57044.1
81261.5
110759
146970
192188
249609
323440
419138
543768
706505
919313
1.19785e+06
1.5626e+06
2.04037e+06
2.66621e+06
3.4868e+06
4.56419e+06
5.98072e+06
7.84285e+06
1.02936e+07
1.34853e+07
1.7616e+07
2.32434e+07
3.068e+07
3.6817e+08
1.31379e+08
2.65745e+07
1.89036e+07
1.32726e+07
9.18409e+06
6.25352e+06
4.18503e+06
2.75257e+06
1.78545e+06
1.1574e+06
765981
237450
20589.1
630.32
10.4692
0.12226
0.00150041
3.05186e-05
1.38112e-06
1.39886e-07
2.71381e-08
7.63053e-09
2.79535e-09
1.18907e-09
4.80918e-10
2.2509e-10
9.85042e-11
4.11501e-11
1.78118e-11
8.02031e-12
3.72802e-12
-3.55641e-12
6.39087e-13
2.55182e-13
1.06443e-13
4.24614e-14
1.5824e-14
-5.0397e-12
8.9133e-16
1.63701e-13
-2.62885e-07
5.93733e-12
0
-2.24502e-20
2.38392e-11
-4.74787e-11
0
1.22424e-15
0
-2.53987e-07
0
0
-1.39121e-09
-7.72735e-18
2.3638e-07
-2.66811e-09
-3.7074e-15
2.62337e-08
2.04665e-07
4.39972e-06
6.13773e-05
0.000779678
0.00848861
0.0769753
0.575897
3.56552
18.4556
80.9475
304.832
998.56
2857.38
7062.06
14633.3
25015.4
39131.2
59212.8
84033.8
114321
151558
198078
257083
332784
430635
557692
723093
938704
1.21996e+06
1.58694e+06
2.06625e+06
2.69294e+06
3.51348e+06
4.58822e+06
5.99567e+06
7.84056e+06
1.02612e+07
1.34039e+07
1.74569e+07
2.29565e+07
3.0188e+07
3.96464e+08
1.07613e+08
2.60141e+07
1.85525e+07
1.30594e+07
9.05991e+06
6.1853e+06
4.15084e+06
2.73825e+06
1.78215e+06
1.15986e+06
768189
227372
18581.8
549.127
8.90042
0.10306
0.00128208
2.69411e-05
1.26573e-06
1.33239e-07
2.69786e-08
7.73658e-09
2.71869e-09
1.15832e-09
5.12287e-10
2.31674e-10
9.64595e-11
4.38954e-11
1.96482e-11
8.21748e-12
3.41264e-12
1.41887e-12
5.86359e-13
-4.8095e-12
9.99109e-14
3.93474e-14
1.57658e-14
5.23021e-15
4.26716e-12
0
0
0
0
-2.21747e-20
-2.61753e-07
2.57193e-11
0
-2.54438e-07
0
2.46782e-07
6.54399e-19
8.94649e-15
-2.51963e-18
-5.89923e-10
2.27671e-07
1.14214e-09
-3.82925e-15
2.48789e-08
3.35407e-07
4.61084e-06
6.40743e-05
0.000819731
0.00897731
0.0819101
0.616913
3.84709
20.0698
88.7834
337.527
1114.47
3200.62
7866.26
15836.7
25676.5
39182.1
59410.1
84554.3
115397
153462
201075
261424
338697
438317
567282
734640
952141
1.23517e+06
1.6039e+06
2.08489e+06
2.71257e+06
3.53138e+06
4.6004e+06
5.99713e+06
7.82362e+06
1.02145e+07
1.33107e+07
1.72962e+07
2.26932e+07
2.97783e+07
4.14002e+08
9.1643e+07
2.54546e+07
1.82051e+07
1.28513e+07
8.94113e+06
6.1222e+06
4.12112e+06
2.72753e+06
1.78152e+06
1.16401e+06
771176
220645
17249.8
495.782
7.88066
0.0906408
0.00113969
2.4561e-05
1.18885e-06
1.2895e-07
2.61242e-08
7.50491e-09
2.80097e-09
1.20921e-09
4.99322e-10
2.08958e-10
9.43687e-11
4.30251e-11
1.92948e-11
7.76571e-12
3.44337e-12
1.40068e-12
6.25328e-13
2.50538e-13
1.02312e-13
-4.9931e-12
5.047e-12
5.02384e-12
8.91264e-16
0
-2.60672e-07
0
0
0
1.03758e-11
2.52591e-11
0
0
9.66525e-11
-1.54277e-10
2.34593e-07
-2.95543e-10
0
-9.47976e-18
-5.10718e-17
1.33616e-09
4.76937e-09
2.82252e-08
2.44807e-07
4.70127e-06
6.64951e-05
0.000854238
0.00939773
0.0861894
0.652802
4.09577
21.5081
95.8167
367.177
1220.79
3514.7
8537.73
16402.4
24582.2
36701.1
56693.9
81803.3
112853
151364
199624
260782
338980
439591
569585
737997
956719
1.241e+06
1.61076e+06
2.09158e+06
2.71727e+06
3.53192e+06
4.59328e+06
5.97707e+06
7.78273e+06
1.01412e+07
1.3188e+07
1.71021e+07
2.23896e+07
2.93139e+07
4.27455e+08
8.02847e+07
2.48952e+07
1.78586e+07
1.26445e+07
8.82386e+06
6.0605e+06
4.09257e+06
2.71768e+06
1.78135e+06
1.16811e+06
774288
216770
16434.6
462.566
7.24388
0.0828837
0.00105026
2.30518e-05
1.13999e-06
1.25643e-07
2.52413e-08
7.56476e-09
2.80206e-09
1.17487e-09
4.97404e-10
2.2006e-10
9.75725e-11
4.14536e-11
1.89348e-11
9.03741e-12
4.10486e-12
6.61794e-13
5.73224e-13
2.48114e-13
5.09329e-12
4.17276e-14
5.0254e-12
5.36616e-15
4.99362e-12
0
-2.59566e-07
0
0
0
2.27726e-11
0
8.85952e-11
1.63665e-19
7.65148e-11
1.49625e-10
2.27059e-07
0
-2.32565e-18
-2.11121e-07
-4.8667e-17
-1.03207e-09
-1.96392e-07
-1.7081e-07
2.56362e-07
4.75186e-06
6.83777e-05
0.000879233
0.00970687
0.0893622
0.67966
4.28392
22.6108
101.298
390.382
1303.69
3745.46
8880.6
15713.4
23898.2
31416.6
50105.9
74717.4
105430
143742
191896
252988
331125
431668
561553
729771
947838
1.23083e+06
1.59833e+06
2.07576e+06
2.6963e+06
3.5032e+06
4.55298e+06
5.91955e+06
7.69975e+06
1.00206e+07
1.30127e+07
1.68489e+07
2.20179e+07
2.87691e+07
4.36588e+08
7.31831e+07
2.43303e+07
1.75054e+07
1.24305e+07
8.69933e+06
5.9921e+06
4.05816e+06
2.7029e+06
1.77708e+06
1.16864e+06
775563
214969
16012.2
444.256
6.88479
0.078478
0.000999286
2.21937e-05
1.11389e-06
1.23199e-07
2.54922e-08
7.3062e-09
2.78073e-09
1.21852e-09
4.92613e-10
2.1424e-10
9.52858e-11
4.50894e-11
1.91742e-11
8.18703e-12
3.51296e-12
1.36308e-12
5.90924e-13
2.45637e-13
9.75751e-14
-4.9338e-12
1.635e-14
5.19295e-15
9.34516e-16
-2.58821e-07
1.89866e-17
0
1.50191e-16
0
2.93678e-16
2.46015e-07
3.88889e-11
-1.11203e-15
1.65809e-10
0
4.11712e-15
-1.14799e-18
-2.22841e-18
5.16048e-10
-5.04631e-17
-1.20069e-09
4.25144e-09
2.49561e-08
3.58582e-07
4.84222e-06
6.90438e-05
0.00089222
0.00986678
0.0910183
0.69381
4.38411
23.2047
104.273
402.816
1345.19
3823.61
8652.03
16243.3
24896.4
32754.1
39290.8
62724.9
92309.5
129423
176257
235828
312152
410471
537591
702319
916061
1.19362e+06
1.55423e+06
2.02289e+06
2.63215e+06
3.42444e+06
4.45509e+06
5.79637e+06
7.54274e+06
9.81787e+06
1.2748e+07
1.65002e+07
2.15467e+07
2.8123e+07
4.41427e+08
7.00382e+07
2.37455e+07
1.71239e+07
1.21848e+07
8.54384e+06
5.89583e+06
4.00016e+06
2.66904e+06
1.75786e+06
1.15758e+06
769536
213830
15863.8
436.985
6.7347
0.0766065
0.000977581
2.18301e-05
1.10132e-06
1.23679e-07
2.53819e-08
7.32954e-09
2.8346e-09
1.17944e-09
5.08572e-10
2.14232e-10
9.29653e-11
4.55314e-11
1.89271e-11
8.03963e-12
3.45672e-12
6.80844e-13
6.03466e-13
2.43118e-13
1.02349e-13
7.66593e-13
4.98235e-12
5.1787e-15
9.33738e-16
6.82332e-22
2.72553e-21
0
1.14643e-11
2.13482e-20
0
0
-3.88888e-11
0
-2.31016e-07
-3.23137e-10
-4.11651e-15
7.99705e-15
-2.06365e-07
-1.15031e-09
-5.04627e-17
2.81186e-14
4.25135e-09
2.49558e-08
3.62653e-07
4.84216e-06
6.91277e-05
0.000892197
0.00986751
0.0910246
0.693861
4.38443
23.2063
104.278
402.832
1345.22
3823.63
8652.06
16243.3
24896.3
32754.1
39290.7
62723
92307.5
129421
176255
235826
312149
410469
537589
702317
916060
1.19362e+06
1.55423e+06
2.02289e+06
2.63216e+06
3.42445e+06
4.4551e+06
5.79638e+06
7.54275e+06
9.81788e+06
1.2748e+07
1.65003e+07
2.15467e+07
2.81231e+07
4.4143e+08
7.0035e+07
2.37456e+07
1.71239e+07
1.21848e+07
8.54384e+06
5.89583e+06
4.00017e+06
2.66904e+06
1.75786e+06
1.15758e+06
769536
213829
15863.7
436.982
6.73467
0.0766063
0.000977579
2.18279e-05
1.10132e-06
1.22584e-07
2.50695e-08
7.32956e-09
2.83461e-09
1.176e-09
5.0656e-10
2.13208e-10
9.80679e-11
4.29249e-11
1.95231e-11
8.03986e-12
4.07247e-12
2.21952e-12
1.31347e-12
-4.73765e-13
1.02349e-13
7.68143e-13
1.61299e-14
5.53271e-15
9.09288e-16
-2.59191e-07
8.02516e-13
5.81382e-12
0
2.56321e-07
4.28265e-20
2.01779e-11
2.46872e-07
-2.42503e-07
2.37628e-07
-1.49619e-10
4.26387e-15
0
2.16051e-07
1.20528e-09
-4.86662e-17
-3.05415e-14
-3.99534e-15
2.46034e-08
3.53255e-07
4.74316e-06
6.82841e-05
0.000879282
0.00970852
0.0893772
0.679778
4.2847
22.6151
101.315
390.449
1303.76
3745.51
8880.49
15712.5
23898.1
31416.2
50102.9
74713.8
105426
143738
191891
252983
331121
431666
561551
729770
947839
1.23084e+06
1.59833e+06
2.07577e+06
2.69631e+06
3.50322e+06
4.55301e+06
5.91959e+06
7.69979e+06
1.00207e+07
1.30128e+07
1.6849e+07
2.2018e+07
2.87693e+07
4.36597e+08
7.31739e+07
2.43304e+07
1.75055e+07
1.24305e+07
8.69936e+06
5.99211e+06
4.05816e+06
2.7029e+06
1.77708e+06
1.16864e+06
775562
214967
16011.9
444.249
6.88471
0.0784773
0.000999283
2.21902e-05
1.11162e-06
1.23827e-07
2.54923e-08
7.60352e-09
2.78069e-09
1.1749e-09
5.01566e-10
2.14439e-10
9.76296e-11
4.3896e-11
1.91747e-11
8.18704e-12
3.41693e-12
1.49058e-12
5.66417e-13
2.68037e-13
1.00103e-13
7.69977e-13
1.69863e-14
5.54788e-15
9.34487e-16
-6.84281e-22
0
-3.2283e-12
0
2.59586e-07
-1.03754e-11
-2.52596e-11
-4.06013e-11
-1.67693e-19
7.86387e-11
1.54276e-10
-4.41166e-15
-3.63226e-10
-2.42269e-18
-7.10972e-18
-2.46877e-09
-1.33617e-09
4.76928e-09
2.14102e-08
4.47134e-07
4.69704e-06
6.64038e-05
0.000854397
0.00939943
0.0862047
0.652924
4.09663
21.5136
95.8484
367.279
1221.12
3515.43
8538.99
16403.8
24582.9
36702.1
56695.3
81805
112854
151366
199626
260784
338981
439592
569588
738004
956728
1.24101e+06
1.61078e+06
2.09161e+06
2.7173e+06
3.53196e+06
4.59333e+06
5.97713e+06
7.78281e+06
1.01413e+07
1.31881e+07
1.71023e+07
2.23898e+07
2.9314e+07
4.2747e+08
8.02695e+07
2.48953e+07
1.78587e+07
1.26446e+07
8.82388e+06
6.06051e+06
4.09257e+06
2.71767e+06
1.78135e+06
1.16811e+06
774286
216767
16434.2
462.553
7.24369
0.0828821
0.00105024
2.30517e-05
1.14e-06
1.25643e-07
2.52414e-08
7.56457e-09
2.8724e-09
1.17487e-09
4.95298e-10
2.15361e-10
1.02907e-10
4.33561e-11
1.89344e-11
7.62741e-12
3.39162e-12
1.43124e-12
-4.34104e-12
-4.82415e-13
1.01509e-13
4.17276e-14
1.56372e-14
5.20653e-15
8.90813e-16
0
6.58516e-13
-7.72437e-17
6.51078e-12
1.54473e-16
0
-4.66445e-11
0
1.71718e-19
-8.07653e-11
0
0
-2.37863e-07
-2.5196e-18
-1.72368e-14
2.27667e-07
-3.37403e-14
-3.82919e-15
2.2135e-08
2.28023e-07
4.62052e-06
6.41932e-05
0.000820129
0.00897917
0.081925
0.617014
3.84762
20.0718
88.7904
337.539
1114.51
3200.71
7866.49
15837.1
25676.9
39183.3
59412
84557.2
115401
153467
201081
261431
338706
438327
567293
734651
952153
1.23519e+06
1.60392e+06
2.08492e+06
2.71261e+06
3.53143e+06
4.60047e+06
5.99722e+06
7.82373e+06
1.02146e+07
1.33108e+07
1.72964e+07
2.26935e+07
2.97786e+07
4.14024e+08
9.16219e+07
2.54548e+07
1.82052e+07
1.28513e+07
8.94116e+06
6.1222e+06
4.12111e+06
2.72753e+06
1.78152e+06
1.164e+06
771173
220639
17249.1
495.761
7.88035
0.0906378
0.00113966
2.45586e-05
1.18886e-06
1.28402e-07
2.61202e-08
7.81636e-09
2.80098e-09
1.20918e-09
4.99337e-10
2.1967e-10
9.68147e-11
4.45505e-11
1.92948e-11
8.15666e-12
3.36307e-12
2.22036e-12
6.04931e-13
9.87872e-13
5.12914e-12
-6.98152e-13
1.5704e-14
5.57586e-15
8.91264e-16
6.86233e-22
1.93115e-17
-2.64719e-07
-2.658e-07
0
0
2.64648e-07
-1.7737e-19
0
0
3.64584e-10
2.50209e-07
2.4625e-07
-2.42291e-07
1.79329e-14
-5.07878e-17
-1.47114e-09
-3.70734e-15
2.09866e-08
3.23449e-07
4.39856e-06
6.12797e-05
0.000779747
0.00849015
0.0769861
0.57595
3.5656
18.4542
80.9311
304.742
998.232
2856.35
7060.03
14630.6
25012.8
39129.7
59212.6
84035.1
114324
151562
198084
257090
332794
430647
557707
723112
938727
1.21999e+06
1.58697e+06
2.06629e+06
2.69299e+06
3.51354e+06
4.5883e+06
5.99577e+06
7.84068e+06
1.02614e+07
1.34041e+07
1.74572e+07
2.29567e+07
3.01883e+07
3.96491e+08
1.07585e+08
2.60143e+07
1.85526e+07
1.30595e+07
9.05993e+06
6.1853e+06
4.15084e+06
2.73824e+06
1.78215e+06
1.15986e+06
768187
227365
18580.8
549.094
8.89992
0.103055
0.00128203
2.69399e-05
1.26574e-06
1.33238e-07
2.63396e-08
7.59079e-09
2.71799e-09
1.15835e-09
5.12288e-10
2.3098e-10
9.57579e-11
4.4607e-11
1.88616e-11
8.6148e-12
3.39404e-12
1.41884e-12
5.8636e-13
2.52901e-13
9.99091e-14
4.51096e-14
1.72027e-14
5.03674e-12
-7.34302e-13
4.78657e-18
-1.93902e-17
2.66552e-07
0
1.5829e-16
0
-2.69246e-07
1.26056e-15
1.7976e-19
3.56355e-19
-3.74921e-10
0
-1.37475e-18
-2.7129e-18
-1.86661e-14
3.68405e-14
3.61848e-14
-2.44355e-07
2.75845e-08
3.13538e-07
4.16295e-06
5.81947e-05
0.000736841
0.00797318
0.0718193
0.533538
3.27886
16.8415
73.2886
273.93
889.016
2523.63
6248.64
13185.6
23393.5
37473.7
57045.1
81263.7
110762
146975
192194
249617
323450
419151
543784
706525
919338
1.19788e+06
1.56264e+06
2.04042e+06
2.66626e+06
3.48687e+06
4.56429e+06
5.98084e+06
7.843e+06
1.02938e+07
1.34855e+07
1.76163e+07
2.32437e+07
3.06804e+07
3.68204e+08
1.31345e+08
2.65747e+07
1.89038e+07
1.32727e+07
9.18414e+06
6.25354e+06
4.18504e+06
2.75257e+06
1.78545e+06
1.1574e+06
765981
237441
20587.7
630.272
10.4684
0.122252
0.00150033
3.05215e-05
1.3785e-06
1.41194e-07
2.71382e-08
7.78051e-09
2.70159e-09
1.22788e-09
4.80934e-10
2.2509e-10
9.85044e-11
4.34589e-11
1.91945e-11
1.30456e-11
3.44218e-12
1.43659e-12
6.39088e-13
2.55182e-13
1.06441e-13
-5.05011e-12
1.58235e-14
5.23967e-15
9.80297e-16
-6.88193e-22
0
2.68395e-07
2.70911e-07
0
3.21586e-16
2.73893e-07
-1.28552e-15
-8.76793e-11
-2.70678e-07
2.12416e-10
0
0
0
-8.15277e-10
-4.41028e-17
2.53552e-07
-2.58254e-07
2.89312e-08
3.06523e-07
3.81083e-06
5.51503e-05
0.000693708
0.00745805
0.0667109
0.491975
3.00052
15.2909
66.0038
244.748
788.428
2224.28
5495.56
11723.4
21355.5
34946.7
53700.3
77083
105628
140700
184518
240249
312070
405431
527388
687133
896669
1.17173e+06
1.53299e+06
2.00766e+06
2.63159e+06
3.45188e+06
4.53031e+06
5.94997e+06
7.82262e+06
1.02944e+07
1.35218e+07
1.77046e+07
2.34129e+07
3.09671e+07
3.40546e+08
1.57447e+08
2.71357e+07
1.92602e+07
1.34933e+07
9.31634e+06
6.32936e+06
4.22583e+06
2.77224e+06
1.79277e+06
1.15762e+06
766297
251207
23493
751.342
12.8576
0.151783
0.00183308
3.58432e-05
1.5429e-06
1.49797e-07
2.88749e-08
8.18356e-09
2.8693e-09
1.16924e-09
5.11745e-10
2.30014e-10
1.06277e-10
4.26529e-11
1.88575e-11
8.14244e-12
4.15936e-12
1.54738e-12
6.45675e-13
-4.89856e-12
8.63578e-13
4.26778e-14
1.58751e-14
5.24702e-15
8.9083e-16
3.66458e-13
0
6.06132e-12
1.15356e-20
2.32784e-20
0
-4.99796e-11
5.51544e-11
1.10121e-10
0
-1.77457e-10
-2.73563e-07
0
-2.69071e-07
-1.15319e-17
-4.58329e-17
-2.6715e-07
-3.31868e-15
1.81642e-08
2.91127e-07
3.71213e-06
5.2314e-05
0.000652536
0.00696696
0.0618754
0.452931
2.74132
13.8611
59.3569
218.343
698.433
1956.27
4812.57
10346.1
19220
32040.6
49771.4
72139.5
99612.5
133463
175838
229829
299576
390492
509615
666128
872048
1.14316e+06
1.50025e+06
1.97071e+06
2.59074e+06
3.40819e+06
4.4864e+06
5.90884e+06
7.78655e+06
1.02693e+07
1.35228e+07
1.77453e+07
2.35184e+07
3.11741e+07
3.05431e+08
1.90218e+08
2.76976e+07
1.96233e+07
1.37239e+07
9.45925e+06
6.41529e+06
4.27539e+06
2.79899e+06
1.80542e+06
1.16152e+06
767679
268967
27628.7
931.946
16.5325
0.197895
0.00234765
4.38194e-05
1.78267e-06
1.65059e-07
2.9989e-08
8.39144e-09
2.86013e-09
1.24759e-09
5.23848e-10
2.47645e-10
1.02429e-10
4.63827e-11
1.91615e-11
8.26123e-12
3.82804e-12
-3.6453e-12
6.04593e-13
2.3578e-13
-6.54327e-13
4.28775e-14
1.73755e-14
5.61247e-15
1.06809e-15
0
0
-6.1028e-12
2.76056e-07
0
0
6.65731e-16
0
-1.33627e-15
0
0
0
0
-7.16031e-10
-2.08e-14
-1.74299e-09
-3.26239e-16
-3.19135e-15
1.89667e-08
1.28374e-07
3.49643e-06
4.95007e-05
0.000614583
0.00651573
0.0574454
0.41733
2.50641
12.5745
53.4268
195.017
619.446
1727.38
4236.52
9113.29
17173.4
29078
45674.9
66887.4
93190.4
125761
166663
218892
286529
374927
491088
644160
846150
1.11286e+06
1.46513e+06
1.9305e+06
2.54542e+06
3.35819e+06
4.43286e+06
5.85454e+06
7.73613e+06
1.02271e+07
1.34986e+07
1.77545e+07
2.35853e+07
3.13364e+07