/*--------------------------------*- C++ -*----------------------------------*\
  =========                 |
  \\      /  F ield         | OpenFOAM: The Open Source CFD Toolbox
   \\    /   O peration     | Website:  https://openfoam.org
    \\  /    A nd           | Version:  8
     \\/     M anipulation  |
\*---------------------------------------------------------------------------*/
FoamFile
{
    version     2.0;
    format      ascii;
    class       volScalarField;
    location    "620/fluid";
    object      rDeltaT;
}
// * * * * * * * * * * * * * * * * * * * * * * * * * * * * * * * * * * * * * //

dimensions      [0 0 -1 0 0 0 0];

internalField   nonuniform List<scalar> 
4000
(
513.462
539.441
564.242
588.009
610.681
632.16
652.32
671.022
688.137
703.566
717.272
729.309
739.85
749.22
757.903
766.402
775.109
784.214
793.628
802.974
811.659
818.991
824.316
827.102
827.016
823.867
817.542
808.006
795.292
779.482
760.694
739.556
750.185
794.37
837.805
880.383
922.025
962.663
1002.24
1040.72
1078.06
1114.26
1149.29
1183.14
1215.82
1247.33
1277.66
1306.82
1334.81
1361.64
1387.31
1411.83
1435.19
1457.39
1478.43
1498.31
1517
1534.37
1550.4
1565.3
1578.95
2017.45
15884.6
1571.56
1535.36
1494.19
1448.55
1398.95
1345.84
1289.58
1230.61
1169.41
1106.55
1042.56
978.195
914.889
854.657
799.926
753.656
718.495
695.44
683.045
678.049
676.914
676.806
675.953
673.371
668.703
661.981
653.394
643.175
631.562
618.776
605.011
590.431
575.171
559.332
542.987
526.178
508.856
512.991
538.318
562.334
584.974
606.209
625.965
644.152
660.681
675.489
688.56
699.952
709.826
718.46
726.278
733.761
741.38
749.519
758.367
767.842
777.567
786.928
795.187
801.617
805.612
806.719
804.63
799.18
790.323
778.103
762.625
744.036
722.505
713.902
739.162
783.742
827.658
870.809
913.109
954.49
994.896
1034.29
1072.63
1109.9
1146.1
1181.2
1215.2
1248.11
1279.93
1310.65
1340.29
1368.86
1396.36
1422.79
1448.18
1472.53
1495.85
1518.13
1539.24
1559.2
1578.32
1596.48
3733.01
14429.6
1582.84
1541.71
1496.95
1448.41
1396.19
1340.48
1281.51
1219.55
1154.99
1088.3
1019.93
950.796
882.786
818.541
761.337
714.453
680.23
658.879
648.193
644.623
644.75
646.032
646.911
646.57
644.556
640.718
635.081
627.753
618.877
608.61
597.106
584.507
570.936
556.495
541.258
525.265
508.546
512.297
536.084
558.388
579.175
598.385
615.959
631.843
646.002
658.44
669.215
678.464
686.415
693.4
699.835
706.169
712.854
720.271
728.622
737.838
747.562
757.194
766.005
773.251
778.272
780.524
779.617
775.337
767.602
756.433
741.923
724.206
703.448
679.835
686.217
727.987
772.485
816.493
859.911
902.659
944.67
985.892
1026.28
1065.81
1104.46
1142.21
1179.06
1214.99
1250.01
1284.13
1317.35
1349.69
1381.17
1411.8
1441.6
1470.59
1498.78
1526.15
1552.51
1577.82
1602.24
1625.19
6687.81
11647.5
1602.35
1556.36
1506.63
1453.21
1396.19
1335.71
1271.96
1205.21
1135.86
1064.45
991.522
918.397
847.381
781.497
724.253
678.754
646.672
627.454
618.483
616.216
617.424
619.756
621.769
622.756
622.354
620.395
616.833
611.696
605.052
596.987
587.597
576.977
565.217
552.395
538.574
523.804
508.099
511.615
534.035
554.902
574.173
591.804
607.76
622.013
634.561
645.435
654.715
662.551
669.172
674.9
680.147
685.382
691.079
697.626
705.222
713.801
723.008
732.245
740.78
747.865
752.83
755.143
754.429
750.456
743.122
732.416
718.401
701.188
680.919
657.758
649.245
675.466
720.303
764.922
809.221
853.114
896.529
939.406
981.701
1023.38
1064.41
1104.77
1144.44
1183.42
1221.71
1259.3
1296.2
1332.42
1367.96
1402.82
1437.01
1470.52
1503.3
1535.29
1566.16
1595.77
1624.13
1650.47
10246.9
8187.48
1614.99
1565.03
1510.79
1452.57
1390.61
1325.18
1256.6
1185.26
1111.71
1036.63
960.79
885.869
814.405
749.439
694.184
651.284
621.859
604.88
597.541
596.403
598.469
601.593
604.448
606.323
606.878
605.976
603.582
599.717
594.425
587.763
579.792
570.575
560.17
548.631
536.003
522.325
507.617
510.886
531.819
551.15
568.842
584.861
599.181
611.793
622.711
631.989
639.729
646.099
651.347
655.808
659.9
664.095
668.859
674.571
681.426
689.355
698.008
706.796
714.99
721.841
726.674
728.946
728.269
724.399
717.219
706.706
692.906
675.915
655.862
632.897
612.23
625.814
670.87
715.964
760.994
805.872
850.525
894.892
938.925
982.577
1025.81
1068.61
1110.94
1152.8
1194.17
1235.03
1275.38
1315.21
1354.5
1393.23
1431.36
1468.82
1505.52
1541.3
1575.69
1608.55
1639.73
1668.23
13771.1
4593.64
1618.9
1565.94
1508
1445.68
1379.47
1309.84
1237.25
1162.24
1085.54
1007.87
930.205
854.465
783.261
719.589
666.437
626.045
599.026
583.957
577.92
577.618
580.289
583.989
587.517
590.209
591.726
591.911
590.704
588.095
584.104
578.766
572.121
564.212
555.082
544.771
533.318
520.753
507.102
510.154
529.624
547.482
563.693
578.229
591.077
602.237
611.738
619.644
626.067
631.183
635.241
638.577
641.602
644.781
648.572
653.35
659.306
666.38
674.229
682.278
689.813
696.09
700.439
702.316
701.328
697.222
689.868
679.231
665.344
648.289
628.179
605.15
579.35
583.5
624.39
669.858
715.496
761.217
806.946
852.62
898.178
943.577
988.778
1033.75
1078.46
1122.87
1166.98
1210.73
1254.12
1297.1
1339.62
1381.63
1423.04
1463.74
1503.56
1542.27
1579.28
1614.4
1647.35
1676.97
16865.4
1663.09
1614.74
1559.26
1498.17
1432.42
1362.76
1289.8
1214.15
1136.49
1057.64
978.408
899.932
824.295
754.139
692.376
641.755
604.126
579.655
566.598
561.952
562.543
565.805
569.967
573.946
577.149
579.269
580.159
579.754
578.038
575.014
570.699
565.117
558.295
550.262
541.047
530.678
519.18
506.579
509.413
527.406
543.788
558.528
571.605
583.011
592.756
600.876
607.442
612.576
616.458
619.341
621.561
623.527
625.698
628.523
632.37
637.426
643.629
650.642
657.897
664.687
670.277
673.999
675.31
673.815
669.258
661.502
650.503
636.287
618.924
598.519
575.195
549.089
546.218
580.11
625.877
672.022
718.459
765.109
811.903
858.784
905.702
952.611
999.466
1046.23
1092.86
1139.31
1185.55
1231.51
1277.14
1322.37
1367.09
1411.19
1454.5
1496.79
1537.74
1576.58
1613.47
1647.29
1676.95
18037.3
1656.69
1604.52
1545.91
1481.95
1413.5
1341.32
1266.05
1188.4
1109.12
1029.1
949.173
870.644
795.695
726.96
667.251
619.092
583.992
561.755
550.402
546.914
548.254
552.038
556.642
561.076
564.794
567.509
569.077
569.429
568.538
566.399
563.018
558.408
552.587
545.575
537.393
528.064
517.61
506.055
508.674
525.199
540.125
553.426
565.085
575.099
583.484
590.284
595.574
599.478
602.18
603.934
605.07
605.993
607.152
608.99
611.865
615.961
621.216
627.298
633.648
639.568
644.329
647.271
647.851
645.676
640.485
632.139
620.588
605.85
587.991
567.105
543.307
516.726
508.693
537.56
583.542
630.087
677.104
724.514
772.248
820.245
868.446
916.797
965.247
1013.74
1062.23
1110.66
1158.96
1207.06
1254.88
1302.32
1349.26
1395.52
1440.92
1485.16
1527.82
1568.16
1606.12
1640.34
1669.29
17543.2
1642.75
1587.74
1526.74
1460.67
1390.33
1316.45
1239.72
1160.88
1080.76
1000.26
920.266
842.205
768.339
701.281
643.741
598.04
565.385
545.274
535.542
533.168
535.24
539.532
544.546
549.379
553.535
556.749
558.887
559.88
559.698
558.33
555.773
552.035
547.126
541.057
533.846
525.509
516.065
505.537
507.937
522.998
536.477
548.351
558.608
567.249
574.296
579.795
583.827
586.518
588.052
588.682
588.737
588.615
588.757
589.597
591.485
594.599
598.876
603.988
609.379
614.359
618.208
620.267
620.002
617.017
611.055
601.974
589.722
574.313
555.807
534.294
509.882
482.693
470.897
496.218
542.332
589.167
636.636
684.658
733.16
782.073
831.333
880.88
930.651
980.583
1030.61
1080.66
1130.66
1180.5
1230.1
1279.32
1328.02
1376
1423.02
1468.79
1512.78
1554.33
1593.32
1628.42
3279.39
16000.9
1622.98
1566.03
1503.39
1435.9
1364.33
1289.42
1211.87
1132.47
1052.07
971.616
891.985
814.754
742.211
676.939
621.55
578.178
547.771
529.574
521.289
519.915
522.666
527.452
532.882
538.126
542.725
546.435
549.126
550.734
551.225
550.584
548.805
545.889
541.841
536.671
530.39
523.011
514.55
505.027
507.203
520.808
532.85
543.31
552.18
559.465
565.191
569.406
572.195
573.685
574.061
573.575
572.55
571.377
570.492
570.318
571.196
573.3
576.564
580.659
585.037
589.012
591.872
592.966
591.76
587.866
581.026
571.099
558.032
541.838
522.574
500.325
475.196
447.304
432.814
455.702
501.86
548.883
596.683
645.174
694.28
743.928
794.046
844.567
895.419
946.529
997.819
1049.2
1100.59
1151.87
1202.92
1253.6
1303.73
1353.11
1401.48
1448.51
1493.68
1536.32
1576.35
1612.54
5987.05
13539.4
1598.06
1540.23
1476.76
1408.53
1336.34
1260.95
1183.11
1103.62
1023.38
943.316
864.372
788.198
717.11
653.661
600.373
559.209
530.891
514.455
507.502
507.067
510.474
515.754
521.607
527.266
532.306
536.5
539.727
541.923
543.056
543.107
542.068
539.936
536.715
532.407
527.023
520.572
513.068
504.529
506.473
518.629
529.241
538.295
545.785
551.722
556.132
559.07
560.62
560.912
560.13
558.524
556.413
554.183
552.259
551.058
550.911
551.985
554.209
557.257
560.582
563.507
565.323
565.386
563.17
558.289
550.489
539.631
525.664
508.599
488.493
465.43
439.511
410.848
394.444
415.701
461.821
508.935
556.951
605.782
655.346
705.565
756.364
807.666
859.393
911.461
963.783
1016.26
1068.79
1121.25
1173.5
1225.39
1276.72
1327.27
1376.78
1424.9
1471.06
1514.64
1555.56
1592.55
8366.16
11256
1569.82
1511.7
1447.92
1379.44
1307.08
1231.64
1153.89
1074.66
994.894
915.501
837.447
762.475
692.912
631.276
580.002
540.903
514.502
499.668
493.932
494.371
498.411
504.189
510.484
516.578
522.076
526.765
530.533
533.316
535.083
535.813
535.497
534.131
531.712
528.245
523.735
518.189
511.62
504.041
505.746
516.46
525.649
533.302
539.418
544.01
547.11
548.772
549.085
548.178
546.235
543.504
540.301
537.004
534.031
531.789
530.601
530.626
531.788
533.761
536.002
537.836
538.564
537.547
534.265
528.338
519.517
507.665
492.734
474.736
453.729
429.795
403.035
373.559
355.799
375.99
421.994
469.107
517.235
566.287
616.179
666.829
718.154
770.073
822.499
875.341
928.503
981.878
1035.35
1088.78
1142.03
1194.93
1247.26
1298.81
1349.28
1398.31
1445.35
1489.74
1531.4
1569.04
10413.5
9293.6
1539.37
1481.29
1417.57
1349.18
1276.99
1201.82
1124.47
1045.79
966.728
888.182
811.164
737.49
669.48
609.619
560.262
523.085
498.449
485.08
480.466
481.73
486.392
492.678
499.433
505.983
511.958
517.158
521.475
524.85
527.25
528.656
529.055
528.441
526.812
524.17
520.516
515.857
510.202
503.565
505.022
514.299
522.07
528.326
533.07
536.32
538.109
538.496
537.569
535.459
532.351
528.489
524.185
519.813
515.781
512.487
510.244
509.204
509.287
510.165
511.295
512.01
511.614
509.478
505.089
498.071
488.182
475.289
459.348
440.374
418.424
393.582
365.949
335.633
316.902
336.401
382.216
429.245
477.391
526.561
576.668
627.624
679.344
731.739
784.717
838.18
892.023
946.132
1000.38
1054.63
1108.71
1162.45
1215.64
1268.03
1319.33
1369.17
1416.97
1462.08
1504.41
1542.64
12125
7672.21
1507.44
1449.62
1386.19
1318.17
1246.42
1171.76
1095.04
1017.1
938.909
861.355
785.483
713.161
646.705
588.564
541.017
505.625
482.605
470.579
467.003
469.051
474.325
481.13
488.368
495.399
501.875
507.606
512.489
516.467
519.507
521.591
522.704
522.84
521.994
520.165
517.355
513.569
508.813
503.097
504.301
512.146
518.502
523.363
526.738
528.646
529.124
528.232
526.062
522.746
518.467
513.467
508.055
502.598
497.497
493.141
489.834
487.717
486.706
486.47
486.47
486.04
484.495
481.211
475.681
467.54
456.549
442.582
425.599
405.617
382.697
356.924
328.398
297.231
277.776
296.817
342.377
389.246
437.327
486.524
536.747
587.905
639.907
692.66
746.067
800.023
854.416
909.126
964.018
1018.94
1073.73
1128.2
1182.12
1235.25
1287.28
1337.84
1386.32
1432.11
1475.07
1513.91
13529.7
6355.85
1474.53
1417.11
1354.16
1286.68
1215.55
1141.6
1065.67
988.632
911.449
834.992
760.343
689.406
624.487
568.002
522.162
488.424
466.889
456.092
453.481
456.279
462.162
469.501
477.243
484.781
491.782
498.065
503.532
508.128
511.82
514.588
516.419
517.304
517.238
516.218
514.244
511.319
507.448
502.639
503.582
509.999
514.942
518.411
520.417
520.982
520.147
517.975
514.558
510.03
504.573
498.429
491.902
485.354
479.177
473.75
469.368
466.164
464.047
462.684
461.537
459.946
457.231
452.775
446.082
436.793
424.676
409.612
391.564
370.556
346.649
319.932
290.507
258.483
238.452
257.158
302.402
349.045
396.988
446.133
496.387
547.656
599.845
652.857
706.589
760.932
815.769
870.972
926.4
981.899
1037.29
1092.38
1146.95
1200.74
1253.43
1304.65
1353.77
1400.21
1443.81
1483.29
14637.9
5305.43
1440.92
1384.02
1321.69
1254.9
1184.53
1111.44
1036.44
960.42
884.342
809.062
735.689
666.15
602.745
547.851
503.62
471.417
451.244
441.573
439.856
443.375
449.865
457.753
466.022
474.092
481.643
488.501
494.572
499.802
504.159
507.622
510.178
511.816
512.53
512.316
511.173
509.101
506.104
502.188
502.865
507.857
511.389
513.466
514.103
513.324
511.174
507.718
503.051
497.307
490.668
483.374
475.725
468.078
460.818
454.313
448.849
444.55
441.318
438.818
436.512
433.745
429.844
424.201
416.328
405.873
392.615
376.438
357.313
335.267
310.366
282.7
252.373
219.497
198.96
217.374
262.248
308.606
356.346
405.37
455.581
506.883
559.178
612.365
666.336
720.979
776.17
831.778
887.656
943.642
999.559
1055.21
1110.35
1164.73
1218.02
1269.86
1319.62
1366.69
1410.98
1451.2
15770.1
4347.28
1406.73
1350.49
1288.89
1222.92
1153.46
1081.33
1007.38
932.468
857.571
783.526
711.462
643.325
581.4
528.035
485.326
454.561
435.657
427.013
426.101
430.313
437.414
445.866
454.686
463.312
471.437
478.892
485.587
491.468
496.504
500.674
503.962
506.359
507.856
508.448
508.133
506.908
504.777
501.743
502.149
505.718
507.841
508.527
507.793
505.669
502.202
497.46
491.538
484.573
476.747
468.298
459.523
450.771
442.422
434.834
428.282
422.881
418.528
414.882
411.408
407.455
402.357
395.515
386.45
374.819
360.408
343.11
322.9
299.812
273.914
245.302
214.079
180.36
159.329
177.436
221.892
267.912
315.393
364.235
414.34
465.608
517.939
571.229
625.366
680.234
735.706
791.646
847.904
904.314
960.694
1016.84
1072.5
1127.43
1181.3
1233.73
1284.09
1331.8
1376.75
1417.65
16474.5
3702.93
1372.23
1316.71
1255.94
1190.89
1122.41
1051.35
978.512
904.786
831.123
758.352
687.615
620.867
560.377
508.464
467.18
437.759
420.076
412.441
412.248
417.12
424.823
433.847
443.232
452.433
461.15
469.222
476.558
483.107
488.836
493.724
497.756
500.918
503.203
504.604
505.115
504.735
503.464
501.303
501.434
503.581
504.296
503.59
501.485
498.015
493.228
487.196
480.017
471.828
462.81
453.201
443.294
433.434
423.991
415.315
407.671
401.164
395.683
390.886
386.237
381.091
374.788
366.739
356.475
343.66
328.091
309.668
288.372
264.242
237.352
207.799
175.69
141.141
119.59
137.335
181.329
226.963
274.134
322.741
372.683
423.858
476.164
529.494
583.734
638.763
694.454
750.665
807.243
864.019
920.805
977.391
1033.54
1088.98
1143.38
1196.38
1247.34
1295.68
1341.29
1382.9
17014.9
3244.15
1337.49
1282.76
1222.9
1158.84
1091.44
1021.51
949.863
877.374
804.99
733.524
664.124
598.747
539.643
489.101
449.133
420.926
404.361
397.743
398.283
403.799
412.095
421.692
431.651
441.44
450.767
459.473
467.468
474.701
481.138
486.758
491.543
495.48
498.559
500.772
502.112
502.575
502.16
500.866
500.72
501.446
500.752
498.654
495.178
490.359
484.25
476.925
468.485
459.068
448.855
438.082
427.04
416.067
405.527
395.76
387.02
379.402
372.79
366.837
361.009
354.664
347.152
337.891
326.423
312.422
295.693
276.145
253.765
228.598
200.722
170.238
137.257
101.894
100
100
140.565
185.772
232.588
280.911
330.638
381.668
433.895
487.209
541.494
596.629
652.482
708.908
765.752
822.841
879.986
936.973
993.562
1049.48
1104.4
1157.95
1209.49
1258.45
1304.73
1347.07
17381.8
2957.13
1302.55
1248.69
1189.82
1126.84
1060.57
991.838
921.436
850.231
779.159
709.022
640.968
576.944
519.18
469.934
431.179
404.065
388.473
382.784
384.129
390.297
399.185
409.362
419.908
430.304
440.26
449.619
458.293
466.227
473.389
479.755
485.307
490.03
493.911
496.942
499.114
500.422
500.862
500.433
500.006
499.311
497.209
493.718
488.868
482.698
475.266
466.645
456.941
446.292
434.88
422.939
410.758
398.67
387.03
376.168
366.329
357.6
349.854
342.742
335.731
328.184
319.458
308.983
296.309
281.122
263.235
242.564
219.105
192.909
164.058
132.656
100
100
100
100
100
144.359
190.778
238.773
288.24
339.076
391.173
444.419
498.698
553.885
609.846
666.436
723.496
780.852
838.312
895.66
952.656
1009.02
1064.43
1118.51
1170.63
1220.21
1267.16
1310.23
17576.3
2830.01
1267.45
1214.54
1156.73
1094.89
1029.82
962.338
893.224
823.339
753.608
684.822
618.118
555.431
498.967
450.954
413.334
387.222
372.463
367.506
369.669
376.508
386.013
396.794
407.955
418.982
429.593
439.63
449.004
457.661
465.568
472.697
479.03
484.551
489.246
493.104
496.115
498.271
499.567
500
500.006
499.311
497.208
493.717
488.867
482.697
475.264
466.644
456.939
446.29
434.878
422.937
410.756
398.667
387.027
376.165
366.326
357.596
349.85
342.738
335.727
328.18
319.454
308.978
296.304
281.116
263.229
242.558
219.099
192.902
164.051
132.649
100
100
100
100
100
144.355
190.774
238.769
288.237
339.073
391.17
444.416
498.696
553.883
609.845
666.434
723.495
780.851
838.311
895.66
952.656
1009.02
1064.43
1118.51
1170.63
1220.21
1267.16
1310.23
17576.4
2829.87
1267.45
1214.54
1156.73
1094.89
1029.83
962.339
893.226
823.34
753.609
684.823
618.119
555.432
498.968
450.955
413.334
387.223
372.464
367.507
369.669
376.509
386.013
396.795
407.955
418.983
429.593
439.63
449.004
457.662
465.568
472.697
479.031
484.552
489.247
493.104
496.115
498.271
499.567
500
500.72
501.445
500.751
498.653
495.176
490.357
484.248
476.923
468.482
459.064
448.851
438.077
427.035
416.062
405.521
395.753
387.013
379.395
372.783
366.829
361
354.655
347.142
337.881
326.411
312.41
295.681
276.132
253.752
228.585
200.709
170.224
137.243
101.88
100
100
140.557
185.764
232.58
280.904
330.632
381.663
433.89
487.204
541.491
596.626
652.479
708.906
765.75
822.84
879.985
936.973
993.562
1049.48
1104.4
1157.95
1209.49
1258.45
1304.73
1347.07
17382.2
2956.75
1302.55
1248.7
1189.82
1126.84
1060.58
991.839
921.438
850.232
779.161
709.024
640.97
576.946
519.182
469.936
431.181
404.067
388.474
382.785
384.13
390.298
399.186
409.363
419.909
430.305
440.261
449.62
458.293
466.228
473.39
479.756
485.307
490.03
493.911
496.942
499.115
500.423
500.862
500.433
501.434
503.58
504.295
503.589
501.484
498.013
493.226
487.193
480.014
471.824
462.806
453.196
443.289
433.429
423.985
415.309
407.664
401.157
395.675
390.878
386.228
381.081
374.778
366.728
356.463
343.648
328.078
309.655
288.358
264.228
237.337
207.784
175.675
141.126
119.578
137.328
181.322
226.957
274.129
322.736
372.679
423.855
476.161
529.491
583.732
638.762
694.453
750.665
807.243
864.019
920.806
977.392
1033.54
1088.98
1143.39
1196.38
1247.34
1295.68
1341.29
1382.9
17015.5
3243.51
1337.48
1282.76
1222.9
1158.84
1091.44
1021.51
949.863
877.375
804.991
733.525
664.125
598.748
539.645
489.102
449.135
420.927
404.363
397.745
398.285
403.801
412.096
421.693
431.652
441.441
450.768
459.474
467.469
474.702
481.139
486.759
491.544
495.481
498.56
500.772
502.112
502.575
502.16
500.866
502.149
505.717
507.84
508.525
507.791
505.667
502.2
497.457
491.535
484.57
476.743
468.293
459.517
450.766
442.416
434.827
428.275
422.874
418.52
414.873
411.399
407.445
402.347
395.504
386.438
374.806
360.394
343.096
322.885
299.796
273.899
245.285
214.063
180.344
159.318
177.431
221.887
267.908
315.389
364.232
414.338
465.607
517.938
571.228
625.366
680.234
735.707
791.648
847.906
904.316
960.696
1016.84
1072.51
1127.43
1181.3
1233.73
1284.1
1331.8
1376.75
1417.66
16475.3
3702.05
1372.23
1316.7
1255.94
1190.89
1122.41
1051.35
978.511
904.785
831.123
758.353
687.616
620.868
560.378
508.465
467.182
437.76
420.077
412.442
412.25
417.122
424.824
433.849
443.233
452.434
461.151
469.223
476.559
483.108
488.837
493.725
497.756
500.919
503.204
504.604
505.115
504.735
503.464
501.303
502.865
507.856
511.388
513.465
514.101
513.322
511.172
507.715
503.048
497.303
490.664
483.369
475.72
468.072
460.811
454.306
448.842
444.542
441.31
438.809
436.503
433.735
429.833
424.19
416.316
405.86
392.601
376.423
357.297
335.25
310.349
282.682
252.355
219.479
198.949
217.37
262.245
308.604
356.344
405.369
455.581
506.884
559.179
612.366
666.338
720.981
776.173
831.781
887.659
943.646
999.563
1055.21
1110.35
1164.73
1218.03
1269.86
1319.62
1366.69
1410.98
1451.2
15771.2
4346.13
1406.73
1350.48
1288.89
1222.92
1153.46
1081.33
1007.37
932.467
857.571
783.526
711.462
643.325
581.401
528.035
485.327
454.562
435.658
427.015
426.102
430.315
437.415
445.868
454.687
463.313
471.438
478.893
485.588
491.469
496.505
500.674
503.963
506.359
507.856
508.449
508.133
506.909
504.777
501.743
503.582
509.999
514.941
518.41
520.415
520.98
520.145
517.972
514.555
510.026
504.569
498.425
491.897
485.348
479.17
473.743
469.361
466.156
464.039
462.676
461.528
459.936
457.22
452.763
446.07
436.779
424.661
409.597
391.548
370.539
346.631
319.914
290.488
258.463
238.441
257.157
302.401
349.045
396.988
446.134
496.389
547.659
599.848
652.86
706.593
760.936
815.774
870.977
926.405
981.904
1037.3
1092.39
1146.96
1200.74
1253.43
1304.65
1353.78
1400.21
1443.82
1483.29
14639.3
5304.02
1440.92
1384.02
1321.68
1254.89
1184.53
1111.43
1036.44
960.417
884.34
809.061
735.688
666.15
602.745
547.852
503.621
471.418
451.245
441.574
439.858
443.376
449.867
457.754
466.024
474.093
481.644
488.502
494.573
499.803
504.16
507.623
510.178
511.816
512.53
512.317
511.173
509.101
506.104
502.188
504.301
512.146
518.501
523.362
526.737
528.644
529.122
528.23
526.059
522.743
518.462
513.462
508.05
502.592
497.491
493.135
489.827
487.709
486.698
486.461
486.46
486.03
484.484
481.199
475.668
467.526
456.534
442.566
425.581
405.599
382.678
356.904
328.378
297.21
277.766
296.818
342.378
389.249
437.33
486.528
536.751
587.91
639.913
692.666
746.073
800.029
854.423
909.133
964.025
1018.95
1073.74
1128.21
1182.13
1235.25
1287.28
1337.85
1386.33
1432.11
1475.08
1513.92
13531.4
6354.15
1474.52
1417.1
1354.16
1286.67
1215.54
1141.6
1065.67
988.628
911.446
834.99
760.342
689.405
624.487
568.002
522.163
488.425
466.89
456.093
453.482
456.28
462.163
469.502
477.244
484.782
491.783
498.066
503.533
508.128
511.82
514.589
516.42
517.305
517.238
516.218
514.245
511.319
507.448
502.639
505.022
514.299
522.069
528.325
533.069
536.319
538.107
538.493
537.566
535.456
532.347
528.484
524.18
519.807
515.775
512.48
510.238
509.197
509.28
510.156
511.286
512
511.603
509.466
505.076
498.057
488.166
475.273
459.33
440.355
418.404
393.561
365.927
335.611
316.892
336.405
382.221
429.25
477.396
526.567
576.675
627.632
679.352
731.748
784.726
838.189
892.032
946.141
1000.39
1054.63
1108.72
1162.46
1215.65
1268.04
1319.34
1369.18
1416.97
1462.09
1504.41
1542.64
12127.2
7670.14
1507.43
1449.61
1386.19
1318.16
1246.41
1171.76
1095.03
1017.09
938.905
861.351
785.481
713.16
646.704
588.563
541.017
505.625
482.607
470.58
467.004
469.052
474.326
481.132
488.369
495.401
501.876
507.607
512.49
516.468
519.508
521.591
522.704
522.84
521.994
520.165
517.356
513.569
508.813
503.097
505.746
516.459
525.648
533.301
539.417
544.008
547.108
548.769
549.082
548.174
546.231
543.499
540.296
536.998
534.025
531.783
530.594
530.618
531.78
533.753
535.993
537.826
538.553
537.535
534.252
528.323
519.501
507.647
492.715
474.716
453.708
429.773
403.012
373.535
355.79
375.996
422.001
469.115
517.243
566.296
616.189
666.839
718.165
770.084
822.51
875.352
928.514
981.889
1035.36
1088.79
1142.04
1194.93
1247.27
1298.82
1349.28
1398.32
1445.35
1489.75
1531.41
1569.04
10416.2
9291.17
1539.36
1481.28
1417.56
1349.17
1276.99
1201.81
1124.46
1045.78
966.722
888.178
811.16
737.487
669.479
609.619
560.261
523.085
498.45
485.082
480.468
481.732
486.393
492.679
499.434
505.984
511.959
517.159
521.476
524.851
527.251
528.656
529.055
528.442
526.813
524.17
520.516
515.857
510.202
503.565
506.473
518.629
529.241
538.294
545.784
551.72
556.13
559.068
560.617
560.909
560.126
558.519
556.408
554.178
552.253
551.052
550.904
551.977
554.201
557.248
560.573
563.497
565.312
565.374
563.156
558.274
550.472
539.613
525.644
508.578
488.471
465.406
439.486
410.822
394.435
415.711
461.832
508.947
556.963
605.794
655.358
705.578
756.378
807.68
859.407
911.475
963.797
1016.28
1068.8
1121.26
1173.51
1225.4
1276.73
1327.28
1376.79
1424.9
1471.07
1514.65
1555.56
1592.55
8369.52
11252.1
1569.82
1511.69
1447.91
1379.43
1307.07
1231.63
1153.88
1074.66
994.888
915.495
837.442
762.471
692.909
631.274
580.001
540.903
514.503
499.669
493.933
494.373
498.413
504.191
510.486
516.58
522.077
526.767
530.534
533.317
535.084
535.814
535.498
534.131
531.713
528.246
523.735
518.189
511.62
504.041
507.203
520.808
532.85
543.31
552.179
559.464
565.189
569.404
572.192
573.682
574.058
573.57
572.545
571.372
570.486
570.311
571.19
573.293
576.556
580.651
585.028
589.002
591.861
592.953
591.746
587.85
581.009
571.08
558.011
541.816
522.55
500.3
475.17
447.276
432.806
455.715
501.873
548.898
596.698
645.19
694.296
743.944
794.063
844.584
895.435
946.545
997.835
1049.22
1100.6
1151.88
1202.93
1253.61
1303.74
1353.12
1401.49
1448.52
1493.69
1536.32
1576.35
1612.54
5991.24
13534.5
1598.05
1540.22
1476.75
1408.52
1336.33
1260.94
1183.1
1103.61
1023.37
943.309
864.366
788.193
717.106
653.658
600.372
559.209
530.892
514.456
507.504
507.069
510.476
515.756
521.609
527.268
532.308
536.501
539.728
541.924
543.057
543.108
542.069
539.937
536.715
532.408
527.023
520.572
513.068
504.529
507.937
522.998
536.476
548.35
558.607
567.248
574.295
579.793
583.825
586.515
588.048
588.678
588.733
588.61
588.751
589.591
591.478
594.592
598.869
603.98
609.371
614.35
618.197
620.255
619.988
617.001
611.038
601.954
589.7
574.29
555.782
534.267
509.854
482.663
470.89
496.235
542.349
589.185
636.655
684.677
733.179
782.092
831.353
880.9
930.671
980.603
1030.63
1080.68
1130.67
1180.52
1230.12
1279.34
1328.03
1376.01
1423.03
1468.8
1512.79
1554.34
1593.33
1628.43
3284.76
15996.9
1622.96
1566.01
1503.37
1435.88
1364.32
1289.4
1211.86
1132.46
1052.06
971.606
891.977
814.747
742.206
676.936
621.548
578.177
547.772
529.576
521.291
519.917
522.668
527.454
532.884
538.128
542.727
546.436
549.128
550.735
551.226
550.585
548.805
545.889
541.842
536.672
530.39
523.011
514.55
505.027
508.674
525.199
540.125
553.426
565.084
575.098
583.483
590.282
595.571
599.475
602.177
603.93
605.066
605.988
607.147
608.984
611.859
615.954
621.208
627.29
633.639
639.558
644.318
647.258
647.837
645.659
640.466
632.118
620.565
605.825
587.964
567.076
543.277
516.694
508.686
537.581
583.564
630.109
677.127
724.537
772.272
820.269
868.469
916.821
965.27
1013.77
1062.25
1110.68
1158.98
1207.08
1254.9
1302.34
1349.27
1395.54
1440.93
1485.17
1527.83
1568.17
1606.13
1640.35
1669.29
17542.4
1642.74
1587.72
1526.72
1460.65
1390.31
1316.43
1239.7
1160.87
1080.74
1000.25
920.255
842.196
768.333
701.276
643.738
598.038
565.385
545.275
535.544
533.17
535.243
539.535
544.548
549.381
553.537
556.751
558.888
559.881
559.699
558.331
555.774
552.036
547.126
541.058
533.846
525.509
516.065
505.537
509.413
527.406
543.788
558.528
571.605
583.011
592.755
600.874
607.44
612.574
616.454
619.337
621.557
623.523
625.692
628.518
632.364
637.42
643.622
650.634
657.888
664.677
670.265
673.986
675.295
673.798
669.239
661.48
650.479
636.26
618.895
598.488
575.162
549.054
546.212
580.135
625.903
672.048
718.486
765.137
811.931
858.812
905.73
952.638
999.493
1046.26
1092.88
1139.34
1185.57
1231.53
1277.16
1322.39
1367.11
1411.21
1454.52
1496.8
1537.75
1576.59
1613.48
1647.3
1676.95
18035.6
1656.67
1604.5
1545.89
1481.92
1413.48
1341.3
1266.03
1188.38
1109.1
1029.09
949.161
870.633
795.686
726.954
667.247
619.09
583.992
561.757
550.405
546.917
548.257
552.041
556.645
561.078
564.796
567.511
569.079
569.43
568.539
566.4
563.018
558.408
552.587
545.575
537.393
528.064
517.61
506.055
510.154
529.624
547.482
563.693
578.229
591.076
602.236
611.737
619.643
626.065
631.18
635.238
638.573
641.598
644.776
648.567
653.344
659.3
666.373
674.222
682.27
689.803
696.079
700.426
702.301
701.31
697.202
689.846
679.206
665.316
648.258
628.146
605.114
579.312
583.495
624.42
669.889
715.528
761.249
806.978
852.652
898.211
943.609
988.809
1033.78
1078.49
1122.9
1167
1210.76
1254.14
1297.12
1339.64
1381.65
1423.06
1463.76
1503.58
1542.28
1579.29
1614.41
1647.35
1676.96
16868.4
1663.08
1614.72
1559.24
1498.14
1432.4
1362.74
1289.78
1214.13
1136.47
1057.63
978.393
899.92
824.285
754.131
692.37
641.752
604.125
579.656
566.6
561.955
562.546
565.808
569.97
573.949
577.152
579.271
580.16
579.756
578.039
575.014
570.699
565.117
558.295
550.262
541.047
530.678
519.18
506.579
510.886
531.819
551.15
568.843
584.862
599.181
611.792
622.711
631.988
639.727
646.096
651.344
655.804
659.896
664.09
668.854
674.566
681.42
689.349
698.001
706.788
714.981
721.83
726.661
728.931
728.25
724.378
717.195
706.679
692.876
675.883
655.827
632.859
612.227
625.849
670.905
716
761.031
805.909
850.562
894.929
938.962
982.613
1025.85
1068.64
1110.98
1152.83
1194.2
1235.06
1275.41
1315.24
1354.53
1393.25
1431.38
1468.84
1505.54
1541.31
1575.7
1608.56
1639.74
1668.23
13778.3
4584.97
1618.87
1565.91
1507.98
1445.66
1379.45
1309.82
1237.23
1162.22
1085.52
1007.85
930.189
854.452
783.251
719.581
666.433
626.044
599.026
583.96
577.924
577.622
580.292
583.993
587.52
590.211
591.729
591.913
590.705
588.096
584.105
578.767
572.121
564.212
555.082
544.771
533.317
520.753
507.102
511.615
534.036
554.903
574.173
591.805
607.76
622.014
634.561
645.434
654.714
662.549
669.169
674.897
680.144
685.379
691.075
697.621
705.217
713.796
723.001
732.237
740.771
747.853
752.816
755.127
754.41
750.434
743.096
732.388
718.37
701.153
680.881
657.717
649.243
675.506
720.344
764.964
809.264
853.156
896.571
939.448
981.742
1023.42
1064.45
1104.81
1144.48
1183.46
1221.74
1259.33
1296.23
1332.45
1367.98
1402.85
1437.04
1470.54
1503.32
1535.3
1566.17
1595.78
1624.14
1650.47
10256.3
8177.59
1614.96
1565
1510.77
1452.54
1390.58
1325.16
1256.58
1185.23
1111.69
1036.61
960.772
885.854
814.391
749.429
694.177
651.281
621.859
604.883
597.545
596.407
598.473
601.597
604.451
606.326
606.88
605.977
603.584
599.718
594.426
587.763
579.793
570.575
560.17
548.631
536.003
522.324
507.617
512.297
536.084
558.388
579.175
598.386
615.96
631.843
646.002
658.44
669.215
678.463
686.414
693.397
699.832
706.166
712.85
720.267
728.617
737.833
747.556
757.187