/*--------------------------------*- C++ -*----------------------------------*\
  =========                 |
  \\      /  F ield         | OpenFOAM: The Open Source CFD Toolbox
   \\    /   O peration     | Website:  https://openfoam.org
    \\  /    A nd           | Version:  8
     \\/     M anipulation  |
\*---------------------------------------------------------------------------*/
FoamFile
{
    version     2.0;
    format      ascii;
    class       volScalarField;
    location    "620/fluid";
    object      rho;
}
// * * * * * * * * * * * * * * * * * * * * * * * * * * * * * * * * * * * * * //

dimensions      [1 -3 0 0 0 0 0];

internalField   nonuniform List<scalar> 
4000
(
0.658526
0.658499
0.658455
0.658381
0.658257
0.658051
0.657713
0.657161
0.656271
0.654854
0.652635
0.64923
0.644131
0.636723
0.626345
0.612412
0.594602
0.573018
0.548268
0.521376
0.493561
0.465977
0.439527
0.414797
0.392077
0.371433
0.352787
0.335984
0.320835
0.307147
0.294738
0.283447
0.273134
0.263681
0.254992
0.246969
0.239508
0.232545
0.22603
0.219919
0.214176
0.208768
0.203669
0.198855
0.194309
0.190015
0.185957
0.182127
0.178514
0.175113
0.171918
0.168927
0.166141
0.163563
0.1612
0.159063
0.157172
0.155576
0.154303
0.15336
0.152865
0.152936
0.153964
0.162824
0.1733
0.185609
0.200045
0.217002
0.236993
0.260689
0.288961
0.322932
0.364045
0.414251
0.475929
0.551262
0.641408
0.744782
0.854838
0.959632
1.04608
1.10712
1.1445
1.1648
1.17496
1.17981
1.18204
1.18304
1.18349
1.18368
1.18376
1.1838
1.18381
1.18382
1.18382
1.18382
1.18382
1.18382
1.18382
1.18382
0.658526
0.658499
0.658455
0.65838
0.658255
0.658049
0.657708
0.657152
0.656256
0.654832
0.652607
0.649203
0.644122
0.636765
0.626485
0.612715
0.595133
0.573823
0.549354
0.522707
0.495065
0.467566
0.44112
0.41633
0.393507
0.372737
0.353957
0.337022
0.321749
0.307946
0.295434
0.284051
0.273656
0.26413
0.255375
0.247296
0.239785
0.232778
0.226223
0.220077
0.214301
0.208865
0.203739
0.198903
0.194336
0.190022
0.185948
0.182103
0.178477
0.175064
0.171859
0.168859
0.166066
0.163481
0.161111
0.15897
0.157075
0.155475
0.1542
0.153254
0.152755
0.152824
0.154641
0.16368
0.174365
0.186927
0.201679
0.219035
0.239542
0.263908
0.293056
0.32818
0.37081
0.423027
0.487252
0.565557
0.658686
0.76414
0.87413
0.976029
1.05765
1.11391
1.14788
1.16632
1.17559
1.18006
1.18213
1.18308
1.1835
1.18368
1.18376
1.1838
1.18381
1.18382
1.18382
1.18382
1.18382
1.18382
1.18382
1.18382
0.658526
0.658499
0.658454
0.658379
0.658254
0.658046
0.657703
0.657145
0.656245
0.654817
0.652589
0.649185
0.644116
0.636792
0.626581
0.612928
0.595512
0.57441
0.55017
0.523739
0.496273
0.468893
0.442504
0.417714
0.394848
0.374004
0.355134
0.338099
0.322725
0.308823
0.296218
0.284746
0.274269
0.264667
0.255842
0.2477
0.240132
0.233072
0.226469
0.220278
0.214461
0.208986
0.203826
0.198957
0.19436
0.190019
0.18592
0.182052
0.178407
0.174976
0.171755
0.168742
0.165936
0.163341
0.160963
0.158815
0.156915
0.155314
0.154038
0.153095
0.152604
0.152686
0.155897
0.165173
0.176156
0.189092
0.204311
0.222254
0.243499
0.268796
0.299123
0.33573
0.380228
0.434776
0.501719
0.582842
0.678276
0.784546
0.892954
0.99092
1.06763
1.11965
1.1508
1.16769
1.1762
1.18032
1.18224
1.18312
1.18352
1.18369
1.18377
1.1838
1.18381
1.18382
1.18382
1.18382
1.18382
1.18382
1.18382
1.18382
0.658526
0.658499
0.658454
0.658379
0.658254
0.658045
0.657703
0.657144
0.656247
0.654823
0.652607
0.649227
0.644199
0.63694
0.626828
0.613307
0.596057
0.57514
0.551083
0.524811
0.49746
0.470145
0.443771
0.418958
0.396038
0.375123
0.35617
0.33905
0.323589
0.309605
0.29692
0.285373
0.274826
0.265157
0.25627
0.248071
0.24045
0.23334
0.226691
0.220456
0.214598
0.209085
0.203888
0.198986
0.194358
0.189989
0.185864
0.181972
0.178305
0.174854
0.171617
0.168589
0.165771
0.163166
0.160782
0.158629
0.156727
0.155132
0.153866
0.152935
0.152461
0.152566
0.157504
0.167039
0.178359
0.191719
0.207469
0.226072
0.248137
0.274455
0.306051
0.344228
0.390677
0.447613
0.517268
0.601129
0.698709
0.805597
0.912267
1.00625
1.07806
1.12581
1.15405
1.16927
1.17694
1.18065
1.18239
1.18318
1.18354
1.1837
1.18377
1.1838
1.18381
1.18382
1.18382
1.18382
1.18382
1.18382
1.18382
1.18382
0.658526
0.658499
0.658454
0.658379
0.658254
0.658046
0.657704
0.657148
0.656254
0.654838
0.652634
0.649275
0.644283
0.637081
0.627051
0.613642
0.596529
0.575765
0.551859
0.525717
0.498461
0.471198
0.444836
0.420001
0.397035
0.376058
0.357036
0.339843
0.32431
0.310256
0.297504
0.285894
0.275286
0.265561
0.25662
0.248372
0.240705
0.233552
0.226861
0.220588
0.214693
0.209144
0.203914
0.198981
0.194325
0.189929
0.185779
0.181865
0.178178
0.17471
0.171457
0.168417
0.16559
0.162979
0.160591
0.158438
0.156542
0.154964
0.15371
0.152797
0.152353
0.152514
0.159244
0.169036
0.180702
0.194504
0.210805
0.23009
0.252997
0.280353
0.313226
0.352968
0.401356
0.460627
0.532859
0.619214
0.718559
0.825581
0.930111
1.02003
1.08722
1.13115
1.15685
1.17064
1.17758
1.18093
1.18251
1.18324
1.18357
1.18371
1.18377
1.1838
1.18381
1.18382
1.18382
1.18382
1.18382
1.18382
1.18382
1.18382
0.658526
0.658499
0.658455
0.65838
0.658255
0.658048
0.657708
0.657155
0.656267
0.65486
0.652672
0.649339
0.644387
0.637244
0.627294
0.613988
0.596996
0.57636
0.552573
0.526529
0.499337
0.472103
0.445738
0.420873
0.397861
0.376827
0.357742
0.340485
0.32489
0.310776
0.297967
0.286304
0.275646
0.265873
0.256887
0.248597
0.240891
0.233701
0.226975
0.220667
0.214739
0.209161
0.203903
0.198943
0.194262
0.189842
0.185672
0.181738
0.178034
0.174552
0.171288
0.168239
0.165407
0.162795
0.16041
0.158266
0.156382
0.154823
0.153589
0.152702
0.152289
0.152488
0.160776
0.170867
0.182918
0.19719
0.214059
0.234031
0.257772
0.286146
0.320262
0.361519
0.411778
0.47327
0.547918
0.636544
0.737377
0.844281
0.946579
1.03261
1.09556
1.13603
1.15944
1.17192
1.17818
1.18121
1.18264
1.18329
1.18359
1.18372
1.18378
1.1838
1.18381
1.18382
1.18382
1.18382
1.18382
1.18382
1.18382
1.18382
0.658526
0.6585
0.658455
0.658381
0.658257
0.658051
0.657713
0.657164
0.656281
0.654884
0.652711
0.649402
0.644486
0.637395
0.627516
0.614299
0.597409
0.57688
0.553192
0.527224
0.500081
0.472865
0.44649
0.421594
0.398537
0.37745
0.35831
0.340997
0.325348
0.311183
0.298326
0.286617
0.275916
0.266104
0.25708
0.248754
0.241015
0.233794
0.227037
0.2207
0.214747
0.209143
0.203861
0.198878
0.194176
0.189737
0.185548
0.181599
0.177882
0.174389
0.171117
0.168065
0.165232
0.162625
0.160251
0.158125
0.156268
0.154758
0.153542
0.152726
0.152398
0.152695
0.161636
0.17227
0.184831
0.199635
0.217094
0.237749
0.262301
0.291652
0.326953
0.369653
0.421688
0.485262
0.56214
0.652795
0.754831
0.861358
0.961339
1.04368
1.10277
1.14021
1.16166
1.17301
1.1787
1.18145
1.18275
1.18334
1.18361
1.18373
1.18378
1.1838
1.18381
1.18382
1.18382
1.18382
1.18382
1.18382
1.18382
1.18382
0.658526
0.6585
0.658456
0.658382
0.658258
0.658054
0.657718
0.657172
0.656295
0.654907
0.652749
0.649463
0.644581
0.637537
0.62772
0.614581
0.597779
0.577337
0.553727
0.527819
0.500709
0.4735
0.447109
0.422182
0.399083
0.377949
0.358759
0.341398
0.325703
0.311493
0.298595
0.286848
0.276111
0.266265
0.257209
0.248854
0.241087
0.233839
0.227058
0.220699
0.214723
0.209097
0.203795
0.198794
0.194074
0.189619
0.185416
0.181455
0.177728
0.174228
0.170951
0.167897
0.165068
0.162468
0.160108
0.158005
0.156191
0.154735
0.153602
0.152921
0.152814
0.153489
0.162761
0.17376
0.186725
0.201985
0.219973
0.241252
0.266552
0.296809
0.333211
0.377259
0.430951
0.496448
0.575353
0.667793
0.770778
0.876751
0.974442
1.05337
1.10903
1.14382
1.16357
1.17396
1.17915
1.18166
1.18284
1.18338
1.18363
1.18374
1.18379
1.18381
1.18382
1.18382
1.18382
1.18382
1.18382
1.18382
1.18382
1.18382
0.658526
0.6585
0.658456
0.658382
0.65826
0.658057
0.657723
0.65718
0.656308
0.654929
0.652785
0.649519
0.644666
0.637663
0.627901
0.614827
0.598097
0.577728
0.554181
0.528318
0.501231
0.474023
0.447616
0.422658
0.39952
0.378343
0.35911
0.341707
0.325972
0.311725
0.298792
0.287013
0.276246
0.266372
0.25729
0.24891
0.24112
0.233851
0.227049
0.22067
0.214676
0.209033
0.203714
0.198698
0.193964
0.189496
0.185283
0.181312
0.177577
0.174071
0.170792
0.167738
0.164911
0.162318
0.159969
0.157882
0.156098
0.154673
0.153582
0.152958
0.152928
0.154453
0.163989
0.17528
0.188581
0.204233
0.222685
0.244522
0.270498
0.301581
0.338991
0.384282
0.439501
0.506751
0.587476
0.681465
0.785172
0.890462
0.985934
1.06174
1.11437
1.14688
1.16518
1.17476
1.17953
1.18184
1.18292
1.18342
1.18364
1.18374
1.18379
1.18381
1.18382
1.18382
1.18382
1.18382
1.18382
1.18382
1.18382
1.18382
0.658526
0.6585
0.658456
0.658383
0.658261
0.658059
0.657727
0.657187
0.65632
0.654949
0.652816
0.649569
0.644742
0.637774
0.628057
0.615038
0.598369
0.578059
0.554562
0.528732
0.501661
0.474449
0.448024
0.423038
0.399865
0.378651
0.359381
0.341942
0.326172
0.311894
0.298932
0.287125
0.276334
0.266436
0.257332
0.248932
0.241124
0.233837
0.227019
0.220624
0.214614
0.208957
0.203626
0.198597
0.193852
0.189374
0.185152
0.181175
0.177434
0.173925
0.170643
0.167589
0.164764
0.162175
0.159833
0.157754
0.155982
0.154568
0.153484
0.152859
0.152807
0.155532
0.165257
0.176779
0.190358
0.206344
0.225203
0.247534
0.274116
0.305941
0.344263
0.390683
0.447282
0.516108
0.598453
0.693776
0.798016
0.902548
0.995925
1.06892
1.11892
1.14947
1.16654
1.17544
1.17986
1.18199
1.18299
1.18345
1.18366
1.18375
1.18379
1.18381
1.18382
1.18382
1.18382
1.18382
1.18382
1.18382
1.18382
1.18382
0.658526
0.6585
0.658457
0.658384
0.658262
0.658061
0.657731
0.657194
0.656331
0.654966
0.652844
0.649612
0.644807
0.637869
0.628191
0.615217
0.598597
0.578335
0.554876
0.529072
0.50201
0.474793
0.44835
0.423338
0.400134
0.378888
0.359586
0.342116
0.326318
0.312013
0.299027
0.287199
0.276386
0.26647
0.257348
0.248932
0.241108
0.233807
0.226974
0.220567
0.214545
0.208877
0.203535
0.198496
0.193743
0.189258
0.185029
0.181047
0.177302
0.17379
0.170508
0.167454
0.164632
0.162046
0.159709
0.157636
0.155872
0.154466
0.153386
0.152764
0.152711
0.156564
0.166454
0.178175
0.191996
0.208277
0.227493
0.250264
0.277384
0.309873
0.34901
0.396445
0.454286
0.524519
0.608286
0.704742
0.809361
0.9131
1.00454
1.07504
1.12275
1.15164
1.16768
1.176
1.18013
1.18211
1.18305
1.18347
1.18367
1.18376
1.18379
1.18381
1.18382
1.18382
1.18382
1.18382
1.18382
1.18382
1.18382
1.18382
0.658526
0.6585
0.658457
0.658385
0.658264
0.658063
0.657734
0.657199
0.65634
0.654981
0.652868
0.649648
0.644862
0.637949
0.628303
0.615366
0.598786
0.578561
0.555133
0.529348
0.502291
0.475068
0.448607
0.423572
0.400342
0.379068
0.359739
0.342244
0.326422
0.312095
0.299089
0.287243
0.276413
0.266481
0.257346
0.248916
0.24108
0.233767
0.226923
0.220505
0.214474
0.208797
0.203447
0.198401
0.193641
0.189151
0.184918
0.180932
0.177185
0.173672
0.17039
0.167338
0.164518
0.161936
0.159604
0.157539
0.155784
0.154383
0.153311
0.152694
0.152645
0.157487
0.167528
0.179429
0.193464
0.210004
0.229537
0.252694
0.28029
0.313365
0.353223
0.401564
0.460509
0.531981
0.616985
0.714393
0.819267
0.922223
1.0119
1.08022
1.12597
1.15345
1.16863
1.17647
1.18035
1.18222
1.18309
1.1835
1.18368
1.18376
1.18379
1.18381
1.18382
1.18382
1.18382
1.18382
1.18382
1.18382
1.18382
1.18382
0.658526
0.658501
0.658457
0.658385
0.658265
0.658065
0.657737
0.657204
0.656348
0.654994
0.652888
0.649679
0.644908
0.638016
0.628395
0.615489
0.598941
0.578745
0.55534
0.529569
0.502515
0.475284
0.448808
0.423752
0.4005
0.379203
0.359851
0.342335
0.326494
0.31215
0.299127
0.287266
0.276423
0.266479
0.257332
0.248891
0.241045
0.233722
0.226871
0.220444
0.214406
0.208722
0.203366
0.198315
0.19355
0.189056
0.18482
0.180832
0.177084
0.173571
0.17029
0.16724
0.164424
0.161848
0.159522
0.157462
0.155715
0.154322
0.153257
0.152646
0.152601
0.158281
0.168461
0.180522
0.194747
0.211513
0.231321
0.254815
0.282827
0.316415
0.356908
0.406043
0.465954
0.538505
0.624572
0.722775
0.827813
0.930022
1.01813
1.08456
1.12866
1.15496
1.16942
1.17686
1.18054
1.1823
1.18313
1.18351
1.18369
1.18376
1.1838
1.18381
1.18382
1.18382
1.18382
1.18382
1.18382
1.18382
1.18382
1.18382
0.658526
0.658501
0.658458
0.658386
0.658265
0.658066
0.657739
0.657208
0.656355
0.655004
0.652904
0.649704
0.644945
0.63807
0.62847
0.615588
0.599065
0.578893
0.555506
0.529744
0.502691
0.475452
0.448963
0.42389
0.400618
0.379302
0.359932
0.342399
0.326542
0.312184
0.299148
0.287275
0.276422
0.266467
0.257311
0.248863
0.241009
0.233679
0.22682
0.220388
0.214343
0.208655
0.203294
0.198239
0.193471
0.188974
0.184737
0.180748
0.177
0.173488
0.170209
0.167162
0.16435
0.161779
0.159458
0.157405
0.155666
0.15428
0.153221
0.152616
0.152577
0.158951
0.169255
0.181457
0.195846
0.212809
0.232855
0.25664
0.28501
0.319041
0.360081
0.409903
0.470645
0.544121
0.631092
0.729949
0.835084
0.936605
1.02335
1.08817
1.13087
1.1562
1.17007
1.17718
1.18069
1.18238
1.18317
1.18353
1.18369
1.18377
1.1838
1.18381
1.18382
1.18382
1.18382
1.18382
1.18382
1.18382
1.18382
1.18382
0.658526
0.658501
0.658458
0.658386
0.658266
0.658067
0.657741
0.657211
0.65636
0.655013
0.652917
0.649725
0.644976
0.638113
0.62853
0.615667
0.599164
0.579009
0.555635
0.52988
0.502827
0.475581
0.449081
0.423993
0.400706
0.379375
0.35999
0.342443
0.326574
0.312204
0.299158
0.287276
0.276414
0.266452
0.257289
0.248834
0.240974
0.233639
0.226775
0.220338
0.21429
0.208597
0.203234
0.198176
0.193406
0.188908
0.184669
0.180681
0.176934
0.173424
0.170147
0.167104
0.164296
0.161729
0.159413
0.157365
0.155633
0.154253
0.1532
0.152598
0.152566
0.159506
0.16992
0.182244
0.196774
0.213904
0.234151
0.258182
0.286855
0.32126
0.362763
0.413167
0.474612
0.548867
0.636591
0.735981
0.841166
0.942076
1.02765
1.09113
1.13268
1.15721
1.17059
1.17744
1.18082
1.18243
1.18319
1.18354
1.1837
1.18377
1.1838
1.18381
1.18382
1.18382
1.18382
1.18382
1.18382
1.18382
1.18382
1.18382
0.658526
0.658501
0.658458
0.658386
0.658267
0.658068
0.657743
0.657214
0.656364
0.655019
0.652928
0.649741
0.645
0.638148
0.628577
0.615729
0.59924
0.579099
0.555735
0.529984
0.50293
0.475679
0.449169
0.42407
0.40077
0.379426
0.36003
0.342473
0.326594
0.312215
0.299162
0.287272
0.276404
0.266437
0.257269
0.248809
0.240945
0.233605
0.226738
0.220298
0.214247
0.208551
0.203186
0.198126
0.193355
0.188857
0.184618
0.18063
0.176885
0.173377
0.170103
0.167063
0.164259
0.161696
0.159385
0.157342
0.155613
0.154234
0.153177
0.152564
0.152507
0.159961
0.170469
0.182895
0.197542
0.214811
0.235223
0.259457
0.288379
0.323092
0.364976
0.415859
0.477882
0.552777
0.641114
0.740928
0.846133
0.946521
1.03112
1.0935
1.13412
1.15801
1.17101
1.17765
1.18091
1.18248
1.18321
1.18355
1.1837
1.18377
1.1838
1.18381
1.18382
1.18382
1.18382
1.18382
1.18382
1.18382
1.18382
1.18382
0.658526
0.658501
0.658458
0.658386
0.658267
0.658069
0.657744
0.657216
0.656367
0.655025
0.652936
0.649753
0.645018
0.638174
0.628613
0.615775
0.599298
0.579167
0.55581
0.530062
0.503006
0.47575
0.449233
0.424125
0.400816
0.379463
0.360058
0.342492
0.326606
0.312221
0.299162
0.287268
0.276395
0.266424
0.257252
0.248789
0.240922
0.23358
0.22671
0.220268
0.214214
0.208518
0.20315
0.198091
0.193319
0.188821
0.184583
0.180596
0.176853
0.173347
0.170076
0.167039
0.164239
0.161681
0.159374
0.157335
0.155611
0.154235
0.153179
0.152564
0.152505
0.160319
0.170906
0.183417
0.198159
0.215538
0.236083
0.260476
0.289596
0.324552
0.366739
0.418001
0.480482
0.55588
0.644696
0.744834
0.85004
0.950003
1.03384
1.09535
1.13525
1.15863
1.17133
1.17781
1.18099
1.18252
1.18323
1.18356
1.18371
1.18377
1.1838
1.18381
1.18382
1.18382
1.18382
1.18382
1.18382
1.18382
1.18382
1.18382
0.658526
0.658501
0.658458
0.658387
0.658267
0.65807
0.657745
0.657217
0.65637
0.655028
0.652942
0.649762
0.645031
0.638192
0.628638
0.615809
0.599339
0.579215
0.555863
0.530117
0.50306
0.4758
0.449278
0.424163
0.400847
0.379487
0.360076
0.342505
0.326614
0.312224
0.299162
0.287263
0.276388
0.266414
0.25724
0.248776
0.240906
0.233563
0.226691
0.220248
0.214193
0.208496
0.203128
0.198068
0.193297
0.188799
0.184562
0.180577
0.176835
0.173332
0.170064
0.167031
0.164235
0.161681
0.159379
0.157344
0.155624
0.154251
0.153195
0.152575
0.152506
0.160585
0.171237
0.183815
0.198631
0.216093
0.236737
0.26125
0.290516
0.325654
0.368065
0.41961
0.48243
0.558199
0.647366
0.747736
0.85293
0.952566
1.03583
1.09671
1.13607
1.15909
1.17157
1.17792
1.18105
1.18254
1.18324
1.18356
1.18371
1.18377
1.1838
1.18381
1.18382
1.18382
1.18382
1.18382
1.18382
1.18382
1.18382
1.18382
0.658526
0.658501
0.658458
0.658387
0.658267
0.65807
0.657745
0.657218
0.656371
0.655031
0.652946
0.649768
0.645039
0.638204
0.628655
0.61583
0.599366
0.579246
0.555897
0.530152
0.503095
0.475832
0.449306
0.424187
0.400867
0.379503
0.360087
0.342512
0.326618
0.312226
0.299161
0.287261
0.276384
0.266408
0.257233
0.248768
0.240898
0.233553
0.226681
0.220237
0.214182
0.208484
0.203117
0.198057
0.193286
0.188789
0.184553
0.18057
0.17683
0.173329
0.170064
0.167034
0.164242
0.161692
0.159394
0.157364
0.155647
0.154275
0.153217
0.152592
0.152509
0.160761
0.171464
0.184091
0.198958
0.216478
0.237188
0.261781
0.291144
0.326401
0.36896
0.420691
0.483734
0.559747
0.64914
0.749654
0.85483
0.95424
1.03712
1.09758
1.1366
1.15939
1.17172
1.178
1.18108
1.18256
1.18325
1.18357
1.18371
1.18377
1.1838
1.18381
1.18382
1.18382
1.18382
1.18382
1.18382
1.18382
1.18382
1.18382
0.658526
0.658501
0.658458
0.658387
0.658268
0.65807
0.657746
0.657218
0.656372
0.655032
0.652947
0.64977
0.645043
0.63821
0.628662
0.61584
0.599378
0.579261
0.555912
0.530168
0.503111
0.475847
0.449319
0.424198
0.400876
0.37951
0.360092
0.342516
0.32662
0.312227
0.29916
0.287259
0.276381
0.266405
0.25723
0.248765
0.240895
0.23355
0.226678
0.220234
0.214179
0.208481
0.203113
0.198054
0.193283
0.188787
0.184552
0.18057
0.176832
0.173333
0.17007
0.167043
0.164253
0.161706
0.159411
0.157383
0.155669
0.154298
0.153239
0.152608
0.152512
0.160849
0.171584
0.18424
0.199135
0.216683
0.237426
0.262057
0.291467
0.326781
0.369411
0.421231
0.484378
0.560504
0.650001
0.750578
0.855737
0.955031
1.03772
1.09799
1.13685
1.15952
1.1718
1.17804
1.1811
1.18257
1.18325
1.18357
1.18371
1.18377
1.1838
1.18381
1.18382
1.18382
1.18382
1.18382
1.18382
1.18382
1.18382
1.18382
0.658526
0.658501
0.658458
0.658387
0.658268
0.65807
0.657746
0.657218
0.656372
0.655032
0.652947
0.64977
0.645043
0.63821
0.628662
0.61584
0.599378
0.57926
0.555912
0.530168
0.50311
0.475847
0.449319
0.424198
0.400876
0.379509
0.360092
0.342516
0.32662
0.312227
0.29916
0.287259
0.276381
0.266405
0.25723
0.248765
0.240895
0.23355
0.226678
0.220234
0.214179
0.208481
0.203113
0.198054
0.193283
0.188787
0.184552
0.18057
0.176832
0.173333
0.17007
0.167043
0.164253
0.161706
0.159411
0.157383
0.155669
0.154298
0.153239
0.152608
0.152512
0.160849
0.171584
0.18424
0.199135
0.216683
0.237426
0.262057
0.291467
0.326781
0.369411
0.421231
0.484378
0.560504
0.650002
0.750578
0.855737
0.955032
1.03772
1.09799
1.13685
1.15952
1.1718
1.17804
1.1811
1.18257
1.18325
1.18357
1.18371
1.18377
1.1838
1.18381
1.18382
1.18382
1.18382
1.18382
1.18382
1.18382
1.18382
1.18382
0.658526
0.658501
0.658458
0.658387
0.658267
0.65807
0.657745
0.657218
0.656371
0.655031
0.652946
0.649768
0.645039
0.638204
0.628654
0.61583
0.599365
0.579245
0.555896
0.530151
0.503094
0.475831
0.449305
0.424186
0.400866
0.379502
0.360087
0.342512
0.326618
0.312226
0.29916
0.28726
0.276383
0.266408
0.257233
0.248768
0.240898
0.233553
0.226681
0.220237
0.214182
0.208484
0.203117
0.198057
0.193286
0.188789
0.184553
0.180569
0.17683
0.173329
0.170064
0.167034
0.164242
0.161692
0.159394
0.157363
0.155647
0.154275
0.153217
0.152592
0.152509
0.160762
0.171464
0.184092
0.198959
0.216479
0.237189
0.261781
0.291144
0.326401
0.368961
0.420692
0.483734
0.559747
0.649141
0.749655
0.85483
0.95424
1.03712
1.09758
1.1366
1.15939
1.17172
1.178
1.18108
1.18256
1.18325
1.18357
1.18371
1.18377
1.1838
1.18381
1.18382
1.18382
1.18382
1.18382
1.18382
1.18382
1.18382
1.18382
0.658526
0.658501
0.658458
0.658387
0.658267
0.65807
0.657745
0.657217
0.65637
0.655028
0.652942
0.649762
0.645031
0.638192
0.628638
0.615808
0.599338
0.579214
0.555861
0.530115
0.503059
0.475799
0.449276
0.424162
0.400846
0.379486
0.360075
0.342504
0.326613
0.312224
0.299161
0.287263
0.276387
0.266413
0.25724
0.248775
0.240906
0.233562
0.226691
0.220247
0.214193
0.208495
0.203128
0.198068
0.193297
0.188799
0.184562
0.180577
0.176835
0.173332
0.170064
0.167031
0.164235
0.161681
0.159379
0.157344
0.155624
0.154251
0.153195
0.152575
0.152506
0.160585
0.171237
0.183815
0.198631
0.216094
0.236738
0.261251
0.290517
0.325654
0.368065
0.41961
0.48243
0.5582
0.647367
0.747736
0.852931
0.952566
1.03583
1.09671
1.13607
1.15909
1.17157
1.17792
1.18105
1.18254
1.18324
1.18356
1.18371
1.18377
1.1838
1.18381
1.18382
1.18382
1.18382
1.18382
1.18382
1.18382
1.18382
1.18382
0.658526
0.658501
0.658458
0.658386
0.658267
0.658069
0.657744
0.657216
0.656367
0.655024
0.652936
0.649753
0.645017
0.638173
0.628612
0.615774
0.599297
0.579165
0.555808
0.53006
0.503004
0.475748
0.449231
0.424123
0.400814
0.379461
0.360056
0.342491
0.326605
0.31222
0.299161
0.287267
0.276394
0.266423
0.257251
0.248789
0.240921
0.233579
0.22671
0.220267
0.214214
0.208517
0.20315
0.19809
0.193319
0.18882
0.184583
0.180596
0.176853
0.173347
0.170076
0.167039
0.164239
0.16168
0.159374
0.157335
0.155611
0.154235
0.153179
0.152564
0.152505
0.160319
0.170906
0.183417
0.19816
0.215539
0.236083
0.260477
0.289596
0.324553
0.36674
0.418002
0.480483
0.555881
0.644697
0.744835
0.850041
0.950003
1.03384
1.09535
1.13525
1.15863
1.17133
1.17781
1.18099
1.18252
1.18323
1.18356
1.18371
1.18377
1.1838
1.18381
1.18382
1.18382
1.18382
1.18382
1.18382
1.18382
1.18382
1.18382
0.658526
0.658501
0.658458
0.658386
0.658267
0.658068
0.657743
0.657214
0.656364
0.655019
0.652928
0.64974
0.644999
0.638147
0.628576
0.615727
0.599239
0.579097
0.555733
0.529982
0.502927
0.475676
0.449166
0.424067
0.400768
0.379424
0.360028
0.342471
0.326592
0.312214
0.299161
0.287271
0.276403
0.266436
0.257268
0.248808
0.240944
0.233605
0.226738
0.220297
0.214246
0.208551
0.203185
0.198126
0.193355
0.188856
0.184618
0.18063
0.176885
0.173377
0.170103
0.167063
0.164259
0.161696
0.159385
0.157342
0.155613
0.154234
0.153177
0.152564
0.152507
0.159962
0.170469
0.182896
0.197543
0.214812
0.235224
0.259458
0.28838
0.323093
0.364977
0.415861
0.477884
0.552778
0.641116
0.74093
0.846134
0.946522
1.03112
1.0935
1.13412
1.15801
1.17101
1.17765
1.18091
1.18248
1.18321
1.18355
1.1837
1.18377
1.1838
1.18381
1.18382
1.18382
1.18382
1.18382
1.18382
1.18382
1.18382
1.18382
0.658526
0.658501
0.658458
0.658386
0.658266
0.658067
0.657741
0.657211
0.65636
0.655013
0.652917
0.649724
0.644975
0.638113
0.628529
0.615666
0.599162
0.579007
0.555632
0.529877
0.502823
0.475578
0.449078
0.42399
0.400703
0.379372
0.359988
0.342441
0.326572
0.312202
0.299157
0.287274
0.276413
0.266451
0.257288
0.248833
0.240973
0.233638
0.226775
0.220338
0.214289
0.208597
0.203233
0.198175
0.193405
0.188907
0.184669
0.18068
0.176933
0.173423
0.170147
0.167104
0.164296
0.161728
0.159413
0.157365
0.155633
0.154253
0.1532
0.152598
0.152566
0.159507
0.169921
0.182245
0.196775
0.213905
0.234152
0.258183
0.286856
0.321262
0.362765
0.413169
0.474614
0.548869
0.636593
0.735983
0.841167
0.942078
1.02765
1.09113
1.13268
1.15721
1.17059
1.17744
1.18082
1.18243
1.18319
1.18354
1.1837
1.18377
1.1838
1.18381
1.18382
1.18382
1.18382
1.18382
1.18382
1.18382
1.18382
1.18382
0.658526
0.658501
0.658458
0.658386
0.658265
0.658066
0.657739
0.657208
0.656354
0.655004
0.652904
0.649704
0.644945
0.638069
0.628469
0.615586
0.599063
0.57889
0.555502
0.52974
0.502687
0.475448
0.44896
0.423887
0.400615
0.379299
0.359929
0.342396
0.32654
0.312182
0.299146
0.287273
0.27642
0.266466
0.25731
0.248862
0.241008
0.233678
0.226819
0.220387
0.214343
0.208654
0.203293
0.198238
0.19347
0.188974
0.184736
0.180747
0.177
0.173488
0.170209
0.167162
0.16435
0.161779
0.159458
0.157405
0.155665
0.15428
0.153221
0.152616
0.152577
0.158951
0.169256
0.181458
0.195847
0.212811
0.232856
0.256641
0.285012
0.319043
0.360083
0.409905
0.470647
0.544124
0.631095
0.729952
0.835086
0.936608
1.02335
1.08817
1.13087
1.1562
1.17007
1.17718
1.18069
1.18238
1.18317
1.18353
1.18369
1.18377
1.1838
1.18381
1.18382
1.18382
1.18382
1.18382
1.18382
1.18382
1.18382
1.18382
0.658526
0.658501
0.658457
0.658385
0.658265
0.658065
0.657737
0.657204
0.656348
0.654994
0.652887
0.649678
0.644907
0.638015
0.628393
0.615487
0.598938
0.578742
0.555337
0.529565
0.502511
0.475279
0.448804
0.423748
0.400496
0.379199
0.359848
0.342332
0.326491
0.312147
0.299125
0.287264
0.276421
0.266477
0.25733
0.24889
0.241044
0.233721
0.226869
0.220443
0.214405
0.208721
0.203365
0.198314
0.193549
0.189055
0.184819
0.180831
0.177084
0.173571
0.17029
0.16724
0.164424
0.161847
0.159521
0.157462
0.155715
0.154322
0.153257
0.152646
0.152601
0.158282
0.168462
0.180523
0.194748
0.211515
0.231322
0.254817
0.282829
0.316417
0.35691
0.406046
0.465957
0.538508
0.624576
0.722779
0.827816
0.930025
1.01813
1.08456
1.12866
1.15496
1.16942
1.17686
1.18054
1.1823
1.18313
1.18351
1.18369
1.18376
1.1838
1.18381
1.18382
1.18382
1.18382
1.18382
1.18382
1.18382
1.18382
1.18382
0.658526
0.6585
0.658457
0.658385
0.658264
0.658063
0.657734
0.657199
0.65634
0.654981
0.652867
0.649648
0.644861
0.637948
0.628301
0.615364
0.598783
0.578557
0.555129
0.529343
0.502287
0.475063
0.448603
0.423567
0.400337
0.379064
0.359735
0.34224
0.326419
0.312093
0.299087
0.28724
0.276411
0.266479
0.257344
0.248915
0.241078
0.233765
0.226922
0.220504
0.214473
0.208796
0.203446
0.1984
0.19364
0.18915
0.184917
0.180931
0.177184
0.173672
0.170389
0.167337
0.164517
0.161936
0.159604
0.157539
0.155783
0.154383
0.153311
0.152694
0.152645
0.157488
0.167529
0.17943
0.193465
0.210006
0.229539
0.252696
0.280293
0.313368
0.353226
0.401567
0.460513
0.531985
0.616989
0.714398
0.819272
0.922227
1.0119
1.08022
1.12597
1.15346
1.16863
1.17647
1.18035
1.18222
1.18309
1.1835
1.18368
1.18376
1.18379
1.18381
1.18382
1.18382
1.18382
1.18382
1.18382
1.18382
1.18382
1.18382
0.658526
0.6585
0.658457
0.658384
0.658262
0.658061
0.657731
0.657193
0.656331
0.654966
0.652844
0.649611
0.644806
0.637868
0.628189
0.615215
0.598594
0.57833
0.554871
0.529067
0.502005
0.474788
0.448345
0.423332
0.400129
0.378883
0.359582
0.342113
0.326315
0.31201
0.299024
0.287196
0.276384
0.266468
0.257346
0.24893
0.241107
0.233805
0.226973
0.220565
0.214544
0.208875
0.203534
0.198495
0.193742
0.189257
0.185028
0.181046
0.177302
0.17379
0.170507
0.167454
0.164631
0.162046
0.159708
0.157636
0.155872
0.154466
0.153386
0.152763
0.15271
0.156565
0.166455
0.178177
0.191998
0.208279
0.227496
0.250266
0.277387
0.309877
0.349014
0.396449
0.454291
0.524525
0.608292
0.704748
0.809367
0.913105
1.00454
1.07504
1.12276
1.15164
1.16768
1.176
1.18013
1.18211
1.18305
1.18347
1.18367
1.18376
1.18379
1.18381
1.18382
1.18382
1.18382
1.18382
1.18382
1.18382
1.18382
1.18382
0.658526
0.6585
0.658456
0.658383
0.658261
0.658059
0.657727
0.657187
0.65632
0.654949
0.652816
0.649568
0.644741
0.637773
0.628055
0.615035
0.598365
0.578054
0.554556
0.528726
0.501655
0.474443
0.448018
0.423032
0.399859
0.378646
0.359376
0.341938
0.326168
0.31189
0.298929
0.287123
0.276331
0.266434
0.25733
0.24893
0.241122
0.233835
0.227017
0.220622
0.214612
0.208956
0.203624
0.198596
0.19385
0.189373
0.185151
0.181174
0.177433
0.173924
0.170642
0.167588
0.164763
0.162174
0.159832
0.157754
0.155981
0.154568
0.153484
0.152858
0.152807
0.155534
0.165259
0.176781
0.19036
0.206347
0.225206
0.247537
0.27412
0.305945
0.344267
0.390689
0.447287
0.516115
0.59846
0.693784
0.798024
0.902555
0.995931
1.06892
1.11892
1.14947
1.16654
1.17544
1.17986
1.18199
1.18299
1.18345
1.18366
1.18375
1.18379
1.18381
1.18382
1.18382
1.18382
1.18382
1.18382
1.18382
1.18382
1.18382
0.658526
0.6585
0.658456
0.658382
0.65826
0.658056
0.657723
0.65718
0.656308
0.654929
0.652784
0.649518
0.644665
0.637662
0.627898
0.614823
0.598093
0.577723
0.554175
0.528311
0.501224
0.474016
0.447609
0.422652
0.399514
0.378338
0.359105
0.341703
0.325968
0.311721
0.298788
0.287009
0.276243
0.266369
0.257287
0.248908
0.241118
0.233848
0.227047
0.220668
0.214674
0.209031
0.203713
0.198696
0.193962
0.189495
0.185281
0.181311
0.177576
0.174071
0.170791
0.167737
0.16491
0.162317
0.159968
0.157882
0.156098
0.154673
0.153581
0.152958
0.152927
0.154455
0.163991
0.175283
0.188583
0.204235
0.222688
0.244525
0.270502
0.301585
0.338996
0.384288
0.439508
0.506758
0.587484
0.681474
0.785181
0.890471
0.985941
1.06174
1.11438
1.14688
1.16518
1.17476
1.17954
1.18184
1.18292
1.18342
1.18364
1.18374
1.18379
1.18381
1.18382
1.18382
1.18382
1.18382
1.18382
1.18382
1.18382
1.18382
0.658526
0.6585
0.658456
0.658382
0.658258
0.658054
0.657718
0.657172
0.656295
0.654907
0.652749
0.649463
0.64458
0.637535
0.627718
0.614577
0.597774
0.577332
0.553721
0.527812
0.500702
0.473492
0.447102
0.422175
0.399076
0.377943
0.358754
0.341393
0.325698
0.311489
0.298591
0.286844
0.276108
0.266262
0.257207
0.248852
0.241085
0.233837
0.227056
0.220697
0.214721
0.209095
0.203794
0.198792
0.194072
0.189618
0.185415
0.181454
0.177727
0.174227
0.17095
0.167896
0.165067
0.162467
0.160108
0.158005
0.156191
0.154735
0.153602
0.152921
0.152815
0.15349
0.162763
0.173762
0.186728
0.201988
0.219976
0.241256
0.266556
0.296814
0.333217
0.377266
0.430959
0.496457
0.575363
0.667804
0.770789
0.876762
0.974452
1.05337
1.10903
1.14382
1.16357
1.17396
1.17915
1.18166
1.18284
1.18338
1.18363
1.18374
1.18379
1.18381
1.18382
1.18382
1.18382
1.18382
1.18382
1.18382
1.18382
1.18382
0.658526
0.6585
0.658455
0.658381
0.658257
0.658051
0.657713
0.657163
0.656281
0.654883
0.65271
0.649401
0.644485
0.637393
0.627513
0.614295
0.597404
0.576874
0.553185
0.527217
0.500073
0.472857
0.446482
0.421587
0.39853
0.377444
0.358304
0.340992
0.325343
0.311178
0.298321
0.286613
0.275912
0.2661
0.257077
0.248751
0.241012
0.233791
0.227034
0.220698
0.214744
0.209141
0.203859
0.198877
0.194174
0.189735
0.185547
0.181598
0.177881
0.174388
0.171116
0.168064
0.165231
0.162624
0.16025
0.158124
0.156267
0.154758
0.153542
0.152727
0.152399
0.152696
0.161638
0.172272
0.184834
0.199638
0.217098
0.237754
0.262306
0.291658
0.32696
0.369661