/*--------------------------------*- C++ -*----------------------------------*\
  =========                 |
  \\      /  F ield         | OpenFOAM: The Open Source CFD Toolbox
   \\    /   O peration     | Website:  https://openfoam.org
    \\  /    A nd           | Version:  8
     \\/     M anipulation  |
\*---------------------------------------------------------------------------*/
FoamFile
{
    version     2.0;
    format      ascii;
    class       volScalarField;
    location    "620/fluid";
    object      T;
}
// * * * * * * * * * * * * * * * * * * * * * * * * * * * * * * * * * * * * * //

dimensions      [0 0 0 1 0 0 0];

internalField   nonuniform List<scalar> 
4000
(
293.004
293.017
293.039
293.076
293.137
293.239
293.406
293.68
294.123
294.83
295.945
297.673
300.299
304.199
309.839
317.754
328.494
342.547
360.261
381.779
407.028
435.753
467.588
502.127
538.983
577.819
618.366
660.413
703.804
748.414
794.146
840.908
888.608
937.141
986.389
1036.28
1086.83
1137.97
1189.59
1241.6
1293.88
1346.32
1398.82
1451.26
1503.51
1555.45
1606.94
1657.85
1708.03
1757.31
1805.54
1852.5
1897.98
1941.72
1983.41
2022.66
2059
2091.38
2119.15
2142.4
2158.96
2166.98
2160.82
2050.83
1933.73
1811.67
1686.43
1559.52
1432.22
1305.71
1181.1
1059.5
942.032
829.623
723.512
625.722
538.587
464.413
405.021
361.052
331.374
313.196
303.018
297.763
295.199
293.992
293.439
293.192
293.083
293.035
293.015
293.006
293.003
293.001
293
293
293
293
293
293
293.004
293.017
293.039
293.076
293.138
293.24
293.409
293.685
294.13
294.841
295.959
297.687
300.303
304.177
309.761
317.578
328.163
342.001
359.444
380.652
405.575
433.984
465.533
499.831
536.495
575.191
615.645
657.643
701.021
745.652
791.434
838.271
886.071
934.727
984.117
1034.16
1084.88
1136.2
1188.01
1240.22
1292.71
1345.37
1398.08
1450.74
1503.21
1555.37
1607.08
1658.2
1708.58
1758.06
1806.47
1853.61
1899.26
1943.16
1984.99
2024.38
2060.84
2093.31
2121.17
2144.5
2161.14
2169.21
2151.99
2040.71
1922.51
1799.46
1673.31
1545.54
1417.45
1290.22
1164.99
1042.9
925.146
812.668
706.909
610.072
524.584
452.735
396.14
355.021
327.768
311.297
302.129
297.377
295.041
293.931
293.416
293.183
293.079
293.034
293.014
293.006
293.003
293.001
293
293
293
293
293
293
293.004
293.017
293.039
293.076
293.138
293.241
293.411
293.688
294.136
294.849
295.969
297.696
300.307
304.162
309.708
317.454
327.927
341.604
358.833
379.782
404.414
432.517
463.763
497.776
534.185
572.662
612.937
654.796
698.074
742.646
788.405
835.257
883.108
931.852
981.364
1031.55
1082.45
1133.97
1186.01
1238.46
1291.22
1344.17
1397.19
1450.16
1502.96
1555.44
1607.47
1658.92
1709.62
1759.41
1808.12
1855.54
1901.46
1945.61
1987.67
2027.25
2063.89
2096.46
2124.38
2147.73
2164.27
2172.15
2135.65
2023.25
1903.9
1779.74
1652.58
1523.92
1395.11
1267.37
1141.9
1019.91
902.621
791.024
686.773
592.164
509.563
441.046
387.842
349.716
324.721
309.71
301.367
297.029
294.888
293.865
293.389
293.172
293.075
293.032
293.014
293.006
293.002
293.001
293
293
293
293
293
293
293.004
293.017
293.039
293.076
293.139
293.242
293.411
293.688
294.135
294.846
295.959
297.675
300.264
304.083
309.572
317.233
327.588
341.111
358.152
378.884
403.281
431.144
462.155
495.946
532.152
570.45
610.571
652.304
695.485
739.988
785.71
832.559
880.439
929.247
978.861
1029.18
1080.23
1131.95
1184.21
1236.92
1289.95
1343.2
1396.55
1449.86
1503
1555.84
1608.24
1660.05
1711.12
1761.26
1810.31
1858.06
1904.27
1948.69
1990.98
2030.76
2067.54
2100.11
2127.95
2151.16
2167.5
2175.06
2115.07
2001.81
1881.49
1756.38
1628.37
1499.05
1369.8
1241.91
1116.63
995.22
878.875
768.656
666.37
574.327
494.785
429.603
379.682
344.418
321.596
308.022
300.522
296.629
294.706
293.784
293.354
293.157
293.069
293.03
293.013
293.005
293.002
293.001
293
293
293
293
293
293
293.004
293.017
293.039
293.076
293.138
293.241
293.41
293.686
294.131
294.838
295.946
297.65
300.22
304.008
309.448
317.039
327.296
340.69
357.575
378.127
402.331
429.995
460.812
494.421
530.462
568.614
608.61
650.241
693.343
737.792
783.486
830.334
878.244
927.112
976.819
1027.26
1078.46
1130.36
1182.83
1235.78
1289.09
1342.64
1396.3
1449.94
1503.43
1556.63
1609.39
1661.57
1712.99
1763.48
1812.86
1860.92
1907.41
1952.06
1994.54
2034.46
2071.26
2103.65
2131.39
2154.44
2170.39
2177.07
2093.23
1979.37
1858.23
1732.29
1603.56
1473.73
1344.24
1216.45
1091.61
971.041
855.861
747.231
647.093
557.711
481.227
419.275
372.442
339.791
318.899
306.576
299.797
296.284
294.547
293.713
293.322
293.143
293.063
293.027
293.012
293.005
293.002
293.001
293
293
293
293
293
293
293.004
293.017
293.039
293.076
293.138
293.24
293.408
293.683
294.125
294.827
295.926
297.617
300.166
303.921
309.314
316.838
327.007
340.291
357.045
377.453
401.503
429.013
459.682
493.154
529.071
567.116
607.022
648.58
691.63
736.046
781.729
828.59
876.538
925.471
975.271
1025.83
1077.18
1129.25
1181.92
1235.11
1288.67
1342.49
1396.44
1450.39
1504.21
1557.75
1610.85
1663.36
1715.11
1765.92
1815.59
1863.91
1910.61
1955.43
1998.01
2037.94
2074.69
2106.87
2134.44
2157.15
2172.67
2178.72
2074.52
1959.32
1836.8
1709.68
1580.08
1449.71
1320.04
1192.42
1068.14
948.492
834.532
727.529
629.503
542.668
469.041
410.052
366.001
335.673
316.486
305.266
299.131
295.961
294.396
293.644
293.292
293.13
293.057
293.025
293.011
293.004
293.002
293.001
293
293
293
293
293
293
293.004
293.017
293.039
293.076
293.137
293.239
293.406
293.679
294.118
294.815
295.907
297.585
300.114
303.841
309.192
316.658
326.751
339.942
356.588
376.876
400.803
428.191
458.745
492.112
527.939
565.907
605.751
647.264
690.284
734.689
780.379
827.266
875.262
924.267
974.162
1024.84
1076.33
1128.56
1181.44
1234.83
1288.62
1342.69
1396.92
1451.16
1505.27
1559.11
1612.52
1665.34
1717.38
1768.46
1818.37
1866.88
1913.73
1958.62
2001.19
2040.98
2077.45
2108.91
2136.51
2158.18
2172.44
2177.04
2064.65
1944.45
1818.78
1689.66
1558.81
1427.77
1297.88
1170.45
1046.73
927.993
815.217
709.781
613.749
529.28
458.279
401.976
360.415
332.133
314.425
304.153
298.564
295.687
294.267
293.585
293.265
293.118
293.052
293.023
293.01
293.004
293.002
293.001
293
293
293
293
293
293
293.004
293.017
293.039
293.075
293.136
293.237
293.404
293.675
294.111
294.804
295.888
297.554
300.065
303.765
309.079
316.495
326.524
339.637
356.193
376.386
400.215
427.508
457.975
491.266
527.027
564.944
604.75
646.239
689.248
733.658
779.369
826.294
874.346
923.427
973.419
1024.21
1075.84
1128.24
1181.28
1234.87
1288.87
1343.18
1397.65
1452.14
1506.52
1560.63
1614.31
1667.39
1719.68
1770.98
1821.09
1869.76
1916.72
1961.63
2004.12
2043.7
2079.63
2110.4
2136.89
2156.64
2167.72
2166.92
2051.45
1928.77
1801.24
1670.82
1539.15
1407.68
1277.74
1150.59
1027.46
909.597
797.941
693.973
599.791
517.493
448.866
394.963
355.595
329.095
312.66
303.197
298.076
295.449
294.155
293.534
293.242
293.108
293.048
293.021
293.009
293.004
293.002
293.001
293
293
293
293
293
293
293.004
293.017
293.038
293.075
293.135
293.236
293.401
293.671
294.104
294.793
295.87
297.525
300.021
303.698
308.979
316.353
326.328
339.376
355.86
375.975
399.726
426.947
457.349
490.584
526.302
564.185
603.971
645.451
688.465
732.891
778.633
825.604
873.718
922.876
972.964
1023.87
1075.63
1128.17
1181.37
1235.14
1289.34
1343.85
1398.54
1453.26
1507.88
1562.22
1616.13
1669.43
1721.93
1773.44
1823.71
1872.51
1919.55
1964.5
2006.94
2046.39
2081.91
2112.29
2138.21
2157.15
2167.12
2154.4
2037.03
1912.91
1784.32
1653.16
1521.05
1389.42
1259.59
1132.79
1010.28
893.237
782.617
680.011
587.52
507.186
440.692
388.918
351.474
326.514
311.168
302.392
297.665
295.249
294.06
293.49
293.222
293.099
293.044
293.019
293.008
293.003
293.001
293.001
293
293
293
293
293
293
293.004
293.017
293.038
293.074
293.135
293.235
293.399
293.667
294.098
294.783
295.854
297.5
299.982
303.639
308.893
316.23
326.16
339.155
355.58
375.634
399.326
426.491
456.845
490.041
525.73
563.596
603.374
644.856
687.884
732.336
778.114
825.135
873.312
922.549
972.73
1023.74
1075.62
1128.29
1181.64
1235.57
1289.94
1344.64
1399.52
1454.44
1509.26
1563.81
1617.91
1671.41
1724.09
1775.75
1826.17
1875.08
1922.2
1967.19
2009.64
2049.05
2084.46
2114.69
2140.51
2159.47
2169.74
2140.34
2022.24
1897.47
1768.37
1636.87
1504.6
1373
1243.38
1117
995.097
878.834
769.198
667.834
576.857
498.264
433.647
383.742
347.968
324.33
309.911
301.714
297.319
295.08
293.98
293.453
293.205
293.092
293.04
293.018
293.008
293.003
293.001
293.001
293
293
293
293
293
293
293.004
293.017
293.038
293.074
293.134
293.234
293.397
293.664
294.093
294.774
295.84
297.478
299.948
303.588
308.82
316.127
326.02
338.972
355.35
375.355
399
426.124
456.444
489.614
525.286
563.143
602.923
644.416
687.463
731.944
777.763
824.835
873.074
922.386
972.651
1023.76
1075.74
1128.53
1182.02
1236.09
1290.62
1345.48
1400.52
1455.62
1510.61
1565.32
1619.6
1673.25
1726.08
1777.87
1828.4
1877.41
1924.6
1969.63
2012.09
2051.47
2086.8
2116.96
2142.74
2161.66
2171.92
2127.02
2008.43
1883.27
1753.89
1622.23
1489.94
1358.45
1229.09
1103.12
981.808
866.268
757.502
657.251
567.624
490.577
427.614
379.334
345.001
322.493
308.857
301.148
297.03
294.939
293.913
293.421
293.191
293.085
293.038
293.016
293.007
293.003
293.001
293.001
293
293
293
293
293
293
293.004
293.016
293.038
293.074
293.134
293.233
293.396
293.661
294.088
294.767
295.828
297.46
299.92
303.546
308.758
316.041
325.904
338.822
355.162
375.13
398.739
425.833
456.128
489.281
524.944
562.801
602.587
644.095
687.166
731.679
777.538
824.659
872.958
922.337
972.68
1023.87
1075.96
1128.86
1182.46
1236.66
1291.32
1346.31
1401.5
1456.74
1511.87
1566.73
1621.15
1674.92
1727.87
1779.77
1830.39
1879.46
1926.69
1971.74
2014.18
2053.52
2088.75
2118.85
2144.54
2163.37
2173.55
2115.24
1996.19
1870.7
1741.11
1609.36
1477.08
1345.74
1216.65
1091.09
970.317
855.403
747.404
648.137
559.699
484.005
422.481
375.606
342.505
320.956
307.978
300.676
296.79
294.821
293.857
293.396
293.18
293.08
293.035
293.015
293.007
293.003
293.001
293
293
293
293
293
293
293
293.004
293.016
293.038
293.074
293.133
293.232
293.394
293.659
294.084
294.76
295.818
297.444
299.896
303.511
308.708
315.971
325.81
338.699
355.01
374.949
398.532
425.603
455.882
489.025
524.685
562.545
602.342
643.867
686.962
731.506
777.404
824.572
872.924
922.365
972.778
1024.05
1076.22
1129.21
1182.92
1237.22
1291.99
1347.1
1402.41
1457.77
1513.02
1568
1622.52
1676.4
1729.44
1781.42
1832.09
1881.21
1928.46
1973.49
2015.9
2055.2
2090.35
2120.36
2145.94
2164.68
2174.76
2105.21
1985.67
1859.87
1730.09
1598.27
1466.05
1334.86
1206.02
1080.8
960.489
846.117
738.787
640.374
552.965
478.437
418.15
372.476
340.421
319.677
307.25
300.286
296.591
294.724
293.811
293.374
293.17
293.076
293.033
293.015
293.006
293.003
293.001
293
293
293
293
293
293
293
293.004
293.016
293.038
293.073
293.133
293.231
293.393
293.657
294.081
294.755
295.81
297.431
299.876
303.482
308.666
315.914
325.733
338.602
354.89
374.806
398.37
425.425
455.693
488.831
524.491
562.357
602.166
643.709
686.827
731.401
777.334
824.543
872.943
922.438
972.912
1024.25
1076.5
1129.57
1183.36
1237.75
1292.62
1347.83
1403.23
1458.69
1514.03
1569.1
1623.71
1677.67
1730.77
1782.8
1833.52
1882.65
1929.89
1974.91
2017.29
2056.54
2091.58
2121.5
2146.99
2165.65
2175.6
2096.83
1976.81
1850.7
1720.76
1588.89
1456.7
1325.63
1197
1072.1
952.181
838.275
731.521
633.837
547.306
473.772
414.535
369.874
338.696
318.623
306.651
299.966
296.428
294.645
293.773
293.357
293.162
293.072
293.032
293.014
293.006
293.003
293.001
293
293
293
293
293
293
293
293.004
293.016
293.038
293.073
293.132
293.231
293.392
293.655
294.079
294.751
295.803
297.421
299.861
303.459
308.634
315.868
325.673
338.524
354.795
374.695
398.244
425.288
455.549
488.685
524.348
562.221
602.042
643.602
686.741
731.341
777.305
824.549
872.991
922.533
973.058
1024.46
1076.76
1129.9
1183.76
1238.23
1293.17
1348.45
1403.94
1459.47
1514.89
1570.02
1624.7
1678.71
1731.86
1783.92
1834.65
1883.78
1931.02
1976.02
2018.36
2057.55
2092.51
2122.35
2147.76
2166.35
2176.16
2089.93
1969.46
1843.06
1712.97
1581.04
1448.89
1317.93
1189.49
1064.85
945.268
831.754
725.486
628.417
542.621
469.92
411.558
367.739
337.285
317.764
306.165
299.707
296.296
294.58
293.742
293.342
293.155
293.069
293.031
293.013
293.006
293.002
293.001
293
293
293
293
293
293
293
293.004
293.016
293.037
293.073
293.132
293.23
293.391
293.654
294.076
294.748
295.798
297.413
299.848
303.441
308.608
315.833
325.626
338.465
354.723
374.61
398.149
425.185
455.442
488.578
524.244
562.125
601.957
643.531
686.689
731.31
777.3
824.575
873.05
922.63
973.196
1024.64
1076.99
1130.18
1184.1
1238.62
1293.62
1348.97
1404.51
1460.1
1515.57
1570.76
1625.48
1679.53
1732.7
1784.77
1835.51
1884.64
1931.86
1976.83
2019.13
2058.27
2093.18
2123
2148.46
2167.2
2177.32
2084.32
1963.42
1836.78
1706.56
1574.6
1442.48
1311.63
1183.35
1058.94
939.639
826.451
720.584
624.02
538.828
466.807
409.158
366.022
336.154
317.077
305.776
299.5
296.191
294.529
293.718
293.331
293.15
293.067
293.03
293.013
293.006
293.002
293.001
293
293
293
293
293
293
293
293.004
293.016
293.037
293.073
293.132
293.23
293.391
293.653
294.075
294.745
295.794
297.406
299.839
303.427
308.588
315.806
325.591
338.42
354.668
374.547
398.078
425.11
455.364
488.5
524.17
562.058
601.899
643.485
686.658
731.297
777.307
824.606
873.107
922.715
973.313
1024.79
1077.18
1130.41
1184.37
1238.93
1293.98
1349.36
1404.95
1460.58
1516.09
1571.31
1626.05
1680.11
1733.3
1785.38
1836.11
1885.23
1932.42
1977.34
2019.59
2058.68
2093.52
2123.29
2148.73
2167.5
2177.63
2079.92
1958.64
1831.77
1701.44
1569.46
1437.39
1306.63
1178.5
1054.27
935.202
822.279
716.734
620.573
535.861
464.378
407.29
364.689
335.277
316.544
305.476
299.339
296.109
294.489
293.699
293.322
293.146
293.065
293.029
293.013
293.005
293.002
293.001
293
293
293
293
293
293
293
293.004
293.016
293.037
293.073
293.132
293.23
293.39
293.652
294.074
294.743
295.791
297.402
299.832
303.417
308.574
315.787
325.566
338.388
354.63
374.502
398.029
425.057
455.31
488.447
524.12
562.013
601.861
643.456
686.64
731.292
777.318
824.633
873.153
922.782
973.401
1024.9
1077.32
1130.57
1184.56
1239.15
1294.23
1349.64
1405.25
1460.91
1516.44
1571.67
1626.43
1680.5
1733.69
1785.76
1836.48
1885.56
1932.71
1977.58
2019.78
2058.8
2093.58
2123.32
2148.75
2167.56
2177.81
2076.66
1955.03
1827.96
1697.55
1565.56
1433.53
1302.86
1174.85
1050.77
931.891
819.173
713.877
618.022
533.671
462.59
405.919
363.713
334.637
316.155
305.255
299.222
296.05
294.46
293.685
293.316
293.143
293.064
293.028
293.012
293.005
293.002
293.001
293
293
293
293
293
293
293
293.004
293.016
293.037
293.073
293.132
293.229
293.39
293.652
294.073
294.742
295.789
297.399
299.828
303.411
308.565
315.774
325.549
338.368
354.605
374.474
397.997
425.024
455.276
488.414
524.089
561.985
601.838
643.44
686.631
731.291
777.326
824.652
873.184
922.825
973.457
1024.97
1077.4
1130.67
1184.67
1239.28
1294.37
1349.8
1405.43
1461.1
1516.64
1571.89
1626.64
1680.71
1733.89
1785.94
1836.63
1885.68
1932.79
1977.61
2019.74
2058.71
2093.44
2123.14
2148.58
2167.48
2177.9
2074.5
1952.55
1825.32
1694.85
1562.86
1430.88
1300.28
1172.37
1048.41
929.667
817.098
711.976
616.331
532.225
461.414
405.023
363.079
334.222
315.904
305.112
299.145
296.011
294.441
293.676
293.311
293.141
293.063
293.028
293.012
293.005
293.002
293.001
293
293
293
293
293
293
293
293.004
293.016
293.037
293.073
293.132
293.229
293.39
293.652
294.073
294.741
295.788
297.397
299.826
303.408
308.561
315.769
325.542
338.358
354.594
374.461
397.982
425.008
455.26
488.398
524.074
561.972
601.828
643.432
686.627
731.292
777.331
824.662
873.199
922.846
973.484
1025
1077.44
1130.72
1184.72
1239.34
1294.44
1349.87
1405.51
1461.18
1516.72
1571.96
1626.72
1680.78
1733.95
1785.98
1836.65
1885.66
1932.74
1977.52
2019.61
2058.53
2093.22
2122.9
2148.35
2167.32
2177.93
2073.43
1951.23
1823.9
1693.4
1561.42
1429.48
1298.94
1171.1
1047.22
928.55
816.066
711.04
615.507
531.526
460.851
404.596
362.78
334.028
315.787
305.046
299.11
295.993
294.432
293.672
293.309
293.14
293.063
293.028
293.012
293.005
293.002
293.001
293
293
293
293
293
293
293
293.004
293.016
293.037
293.073
293.132
293.229
293.39
293.652
294.073
294.741
295.788
297.397
299.826
303.408
308.561
315.769
325.542
338.358
354.594
374.461
397.983
425.008
455.261
488.399
524.075
561.973
601.828
643.433
686.627
731.292
777.332
824.662
873.2
922.846
973.484
1025
1077.44
1130.72
1184.72
1239.34
1294.44
1349.87
1405.51
1461.18
1516.72
1571.97
1626.72
1680.78
1733.95
1785.98
1836.65
1885.66
1932.74
1977.52
2019.61
2058.53
2093.22
2122.9
2148.35
2167.32
2177.93
2073.43
1951.23
1823.9
1693.4
1561.42
1429.48
1298.94
1171.1
1047.22
928.55
816.066
711.04
615.507
531.526
460.851
404.596
362.78
334.028
315.787
305.046
299.11
295.993
294.432
293.672
293.309
293.14
293.063
293.028
293.012
293.005
293.002
293.001
293
293
293
293
293
293
293
293.004
293.016
293.037
293.073
293.132
293.229
293.39
293.652
294.073
294.742
295.789
297.399
299.828
303.411
308.565
315.775
325.55
338.368
354.606
374.475
397.998
425.025
455.277
488.415
524.09
561.986
601.839
643.441
686.632
731.293
777.328
824.654
873.186
922.826
973.459
1024.97
1077.4
1130.67
1184.68
1239.29
1294.38
1349.81
1405.43
1461.1
1516.64
1571.89
1626.64
1680.72
1733.89
1785.95
1836.63
1885.68
1932.79
1977.61
2019.74
2058.71
2093.44
2123.14
2148.58
2167.48
2177.9
2074.5
1952.55
1825.32
1694.85
1562.86
1430.88
1300.28
1172.37
1048.41
929.666
817.097
711.975
616.33
532.225
461.414
405.023
363.079
334.222
315.904
305.112
299.145
296.011
294.441
293.676
293.311
293.141
293.063
293.028
293.012
293.005
293.002
293.001
293
293
293
293
293
293
293
293.004
293.016
293.037
293.073
293.132
293.23
293.39
293.652
294.074
294.743
295.791
297.402
299.832
303.417
308.574
315.787
325.566
338.389
354.631
374.504
398.03
425.059
455.312
488.449
524.122
562.015
601.863
643.459
686.643
731.295
777.32
824.636
873.156
922.784
973.404
1024.9
1077.32
1130.58
1184.56
1239.16
1294.23
1349.64
1405.26
1460.91
1516.44
1571.68
1626.43
1680.51
1733.69
1785.77
1836.48
1885.56
1932.71
1977.59
2019.78
2058.8
2093.59
2123.32
2148.75
2167.56
2177.81
2076.66
1955.02
1827.96
1697.55
1565.55
1433.53
1302.85
1174.85
1050.77
931.889
819.172
713.876
618.021
533.67
462.589
405.919
363.713
334.636
316.155
305.255
299.222
296.05
294.46
293.685
293.316
293.143
293.064
293.028
293.012
293.005
293.002
293.001
293
293
293
293
293
293
293
293.004
293.016
293.037
293.073
293.132
293.23
293.391
293.653
294.075
294.745
295.794
297.406
299.839
303.427
308.589
315.807
325.592
338.421
354.67
374.549
398.08
425.112
455.367
488.503
524.173
562.061
601.902
643.488
686.661
731.3
777.311
824.609
873.111
922.719
973.317
1024.79
1077.18
1130.42
1184.37
1238.94
1293.98
1349.37
1404.95
1460.58
1516.1
1571.31
1626.05
1680.12
1733.3
1785.38
1836.12
1885.23
1932.42
1977.35
2019.59
2058.68
2093.52
2123.29
2148.74
2167.5
2177.63
2079.91
1958.63
1831.77
1701.44
1569.46
1437.38
1306.62
1178.49
1054.26
935.199
822.276
716.733
620.572
535.86
464.377
407.289
364.689
335.277
316.544
305.475
299.339
296.109
294.489
293.699
293.322
293.146
293.065
293.029
293.013
293.005
293.002
293.001
293
293
293
293
293
293
293
293.004
293.016
293.037
293.073
293.132
293.23
293.392
293.654
294.076
294.748
295.798
297.413
299.848
303.441
308.608
315.833
325.627
338.466
354.724
374.612
398.151
425.188
455.445
488.581
524.247
562.129
601.961
643.535
686.693
731.315
777.305
824.58
873.055
922.635
973.201
1024.64
1077
1130.19
1184.11
1238.63
1293.63
1348.97
1404.52
1460.11
1515.58
1570.77
1625.48
1679.53
1732.7
1784.78
1835.51
1884.64
1931.87
1976.83
2019.13
2058.27
2093.18
2123
2148.46
2167.2
2177.32
2084.31
1963.42
1836.77
1706.55
1574.59
1442.48
1311.62
1183.35
1058.93
939.635
826.448
720.581
624.018
538.827
466.806
409.157
366.022
336.154
317.077
305.776
299.5
296.191
294.529
293.718
293.331
293.15
293.067
293.03
293.013
293.006
293.002
293.001
293
293
293
293
293
293
293
293.004
293.016
293.038
293.073
293.132
293.231
293.392
293.655
294.079
294.751
295.803
297.421
299.861
303.459
308.634
315.869
325.674
338.526
354.797
374.698
398.247
425.292
455.553
488.689
524.352
562.226
602.047
643.607
686.747
731.346
777.31
824.555
872.997
922.539
973.064
1024.46
1076.77
1129.91
1183.77
1238.23
1293.17
1348.46
1403.94
1459.47
1514.89
1570.03
1624.7
1678.72
1731.86
1783.93
1834.66
1883.79
1931.03
1976.02
2018.37
2057.56
2092.51
2122.35
2147.77
2166.35
2176.16
2089.93
1969.45
1843.05
1712.96
1581.03
1448.88
1317.92
1189.48
1064.84
945.263
831.751
725.483
628.414
542.619
469.919
411.557
367.738
337.285
317.764
306.165
299.707
296.296
294.58
293.742
293.342
293.155
293.069
293.031
293.013
293.006
293.002
293.001
293
293
293
293
293
293
293
293.004
293.016
293.038
293.073
293.133
293.231
293.393
293.657
294.081
294.755
295.81
297.431
299.877
303.482
308.667
315.915
325.735
338.603
354.892
374.809
398.373
425.429
455.697
488.836
524.496
562.363
602.172
643.715
686.834
731.407
777.341
824.55
872.95
922.445
972.92
1024.26
1076.5
1129.58
1183.37
1237.76
1292.63
1347.83
1403.24
1458.7
1514.04
1569.11
1623.72
1677.67
1730.78
1782.81
1833.52
1882.66
1929.9
1974.91
2017.29
2056.54
2091.59
2121.5
2147
2165.65
2175.6
2096.82
1976.8
1850.69
1720.75
1588.88
1456.69
1325.62
1197
1072.09
952.176
838.27
731.517
633.834
547.303
473.771
414.533
369.873
338.695
318.622
306.651
299.966
296.428
294.645
293.773
293.357
293.162
293.072
293.032
293.014
293.006
293.003
293.001
293
293
293
293
293
293
293
293.004
293.016
293.038
293.074
293.133
293.232
293.394
293.659
294.084
294.76
295.818
297.444
299.896
303.511
308.709
315.972
325.811
338.702
355.013
374.952
398.536
425.608
455.887
489.031
524.691
562.552
602.349
643.874
686.97
731.514
777.412
824.58
872.933
922.373
972.786
1024.06
1076.23
1129.22
1182.93
1237.23
1292
1347.11
1402.42
1457.78
1513.03
1568.01
1622.53
1676.41
1729.45
1781.42
1832.1
1881.21
1928.46
1973.5
2015.91
2055.2
2090.35
2120.36
2145.94
2164.68
2174.76
2105.2
1985.66
1859.85
1730.08
1598.26
1466.04
1334.85
1206.01
1080.8
960.482
846.111
738.782
640.37
552.961
478.435
418.149
372.475
340.42
319.676
307.25
300.286
296.591
294.724
293.811
293.374
293.17
293.076
293.033
293.015
293.006
293.003
293.001
293
293
293
293
293
293
293
293.004
293.016
293.038
293.074
293.134
293.233
293.396
293.661
294.088
294.767
295.828
297.46
299.92
303.547
308.759
316.043
325.906
338.824
355.165
375.133
398.744
425.838
456.134
489.288
524.951
562.808
602.595
644.103
687.174
731.688
777.547
824.668
872.968
922.347
972.69
1023.89
1075.97
1128.87
1182.47
1236.67
1291.33
1346.32
1401.51
1456.75
1511.88
1566.74
1621.16
1674.93
1727.88
1779.78
1830.39
1879.47
1926.7
1971.74
2014.19
2053.53
2088.76
2118.86
2144.54
2163.37
2173.55
2115.22
1996.17
1870.68
1741.1
1609.34
1477.07
1345.72
1216.64
1091.08
970.309
855.396
747.397
648.132
559.695
484.002
422.478
375.604
342.504
320.955
307.978
300.676
296.789
294.821
293.857
293.396
293.179
293.08
293.035
293.015
293.007
293.003
293.001
293
293
293
293
293
293
293
293.004
293.017
293.038
293.074
293.134
293.234
293.397
293.664
294.093
294.774
295.84
297.479
299.949
303.589
308.821
316.129
326.022
338.975
355.354
375.36
399.006
426.13
456.45
489.621
525.293
563.151
602.931
644.425
687.473
731.954
777.773
824.845
873.085
922.397
972.663
1023.77
1075.75
1128.55
1182.03
1236.1
1290.63
1345.49
1400.54
1455.63
1510.62
1565.34
1619.61
1673.26
1726.09
1777.88
1828.41
1877.42
1924.61
1969.63
2012.09
2051.48
2086.8
2116.97
2142.74
2161.66
2171.92
2127
2008.41
1883.25
1753.87
1622.22
1489.92
1358.43
1229.08
1103.11
981.798
866.259
757.494
657.244
567.619
490.573
427.611
379.332
344.999
322.492
308.857
301.148
297.03
294.939
293.913
293.421
293.191
293.085
293.038
293.016
293.007
293.003
293.001
293.001
293
293
293
293
293
293
293.004
293.017
293.038
293.074
293.135
293.235
293.399
293.667
294.098
294.783
295.854
297.501
299.982
303.64
308.894
316.232
326.163
339.159
355.584
375.639
399.331
426.498
456.852
490.049
525.739
563.605
603.384
644.867
687.895
732.347
778.126
825.147
873.324
922.561
972.742
1023.75
1075.63
1128.3
1181.65
1235.58
1289.96
1344.65
1399.53
1454.46
1509.27
1563.82
1617.93
1671.42
1724.1
1775.76
1826.18
1875.09
1922.21
1967.2
2009.65
2049.06
2084.46
2114.7
2140.51
2159.48
2169.74
2140.31
2022.21
1897.45
1768.35
1636.85
1504.58
1372.99
1243.37
1116.98
995.084
878.822
769.188
667.826
576.85
498.259
433.643
383.739
347.966
324.329
309.91
301.714
297.319
295.08
293.98
293.453
293.205
293.092
293.04
293.018
293.008
293.003
293.001
293.001
293
293
293
293
293
293
293.004
293.017
293.038
293.075
293.135
293.236
293.402
293.671
294.104
294.793
295.87
297.526
300.021
303.699
308.981
316.355
326.33
339.379
355.864
375.98
399.733
426.955
457.357
490.593
526.311
564.196
603.982
645.462
688.477
732.904
778.646
825.617
873.731
922.89
972.978
1023.89
1075.65
1128.18
1181.39
1235.15
1289.35
1343.87
1398.55
1453.28
1507.89
1562.24
1616.15
1669.45
1721.95
1773.45
1823.72
1872.52
1919.56
1964.51
2006.96
2046.4
2081.93
2112.3
2138.22
2157.15
2167.13
2154.37
2037.01
1912.89
1784.29
1653.13
1521.03
1389.4
1259.57
1132.77
1010.26
893.223
782.605
680.001
587.512
507.179
440.687
388.914
351.471
326.512
311.167
302.392
297.665
295.249
294.06
293.49
293.222
293.099
293.044
293.019
293.008
293.003
293.001
293.001
293
293
293
293
293
293
293.004
293.017
293.039
293.075
293.136
293.237
293.404
293.675
294.111
294.804
295.888
297.554
300.066
303.766
309.08
316.497
326.527
339.64
356.198
376.392
400.221
427.516
457.984
491.275
527.038
564.955
604.762
646.251
689.262
733.672
779.383
826.309
874.361
923.443
973.435
1024.23
1075.86
1128.25
1181.3
1234.88
1288.89
1343.19
1397.66
1452.16
1506.54
1560.65
1614.33
1667.4
1719.69
1771
1821.11
1869.78
1916.73
1961.65
2004.13
2043.71
2079.64
2110.41
2136.89
2156.64
2167.71
2166.91
2051.43
1928.75
1801.22
1670.79
1539.12
1407.66
1277.72
1150.57
1027.44
909.581
797.926
693.96
599.781
517.485
448.859
394.958
355.592
329.093
312.659
303.197
298.076
295.449
294.155
293.533
293.242
293.108
293.048
293.021
293.009
293.004
293.002
293.001
293
293
293
293
293
293
293.004
293.017
293.039
293.076
293.137
293.239
293.406
293.679
294.118
294.816
295.907
297.586
300.115
303.842
309.193
316.66
326.754
339.946
356.593
376.883
400.811
428.2
458.755
492.123
527.95
565.919
605.765
647.278
690.299
734.704
780.395
827.282
875.279
924.284
974.18
1024.86
1076.35
1128.58
1181.46
1234.85
1288.64
1342.71
1396.94
1451.18
1505.29
1559.13
1612.54
1665.35
1717.39
1768.47
1818.38
1866.9
1913.75
1958.64
2001.2
2040.99
2077.46
2108.92
2136.52
2158.18
2172.43
2177.02
2064.63
1944.43
1818.76
1689.63
1558.79
1427.74
1297.86
1170.43
1046.71
927.973
815.199
709.766
613.736
529.27
458.27
401.97
360.41
332.13
314.424
304.152
298.564
295.687
294.267
293.585
293.265
293.118
293.052
293.023
293.01
293.004
293.002
293.001
293
293
293
293
293
293
293.004
293.017
293.039
293.076
293.138
293.24
293.409
293.683
294.125
294.827
295.927
297.618
300.167
303.922
309.316
316.841
327.01
340.295
357.051
377.46
401.511
429.023
459.693
493.165
529.084
567.129
607.036
648.595
691.646
736.063
781.747
828.608
876.556
925.49
975.291
1025.85
1077.2
1129.27
1181.95
1235.13
1288.69
1342.51
1396.46
1450.42
1504.23
1557.77
1610.87
1663.38
1715.13
1765.94
1815.61
1863.93
1910.63
1955.44
1998.02
2037.95
2074.71
2106.88
2134.45
2157.16
2172.67
2178.72
2074.51
1959.29
1836.77
1709.65
1580.05
1449.68
1320.02
1192.39
1068.11
948.468
834.51
727.51
629.487
542.654
469.03
410.044
365.996
335.669
316.484
305.265
299.13
295.961
294.396
293.644
293.292
293.13
293.057
293.025
293.011
293.004
293.002
293.001
293
293
293
293
293
293
293.004
293.017
293.039
293.076
293.138
293.241
293.411
293.687
294.131
294.839
295.946
297.65
300.221
304.009
309.45
317.041
327.299
340.695
357.581
378.135
402.34
430.005
460.824
494.434
530.476
568.629
608.626
650.257
693.36
737.81
783.505
830.354
878.264
927.134
976.841
1027.28
1078.49
1130.38
1182.86
1235.8
1289.11
1342.66
1396.32
1449.96
1503.45
1556.65
1609.42
1661.59
1713.01
1763.51
1812.88
1860.94
1907.43
1952.08
1994.56
2034.47
2071.28
2103.67
2131.4
2154.45
2170.39
2177.07
2093.19
1979.33
1858.19
1732.25
1603.52
1473.69
1344.21
1216.41
1091.58
971.012
855.835
747.207
647.072
557.694
481.213
419.265
372.435
339.786
318.896
306.574
299.796
296.283
294.546
293.713
293.322
293.143
293.063
293.027
293.012
293.005
293.002
293.001
293
293
293
293
293
293
293.004
293.017
293.039
293.076
293.139
293.242
293.411
293.688
294.135
294.846
295.96
297.675
300.265
304.084
309.574
317.236
327.592
341.116
358.159
378.892
403.291
431.155
462.167
495.959
532.167
570.466
610.588
652.322
695.504
740.008
785.731
832.58
880.462
929.27
978.884
1029.2
1080.26
1131.97
1184.24
1236.94
1289.98
1343.23
1396.57
1449.89
1503.03
1555.87
1608.27
1660.08
1711.14
1761.29
1810.34
1858.08
1904.3
1948.71
1991
2030.78
2067.56
2100.13
2127.97
2151.17
2167.52
2175.07
2115.01
2001.75
1881.43
1756.33
1628.33
1499
1369.76
1241.87
1116.59
995.185
878.843
768.628
666.345
574.305
494.768
429.59
379.673
344.412
321.592
308.02
300.521
296.628
294.705
293.784
293.354
293.157
293.069
293.03
293.013
293.005
293.002
293.001
293
293
293
293
293
293
293.004
293.017
293.039
293.076
293.138
293.241
293.411
293.688
294.136
294.849
295.969
297.697
300.308
304.164
309.71
317.457
327.931
341.609
358.841
379.791
404.425
432.529
463.777
497.791
534.201
572.679
612.955
654.815
698.095
742.667
788.427
835.281
883.133
931.877
981.39
1031.58
1082.48
1134
1186.04
1238.49
1291.25
1344.2
1397.22
1450.19
1502.98
1555.46
1607.5
1658.94
1709.64
1759.44
1808.15
1855.57
1901.49
1945.63
1987.69
2027.28
2063.91
2096.48
2124.4
2147.75
2164.29
2172.16
2135.59
2023.19
1903.84
1779.69
1652.52
1523.87
1395.06
1267.33
1141.86
1019.87
902.584
790.99
686.743
592.138
509.542
441.03
387.83
349.709
324.717
309.708
301.366
297.029
294.888
293.865
293.389
293.172
293.075
293.032
293.014
293.006
293.002
293.001
293
293
293
293
293
293
293.004
293.017
293.039
293.076
293.138
293.24
293.409
293.685
294.13
294.842
295.96
297.688
300.305
304.178
309.764
317.581
328.168
342.007
359.452
380.661
405.586
433.997
465.548
499.847
536.512
575.21
615.665
657.664
701.043
745.675
791.458
838.297
886.097
934.754