/*--------------------------------*- C++ -*----------------------------------*\
  =========                 |
  \\      /  F ield         | OpenFOAM: The Open Source CFD Toolbox
   \\    /   O peration     | Website:  https://openfoam.org
    \\  /    A nd           | Version:  8
     \\/     M anipulation  |
\*---------------------------------------------------------------------------*/
FoamFile
{
    version     2.0;
    format      ascii;
    class       volVectorField;
    location    "620/fluid";
    object      U;
}
// * * * * * * * * * * * * * * * * * * * * * * * * * * * * * * * * * * * * * //

dimensions      [0 1 -1 0 0 0 0];

internalField   nonuniform List<vector> 
4000
(
(0.0999462 -0.00703579 0)
(0.0996534 -0.0209362 0)
(0.099181 -0.034722 0)
(0.0985284 -0.0484311 0)
(0.0976877 -0.0620819 0)
(0.0966416 -0.0756761 0)
(0.0953698 -0.0892034 0)
(0.0938531 -0.102644 0)
(0.0920763 -0.115972 0)
(0.0900312 -0.129159 0)
(0.0877193 -0.142177 0)
(0.0851562 -0.155008 0)
(0.0823754 -0.167642 0)
(0.0794343 -0.180067 0)
(0.0764107 -0.192322 0)
(0.0733781 -0.204478 0)
(0.0703885 -0.216593 0)
(0.0674608 -0.228711 0)
(0.0645732 -0.240842 0)
(0.0616635 -0.25296 0)
(0.0586412 -0.265003 0)
(0.0554055 -0.276881 0)
(0.0518662 -0.288487 0)
(0.0479637 -0.299698 0)
(0.043671 -0.310414 0)
(0.0389793 -0.320575 0)
(0.0338931 -0.330118 0)
(0.0284285 -0.338988 0)
(0.02261 -0.347141 0)
(0.0164678 -0.354542 0)
(0.010034 -0.361169 0)
(0.00334162 -0.367012 0)
(-0.00357109 -0.372068 0)
(-0.0106682 -0.376344 0)
(-0.0179194 -0.379852 0)
(-0.025295 -0.382614 0)
(-0.0327679 -0.384653 0)
(-0.0403125 -0.386 0)
(-0.0479049 -0.386689 0)
(-0.0555219 -0.386757 0)
(-0.0631421 -0.386244 0)
(-0.0707445 -0.385193 0)
(-0.0783095 -0.383646 0)
(-0.085818 -0.381648 0)
(-0.0932513 -0.379246 0)
(-0.100591 -0.376486 0)
(-0.107819 -0.373414 0)
(-0.114917 -0.370081 0)
(-0.121867 -0.366533 0)
(-0.12865 -0.362822 0)
(-0.135245 -0.358999 0)
(-0.141633 -0.355118 0)
(-0.147792 -0.351235 0)
(-0.153698 -0.34741 0)
(-0.159326 -0.343708 0)
(-0.164647 -0.340201 0)
(-0.169619 -0.336971 0)
(-0.17419 -0.334104 0)
(-0.178328 -0.331696 0)
(-0.182063 -0.329899 0)
(-0.185478 -0.328979 0)
(-0.188041 -0.329306 0)
(-0.18769 -0.330786 0)
(-0.183062 -0.331703 0)
(-0.176135 -0.330889 0)
(-0.168752 -0.328451 0)
(-0.161138 -0.324692 0)
(-0.153226 -0.319764 0)
(-0.145032 -0.313733 0)
(-0.136626 -0.306639 0)
(-0.128089 -0.298515 0)
(-0.119504 -0.289399 0)
(-0.11096 -0.279335 0)
(-0.102552 -0.268371 0)
(-0.0944256 -0.256569 0)
(-0.0868242 -0.24404 0)
(-0.0800768 -0.230986 0)
(-0.0745545 -0.217684 0)
(-0.0706352 -0.204692 0)
(-0.0686164 -0.192524 0)
(-0.0685354 -0.181424 0)
(-0.070095 -0.171302 0)
(-0.0727801 -0.161845 0)
(-0.0760515 -0.152718 0)
(-0.0794796 -0.143677 0)
(-0.0827821 -0.134574 0)
(-0.0857867 -0.125314 0)
(-0.0884254 -0.11594 0)
(-0.0906963 -0.106501 0)
(-0.0926243 -0.0970293 0)
(-0.0942432 -0.087557 0)
(-0.0955886 -0.0781109 0)
(-0.0966947 -0.0687123 0)
(-0.0975933 -0.0593754 0)
(-0.0983132 -0.050107 0)
(-0.0988799 -0.0409071 0)
(-0.0993152 -0.0317686 0)
(-0.0996363 -0.0226779 0)
(-0.0998552 -0.0136138 0)
(-0.0999821 -0.0045482 0)
(0.0999998 -0.006603 0)
(0.0997961 -0.0197502 0)
(0.0993749 -0.0328114 0)
(0.0987127 -0.0457691 0)
(0.097811 -0.0586051 0)
(0.0966655 -0.0712968 0)
(0.095267 -0.0838166 0)
(0.0936077 -0.0961336 0)
(0.0916855 -0.108216 0)
(0.0895077 -0.120034 0)
(0.0870935 -0.131569 0)
(0.0844771 -0.142818 0)
(0.0817083 -0.153809 0)
(0.0788532 -0.164623 0)
(0.0759848 -0.175325 0)
(0.0731698 -0.185971 0)
(0.0704549 -0.196633 0)
(0.0678535 -0.20738 0)
(0.0653363 -0.218248 0)
(0.0628322 -0.229237 0)
(0.060239 -0.240301 0)
(0.0574423 -0.251361 0)
(0.0543362 -0.262322 0)
(0.0508381 -0.273101 0)
(0.0468981 -0.283588 0)
(0.0424967 -0.293653 0)
(0.0376351 -0.303193 0)
(0.0323315 -0.312131 0)
(0.0266157 -0.320411 0)
(0.0205243 -0.327993 0)
(0.0140967 -0.334852 0)
(0.00737303 -0.340974 0)
(0.000392752 -0.346355 0)
(-0.00680585 -0.351 0)
(-0.0141866 -0.354922 0)
(-0.0217157 -0.35814 0)
(-0.0293627 -0.360678 0)
(-0.0370996 -0.362563 0)
(-0.0449004 -0.363827 0)
(-0.0527406 -0.364504 0)
(-0.0605973 -0.364629 0)
(-0.0684489 -0.364242 0)
(-0.0762751 -0.363383 0)
(-0.0840563 -0.362094 0)
(-0.0917741 -0.360416 0)
(-0.0994102 -0.358394 0)
(-0.106947 -0.356072 0)
(-0.114366 -0.353495 0)
(-0.121651 -0.35071 0)
(-0.128784 -0.347761 0)
(-0.135748 -0.344699 0)
(-0.142524 -0.341571 0)
(-0.149096 -0.338427 0)
(-0.155443 -0.335321 0)
(-0.161548 -0.332304 0)
(-0.167388 -0.329433 0)
(-0.172929 -0.326764 0)
(-0.178128 -0.324349 0)
(-0.18298 -0.322241 0)
(-0.187579 -0.320494 0)
(-0.192048 -0.319165 0)
(-0.195525 -0.318245 0)
(-0.195387 -0.317242 0)
(-0.1903 -0.315534 0)
(-0.182835 -0.312933 0)
(-0.17505 -0.309331 0)
(-0.167131 -0.304684 0)
(-0.158942 -0.298971 0)
(-0.150463 -0.292179 0)
(-0.141742 -0.284303 0)
(-0.13284 -0.275347 0)
(-0.123822 -0.265329 0)
(-0.114751 -0.25429 0)
(-0.1057 -0.242314 0)
(-0.0968177 -0.229555 0)
(-0.0883842 -0.216296 0)
(-0.0807944 -0.202992 0)
(-0.0745138 -0.190276 0)
(-0.0700017 -0.178578 0)
(-0.067552 -0.168162 0)
(-0.0671384 -0.159036 0)
(-0.0684021 -0.150921 0)
(-0.0708102 -0.143406 0)
(-0.0738441 -0.136123 0)
(-0.0771049 -0.128837 0)
(-0.0803333 -0.12144 0)
(-0.0833876 -0.113925 0)
(-0.0861825 -0.106206 0)
(-0.088683 -0.0982572 0)
(-0.0908832 -0.0901094 0)
(-0.0927915 -0.0818022 0)
(-0.094424 -0.0733741 0)
(-0.0958013 -0.0648587 0)
(-0.0969457 -0.0562835 0)
(-0.0978792 -0.0476699 0)
(-0.098623 -0.0390328 0)
(-0.0991947 -0.0303814 0)
(-0.0996063 -0.0217192 0)
(-0.0998659 -0.0130447 0)
(-0.0999951 -0.00435367 0)
(0.099979 -0.0063269 0)
(0.0997175 -0.0189122 0)
(0.0992052 -0.0314091 0)
(0.0984236 -0.0437973 0)
(0.0973764 -0.0560552 0)
(0.0960649 -0.0681592 0)
(0.0944882 -0.0800848 0)
(0.0926495 -0.0918074 0)
(0.0905588 -0.103304 0)
(0.088236 -0.114557 0)
(0.085713 -0.125555 0)
(0.0830355 -0.1363 0)
(0.0802617 -0.146805 0)
(0.0774562 -0.157105 0)
(0.0746847 -0.167251 0)
(0.0720086 -0.177317 0)
(0.0694733 -0.187379 0)
(0.067092 -0.19751 0)
(0.0648359 -0.207751 0)
(0.0626331 -0.21811 0)
(0.0603802 -0.22855 0)
(0.0579598 -0.239003 0)
(0.0552591 -0.249374 0)
(0.0521828 -0.259563 0)
(0.0486603 -0.269469 0)
(0.0446529 -0.279003 0)
(0.0401511 -0.288083 0)
(0.0351674 -0.296641 0)
(0.0297284 -0.304623 0)
(0.0238692 -0.311987 0)
(0.0176291 -0.318702 0)
(0.0110485 -0.32475 0)
(0.00416767 -0.330122 0)
(-0.0029736 -0.334817 0)
(-0.0103377 -0.338843 0)
(-0.0178901 -0.342215 0)
(-0.0255985 -0.34495 0)
(-0.0334338 -0.347073 0)
(-0.0413689 -0.348611 0)
(-0.0493785 -0.349593 0)
(-0.057439 -0.350054 0)
(-0.0655281 -0.350027 0)
(-0.0736254 -0.349549 0)
(-0.0817113 -0.348659 0)
(-0.0897672 -0.347395 0)
(-0.097775 -0.345797 0)
(-0.105718 -0.343906 0)
(-0.11358 -0.341762 0)
(-0.121345 -0.339409 0)
(-0.128999 -0.336888 0)
(-0.136528 -0.334241 0)
(-0.143917 -0.331512 0)
(-0.151154 -0.328741 0)
(-0.158226 -0.325971 0)
(-0.16512 -0.323244 0)
(-0.171821 -0.320597 0)
(-0.178298 -0.318066 0)
(-0.184512 -0.315678 0)
(-0.190475 -0.313452 0)
(-0.196295 -0.311406 0)
(-0.201973 -0.309549 0)
(-0.206074 -0.307816 0)
(-0.205613 -0.305564 0)
(-0.199864 -0.302485 0)
(-0.191873 -0.298704 0)
(-0.183513 -0.294148 0)
(-0.174948 -0.288718 0)
(-0.166073 -0.282354 0)
(-0.156879 -0.27503 0)
(-0.147409 -0.266743 0)
(-0.137717 -0.257516 0)
(-0.127863 -0.247401 0)
(-0.117905 -0.236487 0)
(-0.107932 -0.224911 0)
(-0.0981379 -0.212879 0)
(-0.0888661 -0.200681 0)
(-0.080583 -0.188686 0)
(-0.0738194 -0.1773 0)
(-0.0690418 -0.166891 0)
(-0.0664721 -0.157663 0)
(-0.0659836 -0.149557 0)
(-0.0671542 -0.14228 0)
(-0.0694404 -0.135458 0)
(-0.0723419 -0.12877 0)
(-0.0754833 -0.122011 0)
(-0.0786244 -0.115078 0)
(-0.0816354 -0.107939 0)
(-0.0844506 -0.100604 0)
(-0.0870327 -0.093093 0)
(-0.0893636 -0.0854255 0)
(-0.0914385 -0.0776225 0)
(-0.0932607 -0.0697051 0)
(-0.0948386 -0.0616931 0)
(-0.0961832 -0.0536048 0)
(-0.0973069 -0.0454561 0)
(-0.0982225 -0.03726 0)
(-0.0989411 -0.0290266 0)
(-0.0994693 -0.0207633 0)
(-0.0998112 -0.012475 0)
(-0.0999871 -0.00416444 0)
(0.0999837 -0.00597628 0)
(0.0997175 -0.0178643 0)
(0.0991873 -0.0296593 0)
(0.0983739 -0.0413349 0)
(0.0972859 -0.0528644 0)
(0.09593 -0.064221 0)
(0.0943116 -0.0753784 0)
(0.0924391 -0.0863114 0)
(0.0903273 -0.0969981 0)
(0.0879989 -0.107422 0)
(0.0854865 -0.117576 0)
(0.0828345 -0.127465 0)
(0.0800987 -0.137111 0)
(0.077345 -0.146558 0)
(0.0746438 -0.155865 0)
(0.0720598 -0.16511 0)
(0.0696385 -0.174374 0)
(0.0673921 -0.183729 0)
(0.06529 -0.193224 0)
(0.0632584 -0.202869 0)
(0.061191 -0.212636 0)
(0.0589667 -0.222462 0)
(0.0564691 -0.232263 0)
(0.0536012 -0.241941 0)
(0.0502937 -0.2514 0)
(0.046506 -0.260548 0)
(0.0422235 -0.269303 0)
(0.0374517 -0.277597 0)
(0.0322108 -0.285376 0)
(0.0265301 -0.292597 0)
(0.0204443 -0.29923 0)
(0.0139901 -0.305253 0)
(0.00720488 -0.310656 0)
(0.00012572 -0.315437 0)
(-0.00721133 -0.319599 0)
(-0.0147723 -0.323155 0)
(-0.022526 -0.326118 0)
(-0.0304437 -0.32851 0)
(-0.038499 -0.330354 0)
(-0.0466669 -0.331676 0)
(-0.0549244 -0.332505 0)
(-0.0632499 -0.332871 0)
(-0.0716232 -0.332807 0)
(-0.080025 -0.332347 0)
(-0.0884371 -0.331525 0)
(-0.0968425 -0.330375 0)
(-0.105225 -0.328935 0)
(-0.113571 -0.32724 0)
(-0.121865 -0.325325 0)
(-0.130093 -0.323227 0)
(-0.138243 -0.320981 0)
(-0.146302 -0.31862 0)
(-0.154259 -0.316177 0)
(-0.1621 -0.313683 0)
(-0.169814 -0.311165 0)
(-0.177381 -0.308646 0)
(-0.184762 -0.306142 0)
(-0.191907 -0.303659 0)
(-0.198836 -0.301198 0)
(-0.205665 -0.298761 0)
(-0.212235 -0.296345 0)
(-0.216432 -0.293884 0)
(-0.215181 -0.290633 0)
(-0.208656 -0.286522 0)
(-0.200196 -0.281785 0)
(-0.19129 -0.276388 0)
(-0.182041 -0.27024 0)
(-0.172391 -0.263281 0)
(-0.162371 -0.25549 0)
(-0.152045 -0.246872 0)
(-0.141487 -0.23746 0)
(-0.130773 -0.227319 0)
(-0.119988 -0.216552 0)
(-0.109262 -0.205304 0)
(-0.0988484 -0.193788 0)
(-0.089146 -0.18229 0)
(-0.0806437 -0.171161 0)
(-0.073843 -0.160776 0)
(-0.0691348 -0.151442 0)
(-0.0666529 -0.143289 0)
(-0.0662035 -0.136199 0)
(-0.0673407 -0.129863 0)
(-0.0695355 -0.123925 0)
(-0.0723191 -0.118093 0)
(-0.0753443 -0.112179 0)
(-0.0783863 -0.106089 0)
(-0.0813158 -0.0997824 0)
(-0.0840657 -0.0932528 0)
(-0.0866038 -0.0865102 0)
(-0.0889166 -0.0795735 0)
(-0.0909996 -0.0724649 0)
(-0.0928534 -0.0652067 0)
(-0.0944813 -0.0578202 0)
(-0.0958884 -0.050325 0)
(-0.0970805 -0.042739 0)
(-0.0980639 -0.0350778 0)
(-0.0988436 -0.0273551 0)
(-0.0994209 -0.0195831 0)
(-0.0997954 -0.0117718 0)
(-0.0999874 -0.00393054 0)
(0.0999807 -0.00562437 0)
(0.0996993 -0.016811 0)
(0.0991435 -0.0279076 0)
(0.0982954 -0.0388874 0)
(0.0971658 -0.0497238 0)
(0.0957644 -0.0603908 0)
(0.0940994 -0.0708635 0)
(0.0921828 -0.0811193 0)
(0.0900325 -0.091139 0)
(0.0876747 -0.100909 0)
(0.0851453 -0.110424 0)
(0.0824916 -0.119689 0)
(0.0797719 -0.128727 0)
(0.0770541 -0.137573 0)
(0.074409 -0.146285 0)
(0.0719012 -0.154932 0)
(0.0695754 -0.16359 0)
(0.0674432 -0.172326 0)
(0.0654735 -0.181188 0)
(0.0635922 -0.19019 0)
(0.0616917 -0.199312 0)
(0.0596489 -0.2085 0)
(0.0573437 -0.217679 0)
(0.0546749 -0.226764 0)
(0.0515683 -0.235666 0)
(0.0479787 -0.244302 0)
(0.0438871 -0.252597 0)
(0.0392949 -0.260488 0)
(0.0342185 -0.267921 0)
(0.0286839 -0.274856 0)
(0.0227228 -0.281263 0)
(0.0163693 -0.287119 0)
(0.00965829 -0.292412 0)
(0.0026246 -0.297138 0)
(-0.00469741 -0.301299 0)
(-0.0122753 -0.304901 0)
(-0.0200794 -0.307959 0)
(-0.0280822 -0.310487 0)
(-0.0362585 -0.312506 0)
(-0.0445845 -0.314037 0)
(-0.0530381 -0.315107 0)
(-0.0615986 -0.315741 0)
(-0.070246 -0.315966 0)
(-0.0789619 -0.315813 0)
(-0.087729 -0.31531 0)
(-0.0965311 -0.314488 0)
(-0.105353 -0.313378 0)
(-0.114179 -0.312009 0)
(-0.122996 -0.310412 0)
(-0.13179 -0.308616 0)
(-0.140546 -0.306648 0)
(-0.149252 -0.304536 0)
(-0.157892 -0.302303 0)
(-0.16645 -0.299971 0)
(-0.17491 -0.297556 0)
(-0.183241 -0.29507 0)
(-0.191389 -0.29252 0)
(-0.199294 -0.289901 0)
(-0.206984 -0.287202 0)
(-0.214582 -0.284424 0)
(-0.221734 -0.281554 0)
(-0.225644 -0.278537 0)
(-0.223375 -0.2746 0)
(-0.216108 -0.269864 0)
(-0.207248 -0.264559 0)
(-0.197849 -0.258664 0)
(-0.187957 -0.252107 0)
(-0.177578 -0.244853 0)
(-0.166787 -0.236897 0)
(-0.155677 -0.228261 0)
(-0.144345 -0.218991 0)
(-0.132889 -0.209165 0)
(-0.121415 -0.198893 0)
(-0.11009 -0.188324 0)
(-0.0992127 -0.177665 0)
(-0.0892082 -0.167179 0)
(-0.0805692 -0.157172 0)
(-0.0737707 -0.147945 0)
(-0.0691459 -0.139716 0)
(-0.0667563 -0.13253 0)
(-0.0663508 -0.126232 0)
(-0.0674631 -0.120529 0)
(-0.0695772 -0.115113 0)
(-0.0722526 -0.109749 0)
(-0.0751693 -0.104289 0)
(-0.0781213 -0.0986572 0)
(-0.0809878 -0.0928248 0)
(-0.0837026 -0.0867882 0)
(-0.08623 -0.0805562 0)
(-0.088552 -0.0741431 0)
(-0.0906598 -0.0675659 0)
(-0.0925502 -0.0608421 0)
(-0.0942226 -0.0539889 0)
(-0.0956784 -0.047023 0)
(-0.0969202 -0.0399602 0)
(-0.0979509 -0.0328154 0)
(-0.0987725 -0.0256024 0)
(-0.0993835 -0.0183343 0)
(-0.0997814 -0.0110232 0)
(-0.0999861 -0.00368078 0)
(0.0999813 -0.00525734 0)
(0.0996971 -0.0157145 0)
(0.0991346 -0.0260856 0)
(0.0982764 -0.0363432 0)
(0.0971348 -0.0464607 0)
(0.0957213 -0.0564123 0)
(0.0940464 -0.0661739 0)
(0.0921236 -0.0757239 0)
(0.0899728 -0.0850443 0)
(0.0876214 -0.094123 0)
(0.085106 -0.102956 0)
(0.0824743 -0.111549 0)
(0.0797845 -0.119925 0)
(0.0771039 -0.128121 0)
(0.074503 -0.136191 0)
(0.0720463 -0.144204 0)
(0.0697788 -0.152233 0)
(0.0677131 -0.160345 0)
(0.0658193 -0.168586 0)
(0.0640247 -0.176972 0)
(0.0622228 -0.185486 0)
(0.0602902 -0.19408 0)
(0.0581059 -0.202684 0)
(0.0555664 -0.211219 0)
(0.0525944 -0.219603 0)
(0.0491413 -0.227759 0)
(0.0451838 -0.235615 0)
(0.0407197 -0.243112 0)
(0.0357616 -0.250201 0)
(0.030332 -0.256841 0)
(0.0244595 -0.263003 0)
(0.0181753 -0.268666 0)
(0.011512 -0.273817 0)
(0.00450178 -0.278449 0)
(-0.00282281 -0.282563 0)
(-0.0104311 -0.286163 0)
(-0.0182951 -0.289261 0)
(-0.0263887 -0.291869 0)
(-0.0346881 -0.294003 0)
(-0.0431707 -0.295683 0)
(-0.0518151 -0.29693 0)
(-0.060601 -0.297765 0)
(-0.0695096 -0.298213 0)
(-0.0785233 -0.298298 0)
(-0.0876252 -0.298046 0)
(-0.096799 -0.297482 0)
(-0.106029 -0.296631 0)
(-0.1153 -0.295518 0)
(-0.124596 -0.294169 0)
(-0.133902 -0.292606 0)
(-0.143202 -0.290851 0)
(-0.152479 -0.288925 0)
(-0.161714 -0.286845 0)
(-0.170884 -0.284627 0)
(-0.179963 -0.28228 0)
(-0.18891 -0.279812 0)
(-0.197655 -0.27722 0)
(-0.206125 -0.274494 0)
(-0.214357 -0.271625 0)
(-0.222466 -0.268599 0)
(-0.229918 -0.265386 0)
(-0.233337 -0.261953 0)
(-0.230058 -0.257638 0)
(-0.222144 -0.252612 0)
(-0.212882 -0.247011 0)
(-0.202996 -0.24084 0)
(-0.192506 -0.234075 0)
(-0.181473 -0.226709 0)
(-0.17001 -0.218757 0)
(-0.158233 -0.21025 0)
(-0.146261 -0.201244 0)
(-0.13421 -0.191819 0)
(-0.122206 -0.18208 0)
(-0.110451 -0.172169 0)
(-0.0992807 -0.162277 0)
(-0.0891387 -0.15264 0)
(-0.0805137 -0.143527 0)
(-0.0738492 -0.135193 0)
(-0.0694189 -0.12781 0)
(-0.067214 -0.121389 0)
(-0.06693 -0.115764 0)
(-0.068082 -0.110658 0)
(-0.0701652 -0.105793 0)
(-0.0727628 -0.100959 0)
(-0.0755792 -0.0960234 0)
(-0.0784266 -0.0909206 0)
(-0.0811959 -0.0856234 0)
(-0.0838271 -0.0801273 0)
(-0.0862877 -0.0744394 0)
(-0.08856 -0.068572 0)
(-0.0906344 -0.0625404 0)
(-0.0925055 -0.0563602 0)
(-0.0941703 -0.0500477 0)
(-0.0956275 -0.0436185 0)
(-0.0968767 -0.0370882 0)
(-0.0979181 -0.0304714 0)
(-0.0987514 -0.0237826 0)
(-0.0993726 -0.0170356 0)
(-0.0997777 -0.0102439 0)
(-0.0999861 -0.00342065 0)
(0.0999808 -0.00488901 0)
(0.099694 -0.0146138 0)
(0.099127 -0.0242581 0)
(0.0982627 -0.0337957 0)
(0.0971144 -0.043201 0)
(0.0956945 -0.0524499 0)
(0.0940143 -0.0615198 0)
(0.0920887 -0.0703907 0)
(0.0899384 -0.0790462 0)
(0.087592 -0.0874756 0)
(0.0850869 -0.0956754 0)
(0.0824713 -0.103653 0)
(0.079804 -0.111427 0)
(0.0771525 -0.119034 0)
(0.0745874 -0.126524 0)
(0.0721733 -0.133961 0)
(0.0699553 -0.141411 0)
(0.0679462 -0.148939 0)
(0.0661169 -0.156587 0)
(0.064395 -0.164375 0)
(0.0626742 -0.172286 0)
(0.0608306 -0.18028 0)
(0.058742 -0.188295 0)
(0.0563029 -0.196259 0)
(0.0534335 -0.204097 0)
(0.0500823 -0.211737 0)
(0.0462234 -0.219116 0)
(0.0418514 -0.226176 0)
(0.0369762 -0.232871 0)
(0.0316177 -0.239164 0)
(0.025802 -0.245026 0)
(0.0195582 -0.250436 0)
(0.0129166 -0.255381 0)
(0.00590774 -0.259853 0)
(-0.00143794 -0.263852 0)
(-0.00909131 -0.26738 0)
(-0.0170256 -0.270446 0)
(-0.0252163 -0.273059 0)
(-0.0336405 -0.275234 0)
(-0.0422764 -0.276987 0)
(-0.0511033 -0.278334 0)
(-0.0601019 -0.279294 0)
(-0.0692542 -0.279888 0)
(-0.0785424 -0.280136 0)
(-0.0879497 -0.280059 0)
(-0.0974594 -0.279678 0)
(-0.107055 -0.279015 0)
(-0.11672 -0.27809 0)
(-0.126437 -0.276922 0)
(-0.136189 -0.275531 0)
(-0.145956 -0.273934 0)
(-0.155717 -0.272146 0)
(-0.165449 -0.270181 0)
(-0.175122 -0.268051 0)
(-0.184701 -0.265762 0)
(-0.194134 -0.263318 0)
(-0.203331 -0.260715 0)
(-0.212215 -0.257944 0)
(-0.220813 -0.254995 0)
(-0.229197 -0.251842 0)
(-0.236701 -0.248437 0)
(-0.239683 -0.244746 0)
(-0.235609 -0.240263 0)
(-0.227008 -0.235139 0)
(-0.217191 -0.229441 0)
(-0.206787 -0.223199 0)
(-0.195775 -0.216426 0)
(-0.184212 -0.20914 0)
(-0.17222 -0.201368 0)
(-0.159931 -0.19315 0)
(-0.147477 -0.184547 0)
(-0.134986 -0.175636 0)
(-0.122604 -0.166518 0)
(-0.110563 -0.157327 0)
(-0.0992219 -0.148237 0)
(-0.0890376 -0.139462 0)
(-0.0804881 -0.131235 0)
(-0.0739835 -0.123768 0)
(-0.0697435 -0.117185 0)
(-0.0677014 -0.111458 0)
(-0.0675147 -0.106413 0)
(-0.0686911 -0.101794 0)
(-0.0707408 -0.0973575 0)
(-0.0732699 -0.0929277 0)
(-0.0760026 -0.0883965 0)
(-0.0787653 -0.0837093 0)
(-0.0814568 -0.0788442 0)
(-0.0840205 -0.0737976 0)
(-0.0864253 -0.0685751 0)
(-0.0886531 -0.0631872 0)
(-0.0906934 -0.0576463 0)
(-0.0925396 -0.0519658 0)
(-0.0941874 -0.0461596 0)
(-0.0956339 -0.0402417 0)
(-0.0968772 -0.034226 0)
(-0.0979162 -0.0281263 0)
(-0.0987492 -0.0219562 0)
(-0.0993711 -0.0157292 0)
(-0.0997771 -0.00945881 0)
(-0.099986 -0.00315848 0)
(0.099981 -0.00451878 0)
(0.0996943 -0.0135076 0)
(0.0991276 -0.022422 0)
(0.0982639 -0.0312371 0)
(0.0971168 -0.0399287 0)
(0.0956992 -0.0484742 0)
(0.0940232 -0.0568525 0)
(0.092104 -0.065045 0)
(0.0899631 -0.0730367 0)
(0.0876291 -0.0808177 0)
(0.08514 -0.0883853 0)
(0.0825437 -0.0957462 0)
(0.0798989 -0.102919 0)
(0.0772729 -0.109938 0)
(0.0747362 -0.116848 0)
(0.072353 -0.123711 0)
(0.0701692 -0.130588 0)
(0.068198 -0.137541 0)
(0.0664114 -0.144609 0)
(0.064738 -0.151811 0)
(0.0630719 -0.159136 0)
(0.0612894 -0.166545 0)
(0.0592673 -0.173983 0)
(0.0568985 -0.181384 0)
(0.0541013 -0.18868 0)
(0.0508218 -0.195804 0)
(0.0470314 -0.202697 0)
(0.0427225 -0.209307 0)
(0.0379025 -0.215591 0)
(0.0325892 -0.221512 0)
(0.0268065 -0.227045 0)
(0.0205816 -0.232169 0)
(0.0139431 -0.23687 0)
(0.00691984 -0.241142 0)
(-0.000459214 -0.24498 0)
(-0.00816633 -0.248388 0)
(-0.0161759 -0.251371 0)
(-0.0244643 -0.253938 0)
(-0.0330093 -0.256099 0)
(-0.04179 -0.257868 0)
(-0.0507865 -0.259258 0)
(-0.05998 -0.260287 0)
(-0.0693524 -0.260969 0)
(-0.0788858 -0.261323 0)
(-0.0885629 -0.261367 0)
(-0.0983663 -0.261116 0)
(-0.108278 -0.260589 0)
(-0.118281 -0.259803 0)
(-0.128355 -0.258773 0)
(-0.138481 -0.257514 0)
(-0.148636 -0.25604 0)
(-0.158796 -0.254363 0)
(-0.168931 -0.252493 0)
(-0.179007 -0.250439 0)
(-0.188982 -0.248206 0)
(-0.198792 -0.245796 0)
(-0.208335 -0.243206 0)
(-0.217526 -0.240428 0)
(-0.226371 -0.237459 0)
(-0.234887 -0.234285 0)
(-0.242245 -0.230873 0)
(-0.244715 -0.227093 0)
(-0.239916 -0.222526 0)
(-0.230721 -0.217386 0)
(-0.220406 -0.211737 0)
(-0.209544 -0.205603 0)
(-0.19809 -0.199002 0)
(-0.186093 -0.191961 0)
(-0.173683 -0.184513 0)
(-0.160997 -0.176703 0)
(-0.148177 -0.168591 0)
(-0.135361 -0.160252 0)
(-0.12271 -0.15178 0)
(-0.110481 -0.1433 0)
(-0.0990571 -0.13497 0)
(-0.0888984 -0.126982 0)
(-0.0804725 -0.119541 0)
(-0.074158 -0.112825 0)
(-0.0701263 -0.106924 0)
(-0.0682602 -0.101794 0)
(-0.0681847 -0.0972604 0)
(-0.0694016 -0.0930881 0)
(-0.0714339 -0.0890629 0)
(-0.0739074 -0.0850313 0)
(-0.0765648 -0.080901 0)
(-0.0792453 -0.0766256 0)
(-0.0818563 -0.0721862 0)
(-0.0843457 -0.0675798 0)
(-0.0866844 -0.0628112 0)
(-0.0888552 -0.0578894 0)
(-0.0908476 -0.0528252 0)
(-0.0926545 -0.0476305 0)
(-0.0942706 -0.0423178 0)
(-0.0956922 -0.0368996 0)
(-0.0969163 -0.0313889 0)
(-0.097941 -0.0257985 0)
(-0.0987635 -0.0201412 0)
(-0.0993782 -0.0144299 0)
(-0.0997796 -0.00867768 0)
(-0.0999862 -0.00289757 0)
(0.099981 -0.00414962 0)
(0.0996951 -0.0124045 0)
(0.0991298 -0.0205913 0)
(0.0982685 -0.0286869 0)
(0.0971248 -0.036669 0)
(0.095712 -0.0445167 0)
(0.0940422 -0.0522105 0)
(0.0921311 -0.0597334 0)
(0.0900003 -0.0670719 0)
(0.0876787 -0.0742169 0)
(0.085204 -0.081166 0)
(0.0826246 -0.0879257 0)
(0.0799987 -0.0945134 0)
(0.0773937 -0.100959 0)
(0.0748798 -0.107307 0)
(0.0725215 -0.113611 0)
(0.0703647 -0.11993 0)
(0.0684234 -0.126319 0)
(0.06667 -0.132817 0)
(0.0650339 -0.139441 0)
(0.0634094 -0.146182 0)
(0.0616726 -0.153006 0)
(0.0596995 -0.159864 0)
(0.0573819 -0.166695 0)
(0.0546362 -0.173438 0)
(0.0514068 -0.180031 0)
(0.0476631 -0.186422 0)
(0.0433955 -0.19256 0)
(0.0386097 -0.198407 0)
(0.0333216 -0.203929 0)
(0.0275535 -0.209102 0)
(0.0213312 -0.213904 0)
(0.0146819 -0.218325 0)
(0.00763301 -0.222355 0)
(0.000212366 -0.225991 0)
(-0.00755336 -0.229234 0)
(-0.0156393 -0.232089 0)
(-0.0240225 -0.234562 0)
(-0.0326817 -0.236661 0)
(-0.0415963 -0.238398 0)
(-0.050747 -0.239784 0)
(-0.0601149 -0.240832 0)
(-0.0696816 -0.241557 0)
(-0.079429 -0.241971 0)
(-0.089339 -0.242091 0)
(-0.0993932 -0.241929 0)
(-0.109573 -0.2415 0)
(-0.119858 -0.240818 0)
(-0.130228 -0.239896 0)
(-0.140659 -0.238745 0)
(-0.151126 -0.237376 0)
(-0.161601 -0.2358 0)
(-0.172051 -0.234022 0)
(-0.182436 -0.232051 0)
(-0.192708 -0.22989 0)
(-0.202793 -0.227541 0)
(-0.212584 -0.225001 0)
(-0.222003 -0.222267 0)
(-0.231066 -0.219345 0)
(-0.239752 -0.216248 0)
(-0.246887 -0.21297 0)
(-0.248673 -0.209192 0)
(-0.243108 -0.204637 0)
(-0.233456 -0.199581 0)
(-0.222768 -0.194096 0)
(-0.211539 -0.188194 0)
(-0.199724 -0.181889 0)
(-0.187378 -0.175208 0)
(-0.174636 -0.168186 0)
(-0.161643 -0.160869 0)
(-0.148546 -0.153314 0)
(-0.13549 -0.145594 0)
(-0.122651 -0.137794 0)
(-0.110307 -0.130031 0)
(-0.0988557 -0.122449 0)
(-0.0887609 -0.11522 0)
(-0.0804769 -0.108522 0)
(-0.0743528 -0.102506 0)
(-0.0705168 -0.097234 0)
(-0.0688093 -0.0926464 0)
(-0.068831 -0.0885732 0)
(-0.0700819 -0.0848022 0)
(-0.0720986 -0.081146 0)
(-0.0745244 -0.0774734 0)
(-0.0771173 -0.073707 0)
(-0.0797272 -0.069808 0)
(-0.082268 -0.065761 0)
(-0.0846913 -0.0615636 0)
(-0.0869696 -0.0572199 0)
(-0.0890865 -0.0527377 0)
(-0.0910316 -0.0481264 0)
(-0.0927976 -0.0433962 0)
(-0.094379 -0.0385582 0)
(-0.0957714 -0.0336235 0)
(-0.0969717 -0.0286037 0)
(-0.0979773 -0.0235104 0)
(-0.098785 -0.0183555 0)
(-0.0993889 -0.0131507 0)
(-0.0997834 -0.00790833 0)
(-0.0999865 -0.00264058 0)
(0.0999811 -0.00378177 0)
(0.0996965 -0.0113053 0)
(0.0991337 -0.018767 0)
(0.0982761 -0.0261458 0)
(0.0971376 -0.0334214 0)
(0.0957312 -0.0405745 0)
(0.0940694 -0.0475874 0)
(0.0921679 -0.0544447 0)
(0.0900481 -0.0611339 0)
(0.0877391 -0.067647 0)
(0.0852786 -0.0739819 0)
(0.0827145 -0.0801445 0)
(0.0801052 -0.0861508 0)
(0.0775175 -0.0920286 0)
(0.0750217 -0.0978176 0)
(0.0726823 -0.103568 0)
(0.0705454 -0.109332 0)
(0.0686256 -0.115163 0)
(0.0668959 -0.121095 0)
(0.0652861 -0.127145 0)
(0.0636912 -0.133306 0)
(0.0619868 -0.139547 0)
(0.0600483 -0.145825 0)
(0.0577664 -0.152084 0)
(0.0550563 -0.158269 0)
(0.0518606 -0.164324 0)
(0.0481473 -0.1702 0)
(0.0439052 -0.175853 0)
(0.0391384 -0.181245 0)
(0.0338615 -0.186347 0)
(0.0280956 -0.191135 0)
(0.0218652 -0.19559 0)
(0.0151963 -0.199701 0)
(0.00811551 -0.203459 0)
(0.000649648 -0.20686 0)
(-0.00717526 -0.209904 0)
(-0.015335 -0.212595 0)
(-0.0238073 -0.214937 0)
(-0.0325714 -0.216937 0)
(-0.041607 -0.218604 0)
(-0.0508946 -0.219948 0)
(-0.0604153 -0.22098 0)
(-0.0701504 -0.22171 0)
(-0.0800814 -0.222152 0)
(-0.0901893 -0.222315 0)
(-0.100455 -0.222213 0)
(-0.110857 -0.221857 0)
(-0.121376 -0.221259 0)
(-0.131987 -0.220427 0)
(-0.142665 -0.219374 0)
(-0.153383 -0.218106 0)
(-0.164109 -0.216633 0)
(-0.174805 -0.21496 0)
(-0.185429 -0.213093 0)
(-0.195929 -0.211036 0)
(-0.206224 -0.20879 0)
(-0.216205 -0.206356 0)
(-0.225807 -0.203732 0)
(-0.235076 -0.20093 0)
(-0.243929 -0.197968 0)
(-0.250698 -0.194857 0)
(-0.251607 -0.191134 0)
(-0.245305 -0.186695 0)
(-0.235351 -0.181826 0)
(-0.224426 -0.176599 0)
(-0.212932 -0.171017 0)
(-0.200839 -0.165091 0)
(-0.188223 -0.158845 0)
(-0.175224 -0.152315 0)
(-0.161996 -0.145544 0)
(-0.14869 -0.138586 0)
(-0.135458 -0.131507 0)
(-0.122488 -0.124387 0)
(-0.110077 -0.117331 0)
(-0.0986338 -0.110471 0)
(-0.0886236 -0.103959 0)
(-0.0804886 -0.0979524 0)
(-0.0745506 -0.0925771 0)
(-0.0708994 -0.0878764 0)
(-0.0693396 -0.0837819 0)
(-0.0694522 -0.0801329 0)
(-0.070737 -0.0767385 0)
(-0.0727428 -0.0734348 0)
(-0.0751284 -0.0701093 0)
(-0.0776648 -0.0666964 0)
(-0.0802115 -0.0631634 0)
(-0.0826881 -0.0594975 0)
(-0.0850496 -0.0556968 0)
(-0.0872701 -0.051765 0)
(-0.0893343 -0.047709 0)
(-0.091232 -0.0435368 0)
(-0.0929561 -0.0392577 0)
(-0.0945009 -0.0348811 0)
(-0.095862 -0.0304172 0)
(-0.0970359 -0.0258762 0)
(-0.0980198 -0.0212686 0)
(-0.0988104 -0.0166051 0)
(-0.0994017 -0.0118965 0)
(-0.0997879 -0.00715393 0)
(-0.0999868 -0.0023886 0)
(0.0999812 -0.00341575 0)
(0.0996979 -0.0102114 0)
(0.0991378 -0.0169515 0)
(0.0982842 -0.0236171 0)
(0.097151 -0.0301898 0)
(0.0957513 -0.0366521 0)
(0.0940973 -0.0429882 0)
(0.0922049 -0.0491841 0)
(0.0900955 -0.0552287 0)
(0.0877978 -0.0611147 0)
(0.0853497 -0.0668402 0)
(0.0827987 -0.0724108 0)
(0.0802031 -0.0778407 0)
(0.0776294 -0.0831552 0)
(0.075148 -0.0883901 0)
(0.0728232 -0.0935905 0)
(0.0707015 -0.0988054 0)
(0.0687978 -0.10408 0)
(0.0670856 -0.109449 0)
(0.0654954 -0.114928 0)
(0.0639219 -0.120508 0)
(0.0622408 -0.126166 0)
(0.0603269 -0.13186 0)
(0.0580699 -0.137542 0)
(0.0553839 -0.143161 0)
(0.0522101 -0.148668 0)
(0.0485155 -0.154017 0)
(0.0442875 -0.159169 0)
(0.039529 -0.164091 0)
(0.0342537 -0.168754 0)
(0.0284816 -0.173136 0)
(0.0222362 -0.177221 0)
(0.0155427 -0.180997 0)
(0.00842715 -0.184456 0)
(0.000915584 -0.187595 0)
(-0.0069665 -0.190411 0)
(-0.0151954 -0.192908 0)
(-0.0237494 -0.19509 0)
(-0.0326077 -0.196961 0)
(-0.0417501 -0.198529 0)
(-0.0511573 -0.199802 0)
(-0.0608099 -0.200788 0)
(-0.070689 -0.201498 0)
(-0.0807754 -0.20194 0)
(-0.0910494 -0.202125 0)
(-0.101491 -0.202062 0)
(-0.112077 -0.201761 0)
(-0.122787 -0.201231 0)
(-0.133594 -0.200482 0)
(-0.144472 -0.19952 0)
(-0.155389 -0.198353 0)
(-0.166313 -0.196989 0)
(-0.177203 -0.195432 0)
(-0.188015 -0.193687 0)
(-0.198691 -0.191758 0)
(-0.209148 -0.189647 0)
(-0.219273 -0.187353 0)
(-0.229018 -0.184878 0)
(-0.238447 -0.182231 0)
(-0.247399 -0.179427 0)
(-0.253708 -0.176496 0)
(-0.253737 -0.172926 0)
(-0.246816 -0.168723 0)
(-0.236662 -0.164147 0)
(-0.225579 -0.159264 0)
(-0.213888 -0.154075 0)
(-0.201583 -0.148591 0)
(-0.188758 -0.142837 0)
(-0.175562 -0.136846 0)
(-0.162155 -0.130658 0)
(-0.148693 -0.124323 0)
(-0.135332 -0.1179 0)
(-0.122272 -0.111464 0)
(-0.109825 -0.105107 0)
(-0.0984119 -0.0989498 0)
(-0.0884955 -0.0931274 0)
(-0.0805064 -0.0877776 0)
(-0.0747416 -0.0830044 0)
(-0.0712574 -0.0788359 0)
(-0.0698284 -0.0752 0)
(-0.0700205 -0.0719476 0)
(-0.0713349 -0.0689086 0)
(-0.0733316 -0.0659409 0)
(-0.0756829 -0.0629484 0)
(-0.0781707 -0.0598758 0)
(-0.0806627 -0.0566958 0)
(-0.0830832 -0.0533979 0)
(-0.0853899 -0.0499807 0)
(-0.0875587 -0.0464475 0)
(-0.0895748 -0.0428043 0)
(-0.0914286 -0.0390582 0)
(-0.0931131 -0.035217 0)
(-0.0946228 -0.0312893 0)
(-0.0959533 -0.0272839 0)
(-0.097101 -0.0232098 0)
(-0.0980632 -0.0190764 0)
(-0.0988365 -0.0148931 0)
(-0.0994148 -0.0106696 0)
(-0.0997926 -0.00641593 0)
(-0.0999871 -0.0021421 0)
(0.0999813 -0.00305149 0)
(0.0996993 -0.00912265 0)
(0.0991418 -0.0151445 0)
(0.0982921 -0.0211001 0)
(0.097164 -0.026973 0)
(0.0957705 -0.0327477 0)
(0.094124 -0.03841 0)
(0.0922399 -0.0439476 0)
(0.0901397 -0.0493504 0)
(0.0878522 -0.054612 0)
(0.0854146 -0.0597308 0)
(0.0828747 -0.0647116 0)
(0.0802903 -0.0695674 0)
(0.077728 -0.0743206 0)
(0.0752577 -0.0790034 0)
(0.072944 -0.083656 0)
(0.0708335 -0.0883225 0)
(0.0689416 -0.0930438 0)
(0.0672421 -0.0978506 0)
(0.0656656 -0.102757 0)
(0.0641073 -0.107757 0)
(0.0624426 -0.112829 0)
(0.0605457 -0.117936 0)
(0.0583055 -0.123036 0)
(0.0556351 -0.128084 0)
(0.052475 -0.133034 0)
(0.0487907 -0.137846 0)
(0.044569 -0.142486 0)
(0.0398118 -0.146922 0)
(0.0345318 -0.15113 0)
(0.0287484 -0.15509 0)
(0.0224845 -0.158786 0)
(0.0157646 -0.162208 0)
(0.00861402 -0.165347 0)
(0.00105857 -0.168201 0)
(-0.0068768 -0.170767 0)
(-0.0151687 -0.173047 0)
(-0.0237956 -0.175045 0)
(-0.0327367 -0.176763 0)
(-0.041972 -0.178209 0)
(-0.0514818 -0.179388 0)
(-0.0612467 -0.180308 0)
(-0.0712472 -0.180976 0)
(-0.0814635 -0.181401 0)
(-0.0918753 -0.18159 0)
(-0.102461 -0.181552 0)
(-0.113198 -0.181295 0)
(-0.124063 -0.180826 0)
(-0.135028 -0.180152 0)
(-0.146064 -0.179281 0)
(-0.15714 -0.178219 0)
(-0.16822 -0.17697 0)
(-0.179261 -0.17554 0)
(-0.190216 -0.173933 0)
(-0.201026 -0.172152 0)
(-0.211602 -0.170198 0)
(-0.221833 -0.168072 0)
(-0.23168 -0.165774 0)
(-0.241223 -0.163313 0)
(-0.250225 -0.160701 0)
(-0.256077 -0.157995 0)
(-0.255316 -0.154663 0)
(-0.247877 -0.150781 0)
(-0.237565 -0.146572 0)
(-0.226365 -0.142094 0)
(-0.214525 -0.137352 0)
(-0.202056 -0.132358 0)
(-0.189071 -0.127135 0)
(-0.175727 -0.121716 0)
(-0.162186 -0.116135 0)
(-0.148607 -0.110439 0)
(-0.135151 -0.104681 0)
(-0.12203 -0.098926 0)
(-0.10957 -0.0932595 0)
(-0.098198 -0.087787 0)
(-0.0883768 -0.0826289 0)
(-0.0805251 -0.077904 0)
(-0.074918 -0.0736989 0)
(-0.0715829 -0.07003 0)
(-0.0702692 -0.0668254 0)
(-0.0705309 -0.0639493 0)
(-0.0718716 -0.061252 0)
(-0.0738612 -0.0586108 0)
(-0.0761833 -0.0559442 0)
(-0.0786295 -0.0532054 0)
(-0.0810741 -0.0503717 0)
(-0.0834456 -0.0474344 0)
(-0.0857041 -0.0443926 0)
(-0.0878267 -0.0412494 0)
(-0.0897995 -0.0380097 0)
(-0.0916133 -0.0346797 0)
(-0.0932614 -0.0312665 0)
(-0.0947386 -0.0277774 0)
(-0.0960404 -0.0242199 0)
(-0.0971635 -0.0206022 0)
(-0.0981049 -0.0169323 0)
(-0.0988616 -0.0132186 0)