/*--------------------------------*- C++ -*----------------------------------*\
  =========                 |
  \\      /  F ield         | OpenFOAM: The Open Source CFD Toolbox
   \\    /   O peration     | Website:  https://openfoam.org
    \\  /    A nd           | Version:  8
     \\/     M anipulation  |
\*---------------------------------------------------------------------------*/
FoamFile
{
    version     2.0;
    format      ascii;
    class       volScalarField;
    location    "720/fluid";
    object      CH4;
}
// * * * * * * * * * * * * * * * * * * * * * * * * * * * * * * * * * * * * * //

dimensions      [0 0 0 0 0 0 0];

internalField   nonuniform List<scalar> 
4000
(
0.999997
0.999986
0.999968
0.999938
0.999888
0.999804
0.999667
0.999443
0.999079
0.998498
0.997583
0.996164
0.994006
0.990799
0.986156
0.979632
0.970759
0.95911
0.944356
0.926321
0.904997
0.880537
0.853219
0.823407
0.791514
0.757972
0.723209
0.687634
0.651632
0.615549
0.579697
0.544344
0.509721
0.476016
0.44338
0.411934
0.38177
0.352949
0.325509
0.299468
0.274824
0.251562
0.229653
0.209062
0.189745
0.171651
0.154728
0.138922
0.124176
0.110436
0.0976452
0.085752
0.0747054
0.064458
0.0549657
0.046189
0.038093
0.0307501
0.0241068
0.0178906
0.0122886
0.00731247
0.00327818
0.00229952
0.00159246
0.00108677
0.000729448
0.000480529
0.000309985
0.000195415
0.000120268
7.24838e-05
4.34624e-05
2.73742e-05
1.99443e-05
1.53012e-05
1.13413e-05
7.96737e-06
5.25041e-06
3.22169e-06
1.83748e-06
9.7895e-07
4.91746e-07
2.36692e-07
1.10586e-07
5.04543e-08
2.25768e-08
9.94058e-09
4.31768e-09
1.85383e-09
7.88161e-10
3.32275e-10
1.39057e-10
5.78027e-11
2.38533e-11
9.74333e-12
3.9031e-12
1.49282e-12
4.99192e-13
8.75734e-14
0.999997
0.999986
0.999968
0.999938
0.999887
0.999804
0.999665
0.99944
0.999075
0.998492
0.997576
0.99616
0.994014
0.990835
0.986246
0.979815
0.971085
0.959632
0.945125
0.927374
0.906352
0.882189
0.855141
0.825557
0.793839
0.760414
0.72571
0.690141
0.654096
0.617929
0.581961
0.546466
0.511683
0.477807
0.444994
0.41337
0.383028
0.354036
0.326433
0.300237
0.27545
0.252055
0.230026
0.209326
0.18991
0.17173
0.15473
0.138856
0.124052
0.110261
0.0974277
0.0854983
0.0744214
0.064149
0.0546366
0.0458438
0.0377356
0.0303874
0.0237415
0.0175209
0.0119173
0.00694853
0.00322466
0.00225999
0.00156274
0.0010643
0.000712533
0.000467957
0.000300823
0.000188917
0.000115831
6.96306e-05
4.18351e-05
2.67328e-05
1.97503e-05
1.50562e-05
1.10381e-05
7.66303e-06
4.99123e-06
3.03303e-06
1.72018e-06
9.16336e-07
4.62743e-07
2.24413e-07
1.05787e-07
4.87098e-08
2.19849e-08
9.75295e-09
4.26214e-09
1.83846e-09
7.84119e-10
3.31195e-10
1.38713e-10
5.76534e-11
2.37738e-11
9.69971e-12
3.88055e-12
1.48234e-12
4.95172e-13
8.6854e-14
0.999997
0.999986
0.999968
0.999938
0.999887
0.999803
0.999664
0.999437
0.999071
0.998488
0.997572
0.996158
0.99402
0.990862
0.986314
0.979951
0.971327
0.960025
0.945716
0.928206
0.907457
0.883584
0.856825
0.827512
0.796032
0.7628
0.728238
0.692756
0.656743
0.62056
0.584528
0.548931
0.514012
0.479976
0.446984
0.415167
0.384626
0.355433
0.32763
0.301241
0.276268
0.252698
0.230506
0.209655
0.190099
0.17179
0.154678
0.138704
0.123812
0.109944
0.0970441
0.085058
0.0739335
0.0636217
0.0540774
0.0452598
0.0371334
0.0297814
0.0231344
0.0169199
0.0113366
0.00637945
0.00318332
0.0022187
0.00152595
0.00103367
0.000688253
0.000449474
0.000287279
0.00017938
0.000109428
6.56217e-05
3.96487e-05
2.59647e-05
1.94463e-05
1.47087e-05
1.06666e-05
7.32525e-06
4.72509e-06
2.85032e-06
1.61011e-06
8.57263e-07
4.33965e-07
2.11221e-07
1.00025e-07
4.62899e-08
2.10015e-08
9.36375e-09
4.11115e-09
1.78064e-09
7.62089e-10
3.22775e-10
1.35461e-10
5.63769e-11
2.32643e-11
9.494e-12
3.79772e-12
1.45017e-12
4.84178e-13
8.49104e-14
0.999997
0.999986
0.999968
0.999938
0.999887
0.999803
0.999664
0.999438
0.999074
0.998494
0.997584
0.996183
0.994067
0.990943
0.986449
0.980165
0.971651
0.960493
0.946362
0.929056
0.908532
0.884891
0.858363
0.829267
0.797981
0.764911
0.730474
0.695076
0.659106
0.622923
0.586851
0.551179
0.516153
0.481982
0.448835
0.416847
0.386123
0.356741
0.328748
0.302169
0.277012
0.253264
0.230903
0.209892
0.19019
0.171752
0.15452
0.138438
0.12345
0.109499
0.0965268
0.0844792
0.0733034
0.0629497
0.0533722
0.0445296
0.0363859
0.0290438
0.0224136
0.0162086
0.0106248
0.00568749
0.00314314
0.00217607
0.00148628
0.000999753
0.000661003
0.000428667
0.000272102
0.000168802
0.000102428
6.13157e-05
3.73565e-05
2.51848e-05
1.90238e-05
1.42609e-05
1.02277e-05
6.94449e-06
4.43164e-06
2.64948e-06
1.48752e-06
7.8969e-07
3.99759e-07
1.94964e-07
9.26147e-08
4.30206e-08
1.95965e-08
8.77295e-09
3.8672e-09
1.68135e-09
7.22114e-10
3.06801e-10
1.29105e-10
5.38538e-11
2.22639e-11
9.0987e-12
3.64336e-12
1.39213e-12
4.64904e-13
8.15567e-14
0.999997
0.999986
0.999968
0.999938
0.999887
0.999804
0.999666
0.999441
0.999078
0.998502
0.997599
0.99621
0.994113
0.991019
0.986571
0.980356
0.971935
0.960898
0.946915
0.929781
0.909445
0.885999
0.859663
0.830748
0.799622
0.766688
0.732356
0.697029
0.661095
0.624913
0.588809
0.553073
0.517956
0.48367
0.450389
0.418251
0.387367
0.357817
0.329653
0.302904
0.27758
0.25367
0.231151
0.209992
0.190157
0.171592
0.154246
0.138063
0.122985
0.108955
0.0959162
0.0838124
0.0725906
0.0622006
0.0525956
0.0437331
0.0355878
0.0282777
0.0216484
0.0154368
0.00987019
0.00499744
0.00310141
0.00212478
0.00143765
0.000958798
0.00062894
0.000404883
0.00025525
0.000157379
9.50624e-05
5.68857e-05
3.50757e-05
2.44501e-05
1.85026e-05
1.37436e-05
9.76014e-06
6.56405e-06
4.15312e-06
2.46646e-06
1.37911e-06
7.31074e-07
3.70352e-07
1.80999e-07
8.62155e-08
4.01671e-08
1.83508e-08
8.23843e-09
3.64097e-09
1.58666e-09
6.82837e-10
2.90623e-10
1.22479e-10
5.11521e-11
2.11676e-11
8.65712e-12
3.46831e-12
1.32562e-12
4.42668e-13
7.76869e-14
0.999997
0.999986
0.999968
0.999938
0.999888
0.999805
0.999668
0.999445
0.999085
0.998514
0.997619
0.996242
0.994166
0.991104
0.986701
0.980549
0.972212
0.96128
0.947423
0.930431
0.910245
0.886955
0.86077
0.831995
0.800993
0.768161
0.733907
0.698631
0.662719
0.626531
0.590394
0.554599
0.5194
0.485013
0.451614
0.419345
0.388321
0.358624
0.330309
0.303409
0.277935
0.25388
0.231227
0.209946
0.189991
0.171316
0.153871
0.137599
0.122444
0.108347
0.0952517
0.0831024
0.0718456
0.0614308
0.0518112
0.0429444
0.0347931
0.0275
0.0208622
0.0146645
0.00912031
0.00430787
0.00295319
0.0020082
0.00135076
0.00089635
0.000585343
0.000375247
0.000235646
0.000144805
8.73025e-05
5.23618e-05
3.2737e-05
2.34063e-05
1.77796e-05
1.31465e-05
9.28043e-06
6.20061e-06
3.89807e-06
2.30247e-06
1.28255e-06
6.78527e-07
3.43573e-07
1.68064e-07
8.01752e-08
3.74221e-08
1.71315e-08
7.70709e-09
3.4132e-09
1.49036e-09
6.42584e-10
2.73953e-10
1.15626e-10
4.83527e-11
2.00307e-11
8.19909e-12
3.28677e-12
1.25671e-12
4.19597e-13
7.37119e-14
0.999997
0.999986
0.999968
0.999939
0.999889
0.999806
0.99967
0.999449
0.999092
0.998525
0.997638
0.996274
0.994216
0.991182
0.98682
0.980723
0.972459
0.961617
0.947865
0.930991
0.91093
0.887765
0.8617
0.833035
0.802128
0.769372
0.735172
0.699928
0.664025
0.627823
0.591648
0.555796
0.520522
0.486044
0.45254
0.420157
0.38901
0.359187
0.330745
0.303716
0.278112
0.253936
0.231167
0.209774
0.189718
0.170951
0.153422
0.137076
0.121857
0.107706
0.0945665
0.0823829
0.0711016
0.0606725
0.0510491
0.0421899
0.034057
0.0268452
0.020071
0.0139434
0.00846448
0.00373102
0.00260711
0.00179562
0.00121804
0.000812749
0.000532591
0.000342134
0.000215116
0.000132338
7.99834e-05
4.83195e-05
3.08116e-05
2.25383e-05
1.71578e-05
1.26464e-05
8.88862e-06
5.90835e-06
3.6949e-06
2.1725e-06
1.20611e-06
6.36819e-07
3.22182e-07
1.57639e-07
7.52503e-08
3.5154e-08
1.61091e-08
7.25472e-09
3.21626e-09
1.40584e-09
6.06752e-10
2.58922e-10
1.09377e-10
4.57748e-11
1.89752e-11
7.77102e-12
3.11619e-12
1.19187e-12
3.97671e-13
7.00538e-14
0.999997
0.999986
0.999969
0.999939
0.99989
0.999808
0.999673
0.999453
0.999099
0.998537
0.997657
0.996304
0.994264
0.991256
0.98693
0.980881
0.972679
0.961914
0.94825
0.931472
0.911513
0.888447
0.862476
0.833895
0.803058
0.770356
0.736192
0.700966
0.66506
0.628836
0.592622
0.556714
0.52137
0.486808
0.45321
0.420725
0.389471
0.359536
0.33098
0.30384
0.278135
0.253858
0.230992
0.209508
0.189367
0.170524
0.152928
0.136523
0.121252
0.107059
0.0938863
0.0816775
0.070379
0.0599402
0.050314
0.0414576
0.0333723
0.0261879
0.0194446
0.0133813
0.00800608
0.0034369
0.00239934
0.00165332
0.00112265
0.000749906
0.000491872
0.000316211
0.000198951
0.000122526
7.4268e-05
4.52517e-05
2.94864e-05
2.20054e-05
1.67826e-05
1.23338e-05
8.62885e-06
5.70555e-06
3.54839e-06
2.07574e-06
1.14764e-06
6.04136e-07
3.05037e-07
1.49125e-07
7.11596e-08
3.32417e-08
1.52357e-08
6.86394e-09
3.04451e-09
1.33153e-09
5.75035e-10
2.45543e-10
1.03789e-10
4.34612e-11
1.8025e-11
7.38467e-12
2.96148e-12
1.13419e-12
3.78e-13
6.67792e-14
0.999997
0.999986
0.999969
0.999939
0.99989
0.999809
0.999675
0.999457
0.999106
0.998548
0.997675
0.996332
0.994307
0.991321
0.987027
0.98102
0.972871
0.96217
0.948579
0.931881
0.912003
0.889016
0.863119
0.8346
0.803815
0.77115
0.737008
0.701786
0.66587
0.62962
0.593366
0.557404
0.521994
0.487357
0.453677
0.421105
0.389759
0.359729
0.331078
0.303847
0.27805
0.253687
0.230739
0.20918
0.188971
0.170066
0.152416
0.135964
0.120654
0.10643
0.0932328
0.0810074
0.0696998
0.0592595
0.0496402
0.0408007
0.0327603
0.0255967
0.0188804
0.0128543
0.00752438
0.00327614
0.00228436
0.00157246
0.00106687
0.000712222
0.000466983
0.000300194
0.000188965
0.000116566
7.09577e-05
4.36815e-05
2.9085e-05
2.19413e-05
1.66959e-05
1.22194e-05
8.50262e-06
5.58526e-06
3.4516e-06
2.00761e-06
1.10475e-06
5.79452e-07
2.91793e-07
1.42432e-07
6.78948e-08
3.16947e-08
1.45207e-08
6.54045e-09
2.90093e-09
1.26887e-09
5.48085e-10
2.34099e-10
9.89829e-11
4.14615e-11
1.72005e-11
7.04886e-12
2.82652e-12
1.084e-12
3.60839e-13
6.39308e-14
0.999997
0.999987
0.999969
0.99994
0.999891
0.99981
0.999677
0.99946
0.999112
0.998557
0.99769
0.996357
0.994346
0.991379
0.987111
0.98114
0.973036
0.962388
0.948858
0.932224
0.912411
0.889487
0.863646
0.835175
0.804426
0.771785
0.737653
0.702429
0.666497
0.630217
0.593922
0.557909
0.522439
0.487734
0.45398
0.421329
0.389902
0.359793
0.331066
0.303757
0.277886
0.253451
0.230438
0.208818
0.188554
0.1696
0.151907
0.135419
0.120081
0.105833
0.0926188
0.0803822
0.0690689
0.0586279
0.049012
0.0401787
0.0321624
0.0250266
0.0183311
0.0123201
0.00699976
0.00320934
0.00223282
0.00153412
0.0010392
0.000692806
0.000453728
0.000291409
0.00018335
0.000113165
6.90999e-05
4.29263e-05
2.91327e-05
2.2149e-05
1.6801e-05
1.22337e-05
8.46605e-06
5.5281e-06
3.3931e-06
1.96169e-06
1.07399e-06
5.61037e-07
2.81629e-07
1.37195e-07
6.53e-08
3.04491e-08
1.39386e-08
6.27473e-09
2.78208e-09
1.21665e-09
5.25503e-10
2.24466e-10
9.4922e-11
3.97669e-11
1.64998e-11
6.76365e-12
2.71165e-12
1.04114e-12
3.46202e-13
6.14932e-14
0.999997
0.999987
0.999969
0.99994
0.999892
0.999811
0.999679
0.999463
0.999117
0.998566
0.997704
0.996378
0.994379
0.991429
0.987184
0.981242
0.973175
0.962572
0.949091
0.93251
0.912749
0.889873
0.864074
0.835638
0.804914
0.772287
0.738159
0.702926
0.666975
0.630666
0.594332
0.558272
0.522747
0.487983
0.454166
0.421448
0.389952
0.359776
0.330981
0.303607
0.277674
0.253181
0.230113
0.208444
0.188136
0.169145
0.151419
0.134904
0.119544
0.10528
0.0920552
0.0798124
0.0684975
0.0580591
0.0484495
0.0396268
0.0316339
0.0245167
0.0178346
0.0118419
0.00654196
0.00318054
0.00221053
0.00151759
0.00102744
0.00068475
0.00044843
0.00028808
0.00018138
0.000112115
6.86841e-05
4.29999e-05
2.96739e-05
2.26357e-05
1.70934e-05
1.23742e-05
8.50692e-06
5.51737e-06
3.36516e-06
1.93326e-06
1.05295e-06
5.4773e-07
2.74028e-07
1.33191e-07
6.32823e-08
2.94675e-08
1.34748e-08
6.06107e-09
2.68578e-09
1.17407e-09
5.06992e-10
2.16534e-10
9.15657e-11
3.83623e-11
1.59179e-11
6.52622e-12
2.61591e-12
1.00544e-12
3.33968e-13
5.94722e-14
0.999997
0.999987
0.999969
0.99994
0.999892
0.999812
0.999681
0.999466
0.999121
0.998573
0.997716
0.996397
0.994407
0.991471
0.987245
0.981328
0.973293
0.962725
0.949285
0.932745
0.913025
0.890187
0.86442
0.836009
0.805301
0.772682
0.738551
0.703307
0.667335
0.630997
0.594626
0.558522
0.522949
0.488132
0.454258
0.421483
0.389933
0.359699
0.330848
0.30342
0.277436
0.252896
0.229785
0.208078
0.187736
0.168715
0.150964
0.13443
0.119054
0.10478
0.0915484
0.0793034
0.0679902
0.0575571
0.0479581
0.0391504
0.0311751
0.0240694
0.0174038
0.0114281
0.00614483
0.0031585
0.00219666
0.00150894
0.00102216
0.00068164
0.000446688
0.000287197
0.00018104
0.000112136
6.89829e-05
4.35646e-05
3.05536e-05
2.33175e-05
1.75166e-05
1.2603e-05
8.60687e-06
5.54371e-06
3.35901e-06
1.91864e-06
1.03953e-06
5.38508e-07
2.68512e-07
1.30205e-07
6.17482e-08
2.87101e-08
1.31129e-08
5.89281e-09
2.60938e-09
1.14009e-09
4.92138e-10
2.10142e-10
8.88515e-11
3.72232e-11
1.54449e-11
6.33307e-12
2.53776e-12
9.76577e-13
3.23988e-13
5.78418e-14
0.999997
0.999987
0.99997
0.999941
0.999893
0.999813
0.999682
0.999469
0.999125
0.99858
0.997726
0.996413
0.994431
0.991507
0.987296
0.9814
0.973389
0.962851
0.949443
0.932937
0.913248
0.890439
0.864697
0.836303
0.805605
0.772988
0.738852
0.703595
0.667602
0.631236
0.594832
0.55869
0.523075
0.488212
0.454291
0.421469
0.389869
0.359587
0.33069
0.303218
0.277193
0.252615
0.22947
0.207732
0.187363
0.16832
0.150551
0.134003
0.118617
0.104336
0.0911013
0.0788568
0.0675479
0.0571248
0.0475374
0.038738
0.0307766
0.0236868
0.0170369
0.0110777
0.00581126
0.00314
0.00218712
0.00150463
0.00102074
0.00068169
0.000447412
0.000288152
0.000182013
0.000113051
6.98532e-05
4.44645e-05
3.15872e-05
2.40852e-05
1.8003e-05
1.28792e-05
8.74166e-06
5.59498e-06
3.36928e-06
1.9142e-06
1.03241e-06
5.3266e-07
2.6474e-07
1.28087e-07
6.06319e-08
2.81487e-08
1.28408e-08
5.76483e-09
2.55072e-09
1.11378e-09
4.8057e-10
2.05137e-10
8.67165e-11
3.63238e-11
1.50702e-11
6.18006e-12
2.47552e-12
9.53856e-13
3.16051e-13
5.65694e-14
0.999997
0.999987
0.99997
0.999941
0.999893
0.999814
0.999683
0.999471
0.999128
0.998585
0.997734
0.996426
0.994451
0.991536
0.987338
0.981459
0.973468
0.962954
0.949571
0.933091
0.913427
0.89064
0.864915
0.836533
0.805841
0.773224
0.73908
0.703809
0.667797
0.631406
0.594972
0.558796
0.523144
0.488242
0.454282
0.421419
0.389779
0.359458
0.330523
0.303017
0.276958
0.25235
0.229178
0.207416
0.187028
0.167968
0.150186
0.133627
0.118234
0.10395
0.0907152
0.0784748
0.0671728
0.0567552
0.0471716
0.0383812
0.0304382
0.0233626
0.0167258
0.0107792
0.00553876
0.00312465
0.00218077
0.00150327
0.0010219
0.000683914
0.000449875
0.000290439
0.000183958
0.000114639
7.11512e-05
4.55855e-05
3.26335e-05
2.48687e-05
1.85146e-05
1.3182e-05
8.89998e-06
5.66484e-06
3.39289e-06
1.91805e-06
1.03028e-06
5.29801e-07
2.62515e-07
1.26738e-07
5.98852e-08
2.77602e-08
1.26476e-08
5.6722e-09
2.50762e-09
1.09423e-09
4.71886e-10
2.0135e-10
8.50913e-11
3.56354e-11
1.47819e-11
6.06282e-12
2.4275e-12
9.36397e-13
3.09898e-13
5.56029e-14
0.999997
0.999987
0.99997
0.999941
0.999893
0.999814
0.999684
0.999472
0.999131
0.998589
0.997741
0.996436
0.994467
0.99156
0.987372
0.981506
0.973532
0.963036
0.949673
0.933213
0.913569
0.890798
0.865085
0.836711
0.806022
0.773402
0.739251
0.703967
0.667937
0.631524
0.595065
0.558861
0.523178
0.488244
0.454251
0.421354
0.389681
0.359328
0.330363
0.302828
0.276743
0.252111
0.228918
0.207138
0.186735
0.167662
0.149871
0.133305
0.117909
0.103625
0.0903934
0.0781565
0.0668571
0.0564429
0.0468675
0.0380866
0.030159
0.0230954
0.0164698
0.0105337
0.00531693
0.00311212
0.00217719
0.00150443
0.0010252
0.000687878
0.000453693
0.000293744
0.000186642
0.000116743
7.2792e-05
4.69145e-05
3.37821e-05
2.57137e-05
1.90727e-05
1.35202e-05
9.08473e-06
5.75363e-06
3.42929e-06
1.92997e-06
1.0326e-06
5.29274e-07
2.61585e-07
1.26042e-07
5.94564e-08
2.75194e-08
1.25215e-08
5.60954e-09
2.47769e-09
1.08039e-09
4.65646e-10
1.98598e-10
8.38995e-11
3.5127e-11
1.45679e-11
5.97553e-12
2.39157e-12
9.23392e-13
3.05267e-13
5.48939e-14
0.999997
0.999987
0.99997
0.999941
0.999894
0.999815
0.999685
0.999473
0.999133
0.998593
0.997747
0.996445
0.99448
0.991578
0.987399
0.981543
0.973582
0.9631
0.949753
0.933308
0.913678
0.890919
0.865215
0.836847
0.806159
0.773535
0.739376
0.704081
0.668035
0.631604
0.595123
0.558895
0.523187
0.488227
0.454208
0.421284
0.389585
0.359207
0.330218
0.30266
0.276555
0.251905
0.228697
0.206903
0.186488
0.167407
0.14961
0.133041
0.117645
0.10336
0.0901283
0.0778915
0.066596
0.056189
0.0466216
0.0378496
0.029935
0.0228815
0.0162651
0.0103374
0.00513961
0.00310149
0.00217611
0.00150804
0.00103069
0.000693656
0.00045895
0.000298145
0.000190131
0.000119414
7.48132e-05
4.84823e-05
3.50514e-05
2.66303e-05
1.96802e-05
1.38934e-05
9.29399e-06
5.8592e-06
3.47668e-06
1.94869e-06
1.0389e-06
5.30856e-07
2.61674e-07
1.25821e-07
5.92476e-08
2.73853e-08
1.2446e-08
5.56999e-09
2.45813e-09
1.07108e-09
4.61378e-10
1.96688e-10
8.30651e-11
3.47675e-11
1.44168e-11
5.91299e-12
2.36585e-12
9.14154e-13
3.01927e-13
5.44006e-14
0.999997
0.999987
0.99997
0.999941
0.999894
0.999815
0.999685
0.999474
0.999135
0.998595
0.997751
0.996451
0.994489
0.991593
0.98742
0.981572
0.97362
0.963149
0.949813
0.93338
0.91376
0.89101
0.865312
0.836947
0.806259
0.773632
0.739466
0.704161
0.668103
0.631657
0.595159
0.558912
0.523184
0.488204
0.454163
0.421219
0.3895
0.359102
0.330095
0.302521
0.276401
0.251738
0.228518
0.206715
0.186293
0.167207
0.149406
0.132834
0.117435
0.103148
0.0899173
0.0776844
0.0663938
0.0559927
0.0464321
0.0376673
0.0297617
0.0227163
0.0161071
0.0101862
0.00500313
0.00309781
0.00217903
0.00151425
0.001038
0.000700777
0.000465219
0.000303307
0.000194182
0.000122486
7.71053e-05
5.02099e-05
3.63971e-05
2.75921e-05
2.03188e-05
1.42885e-05
9.51894e-06
5.97582e-06
3.53146e-06
1.97202e-06
1.0479e-06
5.33937e-07
2.62546e-07
1.25992e-07
5.92311e-08
2.73393e-08
1.2411e-08
5.54912e-09
2.44712e-09
1.0655e-09
4.58749e-10
1.95468e-10
8.25375e-11
3.45308e-11
1.43248e-11
5.87113e-12
2.34887e-12
9.08202e-13
2.99712e-13
5.40917e-14
0.999997
0.999987
0.99997
0.999941
0.999894
0.999815
0.999686
0.999475
0.999136
0.998597
0.997754
0.996456
0.994496
0.991603
0.987435
0.981592
0.973647
0.963184
0.949857
0.933431
0.913819
0.891075
0.865381
0.837017
0.806328
0.773699
0.739528
0.704215
0.668147
0.63169
0.595179
0.558919
0.523177
0.488182
0.454126
0.421167
0.389433
0.359022
0.330002
0.302416
0.276285
0.251613
0.228385
0.206575
0.186147
0.167056
0.14925
0.132676
0.117276
0.102992
0.0897633
0.0775338
0.0662475
0.0558514
0.0462963
0.0375374
0.0296339
0.0225932
0.0159856
0.0100618
0.00487746
0.00308903
0.00218076
0.00152082
0.00104618
0.000708816
0.000472287
0.000309102
0.000198701
0.000125886
7.96069e-05
5.20467e-05
3.77683e-05
2.85544e-05
2.09529e-05
1.46798e-05
9.74265e-06
6.09323e-06
3.58786e-06
1.99687e-06
1.05798e-06
5.37705e-07
2.63825e-07
1.26391e-07
5.93368e-08
2.73532e-08
1.24058e-08
5.54168e-09
2.44247e-09
1.06279e-09
4.57507e-10
1.94818e-10
8.22817e-11
3.44036e-11
1.42778e-11
5.84759e-12
2.33913e-12
9.04857e-13
2.98399e-13
5.39256e-14
0.999997
0.999987
0.99997
0.999942
0.999894
0.999815
0.999686
0.999476
0.999137
0.998599
0.997756
0.996459
0.994501
0.99161
0.987444
0.981606
0.973665
0.963207
0.949884
0.933464
0.913856
0.891116
0.865424
0.837061
0.806373
0.773741
0.739566
0.704248
0.668174
0.631709
0.595191
0.558921
0.523169
0.488165
0.454099
0.421131
0.389388
0.358968
0.329939
0.302345
0.276208
0.251529
0.228295
0.206481
0.186049
0.166955
0.149148
0.132574
0.117174
0.102891
0.0896644
0.0774377
0.0661546
0.0557622
0.0462111
0.0374561
0.0295559
0.0225187
0.0159133
0.0099901
0.00480932
0.00308584
0.00218542
0.00152896
0.0010552
0.000717311
0.000479591
0.000315011
0.00020327
0.000129295
8.2085e-05
5.3822e-05
3.90336e-05
2.94165e-05
2.15098e-05
1.50187e-05
9.93475e-06
6.19387e-06
3.63645e-06
2.01851e-06
1.06691e-06
5.41142e-07
2.65071e-07
1.26789e-07
5.95121e-08
2.73945e-08
1.24243e-08
5.54328e-09
2.44338e-09
1.06217e-09
4.57308e-10
1.94591e-10
8.22019e-11
3.43508e-11
1.42598e-11
5.83666e-12
2.33439e-12
9.03314e-13
2.97731e-13
5.38541e-14
0.999997
0.999987
0.99997
0.999942
0.999894
0.999816
0.999686
0.999476
0.999137
0.998599
0.997757
0.99646
0.994503
0.991613
0.987449
0.981612
0.973673
0.963217
0.949897
0.93348
0.913874
0.891135
0.865445
0.837082
0.806393
0.77376
0.739584
0.704264
0.668186
0.631718
0.595195
0.558921
0.523165
0.488155
0.454085
0.421112
0.389364
0.35894
0.329907
0.302309
0.276168
0.251486
0.22825
0.206434
0.186001
0.166906
0.149099
0.132524
0.117125
0.102843
0.0896177
0.0773926
0.0661115
0.0557214
0.0461727
0.0374201
0.0295224
0.0224871
0.0158825
0.00995832
0.0047758
0.00308417
0.0021904
0.00153641
0.00106297
0.000724336
0.000485468
0.000319672
0.000206819
0.00013191
8.39569e-05
5.51225e-05
3.98968e-05
2.99726e-05
2.18548e-05
1.52222e-05
1.00475e-05
6.25196e-06
3.66425e-06
2.03087e-06
1.07202e-06
5.43088e-07
2.65879e-07
1.27045e-07
5.96296e-08
2.74263e-08
1.2439e-08
5.5463e-09
2.44484e-09
1.06227e-09
4.57379e-10
1.94544e-10
8.21886e-11
3.43349e-11
1.42546e-11
5.83298e-12
2.33262e-12
9.02801e-13
2.97478e-13
5.38299e-14
0.999997
0.999987
0.99997
0.999942
0.999894
0.999816
0.999686
0.999476
0.999137
0.998599
0.997757
0.99646
0.994503
0.991613
0.987449
0.981612
0.973673
0.963217
0.949897
0.93348
0.913874
0.891135
0.865445
0.837082
0.806393
0.77376
0.739584
0.704263
0.668186
0.631718
0.595195
0.558921
0.523165
0.488155
0.454085
0.421112
0.389364
0.358939
0.329907
0.302309
0.276168
0.251487
0.22825
0.206434
0.186001
0.166906
0.149099
0.132524
0.117125
0.102843
0.0896177
0.0773926
0.0661115
0.0557214
0.0461726
0.0374201
0.0295224
0.0224871
0.0158825
0.00995833
0.0047758
0.00308417
0.0021904
0.00153643
0.00106299
0.000724373
0.000485508
0.000319709
0.00020685
0.000131933
8.39727e-05
5.51321e-05
3.99013e-05
2.99745e-05
2.18556e-05
1.52225e-05
1.00476e-05
6.25204e-06
3.66429e-06
2.03089e-06
1.07203e-06
5.43089e-07
2.65883e-07
1.27047e-07
5.96287e-08
2.74267e-08
1.24387e-08
5.54631e-09
2.44476e-09
1.06226e-09
4.57367e-10
1.94543e-10
8.21868e-11
3.43347e-11
1.42542e-11
5.83305e-12
2.33259e-12
9.02826e-13
2.97488e-13
5.38282e-14
0.999997
0.999987
0.99997
0.999942
0.999894
0.999815
0.999686
0.999476
0.999137
0.998598
0.997756
0.996459
0.994501
0.99161
0.987444
0.981605
0.973664
0.963207
0.949884
0.933464
0.913856
0.891115
0.865424
0.837061
0.806372
0.77374
0.739565
0.704248
0.668174
0.631709
0.59519
0.558921
0.523169
0.488164
0.454099
0.42113
0.389387
0.358967
0.329939
0.302345
0.276207
0.251528
0.228295
0.20648
0.186048
0.166954
0.149148
0.132573
0.117174
0.10289
0.0896643
0.0774375
0.0661545
0.0557622
0.0462111
0.0374562
0.029556
0.0225188
0.0159133
0.00999013
0.00480934
0.00308583
0.00218539
0.00152891
0.00105515
0.000717264
0.000479553
0.000314983
0.00020325
0.000129282
8.20768e-05
5.38175e-05
3.9032e-05
2.94162e-05
2.15101e-05
1.5019e-05
9.93501e-06
6.19405e-06
3.63656e-06
2.01857e-06
1.06694e-06
5.41152e-07
2.65083e-07
1.26794e-07
5.95103e-08
2.73956e-08
1.24236e-08
5.54336e-09
2.44321e-09
1.06218e-09
4.57279e-10
1.94591e-10
8.21975e-11
3.43508e-11
1.42586e-11
5.83717e-12
2.33434e-12
9.03408e-13
2.97769e-13
5.38463e-14
0.999997
0.999987
0.99997
0.999941
0.999894
0.999815
0.999686
0.999475
0.999136
0.998597
0.997754
0.996456
0.994496
0.991603
0.987435
0.981592
0.973647
0.963184
0.949856
0.933431
0.913818
0.891074
0.86538
0.837016
0.806327
0.773698
0.739527
0.704214
0.668146
0.631689
0.595178
0.558918
0.523176
0.488181
0.454125
0.421166
0.389432
0.359021
0.330001
0.302415
0.276285
0.251612
0.228384
0.206575
0.186147
0.167056
0.14925
0.132676
0.117276
0.102992
0.0897633
0.0775338
0.0662475
0.0558514
0.0462963
0.0375374
0.0296338
0.0225932
0.0159856
0.0100618
0.00487746
0.00308906
0.00218082
0.00152088
0.00104623
0.000708857
0.000472318
0.000309124
0.000198716
0.000125896
7.96124e-05
5.20498e-05
3.77699e-05
2.85554e-05
2.09536e-05
1.46803e-05
9.74301e-06
6.09346e-06
3.588e-06
1.99695e-06
1.05803e-06
5.37725e-07
2.63839e-07
1.26395e-07
5.9338e-08
2.73546e-08
1.24057e-08
5.54186e-09
2.44242e-09
1.06282e-09
4.57497e-10
1.94823e-10
8.22789e-11
3.44042e-11
1.42763e-11
5.84857e-12
2.33909e-12
9.05007e-13
2.98458e-13
5.39148e-14
0.999997
0.999987
0.99997
0.999941
0.999894
0.999815
0.999685
0.999474
0.999135
0.998595
0.997751
0.996451
0.994489
0.991593
0.98742
0.981571
0.973619
0.963149
0.949813
0.933379
0.913759
0.891009
0.865311
0.836945
0.806257
0.77363
0.739465
0.704159
0.668101
0.631655
0.595157
0.558911
0.523183
0.488203
0.454162
0.421218
0.389499
0.359101
0.330094
0.30252
0.2764
0.251737
0.228517
0.206714
0.186292
0.167206
0.149405
0.132834
0.117434
0.103148
0.0899171
0.0776842
0.0663937
0.0559926
0.046432
0.0376673
0.0297617
0.0227163
0.0161071
0.0101862
0.00500319
0.00309781
0.00217903
0.00151426
0.00103801
0.000700783
0.000465224
0.000303311
0.000194184
0.000122488
7.71062e-05
5.02105e-05
3.63974e-05
2.75924e-05
2.03191e-05
1.42887e-05
9.51919e-06
5.97601e-06
3.5316e-06
1.9721e-06
1.04795e-06
5.33963e-07
2.6256e-07
1.25999e-07
5.92342e-08
2.73406e-08
1.24115e-08
5.54934e-09
2.44722e-09
1.06555e-09
4.58766e-10
1.95477e-10
8.25392e-11
3.45323e-11
1.43235e-11
5.8723e-12
2.34889e-12
9.0837e-13
2.99784e-13
5.40781e-14
0.999997
0.999987
0.99997
0.999941
0.999894
0.999815
0.999685
0.999473
0.999133
0.998593
0.997747
0.996444
0.994479
0.991578
0.987399
0.981543
0.973581
0.9631
0.949752
0.933307
0.913677
0.890918
0.865214
0.836845
0.806157
0.773533
0.739374
0.704079
0.668033
0.631602
0.595121
0.558894
0.523185
0.488226
0.454206
0.421283
0.389583
0.359205
0.330216
0.302659
0.276554
0.251905
0.228696
0.206903
0.186488
0.167407
0.14961
0.133041
0.117645
0.10336
0.0901282
0.0778914
0.066596
0.0561889
0.0466216
0.0378496
0.029935
0.0228816
0.0162652
0.0103375
0.00513973
0.00310147
0.00217605
0.00150798
0.00103064
0.000693608
0.000458913
0.000298118
0.000190112
0.000119402
7.48065e-05
4.84789e-05
3.50499e-05
2.66298e-05
1.968e-05
1.38934e-05
9.29408e-06
5.85932e-06
3.47679e-06
1.94877e-06
1.03895e-06
5.30887e-07
2.61691e-07
1.25829e-07
5.92514e-08
2.73872e-08
1.24468e-08
5.57036e-09
2.45828e-09
1.07115e-09
4.61404e-10
1.96698e-10
8.30695e-11
3.47692e-11
1.44168e-11
5.91405e-12
2.36595e-12
9.14356e-13
3.02017e-13
5.43848e-14
0.999997
0.999987
0.99997
0.999941
0.999893
0.999814
0.999684
0.999472
0.999131
0.998589
0.997741
0.996436
0.994467
0.991559
0.987372
0.981506
0.973531
0.963035
0.949672
0.933212
0.913567
0.890796
0.865083
0.836709
0.80602
0.7734
0.739248
0.703964
0.667934
0.631522
0.595062
0.558858
0.523175
0.488242
0.454249
0.421352
0.389679
0.359326
0.330361
0.302826
0.276742
0.25211
0.228917
0.207138
0.186734
0.167662
0.14987
0.133305
0.117909
0.103625
0.0903931
0.0781563
0.0668569
0.0564428
0.0468674
0.0380866
0.030159
0.0230954
0.0164698
0.0105337
0.00531701
0.00311212
0.00217722
0.00150447
0.00102526
0.000687925
0.000453732
0.000293773
0.000186662
0.000116756
7.27989e-05
4.69176e-05
3.37828e-05
2.57135e-05
1.90724e-05
1.35201e-05
9.08472e-06
5.75369e-06
3.42938e-06
1.93005e-06
1.03266e-06
5.29309e-07
2.61604e-07
1.26052e-07
5.94612e-08
2.75216e-08
1.25226e-08
5.60999e-09
2.47789e-09
1.08047e-09
4.6568e-10
1.98612e-10
8.39051e-11
3.51292e-11
1.45685e-11
5.97642e-12
2.39174e-12
9.23586e-13
3.05363e-13
5.48743e-14
0.999997
0.999987
0.99997
0.999941
0.999893
0.999814
0.999683
0.999471
0.999128
0.998585
0.997734
0.996425
0.994451
0.991536
0.987338
0.981458
0.973468
0.962953
0.94957
0.933089
0.913426
0.890638
0.864913
0.836531
0.805839
0.773221
0.739077
0.703806
0.667794
0.631403
0.59497
0.558794
0.523142
0.48824
0.45428
0.421417
0.389777
0.359456
0.330522
0.303015
0.276957
0.252348
0.229177
0.207415
0.187027
0.167967
0.150185
0.133626
0.118234
0.103949
0.0907149
0.0784746
0.0671727
0.0567551
0.0471716
0.0383812
0.0304381
0.0233626
0.0167259
0.0107793
0.00553886
0.00312465
0.00218077
0.00150327
0.00102188
0.000683893
0.000449851
0.000290417
0.000183941
0.000114628
7.11444e-05
4.55821e-05
3.2632e-05
2.4868e-05
1.85142e-05
1.31818e-05
8.89997e-06
5.66492e-06
3.39299e-06
1.91814e-06
1.03034e-06
5.29838e-07
2.62536e-07
1.2675e-07
5.9891e-08
2.77629e-08
1.26489e-08
5.67274e-09
2.50785e-09
1.09433e-09
4.71926e-10
2.01367e-10
8.50982e-11
3.56382e-11
1.47828e-11
6.06373e-12
2.42771e-12
9.36576e-13
3.09999e-13
5.55793e-14
0.999997
0.999987
0.99997
0.999941
0.999893
0.999813
0.999682
0.999469
0.999125
0.99858
0.997726
0.996412
0.994431
0.991506
0.987296
0.981399
0.973388
0.96285
0.949441
0.932935
0.913246
0.890437
0.864694
0.8363
0.805602
0.772985
0.738849
0.703591
0.667598
0.631233
0.594829
0.558687
0.523071
0.488209
0.454288
0.421466
0.389866
0.359584
0.330687
0.303216
0.277191
0.252613
0.229468
0.20773
0.187362
0.168319
0.15055
0.134002
0.118616
0.104335
0.0911009
0.0788564
0.0675477
0.0571246
0.0475373
0.0387379
0.0307766
0.0236868
0.0170369
0.0110778
0.00581136
0.00314
0.00218711
0.00150462
0.00102073
0.00068168
0.000447405
0.000288147
0.000182008
0.000113047
6.98492e-05
4.44611e-05
3.1585e-05
2.40841e-05
1.80024e-05
1.2879e-05
8.74169e-06
5.59509e-06
3.3694e-06
1.9143e-06
1.03248e-06
5.32704e-07
2.64766e-07
1.281e-07
6.06384e-08
2.81518e-08
1.28422e-08
5.76543e-09
2.55098e-09
1.1139e-09
4.80617e-10
2.05157e-10
8.67248e-11
3.63271e-11
1.50714e-11
6.18101e-12
2.47576e-12
9.54034e-13
3.16159e-13
5.65432e-14
0.999997
0.999987
0.999969
0.99994
0.999892
0.999812
0.99968
0.999466
0.999121
0.998573
0.997716
0.996397
0.994407
0.991471
0.987244
0.981328
0.973291
0.962724
0.949283
0.932743
0.913022
0.890184
0.864417
0.836006
0.805298
0.772678
0.738547
0.703303
0.667331
0.630993
0.594622
0.558519
0.522946
0.488129
0.454256
0.421481
0.38993
0.359696
0.330845
0.303418
0.277434
0.252894
0.229784
0.208076
0.187734
0.168714
0.150963
0.134429
0.119054
0.104779
0.0915478
0.0793029
0.0679898
0.0575568
0.0479579
0.0391503
0.031175
0.0240693
0.0174037
0.0114281
0.00614485
0.00315853
0.00219671
0.00150901
0.00102223
0.000681708
0.000446749
0.000287249
0.000181083
0.00011217
6.90081e-05
4.35805e-05
3.05613e-05
2.33204e-05
1.75175e-05
1.26033e-05
8.60707e-06
5.54389e-06
3.35917e-06
1.91875e-06
1.03961e-06
5.38558e-07
2.68539e-07
1.30219e-07
6.1755e-08
2.87133e-08
1.31144e-08
5.89346e-09
2.60966e-09
1.14021e-09