/*--------------------------------*- C++ -*----------------------------------*\
  =========                 |
  \\      /  F ield         | OpenFOAM: The Open Source CFD Toolbox
   \\    /   O peration     | Website:  https://openfoam.org
    \\  /    A nd           | Version:  8
     \\/     M anipulation  |
\*---------------------------------------------------------------------------*/
FoamFile
{
    version     2.0;
    format      ascii;
    class       volScalarField;
    location    "720/fluid";
    object      CO2;
}
// * * * * * * * * * * * * * * * * * * * * * * * * * * * * * * * * * * * * * //

dimensions      [0 0 0 0 0 0 0];

internalField   nonuniform List<scalar> 
4000
(
4.73757e-07
2.07012e-06
4.7541e-06
9.2524e-06
1.67591e-05
2.92168e-05
4.97486e-05
8.33039e-05
0.000137593
0.000224383
0.000361186
0.000573273
0.000895739
0.00137501
0.00206888
0.003044
0.00437007
0.00611119
0.00831636
0.0110121
0.0141995
0.0178557
0.0219393
0.0263958
0.0311635
0.0361779
0.0413751
0.0466936
0.0520763
0.0574712
0.0628318
0.0681178
0.0732949
0.0783348
0.0832148
0.0879169
0.0924273
0.0967363
0.100838
0.10473
0.108411
0.111884
0.115152
0.11822
0.121092
0.123775
0.126275
0.128598
0.130747
0.132727
0.134541
0.136188
0.137665
0.138967
0.140081
0.140991
0.141672
0.142081
0.14218
0.141902
0.14115
0.139797
0.13708
0.126532
0.115813
0.105099
0.0945309
0.0842168
0.0742439
0.064683
0.055594
0.0470297
0.0390397
0.0317102
0.0250137
0.0190562
0.0139019
0.00961401
0.00623913
0.00377134
0.00211975
0.00111354
0.000551902
0.000262332
0.000121149
5.46844e-05
2.42297e-05
1.05724e-05
4.55428e-06
1.94072e-06
8.19459e-07
3.43335e-07
1.42889e-07
5.91025e-08
2.42845e-08
9.88294e-09
3.94711e-09
1.5062e-09
5.02907e-10
8.81609e-11
4.74562e-07
2.07416e-06
4.76569e-06
9.28116e-06
1.68238e-05
2.93504e-05
5.00025e-05
8.37466e-05
0.000138292
0.00022535
0.000362253
0.000573876
0.000894606
0.00136974
0.00205548
0.00301668
0.00432148
0.00603322
0.00820146
0.0108547
0.0139969
0.0176088
0.021652
0.0260743
0.0308158
0.0358126
0.0410008
0.0463185
0.0517075
0.0571148
0.0624928
0.0677999
0.0730008
0.0780663
0.0829728
0.0877016
0.0922383
0.0965729
0.100699
0.104614
0.108316
0.111809
0.115095
0.118178
0.121065
0.12376
0.126271
0.128603
0.13076
0.132747
0.134566
0.136217
0.137698
0.139002
0.140118
0.141028
0.141709
0.142117
0.142214
0.141932
0.141174
0.139812
0.136225
0.125609
0.114835
0.104077
0.0934725
0.0831292
0.073134
0.0635586
0.0544639
0.0459049
0.0379338
0.0306414
0.0240044
0.0181349
0.0130988
0.0089579
0.00574788
0.00344169
0.00192437
0.00101142
0.000504425
0.000241839
0.000112815
5.14518e-05
2.30203e-05
1.01308e-05
4.39499e-06
1.88319e-06
7.98384e-07
3.35414e-07
1.39815e-07
5.78733e-08
2.37818e-08
9.6756e-09
3.86256e-09
1.47326e-09
4.91714e-10
8.62098e-11
4.76062e-07
2.08097e-06
4.7825e-06
9.31666e-06
1.68928e-05
2.9476e-05
5.02169e-05
8.40881e-05
0.000138792
0.000226
0.000362935
0.000574213
0.000893663
0.00136572
0.00204548
0.00299645
0.00428539
0.00597458
0.00811322
0.0107304
0.0138318
0.0174003
0.0214001
0.0257818
0.0304876
0.0354555
0.0406224
0.045927
0.051311
0.0567208
0.0621081
0.0674305
0.0726515
0.0777409
0.0826741
0.0874316
0.091998
0.0963625
0.100518
0.104462
0.108192
0.11171
0.11502
0.118126
0.121032
0.123746
0.126273
0.128619
0.130788
0.132785
0.134612
0.136269
0.137754
0.139061
0.140178
0.141089
0.141768
0.142172
0.142263
0.141971
0.141198
0.139813
0.134715
0.124051
0.113233
0.10244
0.0918116
0.0814575
0.0714666
0.0619125
0.0528583
0.0443611
0.0364759
0.0292817
0.0227866
0.0170863
0.0122416
0.00830374
0.00529018
0.00315212
0.00175928
0.000925864
0.000463502
0.000223218
0.000104653
4.79778e-05
2.15761e-05
9.54131e-06
4.15749e-06
1.78828e-06
7.60583e-07
3.20346e-07
1.33786e-07
5.54482e-08
2.28022e-08
9.28015e-09
3.70485e-09
1.41291e-09
4.71438e-10
8.26435e-11
4.76079e-07
2.08105e-06
4.78263e-06
9.31637e-06
1.68896e-05
2.94612e-05
5.01661e-05
8.39414e-05
0.000138417
0.000225129
0.000361067
0.000570487
0.000886739
0.00135359
0.00202529
0.00296441
0.0042369
0.00590457
0.00801676
0.0106033
0.0136711
0.0172047
0.02117
0.0255192
0.030196
0.0351395
0.0402876
0.0455794
0.0509569
0.0563665
0.0617595
0.0670931
0.0723302
0.0774395
0.0823959
0.0871788
0.0917724
0.0961651
0.100349
0.104321
0.108078
0.111623
0.114957
0.118085
0.121013
0.123746
0.126289
0.128649
0.13083
0.132837
0.134672
0.136335
0.137824
0.139132
0.140249
0.141157
0.14183
0.142224
0.142302
0.141992
0.141195
0.139777
0.132836
0.122158
0.111323
0.100518
0.089889
0.0795502
0.0695931
0.0600932
0.0511154
0.0427181
0.0349577
0.027886
0.0215616
0.0160484
0.0114022
0.0076652
0.00484062
0.00286275
0.00158957
0.000834576
0.000417889
0.000201652
9.48226e-05
4.36238e-05
1.96922e-05
8.74187e-06
3.82371e-06
1.65073e-06
7.0446e-07
2.97613e-07
1.24624e-07
5.17677e-08
2.13283e-08
8.69318e-09
3.47441e-09
1.32603e-09
4.42595e-10
7.76051e-11
4.74713e-07
2.07498e-06
4.76826e-06
9.2871e-06
1.68331e-05
2.93546e-05
4.99664e-05
8.35693e-05
0.000137729
0.000223872
0.000358807
0.00056651
0.000879915
0.00134222
0.00200698
0.00293599
0.00419455
0.00584411
0.00793409
0.0104949
0.0135346
0.017039
0.0209754
0.0252976
0.0299502
0.0348733
0.0400056
0.0452866
0.0506585
0.0560678
0.0614656
0.0668085
0.0720591
0.0771855
0.0821618
0.086967
0.0915845
0.0960021
0.100212
0.104208
0.10799
0.111559
0.114916
0.118065
0.121012
0.123762
0.12632
0.128693
0.130885
0.1329
0.134741
0.136408
0.137897
0.139204
0.140316
0.141215
0.141875
0.142252
0.142309
0.141971
0.141136
0.139675
0.130859
0.120198
0.109361
0.0985553
0.0879372
0.0776265
0.0677174
0.0582866
0.0493991
0.0411129
0.0334977
0.0265737
0.0204185
0.0150895
0.0106362
0.00709095
0.00444261
0.00261035
0.00144325
0.000756339
0.000378784
0.000183058
8.62662e-05
3.97854e-05
1.80051e-05
8.01262e-06
3.51283e-06
1.51972e-06
6.49782e-07
2.7497e-07
1.15307e-07
4.79555e-08
1.97774e-08
8.06738e-09
3.22615e-09
1.23169e-09
4.11121e-10
7.20941e-11
4.7224e-07
2.06404e-06
4.74257e-06
9.23546e-06
1.67357e-05
2.91763e-05
4.96461e-05
8.30012e-05
0.000136734
0.000222151
0.000355881
0.00056163
0.000871962
0.00132961
0.00198757
0.00290711
0.00415313
0.00578693
0.00785814
0.0103978
0.0134147
0.0168959
0.0208097
0.0251108
0.0297447
0.0346524
0.0397729
0.0450462
0.0504147
0.0558247
0.0612273
0.0665789
0.0718415
0.0769829
0.0819766
0.0868013
0.0914396
0.0958789
0.10011
0.104129
0.107933
0.111522
0.114899
0.118066
0.121029
0.123793
0.126364
0.128748
0.130948
0.132969
0.134813
0.13648
0.137966
0.139266
0.140366
0.14125
0.14189
0.142239
0.142266
0.141891
0.141017
0.139531
0.129235
0.118484
0.10758
0.0967365
0.0861108
0.0758209
0.0659587
0.0565983
0.0478022
0.0396267
0.0321528
0.0253716
0.0193778
0.0142224
0.00994856
0.00657866
0.00408888
0.0023859
0.0013123
0.000685476
0.00034277
0.000165662
7.81346e-05
3.60845e-05
1.63578e-05
7.29326e-06
3.20371e-06
1.38869e-06
5.9487e-07
2.52173e-07
1.05915e-07
4.41107e-08
1.82133e-08
7.43649e-09
2.97595e-09
1.13664e-09
3.79456e-10
6.65661e-11
4.6927e-07
2.05098e-06
4.7122e-06
9.17522e-06
1.6624e-05
2.8976e-05
4.92944e-05
8.23927e-05
0.000135695
0.000220401
0.000352978
0.000556902
0.000864421
0.00131787
0.0019698
0.00288107
0.00411624
0.00573658
0.00779196
0.010314
0.0133122
0.0167745
0.0206703
0.0249548
0.0295745
0.0344707
0.0395828
0.0448512
0.0502182
0.0556303
0.0610382
0.0663982
0.0716719
0.0768269
0.0818361
0.0866778
0.0913342
0.0957922
0.100043
0.104081
0.107903
0.11151
0.114902
0.118084
0.121061
0.123837
0.126418
0.128809
0.131015
0.133039
0.134883
0.136547
0.138026
0.139313
0.140396
0.141253
0.141858
0.14216
0.142125
0.141671
0.1407
0.139117
0.128237
0.117153
0.106063
0.0951252
0.0844659
0.0741853
0.0643647
0.055071
0.046362
0.0382898
0.0309381
0.0242844
0.018439
0.0134472
0.0093419
0.00613179
0.00378344
0.00219372
0.00120085
0.000625326
0.00031218
0.000150834
7.11641e-05
3.28887e-05
1.49233e-05
6.66098e-06
2.92941e-06
1.27132e-06
5.45241e-07
2.31399e-07
9.72933e-08
4.05592e-08
1.67609e-08
6.84806e-09
2.74175e-09
1.04747e-09
3.49736e-10
6.14372e-11
4.66133e-07
2.03722e-06
4.68029e-06
9.11226e-06
1.65079e-05
2.87695e-05
4.89347e-05
8.17763e-05
0.000134654
0.000218669
0.000350143
0.000552347
0.000857261
0.00130689
0.00195344
0.00285743
0.00408325
0.00569217
0.00773432
0.0102418
0.0132249
0.0166723
0.0205539
0.0248258
0.0294348
0.0343228
0.0394294
0.044695
0.0500622
0.0554772
0.0608909
0.066259
0.0715432
0.0767104
0.0817334
0.08659
0.0912622
0.0957364
0.100004
0.104057
0.107895
0.111516
0.114922
0.118116
0.121104
0.123889
0.126478
0.128874
0.131084
0.133109
0.134951
0.136609
0.138078
0.139351
0.140411
0.141237
0.141792
0.142027
0.141891
0.141282
0.140066
0.138094
0.127014
0.115787
0.104608
0.0936267
0.0829616
0.072706
0.0629354
0.0537127
0.0450924
0.0371244
0.029886
0.0233775
0.017665
0.0127985
0.00882497
0.00575084
0.00352348
0.0020302
0.00110584
0.000573835
0.000285832
0.000137983
6.50844e-05
3.00845e-05
1.36576e-05
6.10034e-06
2.68513e-06
1.1664e-06
5.00731e-07
2.12716e-07
8.95214e-08
3.73513e-08
1.54467e-08
6.3148e-09
2.52907e-09
9.67107e-10
3.22876e-10
5.67979e-11
4.63072e-07
2.02381e-06
4.64929e-06
9.05135e-06
1.63962e-05
2.85718e-05
4.85927e-05
8.11948e-05
0.00013368
0.000217062
0.000347538
0.000548202
0.000850807
0.00129709
0.00193896
0.0028367
0.00405456
0.00565386
0.007685
0.0101806
0.0131514
0.0165868
0.0204574
0.0247197
0.0293209
0.0342032
0.0393064
0.044571
0.0499396
0.0553584
0.0607779
0.0661539
0.0714477
0.076626
0.0816612
0.0865308
0.0912165
0.0957048
0.0999857
0.104052
0.107902
0.111535
0.114952
0.118157
0.121153
0.123945
0.126539
0.12894
0.131151
0.133175
0.135015
0.136667
0.138128
0.139388
0.140432
0.141235
0.141759
0.141956
0.141768
0.141089
0.139782
0.136943
0.125748
0.114449
0.103231
0.0922406
0.0815917
0.0713747
0.0616634
0.0525195
0.043997
0.036147
0.0290418
0.0226559
0.0170617
0.0123036
0.00841165
0.0054312
0.00330345
0.00189175
0.00102546
0.000530277
0.00026352
0.000127077
5.99106e-05
2.76901e-05
1.25729e-05
5.61799e-06
2.47414e-06
1.07543e-06
4.62e-07
1.96405e-07
8.27157e-08
3.45348e-08
1.42902e-08
5.8448e-09
2.34143e-09
8.96155e-10
2.9914e-10
5.26948e-11
4.60215e-07
2.0113e-06
4.62045e-06
8.99478e-06
1.62927e-05
2.83893e-05
4.82784e-05
8.06627e-05
0.000132793
0.000215608
0.000345194
0.000544498
0.00084508
0.00128845
0.0019263
0.00281871
0.00402986
0.00562113
0.00764319
0.010129
0.0130901
0.0165161
0.0203781
0.0246332
0.0292288
0.0341073
0.0392087
0.0444735
0.0498443
0.0552672
0.0606926
0.0660761
0.0713786
0.0765668
0.0816127
0.0864937
0.0911913
0.0956911
0.099983
0.104061
0.107921
0.111564
0.11499
0.118202
0.121204
0.124002
0.1266
0.129003
0.131214
0.133238
0.135075
0.136723
0.138177
0.139429
0.140462
0.141252
0.141762
0.141947
0.141751
0.141074
0.139793
0.135709
0.124486
0.113172
0.101954
0.0909777
0.080358
0.0701841
0.0605289
0.051454
0.0430139
0.0352565
0.028189
0.0218872
0.0164013
0.0117738
0.00803613
0.00515802
0.00311288
0.00177291
0.00095687
0.000493225
0.000244558
0.000117808
5.55083e-05
2.56494e-05
1.16466e-05
5.20522e-06
2.2932e-06
9.97252e-07
4.28647e-07
1.82332e-07
7.68343e-08
3.20972e-08
1.32878e-08
5.43736e-09
2.17864e-09
8.34458e-10
2.78484e-10
4.91145e-11
4.57636e-07
2.00002e-06
4.59445e-06
8.9439e-06
1.61998e-05
2.82261e-05
4.7998e-05
8.01898e-05
0.000132008
0.000214327
0.000343139
0.000541266
0.00084011
0.001281
0.00191543
0.00280337
0.00400891
0.00559353
0.00760816
0.0100861
0.0130393
0.0164579
0.0203135
0.0245632
0.0291549
0.0340311
0.0391318
0.0443977
0.0497711
0.0551982
0.0606292
0.0660195
0.07133
0.0765268
0.0815821
0.0864729
0.0911803
0.0956896
0.099991
0.104078
0.107947
0.111597
0.11503
0.118248
0.121255
0.124056
0.126657
0.129061
0.131272
0.133294
0.135128
0.136772
0.138221
0.139465
0.14049
0.141272
0.141773
0.14195
0.141748
0.14107
0.139794
0.134533
0.123306
0.112
0.100802
0.0898574
0.079282
0.0691623
0.0595689
0.0505611
0.0421737
0.034453
0.0274609
0.0212439
0.0158508
0.0113209
0.00768038
0.00492039
0.00295401
0.00167197
0.000898883
0.000461993
0.000228599
0.000110008
5.18018e-05
2.39294e-05
1.08647e-05
4.85627e-06
2.13997e-06
9.30929e-07
4.00304e-07
1.70353e-07
7.18202e-08
3.00162e-08
1.24313e-08
5.0888e-09
2.03926e-09
7.81594e-10
2.60781e-10
4.60472e-11
4.55364e-07
1.99009e-06
4.57158e-06
8.89919e-06
1.61184e-05
2.80831e-05
4.77532e-05
7.9778e-05
0.000131327
0.000213219
0.000341368
0.000538492
0.000835861
0.00127466
0.00190623
0.00279043
0.00399134
0.00557051
0.00757909
0.0100507
0.0129977
0.0164106
0.0202612
0.024507
0.0290961
0.033971
0.0390718
0.0443391
0.0497155
0.0551466
0.0605829
0.0659794
0.0712967
0.0765012
0.0815645
0.0864635
0.0911789
0.0956963
0.100005
0.1041
0.107975
0.111631
0.115069
0.118291
0.121302
0.124106
0.126707
0.129111
0.131322
0.133342
0.135173
0.136812
0.138255
0.139493
0.14051
0.141284
0.141776
0.141946
0.141738
0.141057
0.139781
0.133493
0.122263
0.110967
0.0997939
0.0888873
0.0783533
0.0682715
0.0587128
0.0497337
0.0413973
0.0337486
0.0268307
0.0206926
0.0153821
0.0109372
0.00738121
0.00470001
0.00281866
0.00158811
0.00085001
0.000435764
0.000215229
0.00010348
4.87005e-05
2.24898e-05
1.021e-05
4.56377e-06
2.01138e-06
8.75207e-07
3.76461e-07
1.60263e-07
6.75916e-08
2.82592e-08
1.17074e-08
4.79403e-09
1.92132e-09
7.3693e-10
2.45815e-10
4.34561e-11
4.53404e-07
1.98152e-06
4.55187e-06
8.86071e-06
1.60484e-05
2.79605e-05
4.75435e-05
7.94261e-05
0.000130746
0.000212277
0.000339867
0.000536149
0.000832285
0.00126934
0.00189854
0.00277967
0.00397678
0.00555153
0.00755523
0.0100219
0.0129639
0.0163724
0.0202192
0.0244623
0.0290497
0.0339239
0.0390254
0.0442944
0.0496736
0.0551086
0.0605495
0.0659514
0.0712748
0.0764857
0.0815558
0.0864614
0.0911836
0.0957075
0.100023
0.104123
0.108004
0.111664
0.115106
0.118331
0.121344
0.124149
0.12675
0.129154
0.131363
0.13338
0.135206
0.136841
0.138278
0.139509
0.140519
0.141285
0.141769
0.141931
0.141717
0.141033
0.139759
0.132599
0.121362
0.110072
0.0989175
0.0880264
0.0775078
0.0674561
0.0579395
0.049016
0.0407369
0.0331491
0.0262952
0.0202256
0.0149866
0.0106153
0.00713239
0.00451935
0.00269584
0.00151918
0.000810436
0.000414056
0.00020414
9.80769e-05
4.61358e-05
2.12993e-05
9.66812e-06
4.32146e-06
1.90473e-06
8.28929e-07
3.56631e-07
1.51861e-07
6.40656e-08
2.67924e-08
1.11024e-08
4.54753e-09
1.82264e-09
6.9961e-10
2.33305e-10
4.12937e-11
4.51746e-07
1.97428e-06
4.53522e-06
8.82823e-06
1.59893e-05
2.78572e-05
4.73672e-05
7.91309e-05
0.00013026
0.00021149
0.000338616
0.000534201
0.000829322
0.00126494
0.00189221
0.00277084
0.00396488
0.00553607
0.00753589
0.00999853
0.0129368
0.0163419
0.020186
0.0244271
0.0290134
0.0338875
0.0389898
0.0442606
0.0496424
0.0550808
0.0605258
0.0659324
0.0712609
0.0764772
0.0815527
0.0864638
0.0911914
0.0957205
0.100041
0.104145
0.10803
0.111694
0.115138
0.118365
0.121379
0.124184
0.126785
0.129187
0.131393
0.133407
0.135229
0.136858
0.138289
0.139513
0.140516
0.141274
0.14175
0.141905
0.141685
0.140999
0.139732
0.131847
0.120594
0.109306
0.0981528
0.0872786
0.0767899
0.0667722
0.0572945
0.0484147
0.0401832
0.0326465
0.0258467
0.0198348
0.0146565
0.0103477
0.00692678
0.00437153
0.00259699
0.00145732
0.00077816
0.000397011
0.000195258
9.37021e-05
4.40527e-05
2.03297e-05
9.22563e-06
4.12314e-06
1.81726e-06
7.90906e-07
3.40313e-07
1.44936e-07
6.11563e-08
2.55808e-08
1.0602e-08
4.34389e-09
1.741e-09
6.68712e-10
2.22943e-10
3.95044e-11
4.50374e-07
1.96828e-06
4.52145e-06
8.80138e-06
1.59406e-05
2.77721e-05
4.7222e-05
7.88881e-05
0.000129861
0.000210845
0.000337594
0.000532613
0.00082691
0.00126138
0.00188709
0.00276371
0.0039553
0.00552367
0.00752044
0.00997998
0.0129153
0.0163178
0.0201599
0.0243996
0.0289853
0.0338596
0.0389627
0.0442352
0.0496193
0.0550606
0.0605091
0.0659195
0.0712522
0.0764729
0.0815527
0.0864682
0.0912
0.0957331
0.100057
0.104164
0.108052
0.111718
0.115164
0.118392
0.121406
0.12421
0.12681
0.12921
0.131414
0.133424
0.135241
0.136865
0.13829
0.139507
0.140502
0.141252
0.141721
0.14187
0.141645
0.140957
0.139699
0.131218
0.119947
0.108655
0.0975138
0.086658
0.0761938
0.0662052
0.0567607
0.0479174
0.0397255
0.0322312
0.0254764
0.0195125
0.0143846
0.0101278
0.00675855
0.00425131
0.00251732
0.00140822
0.000749598
0.00038283
0.0001884
9.0274e-05
4.23811e-05
1.95448e-05
8.86653e-06
3.96197e-06
1.7461e-06
7.5994e-07
3.27013e-07
1.39288e-07
5.87817e-08
2.45914e-08
1.01933e-08
4.17751e-09
1.67427e-09
6.43445e-10
2.14469e-10
3.80424e-11
4.49269e-07
1.96346e-06
4.51035e-06
8.77976e-06
1.59014e-05
2.77036e-05
4.71055e-05
7.86934e-05
0.000129541
0.000210329
0.000336777
0.000531347
0.000824992
0.00125855
0.00188303
0.00275808
0.00394776
0.00551393
0.00750834
0.0099655
0.0128986
0.0162992
0.0201398
0.0243786
0.0289639
0.0338385
0.0389425
0.0442164
0.0496025
0.0550462
0.0604974
0.065911
0.0712469
0.0764708
0.081554
0.0864728
0.0912077
0.0957437
0.10007
0.10418
0.108069
0.111736
0.115183
0.118411
0.121425
0.124228
0.126826
0.129224
0.131424
0.13343
0.135243
0.136861
0.13828
0.139491
0.140479
0.141222
0.141684
0.141828
0.141601
0.140914
0.139666
0.130712
0.119424
0.108127
0.0969928
0.0861519
0.075708
0.0657438
0.0563268
0.0475138
0.0393545
0.0318949
0.0251768
0.0192519
0.0141651
0.00995064
0.00662339
0.00415506
0.00245385
0.00136935
0.000727184
0.000370332
0.000182045
8.73702e-05
4.10309e-05
1.89147e-05
8.57743e-06
3.83204e-06
1.68879e-06
7.35021e-07
3.16322e-07
1.34751e-07
5.68762e-08
2.37979e-08
9.86605e-09
4.04416e-09
1.62083e-09
6.23219e-10
2.07689e-10
3.68742e-11
4.4841e-07
1.9597e-06
4.50174e-06
8.76299e-06
1.58709e-05
2.76505e-05
4.70152e-05
7.85427e-05
0.000129294
0.000209931
0.000336148
0.000530372
0.000823518
0.00125637
0.00187992
0.00275377
0.003942
0.00550652
0.00749915
0.00995454
0.012886
0.0162852
0.0201248
0.024363
0.0289481
0.0338229
0.0389277
0.0442028
0.0495903
0.0550359
0.0604893
0.0659051
0.0712434
0.0764697
0.0815553
0.0864763
0.0912133
0.0957512
0.100079
0.10419
0.108081
0.111749
0.115195
0.118423
0.121436
0.124238
0.126834
0.129228
0.131425
0.133427
0.135235
0.136849
0.138262
0.139467
0.140449
0.141187
0.141644
0.141786
0.141559
0.140875
0.139637
0.130297
0.118999
0.107703
0.0965764
0.085749
0.0753226
0.0653789
0.0559846
0.0471961
0.0390631
0.0316313
0.0249422
0.0190483
0.0139939
0.00981276
0.00651845
0.00408055
0.00240488
0.00133956
0.000710243
0.000361209
0.000177344
8.5016e-05
3.99524e-05
1.84287e-05
8.3564e-06
3.73254e-06
1.64469e-06
7.15738e-07
3.08044e-07
1.31234e-07
5.54051e-08
2.31854e-08
9.61682e-09
3.94165e-09
1.5798e-09
6.07719e-10
2.0249e-10
3.59797e-11
4.47782e-07
1.95696e-06
4.49544e-06
8.75071e-06
1.58487e-05
2.76117e-05
4.69492e-05
7.84327e-05
0.000129114
0.000209641
0.00033569
0.000529663
0.000822447
0.0012548
0.00187767
0.00275066
0.00393785
0.00550118
0.00749254
0.00994667
0.012877
0.0162752
0.0201141
0.0243518
0.0289369
0.033812
0.0389173
0.0441932
0.0495819
0.0550289
0.0604837
0.065901
0.0712409
0.0764688
0.0815558
0.0864782
0.0912164
0.0957554
0.100084
0.104196
0.108087
0.111755
0.115201
0.118428
0.121439
0.12424
0.126833
0.129225
0.131419
0.133417
0.135221
0.136829
0.138237
0.139437
0.140414
0.141149
0.141605
0.14175
0.141533
0.140873
0.139683
0.130013
0.11869
0.107387
0.0962638
0.0854457
0.0750327
0.065105
0.0557285
0.0469591
0.0388463
0.0314356
0.0247686
0.0188979
0.0138678
0.00971142
0.00644157
0.00402614
0.00236921
0.00131787
0.000697923
0.000354596
0.000173952
8.33333e-05
3.91264e-05
1.80427e-05
8.18707e-06
3.65885e-06
1.61276e-06
7.01997e-07
3.02193e-07
1.28747e-07
5.43728e-08
2.27535e-08
9.44102e-09
3.86882e-09
1.55052e-09
5.96641e-10
1.98769e-10
3.53404e-11
4.47372e-07
1.95517e-06
4.49132e-06
8.7427e-06
1.58342e-05
2.75864e-05
4.69062e-05
7.8361e-05
0.000128997
0.000209452
0.000335391
0.000529202
0.000821751
0.00125377
0.00187621
0.00274864
0.00393516
0.00549773
0.00748828
0.00994161
0.0128712
0.0162688
0.0201072
0.0243447
0.0289298
0.033805
0.0389107
0.0441872
0.0495766
0.0550244
0.0604801
0.0658984
0.0712392
0.076468
0.0815557
0.0864786
0.0912173
0.0957566
0.100086
0.104198
0.108088
0.111756
0.115202
0.118428
0.121438
0.124237
0.126828
0.129217
0.131408
0.133403
0.135202
0.136806
0.13821
0.139404
0.140377
0.141108
0.141561
0.141706
0.141492
0.14084
0.139664
0.129821
0.118479
0.10717
0.0960483
0.0852373
0.0748344
0.0649186
0.0555552
0.0467996
0.0387011
0.0313051
0.0246533
0.0187984
0.0137846
0.00964493
0.00639136
0.00399079
0.00234615
0.00130387
0.000689952
0.000350316
0.000171762
8.22599e-05
3.86298e-05
1.78067e-05
8.0796e-06
3.60972e-06
1.59187e-06
6.9292e-07
2.98417e-07
1.2714e-07
5.37114e-08
2.24763e-08
9.3287e-09
3.82221e-09
1.53176e-09
5.8956e-10
1.96388e-10
3.49323e-11
4.47172e-07
1.9543e-06
4.48932e-06
8.73882e-06
1.58271e-05
2.75742e-05
4.68855e-05
7.83266e-05
0.000128941
0.000209362
0.00033525
0.000528983
0.000821421
0.00125329
0.00187552
0.00274769
0.00393389
0.0054961
0.00748627
0.00993921
0.0128685
0.0162658
0.020104
0.0243414
0.0289264
0.0338017
0.0389076
0.0441844
0.0495741
0.0550222
0.0604784
0.0658971
0.0712383
0.0764674
0.0815554
0.0864784
0.091217
0.0957563
0.100085
0.104197
0.108087
0.111755
0.1152
0.118425
0.121435
0.124232
0.126822
0.129209
0.131398
0.13339
0.135187
0.136788
0.138188
0.139379
0.140348
0.141075
0.141526
0.141669
0.141457
0.140813
0.139653
0.129727
0.118368
0.107054
0.0959333
0.0851269
0.0747306
0.0648222
0.0554665
0.0467188
0.0386282
0.0312403
0.0245966
0.0187499
0.0137444
0.00961305
0.00636749
0.00397413
0.00233537
0.00129737
0.000686262
0.000348321
0.000170779
8.17725e-05
3.84069e-05
1.77005e-05
8.03215e-06
3.5878e-06
1.58223e-06
6.88616e-07
2.96601e-07
1.26359e-07
5.339e-08
2.23415e-08
9.27404e-09
3.79962e-09
1.52266e-09
5.86135e-10
1.95236e-10
3.47341e-11
4.47173e-07
1.9543e-06
4.48934e-06
8.73884e-06
1.58272e-05
2.75743e-05
4.68856e-05
7.83268e-05
0.000128941
0.000209362
0.00033525
0.000528985
0.000821423
0.00125329
0.00187553
0.0027477
0.0039339
0.00549611
0.00748628
0.00993923
0.0128685
0.0162658
0.020104
0.0243414
0.0289264
0.0338017
0.0389076
0.0441844
0.0495741
0.0550223
0.0604784
0.0658971
0.0712383
0.0764675
0.0815555
0.0864785
0.091217
0.0957563
0.100085
0.104197
0.108087
0.111755
0.1152
0.118425
0.121435
0.124232
0.126822
0.129209
0.131398
0.13339
0.135187
0.136788
0.138188
0.139379
0.140348
0.141075
0.141526
0.141669
0.141457
0.140813
0.139653
0.129727
0.118368
0.107054
0.0959333
0.085127
0.0747306
0.0648222
0.0554665
0.0467188
0.0386282
0.0312403
0.0245966
0.0187499
0.0137444
0.00961306
0.0063675
0.00397414
0.00233538
0.00129738
0.000686264
0.000348322
0.00017078
8.17731e-05
3.84067e-05
1.77004e-05
8.03202e-06
3.58776e-06
1.5822e-06
6.88606e-07
2.96594e-07
1.26357e-07
5.33888e-08
2.23412e-08
9.27383e-09
3.79958e-09
1.52265e-09
5.8614e-10
1.95238e-10
3.47336e-11
4.47376e-07
1.95519e-06
4.49136e-06
8.74278e-06
1.58343e-05
2.75867e-05
4.69066e-05
7.83617e-05
0.000128998
0.000209454
0.000335394
0.000529206
0.000821757
0.00125378
0.00187622
0.00274866
0.00393518
0.00549776
0.00748832
0.00994166
0.0128713
0.0162689
0.0201073
0.0243448
0.0289298
0.0338051
0.0389108
0.0441873
0.0495767
0.0550245
0.0604802
0.0658985
0.0712393
0.076468
0.0815558
0.0864787
0.0912173
0.0957567
0.100086
0.104198
0.108088
0.111756
0.115202
0.118428
0.121438
0.124237
0.126828
0.129217
0.131408
0.133403
0.135202
0.136806
0.13821
0.139404
0.140377
0.141108
0.141561
0.141706
0.141492
0.14084
0.139664
0.129821
0.118479
0.10717
0.0960484
0.0852374
0.0748345
0.0649187
0.0555553
0.0467997
0.0387012
0.0313052
0.0246534
0.0187984
0.0137847
0.00964496
0.00639139
0.00399081
0.00234616
0.00130388
0.000689957
0.000350319
0.000171764
8.22611e-05
3.86294e-05
1.78066e-05
8.07931e-06
3.60964e-06
1.59179e-06
6.92896e-07
2.98401e-07
1.27135e-07
5.37086e-08
2.24755e-08
9.32803e-09
3.82219e-09
1.53176e-09
5.89586e-10
1.96397e-10
3.49303e-11
4.47789e-07
1.95699e-06
4.49551e-06
8.75085e-06
1.58489e-05
2.76122e-05
4.69499e-05
7.84339e-05
0.000129116
0.000209644
0.000335694
0.00052967
0.000822458
0.00125481
0.00187769
0.00275069
0.00393789
0.00550123
0.00749261
0.00994676
0.0128771
0.0162753
0.0201142
0.024352
0.028937
0.0338121
0.0389175
0.0441934
0.0495821
0.055029
0.0604838
0.0659012
0.0712411
0.076469
0.081556
0.0864783
0.0912165
0.0957555
0.100084
0.104196
0.108087
0.111755
0.115201
0.118428
0.121439
0.12424
0.126834
0.129225
0.131419
0.133417
0.135221
0.136829
0.138237
0.139437
0.140414
0.141149
0.141605
0.14175
0.141533
0.140874
0.139683
0.130013
0.11869
0.107387
0.0962639
0.0854459
0.0750328
0.0651051
0.0557286
0.0469593
0.0388464
0.0314357
0.0247687
0.018898
0.0138678
0.00971148
0.00644162
0.00402617
0.00236924
0.00131789
0.00069793
0.000354601
0.000173954
8.33344e-05
3.91269e-05
1.80429e-05
8.18699e-06
3.65883e-06
1.61272e-06
7.01982e-07
3.02183e-07
1.28743e-07
5.43704e-08
2.27527e-08
9.4401e-09
3.86889e-09
1.55054e-09
5.9669e-10
1.98786e-10
3.53381e-11
4.4842e-07
1.95975e-06
4.50184e-06
8.76318e-06
1.58713e-05
2.76511e-05
4.70162e-05
7.85443e-05
0.000129297
0.000209935
0.000336155
0.000530382
0.000823533
0.0012564
0.00187996
0.00275382
0.00394206
0.0055066
0.00749925
0.00995466
0.0128862
0.0162854
0.020125
0.0243631
0.0289483
0.0338231
0.0389279
0.044203
0.0495906
0.0550361
0.0604895
0.0659053
0.0712436
0.0764699
0.0815555
0.0864765
0.0912135
0.0957514
0.100079
0.10419
0.108081
0.111749
0.115195
0.118423
0.121436
0.124238
0.126834
0.129228
0.131425
0.133427
0.135235
0.136849
0.138262
0.139467
0.140449
0.141187
0.141644
0.141786
0.141559
0.140876
0.139637
0.130297
0.118999
0.107703
0.0965766
0.0857492
0.0753228
0.0653791
0.0559848
0.0471963
0.0390633
0.0316314
0.0249424
0.0190484
0.013994
0.00981284
0.00651852
0.0040806
0.00240491
0.00133958
0.000710254
0.000361215
0.000177348
8.50174e-05
3.9953e-05
1.84289e-05
8.35651e-06
3.73255e-06
1.6447e-06
7.15744e-07
3.08047e-07
1.31236e-07
5.54051e-08
2.31854e-08
9.61615e-09
3.94183e-09
1.57987e-09
6.07787e-10
2.02515e-10
3.59775e-11
4.49282e-07
1.96351e-06
4.51048e-06
8.78001e-06
1.59018e-05
2.77043e-05
4.71067e-05
7.86954e-05
0.000129545
0.000210334
0.000336786
0.00053136
0.000825012
0.00125857
0.00188307
0.00275813
0.00394783
0.00551403
0.00750846
0.00996565
0.0128988
0.0162994
0.02014
0.0243789
0.0289642
0.0338387
0.0389428
0.0442167
0.0496027
0.0550465
0.0604977
0.0659112
0.0712471
0.0764711
0.0815543
0.086473
0.0912079
0.0957438
0.10007
0.10418
0.108069
0.111737
0.115183
0.118411
0.121425
0.124228
0.126826
0.129224
0.131424
0.13343
0.135243
0.136861
0.13828
0.139491
0.140479
0.141222
0.141684
0.141828
0.141601
0.140914
0.139666
0.130712
0.119424
0.108128
0.0969931
0.0861522
0.0757083
0.0657441
0.0563272
0.0475141
0.0393548
0.0318952
0.025177
0.0192521
0.0141653
0.00995077
0.00662349
0.00415512
0.00245389
0.00136938
0.000727199
0.00037034
0.000182049
8.7372e-05
4.10315e-05
1.8915e-05
8.57754e-06
3.83214e-06
1.68883e-06
7.35043e-07
3.16331e-07
1.34755e-07
5.68776e-08
2.37984e-08
9.86607e-09
4.04446e-09
1.62095e-09
6.23311e-10
2.07722e-10
3.68718e-11
4.5039e-07
1.96835e-06
4.5216e-06
8.80168e-06
1.59411e-05
2.7773e-05
4.72236e-05
7.88906e-05
0.000129865
0.000210851
0.000337604
0.000532628
0.000826933
0.00126141
0.00188714
0.00276378
0.00395539
0.00552379
0.00752058
0.00998016
0.0129155
0.016318
0.0201602
0.0243999
0.0289856
0.0338599
0.0389631
0.0442356
0.0496196
0.055061
0.0605094
0.0659199
0.0712525
0.0764732
0.081553
0.0864685
0.0912003
0.0957334
0.100057
0.104165
0.108052
0.111718
0.115164
0.118392
0.121406
0.124211
0.12681
0.12921
0.131414
0.133424
0.135241
0.136865
0.13829
0.139507
0.140502
0.141252
0.141721
0.14187
0.141645
0.140957
0.139699
0.131219
0.119948
0.108656
0.0975142
0.0866584
0.0761942
0.0662057
0.0567612
0.0479179
0.039726
0.0322317
0.0254768
0.0195128
0.0143848
0.0101279
0.00675868
0.00425139
0.00251738
0.00140825
0.000749617
0.00038284
0.000188405
9.02762e-05
4.23823e-05
1.95454e-05
8.86684e-06
3.96211e-06
1.74616e-06
7.59967e-07
3.27024e-07
1.39293e-07
5.87837e-08
2.45922e-08
1.01935e-08
4.17781e-09
1.67441e-09
6.43535e-10
2.14503e-10
3.80388e-11
4.51764e-07
1.97436e-06
4.5354e-06
8.82857e-06
1.59899e-05
2.78583e-05
4.7369e-05
7.91338e-05
0.000130265
0.000211497
0.000338628
0.000534219
0.000829349
0.00126498
0.00189227
0.00277092
0.00396498
0.00553621
0.00753606
0.00999874
0.0129371
0.0163421
0.0201863
0.0244274
0.0290137
0.0338879
0.0389902
0.044261
0.0496428
0.0550812
0.0605262
0.0659328
0.0712612
0.0764776
0.0815531
0.0864642
0.0911917
0.0957208
0.100041
0.104145
0.10803
0.111694
0.115138
0.118365
0.121379
0.124184
0.126785
0.129187
0.131393
0.133407
0.135229
0.136858
0.138289
0.139514
0.140516
0.141274
0.14175
0.141905
0.141685
0.140999
0.139732
0.131848
0.120594
0.109306
0.0981528
0.0872785
0.0767902
0.0667728
0.0572954
0.0484157
0.0401842
0.0326473
0.0258474
0.0198353
0.0146569
0.0103479
0.00692697
0.00437165
0.00259706
0.00145736
0.000778183
0.000397021
0.000195264
9.37051e-05
4.40543e-05
2.03304e-05
9.22598e-06
4.1233e-06
1.81734e-06
7.90937e-07
3.40327e-07
1.44942e-07
6.11588e-08
2.55818e-08
1.06024e-08
4.34421e-09
1.74115e-09
6.68798e-10
2.22976e-10
3.94993e-11
4.53424e-07
1.98161e-06
4.55207e-06
8.86111e-06
1.60491e-05
2.79617e-05
4.75455e-05
7.94295e-05
0.000130752
0.000212285
0.000339881
0.000536169
0.000832316
0.00126938
0.00189861
0.00277976
0.0039769
0.00555169
0.00755543
0.0100221
0.0129642
0.0163727
0.0202196
0.0244627
0.0290501
0.0339244
0.0390258
0.0442949
0.049674
0.055109
0.0605499
0.0659519
0.0712753
0.0764862
0.0815562
0.0864618
0.0911839
0.0957079
0.100023
0.104123
0.108004
0.111665
0.115106
0.118331
0.121344
0.124149
0.126751
0.129154
0.131363
0.13338
0.135206
0.136841
0.138278
0.139509
0.140519
0.141285
0.141769
0.141931
0.141717
0.141033
0.139759
0.1326
0.121362
0.110072
0.0989157
0.0880217
0.0775069
0.067457
0.0579416
0.0490186
0.0407392
0.0331509
0.0262965
0.0202265
0.0149872
0.0106157
0.00713265
0.00451951
0.00269594
0.00151924
0.000810464
0.000414071
0.000204148
9.80809e-05
4.61377e-05
2.13002e-05
9.66853e-06
4.32165e-06
1.90482e-06
8.28966e-07
3.56647e-07
1.51868e-07
6.40685e-08
2.67937e-08
1.11028e-08
4.54785e-09
1.8228e-09
6.99697e-10
2.33339e-10
4.12876e-11
4.55387e-07
1.99019e-06
4.57181e-06
8.89964e-06
1.61192e-05
2.80845e-05
4.77554e-05
7.97817e-05
0.000131333
0.000213228
0.000341383
0.000538515
0.000835896
0.00127471
0.0019063
0.00279053
0.00399147
0.00557069