/*--------------------------------*- C++ -*----------------------------------*\
  =========                 |
  \\      /  F ield         | OpenFOAM: The Open Source CFD Toolbox
   \\    /   O peration     | Website:  https://openfoam.org
    \\  /    A nd           | Version:  8
     \\/     M anipulation  |
\*---------------------------------------------------------------------------*/
FoamFile
{
    version     2.0;
    format      ascii;
    class       volScalarField;
    location    "720/fluid";
    object      H2O;
}
// * * * * * * * * * * * * * * * * * * * * * * * * * * * * * * * * * * * * * //

dimensions      [0 0 0 0 0 0 0];

internalField   nonuniform List<scalar> 
4000
(
3.87861e-07
1.69479e-06
3.89214e-06
7.57486e-06
1.37205e-05
2.39196e-05
4.07288e-05
6.82002e-05
0.000112646
0.000183701
0.0002957
0.000469334
0.000733334
0.00112571
0.00169378
0.0024921
0.00357774
0.00500318
0.00680853
0.00901551
0.011625
0.0146183
0.0179615
0.02161
0.0255133
0.0296186
0.0338734
0.0382276
0.0426344
0.0470511
0.0514398
0.0557675
0.0600059
0.064132
0.0681273
0.0719768
0.0756694
0.0791971
0.0825553
0.0857414
0.0887554
0.0915987
0.0942741
0.0967854
0.099137
0.101334
0.10338
0.105282
0.107041
0.108663
0.110148
0.111496
0.112705
0.113771
0.114683
0.115428
0.115986
0.116321
0.116402
0.116174
0.115558
0.11445
0.112226
0.103591
0.0948148
0.0860438
0.0773916
0.0689476
0.0607828
0.0529554
0.0455143
0.0385028
0.0319615
0.0259609
0.0204785
0.0156012
0.0113814
0.0078709
0.00510792
0.00308756
0.00173542
0.000911644
0.000451837
0.000214769
9.91833e-05
4.47696e-05
1.98367e-05
8.65552e-06
3.72855e-06
1.58885e-06
6.70884e-07
2.81085e-07
1.16982e-07
4.83867e-08
1.98815e-08
8.09108e-09
3.23146e-09
1.23311e-09
4.11725e-10
7.21766e-11
3.88519e-07
1.6981e-06
3.90163e-06
7.5984e-06
1.37735e-05
2.40289e-05
4.09366e-05
6.85626e-05
0.000113219
0.000184492
0.000296573
0.000469827
0.000732406
0.00112139
0.0016828
0.00246973
0.00353796
0.00493934
0.00671447
0.00888664
0.0114592
0.0144162
0.0177263
0.0213468
0.0252286
0.0293195
0.033567
0.0379205
0.0423325
0.0467594
0.0511623
0.0555072
0.0597651
0.0639122
0.0679291
0.0718005
0.0755147
0.0790634
0.0824414
0.0856464
0.0886778
0.091537
0.094227
0.0967513
0.0991145
0.101321
0.103377
0.105286
0.107052
0.108679
0.110168
0.11152
0.112732
0.1138
0.114713
0.115459
0.116016
0.11635
0.116429
0.116198
0.115578
0.114463
0.111526
0.102835
0.0940141
0.085207
0.0765251
0.0680571
0.0598742
0.0520348
0.0445891
0.0375819
0.031056
0.0250858
0.0196522
0.0148469
0.0107239
0.00733375
0.00470574
0.00281768
0.00157546
0.000828043
0.000412968
0.000197991
9.23606e-05
4.21232e-05
1.88465e-05
8.294e-06
3.59814e-06
1.54175e-06
6.5363e-07
2.746e-07
1.14466e-07
4.73804e-08
1.94699e-08
7.92133e-09
3.16224e-09
1.20614e-09
4.02562e-10
7.05792e-11
3.89748e-07
1.70367e-06
3.91539e-06
7.62747e-06
1.383e-05
2.41318e-05
4.11122e-05
6.88422e-05
0.000113628
0.000185024
0.000297132
0.000470103
0.000731634
0.0011181
0.00167462
0.00245317
0.00350841
0.00489134
0.00664223
0.0087849
0.011324
0.0142455
0.0175201
0.0211073
0.02496
0.0290271
0.0332572
0.0376
0.0420079
0.0464368
0.0508473
0.0552047
0.0594792
0.0636458
0.0676846
0.0715794
0.0753179
0.0788912
0.0822935
0.085522
0.0885759
0.0914564
0.094166
0.0967084
0.0990881
0.10131
0.103379
0.105299
0.107075
0.10871
0.110205
0.111562
0.112778
0.113848
0.114763
0.115508
0.116064
0.116395
0.116469
0.11623
0.115598
0.114464
0.11029
0.10156
0.092703
0.0838669
0.0751653
0.0666885
0.0585091
0.0506872
0.0432746
0.0363181
0.0298625
0.0239727
0.0186552
0.0139884
0.0100221
0.0067982
0.00433102
0.00258061
0.00144031
0.000757997
0.000379465
0.000182747
8.56785e-05
3.9279e-05
1.76642e-05
7.81139e-06
3.4037e-06
1.46405e-06
6.22683e-07
2.62265e-07
1.0953e-07
4.5395e-08
1.8668e-08
7.59757e-09
3.03313e-09
1.15674e-09
3.85962e-10
6.76595e-11
3.89762e-07
1.70373e-06
3.9155e-06
7.62723e-06
1.38274e-05
2.41196e-05
4.10706e-05
6.87221e-05
0.000113321
0.000184311
0.000295602
0.000467053
0.000725965
0.00110817
0.00165809
0.00242694
0.00346871
0.00483402
0.00656325
0.00868083
0.0111924
0.0140853
0.0173317
0.0208924
0.0247212
0.0287684
0.0329831
0.0373154
0.0417179
0.0461467
0.050562
0.0549286
0.0592161
0.0633991
0.0674568
0.0713725
0.0751333
0.0787295
0.082155
0.0854064
0.0884826
0.0913844
0.0941141
0.0966754
0.0990725
0.101309
0.103392
0.105324
0.107109
0.108752
0.110255
0.111616
0.112835
0.113906
0.114821
0.115564
0.116115
0.116437
0.116501
0.116248
0.115595
0.114434
0.108751
0.100009
0.0911389
0.0822931
0.0735914
0.0651271
0.0569753
0.0491978
0.0418477
0.0349729
0.0286196
0.02283
0.0176523
0.0131387
0.00933486
0.00627543
0.00396297
0.0023437
0.00130137
0.00068326
0.000342122
0.000165091
7.76305e-05
3.57144e-05
1.61218e-05
7.15689e-06
3.13044e-06
1.35143e-06
5.76735e-07
2.43654e-07
1.02028e-07
4.23817e-08
1.74613e-08
7.11703e-09
2.84447e-09
1.08561e-09
3.62348e-10
6.35346e-11
3.88643e-07
1.69877e-06
3.90374e-06
7.60327e-06
1.37812e-05
2.40323e-05
4.09071e-05
6.84175e-05
0.000112758
0.000183282
0.000293752
0.000463797
0.000720379
0.00109887
0.0016431
0.00240367
0.00343404
0.00478452
0.00649557
0.0085921
0.0110806
0.0139497
0.0171724
0.0207109
0.0245199
0.0285505
0.0327522
0.0370757
0.0414737
0.0459022
0.0503213
0.0546956
0.0589941
0.0631911
0.0672651
0.0711991
0.0749794
0.0785961
0.0820423
0.0853144
0.0884107
0.091332
0.0940805
0.0966591
0.0990714
0.101322
0.103417
0.10536
0.107154
0.108804
0.110311
0.111676
0.112895
0.113965
0.114875
0.115611
0.116152
0.11646
0.116507
0.116231
0.115547
0.114351
0.107133
0.0984048
0.0895328
0.0806864
0.0719934
0.0635521
0.0554397
0.0477188
0.0404426
0.0336588
0.0274243
0.0217557
0.0167165
0.0123536
0.00870776
0.0058053
0.00363713
0.00213707
0.00118158
0.000619208
0.000310108
0.000149868
7.06254e-05
3.2572e-05
1.47406e-05
6.55986e-06
2.87592e-06
1.24418e-06
5.3197e-07
2.25116e-07
9.4401e-08
3.92608e-08
1.61916e-08
6.60469e-09
2.64122e-09
1.00838e-09
3.36581e-10
5.90228e-11
3.86619e-07
1.68981e-06
3.8827e-06
7.56099e-06
1.37014e-05
2.38864e-05
4.06449e-05
6.79524e-05
0.000111943
0.000181873
0.000291356
0.000459801
0.000713868
0.00108854
0.0016272
0.00238003
0.00340013
0.00473771
0.00643339
0.00851258
0.0109825
0.0138325
0.0170367
0.020558
0.0243518
0.0283696
0.0325617
0.0368789
0.0412741
0.0457032
0.0501263
0.0545076
0.058816
0.0630252
0.0671136
0.0710634
0.0748608
0.0784952
0.0819595
0.0852497
0.0883638
0.0913024
0.0940667
0.0966596
0.0990854
0.101348
0.103453
0.105405
0.107206
0.108861
0.11037
0.111735
0.112952
0.114016
0.114917
0.11564
0.116164
0.11645
0.116472
0.116165
0.115449
0.114233
0.105804
0.0970022
0.0880748
0.0791973
0.0704982
0.0620739
0.0539998
0.0463365
0.0391352
0.032442
0.0263232
0.0207715
0.0158645
0.0116438
0.0081448
0.00538589
0.00334753
0.00195331
0.00107437
0.000561193
0.000280623
0.000135626
6.39681e-05
2.9542e-05
1.3392e-05
5.97093e-06
2.62285e-06
1.13691e-06
4.87015e-07
2.06452e-07
8.67114e-08
3.6113e-08
1.4911e-08
6.08819e-09
2.43638e-09
9.30556e-10
3.10657e-10
5.44971e-11
3.84187e-07
1.67912e-06
3.85783e-06
7.51167e-06
1.36099e-05
2.37224e-05
4.03569e-05
6.74541e-05
0.000111092
0.00018044
0.00028898
0.000455931
0.000707694
0.00107893
0.00161266
0.00235871
0.00336993
0.00469649
0.00637921
0.00844394
0.0108986
0.0137332
0.0169226
0.0204303
0.0242124
0.0282209
0.0324061
0.0367193
0.0411132
0.045544
0.0499714
0.0543596
0.0586772
0.0628975
0.0669985
0.0709623
0.0747745
0.0784242
0.0819041
0.0852098
0.0883393
0.091292
0.0940694
0.0966747
0.0991116
0.101384
0.103497
0.105455
0.107261
0.108918
0.110428
0.11179
0.113001
0.114055
0.114941
0.115643
0.116138
0.116385
0.116357
0.115985
0.11519
0.113894
0.104986
0.0959121
0.0868328
0.0778782
0.0691515
0.0607349
0.0526948
0.0450862
0.0379562
0.0313475
0.0253287
0.0198814
0.0150958
0.0110091
0.00764813
0.00502004
0.00309747
0.00179598
0.000983127
0.000511949
0.000255579
0.000123486
5.82614e-05
2.69257e-05
1.22176e-05
5.45329e-06
2.39829e-06
1.04082e-06
4.46384e-07
1.89444e-07
7.96532e-08
3.32055e-08
1.3722e-08
5.60645e-09
2.24465e-09
8.57558e-10
2.86326e-10
5.02981e-11
3.81619e-07
1.66785e-06
3.83171e-06
7.46013e-06
1.35149e-05
2.35533e-05
4.00624e-05
6.69496e-05
0.00011024
0.000179022
0.000286659
0.000452202
0.000701832
0.00106994
0.00159926
0.00233936
0.00334292
0.00466013
0.00633202
0.00838487
0.0108271
0.0136494
0.0168273
0.0203247
0.024098
0.0280997
0.0322805
0.0365914
0.0409855
0.0454187
0.0498508
0.0542457
0.0585718
0.0628021
0.0669144
0.0708905
0.0747156
0.0783786
0.081872
0.0851909
0.0883326
0.0912969
0.0940854
0.0967007
0.0991466
0.101427
0.103546
0.105508
0.107317
0.108975
0.110483
0.11184
0.113043
0.114085
0.114953
0.115629
0.116084
0.116276
0.116165
0.115666
0.114671
0.113056
0.103985
0.0947938
0.0856414
0.0766514
0.06792
0.0595238
0.0515246
0.0439742
0.0369167
0.0303934
0.0244674
0.019139
0.0144622
0.010478
0.00722493
0.00470816
0.00288464
0.00166211
0.000905343
0.000469793
0.000234008
0.000112965
5.3284e-05
2.46299e-05
1.11814e-05
4.99429e-06
2.1983e-06
9.54923e-07
4.09944e-07
1.74149e-07
7.32903e-08
3.05792e-08
1.26461e-08
5.16987e-09
2.07053e-09
7.91762e-10
2.64336e-10
4.64999e-11
3.79113e-07
1.65687e-06
3.80634e-06
7.41026e-06
1.34234e-05
2.33915e-05
3.97824e-05
6.64735e-05
0.000109442
0.000177707
0.000284526
0.000448808
0.000696548
0.00106191
0.00158741
0.00232238
0.00331943
0.00462876
0.00629164
0.00833473
0.010767
0.0135795
0.0167483
0.0202378
0.0240048
0.0280018
0.0321798
0.0364899
0.0408851
0.0453214
0.0497583
0.0541597
0.0584936
0.062733
0.0668553
0.070842
0.0746782
0.0783527
0.0818574
0.0851869
0.0883388
0.0913129
0.0941105
0.0967339
0.0991867
0.101473
0.103597
0.105562
0.107372
0.10903
0.110535
0.111888
0.113085
0.114116
0.11497
0.115628
0.116056
0.116218
0.116064
0.115508
0.114438
0.112114
0.102949
0.0936981
0.0845143
0.0755166
0.0667984
0.0584339
0.0504833
0.0429972
0.03602
0.0295933
0.0237763
0.0185481
0.0139682
0.0100728
0.00688655
0.00444648
0.0027045
0.00154876
0.000839536
0.000434133
0.000215741
0.000104037
4.90483e-05
2.26696e-05
1.02933e-05
4.5994e-06
2.02556e-06
8.80446e-07
3.78235e-07
1.60795e-07
6.77186e-08
2.82733e-08
1.16992e-08
4.78508e-09
1.91691e-09
7.33674e-10
2.44903e-10
4.31407e-11
3.76774e-07
1.64664e-06
3.78272e-06
7.36395e-06
1.33387e-05
2.32421e-05
3.95251e-05
6.60378e-05
0.000108717
0.000176517
0.000282608
0.000445776
0.000691859
0.00105484
0.00157704
0.00230766
0.00329921
0.00460197
0.00625741
0.00829255
0.0107167
0.0135216
0.0166834
0.020167
0.0239294
0.0279234
0.0320998
0.0364101
0.0408071
0.0452468
0.0496885
0.0540959
0.058437
0.0626845
0.0668156
0.0708116
0.0746575
0.0783415
0.0818552
0.0851937
0.0883542
0.0913363
0.094141
0.0967707
0.0992289
0.101519
0.103646
0.105613
0.107424
0.109081
0.110585
0.111934
0.113125
0.114149
0.114995
0.115642
0.11606
0.116211
0.11605
0.115496
0.114448
0.111104
0.101916
0.0926529
0.0834686
0.0744827
0.0657884
0.0574591
0.0495545
0.042125
0.0352151
0.0288642
0.0230781
0.0179188
0.0134276
0.00963907
0.00657911
0.00422282
0.00254849
0.00145147
0.000783381
0.000403799
0.000200218
9.64482e-05
4.54442e-05
2.09989e-05
9.53495e-06
4.26147e-06
1.87742e-06
8.16441e-07
3.5093e-07
1.49274e-07
6.29036e-08
2.62777e-08
1.08786e-08
4.45152e-09
1.78363e-09
6.83163e-10
2.27993e-10
4.02096e-11
3.74663e-07
1.6374e-06
3.76143e-06
7.32229e-06
1.32627e-05
2.31084e-05
3.92955e-05
6.56507e-05
0.000108074
0.000175468
0.000280925
0.00044313
0.00068779
0.00104874
0.00156815
0.00229509
0.00328206
0.00457938
0.00622873
0.00825743
0.0106752
0.013474
0.0166305
0.0201097
0.0238689
0.0278609
0.0320369
0.036348
0.0407472
0.0451903
0.0496366
0.0540496
0.0583972
0.0626518
0.0667905
0.0707946
0.0746485
0.0783402
0.0818617
0.0852076
0.0883751
0.0913635
0.0941737
0.0968083
0.0992703
0.101564
0.103693
0.105661
0.107471
0.109127
0.110628
0.111974
0.11316
0.114179
0.115018
0.115658
0.116068
0.116213
0.116048
0.115493
0.114448
0.110141
0.10095
0.0916937
0.0825258
0.0735655
0.0649075
0.0566226
0.0487685
0.0413939
0.0345273
0.0282064
0.022482
0.0173922
0.0129769
0.00926831
0.00628786
0.00402828
0.00241842
0.00136883
0.000735907
0.00037823
0.000187152
9.00625e-05
4.24097e-05
1.95908e-05
8.89486e-06
3.97578e-06
1.75197e-06
7.62143e-07
3.27725e-07
1.39467e-07
5.87986e-08
2.4574e-08
1.01774e-08
4.16615e-09
1.66952e-09
6.39885e-10
2.13499e-10
3.76984e-11
3.72802e-07
1.62927e-06
3.74271e-06
7.28569e-06
1.3196e-05
2.29914e-05
3.90951e-05
6.53135e-05
0.000107516
0.00017456
0.000279475
0.000440859
0.000684312
0.00104355
0.00156061
0.0022845
0.00326767
0.00456053
0.00620493
0.00822845
0.0106411
0.0134352
0.0165876
0.0200637
0.0238207
0.0278117
0.0319877
0.0363001
0.0407016
0.0451481
0.0495987
0.0540167
0.05837
0.0626308
0.0667762
0.0707869
0.0746473
0.0783457
0.0818735
0.0852254
0.0883984
0.0913916
0.0942061
0.0968442
0.099309
0.101604
0.103734
0.105702
0.107512
0.109166
0.110665
0.112007
0.113188
0.114202
0.115034
0.115668
0.116071
0.11621
0.11604
0.115482
0.114438
0.109289
0.100096
0.0908479
0.0817004
0.0727712
0.0641471
0.0558932
0.0480677
0.0407165
0.0338916
0.0276297
0.021966
0.0169409
0.0125932
0.00895422
0.00604293
0.00384785
0.00230761
0.00130017
0.000695896
0.000356756
0.000176206
8.4718e-05
3.98706e-05
1.84122e-05
8.35881e-06
3.73632e-06
1.6467e-06
7.16524e-07
3.08205e-07
1.31206e-07
5.53367e-08
2.31356e-08
9.58476e-09
3.92483e-09
1.57297e-09
6.03318e-10
2.01246e-10
3.55771e-11
3.71197e-07
1.62225e-06
3.72657e-06
7.25419e-06
1.31387e-05
2.2891e-05
3.89234e-05
6.50255e-05
0.000107041
0.000173789
0.000278246
0.00043894
0.000681385
0.0010392
0.00155432
0.00227569
0.00325575
0.00454499
0.0061854
0.0082048
0.0106135
0.0134039
0.0165533
0.0200271
0.0237827
0.0277732
0.0319497
0.0362635
0.0406673
0.0451169
0.0495713
0.0539938
0.0583521
0.0626182
0.066769
0.0707852
0.0746512
0.0783549
0.0818878
0.0852444
0.0884216
0.0914186
0.0942362
0.0968766
0.0993431
0.101639
0.103769
0.105737
0.107545
0.109197
0.110692
0.11203
0.113207
0.114215
0.115041
0.115668
0.116065
0.116198
0.116022
0.115462
0.11442
0.108558
0.0993576
0.0901152
0.0809829
0.0720664
0.063455
0.0552257
0.0474346
0.0401289
0.0333509
0.0271389
0.0215276
0.0165585
0.0122694
0.00869067
0.00583922
0.00369995
0.00220706
0.00124374
0.000663496
0.000338984
0.000167127
8.02947e-05
3.7771e-05
1.74376e-05
7.9152e-06
3.53795e-06
1.55939e-06
6.78637e-07
2.91971e-07
1.24327e-07
5.24499e-08
2.19347e-08
9.08943e-09
3.72302e-09
1.49218e-09
5.72765e-10
1.91005e-10
3.38068e-11
3.69841e-07
1.61632e-06
3.71294e-06
7.22759e-06
1.30903e-05
2.28065e-05
3.87791e-05
6.47837e-05
0.000106643
0.000173145
0.000277222
0.000437346
0.000678959
0.0010356
0.00154914
0.00226846
0.00324601
0.00453233
0.00616957
0.00818571
0.0105912
0.0133789
0.0165261
0.0199982
0.023753
0.0277434
0.0319206
0.0362358
0.0406418
0.0450941
0.0495519
0.0539783
0.0583407
0.0626112
0.0667665
0.0707872
0.0746576
0.0783656
0.0819025
0.0852626
0.088443
0.0914426
0.0942623
0.0969043
0.0993717
0.101668
0.103798
0.105764
0.10757
0.109219
0.110711
0.112045
0.113216
0.114218
0.115039
0.11566
0.116049
0.116177
0.115997
0.115434
0.114397
0.107942
0.098729
0.0894875
0.0803568
0.0714542
0.0628672
0.0546658
0.0469065
0.0396367
0.0328977
0.0267274
0.0211605
0.0162386
0.0119991
0.00847154
0.0056709
0.00357893
0.00212613
0.00119309
0.000637072
0.00032503
0.000159856
7.67131e-05
3.60655e-05
1.66437e-05
7.55294e-06
3.37557e-06
1.48778e-06
6.47508e-07
2.78612e-07
1.18658e-07
5.00681e-08
2.09428e-08
8.67977e-09
3.5563e-09
1.42534e-09
5.47469e-10
1.82522e-10
3.23419e-11
3.68718e-07
1.61142e-06
3.70167e-06
7.20561e-06
1.30504e-05
2.27367e-05
3.86603e-05
6.4585e-05
0.000106316
0.000172617
0.000276385
0.000436045
0.000676984
0.00103268
0.00154494
0.00226262
0.00323817
0.00452218
0.00615691
0.00817052
0.0105737
0.0133592
0.0165047
0.0199758
0.02373
0.0277205
0.0318985
0.036215
0.0406229
0.0450777
0.0495383
0.0539678
0.0583336
0.0626077
0.0667665
0.0707908
0.0746646
0.0783759
0.0819157
0.0852785
0.0884611
0.0914626
0.0942836
0.0969263
0.0993939
0.10169
0.103818
0.105783
0.107587
0.109233
0.110721
0.11205
0.113217
0.114213
0.115028
0.115642
0.116025
0.116148
0.115964
0.1154
0.11437
0.107427
0.0981998
0.0889551
0.0798337
0.0709462
0.0623792
0.0542016
0.0464695
0.0392295
0.0325229
0.0263874
0.0208573
0.0159747
0.0117765
0.00829151
0.00553316
0.00348051
0.00206091
0.0011529
0.000613689
0.000313419
0.000154241
7.39065e-05
3.4697e-05
1.60012e-05
7.25895e-06
3.24363e-06
1.42952e-06
6.22157e-07
2.67723e-07
1.14034e-07
4.81241e-08
2.01327e-08
8.34514e-09
3.42009e-09
1.37071e-09
5.26783e-10
1.75584e-10
3.1145e-11
3.67812e-07
1.60746e-06
3.69259e-06
7.18792e-06
1.30183e-05
2.26807e-05
3.85648e-05
6.44256e-05
0.000106054
0.000172195
0.000275717
0.000435009
0.000675414
0.00103036
0.00154162
0.00225801
0.00323199
0.00451421
0.00614701
0.00815867
0.01056
0.013344
0.0164883
0.0199586
0.0237125
0.0277033
0.0318819
0.0361996
0.0406091
0.0450658
0.0495287
0.0539607
0.0583292
0.062606
0.0667676
0.0707945
0.0746709
0.0783845
0.0819265
0.0852911
0.0884751
0.0914776
0.0942993
0.0969422
0.0994095
0.101705
0.103832
0.105794
0.107595
0.109238
0.110722
0.112047
0.113209
0.1142
0.115009
0.115618
0.115996
0.116114
0.115928
0.115365
0.114343
0.107013
0.0977713
0.0885228
0.0794071
0.0705318
0.0619815
0.0538239
0.0461143
0.0388991
0.0322192
0.0261121
0.020612
0.0157614
0.0115969
0.0081465
0.00542251
0.00340171
0.00200894
0.00112108
0.000595339
0.000303188
0.000149039
7.15292e-05
3.35916e-05
1.54853e-05
7.02227e-06
3.13725e-06
1.3826e-06
6.01755e-07
2.5897e-07
1.10319e-07
4.6564e-08
1.94831e-08
8.07725e-09
3.31092e-09
1.32696e-09
5.10224e-10
1.70033e-10
3.01886e-11
3.6711e-07
1.60439e-06
3.68553e-06
7.17418e-06
1.29934e-05
2.26372e-05
3.84909e-05
6.43022e-05
0.000105852
0.000171869
0.000275201
0.000434211
0.000674207
0.00102858
0.00153908
0.00225449
0.00322728
0.00450814
0.00613949
0.0081497
0.0105497
0.0133326
0.016476
0.0199457
0.0236996
0.0276905
0.0318698
0.0361884
0.0405992
0.0450574
0.049522
0.0539559
0.0583263
0.0626051
0.0667686
0.0707974
0.0746755
0.0783907
0.081934
0.0852997
0.0884846
0.0914876
0.0943093
0.0969519
0.0994183
0.101712
0.103838
0.105798
0.107597
0.109236
0.110716
0.112037
0.113194
0.11418
0.114984
0.115588
0.115963
0.116079
0.115893
0.115334
0.11432
0.106673
0.0974231
0.0881753
0.0790663
0.070202
0.0616659
0.0535251
0.0458341
0.038639
0.0319806
0.0258962
0.02042
0.0155947
0.0114567
0.00803362
0.0053366
0.00334071
0.00196886
0.00109668
0.00058147
0.000295718
0.00014519
6.96018e-05
3.27087e-05
1.50874e-05
6.84131e-06
3.0558e-06
1.34649e-06
5.85968e-07
2.52193e-07
1.0744e-07
4.53596e-08
1.89817e-08
7.87321e-09
3.22699e-09
1.29337e-09
4.97534e-10
1.65777e-10
2.94563e-11
3.66595e-07
1.60215e-06
3.68037e-06
7.16413e-06
1.29752e-05
2.26055e-05
3.84369e-05
6.42121e-05
0.000105705
0.000171631
0.000274826
0.00043363
0.00067333
0.00102729
0.00153723
0.00225194
0.00322388
0.00450377
0.00613408
0.00814325
0.0105423
0.0133244
0.0164672
0.0199366
0.0236904
0.0276816
0.0318613
0.0361806
0.0405923
0.0450516
0.0495175
0.0539526
0.0583243
0.0626044
0.066769
0.0707989
0.074678
0.0783941
0.0819381
0.0853044
0.0884895
0.0914925
0.094314
0.0969559
0.0994214
0.101714
0.103837
0.105796
0.107591
0.109227
0.110704
0.112021
0.113174
0.114156
0.114956
0.115557
0.115931
0.116049
0.115872
0.115332
0.114357
0.106441
0.0971708
0.087917
0.0788103
0.0699536
0.0614286
0.0533009
0.0456244
0.038445
0.0318031
0.025736
0.0202778
0.0154715
0.0113534
0.00795066
0.00527366
0.00329617
0.00193966
0.00107893
0.000571383
0.000290305
0.000142413
6.82242e-05
3.20324e-05
1.47714e-05
6.70268e-06
2.99547e-06
1.32035e-06
5.74718e-07
2.47403e-07
1.05404e-07
4.45145e-08
1.86281e-08
7.72928e-09
3.16737e-09
1.26939e-09
4.88464e-10
1.62731e-10
2.89329e-11
3.66259e-07
1.60068e-06
3.677e-06
7.15757e-06
1.29633e-05
2.25847e-05
3.84017e-05
6.41534e-05
0.000105608
0.000171476
0.000274582
0.000433253
0.00067276
0.00102645
0.00153604
0.00225029
0.00322168
0.00450094
0.00613059
0.00813911
0.0105375
0.0133191
0.0164616
0.0199308
0.0236845
0.0276759
0.0318559
0.0361757
0.040588
0.045048
0.0495145
0.0539505
0.0583229
0.0626036
0.0667689
0.0707993
0.0746788
0.0783951
0.0819394
0.0853058
0.0884909
0.0914936
0.0943146
0.0969558
0.0994202
0.101711
0.103833
0.105789
0.107582
0.109215
0.110689
0.112002
0.113151
0.114129
0.114926
0.115524
0.115895
0.116013
0.115838
0.115304
0.114341
0.106284
0.0969979
0.087739
0.0786339
0.069783
0.0612663
0.0531483
0.0454826
0.0383144
0.0316842
0.0256292
0.0201834
0.0153901
0.0112853
0.00789622
0.00523255
0.00326723
0.00192077
0.00106746
0.000564858
0.000286801
0.00014062
6.73454e-05
3.16259e-05
1.45782e-05
6.6147e-06
2.95524e-06
1.30325e-06
5.67287e-07
2.44312e-07
1.04088e-07
4.3973e-08
1.84012e-08
7.63733e-09
3.12921e-09
1.25404e-09
4.82667e-10
1.60781e-10
2.85987e-11
3.66096e-07
1.59997e-06
3.67537e-06
7.15439e-06
1.29575e-05
2.25748e-05
3.83847e-05
6.41253e-05
0.000105562
0.000171403
0.000274466
0.000433074
0.00067249
0.00102606
0.00153547
0.00224951
0.00322064
0.00449961
0.00612894
0.00813715
0.0105353
0.0133166
0.016459
0.0199281
0.0236818
0.0276732
0.0318533
0.0361733
0.0405859
0.0450462
0.0495131
0.0539494
0.0583222
0.0626032
0.0667687
0.0707991
0.0746786
0.0783949
0.0819391
0.0853053
0.0884902
0.0914927
0.0943132
0.0969538
0.0994175
0.101708
0.103828
0.105783
0.107574
0.109205
0.110676
0.111987
0.113133
0.114108
0.114902
0.115497
0.115866
0.115983
0.11581
0.115282
0.114333
0.106206
0.096907
0.0876438
0.0785397
0.0696927
0.0611812
0.0530693
0.0454099
0.0382483
0.0316246
0.0255761
0.020137
0.0153504
0.0112524
0.00787012
0.00521301
0.00325359
0.00191195
0.00106215
0.000561837
0.000285167
0.000139815
6.69465e-05
3.14434e-05
1.44912e-05
6.57585e-06
2.9373e-06
1.29536e-06
5.63764e-07
2.42824e-07
1.03449e-07
4.37099e-08
1.82908e-08
7.59258e-09
3.11072e-09
1.24659e-09
4.79864e-10
1.59838e-10
2.84365e-11
3.66097e-07
1.59997e-06
3.67538e-06
7.15441e-06
1.29576e-05
2.25748e-05
3.83849e-05
6.41255e-05
0.000105563
0.000171403
0.000274467
0.000433075
0.000672492
0.00102606
0.00153548
0.00224951
0.00322065
0.00449962
0.00612895
0.00813716
0.0105353
0.0133167
0.016459
0.0199281
0.0236818
0.0276732
0.0318533
0.0361734
0.0405859
0.0450462
0.0495131
0.0539494
0.0583222
0.0626032
0.0667687
0.0707992
0.0746786
0.0783949
0.0819391
0.0853053
0.0884903
0.0914927
0.0943132
0.0969539
0.0994175
0.101708
0.103828
0.105783
0.107574
0.109205
0.110676
0.111987
0.113133
0.114108
0.114902
0.115497
0.115866
0.115983
0.11581
0.115282
0.114333
0.106206
0.096907
0.0876438
0.0785398
0.0696927
0.0611813
0.0530694
0.04541
0.0382483
0.0316246
0.0255762
0.020137
0.0153504
0.0112525
0.00787012
0.00521301
0.00325359
0.00191195
0.00106215
0.000561838
0.000285168
0.000139816
6.69469e-05
3.14432e-05
1.44912e-05
6.57574e-06
2.93727e-06
1.29533e-06
5.63755e-07
2.42819e-07
1.03447e-07
4.3709e-08
1.82905e-08
7.5924e-09
3.11068e-09
1.24658e-09
4.79868e-10
1.59839e-10
2.84361e-11
3.66263e-07
1.60069e-06
3.67704e-06
7.15764e-06
1.29634e-05
2.2585e-05
3.8402e-05
6.4154e-05
0.000105609
0.000171478
0.000274584
0.000433257
0.000672766
0.00102646
0.00153605
0.0022503
0.0032217
0.00450097
0.00613062
0.00813915
0.0105376
0.0133192
0.0164617
0.0199309
0.0236846
0.0276759
0.0318559
0.0361758
0.040588
0.045048
0.0495146
0.0539505
0.058323
0.0626037
0.066769
0.0707993
0.0746788
0.0783952
0.0819395
0.0853058
0.0884909
0.0914936
0.0943146
0.0969558
0.0994203
0.101711
0.103833
0.105789
0.107582
0.109215
0.110689
0.112002
0.113151
0.114129
0.114926
0.115524
0.115895
0.116013
0.115838
0.115305
0.114341
0.106284
0.096998
0.0877391
0.078634
0.0697831
0.0612663
0.0531484
0.0454827
0.0383145
0.0316843
0.0256293
0.0201835
0.0153901
0.0112854
0.00789625
0.00523258
0.00326724
0.00192078
0.00106747
0.000564862
0.000286803
0.000140622
6.73465e-05
3.16256e-05
1.45781e-05
6.61446e-06
2.95518e-06
1.30318e-06
5.67268e-07
2.44298e-07
1.04084e-07
4.39708e-08
1.84005e-08
7.63678e-09
3.12919e-09
1.25404e-09
4.82689e-10
1.60789e-10
2.85971e-11
3.66601e-07
1.60217e-06
3.68043e-06
7.16425e-06
1.29754e-05
2.26058e-05
3.84375e-05
6.42131e-05
0.000105706
0.000171634
0.00027483
0.000433636
0.000673339
0.0010273
0.00153725
0.00225197
0.00322391
0.00450381
0.00613413
0.00814332
0.0105424
0.0133245
0.0164673
0.0199367
0.0236905
0.0276817
0.0318614
0.0361807
0.0405924
0.0450518
0.0495176
0.0539527
0.0583244
0.0626045
0.0667691
0.070799
0.0746781
0.0783942
0.0819382
0.0853044
0.0884896
0.0914926
0.094314
0.096956
0.0994214
0.101714
0.103837
0.105796
0.107591
0.109227
0.110704
0.112021
0.113174
0.114156
0.114956
0.115557
0.115931
0.116049
0.115872
0.115332
0.114357
0.106441
0.0971709
0.0879171
0.0788104
0.0699538
0.0614287
0.053301
0.0456245
0.0384451
0.0318032
0.0257361
0.0202779
0.0154716
0.0113535
0.0079507
0.00527369
0.00329619
0.00193967
0.00107894
0.00057139
0.000290308
0.000142414
6.82252e-05
3.20328e-05
1.47716e-05
6.70262e-06
2.99545e-06
1.32032e-06
5.74706e-07
2.47394e-07
1.05401e-07
4.45125e-08
1.86274e-08
7.72853e-09
3.16743e-09
1.26941e-09
4.88505e-10
1.62744e-10
2.8931e-11
3.67118e-07
1.60443e-06
3.68562e-06
7.17434e-06
1.29937e-05
2.26377e-05
3.84917e-05
6.43036e-05
0.000105854
0.000171872
0.000275207
0.000434219
0.000674219
0.0010286
0.0015391
0.00225453
0.00322733
0.00450821
0.00613957
0.00814979
0.0105498
0.0133327
0.0164761
0.0199459
0.0236997
0.0276907
0.0318699
0.0361886
0.0405994
0.0450576
0.0495222
0.0539561
0.0583265
0.0626052
0.0667687
0.0707975
0.0746757
0.0783908
0.0819341
0.0852998
0.0884847
0.0914876
0.0943094
0.096952
0.0994184
0.101712
0.103838
0.105798
0.107597
0.109236
0.110716
0.112037
0.113194
0.11418
0.114984
0.115588
0.115963
0.116079
0.115893
0.115334
0.11432
0.106673
0.0974232
0.0881755
0.0790664
0.0702021
0.0616661
0.0535253
0.0458343
0.0386392
0.0319808
0.0258964
0.0204201
0.0155948
0.0114568
0.00803369
0.00533665
0.00334075
0.00196888
0.0010967
0.000581479
0.000295723
0.000145193
6.9603e-05
3.27092e-05
1.50876e-05
6.8414e-06
3.05581e-06
1.3465e-06
5.85973e-07
2.52195e-07
1.07441e-07
4.53596e-08
1.89817e-08
7.87266e-09
3.22714e-09
1.29343e-09
4.9759e-10
1.65797e-10
2.94544e-11
3.67823e-07
1.60751e-06
3.69269e-06
7.18812e-06
1.30187e-05
2.26813e-05
3.85659e-05
6.44273e-05
0.000106057
0.000172199
0.000275724
0.000435019
0.00067543
0.00103038
0.00154165
0.00225806
0.00323206
0.00451429
0.00614711
0.00815879
0.0105601
0.0133442
0.0164885
0.0199588
0.0237127
0.0277035
0.0318821
0.0361998
0.0406093
0.0450661
0.0495289
0.0539609
0.0583294
0.0626062
0.0667678
0.0707947
0.0746711
0.0783846
0.0819266
0.0852912
0.0884753
0.0914778
0.0942994
0.0969423
0.0994095
0.101705
0.103832
0.105794
0.107596
0.109238
0.110722
0.112047
0.113209
0.1142
0.115009
0.115618
0.115996
0.116114
0.115928
0.115365
0.114343
0.107013
0.0977716
0.0885231
0.0794074
0.0705321
0.0619817
0.0538242
0.0461145
0.0388994
0.0322194
0.0261123
0.0206122
0.0157616
0.011597
0.00814661
0.00542259
0.00340176
0.00200898
0.0011211
0.000595351
0.000303194
0.000149042
7.15307e-05
3.35921e-05
1.54855e-05
7.02236e-06
3.13734e-06
1.38263e-06
6.01773e-07
2.58977e-07
1.10323e-07
4.65652e-08
1.94835e-08
8.07726e-09
3.31117e-09
1.32706e-09
5.10299e-10
1.7006e-10
3.01867e-11
3.6873e-07
1.61147e-06
3.7018e-06
7.20586e-06
1.30509e-05
2.27375e-05
3.86615e-05
6.4587e-05
0.000106319
0.000172622
0.000276393
0.000436058
0.000677003
0.00103271
0.00154498
0.00226268
0.00323824
0.00452228
0.00615704
0.00817067
0.0105738
0.0133594
0.016505
0.019976
0.0237303
0.0277208
0.0318987
0.0362153
0.0406232
0.0450779
0.0495385
0.053968
0.0583338
0.0626079
0.0667667
0.070791
0.0746648
0.0783761
0.0819159
0.0852787
0.0884613
0.0914627
0.0942837
0.0969264
0.099394
0.10169
0.103819
0.105783
0.107587
0.109233
0.110721
0.11205
0.113217
0.114213
0.115028
0.115642
0.116025
0.116148
0.115964
0.115401
0.11437
0.107427
0.0982002
0.0889555
0.079834
0.0709465
0.0623796
0.054202
0.0464699
0.0392299
0.0325233
0.0263878
0.0208576
0.0159749
0.0117767
0.00829166
0.00553327
0.00348058
0.00206096
0.00115293
0.000613705
0.000313427
0.000154245
7.39083e-05
3.4698e-05
1.60017e-05
7.2592e-06
3.24374e-06
1.42957e-06
6.22178e-07
2.67732e-07
1.14038e-07
4.81257e-08
2.01334e-08
8.34533e-09
3.42033e-09
1.37082e-09
5.26856e-10
1.75611e-10
3.11421e-11
3.69855e-07
1.61639e-06
3.71309e-06
7.22788e-06
1.30908e-05
2.28073e-05
3.87806e-05
6.47861e-05
0.000106647
0.000173151
0.000277232
0.000437361
0.000678981
0.00103563
0.00154919
0.00226853
0.0032461
0.00453244
0.00616971
0.00818588
0.0105915
0.0133792
0.0165263
0.0199985
0.0237533
0.0277437
0.0319209
0.0362361
0.0406421
0.0450945
0.0495522
0.0539786
0.058341
0.0626115
0.0667668
0.0707875
0.0746579
0.0783658
0.0819027
0.0852628
0.0884432
0.0914428
0.0942625
0.0969045
0.0993718
0.101668
0.103798
0.105764
0.107571
0.109219
0.110711
0.112045
0.113216
0.114219
0.115039
0.11566
0.116049
0.116177
0.115997
0.115434
0.114397
0.107942
0.0987291
0.0894876
0.0803568
0.0714542
0.0628674
0.0546663
0.0469072
0.0396375
0.0328984
0.0267281
0.021161
0.016239
0.0119994
0.00847175
0.00567105
0.00357903
0.00212619
0.00119313
0.000637091
0.000325038
0.000159861
7.67155e-05
3.60668e-05
1.66443e-05
7.55323e-06
3.37571e-06
1.48784e-06
6.47534e-07
2.78623e-07
1.18663e-07
5.00702e-08
2.09436e-08
8.68005e-09
3.55657e-09
1.42546e-09
5.47539e-10
1.82549e-10
3.23377e-11
3.71214e-07
1.62233e-06
3.72674e-06
7.25451e-06
1.31392e-05
2.2892e-05
3.89251e-05
6.50282e-05
0.000107045
0.000173796
0.000278257
0.000438957
0.00068141
0.00103923
0.00155437
0.00227577
0.00325585
0.00454512
0.00618557
0.008205
0.0106137
0.0134042
0.0165536
0.0200274
0.0237831
0.0277736
0.0319501
0.0362639
0.0406677
0.0451173
0.0495717
0.0539942
0.0583524
0.0626186
0.0667694
0.0707855
0.0746515
0.0783552
0.0818881
0.0852447
0.0884218
0.0914188
0.0942363
0.0968768
0.0993433
0.10164
0.10377
0.105737
0.107546
0.109197
0.110692
0.11203
0.113207
0.114215
0.115041
0.115669
0.116065
0.116198
0.116022
0.115462
0.11442
0.108558
0.0993576
0.0901148
0.0809814
0.0720626
0.0634542
0.0552265
0.0474363
0.0401311
0.0333528
0.0271403
0.0215287
0.0165593
0.0122699
0.00869101
0.00583944
0.00370008
0.00220714
0.00124379
0.000663519
0.000338996
0.000167134
8.0298e-05
3.77725e-05
1.74383e-05
7.91554e-06
3.5381e-06
1.55946e-06
6.78668e-07
2.91984e-07
1.24333e-07
5.24523e-08