/*--------------------------------*- C++ -*----------------------------------*\
  =========                 |
  \\      /  F ield         | OpenFOAM: The Open Source CFD Toolbox
   \\    /   O peration     | Website:  https://openfoam.org
    \\  /    A nd           | Version:  8
     \\/     M anipulation  |
\*---------------------------------------------------------------------------*/
FoamFile
{
    version     2.0;
    format      ascii;
    class       volScalarField;
    location    "720/fluid";
    object      N2;
}
// * * * * * * * * * * * * * * * * * * * * * * * * * * * * * * * * * * * * * //

dimensions      [0 0 0 0 0 0 0];

internalField   nonuniform List<scalar> 
4000
(
2.30827e-06
1.00861e-05
2.31631e-05
4.50798e-05
8.16538e-05
0.00014235
0.000242384
0.000405868
0.00067037
0.00109321
0.00175972
0.00279299
0.004364
0.0066989
0.0100792
0.0148296
0.0212894
0.0297708
0.0405124
0.0536432
0.069168
0.0869763
0.106865
0.12857
0.151789
0.176209
0.201518
0.227417
0.253628
0.279897
0.305999
0.331737
0.356943
0.381481
0.405241
0.428134
0.450095
0.471077
0.491054
0.510014
0.527956
0.544893
0.560845
0.575839
0.589907
0.603086
0.615415
0.626934
0.637685
0.647709
0.657049
0.665744
0.673835
0.68136
0.688357
0.694859
0.700902
0.706441
0.711529
0.716394
0.720918
0.72513
0.728998
0.732713
0.736266
0.739663
0.742904
0.745991
0.748921
0.751693
0.754302
0.756743
0.759008
0.761078
0.762963
0.764639
0.766089
0.767295
0.768245
0.768939
0.769404
0.769687
0.769845
0.769926
0.769966
0.769985
0.769993
0.769997
0.769999
0.769999
0.77
0.77
0.77
0.77
0.77
0.77
0.77
0.77
0.77
0.77
2.31207e-06
1.01053e-05
2.32183e-05
4.52174e-05
8.19645e-05
0.000142993
0.000243607
0.000408002
0.000673737
0.00109786
0.00176482
0.00279578
0.00435827
0.00667292
0.0100135
0.014696
0.0210521
0.0293903
0.039952
0.0528757
0.068181
0.0857734
0.105465
0.127004
0.150096
0.17443
0.199696
0.225592
0.251834
0.278164
0.304351
0.330191
0.355514
0.380177
0.404066
0.427089
0.449179
0.470286
0.490382
0.509454
0.527501
0.544534
0.560574
0.575648
0.589788
0.60303
0.615415
0.626983
0.637777
0.647838
0.657209
0.665931
0.674045
0.681588
0.6886
0.695115
0.701167
0.70671
0.711801
0.71667
0.721197
0.725405
0.72928
0.733002
0.736563
0.739967
0.743214
0.746306
0.74924
0.752014
0.754623
0.757061
0.75932
0.761378
0.763247
0.764898
0.766315
0.76748
0.768383
0.769032
0.769458
0.769715
0.769858
0.769932
0.769968
0.769986
0.769994
0.769997
0.769999
0.769999
0.77
0.77
0.77
0.77
0.77
0.77
0.77
0.77
0.77
0.77
2.31925e-06
1.0138e-05
2.32991e-05
4.53883e-05
8.2297e-05
0.000143598
0.000244641
0.00040965
0.000676149
0.00110099
0.00176808
0.00279733
0.00435353
0.00665311
0.00996451
0.014597
0.0208758
0.0291041
0.0395216
0.0522699
0.0673762
0.0847573
0.104239
0.12558
0.148499
0.172693
0.197856
0.223688
0.249906
0.276249
0.302482
0.328397
0.353819
0.378599
0.402618
0.425781
0.448016
0.46927
0.489511
0.508723
0.526906
0.544067
0.560226
0.575409
0.589651
0.602987
0.615454
0.627096
0.637954
0.648072
0.657492
0.666256
0.674405
0.681978
0.689013
0.695547
0.701614
0.707162
0.712254
0.717121
0.721637
0.725843
0.729735
0.733471
0.737041
0.74045
0.743699
0.746789
0.749718
0.752483
0.755078
0.757497
0.759731
0.761761
0.763589
0.765192
0.766555
0.767663
0.768511
0.769113
0.769505
0.769739
0.76987
0.769937
0.769971
0.769986
0.769994
0.769997
0.769999
0.769999
0.77
0.77
0.77
0.77
0.77
0.77
0.77
0.77
0.77
0.77
2.3192e-06
1.01377e-05
2.32983e-05
4.5384e-05
8.22762e-05
0.000143517
0.000244379
0.000408912
0.000674285
0.00109669
0.0017589
0.00277907
0.00431964
0.00659385
0.00986593
0.0144407
0.0206392
0.0287628
0.0390515
0.0516505
0.0665934
0.0838048
0.103119
0.124302
0.14708
0.171156
0.196228
0.221999
0.248186
0.274529
0.30079
0.326761
0.352261
0.377138
0.401271
0.424559
0.446926
0.468318
0.488698
0.508049
0.526365
0.543656
0.559938
0.575238
0.589587
0.603017
0.615572
0.627292
0.638221
0.6484
0.657873
0.666683
0.67487
0.682475
0.689536
0.69609
0.702172
0.707715
0.712798
0.717663
0.722186
0.726386
0.730293
0.734035
0.737608
0.741015
0.744259
0.74734
0.750256
0.753002
0.755573
0.757962
0.760158
0.762153
0.763933
0.765484
0.766791
0.767843
0.768638
0.769194
0.769553
0.769765
0.769882
0.769943
0.769973
0.769988
0.769994
0.769998
0.769999
0.77
0.77
0.77
0.77
0.77
0.77
0.77
0.77
0.77
0.77
0.77
2.3124e-06
1.01076e-05
2.3227e-05
4.52389e-05
8.19969e-05
0.000142991
0.000243395
0.000407081
0.000670906
0.00109053
0.00174783
0.00275961
0.00428629
0.00653832
0.00977652
0.014302
0.0204327
0.028468
0.0386486
0.0511226
0.0659287
0.0829982
0.102172
0.123224
0.145884
0.169862
0.194858
0.220577
0.246738
0.27308
0.299365
0.325382
0.350949
0.37591
0.40014
0.423537
0.446022
0.467535
0.48804
0.507514
0.525952
0.543361
0.559759
0.575167
0.589613
0.603135
0.615774
0.627569
0.638563
0.648801
0.658324
0.667176
0.675398
0.683032
0.690116
0.696687
0.702774
0.708297
0.713385
0.718263
0.722784
0.726946
0.73088
0.734625
0.738196
0.741597
0.744832
0.747898
0.750795
0.753517
0.75606
0.758416
0.76057
0.762522
0.764254
0.765754
0.767007
0.768004
0.76875
0.769265
0.769594
0.769787
0.769893
0.769948
0.769976
0.769989
0.769995
0.769998
0.769999
0.77
0.77
0.77
0.77
0.77
0.77
0.77
0.77
0.77
0.77
0.77
2.30024e-06
1.00538e-05
2.31007e-05
4.49853e-05
8.15187e-05
0.000142117
0.000241825
0.000404299
0.000666034
0.00108211
0.00173353
0.00273577
0.00424746
0.00647675
0.00968182
0.0141612
0.0202308
0.0281894
0.0382787
0.0506497
0.0653454
0.0823022
0.101366
0.122316
0.144886
0.168789
0.193729
0.219411
0.245556
0.271903
0.298212
0.324272
0.349898
0.374933
0.399249
0.422741
0.445328
0.466949
0.487563
0.507149
0.525696
0.543211
0.559705
0.575203
0.589736
0.603339
0.61605
0.627911
0.638963
0.64925
0.658815
0.667702
0.675953
0.683607
0.690706
0.697285
0.703382
0.708899
0.714003
0.71888
0.723394
0.727517
0.73145
0.735195
0.738762
0.742156
0.745378
0.748428
0.751304
0.754001
0.756514
0.758836
0.760949
0.76286
0.764547
0.765997
0.7672
0.768149
0.768849
0.769328
0.769631
0.769807
0.769904
0.769953
0.769978
0.76999
0.769995
0.769998
0.769999
0.77
0.77
0.77
0.77
0.77
0.77
0.77
0.77
0.77
0.77
0.77
2.28568e-06
9.98977e-06
2.29518e-05
4.46901e-05
8.09714e-05
0.000141136
0.000240104
0.000401323
0.000660955
0.00107356
0.00171935
0.00271269
0.00421066
0.0064195
0.00959521
0.0140342
0.0200511
0.0279442
0.0379565
0.0502417
0.0648467
0.0817123
0.100689
0.121559
0.14406
0.167908
0.192807
0.218467
0.244606
0.270963
0.297299
0.323401
0.349082
0.374183
0.398575
0.422151
0.444827
0.46654
0.487246
0.506925
0.525567
0.543171
0.559751
0.57533
0.589938
0.603609
0.616381
0.628296
0.639396
0.649724
0.659323
0.668238
0.676509
0.684178
0.691284
0.697865
0.703957
0.709426
0.714651
0.719497
0.723988
0.728077
0.731997
0.735732
0.73929
0.742672
0.74588
0.748912
0.751767
0.754439
0.756924
0.759214
0.761291
0.763166
0.764811
0.766215
0.767371
0.768274
0.768935
0.769383
0.769662
0.769824
0.769912
0.769958
0.76998
0.769991
0.769996
0.769998
0.769999
0.77
0.77
0.77
0.77
0.77
0.77
0.77
0.77
0.77
0.77
0.77
2.27032e-06
9.92238e-06
2.27957e-05
4.43821e-05
8.04037e-05
0.000140126
0.000238346
0.000398312
0.000655872
0.0010651
0.00170552
0.00269047
0.00417575
0.00636599
0.00951548
0.0139191
0.0198905
0.0277281
0.0376761
0.0498909
0.0644226
0.0812156
0.100124
0.120933
0.143383
0.167192
0.192065
0.217712
0.243853
0.270226
0.296591
0.322733
0.348466
0.373628
0.398088
0.421739
0.444493
0.466288
0.487078
0.506837
0.525553
0.54323
0.55988
0.575526
0.590196
0.603923
0.616745
0.628704
0.639842
0.650202
0.659828
0.668764
0.677051
0.684731
0.691846
0.698433
0.704503
0.709969
0.715199
0.720039
0.724519
0.728591
0.7325
0.736225
0.739772
0.743141
0.746333
0.749347
0.75218
0.754828
0.757285
0.759544
0.761588
0.763421
0.765028
0.766398
0.767516
0.768381
0.769008
0.769428
0.769689
0.769838
0.76992
0.769961
0.769982
0.769992
0.769996
0.769998
0.769999
0.77
0.77
0.77
0.77
0.77
0.77
0.77
0.77
0.77
0.77
0.77
2.25535e-06
9.85679e-06
2.26441e-05
4.40843e-05
7.98576e-05
0.00013916
0.000236676
0.000395473
0.000651118
0.00105727
0.00169281
0.00267026
0.00414429
0.00631823
0.00944496
0.0138182
0.0197509
0.0275417
0.0374364
0.0495934
0.0640658
0.0808012
0.0996561
0.120419
0.142832
0.166614
0.191472
0.217115
0.243263
0.269655
0.29605
0.322232
0.348012
0.373229
0.397749
0.421463
0.444284
0.466147
0.487007
0.506833
0.525616
0.543356
0.560066
0.575767
0.590487
0.60426
0.617123
0.629117
0.640284
0.650668
0.660314
0.669263
0.67756
0.685245
0.692359
0.69894
0.704984
0.710444
0.715668
0.720499
0.72497
0.729037
0.732943
0.736663
0.740201
0.743559
0.746737
0.749733
0.752545
0.755167
0.757594
0.759819
0.761825
0.763623
0.765198
0.766537
0.767632
0.768471
0.76907
0.769467
0.769711
0.769851
0.769926
0.769964
0.769983
0.769992
0.769996
0.769998
0.769999
0.77
0.77
0.77
0.77
0.77
0.77
0.77
0.77
0.77
0.77
0.77
2.24139e-06
9.79569e-06
2.25032e-05
4.3808e-05
7.93523e-05
0.00013827
0.000235142
0.000392877
0.000646794
0.00105018
0.00168139
0.00265222
0.0041164
0.00627619
0.00938336
0.0137307
0.0196308
0.0273827
0.0372334
0.0493434
0.0637684
0.0804584
0.0992725
0.120001
0.142388
0.166153
0.191002
0.216647
0.242808
0.269221
0.295646
0.321865
0.347689
0.372956
0.39753
0.421302
0.444182
0.466103
0.487018
0.5069
0.525738
0.54353
0.560288
0.576034
0.590795
0.604603
0.617498
0.629518
0.640708
0.651111
0.66077
0.669729
0.678032
0.68572
0.692834
0.699414
0.705443
0.710885
0.716096
0.720914
0.72537
0.729435
0.733337
0.737051
0.740581
0.743928
0.747093
0.750074
0.752867
0.755469
0.757872
0.76007
0.762064
0.763839
0.765383
0.766685
0.767738
0.768548
0.769124
0.769501
0.769731
0.769861
0.769931
0.769967
0.769984
0.769993
0.769997
0.769999
0.769999
0.77
0.77
0.77
0.77
0.77
0.77
0.77
0.77
0.77
0.77
0.77
2.2288e-06
9.7406e-06
2.23762e-05
4.35596e-05
7.88992e-05
0.000137473
0.000233775
0.000390571
0.000642969
0.00104394
0.00167138
0.00263648
0.00409222
0.00623994
0.00933054
0.0136561
0.019529
0.0272488
0.0370635
0.0491355
0.0635228
0.0801774
0.0989605
0.119664
0.142033
0.165787
0.190635
0.216286
0.24246
0.268895
0.295348
0.321602
0.347466
0.372775
0.397395
0.421216
0.444146
0.466116
0.487081
0.507011
0.525894
0.543729
0.560527
0.576309
0.591102
0.604939
0.617857
0.629899
0.641105
0.65152
0.661189
0.670154
0.67846
0.686148
0.693259
0.699833
0.705847
0.711277
0.716479
0.721283
0.725722
0.729787
0.733685
0.737392
0.740913
0.744248
0.747399
0.750363
0.753138
0.75572
0.758108
0.760295
0.762268
0.764019
0.765537
0.766812
0.767837
0.768614
0.769168
0.769529
0.769747
0.76987
0.769936
0.769969
0.769985
0.769993
0.769997
0.769999
0.769999
0.77
0.77
0.77
0.77
0.77
0.77
0.77
0.77
0.77
0.77
0.77
2.21771e-06
9.69213e-06
2.22647e-05
4.33416e-05
7.8502e-05
0.000136776
0.000232582
0.000388565
0.000639652
0.00103854
0.00166276
0.00262299
0.00407157
0.00620912
0.00928585
0.0135934
0.0194438
0.0271373
0.0369228
0.0489644
0.0633219
0.0799492
0.0987089
0.119394
0.141751
0.1655
0.19035
0.216009
0.242199
0.268656
0.295136
0.321421
0.34732
0.372669
0.39733
0.421192
0.444162
0.466174
0.48718
0.50715
0.52607
0.543939
0.560769
0.576579
0.591397
0.605256
0.618194
0.63025
0.641468
0.651893
0.661567
0.670535
0.678841
0.686527
0.693632
0.700196
0.706199
0.711623
0.716813
0.721605
0.726031
0.730096
0.733988
0.737689
0.741199
0.744523
0.747661
0.750614
0.753378
0.755952
0.758325
0.760492
0.762444
0.764173
0.765668
0.76692
0.767921
0.768676
0.769206
0.769553
0.769761
0.769877
0.769939
0.769971
0.769986
0.769994
0.769997
0.769999
0.769999
0.77
0.77
0.77
0.77
0.77
0.77
0.77
0.77
0.77
0.77
0.77
2.20815e-06
9.65036e-06
2.21686e-05
4.31541e-05
7.81609e-05
0.000136179
0.000231561
0.000386853
0.000636828
0.00103396
0.00165547
0.00261161
0.0040542
0.00618331
0.00924858
0.0135412
0.0193733
0.0270454
0.0368075
0.0488251
0.0631592
0.0797656
0.098508
0.119181
0.14153
0.165278
0.190131
0.215801
0.242006
0.268482
0.294986
0.3213
0.34723
0.372611
0.397307
0.421204
0.44421
0.466258
0.487297
0.507299
0.526249
0.544147
0.561002
0.576835
0.591673
0.605548
0.6185
0.630567
0.641794
0.652224
0.661902
0.670871
0.679175
0.686855
0.693954
0.700514
0.706508
0.711921
0.717101
0.721882
0.726294
0.730361
0.734249
0.737943
0.741446
0.744764
0.747897
0.750841
0.753595
0.756153
0.75851
0.76066
0.762594
0.764303
0.765779
0.76701
0.767991
0.768727
0.769241
0.769572
0.769772
0.769883
0.769942
0.769972
0.769987
0.769994
0.769997
0.769999
0.769999
0.77
0.77
0.77
0.77
0.77
0.77
0.77
0.77
0.77
0.77
0.77
2.20008e-06
9.6151e-06
2.20875e-05
4.2996e-05
7.78737e-05
0.000135677
0.000230704
0.000385418
0.000634465
0.00103014
0.0016494
0.00260216
0.00403984
0.00616202
0.00921793
0.0134985
0.0193158
0.0269708
0.0367143
0.0487129
0.0630291
0.0796196
0.0983493
0.119013
0.141359
0.165107
0.189966
0.215645
0.241865
0.268359
0.294885
0.321223
0.34718
0.372591
0.397315
0.421242
0.444277
0.466353
0.48742
0.507448
0.526423
0.544343
0.561218
0.577068
0.591921
0.60581
0.618772
0.630848
0.64208
0.652514
0.662193
0.67116
0.679461
0.687138
0.694236
0.700791
0.706774
0.712178
0.71735
0.722121
0.726512
0.730583
0.734469
0.738159
0.74166
0.744972
0.748097
0.751032
0.753774
0.75632
0.758664
0.7608
0.762719
0.764412
0.765871
0.767085
0.768049
0.768768
0.769268
0.769589
0.769781
0.769888
0.769945
0.769974
0.769988
0.769994
0.769997
0.769999
0.769999
0.77
0.77
0.77
0.77
0.77
0.77
0.77
0.77
0.77
0.77
0.77
2.19341e-06
9.58595e-06
2.20206e-05
4.28654e-05
7.76368e-05
0.000135263
0.000229999
0.00038424
0.000632529
0.00102701
0.00164444
0.00259447
0.00402817
0.00614477
0.00919317
0.0134641
0.0192697
0.0269112
0.0366401
0.048624
0.0629264
0.079505
0.0982257
0.118884
0.141228
0.164977
0.189842
0.215531
0.241764
0.268274
0.294819
0.321178
0.347157
0.372591
0.397339
0.42129
0.444351
0.46645
0.48754
0.507589
0.526583
0.54452
0.561411
0.577275
0.59214
0.606038
0.619007
0.631089
0.642325
0.652759
0.662437
0.671403
0.679704
0.687381
0.694474
0.701024
0.706997
0.712394
0.717558
0.722322
0.726692
0.73077
0.734653
0.73834
0.741837
0.745143
0.748261
0.751188
0.753922
0.756458
0.758791
0.760915
0.762822
0.764502
0.765947
0.767146
0.768096
0.768802
0.769291
0.769603
0.769789
0.769892
0.769947
0.769975
0.769988
0.769994
0.769998
0.769999
0.77
0.77
0.77
0.77
0.77
0.77
0.77
0.77
0.77
0.77
0.77
0.77
2.18804e-06
9.5625e-06
2.19667e-05
4.27605e-05
7.74465e-05
0.000134931
0.000229434
0.000383296
0.000630981
0.00102452
0.0016405
0.00258835
0.0040189
0.00613111
0.00917361
0.013437
0.0192334
0.0268644
0.0365822
0.0485549
0.062847
0.0794169
0.0981312
0.118786
0.141129
0.164881
0.189751
0.215449
0.241693
0.268217
0.294778
0.321154
0.347152
0.372605
0.397373
0.421344
0.444423
0.466541
0.487648
0.507714
0.526723
0.544673
0.561576
0.577451
0.592324
0.606229
0.619204
0.631288
0.642526
0.652962
0.662641
0.671609
0.679907
0.687581
0.69467
0.701215
0.707179
0.71257
0.717728
0.722485
0.726837
0.73092
0.7348
0.738486
0.741978
0.745281
0.748393
0.751314
0.754041
0.756569
0.758894
0.761008
0.762905
0.764575
0.766008
0.767196
0.768133
0.768829
0.769308
0.769614
0.769795
0.769896
0.769949
0.769975
0.769988
0.769995
0.769998
0.769999
0.77
0.77
0.77
0.77
0.77
0.77
0.77
0.77
0.77
0.77
0.77
0.77
2.18387e-06
9.54432e-06
2.1925e-05
4.26792e-05
7.72992e-05
0.000134674
0.000228997
0.000382568
0.000629787
0.00102259
0.00163746
0.00258365
0.0040118
0.00612066
0.00915867
0.0134163
0.0192058
0.026829
0.0365384
0.0485028
0.0627874
0.0793511
0.098061
0.118713
0.141056
0.164811
0.189686
0.215391
0.241644
0.26818
0.294753
0.321143
0.347155
0.372623
0.397407
0.421393
0.444487
0.466619
0.48774
0.507818
0.526838
0.544799
0.561711
0.577593
0.592472
0.606381
0.619359
0.631447
0.642687
0.653126
0.662805
0.671772
0.680068
0.687738
0.694824
0.701365
0.707324
0.712709
0.717862
0.722612
0.72695
0.731039
0.734918
0.7386
0.74209
0.745388
0.748496
0.751412
0.754133
0.756656
0.758974
0.761081
0.762969
0.764631
0.766056
0.767234
0.768163
0.76885
0.769322
0.769622
0.7698
0.769898
0.76995
0.769976
0.769989
0.769995
0.769998
0.769999
0.77
0.77
0.77
0.77
0.77
0.77
0.77
0.77
0.77
0.77
0.77
0.77
2.18084e-06
9.53104e-06
2.18945e-05
4.26199e-05
7.71917e-05
0.000134487
0.000228679
0.000382037
0.000628919
0.0010212
0.00163525
0.00258024
0.00400666
0.0061131
0.00914788
0.0134014
0.019186
0.0268036
0.036507
0.0484656
0.0627449
0.0793044
0.0980114
0.118662
0.141006
0.164763
0.189642
0.215352
0.241612
0.268156
0.294739
0.321139
0.347162
0.372641
0.397436
0.421433
0.444538
0.46668
0.487811
0.507898
0.526926
0.544894
0.561812
0.577699
0.592583
0.606497
0.619479
0.631569
0.642811
0.653249
0.662928
0.671893
0.680188
0.687856
0.694938
0.701476
0.707433
0.712814
0.717962
0.722708
0.727034
0.731125
0.735003
0.738683
0.742171
0.745467
0.748572
0.751485
0.754202
0.75672
0.759033
0.761134
0.763017
0.764672
0.76609
0.767262
0.768184
0.768865
0.769332
0.769628
0.769803
0.7699
0.769951
0.769977
0.769989
0.769995
0.769998
0.769999
0.77
0.77
0.77
0.77
0.77
0.77
0.77
0.77
0.77
0.77
0.77
0.77
2.17886e-06
9.5224e-06
2.18746e-05
4.25813e-05
7.71218e-05
0.000134365
0.000228472
0.000381693
0.000628356
0.00102029
0.00163383
0.00257804
0.00400334
0.00610822
0.00914093
0.0133918
0.0191732
0.0267872
0.0364869
0.0484418
0.0627178
0.0792747
0.09798
0.11863
0.140974
0.164733
0.189615
0.215329
0.241593
0.268143
0.294731
0.321138
0.347168
0.372654
0.397457
0.421461
0.444573
0.466722
0.487859
0.507951
0.526985
0.544958
0.561881
0.577772
0.592659
0.606576
0.619559
0.63165
0.642893
0.653331
0.663009
0.671973
0.680267
0.687933
0.695014
0.70155
0.707506
0.712883
0.718029
0.722773
0.727092
0.731181
0.735058
0.738738
0.742224
0.745519
0.748622
0.751532
0.754247
0.756762
0.759072
0.76117
0.763048
0.7647
0.766113
0.767281
0.768198
0.768875
0.769339
0.769632
0.769805
0.769901
0.769952
0.769977
0.769989
0.769995
0.769998
0.769999
0.77
0.77
0.77
0.77
0.77
0.77
0.77
0.77
0.77
0.77
0.77
0.77
2.1779e-06
9.51822e-06
2.18651e-05
4.25627e-05
7.70882e-05
0.000134307
0.000228373
0.000381529
0.000628088
0.00101986
0.00163315
0.002577
0.00400177
0.00610592
0.00913766
0.0133873
0.0191672
0.0267795
0.0364774
0.0484306
0.062705
0.0792607
0.0979651
0.118615
0.140959
0.164719
0.189602
0.215318
0.241585
0.268137
0.294728
0.321138
0.347172
0.372662
0.397468
0.421475
0.444591
0.466744
0.487884
0.507979
0.527016
0.544991
0.561916
0.577809
0.592697
0.606615
0.619599
0.631691
0.642933
0.653371
0.66305
0.672013
0.680306
0.687972
0.695052
0.701587
0.707541
0.712918
0.718063
0.722805
0.72712
0.731209
0.735086
0.738765
0.742251
0.745545
0.748647
0.751556
0.754269
0.756782
0.759091
0.761187
0.763064
0.764713
0.766124
0.767289
0.768205
0.768879
0.769342
0.769634
0.769807
0.769902
0.769952
0.769977
0.769989
0.769995
0.769998
0.769999
0.77
0.77
0.77
0.77
0.77
0.77
0.77
0.77
0.77
0.77
0.77
0.77
2.17791e-06
9.51827e-06
2.18652e-05
4.25629e-05
7.70886e-05
0.000134308
0.000228374
0.000381531
0.000628091
0.00101987
0.00163316
0.00257701
0.00400178
0.00610594
0.00913769
0.0133873
0.0191673
0.0267796
0.0364775
0.0484307
0.0627052
0.0792608
0.0979653
0.118615
0.140959
0.164719
0.189602
0.215318
0.241585
0.268137
0.294728
0.321138
0.347172
0.372662
0.397468
0.421476
0.444591
0.466744
0.487884
0.507979
0.527016
0.544991
0.561916
0.577809
0.592697
0.606615
0.619599
0.631691
0.642933
0.653371
0.66305
0.672013
0.680306
0.687972
0.695052
0.701587
0.707541
0.712918
0.718063
0.722805
0.72712
0.731209
0.735085
0.738765
0.742251
0.745545
0.748647
0.751556
0.754269
0.756782
0.759091
0.761187
0.763064
0.764713
0.766124
0.767289
0.768205
0.768879
0.769342
0.769634
0.769807
0.769902
0.769952
0.769977
0.769989
0.769995
0.769998
0.769999
0.77
0.77
0.77
0.77
0.77
0.77
0.77
0.77
0.77
0.77
0.77
0.77
2.17889e-06
9.52256e-06
2.1875e-05
4.2582e-05
7.7123e-05
0.000134367
0.000228475
0.000381699
0.000628365
0.00102031
0.00163385
0.00257807
0.00400338
0.00610828
0.00914102
0.0133919
0.0191734
0.0267874
0.0364871
0.0484421
0.0627181
0.0792751
0.0979804
0.118631
0.140975
0.164733
0.189615
0.215329
0.241594
0.268143
0.294732
0.321138
0.347169
0.372655
0.397457
0.421461
0.444573
0.466722
0.487859
0.507952
0.526986
0.544959
0.561881
0.577772
0.59266
0.606576
0.619559
0.631651
0.642893
0.653331
0.66301
0.671974
0.680267
0.687933
0.695014
0.70155
0.707506
0.712883
0.718029
0.722773
0.727092
0.731181
0.735058
0.738738
0.742224
0.745519
0.748622
0.751532
0.754247
0.756762
0.759072
0.76117
0.763048
0.7647
0.766113
0.767281
0.768198
0.768875
0.769339
0.769632
0.769805
0.769901
0.769952
0.769977
0.769989
0.769995
0.769998
0.769999
0.77
0.77
0.77
0.77
0.77
0.77
0.77
0.77
0.77
0.77
0.77
0.77
2.1809e-06
9.53131e-06
2.18951e-05
4.26211e-05
7.71938e-05
0.00013449
0.000228684
0.000382047
0.000628934
0.00102122
0.00163529
0.0025803
0.00400674
0.00611321
0.00914804
0.0134016
0.0191863
0.0268039
0.0365074
0.0484661
0.0627455
0.0793051
0.0980121
0.118663
0.141007
0.164764
0.189643
0.215353
0.241613
0.268157
0.294739
0.321139
0.347162
0.372641
0.397436
0.421433
0.444538
0.466681
0.487811
0.507898
0.526926
0.544894
0.561812
0.577699
0.592583
0.606497
0.619479
0.631569
0.642811
0.653249
0.662928
0.671893
0.680188
0.687856
0.694938
0.701476
0.707433
0.712814
0.717962
0.722708
0.727034
0.731125
0.735002
0.738683
0.742171
0.745467
0.748572
0.751485
0.754202
0.75672
0.759033
0.761134
0.763017
0.764672
0.76609
0.767262
0.768184
0.768865
0.769332
0.769628
0.769803
0.7699
0.769951
0.769977
0.769989
0.769995
0.769998
0.769999
0.77
0.77
0.77
0.77
0.77
0.77
0.77
0.77
0.77
0.77
0.77
0.77
2.18396e-06
9.54468e-06
2.19258e-05
4.26808e-05
7.7302e-05
0.000134679
0.000229005
0.000382581
0.000629808
0.00102263
0.00163751
0.00258372
0.00401191
0.00612081
0.00915888
0.0134166
0.0192062
0.0268295
0.0365389
0.0485035
0.0627881
0.079352
0.098062
0.118714
0.141058
0.164812
0.189688
0.215392
0.241645
0.268181
0.294754
0.321144
0.347156
0.372624
0.397408
0.421394
0.444488
0.46662
0.487741
0.507819
0.526839
0.5448
0.561712
0.577593
0.592472
0.606382
0.61936
0.631447
0.642688
0.653126
0.662806
0.671772
0.680068
0.687739
0.694824
0.701365
0.707324
0.712709
0.717861
0.722612
0.72695
0.731039
0.734917
0.7386
0.74209
0.745388
0.748496
0.751412
0.754133
0.756656
0.758974
0.761081
0.762969
0.764631
0.766056
0.767234
0.768163
0.76885
0.769322
0.769622
0.7698
0.769898
0.76995
0.769976
0.769989
0.769995
0.769998
0.769999
0.77
0.77
0.77
0.77
0.77
0.77
0.77
0.77
0.77
0.77
0.77
0.77
2.18814e-06
9.56296e-06
2.19678e-05
4.27625e-05
7.74501e-05
0.000134937
0.000229444
0.000383312
0.000631007
0.00102456
0.00164056
0.00258844
0.00401904
0.0061313
0.00917388
0.0134373
0.0192339
0.026865
0.0365829
0.0485558
0.0628479
0.079418
0.0981325
0.118787
0.14113
0.164882
0.189753
0.21545
0.241694
0.268219
0.294779
0.321155
0.347153
0.372606
0.397374
0.421345
0.444424
0.466542
0.487649
0.507714
0.526723
0.544674
0.561577
0.577451
0.592325
0.60623
0.619204
0.631288
0.642526
0.652962
0.662641
0.671609
0.679907
0.687581
0.69467
0.701215
0.707179
0.71257
0.717728
0.722485
0.726837
0.73092
0.7348
0.738486
0.741978
0.745281
0.748393
0.751314
0.754041
0.756569
0.758894
0.761008
0.762905
0.764575
0.766008
0.767196
0.768133
0.768829
0.769308
0.769614
0.769795
0.769896
0.769949
0.769975
0.769988
0.769995
0.769998
0.769999
0.77
0.77
0.77
0.77
0.77
0.77
0.77
0.77
0.77
0.77
0.77
0.77
2.19354e-06
9.58651e-06
2.20218e-05
4.28679e-05
7.76411e-05
0.00013527
0.000230011
0.000384259
0.00063256
0.00102706
0.00164452
0.00259458
0.00402833
0.006145
0.00919349
0.0134645
0.0192702
0.0269119
0.036641
0.048625
0.0629276
0.0795064
0.0982272
0.118886
0.141229
0.164979
0.189844
0.215533
0.241765
0.268276
0.294821
0.32118
0.347159
0.372592
0.397341
0.421292
0.444352
0.466451
0.487541
0.50759
0.526584
0.544521
0.561412
0.577276
0.59214
0.606038
0.619008
0.631089
0.642325
0.65276
0.662437
0.671404
0.679704
0.687381
0.694474
0.701024
0.706997
0.712393
0.717558
0.722322
0.726691
0.730769
0.734653
0.73834
0.741836
0.745143
0.748261
0.751188
0.753921
0.756458
0.758791
0.760915
0.762822
0.764502
0.765947
0.767146
0.768096
0.768802
0.769291
0.769603
0.769789
0.769892
0.769947
0.769975
0.769988
0.769994
0.769998
0.769999
0.77
0.77
0.77
0.77
0.77
0.77
0.77
0.77
0.77
0.77
0.77
0.77
2.20023e-06
9.61574e-06
2.2089e-05
4.29987e-05
7.78786e-05
0.000135685
0.000230718
0.000385441
0.000634502
0.0010302
0.00164949
0.00260229
0.00404003
0.00616229
0.0092183
0.013499
0.0193165
0.0269717
0.0367154
0.0487141
0.0630305
0.0796211
0.0983511
0.119015
0.141361
0.165109
0.189968
0.215647
0.241867
0.268361
0.294887
0.321225
0.347182
0.372592
0.397317
0.421243
0.444279
0.466355
0.487422
0.50745
0.526424
0.544344
0.561219
0.577069
0.591922
0.605811
0.618772
0.630848
0.64208
0.652514
0.662193
0.67116
0.679461
0.687138
0.694236
0.700791
0.706774
0.712178
0.71735
0.722121
0.726511
0.730583
0.734469
0.738159
0.74166
0.744972
0.748097
0.751031
0.753774
0.75632
0.758664
0.7608
0.762718
0.764412
0.765871
0.767085
0.768049
0.768768
0.769268
0.769589
0.769781
0.769888
0.769945
0.769974
0.769988
0.769994
0.769997
0.769999
0.769999
0.77
0.77
0.77
0.77
0.77
0.77
0.77
0.77
0.77
0.77
0.77
2.20832e-06
9.65108e-06
2.21702e-05
4.31572e-05
7.81665e-05
0.000136189
0.000231577
0.000386879
0.000636868
0.00103402
0.00165557
0.00261176
0.00405442
0.00618362
0.009249
0.0135418
0.0193741
0.0270464
0.0368087
0.0488265
0.0631609
0.0797674
0.09851
0.119183
0.141533
0.16528
0.190133
0.215803
0.242008
0.268484
0.294989
0.321302
0.347232
0.372614
0.39731
0.421206
0.444212
0.466259
0.487299
0.5073
0.52625
0.544148
0.561003
0.576836
0.591673
0.605549
0.6185
0.630568
0.641795
0.652224
0.661902
0.670871
0.679175
0.686855
0.693953
0.700514
0.706508
0.711921
0.717101
0.721882
0.726294
0.730361
0.734249
0.737943
0.741447
0.744766
0.747898
0.750841
0.753594
0.756152
0.758509
0.760659
0.762593
0.764303
0.765779
0.76701
0.767991
0.768727
0.769241
0.769572
0.769772
0.769883
0.769942
0.769972
0.769987
0.769994
0.769997
0.769999
0.769999
0.77
0.77
0.77
0.77
0.77
0.77
0.77
0.77
0.77
0.77
0.77
2.21789e-06
9.69292e-06
2.22665e-05
4.3345e-05
7.85081e-05
0.000136787
0.000232599
0.000388594
0.000639697
0.00103861
0.00166287
0.00262315
0.00407181
0.00620946
0.00928633
0.013594
0.0194447
0.0271383
0.0369241
0.048966
0.0633237
0.0799512
0.0987111
0.119397
0.141754
0.165503
0.190352
0.216012
0.242202
0.268658
0.295138
0.321423
0.347322
0.372671
0.397332
0.421193
0.444164
0.466176
0.487182
0.507151
0.526071
0.54394
0.56077
0.57658
0.591398
0.605257
0.618194
0.630251
0.641469
0.651893
0.661567
0.670535
0.678841
0.686527
0.693632
0.700196
0.706199
0.711622
0.716813
0.721605
0.726031
0.730096
0.733988
0.737688
0.741198
0.744521
0.747659
0.750612
0.753377
0.755948
0.758323
0.760491
0.762443
0.764172
0.765668
0.76692
0.767921
0.768676
0.769206
0.769553
0.769761
0.769877
0.769939
0.769971
0.769986
0.769994
0.769997
0.769999
0.769999
0.77
0.77
0.77
0.77
0.77
0.77
0.77
0.77
0.77
0.77
0.77
2.22899e-06
9.74146e-06
2.23782e-05
4.35634e-05
7.89058e-05
0.000137484
0.000233793
0.000390602
0.000643018
0.00104401
0.0016715
0.00263666
0.00409248
0.00624031
0.00933107
0.0136568
0.01953
0.02725
0.0370649
0.0491373
0.0635248
0.0801797
0.098963
0.119666
0.142036
0.16579
0.190638
0.216289
0.242464
0.268898
0.295352
0.321605
0.347469
0.372779
0.397399
0.421219
0.444149
0.466118
0.487083
0.507013
0.525896
0.543731
0.560529
0.57631
0.591103
0.60494
0.617858
0.6299
0.641106
0.651521
0.661189
0.670155
0.67846
0.686148
0.693259
0.699833
0.705847
0.711277
0.716479
0.721283
0.725722
0.729787
0.733685
0.737392
0.740913
0.744249
0.7474
0.750364
0.75314
0.755723
0.758108
0.760295
0.762268
0.764018
0.765537
0.766812
0.767837
0.768614
0.769168
0.769529
0.769747
0.76987
0.769936
0.769969
0.769985
0.769993
0.769997
0.769999
0.769999
0.77
0.77
0.77
0.77
0.77
0.77
0.77
0.77
0.77
0.77
0.77
2.2416e-06
9.79661e-06
2.25052e-05
4.3812e-05
7.93594e-05
0.000138282
0.000235162
0.00039291
0.000646847
0.00105026
0.00168152
0.00265241
0.00411669
0.0062766
0.00938393
0.0137315
0.0196318
0.027384
0.037235
0.0493453
0.0637706
0.0804609
0.0992753
0.120004
0.142391
0.166156
0.191006
0.216651
0.242811
0.269225
0.295649
0.321868
0.347692
0.372958
0.397532
0.421303
0.444183
0.466105
0.48702
0.506902
0.525739
0.543532
0.56029
0.576036
0.590796
0.604604
0.617499
0.629519
0.640709
0.651111
0.66077
0.66973
0.678032
0.68572
0.692834
0.699414
0.705443
0.710885
0.716096
0.720914
0.72537
0.729435
0.733337
0.73705
0.740579
0.743926
0.747091
0.750071
0.752864
0.755466
0.75787
0.76007
0.762065
0.763839
0.765383
0.766685
0.767738
0.768548
0.769124
0.769501
0.769731
0.769861
0.769931
0.769967
0.769984
0.769993
0.769997
0.769999
0.769999
0.77
0.77
0.77
0.77
0.77
0.77
0.77
0.77
0.77
0.77
0.77
2.25557e-06
9.85776e-06
2.26463e-05
4.40885e-05
7.98651e-05
0.000139173
0.000236697
0.000395507
0.000651174
0.00105736
0.00169295
0.00267047
0.0041446
0.00631866
0.00944557
0.013819
0.019752
0.0275432
0.0374381
0.0495954
0.0640682
0.0808039
0.0996591
0.120422
0.142836
0.166618
0.191475
0.217118
0.243267
0.269659
0.296054
0.322236
0.348016
0.373233
0.397753
0.421467
0.444289
0.466152
0.487011
0.506836
0.525618
0.543358
0.560068
0.575769
0.590489
0.604261
0.617124
0.629118
0.640285
0.650669
0.660314
0.669264
0.67756
0.685245
0.692359
0.69894
0.704984
0.710444
0.715668
0.720499
0.72497
0.729037
0.732943
0.736664
0.740202
0.74356
0.746738
0.749735
0.752547
0.755171
0.757598
0.759822
0.761826
0.763623
0.765197
0.766537
0.767632
0.768471
0.76907
0.769467
0.769711
0.769851
0.769926
0.769964
0.769983
0.769992
0.769996
0.769998
0.769999
0.77
0.77
0.77
0.77
0.77
0.77
0.77
0.77
0.77
0.77
0.77
2.27056e-06
9.92339e-06
2.27979e-05
4.43865e-05
8.04115e-05
0.00014014
0.000238368
0.000398348
0.00065593
0.0010652
0.00170566
0.00269069
0.00417607
0.00636645
0.00951613
0.01392
0.0198917
0.0277296
0.037678
0.0498931
0.0644252
0.0812186
0.100127
0.120936
0.143387
0.167196
0.192069
0.217716
0.243857
0.27023
0.296595
0.322737
0.34847
0.373632
0.398092
0.421742
0.444495
0.466289
0.487078
0.506839
0.525555
0.543232
0.559882
0.575528
0.590197
0.603924
0.616747
0.628706
0.639843
0.650203
0.659829
0.668764
0.677052
0.684732
0.691846
0.698434
0.704503
0.709969
0.715199
0.720039
0.724519
0.728591
0.7325
0.736225
0.739772
0.743141
0.746333
0.749347
0.75218
0.754827
0.757283
0.759541
0.761584
0.763417
0.765026
0.766397
0.767515
0.768381
0.769008
0.769428
0.769689
0.769838