/*--------------------------------*- C++ -*----------------------------------*\
  =========                 |
  \\      /  F ield         | OpenFOAM: The Open Source CFD Toolbox
   \\    /   O peration     | Website:  https://openfoam.org
    \\  /    A nd           | Version:  8
     \\/     M anipulation  |
\*---------------------------------------------------------------------------*/
FoamFile
{
    version     2.0;
    format      ascii;
    class       volScalarField;
    location    "720/fluid";
    object      O2;
}
// * * * * * * * * * * * * * * * * * * * * * * * * * * * * * * * * * * * * * //

dimensions      [0 0 0 0 0 0 0];

internalField   nonuniform List<scalar> 
4000
(
4.57214e-10
1.99635e-09
4.57693e-09
8.88333e-09
1.60289e-08
2.78038e-08
4.70464e-08
7.8182e-08
1.27974e-07
2.06509e-07
3.28399e-07
5.14056e-07
7.90784e-07
1.19331e-06
1.76226e-06
2.54072e-06
3.56835e-06
4.87402e-06
6.46897e-06
8.34287e-06
1.04642e-05
1.27844e-05
1.52436e-05
1.77771e-05
2.032e-05
2.28111e-05
2.51954e-05
2.74248e-05
2.946e-05
3.12705e-05
3.28368e-05
3.41536e-05
3.52356e-05
3.61284e-05
3.69208e-05
3.77593e-05
3.88606e-05
4.05219e-05
4.31313e-05
4.71844e-05
5.33134e-05
6.23311e-05
7.52909e-05
9.35632e-05
0.000118937
0.000153752
0.000201082
0.000264835
0.000350479
0.000464989
0.000617545
0.000820207
0.0010888
0.0014441
0.0019133
0.00253213
0.00334745
0.0044064
0.00578241
0.00764056
0.0100856
0.0133106
0.018417
0.0348644
0.0515141
0.0681077
0.0844439
0.100364
0.115742
0.130473
0.144469
0.157652
0.169947
0.181224
0.191525
0.200688
0.208616
0.215212
0.220403
0.224199
0.226739
0.228287
0.229151
0.229596
0.229814
0.229916
0.229963
0.229984
0.229993
0.229997
0.229999
0.229999
0.23
0.23
0.23
0.23
0.23
0.23
0.23
0.23
4.64566e-10
2.02987e-09
4.65944e-09
9.05784e-09
1.63739e-08
2.84571e-08
4.82417e-08
8.03011e-08
1.31615e-07
2.12566e-07
3.38118e-07
5.28977e-07
8.12223e-07
1.22398e-06
1.80507e-06
2.5989e-06
3.64572e-06
4.9753e-06
6.6001e-06
8.51115e-06
1.06781e-05
1.30528e-05
1.55753e-05
1.818e-05
2.08004e-05
2.33733e-05
2.58413e-05
2.81543e-05
3.02705e-05
3.21578e-05
3.37949e-05
3.51755e-05
3.63143e-05
3.72577e-05
3.80976e-05
3.89866e-05
4.01504e-05
4.18988e-05
4.46348e-05
4.88705e-05
5.52545e-05
6.46154e-05
7.80204e-05
9.6851e-05
0.000122904
0.000158529
0.000206601
0.000271533
0.000358483
0.000474454
0.000628642
0.000833118
0.00110372
0.00146121
0.00193282
0.00255432
0.00337269
0.0044347
0.00581445
0.00767896
0.0101332
0.0133713
0.0197444
0.0362941
0.0530252
0.069685
0.0860757
0.10204
0.117451
0.132204
0.146208
0.159383
0.171649
0.182868
0.193077
0.202105
0.209852
0.216221
0.221159
0.224706
0.22704
0.228444
0.229224
0.229628
0.229826
0.229921
0.229965
0.229984
0.229993
0.229997
0.229999
0.229999
0.23
0.23
0.23
0.23
0.23
0.23
0.23
0.23
4.74357e-10
2.07276e-09
4.75827e-09
9.24905e-09
1.67218e-08
2.90659e-08
4.92763e-08
8.20174e-08
1.34405e-07
2.1704e-07
3.45276e-07
5.40651e-07
8.3231e-07
1.25462e-06
1.84936e-06
2.66105e-06
3.73125e-06
5.09128e-06
6.75533e-06
8.71618e-06
1.09448e-05
1.3394e-05
1.60039e-05
1.87078e-05
2.1438e-05
2.4129e-05
2.67206e-05
2.91599e-05
3.14022e-05
3.34125e-05
3.51671e-05
3.66577e-05
3.78982e-05
3.8936e-05
3.98673e-05
4.08531e-05
4.21333e-05
4.40366e-05
4.69897e-05
5.15305e-05
5.83352e-05
6.82599e-05
8.23991e-05
0.000102164
0.000129344
0.000166161
0.00021591
0.000282689
0.000371827
0.000490342
0.000647459
0.000855284
0.0011297
0.00149152
0.0019681
0.00259534
0.00342053
0.00448964
0.00587885
0.00775715
0.01023
0.0134998
0.0220762
0.0386993
0.0554968
0.0722097
0.088636
0.104615
0.120019
0.134738
0.148679
0.161758
0.173891
0.184959
0.19495
0.203718
0.21117
0.217227
0.221863
0.225151
0.227294
0.228576
0.229287
0.229657
0.229839
0.229926
0.229967
0.229985
0.229994
0.229997
0.229999
0.23
0.23
0.23
0.23
0.23
0.23
0.23
0.23
0.23
4.85216e-10
2.12069e-09
4.87159e-09
9.48229e-09
1.71591e-08
2.98456e-08
5.06193e-08
8.42654e-08
1.38069e-07
2.22847e-07
3.5419e-07
5.53784e-07
8.50491e-07
1.28068e-06
1.88711e-06
2.71567e-06
3.80966e-06
5.2025e-06
6.91061e-06
8.92883e-06
1.12297e-05
1.37668e-05
1.64801e-05
1.93019e-05
2.21626e-05
2.49944e-05
2.77343e-05
3.03263e-05
3.27227e-05
3.48852e-05
3.67873e-05
3.84186e-05
3.97919e-05
4.09561e-05
4.20128e-05
4.31335e-05
4.45754e-05
4.66913e-05
4.99368e-05
5.48822e-05
6.22367e-05
7.28885e-05
8.7964e-05
0.000108852
0.000137305
0.000175863
0.000227946
0.000297416
0.000389712
0.000511958
0.000673487
0.000886531
0.00116712
0.0015363
0.00202166
0.0026595
0.00349763
0.00457985
0.0059855
0.00788873
0.0103986
0.0137158
0.0249762
0.0416215
0.0584445
0.0751741
0.0915993
0.107554
0.122904
0.137538
0.151362
0.164286
0.176227
0.187106
0.196834
0.205315
0.212461
0.218209
0.222554
0.225597
0.227555
0.228716
0.229357
0.22969
0.229854
0.229933
0.22997
0.229987
0.229994
0.229997
0.229999
0.23
0.23
0.23
0.23
0.23
0.23
0.23
0.23
0.23
4.95781e-10
2.16698e-09
4.9777e-09
9.68556e-09
1.75244e-08
3.04777e-08
5.16852e-08
8.60274e-08
1.40933e-07
2.2743e-07
3.61423e-07
5.65046e-07
8.6781e-07
1.307e-06
1.92661e-06
2.77412e-06
3.89482e-06
5.3244e-06
7.08169e-06
9.16371e-06
1.15447e-05
1.41791e-05
1.70067e-05
1.99592e-05
2.29649e-05
2.59537e-05
2.88598e-05
3.1624e-05
3.41951e-05
3.65318e-05
3.86045e-05
4.04002e-05
4.1931e-05
4.3248e-05
4.44592e-05
4.57492e-05
4.73961e-05
4.9781e-05
5.3394e-05
5.88441e-05
6.68834e-05
7.8429e-05
9.45745e-05
0.000116781
0.000147055
0.00018813
0.000242982
0.00031586
0.000412326
0.000539663
0.000707408
0.00092805
0.00121794
0.00159853
0.00209795
0.00275321
0.00361115
0.00471318
0.00615009
0.00809801
0.0106627
0.0140314
0.0280269
0.0446479
0.061473
0.0782022
0.0946088
0.110518
0.125793
0.14032
0.154003
0.166756
0.178473
0.189124
0.198592
0.20679
0.21364
0.219093
0.223166
0.225985
0.22778
0.228837
0.229417
0.229718
0.229867
0.229939
0.229972
0.229988
0.229995
0.229998
0.229999
0.23
0.23
0.23
0.23
0.23
0.23
0.23
0.23
0.23
5.04846e-10
2.20644e-09
5.06778e-09
9.85948e-09
1.78369e-08
3.10185e-08
5.25992e-08
8.75474e-08
1.43428e-07
2.31483e-07
3.67936e-07
5.75407e-07
8.84119e-07
1.33238e-06
1.9656e-06
2.83311e-06
3.98249e-06
5.45205e-06
7.26327e-06
9.41551e-06
1.18848e-05
1.46262e-05
1.75797e-05
2.06757e-05
2.38409e-05
2.70026e-05
3.00921e-05
3.30468e-05
3.58121e-05
3.83433e-05
4.06075e-05
4.25895e-05
4.43008e-05
4.57951e-05
4.71891e-05
4.86827e-05
5.05784e-05
5.32891e-05
5.73418e-05
6.33831e-05
7.219e-05
8.46611e-05
0.000102013
0.000126049
0.000158784
0.000202577
0.000260814
0.000337912
0.000439646
0.000573567
0.000749558
0.000980546
0.00128344
0.00168035
0.00220024
0.002881
0.0037716
0.00491144
0.00639789
0.00839948
0.0110193
0.0144113
0.0305575
0.04731
0.0642323
0.0810141
0.097428
0.113302
0.128502
0.14292
0.156461
0.169043
0.180542
0.190974
0.200193
0.208123
0.214697
0.219881
0.22371
0.22633
0.227981
0.228946
0.229473
0.229745
0.22988
0.229944
0.229975
0.229989
0.229995
0.229998
0.229999
0.23
0.23
0.23
0.23
0.23
0.23
0.23
0.23
0.23
5.13158e-10
2.24269e-09
5.1508e-09
1.00207e-08
1.81286e-08
3.15272e-08
5.34675e-08
8.90075e-08
1.45856e-07
2.35478e-07
3.74446e-07
5.85906e-07
9.0086e-07
1.35873e-06
2.00649e-06
2.89548e-06
4.0758e-06
5.58857e-06
7.45814e-06
9.68646e-06
1.22514e-05
1.51091e-05
1.81994e-05
2.14517e-05
2.47908e-05
2.81415e-05
3.14319e-05
3.45962e-05
3.7576e-05
4.03229e-05
4.28007e-05
4.49917e-05
4.6907e-05
4.86042e-05
5.02104e-05
5.19446e-05
5.41375e-05
5.72409e-05
6.18291e-05
6.85612e-05
7.81889e-05
9.18159e-05
0.000110957
0.000137034
0.000172143
0.000218982
0.000281082
0.000363068
0.000470997
0.00061281
0.000798912
0.00104293
0.00136273
0.00178169
0.00233043
0.00304901
0.00399003
0.00518471
0.00679568
0.00890371
0.0116576
0.0151812
0.0321737
0.0494069
0.0665962
0.0835117
0.0999703
0.115826
0.130959
0.145271
0.158678
0.1711
0.182411
0.192646
0.201637
0.209316
0.21563
0.220568
0.22418
0.226626
0.228153
0.229038
0.22952
0.229768
0.229891
0.229949
0.229977
0.22999
0.229995
0.229998
0.229999
0.23
0.23
0.23
0.23
0.23
0.23
0.23
0.23
0.23
5.21091e-10
2.27733e-09
5.23029e-09
1.01755e-08
1.84097e-08
3.20195e-08
5.43119e-08
9.04361e-08
1.48247e-07
2.39445e-07
3.80965e-07
5.96515e-07
9.17933e-07
1.38586e-06
2.04893e-06
2.96074e-06
4.17408e-06
5.73315e-06
7.66544e-06
9.97566e-06
1.26438e-05
1.5627e-05
1.88653e-05
2.22872e-05
2.58154e-05
2.93724e-05
3.2883e-05
3.62778e-05
3.94945e-05
4.24807e-05
4.51967e-05
4.76221e-05
4.97678e-05
5.1696e-05
5.35455e-05
5.55562e-05
5.80873e-05
6.16271e-05
6.67597e-05
7.41595e-05
8.48113e-05
9.99652e-05
0.000120782
0.000148963
0.000186696
0.000236817
0.000303034
0.000390205
0.000504709
0.000654922
0.000851863
0.00111004
0.00144857
0.00189276
0.00247612
0.00324329
0.00424945
0.00554
0.00730001
0.00963201
0.0127379
0.0168218
0.0341019
0.0515407
0.0688564
0.085831
0.102293
0.118107
0.133161
0.147363
0.160632
0.172893
0.184029
0.194041
0.202828
0.210313
0.216425
0.221154
0.22458
0.226877
0.228299
0.229117
0.22956
0.229788
0.2299
0.229954
0.229979
0.229991
0.229996
0.229998
0.229999
0.23
0.23
0.23
0.23
0.23
0.23
0.23
0.23
0.23
5.28865e-10
2.3113e-09
5.3084e-09
1.0328e-08
1.86874e-08
3.25078e-08
5.51533e-08
9.18672e-08
1.50657e-07
2.43466e-07
3.87615e-07
6.07406e-07
9.35567e-07
1.41403e-06
2.09324e-06
3.02915e-06
4.27749e-06
5.88575e-06
7.8848e-06
1.02824e-05
1.30609e-05
1.6179e-05
1.95766e-05
2.31817e-05
2.69153e-05
3.06972e-05
3.44491e-05
3.80977e-05
4.15769e-05
4.48298e-05
4.78128e-05
5.05028e-05
5.29106e-05
5.51038e-05
5.72364e-05
5.95738e-05
6.25038e-05
6.65087e-05
7.22005e-05
8.04649e-05
9.23913e-05
0.000108937
0.000131499
0.000161846
0.000202251
0.000255662
0.000325935
0.000418115
0.000538824
0.000696757
0.000903343
0.00117363
0.00152744
0.00199096
0.00259886
0.00339715
0.00444108
0.0057858
0.00761989
0.0100496
0.0132864
0.018629
0.0360748
0.0536178
0.0709871
0.0879718
0.104406
0.120158
0.13512
0.1492
0.162318
0.174397
0.185328
0.195151
0.203756
0.211075
0.217061
0.221646
0.224919
0.22709
0.228423
0.229184
0.229595
0.229805
0.229908
0.229957
0.229981
0.229991
0.229996
0.229998
0.229999
0.23
0.23
0.23
0.23
0.23
0.23
0.23
0.23
0.23
5.36552e-10
2.3449e-09
5.38574e-09
1.04792e-08
1.89635e-08
3.29946e-08
5.59948e-08
9.33035e-08
1.53085e-07
2.47536e-07
3.94378e-07
6.18531e-07
9.53663e-07
1.44307e-06
2.1391e-06
3.10022e-06
4.38527e-06
6.04529e-06
8.11481e-06
1.0605e-05
1.35008e-05
1.67626e-05
2.03311e-05
2.41335e-05
2.80895e-05
3.21164e-05
3.61329e-05
4.00618e-05
4.38328e-05
4.73846e-05
5.06693e-05
5.36604e-05
5.63685e-05
5.88669e-05
6.13236e-05
6.40263e-05
6.73651e-05
7.18725e-05
7.83227e-05
8.76944e-05
0.000100802
0.000118818
0.000143187
0.000175735
0.000218804
0.000275433
0.000349583
0.000446429
0.000572747
0.000737409
0.00095205
0.00123194
0.00159713
0.00207402
0.0026974
0.00351323
0.00457295
0.00593015
0.00777253
0.0101952
0.0133891
0.0205423
0.0380282
0.0555904
0.072958
0.0899187
0.106307
0.121992
0.136866
0.150839
0.16383
0.175767
0.18664
0.196333
0.204772
0.21189
0.217639
0.222066
0.225212
0.227273
0.228528
0.229241
0.229624
0.229819
0.229915
0.229961
0.229982
0.229992
0.229996
0.229998
0.229999
0.23
0.23
0.23
0.23
0.23
0.23
0.23
0.23
0.23
5.44146e-10
2.37812e-09
5.46226e-09
1.0629e-08
1.92375e-08
3.34788e-08
5.68341e-08
9.47404e-08
1.55522e-07
2.51635e-07
4.01214e-07
6.2982e-07
9.7209e-07
1.47274e-06
2.18611e-06
3.1733e-06
4.49643e-06
6.21032e-06
8.35344e-06
1.09407e-05
1.396e-05
1.7374e-05
2.11244e-05
2.51383e-05
2.93343e-05
3.36276e-05
3.79339e-05
4.21727e-05
4.62692e-05
5.01578e-05
5.3786e-05
5.71244e-05
6.01842e-05
6.30469e-05
6.59011e-05
6.90138e-05
7.28082e-05
7.79823e-05
8.54167e-05
9.58213e-05
0.000110206
0.00012978
0.000156029
0.000190828
0.000236579
0.000296391
0.000374304
0.000475584
0.000607101
0.000777827
0.000999488
0.00128742
0.0016617
0.00214866
0.00278288
0.00360971
0.0046782
0.00604295
0.00789067
0.0103113
0.0134934
0.022359
0.039848
0.0573963
0.074732
0.0916439
0.107963
0.123564
0.138343
0.152213
0.165122
0.177003
0.187759
0.197322
0.205618
0.212586
0.218186
0.222431
0.225456
0.227428
0.228617
0.229289
0.229648
0.229831
0.22992
0.229963
0.229983
0.229993
0.229997
0.229999
0.229999
0.23
0.23
0.23
0.23
0.23
0.23
0.23
0.23
0.23
5.51582e-10
2.41065e-09
5.53725e-09
1.0776e-08
1.95067e-08
3.39554e-08
5.76622e-08
9.61617e-08
1.5794e-07
2.55714e-07
4.08036e-07
6.41118e-07
9.9059e-07
1.50262e-06
2.2336e-06
3.24735e-06
4.60943e-06
6.37863e-06
8.59764e-06
1.12854e-05
1.44335e-05
1.80071e-05
2.19495e-05
2.61883e-05
3.06417e-05
3.52232e-05
3.98462e-05
4.4427e-05
4.88868e-05
5.31556e-05
5.71766e-05
6.0917e-05
6.43885e-05
6.76802e-05
7.09688e-05
7.45509e-05
7.89956e-05
8.50916e-05
9.34685e-05
0.000105024
0.000120801
0.000142042
0.000170271
0.000207409
0.000255915
0.000318956
0.000400642
0.000506312
0.00064291
0.000819476
0.00104779
0.00134322
0.00172583
0.00222184
0.00286534
0.00370129
0.00477858
0.006152
0.00800553
0.0104279
0.0136051
0.0239636
0.041456
0.0589875
0.0762841
0.0931368
0.109392
0.124935
0.13966
0.153486
0.166317
0.178086
0.188728
0.19817
0.206339
0.213176
0.218646
0.22277
0.225664
0.227557
0.228692
0.22933
0.229669
0.229841
0.229925
0.229965
0.229984
0.229993
0.229997
0.229999
0.229999
0.23
0.23
0.23
0.23
0.23
0.23
0.23
0.23
0.23
5.58752e-10
2.44203e-09
5.60963e-09
1.0918e-08
1.97671e-08
3.44173e-08
5.84661e-08
9.75447e-08
1.60298e-07
2.59702e-07
4.14724e-07
6.52228e-07
1.00883e-06
1.53218e-06
2.28071e-06
3.32106e-06
4.72228e-06
6.5473e-06
8.84332e-06
1.16337e-05
1.49141e-05
1.86527e-05
2.27953e-05
2.72707e-05
3.19973e-05
3.68881e-05
4.18547e-05
4.68107e-05
5.16744e-05
5.63716e-05
6.0842e-05
6.50509e-05
6.90132e-05
7.28175e-05
7.66123e-05
8.08549e-05
8.61992e-05
9.31927e-05
0.000102646
0.000115487
0.000132786
0.00015582
0.000186153
0.000225754
0.000277132
0.000343517
0.000429084
0.000539238
0.000680994
0.000863453
0.00109845
0.00140137
0.00179215
0.00229655
0.00294898
0.00379514
0.004882
0.00626303
0.00812229
0.0105457
0.0137159
0.025342
0.0428452
0.0603651
0.0776326
0.094461
0.110692
0.126189
0.140849
0.154589
0.167332
0.179008
0.189552
0.198888
0.206947
0.213671
0.219029
0.223048
0.225853
0.227663
0.228753
0.229363
0.229686
0.229849
0.229929
0.229967
0.229985
0.229993
0.229997
0.229999
0.229999
0.23
0.23
0.23
0.23
0.23
0.23
0.23
0.23
0.23
5.65521e-10
2.47166e-09
5.67801e-09
1.10523e-08
2.00136e-08
3.48552e-08
5.92296e-08
9.88607e-08
1.62547e-07
2.63514e-07
4.21134e-07
6.62904e-07
1.02641e-06
1.56074e-06
2.32639e-06
3.39275e-06
4.83244e-06
6.71262e-06
9.08514e-06
1.19781e-05
1.53916e-05
1.92979e-05
2.36456e-05
2.83659e-05
3.33783e-05
3.85963e-05
4.3931e-05
4.92946e-05
5.46027e-05
5.97781e-05
6.47569e-05
6.95024e-05
7.40322e-05
7.84209e-05
8.29814e-05
8.81157e-05
9.43506e-05
0.000102393
0.000113074
0.000127346
0.00014631
0.000171276
0.000203851
0.000246052
0.000300444
0.000370319
0.000459915
0.000574706
0.000721771
0.000910283
0.00115205
0.00146226
0.001861
0.0023746
0.00303763
0.00389393
0.00498915
0.00637772
0.00824261
0.0106669
0.0138209
0.0265026
0.0440276
0.0615448
0.0788086
0.0956109
0.111796
0.12724
0.141841
0.155514
0.168184
0.179781
0.190241
0.199489
0.207455
0.214083
0.219345
0.223275
0.226005
0.227758
0.228803
0.229389
0.2297
0.229856
0.229932
0.229969
0.229986
0.229994
0.229997
0.229999
0.229999
0.23
0.23
0.23
0.23
0.23
0.23
0.23
0.23
0.23
5.71734e-10
2.49886e-09
5.74081e-09
1.11757e-08
2.02405e-08
3.52586e-08
5.99342e-08
1.00077e-07
1.6463e-07
2.67054e-07
4.271e-07
6.72865e-07
1.04286e-06
1.58754e-06
2.36938e-06
3.46048e-06
4.93691e-06
6.87003e-06
9.31644e-06
1.23092e-05
1.58533e-05
1.99253e-05
2.4478e-05
2.94455e-05
3.47501e-05
4.03072e-05
4.60288e-05
5.18276e-05
5.76184e-05
6.33226e-05
6.88738e-05
7.42339e-05
7.94141e-05
8.45049e-05
8.99299e-05
9.61018e-05
0.000103451
0.000112731
0.000124806
0.000140661
0.000161429
0.00018846
0.000223409
0.000268342
0.000325883
0.000399384
0.000493155
0.000612715
0.000765157
0.000959558
0.00120783
0.0015255
0.00193301
0.00245635
0.00312886
0.0039947
0.00509811
0.00649369
0.00836319
0.010787
0.013923
0.0274731
0.0450228
0.0625448
0.0797907
0.0965645
0.112712
0.128111
0.142662
0.156278
0.168887
0.180419
0.190811
0.199985
0.207873
0.214421
0.219604
0.22346
0.226128
0.227834
0.228847
0.229411
0.22971
0.229861
0.229935
0.22997
0.229986
0.229994
0.229997
0.229999
0.229999
0.23
0.23
0.23
0.23
0.23
0.23
0.23
0.23
0.23
5.77229e-10
2.52292e-09
5.79638e-09
1.1285e-08
2.04415e-08
3.56166e-08
6.05604e-08
1.0116e-07
1.66488e-07
2.70218e-07
4.32444e-07
6.81808e-07
1.05767e-06
1.61174e-06
2.40833e-06
3.52203e-06
5.03221e-06
7.01425e-06
9.52934e-06
1.26156e-05
1.62829e-05
2.05128e-05
2.52627e-05
3.0471e-05
3.60639e-05
4.19603e-05
4.80758e-05
5.43255e-05
6.06271e-05
6.69038e-05
7.30913e-05
7.91546e-05
8.51096e-05
9.12158e-05
9.76961e-05
0.00010495
0.000113523
0.000124169
0.000137767
0.000155324
0.000178007
0.00020721
0.000244637
0.000292405
0.000353187
0.000430381
0.000528312
0.000652504
0.000810167
0.00101061
0.00126606
0.00159194
0.00200785
0.00253966
0.0032209
0.00409528
0.00520572
0.00660662
0.00847838
0.0108985
0.0140137
0.0282543
0.0458282
0.0633563
0.0805909
0.0973418
0.113458
0.12882
0.143328
0.156899
0.169458
0.180936
0.191271
0.200385
0.20821
0.214693
0.219811
0.223608
0.226225
0.227894
0.228881
0.22943
0.22972
0.229866
0.229937
0.229971
0.229987
0.229994
0.229997
0.229999
0.23
0.23
0.23
0.23
0.23
0.23
0.23
0.23
0.23
0.23
5.81848e-10
2.54314e-09
5.84312e-09
1.13769e-08
2.06108e-08
3.59184e-08
6.10888e-08
1.02076e-07
1.68061e-07
2.72901e-07
4.36985e-07
6.89427e-07
1.07032e-06
1.63247e-06
2.44178e-06
3.57508e-06
5.11464e-06
7.13949e-06
9.71508e-06
1.28842e-05
1.66616e-05
2.1034e-05
2.59636e-05
3.13939e-05
3.72562e-05
4.34744e-05
4.99698e-05
5.66633e-05
6.34793e-05
7.03488e-05
7.7218e-05
8.40685e-05
9.09383e-05
9.80346e-05
0.00010569
0.00011424
0.0001242
0.000136343
0.000151565
0.000170902
0.000195557
0.000226962
0.000266859
0.000317413
0.000381332
0.00046208
0.000564066
0.000693141
0.000856518
0.00106352
0.00132583
0.00165886
0.00208236
0.00262195
0.00331076
0.00419189
0.00530715
0.00671012
0.00858006
0.0109928
0.0140897
0.0288932
0.0464818
0.0640078
0.0812297
0.0979599
0.11405
0.12938
0.143854
0.157387
0.169905
0.181341
0.191632
0.200698
0.208473
0.214905
0.219973
0.223723
0.226301
0.227939
0.228907
0.229444
0.229727
0.229869
0.229939
0.229972
0.229987
0.229994
0.229997
0.229999
0.23
0.23
0.23
0.23
0.23
0.23
0.23
0.23
0.23
0.23
5.85445e-10
2.5589e-09
5.87953e-09
1.14486e-08
2.07429e-08
3.6154e-08
6.15019e-08
1.02792e-07
1.69294e-07
2.75007e-07
4.40557e-07
6.95431e-07
1.0803e-06
1.64887e-06
2.46833e-06
3.61731e-06
5.18049e-06
7.23992e-06
9.86462e-06
1.31014e-05
1.69695e-05
2.14601e-05
2.65401e-05
3.21581e-05
3.82508e-05
4.47479e-05
5.15769e-05
5.86663e-05
6.59481e-05
7.33625e-05
8.08658e-05
8.84511e-05
9.62098e-05
0.000104344
0.000113193
0.000123145
0.00013458
0.000148265
0.000165116
0.000186197
0.000212751
0.00024626
0.000288526
0.000341781
0.000408909
0.000493433
0.000599855
0.000733744
0.000902389
0.00111508
0.00138368
0.00172343
0.0021539
0.00270028
0.00339509
0.00428034
0.0053966
0.00679387
0.00864723
0.0110247
0.0140489
0.0293316
0.0469555
0.0644916
0.0817087
0.0984246
0.114494
0.1298
0.144247
0.15775
0.170238
0.181642
0.191899
0.20093
0.208667
0.215061
0.220091
0.223807
0.226355
0.227973
0.228926
0.229455
0.229732
0.229872
0.22994
0.229972
0.229987
0.229994
0.229998
0.229999
0.23
0.23
0.23
0.23
0.23
0.23
0.23
0.23
0.23
0.23
5.879e-10
2.56965e-09
5.90438e-09
1.14975e-08
2.08331e-08
3.63148e-08
6.1784e-08
1.03282e-07
1.70136e-07
2.76448e-07
4.43003e-07
6.99548e-07
1.08716e-06
1.66016e-06
2.48664e-06
3.64651e-06
5.22616e-06
7.30978e-06
9.96903e-06
1.32537e-05
1.71863e-05
2.17616e-05
2.69503e-05
3.27052e-05
3.89676e-05
4.56726e-05
5.27539e-05
6.01472e-05
6.77938e-05
7.56452e-05
8.36732e-05
9.18946e-05
0.000100439
0.000109534
0.000119518
0.000130754
0.000143568
0.000158671
0.000177
0.000199659
0.000227942
0.000263393
0.000307881
0.000363715
0.000433691
0.000521408
0.000631394
0.00076938
0.00094266
0.00116053
0.00143484
0.00178078
0.00221777
0.00277074
0.0034718
0.00436229
0.00548182
0.00687895
0.00872726
0.0110927
0.0140938
0.0296278
0.0472792
0.0648242
0.0820381
0.0987432
0.114797
0.130086
0.144512
0.157995
0.170461
0.181842
0.192076
0.201082
0.208795
0.215163
0.220168
0.223861
0.226391
0.227994
0.228939
0.229461
0.229736
0.229873
0.229941
0.229973
0.229988
0.229994
0.229998
0.229999
0.23
0.23
0.23
0.23
0.23
0.23
0.23
0.23
0.23
0.23
5.89128e-10
2.57502e-09
5.91677e-09
1.15218e-08
2.08777e-08
3.63943e-08
6.19229e-08
1.03522e-07
1.70549e-07
2.77153e-07
4.44198e-07
7.01556e-07
1.09051e-06
1.66567e-06
2.49558e-06
3.66079e-06
5.24854e-06
7.34413e-06
1.00206e-05
1.33292e-05
1.72943e-05
2.19126e-05
2.7157e-05
3.29828e-05
3.93338e-05
4.61485e-05
5.33647e-05
6.09232e-05
6.87714e-05
7.68693e-05
8.52001e-05
9.37959e-05
0.000102785
0.000112426
0.000123113
0.000135282
0.000149314
0.000165523
0.000184909
0.000208641
0.000238066
0.000274769
0.000320654
0.000378052
0.000449851
0.000539673
0.000652081
0.000792853
0.000969318
0.0011908
0.00146917
0.0018196
0.00226146
0.00281956
0.00352576
0.00442099
0.00554404
0.00694237
0.00878764
0.0111422
0.0141173
0.0297733
0.0474489
0.0650013
0.0822133
0.0989114
0.114956
0.130233
0.144648
0.158119
0.170573
0.181942
0.192163
0.201157
0.208857
0.215212
0.220205
0.223887
0.226407
0.228004
0.228944
0.229464
0.229737
0.229874
0.229941
0.229973
0.229988
0.229994
0.229998
0.229999
0.23
0.23
0.23
0.23
0.23
0.23
0.23
0.23
0.23
0.23
5.89131e-10
2.57503e-09
5.91679e-09
1.15219e-08
2.08778e-08
3.63944e-08
6.19232e-08
1.03523e-07
1.7055e-07
2.77154e-07
4.44199e-07
7.01559e-07
1.09051e-06
1.66567e-06
2.49559e-06
3.6608e-06
5.24855e-06
7.34415e-06
1.00206e-05
1.33293e-05
1.72944e-05
2.19127e-05
2.71571e-05
3.29828e-05
3.93338e-05
4.61485e-05
5.33647e-05
6.09232e-05
6.87714e-05
7.68693e-05
8.52001e-05
9.37958e-05
0.000102785
0.000112426
0.000123113
0.000135282
0.000149313
0.000165523
0.000184909
0.000208642
0.000238067
0.00027477
0.000320655
0.000378054
0.000449853
0.000539675
0.000652083
0.000792855
0.00096932
0.0011908
0.00146918
0.0018196
0.00226146
0.00281956
0.00352576
0.004421
0.00554404
0.00694237
0.00878764
0.0111422
0.0141173
0.0297733
0.0474488
0.0650013
0.0822133
0.0989113
0.114956
0.130233
0.144648
0.158119
0.170573
0.181942
0.192163
0.201157
0.208857
0.215212
0.220205
0.223887
0.226407
0.228004
0.228944
0.229464
0.229737
0.229874
0.229941
0.229973
0.229988
0.229994
0.229998
0.229999
0.23
0.23
0.23
0.23
0.23
0.23
0.23
0.23
0.23
0.23
5.87907e-10
2.56968e-09
5.90445e-09
1.14977e-08
2.08333e-08
3.63153e-08
6.17848e-08
1.03283e-07
1.70139e-07
2.76452e-07
4.43009e-07
6.99557e-07
1.08717e-06
1.66018e-06
2.48667e-06
3.64655e-06
5.2262e-06
7.30983e-06
9.96909e-06
1.32538e-05
1.71864e-05
2.17616e-05
2.69503e-05
3.27052e-05
3.89676e-05
4.56726e-05
5.27539e-05
6.01472e-05
6.7794e-05
7.56455e-05
8.36736e-05
9.18945e-05
0.000100438
0.000109533
0.000119516
0.000130752
0.000143566
0.000158669
0.000176999
0.000199658
0.000227942
0.000263394
0.000307883
0.000363719
0.000433696
0.000521413
0.0006314
0.000769386
0.000942665
0.00116053
0.00143485
0.00178078
0.00221777
0.00277075
0.00347179
0.00436229
0.00548181
0.00687894
0.00872723
0.0110926
0.0140938
0.0296277
0.0472791
0.0648241
0.082038
0.0987431
0.114797
0.130086
0.144512
0.157995
0.170461
0.181842
0.192076
0.201082
0.208795
0.215163
0.220168
0.223861
0.226391
0.227994
0.228939
0.229461
0.229736
0.229873
0.229941
0.229973
0.229988
0.229994
0.229998
0.229999
0.23
0.23
0.23
0.23
0.23
0.23
0.23
0.23
0.23
0.23
5.85455e-10
2.55894e-09
5.87963e-09
1.14488e-08
2.07432e-08
3.61546e-08
6.15029e-08
1.02794e-07
1.69296e-07
2.75011e-07
4.40563e-07
6.9544e-07
1.08031e-06
1.64889e-06
2.46835e-06
3.61734e-06
5.18052e-06
7.23993e-06
9.86461e-06
1.31014e-05
1.69694e-05
2.14598e-05
2.65397e-05
3.21576e-05
3.825e-05
4.47468e-05
5.15755e-05
5.86645e-05
6.59461e-05
7.33604e-05
8.08644e-05
8.84519e-05
9.62079e-05
0.00010434
0.000113189
0.000123138
0.000134574
0.000148261
0.000165113
0.000186194
0.000212749
0.000246258
0.000288525
0.00034178
0.000408907
0.000493432
0.000599855
0.000733745
0.000902391
0.00111508
0.00138369
0.00172344
0.0021539
0.00270029
0.00339509
0.00428034
0.00539659
0.00679386
0.0086472
0.0110246
0.0140488
0.0293316
0.0469554
0.0644915
0.0817085
0.0984244
0.114494
0.1298
0.144246
0.15775
0.170238
0.181642
0.191899
0.200929
0.208667
0.215061
0.220091
0.223807
0.226355
0.227973
0.228926
0.229455
0.229732
0.229872
0.22994
0.229972
0.229987
0.229994
0.229998
0.229999
0.23
0.23
0.23
0.23
0.23
0.23
0.23
0.23
0.23
0.23
5.81862e-10
2.5432e-09
5.84325e-09
1.13772e-08
2.06113e-08
3.59192e-08
6.10902e-08
1.02078e-07
1.68064e-07
2.72906e-07
4.36994e-07
6.8944e-07
1.07033e-06
1.63249e-06
2.44181e-06
3.57512e-06
5.11468e-06
7.13952e-06
9.71508e-06
1.28841e-05
1.66615e-05
2.10337e-05
2.59631e-05
3.13931e-05
3.72549e-05
4.34727e-05
4.99673e-05
5.66601e-05
6.34751e-05
7.03434e-05
7.72113e-05
8.40599e-05
9.09307e-05
9.80276e-05
0.000105683
0.000114238
0.0001242
0.000136344
0.000151568
0.000170905
0.00019556
0.000226965
0.000266862
0.000317415
0.000381334
0.000462082
0.000564069
0.000693144
0.000856522
0.00106352
0.00132584
0.00165886
0.00208237
0.00262195
0.00331076
0.00419189
0.00530714
0.00671011
0.00858004
0.0109928
0.0140896
0.0288929
0.0464815
0.0640075
0.0812294
0.0979595
0.114049
0.12938
0.143853
0.157386
0.169905
0.181341
0.191632
0.200698
0.208473
0.214905
0.219973
0.223723
0.226301
0.227939
0.228907
0.229444
0.229727
0.229869
0.229939
0.229972
0.229987
0.229994
0.229997
0.229999
0.23
0.23
0.23
0.23
0.23
0.23
0.23
0.23
0.23
0.23
5.77246e-10
2.52299e-09
5.79656e-09
1.12853e-08
2.04421e-08
3.56176e-08
6.05621e-08
1.01163e-07
1.66492e-07
2.70224e-07
4.32454e-07
6.81824e-07
1.05769e-06
1.61178e-06
2.40837e-06
3.52208e-06
5.03226e-06
7.01429e-06
9.52936e-06
1.26155e-05
1.62827e-05
2.05125e-05
2.52621e-05
3.04701e-05
3.60626e-05
4.19585e-05
4.80733e-05
5.43223e-05
6.06231e-05
6.68988e-05
7.30855e-05
7.91483e-05
8.51043e-05
9.12121e-05
9.76953e-05
0.000104949
0.000113522
0.000124169
0.000137768
0.000155326
0.000178011
0.000207215
0.000244642
0.000292411
0.000353194
0.000430388
0.000528318
0.00065251
0.000810172
0.00101062
0.00126607
0.00159195
0.00200785
0.00253966
0.0032209
0.00409527
0.00520571
0.0066066
0.00847837
0.0108985
0.0140138
0.0282537
0.0458277
0.0633558
0.0805904
0.0973413
0.113458
0.12882
0.143328
0.156898
0.169457
0.180936
0.191271
0.200385
0.20821
0.214693
0.219811
0.223608
0.226225
0.227893
0.228881
0.22943
0.22972
0.229866
0.229937
0.229971
0.229987
0.229994
0.229997
0.229999
0.23
0.23
0.23
0.23
0.23
0.23
0.23
0.23
0.23
0.23
5.71754e-10
2.49895e-09
5.74101e-09
1.11761e-08
2.02412e-08
3.52598e-08
5.99362e-08
1.00081e-07
1.64635e-07
2.67062e-07
4.27113e-07
6.72883e-07
1.04289e-06
1.58758e-06
2.36943e-06
3.46054e-06
4.93697e-06
6.87009e-06
9.31648e-06
1.23092e-05
1.58532e-05
1.99251e-05
2.44775e-05
2.94448e-05
3.47491e-05
4.03057e-05
4.60268e-05
5.18249e-05
5.76149e-05
6.3318e-05
6.88681e-05
7.42268e-05
7.94069e-05
8.44985e-05
8.99245e-05
9.6098e-05
0.000103449
0.00011273
0.000124807
0.000140663
0.000161432
0.000188465
0.000223414
0.000268349
0.000325891
0.000399393
0.000493164
0.000612724
0.000765166
0.000959566
0.00120783
0.00152551
0.00193301
0.00245635
0.00312886
0.0039947
0.00509811
0.00649368
0.00836318
0.0107869
0.013923
0.0274725
0.0450221
0.0625442
0.0797902
0.0965639
0.112712
0.128111
0.142661
0.156278
0.168887
0.180419
0.19081
0.199984
0.207872
0.214421
0.219603
0.22346
0.226128
0.227834
0.228847
0.229411
0.22971
0.229861
0.229935
0.22997
0.229986
0.229994
0.229997
0.229999
0.229999
0.23
0.23
0.23
0.23
0.23
0.23
0.23
0.23
0.23
5.65544e-10
2.47176e-09
5.67824e-09
1.10527e-08
2.00144e-08
3.48565e-08
5.92319e-08
9.88644e-08
1.62553e-07
2.63524e-07
4.21149e-07
6.62925e-07
1.02644e-06
1.56078e-06
2.32644e-06
3.39282e-06
4.83252e-06
6.71271e-06
9.08521e-06
1.19782e-05
1.53916e-05
1.92978e-05
2.36455e-05
2.83656e-05
3.3378e-05
3.8596e-05
4.39308e-05
4.92945e-05
5.4603e-05
5.97791e-05
6.47592e-05
6.95067e-05
7.40398e-05
7.84277e-05
8.29883e-05
8.81208e-05
9.43545e-05
0.000102396
0.000113077
0.00012735
0.000146314
0.000171281
0.000203857
0.000246059
0.000300452
0.000370328
0.000459925
0.000574716
0.000721782
0.000910293
0.00115206
0.00146227
0.001861
0.0023746
0.00303763
0.00389392
0.00498915
0.00637772
0.00824261
0.0106669
0.013821
0.0265022
0.0440275
0.0615447
0.0788086
0.095611
0.111796
0.127239
0.14184
0.155512
0.168182
0.17978
0.19024
0.199489
0.207454
0.214082
0.219345
0.223275
0.226005
0.227758
0.228803
0.229389
0.2297
0.229856
0.229932
0.229969
0.229986
0.229994
0.229997
0.229999
0.229999
0.23
0.23
0.23
0.23
0.23
0.23
0.23
0.23
0.23
5.58778e-10
2.44214e-09
5.60989e-09
1.09185e-08
1.9768e-08
3.44188e-08
5.84687e-08
9.75488e-08
1.60304e-07
2.59712e-07
4.1474e-07
6.52251e-07
1.00887e-06
1.53222e-06
2.28077e-06
3.32114e-06
4.72237e-06
6.54741e-06
8.84342e-06
1.16338e-05
1.49141e-05
1.86528e-05
2.27954e-05
2.72709e-05
3.19976e-05
3.68886e-05
4.18556e-05
4.68122e-05
5.16765e-05
5.63746e-05
6.08456e-05
6.50545e-05
6.90152e-05
7.28199e-05
7.66157e-05
8.08585e-05
8.62024e-05
9.31956e-05
0.000102649
0.00011549
0.00013279
0.000155825
0.000186159
0.00022576
0.000277139
0.000343526
0.000429093
0.000539249
0.000681005
0.000863464
0.00109846
0.00140138
0.00179215
0.00229655
0.00294898
0.00379514
0.004882
0.00626303
0.00812229
0.0105457
0.0137159
0.0253417
0.0428452
0.060366
0.0776353
0.0944683
0.110694
0.126187
0.140846
0.154585
0.167329
0.179005
0.18955
0.198887
0.206946
0.21367
0.219028
0.223048
0.225853
0.227663
0.228753
0.229363
0.229686
0.229849
0.229929
0.229967
0.229985
0.229993
0.229997
0.229999
0.229999
0.23
0.23
0.23
0.23
0.23
0.23
0.23
0.23
0.23
5.5161e-10
2.41077e-09
5.53754e-09
1.07766e-08
1.95077e-08
3.39571e-08
5.7665e-08
9.61662e-08
1.57947e-07
2.55725e-07
4.08053e-07
6.41144e-07
9.90627e-07
1.50267e-06
2.23366e-06
3.24744e-06
4.60953e-06
6.37874e-06
8.59776e-06
1.12855e-05
1.44336e-05
1.80072e-05
2.19496e-05
2.61884e-05
3.06419e-05
3.52236e-05
3.9847e-05
4.44282e-05
4.88886e-05
5.31582e-05
5.71802e-05
6.09218e-05
6.43949e-05
6.76894e-05
7.09789e-05
7.45589e-05
7.90026e-05
8.5098e-05
9.34744e-05
0.00010503
0.000120807
0.000142047
0.000170277