/*--------------------------------*- C++ -*----------------------------------*\
  =========                 |
  \\      /  F ield         | OpenFOAM: The Open Source CFD Toolbox
   \\    /   O peration     | Website:  https://openfoam.org
    \\  /    A nd           | Version:  8
     \\/     M anipulation  |
\*---------------------------------------------------------------------------*/
FoamFile
{
    version     2.0;
    format      ascii;
    class       surfaceScalarField;
    location    "720/fluid";
    object      phi;
}
// * * * * * * * * * * * * * * * * * * * * * * * * * * * * * * * * * * * * * //

dimensions      [1 0 -1 0 0 0 0];

internalField   nonuniform List<scalar> 
7860
(
6.57266e-07
-1.77677e-08
6.54588e-07
-5.3307e-08
6.50777e-07
-8.86649e-08
6.45722e-07
-1.23736e-07
6.3929e-07
-1.58527e-07
6.31318e-07
-1.92993e-07
6.21621e-07
-2.27053e-07
6.1e-07
-2.60585e-07
5.96252e-07
-2.93421e-07
5.80181e-07
-3.2534e-07
5.61616e-07
-3.56053e-07
5.40435e-07
-3.85195e-07
5.16612e-07
-4.12308e-07
4.90319e-07
-4.3685e-07
4.61837e-07
-4.58181e-07
4.31528e-07
-4.75638e-07
3.99862e-07
-4.88663e-07
3.67382e-07
-4.96962e-07
3.34648e-07
-5.0062e-07
3.02169e-07
-5.00121e-07
2.70353e-07
-4.96252e-07
2.39484e-07
-4.89918e-07
2.09743e-07
-4.81978e-07
1.8126e-07
-4.7313e-07
1.54085e-07
-4.63857e-07
1.28181e-07
-4.54461e-07
1.0348e-07
-4.45102e-07
7.99045e-08
-4.3585e-07
5.73847e-08
-4.26717e-07
3.58582e-08
-4.17683e-07
1.52721e-08
-4.08721e-07
-4.41559e-09
-3.99804e-07
-2.32331e-08
-3.90912e-07
-4.12082e-08
-3.82036e-07
-5.83723e-08
-3.73179e-07
-7.47488e-08
-3.64331e-07
-9.03572e-08
-3.55451e-07
-1.05216e-07
-3.46553e-07
-1.19345e-07
-3.37656e-07
-1.3276e-07
-3.28782e-07
-1.45482e-07
-3.19955e-07
-1.57527e-07
-3.11202e-07
-1.68916e-07
-3.02547e-07
-1.79668e-07
-2.94019e-07
-1.89801e-07
-2.85644e-07
-1.99337e-07
-2.77449e-07
-2.08294e-07
-2.6946e-07
-2.16693e-07
-2.61704e-07
-2.24556e-07
-2.54207e-07
-2.31902e-07
-2.46995e-07
-2.38753e-07
-2.40093e-07
-2.45132e-07
-2.3353e-07
-2.51062e-07
-2.27335e-07
-2.56568e-07
-2.2154e-07
-2.61678e-07
-2.16183e-07
-2.66428e-07
-2.1131e-07
-2.70859e-07
-2.06972e-07
-2.75026e-07
-2.03264e-07
-2.78985e-07
-2.00256e-07
-2.82811e-07
-1.98008e-07
-2.86636e-07
-1.96762e-07
-2.90896e-07
-1.96692e-07
-2.95868e-07
-1.98936e-07
-3.0275e-07
-2.1006e-07
-3.10679e-07
-2.225e-07
-3.19465e-07
-2.36228e-07
-3.29159e-07
-2.51427e-07
-3.39879e-07
-2.68336e-07
-3.51787e-07
-2.8723e-07
-3.65099e-07
-3.08435e-07
-3.80109e-07
-3.32346e-07
-3.97214e-07
-3.59431e-07
-4.16941e-07
-3.90226e-07
-4.39977e-07
-4.25453e-07
-4.67185e-07
-4.65772e-07
-4.9954e-07
-5.112e-07
-5.37938e-07
-5.60664e-07
-5.82663e-07
-6.11229e-07
-6.33471e-07
-6.57407e-07
-6.89168e-07
-6.92092e-07
-7.47397e-07
-7.09666e-07
-8.0523e-07
-7.0906e-07
-8.60157e-07
-6.93517e-07
-9.10624e-07
-6.67711e-07
-9.55974e-07
-6.35666e-07
-9.96024e-07
-5.99985e-07
-1.03066e-06
-5.62106e-07
-1.06021e-06
-5.22716e-07
-1.08524e-06
-4.82252e-07
-1.10628e-06
-4.41045e-07
-1.12381e-06
-3.99346e-07
-1.13829e-06
-3.5735e-07
-1.15012e-06
-3.15206e-07
-1.15967e-06
-2.73025e-07
-1.16726e-06
-2.30884e-07
-1.17316e-06
-1.88826e-07
-1.17762e-06
-1.46856e-07
-1.18082e-06
-1.04933e-07
-1.18292e-06
-6.29761e-08
-2.09903e-08
6.57909e-07
-1.71426e-08
6.55776e-07
-5.1174e-08
6.52057e-07
-8.4946e-08
6.46751e-07
-1.18431e-07
6.3979e-07
-1.51566e-07
6.31075e-07
-1.84278e-07
6.20492e-07
-2.1647e-07
6.07926e-07
-2.48019e-07
5.93272e-07
-2.78767e-07
5.76448e-07
-3.08516e-07
5.5741e-07
-3.37015e-07
5.36159e-07
-3.63943e-07
5.12762e-07
-3.8891e-07
4.8738e-07
-4.11466e-07
4.6024e-07
-4.3104e-07
4.31639e-07
-4.47034e-07
4.01942e-07
-4.58962e-07
3.71566e-07
-4.66581e-07
3.40935e-07
-4.69983e-07
3.10435e-07
-4.69615e-07
2.80377e-07
-4.66187e-07
2.50983e-07
-4.60516e-07
2.22396e-07
-4.53384e-07
1.94714e-07
-4.4544e-07
1.67988e-07
-4.37125e-07
1.4223e-07
-4.28696e-07
1.1743e-07
-4.20295e-07
9.35668e-08
-4.11982e-07
7.06199e-08
-4.03765e-07
4.8567e-08
-3.95625e-07
2.73875e-08
-3.87537e-07
7.06155e-09
-3.79474e-07
-1.24296e-08
-3.71417e-07
-3.11031e-08
-3.63359e-07
-4.89765e-08
-3.55303e-07
-6.60643e-08
-3.4724e-07
-8.238e-08
-3.39132e-07
-9.79389e-08
-3.30991e-07
-1.12757e-07
-3.22835e-07
-1.26851e-07
-3.14685e-07
-1.40238e-07
-3.06565e-07
-1.52937e-07
-2.985e-07
-1.64967e-07
-2.90514e-07
-1.76349e-07
-2.82634e-07
-1.87103e-07
-2.74887e-07
-1.97252e-07
-2.67297e-07
-2.06817e-07
-2.59892e-07
-2.15821e-07
-2.52697e-07
-2.24289e-07
-2.45737e-07
-2.32245e-07
-2.39036e-07
-2.39717e-07
-2.3262e-07
-2.46731e-07
-2.26514e-07
-2.5332e-07
-2.20744e-07
-2.59519e-07
-2.1534e-07
-2.65368e-07
-2.10333e-07
-2.70916e-07
-2.0576e-07
-2.76225e-07
-2.01662e-07
-2.81371e-07
-1.98118e-07
-2.86456e-07
-1.9517e-07
-2.91623e-07
-1.92841e-07
-2.97101e-07
-1.91283e-07
-3.03171e-07
-1.90621e-07
-3.08978e-07
-1.93166e-07
-3.16023e-07
-2.0302e-07
-3.24298e-07
-2.14228e-07
-3.33703e-07
-2.26827e-07
-3.44229e-07
-2.40905e-07
-3.5595e-07
-2.56619e-07
-3.68999e-07
-2.74185e-07
-3.83558e-07
-2.9388e-07
-3.99862e-07
-3.16046e-07
-4.18204e-07
-3.41093e-07
-4.38928e-07
-3.69506e-07
-4.62414e-07
-4.0197e-07
-4.89139e-07
-4.3905e-07
-5.19637e-07
-4.80704e-07
-5.54421e-07
-5.2588e-07
-5.93815e-07
-5.71834e-07
-6.37902e-07
-6.13319e-07
-6.86104e-07
-6.43889e-07
-7.36875e-07
-6.58893e-07
-7.88075e-07
-6.57857e-07
-8.37752e-07
-6.43839e-07
-8.84588e-07
-6.20874e-07
-9.27937e-07
-5.92315e-07
-9.67542e-07
-5.60379e-07
-1.00325e-06
-5.26402e-07
-1.03504e-06
-4.90923e-07
-1.06303e-06
-4.54265e-07
-1.08738e-06
-4.1669e-07
-1.10832e-06
-3.78403e-07
-1.12611e-06
-3.39567e-07
-1.141e-06
-3.00315e-07
-1.15326e-06
-2.60759e-07
-1.16316e-06
-2.20987e-07
-1.17092e-06
-1.81067e-07
-1.17674e-06
-1.41037e-07
-1.18077e-06
-1.00903e-07
-1.18309e-06
-6.06526e-08
-2.02599e-08
6.5761e-07
-1.62194e-08
6.5494e-07
-4.85031e-08
6.50532e-07
-8.05388e-08
6.44354e-07
-1.12253e-07
6.36364e-07
-1.43575e-07
6.26512e-07
-1.74427e-07
6.14753e-07
-2.04711e-07
6.01048e-07
-2.34314e-07
5.8538e-07
-2.63098e-07
5.67756e-07
-2.90892e-07
5.48216e-07
-3.17475e-07
5.2684e-07
-3.42566e-07
5.03736e-07
-3.65806e-07
4.79021e-07
-3.8675e-07
4.52875e-07
-4.04892e-07
4.25558e-07
-4.19715e-07
3.97393e-07
-4.30795e-07
3.68735e-07
-4.37919e-07
3.39931e-07
-4.41175e-07
3.11289e-07
-4.40968e-07
2.83051e-07
-4.37944e-07
2.55387e-07
-4.32847e-07
2.28397e-07
-4.26389e-07
2.02112e-07
-4.19149e-07
1.76536e-07
-4.11544e-07
1.5168e-07
-4.03835e-07
1.27551e-07
-3.96162e-07
1.04155e-07
-3.88582e-07
8.14967e-08
-3.81102e-07
5.95784e-08
-3.73704e-07
3.84009e-08
-3.66357e-07
1.79633e-08
-3.59034e-07
-1.73668e-09
-3.51714e-07
-2.07038e-08
-3.44389e-07
-3.89446e-08
-3.37059e-07
-5.64637e-08
-3.29718e-07
-7.32669e-08
-3.22326e-07
-8.93624e-08
-3.14893e-07
-1.0476e-07
-3.07434e-07
-1.19473e-07
-2.9997e-07
-1.33513e-07
-2.92523e-07
-1.46897e-07
-2.85114e-07
-1.59641e-07
-2.77768e-07
-1.71764e-07
-2.70509e-07
-1.83287e-07
-2.63362e-07
-1.94231e-07
-2.56352e-07
-2.04619e-07
-2.49502e-07
-2.14477e-07
-2.42837e-07
-2.23832e-07
-2.3638e-07
-2.32714e-07
-2.30153e-07
-2.41155e-07
-2.24178e-07
-2.4919e-07
-2.18477e-07
-2.56861e-07
-2.13072e-07
-2.64212e-07
-2.07988e-07
-2.71295e-07
-2.03249e-07
-2.78172e-07
-1.98882e-07
-2.84916e-07
-1.94917e-07
-2.91609e-07
-1.91424e-07
-2.98355e-07
-1.88423e-07
-3.05277e-07
-1.85919e-07
-3.12512e-07
-1.84048e-07
-3.20222e-07
-1.8291e-07
-3.27e-07
-1.86412e-07
-3.34794e-07
-1.9523e-07
-3.43664e-07
-2.05361e-07
-3.53636e-07
-2.16858e-07
-3.64756e-07
-2.29789e-07
-3.77099e-07
-2.44279e-07
-3.90767e-07
-2.6052e-07
-4.05885e-07
-2.78764e-07
-4.22597e-07
-2.99335e-07
-4.41066e-07
-3.22626e-07
-4.61443e-07
-3.49129e-07
-4.8388e-07
-3.79532e-07
-5.08606e-07
-4.14322e-07
-5.35953e-07
-4.53355e-07
-5.66427e-07
-4.95401e-07
-6.0082e-07
-5.37436e-07
-6.39694e-07
-5.74438e-07
-6.82834e-07
-6.00744e-07
-7.28965e-07
-6.12757e-07
-7.76163e-07
-6.10655e-07
-8.22607e-07
-5.97393e-07
-8.67004e-07
-5.76477e-07
-9.08632e-07
-5.50687e-07
-9.47186e-07
-5.21825e-07
-9.82669e-07
-4.90918e-07
-1.01505e-06
-4.58542e-07
-1.04429e-06
-4.25025e-07
-1.0704e-06
-3.90578e-07
-1.09345e-06
-3.55354e-07
-1.11354e-06
-3.19477e-07
-1.1308e-06
-2.83056e-07
-1.14538e-06
-2.46185e-07
-1.15741e-06
-2.08951e-07
-1.16705e-06
-1.71426e-07
-1.17443e-06
-1.33663e-07
-1.17964e-06
-9.56918e-08
-1.18276e-06
-5.75268e-08
-1.92028e-08
6.57629e-07
-1.5315e-08
6.54893e-07
-4.57662e-08
6.50318e-07
-7.59643e-08
6.43903e-07
-1.05838e-07
6.35638e-07
-1.3531e-07
6.25512e-07
-1.643e-07
6.13516e-07
-1.92714e-07
5.99647e-07
-2.20445e-07
5.83912e-07
-2.47363e-07
5.66333e-07
-2.73313e-07
5.46952e-07
-2.98094e-07
5.25836e-07
-3.2145e-07
5.03088e-07
-3.43057e-07
4.78853e-07
-3.62514e-07
4.53327e-07
-3.79365e-07
4.2676e-07
-3.93146e-07
3.9944e-07
-4.03474e-07
3.71676e-07
-4.10153e-07
3.43766e-07
-4.13262e-07
3.15973e-07
-4.13173e-07
2.88507e-07
-4.10474e-07
2.61519e-07
-4.05855e-07
2.35106e-07
-3.99971e-07
2.09321e-07
-3.9336e-07
1.84189e-07
-3.8641e-07
1.59721e-07
-3.79364e-07
1.35919e-07
-3.72356e-07
1.1278e-07
-3.6544e-07
9.03037e-08
-3.58623e-07
6.84894e-08
-3.51887e-07
4.7337e-08
-3.45202e-07
2.68467e-08
-3.38541e-07
7.01836e-09
-3.31884e-07
-1.21491e-08
-3.2522e-07
-3.06585e-08
-3.18548e-07
-4.85115e-08
-3.11863e-07
-6.57097e-08
-3.05126e-07
-8.22576e-08
-2.98343e-07
-9.81619e-08
-2.91528e-07
-1.13431e-07
-2.84699e-07
-1.28077e-07
-2.77875e-07
-1.42111e-07
-2.71077e-07
-1.5555e-07
-2.64327e-07
-1.68409e-07
-2.57647e-07
-1.8071e-07
-2.5106e-07
-1.92472e-07
-2.44588e-07
-2.03719e-07
-2.38253e-07
-2.14478e-07
-2.32077e-07
-2.24777e-07
-2.2608e-07
-2.34646e-07
-2.20282e-07
-2.44121e-07
-2.14701e-07
-2.53239e-07
-2.09358e-07
-2.62042e-07
-2.04268e-07
-2.70577e-07
-1.99452e-07
-2.78896e-07
-1.94929e-07
-2.87059e-07
-1.90718e-07
-2.95132e-07
-1.86845e-07
-3.03185e-07
-1.8337e-07
-3.11308e-07
-1.803e-07
-3.19591e-07
-1.77636e-07
-3.2813e-07
-1.75508e-07
-3.37017e-07
-1.74024e-07
-3.44779e-07
-1.78661e-07
-3.53397e-07
-1.86615e-07
-3.62933e-07
-1.95826e-07
-3.73449e-07
-2.06343e-07
-3.85015e-07
-2.18224e-07
-3.9771e-07
-2.31585e-07
-4.11621e-07
-2.46608e-07
-4.26848e-07
-2.63537e-07
-4.435e-07
-2.82682e-07
-4.617e-07
-3.04423e-07
-4.81564e-07
-3.29261e-07
-5.03248e-07
-3.57843e-07
-5.27024e-07
-3.90539e-07
-5.53291e-07
-4.2708e-07
-5.82591e-07
-4.6609e-07
-6.15539e-07
-5.04477e-07
-6.52513e-07
-5.37454e-07
-6.9322e-07
-5.60027e-07
-7.36523e-07
-5.69448e-07
-7.80811e-07
-5.66363e-07
-8.24588e-07
-5.53614e-07
-8.66769e-07
-5.34294e-07
-9.06691e-07
-5.10764e-07
-9.43997e-07
-4.84519e-07
-9.78523e-07
-4.56392e-07
-1.01022e-06
-4.26849e-07
-1.03908e-06
-3.96165e-07
-1.06513e-06
-3.64524e-07
-1.08842e-06
-3.32064e-07
-1.109e-06
-2.98898e-07
-1.12693e-06
-2.65125e-07
-1.14228e-06
-2.30833e-07
-1.15512e-06
-1.96106e-07
-1.16553e-06
-1.61019e-07
-1.17356e-06
-1.25632e-07
-1.17927e-06
-8.9985e-08
-1.18268e-06
-5.41116e-08
-1.80652e-08
6.57566e-07
-1.43477e-08
6.54691e-07
-4.28903e-08
6.49919e-07
-7.11927e-08
6.43257e-07
-9.91758e-08
6.34711e-07
-1.26765e-07
6.2429e-07
-1.53879e-07
6.12006e-07
-1.8043e-07
5.9788e-07
-2.06319e-07
5.81943e-07
-2.31427e-07
5.64242e-07
-2.55612e-07
5.44841e-07
-2.78693e-07
5.2383e-07
-3.00439e-07
5.01326e-07
-3.20553e-07
4.77483e-07
-3.38671e-07
4.52492e-07
-3.54374e-07
4.26582e-07
-3.67236e-07
4.00014e-07
-3.76904e-07
3.73059e-07
-3.83197e-07
3.45979e-07
-3.86181e-07
3.19002e-07
-3.86194e-07
2.9231e-07
-3.8378e-07
2.6603e-07
-3.79574e-07
2.40248e-07
-3.74187e-07
2.15011e-07
-3.68121e-07
1.90345e-07
-3.61741e-07
1.66261e-07
-3.55277e-07
1.42763e-07
-3.48856e-07
1.19854e-07
-3.42529e-07
9.75344e-08
-3.36302e-07
7.58061e-08
-3.30157e-07
5.4671e-08
-3.24065e-07
3.41314e-08
-3.18e-07
1.4189e-08
-3.1194e-07
-5.15573e-09
-3.05874e-07
-2.39024e-08
-2.998e-07
-4.20523e-08
-2.93712e-07
-5.9605e-08
-2.87572e-07
-7.6563e-08
-2.81384e-07
-9.29307e-08
-2.75159e-07
-1.08715e-07
-2.68914e-07
-1.23925e-07
-2.62665e-07
-1.38572e-07
-2.5643e-07
-1.52668e-07
-2.5023e-07
-1.66231e-07
-2.44084e-07
-1.79276e-07
-2.38013e-07
-1.91825e-07
-2.32038e-07
-2.03901e-07
-2.26177e-07
-2.15529e-07
-2.20449e-07
-2.26735e-07
-2.14873e-07
-2.3755e-07
-2.09466e-07
-2.48006e-07
-2.04245e-07
-2.58139e-07
-1.99224e-07
-2.67987e-07
-1.94419e-07
-2.77593e-07
-1.89846e-07
-2.87002e-07
-1.85519e-07
-2.96264e-07
-1.81455e-07
-3.05434e-07
-1.77675e-07
-3.14566e-07
-1.74238e-07
-3.23734e-07
-1.71132e-07
-3.33004e-07
-1.68365e-07
-3.42458e-07
-1.66055e-07
-3.52166e-07
-1.64318e-07
-3.60932e-07
-1.69896e-07
-3.70365e-07
-1.77182e-07
-3.80548e-07
-1.85644e-07
-3.91573e-07
-1.95317e-07
-4.03529e-07
-2.06266e-07
-4.16501e-07
-2.18611e-07
-4.30575e-07
-2.32531e-07
-4.45844e-07
-2.48265e-07
-4.62402e-07
-2.66119e-07
-4.80358e-07
-2.86461e-07
-4.99807e-07
-3.09804e-07
-5.20898e-07
-3.36742e-07
-5.4389e-07
-3.67535e-07
-5.69152e-07
-4.01802e-07
-5.97188e-07
-4.38039e-07
-6.28549e-07
-4.731e-07
-6.63561e-07
-5.02427e-07
-7.01938e-07
-5.21639e-07
-7.42668e-07
-5.2871e-07
-7.84368e-07
-5.24657e-07
-8.25769e-07
-5.12209e-07
-8.6595e-07
-4.94112e-07
-9.04325e-07
-4.72389e-07
-9.4055e-07
-4.48293e-07
-9.74422e-07
-4.2252e-07
-1.00582e-06
-3.95454e-07
-1.03466e-06
-3.67319e-07
-1.06092e-06
-3.38265e-07
-1.08458e-06
-3.08405e-07
-1.10565e-06
-2.77833e-07
-1.12414e-06
-2.46636e-07
-1.14008e-06
-2.14893e-07
-1.1535e-06
-1.82684e-07
-1.16444e-06
-1.50082e-07
-1.17292e-06
-1.17149e-07
-1.17897e-06
-8.39339e-08
-1.1826e-06
-5.04764e-08
-1.68481e-08
6.57563e-07
-1.33774e-08
6.5466e-07
-3.99866e-08
6.49835e-07
-6.63683e-08
6.43106e-07
-9.24465e-08
6.34489e-07
-1.18148e-07
6.24006e-07
-1.43396e-07
6.11683e-07
-1.68107e-07
5.97553e-07
-1.92188e-07
5.81657e-07
-2.15532e-07
5.64052e-07
-2.38006e-07
5.44805e-07
-2.59447e-07
5.24008e-07
-2.79642e-07
5.01776e-07
-2.98322e-07
4.78258e-07
-3.15153e-07
4.53638e-07
-3.29754e-07
4.28136e-07
-3.41733e-07
4.01997e-07
-3.50766e-07
3.75482e-07
-3.56681e-07
3.48839e-07
-3.59537e-07
3.22286e-07
-3.5964e-07
2.95995e-07
-3.57488e-07
2.70091e-07
-3.53669e-07
2.44653e-07
-3.48748e-07
2.19725e-07
-3.43193e-07
1.95331e-07
-3.37346e-07
1.71478e-07
-3.31424e-07
1.48169e-07
-3.25546e-07
1.25402e-07
-3.19761e-07
1.03176e-07
-3.14075e-07
8.14907e-08
-3.08471e-07
6.03473e-08
-3.02921e-07
3.97472e-08
-2.97399e-07
1.96921e-08
-2.91884e-07
1.8292e-10
-2.86364e-07
-1.87825e-08
-2.80834e-07
-3.72021e-08
-2.75292e-07
-5.50748e-08
-2.69699e-07
-7.24022e-08
-2.64055e-07
-8.91874e-08
-2.58373e-07
-1.05436e-07
-2.52664e-07
-1.21155e-07
-2.46944e-07
-1.36354e-07
-2.4123e-07
-1.51044e-07
-2.35538e-07
-1.6524e-07
-2.29887e-07
-1.78958e-07
-2.24295e-07
-1.92216e-07
-2.18779e-07
-2.05035e-07
-2.13357e-07
-2.17438e-07
-2.08046e-07
-2.29448e-07
-2.02862e-07
-2.41094e-07
-1.9782e-07
-2.52404e-07
-1.92935e-07
-2.63408e-07
-1.88219e-07
-2.7414e-07
-1.83687e-07
-2.84633e-07
-1.79352e-07
-2.94924e-07
-1.75228e-07
-3.05049e-07
-1.7133e-07
-3.15048e-07
-1.67676e-07
-3.24958e-07
-1.64328e-07
-3.34844e-07
-1.61246e-07
-3.44731e-07
-1.58478e-07
-3.54696e-07
-1.5609e-07
-3.64822e-07
-1.54196e-07
-3.74593e-07
-1.60124e-07
-3.84768e-07
-1.67005e-07
-3.95523e-07
-1.74886e-07
-4.06994e-07
-1.83843e-07
-4.19286e-07
-1.93971e-07
-4.32491e-07
-2.05402e-07
-4.46698e-07
-2.18317e-07
-4.61999e-07
-2.32956e-07
-4.78493e-07
-2.49616e-07
-4.96287e-07
-2.68657e-07
-5.1549e-07
-2.90588e-07
-5.36279e-07
-3.15937e-07
-5.58935e-07
-3.44861e-07
-5.83847e-07
-3.7687e-07
-6.11512e-07
-4.10352e-07
-6.42421e-07
-4.4217e-07
-6.76774e-07
-4.68056e-07
-7.14162e-07
-4.84236e-07
-7.53551e-07
-4.89311e-07
-7.93658e-07
-4.84544e-07
-8.33367e-07
-4.72497e-07
-8.71892e-07
-4.55586e-07
-9.08739e-07
-4.3554e-07
-9.43619e-07
-4.13413e-07
-9.76356e-07
-3.89783e-07
-1.00684e-06
-3.64971e-07
-1.03499e-06
-3.39165e-07
-1.06077e-06
-3.12493e-07
-1.08412e-06
-2.85049e-07
-1.10504e-06
-2.56918e-07
-1.1235e-06
-2.28175e-07
-1.1395e-06
-1.98894e-07
-1.15303e-06
-1.69148e-07
-1.16411e-06
-1.39007e-07
-1.17272e-06
-1.08533e-07
-1.17888e-06
-7.7774e-08
-1.18258e-06
-4.67748e-08
-1.56115e-08
6.57554e-07
-1.23973e-08
6.54628e-07
-3.70608e-08
6.49773e-07
-6.15134e-08
6.43008e-07
-8.56815e-08
6.34356e-07
-1.09496e-07
6.23845e-07
-1.32885e-07
6.11508e-07
-1.55771e-07
5.97387e-07
-1.78067e-07
5.81531e-07
-1.99676e-07
5.64002e-07
-2.20477e-07
5.44875e-07
-2.4032e-07
5.24246e-07
-2.59012e-07
5.02232e-07
-2.76308e-07
4.7898e-07
-2.91902e-07
4.54671e-07
-3.05444e-07
4.29513e-07
-3.16576e-07
4.03741e-07
-3.24994e-07
3.77599e-07
-3.3054e-07
3.51323e-07
-3.33262e-07
3.25118e-07
-3.33436e-07
2.9915e-07
-3.3152e-07
2.73536e-07
-3.28056e-07
2.48354e-07
-3.23566e-07
2.23649e-07
-3.18488e-07
1.99442e-07
-3.13138e-07
1.7574e-07
-3.07722e-07
1.52544e-07
-3.0235e-07
1.29853e-07
-2.9707e-07
1.07665e-07
-2.91886e-07
8.59765e-08
-2.86782e-07
6.47889e-08
-2.81733e-07
4.41025e-08
-2.76713e-07
2.39183e-08
-2.717e-07
4.23691e-09
-2.66683e-07
-1.49405e-08
-2.61656e-07
-3.36153e-08
-2.56617e-07
-5.17857e-08
-2.51528e-07
-6.94523e-08
-2.46389e-07
-8.66171e-08
-2.41208e-07
-1.03284e-07
-2.35997e-07
-1.19459e-07
-2.30769e-07
-1.3515e-07
-2.25539e-07
-1.50367e-07
-2.20322e-07
-1.65121e-07
-2.15133e-07
-1.79428e-07
-2.09988e-07
-1.93303e-07
-2.04904e-07
-2.06765e-07
-1.99896e-07
-2.19833e-07
-1.94979e-07
-2.32528e-07
-1.90167e-07
-2.44875e-07
-1.85473e-07
-2.56898e-07
-1.80912e-07
-2.68623e-07
-1.76494e-07
-2.80078e-07
-1.72233e-07
-2.9129e-07
-1.6814e-07
-3.02287e-07
-1.64231e-07
-3.13098e-07
-1.6052e-07
-3.23743e-07
-1.5703e-07
-3.34248e-07
-1.53824e-07
-3.44648e-07
-1.50846e-07
-3.54938e-07
-1.48186e-07
-3.65129e-07
-1.45898e-07
-3.75214e-07
-1.44094e-07
-3.85577e-07
-1.49758e-07
-3.96339e-07
-1.5624e-07
-4.07622e-07
-1.63599e-07
-4.19541e-07
-1.71919e-07
-4.322e-07
-1.81306e-07
-4.45695e-07
-1.91899e-07
-4.60118e-07
-2.03885e-07
-4.75568e-07
-2.17496e-07
-4.92149e-07
-2.33023e-07
-5.09977e-07
-2.50814e-07
-5.2918e-07
-2.71369e-07
-5.49957e-07
-2.95141e-07
-5.72595e-07
-3.222e-07
-5.97469e-07
-3.5197e-07
-6.25022e-07
-3.82773e-07
-6.55638e-07
-4.11529e-07
-6.8939e-07
-4.34283e-07
-7.25796e-07
-4.47814e-07
-7.63874e-07
-4.51223e-07
-8.02491e-07
-4.45921e-07
-8.4069e-07
-4.34295e-07
-8.77797e-07
-4.18477e-07
-9.13381e-07
-3.99955e-07
-9.47173e-07
-3.79621e-07
-9.78997e-07
-3.57958e-07
-1.00873e-06
-3.35234e-07
-1.03629e-06
-3.11606e-07
-1.06161e-06
-2.87178e-07
-1.08462e-06
-2.62033e-07
-1.1053e-06
-2.36241e-07
-1.12361e-06
-2.0987e-07
-1.13952e-06
-1.82985e-07
-1.15301e-06
-1.55654e-07
-1.16407e-06
-1.27943e-07
-1.1727e-06
-9.99096e-08
-1.17887e-06
-7.16014e-08
-1.18258e-06
-4.30626e-08
-1.43707e-08
6.57556e-07
-1.14199e-08
6.54635e-07
-3.41396e-08
6.49787e-07
-5.66654e-08
6.43034e-07
-7.89283e-08
6.34402e-07
-1.00864e-07
6.23923e-07
-1.22406e-07
6.11635e-07
-1.43482e-07
5.97582e-07
-1.64015e-07
5.81818e-07
-1.83912e-07
5.64407e-07
-2.03065e-07
5.45425e-07
-2.21338e-07
5.24968e-07
-2.38555e-07
5.03151e-07
-2.54491e-07
4.80118e-07
-2.6887e-07
4.56043e-07
-2.8137e-07
4.31129e-07
-2.91662e-07
4.05602e-07
-2.99469e-07
3.797e-07
-3.0464e-07
3.53653e-07
-3.07215e-07
3.27661e-07
-3.07446e-07
3.01887e-07
-3.05748e-07
2.76448e-07
-3.02618e-07
2.51419e-07
-2.98539e-07
2.26846e-07
-2.93915e-07
2.02746e-07
-2.8904e-07
1.79128e-07
-2.84104e-07
1.5599e-07
-2.79212e-07
1.33328e-07
-2.74408e-07
1.11138e-07
-2.69697e-07
8.9418e-08
-2.65062e-07
6.81657e-08
-2.60481e-07
4.7381e-08
-2.55928e-07
2.70643e-08
-2.51384e-07
7.21631e-09
-2.46835e-07
-1.21632e-08
-2.42277e-07
-3.10744e-08
-2.37706e-07
-4.95156e-08
-2.33087e-07
-6.74865e-08
-2.28418e-07
-8.49884e-08
-2.23706e-07
-1.02024e-07
-2.18962e-07
-1.18597e-07
-2.14196e-07
-1.34715e-07
-2.09422e-07
-1.50385e-07
-2.04652e-07
-1.65617e-07
-1.999e-07
-1.80425e-07
-1.95181e-07
-1.9482e-07
-1.90509e-07
-2.08819e-07
-1.85897e-07
-2.22439e-07
-1.81359e-07
-2.35698e-07
-1.76908e-07
-2.48616e-07
-1.72556e-07
-2.61214e-07
-1.68313e-07
-2.73516e-07
-1.64193e-07
-2.85544e-07
-1.60205e-07
-2.97321e-07
-1.56363e-07
-3.08874e-07
-1.52679e-07
-3.20225e-07
-1.49169e-07
-3.31392e-07
-1.45863e-07
-3.42405e-07
-1.42811e-07
-3.53277e-07
-1.39973e-07
-3.64002e-07
-1.37461e-07
-3.74542e-07
-1.35357e-07
-3.84603e-07
-1.34004e-07
-3.95128e-07
-1.3923e-07
-4.06153e-07
-1.4521e-07
-4.1774e-07
-1.52006e-07
-4.29964e-07
-1.59687e-07
-4.42908e-07
-1.68353e-07
-4.56655e-07
-1.78141e-07
-4.71295e-07
-1.89231e-07
-4.86927e-07
-2.01849e-07
-5.03662e-07
-2.1627e-07
-5.21624e-07
-2.32831e-07
-5.40961e-07
-2.52007e-07
-5.61894e-07
-2.74181e-07
-5.84718e-07
-2.99347e-07
-6.09796e-07
-3.26861e-07
-6.37522e-07
-3.55017e-07
-6.68182e-07
-3.8084e-07
-7.01723e-07
-4.00717e-07
-7.37582e-07
-4.11938e-07
-7.74792e-07
-4.14002e-07
-8.12317e-07
-4.08389e-07
-8.49318e-07
-3.9729e-07
-8.85217e-07
-3.82576e-07
-9.19643e-07
-3.65528e-07
-9.52366e-07
-3.46898e-07
-9.8323e-07
-3.27094e-07
-1.01212e-06
-3.06342e-07
-1.03895e-06
-2.84773e-07
-1.06366e-06
-2.62477e-07
-1.08617e-06
-2.39523e-07
-1.10643e-06
-2.15975e-07
-1.12441e-06
-1.9189e-07
-1.14007e-06
-1.67329e-07
-1.15337e-06
-1.42352e-07
-1.16429e-06
-1.1702e-07
-1.17282e-06
-9.13864e-08
-1.17892e-06
-6.54959e-08
-1.18259e-06
-3.93901e-08
-1.31439e-08
6.57559e-07
-1.04455e-08
6.54648e-07
-3.12284e-08
6.49817e-07
-5.18346e-08
6.4309e-07
-7.22006e-08
6.34493e-07
-9.22672e-08
6.2406e-07
-1.11974e-07
6.11832e-07
-1.31254e-07
5.97855e-07
-1.50037e-07
5.82183e-07
-1.6824e-07
5.64882e-07
-1.85765e-07
5.4603e-07
-2.02486e-07
5.25721e-07
-2.18246e-07
5.04069e-07
-2.32841e-07
4.81217e-07
-2.46018e-07
4.57332e-07
-2.57486e-07
4.32612e-07
-2.66944e-07
4.07279e-07
-2.74137e-07
3.81562e-07
-2.78925e-07
3.55686e-07
-2.81341e-07
3.29849e-07
-2.8161e-07
3.0421e-07
-2.80111e-07
2.78887e-07
-2.77297e-07
2.53956e-07
-2.73609e-07
2.29459e-07
-2.6942e-07
2.05418e-07
-2.65e-07
1.81837e-07
-2.60525e-07
1.58715e-07
-2.56092e-07
1.36047e-07
-2.51741e-07
1.13827e-07
-2.47478e-07
9.20528e-08
-2.43288e-07
7.07202e-08
-2.39149e-07
4.98286e-08
-2.35037e-07
2.9378e-08
-2.30933e-07
9.36838e-09
-2.26826e-07
-1.02002e-08
-2.22709e-07
-2.93279e-08
-2.18579e-07
-4.8013e-08
-2.14402e-07
-6.62543e-08
-2.10177e-07
-8.40518e-08
-2.05909e-07
-1.01407e-07
-2.01607e-07
-1.18323e-07
-1.97281e-07
-1.34805e-07
-1.92941e-07
-1.50858e-07
-1.88598e-07
-1.66492e-07
-1.84267e-07
-1.81716e-07
-1.79958e-07
-1.9654e-07
-1.75685e-07
-2.10978e-07
-1.7146e-07
-2.25044e-07
-1.67294e-07
-2.38753e-07
-1.632e-07
-2.52122e-07
-1.59187e-07
-2.65169e-07
-1.55267e-07
-2.77912e-07
-1.5145e-07
-2.90371e-07
-1.47747e-07
-3.02567e-07
-1.44168e-07
-3.1452e-07
-1.40726e-07
-3.26253e-07
-1.37437e-07
-3.37783e-07
-1.34333e-07
-3.4914e-07
-1.31454e-07
-3.60341e-07
-1.28772e-07
-3.71403e-07
-1.26399e-07
-3.82334e-07
-1.24427e-07
-3.92514e-07
-1.23777e-07
-4.03215e-07
-1.28523e-07
-4.14446e-07
-1.33972e-07
-4.26258e-07
-1.40186e-07
-4.38713e-07
-1.47223e-07
-4.51884e-07
-1.55172e-07
-4.6585e-07
-1.64164e-07
-4.807e-07
-1.74368e-07
-4.96535e-07
-1.85999e-07
-5.13472e-07
-1.99314e-07
-5.31644e-07
-2.14637e-07
-5.51217e-07
-2.32408e-07
-5.72425e-07
-2.52943e-07
-5.95561e-07
-2.76177e-07
-6.20965e-07
-3.01422e-07
-6.48968e-07
-3.26979e-07
-6.7975e-07
-3.50026e-07
-7.13144e-07
-3.67297e-07
-7.48529e-07
-3.76534e-07
-7.84977e-07
-3.77542e-07
-8.21554e-07
-3.71805e-07
-8.57526e-07
-3.61315e-07
-8.92391e-07
-3.47709e-07
-9.25829e-07
-3.3209e-07
-9.5763e-07
-3.15096e-07
-9.87651e-07
-2.97073e-07
-1.01579e-06
-2.78208e-07
-1.04194e-06
-2.58614e-07
-1.06605e-06
-2.38366e-07
-1.08805e-06
-2.17526e-07
-1.10788e-06
-1.96146e-07
-1.12549e-06
-1.74279e-07
-1.14084e-06
-1.51978e-07
-1.1539e-06
-1.29297e-07
-1.16462e-06
-1.06291e-07
-1.173e-06
-8.301e-08
-1.179e-06
-5.94931e-08
-1.18262e-06
-3.57789e-08
-1.19378e-08
6.57565e-07
-9.47654e-09
6.54669e-07
-2.83324e-08
6.49863e-07
-4.70288e-08
6.4317e-07
-6.55079e-08
6.34619e-07
-8.37162e-08
6.24244e-07
-1.01598e-07
6.12085e-07
-1.19095e-07
5.98189e-07
-1.36142e-07
5.82613e-07
-1.52664e-07
5.6542e-07
-1.68572e-07
5.46688e-07
-1.83755e-07
5.26511e-07
-1.98069e-07
5.05e-07
-2.11331e-07
4.82295e-07
-2.23313e-07
4.58559e-07
-2.33751e-07
4.33986e-07
-2.42372e-07
4.08793e-07
-2.48945e-07
3.83205e-07
-2.53339e-07
3.57445e-07
-2.55582e-07
3.31707e-07
-2.55875e-07
3.06153e-07
-2.54559e-07
2.80898e-07
-2.52045e-07
2.56019e-07
-2.48733e-07
2.3156e-07
-2.44963e-07
2.07541e-07
-2.40983e-07
1.83967e-07
-2.36953e-07
1.60836e-07
-2.32962e-07
1.3814e-07
-2.29047e-07
1.15875e-07
-2.25214e-07
9.40344e-08
-2.21449e-07
7.26157e-08
-2.17731e-07
5.16168e-08
-2.14039e-07
3.10373e-08
-2.10355e-07
1.08771e-08
-2.06666e-07
-8.86375e-09
-2.02969e-07
-2.81853e-08
-1.99258e-07
-4.70855e-08
-1.95503e-07
-6.55621e-08
-1.91701e-07
-8.36144e-08
-1.87858e-07
-1.01243e-07
-1.8398e-07
-1.18449e-07
-1.80075e-07
-1.35237e-07
-1.76154e-07
-1.51611e-07
-1.72226e-07
-1.67576e-07
-1.68302e-07
-1.83141e-07
-1.64394e-07
-1.98315e-07
-1.60512e-07
-2.13107e-07
-1.56668e-07
-2.27529e-07
-1.52873e-07
-2.41594e-07
-1.49135e-07
-2.55316e-07
-1.45466e-07
-2.68709e-07
-1.41875e-07
-2.81789e-07
-1.38371e-07
-2.94573e-07
-1.34964e-07
-3.07077e-07
-1.31664e-07
-3.19321e-07
-1.28483e-07
-3.31323e-07
-1.25436e-07
-3.43104e-07
-1.22554e-07
-3.54688e-07
-1.1987e-07
-3.66099e-07
-1.17362e-07
-3.77371e-07
-1.15128e-07
-3.88548e-07
-1.1325e-07
-3.98953e-07
-1.13308e-07
-4.09878e-07
-1.17589e-07
-4.21322e-07
-1.22518e-07
-4.33344e-07
-1.28152e-07
-4.46007e-07
-1.34545e-07
-4.59384e-07
-1.4178e-07
-4.73552e-07
-1.49977e-07
-4.88605e-07
-1.59295e-07
-5.04647e-07
-1.69934e-07
-5.21806e-07
-1.82131e-07
-5.40222e-07
-1.96193e-07
-5.60078e-07
-2.12521e-07
-5.81616e-07
-2.3137e-07
-6.05126e-07
-2.52629e-07
-6.3092e-07
-2.75589e-07
-6.59266e-07
-2.98595e-07
-6.90247e-07
-3.19009e-07
-7.23597e-07
-3.33919e-07
-7.58646e-07
-3.41466e-07
-7.945e-07
-3.41675e-07
-8.30309e-07
-3.35989e-07
-8.65424e-07
-3.26196e-07
-8.99407e-07
-3.13724e-07
-9.31977e-07
-2.99519e-07
-9.6295e-07
-2.84122e-07
-9.92197e-07
-2.67826e-07
-1.01962e-06
-2.50788e-07
-1.04513e-06
-2.33105e-07
-1.06865e-06
-2.14841e-07
-1.09013e-06
-1.96048e-07
-1.1095e-06
-1.76773e-07
-1.12672e-06
-1.57062e-07
-1.14173e-06
-1.36961e-07
-1.15451e-06
-1.1652e-07
-1.16502e-06
-9.57862e-08
-1.17322e-06
-7.48053e-08
-1.1791e-06
-5.36121e-08
-1.18264e-06
-3.22411e-08
-1.07565e-08
6.5757e-07
-8.5129e-09
6.5469e-07
-2.54522e-08
6.4991e-07
-4.2249e-08
6.43254e-07
-5.88514e-08
6.34749e-07
-7.52114e-08
6.2443e-07
-9.12795e-08
6.12337e-07
-1.07003e-07
5.98519e-07
-1.22323e-07
5.83028e-07
-1.37174e-07
5.65932e-07
-1.51475e-07
5.47305e-07
-1.65128e-07
5.27239e-07
-1.78004e-07
5.05845e-07
-1.89938e-07
4.83259e-07
-2.00728e-07
4.59642e-07
-2.10135e-07
4.35184e-07
-2.17916e-07
4.10097e-07
-2.2386e-07
3.84605e-07
-2.2785e-07
3.58926e-07
-2.29906e-07
3.33256e-07
-2.30208e-07
3.07754e-07
-2.29061e-07
2.82538e-07
-2.26832e-07
2.57685e-07
-2.23883e-07
2.33239e-07
-2.2052e-07
2.0922e-07
-2.16967e-07
1.85633e-07
-2.13368e-07
1.62475e-07
-2.09806e-07
1.3974e-07
-2.06314e-07
1.1742e-07
-2.02896e-07
9.55085e-08
-1.9954e-07
7.4003e-08
-1.96227e-07
5.29008e-08
-1.92938e-07
3.22009e-08
-1.89656e-07
1.19036e-08
-1.8637e-07
-7.99137e-09
-1.83074e-07
-2.74837e-08
-1.79766e-07
-4.65707e-08
-1.76417e-07
-6.52498e-08
-1.73023e-07
-8.35192e-08
-1.69589e-07
-1.01379e-07
-1.66121e-07
-1.18828e-07
-1.62626e-07
-1.3587e-07
-1.59113e-07
-1.52507e-07
-1.5559e-07
-1.68744e-07
-1.52066e-07
-1.84586e-07
-1.48553e-07
-2.00041e-07
-1.45059e-07
-2.15116e-07
-1.41594e-07
-2.29821e-07
-1.38169e-07
-2.44167e-07
-1.34791e-07
-2.58164e-07
-1.3147e-07
-2.71826e-07
-1.28215e-07
-2.85165e-07
-1.25033e-07
-2.98196e-07
-1.21934e-07
-3.10934e-07
-1.18927e-07
-3.23395e-07
-1.16023e-07
-3.35596e-07
-1.13236e-07
-3.47558e-07
-1.10593e-07
-3.59305e-07
-1.08124e-07
-3.70861e-07
-1.05807e-07
-3.82261e-07
-1.03729e-07
-3.93536e-07
-1.01978e-07
-4.04191e-07
-1.02588e-07
-4.15343e-07
-1.06427e-07
-4.26998e-07
-1.10851e-07
-4.39221e-07
-1.15917e-07
-4.5208e-07
-1.21672e-07
-4.65648e-07
-1.28195e-07
-4.80011e-07
-1.35597e-07
-4.95263e-07
-1.44023e-07
-5.11516e-07
-1.53657e-07
-5.28904e-07
-1.64717e-07
-5.47579e-07
-1.77488e-07
-5.67736e-07
-1.92329e-07
-5.89626e-07
-2.09442e-07
-6.13528e-07
-2.28685e-07
-6.39726e-07
-2.49347e-07
-6.68424e-07
-2.69856e-07
-6.99614e-07
-2.87782e-07
-7.32943e-07
-3.0056e-07
-7.67712e-07
-3.06677e-07
-8.03064e-07
-3.06311e-07
-8.38222e-07
-3.00823e-07
-8.7261e-07
-2.91805e-07
-9.05841e-07
-2.80491e-07
-9.37667e-07
-2.67692e-07
-9.67923e-07
-2.53866e-07
-9.96491e-07
-2.39258e-07
-1.02327e-06
-2.24004e-07
-1.0482e-06
-2.08184e-07
-1.07118e-06
-1.91853e-07
-1.09218e-06
-1.75056e-07
-1.11112e-06
-1.57834e-07
-1.12795e-06
-1.40226e-07
-1.14264e-06
-1.22274e-07
-1.15514e-06
-1.0402e-07
-1.16542e-06
-8.55074e-08
-1.17345e-06
-6.67762e-08
-1.1792e-06
-4.78566e-08
-1.18267e-06
-2.87787e-08
-9.60066e-09
6.57575e-07
-7.5545e-09
6.5471e-07
-2.25873e-08
6.49956e-07
-3.74942e-08
6.43334e-07
-5.22294e-08
6.34873e-07
-6.67504e-08
6.24606e-07
-8.10134e-08
6.12575e-07
-9.49716e-08
5.98826e-07
-1.08574e-07
5.83413e-07
-1.21761e-07
5.664e-07
-1.34462e-07
5.47862e-07
-1.46591e-07
5.2789e-07
-1.58032e-07
5.06593e-07
-1.68642e-07
4.84103e-07
-1.78238e-07
4.60579e-07
-1.86613e-07
4.36208e-07
-1.93547e-07
4.112e-07
-1.98854e-07
3.85776e-07
-2.02428e-07
3.60153e-07
-2.04286e-07
3.34525e-07
-2.04585e-07
3.09054e-07
-2.03593e-07
2.83857e-07
-2.01638e-07
2.59011e-07
-1.99041e-07
2.34562e-07
-1.96074e-07
2.1053e-07
-1.92937e-07
1.86919e-07
-1.89761e-07
1.63727e-07
-1.86616e-07
1.40946e-07
-1.83534e-07
1.18568e-07
-1.8052e-07
9.6587e-08
-1.77561e-07
7.49989e-08
-1.7464e-07
5.38009e-08
-1.71741e-07
3.29922e-08
-1.68848e-07
1.25728e-08
-1.65951e-07
-7.45718e-09
-1.63045e-07
-2.70972e-08
-1.60127e-07
-4.63442e-08
-1.57171e-07
-6.5195e-08
-1.54173e-07
-8.3647e-08
-1.51138e-07
-1.01699e-07
-1.4807e-07
-1.1935e-07
-1.44976e-07
-1.366e-07
-1.41863e-07
-1.53452e-07
-1.38739e-07
-1.69909e-07
-1.35611e-07
-1.85974e-07
-1.32489e-07
-2.01654e-07
-1.29381e-07
-2.16954e-07
-1.26296e-07
-2.31882e-07
-1.23242e-07
-2.46447e-07
-1.20227e-07
-2.60659e-07
-1.1726e-07
-2.74528e-07
-1.14347e-07
-2.88065e-07
-1.11497e-07
-3.01284e-07
-1.08717e-07
-3.14197e-07
-1.06015e-07
-3.2682e-07
-1.03402e-07
-3.39167e-07
-1.0089e-07
-3.51258e-07
-9.85026e-08
-3.63117e-07
-9.62661e-08
-3.74764e-07
-9.41604e-08