/*--------------------------------*- C++ -*----------------------------------*\
  =========                 |
  \\      /  F ield         | OpenFOAM: The Open Source CFD Toolbox
   \\    /   O peration     | Website:  https://openfoam.org
    \\  /    A nd           | Version:  8
     \\/     M anipulation  |
\*---------------------------------------------------------------------------*/
FoamFile
{
    version     2.0;
    format      ascii;
    class       volScalarField;
    location    "720/fluid";
    object      Qdot;
}
// * * * * * * * * * * * * * * * * * * * * * * * * * * * * * * * * * * * * * //

dimensions      [1 -1 -3 0 0 0 0];

internalField   nonuniform List<scalar> 
4000
(
0
-2.79289e-07
6.1616e-21
-6.12734e-12
-3.71675e-16
1.61936e-11
-2.71909e-11
-5.59392e-11
3.56416e-07
0
-3.71322e-07
-3.77507e-07
-3.83518e-07
0
1.01013e-09
-3.4251e-17
6.00329e-14
-4.05578e-07
2.40474e-08
3.05094e-07
4.03178e-06
5.55311e-05
0.000659752
0.00650141
0.0522951
0.34277
1.84733
8.30508
31.6593
104.001
298.768
760.109
1731.61
3568.35
6711.43
11647.1
18898.1
29058
42930.5
61695.8
87039.2
121203
167104
228601
310820
420667
567322
762529
1.02269e+06
1.36866e+06
1.82784e+06
2.43615e+06
3.24078e+06
4.30372e+06
5.70663e+06
7.5574e+06
9.99931e+06
1.31809e+07
1.73359e+07
2.29838e+07
3.04929e+07
7.03057e+07
3.78279e+08
2.94993e+07
2.12402e+07
1.51074e+07
1.05945e+07
7.31135e+06
4.95536e+06
3.29263e+06
2.14355e+06
1.37203e+06
877622
562722
148496
11021.4
301.644
4.24346
0.0401862
0.000411753
7.80612e-06
3.69886e-07
4.19103e-08
9.22491e-09
2.89563e-09
1.15765e-09
4.60178e-10
1.69304e-10
8.49625e-11
3.31286e-11
8.04517e-12
5.86251e-12
2.21492e-12
1.06178e-12
4.42266e-13
1.66365e-13
6.67536e-14
2.52175e-14
8.4514e-15
1.47664e-15
-3.72271e-13
2.04735e-17
0
3.0289e-07
1.55272e-11
-1.30454e-11
5.98451e-11
0
0
0
2.8675e-10
0
3.7178e-07
2.02884e-18
-8.19779e-18
-3.31268e-17
-2.45441e-09
-2.95565e-15
2.23252e-08
4.77901e-07
3.85036e-06
5.02218e-05
0.000599551
0.00595343
0.0484269
0.32163
1.75756
8.00998
30.9318
102.835
298.658
767.236
1761.9
3653.44
6905.28
12020.1
19528.7
30018.3
44275.2
63453.1
89209.2
123754
170000
231819
314376
424572
571060
767070
1.02814e+06
1.37531e+06
1.83622e+06
2.4472e+06
3.256e+06
4.32558e+06
5.73912e+06
7.60692e+06
1.00759e+07
1.32987e+07
1.75182e+07
2.32731e+07
3.09492e+07
1.1218e+08
3.41395e+08
2.93438e+07
2.10524e+07
1.49235e+07
1.04297e+07
7.1709e+06
4.84018e+06
3.20153e+06
2.07444e+06
1.32262e+06
846077
516302
110822
6579.05
155.631
1.97412
0.0183355
0.000206623
4.67472e-06
2.66406e-07
3.46865e-08
8.62193e-09
2.63731e-09
1.10812e-09
4.08346e-10
1.62938e-10
7.46646e-11
3.12115e-11
1.32702e-11
6.63408e-12
2.41889e-12
9.87197e-13
4.37574e-13
1.651e-13
6.9253e-14
-5.36959e-12
8.10795e-15
1.47689e-15
3.71762e-13
2.92667e-21
0
0
0
1.57752e-11
-3.27137e-07
0
0
2.48595e-10
0
0
5.67893e-10
1.95459e-18
-2.09713e-09
1.89913e-09
4.27681e-09
-2.92864e-15
2.62789e-08
2.66206e-07
3.63247e-06
4.72446e-05
0.000560115
0.0055791
0.0457251
0.30678
1.69612
7.8265
30.6048
103.006
302.707
786.333
1823.31
3809.12
7245.33
12664.9
20617.3
31689.6
46651.2
66630.6
93262.3
128736
175993
238957
322827
434212
582935
781398
1.04577e+06
1.39737e+06
1.86431e+06
2.48368e+06
3.30441e+06
4.39125e+06
5.83014e+06
7.73551e+06
1.02605e+07
1.35627e+07
1.79009e+07
2.38347e+07
3.17622e+07
1.84045e+08
2.73425e+08
2.94169e+07
2.09575e+07
1.47517e+07
1.02363e+07
6.98669e+06
4.68046e+06
3.07224e+06
1.97624e+06
1.25366e+06
803908
438125
73020
3487.18
73.1561
0.877371
0.00847984
0.00010961
2.97652e-06
2.00438e-07
2.88683e-08
7.34091e-09
2.53924e-09
9.57688e-10
3.67866e-10
1.73402e-10
7.55645e-11
3.1232e-11
1.29355e-11
6.48816e-12
2.59055e-12
1.07874e-12
6.18493e-12
1.63629e-13
-5.43845e-12
2.81173e-14
8.84417e-15
1.47876e-15
-4.86384e-18
0
0
0
0
3.14644e-07
0
3.28527e-07
0
0
0
0
-3.50138e-07
9.06206e-10
-3.54452e-07
2.26268e-09
4.14193e-09
-2.85792e-15
3.00922e-08
2.5744e-07
3.62439e-06
4.44896e-05
0.000530088
0.00531644
0.0439677
0.298139
1.66744
7.78623
30.8121
104.923
311.841
818.802
1917.36
4036.44
7717.24
13542.3
22081.1
33921.4
49816.2
70874.9
98713.9
135536
184344
248978
334553
448623
601461
804920
1.07565e+06
1.43555e+06
1.91351e+06
2.5477e+06
3.3886e+06
4.50316e+06
5.98044e+06
7.93928e+06
1.0539e+07
1.3936e+07
1.84058e+07
2.45345e+07
3.27386e+07
2.70111e+08
1.89752e+08
2.93954e+07
2.07746e+07
1.45001e+07
9.97473e+06
6.74817e+06
4.48049e+06
2.91536e+06
1.8608e+06
1.17524e+06
757177
348244
44607.5
1759.96
33.011
0.37679
0.00380704
5.64552e-05
1.83884e-06
1.44805e-07
2.35311e-08
6.53926e-09
2.16278e-09
8.17494e-10
3.58994e-10
1.5509e-10
5.68302e-11
2.87316e-11
1.35055e-11
5.52888e-12
2.24866e-12
8.56991e-13
3.76976e-13
5.75908e-12
6.23587e-14
5.36582e-12
8.84899e-15
1.48292e-15
0
0
-6.3996e-12
1.321e-11
-1.49769e-11
0
3.16674e-07
3.22365e-07
0
-1.06593e-10
0
0
-1.83156e-18
2.56716e-14
1.08721e-09
-3.45828e-07
3.4873e-07
-3.52224e-07
8.18264e-09
4.28869e-07
3.10709e-06
4.30754e-05
0.000512669
0.00517373
0.0431521
0.295525
1.67057
7.88708
31.5567
108.627
326.253
865.22
2044.69
4334.45
8319.31
14641.7
23889.1
36646.2
53646
75983.6
105261
143723
194284
261018
349714
468504
626570
836935
1.11677e+06
1.48873e+06
1.98271e+06
2.63828e+06
3.50784e+06
4.66092e+06
6.1901e+06
8.21897e+06
1.09073e+07
1.44084e+07
1.90371e+07
2.53935e+07
3.38865e+07
3.5401e+08
1.03929e+08
2.9103e+07
2.0362e+07
1.40762e+07
9.59382e+06
6.4324e+06
4.23381e+06
2.73236e+06
1.73215e+06
1.09093e+06
705562
248735
26272.2
885.332
15.1215
0.16774
0.00180466
3.08855e-05
1.19648e-06
1.07784e-07
1.92711e-08
5.76771e-09
1.98677e-09
7.98592e-10
3.51762e-10
1.49506e-10
6.64177e-11
2.82194e-11
1.25207e-11
5.21723e-12
2.31626e-12
9.06255e-13
3.74197e-13
1.43579e-13
4.69518e-12
2.50038e-14
8.11884e-15
-5.05382e-12
-4.84985e-18
2.89118e-21
-2.83415e-07
2.91815e-07
0
3.59605e-16
0
0
0
-3.24086e-07
8.81592e-19
-9.43451e-10
-4.25421e-10
-1.79156e-18
-1.05559e-09
-3.62099e-17
3.8786e-09
-2.79669e-15
-3.36478e-07
2.40053e-07
3.06406e-06
4.18649e-05
0.000504155
0.00512554
0.0431218
0.298186
1.70283
8.12269
32.8337
114.161
346.203
926.55
2207.73
4707.75
9059.33
15970.3
26041.9
39848.1
58100.5
81893.5
112784
152865
205355
275249
368503
492339
657072
876286
1.1679e+06
1.55556e+06
2.07055e+06
2.75424e+06
3.66143e+06
4.86479e+06
6.4608e+06
8.57771e+06
1.13842e+07
1.50305e+07
1.98539e+07
2.64348e+07
3.51673e+07
4.24399e+08
3.95013e+07
2.77182e+07
1.92738e+07
1.32481e+07
8.97988e+06
5.98825e+06
3.92063e+06
2.51793e+06
1.59067e+06
1.00243e+06
642857
185806
15280
453.132
7.16046
0.0782323
0.000901901
1.77339e-05
7.99247e-07
8.34655e-08
1.60431e-08
5.01774e-09
1.74524e-09
7.84268e-10
3.27756e-10
1.48383e-10
5.79323e-11
2.93204e-11
1.14291e-11
5.62466e-12
2.08546e-12
8.88257e-13
-4.97122e-13
4.82842e-12
5.58717e-14
2.19756e-14
7.39412e-15
1.31357e-15
-1.6583e-13
0
3.48125e-12
1.69909e-16
-1.7388e-16
3.01779e-07
2.46959e-11
0
0
1.25438e-10
4.57828e-10
3.21312e-07
5.08926e-10
0
2.43313e-14
-3.24962e-07
-2.82401e-16
-2.81061e-15
7.63972e-09
2.47102e-07
2.86276e-06
4.17456e-05
0.000503769
0.00515937
0.0437805
0.30558
1.76201
8.48706
34.6373
121.563
371.972
1003.9
2409.69
5166.71
9960.55
17534.6
28534.6
43492.6
63085.7
88361.6
120783
162890
218565
292001
389374
518812
691077
920399
1.2256e+06
1.63162e+06
2.17149e+06
2.88907e+06
3.84257e+06
5.1093e+06
6.79198e+06
9.02718e+06
1.19969e+07
1.58296e+07
2.10653e+07
2.80187e+07
3.72151e+07
4.50505e+08
3.49121e+07
2.48198e+07
1.7404e+07
1.2024e+07
8.1726e+06
5.45579e+06
3.57201e+06
2.29328e+06
1.44985e+06
918478
571976
135438
9059.69
241.728
3.58532
0.03907
0.000485382
1.09002e-05
5.72137e-07
6.54241e-08
1.33634e-08
4.51961e-09
1.69773e-09
6.88985e-10
2.86903e-10
1.32709e-10
5.70505e-11
2.32691e-11
1.05429e-11
5.5164e-12
2.15693e-12
8.81076e-13
3.55599e-13
1.4235e-13
8.49423e-13
-7.53425e-13
7.40466e-15
1.18858e-15
0
1.99714e-17
0
-1.68352e-16
1.71891e-16
0
0
3.0554e-07
0
0
-3.1155e-07
0
0
0
1.80275e-09
-3.74009e-17
-2.93746e-16
3.21667e-07
-3.06312e-07
2.46457e-07
3.05644e-06
4.20699e-05
0.000510551
0.00526684
0.0450721
0.317443
1.84737
8.98053
36.9843
130.945
404.053
1098.93
2655.04
5717.02
11022.7
19343.4
31366.3
47559.6
68502.9
95127.6
129278
173895
232198
309012
410765
545966
725863
965348
1.28417e+06
1.70857e+06
2.2735e+06
3.02558e+06
4.02712e+06
5.36166e+06
7.14156e+06
9.51861e+06
1.26854e+07
1.68178e+07
2.25291e+07
3.02135e+07
4.05709e+07
4.38356e+08
3.20719e+07
2.28042e+07
1.6002e+07
1.10633e+07
7.52321e+06
5.0235e+06
3.28967e+06
2.11365e+06
1.34019e+06
856474
505264
99326.2
5609.32
136.728
1.92302
0.0210539
0.000281745
7.14815e-06
4.24511e-07
5.36059e-08
1.23781e-08
3.84194e-09
1.57753e-09
6.82481e-10
2.93766e-10
1.24014e-10
5.68899e-11
2.7037e-11
1.0416e-11
4.27179e-12
1.84391e-12
7.84112e-13
-4.84494e-13
1.28176e-13
4.95426e-14
2.04593e-14
6.68058e-15
-5.03828e-12
4.82799e-18
-2.70728e-07
0
-5.71201e-12
0
0
0
-4.83049e-11
-3.02231e-07
-2.85317e-15
-3.0444e-07
0
0
-9.63795e-10
-7.84281e-10
-3.62115e-17
1.93625e-09
-2.8676e-15
2.13276e-08
3.99816e-07
3.2851e-06
4.30986e-05
0.000523491
0.00544153
0.0469559
0.333607
1.9587
9.60592
39.9027
142.464
443.102
1213.85
2949.58
6370.04
12258.8
21398.3
34501.8
51900
74094.6
102236
138420
185067
245885
325896
431750
572238
758965
1.00729e+06
1.33761e+06
1.77701e+06
2.3616e+06
3.13953e+06
4.17522e+06
5.55495e+06
7.39463e+06
9.85045e+06
1.31161e+07
1.73979e+07
2.33199e+07
3.12925e+07
7.85208e+07
4.02861e+08
3.03829e+07
2.15687e+07
1.51129e+07
1.04345e+07
7.08648e+06
4.72606e+06
3.09174e+06
1.98589e+06
1.26161e+06
813028
443203
73874.9
3636.89
82.0852
1.10634
0.0122407
0.000176048
4.99389e-06
3.3231e-07
4.67161e-08
1.10102e-08
3.66677e-09
1.5047e-09
5.98197e-10
2.52278e-10
1.21555e-10
5.25322e-11
2.20288e-11
9.48823e-12
9.09603e-12
1.6274e-12
1.60022e-12
3.15423e-13
1.34308e-13
5.54281e-14
2.04397e-14
6.68651e-15
1.23689e-15
-4.82099e-18
0
2.77532e-12
-5.65942e-12
1.67959e-16
3.40335e-16
6.87502e-16
4.74407e-11
1.39187e-15
-1.17474e-10
2.35083e-10
0
4.68823e-10
-2.95532e-07
-6.37182e-18
-1.86734e-09
-1.86997e-09
-2.92511e-15
1.67605e-08
2.41246e-07
3.21899e-06
4.419e-05
0.000542344
0.00567954
0.0494093
0.354021
2.09642
10.3691
43.4336
156.329
489.961
1351.4
3300.64
7140.37
13688.4
23721.6
37937.8
56501.8
80042.9
109883
147693
196255
259427
342371
451901
596982
789434
1.04487e+06
1.38399e+06
1.83425e+06
2.43217e+06
3.22634e+06
4.28158e+06
5.68444e+06
7.55076e+06
1.00359e+07
1.33218e+07
1.76087e+07
2.35121e+07
3.14054e+07
1.42576e+08
3.45478e+08
2.94635e+07
2.08738e+07
1.46009e+07
1.00664e+07
6.82848e+06
4.55018e+06
2.97569e+06
1.91261e+06
1.21867e+06
791451
394780
56621.9
2488.58
52.4484
0.68143
0.00764827
0.000117718
3.68614e-06
2.69505e-07
4.07121e-08
1.0058e-08
3.51253e-09
1.36524e-09
6.31255e-10
2.72729e-10
1.21664e-10
4.89371e-11
2.15679e-11
9.72499e-12
4.13865e-12
1.61214e-12
-1.22894e-13
2.88985e-13
1.14891e-13
4.65769e-14
1.95953e-14
5.96197e-15
5.03052e-12
2.62168e-07
2.83095e-21
0
0
-1.66013e-16
0
-2.31688e-11
0
2.9011e-07
0
0
-7.80072e-19
0
-1.54771e-18
-2.8563e-07
-4.29102e-14
-1.46757e-09
-3.00767e-15
1.97404e-08
1.06693e-07
3.49449e-06
4.57518e-05
0.000566646
0.00597692
0.0524117
0.378647
2.26105
11.2766
47.6233
172.778
545.601
1514.77
3716.14
8040.18
15309.8
26243.7
41560.1
61383.3
86432
117657
157019
207403
272788
358437
471270
620350
817602
1.07875e+06
1.42456e+06
1.88257e+06
2.48925e+06
3.29306e+06
4.3584e+06
5.77102e+06
7.64529e+06
1.01336e+07
1.34096e+07
1.76748e+07
2.35343e+07
3.13415e+07
1.99611e+08
2.91043e+08
2.88518e+07
2.04169e+07
1.42656e+07
9.82522e+06
6.65896e+06
4.43423e+06
2.89914e+06
1.86469e+06
1.19132e+06
778950
354451
44652.9
1787.57
35.522
0.447985
0.00510528
8.36901e-05
2.86117e-06
2.25828e-07
3.70447e-08
9.4923e-09
3.25999e-09
1.39517e-09
5.71283e-10
2.19347e-10
9.98706e-11
5.09473e-11
2.12627e-11
8.82327e-12
3.52778e-12
8.11381e-13
6.62899e-13
2.62879e-13
1.14301e-13
4.61107e-14
1.88995e-14
5.96292e-15
1.06361e-15
0
-6.72474e-13
5.73837e-21
0
-2.79193e-07
0
5.08071e-11
-1.9167e-19
-1.12449e-10
-2.83754e-07
-2.8264e-07
0
0
-8.79485e-10
8.74524e-10
-2.76777e-07
-1.41361e-09
-3.10492e-15
1.8944e-08
2.69669e-07
3.50294e-06
4.791e-05
0.000595577
0.00632905
0.0559373
0.407406
2.45284
12.3341
52.5156
192.053
611.065
1707.56
4205.79
9087.41
17125.9
28953
45424.8
66623.2
92915.5
125464
166319
218467
285975
374182
490067
642751
844198
1.11015e+06
1.46136e+06
1.92525e+06
2.53812e+06
3.34803e+06
4.41872e+06
5.83484e+06
7.70827e+06
1.01887e+07
1.34476e+07
1.76851e+07
2.34898e+07
3.1206e+07
2.48696e+08
2.44377e+08
2.82924e+07
2.00311e+07
1.40021e+07
9.64748e+06
6.54081e+06
4.35732e+06
2.85069e+06
1.836e+06
1.17689e+06
774459
313999
36316.8
1344.7
25.398
0.312676
0.00362214
6.28188e-05
2.32023e-06
1.98296e-07
3.31058e-08
8.92796e-09
3.1856e-09
1.2734e-09
5.59985e-10
2.3907e-10
1.10156e-10
4.40699e-11
2.09501e-11
8.78474e-12
3.48636e-12
5.97323e-12
7.04968e-13
2.6099e-13
1.20209e-13
4.59275e-14
1.73946e-14
5.96052e-15
1.06545e-15
-3.66461e-13
0
0
0
0
2.77582e-07
-2.75537e-11
-1.31024e-15
1.30793e-15
-2.77094e-07
0
0
0
2.69777e-07
-8.64342e-18
-4.00741e-17
-2.63892e-07
-3.20742e-15
2.4193e-08
2.72618e-07
3.54981e-06
5.02663e-05
0.000628623
0.00673022
0.0599412
0.440068
2.67114
13.5426
58.1369
214.339
687.218
1932.69
4775.68
10278.2
19082.4
31797.8
49499.3
71850.4
99305.1
133120
175429
229311
298894
389570
508356
664396
869661
1.13986e+06
1.49569e+06
1.9644e+06
2.582e+06
3.39609e+06
4.46934e+06
5.88422e+06
7.75207e+06
1.02228e+07
1.34608e+07
1.766e+07
2.34001e+07
3.10114e+07
2.89984e+08
2.05587e+08
2.77332e+07
1.96611e+07
1.37598e+07
9.49114e+06
6.44219e+06
4.29704e+06
2.81562e+06
1.81746e+06
1.16944e+06
773276
280825
30377.8
1054.37
19.0745
0.230383
0.0027132
4.9486e-05
1.95047e-06
1.78101e-07
3.19745e-08
8.72214e-09
3.11278e-09
1.15461e-09
5.22937e-10
2.53442e-10
1.02256e-10
4.33307e-11
1.54788e-11
9.00053e-12
3.44324e-12
1.56241e-12
6.50875e-13
2.82665e-13
-5.07814e-12
-7.15379e-13
1.735e-14
5.59441e-15
-5.01416e-12
-6.8819e-22
0
0
0
0
-2.45479e-11
0
0
1.27999e-15
0
0
-7.62816e-10
-1.41937e-18
0
2.57384e-07
-4.40753e-17
-1.30532e-09
-3.32308e-15
1.73428e-08
4.14665e-07
3.74141e-06
5.28222e-05
0.000665103
0.00717014
0.0643441
0.476126
2.91352
14.894
64.4747
239.688
774.554
2192.13
5428.92
11594
21142.2
34682.4
53404.2
76764.6
105280
140300
184031
239624
311245
404321
525883
685084
893874
1.16791e+06
1.52777e+06
2.00053e+06
2.62167e+06
3.43773e+06
4.51084e+06
5.92387e+06
7.78714e+06
1.02438e+07
1.34527e+07
1.76075e+07
2.32748e+07
3.0772e+07
3.23992e+08
1.74222e+08
2.71728e+07
1.92999e+07
1.35313e+07
9.34993e+06
6.35758e+06
4.24848e+06
2.78961e+06
1.80536e+06
1.16596e+06
772725
264142
26077.9
858.729
14.9905
0.178408
0.00213475
4.06937e-05
1.69518e-06
1.61704e-07
2.9138e-08
8.50323e-09
3.03679e-09
1.21628e-09
4.91225e-10
2.29569e-10
1.00301e-10
4.54912e-11
1.88204e-11
8.12661e-12
3.01778e-12
6.59918e-12
6.44474e-13
-5.01115e-13
1.06968e-13
-4.33046e-12
1.72973e-14
5.94685e-15
9.78368e-16
0
2.63989e-07
2.66543e-07
1.13185e-20
2.69366e-07
0
0
0
-1.91143e-10
0
0
0
-3.27857e-10
-2.712e-18
-5.35456e-18
-4.7641e-17
1.53748e-09
-3.42665e-15
2.75632e-08
2.9679e-07
3.95108e-06
5.55306e-05
0.000703357
0.00763402
0.0690117
0.51462
3.17446
16.3635
71.4445
267.904
872.894
2486.4
6164.24
13027.9
23192.6
37201.3
56731.6
80914.2
110365
146504
191608
248861
322454
417821
541996
704120
916112
1.19352e+06
1.55664e+06
2.03199e+06
2.65472e+06
3.47147e+06
4.54437e+06
5.95438e+06
7.8072e+06
1.02446e+07
1.34195e+07
1.75232e+07
2.31086e+07
3.04801e+07
3.51652e+08
1.48939e+08
2.66115e+07
1.89449e+07
1.33129e+07
9.22026e+06
6.28416e+06
4.20973e+06
2.77153e+06
1.79919e+06
1.16646e+06
774486
251186
23031.4
726.344
12.3087
0.144804
0.00175769
3.47923e-05
1.52068e-06
1.50827e-07
2.83413e-08
8.2737e-09
2.95841e-09
1.18622e-09
5.2381e-10
2.24599e-10
9.75765e-11
4.17829e-11
1.92227e-11
8.003e-12
3.35237e-12
-3.55987e-12
-4.46447e-12
2.54647e-13
1.12039e-13
4.2364e-14
1.57956e-14
5.57796e-15
5.00701e-12
0
-2.6288e-07
0
-1.19223e-11
5.35501e-12
-3.12289e-16
0
0
1.22413e-15
-1.84742e-10
0
2.50174e-07
3.17097e-10
6.23987e-10
6.14251e-10
-5.07695e-17
1.47048e-09
2.36974e-09
-2.04974e-07
1.88887e-07
4.15711e-06
5.80693e-05
0.000741633
0.00810025
0.0737346
0.553905
3.44347
17.8959
78.8054
298.1
979.396
2806.68
6950.17
14474.5
24828
38839.6
58869.9
83639.5
113860
150996
197370
256168
331587
429047
555558
720196
934728
1.21446e+06
1.57961e+06
2.05673e+06
2.68118e+06
3.49871e+06
4.56867e+06
5.97032e+06
7.80816e+06
1.02205e+07
1.33548e+07
1.73987e+07
2.28907e+07
3.01221e+07
3.73581e+08
1.29295e+08
2.60472e+07
1.85924e+07
1.30991e+07
9.09582e+06
6.21583e+06
4.17555e+06
2.7573e+06
1.79602e+06
1.16906e+06
776567
241727
20917.7
637.053
10.536
0.12281
0.00150892
3.08051e-05
1.39708e-06
1.42544e-07
2.81383e-08
8.03384e-09
2.87598e-09
1.23974e-09
5.34772e-10
2.19506e-10
1.01792e-10
4.37977e-11
1.81802e-11
7.8764e-12
-1.4228e-12
1.59851e-12
1.41887e-12
-4.81029e-12
1.05454e-13
4.21292e-14
1.57378e-14
5.92455e-15
8.89969e-16
2.59929e-07
1.46785e-12
0
1.54691e-16
0
0
0
0
0
2.35845e-15
-6.66174e-19
6.5436e-19
0
0
-9.89016e-18
-4.85994e-17
-1.14175e-09
-2.18814e-07
2.26366e-08
4.2557e-07
4.12641e-06
6.06008e-05
0.000777245
0.0085396
0.0782231
0.591609
3.70462
19.4032
86.1534
328.724
1089
3138.11
7744.15
15683.4
25509.4
38861
59025.5
84101.1
114853
152787
200208
260278
337152
436206
564375
730676
946825
1.22847e+06
1.59557e+06
2.07433e+06
2.69847e+06
3.51282e+06
4.57609e+06
5.96552e+06
7.78292e+06
1.01627e+07
1.32473e+07
1.72193e+07
2.26027e+07
2.96805e+07
3.90742e+08
1.13141e+08
2.55139e+07
1.82582e+07
1.28981e+07
8.98108e+06
6.15517e+06
4.14735e+06
2.74756e+06
1.79599e+06
1.17354e+06
780764
235487
19514.1
578.192
9.37828
0.108518
0.00134606
2.81473e-05
1.3156e-06
1.37371e-07
2.68984e-08
7.96165e-09
2.86436e-09
1.20588e-09
5.16841e-10
2.2501e-10
1.0502e-10
4.41626e-11
1.85423e-11
7.7467e-12
3.61453e-12
1.48764e-12
6.23892e-13
2.4998e-13
1.10363e-13
4.18808e-14
1.71055e-14
5.55392e-15
-4.99627e-12
-2.5956e-07
0
0
0
1.16445e-11
0
4.58115e-11
1.18549e-15
1.67696e-19
-2.44241e-07
0
2.346e-07
2.29833e-07
-2.24361e-07
2.19464e-07
1.10745e-09
-2.12327e-07
2.62914e-09
2.35146e-08
3.29853e-07
4.41129e-06
6.27783e-05
0.000807716
0.00891683
0.0821094
0.624559
3.93528
20.7503
92.8037
356.773
1189.95
3437.73
8391.7
16240.4
24383
36251
56144.5
81146.2
112061
150390
198392
259188
336891
436849
566116
733681
951240
1.23372e+06
1.60084e+06
2.07824e+06
2.69937e+06
3.50793e+06
4.56112e+06
5.93388e+06
7.72457e+06
1.00625e+07
1.30843e+07
1.69599e+07
2.21902e+07
2.90306e+07
4.08866e+08
1.00281e+08
2.4928e+07
1.78981e+07
1.2684e+07
8.85991e+06
6.0914e+06
4.11775e+06
2.7372e+06
1.79561e+06
1.17753e+06
784699
231969
18659.2
541.565
8.65427
0.0995705
0.00124355
2.64584e-05
1.26193e-06
1.35445e-07
2.69132e-08
7.84051e-09
2.86289e-09
1.17133e-09
5.25674e-10
2.24154e-10
1.03322e-10
4.47419e-11
1.88872e-11
8.3126e-12
3.55968e-12
1.46781e-12
-4.27721e-12
2.47536e-13
1.03804e-13
4.16222e-14
1.56073e-14
5.53981e-15
8.8929e-16
-3.6334e-13
1.90677e-17
2.59206e-07
-1.15789e-11
0
-2.98344e-16
0
0
0
0
-2.32368e-07
0
-1.19363e-18
-2.32591e-18
-9.06769e-18
2.35266e-09
2.97544e-14
4.51038e-09
1.97146e-08
3.33381e-07
4.63808e-06
6.43935e-05
0.000829999
0.00919418
0.0849877
0.649175
4.1093
21.778
97.9385
378.653
1268.59
3658.99
8731.25
15611.8
23733.5
31297.5
49453.9
73930.9
104490
142611
190518
251284
328989
428961
557996
724987
941435
1.22224e+06
1.58676e+06
2.06019e+06
2.67533e+06
3.47495e+06
4.51487e+06
5.86809e+06
7.63014e+06
9.92632e+06
1.28887e+07
1.66806e+07
2.17874e+07
2.84552e+07
4.17134e+08
9.33419e+07
2.43613e+07
1.75425e+07
1.2468e+07
8.7339e+06
6.022e+06
4.08271e+06
2.72205e+06
1.79113e+06
1.17797e+06
786180
230406
18223.4
521.5
8.24683
0.0944912
0.00118513
2.54958e-05
1.23082e-06
1.32607e-07
2.65189e-08
7.8683e-09
2.92262e-09
1.17118e-09
5.33087e-10
2.2403e-10
1.00229e-10
4.25872e-11
1.85167e-11
8.16653e-12
4.3807e-12
1.53559e-12
1.37168e-12
2.45041e-13
1.06052e-13
4.13576e-14
1.55373e-14
5.17001e-15
8.88632e-16
6.82332e-22
0
-1.08563e-20
1.50193e-16
5.09275e-12
-1.00571e-11
8.30226e-20
2.41575e-07
1.59652e-19
0
2.25328e-07
2.18973e-07
0
-2.22889e-18
-8.65514e-18
-5.0472e-17
-9.77031e-10
4.25187e-09
2.06498e-07
3.35995e-07
4.69749e-06
6.5082e-05
0.000841302
0.00933721
0.0864832
0.662074
4.20136
22.3272
100.707
390.422
1308.61
3737.6
8504.48
16054.3
24727.3
32638.8
39226.6
61921.9
91353.8
128273
174847
234067
309908
407563
533765
697233
909261
1.1845e+06
1.54196e+06
2.00637e+06
2.60989e+06
3.39442e+06
4.4146e+06
5.74173e+06
7.46901e+06
9.71838e+06
1.26178e+07
1.63252e+07
2.13096e+07
2.78041e+07
4.21862e+08
9.03421e+07
2.3775e+07
1.71593e+07
1.22208e+07
8.5772e+06
5.92487e+06
4.02416e+06
2.68787e+06
1.77176e+06
1.16688e+06
779643
229306
18076.8
513.667
8.07769
0.092341
0.00116033
2.50892e-05
1.21737e-06
1.32185e-07
2.66131e-08
7.87008e-09
2.90511e-09
1.17616e-09
5.2439e-10
2.2802e-10
1.0569e-10
4.28044e-11
1.87377e-11
8.01848e-12
2.83171e-12
1.42704e-12
6.21521e-13
2.6469e-13
1.07671e-13
4.10874e-14
1.5465e-14
5.35058e-15
4.98498e-12
-4.75257e-18
-1.44928e-12
-2.5738e-07
0
0
2.49873e-07
-2.43414e-11
0
-9.36154e-11
-9.14352e-11
-2.25294e-07
-5.91134e-19
0
6.53472e-10
-8.65511e-18
-5.04718e-17
-3.85007e-16
-3.82215e-15
2.26644e-08
3.34165e-07
4.61496e-06
6.49965e-05
0.000841405
0.0093374
0.0864847
0.662085
4.20143
22.3276
100.708
390.427
1308.63
3737.61
8504.42
16054.3
24727.2
32638.7
39226.5
61920.7
91352.5
128271
174846
234065
309905
407561
533762
697229
909256
1.18449e+06
1.54195e+06
2.00636e+06
2.60988e+06
3.39441e+06
4.41459e+06
5.74171e+06
7.46898e+06
9.71835e+06
1.26178e+07
1.63252e+07
2.13096e+07
2.7804e+07
4.2186e+08
9.03427e+07
2.3775e+07
1.71592e+07
1.22205e+07
8.5768e+06
5.92442e+06
4.02371e+06
2.68749e+06
1.77146e+06
1.16667e+06
779518
229284
18076.1
513.665
8.07779
0.0923428
0.00116035
2.50882e-05
1.21955e-06
1.32677e-07
2.66125e-08
7.86999e-09
2.90511e-09
1.17619e-09
5.35112e-10
2.2802e-10
1.0569e-10
4.72783e-11
1.94699e-11
8.0187e-12
3.69571e-12
1.42704e-12
6.45766e-13
2.6469e-13
1.02078e-13
4.98624e-12
-4.2212e-12
5.15527e-15
8.87889e-16
6.83305e-22
-2.59565e-07
1.09335e-20
-1.15789e-11
0
-2.983e-16
5.89262e-16
0
-1.14004e-15
0
0
6.12245e-19
-2.21711e-07
-5.54823e-10
-1.2054e-09
-2.04867e-07
-1.26848e-09
4.51034e-09
2.65894e-08
4.28311e-07
4.44257e-06
6.4209e-05
0.000830052
0.00919459
0.0849914
0.649202
4.10946
21.7788
97.9423
378.668
1268.64
3659.06
8731.19
15611.2
23733.2
31297.1
49451.7
73928.5
104487
142608
190515
251280
328984
428953
557987
724977
941423
1.22223e+06
1.58675e+06
2.06018e+06
2.67531e+06
3.47492e+06
4.51484e+06
5.86804e+06
7.63008e+06
9.92624e+06
1.28886e+07
1.66805e+07
2.17873e+07
2.8455e+07
4.1713e+08
9.33442e+07
2.43617e+07
1.75433e+07
1.2469e+07
8.73486e+06
6.0228e+06
4.08332e+06
2.72249e+06
1.79142e+06
1.17815e+06
786290
230431
18225.1
521.542
8.24744
0.0944977
0.00118521
2.54956e-05
1.23309e-06
1.33234e-07
2.65187e-08
7.8683e-09
2.85439e-09
1.13621e-09
5.11049e-10
2.29664e-10
1.00229e-10
4.37804e-11
1.91236e-11
8.16675e-12
3.50381e-12
6.4849e-13
6.09272e-13
2.67432e-13
1.08583e-13
4.4187e-14
1.55368e-14
5.52483e-15
8.88632e-16
-6.84279e-22
0
0
-2.60683e-07
-1.16445e-11
-2.57787e-07
-2.55311e-07
-2.5219e-07
1.1682e-15
0
0
0
2.95547e-10
-2.4227e-18
2.20157e-07
-1.10744e-09
2.12325e-07
2.62911e-09
2.82172e-08
3.2985e-07
4.41124e-06
6.27724e-05
0.000807674
0.00891726
0.0821118
0.62457
3.9353
20.7501
92.8024
356.767
1189.95
3437.85
8391.5
16239.4
24380.9
36247.9
56141
81142.6
112058
150387
198389
259186
336890
436852
566122
733688
951247
1.23373e+06
1.60084e+06
2.07824e+06
2.69936e+06
3.50792e+06
4.5611e+06
5.93385e+06
7.72453e+06
1.00624e+07
1.30842e+07
1.69598e+07
2.21901e+07
2.90304e+07
4.08869e+08
1.00276e+08
2.49278e+07
1.78978e+07
1.26838e+07
8.85969e+06
6.09122e+06
4.11761e+06
2.73711e+06
1.79555e+06
1.17751e+06
784695
231977
18660.4
541.608
8.65505
0.0995797
0.00124365
2.64596e-05
1.26429e-06
1.35445e-07
2.69136e-08
7.8405e-09
3.01948e-09
1.17133e-09
5.25674e-10
2.34617e-10
9.73138e-11
4.20289e-11
1.75091e-11
8.3126e-12
3.55968e-12
1.37862e-12
6.61599e-13
5.21714e-12
5.09556e-12
-4.96073e-12
1.56073e-14
5.89579e-15
8.8926e-16
-3.64372e-13
1.92299e-17
0
0
-2.62841e-07
0
-2.59946e-07
2.57491e-07
1.19617e-15
2.51001e-07
-2.46769e-07
-2.42392e-07
-8.94442e-15
-2.51932e-18
2.30288e-07
-4.8599e-17
-2.24168e-07
5.02557e-09
2.48676e-08
3.1824e-07
4.349e-06
6.04903e-05
0.00077731
0.00853997
0.0782254
0.591612
3.70454
19.4022
86.1461
328.685
1088.82
3137.48
7742.74
15680.7
25505.4
38858.4
59023.9
84100.5
114854
152789
200211
260282
337157
436212
564382
730684
946836
1.22848e+06
1.59558e+06
2.07434e+06
2.69849e+06
3.51283e+06
4.5761e+06
5.96553e+06
7.78292e+06
1.01627e+07
1.32473e+07
1.72192e+07
2.26027e+07
2.96804e+07
3.90735e+08
1.13148e+08
2.55139e+07
1.82581e+07
1.28979e+07
8.98097e+06
6.1551e+06
4.14731e+06
2.74754e+06
1.79599e+06
1.17354e+06
780770
235495
19515.3
578.24
9.3792
0.108529
0.00134619
2.81496e-05
1.31559e-06
1.37917e-07
2.69621e-08
7.78765e-09
2.95321e-09
1.12358e-09
4.97994e-10
2.35715e-10
1.05021e-10
4.29198e-11
1.92497e-11
7.74646e-12
-1.3067e-12
1.39734e-12
6.23892e-13
2.72802e-13
1.04642e-13
4.18798e-14
-7.23937e-13
5.55392e-15
8.89715e-16
-4.78041e-18
0
0
1.56191e-16
5.35515e-12
2.38371e-11
0
-9.43068e-11
1.22412e-15
0
0
-6.75361e-19
2.46206e-07
7.6691e-10
-7.72501e-18
-5.07691e-17
2.33702e-07
-3.5464e-15
2.09738e-08
4.21093e-07
4.15241e-06
5.81865e-05
0.000741704
0.00810075
0.0737376
0.55391
3.44338
17.8947
78.7965
298.049
979.161
2805.78
6947.67
14469
24819.6
38830
58860.7
83632.3
113855
150995
197372
256173
331595
429058
555572
720212
934747
1.21448e+06
1.57963e+06
2.05676e+06
2.68122e+06
3.49876e+06
4.56873e+06
5.97038e+06
7.80823e+06
1.02206e+07
1.33548e+07
1.73988e+07
2.28907e+07
3.01222e+07
3.73564e+08
1.29316e+08
2.60476e+07
1.85928e+07
1.30995e+07
9.09621e+06
6.21617e+06
4.17582e+06
2.7575e+06
1.79615e+06
1.16914e+06
776606
241738
20919
637.103
10.537
0.122824
0.00150909
3.0806e-05
1.39821e-06
1.43808e-07
2.74984e-08
7.70962e-09
2.87598e-09
1.23972e-09
5.11049e-10
2.30451e-10
1.01792e-10
4.15311e-11
1.96061e-11
1.28253e-11
-1.32264e-12
1.50706e-12
-4.41671e-12
2.52354e-13
1.05454e-13
3.92465e-14
1.57373e-14
5.56671e-15
7.36099e-13
-1.63933e-13
2.78382e-21
0
-1.13185e-20
-2.41667e-11
0
-4.83065e-11
0
0
-2.48202e-15
0
6.96336e-19
0
1.88895e-14
7.84928e-10
2.45104e-07
-3.51344e-16
-3.43704e-15
2.20504e-08
2.99253e-07
3.95103e-06
5.54329e-05
0.000703569
0.00763481
0.0690164
0.514638
3.17446
16.3628
71.4371
267.855
872.635
2485.25
6159.96
13012.8
23149.9
37171.5
56711.6
80902.1
110359
146502
191611
248867
322463
417834
542014
704143
916141
1.19355e+06
1.55669e+06
2.03204e+06
2.65478e+06
3.47154e+06
4.54447e+06
5.95449e+06
7.80734e+06
1.02447e+07
1.34197e+07
1.75235e+07
2.31088e+07
3.04803e+07
3.51642e+08
1.48954e+08
2.66111e+07
1.89441e+07
1.33119e+07
9.2193e+06
6.28335e+06
4.20911e+06
2.77109e+06
1.7989e+06
1.16628e+06
774392
251174
23032
726.396
12.31
0.144821
0.00175791
3.47959e-05
1.51948e-06
1.49515e-07
2.8341e-08
8.27359e-09
2.78763e-09
1.18619e-09
5.2381e-10
2.24595e-10
1.03964e-10
3.9724e-11
1.85043e-11
8.73471e-12
3.35225e-12
6.61195e-12
6.37796e-13
4.613e-12
1.06228e-13
4.2363e-14
1.57956e-14
5.57796e-15
5.00701e-12
-2.61043e-07
0
-7.8862e-17
0
2.44599e-11
-2.45478e-11
-6.43664e-16
0
0
0
2.68688e-07
0
0
-2.80804e-18
1.47784e-09
-4.4075e-17
-3.84572e-14
-7.92106e-14
2.31235e-08
4.14661e-07
3.7593e-06
5.26896e-05
0.000665227
0.00717113
0.0643522
0.47618
2.91382
14.8956
64.4827
239.727
774.734
2192.92
5432.07
11606.5
21181.7
34709.9
53422.6
76776.6
105288
140307
184039
239634
311257
404336
525903
685109
893906
1.16795e+06
1.52782e+06
2.00059e+06
2.62174e+06
3.43781e+06
4.51093e+06
5.92397e+06
7.78725e+06
1.02439e+07
1.34528e+07
1.76075e+07
2.32748e+07
3.07718e+07
3.23976e+08
1.74238e+08
2.71728e+07
1.93e+07
1.35315e+07
9.35026e+06
6.35795e+06
4.24881e+06
2.78986e+06
1.80552e+06
1.16605e+06
772759
264150
26079.4
858.806
14.9923
0.178434
0.00213507
4.07043e-05
1.69638e-06
1.617e-07
2.91378e-08
8.15975e-09
3.03679e-09
1.30491e-09
5.36255e-10
2.29568e-10
1.00303e-10
4.54921e-11
1.37552e-11
8.12661e-12
3.77189e-12
-3.60387e-12
-1.60555e-13
2.5687e-13
1.06968e-13
-7.1101e-13
1.72978e-14
5.58723e-15
1.06739e-15
0
1.49273e-12
5.69928e-21
2.73473e-07
0
-2.49038e-11
2.78499e-07
0
0
2.60511e-15
2.18032e-10
-5.14254e-15
0
-2.90393e-18
2.00618e-14
-4.00738e-17
2.6692e-07
-3.21308e-15
1.81447e-08
2.72616e-07
3.68195e-06
5.02901e-05
0.000628887
0.00673149
0.0599518
0.440146
2.67164
13.5455
58.1518
214.407
687.496
1933.68
4778.71
10285.7
19095.3
31812.5
49513.4
71862.7
99315.7
133130
175439
229322
298907
389587
508376
664422
869692
1.1399e+06
1.49573e+06
1.96446e+06
2.58206e+06
3.39616e+06
4.46941e+06
5.88429e+06
7.75215e+06
1.02229e+07
1.34609e+07
1.76601e+07
2.34001e+07
3.10113e+07
2.89967e+08
2.05602e+08
2.77334e+07
1.96614e+07
1.37601e+07
9.49139e+06
6.44237e+06
4.29716e+06
2.8157e+06
1.81753e+06
1.1695e+06
773329
280846
30380.8
1054.5
19.0774
0.230423
0.00271367
4.94943e-05
1.95325e-06
1.78099e-07
3.12768e-08
8.72202e-09
3.29158e-09
1.24532e-09
5.02291e-10
2.34391e-10
1.02256e-10
4.63072e-11
2.0627e-11
9.00053e-12
3.82179e-12
1.56238e-12
6.50859e-13
2.82658e-13
1.07671e-13
4.57229e-14
-7.35262e-13
7.51576e-13
5.01612e-12
3.66982e-13
-1.49902e-12
-5.73837e-21
0
0
-2.52603e-11
0
0
0
0
2.23706e-10
-5.28828e-15
2.79525e-07
0
2.76226e-07
-2.75034e-07
-3.15099e-09
6.30152e-09
1.26292e-08
1.31051e-07
3.51564e-06
4.79096e-05
0.000595698
0.00633046
0.0559478
0.407476
2.45325
12.3362
52.5251
192.091
611.206
1708.01
4207
9089.89
17130.6
28960.9
45434.5
66633.5
92925.7
125474
166330
218478
285988
374197
490087
642776
844228
1.11018e+06
1.4614e+06
1.9253e+06
2.53818e+06
3.3481e+06
4.41881e+06
5.83492e+06
7.70834e+06
1.01888e+07
1.34477e+07
1.76851e+07
2.34898e+07
3.12059e+07
2.48698e+08
2.44376e+08
2.82922e+07
2.00306e+07
1.40012e+07
9.64652e+06
6.53988e+06
4.35647e+06
2.84995e+06
1.83537e+06
1.17641e+06
774139
313913
36314
1344.78
25.4015
0.312734
0.00362283
6.28238e-05
2.3202e-06
1.98295e-07
3.34269e-08
9.09078e-09
3.18559e-09
1.36617e-09
5.59985e-10