/*--------------------------------*- C++ -*----------------------------------*\
  =========                 |
  \\      /  F ield         | OpenFOAM: The Open Source CFD Toolbox
   \\    /   O peration     | Website:  https://openfoam.org
    \\  /    A nd           | Version:  8
     \\/     M anipulation  |
\*---------------------------------------------------------------------------*/
FoamFile
{
    version     2.0;
    format      ascii;
    class       volScalarField;
    location    "720/fluid";
    object      rDeltaT;
}
// * * * * * * * * * * * * * * * * * * * * * * * * * * * * * * * * * * * * * //

dimensions      [0 0 -1 0 0 0 0];

internalField   nonuniform List<scalar> 
4000
(
513.501
539.545
564.395
588.198
610.895
632.389
652.551
671.24
688.324
703.704
717.341
729.291
739.732
748.993
757.566
765.953
774.543
783.519
792.782
801.946
810.409
817.478
822.499
824.946
824.495
820.959
814.228
804.27
791.121
774.865
755.624
741.297
759.389
803.852
847.517
890.273
932.039
972.742
1012.33
1050.76
1088
1124.03
1158.85
1192.44
1224.82
1255.98
1285.94
1314.69
1342.26
1368.65
1393.87
1417.93
1440.84
1462.61
1483.22
1502.69
1521
1538.02
1553.75
1568.41
1581.92
2775.84
15157.7
1571.91
1535.44
1494.07
1448.28
1398.6
1345.43
1289.16
1230.21
1169.05
1106.26
1042.35
978.072
914.872
854.758
800.152
754.013
718.975
696.009
683.653
678.646
677.466
677.296
676.379
673.733
669.008
662.238
653.609
643.356
631.714
618.904
605.119
590.523
575.252
559.409
543.06
526.234
508.876
513.026
538.413
562.473
585.141
606.391
626.15
644.325
660.827
675.59
688.599
699.913
709.694
718.226
725.936
733.308
740.814
748.836
757.56
766.899
776.466
785.639
793.678
799.852
803.56
804.35
801.916
796.098
786.854
774.232
758.34
739.326
717.364
715.343
747.799
792.65
836.789
880.111
922.529
963.971
1004.38
1043.72
1081.96
1119.07
1155.06
1189.9
1223.61
1256.18
1287.63
1317.96
1347.18
1375.32
1402.38
1428.38
1453.33
1477.25
1500.15
1522.05
1542.79
1562.42
1581.27
1599.22
4435.21
13698.2
1582.75
1541.51
1496.64
1448.04
1395.79
1340.08
1281.13
1219.23
1154.74
1088.15
1019.88
950.875
883.006
818.912
761.858
715.1
680.965
659.648
648.945
645.323
645.38
646.586
647.394
646.987
644.913
641.021
635.337
627.968
619.058
608.761
597.231
584.611
571.025
556.577
541.334
525.323
508.568
512.325
536.159
558.492
579.292
598.502
616.063
631.921
646.039
658.421
669.127
678.293
686.152
693.036
699.366
705.59
712.162
719.467
727.7
736.791
746.375
755.848
764.475
771.511
776.296
778.285
777.091
772.502
764.441
752.932
738.067
719.986
698.855
677.993
690.569
735.715
780.448
824.646
868.207
911.049
953.103
994.316
1034.65
1074.07
1112.55
1150.1
1186.69
1222.34
1257.04
1290.81
1323.66
1355.62
1386.69
1416.91
1446.31
1474.9
1502.69
1529.68
1555.68
1580.66
1604.75
1627.4
7289.08
10995.1
1601.92
1555.92
1506.2
1452.79
1395.81
1335.39
1271.72
1205.07
1135.84
1064.56
991.772
918.795
847.93
782.188
725.066
679.645
647.588
628.348
619.319
616.977
618.104
620.357
622.298
623.218
622.756
620.742
617.131
611.949
605.265
597.165
587.745
577.1
565.321
552.487
538.656
523.864
508.121
511.638
534.095
554.982
574.257
591.882
607.818
622.039
634.543
645.358
654.568
662.322
668.851
674.481
679.623
684.751
690.339
696.777
704.261
712.722
721.799
730.892
739.266
746.169
750.933
753.027
752.075
747.849
740.247
729.261
714.955
697.44
676.861
653.382
650.082
681.99
727.049
771.856
816.302
860.3
903.774
946.667
988.929
1030.53
1071.43
1111.63
1151.1
1189.83
1227.85
1265.13
1301.7
1337.57
1372.75
1407.24
1441.06
1474.19
1506.6
1538.22
1568.73
1597.99
1626.02
1652.04
10718.1
7650.83
1614.36
1564.48
1510.33
1452.19
1390.33
1325.02
1256.57
1185.38
1111.99
1037.07
961.394
886.633
815.309
750.45
695.256
652.362
622.892
605.835
598.403
597.171
599.149
602.195
604.98
606.791
607.288
606.333
603.892
599.983
594.652
587.954
579.952
570.708
560.282
548.729
536.089
522.387
507.64
510.904
531.864
551.205
568.895
584.899
599.194
611.769
622.64
631.859
639.529
645.819
650.978
655.345
659.337
663.43
668.09
673.698
680.446
688.265
696.801
705.461
713.516
720.215
724.881
726.973
726.104
722.031
714.636
703.898
689.865
672.633
652.33
629.107
612.817
631.176
676.43
721.694
766.862
811.842
856.559
900.949
944.96
988.553
1031.7
1074.35
1116.52
1158.17
1199.29
1239.89
1279.95
1319.47
1358.44
1396.83
1434.61
1471.73
1508.08
1543.51
1577.56
1610.08
1640.92
1669.07
14074
4202.11
1618.26
1565.45
1507.64
1445.45
1379.39
1309.91
1237.49
1162.67
1086.15
1008.66
931.173
855.583
784.489
720.874
667.717
627.259
600.131
584.937
578.779
578.371
580.951
584.576
588.038
590.671
592.135
592.271
591.018
588.367
584.339
578.966
572.289
564.352
555.2
544.874
533.406
520.818
507.126
510.167
529.656
547.518
563.72
578.238
591.057
602.18
611.634
619.483
625.84
630.88
634.856
638.103
641.034
644.116
647.808
652.485
658.34
665.309
673.051
680.986
688.4
694.55
698.763
700.496
699.356
695.091
687.571
676.76
662.693
645.451
625.148
601.92
575.917
583.854
628.847
674.462
720.22
766.03
811.814
857.507
903.057
948.413
993.532
1038.39
1082.94
1127.18
1171.08
1214.6
1257.73
1300.43
1342.66
1384.37
1425.47
1465.85
1505.35
1543.73
1580.42
1615.23
1647.86
1677.14
16904.6
1662.68
1614.3
1558.89
1497.92
1432.34
1362.86
1290.1
1214.66
1137.22
1058.59
979.547
901.243
825.734
755.648
693.882
643.187
605.423
580.786
567.564
562.776
563.253
566.425
570.517
574.437
577.587
579.66
580.505
580.06
578.306
575.246
570.898
565.286
558.438
550.383
541.152
530.768
519.246
506.603
509.422
527.427
543.807
558.534
571.59
582.966
592.674
600.748
607.261
612.333
616.145
618.952
621.09
622.969
625.049
627.781
631.533
636.493
642.599
649.513
656.668
663.356
668.841
672.454
673.654
672.044
667.368
659.488
648.362
634.012
616.512
595.965
572.493
546.235
546.393
583.564
629.451
675.693
722.201
768.895
815.709
862.58
909.456
956.291
1003.04
1049.67
1096.14
1142.41
1188.44
1234.17
1279.56
1324.53
1368.98
1412.8
1455.82
1497.83
1538.5
1577.06
1613.69
1647.25
1676.67
17978.7
1656.06
1604.01
1545.56
1481.8
1413.58
1341.63
1266.61
1189.2
1110.16
1030.37
950.637
872.264
797.411
728.698
668.926
620.625
585.327
562.876
551.328
547.683
548.906
552.604
557.143
561.525
565.198
567.873
569.402
569.719
568.794
566.623
563.212
558.574
552.728
545.696
537.498
528.154
517.676
506.079
508.68
525.21
540.131
553.415
565.051
575.036
583.386
590.143
595.384
599.232
601.871
603.556
604.617
605.461
606.536
608.287
611.072
615.078
620.243
626.236
632.499
638.333
643.01
645.869
646.367
644.109
638.835
630.404
618.766
603.939
585.986
565.003
541.105
514.419
508.724
540.114
586.188
632.805
679.876
727.32
775.064
823.043
871.201
919.483
967.837
1016.21
1064.56
1112.82
1160.93
1208.83
1256.43
1303.64
1350.33
1396.35
1441.49
1485.49
1527.89
1567.99
1605.72
1639.75
1668.57
17530.6
1642.1
1587.31
1526.55
1460.72
1390.65
1317.03
1240.57
1161.99
1082.11
1001.84
922.026
844.099
770.29
703.2
645.535
599.629
566.721
546.356
536.406
533.867
535.822
540.033
544.989
549.778
553.896
557.077
559.183
560.147
559.936
558.54
555.958
552.195
547.262
541.175
533.949
525.598
516.13
505.56
507.94
523.002
536.472
548.328
558.562
567.175
574.189
579.65
583.637
586.278
587.756
588.325
588.313
588.119
588.184
588.943
590.748
593.779
597.974
603.006
608.322
613.232
617.016
619.016
618.695
615.658
609.645
600.513
588.211
572.75
554.19
532.62
508.148
480.896
470.813
497.974
544.152
591.039
638.545
686.583
735.081
783.969
833.184
882.661
932.342
982.162
1032.06
1081.96
1131.78
1181.45
1230.85
1279.86
1328.34
1376.1
1422.9
1468.44
1512.22
1553.56
1592.35
1627.27
3105.94
16140.6
1622.43
1565.76
1503.39
1436.18
1364.9
1290.26
1213
1133.86
1053.71
973.461
894.002
816.873
744.346
678.991
623.42
579.786
549.08
530.597
522.077
520.534
523.171
527.882
533.261
538.468
543.038
546.721
549.388
550.973
551.44
550.776
548.975
546.038
541.97
536.784
530.489
523.097
514.613
505.05
507.204
520.807
532.837
543.279
552.126
559.385
565.081
569.262
572.012
573.459
573.787
573.246
572.163
570.926
569.971
569.723
570.526
572.553
575.741
579.766
584.08
588.001
590.815
591.87
590.633
586.713
579.851
569.904
556.819
540.607
521.323
499.053
473.901
445.982
432.643
456.759
502.957
550.01
597.825
646.317
695.407
745.021
795.088
845.539
896.302
947.306
998.472
1049.72
1100.95
1152.06
1202.93
1253.43
1303.37
1352.55
1400.73
1447.57
1492.55
1535
1574.86
1610.89
5645.54
13864.9
1597.73
1540.17
1476.97
1409.04
1337.14
1262.04
1184.49
1105.26
1025.25
945.395
866.601
790.498
719.385
655.804
602.281
560.806
532.15
515.403
508.205
507.599
510.896
516.108
521.919
527.548
532.566
536.741
539.95
542.129
543.245
543.278
542.221
540.072
536.834
532.512
527.117
520.654
513.128
504.551
506.472
518.623
529.223
538.259
545.728
551.641
556.025
558.934
560.451
560.706
559.883
558.231
556.069
553.783
551.797
550.529
550.313
551.316
553.472
556.459
559.733
562.617
564.404
564.448
562.223
557.34
549.544
538.694
524.737
507.683
487.588
464.534
438.622
409.965
394.213
416.153
462.29
509.412
557.424
606.24
655.776
705.953
756.694
807.924
859.563
911.528
963.734
1016.08
1068.47
1120.78
1172.87
1224.59
1275.75
1326.13
1375.47
1423.42
1469.43
1512.86
1553.65
1590.53
7911.83
11698.4
1569.66
1511.82
1448.34
1380.15
1308.1
1232.95
1155.48
1076.52
996.975
917.769
839.844
764.912
695.284
633.471
581.916
542.464
515.695
500.532
494.544
494.813
498.748
504.466
510.725
516.798
522.281
526.959
530.715
533.487
535.242
535.96
535.631
534.25
531.819
528.34
523.821
518.265
511.676
504.062
505.744
516.451
525.628
533.264
539.361
543.933
547.01
548.648
548.934
547.997
546.02
543.251
540.005
536.659
533.632
531.33
530.079
530.04
531.143
533.064
535.264
537.071
537.785
536.767
533.496
527.588
518.794
506.974
492.077
474.116
453.146
429.248
402.522
373.079
355.531
375.924
421.923
469.024
517.131
566.154
616.006
666.604
717.866
769.709
822.047
874.79
927.841
981.094
1034.43
1087.73
1140.83
1193.58
1245.77
1297.16
1347.48
1396.37
1443.28
1487.56
1529.13
1566.69
9866.01
9835.8
1539.39
1481.59
1418.16
1350.08
1278.2
1203.32
1126.25
1047.82
968.971
890.596
813.686
740.021
671.911
611.834
562.156
524.593
499.563
485.853
480.984
482.081
486.644
492.876
499.603
506.14
512.108
517.302
521.614
524.984
527.378
528.775
529.166
528.543
526.905
524.253
520.593
515.926
510.254
503.584
505.02
514.289
522.048
528.288
533.017
536.25
538.021
538.388
537.44
535.307
532.172
528.279
523.94
519.526
515.447
512.1
509.802
508.705
508.736
509.57
510.67
511.37
510.975
508.854
504.493
497.514
487.671
474.831
458.946
440.03
418.139
393.356
365.779
335.519
316.616
335.898
381.688
428.687
476.797
525.925
575.981
626.877
678.528
730.845
783.734
837.099
890.836
944.83
998.957
1053.08
1107.03
1160.64
1213.7
1265.96
1317.12
1366.85
1414.55
1459.58
1501.84
1540.04
11512.9
8283.72
1507.62
1450.08
1386.95
1319.23
1247.78
1173.42
1096.96
1019.26
941.272
863.872
788.086
715.749
649.161
590.77
542.871
507.065
483.634
471.258
467.427
469.312
474.493
481.252
488.469
495.493
501.968
507.7
512.584
516.562
519.602
521.683
522.792
522.922
522.07
520.236
517.423
513.63
508.859
503.115
504.298
512.136
518.48
523.329
526.69
528.585
529.049
528.144
525.959
522.625
518.326
513.302
507.862
502.371
497.23
492.828
489.471
487.304
486.248
485.978
485.957
485.524
483.993
480.738
475.252
467.166
456.239
442.343
425.434
405.529
382.686
356.99
328.54
297.446
277.49
295.953
341.47
388.294
436.325
485.468
535.63
586.72
638.648
691.319
744.637
798.496
852.788
907.389
962.168
1016.98
1071.65
1126
1179.8
1232.82
1284.74
1335.21
1383.62
1429.34
1472.26
1511.1
12871.8
7026.33
1474.83
1417.7
1355.05
1287.87
1217.03
1143.37
1067.7
990.893
913.895
837.577
762.995
692.018
626.942
570.179
523.961
489.788
467.829
456.678
453.813
456.453
462.249
469.547
477.275
484.813
491.819
498.109
503.583
508.184
511.881
514.651
516.482
517.366
517.298
516.276
514.3
511.372
507.488
502.654
503.579
509.989
514.923
518.381
520.377
520.933
520.089
517.908
514.481
509.942
504.472
498.311
491.763
485.186
478.975
473.509
469.084
465.837
463.683
462.293
461.135
459.551
456.86
452.447
445.812
436.592
424.554
409.576
391.617
370.701
346.887
320.262
290.927
258.992
238.181
256.004
301.191
347.774
395.655
444.734
494.918
546.113
598.222
651.149
704.791
759.039
813.777
868.877
924.199
979.59
1034.88
1089.86
1144.33
1198.02
1250.62
1301.76
1350.84
1397.22
1440.81
1480.31
13979.1
6011.02
1441.32
1384.71
1322.67
1256.18
1186.11
1113.29
1038.55
962.743
886.837
811.683
738.358
668.76
605.175
549.982
505.352
472.699
452.094
442.067
440.099
443.465
449.874
457.727
465.989
474.064
481.626
488.497
494.58
499.82
504.186
507.656
510.216
511.857
512.572
512.359
511.217
509.144
506.138
502.201
502.862
507.848
511.373
513.442
514.072
513.288
511.134
507.674
503.002
497.253
490.606
483.301
475.637
467.969
460.681
454.143
448.642
444.306
441.044
438.525
436.216
433.466
429.6
424.011
416.207
405.834
392.666
376.587
357.564
335.621
310.825
283.263
253.039
220.263
198.715
215.997
260.8
307.086
354.753
403.701
453.835
505.056
557.267
610.365
664.245
718.793
773.888
829.396
885.174
941.063
996.884
1052.44
1107.5
1161.79
1215.02
1266.8
1316.52
1363.56
1407.81
1447.99
14859.3
5222.34
1407.27
1351.28
1289.96
1224.28
1155.1
1083.24
1009.52
934.819
860.083
786.151
714.122
645.909
583.787
530.105
486.983
455.758
436.416
427.421
426.259
430.323
437.348
445.772
454.59
463.227
471.367
478.84
485.552
491.448
496.497
500.678
503.975
506.378
507.88
508.476
508.164
506.941
504.804
501.754
502.147
505.711
507.829
508.51
507.773
505.648
502.18
497.438
491.518
484.553
476.724
468.27
459.485
450.718
442.347
434.731
428.148
422.717
418.339
414.682
411.213
407.284
402.231
395.452
386.466
374.927
360.616
343.425
323.327
300.351
274.567
246.067
214.955
181.344
159.121
175.898
220.271
266.208
313.607
362.365
412.385
463.567
515.809
569.007
623.05
677.823
733.199
789.041
845.202
901.517
957.803
1013.86
1069.44
1124.29
1178.1
1230.48
1280.82
1328.52
1373.47
1414.38
15549.2
4563.82
1372.81
1317.56
1257.07
1192.3
1124.1
1053.29
980.68
907.147
833.632
760.962
690.247
623.409
562.709
510.466
468.759
438.871
420.745
412.763
412.327
417.055
424.688
433.689
443.076
452.292
461.03
469.124
476.481
483.05
488.796
493.699
497.743
500.916
503.209
504.616
505.134
504.758
503.484
501.311
501.433
503.576
504.288
503.581
501.476
498.008
493.225
487.198
480.024
471.839
462.824
453.215
443.303
433.433
423.973
415.275
407.605
401.074
395.575
390.772
386.135
381.021
374.77
366.793
356.615
343.899
328.438
310.129
288.951
264.94
238.169
208.734
176.742
142.306
119.427
135.693
179.595
225.138
272.219
320.735
370.586
421.67
473.883
527.119
581.263
636.197
691.792
747.906
804.388
861.07
917.764
974.263
1030.33
1085.69
1140.04
1192.99
1243.93
1292.26
1337.91
1379.62
16272
4051.61
1338.11
1283.63
1224.04
1160.25
1093.12
1023.43
952.006
879.703
807.459
736.087
666.701
601.226
541.904
491.026
450.631
421.957
404.949
397.985
398.286
403.664
411.895
421.473
431.438
441.247
450.599
459.331
467.351
474.608
481.066
486.704
491.505
495.456
498.546
500.769
502.117
502.587
502.172
500.872
500.719
501.444
500.749
498.653
495.18
490.367
484.266
476.949
468.518
459.109
448.903
438.134
427.092
416.113
405.561
395.776
387.016
379.38
372.755
366.803
360.992
354.685
347.231
338.047
326.671
312.775
296.159
276.729
254.471
229.427
201.673
171.31
138.448
103.201
100
100
138.775
183.884
230.604
278.831
328.464
379.398
431.529
484.747
538.936
593.974
649.73
706.059
762.807
819.803
876.857
933.758
990.267
1046.11
1100.97
1154.48
1206.02
1254.99
1301.32
1343.77
16601.6
3771.11
1303.22
1249.6
1190.98
1128.25
1062.24
993.737
923.545
852.514
781.573
711.522
643.475
579.347
521.36
471.775
432.593
405.014
388.985
382.954
384.065
390.099
398.926
409.087
419.644
430.062
440.047
449.436
458.138
466.099
473.286
479.674
485.245
489.984
493.88
496.923
499.106
500.423
500.867
500.435
500.006
499.312
497.211
493.725
488.881
482.72
475.298
466.689
456.997
446.359
434.958
423.025
410.848
398.758
387.109
376.235
366.38
357.636
349.883
342.776
335.788
328.284
319.622
309.228
296.649
281.57
263.798
243.247
219.912
193.838
165.11
133.829
100.11
100
100
100
100
142.465
188.784
236.68
286.049
336.787
388.787
441.936
496.118
551.208
607.073
663.567
720.532
777.796
835.167
892.431
949.35
1005.65
1061
1115.05
1167.16
1216.76
1263.76
1306.94
16790.5
3649.96
1268.11
1215.44
1157.87
1096.26
1031.44
964.18
895.267
825.548
755.941
687.235
620.534
557.74
501.053
452.703
414.659
388.088
372.899
367.604
369.539
376.25
385.697
396.467
407.641
418.695
429.337
439.407
448.813
457.5
465.434
472.589
478.944
484.485
489.197
493.07
496.094
498.261
499.565
500
500.006
499.311
497.211
493.725
488.881
482.72
475.297
466.688
456.996
446.358
434.957
423.024
410.847
398.756
387.108
376.233
366.378
357.634
349.881
342.774
335.786
328.282
319.619
309.225
296.646
281.567
263.794
243.244
219.908
193.835
165.106
133.826
100.106
100
100
100
100
142.463
188.782
236.678
286.047
336.785
388.785
441.934
496.117
551.207
607.072
663.566
720.531
777.795
835.166
892.431
949.349
1005.65
1061
1115.05
1167.16
1216.76
1263.76
1306.94
16790.5
3649.99
1268.11
1215.44
1157.87
1096.27
1031.44
964.181
895.268
825.548
755.941
687.235
620.534
557.74
501.053
452.703
414.659
388.088
372.899
367.604
369.539
376.25
385.697
396.467
407.641
418.695
429.337
439.407
448.812
457.5
465.434
472.589
478.944
484.485
489.197
493.07
496.094
498.261
499.565
500
500.719
501.443
500.749
498.653
495.179
490.366
484.264
476.948
468.516
459.107
448.901
438.132
427.089
416.111
405.558
395.773
387.012
379.376
372.751
366.798
360.988
354.68
347.226
338.042
326.665
312.769
296.152
276.722
254.464
229.419
201.666
171.302
138.44
103.193
100
100
138.77
183.879
230.599
278.827
328.46
379.394
431.526
484.744
538.933
593.972
649.727
706.057
762.806
819.802
876.856
933.758
990.267
1046.11
1100.97
1154.48
1206.02
1254.99
1301.32
1343.77
16601.5
3771.2
1303.22
1249.6
1190.98
1128.25
1062.24
993.738
923.546
852.515
781.574
711.523
643.475
579.347
521.36
471.776
432.593
405.014
388.985
382.954
384.065
390.099
398.926
409.087
419.644
430.062
440.047
449.436
458.138
466.099
473.286
479.674
485.245
489.984
493.88
496.923
499.106
500.423
500.867
500.435
501.433
503.576
504.288
503.58
501.476
498.007
493.224
487.196
480.022
471.837
462.822
453.212
443.301
433.43
423.97
415.272
407.602
401.07
395.571
390.768
386.131
381.016
374.765
366.787
356.608
343.893
328.431
310.122
288.943
264.932
238.161
208.726
176.733
142.298
119.42
135.688
179.59
225.134
272.215
320.732
370.583
421.667
473.881
527.117
581.262
636.196
691.791
747.905
804.388
861.069
917.764
974.262
1030.33
1085.69
1140.04
1192.99
1243.93
1292.26
1337.91
1379.62
16272.3
4051.4
1338.11
1283.63
1224.04
1160.25
1093.12
1023.43
952.007
879.703
807.459
736.087
666.702
601.227
541.905
491.027
450.632
421.957
404.949
397.985
398.286
403.664
411.895
421.472
431.438
441.247
450.599
459.331
467.351
474.607
481.066
486.704
491.505
495.456
498.546
500.769
502.117
502.587
502.172
500.872
502.147
505.71
507.828
508.509
507.772
505.647
502.179
497.437
491.516
484.551
476.722
468.267
459.482
450.715
442.343
434.728
428.145
422.713
418.335
414.677
411.208
407.279
402.225
395.446
386.46
374.92
360.609
343.417
323.318
300.343
274.558
246.058
214.946
181.335
159.114
175.894
220.267
266.205
313.604
362.363
412.383
463.565
515.807
569.005
623.049
677.822
733.198
789.041
845.202
901.518
957.804
1013.86
1069.44
1124.29
1178.1
1230.48
1280.82
1328.52
1373.47
1414.38
15548.9
4564.08
1372.81
1317.56
1257.07
1192.3
1124.1
1053.29
980.682
907.148
833.633
760.964
690.248
623.411
562.71
510.467
468.76
438.871
420.745
412.763
412.327
417.055
424.688
433.689
443.076
452.292
461.03
469.124
476.481
483.05
488.796
493.699
497.743
500.916
503.209
504.616
505.134
504.758
503.484
501.311
502.862
507.848
511.372
513.442
514.071
513.287
511.133
507.672
503.001
497.251
490.604
483.299
475.635
467.966
460.678
454.139
448.638
444.302
441.04
438.52
436.211
433.46
429.594
424.005
416.2
405.827
392.658
376.579
357.555
335.612
310.815
283.253
253.029
220.253
198.708
215.994
260.797
307.083
354.751
403.7
453.834
505.055
557.266
610.365
664.245
718.794
773.888
829.397
885.175
941.064
996.885
1052.44
1107.5
1161.79
1215.02
1266.8
1316.52
1363.56
1407.81
1447.99
14858.5
5223.19
1407.27
1351.28
1289.96
1224.28
1155.1
1083.24
1009.52
934.822
860.085
786.153
714.124
645.911
583.789
530.106
486.984
455.759
436.417
427.421
426.259
430.323
437.348
445.772
454.59
463.226
471.367
478.84
485.551
491.448
496.497
500.678
503.975
506.378
507.88
508.476
508.164
506.942
504.804
501.754
503.579
509.989
514.922
518.381
520.376
520.932
520.088
517.906
514.48
509.94
504.47
498.309
491.76
485.183
478.972
473.505
469.08
465.833
463.678
462.289
461.13
459.545
456.855
452.441
445.805
436.585
424.546
409.567
391.608
370.691
346.877
320.252
290.917
258.981
238.174
256.003
301.189
347.773
395.654
444.734
494.918
546.113
598.223
651.15
704.792
759.04
813.778
868.878
924.201
979.592
1034.88
1089.86
1144.33
1198.02
1250.62
1301.77
1350.84
1397.23
1440.81
1480.31
13978.5
6011.66
1441.32
1384.71
1322.67
1256.18
1186.11
1113.29
1038.55
962.745
886.839
811.685
738.361
668.763
605.177
549.984
505.354
472.7
452.094
442.068
440.099
443.465
449.874
457.727
465.989
474.064
481.626
488.497
494.58
499.82
504.186
507.656
510.216
511.857
512.572
512.359
511.217
509.144
506.138
502.201
504.298
512.136
518.48
523.328
526.689
528.584
529.048
528.142
525.957
522.624
518.324
513.3
507.859
502.368
497.227
492.824
489.467
487.3
486.244
485.973
485.952
485.519
483.987
480.731
475.245
467.158
456.231
442.334
425.424
405.519
382.676
356.979
328.529
297.435
277.484
295.952
341.47
388.294
436.325
485.468
535.631
586.721
638.649
691.321
744.638
798.499
852.79
907.391
962.17
1016.98
1071.65
1126
1179.8
1232.82
1284.74
1335.21
1383.62
1429.34
1472.26
1511.1
12871.2
7027.01
1474.83
1417.7
1355.05
1287.87
1217.03
1143.37
1067.7
990.895
913.897
837.58
762.998
692.021
626.945
570.181
523.962
489.79
467.829
456.678
453.813
456.453
462.249
469.547
477.275
484.813
491.819
498.109
503.583
508.184
511.881
514.651
516.482
517.366
517.298
516.276
514.3
511.372
507.488
502.654
505.02
514.289
522.047
528.288
533.016
536.249
538.02
538.387
537.438
535.305
532.17
528.277
523.937
519.523
515.444
512.097
509.798
508.701
508.732
509.566
510.665
511.364
510.969
508.848
504.486
497.506
487.663
474.822
458.936
440.02
418.128
393.344
365.767
335.507
316.61
335.898
381.689
428.688
476.799
525.926
575.983
626.88
678.531
730.847
783.737
837.103
890.839
944.834
998.96
1053.08
1107.03
1160.64
1213.7
1265.96
1317.13
1366.85
1414.55
1459.58
1501.84
1540.04
11512.3
8284.34
1507.61
1450.07
1386.95
1319.23
1247.78
1173.42
1096.96
1019.27
941.274
863.875
788.089
715.752
649.164
590.772
542.873
507.066
483.635
471.259
467.427
469.312
474.493
481.252
488.469
495.493
501.968
507.7
512.584
516.562
519.602
521.683
522.792
522.922
522.07
520.236
517.423
513.63
508.859
503.115
505.744
516.451
525.627
533.263
539.36
543.932
547.009
548.647
548.932
547.995
546.018
543.249
540.002
536.656
533.629
531.327
530.076
530.036
531.139
533.06
535.259
537.066
537.779
536.76
533.489
527.58
518.785
506.964
492.067
474.105
453.134
429.236
402.51
373.066
355.525
375.926
421.925
469.026
517.134
566.157
616.009
666.608
717.87
769.713
822.051
874.794
927.845
981.098
1034.44
1087.73
1140.84
1193.58
1245.77
1297.16
1347.48
1396.38
1443.28
1487.57
1529.13
1566.69
9866.12
9835.71
1539.39
1481.59
1418.16
1350.08
1278.2
1203.32
1126.25
1047.82
968.971
890.598
813.689
740.024
671.914
611.836
562.158
524.594
499.564
485.854
480.984
482.081
486.644
492.876
499.603
506.14
512.107
517.302
521.614
524.984
527.378
528.776
529.166
528.543
526.905
524.253
520.593
515.926
510.254
503.584
506.472
518.623
529.223
538.259
545.728
551.64
556.024
558.932
560.449
560.704
559.881
558.229
556.067
553.78
551.794
550.526
550.309
551.312
553.468
556.455
559.728
562.612
564.398
564.442
562.216
557.332
549.535
538.684
524.726
507.672
487.576
464.521
438.609
409.951
394.207
416.156
462.294
509.416
557.429
606.244
655.78
705.958
756.699
807.929
859.568
911.534
963.739
1016.09
1068.47
1120.78
1172.87
1224.59
1275.75
1326.13
1375.47
1423.42
1469.43
1512.86
1553.65
1590.53
7912.36
11697.9
1569.66
1511.82
1448.33
1380.15
1308.1
1232.95
1155.48
1076.52
996.975
917.768
839.846
764.915
695.287
633.474
581.918
542.466
515.696
500.532
494.544
494.813
498.748
504.465
510.725
516.798
522.281
526.959
530.715
533.487
535.242
535.96
535.631
534.25
531.819
528.34
523.821
518.265
511.676
504.062
507.204
520.806
532.837
543.279
552.126
559.385
565.08
569.261
572.011
573.457
573.785
573.244
572.16
570.923
569.968
569.72
570.522
572.549
575.737
579.762
584.076
587.996
590.809
591.863
590.626
586.705
579.842
569.894
556.808
540.595
521.31
499.039
473.886
445.967
432.638
456.764
502.962
550.016
597.831
646.323
695.413
745.028
795.095
845.545
896.309
947.312
998.478
1049.72
1100.95
1152.07
1202.94
1253.43
1303.37
1352.55
1400.73
1447.57
1492.55
1535
1574.86
1610.89
5647.14
13863.5
1597.72
1540.17
1476.98
1409.04
1337.15
1262.05
1184.49
1105.26
1025.25
945.396
866.601
790.499
719.386
655.805
602.283
560.807
532.151
515.404
508.206
507.599
510.896
516.107
521.919
527.548
532.566
536.741
539.95
542.129
543.245
543.278
542.221
540.072
536.834
532.512
527.117
520.654
513.128
504.551
507.94
523.002
536.471
548.328
558.561
567.175
574.188
579.649
583.636
586.276
587.754
588.323
588.311
588.116
588.181
588.94
590.745
593.775
597.97
603.002
608.317
613.227
617.01
619.009
618.688
615.649
609.635
600.503
588.199
572.737
554.176
532.605
508.133
480.88
470.808
497.981
544.159
591.047
638.552
686.591
735.089
783.978
833.192
882.67
932.35
982.17
1032.06
1081.96
1131.79
1181.45
1230.85
1279.87
1328.34
1376.1
1422.9
1468.44
1512.22
1553.57
1592.36
1627.27
3107.33
16139.6
1622.43
1565.76
1503.39
1436.18
1364.89
1290.26
1213
1133.86
1053.71
973.467
894.007
816.878
744.349
678.994
623.422
579.788
549.081
530.598
522.078
520.534
523.171
527.882
533.261
538.468
543.038
546.721
549.388
550.973
551.44
550.776
548.975
546.038
541.971
536.784
530.489
523.097
514.613
505.05
508.68
525.21
540.13
553.415
565.051
575.036
583.385
590.142
595.382
599.23
601.869
603.554
604.615
605.458
606.533
608.284
611.069
615.075
620.239
626.232
632.494
638.328
643.004
645.862
646.359
644.1
638.825
630.393
618.754
603.925
585.972
564.988
541.088
514.401
508.719
540.123
586.197
632.815
679.886
727.33
775.074
823.053
871.211
919.492
967.847
1016.22
1064.57
1112.83
1160.94
1208.84
1256.44
1303.64
1350.33
1396.35
1441.49
1485.49
1527.89
1567.99
1605.73
1639.75
1668.57
17530.6
1642.1
1587.31
1526.54
1460.72
1390.64
1317.03
1240.57
1161.99
1082.11
1001.84
922.027
844.099
770.291
703.202
645.537
599.63
566.723
546.357
536.407
533.867
535.823
540.033
544.989
549.778
553.896
557.077
559.183
560.147
559.937
558.541
555.958
552.195
547.262
541.175
533.949
525.598
516.13
505.56
509.422
527.427
543.807
558.534
571.59
582.966
592.673
600.747
607.26
612.331
616.143
618.95
621.088
622.967
625.046
627.778
631.53
636.49
642.595
649.509
656.664
663.351
668.835
672.447
673.646
672.035
667.357
659.477
648.349
633.998
616.497
595.948
572.475
546.217
546.389
583.576
629.462
675.705
722.213
768.907
815.721
862.592
909.468
956.303
1003.06
1049.69
1096.15
1142.42
1188.45
1234.18
1279.57
1324.53
1368.99
1412.81
1455.83
1497.83
1538.5
1577.06
1613.69
1647.25
1676.66
17978.2
1656.06
1604.01
1545.56
1481.8
1413.58
1341.63
1266.61
1189.2
1110.16
1030.37
950.638
872.267
797.414
728.701
668.928
620.627
585.329
562.877
551.329
547.683
548.907
552.605
557.144
561.525
565.198
567.873
569.403
569.719
568.795
566.624
563.212
558.574
552.728
545.696
537.498
528.154
517.676
506.079
510.167
529.656
547.518
563.72
578.238
591.057
602.18
611.633
619.482
625.839
630.879
634.854
638.101
641.032
644.113
647.805
652.482
658.337
665.306
673.047
680.982
688.395
694.544
698.756
700.488
699.346
695.08
687.558
676.747
662.678
645.434
625.13
601.901
575.897
583.85
628.861
674.477
720.235
766.045
811.829
857.523
903.072
948.427
993.546
1038.4
1082.96
1127.19
1171.09
1214.61
1257.74
1300.44
1342.67
1384.37
1425.47
1465.85
1505.35
1543.74
1580.42
1615.23
1647.86
1677.14
16905.7
1662.68
1614.29
1558.89
1497.91
1432.33
1362.86
1290.1
1214.66
1137.22
1058.58
979.547
901.243
825.736
755.65
693.884
643.189
605.424
580.787
567.565
562.777
563.254
566.426
570.517
574.437
577.588
579.66
580.506
580.061
578.306
575.246
570.898
565.286
558.438
550.383
541.152
530.768
519.246
506.603
510.904
531.864
551.206
568.895
584.899
599.194
611.769
622.64
631.858
639.528
645.817
650.977
655.343
659.335
663.427
668.087
673.695
680.443
688.262
696.797
705.457
713.511
720.209
724.874
726.965
726.094
722.019
714.623
703.884
689.849
672.615
652.311
629.087
612.814
631.192
676.447
721.711
766.879
811.859
856.576
900.966
944.977
988.57
1031.71
1074.37
1116.53
1158.18
1199.31
1239.9
1279.97
1319.48
1358.45
1396.84
1434.62
1471.74
1508.09
1543.52
1577.56
1610.08
1640.92
1669.07
14076.8
4198.88
1618.25
1565.45
1507.64
1445.45
1379.38
1309.91
1237.49
1162.67
1086.15
1008.66
931.173
855.584
784.49
720.875
667.718
627.261
600.133
584.938
578.78
578.372
580.952
584.577
588.038
590.672
592.136
592.272
591.018
588.368
584.339
578.966
572.289
564.352
555.2
544.874
533.406
520.818
507.126
511.638
534.095
554.983
574.258
591.882
607.818
622.04
634.543
645.358
654.568
662.321
668.85
674.479
679.621
684.749
690.337
696.774
704.258
712.719
721.796
730.888
739.261
746.163
750.926
753.018
752.064
747.837
740.233
729.246
714.938
697.421
676.84
653.359
650.08
682.01
727.07
771.876
816.323
860.32
903.795
946.687
988.949
1030.54
1071.45
1111.64
1151.11
1189.85
1227.86
1265.15
1301.72
1337.58
1372.76
1407.25
1441.07
1474.19
1506.6
1538.23
1568.73
1598
1626.03
1652.04
10721.4
7647.31
1614.35
1564.47
1510.32
1452.18
1390.32
1325.02
1256.57
1185.37
1111.98
1037.06
961.393
886.632
815.308
750.451
695.257
652.364
622.894
605.837
598.404
597.172
599.15
602.196
604.98
606.792
607.289
606.334
603.892
599.984
594.652
587.954
579.952
570.708
560.282
548.729
536.089
522.387
507.64
512.325
536.159
558.492
579.292
598.503
616.064
631.921
646.039
658.421
669.127
678.293
686.151
693.035
699.364
705.588
712.16
719.464
727.698