/*--------------------------------*- C++ -*----------------------------------*\
  =========                 |
  \\      /  F ield         | OpenFOAM: The Open Source CFD Toolbox
   \\    /   O peration     | Website:  https://openfoam.org
    \\  /    A nd           | Version:  8
     \\/     M anipulation  |
\*---------------------------------------------------------------------------*/
FoamFile
{
    version     2.0;
    format      ascii;
    class       volScalarField;
    location    "720/fluid";
    object      rho;
}
// * * * * * * * * * * * * * * * * * * * * * * * * * * * * * * * * * * * * * //

dimensions      [1 -3 0 0 0 0 0];

internalField   nonuniform List<scalar> 
4000
(
0.658526
0.658499
0.658454
0.658379
0.658254
0.658047
0.657705
0.657148
0.656249
0.654817
0.652575
0.649134
0.643983
0.636501
0.626024
0.611972
0.594029
0.572314
0.54745
0.520475
0.492615
0.465021
0.438591
0.413902
0.391233
0.370644
0.352055
0.335306
0.320207
0.306565
0.294197
0.282943
0.272664
0.263242
0.254581
0.246583
0.239143
0.232201
0.225705
0.219612
0.213885
0.208494
0.20341
0.198611
0.19408
0.189798
0.185755
0.181937
0.178337
0.174947
0.171764
0.168785
0.166009
0.163441
0.161086
0.158959
0.157075
0.155486
0.154219
0.15328
0.152786
0.152855
0.154225
0.163115
0.173623
0.185965
0.200438
0.217436
0.237475
0.261227
0.289564
0.323613
0.364816
0.415132
0.476934
0.552391
0.642636
0.746038
0.856003
0.960574
1.04673
1.1075
1.14469
1.16488
1.175
1.17982
1.18205
1.18305
1.18349
1.18368
1.18376
1.1838
1.18381
1.18382
1.18382
1.18382
1.18382
1.18382
1.18382
1.18382
0.658526
0.658499
0.658454
0.658379
0.658253
0.658045
0.657701
0.657141
0.656237
0.654801
0.652558
0.649124
0.644001
0.636582
0.626223
0.612356
0.594665
0.573245
0.54868
0.521959
0.494272
0.466758
0.440322
0.41556
0.392776
0.37205
0.353315
0.336424
0.321192
0.307427
0.29495
0.283598
0.273231
0.263732
0.255001
0.246943
0.239451
0.232462
0.225924
0.219793
0.214033
0.20861
0.203499
0.198676
0.194122
0.189821
0.185759
0.181925
0.178311
0.174909
0.171715
0.168726
0.165942
0.163366
0.161006
0.158873
0.156986
0.155395
0.154126
0.153186
0.152693
0.152767
0.154912
0.163968
0.174675
0.187261
0.202042
0.219433
0.239978
0.264389
0.29359
0.328773
0.37147
0.423764
0.488067
0.566437
0.659591
0.764999
0.874852
0.976545
1.05796
1.11406
1.14794
1.16634
1.1756
1.18006
1.18213
1.18308
1.1835
1.18368
1.18376
1.1838
1.18381
1.18382
1.18382
1.18382
1.18382
1.18382
1.18382
1.18382
0.658526
0.658499
0.658454
0.658378
0.658252
0.658043
0.657698
0.657135
0.656229
0.654791
0.652547
0.649119
0.644016
0.636644
0.626371
0.612641
0.595138
0.573949
0.549629
0.523138
0.495634
0.468239
0.441855
0.417085
0.394247
0.373437
0.354601
0.3376
0.322258
0.308387
0.295808
0.284362
0.273908
0.264327
0.255522
0.247397
0.239844
0.232798
0.226209
0.220031
0.214226
0.208763
0.203615
0.198757
0.194172
0.189841
0.185753
0.181896
0.17826
0.174839
0.171628
0.168624
0.165827
0.16324
0.160871
0.158731
0.156839
0.155246
0.153978
0.153043
0.152561
0.152649
0.15615
0.165434
0.17643
0.189382
0.20462
0.222586
0.243855
0.26918
0.299537
0.336176
0.380706
0.435284
0.502245
0.583361
0.678749
0.784926
0.893203
0.991037
1.06765
1.11963
1.15077
1.16766
1.17619
1.18031
1.18224
1.18312
1.18352
1.18369
1.18377
1.1838
1.18381
1.18382
1.18382
1.18382
1.18382
1.18382
1.18382
1.18382
0.658526
0.658499
0.658454
0.658378
0.658252
0.658043
0.657699
0.657138
0.656235
0.654805
0.652577
0.649179
0.644126
0.636832
0.626671
0.613092
0.595776
0.574791
0.550672
0.524351
0.496969
0.46964
0.443268
0.418467
0.395567
0.374676
0.355749
0.338654
0.323217
0.309255
0.296591
0.285063
0.274533
0.264881
0.256008
0.247822
0.240213
0.233115
0.226475
0.220251
0.214403
0.208899
0.203713
0.19882
0.1942
0.18984
0.185724
0.181841
0.178182
0.17474
0.17151
0.16849
0.16568
0.163083
0.160706
0.15856
0.156666
0.155078
0.153819
0.152896
0.152428
0.152543
0.157717
0.167253
0.178576
0.191942
0.207699
0.22631
0.248383
0.274708
0.306307
0.344482
0.390919
0.44783
0.517437
0.60122
0.698694
0.805462
0.912035
1.00598
1.07782
1.12563
1.15394
1.16921
1.1769
1.18063
1.18238
1.18318
1.18354
1.1837
1.18377
1.1838
1.18381
1.18382
1.18382
1.18382
1.18382
1.18382
1.18382
1.18382
0.658526
0.658499
0.658454
0.658379
0.658253
0.658045
0.657702
0.657144
0.656247
0.654826
0.652614
0.649244
0.644234
0.637007
0.626943
0.613493
0.596333
0.575521
0.551569
0.525391
0.49811
0.470835
0.444472
0.419643
0.39669
0.375729
0.356723
0.339547
0.324031
0.309992
0.297254
0.285658
0.275062
0.265349
0.256418
0.248179
0.240521
0.233376
0.226693
0.220427
0.214539
0.208999
0.203776
0.19885
0.1942
0.189811
0.185668
0.181761
0.17808
0.174619
0.171373
0.168339
0.165519
0.162914
0.160532
0.158385
0.156496
0.154924
0.153677
0.15277
0.152334
0.152505
0.159395
0.169178
0.180839
0.194638
0.210935
0.230214
0.253109
0.280448
0.313294
0.352996
0.401324
0.46051
0.532627
0.618837
0.718027
0.824927
0.92942
1.01941
1.08676
1.13084
1.15667
1.17054
1.17753
1.18091
1.1825
1.18323
1.18356
1.18371
1.18377
1.1838
1.18381
1.18382
1.18382
1.18382
1.18382
1.18382
1.18382
1.18382
0.658526
0.658499
0.658455
0.65838
0.658255
0.658048
0.657707
0.657153
0.656263
0.654854
0.652662
0.649322
0.64436
0.637202
0.627232
0.613901
0.59688
0.576213
0.552397
0.526327
0.499118
0.471873
0.445504
0.420641
0.397634
0.376608
0.357533
0.340286
0.3247
0.310595
0.297794
0.286139
0.275488
0.265723
0.256743
0.248459
0.240758
0.233574
0.226853
0.22055
0.214628
0.209054
0.203801
0.198847
0.19417
0.189756
0.18559
0.181662
0.177963
0.174486
0.171227
0.168183
0.165356
0.162748
0.160369
0.158229
0.15635
0.154797
0.153567
0.152686
0.152279
0.152486
0.160799
0.170902
0.182953
0.197219
0.214074
0.234026
0.257736
0.286067
0.320124
0.3613
0.411449
0.472794
0.54726
0.635682
0.736328
0.843127
0.945468
1.03169
1.0949
1.13562
1.15921
1.1718
1.17812
1.18118
1.18262
1.18329
1.18359
1.18372
1.18378
1.1838
1.18381
1.18382
1.18382
1.18382
1.18382
1.18382
1.18382
1.18382
0.658526
0.6585
0.658455
0.658381
0.658257
0.658051
0.657713
0.657163
0.65628
0.654883
0.652709
0.649399
0.64448
0.637383
0.627497
0.61427
0.597368
0.576825
0.553121
0.527139
0.499984
0.472759
0.446378
0.421479
0.398421
0.377336
0.358197
0.340888
0.325241
0.311079
0.298225
0.286519
0.275821
0.266012
0.256991
0.248668
0.240932
0.233713
0.22696
0.220627
0.214675
0.209073
0.203795
0.198815
0.194116
0.18968
0.185495
0.18155
0.177836
0.174347
0.171078
0.168029
0.1652
0.162596
0.160225
0.158102
0.156248
0.154742
0.153529
0.152717
0.152395
0.1527
0.161629
0.172249
0.184793
0.199574
0.217002
0.237617
0.262115
0.291395
0.326603
0.36918
0.421053
0.484419
0.561052
0.651451
0.753281
0.85974
0.959855
1.0425
1.10196
1.13971
1.16138
1.17287
1.17863
1.18142
1.18273
1.18333
1.18361
1.18373
1.18378
1.1838
1.18381
1.18382
1.18382
1.18382
1.18382
1.18382
1.18382
1.18382
0.658526
0.6585
0.658456
0.658382
0.658259
0.658055
0.657719
0.657174
0.656298
0.654911
0.652756
0.649472
0.644593
0.637553
0.627741
0.614605
0.597805
0.577365
0.553754
0.527841
0.500725
0.473509
0.447111
0.422177
0.399071
0.377931
0.358737
0.341372
0.325673
0.311461
0.298561
0.286813
0.276075
0.266228
0.257172
0.248817
0.24105
0.233803
0.227022
0.220663
0.214687
0.209063
0.203762
0.198763
0.194044
0.189591
0.18539
0.181431
0.177706
0.174208
0.170933
0.167881
0.165053
0.162455
0.160097
0.157995
0.156182
0.154727
0.153593
0.152909
0.152796
0.153457
0.162706
0.173678
0.186612
0.201834
0.219774
0.240993
0.266216
0.296374
0.332648
0.37653
0.430007
0.495239
0.573842
0.665985
0.768759
0.874713
0.972636
1.05198
1.1081
1.14326
1.16326
1.17381
1.17908
1.18162
1.18282
1.18338
1.18363
1.18374
1.18378
1.18381
1.18381
1.18382
1.18382
1.18382
1.18382
1.18382
1.18382
1.18382
0.658526
0.6585
0.658456
0.658383
0.658261
0.658058
0.657725
0.657183
0.656314
0.654938
0.652798
0.649539
0.644696
0.637705
0.627957
0.614899
0.598186
0.577833
0.554296
0.528438
0.501351
0.474137
0.447721
0.422752
0.399602
0.378414
0.35917
0.341758
0.326013
0.311759
0.29882
0.287035
0.276263
0.266385
0.2573
0.248917
0.241125
0.233854
0.22705
0.22067
0.214674
0.209031
0.203713
0.198696
0.193962
0.189495
0.185281
0.181312
0.177577
0.174072
0.170794
0.16774
0.164914
0.162322
0.159974
0.157888
0.156103
0.154677
0.153584
0.152958
0.152924
0.154364
0.16387
0.175127
0.188387
0.203989
0.222379
0.244138
0.270016
0.300972
0.338221
0.383305
0.438258
0.505188
0.585561
0.67922
0.782722
0.888051
0.983852
1.06018
1.11335
1.14628
1.16485
1.1746
1.17945
1.1818
1.1829
1.18341
1.18364
1.18374
1.18379
1.18381
1.18382
1.18382
1.18382
1.18382
1.18382
1.18382
1.18382
1.18382
0.658526
0.6585
0.658457
0.658384
0.658262
0.658061
0.65773
0.657192
0.656329
0.654962
0.652837
0.649599
0.644787
0.637839
0.628146
0.615155
0.598515
0.578233
0.554757
0.528942
0.501875
0.47466
0.448224
0.423223
0.400033
0.378802
0.359516
0.342062
0.326278
0.311988
0.299015
0.2872
0.2764
0.266495
0.257386
0.24898
0.241167
0.233876
0.227054
0.220656
0.214644
0.208985
0.203652
0.198622
0.193875
0.189397
0.185174
0.181196
0.177455
0.173945
0.170663
0.167608
0.164783
0.162193
0.15985
0.157771
0.155997
0.154582
0.153496
0.152868
0.152812
0.155373
0.165067
0.176551
0.190081
0.206008
0.224791
0.247028
0.27349
0.305163
0.343293
0.389467
0.445754
0.514212
0.596159
0.691128
0.795178
0.899812
0.993613
1.06722
1.11782
1.14883
1.1662
1.17527
1.17977
1.18195
1.18297
1.18344
1.18365
1.18375
1.18379
1.18381
1.18382
1.18382
1.18382
1.18382
1.18382
1.18382
1.18382
1.18382
0.658526
0.6585
0.658457
0.658385
0.658264
0.658064
0.657735
0.6572
0.656342
0.654983
0.65287
0.649651
0.644866
0.637954
0.628308
0.615373
0.598794
0.57857
0.555144
0.529362
0.50231
0.475091
0.448636
0.423605
0.400381
0.379112
0.359789
0.342299
0.326483
0.312162
0.299161
0.28732
0.276496
0.26657
0.25744
0.249016
0.241185
0.233878
0.227041
0.220629
0.214603
0.208931
0.203586
0.198545
0.193789
0.189302
0.185072
0.181088
0.177341
0.173828
0.170544
0.167489
0.164665
0.162078
0.159738
0.157664
0.155898
0.154489
0.153406
0.152779
0.152721
0.15635
0.166204
0.17788
0.191645
0.207855
0.226984
0.249644
0.276626
0.30894
0.347854
0.395006
0.452492
0.522312
0.605645
0.70173
0.80618
0.910085
1.00204
1.07324
1.12161
1.15098
1.16733
1.17583
1.18004
1.18207
1.18303
1.18347
1.18366
1.18375
1.18379
1.18381
1.18382
1.18382
1.18382
1.18382
1.18382
1.18382
1.18382
1.18382
0.658526
0.658501
0.658458
0.658385
0.658265
0.658066
0.657739
0.657207
0.656353
0.655001
0.652899
0.649696
0.644933
0.638052
0.628446
0.615557
0.599028
0.578853
0.555466
0.52971
0.502667
0.475442
0.448969
0.423913
0.400658
0.379357
0.360002
0.342482
0.326638
0.312292
0.299268
0.287405
0.276562
0.266618
0.257471
0.249032
0.241188
0.233867
0.227018
0.220594
0.214557
0.208875
0.203521
0.198472
0.193708
0.189215
0.184979
0.18099
0.177241
0.173725
0.17044
0.167386
0.164563
0.161979
0.159645
0.157576
0.155816
0.154412
0.153335
0.152712
0.152655
0.157223
0.167223
0.179073
0.193044
0.209505
0.228938
0.25197
0.279409
0.312286
0.351896
0.399921
0.458473
0.529493
0.614031
0.711059
0.81579
0.918975
1.00924
1.07833
1.12479
1.15278
1.16828
1.17629
1.18027
1.18218
1.18307
1.18349
1.18367
1.18376
1.18379
1.18381
1.18382
1.18382
1.18382
1.18382
1.18382
1.18382
1.18382
1.18382
0.658526
0.658501
0.658458
0.658386
0.658266
0.658068
0.657742
0.657213
0.656362
0.655017
0.652924
0.649734
0.64499
0.638135
0.628561
0.61571
0.599222
0.579086
0.55573
0.529994
0.502957
0.475726
0.449237
0.424158
0.400877
0.379549
0.360168
0.342623
0.326756
0.312388
0.299345
0.287465
0.276606
0.266647
0.257487
0.249035
0.24118
0.233848
0.226989
0.220556
0.214511
0.208821
0.20346
0.198404
0.193635
0.189137
0.184897
0.180905
0.177154
0.173638
0.170353
0.1673
0.16448
0.161901
0.159571
0.157507
0.155754
0.154356
0.153284
0.152665
0.152608
0.157976
0.16811
0.180114
0.194267
0.210946
0.230643
0.253999
0.281838
0.31521
0.355431
0.404221
0.463706
0.535772
0.621348
0.719164
0.824085
0.926581
1.01535
1.08261
1.12744
1.15427
1.16906
1.17668
1.18045
1.18226
1.18311
1.18351
1.18368
1.18376
1.1838
1.18381
1.18382
1.18382
1.18382
1.18382
1.18382
1.18382
1.18382
1.18382
0.658526
0.658501
0.658458
0.658387
0.658267
0.65807
0.657745
0.657218
0.656371
0.65503
0.652944
0.649766
0.645037
0.638203
0.628655
0.615836
0.599381
0.579275
0.555945
0.530223
0.503191
0.475953
0.44945
0.424352
0.401048
0.379698
0.360295
0.34273
0.326844
0.312459
0.2994
0.287506
0.276634
0.266664
0.257493
0.249031
0.241167
0.233827
0.22696
0.220519
0.214468
0.208772
0.203406
0.198345
0.193572
0.18907
0.184828
0.180835
0.177083
0.173567
0.170283
0.167233
0.164416
0.16184
0.159515
0.157456
0.15571
0.154317
0.15325
0.152633
0.152578
0.158609
0.168864
0.181004
0.195316
0.212183
0.232109
0.255745
0.283929
0.317726
0.358474
0.407924
0.468212
0.541175
0.627634
0.726102
0.831146
0.933008
1.02047
1.08617
1.12963
1.1555
1.1697
1.177
1.1806
1.18233
1.18315
1.18352
1.18369
1.18376
1.1838
1.18381
1.18382
1.18382
1.18382
1.18382
1.18382
1.18382
1.18382
1.18382
0.658526
0.658501
0.658458
0.658387
0.658268
0.658071
0.657748
0.657222
0.656377
0.65504
0.652961
0.649791
0.645076
0.638258
0.628732
0.615938
0.599509
0.579428
0.556117
0.530406
0.503376
0.476133
0.449617
0.424502
0.401181
0.379813
0.360391
0.34281
0.326909
0.31251
0.299439
0.287534
0.276652
0.266672
0.257493
0.249024
0.241152
0.233806
0.226933
0.220487
0.21443
0.20873
0.20336
0.198296
0.19352
0.189016
0.184773
0.180779
0.177027
0.173512
0.170231
0.167183
0.16437
0.161798
0.159477
0.157424
0.155684
0.154296
0.153233
0.152617
0.152561
0.159137
0.169497
0.181755
0.196202
0.21323
0.233349
0.257221
0.285696
0.319853
0.361045
0.411055
0.472022
0.54574
0.632936
0.731938
0.837056
0.938353
1.0247
1.08909
1.13143
1.1565
1.17022
1.17726
1.18073
1.18239
1.18317
1.18353
1.18369
1.18377
1.1838
1.18381
1.18382
1.18382
1.18382
1.18382
1.18382
1.18382
1.18382
1.18382
0.658526
0.658501
0.658459
0.658387
0.658269
0.658072
0.65775
0.657225
0.656382
0.655049
0.652974
0.649812
0.645106
0.638302
0.628793
0.616018
0.59961
0.579547
0.556251
0.530549
0.50352
0.476272
0.449746
0.424618
0.401282
0.379899
0.360464
0.342869
0.326956
0.312547
0.299466
0.287552
0.276663
0.266676
0.25749
0.249016
0.241139
0.233788
0.22691
0.22046
0.2144
0.208697
0.203324
0.198258
0.19348
0.188976
0.184732
0.180738
0.176987
0.173474
0.170195
0.16715
0.16434
0.161772
0.159456
0.157408
0.155673
0.15429
0.15323
0.152614
0.152556
0.159567
0.170019
0.182376
0.196936
0.214096
0.234375
0.258441
0.287155
0.321608
0.363167
0.413638
0.475163
0.549501
0.637298
0.736725
0.841886
0.942699
1.02812
1.09144
1.13286
1.1573
1.17064
1.17746
1.18083
1.18244
1.18319
1.18354
1.1837
1.18377
1.1838
1.18381
1.18382
1.18382
1.18382
1.18382
1.18382
1.18382
1.18382
1.18382
0.658526
0.658501
0.658459
0.658388
0.658269
0.658073
0.657751
0.657227
0.656387
0.655056
0.652985
0.649828
0.64513
0.638336
0.628839
0.616079
0.599686
0.579639
0.556353
0.530657
0.503629
0.476376
0.449843
0.424705
0.401357
0.379963
0.360517
0.342912
0.32699
0.312573
0.299486
0.287565
0.27667
0.266678
0.257488
0.249009
0.241129
0.233774
0.226894
0.220441
0.214379
0.208673
0.203299
0.198231
0.193453
0.188948
0.184704
0.180712
0.176962
0.17345
0.170174
0.167131
0.164325
0.161761
0.159449
0.157405
0.155674
0.154294
0.153233
0.152616
0.152555
0.159916
0.17044
0.182876
0.197527
0.214793
0.235198
0.259418
0.288321
0.323007
0.364856
0.415693
0.477659
0.552486
0.640752
0.740506
0.845686
0.946106
1.03079
1.09327
1.13398
1.15793
1.17096
1.17762
1.1809
1.18247
1.18321
1.18355
1.1837
1.18377
1.1838
1.18381
1.18382
1.18382
1.18382
1.18382
1.18382
1.18382
1.18382
1.18382
0.658526
0.658501
0.658459
0.658388
0.65827
0.658074
0.657752
0.657229
0.65639
0.65506
0.652992
0.649839
0.645147
0.63836
0.628873
0.616124
0.599742
0.579704
0.556427
0.530735
0.503707
0.476451
0.449911
0.424766
0.401411
0.380008
0.360554
0.342943
0.327014
0.312592
0.299499
0.287574
0.276675
0.26668
0.257487
0.249006
0.241123
0.233766
0.226884
0.22043
0.214366
0.208659
0.203284
0.198216
0.193437
0.188932
0.184689
0.180697
0.176949
0.17344
0.170166
0.167127
0.164324
0.161764
0.159455
0.157413
0.155682
0.154299
0.15323
0.152593
0.152496
0.160155
0.170747
0.183251
0.197974
0.215322
0.235822
0.260158
0.289201
0.324062
0.366127
0.417235
0.479528
0.554717
0.643327
0.743314
0.848498
0.948615
1.03275
1.09461
1.1348
1.15838
1.1712
1.17774
1.18096
1.1825
1.18322
1.18355
1.1837
1.18377
1.1838
1.18381
1.18382
1.18382
1.18382
1.18382
1.18382
1.18382
1.18382
1.18382
0.658526
0.658501
0.658459
0.658388
0.65827
0.658074
0.657753
0.65723
0.656391
0.655063
0.652997
0.649847
0.645158
0.638376
0.628895
0.616152
0.599778
0.579747
0.556474
0.530785
0.503757
0.476499
0.449955
0.424805
0.401445
0.380037
0.360578
0.342962
0.32703
0.312603
0.299507
0.28758
0.276679
0.266682
0.257487
0.249005
0.241121
0.233763
0.22688
0.220425
0.21436
0.208653
0.203277
0.198209
0.193431
0.188926
0.184684
0.180694
0.176947
0.17344
0.170169
0.167132
0.164333
0.161776
0.15947
0.157431
0.155702
0.154319
0.153247
0.152604
0.152496
0.160321
0.170962
0.183514
0.198286
0.215689
0.236253
0.260665
0.289802
0.324778
0.366985
0.418272
0.48078
0.556205
0.645037
0.745171
0.850346
0.950254
1.03403
1.09548
1.13533
1.15868
1.17136
1.17782
1.181
1.18252
1.18323
1.18356
1.18371
1.18377
1.1838
1.18381
1.18382
1.18382
1.18382
1.18382
1.18382
1.18382
1.18382
1.18382
0.658526
0.658501
0.658459
0.658388
0.65827
0.658075
0.657753
0.657231
0.656392
0.655065
0.652999
0.64985
0.645163
0.638384
0.628905
0.616166
0.599795
0.579767
0.556496
0.530808
0.503781
0.476521
0.449976
0.424824
0.401461
0.38005
0.360589
0.342971
0.327037
0.312609
0.299511
0.287583
0.276681
0.266683
0.257488
0.249005
0.241121
0.233763
0.226879
0.220424
0.214359
0.208652
0.203276
0.198208
0.19343
0.188926
0.184685
0.180696
0.176951
0.173445
0.170176
0.167142
0.164345
0.16179
0.159487
0.157451
0.155723
0.154341
0.153268
0.152618
0.152496
0.160403
0.171076
0.183655
0.198454
0.215885
0.236481
0.26093
0.290112
0.325142
0.367417
0.41879
0.481399
0.556933
0.645868
0.746065
0.851228
0.951029
1.03462
1.09589
1.13558
1.15882
1.17143
1.17786
1.18101
1.18253
1.18323
1.18356
1.18371
1.18377
1.1838
1.18381
1.18382
1.18382
1.18382
1.18382
1.18382
1.18382
1.18382
1.18382
0.658526
0.658501
0.658459
0.658388
0.65827
0.658075
0.657753
0.657231
0.656392
0.655065
0.652999
0.64985
0.645163
0.638384
0.628905
0.616166
0.599795
0.579767
0.556496
0.530808
0.50378
0.476521
0.449976
0.424823
0.401461
0.38005
0.360589
0.342971
0.327037
0.312609
0.299511
0.287583
0.276681
0.266683
0.257488
0.249005
0.241121
0.233763
0.226879
0.220424
0.214359
0.208652
0.203276
0.198208
0.19343
0.188926
0.184685
0.180696
0.176951
0.173445
0.170176
0.167142
0.164345
0.16179
0.159487
0.157451
0.155723
0.154341
0.153268
0.152618
0.152496
0.160403
0.171076
0.183655
0.198454
0.215885
0.236481
0.26093
0.290111
0.325142
0.367417
0.41879
0.481399
0.556933
0.645867
0.746065
0.851228
0.951029
1.03462
1.09589
1.13558
1.15882
1.17143
1.17786
1.18101
1.18253
1.18323
1.18356
1.18371
1.18377
1.1838
1.18381
1.18382
1.18382
1.18382
1.18382
1.18382
1.18382
1.18382
1.18382
0.658526
0.658501
0.658459
0.658388
0.65827
0.658074
0.657753
0.65723
0.656391
0.655063
0.652997
0.649847
0.645158
0.638376
0.628895
0.616152
0.599778
0.579746
0.556473
0.530784
0.503756
0.476498
0.449955
0.424805
0.401444
0.380037
0.360578
0.342962
0.327029
0.312603
0.299507
0.28758
0.276679
0.266681
0.257487
0.249005
0.241121
0.233763
0.226879
0.220424
0.21436
0.208653
0.203277
0.198209
0.19343
0.188926
0.184684
0.180694
0.176947
0.17344
0.170169
0.167132
0.164333
0.161776
0.15947
0.157431
0.155702
0.154319
0.153247
0.152604
0.152496
0.160321
0.170962
0.183513
0.198286
0.215689
0.236253
0.260665
0.289802
0.324777
0.366985
0.418272
0.48078
0.556204
0.645037
0.74517
0.850345
0.950253
1.03402
1.09548
1.13533
1.15868
1.17136
1.17782
1.181
1.18252
1.18323
1.18356
1.18371
1.18377
1.1838
1.18381
1.18382
1.18382
1.18382
1.18382
1.18382
1.18382
1.18382
1.18382
0.658526
0.658501
0.658459
0.658388
0.65827
0.658074
0.657752
0.657229
0.656389
0.65506
0.652992
0.649839
0.645146
0.63836
0.628873
0.616123
0.599741
0.579704
0.556426
0.530734
0.503706
0.47645
0.449911
0.424765
0.40141
0.380008
0.360554
0.342942
0.327014
0.312591
0.299498
0.287574
0.276675
0.26668
0.257487
0.249006
0.241123
0.233766
0.226884
0.220429
0.214365
0.208659
0.203283
0.198216
0.193437
0.188932
0.184689
0.180697
0.176949
0.17344
0.170166
0.167127
0.164324
0.161764
0.159455
0.157413
0.155682
0.154299
0.15323
0.152593
0.152496
0.160155
0.170747
0.183251
0.197974
0.215321
0.235822
0.260157
0.289201
0.324062
0.366126
0.417235
0.479528
0.554716
0.643325
0.743313
0.848496
0.948613
1.03275
1.09461
1.1348
1.15838
1.1712
1.17774
1.18096
1.1825
1.18322
1.18355
1.1837
1.18377
1.1838
1.18381
1.18382
1.18382
1.18382
1.18382
1.18382
1.18382
1.18382
1.18382
0.658526
0.658501
0.658459
0.658388
0.658269
0.658073
0.657751
0.657227
0.656386
0.655055
0.652985
0.649828
0.645129
0.638336
0.628839
0.616079
0.599686
0.579638
0.556352
0.530656
0.503628
0.476375
0.449841
0.424703
0.401357
0.379962
0.360516
0.342912
0.32699
0.312573
0.299485
0.287565
0.27667
0.266678
0.257488
0.249009
0.241128
0.233774
0.226893
0.220441
0.214378
0.208673
0.203298
0.198231
0.193453
0.188948
0.184704
0.180711
0.176962
0.17345
0.170174
0.167131
0.164325
0.161761
0.159449
0.157405
0.155674
0.154294
0.153233
0.152616
0.152555
0.159916
0.17044
0.182876
0.197527
0.214793
0.235198
0.259418
0.28832
0.323007
0.364856
0.415693
0.477658
0.552485
0.640751
0.740504
0.845684
0.946104
1.03079
1.09327
1.13398
1.15793
1.17096
1.17762
1.1809
1.18247
1.18321
1.18355
1.1837
1.18377
1.1838
1.18381
1.18382
1.18382
1.18382
1.18382
1.18382
1.18382
1.18382
1.18382
0.658526
0.658501
0.658459
0.658387
0.658269
0.658072
0.65775
0.657225
0.656382
0.655049
0.652974
0.649812
0.645106
0.638302
0.628792
0.616017
0.599609
0.579546
0.55625
0.530548
0.503519
0.47627
0.449745
0.424617
0.401281
0.379898
0.360463
0.342868
0.326955
0.312546
0.299466
0.287552
0.276662
0.266675
0.25749
0.249015
0.241138
0.233787
0.22691
0.22046
0.2144
0.208697
0.203324
0.198258
0.19348
0.188975
0.184731
0.180738
0.176987
0.173474
0.170195
0.16715
0.16434
0.161772
0.159456
0.157408
0.155673
0.15429
0.15323
0.152614
0.152556
0.159567
0.170019
0.182376
0.196936
0.214096
0.234375
0.258441
0.287155
0.321607
0.363166
0.413638
0.475162
0.5495
0.637296
0.736723
0.841883
0.942697
1.02812
1.09144
1.13286
1.1573
1.17064
1.17746
1.18083
1.18244
1.18319
1.18354
1.1837
1.18377
1.1838
1.18381
1.18382
1.18382
1.18382
1.18382
1.18382
1.18382
1.18382
1.18382
0.658526
0.658501
0.658458
0.658387
0.658268
0.658071
0.657748
0.657222
0.656377
0.65504
0.652961
0.649791
0.645075
0.638258
0.628731
0.615937
0.599508
0.579426
0.556115
0.530405
0.503374
0.476131
0.449616
0.424501
0.40118
0.379811
0.36039
0.342809
0.326908
0.312509
0.299438
0.287533
0.276651
0.266671
0.257492
0.249023
0.241151
0.233805
0.226932
0.220486
0.21443
0.20873
0.203359
0.198296
0.19352
0.189016
0.184772
0.180778
0.177027
0.173512
0.170231
0.167183
0.16437
0.161798
0.159477
0.157424
0.155684
0.154296
0.153233
0.152617
0.152561
0.159137
0.169497
0.181755
0.196202
0.21323
0.233349
0.257221
0.285695
0.319852
0.361044
0.411054
0.47202
0.545738
0.632933
0.731935
0.837053
0.93835
1.0247
1.08909
1.13143
1.1565
1.17022
1.17726
1.18073
1.18239
1.18317
1.18353
1.18369
1.18377
1.1838
1.18381
1.18382
1.18382
1.18382
1.18382
1.18382
1.18382
1.18382
1.18382
0.658526
0.658501
0.658458
0.658387
0.658267
0.65807
0.657745
0.657218
0.65637
0.65503
0.652944
0.649765
0.645037
0.638202
0.628655
0.615835
0.59938
0.579274
0.555943
0.530221
0.503189
0.475951
0.449448
0.42435
0.401047
0.379697
0.360293
0.342728
0.326842
0.312458
0.299399
0.287505
0.276634
0.266663
0.257492
0.249031
0.241166
0.233826
0.226959
0.220519
0.214467
0.208772
0.203405
0.198345
0.193571
0.18907
0.184828
0.180834
0.177082
0.173566
0.170283
0.167232
0.164416
0.16184
0.159515
0.157456
0.15571
0.154317
0.15325
0.152633
0.152578
0.158609
0.168864
0.181004
0.195316
0.212183
0.232109
0.255745
0.283928
0.317726
0.358473
0.407923
0.46821
0.541172
0.627631
0.726099
0.831143
0.933005
1.02047
1.08617
1.12963
1.1555
1.1697
1.177
1.1806
1.18233
1.18315
1.18352
1.18369
1.18376
1.1838
1.18381
1.18382
1.18382
1.18382
1.18382
1.18382
1.18382
1.18382
1.18382
0.658526
0.658501
0.658458
0.658386
0.658266
0.658068
0.657742
0.657213
0.656362
0.655017
0.652924
0.649734
0.64499
0.638134
0.62856
0.615709
0.599221
0.579084
0.555728
0.529991
0.502955
0.475724
0.449235
0.424156
0.400875
0.379547
0.360166
0.342621
0.326754
0.312387
0.299344
0.287464
0.276605
0.266646
0.257486
0.249035
0.241179
0.233848
0.226988
0.220555
0.21451
0.208821
0.20346
0.198404
0.193635
0.189136
0.184897
0.180905
0.177154
0.173637
0.170353
0.1673
0.16448
0.1619
0.159571
0.157507
0.155754
0.154355
0.153284
0.152665
0.152608
0.157976
0.16811
0.180114
0.194267
0.210945
0.230642
0.253999
0.281838
0.315209
0.35543
0.404219
0.463704
0.535769
0.621345
0.71916
0.824081
0.926577
1.01535
1.08261
1.12744
1.15427
1.16906
1.17668
1.18045
1.18226
1.18311
1.18351
1.18368
1.18376
1.1838
1.18381
1.18382
1.18382
1.18382
1.18382
1.18382
1.18382
1.18382
1.18382
0.658526
0.658501
0.658458
0.658385
0.658265
0.658066
0.657739
0.657207
0.656353
0.655001
0.652899
0.649696
0.644933
0.638052
0.628445
0.615556
0.599026
0.57885
0.555464
0.529707
0.502664
0.475439
0.448967
0.42391
0.400655
0.379355
0.36
0.342481
0.326637
0.31229
0.299267
0.287404
0.276561
0.266617
0.25747
0.249031
0.241187
0.233866
0.227017
0.220593
0.214556
0.208875
0.203521
0.198471
0.193708
0.189214
0.184978
0.18099
0.17724
0.173725
0.17044
0.167385
0.164563
0.161979
0.159644
0.157576
0.155816
0.154412
0.153335
0.152712
0.152655
0.157223
0.167223
0.179073
0.193044
0.209505
0.228937
0.251969
0.279409
0.312286
0.351896
0.399919
0.458471
0.529491
0.614028
0.711055
0.815786
0.918971
1.00924
1.07833
1.12478
1.15278
1.16827
1.17629
1.18027
1.18218
1.18307
1.18349
1.18367
1.18376
1.18379
1.18381
1.18382
1.18382
1.18382
1.18382
1.18382
1.18382
1.18382
1.18382
0.658526
0.6585
0.658457
0.658385
0.658264
0.658064
0.657735
0.6572
0.656341
0.654983
0.65287
0.649651
0.644865
0.637953
0.628307
0.615371
0.598792
0.578568
0.555142
0.529359
0.502307
0.475088
0.448633
0.423602
0.400378
0.37911
0.359786
0.342297
0.326481
0.31216
0.29916
0.287318
0.276495
0.266569
0.257439
0.249015
0.241185
0.233877
0.22704
0.220628
0.214602
0.208931
0.203586
0.198545
0.193789
0.189302
0.185071
0.181087
0.177341
0.173828
0.170544
0.167488
0.164664
0.162077
0.159738
0.157664
0.155898
0.154488
0.153406
0.152779
0.152721
0.15635
0.166203
0.17788
0.191644
0.207855
0.226983
0.249643
0.276625
0.308938
0.347853
0.395004
0.45249
0.522309
0.605641
0.701725
0.806175
0.910081
1.00203
1.07323
1.1216
1.15098
1.16733
1.17583
1.18004
1.18207
1.18303
1.18347
1.18366
1.18375
1.18379
1.18381
1.18382
1.18382
1.18382
1.18382
1.18382
1.18382
1.18382
1.18382
0.658526
0.6585
0.658457
0.658384
0.658262
0.658061
0.65773
0.657192
0.656328
0.654962
0.652836
0.649599
0.644786
0.637838
0.628145
0.615153
0.598513
0.57823
0.554754
0.528939
0.501872
0.474657
0.448221
0.42322
0.400031
0.3788
0.359513
0.342059
0.326276
0.311986
0.299014
0.287198
0.276399
0.266494
0.257384
0.248979
0.241166
0.233875
0.227053
0.220655
0.214643
0.208984
0.203651
0.198621
0.193874
0.189396
0.185173
0.181195
0.177454
0.173944
0.170662
0.167608
0.164782
0.162193
0.15985
0.157771
0.155997
0.154581
0.153495
0.152867
0.152812
0.155373
0.165067
0.176551
0.190082
0.206009
0.224792
0.247029
0.27349
0.305163
0.343292
0.389465
0.445751
0.514208
0.596155
0.691123
0.795173
0.899807
0.993609
1.06722
1.11782
1.14883
1.1662
1.17527
1.17977
1.18195
1.18297
1.18344
1.18365
1.18375
1.18379
1.18381
1.18382
1.18382
1.18382
1.18382
1.18382
1.18382
1.18382
1.18382
0.658526
0.6585
0.658456
0.658383
0.658261
0.658058
0.657725
0.657183
0.656314
0.654938
0.652798
0.649539
0.644695
0.637704
0.627955
0.614897
0.598184
0.57783
0.554293
0.528434
0.501347
0.474134
0.447717
0.422749
0.399599
0.378411
0.359168
0.341755
0.326011
0.311757
0.298818
0.287033
0.276262
0.266384
0.257298
0.248916
0.241124
0.233853
0.227049
0.220669
0.214673
0.20903
0.203712
0.198695
0.193961
0.189494
0.185281
0.181311
0.177577
0.174072
0.170793
0.16774
0.164914
0.162321
0.159973
0.157887
0.156102
0.154676
0.153583
0.152957
0.152924
0.154364
0.16387
0.175127
0.188387
0.203988
0.222378
0.244137
0.270014
0.300969
0.338218
0.383302
0.438256
0.505185
0.585557
0.679216
0.782717
0.888047
0.983848
1.06017
1.11335
1.14628
1.16485
1.1746
1.17945
1.1818
1.1829
1.18341
1.18364
1.18374
1.18379
1.18381
1.18382
1.18382
1.18382
1.18382
1.18382
1.18382
1.18382
1.18382
0.658526
0.6585
0.658456
0.658382
0.658259
0.658055
0.657719
0.657174
0.656298
0.654911
0.652755
0.649472
0.644593
0.637552
0.627739
0.614603
0.597803
0.577362
0.55375
0.527837
0.500721
0.473504
0.447107
0.422173
0.399067
0.377928
0.358734
0.341369
0.325671
0.311459
0.298559
0.286811
0.276073
0.266226
0.257171
0.248815
0.241049
0.233802
0.227021
0.220662
0.214686
0.209062
0.203761
0.198762
0.194043
0.18959
0.185389
0.18143
0.177705
0.174207
0.170932
0.16788
0.165053
0.162455
0.160096
0.157994
0.156182
0.154726
0.153592
0.152909
0.152796
0.153457
0.162705
0.173678
0.186612
0.201834
0.219774
0.240993
0.266216
0.296373
0.332648
0.37653
0.430007
0.495238
0.573839
0.665981
0.768755
0.874709
0.972632
1.05198
1.1081
1.14326
1.16326
1.17381
1.17908
1.18162
1.18282
1.18338
1.18363
1.18374
1.18378
1.18381
1.18381
1.18382
1.18382
1.18382
1.18382
1.18382
1.18382
1.18382
0.658526
0.6585
0.658455
0.658381
0.658257
0.658051
0.657713
0.657163
0.65628
0.654883
0.652709
0.649398
0.644479
0.637382
0.627495
0.614268
0.597365
0.576821
0.553117
0.527135
0.49998
0.472754
0.446374
0.421475
0.398417
0.377332
0.358194
0.340885
0.325239
0.311076
0.298222
0.286517
0.275819
0.26601
0.256989
0.248666
0.24093
0.233712
0.226958
0.220625
0.214674
0.209072
0.203794
0.198814
0.194115
0.189679
0.185494
0.181549
0.177835
0.174346
0.171077
0.168028
0.165199
0.162595
0.160225
0.158102
0.156248
0.154741
0.153528
0.152717
0.152394
0.1527
0.161629
0.172249
0.184793
0.199574
0.217002
0.237617
0.262115
0.291395
0.326602
0.369179
0.421051
0.484417
0.561049
0.651449
0.753278
0.859736
0.959852