/*--------------------------------*- C++ -*----------------------------------*\
  =========                 |
  \\      /  F ield         | OpenFOAM: The Open Source CFD Toolbox
   \\    /   O peration     | Website:  https://openfoam.org
    \\  /    A nd           | Version:  8
     \\/     M anipulation  |
\*---------------------------------------------------------------------------*/
FoamFile
{
    version     2.0;
    format      ascii;
    class       volScalarField;
    location    "720/fluid";
    object      T;
}
// * * * * * * * * * * * * * * * * * * * * * * * * * * * * * * * * * * * * * //

dimensions      [0 0 0 1 0 0 0];

internalField   nonuniform List<scalar> 
4000
(
293.004
293.017
293.039
293.076
293.138
293.241
293.41
293.686
294.134
294.849
295.976
297.722
300.376
304.317
310.016
318.01
328.851
343.026
360.878
382.545
407.946
436.822
468.801
503.476
540.459
579.415
620.075
662.231
705.725
750.435
796.263
843.116
890.901
939.513
988.83
1038.78
1089.4
1140.6
1192.26
1244.3
1296.6
1349.06
1401.55
1453.98
1506.2
1558.11
1609.55
1660.4
1710.51
1759.73
1807.86
1854.73
1900.12
1943.76
1985.34
2024.49
2060.73
2093
2120.69
2143.87
2160.39
2168.42
2157.42
2047.39
1930.32
1808.36
1683.26
1556.51
1429.4
1303.1
1178.7
1057.32
940.075
827.889
722.007
624.456
537.568
463.637
404.473
360.7
331.171
313.091
302.968
297.741
295.19
293.989
293.438
293.191
293.082
293.035
293.015
293.006
293.003
293.001
293
293
293
293
293
293
293.004
293.017
293.039
293.076
293.139
293.242
293.412
293.69
294.139
294.857
295.984
297.727
300.366
304.274
309.906
317.786
328.454
342.392
359.95
381.284
406.338
434.879
466.558
500.979
537.761
576.57
617.132
659.233
702.712
747.441
793.317
840.245
888.131
936.866
986.329
1036.44
1087.23
1138.6
1190.46
1242.7
1295.22
1347.89
1400.62
1453.26
1505.72
1557.84
1609.51
1660.58
1710.9
1760.32
1808.65
1855.7
1901.26
1945.06
1986.79
2026.08
2062.43
2094.78
2122.53
2145.76
2162.3
2170.26
2148.46
2037.32
1919.27
1796.39
1670.42
1542.84
1414.95
1287.93
1162.92
1041.06
923.531
811.275
705.743
609.135
523.871
452.231
395.815
354.835
327.673
311.256
302.113
297.371
295.04
293.93
293.416
293.183
293.079
293.034
293.014
293.006
293.003
293.001
293
293
293
293
293
293
293.004
293.017
293.039
293.077
293.139
293.243
293.414
293.693
294.144
294.862
295.99
297.73
300.359
304.24
309.824
317.62
328.159
341.915
359.237
380.287
405.026
433.237
464.59
498.706
535.215
573.789
614.158
656.109
699.478
744.137
789.982
836.919
884.85
933.669
983.25
1033.51
1084.47
1136.04
1188.13
1240.63
1293.41
1346.38
1399.41
1452.37
1505.15
1557.62
1609.62
1661.02
1711.67
1761.4
1810.04
1857.39
1903.23
1947.28
1989.25
2028.73
2065.26
2097.71
2125.51
2148.72
2165.12
2172.88
2132.39
2020.22
1901.08
1777.14
1650.18
1521.73
1393.13
1265.61
1140.36
1018.59
901.507
790.115
686.063
591.642
509.211
440.834
387.734
349.675
324.714
309.716
301.375
297.035
294.892
293.867
293.39
293.172
293.075
293.032
293.014
293.006
293.002
293.001
293
293
293
293
293
293
293.004
293.017
293.039
293.077
293.139
293.243
293.413
293.692
294.14
294.855
295.974
297.699
300.301
304.141
309.658
317.358
327.762
341.346
358.458
379.268
403.748
431.696
462.791
496.665
532.953
571.33
611.529
653.338
696.595
741.173
786.969
833.89
881.841
930.716
980.392
1030.77
1081.88
1133.65
1185.96
1238.7
1291.77
1345.04
1398.39
1451.7
1504.84
1557.67
1610.04
1661.82
1712.84
1762.93
1811.92
1859.6
1905.75
1950.08
1992.29
2031.98
2068.66
2101.11
2128.84
2151.94
2168.17
2175.55
2112.36
1999.38
1879.31
1754.43
1626.64
1497.52
1368.48
1240.8
1115.72
994.502
878.339
768.289
666.155
574.24
494.796
429.674
379.778
344.51
321.667
308.071
300.551
296.645
294.714
293.788
293.356
293.158
293.069
293.03
293.013
293.005
293.002
293.001
293
293
293
293
293
293
293.004
293.017
293.039
293.077
293.139
293.242
293.412
293.689
294.135
294.844
295.956
297.666
300.245
304.047
309.507
317.125
327.416
340.854
357.789
378.399
402.663
430.39
461.27
494.942
531.045
569.259
609.316
651.007
694.17
738.679
784.434
831.341
879.31
928.234
977.994
1028.48
1079.74
1131.68
1184.2
1237.18
1290.51
1344.07
1397.74
1451.39
1504.88
1558.07
1610.81
1662.96
1714.35
1764.8
1814.13
1862.13
1908.56
1953.14
1995.56
2035.4
2072.11
2104.39
2132.03
2154.97
2170.79
2177.3
2091.35
1977.79
1856.88
1731.15
1602.61
1472.96
1343.67
1216.04
1091.38
970.966
855.927
747.418
647.372
558.048
481.58
419.606
372.717
339.995
319.036
306.659
299.844
296.308
294.559
293.719
293.325
293.145
293.063
293.027
293.012
293.005
293.002
293.001
293
293
293
293
293
293
293.004
293.017
293.039
293.076
293.138
293.24
293.409
293.684
294.127
294.83
295.932
297.626
300.18
303.943
309.348
316.888
327.078
340.389
357.175
377.619
401.71
429.262
459.974
493.49
529.451
567.54
607.492
649.095
692.19
736.653
782.382
829.29
877.283
926.261
976.103
1026.7
1078.09
1130.2
1182.91
1236.11
1289.7
1343.54
1397.5
1451.46
1505.28
1558.8
1611.89
1664.38
1716.11
1766.88
1816.51
1864.78
1911.44
1956.2
1998.71
2038.58
2075.27
2107.36
2134.85
2157.47
2172.89
2178.82
2074.26
1958.96
1836.47
1709.45
1579.98
1449.75
1320.23
1192.75
1068.59
949.057
835.19
728.252
630.251
543.397
469.705
410.609
366.429
335.971
316.675
305.377
299.191
295.992
294.411
293.652
293.295
293.132
293.058
293.025
293.011
293.005
293.002
293.001
293
293
293
293
293
293
293.004
293.017
293.039
293.076
293.137
293.239
293.406
293.679
294.118
294.816
295.908
297.587
300.118
303.847
309.202
316.674
326.777
339.979
356.64
376.947
400.894
428.305
458.884
492.277
528.131
566.128
606.002
647.545
690.597
735.034
780.757
827.678
875.708
924.745
974.672
1025.38
1076.9
1129.16
1182.05
1235.46
1289.28
1343.37
1397.6
1451.85
1505.96
1559.8
1613.19
1665.99
1718.01
1769.06
1818.95
1867.43
1914.24
1959.09
2001.61
2041.35
2077.78
2109.19
2136.74
2158.34
2172.51
2176.97
2064.74
1944.68
1819.15
1690.16
1559.45
1428.54
1298.78
1171.46
1047.83
929.161
816.428
710.999
614.926
530.362
459.214
402.727
360.969
332.506
314.655
304.284
298.634
295.722
294.284
293.593
293.269
293.12
293.053
293.023
293.01
293.004
293.002
293.001
293
293
293
293
293
293
293.004
293.017
293.039
293.075
293.136
293.237
293.403
293.674
294.109
294.802
295.884
297.549
300.059
303.756
309.068
316.481
326.507
339.618
356.174
376.367
400.199
427.499
457.973
491.274
527.048
564.978
604.8
646.305
689.334
733.763
779.494
826.441
874.515
923.617
973.631
1024.44
1076.09
1128.5
1181.57
1235.17
1289.19
1343.5
1397.98
1452.48
1506.86
1560.96
1614.63
1667.69
1719.97
1771.26
1821.35
1869.99
1916.93
1961.82
2004.29
2043.86
2079.76
2110.51
2137
2156.78
2167.94
2167.34
2052.11
1929.64
1802.29
1672.02
1540.49
1409.15
1279.31
1152.24
1029.17
911.331
799.669
695.647
601.355
518.886
450.037
395.877
356.252
329.526
312.921
303.344
298.154
295.488
294.174
293.543
293.246
293.11
293.048
293.021
293.009
293.004
293.002
293.001
293
293
293
293
293
293
293.004
293.017
293.038
293.075
293.135
293.235
293.4
293.669
294.101
294.788
295.863
297.515
300.006
303.676
308.949
316.311
326.273
339.306
355.775
375.876
399.614
426.825
457.219
490.449
526.164
564.049
603.837
645.322
688.342
732.776
778.527
825.508
873.632
922.802
972.901
1023.82
1075.58
1128.13
1181.35
1235.13
1289.33
1343.85
1398.54
1453.27
1507.88
1562.22
1616.12
1669.42
1721.91
1773.39
1823.65
1872.44
1919.47
1964.39
2006.82
2046.25
2081.79
2112.17
2138.1
2157.07
2167.09
2155.56
2038.43
1914.5
1786.08
1655.06
1523.07
1391.54
1261.78
1135.03
1012.53
895.477
784.805
682.09
589.423
508.848
442.061
389.968
352.213
326.991
311.453
302.55
297.748
295.29
294.08
293.499
293.227
293.101
293.045
293.019
293.008
293.004
293.001
293.001
293
293
293
293
293
293
293.004
293.017
293.038
293.074
293.134
293.234
293.398
293.665
294.094
294.776
295.844
297.485
299.958
303.605
308.845
316.163
326.071
339.04
355.437
375.462
399.126
426.266
456.598
489.776
525.45
563.304
603.074
644.55
687.573
732.021
777.799
824.819
872.997
922.235
972.417
1023.43
1075.31
1127.98
1181.34
1235.27
1289.65
1344.34
1399.22
1454.15
1508.96
1563.5
1617.6
1671.09
1723.76
1775.42
1825.83
1874.74
1921.85
1966.84
2009.29
2048.7
2084.13
2114.38
2140.23
2159.23
2169.54
2142.41
2024.44
1899.81
1770.83
1639.44
1507.27
1375.74
1246.16
1119.78
997.856
881.534
771.798
670.269
579.055
500.158
435.184
384.901
348.773
324.843
310.213
301.881
297.406
295.123
294
293.462
293.21
293.094
293.041
293.018
293.008
293.003
293.001
293.001
293
293
293
293
293
293
293.004
293.016
293.038
293.074
293.133
293.233
293.395
293.661
294.088
294.766
295.827
297.458
299.917
303.543
308.755
316.038
325.9
338.816
355.154
375.118
398.722
425.808
456.093
489.232
524.878
562.713
602.473
643.949
686.983
731.451
777.259
824.321
872.552
921.855
972.114
1023.22
1075.2
1127.99
1181.47
1235.53
1290.06
1344.91
1399.96
1455.05
1510.03
1564.75
1619.02
1672.66
1725.49
1777.28
1827.81
1876.82
1924.01
1969.05
2011.52
2050.92
2086.27
2116.47
2142.28
2161.26
2171.59
2129.77
2011.3
1886.25
1756.98
1625.4
1493.17
1361.72
1232.37
1106.38
985.008
869.374
760.464
659.996
570.077
492.666
429.29
380.583
345.857
323.033
309.172
301.32
297.119
294.983
293.934
293.431
293.196
293.088
293.039
293.017
293.007
293.003
293.001
293.001
293
293
293
293
293
293
293.004
293.016
293.038
293.073
293.133
293.231
293.393
293.657
294.082
294.757
295.812
297.435
299.883
303.491
308.68
315.932
325.756
338.628
354.918
374.834
398.391
425.434
455.684
488.796
524.422
562.247
602.005
643.487
686.535
731.027
776.866
823.97
872.251
921.616
971.947
1023.13
1075.2
1128.09
1181.68
1235.87
1290.52
1345.51
1400.69
1455.93
1511.05
1565.91
1620.32
1674.1
1727.04
1778.95
1829.57
1878.65
1925.89
1970.95
2013.42
2052.79
2088.08
2118.23
2143.98
2162.9
2173.2
2118.59
1999.64
1874.25
1744.74
1613.05
1480.82
1349.5
1220.4
1094.78
973.911
858.864
750.68
651.149
562.366
486.256
424.269
376.925
343.401
321.515
308.302
300.852
296.88
294.866
293.878
293.406
293.184
293.082
293.036
293.016
293.007
293.003
293.001
293.001
293
293
293
293
293
293
293.004
293.016
293.038
293.073
293.132
293.23
293.392
293.654
294.077
294.749
295.8
297.416
299.853
303.448
308.617
315.843
325.637
338.474
354.726
374.602
398.122
425.133
455.356
488.449
524.063
561.883
601.643
643.135
686.199
730.715
776.585
823.727
872.056
921.476
971.871
1023.13
1075.28
1128.25
1181.94
1236.23
1290.99
1346.09
1401.39
1456.74
1511.99
1566.96
1621.48
1675.36
1728.4
1780.39
1831.07
1880.2
1927.47
1972.53
2014.97
2054.31
2089.55
2119.63
2145.31
2164.16
2174.43
2109.05
1989.61
1863.89
1734.19
1602.42
1470.22
1339.02
1210.14
1084.85
964.409
849.873
742.322
643.605
555.808
480.821
420.029
373.851
341.347
320.251
307.58
300.465
296.683
294.769
293.832
293.384
293.174
293.078
293.034
293.015
293.006
293.003
293.001
293
293
293
293
293
293
293
293.004
293.016
293.037
293.073
293.132
293.23
293.39
293.652
294.073
294.742
295.789
297.4
299.829
303.411
308.565
315.771
325.54
338.348
354.569
374.415
397.906
424.893
455.096
488.175
523.782
561.601
601.366
642.869
685.95
730.488
776.388
823.566
871.937
921.405
971.855
1023.17
1075.39
1128.44
1182.21
1236.59
1291.44
1346.63
1402.02
1457.47
1512.81
1567.87
1622.48
1676.44
1729.55
1781.59
1832.32
1881.47
1928.74
1973.8
2016.23
2055.53
2090.68
2120.68
2146.3
2165.12
2175.34
2101.09
1981.16
1855.12
1725.25
1593.41
1461.23
1330.14
1201.45
1076.44
956.374
842.279
735.273
637.251
550.294
476.263
416.485
371.291
339.644
319.207
306.985
300.146
296.52
294.69
293.795
293.367
293.166
293.074
293.033
293.014
293.006
293.003
293.001
293
293
293
293
293
293
293
293.004
293.016
293.037
293.073
293.131
293.229
293.389
293.65
294.07
294.737
295.781
297.387
299.809
303.382
308.523
315.713
325.462
338.247
354.444
374.266
397.735
424.703
454.892
487.963
523.566
561.385
601.157
642.67
685.767
730.326
776.251
823.46
871.867
921.376
971.872
1023.24
1075.52
1128.63
1182.47
1236.91
1291.83
1347.1
1402.57
1458.09
1513.51
1568.64
1623.31
1677.33
1730.48
1782.55
1833.3
1882.46
1929.73
1974.77
2017.17
2056.42
2091.48
2121.42
2146.98
2165.78
2175.96
2094.51
1974.12
1847.8
1717.76
1585.87
1453.71
1322.72
1194.2
1069.44
949.686
835.962
729.416
631.978
545.726
472.496
413.565
369.189
338.25
318.355
306.502
299.887
296.389
294.626
293.764
293.352
293.16
293.071
293.031
293.014
293.006
293.003
293.001
293
293
293
293
293
293
293
293.004
293.016
293.037
293.072
293.131
293.228
293.388
293.648
294.067
294.733
295.774
297.376
299.793
303.359
308.489
315.666
325.4
338.168
354.347
374.15
397.603
424.557
454.736
487.8
523.401
561.223
601
642.524
685.635
730.211
776.158
823.392
871.828
921.372
971.905
1023.32
1075.64
1128.8
1182.69
1237.18
1292.16
1347.49
1403.02
1458.59
1514.06
1569.24
1623.96
1678.01
1731.19
1783.28
1834.04
1883.2
1930.46
1975.46
2017.81
2057.01
2091.99
2121.87
2147.39
2166.17
2176.35
2089.19
1968.36
1841.78
1711.61
1579.67
1447.54
1316.64
1188.28
1063.72
944.237
830.821
724.656
627.699
542.026
469.45
411.208
367.497
337.131
317.673
306.115
299.681
296.283
294.574
293.739
293.341
293.155
293.069
293.03
293.013
293.006
293.002
293.001
293
293
293
293
293
293
293
293.004
293.016
293.037
293.072
293.131
293.228
293.387
293.647
294.065
294.729
295.769
297.368
299.781
303.341
308.464
315.631
325.353
338.108
354.272
374.062
397.503
424.447
454.619
487.679
523.279
561.104
600.886
642.419
685.54
730.131
776.095
823.348
871.808
921.377
971.938
1023.38
1075.73
1128.93
1182.86
1237.4
1292.42
1347.78
1403.35
1458.97
1514.47
1569.68
1624.42
1678.49
1731.69
1783.79
1834.55
1883.69
1930.92
1975.89
2018.19
2057.34
2092.27
2122.11
2147.62
2166.42
2176.61
2084.87
1963.72
1836.95
1706.68
1574.72
1442.63
1311.81
1183.58
1059.21
939.941
826.776
720.917
624.344
539.13
467.071
409.373
366.182
336.262
317.144
305.815
299.521
296.202
294.534
293.721
293.332
293.151
293.067
293.03
293.013
293.006
293.002
293.001
293
293
293
293
293
293
293
293.004
293.016
293.037
293.072
293.131
293.228
293.387
293.646
294.064
294.727
295.765
297.362
299.772
303.328
308.445
315.606
325.319
338.065
354.219
373.999
397.431
424.368
454.535
487.593
523.193
561.02
600.807
642.345
685.476
730.076
776.053
823.321
871.796
921.382
971.963
1023.42
1075.8
1129.02
1182.98
1237.54
1292.59
1347.98
1403.58
1459.22
1514.74
1569.97
1624.73
1678.81
1732.01
1784.1
1834.84
1883.96
1931.16
1976.09
2018.35
2057.46
2092.39
2122.25
2147.87
2166.95
2177.63
2081.94
1960.36
1833.34
1702.96
1570.97
1438.92
1308.18
1180.06
1055.83
936.736
823.766
718.142
621.86
536.992
465.32
408.026
365.219
335.628
316.757
305.595
299.403
296.142
294.505
293.707
293.326
293.148
293.066
293.029
293.013
293.005
293.002
293.001
293
293
293
293
293
293
293
293.004
293.016
293.037
293.072
293.13
293.227
293.386
293.646
294.063
294.726
295.763
297.359
299.766
303.32
308.433
315.589
325.297
338.037
354.185
373.958
397.385
424.318
454.482
487.538
523.139
560.967
600.757
642.299
685.435
730.043
776.027
823.303
871.788
921.385
971.977
1023.45
1075.84
1129.08
1183.04
1237.62
1292.69
1348.1
1403.7
1459.36
1514.89
1570.13
1624.89
1678.97
1732.16
1784.24
1834.95
1884.04
1931.2
1976.08
2018.3
2057.37
2092.27
2122.12
2147.77
2166.94
2177.76
2079.9
1958
1830.82
1700.37
1568.38
1436.37
1305.7
1177.67
1053.55
934.583
821.753
716.295
620.214
535.58
464.169
407.144
364.593
335.216
316.506
305.453
299.327
296.103
294.486
293.697
293.321
293.146
293.065
293.029
293.012
293.005
293.002
293.001
293
293
293
293
293
293
293
293.004
293.016
293.037
293.072
293.13
293.227
293.386
293.645
294.062
294.725
295.762
297.357
299.764
303.316
308.428
315.581
325.287
338.023
354.169
373.939
397.363
424.294
454.457
487.512
523.113
560.941
600.733
642.278
685.416
730.027
776.014
823.295
871.785
921.387
971.984
1023.46
1075.86
1129.1
1183.07
1237.66
1292.73
1348.14
1403.75
1459.41
1514.95
1570.19
1624.94
1679.01
1732.19
1784.25
1834.95
1884.01
1931.13
1975.98
2018.16
2057.19
2092.05
2121.89
2147.56
2166.8
2177.82
2078.9
1956.75
1829.46
1698.98
1567
1435.02
1304.41
1176.44
1052.39
933.501
820.752
715.386
619.412
534.898
463.617
406.725
364.298
335.024
316.39
305.387
299.291
296.085
294.477
293.693
293.32
293.145
293.065
293.029
293.012
293.005
293.002
293.001
293
293
293
293
293
293
293
293.004
293.016
293.037
293.072
293.13
293.227
293.386
293.645
294.062
294.725
295.762
297.357
299.764
303.316
308.428
315.582
325.287
338.023
354.169
373.939
397.364
424.294
454.457
487.513
523.113
560.942
600.733
642.278
685.416
730.027
776.014
823.295
871.785
921.387
971.984
1023.46
1075.86
1129.1
1183.07
1237.66
1292.73
1348.14
1403.75
1459.41
1514.95
1570.19
1624.94
1679.01
1732.19
1784.25
1834.95
1884.01
1931.13
1975.98
2018.16
2057.19
2092.05
2121.89
2147.56
2166.8
2177.82
2078.9
1956.75
1829.46
1698.98
1567
1435.02
1304.41
1176.44
1052.39
933.501
820.752
715.386
619.412
534.898
463.618
406.725
364.298
335.024
316.39
305.387
299.291
296.085
294.477
293.693
293.32
293.145
293.065
293.029
293.012
293.005
293.002
293.001
293
293
293
293
293
293
293
293.004
293.016
293.037
293.072
293.13
293.227
293.386
293.646
294.063
294.726
295.763
297.359
299.766
303.32
308.434
315.589
325.298
338.037
354.185
373.959
397.386
424.318
454.483
487.539
523.139
560.967
600.757
642.3
685.436
730.043
776.027
823.304
871.789
921.386
971.978
1023.45
1075.84
1129.08
1183.05
1237.63
1292.69
1348.1
1403.71
1459.36
1514.89
1570.13
1624.89
1678.97
1732.16
1784.24
1834.95
1884.04
1931.2
1976.08
2018.3
2057.37
2092.27
2122.12
2147.77
2166.94
2177.76
2079.9
1958
1830.82
1700.37
1568.38
1436.37
1305.7
1177.67
1053.55
934.584
821.754
716.296
620.215
535.581
464.17
407.145
364.593
335.217
316.507
305.453
299.327
296.103
294.486
293.697
293.321
293.146
293.065
293.029
293.012
293.005
293.002
293.001
293
293
293
293
293
293
293
293.004
293.016
293.037
293.072
293.131
293.228
293.387
293.646
294.064
294.727
295.765
297.362
299.772
303.328
308.446
315.606
325.32
338.065
354.22
374
397.432
424.369
454.536
487.594
523.194
561.021
600.808
642.347
685.477
730.078
776.054
823.322
871.797
921.384
971.964
1023.43
1075.8
1129.03
1182.98
1237.54
1292.59
1347.98
1403.58
1459.22
1514.74
1569.97
1624.73
1678.81
1732.01
1784.1
1834.84
1883.96
1931.16
1976.09
2018.35
2057.46
2092.39
2122.25
2147.87
2166.95
2177.63
2081.94
1960.36
1833.34
1702.96
1570.98
1438.92
1308.18
1180.06
1055.83
936.737
823.767
718.143
621.862
536.993
465.321
408.026
365.22
335.628
316.757
305.595
299.403
296.142
294.505
293.707
293.326
293.148
293.066
293.029
293.013
293.005
293.002
293.001
293
293
293
293
293
293
293
293.004
293.016
293.037
293.072
293.131
293.228
293.387
293.647
294.065
294.73
295.769
297.368
299.781
303.341
308.464
315.632
325.354
338.109
354.273
374.063
397.504
424.448
454.62
487.68
523.281
561.105
600.888
642.42
685.542
730.133
776.097
823.35
871.81
921.379
971.94
1023.38
1075.74
1128.93
1182.86
1237.4
1292.42
1347.78
1403.35
1458.97
1514.47
1569.68
1624.42
1678.5
1731.69
1783.79
1834.55
1883.69
1930.92
1975.89
2018.19
2057.34
2092.27
2122.11
2147.61
2166.42
2176.61
2084.87
1963.72
1836.95
1706.68
1574.72
1442.63
1311.82
1183.59
1059.21
939.942
826.777
720.918
624.346
539.131
467.073
409.374
366.183
336.263
317.144
305.815
299.521
296.202
294.534
293.721
293.332
293.151
293.067
293.03
293.013
293.006
293.002
293.001
293
293
293
293
293
293
293
293.004
293.016
293.037
293.072
293.131
293.228
293.388
293.648
294.067
294.733
295.774
297.376
299.793
303.359
308.49
315.667
325.401
338.169
354.348
374.151
397.604
424.558
454.738
487.802
523.403
561.225
601.003
642.526
685.637
730.214
776.16
823.394
871.831
921.374
971.908
1023.32
1075.64
1128.8
1182.69
1237.19
1292.16
1347.49
1403.02
1458.6
1514.06
1569.24
1623.96
1678.01
1731.19
1783.28
1834.04
1883.2
1930.46
1975.46
2017.81
2057.01
2091.99
2121.87
2147.39
2166.17
2176.35
2089.19
1968.36
1841.78
1711.61
1579.67
1447.54
1316.64
1188.28
1063.72
944.238
830.823
724.658
627.701
542.027
469.451
411.21
367.498
337.132
317.674
306.115
299.681
296.283
294.574
293.739
293.341
293.155
293.069
293.03
293.013
293.006
293.002
293.001
293
293
293
293
293
293
293
293.004
293.016
293.037
293.073
293.131
293.229
293.389
293.65
294.07
294.737
295.781
297.387
299.809
303.382
308.523
315.713
325.462
338.248
354.445
374.267
397.737
424.705
454.894
487.965
523.568
561.388
601.159
642.673
685.77
730.329
776.254
823.463
871.87
921.38
971.876
1023.24
1075.52
1128.63
1182.47
1236.91
1291.84
1347.1
1402.57
1458.1
1513.51
1568.64
1623.31
1677.33
1730.49
1782.56
1833.3
1882.46
1929.73
1974.77
2017.17
2056.42
2091.48
2121.42
2146.98
2165.78
2175.96
2094.52
1974.12
1847.8
1717.76
1585.87
1453.71
1322.72
1194.2
1069.44
949.688
835.964
729.418
631.981
545.729
472.498
413.566
369.19
338.251
318.355
306.502
299.888
296.389
294.626
293.764
293.352
293.16
293.071
293.031
293.014
293.006
293.003
293.001
293
293
293
293
293
293
293
293.004
293.016
293.037
293.073
293.132
293.23
293.39
293.652
294.073
294.742
295.789
297.4
299.829
303.412
308.565
315.772
325.541
338.349
354.571
374.416
397.908
424.895
455.098
488.178
523.785
561.604
601.369
642.872
685.953
730.492
776.392
823.569
871.94
921.409
971.859
1023.18
1075.4
1128.45
1182.22
1236.59
1291.44
1346.63
1402.03
1457.48
1512.81
1567.88
1622.48
1676.45
1729.56
1781.6
1832.32
1881.47
1928.74
1973.8
2016.23
2055.53
2090.68
2120.68
2146.3
2165.12
2175.34
2101.1
1981.16
1855.12
1725.25
1593.41
1461.23
1330.14
1201.45
1076.44
956.376
842.281
735.276
637.253
550.296
476.265
416.487
371.293
339.644
319.207
306.986
300.146
296.52
294.69
293.795
293.367
293.166
293.074
293.033
293.014
293.006
293.003
293.001
293
293
293
293
293
293
293
293.004
293.016
293.038
293.073
293.132
293.23
293.392
293.654
294.077
294.749
295.8
297.416
299.853
303.448
308.617
315.844
325.638
338.475
354.727
374.604
398.124
425.136
455.359
488.452
524.066
561.886
601.647
643.139
686.203
730.719
776.59
823.732
872.061
921.481
971.876
1023.13
1075.28
1128.26
1181.95
1236.24
1291
1346.1
1401.4
1456.75
1511.99
1566.96
1621.49
1675.37
1728.41
1780.39
1831.08
1880.21
1927.48
1972.53
2014.97
2054.32
2089.55
2119.63
2145.31
2164.16
2174.43
2109.05
1989.61
1863.89
1734.19
1602.43
1470.23
1339.03
1210.14
1084.85
964.411
849.876
742.325
643.608
555.811
480.823
420.031
373.852
341.348
320.251
307.58
300.465
296.683
294.77
293.832
293.384
293.174
293.078
293.034
293.015
293.006
293.003
293.001
293
293
293
293
293
293
293
293.004
293.016
293.038
293.073
293.133
293.231
293.393
293.657
294.082
294.757
295.812
297.435
299.883
303.492
308.68
315.932
325.757
338.63
354.92
374.836
398.393
425.437
455.687
488.799
524.426
562.251
602.009
643.492
686.54
731.031
776.871
823.974
872.256
921.621
971.952
1023.14
1075.21
1128.1
1181.69
1235.88
1290.53
1345.51
1400.7
1455.93
1511.06
1565.91
1620.32
1674.1
1727.05
1778.95
1829.57
1878.65
1925.9
1970.96
2013.42
2052.79
2088.08
2118.23
2143.98
2162.91
2173.2
2118.59
1999.64
1874.25
1744.74
1613.05
1480.82
1349.5
1220.39
1094.78
973.911
858.866
750.683
651.152
562.369
486.259
424.271
376.927
343.402
321.516
308.303
300.852
296.88
294.866
293.878
293.406
293.184
293.082
293.036
293.016
293.007
293.003
293.001
293.001
293
293
293
293
293
293
293.004
293.016
293.038
293.074
293.133
293.233
293.395
293.661
294.088
294.766
295.827
297.458
299.918
303.544
308.756
316.038
325.901
338.817
355.156
375.12
398.725
425.811
456.096
489.236
524.882
562.717
602.478
643.955
686.988
731.457
777.265
824.327
872.558
921.861
972.12
1023.22
1075.2
1127.99
1181.48
1235.54
1290.07
1344.92
1399.96
1455.05
1510.04
1564.75
1619.02
1672.67
1725.5
1777.29
1827.82
1876.82
1924.02
1969.05
2011.52
2050.92
2086.28
2116.47
2142.29
2161.27
2171.6
2129.77
2011.3
1886.26
1756.98
1625.41
1493.18
1361.73
1232.38
1106.39
985.014
869.377
760.468
660
570.08
492.669
429.292
380.584
345.858
323.034
309.172
301.32
297.119
294.983
293.934
293.431
293.196
293.088
293.039
293.017
293.007
293.003
293.001
293.001
293
293
293
293
293
293
293.004
293.017
293.038
293.074
293.134
293.234
293.398
293.665
294.094
294.776
295.844
297.485
299.959
303.605
308.845
316.164
326.072
339.042
355.439
375.465
399.129
426.27
456.602
489.781
525.455
563.31
603.079
644.555
687.579
732.028
777.805
824.826
873.003
922.241
972.423
1023.44
1075.32
1127.99
1181.35
1235.28
1289.65
1344.35
1399.23
1454.15
1508.97
1563.51
1617.61
1671.1
1723.77
1775.43
1825.84
1874.74
1921.86
1966.85
2009.29
2048.71
2084.13
2114.39
2140.23
2159.24
2169.55
2142.41
2024.44
1899.8
1770.83
1639.44
1507.26
1375.73
1246.15
1119.78
997.856
881.539
771.803
670.274
579.059
500.161
435.187
384.903
348.774
324.844
310.213
301.881
297.406
295.123
294
293.462
293.21
293.094
293.041
293.018
293.008
293.003
293.001
293.001
293
293
293
293
293
293
293.004
293.017
293.038
293.075
293.135
293.235
293.4
293.669
294.101
294.788
295.863
297.515
300.006
303.676
308.949
316.312
326.274
339.308
355.778
375.879
399.618
426.829
457.223
490.454
526.17
564.054
603.843
645.328
688.349
732.783
778.534
825.515
873.64
922.81
972.909
1023.82
1075.59
1128.14
1181.36
1235.13
1289.34
1343.86
1398.55
1453.28
1507.89
1562.23
1616.13
1669.42
1721.91
1773.4
1823.66
1872.45
1919.47
1964.4
2006.83
2046.26
2081.8
2112.18
2138.11
2157.08
2167.1
2155.57
2038.44
1914.51
1786.08
1655.06
1523.08
1391.55
1261.79
1135.04
1012.54
895.486
784.811
682.094
589.427
508.851
442.064
389.97
352.215
326.992
311.453
302.55
297.748
295.29
294.08
293.499
293.227
293.101
293.045
293.019
293.008
293.004
293.001
293.001
293
293
293
293
293
293
293.004
293.017
293.039
293.075
293.136
293.237
293.403
293.674
294.109
294.802
295.885
297.55
300.059
303.757
309.068
316.482
326.509
339.62
356.177
376.371
400.203
427.503
457.978
491.279
527.053
564.984
604.807
646.312
689.341
733.77
779.502
826.449
874.523
923.626
973.639
1024.45
1076.1
1128.51
1181.57
1235.18
1289.2
1343.51
1397.99
1452.49
1506.87
1560.97
1614.64
1667.7
1719.98
1771.27
1821.36
1870
1916.93
1961.83
2004.3
2043.87
2079.77
2110.52
2137
2156.79
2167.95
2167.35
2052.11
1929.64
1802.29
1672.02
1540.49
1409.15
1279.31
1152.24
1029.17
911.329
799.667
695.647
601.356
518.888
450.039
395.879
356.254
329.527
312.921
303.344
298.154
295.488
294.174
293.543
293.246
293.11
293.048
293.021
293.009
293.004
293.002
293.001
293
293
293
293
293
293
293.004
293.017
293.039
293.076
293.137
293.239
293.406
293.679
294.118
294.816
295.908
297.587
300.118
303.847
309.203
316.676
326.778
339.982
356.643
376.95
400.898
428.31
458.889
492.283
528.138
566.135
606.009
647.553
690.605
735.043
780.766
827.687
875.717
924.755
974.682
1025.39
1076.91
1129.17
1182.06
1235.48
1289.29
1343.38
1397.61
1451.86
1505.97
1559.81
1613.2
1666
1718.02
1769.08
1818.96
1867.44
1914.25
1959.1
2001.62
2041.36
2077.79
2109.2
2136.75
2158.35
2172.52
2176.97
2064.75
1944.68
1819.15
1690.16
1559.45
1428.54
1298.78
1171.46
1047.83
929.165
816.434
711.005
614.93
530.365
459.217
402.729
360.97
332.506
314.655
304.284
298.634
295.722
294.284
293.593
293.269
293.12
293.053
293.023
293.01
293.004
293.002
293.001
293
293
293
293
293
293
293.004
293.017
293.039
293.076
293.138
293.24
293.409
293.684
294.127
294.83
295.932
297.626
300.18
303.944
309.349
316.889
327.08
340.391
357.179
377.623
401.714
429.267
459.98
493.496
529.458
567.548
607.5
649.103
692.199
736.662
782.392
829.3
877.293
926.272
976.114
1026.71
1078.1
1130.21
1182.92
1236.12
1289.7
1343.55
1397.51
1451.47
1505.29
1558.82
1611.9
1664.4
1716.12
1766.9
1816.53
1864.79
1911.45
1956.21
1998.73
2038.59
2075.29
2107.37
2134.86
2157.48
2172.9
2178.82
2074.27
1958.96
1836.47
1709.45
1579.98
1449.75
1320.23
1192.74
1068.59
949.057
835.191
728.253
630.253
543.399
469.706
410.61
366.43
335.971
316.675
305.377
299.191
295.992
294.411
293.652
293.295
293.132
293.058
293.025
293.011
293.005
293.002
293.001
293
293
293
293
293
293
293.004
293.017
293.039
293.077
293.139
293.242
293.412
293.689
294.135
294.845
295.956
297.666
300.246
304.048
309.509
317.126
327.419
340.857
357.793
378.403
402.668
430.396
461.277
494.949
531.053
569.267
609.325
651.016
694.179
738.689
784.444
831.352
879.321
928.246
978.006
1028.5
1079.75
1131.69
1184.21
1237.19
1290.52
1344.08
1397.76
1451.41
1504.9
1558.08
1610.83
1662.98
1714.36
1764.82
1814.15
1862.14
1908.57
1953.16
1995.57
2035.41
2072.12
2104.41
2132.04
2154.98
2170.8
2177.31
2091.34
1977.78
1856.88
1731.14
1602.61
1472.96
1343.66
1216.04
1091.38
970.964
855.926
747.417
647.372
558.048
481.581
419.606
372.718
339.996
319.036
306.659
299.844
296.308
294.559
293.719
293.325
293.145
293.063
293.027
293.012
293.005
293.002
293.001
293
293
293
293
293
293
293.004
293.017
293.039
293.077
293.139
293.243
293.413
293.692
294.141
294.855
295.975
297.699
300.302
304.141
309.659
317.359
327.765
341.349
358.461
379.273
403.754
431.702
462.798
496.673
532.961
571.339
611.538
653.348
696.605
741.184
786.981
833.902
881.853
930.729
980.405
1030.78
1081.9
1133.66
1185.97
1238.72
1291.78
1345.05
1398.4
1451.71
1504.86
1557.68
1610.06
1661.83
1712.85
1762.95
1811.94
1859.62
1905.76
1950.1
1992.31
2032
2068.68
2101.12
2128.85
2151.95
2168.18
2175.56
2112.35
1999.37
1879.3
1754.42
1626.63
1497.52
1368.48
1240.79
1115.71
994.498
878.336
768.286
666.154
574.239
494.795
429.674
379.778
344.51
321.667
308.071
300.551
296.645
294.714
293.788
293.356
293.158
293.069
293.03
293.013
293.005
293.002
293.001
293
293
293
293
293
293
293.004
293.017
293.039
293.077
293.139
293.243
293.414
293.693
294.144
294.862
295.99
297.73
300.359
304.241
309.825
317.622
328.161
341.918
359.241
380.293
405.032
433.244
464.597
498.714
535.224
573.799
614.168
656.12
699.489
744.149
789.995
836.932
884.863
933.682
983.265
1033.52
1084.48
1136.06
1188.15
1240.64
1293.43
1346.4
1399.42
1452.39
1505.17
1557.63
1609.64
1661.04
1711.69
1761.42
1810.06
1857.41
1903.24
1947.3
1989.26
2028.75
2065.28
2097.72
2125.52
2148.74
2165.13
2172.89
2132.37
2020.21
1901.07
1777.12
1650.17
1521.72
1393.12
1265.6
1140.35
1018.58
901.501
790.11
686.059
591.639
509.209
440.833
387.734
349.675
324.714
309.716
301.375
297.035
294.892
293.867
293.39
293.172
293.075
293.032
293.014
293.006
293.002
293.001
293
293
293
293
293
293
293.004
293.017
293.039
293.076
293.139
293.242
293.412
293.69
294.14
294.857
295.985
297.727
300.367
304.275
309.907
317.788
328.456
342.395
359.955
381.289
406.344
434.886
466.566
500.988
537.771
576.58
617.143
659.245
702.724
747.454
793.33
840.259
888.145