/*--------------------------------*- C++ -*----------------------------------*\
  =========                 |
  \\      /  F ield         | OpenFOAM: The Open Source CFD Toolbox
   \\    /   O peration     | Website:  https://openfoam.org
    \\  /    A nd           | Version:  8
     \\/     M anipulation  |
\*---------------------------------------------------------------------------*/
FoamFile
{
    version     2.0;
    format      ascii;
    class       volVectorField;
    location    "720/fluid";
    object      U;
}
// * * * * * * * * * * * * * * * * * * * * * * * * * * * * * * * * * * * * * //

dimensions      [0 1 -1 0 0 0 0];

internalField   nonuniform List<vector> 
4000
(
(0.0999456 -0.00705597 0)
(0.0996498 -0.0209977 0)
(0.0991724 -0.0348233 0)
(0.0985129 -0.0485704 0)
(0.0976634 -0.0622584 0)
(0.0966061 -0.0758903 0)
(0.0953206 -0.0894555 0)
(0.0937874 -0.102934 0)
(0.0919913 -0.116299 0)
(0.0899236 -0.129521 0)
(0.0875862 -0.142573 0)
(0.0849948 -0.155435 0)
(0.0821833 -0.168098 0)
(0.0792104 -0.180549 0)
(0.0761544 -0.192832 0)
(0.0730883 -0.205016 0)
(0.0700631 -0.217162 0)
(0.0670964 -0.229313 0)
(0.0641649 -0.241478 0)
(0.0612046 -0.253632 0)
(0.058124 -0.265711 0)
(0.0548218 -0.277624 0)
(0.0512084 -0.289265 0)
(0.0472264 -0.300504 0)
(0.0428501 -0.311248 0)
(0.0380717 -0.321433 0)
(0.0328969 -0.330995 0)
(0.0273429 -0.339877 0)
(0.0214352 -0.348035 0)
(0.015205 -0.355432 0)
(0.00868559 -0.362047 0)
(0.00191217 -0.367865 0)
(-0.00507852 -0.372886 0)
(-0.0122502 -0.377113 0)
(-0.0195701 -0.380562 0)
(-0.0270085 -0.38325 0)
(-0.0345382 -0.385203 0)
(-0.0421332 -0.386451 0)
(-0.0497691 -0.38703 0)
(-0.0574225 -0.386977 0)
(-0.0650714 -0.386335 0)
(-0.072695 -0.385145 0)
(-0.0802734 -0.383454 0)
(-0.0877875 -0.381309 0)
(-0.0952185 -0.378757 0)
(-0.102548 -0.375846 0)
(-0.109759 -0.372628 0)
(-0.116833 -0.369151 0)
(-0.123751 -0.365468 0)
(-0.130495 -0.361631 0)
(-0.137046 -0.357692 0)
(-0.143384 -0.353709 0)
(-0.149488 -0.349738 0)
(-0.155335 -0.345841 0)
(-0.1609 -0.342085 0)
(-0.166154 -0.338543 0)
(-0.171057 -0.335299 0)
(-0.175557 -0.332438 0)
(-0.179627 -0.330061 0)
(-0.183303 -0.328322 0)
(-0.186654 -0.327498 0)
(-0.189068 -0.327946 0)
(-0.188454 -0.329512 0)
(-0.18362 -0.330459 0)
(-0.176614 -0.329686 0)
(-0.169172 -0.327317 0)
(-0.161499 -0.323646 0)
(-0.15353 -0.318816 0)
(-0.145286 -0.312888 0)
(-0.136836 -0.305901 0)
(-0.12826 -0.297884 0)
(-0.119644 -0.288871 0)
(-0.111075 -0.278905 0)
(-0.102646 -0.268032 0)
(-0.0945065 -0.25631 0)
(-0.0868986 -0.243853 0)
(-0.0801514 -0.230858 0)
(-0.074634 -0.217604 0)
(-0.0707227 -0.204656 0)
(-0.0687128 -0.192522 0)
(-0.0686375 -0.181446 0)
(-0.0701969 -0.171338 0)
(-0.0728761 -0.161887 0)
(-0.0761377 -0.152762 0)
(-0.0795542 -0.143719 0)
(-0.0828449 -0.134615 0)
(-0.0858381 -0.125352 0)
(-0.0884668 -0.115977 0)
(-0.0907291 -0.106536 0)
(-0.0926499 -0.0970641 0)
(-0.0942628 -0.0875908 0)
(-0.0956033 -0.0781437 0)
(-0.0967055 -0.0687437 0)
(-0.0976011 -0.0594055 0)
(-0.0983186 -0.0501367 0)
(-0.0988834 -0.0409376 0)
(-0.0993173 -0.0318004 0)
(-0.0996375 -0.0227073 0)
(-0.0998557 -0.0136328 0)
(-0.0999821 -0.00455262 0)
(0.0999999 -0.00661885 0)
(0.0997943 -0.0197997 0)
(0.0993692 -0.0328931 0)
(0.0987007 -0.0458806 0)
(0.0977904 -0.0587451 0)
(0.0966338 -0.0714645 0)
(0.0952218 -0.0840111 0)
(0.0935463 -0.0963531 0)
(0.0916054 -0.108458 0)
(0.0894062 -0.120296 0)
(0.0869684 -0.131848 0)
(0.0843263 -0.143112 0)
(0.0815304 -0.154118 0)
(0.0786475 -0.164948 0)
(0.0757504 -0.175665 0)
(0.0729059 -0.186326 0)
(0.0701603 -0.197007 0)
(0.0675256 -0.207773 0)
(0.0649716 -0.218665 0)
(0.0624253 -0.229681 0)
(0.0597834 -0.240773 0)
(0.0569309 -0.251864 0)
(0.0537617 -0.262857 0)
(0.0501938 -0.273671 0)
(0.0461788 -0.284191 0)
(0.041698 -0.294284 0)
(0.0367539 -0.303849 0)
(0.0313658 -0.312807 0)
(0.0255647 -0.321102 0)
(0.0193882 -0.328692 0)
(0.0128768 -0.335551 0)
(0.00607144 -0.341664 0)
(-0.000987554 -0.347026 0)
(-0.00826116 -0.351642 0)
(-0.0157124 -0.355525 0)
(-0.0233069 -0.358692 0)
(-0.0310137 -0.361168 0)
(-0.0388042 -0.362979 0)
(-0.0466518 -0.364158 0)
(-0.0545318 -0.364739 0)
(-0.0624207 -0.36476 0)
(-0.0702968 -0.36426 0)
(-0.0781395 -0.363282 0)
(-0.0859292 -0.361868 0)
(-0.0936472 -0.360064 0)
(-0.101275 -0.357913 0)
(-0.108796 -0.355464 0)
(-0.116192 -0.352763 0)
(-0.123447 -0.349858 0)
(-0.130542 -0.346798 0)
(-0.137462 -0.343633 0)
(-0.144189 -0.340412 0)
(-0.150705 -0.337189 0)
(-0.156992 -0.334016 0)
(-0.163033 -0.330949 0)
(-0.168805 -0.328042 0)
(-0.174276 -0.325353 0)
(-0.179403 -0.322936 0)
(-0.184187 -0.320841 0)
(-0.188728 -0.319123 0)
(-0.193134 -0.317833 0)
(-0.196446 -0.316961 0)
(-0.196033 -0.316003 0)
(-0.190747 -0.31436 0)
(-0.183224 -0.311832 0)
(-0.1754 -0.308314 0)
(-0.167435 -0.303759 0)
(-0.159199 -0.298143 0)
(-0.150678 -0.291453 0)
(-0.141921 -0.283681 0)
(-0.132988 -0.274827 0)
(-0.123946 -0.264908 0)
(-0.114855 -0.253964 0)
(-0.105791 -0.242075 0)
(-0.0969019 -0.229397 0)
(-0.0884678 -0.216211 0)
(-0.080883 -0.202973 0)
(-0.0746106 -0.190315 0)
(-0.0701072 -0.178657 0)
(-0.0676635 -0.168265 0)
(-0.0672504 -0.15915 0)
(-0.0685088 -0.151037 0)
(-0.0709075 -0.143517 0)
(-0.0739297 -0.136227 0)
(-0.0771785 -0.128933 0)
(-0.0803956 -0.121528 0)
(-0.0834395 -0.114006 0)
(-0.0862251 -0.106279 0)
(-0.0887173 -0.0983232 0)
(-0.0909104 -0.0901692 0)
(-0.0928126 -0.0818564 0)
(-0.0944401 -0.0734232 0)
(-0.0958132 -0.0649031 0)
(-0.096954 -0.0563239 0)
(-0.0978849 -0.0477073 0)
(-0.0986265 -0.039069 0)
(-0.0991967 -0.0304171 0)
(-0.0996073 -0.0217513 0)
(-0.0998663 -0.0130655 0)
(-0.0999951 -0.00435879 0)
(0.0999788 -0.00634035 0)
(0.099715 -0.0189544 0)
(0.0991982 -0.0314784 0)
(0.0984096 -0.0438915 0)
(0.0973533 -0.0561728 0)
(0.0960301 -0.0682995 0)
(0.0944395 -0.0802469 0)
(0.0925846 -0.09199 0)
(0.0904755 -0.103505 0)
(0.0881325 -0.114775 0)
(0.0855879 -0.125787 0)
(0.0828875 -0.136543 0)
(0.0800899 -0.147059 0)
(0.0772599 -0.157366 0)
(0.0744631 -0.16752 0)
(0.0717612 -0.177594 0)
(0.0691992 -0.187667 0)
(0.0667897 -0.197809 0)
(0.0645026 -0.208066 0)
(0.0622651 -0.218443 0)
(0.0599724 -0.228904 0)
(0.0575067 -0.239378 0)
(0.054755 -0.249774 0)
(0.0516217 -0.259987 0)
(0.0480367 -0.269918 0)
(0.0439622 -0.279475 0)
(0.03939 -0.288577 0)
(0.0343334 -0.297155 0)
(0.0288201 -0.305153 0)
(0.0228859 -0.312528 0)
(0.016571 -0.319249 0)
(0.00991687 -0.325295 0)
(0.00296443 -0.330657 0)
(-0.00424582 -0.335333 0)
(-0.0116756 -0.339332 0)
(-0.0192898 -0.342665 0)
(-0.0270554 -0.345352 0)
(-0.0349427 -0.347416 0)
(-0.042924 -0.348884 0)
(-0.0509736 -0.349789 0)
(-0.0590673 -0.350161 0)
(-0.0671826 -0.350039 0)
(-0.0752985 -0.349459 0)
(-0.0833952 -0.348462 0)
(-0.0914542 -0.347087 0)
(-0.0994577 -0.345377 0)
(-0.107389 -0.343374 0)
(-0.115231 -0.341121 0)
(-0.122969 -0.338662 0)
(-0.13059 -0.336041 0)
(-0.138078 -0.333302 0)
(-0.145421 -0.330489 0)
(-0.152606 -0.327646 0)
(-0.159621 -0.324815 0)
(-0.166455 -0.322039 0)
(-0.173092 -0.319357 0)
(-0.179503 -0.316805 0)
(-0.185648 -0.314407 0)
(-0.191544 -0.312184 0)
(-0.197304 -0.310152 0)
(-0.202914 -0.308316 0)
(-0.206839 -0.306614 0)
(-0.206122 -0.304402 0)
(-0.200205 -0.301399 0)
(-0.192173 -0.297706 0)
(-0.183788 -0.293244 0)
(-0.175192 -0.287913 0)
(-0.166283 -0.281653 0)
(-0.157058 -0.274433 0)
(-0.147563 -0.266251 0)
(-0.13785 -0.257127 0)
(-0.12798 -0.247111 0)
(-0.118011 -0.23629 0)
(-0.108032 -0.2248 0)
(-0.0982373 -0.212843 0)
(-0.088969 -0.200711 0)
(-0.0806924 -0.188768 0)
(-0.0739361 -0.177421 0)
(-0.0691634 -0.167036 0)
(-0.0665935 -0.157819 0)
(-0.0660993 -0.149713 0)
(-0.0672605 -0.14243 0)
(-0.0695351 -0.135598 0)
(-0.0724248 -0.128899 0)
(-0.0755548 -0.122129 0)
(-0.0786856 -0.115185 0)
(-0.0816872 -0.108037 0)
(-0.084494 -0.100693 0)
(-0.0870686 -0.0931736 0)
(-0.0893927 -0.0854985 0)
(-0.0914616 -0.0776886 0)
(-0.0932786 -0.0697646 0)
(-0.0948521 -0.0617465 0)
(-0.0961929 -0.0536528 0)
(-0.0973136 -0.0454997 0)
(-0.0982268 -0.0373009 0)
(-0.0989435 -0.0290658 0)
(-0.0994705 -0.0207977 0)
(-0.0998117 -0.0124971 0)
(-0.0999872 -0.00417001 0)
(0.0999836 -0.00598683 0)
(0.0997153 -0.0178976 0)
(0.099181 -0.0297139 0)
(0.0983613 -0.0414083 0)
(0.0972648 -0.052955 0)
(0.0958983 -0.064328 0)
(0.0942673 -0.0755005 0)
(0.0923803 -0.0864472 0)
(0.090252 -0.0971456 0)
(0.0879055 -0.107579 0)
(0.0853736 -0.11774 0)
(0.0827009 -0.127634 0)
(0.0799437 -0.137284 0)
(0.0771681 -0.146733 0)
(0.0744446 -0.156042 0)
(0.0718379 -0.165289 0)
(0.0693935 -0.174556 0)
(0.0671227 -0.183916 0)
(0.064994 -0.193418 0)
(0.0629328 -0.203073 0)
(0.0608319 -0.212853 0)
(0.0585695 -0.222695 0)
(0.0560291 -0.232513 0)
(0.0531139 -0.242211 0)
(0.0497547 -0.25169 0)
(0.0459117 -0.260858 0)
(0.0415707 -0.269634 0)
(0.0367382 -0.277947 0)
(0.0314348 -0.285743 0)
(0.0256908 -0.292978 0)
(0.0195413 -0.29962 0)
(0.0130238 -0.305647 0)
(0.00617653 -0.311048 0)
(-0.000962918 -0.315819 0)
(-0.00835784 -0.319964 0)
(-0.0159737 -0.323494 0)
(-0.0237787 -0.326423 0)
(-0.0317435 -0.328771 0)
(-0.0398411 -0.330562 0)
(-0.0480461 -0.331822 0)
(-0.0563347 -0.33258 0)
(-0.0646849 -0.332869 0)
(-0.0730761 -0.332721 0)
(-0.081489 -0.332171 0)
(-0.0899056 -0.331256 0)
(-0.0983084 -0.330012 0)
(-0.106681 -0.328477 0)
(-0.11501 -0.326687 0)
(-0.12328 -0.324681 0)
(-0.131477 -0.322497 0)
(-0.139591 -0.32017 0)
(-0.147607 -0.317736 0)
(-0.155516 -0.315228 0)
(-0.163305 -0.312679 0)
(-0.170962 -0.310116 0)
(-0.178469 -0.307563 0)
(-0.185786 -0.305036 0)
(-0.192864 -0.302541 0)
(-0.199727 -0.300076 0)
(-0.206496 -0.297646 0)
(-0.212991 -0.295241 0)
(-0.21702 -0.292802 0)
(-0.215552 -0.289593 0)
(-0.208906 -0.285566 0)
(-0.200423 -0.280926 0)
(-0.191503 -0.275631 0)
(-0.182232 -0.269585 0)
(-0.172561 -0.262732 0)
(-0.162522 -0.255046 0)
(-0.152182 -0.246531 0)
(-0.141613 -0.237219 0)
(-0.130893 -0.227172 0)
(-0.120106 -0.216492 0)
(-0.109382 -0.205322 0)
(-0.0989732 -0.193872 0)
(-0.0892768 -0.182428 0)
(-0.0807792 -0.171338 0)
(-0.0739799 -0.160978 0)
(-0.0692677 -0.151655 0)
(-0.0667767 -0.1435 0)
(-0.0663149 -0.1364 0)
(-0.0674384 -0.130051 0)
(-0.06962 -0.124098 0)
(-0.0723917 -0.118251 0)
(-0.0754066 -0.112324 0)
(-0.0784395 -0.106221 0)
(-0.081361 -0.0999028 0)
(-0.0841036 -0.093362 0)
(-0.0866354 -0.0866091 0)
(-0.0889424 -0.0796627 0)
(-0.0910203 -0.0725451 0)
(-0.0928696 -0.0652784 0)
(-0.0944936 -0.0578839 0)
(-0.0958973 -0.0503814 0)
(-0.0970866 -0.0427894 0)
(-0.0980678 -0.035124 0)
(-0.0988459 -0.0273982 0)
(-0.099422 -0.01962 0)
(-0.0997958 -0.0117954 0)
(-0.0999874 -0.00393664 0)
(0.0999806 -0.0056324 0)
(0.0996972 -0.0168367 0)
(0.0991375 -0.0279496 0)
(0.0982835 -0.0389431 0)
(0.0971462 -0.0497918 0)
(0.095735 -0.0604702 0)
(0.0940585 -0.0709535 0)
(0.0921286 -0.0812186 0)
(0.0899635 -0.0912458 0)
(0.0875895 -0.101021 0)
(0.0850428 -0.11054 0)
(0.0823708 -0.119807 0)
(0.0796323 -0.128844 0)
(0.0768952 -0.137689 0)
(0.0742306 -0.146399 0)
(0.071703 -0.155044 0)
(0.0693571 -0.163699 0)
(0.0672039 -0.172435 0)
(0.0652117 -0.181298 0)
(0.0633056 -0.190304 0)
(0.0613776 -0.199431 0)
(0.0593038 -0.208628 0)
(0.0569639 -0.217818 0)
(0.0542569 -0.226916 0)
(0.0511086 -0.235833 0)
(0.0474744 -0.244485 0)
(0.0433355 -0.252797 0)
(0.038694 -0.260704 0)
(0.0335666 -0.268153 0)
(0.0279801 -0.275102 0)
(0.0219665 -0.281519 0)
(0.0155605 -0.287382 0)
(0.00879766 -0.292678 0)
(0.00171328 -0.297401 0)
(-0.00565758 -0.301551 0)
(-0.013282 -0.305137 0)
(-0.0211299 -0.308169 0)
(-0.0291733 -0.310665 0)
(-0.0373862 -0.312643 0)
(-0.0457442 -0.314126 0)
(-0.0542247 -0.31514 0)
(-0.0628067 -0.315711 0)
(-0.0714703 -0.315868 0)
(-0.0801966 -0.315641 0)
(-0.0889678 -0.315061 0)
(-0.0977675 -0.31416 0)
(-0.10658 -0.312969 0)
(-0.115391 -0.311521 0)
(-0.124186 -0.309846 0)
(-0.132952 -0.307976 0)
(-0.141675 -0.305939 0)
(-0.150341 -0.303764 0)
(-0.158937 -0.301474 0)
(-0.167447 -0.299093 0)
(-0.175853 -0.296639 0)
(-0.184127 -0.294123 0)
(-0.192215 -0.291552 0)
(-0.200055 -0.28892 0)
(-0.207682 -0.286218 0)
(-0.215216 -0.283444 0)
(-0.222288 -0.280581 0)
(-0.226053 -0.277586 0)
(-0.223629 -0.273707 0)
(-0.216297 -0.269068 0)
(-0.207427 -0.263865 0)
(-0.198019 -0.25807 0)
(-0.188115 -0.251614 0)
(-0.177723 -0.244462 0)
(-0.166924 -0.236607 0)
(-0.15581 -0.228069 0)
(-0.144477 -0.218892 0)
(-0.133024 -0.209152 0)
(-0.121555 -0.198957 0)
(-0.110238 -0.188455 0)
(-0.0993674 -0.17785 0)
(-0.0893678 -0.167405 0)
(-0.0807289 -0.157423 0)
(-0.073924 -0.148205 0)
(-0.0692863 -0.139973 0)
(-0.0668794 -0.132776 0)
(-0.0664552 -0.12646 0)
(-0.0675504 -0.120739 0)
(-0.0696502 -0.115306 0)
(-0.072314 -0.109926 0)
(-0.0752214 -0.104451 0)
(-0.0781656 -0.0988052 0)
(-0.0810256 -0.0929601 0)
(-0.0837345 -0.0869114 0)
(-0.0862567 -0.0806679 0)
(-0.088574 -0.0742441 0)
(-0.0906776 -0.0676567 0)
(-0.0925641 -0.0609232 0)
(-0.0942332 -0.0540608 0)
(-0.0956862 -0.0470864 0)
(-0.0969255 -0.0400164 0)
(-0.0979543 -0.0328662 0)
(-0.0987745 -0.0256488 0)
(-0.0993845 -0.0183735 0)
(-0.0997818 -0.0110481 0)
(-0.0999862 -0.00368737 0)
(0.0999812 -0.00526302 0)
(0.0996953 -0.0157331 0)
(0.0991294 -0.0261157 0)
(0.098266 -0.0363825 0)
(0.0971175 -0.0465077 0)
(0.0956956 -0.0564662 0)
(0.0940106 -0.066234 0)
(0.0920763 -0.075789 0)
(0.0899127 -0.0851129 0)
(0.0875472 -0.0941933 0)
(0.0850168 -0.103026 0)
(0.0823692 -0.111618 0)
(0.079663 -0.11999 0)
(0.0769655 -0.128181 0)
(0.0743475 -0.136245 0)
(0.0718734 -0.144252 0)
(0.0695882 -0.152275 0)
(0.0675041 -0.160382 0)
(0.065591 -0.16862 0)
(0.0637756 -0.177005 0)
(0.0619509 -0.18552 0)
(0.0599933 -0.194116 0)
(0.0577814 -0.202727 0)
(0.0552116 -0.21127 0)
(0.0522069 -0.219665 0)
(0.0487187 -0.227832 0)
(0.0447241 -0.235702 0)
(0.0402211 -0.243214 0)
(0.0352228 -0.250317 0)
(0.029752 -0.256971 0)
(0.0238376 -0.263145 0)
(0.0175116 -0.268817 0)
(0.0108064 -0.273973 0)
(0.00375411 -0.278607 0)
(-0.00361011 -0.282716 0)
(-0.0112553 -0.286306 0)
(-0.0191551 -0.289387 0)
(-0.027282 -0.291972 0)
(-0.0356113 -0.294076 0)
(-0.04412 -0.295719 0)
(-0.0527863 -0.296921 0)
(-0.06159 -0.297707 0)
(-0.0705118 -0.2981 0)
(-0.0795334 -0.298126 0)
(-0.0886376 -0.297811 0)
(-0.0978081 -0.297181 0)
(-0.107029 -0.296263 0)
(-0.116285 -0.295085 0)
(-0.125561 -0.29367 0)
(-0.134841 -0.292045 0)
(-0.14411 -0.290232 0)
(-0.15335 -0.288252 0)
(-0.162543 -0.286125 0)
(-0.171667 -0.283866 0)
(-0.180697 -0.281486 0)
(-0.189591 -0.278992 0)
(-0.198279 -0.276383 0)
(-0.206689 -0.273649 0)
(-0.214859 -0.27078 0)
(-0.222904 -0.267763 0)
(-0.230282 -0.264564 0)
(-0.23361 -0.261163 0)
(-0.230252 -0.256917 0)
(-0.2223 -0.251984 0)
(-0.213022 -0.246479 0)
(-0.203125 -0.240403 0)
(-0.192631 -0.233734 0)
(-0.181597 -0.226465 0)
(-0.170137 -0.218606 0)
(-0.158368 -0.21019 0)
(-0.146405 -0.201269 0)
(-0.134364 -0.19192 0)
(-0.122373 -0.182248 0)
(-0.11063 -0.172392 0)
(-0.099467 -0.162542 0)
(-0.0893266 -0.152933 0)
(-0.0806951 -0.143832 0)
(-0.0740151 -0.135496 0)
(-0.0695624 -0.1281 0)
(-0.0673321 -0.12166 0)
(-0.0670239 -0.116012 0)
(-0.068156 -0.110885 0)
(-0.0702239 -0.106002 0)
(-0.0728105 -0.10115 0)
(-0.0756187 -0.096199 0)
(-0.0784599 -0.0910818 0)
(-0.0812241 -0.0857711 0)
(-0.083851 -0.0802621 0)
(-0.0863077 -0.0745619 0)
(-0.0885766 -0.0686829 0)
(-0.0906478 -0.0626401 0)
(-0.092516 -0.0564493 0)
(-0.0941784 -0.0501266 0)
(-0.0956334 -0.0436879 0)
(-0.0968807 -0.0371493 0)
(-0.0979206 -0.0305261 0)
(-0.0987528 -0.0238317 0)
(-0.0993733 -0.0170765 0)
(-0.099778 -0.0102698 0)
(-0.0999861 -0.00342763 0)
(0.0999807 -0.00489268 0)
(0.0996924 -0.0146263 0)
(0.0991224 -0.024278 0)
(0.0982537 -0.0338209 0)
(0.0970995 -0.0432302 0)
(0.0956723 -0.0524824 0)
(0.0939835 -0.061555 0)
(0.0920481 -0.0704276 0)
(0.0898869 -0.0790836 0)
(0.0875284 -0.0875119 0)
(0.0850105 -0.095709 0)
(0.0823814 -0.103682 0)
(0.0796999 -0.111451 0)
(0.0770338 -0.119051 0)
(0.0744539 -0.126533 0)
(0.0720245 -0.133961 0)
(0.0697911 -0.141403 0)
(0.0677662 -0.148922 0)
(0.0659204 -0.156564 0)
(0.0641813 -0.164345 0)
(0.062442 -0.172253 0)
(0.0605787 -0.180246 0)
(0.0584687 -0.188263 0)
(0.0560065 -0.196231 0)
(0.0531123 -0.204075 0)
(0.0497346 -0.211725 0)
(0.0458477 -0.219114 0)
(0.0414463 -0.226186 0)
(0.0365405 -0.232894 0)
(0.0311506 -0.2392 0)
(0.0253028 -0.245074 0)
(0.0190267 -0.250494 0)
(0.0123528 -0.255447 0)
(0.0053121 -0.259923 0)
(-0.00206442 -0.263921 0)
(-0.00974726 -0.267444 0)
(-0.0177094 -0.2705 0)
(-0.0259258 -0.273097 0)
(-0.034373 -0.27525 0)
(-0.0430291 -0.276975 0)
(-0.0518731 -0.278288 0)
(-0.0608853 -0.27921 0)
(-0.0700467 -0.27976 0)
(-0.0793397 -0.279961 0)
(-0.088747 -0.279833 0)
(-0.0982517 -0.279399 0)
(-0.107837 -0.278682 0)
(-0.117487 -0.277702 0)
(-0.127185 -0.27648 0)
(-0.136912 -0.275038 0)
(-0.146649 -0.273392 0)
(-0.156377 -0.271561 0)
(-0.16607 -0.269557 0)
(-0.175701 -0.267393 0)
(-0.185235 -0.265077 0)
(-0.19462 -0.262613 0)
(-0.203767 -0.259998 0)
(-0.212598 -0.257222 0)
(-0.221143 -0.254275 0)
(-0.229473 -0.251133 0)
(-0.236921 -0.247747 0)
(-0.239841 -0.244095 0)
(-0.235722 -0.239681 0)
(-0.227109 -0.234642 0)
(-0.217291 -0.229034 0)
(-0.20689 -0.222885 0)
(-0.195886 -0.216206 0)
(-0.184333 -0.209012 0)
(-0.172355 -0.201329 0)
(-0.160081 -0.193196 0)
(-0.147644 -0.184669 0)
(-0.13517 -0.175826 0)
(-0.122804 -0.166765 0)
(-0.110775 -0.157618 0)
(-0.0994403 -0.14856 0)
(-0.0892521 -0.139801 0)
(-0.0806877 -0.131576 0)
(-0.074158 -0.124098 0)
(-0.0698863 -0.117493 0)
(-0.0678116 -0.111742 0)
(-0.0675962 -0.106672 0)
(-0.0687506 -0.10203 0)
(-0.0707848 -0.0975739 0)
(-0.0733034 -0.0931268 0)
(-0.0760294 -0.08858 0)
(-0.0787873 -0.0838783 0)
(-0.0814752 -0.0789994 0)
(-0.0840361 -0.0739397 0)
(-0.0864383 -0.0687047 0)
(-0.0886638 -0.0633046 0)
(-0.0907021 -0.057752 0)
(-0.0925464 -0.0520603 0)
(-0.0941926 -0.0462434 0)
(-0.0956376 -0.0403153 0)
(-0.0968797 -0.0342906 0)
(-0.0979177 -0.0281836 0)
(-0.0987499 -0.0220072 0)
(-0.0993715 -0.0157712 0)
(-0.0997772 -0.00948535 0)
(-0.099986 -0.00316572 0)
(0.0999809 -0.00452074 0)
(0.099693 -0.0135149 0)
(0.0991238 -0.0224333 0)
(0.0982563 -0.0312504 0)
(0.0971043 -0.0399428 0)
(0.0956807 -0.0484886 0)
(0.0939976 -0.0568667 0)
(0.0920703 -0.0650581 0)
(0.0899203 -0.0730478 0)
(0.0875764 -0.0808255 0)
(0.0850765 -0.0883883 0)
(0.0824688 -0.0957432 0)
(0.0798121 -0.102909 0)
(0.0771737 -0.109919 0)
(0.074624 -0.11682 0)
(0.0722277 -0.123672 0)
(0.0700303 -0.130539 0)
(0.0680455 -0.13748 0)
(0.0662449 -0.144539 0)
(0.0645573 -0.151733 0)
(0.0628766 -0.15905 0)
(0.061079 -0.166455 0)
(0.0590409 -0.173892 0)
(0.0566554 -0.181294 0)
(0.0538405 -0.188593 0)
(0.0505421 -0.195723 0)
(0.0467319 -0.202625 0)
(0.0424021 -0.209245 0)
(0.0375603 -0.21554 0)
(0.0322244 -0.221474 0)
(0.0264185 -0.227018 0)
(0.0201702 -0.232153 0)
(0.0135081 -0.236863 0)
(0.00646166 -0.24114 0)
(-0.000940012 -0.244982 0)
(-0.00866878 -0.248389 0)
(-0.0166986 -0.251366 0)
(-0.0250056 -0.253923 0)
(-0.0335674 -0.256069 0)
(-0.0423627 -0.257817 0)
(-0.0513711 -0.259183 0)
(-0.0605732 -0.260182 0)
(-0.0699506 -0.26083 0)
(-0.0794854 -0.261147 0)
(-0.0891598 -0.26115 0)
(-0.0989565 -0.260857 0)
(-0.108857 -0.260286 0)
(-0.118845 -0.259455 0)
(-0.1289 -0.258382 0)
(-0.139001 -0.257081 0)
(-0.149129 -0.255568 0)
(-0.159256 -0.253855 0)
(-0.169355 -0.251955 0)
(-0.179392 -0.249874 0)
(-0.189326 -0.24762 0)
(-0.199092 -0.245195 0)
(-0.208588 -0.242596 0)
(-0.217733 -0.239816 0)
(-0.226531 -0.23685 0)
(-0.235004 -0.233684 0)
(-0.24233 -0.230287 0)
(-0.24478 -0.226548 0)
(-0.23998 -0.222055 0)
(-0.230795 -0.217001 0)
(-0.220493 -0.211441 0)
(-0.209645 -0.205397 0)
(-0.198207 -0.198886 0)
(-0.186229 -0.191932 0)
(-0.173839 -0.184567 0)
(-0.161174 -0.176833 0)
(-0.148375 -0.168789 0)
(-0.135579 -0.160508 0)
(-0.122946 -0.152085 0)
(-0.110729 -0.143639 0)
(-0.099306 -0.135331 0)
(-0.0891366 -0.12735 0)
(-0.0806869 -0.119902 0)
(-0.0743377 -0.113167 0)
(-0.0702658 -0.107241 0)
(-0.0683606 -0.102083 0)
(-0.0682527 -0.0975223 0)
(-0.0694459 -0.0933271 0)
(-0.0714627 -0.0892824 0)
(-0.0739268 -0.0852337 0)
(-0.0765786 -0.0810881 0)
(-0.0792559 -0.0767983 0)
(-0.0818647 -0.0723454 0)
(-0.0843527 -0.0677259 0)
(-0.0866902 -0.0629446 0)
(-0.08886 -0.0580105 0)
(-0.0908514 -0.0529345 0)
(-0.0926574 -0.0477283 0)
(-0.0942727 -0.0424044 0)
(-0.0956936 -0.0369757 0)
(-0.0969171 -0.0314556 0)
(-0.0979413 -0.0258574 0)
(-0.0987636 -0.0201931 0)
(-0.0993782 -0.0144724 0)
(-0.0997796 -0.00870442 0)
(-0.0999862 -0.00290495 0)
(0.0999809 -0.00415019 0)
(0.099694 -0.0124075 0)
(0.0991267 -0.0205956 0)
(0.0982623 -0.0286905 0)
(0.0971147 -0.0366709 0)
(0.0956971 -0.0445165 0)
(0.0940216 -0.0522078 0)
(0.092104 -0.0597277 0)
(0.0899659 -0.0670622 0)
(0.0876362 -0.0742022 0)
(0.0851528 -0.0811452 0)
(0.082564 -0.0878976 0)
(0.0799282 -0.0944768 0)
(0.0773127 -0.100913 0)
(0.0747878 -0.10725 0)
(0.072418 -0.113543 0)
(0.0702495 -0.11985 0)
(0.0682965 -0.126226 0)
(0.0665314 -0.132713 0)
(0.0648837 -0.139326 0)
(0.063248 -0.146058 0)
(0.0615002 -0.152875 0)
(0.0595161 -0.159729 0)
(0.0571874 -0.166559 0)
(0.0544302 -0.173303 0)
(0.0511888 -0.1799 0)
(0.0474325 -0.186297 0)
(0.0431516 -0.192444 0)
(0.0383518 -0.198301 0)
(0.0330491 -0.203834 0)
(0.0272659 -0.209017 0)
(0.0210282 -0.213831 0)
(0.0143632 -0.218261 0)
(0.00729887 -0.222298 0)
(-0.000136843 -0.22594 0)
(-0.00791692 -0.229185 0)
(-0.0160163 -0.232038 0)
(-0.0244119 -0.234505 0)
(-0.033082 -0.236595 0)
(-0.0420056 -0.238318 0)
(-0.0511629 -0.239686 0)
(-0.0605347 -0.240712 0)
(-0.0701025 -0.24141 0)
(-0.079848 -0.241796 0)
(-0.0897527 -0.241883 0)
(-0.0997983 -0.241688 0)
(-0.109966 -0.241224 0)
(-0.120235 -0.240507 0)
(-0.130585 -0.23955 0)
(-0.140993 -0.238366 0)
(-0.151434 -0.236967 0)
(-0.161879 -0.235362 0)
(-0.172295 -0.23356 0)
(-0.182645 -0.231569 0)
(-0.192879 -0.229393 0)
(-0.202924 -0.227033 0)
(-0.212675 -0.224489 0)
(-0.222051 -0.221756 0)
(-0.231069 -0.218839 0)
(-0.239714 -0.21575 0)
(-0.246845 -0.212485 0)
(-0.248671 -0.208757 0)
(-0.243155 -0.204278 0)
(-0.233525 -0.199305 0)
(-0.222856 -0.193905 0)
(-0.211649 -0.188087 0)
(-0.199856 -0.181864 0)
(-0.187536 -0.175262 0)
(-0.174819 -0.168314 0)
(-0.161852 -0.161064 0)
(-0.148779 -0.153569 0)
(-0.135745 -0.145897 0)
(-0.122924 -0.138137 0)
(-0.110588 -0.1304 0)
(-0.0991331 -0.122831 0)
(-0.0890198 -0.115601 0)
(-0.0807029 -0.10889 0)
(-0.0745349 -0.10285 0)
(-0.0706508 -0.0975492 0)
(-0.0688987 -0.0929319 0)
(-0.068885 -0.0888321 0)
(-0.0701113 -0.0850385 0)
(-0.0721127 -0.0813634 0)
(-0.0745301 -0.0776745 0)
(-0.0771187 -0.0738933 0)
(-0.0797267 -0.0699805 0)
(-0.0822668 -0.0659203 0)
(-0.08469 -0.0617101 0)
(-0.0869683 -0.057354 0)
(-0.0890853 -0.0528597 0)
(-0.0910305 -0.0482365 0)
(-0.0927966 -0.0434949 0)
(-0.094378 -0.0386457 0)
(-0.0957705 -0.0337003 0)
(-0.0969708 -0.0286709 0)
(-0.0979765 -0.0235696 0)
(-0.0987844 -0.0184073 0)
(-0.0993886 -0.0131928 0)
(-0.0997833 -0.00793481 0)
(-0.0999865 -0.00264796 0)
(0.0999811 -0.00378125 0)
(0.0996956 -0.0113049 0)
(0.0991313 -0.0187657 0)
(0.0982714 -0.0261419 0)
(0.0971298 -0.0334138 0)
(0.0957197 -0.0405629 0)
(0.0940535 -0.0475717 0)
(0.092147 -0.0544243 0)
(0.0900216 -0.0611083 0)
(0.0877063 -0.0676153 0)
(0.0852389 -0.0739431 0)
(0.0826674 -0.0800976 0)
(0.0800499 -0.0860948 0)
(0.0774535 -0.0919623 0)
(0.0749484 -0.0977401 0)
(0.0725992 -0.103478 0)
(0.0704522 -0.10923 0)
(0.0685223 -0.115047 0)
(0.0667828 -0.120967 0)
(0.065164 -0.127005 0)
(0.0635607 -0.133155 0)
(0.0618489 -0.139388 0)
(0.0599038 -0.14566 0)
(0.0576158 -0.151916 0)
(0.0548998 -0.1581 0)
(0.0516982 -0.164157 0)
(0.0479787 -0.170038 0)
(0.0437301 -0.175697 0)
(0.0389562 -0.181099 0)
(0.0336719 -0.186211 0)
(0.027898 -0.191009 0)
(0.0216592 -0.195475 0)
(0.0149818 -0.199595 0)
(0.0078925 -0.203361 0)
(0.000418342 -0.206769 0)
(-0.00741449 -0.209818 0)
(-0.0155816 -0.21251 0)
(-0.0240605 -0.21485 0)
(-0.0328298 -0.216845 0)
(-0.041869 -0.218503 0)
(-0.0511585 -0.219834 0)
(-0.060679 -0.220849 0)
(-0.0704116 -0.221561 0)
(-0.0803375 -0.22198 0)
(-0.0904375 -0.222119 0)
(-0.100692 -0.221991 0)
(-0.111081 -0.221608 0)
(-0.121583 -0.220981 0)
(-0.132174 -0.220123 0)
(-0.14283 -0.219043 0)
(-0.153522 -0.217752 0)
(-0.164219 -0.216257 0)
(-0.174885 -0.214565 0)
(-0.185477 -0.212683 0)
(-0.195943 -0.210616 0)
(-0.206203 -0.208364 0)
(-0.216148 -0.205928 0)
(-0.225713 -0.203307 0)
(-0.234939 -0.200512 0)
(-0.243759 -0.19756 0)
(-0.250563 -0.194465 0)
(-0.251573 -0.190791 0)
(-0.24535 -0.18643 0)
(-0.235426 -0.181641 0)
(-0.224522 -0.176493 0)
(-0.213055 -0.170989 0)
(-0.200991 -0.165137 0)
(-0.188405 -0.158962 0)
(-0.175436 -0.152498 0)
(-0.162236 -0.145785 0)
(-0.148957 -0.138877 0)
(-0.135748 -0.131839 0)
(-0.122795 -0.12475 0)
(-0.110388 -0.117713 0)
(-0.0989361 -0.110858 0)
(-0.0888999 -0.10434 0)
(-0.0807234 -0.0983157 0)
(-0.074733 -0.092914 0)
(-0.0710267 -0.0881827 0)
(-0.0694177 -0.0840584 0)
(-0.0694925 -0.0803833 0)
(-0.0707521 -0.0769674 0)
(-0.0727431 -0.0736459 0)
(-0.0751212 -0.070305 0)
(-0.0776545 -0.0668781 0)
(-0.0802006 -0.063332 0)
(-0.0826778 -0.0596535 0)
(-0.0850404 -0.0558406 0)
(-0.0872621 -0.0518969 0)
(-0.0893275 -0.0478291 0)
(-0.0912263 -0.0436454 0)
(-0.0929513 -0.039355 0)
(-0.094497 -0.0349675 0)
(-0.0958588 -0.030493 0)
(-0.0970334 -0.0259425 0)
(-0.0980179 -0.0213268 0)
(-0.0988091 -0.0166559 0)
(-0.099401 -0.0119376 0)
(-0.0997877 -0.00717972 0)
(-0.0999868 -0.00239583 0)
(0.0999812 -0.00341441 0)
(0.0996973 -0.0102085 0)
(0.099136 -0.0169461 0)
(0.0982807 -0.0236075 0)
(0.0971453 -0.0301752 0)
(0.0957429 -0.0366323 0)
(0.0940858 -0.0429631 0)
(0.0921897 -0.0491533 0)
(0.0900761 -0.0551917 0)
(0.0877739 -0.0610709 0)
(0.0853206 -0.0667888 0)
(0.0827639 -0.0723509 0)
(0.0801618 -0.0777715 0)
(0.0775811 -0.0830756 0)
(0.0750918 -0.0882992 0)
(0.0727586 -0.0934874 0)
(0.0706283 -0.0986893 0)
(0.068716 -0.103951 0)
(0.0669958 -0.109307 0)
(0.0653985 -0.114772 0)
(0.0638193 -0.120342 0)
(0.062134 -0.12599 0)
(0.0602173 -0.131677 0)
(0.0579586 -0.137354 0)
(0.0552716 -0.142972 0)
(0.0520973 -0.148479 0)
(0.0484022 -0.153832 0)
(0.0441736 -0.15899 0)
(0.0394143 -0.163918 0)
(0.0341377 -0.16859 0)
(0.0283639 -0.172982 0)
(0.0221165 -0.177078 0)
(0.0154209 -0.180863 0)
(0.0083029 -0.184331 0)
(0.000788971 -0.187477 0)
(-0.00709535 -0.1903 0)
(-0.0153262 -0.1928 0)
(-0.0238813 -0.194982 0)
(-0.0327397 -0.196851 0)
(-0.0418812 -0.198414 0)
(-0.051286 -0.199678 0)
(-0.0609346 -0.200653 0)
(-0.0708078 -0.201349 0)
(-0.0808862 -0.201775 0)
(-0.0911501 -0.201941 0)
(-0.101579 -0.201859 0)
(-0.112151 -0.201537 0)
(-0.122843 -0.200987 0)
(-0.13363 -0.200216 0)
(-0.144485 -0.199235 0)
(-0.155379 -0.19805 0)
(-0.166276 -0.19667 0)
(-0.177137 -0.195099 0)
(-0.187919 -0.193344 0)
(-0.198564 -0.191408 0)
(-0.20899 -0.189294 0)
(-0.219084 -0.187001 0)
(-0.228796 -0.184531 0)
(-0.238187 -0.181892 0)
(-0.247113 -0.1791 0)
(-0.253501 -0.176185 0)
(-0.253689 -0.172666 0)
(-0.246874 -0.168535 0)
(-0.23675 -0.164033 0)
(-0.22569 -0.159223 0)
(-0.214029 -0.154104 0)
(-0.201758 -0.148687 0)
(-0.188966 -0.142996 0)
(-0.175804 -0.137062 0)
(-0.162428 -0.130925 0)
(-0.148994 -0.124633 0)
(-0.135656 -0.118244 0)
(-0.12261 -0.111831 0)
(-0.110165 -0.105487 0)
(-0.098736 -0.0993305 0)
(-0.0887861 -0.0934977 0)
(-0.0807473 -0.0881271 0)
(-0.0749225 -0.0833261 0)
(-0.0713773 -0.079127 0)
(-0.0698954 -0.0754622 0)
(-0.0700479 -0.0721851 0)
(-0.0713368 -0.069126 0)
(-0.0733192 -0.0661417 0)
(-0.0756638 -0.063135 0)
(-0.0781498 -0.0600495 0)
(-0.0806423 -0.0568573 0)
(-0.0830645 -0.0535476 0)
(-0.0853735 -0.0501189 0)
(-0.0875445 -0.0465744 0)
(-0.0895628 -0.0429201 0)
(-0.0914186 -0.039163 0)
(-0.0931048 -0.0353111 0)
(-0.0946161 -0.0313728 0)
(-0.095948 -0.0273572 0)
(-0.097097 -0.0232738 0)
(-0.0980603 -0.0191325 0)
(-0.0988345 -0.0149419 0)
(-0.0994138 -0.010709 0)
(-0.0997923 -0.00644059 0)
(-0.0999871 -0.00214906 0)
(0.0999813 -0.00304959 0)
(0.0996989 -0.00911796 0)
(0.0991406 -0.0151362 0)
(0.0982898 -0.0210867 0)
(0.0971602 -0.0269537 0)
(0.095765 -0.0327225 0)
(0.0941164 -0.0383788 0)
(0.0922299 -0.0439101 0)
(0.090127 -0.0493062 0)
(0.0878363 -0.0545607 0)
(0.0853951 -0.0596717 0)
(0.082851 -0.0646441 0)
(0.0802617 -0.0694906 0)
(0.0776937 -0.0742337 0)
(0.0752169 -0.0789055 0)
(0.0728962 -0.0835462 0)
(0.0707783 -0.0881999 0)
(0.0688791 -0.0929081 0)
(0.0671731 -0.0977017 0)
(0.0655915 -0.102595 0)
(0.0640298 -0.107584 0)
(0.0623636 -0.112646 0)
(0.0604671 -0.117746 0)
(0.0582291 -0.12284 0)
(0.0555621 -0.127885 0)
(0.052406 -0.132835 0)
(0.0487264 -0.13765 0)
(0.0445093 -0.142294 0)
(0.0397566 -0.146736 0)
(0.0344809 -0.150952 0)
(0.0287014 -0.154921 0)
(0.0224409 -0.158627 0)
(0.0157242 -0.162058 0)
(0.0085767 -0.165206 0)
(0.00102407 -0.168068 0)
(-0.00690845 -0.17064 0)
(-0.0151973 -0.172926 0)
(-0.0238206 -0.174925 0)
(-0.0327575 -0.176644 0)
(-0.0419877 -0.178087 0)
(-0.0514914 -0.179261 0)
(-0.0612489 -0.180174 0)
(-0.0712406 -0.180832 0)
(-0.0814465 -0.181246 0)
(-0.0918461 -0.181422 0)
(-0.102418 -0.181369 0)
(-0.113139 -0.181096 0)
(-0.123985 -0.180612 0)
(-0.134931 -0.179923 0)
(-0.145946 -0.179037 0)
(-0.156998 -0.177962 0)
(-0.168052 -0.176701 0)
(-0.179067 -0.175262 0)
(-0.189995 -0.173649 0)
(-0.200778 -0.171863 0)
(-0.211327 -0.169909 0)
(-0.221532 -0.167786 0)
(-0.231351 -0.165495 0)
(-0.240861 -0.163044 0)
(-0.249848 -0.160445 0)
(-0.255814 -0.157755 0)
(-0.255258 -0.154471 0)
(-0.247947 -0.150654 0)
(-0.23767 -0.146512 0)
(-0.226494 -0.1421 0)
(-0.214687 -0.13742 0)
(-0.202256 -0.132486 0)
(-0.189308 -0.127319 0)
(-0.176 -0.121949 0)
(-0.16249 -0.116412 0)
(-0.14894 -0.110752 0)
(-0.135506 -0.105021 0)
(-0.122397 -0.0992839 0)
(-0.109934 -0.0936253 0)
(-0.0985408 -0.0881501 0)
(-0.088679 -0.0829789 0)
(-0.0807703 -0.0782321 0)
(-0.0750965 -0.0739992 0)
(-0.0716952 -0.0703007 0)
(-0.0703255 -0.067069 0)
(-0.0705465 -0.0641701 0)
(-0.0718615 -0.0614544 0)
(-0.0738373 -0.0587982 0)
(-0.0761537 -0.0561185 0)
(-0.0785991 -0.053368 0)
(-0.0810453 -0.0505231 0)
(-0.0834195 -0.0475751 0)
(-0.0856812 -0.0445227 0)
(-0.0878069 -0.0413689 0)
(-0.0897828 -0.0381188 0)
(-0.0915994 -0.0347787 0)
(-0.09325 -0.0313554 0)
(-0.0947294 -0.0278563 0)
(-0.0960332 -0.0242892 0)
(-0.097158 -0.0206627 0)
(-0.098101 -0.0169852 0)