/*--------------------------------*- C++ -*----------------------------------*\
  =========                 |
  \\      /  F ield         | OpenFOAM: The Open Source CFD Toolbox
   \\    /   O peration     | Website:  https://openfoam.org
    \\  /    A nd           | Version:  8
     \\/     M anipulation  |
\*---------------------------------------------------------------------------*/
FoamFile
{
    version     2.0;
    format      ascii;
    class       volScalarField;
    location    "20/fluid";
    object      CO2;
}
// * * * * * * * * * * * * * * * * * * * * * * * * * * * * * * * * * * * * * //

dimensions      [0 0 0 0 0 0 0];

internalField   nonuniform List<scalar> 
4000
(
4.34884e-07
1.91319e-06
4.51455e-06
9.0842e-06
1.68808e-05
2.95829e-05
4.92223e-05
7.81078e-05
0.000118693
0.000173446
0.000244754
0.000334842
0.000445718
0.000579133
0.000736573
0.000919246
0.00112809
0.00136377
0.00162669
0.00191713
0.00223505
0.00258085
0.00295427
0.00335487
0.00378216
0.00423562
0.00471467
0.00521874
0.00574723
0.00629953
0.006875
0.00747302
0.00809297
0.00873423
0.00939622
0.0100783
0.01078
0.0115007
0.01224
0.0129975
0.0137729
0.014566
0.0153772
0.0162067
0.0170548
0.0179216
0.0188073
0.019712
0.0206357
0.0215781
0.0225391
0.023518
0.0245142
0.0255266
0.0265538
0.027594
0.0286445
0.0297023
0.0307633
0.0318223
0.0328731
0.033908
0.0349182
0.0358938
0.0368244
0.0376943
0.0384755
0.0389627
0.0385566
0.0370171
0.0351271
0.0330702
0.0309098
0.0286836
0.026424
0.02416
0.0219182
0.0197221
0.0175919
0.0155448
0.0135959
0.0117581
0.0100421
0.0084567
0.00700884
0.00570362
0.00454417
0.00353207
0.0026676
0.00194795
0.00136678
0.000914297
0.000577481
0.000340326
0.000184496
9.04383e-05
3.98773e-05
1.58234e-05
5.3148e-06
9.3311e-07
4.03625e-07
1.7733e-06
4.1759e-06
8.39373e-06
1.56093e-05
2.74462e-05
4.59328e-05
7.3374e-05
0.00011224
0.00016505
0.000234276
0.000322244
0.000431073
0.000562629
0.000718488
0.000899937
0.001108
0.00134334
0.00160624
0.00189777
0.00221762
0.00256525
0.00294052
0.00334311
0.00377256
0.00422834
0.00470983
0.00521638
0.00574729
0.00630187
0.00687938
0.00747911
0.00810034
0.00874238
0.00940454
0.0100862
0.0107866
0.0115053
0.0122418
0.0129957
0.0137668
0.0145556
0.0153625
0.0161878
0.0170319
0.0178952
0.018778
0.0196804
0.0206026
0.0215447
0.0225065
0.0234877
0.0244877
0.0255059
0.0265408
0.0275908
0.0286535
0.0297259
0.0308038
0.031882
0.0329542
0.034012
0.0350457
0.0360446
0.0369931
0.0378729
0.0386441
0.0390837
0.0385871
0.0370046
0.0350877
0.0330101
0.0308279
0.0285768
0.0262942
0.0240121
0.0217549
0.0195462
0.0174071
0.0153548
0.0134037
0.0115664
0.00985362
0.00827421
0.00683521
0.00554159
0.00439621
0.0034003
0.00255355
0.00185234
0.00128949
0.000854428
0.000533444
0.00031001
0.000165419
7.99446e-05
3.49416e-05
1.38028e-05
4.63299e-06
8.13524e-07
3.90202e-07
1.71534e-06
4.03559e-06
8.09268e-06
1.5003e-05
2.6289e-05
4.38656e-05
6.99654e-05
0.000107044
0.000157659
0.000224344
0.000309528
0.000415459
0.000544154
0.000697365
0.000876541
0.00108281
0.0013171
0.00158014
0.00187153
0.00219172
0.00254068
0.00291812
0.00332367
0.00375686
0.00421714
0.00470388
0.00521641
0.00575402
0.00631596
0.00690148
0.00750982
0.00814022
0.00879193
0.00946417
0.0101562
0.0108672
0.0115964
0.0123432
0.013107
0.0138879
0.0146864
0.0155028
0.0163375
0.0171908
0.018063
0.0189544
0.0198652
0.0207954
0.0217451
0.0227141
0.0237021
0.0247085
0.0257325
0.0267729
0.0278277
0.0288946
0.0299703
0.0310503
0.032129
0.0331994
0.034254
0.0352838
0.0362747
0.037214
0.0380831
0.0388398
0.0392162
0.0385539
0.0368949
0.0349309
0.0328139
0.0305982
0.028322
0.0260159
0.0237092
0.0214363
0.0192193
0.0170768
0.0150267
0.0130836
0.0112594
0.00956369
0.00800499
0.00658987
0.00532284
0.00420611
0.00324015
0.00242357
0.00175135
0.00121504
0.000802971
0.00050061
0.000291026
0.000155632
7.53885e-05
3.30234e-05
1.30727e-05
4.39213e-06
7.70955e-07
3.84748e-07
1.69233e-06
3.97989e-06
7.96788e-06
1.47336e-05
2.57503e-05
4.28686e-05
6.82578e-05
0.000104314
0.000153554
0.000218523
0.000301713
0.000405472
0.000531944
0.000683021
0.000860309
0.0010651
0.00129845
0.00156103
0.00185321
0.00217512
0.00252643
0.00290698
0.00331642
0.00375428
0.00421993
0.00471267
0.00523174
0.0057763
0.00634549
0.00693842
0.00755419
0.00819191
0.0088507
0.00952968
0.010228
0.0109447
0.0116789
0.01243
0.0131975
0.0139821
0.0147842
0.0156044
0.0164432
0.017301
0.0181782
0.0190752
0.0199923
0.0209296
0.0218874
0.0228654
0.0238636
0.0248814
0.025918
0.0269722
0.028042
0.029125
0.0302175
0.031315
0.032411
0.0335009
0.0345729
0.0356146
0.0366128
0.0375527
0.0384124
0.0391443
0.0394298
0.0385597
0.0368207
0.034803
0.0326411
0.0303847
0.0280727
0.0257397
0.0234172
0.0211269
0.0188987
0.0167548
0.0147085
0.0127739
0.0109637
0.0092876
0.0077528
0.00636488
0.00512728
0.00404112
0.00310566
0.00231821
0.00167244
0.00115893
0.000765382
0.000477098
0.000277422
0.000148432
7.19592e-05
3.15555e-05
1.25111e-05
4.2089e-06
7.39017e-07
3.83936e-07
1.68859e-06
3.96759e-06
7.93372e-06
1.46476e-05
2.55579e-05
4.24786e-05
6.75253e-05
0.000103056
0.000151578
0.00021565
0.000297791
0.000400409
0.000525738
0.000675789
0.000852291
0.00105664
0.00128988
0.00155278
0.00184589
0.00216946
0.00252354
0.00290794
0.00332232
0.00376622
0.00423899
0.00473988
0.00526806
0.00582266
0.00640276
0.00700733
0.00763542
0.00828606
0.00895823
0.00965089
0.010363
0.0110934
0.011841
0.0126049
0.0133849
0.0141816
0.0149956
0.0158273
0.0166774
0.0175462
0.0184342
0.0193418
0.0202693
0.0212168
0.0221846
0.0231726
0.0241805
0.025208
0.0262541
0.027318
0.0283977
0.0294902
0.0305924
0.0317003
0.0328081
0.0339049
0.0349812
0.0360251
0.0370225
0.0379571
0.0388021
0.0395011
0.0396806
0.0385968
0.0367781
0.0347039
0.0324926
0.0301933
0.0278457
0.0254849
0.0231424
0.0208457
0.0186139
0.0164654
0.0144244
0.0125018
0.0107073
0.00905067
0.00753877
0.00617622
0.00496532
0.00390613
0.00299687
0.00223375
0.0016096
0.00111438
0.000735531
0.00045837
0.000266564
0.000142712
6.92804e-05
3.04376e-05
1.20949e-05
4.07582e-06
7.16026e-07
3.86697e-07
1.70035e-06
3.99041e-06
7.96295e-06
1.46689e-05
2.55406e-05
4.238e-05
6.7307e-05
0.000102658
0.000150932
0.000214687
0.00029646
0.000398688
0.000523641
0.000673424
0.000849867
0.0010545
0.00128854
0.001553
0.00184825
0.00217473
0.00253255
0.00292152
0.00334125
0.00379114
0.00427055
0.00477876
0.00531494
0.00587826
0.00646804
0.0070822
0.00772007
0.0083806
0.0090627
0.00976521
0.0104869
0.0112267
0.0119834
0.012756
0.0135446
0.0143499
0.0151727
0.0160134
0.0168726
0.0177509
0.0186487
0.0195666
0.0205048
0.0214637
0.0224433
0.0234437
0.0244646
0.0255053
0.0265646
0.0276436
0.0287399
0.0298517
0.0309719
0.0320951
0.0332141
0.0343215
0.035407
0.036458
0.0374599
0.0383956
0.0392337
0.0399077
0.0399784
0.0386948
0.0367956
0.0346628
0.0324017
0.0300586
0.0276744
0.0252852
0.0229217
0.0206104
0.0183737
0.0162313
0.0141944
0.0122821
0.0105025
0.0088635
0.00737128
0.0060298
0.00484058
0.00380281
0.00291395
0.00216945
0.00156161
0.00108006
0.000712168
0.000443381
0.000257611
0.000137815
6.688e-05
2.9398e-05
1.16976e-05
3.9476e-06
6.93912e-07
3.92226e-07
1.7241e-06
4.04111e-06
8.04964e-06
1.47991e-05
2.57181e-05
4.26021e-05
6.7565e-05
0.000102958
0.000151287
0.000215131
0.00029706
0.000399572
0.000525023
0.000675546
0.000853045
0.00105914
0.00129517
0.00156211
0.00186092
0.00219144
0.00255404
0.00294869
0.00337504
0.00383255
0.00432051
0.00483813
0.00538447
0.00595843
0.00655862
0.00718495
0.00783597
0.00851032
0.00920667
0.00992367
0.01066
0.0114142
0.0121848
0.0129711
0.013773
0.0145913
0.0154267
0.0162797
0.017151
0.0180412
0.0189508
0.0198802
0.0208298
0.0218
0.0227909
0.0238028
0.0248355
0.025889
0.026963
0.0280534
0.0291586
0.0302753
0.031403
0.0325368
0.0336671
0.0347844
0.0358769
0.0369329
0.0379376
0.0388736
0.0397086
0.0403641
0.0403473
0.0388732
0.0368863
0.0346901
0.0323761
0.0299904
0.0275718
0.0251548
0.0227704
0.020445
0.0182007
0.0160558
0.0140256
0.0121191
0.0103494
0.00872362
0.00724662
0.00592141
0.00474868
0.00372694
0.00285302
0.00212206
0.00152611
0.00105466
0.000694911
0.000432323
0.000250991
0.000134161
6.50631e-05
2.86092e-05
1.13956e-05
3.84982e-06
6.76911e-07
4.00683e-07
1.76157e-06
4.12715e-06
8.2121e-06
1.50744e-05
2.61511e-05
4.32457e-05
6.84783e-05
0.000104212
0.000152972
0.000217361
0.000299985
0.000403379
0.000529934
0.000681847
0.000861082
0.00106933
0.00130798
0.00157813
0.00188049
0.002216
0.00258392
0.00298454
0.00341764
0.00388267
0.00437889
0.0049054
0.0054612
0.00604522
0.00665632
0.00729344
0.00795537
0.00864082
0.00934844
0.0100768
0.0108245
0.01159
0.0123719
0.0131692
0.0139822
0.0148117
0.0156582
0.0165227
0.0174056
0.0183077
0.0192295
0.0201714
0.0211339
0.0221174
0.023122
0.0241477
0.0251941
0.0262606
0.0273461
0.028449
0.0295672
0.0306977
0.0318362
0.032977
0.0341157
0.0352437
0.0363472
0.0374122
0.0384222
0.0393603
0.0401927
0.0408274
0.0407138
0.0390961
0.0370325
0.0347778
0.0324135
0.0299857
0.0275337
0.0250913
0.0226881
0.0203491
0.018096
0.0159465
0.013915
0.0120131
0.0102501
0.0086325
0.00716503
0.00585014
0.00468805
0.00367679
0.00281294
0.0020913
0.00150337
0.00103843
0.000683795
0.000425089
0.000246572
0.000131672
6.38003e-05
2.80496e-05
1.11797e-05
3.78022e-06
6.64955e-07
4.10358e-07
1.80386e-06
4.22306e-06
8.39325e-06
1.53862e-05
2.66563e-05
4.40281e-05
6.96446e-05
0.000105894
0.000155327
0.000220576
0.000304278
0.000409004
0.000537194
0.000691099
0.00087273
0.00108383
0.00132583
0.00159987
0.00190682
0.00224708
0.00262154
0.00302901
0.0034696
0.00394297
0.00444842
0.00498507
0.0055519
0.0061478
0.00677157
0.00742192
0.00809752
0.00879696
0.00951879
0.0102615
0.0110234
0.0118031
0.0125988
0.0134096
0.0142358
0.0150782
0.0159375
0.0168144
0.0177096
0.0186237
0.0195572
0.0205107
0.0214846
0.0224791
0.0234945
0.0245307
0.0255874
0.0266641
0.0277598
0.0288729
0.0300012
0.0311416
0.03229
0.0334407
0.0345865
0.0357175
0.0368252
0.037896
0.0389117
0.0398527
0.0406839
0.0413048
0.0411073
0.0393738
0.0372352
0.0349228
0.0325096
0.0300408
0.027555
0.0250858
0.0226621
0.020309
0.0180465
0.0158917
0.0138582
0.0119569
0.010196
0.00858219
0.00711949
0.00581001
0.00465365
0.00364824
0.0027903
0.00207357
0.00148982
0.00102839
0.000676667
0.000420304
0.000243567
0.000129919
6.28935e-05
2.76491e-05
1.1025e-05
3.72988e-06
6.56141e-07
4.20471e-07
1.84838e-06
4.32515e-06
8.5888e-06
1.57285e-05
2.72213e-05
4.49195e-05
7.09983e-05
0.00010788
0.000158152
0.000224483
0.000309547
0.00041595
0.000546168
0.000702488
0.000886961
0.00110136
0.00134715
0.0016255
0.00193726
0.00228301
0.00266287
0.00307757
0.00352554
0.00400668
0.00452046
0.00506598
0.00564219
0.00624795
0.00688198
0.00754295
0.00822942
0.00893993
0.00967296
0.0104269
0.0112002
0.0119912
0.0127982
0.0136203
0.0144579
0.0153118
0.0161826
0.0170711
0.017978
0.0189039
0.0198493
0.0208148
0.0218007
0.0228074
0.023835
0.0248835
0.0259526
0.0270417
0.0281497
0.0292751
0.0304156
0.031568
0.0327279
0.0338896
0.0350457
0.0361869
0.0373014
0.0383752
0.0393948
0.0403417
0.041176
0.0417896
0.0415247
0.0396934
0.0374868
0.0351185
0.0326579
0.0301496
0.0276309
0.0251348
0.0226896
0.0203195
0.0180443
0.0158803
0.0138409
0.0119362
0.0101743
0.00856069
0.00709915
0.00579138
0.00463703
0.00363361
0.00277746
0.00206274
0.00148095
0.0010213
0.000671041
0.000416035
0.000240603
0.000128084
6.1898e-05
2.72027e-05
1.08552e-05
3.67644e-06
6.471e-07
4.31044e-07
1.89493e-06
4.43218e-06
8.79502e-06
1.60925e-05
2.78284e-05
4.58883e-05
7.2486e-05
0.000110086
0.000161317
0.000228889
0.000315516
0.00042384
0.000556372
0.000715429
0.000903093
0.00112117
0.00137115
0.00165421
0.00197122
0.00232274
0.00270907
0.00313009
0.0035863
0.00407591
0.00459853
0.00515351
0.00573975
0.00635605
0.0070011
0.00767348
0.00837171
0.00909423
0.00983945
0.0106057
0.0113913
0.0121945
0.0130136
0.0138477
0.0146971
0.0155627
0.0164451
0.0173451
0.0182633
0.0192004
0.0201569
0.0211332
0.0221299
0.0231473
0.0241854
0.0252443
0.0263238
0.0274231
0.0285414
0.0296771
0.0308277
0.0319902
0.0331601
0.0343314
0.0354968
0.0366465
0.0377692
0.0388512
0.0398767
0.0408271
0.0416686
0.0422864
0.0419817
0.0400503
0.037774
0.0353501
0.0328434
0.0302963
0.0277454
0.0252227
0.0227559
0.0203685
0.0180795
0.0159048
0.0138573
0.0119461
0.0101794
0.00856239
0.00709843
0.00578897
0.00463335
0.00362917
0.00277261
0.0020578
0.00147623
0.00101708
0.000667673
0.000413361
0.000238594
0.00012674
6.11291e-05
2.68483e-05
1.07171e-05
3.63216e-06
6.395e-07
4.41851e-07
1.94255e-06
4.54188e-06
9.00712e-06
1.64689e-05
2.846e-05
4.69034e-05
7.40559e-05
0.000112428
0.000164696
0.000233615
0.000321936
0.000432339
0.000567363
0.000729349
0.000920394
0.00114232
0.00139662
0.0016845
0.0020068
0.00236406
0.00275654
0.00318427
0.00364683
0.00414451
0.00467528
0.00523853
0.0058334
0.00645862
0.00711283
0.00779459
0.00850236
0.00923455
0.00998955
0.0107657
0.0115612
0.0123744
0.0132037
0.0140481
0.014908
0.0157842
0.0166774
0.0175883
0.0185176
0.0194657
0.0204333
0.0214208
0.0224287
0.0234572
0.0245065
0.0255766
0.0266672
0.0277777
0.028907
0.0300535
0.031215
0.0323881
0.0335684
0.0347499
0.0359251
0.0370842
0.0382156
0.0393057
0.0403388
0.0412968
0.0421426
0.0427624
0.0424142
0.0404089
0.0380745
0.0356011
0.0330516
0.0304681
0.0278866
0.0253388
0.0228514
0.020447
0.0181441
0.0159582
0.0139002
0.011981
0.0102073
0.00858418
0.00711506
0.00580123
0.00464195
0.0036346
0.00277544
0.00205859
0.00147552
0.00101539
0.000665467
0.000411295
0.000236855
0.000125504
6.03967e-05
2.65071e-05
1.05834e-05
3.58919e-06
6.3213e-07
4.52724e-07
1.99048e-06
4.65243e-06
9.22128e-06
1.685e-05
2.91023e-05
4.79404e-05
7.56676e-05
0.000114844
0.000168197
0.000238525
0.000328623
0.000441204
0.000578833
0.000743871
0.000938428
0.00116433
0.00142308
0.00171588
0.00204356
0.00240667
0.00280541
0.00323976
0.00370945
0.00421387
0.00475305
0.00532479
0.00592829
0.00656244
0.00722584
0.00791697
0.00863426
0.00937607
0.0101407
0.0109265
0.0117318
0.0125548
0.0133939
0.0142485
0.0151186
0.016005
0.0169084
0.0178294
0.0187687
0.0197268
0.0207043
0.0217016
0.0227192
0.0237574
0.0248163
0.0258959
0.026996
0.0281159
0.0292546
0.0304106
0.0315814
0.0327638
0.0339533
0.0351439
0.0363279
0.0374957
0.0386355
0.0397336
0.0407745
0.0417404
0.0425943
0.0432168
0.0428418
0.0407705
0.0383818
0.0358611
0.0332727
0.0306572
0.0280494
0.0254786
0.0229712
0.0205495
0.0182316
0.0160323
0.0139631
0.0120337
0.010251
0.00861988
0.00714359
0.00582334
0.00465835
0.00364604
0.00278269
0.00206248
0.00147685
0.00101494
0.000663963
0.000409359
0.000235158
0.000124253
5.96366e-05
2.615e-05
1.04429e-05
3.5438e-06
6.2434e-07
4.63542e-07
2.03819e-06
4.76248e-06
9.43461e-06
1.72302e-05
2.97445e-05
4.89804e-05
7.72892e-05
0.000117283
0.000171738
0.000243503
0.000335409
0.000450202
0.000590466
0.000758578
0.000956649
0.0011865
0.00144963
0.00174722
0.00208009
0.00244877
0.00285343
0.00329398
0.0037701
0.00428121
0.0048265
0.00540571
0.00601657
0.00665811
0.00732899
0.00802765
0.00875246
0.00950178
0.0102739
0.0110671
0.0118797
0.01271
0.0135572
0.0144211
0.015301
0.0161972
0.0171104
0.0180412
0.0189902
0.0199581
0.0209453
0.0219523
0.0229795
0.0240273
0.0250957
0.0261848
0.0272942
0.0284234
0.0295713
0.0307364
0.0319162
0.0331076
0.0343059
0.0355052
0.0366978
0.0378739
0.0390221
0.0401285
0.041178
0.0421527
0.0430158
0.0436471
0.0432499
0.0411256
0.0386861
0.0361252
0.033502
0.0308565
0.0282225
0.0256293
0.0231026
0.0206639
0.0183309
0.0161175
0.0140367
0.0120967
0.0103041
0.00866406
0.00717949
0.00585162
0.00467969
0.00366118
0.00279257
0.00206807
0.00147916
0.00101498
0.000662671
0.000407596
0.000233404
0.000122931
5.88294e-05
2.57701e-05
1.02923e-05
3.4948e-06
6.15895e-07
4.74197e-07
2.08519e-06
4.87085e-06
9.64465e-06
1.76047e-05
3.03776e-05
5.00072e-05
7.88932e-05
0.000119699
0.000175253
0.000248447
0.000342153
0.00045914
0.000602014
0.000773155
0.000974676
0.00120839
0.00147577
0.00177798
0.00211583
0.0024898
0.00290008
0.00334653
0.00382877
0.00434619
0.00489797
0.00548309
0.006101
0.00674937
0.00742707
0.00813254
0.00886408
0.00961998
0.0103985
0.0111979
0.0120165
0.0128532
0.0137078
0.0145798
0.0154688
0.0163742
0.0172964
0.018236
0.0191937
0.0201701
0.0211657
0.0221811
0.0232166
0.0242725
0.025349
0.026446
0.0275634
0.0287006
0.0298564
0.0310293
0.032217
0.0334162
0.0346223
0.0358293
0.0370296
0.0382135
0.0393693
0.0404837
0.0415414
0.0425253
0.0433982
0.0440392
0.0436282
0.0414584
0.0389753
0.0363766
0.0337218
0.0310495
0.0283925
0.0257795
0.0232354
0.0207813
0.0184344
0.016209
0.0141165
0.0121656
0.010363
0.00871334
0.00721979
0.00588353
0.00470385
0.00367837
0.00280379
0.00207441
0.00148174
0.00101494
0.000661102
0.000405422
0.000231409
0.000121462
5.7953e-05
2.53622e-05
1.01313e-05
3.44231e-06
6.06848e-07
4.84573e-07
2.13094e-06
4.97627e-06
9.84879e-06
1.79683e-05
3.09921e-05
5.10038e-05
8.04504e-05
0.000122046
0.000178667
0.000253248
0.000348693
0.000467796
0.000613172
0.000787203
0.000991993
0.00122933
0.00150068
0.00180716
0.00214955
0.0025283
0.00294356
0.00339516
0.0038827
0.00440549
0.00496269
0.00555325
0.00617594
0.00682991
0.00751282
0.00822338
0.00895983
0.00972041
0.0105034
0.0113069
0.0121299
0.012972
0.0138327
0.0147117
0.0156084
0.0165224
0.0174531
0.018401
0.0193668
0.0203511
0.0213546
0.0223776
0.0234206
0.0244839
0.0255677
0.026672
0.0277965
0.0289406
0.0301033
0.0312831
0.0324776
0.0336835
0.0348964
0.0361102
0.0373172
0.0385079
0.0396707
0.0407924
0.0418581
0.0428509
0.0437342
0.0443866
0.0439689
0.0417624
0.0392392
0.036607
0.0339246
0.0312291
0.0285525
0.0259226
0.0233636
0.0208962
0.0185368
0.0163005
0.0141974
0.0122363
0.0104238
0.00876469
0.00726205
0.00591715
0.00472938
0.00369656
0.00281565
0.00208107
0.00148441
0.00101484
0.000659408
0.000403152
0.000229318
0.000119934
5.70495e-05
2.49435e-05
9.96591e-06
3.38829e-06
5.97519e-07
4.94506e-07
2.17473e-06
5.07709e-06
1.00437e-05
1.83149e-05
3.15767e-05
5.19504e-05
8.19274e-05
0.000124269
0.000181896
0.00025778
0.000354854
0.000475928
0.000623624
0.00080032
0.0010081
0.00124875
0.00152369
0.00183401
0.00218046
0.00256347
0.00298312
0.00343924
0.00393136
0.00445881
0.00502065
0.0056158
0.00624299
0.00690079
0.00758801
0.00830242
0.00904244
0.00980624
0.010592
0.0113984
0.012225
0.0130713
0.0139369
0.0148215
0.0157244
0.0166453
0.0175835
0.0185387
0.0195115
0.0205026
0.0215126
0.022542
0.0235912
0.0246606
0.0257503
0.0268604
0.0279907
0.0291404
0.0303088
0.0314941
0.0326941
0.0339055
0.0351239
0.0363432
0.0375559
0.0387524
0.0399212
0.0410493
0.0421222
0.0431236
0.0440167
0.0446798
0.0442628
0.0420248
0.039467
0.0368066
0.0341012
0.031387
0.0286946
0.0260512
0.0234803
0.0210018
0.0186331
0.0163872
0.0142749
0.0123047
0.0104833
0.00881544
0.0073042
0.00595098
0.00475529
0.00371518
0.00282794
0.00208811
0.00148738
0.00101497
0.000657887
0.000401012
0.000227322
0.000118476
5.61914e-05
2.45483e-05
9.81062e-06
3.3377e-06
5.88798e-07
5.03691e-07
2.21524e-06
5.17037e-06
1.0224e-05
1.86349e-05
3.2115e-05
5.28191e-05
8.32776e-05
0.000126293
0.000184822
0.000261869
0.000360386
0.000483195
0.000632916
0.000811919
0.00102228
0.00126573
0.0015437
0.00185723
0.00220704
0.00259351
0.00301671
0.00347641
0.00397213
0.00450314
0.00506847
0.005667
0.00629741
0.00695823
0.00764784
0.00836459
0.00910655
0.00987182
0.0106589
0.0114673
0.0122964
0.0131459
0.0140153
0.014904
0.0158118
0.016738
0.0176823
0.0186439
0.0196228
0.0206197
0.0216351
0.0226697
0.023724
0.0247982
0.0258926
0.0270073
0.0281419
0.029296
0.0304685
0.031658
0.0328621
0.0340776
0.0353001
0.0365236
0.0377406
0.0389415
0.0401151
0.0412485
0.0423276
0.0433366
0.0442396
0.0449145
0.0445046
0.0422388
0.0396513
0.0369675
0.034244
0.0315156
0.0288117
0.0261586
0.0235793
0.0210935
0.0187173
0.0164641
0.0143445
0.0123671
0.0105382
0.00886277
0.00734397
0.00598329
0.00478038
0.00373351
0.00284035
0.00209554
0.00149088
0.00101566
0.000656906
0.000399352
0.000225658
0.000117241
5.54645e-05
2.42157e-05
9.68109e-06
3.29587e-06
5.81622e-07
5.11459e-07
2.24962e-06
5.24993e-06
1.03784e-05
1.89094e-05
3.25763e-05
5.35607e-05
8.44234e-05
0.000127997
0.000187267
0.000265256
0.000364929
0.000489112
0.000640424
0.00082122
0.00103356
0.00127917
0.00155943
0.00187538
0.0022277
0.00261675
0.00304256
0.00350488
0.00400319
0.00453673
0.0051045
0.00570532
0.00633779
0.00700037
0.00769135
0.00840906
0.00915148
0.00991687
0.0107046
0.0115142
0.012345
0.0131965
0.0140682
0.0149598
0.0158707
0.0168005
0.0177489
0.0187152
0.0196989
0.0207002
0.0217197
0.022758
0.0238158
0.0248933
0.0259909
0.0271086
0.0282462
0.0294031
0.0305784
0.0317705
0.0329773
0.0341954
0.0354205
0.0366467
0.0378664
0.0390703
0.040247
0.0413842
0.0424679
0.0434832
0.0443945
0.0450791
0.0446776
0.0423918
0.0397817
0.037081
0.0343452
0.0316076
0.0288967
0.026238
0.0236539
0.0211636
0.018783
0.0165253
0.0144009
0.0124183
0.010584
0.00890289
0.00737822
0.0060116
0.00480282
0.00375036
0.00285217
0.00210304
0.00149488
0.00101708
0.000656681
0.000398339
0.000224555
0.000116387
5.49576e-05
2.39868e-05
9.59361e-06
3.26809e-06
5.76888e-07
5.163e-07
2.27121e-06
5.30042e-06
1.04772e-05
1.90862e-05
3.28736e-05
5.4037e-05
8.51549e-05
0.000129076
0.000188799
0.000267357
0.000367719
0.00049271
0.000644943
0.000826769
0.00104023
0.00128706
0.0015686
0.00188589
0.00223959
0.00263005
0.00305728
0.00352101
0.00402071
0.00455558
0.00512462
0.0057266
0.00636008
0.00702346
0.00771491
0.00843248
0.00917423
0.00993941
0.0107274
0.0115374
0.0123689
0.0132214
0.0140943
0.0149872
0.0158997
0.0168315
0.0177819
0.0187507
0.0197375
0.0207416
0.0217635
0.022804
0.0238637
0.024943
0.0260423
0.0271615
0.0283005
0.0294587
0.0306353
0.0318287
0.0330367
0.034256
0.0354823
0.0367097
0.0379306
0.0391357
0.0403138
0.0414527
0.0425388
0.0435576
0.0444741
0.0451647
0.0447702
0.0424738
0.0398507
0.0371412
0.0343996
0.0316581
0.0289445
0.0262838
0.023698
0.021206
0.0188236
0.0165637
0.0144369
0.0124515
0.0106142
0.00892973
0.0074015
0.00603119
0.0048187
0.00376267
0.00286116
0.0021091
0.00149851
0.00101886
0.000657207
0.000398173
0.000224143
0.000116015
5.47268e-05
2.38833e-05
9.55523e-06
3.25639e-06
5.74939e-07
5.16147e-07
2.27055e-06
5.29892e-06
1.04744e-05
1.90814e-05
3.28659e-05
5.40252e-05
8.5137e-05
0.000129049
0.000188759
0.000267298
0.000367633
0.000492589
0.000644778
0.000826552
0.00103996
0.00128671
0.00156819
0.00188541
0.00223904
0.00262944
0.00305661
0.0035203
0.00401996
0.00455481
0.00512384
0.00572582
0.00635932
0.00702273
0.00771422
0.00843182
0.00917358
0.00993874
0.0107266
0.0115366
0.012368
0.0132204
0.0140932
0.014986
0.0158985
0.0168301
0.0177804
0.0187491
0.0197358
0.0207398
0.0217618
0.0228023
0.0238621
0.0249414
0.0260407
0.02716
0.0282991
0.0294574
0.0306341
0.0318277
0.0330359
0.0342554
0.0354819
0.0367096
0.0379308
0.0391361
0.0403145
0.0414535
0.0425398
0.0435588
0.0444756
0.0451675
0.04478
0.0424848
0.0398613
0.0371512
0.0344092
0.0316673
0.0289533
0.0262923
0.0237061
0.0212137
0.0188309
0.0165706
0.0144433
0.0124573
0.0106194
0.0089343
0.00740543
0.00603451
0.00482143
0.00376483
0.00286283
0.00211035
0.00149942
0.00101949
0.000657627
0.000398439
0.0002243
0.000116101
5.47705e-05
2.39031e-05
9.56342e-06
3.25927e-06
5.75455e-07
5.11069e-07
2.24795e-06
5.2462e-06
1.03714e-05
1.88975e-05
3.25569e-05
5.35301e-05
8.43762e-05
0.000127925
0.000187158
0.000265093
0.000364692
0.000488776
0.000639963
0.000820611
0.00103278
0.0012782
0.00155826
0.00187401
0.00222613
0.00261498
0.00304062
0.00350279
0.00400098
0.00453443
0.00510215
0.00570296
0.00633548
0.00699814
0.00768922
0.00840696
0.00914943
0.00991484
0.0107026
0.011512
0.0123426
0.0131939
0.0140654
0.0149567
0.0158674
0.016797
0.0177451
0.0187112
0.0196948
0.0206959
0.0217154
0.0227538
0.0238116
0.0248893
0.025987
0.0271048
0.0282425
0.0293997
0.0305752
0.0317678
0.032975
0.0341938
0.0354196
0.0366466
0.0378671
0.0390717
0.0402492
0.0413869
0.0424712
0.0434872
0.0443994
0.0450882
0.044707
0.0424247
0.0398131
0.037111
0.0343738
0.0316349
0.0289228
0.026263
0.0236779
0.0211865
0.0188046
0.0165454
0.0144195
0.0124352
0.0105991
0.00891612
0.00738958
0.00602113
0.0048106
0.00375654
0.00285693
0.00210657
0.00149741
0.00101884
0.00065786
0.000399104
0.000225011
0.000116646
5.50917e-05
2.40482e-05
9.61866e-06
3.27675e-06
5.7843e-07
5.0305e-07
2.21249e-06
5.16419e-06
1.02123e-05
1.86148e-05
3.20821e-05
5.27673e-05
8.31982e-05
0.000126173
0.000184643
0.000261606
0.000360011
0.000482673
0.000632213
0.000810999
0.00102111
0.00126429
0.00154197
0.00185521
0.00220473
0.00259092
0.00301387
0.00347335
0.00396889
0.00449976
0.00506501
0.0056635
0.00629391
0.00695476
0.0076444
0.00836121
0.00910327
0.00986858
0.0106556
0.0114638
0.0122927
0.0131419
0.0140109
0.0148992
0.0158066
0.0167325
0.0176764
0.0186378
0.0196165
0.0206132
0.0216287
0.0226633
0.0237176
0.0247919
0.0258865
0.0270013
0.0281362
0.0292907
0.0304637
0.0316538
0.0328587
0.0340752
0.0352988
0.0365236
0.0377419
0.0389441
0.0401188
0.0412531
0.0423331
0.0433434
0.0442481
0.0449309
0.0445522
0.0422927
0.0397038
0.0370182
0.0342926
0.031562
0.028856
0.0262009
0.0236195
0.0211316
0.0187532
0.0164975
0.0143752
0.0123949
0.010563
0.00888446
0.00736258
0.00599891
0.00479317
0.00374369
0.00284821
0.00210141
0.00149512
0.00101861
0.000658872
0.00040059
0.000226425
0.000117674
5.56847e-05
2.43158e-05
9.72221e-06
3.31017e-06
5.84174e-07
4.93655e-07
2.17108e-06
5.06885e-06
1.00281e-05
1.82878e-05
3.1532e-05
5.18799e-05
8.18192e-05
0.000124106
0.000181655
0.000257431
0.000354359
0.000475245
0.000622707
0.000799124
0.00100659
0.00124688
0.00152145
0.00183139
0.00217745
0.00256008
0.00297939
0.00343519
0.00392704
0.00445426
0.00501594
0.00561099
0.00623812
0.00689589
0.00758305
0.00829758
0.00903766
0.00980147
0.0105872
0.0113934
0.0122197
0.0130656
0.0139309
0.014815
0.0157175
0.016638
0.0175759
0.0185308
0.0195034
0.0204945
0.0215044
0.0225339
0.0235832
0.0246527
0.0257426
0.026853
0.0279835
0.0291338
0.0303028
0.0314889
0.03269
0.0339028
0.0351227
0.0363438
0.0375583
0.0387566
0.039927
0.0410565
0.0421306
0.0431336
0.0440291
0.044703
0.0443281
0.0421005
0.0395412
0.0368783
0.0341701
0.0314529
0.0287576
0.0261113
0.0235374
0.0210558
0.0186836
0.016434
0.0143177
0.0123434
0.0105177
0.00884548
0.00732995
0.0059726
0.00477301
0.00372932
0.0028389
0.00209635
0.00149338
0.0010192
0.000660785
0.000402891
0.000228466
0.000119123
5.65226e-05
2.46985e-05
9.87198e-06
3.35888e-06
5.92565e-07
4.83502e-07
2.12634e-06
4.96589e-06
9.82906e-06
1.79339e-05
3.09355e-05
5.09147e-05
8.0315e-05
0.000121845
0.000178375
0.000252831
0.000348109
0.000466997
0.000612108
0.000785825
0.000990255
0.0012272
0.00149813
0.00180418
0.00214614
0.00252449
0.00293936
0.00339062
0.00387787
0.00440045
0.00495751
0.00554798
0.00617063
0.00682454
0.00750766
0.00821835
0.00895489
0.00971552
0.0104985
0.0113019
0.0121247
0.0129664
0.0138267
0.0147053
0.0156015
0.0165151
0.0174453
0.0183929
0.0193585
0.0203427
0.0213461
0.0223691
0.0234121
0.0244755
0.0255594
0.026664
0.0277888
0.0289335
0.030097
0.0312778
0.0324736
0.0336811
0.0348959
0.0361119
0.0373212
0.0385142
0.0396791
0.0408026
0.04187
0.042865
0.0437511
0.0444161
0.04405
0.0418594
0.0393351
0.0367002
0.0340144
0.0313153
0.0286349
0.0260012
0.0234381
0.0209662
0.0186025
0.0163609
0.0142524
0.0122858
0.0104677
0.00880296
0.00729484
0.00594469
0.00475199
0.00371465
0.00282973
0.00209171
0.00149219
0.00102034
0.000663135
0.000405602
0.000230824
0.000120795
5.7493e-05
2.51452e-05
1.00483e-05
3.41671e-06
6.02574e-07
4.72927e-07
2.07974e-06
4.85855e-06
9.62132e-06
1.75641e-05
3.03112e-05
4.99037e-05
7.87376e-05
0.000119472
0.000174927
0.000247988
0.000341516
0.000458275
0.000600867
0.000771672
0.000972808
0.00120609
0.00147302
0.00177475
0.00211212
0.00248562
0.00289543
0.00334146
0.00382333
0.00434043
0.00489192
0.0054768
0.00609444
0.00674283
0.0074205
0.00812592
0.00885742
0.00961326
0.0103917
0.011191
0.0120093
0.0128458
0.0137
0.0145716
0.0154603
0.0163653
0.0172872
0.0182267
0.0191843
0.0201607
0.0211563
0.0221717
0.0232073
0.0242634
0.0253402
0.0264376
0.0275555
0.0286934
0.0298501
0.0310243
0.0322136
0.0334146
0.034623
0.0358326
0.0370356
0.0382222
0.0393807
0.0404975
0.0415577
0.0425446
0.0434218
0.0440791
0.0437317
0.0415813
0.0390956
0.036493
0.0338335
0.0311565
0.0284947
0.0258768
0.0233277
0.0208681
0.018515
0.0162835
0.0141844
0.0122266
0.0104169
0.00876034
0.00725999
0.00591726
0.00473155
0.00370058
0.00282113
0.00208757
0.00149145
0.00102188
0.000665926
0.00040859
0.000233367
0.000122579
5.85288e-05
2.56236e-05
1.02378e-05
3.47897e-06
6.13359e-07
4.6211e-07
2.03206e-06
4.74866e-06
9.40846e-06
1.7185e-05
2.9671e-05
4.8867e-05
7.71212e-05
0.000117041
0.000171397
0.000243028
0.000334757
0.000449323
0.000589306
0.000757082
0.000954768
0.00118419
0.00144687
0.00174398
0.00207639
0.00244461
0.00284886
0.00328908
0.00376491
0.00427578
0.00482089
0.00539995
0.00601095
0.00665263
0.00732368
0.00802254
0.00874758
0.00949711
0.0102694
0.0110628
0.0118754
0.0127057
0.0135528
0.0144163
0.0152959
0.0161918
0.0171047
0.0180353
0.0189841
0.0199517
0.0209387
0.0219456
0.0229727
0.0240204
0.0250889
0.0261781
0.0272879
0.0284177
0.0295666
0.0307329
0.0319144
0.0331078
0.0343086
0.0355108
0.0367065
0.0378859
0.0390372
0.0401467
0.0411996
0.0421788
0.043048
0.0436995
0.0433748
0.0412736
0.038833
0.0362662
0.0336371
0.0309858
0.0283456
0.0257462
0.0232129
0.0207674
0.0184273
0.0162067
0.0141176
0.0121691
0.0103683
0.00871992
0.00722729
0.00589176
0.0047127
0.0036877
0.00281333
0.00208389
0.00149086
0.00102333
0.000668388
0.000411342
0.000235761
0.000124291
5.95372e-05
2.60932e-05
1.04243e-05
3.54027e-06
6.2398e-07
4.51171e-07
1.98385e-06
4.63751e-06
9.19317e-06
1.68016e-05
2.90244e-05
4.78217e-05
7.54946e-05
0.0001146
0.000167857
0.000238058
0.000327988
0.000440352
0.000577709
0.00074242
0.0009366
0.00116208
0.00142038
0.0017127
0.00203991
0.00240257
0.00280092
0.0032349
0.00370419
0.00420824
0.00474706
0.00531867
0.00592205
0.00655609
0.00721941
0.0079105
0.00862777
0.00936956
0.0101342
0.0109199
0.0117251
0.0125479
0.0133868
0.0142412
0.0151111
0.0159974
0.0169007
0.0178216
0.0187609
0.019719
0.0206965
0.0216939
0.0227116
0.02375
0.0248092
0.0258893