/*--------------------------------*- C++ -*----------------------------------*\
  =========                 |
  \\      /  F ield         | OpenFOAM: The Open Source CFD Toolbox
   \\    /   O peration     | Website:  https://openfoam.org
    \\  /    A nd           | Version:  8
     \\/     M anipulation  |
\*---------------------------------------------------------------------------*/
FoamFile
{
    version     2.0;
    format      ascii;
    class       volScalarField;
    location    "20/fluid";
    object      H2O;
}
// * * * * * * * * * * * * * * * * * * * * * * * * * * * * * * * * * * * * * //

dimensions      [0 0 0 0 0 0 0];

internalField   nonuniform List<scalar> 
4000
(
3.56036e-07
1.56631e-06
3.69602e-06
7.43715e-06
1.38202e-05
2.42193e-05
4.02979e-05
6.39462e-05
9.71726e-05
0.000141999
0.000200378
0.000274132
0.000364905
0.000474131
0.000603026
0.000752579
0.000923558
0.0011165
0.00133176
0.00156954
0.00182982
0.00211292
0.00241863
0.0027466
0.00309642
0.00346766
0.00385986
0.00427254
0.00470521
0.00515737
0.0056285
0.00611809
0.00662564
0.00715064
0.0076926
0.00825104
0.00882548
0.00941552
0.0100208
0.0106409
0.0112757
0.0119251
0.0125892
0.0132683
0.0139626
0.0146722
0.0153974
0.016138
0.0168942
0.0176658
0.0184525
0.019254
0.0200696
0.0208984
0.0217394
0.0225909
0.023451
0.024317
0.0251856
0.0260526
0.0269129
0.0277602
0.0285872
0.029386
0.0301478
0.03086
0.0314996
0.0318984
0.031566
0.0303055
0.0287582
0.0270742
0.0253056
0.023483
0.0216331
0.0197796
0.0179442
0.0161463
0.0144023
0.0127264
0.0111309
0.00962626
0.00822138
0.00692342
0.00573807
0.0046695
0.00372027
0.00289168
0.00218394
0.00159477
0.00111897
0.000748527
0.000472778
0.000278622
0.000151045
7.4041e-05
3.26472e-05
1.29545e-05
4.35118e-06
7.63929e-07
3.30445e-07
1.45178e-06
3.41877e-06
6.87187e-06
1.27792e-05
2.247e-05
3.76048e-05
6.00706e-05
9.18899e-05
0.000135125
0.000191799
0.000263818
0.000352916
0.00046062
0.00058822
0.00073677
0.000907108
0.00109978
0.00131502
0.00155369
0.00181555
0.00210015
0.00240737
0.00273697
0.00308856
0.00346171
0.0038559
0.0042706
0.00470526
0.00515928
0.00563209
0.00612308
0.00663168
0.00715731
0.00769941
0.00825745
0.0088309
0.00941931
0.0100223
0.0106394
0.0112708
0.0119166
0.0125771
0.0132528
0.0139439
0.0146507
0.0153734
0.0161122
0.0168672
0.0176384
0.0184258
0.0192291
0.0200479
0.0208814
0.0217287
0.0225883
0.0234584
0.0243363
0.0252188
0.0261016
0.0269793
0.0278454
0.0286916
0.0295094
0.0302859
0.0310062
0.0316376
0.0319975
0.0315909
0.0302953
0.028726
0.027025
0.0252386
0.0233956
0.0215269
0.0196585
0.0178105
0.0160023
0.014251
0.0125708
0.0109735
0.00946934
0.00806708
0.00677402
0.00559592
0.00453685
0.00359914
0.0027838
0.00209057
0.00151649
0.00105569
0.000699513
0.000436726
0.000253803
0.000135427
6.545e-05
2.86064e-05
1.13002e-05
3.79299e-06
6.66025e-07
3.19455e-07
1.40434e-06
3.3039e-06
6.62541e-06
1.22828e-05
2.15226e-05
3.59124e-05
5.72801e-05
8.76363e-05
0.000129074
0.000183669
0.000253408
0.000340132
0.000445494
0.000570926
0.000717617
0.000886489
0.0010783
0.00129365
0.0015322
0.00179434
0.00208003
0.00238904
0.00272106
0.00307571
0.00345253
0.00385102
0.00427063
0.00471076
0.00517082
0.00565018
0.00614822
0.00666433
0.00719787
0.00774824
0.00831478
0.00889687
0.00949391
0.0101053
0.0107306
0.0113699
0.0120236
0.012692
0.0133753
0.0140739
0.014788
0.0155178
0.0162634
0.017025
0.0178025
0.0185958
0.0194047
0.0202286
0.021067
0.0219187
0.0227823
0.0236558
0.0245364
0.0254206
0.0263037
0.0271801
0.0280434
0.0288866
0.0296978
0.0304667
0.0311783
0.0317978
0.032106
0.0315637
0.0302055
0.0285976
0.0268644
0.0250505
0.023187
0.0212989
0.0194105
0.0175497
0.0157347
0.0139806
0.0123022
0.0107115
0.00921794
0.00782971
0.00655361
0.00539507
0.00435776
0.00344351
0.00265268
0.00198416
0.00143382
0.000994745
0.000657385
0.000409845
0.00023826
0.000127415
6.17199e-05
2.7036e-05
1.07025e-05
3.5958e-06
6.31174e-07
3.1499e-07
1.38549e-06
3.2583e-06
6.52323e-06
1.20622e-05
2.10815e-05
3.50961e-05
5.58821e-05
8.54013e-05
0.000125713
0.000178903
0.00024701
0.000331956
0.000435498
0.000559184
0.000704328
0.000871991
0.00106303
0.001278
0.0015172
0.00178075
0.00206836
0.00237992
0.00271513
0.00307359
0.00345482
0.00385822
0.00428318
0.00472901
0.005195
0.00568042
0.00618455
0.00670664
0.00724599
0.00780187
0.00837354
0.0089603
0.00956145
0.0101763
0.0108047
0.011447
0.0121037
0.0127752
0.0134619
0.0141642
0.0148823
0.0156167
0.0163675
0.0171349
0.017919
0.0187197
0.0195369
0.0203702
0.0212188
0.0220819
0.0229578
0.0238443
0.0247388
0.0256373
0.0265346
0.0274269
0.0283045
0.0291573
0.0299745
0.030744
0.0314479
0.0320471
0.0322808
0.0315685
0.0301448
0.0284929
0.026723
0.0248757
0.0229828
0.0210729
0.0191714
0.0172964
0.0154722
0.013717
0.0120417
0.0104579
0.00897591
0.00760368
0.00634715
0.00521087
0.00419766
0.00330843
0.00254258
0.0018979
0.00136921
0.000948803
0.000626612
0.000390596
0.000227123
0.00012152
5.89123e-05
2.58342e-05
1.02428e-05
3.44579e-06
6.05027e-07
3.14325e-07
1.38244e-06
3.24823e-06
6.49526e-06
1.19919e-05
2.09241e-05
3.47769e-05
5.52824e-05
8.4371e-05
0.000124096
0.000176551
0.000243799
0.000327812
0.000430417
0.000553262
0.000697763
0.000865065
0.00105601
0.00127125
0.00151121
0.00177612
0.002066
0.00238071
0.00271996
0.00308337
0.00347042
0.0038805
0.00431291
0.00476696
0.00524188
0.00573684
0.00625105
0.00678372
0.00733402
0.0079011
0.00848406
0.00908203
0.00969411
0.0103195
0.0109581
0.0116103
0.0122767
0.0129577
0.0136536
0.0143649
0.0150919
0.015835
0.0165943
0.01737
0.0181624
0.0189712
0.0197964
0.0206375
0.021494
0.022365
0.0232489
0.0241434
0.0250458
0.0259527
0.0268597
0.0277577
0.0286388
0.0294934
0.03031
0.0310752
0.031767
0.0323392
0.0324862
0.0315989
0.0301099
0.0284118
0.0266014
0.024719
0.0227971
0.0208643
0.0189464
0.0170662
0.015239
0.0134801
0.0118091
0.0102351
0.00876599
0.0074097
0.00617193
0.00505641
0.00406507
0.00319792
0.00245352
0.00182876
0.00131777
0.000912337
0.000602173
0.000375264
0.000218233
0.000116837
5.67192e-05
2.4919e-05
9.90198e-06
3.33684e-06
5.86204e-07
3.16585e-07
1.39206e-06
3.26692e-06
6.5192e-06
1.20093e-05
2.09099e-05
3.46961e-05
5.51036e-05
8.40449e-05
0.000123566
0.000175763
0.000242709
0.000326403
0.0004287
0.000551326
0.000695779
0.000863309
0.00105491
0.00127143
0.00151314
0.00178043
0.00207337
0.00239183
0.00273545
0.00310377
0.00349626
0.00391233
0.00435129
0.00481248
0.00529532
0.00579813
0.00632035
0.00686112
0.00741955
0.00799469
0.00858557
0.00919123
0.00981068
0.0104432
0.0110888
0.0117482
0.0124217
0.01311
0.0138134
0.0145325
0.0152676
0.016019
0.0167871
0.0175721
0.0183741
0.0191932
0.020029
0.020881
0.0217482
0.0226316
0.0235291
0.0244393
0.0253564
0.0262759
0.0271921
0.0280988
0.0289874
0.0298479
0.0306681
0.0314341
0.0321203
0.0326721
0.03273
0.0316791
0.0301242
0.0283781
0.026527
0.0246087
0.0226568
0.0207008
0.0187658
0.0168735
0.0150424
0.0132884
0.0116208
0.0100553
0.00859833
0.00725647
0.0060348
0.00493655
0.00396294
0.00311333
0.00238562
0.00177611
0.00127848
0.000884232
0.000583045
0.000362992
0.000210904
0.000112828
5.4754e-05
2.40679e-05
9.57672e-06
3.23187e-06
5.681e-07
3.21112e-07
1.41151e-06
3.30842e-06
6.59017e-06
1.21159e-05
2.10552e-05
3.4878e-05
5.53149e-05
8.42906e-05
0.000123857
0.000176126
0.000243201
0.000327126
0.000429832
0.000553064
0.00069838
0.000867112
0.00106034
0.00127889
0.00152352
0.00179411
0.00209097
0.00241407
0.00276312
0.00313767
0.00353716
0.00396093
0.00440822
0.00487811
0.00536949
0.00588226
0.00641524
0.00696732
0.00753742
0.00812442
0.00872721
0.00934467
0.00997563
0.0106193
0.0112758
0.0119458
0.0126297
0.013328
0.0140414
0.0147702
0.0155148
0.0162757
0.0170532
0.0178475
0.0186587
0.0194871
0.0203326
0.0211951
0.0220744
0.0229671
0.0238719
0.0247861
0.0257094
0.0266376
0.027563
0.0284777
0.0293721
0.0302366
0.0310591
0.0318255
0.0325091
0.0330458
0.033032
0.0318251
0.0301985
0.0284005
0.026506
0.0245529
0.0225728
0.020594
0.0186419
0.0167381
0.0149008
0.0131448
0.0114826
0.00992179
0.00847299
0.00714195
0.00593274
0.0048478
0.00388771
0.00305121
0.00233574
0.00173731
0.00124941
0.000863441
0.000568918
0.000353939
0.000205484
0.000109836
5.32666e-05
2.34221e-05
9.32945e-06
3.15181e-06
5.54181e-07
3.28036e-07
1.44219e-06
3.37886e-06
6.72318e-06
1.23413e-05
2.14096e-05
3.54049e-05
5.60626e-05
8.53175e-05
0.000125237
0.000177952
0.000245595
0.000330243
0.000433852
0.000558222
0.000704961
0.000875449
0.00107083
0.001292
0.00153954
0.00181422
0.00211543
0.00244342
0.002798
0.00317871
0.00358496
0.004016
0.00447104
0.00494917
0.00544947
0.00597108
0.00651299
0.00707416
0.00765348
0.0082498
0.00886193
0.00948866
0.0101288
0.0107815
0.0114471
0.0121262
0.0128193
0.013527
0.0142498
0.0149884
0.015743
0.0165141
0.0173022
0.0181073
0.0189298
0.0197695
0.0206262
0.0214993
0.022388
0.0232909
0.0242064
0.0251319
0.026064
0.0269979
0.0279303
0.0288537
0.0297572
0.0306291
0.0314559
0.0322239
0.0329054
0.033425
0.033332
0.0320076
0.0303182
0.0284723
0.0265367
0.0245491
0.0225416
0.020542
0.0185745
0.0166596
0.014815
0.0130552
0.0113921
0.00983505
0.00839163
0.00706735
0.00586595
0.00478946
0.00383806
0.00301016
0.00230293
0.00171213
0.00123079
0.000850151
0.000559817
0.000348017
0.000201866
0.000107799
5.22328e-05
2.2964e-05
9.1527e-06
3.09483e-06
5.44392e-07
3.35956e-07
1.4768e-06
3.45738e-06
6.87148e-06
1.25966e-05
2.18233e-05
3.60454e-05
5.70174e-05
8.66945e-05
0.000127165
0.000180584
0.00024911
0.000334848
0.000439796
0.000565796
0.000714496
0.000887319
0.00108544
0.0013098
0.00156109
0.00183966
0.00214624
0.00247982
0.00284053
0.00322807
0.00364188
0.00408123
0.00454529
0.00503315
0.00554382
0.00607626
0.00662937
0.007202
0.00779295
0.00840097
0.00902478
0.00966307
0.0103145
0.0109784
0.0116548
0.0123444
0.0130479
0.0137658
0.0144987
0.015247
0.0160113
0.0167919
0.0175892
0.0184034
0.0192347
0.020083
0.0209482
0.0218297
0.0227267
0.023638
0.0245617
0.0254954
0.0264355
0.0273776
0.0283157
0.0292416
0.0301485
0.0310251
0.0318567
0.0326271
0.0333075
0.0338159
0.0336542
0.032235
0.0304841
0.028591
0.0266153
0.0245942
0.0225591
0.0205375
0.0185533
0.0166268
0.0147745
0.0130104
0.0113456
0.00978899
0.0083474
0.00702616
0.00582867
0.0047566
0.0038099
0.00298679
0.00228439
0.00169762
0.0012197
0.000841933
0.000553981
0.0003441
0.000199406
0.000106364
5.14904e-05
2.26361e-05
9.02608e-06
3.05362e-06
5.37177e-07
3.44236e-07
1.51325e-06
3.54096e-06
7.03158e-06
1.28768e-05
2.22858e-05
3.67752e-05
5.81257e-05
8.83206e-05
0.000129478
0.000183783
0.000253423
0.000340534
0.000447143
0.000575121
0.000726147
0.000901674
0.0011029
0.00133078
0.00158602
0.00186908
0.00218007
0.00251958
0.00288633
0.00328023
0.00370086
0.00414747
0.00461922
0.00511514
0.00563422
0.00617534
0.00673736
0.00731905
0.00791917
0.00853643
0.00916951
0.00981707
0.0104778
0.0111509
0.0118366
0.0125356
0.0132485
0.013976
0.0147185
0.0154765
0.0162505
0.0170409
0.0178481
0.0186722
0.0195135
0.0203719
0.0212472
0.0221388
0.0230459
0.0239673
0.024901
0.0258444
0.026794
0.0277451
0.0286916
0.0296259
0.0305383
0.0314174
0.0322522
0.0330274
0.0337104
0.0342128
0.0339959
0.0324967
0.0306901
0.0287512
0.0267368
0.0246832
0.0226212
0.0205776
0.0185758
0.0166354
0.0147727
0.0130011
0.0113314
0.00977205
0.00832959
0.00700856
0.00581201
0.00474136
0.0037963
0.00297481
0.00227389
0.00168875
0.00121244
0.000836132
0.000549375
0.000340604
0.000196979
0.000104861
5.06753e-05
2.22707e-05
8.88705e-06
3.00987e-06
5.29775e-07
3.52892e-07
1.55136e-06
3.62859e-06
7.20041e-06
1.31748e-05
2.27829e-05
3.75683e-05
5.93437e-05
9.01263e-05
0.000132069
0.00018739
0.00025831
0.000346994
0.000455496
0.000585716
0.000739354
0.000917888
0.00112254
0.00135429
0.00161382
0.00190161
0.00221789
0.00256257
0.00293608
0.00333691
0.00376478
0.00421913
0.00469908
0.00520364
0.00573174
0.00628221
0.00685384
0.00744537
0.00805547
0.00868279
0.00932593
0.00998352
0.0106541
0.011337
0.0120324
0.012741
0.0134635
0.0142003
0.014952
0.0157192
0.0165023
0.0173016
0.0181176
0.0189505
0.0198004
0.0206673
0.021551
0.0224511
0.0233666
0.0242963
0.0252384
0.0261901
0.0271479
0.0281068
0.0290609
0.0300022
0.0309213
0.0318071
0.0326467
0.0334248
0.0341137
0.0346195
0.0343701
0.0327888
0.0309252
0.0289408
0.0268886
0.0248034
0.0227149
0.0206496
0.0186301
0.0166755
0.0148016
0.0130211
0.0113448
0.00978021
0.00833381
0.00700996
0.00581142
0.00473938
0.00379329
0.00297117
0.00226991
0.00168471
0.00120858
0.000832679
0.000546618
0.000338415
0.000195335
0.000103761
5.00458e-05
2.19804e-05
8.77399e-06
2.97362e-06
5.23553e-07
3.61739e-07
1.59034e-06
3.7184e-06
7.37405e-06
1.34829e-05
2.33e-05
3.83994e-05
6.06289e-05
9.2044e-05
0.000134835
0.000191258
0.000263566
0.000353952
0.000464495
0.000597111
0.000753518
0.000935204
0.0011434
0.00137908
0.00164295
0.00193543
0.00225676
0.00260693
0.00298563
0.00339308
0.00382761
0.00428874
0.00477575
0.00528761
0.00582321
0.00638136
0.00696081
0.00756025
0.00817836
0.00881375
0.00946504
0.0101309
0.0108098
0.0115011
0.0122051
0.0129224
0.0136537
0.0143994
0.0151602
0.0159364
0.0167285
0.017537
0.0183622
0.0192042
0.0200633
0.0209394
0.0218322
0.0227413
0.0236659
0.0246046
0.0255554
0.0265159
0.0274822
0.0284495
0.0294115
0.0303605
0.0312868
0.0321792
0.033025
0.0338093
0.0345018
0.0350092
0.0347242
0.0330824
0.0311712
0.0291463
0.027059
0.024944
0.0228305
0.0207447
0.0187083
0.0167398
0.0148544
0.0130648
0.01138
0.00980875
0.0083566
0.00702779
0.00582504
0.00474942
0.00380032
0.00297562
0.00227223
0.00168535
0.001208
0.000831293
0.000544812
0.000336724
0.000193911
0.000102749
4.94462e-05
2.17011e-05
8.66458e-06
2.93844e-06
5.17519e-07
3.70641e-07
1.62959e-06
3.80891e-06
7.54938e-06
1.37949e-05
2.38258e-05
3.92484e-05
6.19484e-05
9.40221e-05
0.000137701
0.000195278
0.000269041
0.00036121
0.000473885
0.000609
0.000768283
0.000953225
0.00116506
0.00140477
0.00167305
0.00197032
0.00229676
0.00265236
0.00303689
0.00344986
0.00389128
0.00435936
0.00485344
0.00537262
0.00591573
0.00648155
0.00706879
0.00767611
0.00830213
0.00894547
0.00960471
0.0102785
0.0109655
0.0116651
0.0123775
0.0131031
0.0138427
0.0145968
0.0153657
0.0161501
0.0169504
0.0177669
0.0186
0.0194499
0.0203169
0.0212007
0.0221014
0.0230182
0.0239505
0.0248969
0.0258554
0.0268235
0.0277973
0.028772
0.0297414
0.0306974
0.0316305
0.0325295
0.0333817
0.0341725
0.0348716
0.0353812
0.0350742
0.0333785
0.0314228
0.0293591
0.02724
0.0250988
0.0229638
0.0208591
0.0188064
0.0168237
0.014926
0.0131255
0.0114315
0.00985187
0.00839237
0.00705702
0.0058484
0.00476752
0.00381375
0.00298498
0.00227816
0.00168853
0.00120908
0.000830925
0.000543581
0.000335139
0.000192522
0.000101725
4.8824e-05
2.14087e-05
8.54948e-06
2.90128e-06
5.11142e-07
3.79498e-07
1.66865e-06
3.899e-06
7.72404e-06
1.41062e-05
2.43516e-05
4.00998e-05
6.3276e-05
9.60186e-05
0.000140601
0.000199353
0.000274597
0.000368576
0.00048341
0.000621041
0.0007832
0.000971377
0.0011868
0.00143043
0.00170295
0.00200478
0.00233608
0.00269676
0.00308654
0.00350499
0.00395141
0.00442561
0.00492571
0.00545093
0.00600018
0.00657216
0.00716557
0.00777902
0.00841115
0.00906054
0.00972579
0.0104056
0.0110992
0.0118064
0.0125268
0.0132605
0.0140081
0.0147701
0.0155471
0.0163395
0.0171477
0.0179722
0.0188131
0.0196709
0.0205456
0.0214372
0.0223455
0.02327
0.0242098
0.0251636
0.0261295
0.0271049
0.0280859
0.0290678
0.0300441
0.0310071
0.031947
0.0328529
0.033712
0.0345101
0.0352167
0.0357335
0.0354083
0.0336691
0.031672
0.0295754
0.0274278
0.025262
0.0231055
0.0209825
0.0189139
0.0169173
0.0150074
0.0131953
0.0114918
0.00990344
0.00843592
0.00709319
0.00587778
0.00479067
0.00383122
0.00299738
0.00228625
0.00169311
0.00121098
0.000830953
0.000542523
0.000333695
0.000191086
0.000100643
4.81631e-05
2.10977e-05
8.42624e-06
2.86116e-06
5.04228e-07
3.88221e-07
1.70712e-06
3.98772e-06
7.89599e-06
1.44128e-05
2.48699e-05
4.09405e-05
6.45892e-05
9.79969e-05
0.000143478
0.000203402
0.000280117
0.000375894
0.000492863
0.000632975
0.000797959
0.000989296
0.0012082
0.00145562
0.00173221
0.00203838
0.00237427
0.00273977
0.00313458
0.00355819
0.00400993
0.00448896
0.00499483
0.00552565
0.00608048
0.00665804
0.00725694
0.00787579
0.00851317
0.00916764
0.00983779
0.0105228
0.0112225
0.0119364
0.0126642
0.0134054
0.0141604
0.0149296
0.0157137
0.0165131
0.0173282
0.0181595
0.0190072
0.0198716
0.020753
0.0216511
0.022566
0.0234969
0.0244432
0.0254034
0.0263758
0.0273575
0.0283449
0.0293331
0.0303158
0.031285
0.0322313
0.0331436
0.0340096
0.0348151
0.0355298
0.0360545
0.035718
0.0339416
0.0319088
0.0297812
0.0276078
0.02542
0.0232447
0.0211054
0.0190226
0.0170135
0.0150921
0.0132702
0.0115571
0.0099599
0.00848408
0.00713354
0.00591078
0.0048168
0.003851
0.00301145
0.00229543
0.0016983
0.00121309
0.000830924
0.000541239
0.000331916
0.000189453
9.94396e-05
4.74456e-05
2.07638e-05
8.29437e-06
2.81819e-06
4.96821e-07
3.96715e-07
1.74458e-06
4.07403e-06
8.06312e-06
1.47105e-05
2.53729e-05
4.17564e-05
6.5864e-05
9.99181e-05
0.000146273
0.000207332
0.000285472
0.00038298
0.000501998
0.000644476
0.000812136
0.00100644
0.00122859
0.00147951
0.00175982
0.0020699
0.00240987
0.00277959
0.00317873
0.00360674
0.00406291
0.0045464
0.00505619
0.00559159
0.00615068
0.00673241
0.00733533
0.00795801
0.00859901
0.00925686
0.00993064
0.01062
0.0113247
0.0120443
0.0127785
0.0135267
0.0142887
0.0150647
0.0158554
0.0166613
0.0174828
0.0183204
0.0191743
0.0200448
0.0209321
0.0218361
0.0227567
0.0236934
0.0246453
0.0256112
0.0265891
0.0275764
0.0285694
0.0295631
0.0305513
0.0315261
0.0324781
0.0333964
0.0342688
0.0350817
0.0358048
0.0363389
0.035997
0.0341905
0.0321248
0.0299698
0.0277737
0.025567
0.0233757
0.0212226
0.0191276
0.0171075
0.0151759
0.0133451
0.0116233
0.0100178
0.00853387
0.00717557
0.00594537
0.00484432
0.0038719
0.00302634
0.00230514
0.00170375
0.00121527
0.000830838
0.000539851
0.000330057
0.000187741
9.81891e-05
4.67059e-05
2.0421e-05
8.15901e-06
2.77396e-06
4.89184e-07
4.04847e-07
1.78043e-06
4.15657e-06
8.2227e-06
1.49942e-05
2.58516e-05
4.25314e-05
6.70733e-05
0.000101738
0.000148916
0.000211042
0.000290516
0.000389638
0.000510556
0.000655215
0.000825326
0.00102234
0.00124743
0.00150149
0.00178513
0.00209869
0.00244225
0.00281567
0.00321857
0.00365039
0.00411036
0.0045976
0.00511109
0.00564961
0.00621224
0.00679712
0.00740296
0.00802828
0.00867158
0.00933177
0.0100085
0.0107013
0.01141
0.0121342
0.0128734
0.0136273
0.0143955
0.0151775
0.0159739
0.0167853
0.0176122
0.0184549
0.0193139
0.0201894
0.0210816
0.0219904
0.0229157
0.023857
0.0248135
0.0257839
0.0267664
0.0277581
0.0287556
0.0297539
0.0307467
0.0317262
0.0326832
0.0336067
0.0344851
0.0353049
0.0360361
0.0365789
0.0362376
0.0344053
0.0323113
0.0301332
0.0279184
0.0256963
0.023492
0.0213279
0.0192231
0.017194
0.0152548
0.0134161
0.0116867
0.0100738
0.00858261
0.00721712
0.00597988
0.00487202
0.00389312
0.00304158
0.00231521
0.00170952
0.00121771
0.000830945
0.000538606
0.000328305
0.000186106
9.69956e-05
4.60034e-05
2.00975e-05
8.03187e-06
2.73255e-06
4.82044e-07
4.12368e-07
1.8136e-06
4.23294e-06
8.37028e-06
1.52562e-05
2.62922e-05
4.32425e-05
6.81787e-05
0.000103395
0.000151312
0.00021439
0.000295045
0.000395587
0.000518163
0.000664711
0.000836928
0.00103624
0.00126381
0.0015205
0.00180688
0.00212328
0.00246975
0.00284611
0.00325195
0.00368668
0.00414952
0.00463953
0.00515563
0.00569665
0.00626122
0.00684802
0.00745545
0.00808197
0.00872635
0.00938816
0.010067
0.0107624
0.0114742
0.0122018
0.012945
0.0137033
0.0144763
0.0152636
0.016065
0.0168811
0.0177125
0.0185595
0.0194226
0.0203021
0.0211981
0.0221106
0.0230395
0.0239844
0.0249443
0.0259181
0.0269039
0.0278991
0.0288999
0.0299016
0.0308979
0.031881
0.0328418
0.0337697
0.0346532
0.0354793
0.0362186
0.0367711
0.0364355
0.0345806
0.0324622
0.030265
0.0280353
0.0258015
0.0235879
0.0214158
0.0193042
0.017269
0.0153237
0.013479
0.0117437
0.0101248
0.00862753
0.00725587
0.00601244
0.00489847
0.00391366
0.0030566
0.00232537
0.0017156
0.00122057
0.000831516
0.000537803
0.000326946
0.000184744
9.59844e-05
4.54083e-05
1.98252e-05
7.92582e-06
2.6983e-06
4.76169e-07
4.18727e-07
1.84174e-06
4.29807e-06
8.49667e-06
1.5481e-05
2.66699e-05
4.38496e-05
6.91167e-05
0.00010479
0.000153314
0.000217162
0.000298764
0.000400432
0.000524309
0.000672326
0.000846166
0.00104724
0.00127669
0.00153536
0.0018238
0.00214231
0.00249092
0.00286941
0.00327738
0.00371418
0.00417901
0.00467089
0.00518869
0.00573114
0.00629684
0.00688442
0.00749223
0.00811886
0.0087638
0.00942658
0.0101067
0.0108038
0.0115175
0.0122474
0.0129932
0.0137545
0.0145309
0.015322
0.0161274
0.0169471
0.0177817
0.0186318
0.0194978
0.0203799
0.0212785
0.0221936
0.0231249
0.0240721
0.0250343
0.0260103
0.0269982
0.0279955
0.0289985
0.0300024
0.0310009
0.0319865
0.0329499
0.0338809
0.0347681
0.0355993
0.0363454
0.0369059
0.0365772
0.0347058
0.0325689
0.0303579
0.0281181
0.0258769
0.0236575
0.0214808
0.0193652
0.0173265
0.0153775
0.0135291
0.0117899
0.0101667
0.00866503
0.00728872
0.00604049
0.00492165
0.00393202
0.00307039
0.00233505
0.00172174
0.00122384
0.000832677
0.000537619
0.000326116
0.000183841
9.52849e-05
4.49933e-05
1.96378e-05
7.85421e-06
2.67556e-06
4.72293e-07
4.22691e-07
1.85942e-06
4.33941e-06
8.57762e-06
1.56257e-05
2.69133e-05
4.42396e-05
6.97155e-05
0.000105674
0.000154568
0.000218883
0.000301048
0.000403377
0.000528009
0.000676869
0.000851631
0.0010537
0.0012842
0.00154396
0.00183353
0.0021532
0.00250296
0.00288262
0.00329172
0.00372961
0.00419548
0.00468831
0.00520694
0.00575004
0.00631613
0.00690359
0.00751086
0.00813731
0.0087824
0.00944557
0.0101263
0.0108242
0.0115389
0.0122699
0.013017
0.0137798
0.0145579
0.0153511
0.0161589
0.0169809
0.0178176
0.0186694
0.019537
0.0204206
0.0213206
0.0222369
0.0231693
0.0241176
0.0250809
0.0260579
0.0270469
0.0280451
0.0290491
0.0300539
0.0310534
0.03204
0.0330046
0.0339369
0.0348261
0.0356602
0.0364106
0.036976
0.036653
0.0347729
0.0326254
0.0304072
0.0281626
0.0259182
0.0236966
0.0215183
0.0194014
0.0173612
0.0154107
0.0135605
0.0118194
0.010194
0.00868975
0.00731069
0.00605954
0.00493768
0.00394503
0.00308046
0.0023424
0.0017267
0.00122682
0.000834134
0.00053805
0.000325981
0.000183504
9.49801e-05
4.48044e-05
1.95531e-05
7.82278e-06
2.66598e-06
4.70698e-07
4.22565e-07
1.85888e-06
4.33818e-06
8.57531e-06
1.56218e-05
2.69071e-05
4.423e-05
6.97009e-05
0.000105652
0.000154535
0.000218834
0.000300978
0.000403278
0.000527874
0.000676691
0.000851404
0.00105342
0.00128386
0.00154357
0.00183309
0.0021527
0.00250242
0.00288204
0.00329111
0.00372899
0.00419484
0.00468768
0.00520632
0.00574945
0.00631557
0.00690305
0.00751033
0.00813676
0.0087818
0.00944492
0.0101256
0.0108234
0.011538
0.0122689
0.0130159
0.0137786
0.0145567
0.0153498
0.0161575
0.0169795
0.0178162
0.0186681
0.0195357
0.0204193
0.0213193
0.0222356
0.0231682
0.0241165
0.0250799
0.0260571
0.0270462
0.0280446
0.0290487
0.0300538
0.0310536
0.0320404
0.0330051
0.0339376
0.0348269
0.0356612
0.0364118
0.0369782
0.036661
0.0347819
0.0326341
0.0304154
0.0281705
0.0259257
0.0237038
0.0215253
0.019408
0.0173675
0.0154167
0.0135662
0.0118246
0.0101987
0.008694
0.00731443
0.00606276
0.0049404
0.00394726
0.00308224
0.00234378
0.00172772
0.00122756
0.000834648
0.000538393
0.000326199
0.000183632
9.50508e-05
4.48401e-05
1.95693e-05
7.82949e-06
2.66833e-06
4.7112e-07
4.18408e-07
1.84038e-06
4.29502e-06
8.49097e-06
1.54712e-05
2.6654e-05
4.38246e-05
6.90781e-05
0.000104731
0.000153224
0.000217029
0.00029857
0.000400157
0.000523932
0.000671827
0.000845528
0.00104645
0.00127574
0.00153423
0.00182251
0.00214086
0.00248933
0.00286771
0.00327557
0.0037123
0.00417709
0.00466897
0.0051868
0.00572931
0.00629509
0.0068827
0.00749056
0.0081172
0.00876208
0.00942476
0.0101048
0.0108017
0.0115152
0.0122449
0.0129905
0.0137515
0.0145277
0.0153187
0.0161239
0.0169436
0.0177782
0.0186283
0.0194944
0.0203766
0.0212753
0.0221905
0.0231219
0.0240692
0.0250317
0.026008
0.0269964
0.0279942
0.0289977
0.0300022
0.0310015
0.0319877
0.0329517
0.0338831
0.0347708
0.0356026
0.0363494
0.0369133
0.0366012
0.0347327
0.0325946
0.0303824
0.0281415
0.0258992
0.0236789
0.0215013
0.0193849
0.0173452
0.0153952
0.0135456
0.0118051
0.0101806
0.00867739
0.00729955
0.00604978
0.00492945
0.0039384
0.00307545
0.00233894
0.00172463
0.00122592
0.000834117
0.000538584
0.000326743
0.000184215
9.54967e-05
4.51031e-05
1.9688e-05
7.87471e-06
2.68264e-06
4.73556e-07
4.11843e-07
1.81135e-06
4.22787e-06
8.36074e-06
1.52397e-05
2.62653e-05
4.32002e-05
6.81136e-05
0.000103296
0.000151165
0.000214175
0.000294738
0.00039516
0.000517587
0.000663957
0.000835972
0.00103507
0.0012624
0.00151884
0.00180499
0.00212117
0.00246743
0.0028436
0.00324929
0.00368391
0.00414668
0.00463666
0.00515277
0.0056938
0.0062584
0.00684525
0.00745277
0.00807932
0.00872365
0.00938532
0.0100639
0.0107591
0.0114706
0.0121979
0.0129407
0.0136987
0.0144715
0.0152586
0.0160598
0.0168759
0.0177072
0.0185543
0.0194174
0.0202969
0.0211931
0.0221058
0.0230349
0.02398
0.0249403
0.0259147
0.0269011
0.027897
0.0288988
0.0299015
0.0308989
0.0318832
0.0328449
0.0337736
0.0346577
0.0354849
0.0362256
0.0367846
0.0364745
0.0346246
0.0325052
0.0303065
0.028075
0.0258395
0.0236242
0.0214504
0.0193371
0.0173002
0.0153531
0.0135064
0.0117689
0.0101476
0.00864781
0.00727363
0.00602768
0.00491126
0.00392412
0.00306493
0.0023318
0.00172041
0.00122404
0.000833929
0.000539413
0.00032796
0.000185372
9.63389e-05
4.55886e-05
1.99071e-05
7.95949e-06
2.71001e-06
4.78258e-07
4.04151e-07
1.77744e-06
4.14982e-06
8.20992e-06
1.4972e-05
2.5815e-05
4.24736e-05
6.69847e-05
0.000101605
0.000148719
0.000210757
0.000290111
0.000389079
0.000509805
0.000654236
0.000824086
0.00102081
0.0012456
0.00149934
0.00178266
0.00209592
0.0024392
0.00281236
0.00321503
0.00364666
0.00410651
0.00459367
0.00510709
0.00564561
0.00620818
0.00679316
0.00739906
0.00802438
0.00866763
0.00932767
0.0100041
0.0106967
0.0114051
0.0121289
0.0128678
0.0136214
0.0143892
0.015171
0.0159673
0.0167786
0.0176055
0.0184483
0.0193073
0.0201829
0.0210752
0.0219843
0.0229099
0.0238516
0.0248086
0.0257797
0.026763
0.0277559
0.0287546
0.0297543
0.0307487
0.0317297
0.0326879
0.0336126
0.034492
0.0353131
0.0360462
0.036598
0.036291
0.0344673
0.032372
0.0301919
0.0279747
0.0257502
0.0235436
0.0213771
0.0192698
0.0172382
0.0152961
0.0134544
0.0117218
0.0101054
0.00861075
0.00724171
0.00600097
0.00488972
0.00390762
0.00305316
0.00232418
0.00171626
0.00122262
0.000834406
0.000540979
0.000329843
0.000187043
9.75247e-05
4.62746e-05
2.02205e-05
8.0821e-06
2.74989e-06
4.85127e-07
3.95839e-07
1.74082e-06
4.06553e-06
8.04697e-06
1.46823e-05
2.53266e-05
4.16835e-05
6.57532e-05
9.97538e-05
0.000146034
0.00020699
0.000284994
0.000382327
0.000501128
0.000643348
0.000810713
0.0010047
0.00122651
0.00147707
0.00175703
0.00206677
0.00240643
0.00277587
0.00317478
0.00360261
0.00405867
0.00454208
0.00505184
0.00558719
0.00614646
0.00672829
0.00733129
0.00795401
0.00859501
0.00925278
0.00992637
0.0106155
0.0113198
0.0120391
0.0127728
0.0135208
0.0142823
0.0150581
0.0158487
0.0166544
0.0174759
0.0183134
0.0191673
0.0200379
0.0209253
0.0218296
0.0227505
0.0236876
0.0246402
0.0256069
0.0265859
0.0275745
0.028569
0.0295645
0.0305546
0.0315312
0.032485
0.0334047
0.0342786
0.0350932
0.0358187
0.0363631
0.0360633
0.0342699
0.0322033
0.0300461
0.0278473
0.0256376
0.0234432
0.0212869
0.0191886
0.0171648
0.0152297
0.0133945
0.0116683
0.0100582
0.00856978
0.00720691
0.00597222
0.00486687
0.00389041
0.00304115
0.00231668
0.00171246
0.00122164
0.00083534
0.000542903
0.000332063
0.000188973
9.8894e-05
4.7069e-05
2.05861e-05
8.22646e-06
2.79723e-06
4.93322e-07
3.87181e-07
1.70267e-06
3.97765e-06
7.87689e-06
1.43796e-05
2.48155e-05
4.08557e-05
6.44618e-05
9.78108e-05
0.000143211
0.000203025
0.000279596
0.000375186
0.000491924
0.000631761
0.000796429
0.000987417
0.00120595
0.00145298
0.00172917
0.00203495
0.00237046
0.00273562
0.00313013
0.00355347
0.00400497
0.0044838
0.00498947
0.00552029
0.0060751
0.00665262
0.00725149
0.00787029
0.0085076
0.00916196
0.00983192
0.0105167
0.0112161
0.0119297
0.0126572
0.0133981
0.0141529
0.014922
0.015706
0.0165054
0.0173205
0.0181518
0.0189996
0.0198642
0.0207458
0.0216442
0.0225595
0.023491
0.024438
0.0253993
0.026373
0.0273562
0.0283455
0.0293358
0.0303207
0.0312922
0.0322406
0.0331549
0.0340229
0.0348309
0.035549
0.0360872
0.0358027
0.0340422
0.0320072
0.0298765
0.0276992
0.0255075
0.0233283
0.0211851
0.0190982
0.0170846
0.0151581
0.0133312
0.0116126
0.0100098
0.00852825
0.00717201
0.00594369
0.00484441
0.00387368
0.00302963
0.00230963
0.00170908
0.00122104
0.000836606
0.000545188
0.000334509
0.000191056
0.000100355
4.7917e-05
2.09778e-05
8.3816e-06
2.8482e-06
5.02151e-07
3.78325e-07
1.66363e-06
3.88768e-06
7.70263e-06
1.40692e-05
2.42914e-05
4.0007e-05
6.31385e-05
9.58207e-05
0.000140321
0.000198965
0.000274063
0.000367857
0.00048246
0.000619816
0.00078166
0.000969489
0.00118454
0.00142778
0.00169992
0.00200138
0.00233234
0.00269274
0.0030823
0.00350054
0.00394682
0.0044209
0.00492111
0.00544645
0.00599583
0.00656798
0.00716157
0.0077752
0.00840749
0.00905699
0.00972231
0.010402
0.0110955
0.0118025
0.0125226
0.0132561
0.0140035
0.0147653
0.0155421
0.0163343
0.0171423
0.0179666
0.0188075
0.0196653
0.02054
0.0214318
0.0223404
0.0232653
0.0242059
0.0251608
0.026128
0.0271051
0.0280882
0.0290724
0.0300513
0.0310168
0.0319594
0.0328678
0.0337297
0.0345314
0.035243
0.0357764
0.0355105
0.0337903
0.0317922
0.0296908
0.0275384
0.0253678
0.0232063
0.0210781
0.0190042
0.0170021
0.0150862
0.0132683
0.0115579
0.00996277
0.00848841
0.00713892
0.00591692
0.00482353
0.00385824
0.00301909
0.00230325
0.00170606
0.00122055
0.000837792
0.000547203
0.000336762
0.000193016
0.000101756
4.87426e-05
2.13622e-05
8.53432e-06
2.89839e-06
5.10847e-07
3.6937e-07
1.62416e-06
3.79669e-06
7.52637e-06
1.37554e-05
2.3762e-05
3.91512e-05
6.18067e-05
9.38218e-05
0.000137423
0.000194896
0.000268521
0.000360512
0.000472965
0.000607813
0.000766786
0.000951383
0.00116285
0.00140217
0.00167006
0.00196696
0.00229308
0.00264838
0.00303259
0.00344525
0.00388637
0.00435435
0.00484833
0.00536741
0.00591047
0.00647626
0.00706348
0.00767077
0.00829676
0.00894004