/*--------------------------------*- C++ -*----------------------------------*\
  =========                 |
  \\      /  F ield         | OpenFOAM: The Open Source CFD Toolbox
   \\    /   O peration     | Website:  https://openfoam.org
    \\  /    A nd           | Version:  8
     \\/     M anipulation  |
\*---------------------------------------------------------------------------*/
FoamFile
{
    version     2.0;
    format      ascii;
    class       volScalarField;
    location    "20/fluid";
    object      N2;
}
// * * * * * * * * * * * * * * * * * * * * * * * * * * * * * * * * * * * * * //

dimensions      [0 0 0 0 0 0 0];

internalField   nonuniform List<scalar> 
4000
(
0.00312939
0.0131095
0.027711
0.0472846
0.0714479
0.0992288
0.129428
0.160993
0.193077
0.225062
0.256526
0.287201
0.316928
0.345623
0.373255
0.399828
0.425366
0.449898
0.473459
0.496098
0.517838
0.538829
0.55906
0.578537
0.597275
0.615288
0.632593
0.649206
0.665145
0.680429
0.695074
0.7091
0.722523
0.735363
0.747636
0.759359
0.770548
0.78122
0.791389
0.80107
0.810276
0.819018
0.827303
0.835139
0.842534
0.849497
0.856037
0.862165
0.86789
0.873225
0.878179
0.882764
0.886992
0.890875
0.894423
0.89765
0.900568
0.903191
0.90553
0.907601
0.909419
0.910999
0.912356
0.913504
0.914456
0.915225
0.91576
0.915597
0.914114
0.911873
0.909414
0.906824
0.904128
0.901321
0.898385
0.895299
0.89204
0.888583
0.884907
0.88099
0.876814
0.872362
0.86762
0.862577
0.857223
0.851553
0.845565
0.83926
0.83265
0.825755
0.818613
0.811286
0.80387
0.796523
0.789481
0.783077
0.777801
0.773996
0.771604
0.770304
0.00288247
0.0120828
0.0255723
0.0437564
0.0664152
0.0928306
0.122036
0.152993
0.184795
0.216752
0.248379
0.279351
0.30946
0.338589
0.366679
0.393715
0.419714
0.444684
0.468615
0.491737
0.513998
0.535377
0.555924
0.57567
0.594643
0.612867
0.630363
0.647152
0.663255
0.678691
0.693478
0.707637
0.721185
0.734142
0.746525
0.758353
0.769642
0.780409
0.790671
0.800444
0.809739
0.818564
0.826924
0.834829
0.842286
0.849306
0.855896
0.862069
0.867835
0.873203
0.878186
0.882794
0.887038
0.890931
0.894484
0.897709
0.900619
0.903226
0.905545
0.90759
0.909376
0.91092
0.912239
0.913352
0.914275
0.91503
0.915568
0.915361
0.913789
0.911493
0.908993
0.906378
0.903657
0.900818
0.897849
0.894727
0.891421
0.887908
0.884165
0.880169
0.875902
0.871347
0.866491
0.861323
0.855834
0.850023
0.843894
0.837456
0.830726
0.823734
0.816529
0.809185
0.801821
0.794616
0.78783
0.781811
0.776973
0.773545
0.771417
0.770268
0.00270191
0.0113249
0.0239869
0.0411363
0.0626673
0.0879059
0.115948
0.145864
0.176849
0.208251
0.239569
0.270446
0.300637
0.32999
0.358415
0.38587
0.41234
0.437864
0.462499
0.486067
0.508697
0.530473
0.551404
0.57151
0.590816
0.609346
0.627127
0.644183
0.660535
0.676206
0.691215
0.705583
0.719329
0.732472
0.745031
0.757023
0.768468
0.779384
0.78979
0.7997
0.809122
0.818062
0.826525
0.834521
0.842059
0.849148
0.855798
0.862022
0.86783
0.873232
0.878243
0.882871
0.887131
0.891033
0.89459
0.897814
0.900718
0.903316
0.905621
0.907648
0.909414
0.910933
0.912221
0.913295
0.914169
0.914856
0.915302
0.914944
0.913237
0.910916
0.908406
0.905777
0.903038
0.900177
0.897164
0.89397
0.890591
0.886995
0.883156
0.879058
0.87468
0.870006
0.865023
0.859726
0.85411
0.84818
0.841943
0.835419
0.828641
0.821649
0.814505
0.80729
0.800125
0.79318
0.786695
0.780982
0.776436
0.773253
0.771297
0.770246
0.0025598
0.0107457
0.0228005
0.0391289
0.0596719
0.0838485
0.110856
0.139853
0.170067
0.200817
0.231615
0.262127
0.29211
0.321395
0.349866
0.377461
0.404156
0.429982
0.454907
0.478944
0.502106
0.524308
0.54561
0.566056
0.585681
0.604516
0.622588
0.639923
0.656546
0.672477
0.687739
0.702352
0.716335
0.729707
0.742487
0.754694
0.766346
0.777464
0.788068
0.79817
0.807771
0.816877
0.825495
0.833632
0.841297
0.848501
0.855254
0.861568
0.867454
0.872925
0.877992
0.882667
0.886963
0.890892
0.894467
0.8977
0.900605
0.903196
0.905487
0.907494
0.909232
0.91072
0.911974
0.913011
0.913846
0.914491
0.914872
0.914365
0.912498
0.91013
0.907574
0.904909
0.902129
0.899218
0.896153
0.892911
0.889447
0.885761
0.881836
0.877639
0.873156
0.868378
0.863296
0.857902
0.852201
0.846203
0.839923
0.833385
0.826624
0.819688
0.812641
0.80557
0.798595
0.791883
0.785667
0.780242
0.775968
0.773005
0.771195
0.770226
0.00241376
0.0101324
0.0215279
0.0371424
0.0569096
0.0803512
0.106628
0.134769
0.164227
0.194357
0.224682
0.25486
0.284642
0.313848
0.342335
0.370032
0.396914
0.422958
0.447962
0.472188
0.495491
0.517904
0.539455
0.560167
0.580056
0.599159
0.617508
0.635126
0.652031
0.668244
0.683783
0.698666
0.71291
0.726533
0.739555
0.751995
0.763873
0.775211
0.786028
0.796331
0.806121
0.815403
0.824183
0.832467
0.840266
0.84759
0.854451
0.86086
0.86683
0.872372
0.877501
0.882228
0.886567
0.890529
0.894129
0.897379
0.900293
0.902885
0.905171
0.907165
0.908887
0.910354
0.911584
0.912591
0.913393
0.913998
0.914309
0.913646
0.911645
0.909234
0.90665
0.903937
0.901107
0.898143
0.895018
0.891709
0.888194
0.884433
0.880399
0.876115
0.87155
0.866684
0.861521
0.856059
0.850301
0.844261
0.837961
0.83143
0.824707
0.817844
0.810906
0.803983
0.797193
0.790704
0.78474
0.779581
0.775551
0.772783
0.771105
0.770209
0.00228431
0.00959032
0.0203773
0.0351344
0.0539161
0.0763409
0.10174
0.129413
0.158381
0.188087
0.218068
0.247964
0.277548
0.306719
0.33507
0.36259
0.389238
0.414953
0.43994
0.46417
0.48764
0.510301
0.532159
0.553224
0.573516
0.593031
0.611775
0.629758
0.646993
0.663484
0.679314
0.694485
0.70901
0.722904
0.736188
0.748881
0.761004
0.77258
0.783627
0.794149
0.804146
0.81362
0.822578
0.831026
0.838975
0.846435
0.853418
0.859935
0.866
0.871626
0.876825
0.881612
0.886
0.890003
0.893631
0.896899
0.89982
0.902415
0.904699
0.906688
0.9084
0.909851
0.91106
0.912043
0.912815
0.913386
0.91363
0.912816
0.910704
0.908249
0.905629
0.902886
0.900001
0.896974
0.893786
0.890409
0.886818
0.88299
0.87891
0.874535
0.869899
0.86497
0.859745
0.854233
0.848443
0.842389
0.836094
0.82959
0.822919
0.816134
0.809304
0.80252
0.795906
0.789626
0.7839
0.778988
0.775185
0.772591
0.771027
0.770194
0.00217322
0.00913539
0.0194481
0.033609
0.0517038
0.0733876
0.0980181
0.124833
0.153097
0.182195
0.211637
0.241039
0.270097
0.298546
0.326562
0.353983
0.380713
0.406701
0.431958
0.456225
0.479859
0.502747
0.524853
0.546185
0.566749
0.586553
0.605604
0.623914
0.641503
0.658403
0.674567
0.690035
0.704838
0.718999
0.732539
0.745481
0.757846
0.769657
0.78093
0.791669
0.801871
0.811537
0.820674
0.829288
0.837389
0.844987
0.852095
0.858725
0.864891
0.870605
0.875882
0.880734
0.885175
0.889219
0.892885
0.896188
0.899142
0.901758
0.904049
0.90604
0.907747
0.909191
0.910389
0.911357
0.912112
0.912661
0.912853
0.911917
0.909711
0.907211
0.904554
0.901773
0.898859
0.895784
0.892534
0.889089
0.885432
0.88154
0.877397
0.87299
0.868281
0.863297
0.858034
0.852493
0.846686
0.84063
0.834349
0.827872
0.821251
0.814544
0.807823
0.801179
0.794733
0.788651
0.783142
0.778455
0.77486
0.772425
0.77096
0.770182
0.00205611
0.00863754
0.0183733
0.0317492
0.0488879
0.0695212
0.0930986
0.118944
0.146385
0.174826
0.203776
0.232852
0.261765
0.290309
0.318352
0.3458
0.372586
0.398664
0.424012
0.448628
0.472313
0.495361
0.517677
0.539235
0.56004
0.580098
0.599417
0.618004
0.635873
0.653032
0.669489
0.685256
0.700352
0.714797
0.728612
0.741818
0.754438
0.766496
0.778007
0.788973
0.799389
0.809256
0.81858
0.827366
0.835625
0.843368
0.850605
0.857352
0.863621
0.869426
0.874782
0.879705
0.884208
0.888307
0.892018
0.895355
0.898334
0.900971
0.903283
0.905284
0.906992
0.90843
0.909619
0.910576
0.911317
0.91185
0.911998
0.910952
0.908674
0.906134
0.903443
0.900624
0.89767
0.894565
0.891279
0.887789
0.884069
0.880115
0.875908
0.871434
0.866686
0.861665
0.856372
0.850812
0.844998
0.83895
0.832691
0.826255
0.819705
0.81309
0.806481
0.799973
0.793686
0.787781
0.782463
0.777972
0.774559
0.772267
0.770897
0.770169
0.00195476
0.00821505
0.0174861
0.0302516
0.0466608
0.0664924
0.0892481
0.114299
0.14101
0.168809
0.197222
0.225872
0.254468
0.282796
0.310701
0.338074
0.364842
0.390953
0.416373
0.441081
0.465076
0.488193
0.510677
0.532449
0.55348
0.573774
0.593334
0.612168
0.630284
0.647691
0.6644
0.680425
0.695781
0.710486
0.724557
0.738015
0.750881
0.763178
0.77492
0.786106
0.79673
0.806794
0.816301
0.825258
0.833674
0.841561
0.848931
0.855798
0.862175
0.868078
0.873522
0.878521
0.883091
0.887248
0.891007
0.894384
0.897396
0.900059
0.90239
0.904409
0.906135
0.907583
0.908772
0.909724
0.910459
0.910984
0.911109
0.909971
0.907634
0.90505
0.902321
0.899462
0.896464
0.893311
0.88998
0.886453
0.882712
0.878729
0.874492
0.869992
0.865218
0.860165
0.85485
0.849277
0.843462
0.837428
0.831206
0.824837
0.81835
0.811802
0.805272
0.798869
0.792726
0.786994
0.781852
0.777544
0.774301
0.772135
0.770844
0.770159
0.00186151
0.00782518
0.0166645
0.0288595
0.0445855
0.063668
0.085661
0.109979
0.136017
0.163221
0.191126
0.219356
0.24762
0.275699
0.303431
0.3307
0.357423
0.383541
0.409016
0.433817
0.457926
0.481339
0.503921
0.525863
0.547108
0.567628
0.587426
0.606503
0.624867
0.642525
0.659486
0.675763
0.691369
0.706322
0.720637
0.734333
0.747431
0.759954
0.771914
0.783308
0.794129
0.804377
0.814057
0.823174
0.831739
0.839762
0.847256
0.854235
0.860713
0.866707
0.872231
0.877301
0.881933
0.886143
0.889947
0.893362
0.896405
0.899093
0.901445
0.903478
0.905215
0.906673
0.907875
0.908833
0.909566
0.910086
0.910199
0.90899
0.9066
0.903974
0.901204
0.898302
0.895261
0.892064
0.888689
0.885116
0.881325
0.877299
0.873026
0.868496
0.863706
0.858657
0.853339
0.847769
0.841968
0.835966
0.829765
0.823411
0.816956
0.810467
0.804017
0.797689
0.791666
0.786118
0.781195
0.77709
0.774025
0.771993
0.770787
0.770149
0.00177225
0.00745201
0.0158776
0.0275247
0.0425925
0.0609521
0.0822087
0.105821
0.131211
0.157845
0.185263
0.213091
0.241035
0.26887
0.296431
0.323592
0.350265
0.376385
0.401907
0.426797
0.451028
0.474581
0.497451
0.519524
0.540951
0.561689
0.581713
0.601024
0.619627
0.637526
0.654729
0.671247
0.687092
0.70228
0.716825
0.730746
0.744062
0.756796
0.768959
0.780545
0.791549
0.801969
0.811808
0.821075
0.829778
0.837928
0.845539
0.852625
0.8592
0.865281
0.870884
0.876024
0.880717
0.884981
0.888833
0.892288
0.895365
0.898081
0.900456
0.902509
0.90426
0.905731
0.906941
0.907909
0.908652
0.909175
0.909283
0.908021
0.905588
0.902924
0.900116
0.897178
0.894099
0.890866
0.887456
0.883848
0.880023
0.875966
0.871663
0.867095
0.862277
0.857191
0.851845
0.846247
0.840414
0.834364
0.828161
0.821841
0.815452
0.809059
0.802743
0.796608
0.790737
0.785347
0.780603
0.776685
0.773782
0.771869
0.770738
0.770139
0.00168637
0.00709283
0.0151198
0.0262378
0.0406678
0.0583247
0.0788638
0.101787
0.126547
0.152628
0.179574
0.207015
0.234652
0.262256
0.289654
0.316716
0.343345
0.369472
0.395044
0.420022
0.444375
0.468078
0.491113
0.513471
0.535058
0.555991
0.576239
0.59578
0.614616
0.632751
0.650191
0.666945
0.683023
0.698438
0.713206
0.727343
0.740869
0.753803
0.766157
0.777924
0.789097
0.799676
0.809664
0.819067
0.827897
0.836164
0.843882
0.851065
0.857729
0.863889
0.869563
0.874767
0.879517
0.88383
0.887725
0.891217
0.894326
0.897069
0.899467
0.901539
0.903306
0.90479
0.906012
0.906989
0.90774
0.908273
0.908383
0.907083
0.904609
0.90191
0.899068
0.896097
0.892987
0.88972
0.886271
0.88262
0.878748
0.874638
0.870275
0.865671
0.860796
0.855667
0.850291
0.844678
0.83885
0.832835
0.82667
0.8204
0.81408
0.807774
0.801564
0.795548
0.789856
0.784621
0.780048
0.776308
0.773558
0.771755
0.770692
0.770131
0.0016037
0.00674705
0.0143898
0.0249966
0.0388083
0.0557813
0.0756201
0.0978697
0.122015
0.147555
0.174046
0.201113
0.228457
0.255844
0.283091
0.310065
0.336661
0.362803
0.388432
0.413502
0.43798
0.461836
0.485046
0.50759
0.529459
0.550575
0.571029
0.590795
0.609859
0.628223
0.645892
0.662873
0.679175
0.694811
0.709793
0.724137
0.737861
0.750984
0.763512
0.775442
0.786769
0.797491
0.807612
0.81714
0.826085
0.834459
0.842275
0.849548
0.856294
0.862529
0.868269
0.873533
0.878337
0.882698
0.886634
0.890163
0.893304
0.896074
0.898495
0.900587
0.902371
0.903869
0.905103
0.906091
0.906851
0.907389
0.907502
0.906181
0.903673
0.900942
0.898072
0.895065
0.891912
0.888595
0.885099
0.881403
0.877487
0.873337
0.868942
0.864299
0.8594
0.854252
0.848862
0.843245
0.837423
0.831426
0.825289
0.819059
0.812793
0.806558
0.800436
0.794528
0.788952
0.783894
0.779499
0.775934
0.773336
0.771643
0.770648
0.770122
0.00152445
0.00641541
0.0136892
0.023804
0.0370185
0.0533283
0.0724858
0.0940793
0.117625
0.142641
0.16869
0.1954
0.222467
0.249651
0.276764
0.303662
0.330237
0.356405
0.382099
0.40727
0.431877
0.455886
0.47927
0.502008
0.524079
0.545473
0.566127
0.586111
0.605401
0.623992
0.641887
0.659091
0.675614
0.691465
0.706658
0.721208
0.735131
0.748432
0.761114
0.773184
0.784643
0.79549
0.805728
0.815365
0.824411
0.832878
0.840781
0.848133
0.854951
0.861252
0.867052
0.872369
0.877221
0.881625
0.885599
0.889161
0.892331
0.895127
0.89757
0.899681
0.901482
0.902995
0.904242
0.905243
0.906013
0.906561
0.906685
0.905346
0.902807
0.900039
0.897125
0.894076
0.890884
0.887532
0.884
0.880267
0.876317
0.872135
0.867717
0.86304
0.858113
0.852942
0.847536
0.841911
0.836088
0.830099
0.823982
0.817785
0.811566
0.805396
0.799363
0.793572
0.788151
0.78323
0.778995
0.775588
0.77313
0.771539
0.770606
0.770115
0.00144908
0.00609992
0.0130224
0.0226675
0.0353096
0.0509813
0.0694813
0.0904407
0.113408
0.137919
0.163546
0.189917
0.216726
0.243726
0.270721
0.297562
0.324131
0.350337
0.376109
0.401391
0.426135
0.450304
0.473865
0.496794
0.519069
0.540671
0.56159
0.581778
0.601288
0.620099
0.638213
0.655634
0.67237
0.688432
0.703831
0.718582
0.73269
0.746152
0.758974
0.771162
0.78273
0.793682
0.804019
0.813749
0.822883
0.831431
0.839409
0.846831
0.853713
0.860072
0.865926
0.871291
0.876186
0.880628
0.884637
0.88823
0.891426
0.894246
0.89671
0.89884
0.900657
0.902185
0.903446
0.90446
0.905243
0.905803
0.905939
0.90459
0.902021
0.899212
0.896261
0.893176
0.889948
0.886561
0.882994
0.879228
0.875245
0.871032
0.866575
0.86187
0.856918
0.851725
0.8463
0.840662
0.834833
0.828846
0.822742
0.816569
0.810389
0.804277
0.798322
0.79263
0.787328
0.782564
0.778495
0.775252
0.772935
0.771441
0.770568
0.770107
0.00137846
0.00580418
0.0123968
0.0215997
0.0337013
0.048768
0.0666427
0.0869985
0.109415
0.133449
0.15868
0.184738
0.211313
0.238151
0.265049
0.29185
0.318429
0.344689
0.37055
0.39595
0.420838
0.445171
0.468912
0.492031
0.514505
0.536314
0.557441
0.577878
0.597589
0.616614
0.634939
0.652569
0.669511
0.685777
0.701377
0.716315
0.730587
0.744191
0.757135
0.769427
0.781082
0.792116
0.802532
0.812338
0.821543
0.830158
0.838199
0.845678
0.852614
0.859022
0.864921
0.870327
0.875259
0.879735
0.883774
0.887393
0.890614
0.893455
0.895938
0.898085
0.899918
0.901461
0.902735
0.903762
0.904558
0.905129
0.905278
0.903919
0.901324
0.898481
0.895494
0.892375
0.889112
0.885692
0.882091
0.878292
0.874276
0.870032
0.865541
0.860806
0.855826
0.850608
0.845162
0.839507
0.833667
0.827676
0.821576
0.81542
0.809272
0.803209
0.797323
0.791726
0.786544
0.781927
0.778017
0.774931
0.772747
0.771347
0.770531
0.7701
0.00131399
0.00553402
0.0118247
0.0206217
0.0322251
0.0467324
0.0640277
0.0838242
0.105733
0.129328
0.1542
0.179978
0.206348
0.233051
0.259876
0.286658
0.313263
0.339588
0.365546
0.391071
0.416104
0.440599
0.464514
0.487818
0.510483
0.532486
0.553811
0.574445
0.594381
0.613599
0.632122
0.649949
0.667087
0.683547
0.699331
0.71443
0.72884
0.742566
0.755612
0.767993
0.779721
0.790813
0.801288
0.811151
0.820411
0.829079
0.837169
0.844695
0.851674
0.858123
0.864059
0.869499
0.874462
0.878966
0.88303
0.886672
0.889913
0.892773
0.895273
0.897434
0.899282
0.900838
0.902126
0.903165
0.903973
0.904556
0.904715
0.903358
0.900738
0.897861
0.894841
0.891688
0.888394
0.884941
0.881309
0.877479
0.873433
0.869153
0.864633
0.859868
0.854861
0.849617
0.844147
0.838471
0.832615
0.826614
0.820513
0.814366
0.808241
0.802219
0.796396
0.790884
0.785811
0.781332
0.777573
0.774635
0.772575
0.771262
0.770497
0.770094
0.00125796
0.00529889
0.0113259
0.019767
0.0309321
0.044946
0.0617303
0.0810351
0.1025
0.125717
0.150283
0.17583
0.202037
0.228639
0.255417
0.282199
0.308844
0.335241
0.361299
0.386944
0.412114
0.436759
0.460835
0.484305
0.507141
0.529318
0.550818
0.571627
0.591738
0.611145
0.629847
0.647852
0.66517
0.681803
0.697737
0.712966
0.727489
0.74131
0.754439
0.766888
0.778672
0.78981
0.80032
0.81022
0.819517
0.828222
0.836347
0.843908
0.85092
0.857399
0.863363
0.868829
0.873816
0.878343
0.882427
0.886088
0.889345
0.89222
0.894733
0.896908
0.898768
0.900336
0.901636
0.902688
0.903509
0.904105
0.904278
0.902925
0.90028
0.897371
0.89432
0.891136
0.887812
0.884331
0.880671
0.876811
0.872735
0.868428
0.86388
0.859089
0.854056
0.848785
0.84329
0.837592
0.831717
0.825701
0.819592
0.813447
0.807336
0.801344
0.795573
0.790139
0.785173
0.780807
0.777179
0.774373
0.772423
0.771186
0.770467
0.770088
0.00121406
0.00511411
0.0109321
0.0190889
0.0299015
0.0435178
0.0598911
0.0788034
0.0999187
0.122844
0.147182
0.172561
0.198658
0.225199
0.25196
0.27876
0.305452
0.33192
0.358068
0.383818
0.409104
0.433873
0.458079
0.481684
0.504656
0.526971
0.54861
0.56956
0.589812
0.609365
0.628213
0.646368
0.663833
0.680591
0.696634
0.711955
0.726558
0.740447
0.753633
0.766129
0.777952
0.78912
0.799652
0.809568
0.818885
0.827612
0.83576
0.843344
0.850377
0.856877
0.862861
0.868346
0.87335
0.877892
0.881991
0.885665
0.888934
0.89182
0.894344
0.896528
0.898397
0.899975
0.901284
0.902347
0.90318
0.903789
0.903974
0.902628
0.899963
0.897026
0.893949
0.890742
0.887395
0.88389
0.880207
0.876326
0.872226
0.867896
0.863327
0.858513
0.853455
0.848162
0.842644
0.836923
0.831027
0.824993
0.81887
0.812717
0.806609
0.800634
0.794897
0.789519
0.784632
0.780372
0.776858
0.774161
0.772301
0.771126
0.770444
0.770084
0.00118887
0.00500762
0.0107036
0.0186927
0.0292961
0.0426756
0.0588048
0.0774861
0.098399
0.121159
0.145372
0.170665
0.196709
0.223227
0.249989
0.276809
0.303537
0.330052
0.356256
0.38207
0.407425
0.432266
0.456546
0.480227
0.503276
0.525669
0.547387
0.568416
0.588749
0.608385
0.627329
0.645585
0.663133
0.679962
0.696062
0.711433
0.726077
0.740001
0.753217
0.765738
0.77758
0.788762
0.799302
0.809223
0.818544
0.827279
0.835436
0.84303
0.850075
0.856586
0.862581
0.868076
0.87309
0.87764
0.881747
0.885429
0.888705
0.891597
0.894127
0.896317
0.898191
0.899775
0.901091
0.902162
0.903003
0.903621
0.903815
0.902474
0.899798
0.896846
0.893753
0.890532
0.887171
0.883653
0.879957
0.876062
0.871949
0.867606
0.863022
0.858194
0.853122
0.847813
0.842279
0.836542
0.83063
0.824582
0.818446
0.812284
0.806171
0.8002
0.79448
0.789133
0.784294
0.780097
0.776655
0.774028
0.772226
0.771089
0.77043
0.770081
0.00118897
0.00500809
0.0107046
0.0186943
0.029298
0.0426773
0.058806
0.0774866
0.0983992
0.12116
0.145375
0.17067
0.196718
0.22324
0.250005
0.276828
0.303557
0.330073
0.356276
0.382087
0.407439
0.432277
0.456553
0.48023
0.503275
0.525663
0.547376
0.568401
0.588731
0.608364
0.627306
0.64556
0.663107
0.679935
0.696036
0.711408
0.726052
0.739978
0.753195
0.765717
0.777561
0.788744
0.799286
0.809207
0.818529
0.827263
0.835421
0.843016
0.85006
0.856572
0.862566
0.868062
0.873076
0.877627
0.881734
0.885416
0.888693
0.891586
0.894115
0.896306
0.898181
0.899765
0.901083
0.902154
0.902997
0.903617
0.903813
0.90248
0.899806
0.896854
0.893762
0.89054
0.88718
0.883662
0.879966
0.87607
0.871958
0.867614
0.863031
0.858202
0.85313
0.847821
0.842287
0.83655
0.830637
0.824588
0.81845
0.812286
0.806172
0.800199
0.794477
0.789129
0.78429
0.780093
0.776652
0.774026
0.772224
0.771089
0.770429
0.770081
0.00121436
0.00511554
0.0109352
0.0190937
0.0299074
0.0435236
0.0598958
0.0788072
0.0999232
0.122852
0.147197
0.172586
0.198694
0.225247
0.252018
0.278825
0.305521
0.331989
0.358133
0.383876
0.409154
0.433912
0.458106
0.481699
0.504659
0.526962
0.548589
0.569527
0.589769
0.609313
0.628155
0.646304
0.663765
0.680521
0.696563
0.711884
0.726488
0.740379
0.753568
0.766068
0.777893
0.789063
0.799597
0.809515
0.818834
0.827561
0.83571
0.843294
0.850329
0.85683
0.862815
0.868302
0.873308
0.877851
0.881951
0.885627
0.888898
0.891785
0.89431
0.896495
0.898366
0.899946
0.901258
0.902324
0.903162
0.903775
0.90397
0.902646
0.899985
0.897049
0.893973
0.890766
0.88742
0.883916
0.880233
0.876351
0.872251
0.86792
0.86335
0.858536
0.853478
0.848182
0.842663
0.836939
0.83104
0.825002
0.818873
0.812714
0.806599
0.800618
0.794878
0.789499
0.784618
0.780359
0.776852
0.774159
0.772301
0.771126
0.770444
0.770084
0.00125847
0.00530121
0.0113308
0.0197744
0.0309407
0.0449538
0.0617358
0.0810383
0.102503
0.125724
0.1503
0.175858
0.20208
0.228696
0.255488
0.282278
0.308928
0.335324
0.361377
0.387012
0.41217
0.4368
0.460859
0.484312
0.50713
0.52929
0.550773
0.571567
0.591664
0.611059
0.62975
0.647746
0.665056
0.681685
0.697617
0.712846
0.727371
0.741196
0.754329
0.766782
0.778571
0.789712
0.800226
0.810128
0.819427
0.828134
0.836261
0.843824
0.850838
0.857319
0.863286
0.868755
0.873745
0.878275
0.882361
0.886025
0.889285
0.892162
0.894677
0.896854
0.898717
0.900288
0.901593
0.90265
0.903477
0.904079
0.904269
0.902953
0.900314
0.897406
0.894356
0.891174
0.887851
0.88437
0.88071
0.876852
0.872774
0.868466
0.863918
0.859126
0.854091
0.848819
0.843322
0.837619
0.83174
0.825718
0.819602
0.813448
0.807329
0.80133
0.795554
0.790116
0.785147
0.780794
0.777174
0.774372
0.772424
0.771187
0.770468
0.770088
0.0013148
0.00553756
0.011832
0.0206326
0.0322377
0.046744
0.0640362
0.0838293
0.105737
0.129337
0.154218
0.180012
0.2064
0.233121
0.259962
0.286755
0.313366
0.339689
0.365641
0.391153
0.41617
0.440645
0.46454
0.487821
0.510463
0.532444
0.553747
0.57436
0.594277
0.61348
0.631986
0.6498
0.666929
0.683382
0.699163
0.714261
0.728674
0.742402
0.755453
0.767839
0.779572
0.790669
0.801148
0.811015
0.820278
0.828949
0.837042
0.844571
0.851554
0.858007
0.863946
0.869391
0.874358
0.878867
0.882935
0.886581
0.889826
0.892689
0.895192
0.897357
0.899208
0.900769
0.902063
0.90311
0.903927
0.904518
0.904701
0.903394
0.900782
0.897907
0.894888
0.891738
0.888444
0.884992
0.88136
0.87753
0.873483
0.869202
0.864681
0.859916
0.854907
0.849661
0.844187
0.838507
0.832644
0.826636
0.820526
0.814369
0.808235
0.802206
0.796381
0.790876
0.785801
0.781328
0.777572
0.774639
0.772578
0.771264
0.770498
0.770094
0.00137975
0.00580968
0.0124078
0.0216157
0.0337196
0.0487845
0.0666539
0.0870033
0.109416
0.133452
0.158691
0.184765
0.211359
0.238216
0.265133
0.291948
0.318533
0.344792
0.370646
0.396033
0.420902
0.445212
0.468928
0.492021
0.514468
0.536249
0.557351
0.577763
0.597455
0.616455
0.634762
0.652376
0.669306
0.685562
0.701157
0.716094
0.730365
0.743972
0.75692
0.769217
0.780878
0.791917
0.802339
0.81215
0.821359
0.82998
0.838025
0.84551
0.852451
0.858866
0.86477
0.870183
0.875121
0.879603
0.883648
0.887273
0.890499
0.893345
0.895832
0.897983
0.899822
0.901371
0.902653
0.903689
0.904495
0.905075
0.905251
0.903955
0.901374
0.898535
0.895551
0.892434
0.889174
0.885754
0.882154
0.878355
0.874339
0.870092
0.865602
0.860867
0.855886
0.850665
0.845215
0.839553
0.833706
0.827705
0.821594
0.815425
0.809264
0.803189
0.797293
0.791683
0.786518
0.78191
0.778013
0.774935
0.772753
0.771352
0.770533
0.770101
0.00145083
0.00610729
0.0130368
0.022688
0.0353325
0.0510009
0.0694927
0.090442
0.113401
0.137911
0.163546
0.189932
0.216762
0.243784
0.2708
0.297656
0.324233
0.350439
0.376204
0.40147
0.426193
0.450336
0.473869
0.496768
0.51901
0.540582
0.561471
0.581634
0.601113
0.6199
0.637991
0.655394
0.672114
0.688164
0.703555
0.718302
0.732408
0.745872
0.758696
0.770889
0.782463
0.793421
0.803764
0.813501
0.822641
0.831196
0.839181
0.84661
0.853501
0.859868
0.86573
0.871104
0.876007
0.880458
0.884474
0.888074
0.891278
0.894104
0.896575
0.89871
0.900535
0.902071
0.903342
0.904367
0.905162
0.905734
0.905903
0.904627
0.902077
0.899275
0.896327
0.893246
0.890021
0.886635
0.883069
0.879303
0.875319
0.871108
0.86665
0.861943
0.85699
0.851793
0.846364
0.840719
0.834881
0.828883
0.822765
0.816578
0.810385
0.804262
0.798303
0.79262
0.787307
0.782556
0.778494
0.77526
0.772943
0.771447
0.770571
0.770108
0.00152668
0.00642466
0.0137071
0.023829
0.0370454
0.05335
0.072496
0.0940753
0.11761
0.142621
0.168675
0.1954
0.222489
0.249697
0.276832
0.303748
0.330332
0.3565
0.382185
0.407339
0.431922
0.455901
0.479252
0.501953
0.523988
0.545346
0.565968
0.585915
0.605173
0.623735
0.641604
0.658786
0.675289
0.691125
0.706307
0.72085
0.73477
0.748072
0.760757
0.772832
0.784297
0.795151
0.805397
0.815043
0.824099
0.832576
0.840489
0.847852
0.854681
0.860994
0.866805
0.872134
0.876997
0.881412
0.885396
0.888968
0.892147
0.894952
0.897403
0.899522
0.901332
0.902855
0.904114
0.905127
0.905912
0.906474
0.906636
0.905383
0.902865
0.900101
0.897196
0.894154
0.890965
0.887617
0.884087
0.880356
0.876407
0.872224
0.867801
0.863127
0.8582
0.853026
0.847614
0.841981
0.836148
0.830146
0.824013
0.817799
0.811562
0.805375
0.799324
0.79351
0.788101
0.783203
0.778987
0.775595
0.773141
0.771547
0.77061
0.770115
0.00160642
0.00675822
0.014411
0.0250258
0.038839
0.0558046
0.0756283
0.0978593
0.121989
0.147521
0.174014
0.201096
0.228462
0.255873
0.283145
0.310136
0.336742
0.362884
0.388502
0.413552
0.438
0.46182
0.484989
0.507493
0.52932
0.550398
0.570809
0.590536
0.609565
0.627896
0.645535
0.66249
0.67877
0.694388
0.709357
0.723693
0.737413
0.750536
0.763068
0.775003
0.786337
0.797067
0.807199
0.816738
0.825695
0.834081
0.841911
0.849198
0.855958
0.862208
0.867963
0.873242
0.87806
0.882434
0.886384
0.889925
0.893078
0.895859
0.898291
0.900393
0.902189
0.9037
0.904947
0.905952
0.906728
0.907284
0.90744
0.906218
0.903733
0.901005
0.898134
0.895133
0.891989
0.888682
0.885193
0.881498
0.877586
0.873442
0.869057
0.86441
0.859508
0.854354
0.848958
0.843332
0.837499
0.831487
0.825334
0.819085
0.8128
0.806548
0.800415
0.794503
0.788949
0.783894
0.779511
0.775952
0.773353
0.771654
0.770653
0.770123
0.00168957
0.00710592
0.0151444
0.026271
0.0407017
0.0583488
0.0788688
0.101768
0.126508
0.152577
0.179524
0.206977
0.234635
0.262265
0.289687
0.316767
0.343406
0.369532
0.395092
0.420047
0.444368
0.468031
0.491022
0.513331
0.53487
0.555748
0.575945
0.595439
0.614232
0.632327
0.649731
0.666453
0.682506
0.697901
0.712654
0.726781
0.740301
0.753236
0.765593
0.777366
0.788549
0.799139
0.809141
0.81856
0.827406
0.83569
0.843427
0.850629
0.857312
0.863493
0.869186
0.874409
0.879178
0.883509
0.887421
0.89093
0.894054
0.896812
0.899223
0.901308
0.903089
0.904588
0.905825
0.90682
0.907588
0.908133
0.908289
0.907103
0.904657
0.901969
0.899136
0.896169
0.893062
0.889796
0.886352
0.88271
0.878845
0.874741
0.870386
0.865781
0.860908
0.85578
0.850403
0.844788
0.838955
0.832929
0.826748
0.820458
0.814116
0.80779
0.801566
0.795555
0.78983
0.784614
0.780055
0.776323
0.773572
0.771765
0.770697
0.770132
0.00177593
0.0074669
0.0159053
0.0275615
0.0426288
0.0609758
0.0822089
0.105792
0.131156
0.157774
0.185188
0.213025
0.240989
0.268849
0.296433
0.323612
0.350293
0.376409
0.401914
0.426774
0.450965
0.474471
0.497288
0.519305
0.540668
0.561347
0.581313
0.60057
0.619122
0.636975
0.654137
0.670621
0.686438
0.701604
0.716133
0.730044
0.743357
0.756093
0.768262
0.779858
0.790874
0.80131
0.811168
0.820454
0.829178
0.837351
0.844985
0.852095
0.858695
0.864801
0.870428
0.875591
0.880308
0.884595
0.888467
0.891943
0.895039
0.897774
0.900167
0.902237
0.904006
0.905494
0.906723
0.907712
0.908471
0.909014
0.909175
0.908039
0.905632
0.902981
0.900185
0.897255
0.894182
0.89095
0.88754
0.883932
0.880109
0.876053
0.871752
0.867198
0.862385
0.857303
0.85196
0.846366
0.840539
0.8345
0.828278
0.82196
0.815555
0.809134
0.802776
0.796569
0.79073
0.785357
0.780625
0.776715
0.773809
0.771886
0.770745
0.770141
0.00186559
0.0078416
0.0166947
0.0288987
0.0446224
0.0636885
0.0856524
0.109935
0.135939
0.16312
0.191014
0.219248
0.247528
0.275629
0.303384
0.330669
0.357398
0.383509
0.408961
0.433726
0.457788
0.481144
0.503661
0.52553
0.546704
0.567153
0.586881
0.605893
0.624195
0.641798
0.658711
0.674948
0.690522
0.705451
0.719749
0.733437
0.746534
0.759062
0.771032
0.78244
0.793279
0.80355
0.813254
0.822398
0.830991
0.839044
0.846569
0.85358
0.860091
0.866117
0.871672
0.876774
0.881436
0.885675
0.889508
0.89295
0.896018
0.89873
0.901105
0.903161
0.90492
0.906402
0.907623
0.908602
0.909361
0.909907
0.910079
0.909008
0.90665
0.90404
0.901281
0.89839
0.895355
0.892162
0.888791
0.885222
0.881435
0.877416
0.873153
0.868624
0.863828
0.858763
0.853433
0.84785
0.842031
0.836003
0.8298
0.823412
0.816926
0.810413
0.803959
0.797685
0.791711
0.786158
0.781225
0.777133
0.774069
0.772017
0.770797
0.77015
0.0019591
0.00823225
0.017517
0.0302902
0.046694
0.0665035
0.0892224
0.114228
0.140894
0.168658
0.197049
0.225691
0.254293
0.282636
0.31056
0.337949
0.364722
0.390823
0.416218
0.440886
0.464827
0.487881
0.510283
0.531972
0.552919
0.573129
0.592607
0.611362
0.629404
0.646746
0.663399
0.679379
0.694701
0.709382
0.723439
0.736893
0.749763
0.762072
0.773832
0.785041
0.795692
0.805787
0.815327
0.82432
0.832774
0.8407
0.84811
0.855017
0.861435
0.867378
0.872861
0.877898
0.882506
0.886699
0.890492
0.893902
0.896945
0.899637
0.901997
0.904043
0.905792
0.907262
0.908479
0.909464
0.91023
0.910783
0.910977
0.909989
0.907692
0.905123
0.902403
0.899551
0.896558
0.893408
0.890084
0.886565
0.882821
0.878835
0.874586
0.870076
0.865297
0.860246
0.854927
0.849347
0.843521
0.837476
0.831248
0.82487
0.818384
0.811842
0.805324
0.798927
0.792776
0.787039
0.781916
0.77761
0.774336
0.772154
0.770852
0.770161
0.00205822
0.00864629
0.0183889
0.0317661
0.0488926
0.0694959
0.0930268
0.118818
0.146206
0.174602
0.203518
0.232572
0.261478
0.290037
0.318101
0.345563
0.372349
0.398413
0.423729
0.448297
0.471917
0.494882
0.517114
0.538579
0.559284
0.579238
0.598451
0.616936
0.634705
0.651773
0.668155
0.683867
0.698926
0.71335
0.727158
0.740369
0.753004
0.765086
0.776628
0.787629
0.798085
0.807995
0.817365
0.826199
0.834508
0.842302
0.849591
0.85639
0.862712
0.868569
0.873977
0.87895
0.883502
0.887648
0.891403
0.894782
0.8978
0.900475
0.902819
0.904849
0.90659
0.908063
0.909288
0.910281