/*--------------------------------*- C++ -*----------------------------------*\
  =========                 |
  \\      /  F ield         | OpenFOAM: The Open Source CFD Toolbox
   \\    /   O peration     | Website:  https://openfoam.org
    \\  /    A nd           | Version:  8
     \\/     M anipulation  |
\*---------------------------------------------------------------------------*/
FoamFile
{
    version     2.0;
    format      ascii;
    class       volScalarField;
    location    "20/fluid";
    object      O2;
}
// * * * * * * * * * * * * * * * * * * * * * * * * * * * * * * * * * * * * * //

dimensions      [0 0 0 0 0 0 0];

internalField   nonuniform List<scalar> 
4000
(
4.374e-08
1.89618e-07
4.3306e-07
8.29628e-07
1.44867e-06
2.36411e-06
3.6428e-06
5.33729e-06
7.4787e-06
1.00746e-05
1.31107e-05
1.65535e-05
2.03554e-05
2.44578e-05
2.87948e-05
3.32978e-05
3.78973e-05
4.25247e-05
4.71146e-05
5.16074e-05
5.59483e-05
6.00893e-05
6.39842e-05
6.76041e-05
7.09351e-05
7.39794e-05
7.67588e-05
7.93168e-05
8.17211e-05
8.40653e-05
8.647e-05
8.90818e-05
9.20726e-05
9.56372e-05
9.999e-05
0.000105363
0.000112004
0.000120177
0.000130161
0.000142257
0.000156789
0.000174136
0.000194754
0.00021917
0.000247984
0.000281886
0.000321669
0.00036825
0.000422692
0.00048622
0.000560263
0.000646469
0.000746764
0.000863372
0.000998901
0.00115638
0.00133936
0.00155199
0.00179917
0.00208666
0.00242128
0.00281116
0.00326606
0.00379807
0.00442242
0.00515733
0.00607658
0.0077949
0.0116079
0.0175159
0.0240621
0.0309251
0.0379901
0.0452067
0.0525449
0.059985
0.0675101
0.0751087
0.0827753
0.0905045
0.0982925
0.106137
0.114036
0.121989
0.129995
0.138051
0.146156
0.154306
0.162492
0.170697
0.178897
0.187049
0.195078
0.202857
0.210183
0.216758
0.222126
0.225975
0.228387
0.229694
4.05667e-08
1.75598e-07
4.00294e-07
7.66535e-07
1.3409e-06
2.19829e-06
3.41137e-06
5.03741e-06
7.11249e-06
9.64933e-06
1.26385e-05
1.60504e-05
1.9839e-05
2.39473e-05
2.83096e-05
3.28553e-05
3.75147e-05
4.22174e-05
4.68938e-05
5.14914e-05
5.59474e-05
6.02119e-05
6.42489e-05
6.80365e-05
7.15687e-05
7.48578e-05
7.7937e-05
8.08631e-05
8.37183e-05
8.66118e-05
8.96806e-05
9.30884e-05
9.70236e-05
0.000101696
0.000107334
0.000114176
0.000122473
0.000132478
0.000144451
0.000158656
0.000175397
0.00019506
0.000218093
0.000245013
0.000276412
0.000312976
0.000355491
0.000404865
0.000462145
0.000528538
0.000605436
0.00069445
0.000797446
0.000916592
0.00105442
0.00121388
0.00139846
0.00161224
0.00186005
0.0021476
0.00248168
0.00287034
0.00332323
0.00385236
0.00447296
0.0052019
0.00612898
0.00794289
0.0119565
0.0179826
0.0246099
0.0315288
0.0386517
0.0459404
0.0533494
0.0608525
0.068447
0.0761216
0.0838673
0.0916818
0.0995621
0.107506
0.115513
0.123579
0.131702
0.139877
0.148097
0.156351
0.164623
0.172892
0.181123
0.189259
0.197207
0.20482
0.211869
0.218043
0.222963
0.22643
0.228574
0.22973
3.88538e-08
1.68283e-07
3.83559e-07
7.33964e-07
1.28278e-06
2.1006e-06
3.25726e-06
4.81225e-06
6.8083e-06
9.26664e-06
1.21854e-05
1.55421e-05
1.92962e-05
2.33931e-05
2.77685e-05
3.23518e-05
3.70679e-05
4.18428e-05
4.66078e-05
5.12822e-05
5.58088e-05
6.01299e-05
6.41997e-05
6.79865e-05
7.14732e-05
7.46603e-05
7.75688e-05
8.02434e-05
8.27552e-05
8.52038e-05
8.77182e-05
9.04556e-05
9.35997e-05
9.73565e-05
0.000101949
0.000107612
0.000114587
0.000123118
0.00013345
0.000145848
0.000160641
0.000178234
0.00019908
0.000223699
0.00025269
0.000286747
0.000326675
0.000373413
0.000428052
0.000491862
0.000566323
0.000653163
0.000754393
0.000872366
0.00100984
0.00117004
0.00135677
0.00157453
0.00182866
0.00212549
0.00247262
0.00287927
0.00335662
0.00391841
0.00458022
0.00535871
0.00635612
0.00835581
0.0127033
0.018866
0.0255756
0.0325684
0.039759
0.0471034
0.0545887
0.0622011
0.0698899
0.0776556
0.0854974
0.0934058
0.101378
0.109416
0.117515
0.125671
0.133875
0.142121
0.150395
0.158679
0.166946
0.175161
0.183282
0.191247
0.198963
0.20629
0.213021
0.218881
0.223504
0.226723
0.228695
0.229753
3.7847e-08
1.64082e-07
3.74112e-07
7.15318e-07
1.24869e-06
2.0427e-06
3.16589e-06
4.67792e-06
6.62283e-06
9.02457e-06
1.1887e-05
1.51941e-05
1.89117e-05
2.29903e-05
2.7369e-05
3.19789e-05
3.67448e-05
4.15928e-05
4.64474e-05
5.12379e-05
5.59017e-05
6.03822e-05
6.46399e-05
6.86478e-05
7.23949e-05
7.58884e-05
7.91575e-05
8.22557e-05
8.5264e-05
8.82924e-05
9.14799e-05
9.49941e-05
9.9028e-05
0.000103794
0.000109518
0.000116428
0.000124749
0.000134694
0.000146459
0.000160281
0.000176495
0.000195493
0.000217723
0.000243698
0.000274009
0.000309337
0.000350475
0.000398337
0.000453989
0.000518672
0.000593835
0.000681177
0.000782693
0.000900739
0.00103811
0.00119812
0.00138473
0.00160269
0.00185774
0.0021568
0.00250832
0.00292312
0.0034139
0.00399575
0.00468662
0.00550354
0.00657785
0.00881114
0.0135768
0.0199006
0.0267404
0.0338391
0.041132
0.0485802
0.056155
0.063834
0.0716312
0.0795004
0.0874245
0.0954195
0.103478
0.11159
0.119751
0.127958
0.136197
0.144455
0.152716
0.160959
0.169155
0.177267
0.185249
0.193036
0.200536
0.207611
0.214063
0.219627
0.223975
0.226973
0.228797
0.229772
3.70944e-08
1.60816e-07
3.66632e-07
7.01643e-07
1.22533e-06
2.00576e-06
3.10971e-06
4.59488e-06
6.50785e-06
8.8753e-06
1.17045e-05
1.49832e-05
1.86812e-05
2.2752e-05
2.71368e-05
3.17672e-05
3.65678e-05
4.14589e-05
4.6366e-05
5.12113e-05
5.59297e-05
6.04617e-05
6.47592e-05
6.87874e-05
7.25279e-05
7.59776e-05
7.91558e-05
8.21082e-05
8.49115e-05
8.76735e-05
9.05352e-05
9.36657e-05
9.72626e-05
0.000101543
0.000106732
0.000113057
0.000120731
0.000129951
0.000140902
0.000153828
0.000169074
0.000187034
0.000208156
0.000232958
0.000262042
0.000296108
0.000335974
0.000382594
0.000437086
0.000500753
0.000575126
0.000661995
0.000763467
0.000882027
0.00102063
0.00118277
0.00137258
0.0015951
0.00185641
0.00216392
0.0025269
0.0029564
0.00346597
0.00407222
0.00479509
0.00565153
0.00681624
0.00932705
0.0145024
0.020988
0.027941
0.0351653
0.0425742
0.0501288
0.0578034
0.0655756
0.0734261
0.0813703
0.0894068
0.097474
0.105589
0.113758
0.121962
0.130193
0.138442
0.146693
0.154925
0.163113
0.171225
0.179225
0.187064
0.194678
0.201972
0.208811
0.215
0.220293
0.224393
0.227195
0.228888
0.22979
3.67036e-08
1.59126e-07
3.62534e-07
6.92707e-07
1.20851e-06
1.97712e-06
3.06625e-06
4.53686e-06
6.43292e-06
8.7839e-06
1.15996e-05
1.487e-05
1.85675e-05
2.26487e-05
2.70572e-05
3.17281e-05
3.65895e-05
4.15661e-05
4.65841e-05
5.15629e-05
5.64363e-05
6.11478e-05
6.56496e-05
6.99077e-05
7.39049e-05
7.76448e-05
8.11553e-05
8.44901e-05
8.77336e-05
9.10067e-05
9.44541e-05
9.82442e-05
0.000102587
0.000107707
0.000113831
0.000121174
0.000129931
0.000140261
0.000152314
0.000166323
0.000182631
0.00020163
0.000223769
0.000249564
0.000279613
0.000314612
0.000355375
0.000402852
0.000458156
0.000522596
0.000597713
0.000685328
0.000787591
0.000907051
0.00104678
0.00121058
0.00140287
0.00162894
0.00189505
0.00220897
0.00258026
0.00302073
0.00354481
0.00417025
0.00491858
0.00580609
0.00705599
0.00983802
0.0153942
0.0220463
0.0291279
0.0364575
0.0439891
0.0516625
0.0594411
0.0673107
0.0752575
0.0832708
0.0913364
0.0994835
0.107648
0.11585
0.124082
0.132326
0.140568
0.148793
0.156981
0.165104
0.173131
0.181022
0.188729
0.196183
0.203287
0.209905
0.215849
0.22089
0.224762
0.227387
0.228966
0.229805
3.65446e-08
1.58481e-07
3.61035e-07
6.89608e-07
1.20261e-06
1.96674e-06
3.0495e-06
4.51134e-06
6.39965e-06
8.74498e-06
1.15591e-05
1.48348e-05
1.85472e-05
2.26555e-05
2.71063e-05
3.18342e-05
3.67662e-05
4.18264e-05
4.69346e-05
5.20248e-05
5.70031e-05
6.18144e-05
6.6409e-05
7.07464e-05
7.48042e-05
7.85811e-05
8.21007e-05
8.54169e-05
8.86126e-05
9.18023e-05
9.51607e-05
9.887e-05
0.000103142
0.000108204
0.000114285
0.000121596
0.000130317
0.000140587
0.00015254
0.000166417
0.000182564
0.000201384
0.000223332
0.000248939
0.000278824
0.000313707
0.000354433
0.00040199
0.000457535
0.000522432
0.000598283
0.000686986
0.000790794
0.000912378
0.00105493
0.00122225
0.00141892
0.00165041
0.00192348
0.00224598
0.00262765
0.00308043
0.00361918
0.00426232
0.00503201
0.00594443
0.00726285
0.0102679
0.0161829
0.0230133
0.0302312
0.0376828
0.0453084
0.0530816
0.0609653
0.0689335
0.0769662
0.0850514
0.0931813
0.101345
0.109569
0.117806
0.126051
0.134295
0.142523
0.15072
0.158864
0.166933
0.174885
0.182677
0.190257
0.197556
0.204479
0.210892
0.216614
0.221426
0.225088
0.227555
0.229032
0.229817
3.65541e-08
1.58518e-07
3.60972e-07
6.89179e-07
1.20145e-06
1.9646e-06
3.04676e-06
4.50965e-06
6.40244e-06
8.75761e-06
1.15891e-05
1.48919e-05
1.86433e-05
2.28044e-05
2.73228e-05
3.2135e-05
3.71698e-05
4.23512e-05
4.76028e-05
5.28461e-05
5.80259e-05
6.30508e-05
6.78773e-05
7.24722e-05
7.68143e-05
8.09046e-05
8.47696e-05
8.84665e-05
9.20869e-05
9.57599e-05
9.9657e-05
0.000103982
0.000108961
0.000114835
0.00012183
0.000130148
0.000139943
0.00015131
0.000164352
0.000179296
0.000196494
0.000216351
0.000239331
0.00026597
0.000296892
0.000332827
0.000374631
0.000423306
0.000480029
0.000546191
0.000623428
0.000713681
0.000819253
0.000942886
0.00108784
0.00125804
0.00145817
0.00169392
0.00197216
0.00230118
0.00269124
0.00315452
0.00370608
0.00436474
0.00515379
0.00609076
0.0074785
0.0107154
0.0169084
0.0238997
0.0312468
0.0388163
0.0465493
0.0544037
0.0623621
0.0704035
0.0785184
0.0866793
0.0948783
0.103109
0.111361
0.119622
0.127881
0.136126
0.144342
0.152511
0.160614
0.168624
0.176487
0.184172
0.191628
0.198782
0.20554
0.21177
0.217298
0.221912
0.22539
0.227712
0.229096
0.229829
3.67671e-08
1.59472e-07
3.63104e-07
6.93101e-07
1.20806e-06
1.97533e-06
3.06388e-06
4.53667e-06
6.44438e-06
8.82126e-06
1.16831e-05
1.50266e-05
1.88308e-05
2.3058e-05
2.76567e-05
3.25638e-05
3.77082e-05
4.3013e-05
4.83995e-05
5.37914e-05
5.91113e-05
6.43143e-05
6.93058e-05
7.4059e-05
7.85571e-05
8.27992e-05
8.68131e-05
9.06591e-05
9.44353e-05
9.82808e-05
0.000102376
0.000106938
0.000112209
0.000118436
0.000125852
0.000134648
0.000144959
0.000156849
0.0001704
0.000185844
0.000203544
0.000223921
0.000247453
0.000274694
0.000306291
0.000343
0.000385704
0.000435437
0.000493411
0.000561051
0.000640037
0.00073235
0.000840341
0.000966802
0.00111506
0.00128911
0.00149373
0.00173469
0.00201896
0.00235502
0.00275318
0.00322608
0.00378939
0.00446215
0.00526773
0.00622371
0.00765944
0.0110991
0.0175237
0.0246768
0.032156
0.039845
0.0476876
0.0556455
0.0636914
0.071803
0.0799601
0.0881635
0.0963994
0.104658
0.112934
0.121222
0.129496
0.137745
0.145952
0.154095
0.16215
0.170082
0.177875
0.185486
0.192855
0.199899
0.206508
0.212563
0.217911
0.222341
0.225648
0.227845
0.229149
0.229839
3.70665e-08
1.60806e-07
3.66144e-07
6.98861e-07
1.21811e-06
1.9921e-06
3.09103e-06
4.57939e-06
6.50964e-06
8.91789e-06
1.18218e-05
1.52199e-05
1.90927e-05
2.34039e-05
2.81032e-05
3.31283e-05
3.84088e-05
4.38687e-05
4.94301e-05
5.50161e-05
6.05552e-05
6.59776e-05
7.12515e-05
7.62973e-05
8.1104e-05
8.56821e-05
9.00628e-05
9.43129e-05
9.854e-05
0.000102896
0.000107576
0.000112817
0.000118875
0.000126009
0.00013445
0.000144372
0.000155876
0.000168977
0.000183721
0.000200334
0.00021919
0.000240719
0.000265411
0.000293832
0.000326643
0.000364614
0.000408647
0.000459799
0.000519306
0.000588622
0.000669459
0.000763835
0.000874141
0.00100322
0.00115444
0.00133184
0.00154028
0.00178558
0.00207479
0.00241644
0.00282093
0.00330099
0.00387233
0.00455438
0.00537134
0.00634048
0.00780854
0.011415
0.0180415
0.0253468
0.0329582
0.0407671
0.0487184
0.0567745
0.0649086
0.0731007
0.0813362
0.0896034
0.0978906
0.106188
0.114486
0.122771
0.131046
0.13929
0.147479
0.155588
0.163619
0.171532
0.179289
0.186837
0.194124
0.201089
0.207577
0.213444
0.218572
0.222797
0.225926
0.227987
0.229206
0.22985
3.74271e-08
1.62408e-07
3.69802e-07
7.05853e-07
1.23044e-06
2.01287e-06
3.12483e-06
4.6326e-06
6.59057e-06
9.03678e-06
1.19906e-05
1.54523e-05
1.94035e-05
2.38089e-05
2.86187e-05
3.3771e-05
3.91948e-05
4.48137e-05
5.05489e-05
5.63219e-05
6.20597e-05
6.76972e-05
7.31737e-05
7.84732e-05
8.35299e-05
8.83586e-05
9.30033e-05
9.75358e-05
0.000102073
0.000106781
0.000111874
0.000117606
0.000124255
0.000132089
0.000141338
0.000152161
0.000164626
0.00017871
0.000194431
0.000212022
0.000231869
0.00025442
0.000280184
0.000309743
0.000343776
0.000383074
0.000428561
0.000481317
0.000542605
0.000613906
0.000696957
0.000793806
0.000906869
0.00103901
0.00119363
0.00137479
0.00158735
0.00183714
0.0021312
0.00247804
0.00288801
0.00337374
0.00395076
0.00463837
0.00546028
0.00643282
0.00791328
0.0116347
0.0184596
0.0259151
0.0336552
0.0415783
0.0496313
0.0577772
0.0659913
0.0742551
0.0825539
0.0908759
0.0992108
0.107561
0.115898
0.124228
0.132537
0.140813
0.149039
0.157197
0.16523
0.17311
0.180801
0.188253
0.195405
0.202176
0.20851
0.214218
0.219167
0.223203
0.226169
0.228111
0.229256
0.229859
3.78241e-08
1.64167e-07
3.73822e-07
7.13558e-07
1.24409e-06
2.03598e-06
3.16258e-06
4.6922e-06
6.68132e-06
9.17002e-06
1.21796e-05
1.57118e-05
1.97498e-05
2.42591e-05
2.91908e-05
3.44835e-05
4.00667e-05
4.58644e-05
5.17979e-05
5.77893e-05
6.3765e-05
6.96596e-05
7.542e-05
8.10021e-05
8.64102e-05
9.16084e-05
9.66437e-05
0.000101607
0.000106625
0.000111881
0.00011761
0.000124088
0.000131609
0.000140453
0.000150843
0.000162915
0.000176699
0.000192121
0.00020917
0.000228076
0.000249227
0.000273088
0.000300184
0.000331117
0.00036658
0.000407383
0.000454467
0.000508934
0.00057207
0.00064538
0.000730626
0.00082988
0.00094558
0.00108061
0.00123839
0.00142298
0.00163923
0.00189295
0.00219113
0.00254221
0.00295641
0.00344624
0.00402705
0.00471796
0.00554259
0.00651736
0.00800902
0.0118405
0.0188237
0.0264105
0.0342678
0.0422954
0.0504417
0.0586732
0.0669696
0.0753125
0.0836883
0.0920873
0.100503
0.108906
0.117315
0.125701
0.134052
0.142351
0.15058
0.15871
0.166711
0.174546
0.182172
0.189539
0.196587
0.20324
0.209395
0.214948
0.219723
0.223582
0.226394
0.228226
0.229301
0.229868
3.82357e-08
1.65987e-07
3.77974e-07
7.21512e-07
1.25819e-06
2.0599e-06
3.20178e-06
4.75422e-06
6.77592e-06
9.30909e-06
1.23768e-05
1.59825e-05
2.01101e-05
2.47264e-05
2.97825e-05
3.52174e-05
4.09607e-05
4.6936e-05
5.30643e-05
5.92677e-05
6.54721e-05
7.16111e-05
7.76305e-05
8.34928e-05
8.9177e-05
9.4714e-05
0.000100104
0.000105445
0.000110886
0.000116627
0.000122922
0.000130073
0.000138392
0.000148166
0.00015961
0.000172838
0.000187852
0.000204547
0.000222946
0.000243242
0.0002658
0.000291081
0.00031963
0.000352072
0.000389122
0.000431604
0.00048048
0.00053687
0.00060208
0.000677636
0.00076532
0.000867218
0.000985785
0.00112391
0.00128501
0.00147314
0.00169314
0.00195075
0.00225292
0.00260798
0.00302604
0.00351942
0.00410331
0.00479666
0.0056231
0.00659898
0.00810027
0.0120052
0.0191299
0.0268392
0.0348053
0.0429348
0.0511787
0.0595058
0.0678891
0.0763124
0.0847625
0.0932285
0.1017
0.110164
0.118614
0.127037
0.135415
0.143733
0.151966
0.160089
0.168071
0.175873
0.183451
0.190753
0.197715
0.204263
0.210302
0.215677
0.220274
0.223958
0.226616
0.228338
0.229346
0.229876
3.8643e-08
1.67785e-07
3.82062e-07
7.29316e-07
1.272e-06
2.08332e-06
3.24023e-06
4.81527e-06
6.86937e-06
9.44688e-06
1.25728e-05
1.62519e-05
2.04696e-05
2.51932e-05
3.03748e-05
3.59537e-05
4.18598e-05
4.80171e-05
5.43472e-05
6.07722e-05
6.72189e-05
7.36214e-05
7.99258e-05
8.60944e-05
9.21102e-05
9.79848e-05
0.000103787
0.000109573
0.000115504
0.000121804
0.00012875
0.000136662
0.000145865
0.000156644
0.000169199
0.000183607
0.000199825
0.000217875
0.000237851
0.000259828
0.000284063
0.000311
0.000341197
0.000375308
0.000414076
0.000458349
0.000509109
0.000567495
0.000634831
0.000712662
0.000802787
0.000907308
0.00102869
0.00116981
0.00133409
0.00152556
0.00174899
0.00201009
0.00231568
0.00267394
0.00309479
0.00359028
0.00417526
0.00486832
0.00569272
0.00666446
0.0081617
0.0121295
0.0193738
0.0272033
0.0352807
0.0435107
0.0518455
0.0602536
0.0687128
0.0772066
0.0857218
0.0942474
0.102767
0.111287
0.119785
0.128248
0.136659
0.145001
0.153249
0.161376
0.16935
0.17713
0.184668
0.19191
0.198788
0.205221
0.211107
0.216344
0.220781
0.224305
0.226823
0.228442
0.229387
0.229884
3.90293e-08
1.69486e-07
3.85907e-07
7.3661e-07
1.28484e-06
2.10506e-06
3.27594e-06
4.8721e-06
6.95668e-06
9.57607e-06
1.2757e-05
1.65058e-05
2.08088e-05
2.56341e-05
3.09343e-05
3.6649e-05
4.27085e-05
4.90371e-05
5.55566e-05
6.21896e-05
6.88631e-05
7.55121e-05
8.20829e-05
8.85387e-05
9.48639e-05
0.000101073
0.000107219
0.000113422
0.000119811
0.000126629
0.000134176
0.000142787
0.000152796
0.000164478
0.000178005
0.000193418
0.000210767
0.000230176
0.000251745
0.000275565
0.000301711
0.000330551
0.000362625
0.000398606
0.000439274
0.00048551
0.000538318
0.000598857
0.00066847
0.000748715
0.000841405
0.000948651
0.00107292
0.00121708
0.00138454
0.00157927
0.001806
0.00207035
0.002379
0.00273996
0.00316291
0.00365958
0.00424443
0.00493554
0.00575568
0.00672035
0.00820899
0.012222
0.0195726
0.0275144
0.0356917
0.0440119
0.0524286
0.0609119
0.0694409
0.0779999
0.0865764
0.0951586
0.10374
0.112309
0.120853
0.129357
0.137804
0.146175
0.154445
0.162585
0.170559
0.178325
0.185833
0.193024
0.199829
0.206166
0.211933
0.217014
0.221284
0.224642
0.227019
0.22854
0.229426
0.229892
3.938e-08
1.71025e-07
3.89358e-07
7.43088e-07
1.29614e-06
2.12408e-06
3.30717e-06
4.92194e-06
7.03359e-06
9.69044e-06
1.29209e-05
1.67326e-05
2.11129e-05
2.60307e-05
3.1439e-05
3.72782e-05
4.34789e-05
4.99658e-05
5.66615e-05
6.34893e-05
7.0377e-05
7.72606e-05
8.40875e-05
9.08217e-05
9.74495e-05
0.000103987
0.000110492
0.000117073
0.000123919
0.000131245
0.000139372
0.000148648
0.000159401
0.000171889
0.000186246
0.000202571
0.000221033
0.000241776
0.000264917
0.000290561
0.000318808
0.000349745
0.000383895
0.000421918
0.000464616
0.000512912
0.000567844
0.000630596
0.000702529
0.000785219
0.000880491
0.000990463
0.0011176
0.00126476
0.00143531
0.00163319
0.00186306
0.0021304
0.00244175
0.00280494
0.00322935
0.00372638
0.00431004
0.00499789
0.00581216
0.00676786
0.00824468
0.0122903
0.0197303
0.027772
0.0360398
0.0444415
0.0529325
0.0614843
0.0700773
0.0786967
0.0873307
0.0959671
0.104604
0.113223
0.121813
0.13036
0.138847
0.147252
0.155549
0.163708
0.17169
0.179451
0.186938
0.194088
0.200828
0.207073
0.212722
0.217655
0.221764
0.224965
0.227208
0.228635
0.229463
0.229899
3.96835e-08
1.72351e-07
3.92296e-07
7.48515e-07
1.30546e-06
2.13959e-06
3.33253e-06
4.96248e-06
7.09644e-06
9.78445e-06
1.30564e-05
1.69209e-05
2.13664e-05
2.63624e-05
3.18625e-05
3.78075e-05
4.41285e-05
5.07511e-05
5.75981e-05
6.45938e-05
7.16669e-05
7.87544e-05
8.58047e-05
9.27829e-05
9.96766e-05
0.000106504
0.000113325
0.000120256
0.000127476
0.000135252
0.000143884
0.000153721
0.000165084
0.000178199
0.000193223
0.000210377
0.000229856
0.000251827
0.000276432
0.000303796
0.000334036
0.00036727
0.000403666
0.000443896
0.000488758
0.000539205
0.00059632
0.00066132
0.000735592
0.000820728
0.000918566
0.00103123
0.00116118
0.00131126
0.00148481
0.00168572
0.00191854
0.00218867
0.00250246
0.00286752
0.00329295
0.00378975
0.00437148
0.00505514
0.00586237
0.0068078
0.0082733
0.0123302
0.0198485
0.0279794
0.0363272
0.0448005
0.0533565
0.0619682
0.0706173
0.07929
0.0879746
0.0966653
0.105349
0.114015
0.122651
0.131241
0.139769
0.14821
0.156539
0.164721
0.172719
0.180482
0.187955
0.195072
0.201756
0.207918
0.213458
0.218254
0.222211
0.225263
0.22738
0.22872
0.229497
0.229905
3.99307e-08
1.73426e-07
3.9464e-07
7.52747e-07
1.31254e-06
2.15117e-06
3.35126e-06
4.99238e-06
7.14301e-06
9.85457e-06
1.31581e-05
1.70634e-05
2.15593e-05
2.66161e-05
3.21879e-05
3.82159e-05
4.46321e-05
5.13625e-05
5.83309e-05
6.54622e-05
7.26864e-05
7.99411e-05
8.71761e-05
9.43573e-05
0.000101474
0.000108544
0.000115633
0.000122857
0.000130405
0.000138538
0.000147576
0.000157852
0.000169657
0.000183218
0.000198801
0.000216652
0.000236988
0.00026
0.000285859
0.000314719
0.000346725
0.000382017
0.000420748
0.000463235
0.000510287
0.000562863
0.000622092
0.000689239
0.000765726
0.00085317
0.000953425
0.00106862
0.00120122
0.00135405
0.00153042
0.00173415
0.00196973
0.00224241
0.00255838
0.00292499
0.00335101
0.00384702
0.00442598
0.00510418
0.00590239
0.00683446
0.00828274
0.0123372
0.0199254
0.0281348
0.0365512
0.0450846
0.0536944
0.0623556
0.0710512
0.0797687
0.0884983
0.0972307
0.105956
0.114663
0.123339
0.13197
0.140537
0.149015
0.157377
0.165588
0.173606
0.181379
0.188847
0.19594
0.202576
0.208664
0.214099
0.218782
0.222607
0.225526
0.227533
0.228796
0.229527
0.229911
4.01111e-08
1.74208e-07
3.96323e-07
7.55711e-07
1.31735e-06
2.15877e-06
3.36329e-06
5.01142e-06
7.17266e-06
9.89941e-06
1.32236e-05
1.71556e-05
2.1685e-05
2.67824e-05
3.24024e-05
3.84869e-05
4.49681e-05
5.17727e-05
5.88253e-05
6.60516e-05
7.33822e-05
8.07556e-05
8.81225e-05
9.54498e-05
0.000102727
0.000109975
0.000117258
0.000124696
0.000132479
0.000140868
0.00015018
0.00016073
0.000172791
0.000186671
0.000202661
0.00022102
0.000241984
0.000265767
0.000292567
0.00032257
0.000355954
0.000392893
0.000433574
0.000478198
0.000527283
0.000581794
0.000642887
0.000711884
0.000790252
0.000879644
0.000981937
0.00109928
0.00123412
0.00138931
0.0015681
0.00177429
0.00201228
0.00228722
0.00260514
0.00297315
0.00339971
0.00389495
0.00447124
0.00514406
0.00593315
0.00685139
0.00828371
0.0123293
0.0199694
0.0282398
0.036708
0.0452857
0.0539344
0.062631
0.07136
0.0801098
0.0888717
0.0976358
0.106393
0.115133
0.123843
0.132508
0.141108
0.149621
0.158015
0.166255
0.174297
0.182087
0.18956
0.196643
0.20325
0.209285
0.214643
0.219219
0.22293
0.225739
0.227655
0.228856
0.22955
0.229915
4.02015e-08
1.74603e-07
3.97164e-07
7.57148e-07
1.31957e-06
2.16212e-06
3.36845e-06
5.01953e-06
7.1854e-06
9.91903e-06
1.32528e-05
1.71974e-05
2.17427e-05
2.68598e-05
3.25035e-05
3.86158e-05
4.51296e-05
5.19718e-05
5.90673e-05
6.63425e-05
7.37283e-05
8.11639e-05
8.86003e-05
9.60051e-05
0.000103369
0.000110713
0.000118102
0.000125658
0.000133571
0.000142101
0.000151545
0.000162196
0.000174378
0.000188416
0.000204607
0.000223223
0.00024451
0.000268696
0.000295997
0.000326622
0.000360775
0.00039866
0.000440496
0.000486534
0.000537065
0.0005929
0.00065523
0.000725426
0.000804996
0.000895623
0.000999206
0.00111791
0.00125419
0.00141089
0.00159126
0.00179907
0.00203868
0.00231516
0.00263446
0.00300353
0.00343061
0.00392553
0.0045002
0.00516944
0.00595202
0.0068597
0.00828181
0.0123172
0.0199849
0.0282902
0.036787
0.0453883
0.0540576
0.0627728
0.0715195
0.0802869
0.0890659
0.0978478
0.106624
0.115383
0.124113
0.1328
0.141423
0.149958
0.158374
0.166636
0.174698
0.182504
0.189986
0.197069
0.203664
0.20967
0.21498
0.219494
0.223133
0.225872
0.227731
0.228893
0.229564
0.229918
4.01631e-08
1.74444e-07
3.96834e-07
7.56596e-07
1.31877e-06
2.16107e-06
3.36724e-06
5.01834e-06
7.18453e-06
9.91883e-06
1.32537e-05
1.71999e-05
2.17475e-05
2.68672e-05
3.25141e-05
3.86301e-05
4.51477e-05
5.1994e-05
5.90937e-05
6.63728e-05
7.37621e-05
8.12006e-05
8.86392e-05
9.60452e-05
0.000103409
0.000110751
0.000118137
0.000125688
0.000133594
0.000142115
0.000151549
0.00016219
0.00017436
0.00018838
0.000204551
0.000223146
0.000244414
0.000268583
0.000295872
0.000326492
0.000360648
0.000398545
0.000440394
0.000486426
0.000536926
0.000592733
0.000655055
0.000725249
0.000804816
0.000895438
0.000999013
0.0011177
0.00125397
0.00141064
0.00159096
0.00179871
0.00203822
0.00231457
0.00263367
0.00300247
0.00342918
0.0039236
0.00449761
0.00516597
0.00594741
0.00685378
0.00827195
0.0122916
0.0199566
0.0282625
0.0367601
0.0453619
0.0540317
0.0627475
0.0714949
0.080263
0.0890428
0.0978256
0.106602
0.115363
0.124094
0.132782
0.141406
0.149943
0.158361
0.166626
0.17469
0.182498
0.189983
0.197069
0.203666
0.209673
0.214984
0.219498
0.223136
0.225874
0.227732
0.228894
0.229565
0.229918
4.00052e-08
1.7377e-07
3.95405e-07
7.54146e-07
1.315e-06
2.1556e-06
3.35949e-06
5.00745e-06
7.16927e-06
9.89765e-06
1.32248e-05
1.71611e-05
2.16964e-05
2.68014e-05
3.24305e-05
3.85253e-05
4.5018e-05
5.18347e-05
5.88995e-05
6.61378e-05
7.34795e-05
8.08627e-05
8.82373e-05
9.55697e-05
0.000102849
0.000110095
0.000117371
0.000124797
0.00013256
0.000140923
0.000150203
0.000160717
0.000172737
0.000186567
0.000202496
0.000220792
0.000241694
0.000265422
0.000292176
0.000322149
0.000355521
0.000392466
0.000433149
0.000477739
0.000526765
0.000581237
0.000642314
0.000711296
0.000789641
0.000878998
0.000981248
0.00109853
0.00123331
0.00138839
0.00156705
0.00177305
0.00201076
0.0022853
0.00260267
0.00296993
0.00339545
0.00388927
0.00446364
0.00513384
0.00591937
0.00683313
0.00825314
0.012253
0.0198859
0.0281584
0.0366283
0.0452074
0.0538577
0.0625561
0.0712873
0.08004
0.0888045
0.0975717
0.106332
0.115076
0.12379
0.132459
0.141065
0.149583
0.157984
0.166232
0.174282
0.182081
0.189563
0.196654
0.203266
0.209302
0.214655
0.219231
0.222935
0.22574
0.227655
0.228856
0.22955
0.229915
3.97564e-08
1.72701e-07
3.93111e-07
7.50119e-07
1.30855e-06
2.1457e-06
3.34451e-06
4.98499e-06
7.13609e-06
9.84971e-06
1.31574e-05
1.7069e-05
2.1574e-05
2.66424e-05
3.22284e-05
3.82729e-05
4.47072e-05
5.14568e-05
5.84448e-05
6.55952e-05
7.28371e-05
8.01072e-05
8.73545e-05
9.45441e-05
0.000101664
0.000108733
0.000115812
0.000123018
0.000130538
0.000138632
0.00014762
0.000157833
0.000169571
0.000183057
0.000198554
0.000216312
0.000236554
0.00025948
0.000285267
0.000314075
0.000346048
0.000381317
0.000420004
0.00046243
0.000509431
0.00056198
0.000621178
0.000688276
0.000764692
0.000852049
0.000952199
0.00106727
0.00119971
0.00135234
0.00152843
0.00173179
0.00196685
0.00223882
0.00255383
0.00291915
0.00334344
0.00383714
0.00441304
0.00508718
0.00588005
0.00680552
0.00823101
0.0122152
0.0197904
0.0280016
0.0364202
0.0449561
0.0535689
0.0622334
0.0709326
0.0796539
0.0883885
0.0971261
0.105857
0.11457
0.123253
0.131891
0.140466
0.148954
0.157326
0.165548
0.173578
0.181363
0.188843
0.195946
0.202591
0.208683
0.214123
0.218793
0.222611
0.225527
0.227532
0.228795
0.229526
0.22991
3.94427e-08
1.71346e-07
3.9016e-07
7.44806e-07
1.29974e-06
2.13162e-06
3.32242e-06
4.95095e-06
7.08485e-06
9.77487e-06
1.30515e-05
1.69239e-05
2.13808e-05
2.63918e-05
3.19105e-05
3.7877e-05
4.42221e-05
5.08703e-05
5.77436e-05
6.47651e-05
7.18624e-05
7.8971e-05
8.60384e-05
9.30287e-05
9.99283e-05
0.000106754
0.000113565
0.000120474
0.000127662
0.000135397
0.000143967
0.000153729
0.000165004
0.000178023
0.000192944
0.000209985
0.000229347
0.000251208
0.000275718
0.000303005
0.000333178
0.000366332
0.00040263
0.000442771
0.000487567
0.000537953
0.000594989
0.000659888
0.000734042
0.000819045
0.000916731
0.00102921
0.00115893
0.00130872
0.00148188
0.00168224
0.00191432
0.00218344
0.00249588
0.00285912
0.00328213
0.00377573
0.00435323
0.00503134
0.00583138
0.00676797
0.00820222
0.0121641
0.0196626
0.027795
0.0361454
0.0446221
0.0531824
0.0617993
0.0704543
0.0791332
0.0878249
0.0965227
0.105214
0.113889
0.122533
0.131134
0.139673
0.148127
0.15647
0.164668
0.172681
0.18046
0.187947
0.195074
0.201763
0.20792
0.213465
0.218256
0.222211
0.225258
0.227377
0.228718
0.229496
0.229905
3.90717e-08
1.69734e-07
3.86601e-07
7.38264e-07
1.28863e-06
2.11345e-06
3.29342e-06
4.90579e-06
7.01657e-06
9.67496e-06
1.29102e-05
1.67305e-05
2.11237e-05
2.60589e-05
3.1489e-05
3.73536e-05
4.35828e-05
5.01002e-05
5.6827e-05
6.3685e-05
7.06008e-05
7.75087e-05
8.43549e-05
9.11019e-05
9.77347e-05
0.000104268
0.000110758
0.000117314
0.000124127
0.000131402
0.000139463
0.000148656
0.000159311
0.000171687
0.000185927
0.00020213
0.000220466
0.000241088
0.000264121
0.000289666
0.000317806
0.000348612
0.000382637
0.000420559
0.000463165
0.000511355
0.000566159
0.000628762
0.000700528
0.000783032
0.000878088
0.000987798
0.0011146
0.00126134
0.00143132
0.00162845
0.00185729
0.00212328
0.00243286
0.0027937
0.00321504
0.00370808
0.00428656
0.00496775
0.00577362
0.00671937
0.00816048
0.0120879
0.019496
0.0275373
0.0358074
0.044213
0.0527094
0.0612677
0.0698681
0.0784958
0.0871381
0.0957865
0.104431
0.113061
0.121663
0.130223
0.138725
0.147146
0.155461
0.163638
0.17164
0.179421
0.186926
0.194093
0.200849
0.207109
0.212743
0.217669
0.221767
0.22496
0.227201
0.22863
0.229461
0.229898
3.86531e-08
1.67908e-07
3.82523e-07
7.30652e-07
1.27548e-06
2.09166e-06
3.25835e-06
4.85095e-06
6.9336e-06
9.55375e-06
1.27391e-05
1.64968e-05
2.08137e-05
2.56582e-05
3.09827e-05
3.67263e-05
4.28184e-05
4.9182e-05
5.57375e-05
6.2406e-05
6.91129e-05
7.57915e-05
8.23869e-05
8.88602e-05
9.51949e-05
0.000101403
0.000107539
0.000113726
0.000120081
0.000126853
0.00013434
0.000142877
0.000152793
0.000164366
0.000177771
0.000193058
0.000210279
0.000229556
0.000250993
0.000274671
0.000300651
0.000329324
0.000361254
0.000397102
0.000437626
0.000483698
0.000536325
0.000596668
0.000666068
0.000746077
0.000838494
0.000945409
0.00106925
0.00121288
0.00137961
0.00157338
0.00179883
0.00206147
0.00236786
0.00272587
0.00314495
0.0036366
0.00421491
0.00489758
0.00570702
0.00665874
0.00810174
0.0119731
0.019284
0.0272252
0.0354063
0.0437316
0.0521551
0.0606465
0.0691847
0.0777539
0.0863415
0.0949333
0.103528
0.112111
0.120669
0.129189
0.137655
0.146045
0.154336
0.162498
0.170495
0.178284
0.185813
0.193021
0.199835
0.206167
0.211948
0.217019
0.221282
0.224633
0.227011
0.228534
0.229423
0.229891
3.81985e-08
1.65918e-07
3.78044e-07
7.22207e-07
1.26076e-06
2.06707e-06
3.2186e-06
4.78877e-06
6.83963e-06
9.41672e-06
1.25462e-05
1.62337e-05
2.04652e-05
2.52085e-05
3.04153e-05
3.60242e-05
4.19643e-05
4.81582e-05
5.45256e-05
6.0987e-05
6.74672e-05
7.38984e-05
8.02249e-05
8.64066e-05
9.2425e-05
9.8292e-05
0.000104081
0.000109835
0.000115721
0.000121965
0.000128842
0.000136671
0.000145775
0.000156438
0.000168859
0.000183126
0.0001992
0.000217101
0.000236912
0.000258699
0.000282743
0.000309506
0.000339542
0.000373485
0.000412069
0.000456143
0.00050669
0.000564849
0.00063194
0.000709494
0.000799293
0.000903413
0.00102428
0.00116474
0.00132814
0.00151843
0.00174031
0.00199936
0.00230225
0.00265698
0.0030732
0.00356264
0.00413971
0.00482242
0.00563353
0.0065889
0.00803204
0.0118368
0.0190347
0.0268645
0.0349439
0.0431789
0.0515218
0.0599385
0.0684076
0.0769127
0.0854407
0.0939807
0.10252
0.111052
0.119565
0.128046
0.136479
0.144843
0.153116
0.161269
0.16927
0.177078
0.184643
0.19191
0.198812
0.205273
0.21115