/*--------------------------------*- C++ -*----------------------------------*\
  =========                 |
  \\      /  F ield         | OpenFOAM: The Open Source CFD Toolbox
   \\    /   O peration     | Website:  https://openfoam.org
    \\  /    A nd           | Version:  8
     \\/     M anipulation  |
\*---------------------------------------------------------------------------*/
FoamFile
{
    version     2.0;
    format      ascii;
    class       surfaceScalarField;
    location    "20/fluid";
    object      phi;
}
// * * * * * * * * * * * * * * * * * * * * * * * * * * * * * * * * * * * * * //

dimensions      [1 0 -1 0 0 0 0];

internalField   nonuniform List<scalar> 
7860
(
6.43013e-07
-5.42184e-08
6.11224e-07
-1.78344e-07
5.68091e-07
-3.07746e-07
5.16711e-07
-4.22186e-07
4.61944e-07
-5.02057e-07
4.08254e-07
-5.39997e-07
3.58488e-07
-5.42415e-07
3.13599e-07
-5.21124e-07
2.73515e-07
-4.8743e-07
2.38188e-07
-4.49327e-07
2.07256e-07
-4.11635e-07
1.80329e-07
-3.76659e-07
1.57016e-07
-3.45239e-07
1.36937e-07
-3.17413e-07
1.19644e-07
-2.92927e-07
1.04732e-07
-2.71401e-07
9.18607e-08
-2.52444e-07
8.07094e-08
-2.35711e-07
7.10565e-08
-2.20875e-07
6.26277e-08
-2.07698e-07
5.53061e-08
-1.95915e-07
4.88474e-08
-1.85385e-07
4.32138e-08
-1.75887e-07
3.81814e-08
-1.67351e-07
3.37699e-08
-1.59592e-07
2.9776e-08
-1.5259e-07
2.62501e-08
-1.46188e-07
2.3021e-08
-1.40392e-07
2.01411e-08
-1.35074e-07
1.74851e-08
-1.30242e-07
1.50868e-08
-1.25801e-07
1.28686e-08
-1.21754e-07
1.08415e-08
-1.18039e-07
8.96022e-09
-1.14653e-07
7.22453e-09
-1.11561e-07
5.59653e-09
-1.08759e-07
4.08578e-09
-1.06218e-07
2.63422e-09
-1.03949e-07
1.28623e-09
-1.01912e-07
-6.00226e-11
-1.0014e-07
-1.30759e-09
-9.85638e-08
-2.59668e-09
-9.72479e-08
-3.79087e-09
-9.60981e-08
-5.04201e-09
-9.51909e-08
-6.2211e-09
-9.44294e-08
-7.43525e-09
-9.38738e-08
-8.61661e-09
-9.34608e-08
-9.78665e-09
-9.32104e-08
-1.09692e-08
-9.31188e-08
-1.20978e-08
-9.31582e-08
-1.32763e-08
-9.3381e-08
-1.43865e-08
-9.37241e-08
-1.55662e-08
-9.42669e-08
-1.66969e-08
-9.49367e-08
-1.78987e-08
-9.58064e-08
-1.90884e-08
-9.68176e-08
-2.03421e-08
-9.80171e-08
-2.16187e-08
-9.93704e-08
-2.29572e-08
-1.00904e-07
-2.43517e-08
-1.02615e-07
-2.58344e-08
-1.04542e-07
-2.74327e-08
-1.06723e-07
-2.91923e-08
-1.0922e-07
-3.11652e-08
-1.12061e-07
-3.34855e-08
-1.15238e-07
-3.61017e-08
-1.18609e-07
-3.39081e-08
-1.21787e-07
-2.01964e-08
-1.25037e-07
-1.1767e-08
-1.30031e-07
-1.5027e-08
-1.36518e-07
-1.92901e-08
-1.42979e-07
-2.35245e-08
-1.49994e-07
-2.75101e-08
-1.57804e-07
-3.15061e-08
-1.66557e-07
-3.56701e-08
-1.76307e-07
-4.01918e-08
-1.87159e-07
-4.52826e-08
-1.99251e-07
-5.10953e-08
-2.12714e-07
-5.79325e-08
-2.27776e-07
-6.59777e-08
-2.44618e-07
-7.56394e-08
-2.63568e-07
-8.72148e-08
-2.84903e-07
-1.0124e-07
-3.09071e-07
-1.18212e-07
-3.36519e-07
-1.38855e-07
-3.67896e-07
-1.63964e-07
-4.03946e-07
-1.94567e-07
-4.45626e-07
-2.31861e-07
-4.94021e-07
-2.77248e-07
-5.50299e-07
-3.32052e-07
-6.15404e-07
-3.97365e-07
-6.89616e-07
-4.73901e-07
-7.71383e-07
-5.62775e-07
-8.55038e-07
-6.64805e-07
-9.28219e-07
-7.77827e-07
-9.65963e-07
-8.96163e-07
-9.33511e-07
-1.00767e-06
-8.03062e-07
-1.09701e-06
-5.91461e-07
-1.15724e-06
-3.57166e-07
-1.23305e-07
6.54553e-07
-5.07101e-08
6.36226e-07
-1.62201e-07
6.02065e-07
-2.78426e-07
5.55477e-07
-3.83622e-07
5.02128e-07
-4.59546e-07
4.47708e-07
-4.98115e-07
3.95913e-07
-5.03569e-07
3.48591e-07
-4.86178e-07
3.0642e-07
-4.56503e-07
2.69174e-07
-4.21987e-07
2.36393e-07
-3.87428e-07
2.07632e-07
-3.55247e-07
1.82456e-07
-3.26335e-07
1.60488e-07
-3.00788e-07
1.41332e-07
-2.78321e-07
1.24624e-07
-2.5857e-07
1.10035e-07
-2.41164e-07
9.72628e-08
-2.2577e-07
8.60682e-08
-2.12109e-07
7.6211e-08
-1.99923e-07
6.75356e-08
-1.89027e-07
5.98347e-08
-1.7922e-07
5.30187e-08
-1.70391e-07
4.691e-08
-1.62379e-07
4.14674e-08
-1.55128e-07
3.65377e-08
-1.48503e-07
3.21097e-08
-1.42485e-07
2.8057e-08
-1.36963e-07
2.4381e-08
-1.31933e-07
2.09882e-08
-1.27307e-07
1.78795e-08
-1.23084e-07
1.49939e-08
-1.19201e-07
1.23256e-08
-1.15652e-07
9.83628e-09
-1.12399e-07
7.51473e-09
-1.09434e-07
5.32915e-09
-1.06732e-07
3.27262e-09
-1.04287e-07
1.30565e-09
-1.02076e-07
-5.62023e-10
-1.00108e-07
-2.39124e-09
-9.83449e-08
-4.14337e-09
-9.68161e-08
-5.89683e-09
-9.54675e-08
-7.58942e-09
-9.43456e-08
-9.30324e-09
-9.33819e-08
-1.09751e-08
-9.26246e-08
-1.2662e-08
-9.20135e-08
-1.43285e-08
-9.15771e-08
-1.59851e-08
-9.12894e-08
-1.76432e-08
-9.11454e-08
-1.92687e-08
-9.11625e-08
-2.09157e-08
-9.13047e-08
-2.25278e-08
-9.16192e-08
-2.41783e-08
-9.20552e-08
-2.58154e-08
-9.2665e-08
-2.75058e-08
-9.34028e-08
-2.92175e-08
-9.43061e-08
-3.09961e-08
-9.5344e-08
-3.28338e-08
-9.65348e-08
-3.4763e-08
-9.78645e-08
-3.67984e-08
-9.93476e-08
-3.89783e-08
-1.00998e-07
-4.13455e-08
-1.02847e-07
-4.39669e-08
-1.0493e-07
-4.69396e-08
-1.07241e-07
-5.04159e-08
-1.09715e-07
-5.39901e-08
-1.12167e-07
-5.10429e-08
-1.14359e-07
-3.48715e-08
-1.16964e-07
-2.52837e-08
-1.21804e-07
-2.7549e-08
-1.28459e-07
-3.14383e-08
-1.35264e-07
-3.54868e-08
-1.42438e-07
-3.94877e-08
-1.50281e-07
-4.36339e-08
-1.58918e-07
-4.80751e-08
-1.68448e-07
-5.29713e-08
-1.78969e-07
-5.85139e-08
-1.90591e-07
-6.48819e-08
-2.03479e-07
-7.23547e-08
-2.17779e-07
-8.11716e-08
-2.33727e-07
-9.17113e-08
-2.51531e-07
-1.04335e-07
-2.71519e-07
-1.19563e-07
-2.94016e-07
-1.37955e-07
-3.19488e-07
-1.60246e-07
-3.48478e-07
-1.87288e-07
-3.81707e-07
-2.20132e-07
-4.20044e-07
-2.60002e-07
-4.64534e-07
-3.08286e-07
-5.16327e-07
-3.66397e-07
-5.76499e-07
-4.35812e-07
-6.45362e-07
-5.18321e-07
-7.20967e-07
-6.1481e-07
-7.9804e-07
-7.24934e-07
-8.64121e-07
-8.45531e-07
-8.94546e-07
-9.67025e-07
-8.57797e-07
-1.07215e-06
-7.32456e-07
-1.14354e-06
-5.39479e-07
-1.17711e-06
-3.30929e-07
-1.17818e-07
6.53238e-07
-4.58916e-08
6.36277e-07
-1.47421e-07
6.07026e-07
-2.53981e-07
5.6712e-07
-3.51716e-07
5.20464e-07
-4.23816e-07
4.71479e-07
-4.61932e-07
4.23583e-07
-4.69091e-07
3.78749e-07
-4.5436e-07
3.37925e-07
-4.27676e-07
3.01172e-07
-3.95936e-07
2.68309e-07
-3.63926e-07
2.39003e-07
-3.34037e-07
2.129e-07
-3.07194e-07
1.89655e-07
-2.83515e-07
1.68973e-07
-2.62757e-07
1.5058e-07
-2.44559e-07
1.34216e-07
-2.28556e-07
1.19651e-07
-2.14426e-07
1.06663e-07
-2.01885e-07
9.50728e-08
-1.90708e-07
8.46932e-08
-1.80687e-07
7.53965e-08
-1.71672e-07
6.70215e-08
-1.63515e-07
5.94829e-08
-1.56122e-07
5.26426e-08
-1.49379e-07
4.6447e-08
-1.43233e-07
4.07789e-08
-1.37596e-07
3.56048e-08
-1.32439e-07
3.08315e-08
-1.27694e-07
2.64355e-08
-1.23344e-07
2.23499e-08
-1.19338e-07
1.8554e-08
-1.15663e-07
1.50031e-08
-1.12285e-07
1.16763e-08
-1.0919e-07
8.54073e-09
-1.06357e-07
5.57616e-09
-1.03773e-07
2.75222e-09
-1.01421e-07
5.51556e-11
-9.92943e-08
-2.5535e-09
-9.73743e-08
-5.06972e-09
-9.56628e-08
-7.53835e-09
-9.41384e-08
-9.93659e-09
-9.28165e-08
-1.23193e-08
-9.16656e-08
-1.46525e-08
-9.07058e-08
-1.69848e-08
-8.99023e-08
-1.92884e-08
-8.9271e-08
-2.15881e-08
-8.87878e-08
-2.38792e-08
-8.84555e-08
-2.61559e-08
-8.82701e-08
-2.84424e-08
-8.82188e-08
-3.07115e-08
-8.83166e-08
-3.30067e-08
-8.85396e-08
-3.52968e-08
-8.89117e-08
-3.76276e-08
-8.94077e-08
-3.99788e-08
-9.00478e-08
-4.23863e-08
-9.08126e-08
-4.48459e-08
-9.17112e-08
-4.7384e-08
-9.27305e-08
-5.00113e-08
-9.38711e-08
-5.27531e-08
-9.51321e-08
-5.56338e-08
-9.65261e-08
-5.86866e-08
-9.80738e-08
-6.19482e-08
-9.98032e-08
-6.54616e-08
-1.01698e-07
-6.92705e-08
-1.03692e-07
-7.26839e-08
-1.05634e-07
-6.82909e-08
-1.07384e-07
-5.08214e-08
-1.09795e-07
-4.27392e-08
-1.14596e-07
-4.47007e-08
-1.21014e-07
-4.84908e-08
-1.27649e-07
-5.26513e-08
-1.3467e-07
-5.70387e-08
-1.42289e-07
-6.17627e-08
-1.50638e-07
-6.69662e-08
-1.59792e-07
-7.28076e-08
-1.69842e-07
-7.9445e-08
-1.80899e-07
-8.70892e-08
-1.9308e-07
-9.59536e-08
-2.06551e-07
-1.06351e-07
-2.21482e-07
-1.18596e-07
-2.38112e-07
-1.33104e-07
-2.56685e-07
-1.50318e-07
-2.77541e-07
-1.70799e-07
-3.01077e-07
-1.95179e-07
-3.27837e-07
-2.24221e-07
-3.58504e-07
-2.58795e-07
-3.93949e-07
-2.99894e-07
-4.3522e-07
-3.48632e-07
-4.83473e-07
-4.06313e-07
-5.3972e-07
-4.74465e-07
-6.04101e-07
-5.54561e-07
-6.7458e-07
-6.47474e-07
-7.45894e-07
-7.52456e-07
-8.05833e-07
-8.65354e-07
-8.30655e-07
-9.76414e-07
-7.91556e-07
-1.0709e-06
-6.71274e-07
-1.13661e-06
-4.92377e-07
-1.1725e-06
-3.02114e-07
-1.07704e-07
6.54503e-07
-4.23449e-08
6.40101e-07
-1.35213e-07
6.14183e-07
-2.32876e-07
5.77843e-07
-3.23358e-07
5.34293e-07
-3.91194e-07
4.87574e-07
-4.2817e-07
4.41187e-07
-4.3644e-07
3.97349e-07
-4.23992e-07
3.57138e-07
-4.00013e-07
3.20828e-07
-3.70928e-07
2.88239e-07
-3.41309e-07
2.59037e-07
-3.13533e-07
2.32857e-07
-2.88552e-07
2.09358e-07
-2.66525e-07
1.88238e-07
-2.47247e-07
1.69234e-07
-2.30387e-07
1.52108e-07
-2.15602e-07
1.36653e-07
-2.02576e-07
1.2269e-07
-1.91039e-07
1.10049e-07
-1.80764e-07
9.85946e-08
-1.71567e-07
8.81874e-08
-1.63287e-07
7.87232e-08
-1.55801e-07
7.0084e-08
-1.48997e-07
6.21903e-08
-1.42796e-07
5.49425e-08
-1.37119e-07
4.82808e-08
-1.31914e-07
4.21228e-08
-1.27126e-07
3.64228e-08
-1.22722e-07
3.11167e-08
-1.18662e-07
2.61679e-08
-1.14923e-07
2.15293e-08
-1.11477e-07
1.717e-08
-1.08307e-07
1.30549e-08
-1.05392e-07
9.15621e-09
-1.02719e-07
5.44393e-09
-1.00271e-07
1.8948e-09
-9.80366e-08
-1.51933e-09
-9.60032e-08
-4.81864e-09
-9.41619e-08
-8.0329e-09
-9.25018e-08
-1.11644e-08
-9.10248e-08
-1.42423e-08
-8.97187e-08
-1.72608e-08
-8.85868e-08
-2.02492e-08
-8.76141e-08
-2.31991e-08
-8.6803e-08
-2.61317e-08
-8.61396e-08
-2.90441e-08
-8.56236e-08
-3.19438e-08
-8.52469e-08
-3.48389e-08
-8.50048e-08
-3.77245e-08
-8.4897e-08
-4.06196e-08
-8.49144e-08
-4.35135e-08
-8.50621e-08
-4.64297e-08
-8.53295e-08
-4.936e-08
-8.57227e-08
-5.23256e-08
-8.62321e-08
-5.53255e-08
-8.68605e-08
-5.83762e-08
-8.75987e-08
-6.14842e-08
-8.8444e-08
-6.46635e-08
-8.93891e-08
-6.79265e-08
-9.04347e-08
-7.12885e-08
-9.15895e-08
-7.47649e-08
-9.28727e-08
-7.83716e-08
-9.43103e-08
-8.21188e-08
-9.58895e-08
-8.60129e-08
-9.75454e-08
-8.91067e-08
-9.91523e-08
-8.34228e-08
-1.00635e-07
-6.52859e-08
-1.02947e-07
-5.97214e-08
-1.07791e-07
-6.18877e-08
-1.13849e-07
-6.57234e-08
-1.20146e-07
-7.00007e-08
-1.26832e-07
-7.46589e-08
-1.34103e-07
-7.98049e-08
-1.42046e-07
-8.5557e-08
-1.50731e-07
-9.20552e-08
-1.60237e-07
-9.94731e-08
-1.70659e-07
-1.07991e-07
-1.82116e-07
-1.17828e-07
-1.94735e-07
-1.29222e-07
-2.08687e-07
-1.4249e-07
-2.24171e-07
-1.57985e-07
-2.41447e-07
-1.76142e-07
-2.60812e-07
-1.97436e-07
-2.8266e-07
-2.22449e-07
-3.07501e-07
-2.51862e-07
-3.36001e-07
-2.86492e-07
-3.68995e-07
-3.27315e-07
-4.0749e-07
-3.75501e-07
-4.5257e-07
-4.32449e-07
-5.05129e-07
-4.99797e-07
-5.65112e-07
-5.79175e-07
-6.30314e-07
-6.71339e-07
-6.95726e-07
-7.75252e-07
-7.49518e-07
-8.85998e-07
-7.6931e-07
-9.93096e-07
-7.29103e-07
-1.08219e-06
-6.14988e-07
-1.1428e-06
-4.5e-07
-1.17469e-06
-2.77157e-07
-9.97584e-08
6.54505e-07
-3.88026e-08
6.40953e-07
-1.23849e-07
6.16934e-07
-2.13638e-07
5.83167e-07
-2.97581e-07
5.42341e-07
-3.61395e-07
4.98097e-07
-3.97036e-07
4.5366e-07
-4.05999e-07
4.11273e-07
-3.95399e-07
3.72036e-07
-3.73707e-07
3.3632e-07
-3.46951e-07
3.0404e-07
-3.19489e-07
2.74939e-07
-2.93632e-07
2.48692e-07
-2.7034e-07
2.24984e-07
-2.49811e-07
2.03523e-07
-2.31867e-07
1.84055e-07
-2.16207e-07
1.66369e-07
-2.02504e-07
1.50273e-07
-1.90462e-07
1.356e-07
-1.79822e-07
1.22202e-07
-1.70368e-07
1.09946e-07
-1.61918e-07
9.87185e-08
-1.54321e-07
8.8411e-08
-1.47453e-07
7.89313e-08
-1.41213e-07
7.01885e-08
-1.35518e-07
6.21089e-08
-1.303e-07
5.46174e-08
-1.25505e-07
4.76549e-08
-1.21088e-07
4.11604e-08
-1.17012e-07
3.50866e-08
-1.1325e-07
2.93853e-08
-1.09774e-07
2.40179e-08
-1.06565e-07
1.89464e-08
-1.03605e-07
1.41385e-08
-1.00877e-07
9.56223e-09
-9.83686e-08
5.18834e-09
-9.60645e-08
9.89263e-10
-9.39527e-08
-3.06133e-09
-9.20225e-08
-6.99185e-09
-9.02621e-08
-1.08192e-08
-8.86674e-08
-1.45626e-08
-8.7235e-08
-1.82309e-08
-8.59631e-08
-2.1842e-08
-8.48458e-08
-2.54008e-08
-8.38805e-08
-2.89223e-08
-8.30595e-08
-3.24102e-08
-8.23796e-08
-3.58743e-08
-8.18342e-08
-3.93201e-08
-8.14195e-08
-4.27517e-08
-8.11313e-08
-4.61775e-08
-8.09652e-08
-4.95979e-08
-8.09193e-08
-5.30235e-08
-8.09887e-08
-5.6454e-08
-8.11728e-08
-5.99e-08
-8.14669e-08
-6.33628e-08
-8.18699e-08
-6.68515e-08
-8.23766e-08
-7.03699e-08
-8.29829e-08
-7.39253e-08
-8.36819e-08
-7.75231e-08
-8.44677e-08
-8.11696e-08
-8.53393e-08
-8.48709e-08
-8.63048e-08
-8.86324e-08
-8.73829e-08
-9.24582e-08
-8.85986e-08
-9.63469e-08
-8.99422e-08
-1.00301e-07
-9.13453e-08
-1.03075e-07
-9.27082e-08
-9.64027e-08
-9.40294e-08
-7.84919e-08
-9.63027e-08
-7.52888e-08
-1.01103e-07
-7.77537e-08
-1.0675e-07
-8.17571e-08
-1.12646e-07
-8.6184e-08
-1.18929e-07
-9.11048e-08
-1.2577e-07
-9.66131e-08
-1.33241e-07
-1.02822e-07
-1.414e-07
-1.09864e-07
-1.50316e-07
-1.17892e-07
-1.60076e-07
-1.2709e-07
-1.70784e-07
-1.37671e-07
-1.82569e-07
-1.49875e-07
-1.95578e-07
-1.63971e-07
-2.09996e-07
-1.80284e-07
-2.26059e-07
-1.99209e-07
-2.44063e-07
-2.21212e-07
-2.64382e-07
-2.46831e-07
-2.87512e-07
-2.7672e-07
-3.14089e-07
-3.11659e-07
-3.44911e-07
-3.52599e-07
-3.80926e-07
-4.00689e-07
-4.23132e-07
-4.573e-07
-4.72296e-07
-5.24001e-07
-5.28182e-07
-6.02123e-07
-5.88595e-07
-6.92209e-07
-6.48644e-07
-7.93032e-07
-6.96815e-07
-8.99359e-07
-7.12249e-07
-1.00117e-06
-6.7121e-07
-1.08543e-06
-5.62626e-07
-1.1431e-06
-4.09972e-07
-1.17429e-06
-2.52697e-07
-9.13972e-08
6.54896e-07
-3.56494e-08
6.42414e-07
-1.13523e-07
6.20036e-07
-1.9595e-07
5.88264e-07
-2.73623e-07
5.49452e-07
-3.33408e-07
5.06941e-07
-3.67535e-07
4.63851e-07
-3.7696e-07
4.22361e-07
-3.67998e-07
3.83662e-07
-3.48379e-07
3.4825e-07
-3.23781e-07
3.16135e-07
-2.98329e-07
2.87079e-07
-2.74267e-07
2.60778e-07
-2.52554e-07
2.36923e-07
-2.33409e-07
2.15241e-07
-2.16694e-07
1.95485e-07
-2.02133e-07
1.77445e-07
-1.89421e-07
1.60938e-07
-1.78276e-07
1.45802e-07
-1.68456e-07
1.31895e-07
-1.59751e-07
1.1909e-07
-1.51987e-07
1.07277e-07
-1.45019e-07
9.63579e-08
-1.38727e-07
8.6244e-08
-1.33014e-07
7.68559e-08
-1.27801e-07
6.81201e-08
-1.23022e-07
5.99725e-08
-1.18626e-07
5.23531e-08
-1.14571e-07
4.52094e-08
-1.10824e-07
3.84916e-08
-1.07357e-07
3.21565e-08
-1.04149e-07
2.61642e-08
-1.0118e-07
2.04787e-08
-9.84348e-08
1.50669e-08
-9.58992e-08
9.89713e-09
-9.35603e-08
4.94014e-09
-9.14051e-08
1.69694e-10
-8.94225e-08
-4.4432e-09
-8.76016e-08
-8.92814e-09
-8.59327e-08
-1.33063e-08
-8.4412e-08
-1.75906e-08
-8.30382e-08
-2.17947e-08
-8.18086e-08
-2.59288e-08
-8.07204e-08
-3.00049e-08
-7.9769e-08
-3.4031e-08
-7.89506e-08
-3.80165e-08
-7.826e-08
-4.19681e-08
-7.76934e-08
-4.58925e-08
-7.72463e-08
-4.97958e-08
-7.69151e-08
-5.36822e-08
-7.66965e-08
-5.75576e-08
-7.6587e-08
-6.1425e-08
-7.65841e-08
-6.52897e-08
-7.66846e-08
-6.91542e-08
-7.68862e-08
-7.30235e-08
-7.71857e-08
-7.69001e-08
-7.75797e-08
-8.07876e-08
-7.8063e-08
-8.46884e-08
-7.86298e-08
-8.86052e-08
-7.92745e-08
-9.25404e-08
-7.99958e-08
-9.64959e-08
-8.0802e-08
-1.00473e-07
-8.17105e-08
-1.04473e-07
-8.27461e-08
-1.08492e-07
-8.38984e-08
-1.12533e-07
-8.50958e-08
-1.15059e-07
-8.62598e-08
-1.07496e-07
-8.74562e-08
-9.03052e-08
-8.97351e-08
-8.89823e-08
-9.44149e-08
-9.1849e-08
-9.96474e-08
-9.60049e-08
-1.05117e-07
-1.00636e-07
-1.10976e-07
-1.05818e-07
-1.17363e-07
-1.11651e-07
-1.24337e-07
-1.18244e-07
-1.31948e-07
-1.25725e-07
-1.40261e-07
-1.34242e-07
-1.49354e-07
-1.43967e-07
-1.59322e-07
-1.55101e-07
-1.70282e-07
-1.67886e-07
-1.82381e-07
-1.82581e-07
-1.9579e-07
-1.99507e-07
-2.10729e-07
-2.19023e-07
-2.27474e-07
-2.41576e-07
-2.46385e-07
-2.67699e-07
-2.67936e-07
-2.98039e-07
-2.92731e-07
-3.3338e-07
-3.21524e-07
-3.74677e-07
-3.55192e-07
-4.23077e-07
-3.94644e-07
-4.79932e-07
-4.40522e-07
-5.46726e-07
-4.92438e-07
-6.24548e-07
-5.4832e-07
-7.13702e-07
-6.03345e-07
-8.12691e-07
-6.46307e-07
-9.15888e-07
-6.58034e-07
-1.01335e-06
-6.16822e-07
-1.09284e-06
-5.14067e-07
-1.14652e-06
-3.73306e-07
-1.17518e-06
-2.30519e-07
-8.38925e-08
6.55103e-07
-3.2702e-08
6.43369e-07
-1.03928e-07
6.22266e-07
-1.79473e-07
5.921e-07
-2.51159e-07
5.54936e-07
-3.06949e-07
5.13868e-07
-3.394e-07
4.71888e-07
-3.49031e-07
4.31194e-07
-3.41449e-07
3.92989e-07
-3.23691e-07
3.57843e-07
-3.01109e-07
3.25831e-07
-2.77575e-07
2.96773e-07
-2.55238e-07
2.70401e-07
-2.35042e-07
2.46425e-07
-2.17227e-07
2.24579e-07
-2.01688e-07
2.04618e-07
-1.88169e-07
1.86331e-07
-1.76389e-07
1.69531e-07
-1.66084e-07
1.54058e-07
-1.57021e-07
1.39775e-07
-1.49005e-07
1.2656e-07
-1.4187e-07
1.14304e-07
-1.35479e-07
1.02914e-07
-1.29718e-07
9.23081e-08
-1.24492e-07
8.24106e-08
-1.19725e-07
7.31545e-08
-1.15356e-07
6.44783e-08
-1.11336e-07
5.63267e-08
-1.07624e-07
4.86491e-08
-1.0419e-07
4.13999e-08
-1.01008e-07
3.45369e-08
-9.80584e-08
2.80215e-08
-9.53235e-08
2.18184e-08
-9.27895e-08
1.58948e-08
-9.04436e-08
1.02197e-08
-8.82743e-08
4.76431e-09
-8.62694e-08
-4.97175e-10
-8.44191e-08
-5.59546e-09
-8.27123e-08
-1.05621e-08
-8.11406e-08
-1.54175e-08
-7.97012e-08
-2.01743e-08
-7.83935e-08
-2.4844e-08
-7.72161e-08
-2.94375e-08
-7.61663e-08
-3.39643e-08
-7.52411e-08
-3.84335e-08
-7.44363e-08
-4.28527e-08
-7.37483e-08
-4.72292e-08
-7.31729e-08
-5.15691e-08
-7.27069e-08
-5.5878e-08
-7.23466e-08
-6.01606e-08
-7.20893e-08
-6.44212e-08
-7.19317e-08
-6.86634e-08
-7.18712e-08
-7.28903e-08
-7.19052e-08
-7.71049e-08
-7.2031e-08
-8.13092e-08
-7.22458e-08
-8.55048e-08
-7.25461e-08
-8.9693e-08
-7.29275e-08
-9.3875e-08
-7.33842e-08
-9.80509e-08
-7.3911e-08
-1.02221e-07
-7.45063e-08
-1.06386e-07
-7.51782e-08
-1.10545e-07
-7.59425e-08
-1.147e-07
-7.68233e-08
-1.1885e-07
-7.78074e-08
-1.22996e-07
-7.88228e-08
-1.25372e-07
-7.98043e-08
-1.17257e-07
-8.08536e-08
-1.00556e-07
-8.30486e-08
-1.00694e-07
-8.75913e-08
-1.04013e-07
-9.24625e-08
-1.08379e-07
-9.75325e-08
-1.13242e-07
-1.02975e-07
-1.18689e-07
-1.08909e-07
-1.24822e-07
-1.15383e-07
-1.31752e-07
-1.22447e-07
-1.39608e-07
-1.3016e-07
-1.48536e-07
-1.38594e-07
-1.58702e-07
-1.47838e-07
-1.70299e-07
-1.58e-07
-1.83556e-07
-1.69215e-07
-1.98744e-07
-1.81652e-07
-2.1617e-07
-1.95516e-07
-2.36198e-07
-2.11068e-07
-2.59263e-07
-2.28647e-07
-2.85896e-07
-2.48701e-07
-3.1674e-07
-2.71799e-07
-3.52579e-07
-2.98646e-07
-3.94359e-07
-3.30054e-07
-4.43194e-07
-3.66853e-07
-5.00369e-07
-4.09576e-07
-5.67264e-07
-4.57692e-07
-6.44775e-07
-5.09295e-07
-7.32858e-07
-5.59736e-07
-8.29718e-07
-5.98055e-07
-9.29598e-07
-6.06656e-07
-1.02282e-06
-5.65713e-07
-1.09802e-06
-4.68783e-07
-1.14848e-06
-3.39216e-07
-1.17552e-06
-2.09716e-07
-7.66839e-08
6.55238e-07
-2.98811e-08
6.44017e-07
-9.47946e-08
6.23819e-07
-1.63773e-07
5.94833e-07
-2.29651e-07
5.58919e-07
-2.81458e-07
5.18984e-07
-3.12129e-07
4.7791e-07
-3.2182e-07
4.37887e-07
-3.15493e-07
4.00124e-07
-2.99468e-07
3.65246e-07
-2.78811e-07
3.33373e-07
-2.57132e-07
3.04368e-07
-2.36475e-07
2.77988e-07
-2.17763e-07
2.5396e-07
-2.01248e-07
2.32017e-07
-1.86843e-07
2.11918e-07
-1.74323e-07
1.93453e-07
-1.63429e-07
1.76438e-07
-1.53916e-07
1.60714e-07
-1.45566e-07
1.46147e-07
-1.38195e-07
1.3262e-07
-1.31648e-07
1.20027e-07
-1.25795e-07
1.08276e-07
-1.20527e-07
9.72879e-08
-1.15757e-07
8.69914e-08
-1.11409e-07
7.7323e-08
-1.07427e-07
6.82247e-08
-1.03763e-07
5.9644e-08
-1.00378e-07
5.15331e-08
-9.72446e-08
4.38483e-08
-9.43374e-08
3.65493e-08
-9.16379e-08
2.9599e-08
-8.91307e-08
2.29632e-08
-8.68027e-08
1.66102e-08
-8.46427e-08
1.05094e-08
-8.26401e-08
4.63341e-09
-8.07841e-08
-1.04264e-09
-7.90657e-08
-6.5513e-09
-7.74749e-08
-1.19277e-08
-7.6004e-08
-1.7192e-08
-7.46512e-08
-2.23549e-08
-7.34164e-08
-2.74266e-08
-7.22984e-08
-3.24165e-08
-7.12954e-08
-3.73335e-08
-7.04045e-08
-4.21852e-08
-6.96225e-08
-4.69792e-08
-6.89458e-08
-5.17215e-08
-6.83712e-08
-5.64181e-08
-6.78954e-08
-6.10737e-08
-6.75156e-08
-6.56929e-08
-6.72289e-08
-7.02792e-08
-6.70328e-08
-7.48357e-08
-6.69248e-08
-7.93648e-08
-6.69027e-08
-8.38686e-08
-6.69641e-08
-8.83483e-08
-6.71066e-08
-9.28047e-08
-6.73273e-08
-9.7238e-08
-6.76221e-08
-1.01648e-07
-6.7986e-08
-1.06033e-07
-6.84142e-08
-1.10392e-07
-6.89051e-08
-1.14724e-07
-6.94661e-08
-1.1903e-07
-7.01117e-08
-1.23307e-07
-7.0864e-08
-1.27557e-07
-7.17065e-08
-1.31776e-07
-7.25703e-08
-1.34028e-07
-7.34034e-08
-1.25493e-07
-7.4338e-08
-1.098e-07
-7.64785e-08
-1.10877e-07
-8.07899e-08
-1.14531e-07
-8.52906e-08
-1.1906e-07
-8.99611e-08
-1.24119e-07
-9.49852e-08
-1.29793e-07
-1.00464e-07
-1.36183e-07
-1.06441e-07
-1.43399e-07
-1.12961e-07
-1.51569e-07
-1.20081e-07
-1.60836e-07
-1.27867e-07
-1.71365e-07
-1.36403e-07
-1.83347e-07
-1.45791e-07
-1.97005e-07
-1.56156e-07
-2.12602e-07
-1.67654e-07
-2.30445e-07
-1.80481e-07
-2.50896e-07
-1.94883e-07
-2.7439e-07
-2.11179e-07
-3.01455e-07
-2.29792e-07
-3.32731e-07
-2.51255e-07
-3.68994e-07
-2.76223e-07
-4.1117e-07
-3.05443e-07
-4.60342e-07
-3.39674e-07
-5.1773e-07
-3.79356e-07
-5.84602e-07
-4.23831e-07
-6.61757e-07
-4.71303e-07
-7.48896e-07
-5.17427e-07
-8.4394e-07
-5.51495e-07
-9.41111e-07
-5.57312e-07
-1.03089e-06
-5.16975e-07
-1.10257e-06
-4.25976e-07
-1.15032e-06
-3.07185e-07
-1.1759e-06
-1.90119e-07
-6.98225e-08
6.55342e-07
-2.71555e-08
6.44525e-07
-8.60104e-08
6.25055e-07
-1.48663e-07
5.97032e-07
-2.08871e-07
5.62151e-07
-2.56699e-07
5.23157e-07
-2.85501e-07
4.82838e-07
-2.95129e-07
4.43357e-07
-2.89939e-07
4.05953e-07
-2.7556e-07
3.71281e-07
-2.56761e-07
3.39508e-07
-2.36893e-07
3.10529e-07
-2.17886e-07
2.84121e-07
-2.00632e-07
2.60025e-07
-1.85391e-07
2.37982e-07
-1.72098e-07
2.17758e-07
-1.60551e-07
1.99144e-07
-1.50515e-07
1.81955e-07
-1.41762e-07
1.66036e-07
-1.34093e-07
1.51248e-07
-1.27336e-07
1.37476e-07
-1.21344e-07
1.24619e-07
-1.15997e-07
1.12587e-07
-1.11193e-07
1.013e-07
-1.06849e-07
9.06895e-08
-1.02896e-07
8.06938e-08
-9.92769e-08
7.12579e-08
-9.5948e-08
6.23319e-08
-9.28735e-08
5.38699e-08
-9.00252e-08
4.58304e-08
-8.73808e-08
3.81748e-08
-8.49222e-08
3.08675e-08
-8.26353e-08
2.38756e-08
-8.0508e-08
1.71686e-08
-7.85303e-08
1.07166e-08
-7.66924e-08
4.4934e-09
-7.49848e-08
-1.52509e-09
-7.33993e-08
-7.37357e-09
-7.1927e-08
-1.30905e-08
-7.05608e-08
-1.86956e-08
-6.93001e-08
-2.41983e-08
-6.81447e-08
-2.96075e-08
-6.70941e-08
-3.49316e-08
-6.61466e-08
-4.01782e-08
-6.53e-08
-4.53544e-08
-6.45512e-08
-5.04665e-08
-6.38971e-08
-5.55201e-08
-6.3335e-08
-6.05204e-08
-6.28619e-08
-6.54716e-08
-6.24752e-08
-7.03773e-08
-6.21724e-08
-7.52408e-08
-6.19514e-08
-8.00643e-08
-6.18098e-08
-8.48497e-08
-6.17457e-08
-8.95981e-08
-6.17571e-08
-9.43101e-08
-6.18421e-08
-9.89857e-08
-6.1998e-08
-1.03624e-07
-6.22216e-08
-1.08224e-07
-6.25083e-08
-1.12784e-07
-6.28542e-08
-1.173e-07
-6.32575e-08
-1.21772e-07
-6.37256e-08
-1.26197e-07
-6.42717e-08
-1.30574e-07
-6.49168e-08
-1.34901e-07
-6.56418e-08
-1.39171e-07
-6.63828e-08
-1.41407e-07
-6.70928e-08
-1.32565e-07
-6.79154e-08
-1.17891e-07
-6.9975e-08
-1.19516e-07
-7.39994e-08
-1.23449e-07
-7.81393e-08
-1.28135e-07
-8.24181e-08
-1.33374e-07
-8.70259e-08
-1.39253e-07
-9.20521e-08
-1.4587e-07
-9.75359e-08
-1.53336e-07
-1.0352e-07
-1.61776e-07
-1.10055e-07
-1.71331e-07
-1.17205e-07
-1.82166e-07
-1.25048e-07
-1.94471e-07
-1.33678e-07
-2.08466e-07
-1.43212e-07
-2.24411e-07
-1.53798e-07
-2.4261e-07
-1.65618e-07
-2.63425e-07
-1.78902e-07
-2.87292e-07
-1.93952e-07
-3.14737e-07
-2.11161e-07
-3.46397e-07
-2.31027e-07
-3.83042e-07
-2.54155e-07
-4.25583e-07
-2.81234e-07
-4.75076e-07
-3.12949e-07
-5.32696e-07
-3.49647e-07
-5.996e-07
-3.90586e-07
-6.76428e-07
-4.34085e-07
-7.62779e-07
-4.76021e-07
-8.56286e-07
-5.06118e-07
-9.51108e-07
-5.09447e-07
-1.03786e-06
-4.70064e-07
-1.10644e-06
-3.85155e-07
-1.15185e-06
-2.76822e-07
-1.1762e-06
-1.7149e-07
-6.32263e-08
6.55427e-07
-2.45035e-08
6.44942e-07
-7.74983e-08
6.26078e-07
-1.34012e-07
5.98865e-07
-1.88646e-07
5.64854e-07
-2.32475e-07
5.26648e-07
-2.5931e-07
4.8695e-07
-2.68757e-07
4.47881e-07
-2.64577e-07
4.10747e-07
-2.51797e-07
3.76227e-07
-2.3482e-07
3.44515e-07
-2.16738e-07
3.15536e-07
-1.99366e-07
2.89085e-07
-1.83561e-07
2.64916e-07
-1.69586e-07
2.42779e-07
-1.57394e-07
2.22441e-07
-1.46807e-07
2.03697e-07
-1.37613e-07
1.86364e-07
-1.29603e-07
1.70283e-07
-1.22594e-07
1.55318e-07
-1.16428e-07
1.41353e-07
-1.1097e-07
1.28285e-07
-1.06108e-07
1.16027e-07
-1.01746e-07
1.04503e-07
-9.78078e-08
9.36418e-08
-9.4228e-08
8.33843e-08
-9.09545e-08
7.36769e-08
-8.79449e-08
6.44714e-08
-8.51657e-08
5.5724e-08
-8.25903e-08
4.73946e-08
-8.01976e-08
3.94464e-08
-7.79711e-08
3.18453e-08
-7.58973e-08
2.45599e-08
-7.39653e-08
1.75605e-08
-7.21657e-08
1.0819e-08
-7.049e-08
4.30965e-09
-6.89293e-08
-1.99031e-09
-6.74769e-08
-8.11855e-09
-6.61243e-08
-1.41165e-08
-6.48658e-08
-2.0004e-08
-6.3701e-08
-2.57888e-08
-6.26302e-08
-3.14789e-08
-6.16527e-08
-3.70814e-08
-6.07673e-08
-4.26033e-08
-5.99718e-08
-4.80509e-08
-5.92638e-08
-5.34298e-08
-5.86404e-08
-5.8745e-08
-5.80991e-08
-6.40007e-08
-5.76375e-08
-6.92009e-08
-5.72533e-08
-7.43483e-08
-5.69444e-08
-7.94456e-08
-5.67088e-08
-8.44943e-08
-5.65446e-08
-8.94957e-08
-5.64503e-08
-9.44503e-08
-5.64242e-08
-9.93582e-08
-5.64646e-08
-1.04219e-07
-5.65696e-08
-1.0903e-07
-5.67362e-08
-1.13791e-07
-5.69606e-08
-1.18499e-07
-5.72394e-08
-1.23151e-07
-5.75713e-08
-1.27745e-07
-5.79631e-08
-1.32276e-07
-5.84277e-08
-1.36744e-07
-5.89834e-08
-1.41142e-07
-5.96133e-08
-1.45463e-07
-6.02564e-08
-1.47746e-07
-6.08718e-08
-1.38737e-07
-6.16047e-08
-1.24851e-07
-6.35547e-08
-1.26871e-07
-6.72551e-08
-1.30989e-07
-7.10227e-08
-1.3582e-07
-7.49129e-08
-1.41225e-07
-7.91073e-08
-1.4729e-07
-8.36848e-08
-1.54111e-07
-8.8681e-08
-1.61798e-07
-9.41349e-08
-1.70474e-07
-1.00095e-07
-1.80281e-07
-1.06619e-07
-1.9138e-07
-1.13779e-07
-2.03962e-07
-1.21665e-07
-2.18247e-07
-1.30384e-07
-2.34491e-07
-1.40073e-07
-2.53e-07
-1.50903e-07
-2.74133e-07
-1.63089e-07
-2.98329e-07
-1.76911e-07
-3.26116e-07
-1.92737e-07
-3.58127e-07
-2.11025e-07
-3.95129e-07
-2.32333e-07
-4.38022e-07
-2.57287e-07
-4.87842e-07
-2.86501e-07
-5.45726e-07
-3.2023e-07
-6.12725e-07
-3.57691e-07
-6.8932e-07
-3.97343e-07
-7.75037e-07
-4.35167e-07
-8.67259e-07
-4.61486e-07
-9.60027e-07
-4.6262e-07
-1.04407e-06
-4.24566e-07
-1.10988e-06
-3.45962e-07
-1.1532e-06
-2.4786e-07
-1.17647e-06
-1.53681e-07
-5.68603e-08
6.55496e-07
-2.19077e-08
6.45289e-07
-6.91991e-08
6.26942e-07
-1.19719e-07
6.00423e-07
-1.68842e-07
5.6716e-07
-2.08632e-07
5.29628e-07
-2.33395e-07
4.90451e-07
-2.4254e-07
4.51727e-07
-2.3927e-07
4.14807e-07
-2.28046e-07
3.80387e-07
-2.12859e-07
3.48697e-07
-1.96551e-07
3.19688e-07
-1.80815e-07
2.93176e-07
-1.66462e-07
2.68923e-07
-1.53756e-07
2.46687e-07
-1.42666e-07
2.26239e-07
-1.33038e-07
2.07374e-07
-1.24679e-07
1.89909e-07
-1.17403e-07
1.73688e-07
-1.11044e-07
1.58573e-07
-1.05456e-07
1.44445e-07
-1.00518e-07
1.31205e-07
-9.6125e-08
1.18763e-07
-9.21906e-08
1.07044e-07
-8.86425e-08
9.598e-08
-8.54214e-08
8.55109e-08
-8.24787e-08
7.55838e-08
-7.97754e-08
6.61516e-08
-7.72795e-08
5.71719e-08
-7.49666e-08
4.8606e-08
-7.28169e-08
4.04183e-08
-7.08151e-08
3.25763e-08
-6.89486e-08
2.50496e-08
-6.72074e-08
1.78096e-08
-6.55831e-08
1.08293e-08
-6.40679e-08
4.0839e-09
-6.26536e-08
-2.4483e-09
-6.13349e-08
-8.80777e-09
-6.01041e-08
-1.5039e-08
-5.8957e-08
-2.11612e-08
-5.78932e-08
-2.7181e-08
-5.6913e-08
-3.31052e-08
-5.60154e-08
-3.89405e-08
-5.51993e-08
-4.46929e-08
-5.44628e-08
-5.03683e-08
-5.38035e-08
-5.59714e-08
-5.32194e-08
-6.15069e-08
-5.27079e-08
-6.69782e-08
-5.22672e-08
-7.23887e-08
-5.18951e-08
-7.77406e-08
-5.15899e-08
-8.30358e-08
-5.13499e-08
-8.82755e-08
-5.11737e-08
-9.34601e-08
-5.10599e-08
-9.85897e-08
-5.10072e-08
-1.03664e-07
-5.10143e-08
-1.08681e-07
-5.10793e-08
-1.13641e-07
-5.12001e-08
-1.1854e-07
-5.13733e-08
-1.23377e-07
-5.15959e-08
-1.28147e-07
-5.18677e-08
-1.32849e-07
-5.21933e-08
-1.37479e-07
-5.25872e-08
-1.42038e-07
-5.30618e-08
-1.46519e-07
-5.36047e-08
-1.5092e-07
-5.41521e-08
-1.53315e-07
-5.46689e-08
-1.44185e-07
-5.52925e-08
-1.30659e-07
-5.70848e-08
-1.33018e-07
-6.04714e-08
-1.37322e-07
-6.38939e-08
-1.42308e-07
-6.74154e-08
-1.47879e-07
-7.12098e-08
-1.54123e-07
-7.5349e-08
-1.61135e-07
-7.98664e-08
-1.69025e-07
-8.47985e-08
-1.77916e-07
-9.01904e-08
-1.87947e-07
-9.60967e-08
-1.99283e-07
-1.02584e-07
-2.1211e-07
-1.09733e-07
-2.26651e-07
-1.17647e-07
-2.43162e-07
-1.2645e-07
-2.6195e-07
-1.36299e-07
-2.83373e-07
-1.47395e-07
-3.0787e-07
-1.59997e-07
-3.35972e-07
-1.74443e-07
-3.68318e-07
-1.91155e-07
-4.0567e-07
-2.10639e-07
-4.4892e-07
-2.33461e-07
-4.99088e-07
-2.60162e-07
-5.57268e-07
-2.90916e-07
-6.24394e-07
-3.24941e-07
-7.00834e-07
-3.60802e-07
-7.85989e-07
-3.94586e-07
-8.77052e-07
-4.17271e-07
-9.6794e-07
-4.16485e-07
-1.04952e-06
-3.80131e-07
-1.11285e-06
-3.08064e-07
-1.15435e-06
-2.20031e-07
-1.1767e-06
-1.36529e-07
-5.06732e-08
6.55554e-07
-1.93561e-08
6.45588e-07
-6.10709e-08
6.27694e-07
-1.05711e-07
6.01788e-07
-1.49362e-07
5.69187e-07
-1.85059e-07
5.32248e-07
-2.07634e-07
4.93523e-07
-2.16356e-07
4.55094e-07
-2.13904e-07
4.18335e-07
-2.04184e-07
3.83974e-07
-1.90766e-07
3.52273e-07
-1.76232e-07
3.23208e-07
-1.6214e-07
2.96613e-07
-1.49253e-07
2.72264e-07
-1.37828e-07
2.49921e-07
-1.2785e-07
2.2936e-07
-1.19186e-07
2.10377e-07
-1.11666e-07
1.92789e-07
-1.05125e-07
1.7644e-07
-9.94115e-08
1.61191e-07
-9.43974e-08
1.46925e-07
-8.99716e-08
1.33537e-07
-8.60402e-08
1.20942e-07
-8.25239e-08
1.09062e-07
-7.9357e-08
9.78301e-08
-7.64851e-08
8.71876e-08
-7.38637e-08
7.70812e-08
-7.14567e-08
6.74642e-08
-6.92356e-08
5.8295e-08
-6.7177e-08
4.95358e-08
-6.52632e-08
4.11522e-08
-6.34798e-08
3.31125e-08
-6.18156e-08
2.53872e-08
-6.02613e-08
1.79488e-08
-5.88092e-08
1.07709e-08
-5.74525e-08
3.82986e-09
-5.61839e-08
-2.89556e-09
-5.49989e-08
-9.4484e-09
-5.38913e-08
-1.58744e-08
-5.286e-08
-2.21926e-08
-5.19018e-08
-2.84082e-08
-5.10179e-08
-3.45278e-08
-5.0206e-08
-4.05574e-08
-4.94653e-08
-4.65026e-08
-4.87941e-08
-5.23685e-08
-4.81906e-08
-5.81596e-08
-4.76528e-08
-6.38797e-08
-4.71788e-08
-6.95321e-08
-4.67667e-08
-7.51193e-08
-4.64151e-08
-8.06433e-08
-4.61223e-08
-8.61054e-08
-4.58871e-08
-9.15063e-08
-4.57082e-08
-9.68462e-08
-4.55845e-08
-1.02125e-07
-4.55152e-08
-1.07341e-07
-4.54989e-08
-1.12493e-07
-4.55345e-08
-1.1758e-07
-4.56197e-08
-1.22599e-07
-4.57521e-08
-1.27548e-07
-4.59285e-08