/*--------------------------------*- C++ -*----------------------------------*\
  =========                 |
  \\      /  F ield         | OpenFOAM: The Open Source CFD Toolbox
   \\    /   O peration     | Website:  https://openfoam.org
    \\  /    A nd           | Version:  8
     \\/     M anipulation  |
\*---------------------------------------------------------------------------*/
FoamFile
{
    version     2.0;
    format      ascii;
    class       volScalarField;
    location    "20/fluid";
    object      Qdot;
}
// * * * * * * * * * * * * * * * * * * * * * * * * * * * * * * * * * * * * * //

dimensions      [1 -1 -3 0 0 0 0];

internalField   nonuniform List<scalar> 
4000
(
3.85037e-13
2.24572e-19
-2.3729e-12
9.58799e-12
1.92839e-10
5.13183e-09
-1.21475e-07
1.24102e-06
1.83003e-05
0.000165971
0.00118453
0.00683692
0.0328141
0.134219
0.477816
1.50706
4.27601
11.054
26.2994
58.0933
120.022
233.588
430.299
753.524
1259.07
2013.8
3091.93
4568.63
6512.82
8978.54
12001.8
15596.2
19761.2
24483.2
29752.3
35563.3
41951.5
48922.6
56549.5
64882.3
74675.2
86541.8
100743
117258
136852
159884
187253
219724
258225
304250
358769
424283
502059
595736
707454
842035
1.00324e+06
1.1973e+06
1.43044e+06
1.71131e+06
2.05022e+06
2.46115e+06
2.96216e+06
3.57785e+06
4.34196e+06
6.6306e+06
2.5764e+07
6.93366e+07
7.03788e+07
2.09649e+07
1.13606e+07
8.55346e+06
7.22296e+06
6.04429e+06
5.01465e+06
4.12421e+06
3.36119e+06
2.71474e+06
2.16939e+06
1.7143e+06
1.33714e+06
1.02852e+06
778573
579498
424145
305638
203371
102644
38938.5
10644.3
1939.28
239.519
19.2812
0.939712
0.026143
0.000429726
5.39247e-06
8.6593e-08
2.82379e-09
1.4167e-10
0
3.3034e-07
-2.35556e-12
-9.1579e-18
1.50894e-10
3.39053e-09
-1.55695e-07
1.16954e-06
1.3248e-05
0.000125404
0.000931064
0.00556445
0.0275396
0.11578
0.422191
1.35839
3.92929
10.3477
24.9998
55.9742
117.172
230.644
429.406
759.887
1283.59
2077.29
3231.13
4844.34
7018.74
9850.23
13419.7
17783.4
22965.6
28953.5
35701.1
43147.6
51229.8
59854.1
68993.3
79629.3
92692.3
107760
125081
145119
168457
195761
227821
265584
310114
362778
425084
498991
586703
691038
815265
963449
1.14044e+06
1.35219e+06
1.60592e+06
1.91064e+06
2.27776e+06
2.7222e+06
3.26345e+06
3.92742e+06
4.74593e+06
7.25367e+06
2.81625e+07
7.22982e+07
6.73669e+07
2.05474e+07
1.12486e+07
8.61636e+06
7.24474e+06
6.03823e+06
4.98871e+06
4.08445e+06
3.31109e+06
2.65855e+06
2.11289e+06
1.6596e+06
1.28655e+06
982963
739059
546230
397027
283895
184816
89351.1
33052.5
8531.8
1459.15
167.537
12.3571
0.545407
0.0138404
0.00021849
2.89207e-06
5.33885e-08
2.0557e-09
1.10728e-10
-1.75188e-13
0
1.11327e-13
-4.84214e-12
1.07269e-10
2.57164e-09
5.29065e-08
8.64217e-07
9.98651e-06
9.55481e-05
0.000724533
0.00444187
0.0225737
0.0973527
0.363832
1.20021
3.54908
9.4924
23.3091
52.9836
112.246
223.138
418.584
744.522
1260.77
2039.72
3162.3
4710.99
6760.76
9369.91
12572.7
16376.2
20762
25691.4
31113.5
36975.7
43251.9
49872.2
57294.8
66634.7
78127.7
91511.3
107186
125676
147561
173575
204577
241601
285915
338995
402718
479236
571295
682076
815569
976488
1.17063e+06
1.40492e+06
1.68786e+06
2.02981e+06
2.44374e+06
2.94615e+06
3.55807e+06
4.30594e+06
5.21841e+06
8.12042e+06
3.19603e+07
7.71697e+07
6.05313e+07
1.92054e+07
1.1093e+07
8.72125e+06
7.2879e+06
6.04074e+06
4.9651e+06
4.04516e+06
3.26527e+06
2.60541e+06
2.05553e+06
1.60285e+06
1.23374e+06
935265
697063
510270
367199
259287
162882
73426
26944.2
6617.8
1086.66
120.516
8.63077
0.373526
0.00945891
0.000152393
2.11825e-06
4.21479e-08
1.73849e-09
9.44544e-11
0
9.84651e-13
1.82194e-12
4.04052e-12
8.56368e-11
2.01945e-09
-1.78044e-07
6.7956e-07
7.74934e-06
7.65021e-05
0.000589758
0.00367976
0.0190475
0.0837176
0.318978
1.0727
3.22202
8.77799
21.9153
50.5905
108.814
219.451
417.522
753.284
1294.48
2126.81
3351.64
5080.32
7424.63
10483.9
14330
18991.8
24443.4
30598.4
37318.8
44454.7
51820.9
59252.3
68240.2
80058.7
93777.3
109567
127897
149304
174454
204121
239250
280955
330563
389699
460276
544665
645664
766752
912084
1.08678e+06
1.29704e+06
1.55043e+06
1.8562e+06
2.22572e+06
2.6732e+06
3.21667e+06
3.87916e+06
4.68876e+06
5.67522e+06
9.42528e+06
3.7261e+07
8.38341e+07
5.2018e+07
1.775e+07
1.08104e+07
8.74964e+06
7.25787e+06
5.97457e+06
4.87842e+06
3.94917e+06
3.16747e+06
2.51558e+06
1.97367e+06
1.52678e+06
1.16417e+06
874705
646365
469019
334555
233815
143673
61805.2
22268.4
5269.71
838.873
90.4624
6.30675
0.266689
0.0066747
0.000108955
1.58971e-06
3.41022e-08
1.50954e-09
9.06271e-11
4.64902e-20
0
0
-6.33063e-18
7.46251e-11
1.65751e-09
3.35047e-08
7.56819e-07
6.57194e-06
6.31304e-05
0.000494011
0.0031342
0.0164994
0.0737434
0.285434
0.973605
2.96765
8.19958
20.721
48.349
104.978
213.505
409.076
742.042
1279.81
2106.27
3317.92
5016.08
7295.18
10229.4
13859.4
18181.8
23143.1
28640.5
34531.7
40669.3
46875.1
53267.2
61594.9
72715.8
85565.5
100531
118081
138789
163338
192567
227484
269308
319514
379881
452573
540188
645892
773492
927620
1.11386e+06
1.33899e+06
1.6112e+06
1.94042e+06
2.33892e+06
2.82195e+06
3.4087e+06
4.12311e+06
4.995e+06
6.0564e+06
1.09562e+07
4.26909e+07
8.88733e+07
4.36534e+07
1.67469e+07
1.05022e+07
8.71084e+06
7.17414e+06
5.86657e+06
4.76032e+06
3.82983e+06
3.05245e+06
2.40793e+06
1.87806e+06
1.44694e+06
1.09799e+06
818686
600418
432639
306635
212583
128181
53950.1
18757.3
4279.6
659.376
68.9008
4.6555
0.191626
0.00473631
7.85852e-05
1.2098e-06
2.80632e-08
1.33756e-09
7.59158e-11
0
-1.68719e-12
0
-5.14313e-18
4.4604e-11
1.35075e-09
-1.82008e-07
4.40941e-07
5.06745e-06
5.21377e-05
0.000414637
0.00267919
0.0143677
0.0654071
0.257348
0.890844
2.75232
7.70035
19.7238
46.6475
102.67
211.707
411.351
756.903
1324.36
2211.41
3534.5
5424.03
8006.1
11386.8
15627.4
20720.6
26572.4
32999.7
39752.3
46577.7
53168.7
60110.2
69649.6
82235.4
96676.7
113382
132851
155679
182589
214455
252323
297458
351387
415962
493420
586483
698451
833342
996034
1.19245e+06
1.42983e+06
1.7171e+06
2.06488e+06
2.48608e+06
2.99681e+06
3.61723e+06
4.37271e+06
5.29491e+06
6.41779e+06
1.26348e+07
4.88504e+07
9.28903e+07
3.66706e+07
1.57584e+07
1.04505e+07
8.62159e+06
7.06414e+06
5.74397e+06
4.63392e+06
3.70714e+06
2.93865e+06
2.30561e+06
1.78822e+06
1.36924e+06
1.03358e+06
768285
560536
401754
283397
195265
115733
47842.2
16072.5
3535.33
526.182
53.0861
3.46021
0.137952
0.00335369
5.6484e-05
9.20369e-07
2.32558e-08
1.19499e-09
7.81331e-11
0
2.29513e-14
-1.0216e-13
3.71527e-07
4.3385e-11
1.13075e-09
-1.81276e-07
3.59472e-07
4.26338e-06
4.32438e-05
0.000350041
0.00229971
0.0125339
0.05787
0.231294
0.813652
2.55672
7.24831
18.8
44.9878
100.066
208.288
408.052
756.064
1330.48
2231.57
3578.57
5498.75
8113.81
11518.1
15754
20787.8
26494
32656.5
39002.7
45243.5
51072.2
57443.8
66746.7
79048.7
93238.2
109738
129061
151830
178803
210903
249242
295168
350313
416653
496581
592993
709405
850082
1.02021e+06
1.22609e+06
1.47525e+06
1.77689e+06
2.14225e+06
2.58503e+06
3.12225e+06
3.77464e+06
4.56832e+06
5.53595e+06
6.71254e+06
1.41976e+07
5.44831e+07
9.88245e+07
3.14116e+07
1.48551e+07
1.03513e+07
8.49998e+06
6.93493e+06
5.61909e+06
4.51702e+06
3.59911e+06
2.84066e+06
2.2189e+06
1.71334e+06
1.3061e+06
981604
726209
528159
377354
265453
182276
106140
43214.1
14025.6
2971.9
426.722
41.5164
2.60962
0.100907
0.00242093
4.15646e-05
7.18536e-07
1.97364e-08
1.09144e-09
7.48088e-11
5.11118e-15
7.35033e-13
3.32732e-07
-3.62185e-07
4.41697e-11
9.20873e-10
1.78962e-08
2.90605e-07
3.40368e-06
3.56816e-05
0.000292876
0.00195885
0.0108857
0.0512914
0.20888
0.74774
2.38792
6.88957
18.1239
43.9736
99.1447
209.08
414.871
778.47
1387.2
2355.82
3823.95
5946.31
8873.52
12722.8
17541.2
23267.8
29709.2
36545.9
43405.7
49869.6
55592.4
62057.1
72159.5
85578.8
100990
118827
139613
163992
192743
226809
267332
315696
373580
443017
526473
626946
748070
894261
1.07088e+06
1.28442e+06
1.54274e+06
1.85543e+06
2.23407e+06
2.69281e+06
3.24903e+06
3.92459e+06
4.74681e+06
5.74915e+06
6.96691e+06
1.56391e+07
5.99304e+07
1.00726e+08
2.77553e+07
1.40682e+07
1.02355e+07
8.37371e+06
6.80783e+06
5.49704e+06
4.40547e+06
3.50191e+06
2.75768e+06
2.14912e+06
1.65548e+06
1.2586e+06
943257
695938
504864
360005
252913
173311
99075.9
39810.5
12464.8
2539.6
351.051
32.8646
1.98906
0.074576
0.00176803
3.10146e-05
5.69924e-07
1.70213e-08
1.02053e-09
7.15795e-11
-2.70651e-07
2.23739e-14
1.64077e-12
-2.85869e-18
3.72903e-07
7.55817e-10
2.06091e-07
4.236e-07
2.71919e-06
2.93372e-05
0.000245671
0.00167311
0.00947425
0.0454819
0.188594
0.686804
2.22876
6.52711
17.4372
42.8434
97.7197
208.307
417.369
790.014
1418.69
2425.48
3959.1
6183.57
9255.8
13291.1
18319.5
24243.1
30811.5
37638.2
44301.2
50328.1
55385.6
61383.5
71516.4
85113.8
100759
118895
140064
164932
194307
229171
270713
320376
379905
451412
537457
641137
766206
917210
1.09966e+06
1.32022e+06
1.58697e+06
1.90967e+06
2.30017e+06
2.77287e+06
3.34545e+06
4.03999e+06
4.88385e+06
5.91132e+06
7.15789e+06
1.6662e+07
6.53177e+07
1.0229e+08
2.58922e+07
1.34233e+07
1.01032e+07
8.24481e+06
6.68678e+06
5.38665e+06
4.30723e+06
3.41595e+06
2.68441e+06
2.08808e+06
1.60584e+06
1.21955e+06
913055
672966
487746
347563
244131
167069
93437.2
37124.6
11179.2
2184.94
290.11
26.0793
1.51728
0.055137
0.001294
2.32655e-05
4.55823e-07
1.48503e-08
9.50842e-10
7.13087e-11
5.06902e-15
9.08291e-13
4.80945e-14
-2.78537e-18
-3.61849e-07
3.71435e-07
-1.73523e-07
1.9046e-07
2.14713e-06
2.39926e-05
0.000204827
0.00142203
0.00821033
0.040193
0.169858
0.629925
2.07981
6.1908
16.796
41.9252
96.9799
209.52
425.287
815.084
1481.46
2562.43
4229.22
6673.46
10079.2
14576.8
20183.2
26743
33903.3
41161.9
47968.1
53794.6
58321.9
64089.1
74814.7
89322.5
105959
125176
147522
173672
204444
240837
284063
335594
397210
471069
559783
666517
795101
950172
1.13734e+06
1.36339e+06
1.63652e+06
1.96665e+06
2.36573e+06
2.84833e+06
3.43223e+06
4.13959e+06
4.99784e+06
6.04107e+06
7.30471e+06
1.73772e+07
7.00431e+07
1.03934e+08
2.45006e+07
1.30632e+07
9.97015e+06
8.12315e+06
6.57798e+06
5.29133e+06
4.2253e+06
3.3468e+06
2.62712e+06
2.04148e+06
1.56858e+06
1.19011e+06
890363
655900
475249
338690
238052
162698
89241.3
34906.4
10093.8
1888.97
240.393
20.7052
1.15633
0.0407167
0.000946514
1.75137e-05
3.67555e-07
1.30539e-08
9.08578e-10
6.86266e-11
0
0
1.5766e-12
-7.72115e-13
3.50965e-07
5.2937e-10
9.57974e-09
-2.32665e-08
1.83662e-06
1.94534e-05
0.000169264
0.00119726
0.00705412
0.0352365
0.151864
0.573843
1.92842
5.83598
16.0792
40.7136
95.5222
208.986
429.143
831.34
1525.81
2662.58
4428.99
7034.64
10677.4
15486.9
21450.6
28346.4
35723.2
42991.5
49507
54750.3
58442.6
63739.1
74728.9
89707.4
106893
126741
149813
176795
208523
246019
290522
343537
406883
482764
573842
683335
815131
973928
1.1654e+06
1.39639e+06
1.67515e+06
2.01164e+06
2.41787e+06
2.90839e+06
3.50099e+06
4.21768e+06
5.08586e+06
6.13924e+06
7.4131e+06
1.79264e+07
7.42755e+07
1.08068e+08
2.35202e+07
1.2788e+07
9.84603e+06
8.01443e+06
6.48454e+06
5.21233e+06
4.15956e+06
3.29295e+06
2.58369e+06
2.007e+06
1.54165e+06
1.16944e+06
874808
644422
467026
332993
234289
159821
86628.8
32985.5
9123.98
1630.54
198.457
16.3484
0.875649
0.0299065
0.000691391
1.3211e-05
2.98223e-07
1.16026e-08
8.63907e-10
6.91016e-11
0
8.86504e-13
3.44486e-12
-1.76115e-18
1.52554e-11
4.21427e-10
7.63174e-09
-4.87206e-08
1.43079e-06
1.56319e-05
0.000138212
0.000997663
0.00600188
0.030618
0.134702
0.519143
1.77759
5.47544
15.3386
39.4506
93.9295
208.515
434
851.598
1582.04
2792.02
4692.71
7521.74
11500.6
16761.2
23250.6
30649.9
38370.1
45704.5
51906.1
56488.2
59216.7
64059.3
75535.9
91271.9
109310
130097
154188
182275
215205
254008
299939
354518
419592
497389
590607
702497
836985
998805
1.19366e+06
1.42843e+06
1.71137e+06
2.05243e+06
2.46358e+06
2.95928e+06
3.55724e+06
4.27916e+06
5.15226e+06
6.20973e+06
7.48667e+06
1.83393e+07
7.79925e+07
1.10245e+08
2.2865e+07
1.25733e+07
9.72324e+06
7.91077e+06
6.39838e+06
5.14189e+06
4.10292e+06
3.24816e+06
2.54888e+06
1.98044e+06
1.52177e+06
1.15488e+06
864335
637183
462190
329945
232555
158412
84479.1
31200.8
8225
1400.25
162.649
12.7905
0.656376
0.0217579
0.000501606
9.94146e-06
2.4268e-07
1.0355e-08
8.42971e-10
7.02169e-11
0
-7.12698e-13
-3.33131e-12
3.92641e-12
2.94438e-11
3.60166e-10
6.06493e-09
2.58117e-07
1.25451e-06
1.24624e-05
0.000111668
0.00082207
0.00505185
0.0263333
0.118327
0.46537
1.62432
5.09418
14.5123
37.9144
91.599
206.125
434.727
863.477
1622.37
2893.04
4906.78
7924.41
12183
17804.6
24679.8
32379.2
40182.8
47268.1
52853.3
56514
58080.7
63568.3
74110.1
90458
109225
130832
155829
184911
218933
258938
306192
362232
428921
508512
603719
717820
854755
1.01927e+06
1.21708e+06
1.45504e+06
1.74137e+06
2.08596e+06
2.50067e+06
2.99981e+06
3.60086e+06
4.32523e+06
5.19976e+06
6.25731e+06
7.53302e+06
1.87482e+07
8.058e+07
1.13374e+08
2.24865e+07
1.23992e+07
9.59647e+06
7.80779e+06
6.31602e+06
5.0771e+06
4.05285e+06
3.2102e+06
2.5207e+06
1.96002e+06
1.50739e+06
1.14508e+06
857929
633217
459955
328919
232370
158096
82512.5
29487.6
7379.86
1193.9
132.053
9.8937
0.486014
0.0156548
0.00036143
7.47699e-06
1.97937e-07
9.28092e-09
8.10914e-10
7.13029e-11
4.47742e-20
0
-2.96942e-12
-3.82019e-12
3.49933e-11
2.89307e-10
3.25335e-07
2.30897e-07
9.78069e-07
9.74301e-06
8.91475e-05
0.000670619
0.00421073
0.0224385
0.103039
0.413792
1.47319
4.70713
13.646
36.2378
88.8939
202.909
433.695
872.603
1659.58
2992.65
5126.7
8347.51
12908.1
18912.5
26174.2
34124.5
41902.5
48550.8
53314.7
55848.8
60929.2
67994
75253.1
88663.1
108232
130724
156691
186812
221944
263137
311662
369066
437221
518388
615294
731223
870121
1.03673e+06
1.23673e+06
1.47695e+06
1.76553e+06
2.11223e+06
2.52875e+06
3.02911e+06
3.63043e+06
4.35359e+06
5.22467e+06
6.2757e+06
7.54096e+06
1.88912e+07
8.33989e+07
1.16014e+08
2.2809e+07
1.2218e+07
9.45545e+06
7.69812e+06
6.23186e+06
5.01357e+06
4.00582e+06
3.17619e+06
2.49681e+06
1.94383e+06
1.49691e+06
1.13856e+06
854425
631700
459722
329491
233436
158388
80514.1
27802.3
6582.17
1009.54
106.08
7.55667
0.354988
0.0111178
0.000257394
5.59177e-06
1.61466e-07
8.35651e-09
7.83881e-10
7.08912e-11
3.70603e-13
-8.55414e-13
-3.9039e-19
-3.00424e-07
2.7629e-11
2.35296e-10
3.8107e-09
-9.30499e-08
6.12348e-07
7.71234e-06
7.09408e-05
0.000542727
0.00348188
0.0189704
0.0890397
0.365176
1.32626
4.31758
12.737
34.3786
85.6217
198.223
429.294
874.385
1682.1
3065.31
5299.72
8693.16
13505
19807.8
27318.8
35316.8
42807
48739.5
52437.3
57318.2
64570.6
71959.9
79592.1
87571.4
105045
128367
155238
186339
222514
264813
314514
373164
442637
525193
623559
741010
881476
1.04967e+06
1.25122e+06
1.49288e+06
1.78269e+06
2.13023e+06
2.54696e+06
3.04659e+06
3.64575e+06
4.36469e+06
5.2286e+06
6.26845e+06
7.51759e+06
1.8964e+07
8.56844e+07
1.18774e+08
2.32387e+07
1.20376e+07
9.30181e+06
7.58077e+06
6.14371e+06
4.94866e+06
3.95918e+06
3.14369e+06
2.47503e+06
1.92999e+06
1.48865e+06
1.13452e+06
853031
631978
460979
331279
235479
158869
78280.8
26128.8
5835
846.829
84.3621
5.70479
0.256241
0.00782212
0.000182772
4.18255e-06
1.32019e-07
7.49838e-09
7.63707e-10
7.27228e-11
0
-6.87872e-13
2.83442e-07
-1.5769e-18
5.89614e-12
1.87417e-10
2.9885e-09
-9.94324e-08
7.25725e-07
5.88717e-06
5.60493e-05
0.000437523
0.00286784
0.0159734
0.0766245
0.320913
1.18882
3.94262
11.8334
32.4565
82.0506
192.617
422.604
871.216
1694.75
3119.79
5441.48
8986.53
14014.9
20549.7
28190.6
36050
43010.8
47978.7
52971.2
60445.8
67978.1
75682.9
83678.9
92078.8
100981
123898
151581
183556
220656
263916
314611
374290
444821
528457
627912
746442
887949
1.0571e+06
1.25946e+06
1.50166e+06
1.79161e+06
2.13869e+06
2.55407e+06
3.05106e+06
3.64578e+06
4.35775e+06
5.21118e+06
6.23594e+06
7.46435e+06
1.89682e+07
8.76173e+07
1.21277e+08
2.37566e+07
1.18533e+07
9.13218e+06
7.45253e+06
6.04853e+06
4.87958e+06
3.91042e+06
3.11047e+06
2.45348e+06
1.91695e+06
1.48175e+06
1.13168e+06
852821
633350
463202
333890
238203
159655
75648
24478.8
5148.15
706.193
66.6052
4.27131
0.18349
0.00547115
0.000129472
3.13637e-06
1.08519e-07
6.77162e-09
7.43082e-10
7.45263e-11
0
8.35638e-13
0
-1.53242e-18
-1.32302e-12
1.54215e-10
2.38064e-09
3.48064e-08
4.56145e-07
4.62327e-06
4.45129e-05
0.000353899
0.00236721
0.0134699
0.0659935
0.282043
1.06496
3.59517
10.9698
30.5494
78.324
186.282
413.679
862.422
1694.92
3148.67
5534.03
9189.97
14365.2
21017.6
28609.7
36098
42247.2
47656.3
55387.1
63092.9
70878.7
78871.8
87204.6
95998.9
105361
116995
145225
177885
215711
259718
311163
371584
442841
527171
627264
746345
888271
1.05764e+06
1.25994e+06
1.50168e+06
1.79058e+06
2.1358e+06
2.54818e+06
3.04062e+06
3.62863e+06
4.331e+06
5.17085e+06
6.17688e+06
7.38039e+06
1.89964e+07
8.87336e+07
1.24099e+08
2.42815e+07
1.16493e+07
8.94029e+06
7.30809e+06
5.94171e+06
4.80225e+06
3.85589e+06
3.07331e+06
2.42926e+06
1.90208e+06
1.47373e+06
1.12829e+06
852425
634751
465566
336682
241067
160830
72465.1
22877.9
4535.24
588.367
52.5408
3.19652
0.131511
0.0038403
9.23426e-05
2.3731e-06
8.98396e-08
6.17597e-09
7.187e-10
7.4136e-11
-1.5952e-13
6.51989e-13
-2.73876e-12
-2.23286e-18
-1.6433e-17
-2.7448e-07
1.88638e-09
2.76584e-08
3.61226e-07
3.72368e-06
3.58678e-05
0.000290207
0.00197868
0.0114839
0.0573722
0.249814
0.959909
3.2935
10.2004
28.7991
74.7733
179.914
403.835
850.227
1685.93
3156.44
5582.04
9304.98
14549.1
21189.2
28536.7
35406
41427.7
49393.2
57315.3
65214.3
73211.6
81446.6
90063.9
99195
108956
119453
136032
169016
207238
251637
303441
364164
435652
520119
620227
739158
880713
1.04942e+06
1.25064e+06
1.49076e+06
1.7773e+06
2.11914e+06
2.52679e+06
3.01265e+06
3.59157e+06
4.28143e+06
5.10412e+06
6.08671e+06
7.259e+06
1.89358e+07
8.95862e+07
1.27156e+08
2.47271e+07
1.1407e+07
8.72009e+06
7.14229e+06
5.81854e+06
4.71224e+06
3.79144e+06
3.02833e+06
2.39888e+06
1.88275e+06
1.46218e+06
1.1222e+06
850009
634674
466868
338707
243366
161423
68954.8
21405.3
4015.34
494.112
41.8739
2.42283
0.0957422
0.00274618
6.71959e-05
1.83078e-06
7.55762e-08
5.63173e-09
6.99955e-10
7.80716e-11
0
0
0
-2.16803e-18
-8.0195e-14
-2.6266e-07
1.5876e-09
2.29329e-08
1.77702e-07
3.15382e-06
3.00664e-05
0.000246125
0.0017055
0.0100618
0.0510825
0.225851
0.880269
3.06008
9.59177
27.3786
71.7985
174.34
394.606
837.121
1671.17
3146.45
5586.43
9325.01
14543.9
21013.5
27889.3
34375.1
42473.4
50586.9
58645.8
66684.1
74835
83247.3
92075.4
101460
111526
122388
134151
156757
194887
239158
290758
351163
422187
506018
605277
723098
863217
1.03007e+06
1.22892e+06
1.46599e+06
1.74859e+06
2.08536e+06
2.48643e+06
2.96374e+06
3.53145e+06
4.20652e+06
5.00952e+06
5.96579e+06
7.10339e+06
1.89061e+07
9.00517e+07
1.29642e+08
2.51432e+07
1.11306e+07
8.47098e+06
6.95119e+06
5.67317e+06
4.60285e+06
3.71021e+06
2.96901e+06
2.35653e+06
1.85318e+06
1.44221e+06
1.1093e+06
842187
630383
464936
338271
243789
161013
66380.9
20194.3
3617.76
425.443
34.4497
1.90846
0.0728832
0.00206212
5.13733e-05
1.47358e-06
6.54201e-08
5.24591e-09
6.7879e-10
7.26409e-11
0
0
3.23128e-12
-2.59769e-07
-1.38385e-17
1.00163e-10
1.445e-09
2.04066e-08
2.64517e-07
2.68913e-06
2.68425e-05
0.000222762
0.00155913
0.00929102
0.0476315
0.212532
0.835395
2.92661
9.23796
26.5368
69.993
170.845
388.517
827.629
1657.92
3129
5559.3
9260.1
14349.5
20474.8
26909.3
34822
43006
51193.2
59319.6
67426.1
75652.7
84153.6
93089.1
102605
112833
123895
135903
148970
178372
221783
272333
331504
401065
483157
580347
695706
832890
996238
1.19089e+06
1.4229e+06
1.69941e+06
2.02878e+06
2.42084e+06
2.88711e+06
3.44116e+06
4.09915e+06
4.88049e+06
5.80886e+06
6.9106e+06
1.89013e+07
9.01231e+07
1.31099e+08
2.53715e+07
1.08279e+07
8.18654e+06
6.72477e+06
5.49379e+06
4.46162e+06
3.59989e+06
2.88364e+06
2.29118e+06
1.80381e+06
1.40548e+06
1.08245e+06
822958
616935
455774
332195
239866
158737
65044.3
19424.4
3389.8
387.546
30.4826
1.64226
0.0613502
0.00172
4.33099e-05
1.28298e-06
5.96002e-08
4.98971e-09
6.68659e-10
7.31393e-11
-2.00669e-13
-1.96417e-14
3.93081e-14
-1.40248e-18
2.5633e-07
1.02477e-10
1.40138e-09
1.38386e-07
2.64776e-07
2.80272e-06
2.71107e-05
0.000223327
0.00156292
0.00931404
0.0477456
0.213018
0.837198
2.93254
9.25556
26.5842
70.1101
171.113
389.081
828.733
1659.92
3132.33
5564.37
9267.01
14357.7
20483
26915.3
34825.7
43006.6
51188.8
59308.6
67407.6
75626.2
84118.7
93045.7
102553
112774
123831
135836
148901
178300
221677
272185
331317
400839
482887
580026
695326
832438
995700
1.19024e+06
1.42212e+06
1.69845e+06
2.0276e+06
2.41935e+06
2.88519e+06
3.43867e+06
4.09584e+06
4.87604e+06
5.80279e+06
6.90235e+06
1.88017e+07
8.96921e+07
1.31572e+08
2.5496e+07
1.08444e+07
8.17884e+06
6.71891e+06
5.48939e+06
4.45836e+06
3.59749e+06
2.8819e+06
2.28995e+06
1.80296e+06
1.40491e+06
1.08208e+06
822735
616811
455715
332176
239870
158765
65051
19419.4
3387.39
387.158
30.4514
1.64104
0.0613361
0.00172053
4.33369e-05
1.28394e-06
5.96682e-08
4.98627e-09
6.68331e-10
7.31198e-11
2.01375e-13
1.48095e-12
7.1996e-19
-1.44534e-18
1.22833e-12
1.18035e-10
1.61286e-09
1.47432e-07
2.97766e-07
3.1601e-06
3.01803e-05
0.000247263
0.00171456
0.0101195
0.0513803
0.227153
0.885205
3.07661
9.64144
27.514
72.137
175.121
396.274
840.434
1677.28
3156.87
5602.68
9347.66
14571.3
21041.4
27911.5
34390.6
42477.2
50574.5
58612.6
66626.6
74751.4
83136.5
91937.2
101295
111336
122178
133925
156602
194669
238852
290362
350683
421619
505353
604502
722200
862178
1.02887e+06
1.22752e+06
1.46434e+06
1.74662e+06
2.08294e+06
2.4834e+06
2.95983e+06
3.52628e+06
4.19952e+06
4.99983e+06
5.95213e+06
7.08404e+06
1.86364e+07
8.88226e+07
1.31054e+08
2.55224e+07
1.11366e+07
8.457e+06
6.94106e+06
5.66603e+06
4.59793e+06
3.70691e+06
2.96688e+06
2.35526e+06
1.85252e+06
1.44195e+06
1.1093e+06
842338
630615
465198
338527
244024
161259
66491.6
20224.5
3622.59
426.202
34.5569
1.91833
0.0734066
0.00207813
5.16721e-05
1.47709e-06
6.53615e-08
5.23467e-09
6.77564e-10
7.34067e-11
-2.61463e-07
0
3.32504e-12
-2.23283e-18
2.76694e-07
1.23014e-10
1.913e-09
2.75646e-08
2.34507e-07
3.61086e-06
3.60455e-05
0.000291984
0.00199355
0.0115771
0.0578529
0.251908
0.967813
3.31986
10.2793
29.0132
75.3059
181.136
406.437
855.374
1695.4
3172.54
5607.02
9339.66
14591.4
21233.9
28570.4
35415.3
41431.2
49372
57263.7
65126.9
73084.9
81279
89854.9
98946
108670
119134
135890
168803
206934
251236
302949
363582
434970
519329
619318
738122
879539
1.04809e+06
1.24912e+06
1.48899e+06
1.77518e+06
2.11652e+06
2.52341e+06
3.00814e+06
3.58534e+06
4.27264e+06
5.09153e+06
6.06862e+06
7.2334e+06
1.83855e+07
8.78693e+07
1.29214e+08
2.53002e+07
1.14245e+07
8.70763e+06
7.1341e+06
5.81359e+06
4.70961e+06
3.79039e+06
3.02826e+06
2.39943e+06
1.88363e+06
1.46323e+06
1.12329e+06
851061
635635
467708
339413
243946
161930
69233.9
21475.8
4027.83
495.944
42.1031
2.44282
0.0967992
0.00277914
6.78488e-05
1.83876e-06
7.55049e-08
5.62546e-09
6.99291e-10
7.73011e-11
4.42753e-20
-6.79879e-13
0
-7.6621e-19
5.77584e-12
1.28508e-10
2.33006e-09
1.72179e-07
4.5491e-07
4.75528e-06
4.4827e-05
0.000356033
0.00238662
0.0135956
0.0666504
0.284926
1.07588
3.63166
11.0789
30.8452
79.0585
187.964
417.253
869.488
1707.92
3170.77
5568.42
9238.23
14427.3
21083.3
28663.9
36122.1
42224.6
47637.9
55330.1
62991
70725.6
78664.5
86942.2
95682.4
104993
116868
145013
177568
215279
259177
310516
370828
441970
526186
626168
745146
886974
1.05625e+06
1.25842e+06
1.49999e+06
1.78862e+06
2.13339e+06
2.54502e+06
3.03622e+06
3.62223e+06
4.32144e+06
5.15645e+06
6.15527e+06
7.3488e+06
1.82432e+07
8.64741e+07
1.26846e+08
2.51065e+07
1.16876e+07
8.93229e+06
7.30427e+06
5.94086e+06
4.80335e+06
3.85814e+06
3.07612e+06
2.43222e+06
1.9051e+06
1.47648e+06
1.13074e+06
854551
636552
467052
337876
242013
161617
72961.5
23025.6
4567.65
593.462
53.1445
3.24556
0.133975
0.00391259
9.37119e-05
2.38838e-06
8.98285e-08
6.15576e-09
7.17993e-10
7.26121e-11
-4.44386e-20
6.87859e-13
0
2.9207e-07
-2.9743e-07
1.87408e-10
2.96457e-09
1.88149e-07
5.83203e-07
6.01312e-06
5.62163e-05
0.000440145
0.00289206
0.0161348
0.0774765
0.324656
1.20295
3.98944
11.9721
32.8288
82.9643
194.685
426.946
879.692
1710.1
3145.51
5481.12
9043.48
14084.6
20623
28250.6
36074.5
42979.7
47879.1
52896.3
60319.3
67794.8
75438.3
83372.1
91711
100553
123722
151298
183152
220134
263279
313856
373410
443816
527333
626680
745116
886540
1.05561e+06
1.25787e+06
1.49994e+06
1.78964e+06
2.13627e+06
2.55087e+06
3.04655e+06
3.63909e+06
4.34761e+06
5.19578e+06
6.21294e+06
7.43136e+06
1.8091e+07
8.47068e+07
1.24364e+08
2.4902e+07
1.19249e+07
9.13277e+06
7.45546e+06
6.05315e+06
4.88519e+06
3.91639e+06
3.11636e+06
2.45898e+06
1.92179e+06
1.48606e+06
1.13543e+06
855998
635982
465330
335569
239503
160699
76339.1
24709.7
5205.24
715.852
67.7909
4.37017
0.18863
0.00563208
0.000132433
3.17201e-06
1.0861e-07
6.77705e-09
7.37095e-10
7.29897e-11
0
0
0
-7.43096e-12
2.14315e-11
2.38332e-10
3.69993e-09
5.67265e-08
6.0588e-07
7.68206e-06
7.10339e-05
0.00054547
0.00351102
0.0191716
0.0901111
0.369877
1.34389
4.37555
12.9071
34.831
86.7229
200.698
434.458
884.396
1700.13
3095.58
5347.76
8760.57
13590.9
19903.8
27407.4
35373.9
42807.7
48664.3
52277.1
57211.5
64402.3
71725.7
79288.5
87197.5
104938
128151
154896
185868
221914
264077
313638
372148
441491
523934
622209
739597
880026
1.0482e+06
1.24973e+06
1.49133e+06
1.78096e+06
2.12811e+06
2.54406e+06
3.04226e+06
3.63896e+06
4.3539e+06
5.21162e+06
6.24248e+06
7.47982e+06
1.78847e+07
8.23995e+07
1.22546e+08
2.46826e+07
1.2141e+07
9.31205e+06
7.59216e+06
6.15562e+06
4.96046e+06
3.97036e+06
3.15391e+06
2.48411e+06
1.93788e+06
1.49537e+06
1.1401e+06
857625
635688
463915
333549
237199
160312
79183.8
26458.9
5924.05
862.858
86.4134
5.88179
0.265685
0.00811428
0.000188421
4.25124e-06
1.32449e-07
7.50506e-09
7.60091e-10
7.11541e-11
0
2.79971e-07
3.98354e-19
6.92877e-12
1.4291e-11
2.89289e-10
4.71526e-09
2.29577e-07
9.66323e-07
9.67528e-06
8.92172e-05
0.000673357
0.0042438
0.0226747
0.104308
0.419334
1.49375
4.7738
13.8387
36.7422
90.1004
205.565
439.086
882.74
1677.32
3022.1
5169.98
8405.77
12977.7
18982.4
26225.3
34132.5
41843.7
48407.2
53077.6
55518.8
60684.7
67677.8
74862.6
88527.6
107984
130344
156171
186152
221138
262177
310548
367805
435827
516885
613712
729594
868476
1.03509e+06
1.23509e+06
1.47526e+06
1.76368e+06
2.10996e+06
2.52561e+06
3.02434e+06
3.62281e+06
4.34126e+06
5.205e+06
6.24527e+06
7.49624e+06
1.76718e+07
7.9708e+07
1.20315e+08
2.45078e+07
1.23543e+07
9.47728e+06
7.71942e+06
6.25217e+06
5.03239e+06
4.02281e+06
3.19119e+06
2.50977e+06
1.95484e+06
1.50609e+06
1.14616e+06
860552
636591
463548
332419
235633
160134
81654.3
28251.7
6712.67
1034.4
109.406
7.85674
0.371828
0.0116765
0.000268323
5.72548e-06
1.62351e-07
8.32197e-09
7.91018e-10
7.08134e-11
0
-8.75988e-13
-3.01119e-07
-2.57146e-18
2.12994e-11
3.30131e-10
5.94466e-09
9.29356e-08
1.23486e-06
1.24867e-05
0.000111455
0.000824271
0.00508708
0.0266013
0.119788
0.471758
1.64791
5.17019
14.7306
38.4808
92.9418
209.046
440.598
874.689
1642.73
2926.44
4958.21
7997.94
12279.3
17918.2
24796.5
32477.2
40236.4
47252.5
52750.2
56313.3
57780.6
63392.7
74180.6
90446
109104
130589
155457
184398
218266
258106
305189
361063
427596
507047
602137
716143
853007
1.01746e+06
1.2152e+06
1.45302e+06
1.73907e+06
2.08309e+06
2.49673e+06
2.99393e+06
3.59165e+06
4.3106e+06
5.1767e+06
6.22194e+06
7.48117e+06
1.73565e+07
7.65273e+07
1.18373e+08
2.4568e+07
1.25791e+07
9.63365e+06
7.84248e+06
6.34767e+06
5.10534e+06
4.07752e+06
3.23138e+06
2.5386e+06
1.97493e+06
1.51964e+06
1.15498e+06
865856
639460
464782
332572
235078
160178
83902.3
30071.1
7560.96
1230.34
137.146
10.3729
0.514014
0.0166084
0.000379766
7.70594e-06
1.99633e-07
9.26719e-09
8.06488e-10
7.12194e-11
0
0
-1.89966e-12
7.2188e-12
1.52558e-11
3.8711e-10
7.38282e-09
-5.18142e-08
1.23556e-06
1.55727e-05
0.000137528
0.000998398
0.00603548
0.0309
0.136276
0.526018
1.8027
5.55485
15.561
40.0101
95.2054
211.181
439.236
861.105
1597.5
2815.22
4724.1
7558.64
11535
16777.9
23227.5
30561.2
38192.2
45420.7
51509.7
55980.4
58604.7
63579.5
75206.1
90791.6
108663
129272
153175
181062
213781
252370
298090
352469
417358
494994
588073
699850
834242
995966
1.1907e+06
1.42525e+06
1.7078e+06
2.04813e+06
2.45798e+06
2.95147e+06
3.54577e+06
4.26194e+06
5.12638e+06
6.1717e+06
7.43324e+06
1.69534e+07
7.30459e+07
1.16285e+08
2.48067e+07
1.28265e+07
9.78504e+06
7.9646e+06
6.44495e+06
5.18178e+06
4.1367e+06
3.27646e+06
2.57234e+06
1.9997e+06
1.53748e+06
1.16754e+06
874410
645020
468208
334469
235884
160910
86159.6
31943.7
8469.49
1451.98
170.182
13.5282
0.70121
0.0233315
0.000533143
1.03438e-05
2.4611e-07
1.03738e-08
8.43897e-10
7.16161e-11
0
0
1.5297e-12
-2.71346e-18
-5.11618e-17
5.14692e-10
-1.69945e-07
3.23359e-07
1.61902e-06
1.92716e-05
0.000167879
0.00119548
0.00708239
0.0355213
0.153523
0.581182
1.95529
5.92092
16.3169
41.3122
96.9014
211.977
435.121
842.332
1545.01
2694.24
4478.24
7106.79
10776.6
15613.8
21600.2
28506.5
35874.5
43110.7
49569.5
54734.6
58332
63768
74963.6
89884.6
106996
126753
149712
176559
208132
245453
289765
342573
405697
481338
572156
681362
812830
971233
1.1622e+06
1.39252e+06
1.67034e+06
2.00544e+06
2.40957e+06
2.89692e+06
3.48476e+06
4.19438e+06
5.05245e+06
6.09205e+06
7.3487e+06
1.64027e+07
6.90765e+07
1.11406e+08
2.54865e+07
1.3106e+07
9.93306e+06
8.0883e+06
6.54707e+06
5.26495e+06
4.20349e+06
3.3293e+06
2.61353e+06
2.03132e+06
1.56123e+06
1.18501e+06
887024
653911
474240
338370
238211
162858
88585.1
33891.3
9439.19
1700.8
209.156
17.4429
0.945129
0.0324376
0.00074311
1.38579e-05
3.03885e-07
1.16199e-08
8.75e-10
7.04948e-11
-2.69561e-07
7.3913e-13
3.68476e-13
-7.71545e-12
3.24684e-11
6.32044e-10
1.96786e-07
1.83723e-07
2.07639e-06
2.36341e-05
0.000202389
0.00141597
0.00822452
0.0404391
0.171415
0.636917
2.1051
6.26843
17.0041
42.4228
98.0751
211.656
428.963
820.813
1489.16
2570.54
4233.22
6663.97
10040
14484
20006.5
26450.3
33467.2
40565.5
47209.4
52881.8
57268.8
63092.7
73862.6
88125.4
104496
123424
145460
171282
201713
237753
280620
331786
393033
466514
554837
661151
789264
943775
1.13024e+06
1.35535e+06
1.62718e+06
1.95544e+06
2.35181e+06
2.83042e+06
3.40851e+06
4.10743e+06
4.95385e+06
5.98104e+06
7.22492e+06
1.57041e+07
6.45815e+07
1.09363e+08
2.66389e+07
1.34776e+07
1.00828e+07
8.21917e+06
6.65944e+06
5.35979e+06
4.28221e+06
3.3936e+06
2.66521e+06
2.0722e+06
1.5931e+06
1.20945e+06
905458
667561
484017
345188
242779
166299
91599.7
36012.6
10493.6
1981.88
255.113
22.2761