/*--------------------------------*- C++ -*----------------------------------*\
  =========                 |
  \\      /  F ield         | OpenFOAM: The Open Source CFD Toolbox
   \\    /   O peration     | Website:  https://openfoam.org
    \\  /    A nd           | Version:  8
     \\/     M anipulation  |
\*---------------------------------------------------------------------------*/
FoamFile
{
    version     2.0;
    format      ascii;
    class       volScalarField;
    location    "20/fluid";
    object      rDeltaT;
}
// * * * * * * * * * * * * * * * * * * * * * * * * * * * * * * * * * * * * * //

dimensions      [0 0 -1 0 0 0 0];

internalField   nonuniform List<scalar> 
4000
(
545.248
642.827
741.343
825.826
878.937
895.133
880.055
844.109
795.64
742.126
688.493
637.419
590.11
547.12
508.4
473.69
442.625
414.805
389.931
367.563
347.555
329.432
313.2
298.367
285.069
272.808
261.804
251.586
242.386
233.816
226.052
218.834
212.258
206.185
200.653
195.585
191.019
186.85
183.19
179.815
178.623
179.795
182.297
184.913
188.118
191.495
195.308
199.429
203.798
208.65
213.641
219.257
225.032
231.496
238.24
245.667
253.515
261.991
270.987
280.612
290.917
302.105
314.399
328.142
343.763
453.352
1508.12
3203.59
2124.54
628.19
412.474
378.466
392.157
405.723
419.63
434.158
449.531
466.214
484.246
504.212
526.131
550.603
577.722
608.014
641.672
679.102
720.518
766.095
815.651
868.292
921.604
971.57
1012.06
1035.01
1028.61
981.981
890.607
769.038
651.644
551.476
542.16
638.17
735.927
819.192
872.423
890.337
877.841
844.062
797.985
746.928
695.427
646.109
600.231
558.241
520.139
485.71
454.653
426.649
401.389
378.569
357.919
339.182
322.153
306.619
292.433
279.425
267.494
256.499
246.37
236.995
228.328
220.285
212.838
205.933
199.549
193.651
188.217
183.216
178.625
177.111
179.231
182.152
185.447
189.092
193.116
197.502
202.239
207.337
212.761
218.555
224.689
231.227
238.16
245.551
253.414
261.795
270.718
280.22
290.334
301.117
312.674
325.185
338.894
354.127
371.047
491.778
1638.14
3282.87
1998.82
627.075
416.876
390.088
403.44
416.755
430.344
444.509
459.513
475.653
493.182
512.386
533.535
556.951
582.935
611.817
643.898
679.471
718.772
761.904
808.658
858.202
908.578
956.183
995.167
1017.25
1010.95
965.883
878.064
761.431
647.177
548.877
538.152
624.551
714.768
795.079
849.94
872.657
866.333
838.775
798.496
752.154
704.52
658.292
614.79
574.487
537.455
503.568
472.622
444.387
418.622
395.097
373.582
353.877
335.78
319.14
303.787
289.612
276.47
264.285
252.937
242.37
232.489
223.257
214.605
206.505
198.91
191.791
185.113
178.848
174.994
176.077
179.994
184.245
188.812
193.749
199.035
204.698
210.731
217.133
223.925
231.087
238.668
246.649
255.089
263.982
273.381
283.296
293.765
304.802
316.433
328.687
341.63
355.37
370.029
385.716
402.224
539.31
1810.43
3337.14
1736.17
606.456
427.247
412.002
425.131
438.401
452.05
466.302
481.403
497.561
515.042
534.076
554.915
577.764
602.871
630.47
660.798
694.053
730.359
769.689
811.736
855.684
899.844
940.789
973.18
989.323
978.102
930.161
843.563
734.179
631.637
544.465
535.216
615.251
699.593
775.744
829.023
852.635
848.815
824.52
787.845
745.036
700.699
657.437
616.518
578.412
543.17
510.678
480.767
453.223
427.844
404.432
382.808
362.799
344.256
327.03
311.004
296.053
282.088
269.005
256.737
245.198
234.338
224.09
214.414
205.261
196.595
188.375
180.567
173.133
171.279
175.637
180.906
186.459
192.339
198.546
205.114
212.041
219.343
227.031
235.105
243.591
252.482
261.815
271.587
281.833
292.559
303.79
315.534
327.798
340.583
353.891
367.746
382.201
397.309
413.093
429.281
613.101
2058.96
3477.85
1466.17
582.999
434.899
433.686
446.056
458.696
471.794
485.535
500.091
515.654
532.387
550.48
570.121
591.517
614.823
640.197
667.793
697.777
730.282
765.342
802.768
841.917
881.252
917.549
945.914
959.146
946.504
899.574
817.28
715.283
620.936
540.997
532.306
605.684
683.635
755.049
806.149
830.021
828.301
807.112
773.876
734.362
693.018
652.365
613.662
577.427
543.76
512.565
483.656
456.861
432.008
408.922
387.439
367.412
348.701
331.184
314.748
299.298
284.739
271
258.004
245.694
234.011
222.908
212.338
202.26
192.634
183.421
174.586
167.33
167.431
173.669
180.157
186.931
194.007
201.412
209.156
217.26
225.733
234.589
243.841
253.495
263.571
274.073
285.02
296.418
308.281
320.613
333.415
346.675
360.378
374.503
389.046
404.027
419.464
435.35
451.401
700.091
2299.9
3528.83
1235.37
573.082
441.543
452.779
464.215
476.014
488.331
501.312
515.1
529.831
545.649
562.697
581.108
601.019
622.608
646.002
671.325
698.688
728.196
759.895
793.613
828.724
863.716
895.361
919.216
928.691
913.799
867.441
789.524
695.22
609.562
537.414
529.725
597.304
669.443
736.1
784.483
807.929
807.467
788.537
757.961
721.111
682.203
643.742
606.974
572.397
540.159
510.183
482.318
456.379
432.185
409.58
388.417
368.561
349.889
332.289
315.663
299.923
284.991
270.798
257.285
244.394
232.08
220.296
209.002
198.157
187.724
177.666
167.946
161.384
163.217
170.586
178.195
186.074
194.247
202.732
211.549
220.711
230.234
240.13
250.41
261.088
272.172
283.673
295.596
307.951
320.739
333.961
347.606
361.656
376.081
390.848
405.936
421.349
437.09
453.132
469.187
791.491
2566.61
3534.85
1063.32
560.896
458.324
468.528
478.991
489.86
501.273
513.354
526.222
539.989
554.766
570.666
587.805
606.307
626.27
647.839
671.121
696.229
723.265
752.258
783.02
814.913
846.407
874.295
894.558
901.145
884.763
839.406
765.669
678.141
599.804
534.23
527.334
589.428
655.912
717.738
763.043
785.431
785.604
768.427
740.095
705.632
669.006
632.594
597.641
564.682
533.819
505.009
478.116
452.99
429.468
407.391
386.618
367.023
348.494
330.928
314.235
298.337
283.165
268.659
254.763
241.429
228.615
216.281
204.388
192.9
181.782
170.997
160.514
154.393
157.573
165.95
174.561
183.438
192.6
202.066
211.851
221.972
232.441
243.27
254.471
266.052
278.024
290.392
303.161
316.334
329.91
343.882
358.236
372.944
387.969
403.27
418.816
434.601
450.614
466.825
482.94
874.864
2803.01
3592.82
941.948
548.067
471.474
480.733
490.267
500.22
510.72
521.881
533.804
546.584
560.315
575.091
591.01
608.17
626.681
646.644
668.158
691.33
716.25
742.913
771.096
800.135
828.467
852.93
869.947
874.006
856.505
812.432
742.911
661.943
590.597
531.228
525.055
581.88
642.791
699.684
741.657
762.654
763.081
747.259
720.816
688.455
653.882
619.366
586.106
554.629
525.078
497.407
471.492
447.183
424.337
402.812
382.472
363.197
344.883
327.435
310.772
294.821
279.521
264.816
250.658
237.004
223.815
211.054
198.688
186.682
175.003
163.618
152.495
146.625
150.831
160.088
169.579
179.331
189.365
199.695
210.337
221.302
232.603
244.25
256.253
268.619
281.356
294.467
307.956
321.821
336.059
350.659
365.602
380.857
396.381
412.129
428.056
444.147
460.378
476.707
492.817
947.651
3020.66
3558.61
857.094
534.951
481.233
489.563
498.186
507.237
516.836
527.084
538.071
549.878
562.586
576.275
591.028
606.93
624.071
642.543
662.434
683.824
706.768
731.241
756.99
783.353
808.766
830.165
844.417
846.499
828.522
786.288
721.272
646.774
582.026
528.399
522.859
574.599
630.026
681.907
720.298
739.542
739.843
725.053
700.232
669.774
637.113
604.388
572.745
542.699
514.402
487.82
462.842
439.336
417.162
396.189
376.299
357.375
339.318
322.042
305.47
289.537
274.184
259.362
245.028
231.142
217.669
204.577
191.835
179.411
167.276
155.398
143.751
138.065
143.109
153.122
163.369
173.88
184.67
195.754
207.143
218.848
230.879
243.244
255.95
269.004
282.41
296.169
310.282
324.745
339.552
354.687
370.131
385.849
401.794
417.917
434.167
450.52
466.94
483.376
499.492
996.561
3248.08
3537.25
820.773
523.864
487.753
495.216
502.979
511.17
519.902
529.269
539.35
550.217
561.941
574.589
588.232
602.943
618.803
635.878
654.238
673.952
695.056
717.493
740.991
764.894
787.668
806.391
818.347
818.871
800.879
760.845
700.507
632.394
573.935
525.704
520.729
567.538
617.575
664.419
699.072
716.31
716.193
702.142
678.693
649.947
619.054
588.008
557.899
529.22
502.124
476.59
452.521
429.793
408.281
387.863
368.426
349.869
332.096
315.026
298.588
282.721
267.373
252.497
238.054
224.007
210.327
196.982
183.945
171.189
158.685
146.406
134.327
128.843
134.638
145.292
156.184
167.342
178.78
190.51
202.54
214.881
227.541
240.525
253.839
267.487
281.471
295.79
310.442
325.42
340.716
356.313
372.186
388.301
404.609
421.057
437.589
454.173
470.768
487.308
503.454
1027.69
3446.78
3536.21
793.258
520.6
491.442
498.087
505.034
512.406
520.31
528.833
538.045
548.01
558.787
570.435
583.015
596.588
611.222
626.978
643.902
662.039
681.409
701.935
723.337
744.978
765.36
781.752
791.834
791.156
773.55
736.028
680.522
618.716
566.268
523.126
518.652
560.656
605.385
647.176
677.968
692.997
692.227
678.678
656.425
629.235
599.985
570.522
541.872
514.501
488.559
464.034
440.841
418.868
398
378.127
359.144
340.955
323.477
306.634
290.356
274.59
259.285
244.4
229.897
215.746
201.916
188.382
175.118
162.099
149.299
136.694
124.261
119.022
125.527
136.734
148.182
159.899
171.896
184.183
196.768
209.658
222.861
236.38
250.219
264.38
278.863
293.665
308.781
324.204
339.92
355.913
372.156
388.612
405.233
421.962
438.745
455.538
472.301
488.95
505.161
1049.58
3624.96
3558.28
773.822
517.596
492.629
498.505
504.686
511.288
518.411
526.134
534.522
543.628
553.504
564.2
575.765
588.257
601.717
616.205
631.754
648.395
666.128
684.859
704.308
723.856
742.047
756.383
764.874
763.271
746.365
711.638
661.127
605.588
558.937
520.64
516.617
553.925
593.42
630.154
656.985
669.639
668.021
654.786
633.579
607.811
580.098
552.139
524.884
498.771
473.944
450.394
428.048
406.806
386.565
367.223
348.687
330.87
313.692
297.086
280.989
265.347
250.116
235.256
220.735
206.523
192.593
178.921
165.484
152.26
139.223
126.353
113.627
108.663
115.84
127.53
139.461
151.661
164.141
176.908
189.97
203.334
217.003
230.982
245.272
259.873
274.784
290.001
305.516
321.32
337.399
353.734
370.296
387.049
403.945
420.924
437.935
454.922
471.854
488.626
504.934
1064.34
3780.33
3611.26
761.403
514.645
491.536
496.704
502.178
508.068
514.464
521.44
529.052
537.348
546.37
556.161
566.762
578.211
590.559
603.845
618.087
633.301
649.472
666.494
684.089
701.663
717.831
730.39
737.512
735.256
719.343
687.663
642.284
592.966
551.91
518.237
514.621
547.327
581.663
613.347
636.142
646.283
643.652
630.573
610.274
585.811
559.545
533.02
507.104
482.204
458.454
435.849
414.325
393.793
374.162
355.342
337.246
319.798
302.926
286.565
270.66
255.162
240.029
225.224
210.717
196.481
182.491
168.726
155.165
141.785
128.565
115.485
102.524
100
105.629
117.763
130.119
142.735
155.629
168.808
182.278
196.045
210.112
224.483
239.156
254.131
269.406
284.974
300.828
316.955
333.341
349.965
366.799
383.804
400.934
418.128
435.336
452.498
469.579
486.471
502.879
1078.51
3873.93
3699.3
755.494
511.505
488.361
492.878
497.702
502.933
508.656
514.937
521.826
529.362
537.582
546.518
556.206
566.68
577.974
590.112
603.102
616.948
631.62
647.004
662.828
678.528
692.804
703.835
709.797
707.152
692.499
664.083
623.945
580.791
545.154
515.905
512.658
540.853
570.103
596.753
615.452
622.959
619.168
606.098
586.581
563.322
538.423
513.271
488.648
464.922
442.216
420.53
399.806
379.968
360.935
342.628
324.971
307.892
291.329
275.222
259.522
244.182
229.166
214.439
199.973
185.745
171.731
157.911
144.267
130.776
117.421
104.18
100
100
100
107.486
120.224
133.194
146.436
159.962
173.774
187.88
202.281
216.978
231.972
247.259
262.837
278.697
294.831
311.226
327.867
344.73
361.788
379.002
396.325
413.698
431.069
448.377
465.582
482.58
499.084
1079.64
3995.09
3778.04
772.212
506.997
483.175
487.109
491.346
495.98
501.09
506.734
512.957
519.791
527.265
535.407
544.239
553.792
564.088
575.141
586.947
599.497
612.749
626.582
640.73
654.662
667.172
676.831
681.862
679.134
665.969
640.989
606.153
569.069
538.654
513.643
510.727
534.498
558.738
580.377
594.931
599.694
594.603
581.405
562.552
540.404
516.804
492.974
469.605
447.022
425.336
404.547
384.607
365.451
347.009
329.211
311.99
295.284
279.035
263.19
247.703
232.536
217.651
203.022
188.62
174.426
160.418
146.578
132.888
119.329
105.882
100
100
100
100
100
109.819
123.107
136.637
150.446
164.538
178.919
193.591
208.553
223.805
239.344
255.164
271.257
287.615
304.222
321.063
338.113
355.346
372.721
390.192
407.701
425.194
442.611
459.904
476.976
493.555
1077.55
4092.66
3855.49
791.165
501.328
476.11
479.505
483.203
487.291
491.839
496.899
502.509
508.695
515.48
522.882
530.92
539.614
548.978
559.016
569.714
581.051
592.979
605.374
617.984
630.314
641.275
649.681
653.893
651.292
639.776
618.368
588.874
557.759
532.383
511.443
508.829
528.261
547.569
564.228
574.597
576.516
569.996
556.541
538.245
517.126
494.765
472.213
450.064
428.6
407.914
388.008
368.842
350.361
332.503
315.211
298.425
282.091
266.158
250.579
235.313
220.325
205.586
191.069
176.752
162.615
148.641
134.813
121.113
107.524
100
100
100
100
100
100
100
112.507
126.289
140.322
154.634
169.23
184.111
199.277
214.728
230.458
246.461
262.73
279.253
296.016
313.002
330.186
347.541
365.027
382.598
400.197
417.77
435.254
452.598
469.711
486.342
1072.08
4175.25
3933.2
811.885
494.478
467.188
470.094
473.303
476.896
480.934
485.462
490.512
496.105
502.256
508.977
516.281
524.179
532.678
541.773
551.439
561.648
572.345
583.409
594.599
605.457
615.034
622.313
625.862
623.621
613.953
596.245
572.109
546.843
526.324
509.301
506.963
522.142
536.596
548.31
554.464
553.448
545.378
531.547
513.707
493.541
472.364
451.051
430.095
409.728
390.028
370.995
352.595
334.782
317.505
300.714
284.36
268.395
252.776
237.463
222.422
207.622
193.037
178.649
164.435
150.38
136.468
122.683
109.008
100
100
100
100
100
100
100
100
101.427
115.428
129.645
144.119
158.871
173.903
189.214
204.804
220.667
236.797
253.183
269.816
286.679
303.753
321.017
338.44
355.983
373.602
391.24
408.841
426.343
443.688
460.791
477.423
1068.37
4216.44
4024.96
831.989
486.089
456.388
458.862
461.64
464.79
468.371
472.419
476.961
482.011
487.58
493.674
500.299
507.457
515.151
523.36
532.054
541.193
550.717
560.507
570.34
579.814
588.149
594.484
597.611
595.997
588.426
574.578
555.821
536.286
520.452
507.208
505.129
516.139
525.818
532.624
534.532
530.494
520.757
506.432
488.951
469.664
449.621
429.512
409.724
390.438
371.71
353.54
335.897
318.746
302.043
285.749
269.821
254.222
238.916
223.87
209.058
194.454
180.039
165.795
151.707
137.761
123.941
110.234
100
100
100
100
100
100
100
100
100
100
104.089
118.458
133.047
147.897
163.023
178.423
194.096
210.035
226.235
242.684
259.37
276.277
293.387
310.675
328.112
345.66
363.275
380.902
398.482
415.954
433.252
450.297
466.886
1061.59
4255.09
4132.88
849.166
475.732
443.715
445.819
448.218
450.976
454.145
457.757
461.834
466.387
471.421
476.937
482.934
489.408
496.35
503.732
511.508
519.631
528.03
536.592
545.122
553.283
560.48
566.029
568.973
568.256
563.056
553.261
539.937
526.043
514.746
505.16
503.331
510.254
515.23
517.159
514.794
507.65
496.132
481.201
463.984
445.509
426.55
407.611
388.967
370.741
352.969
335.647
318.75
302.249
286.111
270.305
254.799
239.563
224.569
209.795
195.218
180.822
166.591
152.513
138.575
124.766
111.075
100
100
100
100
100
100
100
100
100
100
100
100
106.79
121.461
136.359
151.523
166.957
182.66
198.623
214.84
231.299
247.986
264.886
281.978
299.238
316.636
334.138
351.697
369.262
386.774
404.168
421.378
438.323
454.84
1057.86
4278.57
4223.39
864.523
463.515
429.288
431.047
433.09
435.478
438.257
441.458
445.098
449.185
453.719
458.699
464.115
469.959
476.213
482.835
489.77
496.956
504.318
511.745
519.071
526.04
532.215
537.099
540.05
540.437
537.813
532.221
524.376
516.054
509.18
503.152
501.555
504.448
504.76
501.824
495.15
484.825
471.439
455.823
438.814
421.11
403.211
385.421
367.9
350.713
333.876
317.381
301.211
285.343
269.756
254.427
239.334
224.456
209.775
195.274
180.94
166.761
152.729
138.833
125.068
111.427
100
100
100
100
100
100
100
100
100
100
100
100
100
100
109.39
124.303
139.451
154.871
170.554
186.493
202.678
219.097
235.735
252.576
269.599
286.779
304.088
321.49
338.941
356.39
373.779
391.039
408.097
424.872
441.227
1056.51
4282.7
4276.56
872.16
449.929
413.221
414.633
416.316
418.329
420.716
423.507
426.717
430.351
434.408
438.881
443.759
449.025
454.654
460.595
466.78
473.14
479.589
486.025
492.302
498.237
503.554
507.93
511.027
512.615
512.65
511.309
508.939
506.151
503.661
501.156
501.544
504.432
504.75
501.819
495.149
484.826
471.445
455.837
438.838
421.143
403.251
385.467
367.949
350.764
333.928
317.432
301.26
285.391
269.802
254.471
239.376
224.496
209.812
195.308
180.97
166.788
152.75
138.85
125.08
111.434
100
100
100
100
100
100
100
100
100
100
100
100
100
100
109.395
124.304
139.447
154.862
170.54
186.473
202.651
219.064
235.695
252.528
269.543
286.714
304.014
321.405
338.846
356.283
373.659
390.904
407.946
424.702
441.044
1051.85
4266.62
4298.76
876.412
450.594
412.786
414.199
415.883
417.898
420.287
423.079
426.289
429.923
433.979
438.451
443.327
448.59
454.216
460.153
466.333
472.687
479.13
485.559
491.83
497.752
503.046
507.406
510.506
512.098
512.136
510.822
508.533
505.855
503.454
501.062
503.31
510.226
515.214
517.153
514.79
507.646
496.135
481.218
464.021
445.566
426.625
407.699
389.062
370.839
353.068
335.743
318.843
302.337
286.195
270.383
254.871
239.629
224.628
209.846
195.261
180.856
166.615
152.526
138.577
124.757
111.054
100
100
100
100
100
100
100
100
100
100
100
100
106.861
121.526
136.417
151.574
167.002
182.697
198.653
214.861
231.311
247.988
264.876
281.956
299.203
316.587
334.072
351.614
369.159
386.648
404.016
421.194
438.105
454.595
1045.4
4233.86
4289.84
877.451
463.629
428.377
430.137
432.183
434.574
437.356
440.559
444.2
448.287
452.821
457.797
463.209
469.047
475.293
481.905
488.828
496.002
503.354
510.777
518.106
525.09
531.295
536.207
539.158
539.511
536.849
531.27
523.559
515.443
508.756
502.961
505.109
516.112
525.803
532.616
534.521
530.479
520.745
506.435
488.975
469.711
449.687
429.592
409.811
390.527
371.797
353.622
335.974
318.816
302.106
285.803
269.868
254.26
238.944
223.889
209.065
194.45
180.022
165.765
151.664
137.704
123.87
110.149
100
100
100
100
100
100
100
100
100
100
104.262
118.63
133.218
148.069
163.194
178.594
194.266
210.205
226.404
242.851
259.536
276.441
293.547
310.831
328.262
345.803
363.408
381.022
398.586
416.037
433.308
450.321
466.89
1034.72
4196.88
4231.71
868.579
476.203
442.728
444.83
447.231
449.992
453.164
456.78
460.859
465.412
470.446
475.959
481.952
488.42
495.355
502.727
510.493
518.606
527
535.565
544.109
552.3
559.552
565.16
568.13
567.398
562.157
552.353
539.139
525.433
514.322
504.971
506.946
522.123
536.592
548.311
554.457
553.429
545.356
531.535
513.715
493.571
472.415
451.116
430.168
409.804
390.101
371.062
352.654
334.832
317.546
300.745
284.381
268.405
252.774
237.449
222.394
207.581
192.982
178.578
164.349
150.279
136.351
122.55
108.859
100
100
100
100
100
100
100
100
101.691
115.697
129.918
144.397
159.155
174.193
189.511
205.108
220.978
237.114
253.508
270.147
287.017
304.097
321.366
338.792
356.338
373.956
391.59
409.18
426.664
443.978
461.043
477.635
1031.34
4140.6
4164.31
859.626
487.159
455.328
457.803
460.583
463.738
467.322
471.373
475.916
480.967
486.535
492.628
499.249
506.403
514.091
522.295
530.983
540.121
549.65
559.457
569.325
578.853
587.272
593.688
596.848
595.216
587.583
573.696
555.017
535.662
520.028
507.025
508.815
528.251
547.576
564.238
574.592
576.491
569.96
556.51
538.232
517.137
494.799
472.263
450.124
428.662
407.974
388.061
368.885
350.393
332.523
315.218
298.42
282.073
266.125
250.532
235.251
220.248
205.492
190.959
176.626
162.473
148.482
134.636
120.919
107.312
100
100
100
100
100
100
100
112.857
126.649
140.692
155.015
169.623
184.517
199.696
215.161
230.905
246.924
263.209
279.748
296.527
313.529
330.729
348.098
365.597
383.178
400.782
418.354
435.828
453.149
470.233
486.837
1028.37
4069.4
4088.27
849.441
496.433
466.115
469.008
472.212
475.801
479.838
484.365
489.413
495.004
501.152
507.871
515.171
523.064
531.56
540.651
550.317
560.532
571.245
582.341
593.585
604.519
614.201
621.582
625.179
622.923
613.18
595.403
571.311
546.21
525.905
509.126
510.717
534.498
558.757
580.397
594.929
599.662
594.553
581.355
562.519
540.396
516.822
493.011
469.652
447.072
425.382
404.584
384.632
365.463
347.006
329.192
311.956
295.234
278.97
263.109
247.606
232.421
217.522
202.875
188.457
174.245
160.219
146.362
132.653
119.075
105.609
100
100
100
100
100
110.239
123.54
137.084
150.908
165.018
179.416
194.106
209.088
224.361
239.922
255.765
271.883
288.266
304.9
321.767
338.844
356.103
373.503
390.996
408.523
426.027
443.444
460.724
477.775
494.335
1023.32
3976.2
4041.66
838.029
504.095
475.01
478.392
482.082
486.164
490.708
495.763
501.368
507.549
514.33
521.726
529.76
538.448
547.809
557.845
568.546
579.895
591.849
604.291
616.975
629.406
640.498
649.028
653.306
650.698
639.095
617.588
588.1
557.129
531.977
511.281
512.653
540.865
570.136
596.783
615.453
622.921
619.104
606.03
586.528
563.296
538.424
513.292
488.68
464.956
442.245
420.548
399.81
379.956
360.906
342.581
324.906
307.811
291.231
275.107
259.389
244.034
229.001
214.257
199.774
185.528
171.496
157.659
143.995
130.486
117.111
103.849
100
100
100
107.962
120.715
133.702
146.964
160.509
174.343
188.471
202.896
217.619
232.64
247.957
263.565
279.459
295.627
312.059
328.736
345.637
362.733
379.985
397.342
414.745
432.138
449.456
466.655
483.639
500.127
1018.59
3865.56
3981.84
826.571
510.525
482.078
485.995
490.22
494.844
499.945
505.58
511.793
518.617
526.083
534.217
543.041
552.587
562.879
573.93
585.741
598.307
611.59
625.479
639.714
653.765
666.427
676.252
681.387
678.661
665.407
640.299
605.424
568.454
538.268
513.496
514.621
547.354
581.714
613.392
636.149
646.241
643.576
630.487
610.201
585.765
559.526
533.021
507.116
482.216
458.458
435.841
414.3
393.751
374.101
355.261
337.148
319.681
302.791
286.412
270.492
254.978
239.828
225.007
210.483
196.23
182.224
168.441
154.862
141.463
128.223
115.122
102.138
100
106.149
118.299
130.673
143.31
156.226
169.428
182.924
196.718
210.814
225.215
239.921
254.933
270.245
285.854
301.75
317.923
334.356
351.029
367.912
384.968
402.146
419.385
436.63
453.817
470.907
487.802
504.207
1008.59
3733.54
3936.29
821.32
516.056
487.278
491.784
496.597
501.817
507.527
513.793
520.666
528.186
536.391
545.313
554.988
565.451
576.739
588.875
601.871
615.735
630.445
645.892
661.813
677.645
692.085
703.327
709.435
706.805
692.071
663.503
623.277
580.201
544.794
515.776
516.625
553.969
593.493
630.219
657.003
669.598
667.935
654.684
633.486
607.741
580.053
552.112
524.864
498.749
473.911
450.345
427.98
406.718
386.457
367.096
348.542
330.707
313.513
296.893
280.78
265.124
249.878
235.005
220.469
206.241
192.295
178.607
165.153
151.91
138.855
125.964
113.217
108.729
116.409
128.118
140.07
152.294
164.798
177.591
190.682
204.075
217.777
231.79
246.118
260.759
275.713
290.976
306.541
322.398
338.532
354.924
371.546
388.361
405.318
422.357
439.422
456.453
473.414
490.209
506.532
994.274
3589.65
3888.6
819.796
520.886
490.575
495.721
501.173
507.038
513.408
520.356
527.94
536.207
545.203
554.97
565.551
576.983
589.321
602.604
616.851
632.086
648.301
665.397
683.108
700.84
717.207
730.018
737.304
735.062
719.072
687.216
641.698
592.414
551.582
518.128
518.667
560.72
605.483
647.265
678.004
692.964
692.14
678.566
656.315
629.143
599.912
570.461
541.811
514.432
488.473
463.927
440.71
418.714
397.826
377.934
358.935
340.732
323.242
306.386
290.098
274.321
259.005
244.109
229.595
215.431
201.588
188.04
174.76
161.725
148.907
136.283
123.83
119.098
126.136
137.363
148.834
160.575
172.597
184.911
197.525
210.448
223.684
237.24
251.119
265.323
279.852
294.704
309.874
325.354
341.132
357.189
373.5
390.028
406.723
423.527
440.382
457.237
474.057
490.759
507.019
972.465
3426.46
3861.15
830.222
525.136
491.835
497.683
503.833
510.399
517.482
525.163
533.507
542.571
552.406
563.063
574.594
587.054
600.5
614.983
630.538
647.201
664.981
683.796
703.375
723.102
741.52
756.133
764.819
763.255
746.281
711.357
660.652
605.093
558.644
520.554
520.754
567.626
617.705
664.541
699.137
716.3
716.122
702.04
678.587
649.849
618.965
587.92
557.8
529.1
501.976
476.41
452.31
429.556
408.022
387.585
368.133
349.564
331.781
314.705
298.262
282.391
267.038
252.156
237.706
223.652
209.962
196.607
183.558
170.789
158.27
145.975
133.878
128.927
135.281
145.956
156.872
168.054
179.518
191.275
203.336
215.71
228.404
241.425
254.78
268.472
282.503
296.873
311.579
326.616
341.974
357.636
373.58
389.77
406.156
422.685
439.298
455.957
472.626
489.244
505.469
942.885
3241.7
3852.88
852.406
530.786
490.919
497.522
504.422
511.74
519.585
528.046
537.197
547.102
557.822
569.418
581.952
595.486
610.078
625.812
642.734
660.892
680.313
700.93
722.473
744.31
764.94
781.631
791.941
791.337
773.677
735.945
680.19
618.299
566.017
523.066
522.893
574.711
630.192
682.072
720.412
739.585
739.828
725.005
700.174
669.713
637.049
604.308
572.638
542.553
514.208
487.579
462.559
439.017
416.811
395.814
375.906
356.971
338.909
321.632
305.061
289.131
273.781
258.961
244.628
230.741
217.265
204.167
191.418
178.984
166.837
154.947
143.284
138.154
143.779
153.81
164.079
174.611
185.425
196.535
207.951
219.686
231.749
244.149
256.893
269.988
283.439
297.246
311.411
325.929
340.795
355.994
371.505
387.296
403.319
419.523
435.854
452.284
468.782
485.304
501.51
897.682
3029.53
3845.05
904.72
541.246
487.566
494.98
502.681
510.8
519.453
528.737
538.736
549.523
561.17
573.745
587.321
601.972
617.786
634.827
653.173
672.897
694.045
716.571
740.212
764.322
787.364
806.409
818.635
819.282
801.267
761.009
700.362
632.087
573.741
525.671
525.098
582.017
642.997
699.907
741.853
762.806
763.19
747.339
720.881
688.508
653.917
619.371
586.067
554.53
524.907
497.164
471.182
446.814
423.918
402.353
381.985
362.695
344.374
326.926
310.268
294.325
279.033
264.336
250.185
236.536
223.349
210.589
198.22
186.209
174.524
163.13
151.998
146.706
151.511
160.786
170.296
180.07
190.126
200.482
211.15
222.145
233.477
245.158
257.198
269.603
282.382
295.538
309.074
322.989
337.279
351.933
366.934
382.251
397.842
413.657
429.65
445.804
462.098
478.505
494.712
834.213
2803.24
3872.63
987.849
553.766
481.432
489.701
498.248
507.209
516.711
526.859
537.745
549.455
562.071
575.672
590.341
606.165
623.24
641.659
661.513
682.894
705.87
730.422
756.311
782.884
808.576
830.315
844.873
847.127
829.158
786.705
721.332
646.593
581.895
528.394
527.386
589.586
656.165
718.058
763.396
785.763
785.91
768.701
740.355
705.895
669.265
632.84
597.816
564.744
533.776
504.864
477.874
452.66
429.059
406.918
386.1
366.476
347.929
330.357
313.667
297.777
282.616
268.122
254.239
240.917
228.113
215.786
203.898
192.413
181.294
170.507
160.019
154.489
158.276
166.666
175.292
184.183
193.362
202.847
212.653
222.796
233.289
244.145
255.375
266.987
278.992
291.394
304.201
317.412
331.027
345.041
359.438
374.192
389.264
404.612
420.196
436.005
452.027
468.239
484.343
754.049
2562.67
3757.85
1092.7
568.375
472.182
481.306
490.713
500.541
510.918
521.959
533.765
546.433
560.058
574.733
590.555
607.629
626.043
645.935
667.402
690.552
715.479
742.197
770.499
799.741
828.359
853.183
870.549
874.84
857.399
813.131
743.22
661.927
590.551
531.256
529.784
597.495
669.735
736.415
784.755
808.188
807.769
788.931
758.45
721.657
682.769
644.256
607.412
572.751
540.395
510.288
482.293
456.22
431.908
409.205
387.964
368.049
349.336
331.71
315.07
299.324
284.395
270.209
256.705
243.825
231.521
219.745
208.457
197.618
187.188
177.131
167.41
161.439
163.873
171.252
178.873
186.766
194.955
203.458
212.294
221.479
231.025
240.947
251.256
261.963
273.077
284.609
296.565
308.952
321.773
335.028
348.708
362.793
377.252
392.051
407.163
422.588
438.328
454.374
470.463
667.72
2303.97
3756.39
1274.22
584.785
459.082
469.226
479.612
490.39
501.701
513.674
526.427
540.077
554.733
570.517
587.548
605.929
625.803
647.282
670.486
695.539
722.556
751.583
782.452
814.542
846.33
874.603
895.267
902.163
885.92
840.421
766.275
678.336
599.863
534.291
532.338
605.781
683.781
755.245
806.421
830.403
828.811
807.766
774.672
735.258
693.95
653.284
614.526
578.191
544.387
513.029
483.94
456.979
431.976
408.759
387.166
367.05
348.27
330.703
314.233
298.763
284.197
270.459
257.471
245.172
233.502
222.413
211.856
201.79
192.174
182.97
174.141
167.445
168.113
174.359
180.854
187.637
194.722
202.137
209.893
218.01
226.498
235.369
244.637
254.309
264.403
274.922
285.886
297.3
309.18
321.528
334.347
347.626
361.348
375.491
390.043
405.023
420.445
436.312
452.371
584.308
2015.87
3657.13
1498.62
601.72
449.054
453.541
464.915
476.641
488.873
501.758
515.442
530.062
545.768
562.684
580.964
600.776
622.261
645.54
670.742
698.008
727.471
759.189
793.007
828.326
863.646
895.737
920.086
929.975
915.321
868.869
790.512
695.68
609.751
537.513
535.256
615.352
699.754
775.975
829.347
853.099
849.469
825.384
788.909
746.238
701.975
658.715
617.729
579.501
544.109
511.442
481.35
453.627
428.077
404.513
382.758
362.634
343.998
326.698
310.615
295.622
281.629
268.527
256.248
244.704
233.842
223.596
213.922
204.772
196.109
187.892
180.087
172.656
171.286
176.134
181.409
186.97
192.86
199.078
205.658
212.599
219.917
227.621
235.712
244.216
253.126
262.479
272.27
282.537
293.283
304.536
316.302
328.589
341.395
354.721
368.58
383.025
398.105
413.864
430.089
506.001
1747.51
3518.3
1838.49
637.174
447.193
434.291
446.707
459.357
472.431
486.121
500.608
516.077
532.701
550.692
570.232
591.501
614.653
639.874
667.342
697.228
729.664
764.697
802.173
841.49
881.14
917.906
946.831
960.595
948.339
901.437
818.721
716.086
621.303
541.145
538.191
624.647
714.917
795.307
850.307
873.245
867.191
839.895
799.861
753.688
706.133
659.901
616.324
575.887
538.683
504.613
473.488
445.08
419.152
395.472
373.811
353.979
335.775
319.045
303.621
289.391
276.211
264
252.637
242.064
232.185
222.957
214.315
206.225
198.642
191.536
184.87
178.617
175.148
176.624
180.553
184.815
189.392
194.339
199.635
205.309
211.353
217.765
224.567
231.738
239.327
247.314
255.759
264.657
274.061
283.981
294.455
305.496
317.13
329.382
342.306
356.007
370.604
386.226
402.731
436.643
1517.16
3363.98
2136.55
665.117