/*--------------------------------*- C++ -*----------------------------------*\
  =========                 |
  \\      /  F ield         | OpenFOAM: The Open Source CFD Toolbox
   \\    /   O peration     | Website:  https://openfoam.org
    \\  /    A nd           | Version:  8
     \\/     M anipulation  |
\*---------------------------------------------------------------------------*/
FoamFile
{
    version     2.0;
    format      ascii;
    class       volScalarField;
    location    "20/fluid";
    object      rho;
}
// * * * * * * * * * * * * * * * * * * * * * * * * * * * * * * * * * * * * * //

dimensions      [1 -3 0 0 0 0 0];

internalField   nonuniform List<scalar> 
4000
(
0.654716
0.64284
0.626237
0.60542
0.581892
0.557515
0.533825
0.511751
0.49167
0.473607
0.45741
0.442861
0.429738
0.417835
0.406978
0.397017
0.387829
0.379311
0.371376
0.363952
0.35698
0.35041
0.344194
0.338294
0.332674
0.327306
0.322165
0.317228
0.312477
0.307896
0.30347
0.299187
0.295037
0.29101
0.287097
0.283288
0.279572
0.275945
0.272401
0.268938
0.265552
0.26224
0.259001
0.25583
0.252728
0.249692
0.246721
0.243815
0.240971
0.238192
0.235475
0.232821
0.230232
0.227707
0.225249
0.222859
0.220541
0.218298
0.216135
0.214057
0.212073
0.210192
0.208428
0.206795
0.205316
0.204015
0.202957
0.202622
0.204239
0.208229
0.213156
0.218798
0.225139
0.232199
0.24
0.248574
0.257966
0.268236
0.279459
0.291731
0.305169
0.319917
0.336154
0.354097
0.374035
0.396338
0.421471
0.45002
0.482724
0.520528
0.564638
0.616524
0.67783
0.749991
0.833256
0.924763
1.01618
1.09427
1.1483
1.17711
0.654892
0.643563
0.627658
0.6075
0.584394
0.560134
0.536324
0.513987
0.493588
0.475207
0.458718
0.443913
0.43057
0.418482
0.407467
0.397373
0.388073
0.379462
0.371451
0.363961
0.356937
0.350321
0.344067
0.338136
0.332492
0.327107
0.321953
0.31701
0.312258
0.30768
0.303263
0.298992
0.294856
0.290847
0.286954
0.283166
0.279472
0.275866
0.272342
0.268897
0.265526
0.262227
0.258996
0.255832
0.252733
0.249698
0.246724
0.243812
0.240961
0.238171
0.235441
0.232773
0.230166
0.227622
0.225143
0.222729
0.220385
0.218114
0.215922
0.213815
0.211802
0.209896
0.208112
0.206468
0.204989
0.2037
0.202661
0.202391
0.204157
0.208222
0.213222
0.218941
0.225366
0.232515
0.240407
0.249072
0.258557
0.268929
0.28027
0.29268
0.30628
0.32122
0.337683
0.355901
0.376175
0.398895
0.424547
0.453748
0.487276
0.526129
0.57157
0.625114
0.688381
0.762594
0.847412
0.938915
1.02792
1.10183
1.15164
1.17776
0.654993
0.64396
0.628444
0.608721
0.586008
0.562004
0.538276
0.51588
0.495332
0.476757
0.460059
0.445049
0.431512
0.419246
0.408072
0.397834
0.388405
0.379678
0.371562
0.363985
0.356874
0.350178
0.343851
0.33785
0.332141
0.326694
0.321482
0.316482
0.311675
0.307044
0.302573
0.298251
0.294065
0.290006
0.286066
0.282231
0.278493
0.274844
0.271282
0.267802
0.264401
0.261075
0.257822
0.254639
0.251525
0.248477
0.245495
0.242578
0.239724
0.236934
0.234206
0.231542
0.228942
0.226406
0.223936
0.221534
0.219202
0.216943
0.214763
0.212668
0.210666
0.208769
0.206993
0.205363
0.203905
0.202655
0.201684
0.201584
0.203692
0.207909
0.213021
0.218852
0.225397
0.232671
0.240701
0.249524
0.259182
0.269738
0.281283
0.293921
0.307779
0.323012
0.339804
0.358393
0.379089
0.402288
0.428483
0.458294
0.492497
0.532085
0.578294
0.63258
0.696446
0.770927
0.855454
0.945957
1.03326
1.10501
1.15295
1.17802
0.65509
0.644353
0.629228
0.609919
0.587548
0.563747
0.540073
0.517612
0.496921
0.478157
0.461252
0.446037
0.432309
0.419868
0.408535
0.398156
0.388602
0.379766
0.371551
0.363882
0.356691
0.349918
0.343519
0.337455
0.33169
0.326193
0.320937
0.3159
0.311061
0.306401
0.301907
0.297564
0.29336
0.289285
0.285329
0.281481
0.277728
0.274065
0.270486
0.266987
0.263566
0.260219
0.256943
0.253737
0.250599
0.247527
0.244521
0.241578
0.2387
0.235884
0.233132
0.230443
0.227817
0.225257
0.222763
0.220337
0.217982
0.215702
0.213502
0.21139
0.209373
0.207467
0.205687
0.204059
0.202612
0.201385
0.200465
0.20056
0.203091
0.207485
0.212731
0.218693
0.225374
0.232791
0.24097
0.249947
0.259782
0.270538
0.28229
0.295151
0.309255
0.32476
0.341858
0.360786
0.381861
0.405481
0.432144
0.462473
0.497249
0.537467
0.584357
0.639353
0.703893
0.778867
0.863438
0.95318
1.03875
1.10826
1.15429
1.17827
0.655172
0.644684
0.629898
0.611002
0.589017
0.565496
0.541943
0.519432
0.498598
0.47964
0.462523
0.447096
0.433166
0.420539
0.409035
0.398502
0.38881
0.379846
0.371508
0.363724
0.356426
0.349558
0.343072
0.336928
0.331087
0.32552
0.320199
0.315099
0.310199
0.305482
0.300932
0.296535
0.292279
0.288155
0.284151
0.280257
0.27646
0.272755
0.269137
0.265603
0.262149
0.258772
0.255469
0.252239
0.24908
0.245989
0.242966
0.24001
0.23712
0.234295
0.231535
0.22884
0.226212
0.223649
0.221155
0.21873
0.216378
0.214103
0.211908
0.209802
0.207793
0.205896
0.204128
0.202515
0.201089
0.199894
0.19904
0.199354
0.202302
0.206857
0.212242
0.218338
0.225161
0.232724
0.241055
0.250192
0.260189
0.271124
0.28309
0.29618
0.310526
0.326295
0.343683
0.362934
0.384374
0.408405
0.435534
0.46639
0.501766
0.542663
0.59031
0.646112
0.711419
0.786934
0.87151
0.960377
1.04412
1.11137
1.15556
1.17851
0.655261
0.645044
0.630616
0.612106
0.590468
0.567189
0.543752
0.521277
0.500348
0.481223
0.463902
0.448258
0.434114
0.421292
0.409594
0.398875
0.389006
0.379876
0.371404
0.363504
0.356107
0.349153
0.342589
0.336373
0.330468
0.324841
0.319464
0.314311
0.309363
0.304602
0.30001
0.295574
0.291281
0.287121
0.283083
0.279153
0.275322
0.271581
0.267928
0.264357
0.260866
0.257452
0.254114
0.250849
0.247656
0.244533
0.241479
0.238493
0.235574
0.232722
0.229937
0.227219
0.224568
0.221986
0.219474
0.217034
0.214669
0.212383
0.210181
0.208071
0.206063
0.20417
0.202412
0.200812
0.199403
0.198236
0.197442
0.197985
0.201322
0.206041
0.211562
0.217798
0.224761
0.232469
0.24095
0.250244
0.26041
0.27152
0.283665
0.296969
0.311551
0.327579
0.345254
0.364828
0.386634
0.411086
0.438699
0.470115
0.506139
0.547782
0.59627
0.652975
0.719151
0.795296
0.879934
0.967925
1.04978
1.11468
1.15691
1.17877
0.655357
0.645431
0.6314
0.613344
0.59213
0.569156
0.545863
0.523362
0.502312
0.482996
0.465445
0.449553
0.435155
0.422067
0.410152
0.399249
0.389221
0.379953
0.371349
0.363328
0.355819
0.348764
0.34211
0.335809
0.329825
0.324125
0.318679
0.313462
0.308452
0.30363
0.298981
0.294491
0.290147
0.285938
0.281853
0.277878
0.274003
0.270221
0.266527
0.262917
0.25939
0.255942
0.252571
0.249276
0.246055
0.242906
0.239828
0.23682
0.233882
0.231013
0.228212
0.225481
0.222819
0.220227
0.217707
0.21526
0.21289
0.2106
0.208396
0.206286
0.204279
0.202391
0.200638
0.199048
0.19765
0.196495
0.195743
0.196467
0.200161
0.205052
0.210713
0.217087
0.224187
0.232034
0.240658
0.250103
0.260429
0.271711
0.284045
0.297543
0.312356
0.328643
0.346609
0.366514
0.388701
0.413594
0.44172
0.473734
0.510452
0.552891
0.602266
0.659902
0.726941
0.803663
0.888263
0.975276
1.05521
1.11782
1.15818
1.17902
0.655452
0.645816
0.632164
0.614532
0.59371
0.571019
0.547867
0.52537
0.504223
0.484742
0.46699
0.450883
0.436275
0.422996
0.410885
0.399794
0.389592
0.380166
0.371416
0.363262
0.355632
0.348466
0.341712
0.335323
0.329257
0.323481
0.317965
0.312685
0.307616
0.302739
0.298038
0.293497
0.289106
0.284851
0.280722
0.276703
0.272784
0.268958
0.265221
0.261568
0.257999
0.25451
0.2511
0.247767
0.24451
0.241328
0.238218
0.235182
0.232217
0.229323
0.2265
0.223749
0.22107
0.218463
0.215931
0.213474
0.211097
0.208803
0.206597
0.204488
0.202485
0.200603
0.198859
0.19728
0.195896
0.194758
0.194055
0.194975
0.198934
0.203974
0.20976
0.216259
0.223486
0.231462
0.24022
0.249808
0.260287
0.271737
0.284256
0.297964
0.313004
0.32955
0.347812
0.368061
0.390648
0.416008
0.44468
0.47733
0.514783
0.558059
0.608355
0.666944
0.734842
0.812106
0.896603
0.982566
1.06054
1.12088
1.15942
1.17925
0.655555
0.646233
0.633002
0.615854
0.595493
0.573157
0.550204
0.527751
0.50652
0.486871
0.4689
0.452553
0.4377
0.424183
0.411847
0.400545
0.390149
0.380544
0.371634
0.363333
0.355569
0.34828
0.341414
0.334923
0.328766
0.322905
0.317312
0.311958
0.306822
0.301884
0.297124
0.292529
0.288086
0.283783
0.279607
0.275542
0.271579
0.26771
0.26393
0.260237
0.256627
0.253101
0.249655
0.246288
0.242999
0.239787
0.23665
0.233588
0.230599
0.227685
0.224843
0.222075
0.219381
0.216762
0.214219
0.211754
0.209371
0.207072
0.204865
0.202755
0.200753
0.198874
0.197136
0.195564
0.194189
0.193061
0.19239
0.193479
0.197646
0.202826
0.208734
0.215351
0.222698
0.230796
0.239682
0.249405
0.260032
0.271646
0.284348
0.298263
0.313538
0.330353
0.348927
0.369538
0.392549
0.418407
0.447661
0.480988
0.519223
0.563382
0.614644
0.674216
0.74298
0.820756
0.905078
0.989899
1.06584
1.1239
1.16064
1.17949
0.655664
0.646672
0.633883
0.617246
0.597382
0.575441
0.552729
0.530355
0.509069
0.489267
0.471083
0.454492
0.439384
0.425616
0.413039
0.401511
0.390906
0.381109
0.372024
0.363565
0.355658
0.348238
0.341252
0.334651
0.328396
0.322446
0.31677
0.311341
0.306135
0.301131
0.296311
0.291659
0.287162
0.282807
0.278583
0.274471
0.270461
0.266547
0.262723
0.258986
0.255335
0.251769
0.248285
0.244882
0.241559
0.238315
0.235149
0.23206
0.229048
0.226112
0.223251
0.220467
0.217759
0.215128
0.212576
0.210105
0.207717
0.205416
0.203208
0.201099
0.1991
0.197225
0.195492
0.193926
0.192557
0.191436
0.190785
0.192012
0.196354
0.201659
0.207679
0.214409
0.221867
0.230081
0.23909
0.248946
0.259718
0.271495
0.284382
0.298508
0.314025
0.331121
0.350021
0.371016
0.394479
0.420867
0.450744
0.484795
0.523862
0.568956
0.621228
0.681817
0.751452
0.829701
0.913761
0.997326
1.07115
1.12689
1.16184
1.17971
0.655776
0.647124
0.634793
0.61869
0.599353
0.577843
0.555409
0.533148
0.511832
0.491894
0.473506
0.456672
0.441307
0.42728
0.414452
0.402688
0.391862
0.381863
0.372592
0.363964
0.355903
0.348344
0.34123
0.334514
0.328151
0.322105
0.316342
0.310833
0.305552
0.30048
0.295596
0.290885
0.286332
0.281926
0.277652
0.273493
0.269438
0.26548
0.261613
0.257835
0.254145
0.250541
0.247021
0.243585
0.240231
0.236958
0.233765
0.230651
0.227616
0.22466
0.221781
0.218981
0.21626
0.213618
0.211056
0.208578
0.206184
0.20388
0.20167
0.199561
0.197563
0.19569
0.193959
0.192394
0.191024
0.1899
0.189249
0.190559
0.195068
0.200497
0.206629
0.213466
0.221032
0.229358
0.238485
0.248471
0.259388
0.271329
0.284404
0.298746
0.314515
0.331906
0.351151
0.372554
0.396498
0.423455
0.453997
0.48882
0.528769
0.574847
0.628171
0.689795
0.760293
0.838962
0.922658
1.00484
1.07645
1.12985
1.16302
1.17994
0.65589
0.647585
0.635722
0.62017
0.601385
0.58034
0.558219
0.536104
0.514783
0.494727
0.476145
0.459073
0.443448
0.429158
0.416073
0.404064
0.39301
0.382799
0.373334
0.364528
0.356306
0.348601
0.341355
0.334517
0.328044
0.321896
0.316041
0.310448
0.305091
0.299946
0.294996
0.290224
0.285614
0.281154
0.276829
0.272622
0.268521
0.264519
0.260609
0.25679
0.253061
0.24942
0.245866
0.242397
0.239013
0.235712
0.232494
0.229357
0.226301
0.223326
0.220431
0.217617
0.214884
0.212232
0.209663
0.207178
0.204781
0.202475
0.200264
0.198155
0.196158
0.194287
0.192557
0.190994
0.189625
0.188499
0.187852
0.189247
0.193879
0.199408
0.205636
0.21257
0.220236
0.228667
0.237909
0.248022
0.259084
0.27119
0.284455
0.299019
0.315051
0.332751
0.352361
0.374193
0.398647
0.426204
0.457451
0.493092
0.533972
0.581085
0.635505
0.698191
0.769539
0.848565
0.931781
1.01244
1.08175
1.13278
1.16419
1.18016
0.656004
0.64805
0.636661
0.62167
0.603458
0.582905
0.561129
0.53919
0.517892
0.497736
0.478971
0.461665
0.445781
0.431224
0.417877
0.405618
0.394327
0.383898
0.374233
0.365244
0.356855
0.349
0.341617
0.334655
0.328067
0.321816
0.315866
0.310186
0.30475
0.299533
0.294516
0.289682
0.285014
0.2805
0.276126
0.271871
0.267725
0.263679
0.259729
0.255872
0.252106
0.248431
0.244845
0.241346
0.237934
0.234607
0.231365
0.228207
0.225131
0.222139
0.219229
0.216401
0.213657
0.210995
0.208419
0.205929
0.203527
0.201218
0.199005
0.196896
0.1949
0.193028
0.191299
0.189735
0.188364
0.187236
0.186591
0.188039
0.192778
0.198401
0.20472
0.211744
0.219505
0.228038
0.237392
0.247631
0.258836
0.271108
0.284568
0.299361
0.315662
0.33368
0.353668
0.375951
0.40094
0.429131
0.461122
0.497626
0.539488
0.587683
0.64324
0.70701
0.779193
0.858506
0.941117
1.02012
1.08703
1.13566
1.16534
1.18038
0.656118
0.648512
0.637598
0.623173
0.605545
0.585505
0.564103
0.542368
0.521115
0.500878
0.481941
0.464408
0.448267
0.433442
0.41983
0.407316
0.395786
0.385134
0.375264
0.366089
0.357531
0.349521
0.341999
0.334911
0.32821
0.321853
0.315808
0.31004
0.304524
0.299234
0.29415
0.289253
0.284527
0.27996
0.275534
0.271231
0.267039
0.262951
0.258964
0.255072
0.251274
0.247568
0.243953
0.240428
0.23699
0.233641
0.230377
0.2272
0.224107
0.221099
0.218176
0.215337
0.212582
0.209913
0.20733
0.204834
0.202429
0.200117
0.197903
0.195794
0.193797
0.191925
0.190195
0.188629
0.187254
0.186119
0.185465
0.186957
0.19178
0.197493
0.203897
0.211009
0.21886
0.22749
0.236952
0.247313
0.258659
0.271096
0.28475
0.299775
0.316352
0.334698
0.355076
0.377827
0.403375
0.43223
0.465002
0.50241
0.5453
0.594626
0.651357
0.716226
0.789219
0.868741
0.95062
1.02783
1.09226
1.13849
1.16646
1.18059
0.656229
0.648966
0.638518
0.624655
0.607615
0.588101
0.567092
0.545585
0.524399
0.504097
0.485001
0.467247
0.450852
0.435762
0.421884
0.409113
0.397343
0.386468
0.376393
0.367031
0.358303
0.35014
0.342479
0.335266
0.328451
0.321992
0.315852
0.309999
0.304404
0.299042
0.293892
0.288934
0.284152
0.279531
0.275055
0.270704
0.266468
0.262342
0.25832
0.254399
0.250573
0.24684
0.2432
0.239651
0.236192
0.232821
0.229539
0.226345
0.223237
0.220216
0.21728
0.214431
0.211667
0.208991
0.206402
0.203902
0.201494
0.199179
0.196964
0.194853
0.192855
0.190983
0.189251
0.187681
0.186301
0.185157
0.18449
0.18601
0.190905
0.1967
0.203185
0.210377
0.218313
0.227035
0.2366
0.247079
0.258563
0.271163
0.28501
0.300264
0.317117
0.335794
0.35657
0.379799
0.405923
0.435464
0.469046
0.507396
0.551354
0.60185
0.659788
0.725764
0.799536
0.879176
0.960191
1.03549
1.09739
1.14124
1.16754
1.18079
0.656336
0.649401
0.639404
0.626088
0.609628
0.590642
0.570037
0.548774
0.527672
0.507321
0.488076
0.47011
0.453467
0.438114
0.423974
0.410951
0.398942
0.387847
0.37757
0.368025
0.359131
0.350819
0.343024
0.335689
0.328765
0.322207
0.315978
0.310042
0.304372
0.298941
0.293727
0.28871
0.283873
0.279201
0.274676
0.270281
0.266005
0.261844
0.257793
0.253845
0.249996
0.246242
0.242581
0.239013
0.235535
0.232148
0.228851
0.225642
0.222522
0.219489
0.216543
0.213685
0.210915
0.208232
0.205638
0.203134
0.200723
0.198407
0.196189
0.194077
0.192078
0.190203
0.188469
0.186895
0.185508
0.184354
0.183674
0.185212
0.190166
0.196036
0.202593
0.209859
0.217872
0.226679
0.23634
0.24693
0.258544
0.271298
0.285331
0.30081
0.317933
0.336936
0.358108
0.381817
0.40852
0.438758
0.473167
0.51248
0.557531
0.609222
0.668381
0.735457
0.809961
0.889629
0.969667
1.04297
1.10233
1.14386
1.16857
1.18099
0.656435
0.649807
0.640232
0.627434
0.611529
0.593056
0.572852
0.55184
0.530834
0.510445
0.491065
0.472898
0.456017
0.440411
0.426018
0.41275
0.400512
0.389205
0.378736
0.369016
0.359966
0.351513
0.343592
0.336144
0.329118
0.322469
0.316157
0.310147
0.304407
0.298913
0.29364
0.288569
0.283681
0.27896
0.274391
0.269956
0.265647
0.261457
0.257379
0.253409
0.249542
0.245772
0.242095
0.238512
0.235021
0.231621
0.228311
0.225091
0.22196
0.218918
0.215965
0.2131
0.210323
0.207636
0.205038
0.202531
0.200117
0.197799
0.19558
0.193466
0.191466
0.189589
0.187851
0.186272
0.184877
0.183713
0.183019
0.184558
0.189564
0.195501
0.202124
0.209455
0.217538
0.226421
0.236168
0.246858
0.258591
0.271487
0.285692
0.301379
0.318757
0.338071
0.359622
0.383796
0.411066
0.441989
0.477216
0.517485
0.563627
0.616506
0.676871
0.745015
0.820191
0.899807
0.978792
1.05008
1.10697
1.1463
1.16953
1.18116
0.656523
0.650166
0.640968
0.628636
0.613236
0.595238
0.575414
0.554643
0.533736
0.513322
0.49382
0.475469
0.458369
0.442529
0.427902
0.414409
0.40196
0.39046
0.379816
0.369939
0.360748
0.352169
0.344136
0.336588
0.329474
0.322745
0.316361
0.310285
0.304486
0.298936
0.293612
0.288493
0.283559
0.278795
0.27419
0.269724
0.265387
0.261174
0.257076
0.253089
0.249207
0.245425
0.241739
0.238146
0.234645
0.231235
0.227917
0.224689
0.22155
0.218502
0.215543
0.212672
0.209892
0.2072
0.2046
0.20209
0.199675
0.197355
0.195135
0.19302
0.191017
0.189137
0.187396
0.185811
0.184407
0.18323
0.182519
0.184047
0.189101
0.195098
0.201778
0.209165
0.217306
0.226252
0.236071
0.246846
0.258679
0.271697
0.286051
0.301922
0.319525
0.339118
0.361012
0.385613
0.413407
0.44497
0.480967
0.522143
0.569321
0.623334
0.684844
0.753987
0.829763
0.909264
0.987186
1.05654
1.11113
1.14847
1.17037
1.18132
0.656592
0.650451
0.641555
0.6296
0.614615
0.597011
0.577503
0.556936
0.536113
0.515678
0.496075
0.477571
0.460289
0.444255
0.429435
0.415758
0.403138
0.391481
0.380696
0.370693
0.36139
0.352712
0.344591
0.336965
0.329781
0.32299
0.31655
0.310424
0.304578
0.298985
0.293621
0.288462
0.28349
0.278695
0.274063
0.269574
0.265219
0.260989
0.256877
0.252878
0.248986
0.245197
0.241505
0.237907
0.234401
0.230986
0.227662
0.224429
0.221286
0.218233
0.21527
0.212397
0.209613
0.20692
0.204317
0.201806
0.19939
0.197069
0.194848
0.192732
0.190728
0.188846
0.1871
0.18551
0.184097
0.182908
0.182182
0.183697
0.188786
0.19483
0.201555
0.208984
0.217167
0.22616
0.236031
0.246868
0.258776
0.271887
0.286355
0.302368
0.320149
0.339964
0.362137
0.387086
0.415314
0.447414
0.484063
0.526014
0.574085
0.629078
0.691579
0.761577
0.837844
0.917199
0.994153
1.06183
1.11449
1.15019
1.17104
1.18145
0.656633
0.650618
0.641901
0.630172
0.615438
0.598075
0.578761
0.558319
0.537546
0.517095
0.497427
0.478827
0.461432
0.445279
0.430343
0.416556
0.403834
0.392086
0.381218
0.371142
0.361774
0.353039
0.344867
0.337197
0.329973
0.323147
0.316675
0.31052
0.304648
0.29903
0.293639
0.288455
0.283463
0.278651
0.274005
0.269504
0.265139
0.2609
0.256781
0.252776
0.24888
0.245087
0.241392
0.237793
0.234286
0.230869
0.227543
0.224308
0.221162
0.218107
0.215142
0.212267
0.209482
0.206788
0.204184
0.201673
0.199256
0.196934
0.194713
0.192596
0.190592
0.188708
0.18696
0.185366
0.183948
0.18275
0.182014
0.183517
0.188624
0.194697
0.201446
0.208897
0.217103
0.22612
0.236019
0.246889
0.258838
0.271999
0.286531
0.302625
0.320508
0.340453
0.362791
0.387949
0.416441
0.448868
0.485919
0.528352
0.576981
0.632588
0.695711
0.766247
0.842825
0.922092
0.998447
1.06508
1.11655
1.15125
1.17145
1.18152
0.656634
0.650622
0.641908
0.630181
0.615447
0.59808
0.57876
0.558309
0.537527
0.517068
0.497396
0.478793
0.461398
0.445248
0.430314
0.416531
0.403813
0.392068
0.381203
0.371129
0.361764
0.35303
0.34486
0.337191
0.329968
0.323143
0.316672
0.310517
0.304646
0.299028
0.293638
0.288454
0.283463
0.278651
0.274005
0.269505
0.26514
0.260901
0.256782
0.252778
0.248881
0.245088
0.241394
0.237795
0.234288
0.230872
0.227546
0.224311
0.221166
0.218111
0.215146
0.212271
0.209486
0.206791
0.204188
0.201676
0.199259
0.196938
0.194716
0.192599
0.190594
0.18871
0.186962
0.185367
0.183948
0.182749
0.182011
0.183499
0.188603
0.194675
0.201424
0.208875
0.21708
0.226096
0.235994
0.246862
0.25881
0.271971
0.286503
0.302598
0.320483
0.340431
0.362773
0.387938
0.416439
0.448877
0.485942
0.528388
0.577029
0.632643
0.695764
0.76629
0.842853
0.922104
0.99845
1.06508
1.11655
1.15125
1.17144
1.18152
0.656594
0.650456
0.641563
0.629611
0.614627
0.597021
0.577505
0.556925
0.536085
0.515631
0.496015
0.477502
0.460217
0.444185
0.42937
0.4157
0.403088
0.391439
0.38066
0.370663
0.361365
0.352692
0.344574
0.336952
0.32977
0.322982
0.316544
0.310419
0.304576
0.298985
0.293621
0.288463
0.283493
0.278698
0.274067
0.269579
0.265224
0.260994
0.256883
0.252884
0.248992
0.245203
0.241512
0.237915
0.234409
0.230995
0.227672
0.224439
0.221297
0.218244
0.215281
0.212408
0.209625
0.206931
0.204328
0.201817
0.1994
0.197079
0.194857
0.19274
0.190735
0.188851
0.187104
0.185512
0.184097
0.182906
0.182172
0.183644
0.188722
0.194765
0.201488
0.208916
0.217096
0.226085
0.235953
0.246786
0.258692
0.2718
0.286267
0.302281
0.320066
0.339888
0.362071
0.387035
0.415283
0.447405
0.484079
0.52605
0.574129
0.62911
0.691575
0.761519
0.837739
0.917084
0.994081
1.06183
1.11454
1.15024
1.17106
1.18145
0.656525
0.650172
0.640976
0.628646
0.613247
0.595247
0.575412
0.554622
0.53369
0.513251
0.493729
0.475365
0.458261
0.442423
0.427803
0.41432
0.401883
0.390393
0.379759
0.369891
0.360708
0.352135
0.344108
0.336565
0.329454
0.322729
0.316348
0.310276
0.30448
0.298932
0.293611
0.288494
0.283561
0.278799
0.274195
0.26973
0.265394
0.261181
0.257084
0.253097
0.249216
0.245435
0.24175
0.238158
0.234658
0.231249
0.227932
0.224704
0.221567
0.218519
0.21556
0.21269
0.209909
0.207218
0.204617
0.202107
0.199691
0.19737
0.195149
0.193032
0.191027
0.189145
0.187401
0.185813
0.184406
0.183226
0.182499
0.183962
0.188997
0.194991
0.201668
0.209051
0.217187
0.226128
0.23594
0.246709
0.258538
0.271552
0.285905
0.301776
0.319384
0.338986
0.360895
0.385516
0.413337
0.444931
0.480962
0.522165
0.569355
0.623353
0.684815
0.753886
0.829597
0.909084
0.987068
1.05653
1.1112
1.14854
1.17041
1.18133
0.656436
0.649808
0.640233
0.627434
0.61153
0.593058
0.572848
0.551818
0.530786
0.510368
0.490962
0.472777
0.455889
0.440283
0.425896
0.412639
0.400413
0.389119
0.378661
0.368952
0.359911
0.351466
0.343552
0.33611
0.32909
0.322446
0.316138
0.310132
0.304396
0.298905
0.293636
0.288569
0.283683
0.278964
0.274397
0.269964
0.265656
0.261467
0.257391
0.253422
0.249555
0.245786
0.242111
0.238529
0.235039
0.231641
0.228332
0.225113
0.221983
0.218942
0.215989
0.213124
0.210348
0.20766
0.205062
0.202554
0.200139
0.19782
0.195599
0.193483
0.19148
0.189599
0.187858
0.186275
0.184876
0.183707
0.18299
0.184442
0.18942
0.195352
0.20197
0.209295
0.21737
0.226245
0.235984
0.246667
0.258394
0.271285
0.285488
0.301176
0.318558
0.337882
0.359449
0.383645
0.410942
0.441897
0.477154
0.517444
0.563584
0.616429
0.67672
0.744766
0.819864
0.89948
0.97858
1.05005
1.10707
1.14642
1.16958
1.18117
0.656336
0.649399
0.639399
0.626083
0.609627
0.590647
0.57004
0.548761
0.52763
0.507243
0.487966
0.469975
0.45332
0.437964
0.423828
0.410815
0.398819
0.387738
0.377475
0.367942
0.35906
0.350758
0.342971
0.335644
0.328726
0.322175
0.315951
0.31002
0.304354
0.298929
0.29372
0.288707
0.283874
0.279205
0.274683
0.270289
0.266016
0.261857
0.257807
0.253861
0.250014
0.246261
0.242602
0.239035
0.235559
0.232174
0.228878
0.22567
0.222551
0.219518
0.216573
0.213715
0.210945
0.208262
0.205667
0.203162
0.200749
0.198431
0.196212
0.194097
0.192094
0.190215
0.188476
0.186897
0.185505
0.184346
0.183639
0.185069
0.189982
0.195843
0.202394
0.209651
0.217655
0.226452
0.236104
0.246685
0.258293
0.271041
0.285071
0.300551
0.317679
0.336693
0.357882
0.381614
0.408346
0.438614
0.47305
0.512375
0.557412
0.609046
0.668102
0.73505
0.809452
0.889128
0.969327
1.04289
1.10244
1.14401
1.16865
1.181
0.656229
0.648961
0.638508
0.624645
0.607614
0.588112
0.567106
0.545584
0.524365
0.504021
0.484884
0.467099
0.450686
0.435588
0.421714
0.408954
0.397197
0.386337
0.376278
0.36693
0.358216
0.350065
0.342415
0.33521
0.328404
0.321952
0.315818
0.30997
0.304382
0.299026
0.293881
0.288928
0.28415
0.279534
0.275062
0.270714
0.266481
0.262357
0.258338
0.254419
0.250595
0.246864
0.243226
0.239679
0.236221
0.232853
0.229572
0.226379
0.223272
0.220251
0.217316
0.214467
0.211703
0.209026
0.206436
0.203935
0.201524
0.199208
0.196989
0.194875
0.192873
0.190995
0.189257
0.187681
0.186294
0.185143
0.184441
0.185831
0.190676
0.196461
0.202938
0.210119
0.218044
0.226754
0.236308
0.246777
0.258253
0.270846
0.284691
0.299947
0.316805
0.335494
0.356288
0.379542
0.405694
0.435265
0.46887
0.507225
0.551152
0.601569
0.659373
0.725187
0.798833
0.878479
0.959697
1.03533
1.0975
1.14142
1.16764
1.18081
0.656116
0.648504
0.637582
0.623158
0.605544
0.585522
0.564128
0.542379
0.52109
0.500804
0.48182
0.464248
0.448083
0.433249
0.419639
0.407134
0.395618
0.384984
0.375131
0.365973
0.35743
0.349434
0.341923
0.334846
0.328154
0.321806
0.315767
0.310008
0.304499
0.299216
0.294138
0.289247
0.284526
0.279964
0.275543
0.271244
0.267055
0.262971
0.258986
0.255098
0.251302
0.247598
0.243986
0.240462
0.237027
0.233678
0.230417
0.22724
0.224148
0.221141
0.218217
0.215378
0.212623
0.209952
0.207368
0.204871
0.202463
0.200149
0.197931
0.195817
0.193815
0.191937
0.1902
0.188626
0.187242
0.186097
0.185401
0.186741
0.191505
0.197206
0.203601
0.210699
0.218537
0.227153
0.236602
0.246952
0.258289
0.270719
0.284371
0.299396
0.315979
0.334337
0.354735
0.37751
0.403087
0.43197
0.464761
0.502165
0.54501
0.594234
0.650803
0.715478
0.788317
0.867838
0.949954
1.02758
1.09236
1.13871
1.16658
1.18061
0.656002
0.648038
0.63664
0.62165
0.603456
0.582929
0.561168
0.539216
0.517877
0.497667
0.478847
0.461496
0.445583
0.431014
0.417666
0.405416
0.394141
0.383729
0.374083
0.365112
0.35674
0.348899
0.341529
0.334579
0.328003
0.321761
0.315821
0.31015
0.304722
0.299512
0.294502
0.289674
0.285012
0.280504
0.276135
0.271885
0.267743
0.263701
0.259754
0.2559
0.252138
0.248466
0.244882
0.241386
0.237975
0.23465
0.23141
0.228252
0.225178
0.222186
0.219276
0.216448
0.213702
0.21104
0.208462
0.205969
0.203565
0.201252
0.199035
0.196921
0.194919
0.19304
0.191302
0.189728
0.188346
0.187206
0.186511
0.187785
0.192455
0.198067
0.204374
0.211384
0.219128
0.227645
0.236983
0.247208
0.258402
0.270665
0.28412
0.298914
0.315222
0.333254
0.353261
0.375569
0.400587
0.428804
0.460809
0.497299
0.539102
0.587175
0.642541
0.706082
0.778079
0.857382
0.940261
1.01976
1.08711
1.1359
1.16547
1.1804
0.655886
0.647568
0.635694
0.620143
0.601383
0.580372
0.558271
0.536144
0.514781
0.494664
0.47602
0.458897
0.443238
0.428931
0.415844
0.403844
0.392804
0.382612
0.373167
0.364381
0.356177
0.348488
0.341257
0.334433
0.327971
0.321836
0.315992
0.310408
0.30506
0.299924
0.294982
0.290216
0.285614
0.28116
0.276842
0.27264
0.268545
0.264547
0.260642
0.256827
0.253101
0.249463
0.245912
0.242445
0.239063
0.235764
0.232547
0.22941
0.226355
0.22338
0.220485
0.21767
0.214935
0.212281
0.20971
0.207223
0.204822
0.202512
0.200296
0.198181
0.196178
0.194298
0.192559
0.190985
0.189604
0.188466
0.187768
0.188962
0.193521
0.199032
0.205243
0.212157
0.219803
0.228214
0.237438
0.247535
0.258584
0.27068
0.283941
0.298505
0.314543
0.332255
0.351883
0.373741
0.398221
0.425802
0.457057
0.492676
0.533483
0.580452
0.634654
0.697078
0.768212
0.847214
0.930722
1.01195
1.08179
1.13304
1.16434
1.18019
0.655771
0.647102
0.634756
0.618657
0.599351
0.577884
0.555476
0.533205
0.511843
0.491838
0.473381
0.45649
0.441085
0.427038
0.414207
0.40245
0.391639
0.381659
0.372409
0.363801
0.355759
0.348219
0.341122
0.33442
0.328072
0.322039
0.316288
0.310789
0.305519
0.300456
0.29558
0.290877
0.286332
0.281933
0.277666
0.273513
0.269464
0.265511
0.261649
0.257875
0.254188
0.250587
0.24707
0.243636
0.240284
0.237013
0.233821
0.230708
0.227673
0.224716
0.221837
0.219036
0.216313
0.213669
0.211106
0.208624
0.206227
0.203919
0.201704
0.199589
0.197584
0.195703
0.193962
0.192388
0.19101
0.189879
0.189185
0.190313
0.194711
0.200098
0.206198
0.213005
0.220543
0.228843
0.237948
0.247914
0.258816
0.270745
0.283811
0.29815
0.313927
0.33133
0.350596
0.372022
0.395992
0.422968
0.453514
0.488305
0.528165
0.57408
0.62716
0.688494
0.758742
0.837367
0.921375
1.00419
1.07644
1.13013
1.16319
1.17997
0.655658
0.646645
0.633839
0.617208
0.597382
0.575492
0.552813
0.53043
0.509094
0.489219
0.470958
0.454303
0.439151
0.425359
0.412776
0.401255
0.390665
0.380888
0.371824
0.363387
0.3555
0.3481
0.341131
0.334548
0.328308
0.322372
0.316709
0.311293
0.306098
0.301104
0.296294
0.291652
0.287163
0.282817
0.278601
0.274496
0.270494
0.266586
0.262768
0.259036
0.255389
0.251827
0.248346
0.244946
0.241625
0.238383
0.235218
0.232129
0.229116
0.226179
0.223318
0.220532
0.217821
0.215188
0.212633
0.210157
0.207765
0.205459
0.203244
0.201128
0.199121
0.197236
0.195492
0.193913
0.192531
0.191397
0.190686
0.191693
0.195929
0.201196
0.207185
0.213883
0.22131
0.229495
0.238478
0.248312
0.259067
0.270831
0.28371
0.297834
0.313355
0.330463
0.349382
0.3704
0.393887
0.420293
0.450167
0.484179
0.523144
0.568054
0.620054
0.680311
0.749661
0.827845
0.912232
0.996497
1.07106
1.12717
1.16202
1.17975
0.655548
0.646201
0.63295
0.61581
0.595494
0.573219
0.550305
0.527844
0.50656
0.48683
0.468775
0.452357
0.437453
0.423909
0.411565
0.40027
0.389889
0.380305
0.371417
0.36314
0.3554
0.348132
0.341286
0.334813
0.328673
0.322828
0.31725
0.311911
0.306788
0.301861
0.297114
0.29253
0.288096
0.283802
0.279635
0.275578
0.271622
0.267759
0.263985
0.260296
0.25669
0.253166
0.249722
0.246357
0.243068
0.239856
0.236719
0.233656
0.230666
0.227749
0.224906
0.222136
0.219439
0.216816
0.21427
0.211801
0.209414
0.20711
0.204896
0.20278
0.20077
0.198881
0.197132
0.195547
0.194158
0.193016
0.192279
0.193133
0.197163
0.202299
0.208173
0.214755
0.222066
0.230132
0.238989
0.248688
0.259295
0.270893
0.283586
0.297497
0.312775
0.329602
0.348194
0.368828
0.391861
0.417733
0.446978
0.480255
0.518374
0.562328
0.613288
0.672497
0.740942
0.818626
0.903279
0.988863
1.06566
1.12418
1.16082
1.17953
0.655443
0.645776
0.632101
0.61448
0.593712
0.571092
0.547985
0.525481
0.504276
0.484708
0.466863
0.450678
0.436014
0.422705
0.410584
0.399499
0.389313
0.379907
0.371183
0.363055
0.355449
0.348305
0.341572
0.335201
0.329153
0.323394
0.317894
0.312628
0.307572
0.302709
0.298021
0.293492
0.289112
0.284868
0.280748
0.276739
0.272828
0.26901
0.265279
0.261633
0.258068
0.254583
0.251177
0.247846
0.244591
0.24141
0.238301
0.235264
0.232298
0.229403
0.226578
0.223824
0.221142
0.218531
0.215994
0.213533
0.21115
0.20885
0.206637
0.20452
0.202507
0.200614
0.198858
0.197265
0.195866
0.194712
0.193934
0.194603
0.19838
0.203375
0.209125
0.215584
0.222772
0.230713
0.239439
0.248999
0.259455
0.270887
0.283393
0.297092
0.312139
0.328696
0.346976
0.367246
0.389853
0.415224
0.443882
0.476474
0.513799
0.556851
0.606821
0.665015
0.732555
0.809695
0.894521
0.981304
1.06024
1.12114
1.1596
1.1793
0.655344
0.645379
0.631312
0.613271
0.59212
0.569231
0.545992
0.523485
0.502375
0.482966
0.465313
0.449328
0.434855
0.421751