/*--------------------------------*- C++ -*----------------------------------*\
  =========                 |
  \\      /  F ield         | OpenFOAM: The Open Source CFD Toolbox
   \\    /   O peration     | Website:  https://openfoam.org
    \\  /    A nd           | Version:  8
     \\/     M anipulation  |
\*---------------------------------------------------------------------------*/
FoamFile
{
    version     2.0;
    format      ascii;
    class       volScalarField;
    location    "20/fluid";
    object      T;
}
// * * * * * * * * * * * * * * * * * * * * * * * * * * * * * * * * * * * * * //

dimensions      [0 0 0 1 0 0 0];

internalField   nonuniform List<scalar> 
4000
(
295.103
301.844
311.804
325.28
342.039
361.423
382.625
404.92
427.771
450.822
473.864
496.784
519.528
542.08
564.442
586.628
608.656
630.545
652.314
673.986
695.571
717.124
738.653
760.166
781.672
803.181
824.7
846.233
867.787
889.364
910.967
932.596
954.253
975.937
997.646
1019.39
1041.19
1063.04
1084.92
1106.85
1128.81
1150.78
1172.77
1194.75
1216.72
1238.66
1260.56
1282.41
1304.18
1325.87
1347.45
1368.92
1390.24
1411.39
1432.35
1453.08
1473.55
1493.71
1513.5
1532.85
1551.7
1569.92
1587.39
1603.94
1619.38
1633.43
1645.51
1651.49
1641.19
1612.18
1577.23
1538.76
1497.53
1453.99
1408.62
1361.82
1313.93
1265.22
1215.92
1166.21
1116.2
1066.02
1015.73
965.389
914.989
864.494
813.87
763.1
712.201
661.21
610.227
559.476
509.412
460.866
415.208
374.441
340.99
316.814
302.001
294.66
294.993
301.372
310.811
323.668
339.82
358.709
379.572
401.682
424.468
447.543
470.668
493.712
516.609
539.332
561.876
584.251
606.47
628.546
650.48
672.366
694.178
715.92
737.613
759.272
780.909
802.535
824.157
845.782
867.413
889.054
910.706
932.372
954.052
975.746
997.455
1019.19
1040.97
1062.79
1084.66
1106.57
1128.52
1150.5
1172.49
1194.49
1216.49
1238.47
1260.42
1282.33
1304.18
1325.96
1347.65
1369.24
1390.69
1412
1433.13
1454.06
1474.74
1495.12
1515.16
1534.77
1553.87
1572.32
1589.99
1606.68
1622.16
1636.16
1648.1
1653.55
1642.01
1612.4
1576.92
1537.94
1496.2
1452.2
1406.42
1359.29
1311.13
1262.16
1212.6
1162.62
1112.36
1061.9
1011.34
960.707
909.995
859.164
808.183
757.037
705.747
654.36
603.001
551.946
501.742
453.365
408.361
368.858
337.132
314.657
301.133
294.497
294.925
301.088
310.209
322.65
338.326
356.733
377.16
398.907
421.419
444.306
467.323
490.328
513.244
536.036
558.692
581.217
603.618
625.919
648.149
670.245
692.269
714.249
736.192
758.107
780.006
801.899
823.795
845.702
867.626
889.571
911.539
933.533
955.553
977.597
999.665
1021.77
1043.93
1066.14
1088.39
1110.68
1133
1155.34
1177.69
1200.03
1222.35
1244.63
1266.87
1289.06
1311.17
1333.19
1355.1
1376.9
1398.55
1420.03
1441.32
1462.38
1483.19
1503.69
1523.84
1543.56
1562.76
1581.32
1599.08
1615.82
1631.26
1645.03
1656.5
1660.52
1646.08
1615.15
1578.73
1538.89
1496.32
1451.53
1405.02
1357.14
1308.27
1258.68
1208.55
1158.02
1107.23
1056.3
1005.31
954.305
903.271
852.178
801.007
749.762
698.48
647.229
596.158
545.573
496.045
448.55
404.582
366.151
335.416
313.766
300.794
294.435
294.863
300.83
309.664
321.736
336.996
354.99
375.046
396.485
418.757
441.464
464.354
487.28
510.16
532.957
555.654
578.249
600.75
623.179
645.542
667.854
690.126
712.339
734.509
756.649
778.771
800.888
823.009
845.14
867.288
889.458
911.653
933.875
956.124
978.401
1000.71
1023.06
1045.47
1067.94
1090.48
1113.07
1135.71
1158.37
1181.05
1203.73
1226.4
1249.05
1271.65
1294.2
1316.69
1339.09
1361.39
1383.57
1405.6
1427.48
1449.16
1470.62
1491.82
1512.71
1533.23
1553.3
1572.83
1591.68
1609.68
1626.6
1642.12
1655.85
1666.99
1669.39
1651.3
1618.81
1581.24
1540.38
1496.84
1451.16
1403.81
1355.2
1305.6
1255.31
1204.58
1153.53
1102.29
1050.94
999.584
948.275
897
845.735
794.469
743.212
692.006
640.925
590.124
539.919
490.897
444.052
400.895
363.412
333.661
312.855
300.449
294.371
294.808
300.597
309.165
320.888
335.749
353.345
373.044
394.185
416.228
438.773
461.559
484.429
507.298
530.121
552.877
575.562
598.186
620.757
643.24
665.719
688.153
710.558
732.945
755.322
777.695
800.079
822.486
844.924
867.399
889.913
912.472
935.073
957.716
980.4
1003.13
1025.91
1048.77
1071.7
1094.69
1117.75
1140.85
1163.98
1187.11
1210.24
1233.35
1256.43
1279.46
1302.43
1325.31
1348.11
1370.78
1393.33
1415.72
1437.93
1459.94
1481.7
1503.19
1524.36
1545.14
1565.45
1585.21
1604.26
1622.41
1639.43
1655
1668.62
1679.33
1679.88
1658.1
1624.09
1585.26
1543.25
1498.63
1451.95
1403.69
1354.24
1303.92
1252.95
1201.52
1149.86
1098.1
1046.31
994.581
942.95
891.406
839.931
788.518
737.179
685.963
634.95
584.31
534.384
485.794
439.568
397.229
360.719
331.963
311.988
300.124
294.312
294.751
300.359
308.66
320.031
334.485
351.666
370.991
391.838
413.66
436.055
458.751
481.58
504.448
527.316
550.121
572.858
595.528
618.124
640.7
663.271
685.848
708.427
731.019
753.633
776.277
798.953
821.663
844.409
867.188
889.995
912.867
935.796
958.779
981.814
1004.91
1028.07
1051.33
1074.67
1098.11
1121.62
1145.19
1168.8
1192.42
1216.05
1239.67
1263.25
1286.79
1310.26
1333.65
1356.95
1380.13
1403.17
1426.05
1448.74
1471.21
1493.43
1515.36
1536.94
1558.11
1578.78
1598.85
1618.16
1636.54
1653.71
1669.37
1682.95
1693.29
1691.84
1666.5
1630.86
1590.7
1547.43
1501.65
1453.9
1404.66
1354.31
1303.17
1251.47
1199.42
1147.13
1094.8
1042.51
990.341
938.326
886.446
834.687
783.041
731.53
680.206
629.163
578.595
528.87
480.652
435.008
393.469
357.934
330.19
311.07
299.777
294.248
294.694
300.12
308.153
319.173
333.224
349.994
368.943
389.471
411.048
433.268
455.849
478.608
501.43
524.24
547.05
569.841
592.61
615.361
638.116
660.798
683.537
706.307
729.108
751.951
774.843
797.788
820.792
843.858
866.993
890.211
913.475
936.797
960.181
983.629
1007.15
1030.75
1054.47
1078.28
1102.21
1126.22
1150.29
1174.4
1198.54
1222.68
1246.81
1270.9
1294.94
1318.91
1342.8
1366.58
1390.23
1413.73
1437.07
1460.2
1483.11
1505.75
1528.09
1550.06
1571.6
1592.63
1613.03
1632.64
1651.27
1668.66
1684.47
1698.17
1708.28
1705.2
1676.46
1639.02
1597.41
1552.82
1505.81
1456.95
1406.69
1355.4
1303.39
1250.9
1198.12
1145.22
1092.27
1039.41
986.73
934.255
881.961
829.835
777.877
726.114
674.612
623.483
572.948
523.411
475.575
430.534
389.819
355.26
328.504
310.203
299.449
294.187
294.637
299.877
307.639
318.3
331.929
348.258
366.789
386.953
408.238
430.239
452.67
475.343
498.139
520.989
543.858
566.731
589.602
612.476
635.36
658.27
681.144
704.095
727.099
750.158
773.283
796.479
819.75
843.102
866.539
890.061
913.665
937.35
961.113
984.956
1008.88
1032.92
1057.08
1081.37
1105.78
1130.3
1154.89
1179.54
1204.22
1228.91
1253.58
1278.23
1302.82
1327.34
1351.76
1376.08
1400.26
1424.28
1448.12
1471.75
1495.14
1518.24
1541.01
1563.4
1585.33
1606.72
1627.44
1647.34
1666.22
1683.81
1699.77
1713.54
1723.37
1718.47
1687.03
1647.94
1604.94
1559.03
1510.82
1460.83
1409.53
1357.28
1304.38
1251.06
1197.51
1143.87
1090.27
1036.8
983.553
930.552
877.775
825.213
772.875
720.802
669.074
617.829
567.313
517.967
470.525
426.106
386.226
352.646
326.866
309.362
299.132
294.129
294.577
299.629
307.114
317.411
330.614
346.497
364.606
384.404
405.393
427.171
449.448
472.027
494.781
517.636
540.546
563.49
586.459
609.453
632.476
655.538
678.65
701.762
724.973
748.262
771.629
795.083
818.63
842.272
866.012
889.852
913.792
937.831
961.968
986.202
1010.54
1035.01
1059.61
1084.37
1109.26
1134.28
1159.38
1184.55
1209.75
1234.97
1260.18
1285.35
1310.47
1335.52
1360.47
1385.31
1410
1434.52
1458.85
1482.96
1506.8
1530.35
1553.56
1576.36
1598.68
1620.44
1641.5
1661.72
1680.87
1698.7
1714.86
1728.76
1738.46
1731.94
1698.21
1657.47
1613.06
1565.84
1516.42
1465.3
1412.96
1359.73
1305.91
1251.73
1197.36
1142.96
1088.63
1034.5
980.618
927.027
873.705
820.649
767.88
715.454
663.472
612.094
561.597
512.453
465.429
421.658
382.64
350.054
325.25
308.537
298.82
294.071
294.517
299.376
306.579
316.504
329.27
344.694
362.363
381.776
402.45
423.989
446.098
468.571
491.274
514.123
537.066
560.076
583.14
606.253
629.416
652.636
675.92
699.281
722.674
746.182
769.791
793.5
817.317
841.246
865.288
889.445
913.717
938.104
962.606
987.221
1011.96
1036.84
1061.88
1087.09
1112.46
1137.97
1163.57
1189.25
1214.98
1240.72
1266.46
1292.16
1317.81
1343.39
1368.86
1394.2
1419.4
1444.41
1469.22
1493.79
1518.09
1542.07
1565.69
1588.88
1611.58
1633.68
1655.07
1675.59
1695.02
1713.1
1729.46
1743.53
1753.19
1745.29
1709.54
1667.23
1621.43
1572.92
1522.3
1470.07
1416.68
1362.47
1307.72
1252.66
1197.45
1142.24
1087.16
1032.3
977.746
923.517
869.602
816.009
762.772
709.967
657.715
606.203
555.735
506.818
460.245
417.159
379.036
347.467
323.65
307.723
298.513
294.015
294.455
299.119
306.036
315.584
327.903
342.852
360.064
379.07
399.408
420.687
442.609
464.962
487.602
510.436
533.406
556.477
579.632
602.862
626.165
649.545
673.007
696.559
720.211
743.923
767.769
791.736
815.822
840.034
864.375
888.846
913.446
938.175
963.032
988.016
1013.13
1038.42
1063.88
1089.52
1115.34
1141.3
1167.38
1193.54
1219.75
1245.99
1272.22
1298.42
1324.57
1350.64
1376.6
1402.43
1428.1
1453.58
1478.85
1503.87
1528.6
1553
1577.02
1600.6
1623.66
1646.11
1667.83
1688.66
1708.38
1726.73
1743.36
1757.68
1767.49
1758.68
1720.9
1677.02
1629.81
1580.03
1528.23
1474.9
1420.46
1365.27
1309.59
1253.62
1197.56
1141.53
1085.66
1030.05
974.783
919.883
865.344
811.188
757.462
704.263
651.738
600.099
549.683
501.026
454.947
412.595
375.41
344.887
322.066
306.922
298.211
293.959
294.394
298.86
305.488
314.655
326.522
340.984
357.722
376.301
396.282
417.281
438.998
461.215
483.779
506.588
529.577
552.704
575.946
599.29
622.731
646.269
669.908
693.652
717.509
741.487
765.554
789.768
814.121
838.611
863.244
888.02
912.94
938.002
963.205
988.547
1014.04
1039.7
1065.56
1091.62
1117.87
1144.27
1170.8
1197.41
1224.09
1250.79
1277.49
1304.16
1330.77
1357.3
1383.72
1410.01
1436.12
1462.04
1487.74
1513.17
1538.3
1563.09
1587.48
1611.41
1634.82
1657.59
1679.62
1700.73
1720.73
1739.33
1756.2
1770.74
1780.66
1770.92
1731.54
1686.27
1637.8
1586.82
1533.89
1479.51
1424.07
1367.91
1311.31
1254.45
1197.53
1140.68
1084
1027.62
971.622
916.029
860.847
806.109
751.883
698.29
645.5
593.755
543.422
495.068
449.533
407.964
371.761
342.313
320.498
306.134
297.914
293.904
294.332
298.601
304.942
313.728
325.137
339.106
355.357
373.494
393.099
413.8
435.296
457.363
479.839
502.614
525.614
548.791
572.115
595.569
619.144
642.837
666.649
690.584
714.645
738.84
763.175
787.623
812.232
836.994
861.909
886.98
912.206
937.587
963.12
988.804
1014.65
1040.68
1066.92
1093.36
1120
1146.81
1173.74
1200.77
1227.87
1254.99
1282.12
1309.21
1336.26
1363.21
1390.05
1416.75
1443.28
1469.6
1495.69
1521.51
1547.01
1572.15
1596.89
1621.16
1644.88
1667.96
1690.27
1711.66
1731.92
1750.78
1767.89
1782.66
1792.7
1782.32
1741.47
1694.9
1645.22
1593.12
1539.12
1483.72
1427.32
1370.23
1312.73
1255
1197.22
1139.55
1082.08
1024.93
968.194
911.903
856.072
800.75
746.025
692.044
639.004
587.178
536.964
488.957
444.014
403.278
368.099
339.753
318.951
305.36
297.622
293.851
294.271
298.346
304.403
312.81
323.765
337.238
352.995
370.679
389.896
410.286
431.548
453.453
475.831
498.565
521.57
544.792
568.195
591.755
615.459
639.302
663.282
687.401
711.66
736.067
760.624
785.34
810.189
835.213
860.401
885.755
911.276
936.962
962.813
988.825
1015.01
1041.4
1068
1094.81
1121.8
1148.96
1176.26
1203.66
1231.13
1258.63
1286.13
1313.61
1341.04
1368.37
1395.59
1422.66
1449.55
1476.23
1502.67
1528.83
1554.66
1580.13
1605.18
1629.74
1653.75
1677.1
1699.68
1721.33
1741.84
1760.94
1778.3
1793.31
1803.56
1792.64
1750.56
1702.74
1651.92
1598.76
1543.76
1487.41
1430.1
1372.13
1313.76
1255.2
1196.61
1138.12
1079.87
1021.96
964.501
907.517
851.041
795.138
739.92
685.562
632.29
580.409
530.346
482.725
438.419
398.561
364.443
337.219
317.432
304.605
297.338
293.798
294.211
298.097
303.877
311.915
322.423
335.405
350.67
367.898
386.721
406.792
427.813
449.55
471.827
494.514
517.521
540.785
564.263
587.926
611.756
635.745
659.887
684.183
708.633
733.242
758.013
782.951
808.061
833.323
858.771
884.392
910.19
936.164
962.314
988.637
1015.14
1041.87
1068.81
1095.95
1123.26
1150.72
1178.32
1206.04
1233.83
1261.66
1289.49
1317.3
1345.06
1372.72
1400.27
1427.66
1454.88
1481.87
1508.62
1535.07
1561.2
1586.95
1612.27
1637.09
1661.35
1684.95
1707.77
1729.65
1750.39
1769.72
1787.32
1802.57
1813.05
1801.76
1758.6
1709.64
1657.76
1603.63
1547.72
1490.49
1432.33
1373.54
1314.38
1255.02
1195.65
1136.4
1077.4
1018.76
960.595
902.935
845.825
789.352
733.652
678.928
625.44
573.523
523.638
476.438
432.807
393.864
360.833
334.739
315.957
303.876
297.064
293.748
294.155
297.86
303.374
311.058
321.134
333.64
348.423
365.202
383.636
403.39
424.171
445.741
467.915
490.558
513.567
536.873
560.424
584.188
608.141
632.27
656.568
681.032
705.662
730.461
755.432
780.579
805.906
831.416
857.095
882.968
909.024
935.267
961.696
988.312
1015.13
1042.16
1069.4
1096.82
1124.4
1152.12
1179.98
1207.95
1236
1264.1
1292.21
1320.3
1348.33
1376.27
1404.09
1431.76
1459.24
1486.5
1513.5
1540.21
1566.58
1592.57
1618.12
1643.17
1667.64
1691.46
1714.48
1736.57
1757.51
1777.05
1794.87
1810.35
1821.07
1809.5
1765.43
1715.45
1662.64
1607.64
1550.91
1492.91
1433.99
1374.47
1314.58
1254.51
1194.42
1134.46
1074.76
1015.43
956.591
898.282
840.561
783.534
727.365
672.289
618.597
566.659
516.972
470.213
427.28
389.268
357.329
332.352
314.548
303.183
296.803
293.7
294.102
297.639
302.907
310.26
319.932
331.987
346.313
362.662
380.723
400.174
420.727
442.139
464.219
486.822
509.838
533.187
556.812
580.674
604.745
629.007
653.451
678.072
702.868
727.841
752.993
778.329
803.852
829.565
855.472
881.564
907.855
934.342
961.027
987.913
1015
1042.3
1069.78
1097.44
1125.25
1153.19
1181.25
1209.42
1237.67
1265.98
1294.3
1322.6
1350.85
1379.02
1407.06
1434.94
1462.64
1490.11
1517.32
1544.23
1570.8
1596.98
1622.71
1647.94
1672.6
1696.58
1719.78
1742.04
1763.16
1782.89
1800.91
1816.61
1827.54
1815.89
1771.03
1720.16
1666.53
1610.78
1553.35
1494.67
1435.11
1374.95
1314.43
1253.73
1193.01
1132.42
1072.09
1012.13
952.668
893.754
835.457
777.905
721.287
665.872
611.986
560.035
510.548
464.231
421.99
384.895
354.018
330.115
313.237
302.541
296.562
293.656
294.056
297.445
302.495
309.552
318.862
330.513
344.424
360.384
378.106
397.284
417.632
438.906
460.908
483.483
506.512
529.908
553.606
577.561
601.741
626.125
650.701
675.46
700.402
725.526
750.836
776.334
802.024
827.911
853.998
880.289
906.783
933.484
960.398
987.519
1014.83
1042.33
1070.01
1097.85
1125.84
1153.95
1182.16
1210.47
1238.87
1267.32
1295.79
1324.25
1352.66
1380.98
1409.18
1437.23
1465.09
1492.72
1520.08
1547.14
1573.86
1600.18
1626.06
1651.42
1676.21
1700.33
1723.66
1746.06
1767.33
1787.22
1805.43
1821.34
1832.51
1820.91
1775.36
1723.72
1669.4
1613.04
1555.04
1495.83
1435.75
1375.08
1314.05
1252.83
1191.59
1130.47
1069.59
1009.09
949.085
889.631
830.812
772.776
715.741
660.007
605.933
553.961
504.657
458.751
417.157
380.917
351.026
328.108
312.069
301.973
296.349
293.617
294.019
297.291
302.167
308.988
318.005
329.326
342.902
358.547
375.996
394.957
415.146
436.317
458.264
480.824
503.871
527.311
551.074
575.108
599.379
623.862
648.543
673.413
698.468
723.71
749.14
774.762
800.581
826.602
852.83
879.271
905.926
932.803
959.903
987.195
1014.66
1042.31
1070.13
1098.1
1126.2
1154.42
1182.75
1211.15
1239.63
1268.16
1296.72
1325.28
1353.79
1382.21
1410.52
1438.67
1466.64
1494.37
1521.84
1549
1575.81
1602.22
1628.19
1653.65
1678.53
1702.73
1726.16
1748.65
1770.03
1790.05
1808.4
1824.5
1835.87
1824.37
1778.32
1726.08
1671.26
1614.45
1556.06
1496.47
1436.03
1375
1313.6
1252.01
1190.38
1128.86
1067.57
1006.64
946.202
886.309
827.06
768.619
711.224
655.208
600.959
548.952
499.786
454.215
413.162
377.643
348.58
326.483
311.135
301.523
296.182
293.586
293.998
297.201
301.975
308.655
317.497
328.62
341.993
357.45
374.74
393.576
413.677
434.793
456.714
479.272
502.336
525.806
549.61
573.692
598.016
622.557
647.298
672.23
697.349
722.656
748.153
773.843
799.733
825.827
852.134
878.662
905.419
932.413
959.614
986.997
1014.54
1042.27
1070.16
1098.19
1126.36
1154.64
1183.01
1211.46
1239.98
1268.54
1297.13
1325.73
1354.28
1382.76
1411.12
1439.32
1467.33
1495.12
1522.63
1549.84
1576.7
1603.16
1629.17
1654.68
1679.6
1703.85
1727.31
1749.86
1771.3
1791.38
1809.83
1826.05
1837.54
1826.15
1779.84
1727.26
1672.16
1615.12
1556.52
1496.75
1436.12
1374.9
1313.31
1251.52
1189.68
1127.93
1066.4
1005.23
944.53
884.373
824.859
766.164
708.542
652.342
597.975
545.935
496.843
451.469
410.738
375.653
347.09
325.491
310.563
301.248
296.079
293.567
293.997
297.2
301.972
308.651
317.492
328.618
341.994
357.457
374.754
393.597
413.704
434.825
456.75
479.309
502.373
525.842
549.644
573.724
598.045
622.583
647.321
672.25
697.366
722.669
748.163
773.849
799.735
825.827
852.13
878.654
905.409
932.4
959.599
986.979
1014.52
1042.25
1070.13
1098.17
1126.34
1154.61
1182.99
1211.44
1239.95
1268.51
1297.11
1325.7
1354.25
1382.72
1411.08
1439.28
1467.29
1495.07
1522.59
1549.8
1576.66
1603.12
1629.13
1654.63
1679.55
1703.81
1727.28
1749.83
1771.27
1791.36
1809.82
1826.04
1837.56
1826.31
1780.03
1727.45
1672.34
1615.29
1556.68
1496.9
1436.27
1375.04
1313.44
1251.64
1189.79
1128.03
1066.48
1005.29
944.574
884.395
824.861
766.146
708.508
652.297
597.925
545.888
496.805
451.443
410.725
375.648
347.089
325.491
310.563
301.248
296.079
293.568
294.018
297.289
302.164
308.983
318
329.322
342.901
358.554
376.017
394.994
415.2
436.385
458.343
480.91
503.961
527.401
551.161
575.19
599.454
623.93
648.603
673.464
698.511
723.744
749.164
774.777
800.586
826.596
852.814
879.245
905.893
932.762
959.853
987.137
1014.6
1042.24
1070.06
1098.02
1126.13
1154.35
1182.67
1211.07
1239.54
1268.07
1296.63
1325.18
1353.68
1382.1
1410.4
1438.55
1466.51
1494.24
1521.7
1548.86
1575.67
1602.09
1628.06
1653.52
1678.4
1702.62
1726.05
1748.56
1769.95
1789.99
1808.36
1824.48
1835.94
1824.86
1778.9
1726.63
1671.79
1614.96
1556.55
1496.95
1436.49
1375.44
1314.01
1252.39
1190.73
1129.17
1067.83
1006.86
946.367
886.421
827.119
768.63
711.199
655.163
600.913
548.925
499.789
454.25
413.215
377.691
348.606
326.483
311.121
301.51
296.176
293.585
294.055
297.443
302.492
309.548
318.858
330.509
344.426
360.398
378.139
397.34
417.712
439.008
461.027
483.612
506.646
530.041
553.735
577.683
601.854
626.227
650.79
675.538
700.466
725.577
750.873
776.356
802.032
827.905
853.977
880.253
906.733
933.419
960.32
987.431
1014.73
1042.22
1069.9
1097.74
1125.72
1153.82
1182.03
1210.34
1238.72
1267.17
1295.63
1324.08
1352.48
1380.79
1408.99
1437.03
1464.88
1492.5
1519.86
1546.92
1573.64
1599.96
1625.84
1651.22
1676.02
1700.15
1723.5
1745.92
1767.21
1787.13
1805.37
1821.32
1832.66
1821.71
1776.3
1724.62
1670.28
1613.88
1555.86
1496.63
1436.52
1375.82
1314.74
1253.48
1192.18
1131
1070.05
1009.47
949.383
889.846
830.946
772.838
715.745
659.977
605.896
553.945
504.679
458.813
417.242
380.994
351.068
328.11
312.05
301.953
296.341
293.615
294.102
297.639
302.908
310.261
319.932
331.988
346.317
362.677
380.758
400.236
420.818
442.258
464.361
486.979
510.004
533.355
556.977
580.831
604.892
629.141
653.571
678.176
702.956
727.911
753.046
778.363
803.867
829.561
855.448
881.523
907.79
934.257
960.924
987.794
1014.87
1042.15
1069.63
1097.28
1125.08
1153.01
1181.06
1209.22
1237.46
1265.76
1294.07
1322.36
1350.6
1378.75
1406.78
1434.65
1462.34
1489.81
1517.02
1543.93
1570.5
1596.68
1622.42
1647.66
1672.33
1696.33
1719.55
1741.84
1763
1782.77
1800.84
1816.58
1827.75
1816.97
1772.32
1721.42
1667.75
1611.96
1554.5
1495.79
1436.19
1375.98
1315.4
1254.63
1193.84
1133.16
1072.73
1012.68
953.113
894.095
835.7
778.06
721.376
665.923
612.031
560.105
510.662
464.386
422.159
385.035
354.095
330.125
313.209
302.511
296.548
293.653
294.155
297.861
303.378
311.062
321.137
333.64
348.423
365.211
383.666
403.452
424.269
445.874
468.078
490.742
513.764
537.075
560.625
584.381
608.323
632.437
656.718
681.164
705.774
730.552
755.501
780.626
805.93
831.416
857.076
882.918
908.948
935.165
961.571
988.164
1014.96
1041.98
1069.2
1096.6
1124.17
1151.89
1179.73
1207.69
1235.73
1263.81
1291.9
1319.98
1347.99
1375.92
1403.73
1431.39
1458.87
1486.12
1513.12
1539.83
1566.2
1592.2
1617.76
1642.82
1667.32
1691.15
1714.21
1736.33
1757.32
1776.91
1794.79
1810.32
1821.31
1810.82
1767.06
1717.06
1664.21
1609.17
1552.4
1494.35
1435.38
1375.79
1315.82
1255.66
1195.48
1135.41
1075.59
1016.14
957.176
898.745
840.908
783.782
727.539
672.422
618.728
566.824
517.189
470.476
427.549
389.488
357.455
332.379
314.516
303.142
296.784
293.697
294.212
298.101
303.884
311.922
322.427
335.402
350.663
367.899
386.746
406.852
427.916
449.696
472.009
494.724
517.749
541.021
564.498
588.153
611.971
635.943
660.066
684.339
708.765
733.349
758.094
783.006
808.088
833.327
858.74
884.33
910.098
936.042
962.162
988.457
1014.94
1041.64
1068.56
1095.68
1122.97
1150.41
1178
1205.7
1233.47
1261.28
1289.1
1316.9
1344.64
1372.29
1399.82
1427.21
1454.42
1481.41
1508.15
1534.61
1560.74
1586.5
1611.84
1636.68
1660.97
1684.6
1707.46
1729.39
1750.18
1769.58
1787.25
1802.57
1813.41
1803.39
1760.61
1711.63
1659.7
1605.51
1549.55
1492.27
1434.04
1375.17
1315.9
1256.44
1196.95
1137.57
1078.43
1019.65
961.331
903.529
846.287
789.701
733.919
679.153
625.667
573.791
523.968
476.817
433.189
394.177
361.019
334.791
315.924
303.826
297.039
293.743
294.272
298.351
304.412
312.821
323.769
337.231
352.981
370.671
389.912
410.342
431.654
453.608
476.031
498.798
521.825
545.058
568.461
592.013
615.703
639.527
663.484
687.576
711.808
736.185
760.712
785.395
810.216
835.201
860.352
885.671
911.156
936.806
962.621
988.6
1014.75
1041.11
1067.69
1094.47
1121.44
1148.58
1175.85
1203.23
1230.68
1258.17
1285.65
1313.12
1340.53
1367.85
1395.06
1422.12
1449.01
1475.69
1502.13
1528.29
1554.14
1579.62
1604.68
1629.27
1653.31
1676.7
1699.33
1721.04
1741.62
1760.8
1778.26
1793.36
1804.03
1794.59
1752.96
1705.11
1654.23
1601.01
1545.96
1489.54
1432.14
1374.07
1315.59
1256.89
1198.16
1139.52
1081.11
1023.03
965.402
908.256
851.63
795.602
740.295
685.891
632.624
580.791
530.798
483.232
438.923
398.977
364.698
337.302
317.401
304.547
297.308
293.793
294.333
298.609
304.955
313.742
325.143
339.095
355.334
373.474
393.105
413.851
435.402
457.526
480.052
502.867
525.893
549.083
572.408
595.854
619.413
643.084
666.87
690.774
714.803
738.963
763.262
787.676
812.242
836.962
861.836
886.866
912.051
937.39
962.883
988.527
1014.33
1040.33
1066.53
1092.95
1119.56
1146.34
1173.25
1200.26
1227.33
1254.44
1281.54
1308.62
1335.65
1362.6
1389.43
1416.12
1442.65
1468.97
1495.06
1520.89
1546.4
1571.56
1596.33
1620.62
1644.38
1667.5
1689.88
1711.34
1731.69
1750.64
1767.87
1782.75
1793.29
1784.59
1744.26
1697.63
1647.88
1595.72
1541.67
1486.19
1429.69
1372.5
1314.86
1256.99
1199.05
1141.2
1083.54
1026.2
969.277
912.804
856.806
801.345
746.521
692.49
639.457
587.685
537.549
489.6
444.65
403.806
368.433
339.874
318.927
305.295
297.588
293.844
294.396
298.869
305.506
314.673
326.528
340.969
357.689
376.269
396.276
417.324
439.103
461.384
484.004
506.858
529.877
553.019
576.263
599.599
623.022
646.537
670.146
693.857
717.677
741.613
765.641
789.805
814.109
838.551
863.135
887.862
912.733
937.746
962.902
988.198
1013.64
1039.27
1065.09
1091.11
1117.32
1143.7
1170.19
1196.78
1223.43
1250.11
1276.79
1303.45
1330.05
1356.57
1382.99
1409.27
1435.39
1461.31
1487.02
1512.46
1537.61
1562.42
1586.84
1610.82
1634.26
1657.09
1679.18
1700.38
1720.46
1739.17
1756.17
1770.83
1781.25
1773.42
1734.58
1689.32
1640.8
1589.78
1536.8
1482.33
1426.8
1370.52
1313.76
1256.74
1199.63
1142.58
1085.71
1029.12
972.902
917.106
861.74
806.85
752.515
698.868
646.084
594.398
544.148
495.857
450.31
408.615
372.183
342.48
320.484
306.062
297.875
293.896
294.458
299.131
306.057
315.605
327.909
342.831
360.02
379.024
399.389
420.72
442.71
465.133
487.836
510.719
533.723
556.811
579.969
603.19
626.474
649.827
673.255
696.767
720.373
744.041
767.831
791.742
815.773
839.929
864.212
888.624
913.168
937.841
962.644
987.576
1012.65
1037.88
1063.3
1088.9
1114.68
1140.61
1166.66
1192.8
1218.98
1245.2
1271.42
1297.61
1323.75
1349.81
1375.77
1401.6
1427.27
1452.77
1478.05
1503.08
1527.84
1552.26
1576.32
1599.94
1623.05
1645.56
1667.34
1688.25
1708.06
1726.5
1743.23
1757.62
1767.86
1760.77
1723.89
1680.2
1633.06
1583.31
1531.48
1478.09
1423.56
1368.24
1312.39
1256.25
1199.99
1143.75
1087.64
1031.79
976.286
921.16
866.418
812.093
758.247
704.988
652.468
600.891
550.564
501.974
455.877
413.38
375.931
345.109
322.068
306.846
298.168
293.95
294.52
299.391
306.604
316.529
329.276
344.666
362.307
381.715
402.416
424.011
446.192
468.742
491.513
514.416
537.396
560.425
583.492
606.594
629.736
652.925
676.169
699.482
722.826
746.274
769.822
793.469
817.22
841.08
865.054
889.143
913.348
937.67
962.109
986.664
1011.34
1036.17
1061.16
1086.33
1111.66
1137.12
1162.7
1188.35
1214.05
1239.77
1265.49
1291.18
1316.83
1342.4
1367.87
1393.22
1418.43
1443.46
1468.29
1492.89
1517.22
1541.23
1564.89
1588.14
1610.89
1633.07
1654.54
1675.15
1694.7
1712.89
1729.4
1743.61
1753.84
1747.98
1713.04
1670.88
1625.12
1576.63
1525.98
1473.69
1420.19
1365.84
1310.91
1255.64
1200.2
1144.75
1089.42
1034.31
979.491
925.017
870.881
817.104
763.734
710.863
658.614
607.165
556.789
507.938
461.341
418.092
379.669
347.754
323.674
307.645
298.468
294.005
294.581
299.646
307.143
317.439
330.618
346.461
364.535
384.324
405.34
427.177
449.532
472.191
495.019
517.93
540.878
563.842
586.814
609.796
632.793
655.817
678.882
701.942
725.088
748.309
771.605
794.983
818.448
842.008
865.664
889.422
913.28
937.242
961.305
985.47
1009.74
1034.15
1058.7
1083.41
1108.27
1133.25
1158.33
1183.47
1208.66
1233.87
1259.07
1284.24
1309.37
1334.43
1359.4
1384.25
1408.96
1433.51
1457.87
1482.01
1505.9
1529.49
1552.74
1575.59
1597.98
1619.8
1640.95
1661.26
1680.53
1698.49
1714.79
1728.84
1739.16
1734.79
1702.15
1661.59
1617.21
1570.01
1520.56
1469.38
1416.91
1363.53
1309.52
1255.11
1200.49
1145.83
1091.23
1036.8
982.636
928.775
875.21
821.952
769.036
716.533
664.549
613.234
562.832
513.757
466.705
422.752
383.399
350.417
325.305
308.46
298.773
294.061
294.641
299.897
307.671
318.329
331.929
348.21
366.698
386.85
408.161
430.225
452.738
475.496
498.368
521.279
544.189
567.082
589.955
612.813
635.666
658.53
681.351
704.238
727.174
750.159
773.201
796.307
819.484
842.739
866.075
889.495
913.001
936.595
960.275
984.043
1007.9
1031.88
1055.98
1080.22
1104.6
1129.08
1153.64
1178.27
1202.93
1227.61
1252.28
1276.92
1301.52
1326.05
1350.49
1374.83
1399.04
1423.09
1446.97
1470.64
1494.07
1517.22
1540.05
1562.5
1584.5
1605.97
1626.78
1646.8
1665.8
1683.53
1699.65
1713.58
1724.12
1721.48
1691.5
1652.57
1609.6
1563.71
1515.47
1465.41
1413.98
1361.56
1308.45
1254.88
1201.06
1147.14
1093.21
1039.43
985.868
932.57
879.526
826.742
774.242
722.081
670.346
619.163
568.744
519.468
471.994
427.375
387.125
353.099
326.958
309.29
299.084
294.118
294.699
300.141
308.188
319.201
333.214
349.927
368.824
389.335
410.94
433.225
455.89
478.731
501.613
524.505
547.368
570.187
592.958
615.691
638.408
661.041
683.708
706.4
729.114
751.857
774.641
797.472
820.359
843.307
866.32
889.401
912.553
935.776
959.071
982.439
1005.88
1029.43
1053.08
1076.85
1100.74
1124.72
1148.78
1172.88
1197.02
1221.17
1245.31
1269.42
1293.49
1317.5
1341.42
1365.25
1388.95
1412.51
1435.91
1459.11
1482.08
1504.79
1527.2
1549.24
1570.86
1591.97
1612.45
1632.16
1650.89
1668.38
1684.3
1698.08
1708.7
1707.53
1680.99
1643.96
1602.51
1558.01
1511.02
1462.09
1411.69
1360.21
1307.97
1255.2
1202.13
1148.86
1095.59
1042.4
989.38
936.582
883.996
831.624
779.482
727.615
676.094
625.023
574.585
525.119
477.245
431.987
390.866
355.811
328.642
310.139
299.402
294.176
294.756
300.381
308.696
320.058
334.47
351.586
370.855
391.685
413.539
436.009
458.806
481.744
504.72
527.64
550.478
573.227
595.886
618.452
640.979
663.485
685.989
708.48
730.969
753.469
775.99
798.543
821.134
843.77
866.456
889.196
911.991
934.843
957.752
980.718
1003.75
1026.85
1050.06
1073.36
1096.76
1120.24
1143.78
1167.37
1190.98
1214.6
1238.22
1261.81
1285.35
1308.84
1332.26
1355.58
1378.78
1401.86
1424.78
1447.52
1470.04
1492.32
1514.31
1535.96
1557.2
1577.96
1598.13
1617.57
1636.07
1653.4
1669.2
1683.02
1694.01
1694.85
1671.93
1636.55
1596.47
1553.27
1507.49
1459.65
1410.25
1359.68
1308.28
1256.28
1203.87
1151.25
1098.57
1045.91
993.365
940.996
888.796
836.763
784.911
733.276
681.919
630.926
580.452
530.799
482.54
436.664
394.687
358.601
330.385
311.021
299.733
294.236
294.813
300.62
309.202
320.911
335.719
353.24
372.876
393.999
416.076
438.7
461.591
484.574
507.543
530.44
553.241
575.946
598.556
621.092
643.519
665.921
688.256
710.54
732.776
755.023
777.282
799.558
821.859
844.19
866.558
888.966
911.417
933.913
956.455
979.044
1001.68
1024.38
1047.17
1070.04
1092.99
1116.01
1139.08
1162.19
1185.33
1208.46
1231.59
1254.7
1277.77
1300.78
1323.72
1346.57
1369.32
1391.94
1414.42
1436.72
1458.82
1480.68
1502.26
1523.53
1544.42
1564.85
1584.71
1603.89
1622.18
1639.35
1655.07
1668.92
1680.27
1682.98
1664.07
1630.46
1591.77
1549.84
1505.22
1458.45
1410.02
1360.34
1309.71
1258.38
1206.62
1154.6
1102.42
1050.21
998.054
946.026
894.119
842.333
790.679
739.189
687.92
636.943
586.392
536.536
487.902
441.431
398.62
361.508
332.221
311.957
300.083
294.3
294.868
300.853
309.698
321.75
336.948
354.857
374.842
396.257
418.565
441.358
464.363
487.408
510.395
533.272
556.018
578.632
601.135
623.547
645.874
668.104
690.255
712.378
734.48
756.528
778.542
800.526
822.531
844.558
866.611
888.693
910.805
932.951
955.132
977.348
999.599
1021.91
1044.28
1066.72
1089.24
1111.81
1134.44
1157.09
1179.77
1202.45
1225.13
1247.79
1270.41
1292.98
1315.49
1337.92
1360.25
1382.46
1404.53
1426.44
1448.15
1469.65
1490.89
1511.83
1532.41
1552.56
1572.18
1591.16
1609.3
1626.39
1642.12
1656.12
1667.89
1672.46
1657.83
1625.94
1588.51
1547.7
1504.17
1458.41
1410.9
1362
1312.12
1261.51
1210.39
1158.91
1107.2
1055.39
1003.57
951.816
900.125
848.499
796.947
745.499
694.209
643.144
592.422
542.283
493.216
446.117
402.46
364.328
333.988
312.847
300.414
294.36
294.929
301.109
310.236
322.647
338.248
356.558
376.909
398.636
421.193
444.177
467.318
490.449
513.474
536.347
559.051
581.588
603.966
626.208
648.351
670.363