/*--------------------------------*- C++ -*----------------------------------*\
  =========                 |
  \\      /  F ield         | OpenFOAM: The Open Source CFD Toolbox
   \\    /   O peration     | Website:  https://openfoam.org
    \\  /    A nd           | Version:  8
     \\/     M anipulation  |
\*---------------------------------------------------------------------------*/
FoamFile
{
    version     2.0;
    format      ascii;
    class       volVectorField;
    location    "20/fluid";
    object      U;
}
// * * * * * * * * * * * * * * * * * * * * * * * * * * * * * * * * * * * * * //

dimensions      [0 1 -1 0 0 0 0];

internalField   nonuniform List<vector> 
4000
(
(0.0998845 -0.0244816 0)
(0.0980664 -0.0784127 0)
(0.0947124 -0.136246 0)
(0.0899881 -0.191235 0)
(0.0842769 -0.234659 0)
(0.0780293 -0.26168 0)
(0.071651 -0.273069 0)
(0.0654976 -0.272617 0)
(0.0595314 -0.264711 0)
(0.0538156 -0.252734 0)
(0.0485004 -0.239211 0)
(0.0435769 -0.22555 0)
(0.03908 -0.212497 0)
(0.0350234 -0.20035 0)
(0.0313863 -0.189275 0)
(0.0281403 -0.179255 0)
(0.025238 -0.170213 0)
(0.0226613 -0.162085 0)
(0.0203476 -0.154732 0)
(0.0183046 -0.148148 0)
(0.0164489 -0.14214 0)
(0.0148211 -0.136784 0)
(0.0133162 -0.13184 0)
(0.0120051 -0.12746 0)
(0.0107666 -0.123369 0)
(0.00969239 -0.119774 0)
(0.00865705 -0.116386 0)
(0.00775595 -0.113426 0)
(0.00687744 -0.110633 0)
(0.00610153 -0.10819 0)
(0.00534575 -0.105904 0)
(0.00466308 -0.103894 0)
(0.00400323 -0.102046 0)
(0.00339432 -0.100424 0)
(0.00280694 -0.0989676 0)
(0.00225843 -0.0977239 0)
(0.00172016 -0.0966361 0)
(0.00121959 -0.0957865 0)
(0.000705931 -0.0950535 0)
(0.000238056 -0.0946151 0)
(-0.000274357 -0.0942289 0)
(-0.000727603 -0.0941949 0)
(-0.0012518 -0.0941587 0)
(-0.0017065 -0.094489 0)
(-0.00224697 -0.0948138 0)
(-0.00271476 -0.0954419 0)
(-0.0032717 -0.0961342 0)
(-0.0037541 -0.0970095 0)
(-0.00432657 -0.0980728 0)
(-0.0048209 -0.099201 0)
(-0.00540795 -0.10064 0)
(-0.00591897 -0.102083 0)
(-0.00652121 -0.103903 0)
(-0.00706474 -0.105741 0)
(-0.00768816 -0.107948 0)
(-0.00828314 -0.110235 0)
(-0.00894019 -0.112838 0)
(-0.0096 -0.115588 0)
(-0.0103068 -0.118608 0)
(-0.0110405 -0.121844 0)
(-0.0118179 -0.125382 0)
(-0.0126421 -0.129261 0)
(-0.0135471 -0.133579 0)
(-0.0146175 -0.138389 0)
(-0.0159882 -0.143752 0)
(-0.0175165 -0.149713 0)
(-0.0174238 -0.156029 0)
(-0.0131595 -0.161942 0)
(-0.00759629 -0.16657 0)
(-0.0060017 -0.169931 0)
(-0.00780029 -0.172753 0)
(-0.00979675 -0.176004 0)
(-0.01135 -0.179573 0)
(-0.0127082 -0.183605 0)
(-0.0139716 -0.187963 0)
(-0.0152168 -0.192689 0)
(-0.0165235 -0.197832 0)
(-0.0178876 -0.203314 0)
(-0.0194367 -0.209326 0)
(-0.0211256 -0.215717 0)
(-0.0230955 -0.222735 0)
(-0.0253041 -0.230231 0)
(-0.0278757 -0.238424 0)
(-0.0307942 -0.247228 0)
(-0.0341506 -0.256794 0)
(-0.0379513 -0.267101 0)
(-0.0422521 -0.278217 0)
(-0.0470616 -0.290081 0)
(-0.0523869 -0.302513 0)
(-0.0581559 -0.314912 0)
(-0.0642274 -0.326269 0)
(-0.0703701 -0.334962 0)
(-0.0760825 -0.338455 0)
(-0.0816164 -0.333169 0)
(-0.0865117 -0.313501 0)
(-0.0907971 -0.274881 0)
(-0.0943622 -0.217089 0)
(-0.0970134 -0.149697 0)
(-0.0988199 -0.0868639 0)
(-0.0999647 -0.029639 0)
(0.100678 -0.019636 0)
(0.10078 -0.0646372 0)
(0.0992438 -0.114079 0)
(0.0957856 -0.162292 0)
(0.0907825 -0.201702 0)
(0.0848557 -0.227585 0)
(0.0785695 -0.239823 0)
(0.0722625 -0.241283 0)
(0.0661676 -0.235656 0)
(0.060367 -0.226134 0)
(0.0549186 -0.215005 0)
(0.0498383 -0.203681 0)
(0.0451375 -0.192868 0)
(0.0408229 -0.182866 0)
(0.0368997 -0.173715 0)
(0.0333406 -0.165399 0)
(0.0301272 -0.157863 0)
(0.0272155 -0.151029 0)
(0.0245971 -0.144851 0)
(0.0222141 -0.139222 0)
(0.020077 -0.134141 0)
(0.0181153 -0.129474 0)
(0.0163577 -0.125271 0)
(0.0147248 -0.121376 0)
(0.0132605 -0.117882 0)
(0.0118824 -0.114622 0)
(0.0106397 -0.111713 0)
(0.00945816 -0.108992 0)
(0.00837976 -0.106574 0)
(0.00734948 -0.10432 0)
(0.00639379 -0.102319 0)
(0.00548016 -0.100477 0)
(0.00462021 -0.0988429 0)
(0.00379646 -0.0973699 0)
(0.00301402 -0.0960815 0)
(0.00225635 -0.0949521 0)
(0.00153476 -0.0940083 0)
(0.000818567 -0.0932099 0)
(0.000138954 -0.0926205 0)
(-0.000560946 -0.0921444 0)
(-0.00122211 -0.0919135 0)
(-0.00192601 -0.0917587 0)
(-0.00259231 -0.0918788 0)
(-0.00331116 -0.0920549 0)
(-0.00400093 -0.0924956 0)
(-0.00474059 -0.0930106 0)
(-0.00546023 -0.0937332 0)
(-0.00622378 -0.0945902 0)
(-0.00696803 -0.0955789 0)
(-0.00775759 -0.0967799 0)
(-0.00852172 -0.0980569 0)
(-0.00934037 -0.0996043 0)
(-0.0101322 -0.101217 0)
(-0.010987 -0.103114 0)
(-0.0118274 -0.105107 0)
(-0.0127329 -0.107364 0)
(-0.0136472 -0.109759 0)
(-0.0146248 -0.112385 0)
(-0.0156382 -0.115184 0)
(-0.0167194 -0.118202 0)
(-0.0178637 -0.121442 0)
(-0.0190912 -0.124951 0)
(-0.020446 -0.128763 0)
(-0.0220451 -0.132863 0)
(-0.0240549 -0.137161 0)
(-0.0261831 -0.141413 0)
(-0.0261739 -0.145282 0)
(-0.0210053 -0.149024 0)
(-0.0144547 -0.15374 0)
(-0.0121927 -0.158727 0)
(-0.0135928 -0.162982 0)
(-0.015262 -0.166895 0)
(-0.0166492 -0.17089 0)
(-0.017853 -0.174981 0)
(-0.0190402 -0.179255 0)
(-0.0202383 -0.183719 0)
(-0.0214936 -0.188369 0)
(-0.0228723 -0.193304 0)
(-0.024384 -0.198449 0)
(-0.0261261 -0.20395 0)
(-0.0280875 -0.209715 0)
(-0.0303717 -0.215885 0)
(-0.0329732 -0.22239 0)
(-0.0359808 -0.229335 0)
(-0.0394029 -0.236691 0)
(-0.043301 -0.244515 0)
(-0.0476862 -0.252789 0)
(-0.05258 -0.261486 0)
(-0.0579626 -0.270469 0)
(-0.0637461 -0.279467 0)
(-0.0697889 -0.28779 0)
(-0.0759579 -0.293906 0)
(-0.0819547 -0.295434 0)
(-0.0876375 -0.288849 0)
(-0.0927184 -0.269463 0)
(-0.0969929 -0.233675 0)
(-0.100034 -0.182537 0)
(-0.101418 -0.125344 0)
(-0.101326 -0.0732618 0)
(-0.100595 -0.0253401 0)
(0.100424 -0.0184432 0)
(0.10054 -0.0601803 0)
(0.0994286 -0.106099 0)
(0.096891 -0.151383 0)
(0.0930871 -0.18904 0)
(0.0883714 -0.214357 0)
(0.0831338 -0.226836 0)
(0.0776373 -0.228897 0)
(0.0722265 -0.224126 0)
(0.0668644 -0.215386 0)
(0.0617305 -0.20501 0)
(0.0568435 -0.194387 0)
(0.0522194 -0.18424 0)
(0.0478756 -0.174868 0)
(0.0438176 -0.166349 0)
(0.0400482 -0.158652 0)
(0.0365574 -0.151705 0)
(0.0333389 -0.145435 0)
(0.0303678 -0.139756 0)
(0.0276378 -0.134616 0)
(0.0251157 -0.129931 0)
(0.0228 -0.125679 0)
(0.0206523 -0.121775 0)
(0.0186768 -0.118227 0)
(0.0168336 -0.114949 0)
(0.0151306 -0.111972 0)
(0.0135305 -0.109214 0)
(0.0120403 -0.106715 0)
(0.0106306 -0.104403 0)
(0.00930365 -0.102316 0)
(0.00804091 -0.100398 0)
(0.00683952 -0.0986742 0)
(0.00568954 -0.0971121 0)
(0.00458586 -0.0957223 0)
(0.00352079 -0.0944902 0)
(0.00249128 -0.0934218 0)
(0.0014849 -0.0925056 0)
(0.00050591 -0.0917568 0)
(-0.000468938 -0.0911479 0)
(-0.00142335 -0.0907172 0)
(-0.0023909 -0.0904105 0)
(-0.00334363 -0.0903009 0)
(-0.00432038 -0.0903031 0)
(-0.00529202 -0.0905086 0)
(-0.00629052 -0.0908237 0)
(-0.00729535 -0.0913263 0)
(-0.0083249 -0.091955 0)
(-0.00936783 -0.0927395 0)
(-0.0104353 -0.0936819 0)
(-0.0115164 -0.0947496 0)
(-0.0126282 -0.096008 0)
(-0.0137515 -0.0973782 0)
(-0.0149159 -0.0989569 0)
(-0.0160947 -0.100655 0)
(-0.0173234 -0.102559 0)
(-0.0185782 -0.104602 0)
(-0.0198889 -0.106834 0)
(-0.0212438 -0.109218 0)
(-0.0226615 -0.111772 0)
(-0.0241444 -0.114485 0)
(-0.0257018 -0.117378 0)
(-0.0273409 -0.120469 0)
(-0.0291017 -0.123785 0)
(-0.0310836 -0.127294 0)
(-0.0334032 -0.130889 0)
(-0.0356245 -0.134341 0)
(-0.035196 -0.137362 0)
(-0.0292813 -0.14051 0)
(-0.0226355 -0.144975 0)
(-0.0205276 -0.149955 0)
(-0.0216372 -0.154292 0)
(-0.0230772 -0.158363 0)
(-0.0243142 -0.162373 0)
(-0.0254953 -0.166471 0)
(-0.0266884 -0.170658 0)
(-0.0279458 -0.174965 0)
(-0.029298 -0.179433 0)
(-0.0307785 -0.184052 0)
(-0.0324357 -0.188896 0)
(-0.0342915 -0.193934 0)
(-0.0364079 -0.199246 0)
(-0.0388011 -0.204809 0)
(-0.0415264 -0.210696 0)
(-0.0445957 -0.21691 0)
(-0.0480444 -0.223519 0)
(-0.0518739 -0.230557 0)
(-0.0560875 -0.238085 0)
(-0.0606555 -0.246121 0)
(-0.0655216 -0.254598 0)
(-0.0706009 -0.263221 0)
(-0.0757934 -0.271224 0)
(-0.0810621 -0.277043 0)
(-0.085951 -0.278486 0)
(-0.0906592 -0.272216 0)
(-0.0946551 -0.253421 0)
(-0.0977748 -0.219017 0)
(-0.0997683 -0.170564 0)
(-0.100616 -0.117192 0)
(-0.10065 -0.0688495 0)
(-0.100325 -0.0239563 0)
(0.100481 -0.0167804 0)
(0.100828 -0.0545908 0)
(0.100145 -0.0962689 0)
(0.098163 -0.13772 0)
(0.0949485 -0.172636 0)
(0.0907758 -0.196557 0)
(0.0859967 -0.208794 0)
(0.0808877 -0.211382 0)
(0.075813 -0.207545 0)
(0.0707422 -0.199895 0)
(0.0658715 -0.190621 0)
(0.0612084 -0.181058 0)
(0.0567605 -0.171909 0)
(0.05254 -0.163475 0)
(0.0485495 -0.15583 0)
(0.0447879 -0.148948 0)
(0.0412517 -0.142761 0)
(0.0379314 -0.137189 0)
(0.0348213 -0.132162 0)
(0.0319075 -0.127609 0)
(0.0291823 -0.123476 0)
(0.0266292 -0.119705 0)
(0.0242411 -0.116264 0)
(0.0219991 -0.113102 0)
(0.0198965 -0.110206 0)
(0.0179147 -0.107533 0)
(0.0160471 -0.105084 0)
(0.0142772 -0.102822 0)
(0.0125978 -0.100754 0)
(0.0109965 -0.0988531 0)
(0.00946498 -0.0971238 0)
(0.00799496 -0.0955494 0)
(0.00657832 -0.0941315 0)
(0.0052087 -0.0928614 0)
(0.00387891 -0.0917389 0)
(0.00258184 -0.0907593 0)
(0.00131219 -0.0899242 0)
(6.01971e-05 -0.0892278 0)
(-0.00117659 -0.0886747 0)
(-0.00241206 -0.0882525 0)
(-0.00364346 -0.0879819 0)
(-0.00488462 -0.0878414 0)
(-0.00612989 -0.0878599 0)
(-0.00739187 -0.0880069 0)
(-0.00866722 -0.0883114 0)
(-0.00996298 -0.0887461 0)
(-0.01128 -0.0893292 0)
(-0.0126198 -0.0900503 0)
(-0.0139853 -0.0909087 0)
(-0.0153775 -0.0919164 0)
(-0.0167972 -0.0930544 0)
(-0.0182501 -0.0943514 0)
(-0.0197329 -0.0957787 0)
(-0.0212563 -0.0973685 0)
(-0.0228146 -0.0990939 0)
(-0.0244206 -0.100977 0)
(-0.0260696 -0.102998 0)
(-0.0277735 -0.105162 0)
(-0.02953 -0.107457 0)
(-0.031349 -0.109884 0)
(-0.0332271 -0.112449 0)
(-0.0351676 -0.11517 0)
(-0.0371998 -0.118069 0)
(-0.039416 -0.121113 0)
(-0.0419035 -0.124203 0)
(-0.0440911 -0.127132 0)
(-0.0432222 -0.129701 0)
(-0.036755 -0.132566 0)
(-0.0304344 -0.136876 0)
(-0.0288002 -0.14151 0)
(-0.0297904 -0.145644 0)
(-0.0309893 -0.149526 0)
(-0.0320612 -0.153376 0)
(-0.0331241 -0.15725 0)
(-0.0342495 -0.161178 0)
(-0.0354569 -0.165177 0)
(-0.0367793 -0.169258 0)
(-0.0382476 -0.173453 0)
(-0.0398876 -0.177764 0)
(-0.0417286 -0.182232 0)
(-0.0437902 -0.186863 0)
(-0.0461065 -0.1917 0)
(-0.0486962 -0.196759 0)
(-0.0515812 -0.202091 0)
(-0.0547659 -0.207741 0)
(-0.0582529 -0.213777 0)
(-0.0620305 -0.220262 0)
(-0.0660807 -0.22724 0)
(-0.0703622 -0.234659 0)
(-0.0748241 -0.242243 0)
(-0.0794064 -0.249241 0)
(-0.0840864 -0.254163 0)
(-0.0884863 -0.254969 0)
(-0.092722 -0.248502 0)
(-0.0963058 -0.230512 0)
(-0.0990082 -0.198415 0)
(-0.100588 -0.154014 0)
(-0.101074 -0.105823 0)
(-0.100847 -0.062536 0)
(-0.100375 -0.0219822 0)
(0.100444 -0.0154692 0)
(0.100809 -0.0501848 0)
(0.100288 -0.0885339 0)
(0.0986231 -0.126951 0)
(0.0958379 -0.159648 0)
(0.0921482 -0.182374 0)
(0.0878433 -0.194304 0)
(0.0831607 -0.19719 0)
(0.078471 -0.193991 0)
(0.0737053 -0.187107 0)
(0.0690846 -0.178602 0)
(0.0646181 -0.169767 0)
(0.0603205 -0.161296 0)
(0.0562047 -0.153491 0)
(0.052276 -0.146439 0)
(0.0485336 -0.140118 0)
(0.0449757 -0.134463 0)
(0.0415998 -0.129398 0)
(0.0384003 -0.124849 0)
(0.0353711 -0.12075 0)
(0.0325033 -0.117039 0)
(0.0297897 -0.113668 0)
(0.0272202 -0.11059 0)
(0.0247862 -0.107773 0)
(0.0224763 -0.105183 0)
(0.0202819 -0.102801 0)
(0.0181917 -0.100604 0)
(0.0161969 -0.0985817 0)
(0.0142872 -0.0967186 0)
(0.0124541 -0.09501 0)
(0.010689 -0.0934461 0)
(0.0089839 -0.0920242 0)
(0.00733159 -0.0907386 0)
(0.00572469 -0.0895869 0)
(0.00415641 -0.0885662 0)
(0.00261967 -0.0876745 0)
(0.00110715 -0.0869101 0)
(-0.000387846 -0.0862718 0)
(-0.00187408 -0.0857547 0)
(-0.0033571 -0.0853627 0)
(-0.00484429 -0.0850952 0)
(-0.00633785 -0.0849606 0)
(-0.00784385 -0.084953 0)
(-0.00936427 -0.0850812 0)
(-0.0109036 -0.0853368 0)
(-0.0124646 -0.0857268 0)
(-0.0140494 -0.0862451 0)
(-0.0156616 -0.0868946 0)
(-0.0173019 -0.0876749 0)
(-0.0189735 -0.0885838 0)
(-0.0206776 -0.089627 0)
(-0.0224161 -0.0907981 0)
(-0.0241918 -0.0921058 0)
(-0.0260053 -0.0935422 0)
(-0.0278604 -0.0951143 0)
(-0.0297576 -0.0968143 0)
(-0.0316998 -0.0986422 0)
(-0.0336889 -0.100588 0)
(-0.035725 -0.102647 0)
(-0.0378107 -0.104813 0)
(-0.0399397 -0.107094 0)
(-0.0421079 -0.109504 0)
(-0.0443402 -0.112065 0)
(-0.0467314 -0.114748 0)
(-0.0493408 -0.11745 0)
(-0.0514657 -0.119995 0)
(-0.0502409 -0.122261 0)
(-0.0435083 -0.12494 0)
(-0.0376586 -0.129093 0)
(-0.0365068 -0.133327 0)
(-0.0374028 -0.137134 0)
(-0.0384133 -0.14074 0)
(-0.0393227 -0.144319 0)
(-0.0402684 -0.147918 0)
(-0.0412951 -0.151548 0)
(-0.0424241 -0.155222 0)
(-0.0436768 -0.158957 0)
(-0.0450773 -0.162764 0)
(-0.0466503 -0.166663 0)
(-0.0484166 -0.17067 0)
(-0.0503953 -0.174815 0)
(-0.052598 -0.179125 0)
(-0.0550404 -0.183639 0)
(-0.057733 -0.188403 0)
(-0.0606782 -0.193477 0)
(-0.0638706 -0.198933 0)
(-0.0672981 -0.204845 0)
(-0.0709407 -0.211257 0)
(-0.0747626 -0.218111 0)
(-0.0787212 -0.225119 0)
(-0.0827644 -0.231503 0)
(-0.0868721 -0.235814 0)
(-0.090645 -0.236219 0)
(-0.0942447 -0.229774 0)
(-0.0972097 -0.212518 0)
(-0.0993637 -0.182254 0)
(-0.100566 -0.14095 0)
(-0.100899 -0.0966851 0)
(-0.100698 -0.0572908 0)
(-0.100324 -0.020269 0)
(0.100442 -0.0141801 0)
(0.100872 -0.0459103 0)
(0.100512 -0.0810294 0)
(0.0991017 -0.116434 0)
(0.0966359 -0.146846 0)
(0.0932872 -0.168257 0)
(0.0893133 -0.179764 0)
(0.0849235 -0.182867 0)
(0.0804801 -0.180236 0)
(0.0759195 -0.174095 0)
(0.0714775 -0.166365 0)
(0.0671601 -0.158274 0)
(0.0629839 -0.150492 0)
(0.0589609 -0.143322 0)
(0.0550975 -0.136854 0)
(0.0513946 -0.131074 0)
(0.0478503 -0.125924 0)
(0.0444617 -0.121331 0)
(0.0412243 -0.117225 0)
(0.0381327 -0.11354 0)
(0.0351808 -0.110219 0)
(0.0323621 -0.10721 0)
(0.02967 -0.104472 0)
(0.0270969 -0.101969 0)
(0.0246353 -0.0996719 0)
(0.0222767 -0.0975573 0)
(0.0200134 -0.0956081 0)
(0.0178369 -0.0938097 0)
(0.0157397 -0.0921528 0)
(0.0137135 -0.0906289 0)
(0.011751 -0.0892334 0)
(0.0098448 -0.0879616 0)
(0.00798795 -0.0868108 0)
(0.0061736 -0.0857782 0)
(0.004395 -0.0848616 0)
(0.00264525 -0.0840595 0)
(0.00091762 -0.0833703 0)
(-0.000795225 -0.082791 0)
(-0.00250169 -0.0823191 0)
(-0.00420987 -0.0819558 0)
(-0.00592493 -0.0817063 0)
(-0.00765085 -0.0815719 0)
(-0.00939091 -0.0815567 0)
(-0.0111487 -0.0816595 0)
(-0.0129273 -0.0818828 0)
(-0.0147297 -0.0822244 0)
(-0.0165588 -0.0826862 0)
(-0.0184166 -0.0832665 0)
(-0.0203057 -0.0839665 0)
(-0.0222275 -0.084786 0)
(-0.0241841 -0.0857247 0)
(-0.0261767 -0.086784 0)
(-0.0282068 -0.0879625 0)
(-0.0302755 -0.0892614 0)
(-0.0323835 -0.0906783 0)
(-0.0345321 -0.0922121 0)
(-0.0367205 -0.0938569 0)
(-0.0389502 -0.0956064 0)
(-0.0412176 -0.0974521 0)
(-0.0435237 -0.0993902 0)
(-0.0458581 -0.101426 0)
(-0.0482144 -0.103574 0)
(-0.0506152 -0.105857 0)
(-0.0531608 -0.108246 0)
(-0.0558934 -0.110634 0)
(-0.0579745 -0.112871 0)
(-0.0564263 -0.114917 0)
(-0.049574 -0.117491 0)
(-0.0441799 -0.121438 0)
(-0.0434188 -0.125252 0)
(-0.0442457 -0.128696 0)
(-0.0450936 -0.131981 0)
(-0.0458716 -0.135252 0)
(-0.0467035 -0.138535 0)
(-0.0476273 -0.141841 0)
(-0.0486595 -0.145179 0)
(-0.0498196 -0.148558 0)
(-0.0511268 -0.151993 0)
(-0.0525988 -0.155498 0)
(-0.0542537 -0.159093 0)
(-0.0561058 -0.162798 0)
(-0.0581669 -0.166648 0)
(-0.0604442 -0.170679 0)
(-0.0629408 -0.174943 0)
(-0.0656568 -0.179499 0)
(-0.0685862 -0.184419 0)
(-0.0717182 -0.189773 0)
(-0.0750365 -0.195592 0)
(-0.0785086 -0.201809 0)
(-0.0820922 -0.208119 0)
(-0.0857538 -0.213749 0)
(-0.0894013 -0.217388 0)
(-0.0927627 -0.21732 0)
(-0.095853 -0.210762 0)
(-0.0983541 -0.194284 0)
(-0.100076 -0.165973 0)
(-0.100936 -0.127896 0)
(-0.101044 -0.0876277 0)
(-0.100725 -0.0521128 0)
(-0.100316 -0.0185712 0)
(0.100427 -0.0130238 0)
(0.100881 -0.0420628 0)
(0.100619 -0.0742359 0)
(0.0993831 -0.10684 0)
(0.0971504 -0.135065 0)
(0.0940616 -0.155154 0)
(0.0903517 -0.166159 0)
(0.0862096 -0.169369 0)
(0.081983 -0.167184 0)
(0.0776064 -0.161673 0)
(0.0733207 -0.154623 0)
(0.0691279 -0.147193 0)
(0.0650577 -0.140029 0)
(0.0611206 -0.133426 0)
(0.0573222 -0.127478 0)
(0.0536627 -0.122176 0)
(0.050142 -0.117467 0)
(0.0467564 -0.113285 0)
(0.0435022 -0.109563 0)
(0.0403748 -0.106238 0)
(0.0373691 -0.103255 0)
(0.0344791 -0.100564 0)
(0.0316992 -0.0981231 0)
(0.0290236 -0.0958985 0)
(0.0264462 -0.0938614 0)
(0.0239608 -0.0919889 0)
(0.0215604 -0.0902634 0)
(0.0192387 -0.0886718 0)
(0.0169884 -0.087204 0)
(0.0148033 -0.0858534 0)
(0.0126762 -0.0846148 0)
(0.0106007 -0.0834848 0)
(0.00857018 -0.082461 0)
(0.00657824 -0.0815412 0)
(0.00461827 -0.0807237 0)
(0.00268369 -0.080007 0)
(0.000768104 -0.0793897 0)
(-0.00113595 -0.0788685 0)
(-0.00303749 -0.0784407 0)
(-0.004945 -0.0781092 0)
(-0.00686342 -0.0778776 0)
(-0.00879629 -0.0777497 0)
(-0.0107465 -0.0777271 0)
(-0.012717 -0.0778119 0)
(-0.0147107 -0.0780036 0)
(-0.0167303 -0.0783035 0)
(-0.018778 -0.0787109 0)
(-0.0208562 -0.0792264 0)
(-0.0229666 -0.0798499 0)
(-0.0251109 -0.0805817 0)
(-0.0272903 -0.081422 0)
(-0.029506 -0.0823707 0)
(-0.0317586 -0.0834277 0)
(-0.0340487 -0.0845925 0)
(-0.0363763 -0.0858641 0)
(-0.038741 -0.0872397 0)
(-0.0411414 -0.0887149 0)
(-0.0435768 -0.0902824 0)
(-0.0460433 -0.0919348 0)
(-0.0485382 -0.0936673 0)
(-0.0510514 -0.0954854 0)
(-0.0535724 -0.0974028 0)
(-0.0561253 -0.09944 0)
(-0.0588158 -0.101569 0)
(-0.0616704 -0.103677 0)
(-0.0637477 -0.105641 0)
(-0.06199 -0.107482 0)
(-0.0550312 -0.109927 0)
(-0.0499323 -0.11368 0)
(-0.0494731 -0.117127 0)
(-0.0502636 -0.120232 0)
(-0.0509927 -0.123211 0)
(-0.0516646 -0.126179 0)
(-0.0523975 -0.129156 0)
(-0.0532233 -0.13215 0)
(-0.0541588 -0.135167 0)
(-0.0552218 -0.138217 0)
(-0.0564291 -0.141312 0)
(-0.0577954 -0.144465 0)
(-0.0593334 -0.147695 0)
(-0.0610554 -0.151026 0)
(-0.0629716 -0.154486 0)
(-0.0650884 -0.158115 0)
(-0.0674062 -0.161961 0)
(-0.0699221 -0.166083 0)
(-0.0726293 -0.170548 0)
(-0.075516 -0.175421 0)
(-0.0785649 -0.180723 0)
(-0.0817445 -0.18638 0)
(-0.0850005 -0.192087 0)
(-0.0883213 -0.197083 0)
(-0.0915408 -0.200211 0)
(-0.0945163 -0.199844 0)
(-0.0971198 -0.193373 0)
(-0.0991757 -0.177793 0)
(-0.100507 -0.151386 0)
(-0.101084 -0.11627 0)
(-0.101041 -0.0795641 0)
(-0.100679 -0.0474587 0)
(-0.100291 -0.0170142 0)
(0.100413 -0.0119255 0)
(0.100866 -0.0384257 0)
(0.100656 -0.0678029 0)
(0.0995287 -0.0977082 0)
(0.0974547 -0.123781 0)
(0.0945546 -0.142521 0)
(0.0910433 -0.152964 0)
(0.087107 -0.156218 0)
(0.0830445 -0.15441 0)
(0.0788349 -0.149479 0)
(0.0746838 -0.143071 0)
(0.0706065 -0.136271 0)
(0.0666336 -0.129696 0)
(0.0627776 -0.123631 0)
(0.0590451 -0.118173 0)
(0.0554357 -0.113317 0)
(0.0519476 -0.109017 0)
(0.0485781 -0.10521 0)
(0.0453228 -0.101836 0)
(0.0421779 -0.0988342 0)
(0.039139 -0.0961525 0)
(0.0362015 -0.0937445 0)
(0.03336 -0.0915694 0)
(0.0306096 -0.0895939 0)
(0.0279454 -0.0877898 0)
(0.0253622 -0.0861351 0)
(0.0228546 -0.0846124 0)
(0.0204169 -0.0832087 0)
(0.0180434 -0.0819142 0)
(0.015728 -0.0807222 0)
(0.0134652 -0.0796283 0)
(0.0112485 -0.0786291 0)
(0.00907223 -0.0777228 0)
(0.00693005 -0.0769074 0)
(0.00481604 -0.0761818 0)
(0.00272387 -0.0755443 0)
(0.000647472 -0.0749945 0)
(-0.00142028 -0.0745281 0)
(-0.00349 -0.0741437 0)
(-0.00557036 -0.0738433 0)
(-0.00766663 -0.0736317 0)
(-0.0097812 -0.0735115 0)
(-0.0119167 -0.0734858 0)
(-0.0140755 -0.0735555 0)
(-0.0162598 -0.0737214 0)
(-0.018472 -0.0739839 0)
(-0.020714 -0.0743431 0)
(-0.0229877 -0.0747994 0)
(-0.0252944 -0.0753528 0)
(-0.0276353 -0.0760038 0)
(-0.0300114 -0.0767521 0)
(-0.0324232 -0.0775982 0)
(-0.0348709 -0.0785416 0)
(-0.0373542 -0.0795821 0)
(-0.0398725 -0.0807184 0)
(-0.0424246 -0.0819481 0)
(-0.0450082 -0.083267 0)
(-0.0476211 -0.0846685 0)
(-0.0502587 -0.0861455 0)
(-0.0529162 -0.0876928 0)
(-0.055583 -0.0893158 0)
(-0.0582455 -0.0910266 0)
(-0.0609283 -0.0928448 0)
(-0.0637373 -0.0947388 0)
(-0.0666902 -0.0966 0)
(-0.0687674 -0.0983235 0)
(-0.0668234 -0.0999612 0)
(-0.0599349 -0.102278 0)
(-0.0551345 -0.105813 0)
(-0.0548358 -0.108939 0)
(-0.0555563 -0.111736 0)
(-0.0561692 -0.114428 0)
(-0.0567391 -0.11711 0)
(-0.0573755 -0.119798 0)
(-0.0581055 -0.122497 0)
(-0.0589445 -0.125215 0)
(-0.0599091 -0.12796 0)
(-0.0610141 -0.130743 0)
(-0.0622721 -0.133577 0)
(-0.063694 -0.136479 0)
(-0.065289 -0.139472 0)
(-0.0670652 -0.142585 0)
(-0.0690264 -0.145854 0)
(-0.071173 -0.149324 0)
(-0.0734997 -0.153052 0)
(-0.0759981 -0.157099 0)
(-0.0786561 -0.161522 0)
(-0.0814525 -0.166336 0)
(-0.0843574 -0.171465 0)
(-0.0872993 -0.176606 0)
(-0.0903165 -0.181005 0)
(-0.0931349 -0.183648 0)
(-0.0957731 -0.18308 0)
(-0.097983 -0.176768 0)
(-0.099698 -0.162098 0)
(-0.100757 -0.137565 0)
(-0.101152 -0.105311 0)
(-0.101019 -0.0719827 0)
(-0.100641 -0.0430586 0)
(-0.100273 -0.015521 0)
(0.100397 -0.010868 0)
(0.100836 -0.0349431 0)
(0.100647 -0.0616437 0)
(0.0995849 -0.0889365 0)
(0.0976164 -0.112888 0)
(0.094851 -0.130265 0)
(0.0914868 -0.140099 0)
(0.0877189 -0.143345 0)
(0.0837783 -0.14186 0)
(0.0797174 -0.137465 0)
(0.0756821 -0.131665 0)
(0.0717079 -0.12547 0)
(0.0678237 -0.119461 0)
(0.0640421 -0.113914 0)
(0.0603697 -0.108924 0)
(0.0568074 -0.104491 0)
(0.0533535 -0.100575 0)
(0.0500044 -0.0971179 0)
(0.0467567 -0.0940637 0)
(0.0436059 -0.0913573 0)
(0.0405482 -0.0889495 0)
(0.0375791 -0.0867961 0)
(0.0346948 -0.0848596 0)
(0.0318903 -0.083107 0)
(0.0291613 -0.0815122 0)
(0.0265033 -0.080053 0)
(0.023912 -0.078713 0)
(0.0213824 -0.077479 0)
(0.0189096 -0.0763417 0)
(0.0164887 -0.0752943 0)
(0.0141142 -0.0743325 0)
(0.0117809 -0.0734531 0)
(0.00948309 -0.0726541 0)
(0.0072156 -0.0719344 0)
(0.00497228 -0.0712925 0)
(0.00274758 -0.0707278 0)
(0.000535764 -0.0702394 0)
(-0.00167061 -0.0698242 0)
(-0.00388282 -0.0694799 0)
(-0.00611086 -0.0692101 0)
(-0.00835918 -0.069018 0)
(-0.0106303 -0.0689074 0)
(-0.0129259 -0.0688804 0)
(-0.0152479 -0.0689384 0)
(-0.0175982 -0.0690821 0)
(-0.0199787 -0.0693118 0)
(-0.0223908 -0.069628 0)
(-0.0248359 -0.0700305 0)
(-0.0273151 -0.0705202 0)
(-0.0298289 -0.0710965 0)
(-0.0323781 -0.0717603 0)
(-0.0349624 -0.0725111 0)
(-0.0375817 -0.0733492 0)
(-0.0402349 -0.074274 0)
(-0.0429208 -0.0752848 0)
(-0.0456372 -0.0763794 0)
(-0.0483816 -0.0775544 0)
(-0.0511502 -0.0788036 0)
(-0.0539381 -0.0801205 0)
(-0.0567386 -0.0815006 0)
(-0.0595407 -0.0829486 0)
(-0.0623279 -0.0844759 0)
(-0.0651244 -0.0861006 0)
(-0.0680336 -0.0877875 0)
(-0.071074 -0.089435 0)
(-0.0731769 -0.0909523 0)
(-0.071105 -0.0924124 0)
(-0.0643232 -0.0946172 0)
(-0.0597368 -0.0978964 0)
(-0.0595004 -0.100721 0)
(-0.0601452 -0.103228 0)
(-0.0606586 -0.105645 0)
(-0.0611379 -0.108056 0)
(-0.0616861 -0.11047 0)
(-0.062327 -0.112893 0)
(-0.0630752 -0.115333 0)
(-0.0639459 -0.117797 0)
(-0.0649521 -0.120294 0)
(-0.0661052 -0.122836 0)
(-0.0674142 -0.12544 0)
(-0.068887 -0.128128 0)
(-0.0705289 -0.130926 0)
(-0.0723429 -0.133868 0)
(-0.0743275 -0.136997 0)
(-0.076477 -0.140365 0)
(-0.078781 -0.144029 0)
(-0.0812261 -0.148037 0)
(-0.0837912 -0.1524 0)
(-0.0864424 -0.157043 0)
(-0.0891069 -0.161668 0)
(-0.0918436 -0.16554 0)
(-0.094336 -0.167755 0)
(-0.0966578 -0.16703 0)
(-0.098561 -0.160955 0)
(-0.100009 -0.147205 0)
(-0.100869 -0.124511 0)
(-0.101142 -0.0950111 0)
(-0.100962 -0.0648696 0)
(-0.100591 -0.0389054 0)
(-0.100255 -0.0140932 0)
(0.100381 -0.00984251 0)
(0.100797 -0.0315819 0)
(0.100609 -0.0556999 0)
(0.099584 -0.0804463 0)
(0.0976854 -0.102298 0)
(0.0950152 -0.118292 0)
(0.0917601 -0.127478 0)
(0.0881203 -0.130662 0)
(0.0842685 -0.129461 0)
(0.0803298 -0.125567 0)
(0.0763926 -0.120349 0)
(0.0725067 -0.114741 0)
(0.0687004 -0.109284 0)
(0.0649861 -0.104241 0)
(0.0613699 -0.0997055 0)
(0.0578527 -0.0956804 0)
(0.054433 -0.0921299 0)
(0.0511075 -0.0890037 0)
(0.0478724 -0.0862491 0)
(0.0447235 -0.0838164 0)
(0.0416568 -0.0816599 0)
(0.0386682 -0.0797391 0)
(0.0357538 -0.0780181 0)
(0.0329101 -0.076467 0)
(0.0301325 -0.0750599 0)
(0.0274174 -0.0737766 0)
(0.0247604 -0.0726004 0)
(0.0221579 -0.0715193 0)
(0.0196053 -0.0705234 0)
(0.0170982 -0.0696068 0)
(0.0146321 -0.0687645 0)
(0.0122021 -0.067994 0)
(0.00980348 -0.0672929 0)
(0.00743094 -0.0666604 0)
(0.0050795 -0.0660954 0)
(0.0027435 -0.0655973 0)
(0.000417987 -0.0651657 0)
(-0.00190486 -0.0647976 0)
(-0.0042375 -0.0644913 0)
(-0.00659066 -0.0642502 0)
(-0.00896872 -0.0640777 0)
(-0.0113736 -0.063977 0)
(-0.0138067 -0.0639503 0)
(-0.0162693 -0.0639988 0)
(-0.0187631 -0.0641232 0)
(-0.0212894 -0.0643239 0)
(-0.0238494 -0.0646011 0)
(-0.0264441 -0.0649551 0)
(-0.029074 -0.0653861 0)
(-0.0317394 -0.0658945 0)
(-0.0344403 -0.0664802 0)
(-0.0371762 -0.0671436 0)
(-0.0399461 -0.0678844 0)
(-0.0427487 -0.0687029 0)
(-0.0455818 -0.069598 0)
(-0.048443 -0.0705684 0)
(-0.0513287 -0.071611 0)
(-0.0542347 -0.0727204 0)
(-0.0571553 -0.0738911 0)
(-0.0600829 -0.0751188 0)
(-0.0630062 -0.0764088 0)
(-0.0659062 -0.0777709 0)
(-0.0688056 -0.0792238 0)
(-0.0718056 -0.0807309 0)
(-0.0749292 -0.0821982 0)
(-0.0770825 -0.0835403 0)
(-0.0749382 -0.0848477 0)
(-0.0682411 -0.0869254 0)
(-0.0637885 -0.0899213 0)
(-0.0635586 -0.092456 0)
(-0.0641197 -0.0946915 0)
(-0.0645445 -0.0968504 0)
(-0.064944 -0.0990043 0)
(-0.0654125 -0.101162 0)
(-0.0659719 -0.103328 0)
(-0.066636 -0.10551 0)
(-0.0674185 -0.107712 0)
(-0.0683313 -0.109945 0)
(-0.0693842 -0.112218 0)
(-0.0705852 -0.114548 0)
(-0.0719406 -0.116954 0)
(-0.0734545 -0.119461 0)
(-0.0751284 -0.122101 0)
(-0.0769601 -0.124914 0)
(-0.078942 -0.127946 0)
(-0.0810636 -0.131249 0)
(-0.0833107 -0.134865 0)
(-0.0856617 -0.138801 0)
(-0.0880796 -0.142979 0)
(-0.0905021 -0.14711 0)
(-0.0929796 -0.150492 0)
(-0.0952027 -0.152344 0)
(-0.0972505 -0.151479 0)
(-0.0989126 -0.145674 0)
(-0.100158 -0.132866 0)
(-0.10088 -0.112015 0)
(-0.101078 -0.0852164 0)
(-0.100884 -0.0581275 0)
(-0.100537 -0.0349502 0)
(-0.100237 -0.012718 0)
(0.100363 -0.00884165 0)
(0.100749 -0.028317 0)
(0.100551 -0.0499287 0)
(0.0995408 -0.0721824 0)
(0.097685 -0.0919508 0)
(0.0950811 -0.106543 0)
(0.0919062 -0.115041 0)
(0.0883541 -0.118108 0)
(0.0845907 -0.117172 0)
(0.0807407 -0.113753 0)
(0.0768856 -0.109096 0)
(0.0730756 -0.104057 0)
(0.0693366 -0.0991397 0)
(0.065682 -0.0945898 0)
(0.0621166 -0.090497 0)
(0.0586415 -0.0868674 0)
(0.0552548 -0.0836698 0)
(0.0519533 -0.0808592 0)
(0.0487333 -0.0783887 0)
(0.0455905 -0.076213 0)
(0.0425208 -0.0742906 0)
(0.0395206 -0.0725842 0)
(0.036586 -0.0710612 0)
(0.0337134 -0.0696932 0)
(0.0308995 -0.0684567 0)
(0.0281404 -0.0673319 0)
(0.0254325 -0.0663038 0)
(0.0227719 -0.0653599 0)
(0.0201553 -0.064492 0)
(0.0175784 -0.0636929 0)
(0.0150373 -0.062959 0)
(0.0125278 -0.0622867 0)
(0.0100453 -0.0616747 0)
(0.00758554 -0.0611215 0)
(0.00514333 -0.0606265 0)
(0.00271403 -0.0601892 0)
(0.000292694 -0.0598096 0)
(-0.00212851 -0.059485 0)
(-0.00456322 -0.0592144 0)
(-0.00702307 -0.0590007 0)
(-0.00951179 -0.0588475 0)
(-0.0120313 -0.058757 0)
(-0.0145824 -0.0587317 0)
(-0.0171661 -0.0587722 0)
(-0.0197839 -0.0588797 0)
(-0.0224364 -0.0590539 0)
(-0.025125 -0.0592957 0)
(-0.0278498 -0.0596049 0)
(-0.0306112 -0.0599821 0)
(-0.0334091 -0.0604273 0)
(-0.036243 -0.060941 0)
(-0.0391118 -0.0615233 0)
(-0.0420142 -0.0621745 0)
(-0.0449482 -0.0628943 0)
(-0.0479113 -0.0636827 0)
(-0.0509002 -0.0645382 0)
(-0.0539112 -0.0654583 0)
(-0.0569393 -0.0664385 0)
(-0.0599784 -0.0674741 0)
(-0.0630207 -0.0685617 0)
(-0.0660536 -0.0697056 0)
(-0.0690594 -0.0709176 0)
(-0.0720554 -0.072211 0)
(-0.0751469 -0.0735561 0)
(-0.0783625 -0.0748586 0)
(-0.0806022 -0.0760431 0)
(-0.0784205 -0.0771993 0)
(-0.0717186 -0.0791264 0)
(-0.0672859 -0.0818416 0)
(-0.0670545 -0.0841088 0)
(-0.0675498 -0.0860965 0)
(-0.0679045 -0.088017 0)
(-0.0682377 -0.089933 0)
(-0.0686376 -0.0918524 0)
(-0.069125 -0.0937795 0)
(-0.069713 -0.0957198 0)
(-0.0704146 -0.0976795 0)
(-0.0712403 -0.0996662 0)
(-0.0721988 -0.10169 0)
(-0.0732974 -0.103765 0)
(-0.074541 -0.105909 0)
(-0.0759332 -0.108144 0)
(-0.0774745 -0.110501 0)
(-0.0791603 -0.113015 0)
(-0.0809834 -0.11573 0)
(-0.0829327 -0.11869 0)
(-0.0849942 -0.121933 0)
(-0.0871481 -0.125459 0)
(-0.0893516 -0.129193 0)
(-0.0915617 -0.132852 0)
(-0.0937993 -0.135788 0)
(-0.0957947 -0.137329 0)
(-0.0976041 -0.136354 0)
(-0.0990722 -0.130857 0)
(-0.100163 -0.119019 0)
(-0.100794 -0.100016 0)
(-0.10096 -0.0758654 0)
(-0.100781 -0.0517061 0)
(-0.100476 -0.0311635 0)
(-0.100219 -0.0113869 0)
(0.100346 -0.00785988 0)
(0.100698 -0.0251289 0)
(0.100477 -0.0442963 0)
(0.0994679 -0.0640995 0)
(0.0976355 -0.0817934 0)
(0.0950755 -0.0949643 0)
(0.0919585 -0.102739 0)
(0.0884735 -0.105654 0)
(0.0847802 -0.104951 0)
(0.0810015 -0.101983 0)
(0.0772141 -0.0978687 0)
(0.0734683 -0.0933877 0)
(0.0697874 -0.089 0)
(0.0661853 -0.084935 0)
(0.0626656 -0.081277 0)
(0.059229 -0.0780342 0)
(0.0558734 -0.0751797 0)
(0.0525955 -0.0726741 0)
(0.0493915 -0.0704757 0)
(0.0462573 -0.0685443 0)
(0.043189 -0.0668425 0)
(0.0401824 -0.0653366 0)
(0.0372344 -0.0639971 0)
(0.0343414 -0.062798 0)
(0.0315001 -0.0617174 0)
(0.0287074 -0.0607373 0)
(0.0259596 -0.0598432 0)
(0.0232536 -0.059024 0)
(0.0205856 -0.058271 0)
(0.0179525 -0.0575785 0)
(0.0153504 -0.056942 0)
(0.0127755 -0.0563589 0)
(0.0102239 -0.0558271 0)
(0.00769143 -0.0553457 0)
(0.00517342 -0.0549141 0)
(0.00266558 -0.0545317 0)
(0.000163255 -0.0541994 0)
(-0.00234161 -0.0539144 0)
(-0.00486381 -0.0536777 0)
(-0.00741481 -0.0534909 0)
(-0.0099986 -0.0533569 0)
(-0.0126161 -0.0532777 0)
(-0.0152687 -0.0532546 0)
(-0.0179568 -0.0532893 0)
(-0.0206813 -0.0533815 0)
(-0.0234433 -0.0535325 0)
(-0.026243 -0.0537416 0)
(-0.0290809 -0.05401 0)
(-0.0319566 -0.0543374 0)
(-0.03487 -0.0547245 0)
(-0.0378197 -0.0551714 0)
(-0.0408048 -0.0556786 0)
(-0.0438231 -0.0562463 0)
(-0.0468725 -0.0568747 0)
(-0.0499498 -0.0575636 0)
(-0.0530517 -0.058312 0)
(-0.0561734 -0.0591178 0)
(-0.0593103 -0.0599774 0)
(-0.0624547 -0.060886 0)
(-0.0656006 -0.0618428 0)
(-0.0687311 -0.0628487 0)
(-0.0718345 -0.0639199 0)
(-0.0749153 -0.0650617 0)
(-0.0780904 -0.0662539 0)
(-0.0813804 -0.0673983 0)
(-0.0836962 -0.0684317 0)
(-0.0815072 -0.0694358 0)
(-0.0748243 -0.0711929 0)
(-0.0703991 -0.0736376 0)
(-0.0701249 -0.0756608 0)
(-0.0705481 -0.0774221 0)
(-0.0708346 -0.079122 0)
(-0.0711053 -0.0808172 0)
(-0.0714418 -0.0825145 0)