/*--------------------------------*- C++ -*----------------------------------*\
  =========                 |
  \\      /  F ield         | OpenFOAM: The Open Source CFD Toolbox
   \\    /   O peration     | Website:  https://openfoam.org
    \\  /    A nd           | Version:  8
     \\/     M anipulation  |
\*---------------------------------------------------------------------------*/
FoamFile
{
    version     2.0;
    format      ascii;
    class       volScalarField;
    location    "200/fluid";
    object      CH4;
}
// * * * * * * * * * * * * * * * * * * * * * * * * * * * * * * * * * * * * * //

dimensions      [0 0 0 0 0 0 0];

internalField   nonuniform List<scalar> 
4000
(
0.999997
0.999988
0.999973
0.999948
0.999906
0.999838
0.999725
0.999541
0.999246
0.998777
0.998041
0.996904
0.995179
0.992616
0.988897
0.983646
0.976451
0.966906
0.954667
0.939501
0.921318
0.900177
0.87627
0.849882
0.821364
0.791093
0.759457
0.726827
0.693556
0.659966
0.626345
0.592948
0.559994
0.527666
0.496117
0.465468
0.435815
0.407229
0.379763
0.353449
0.328304
0.304331
0.281521
0.259859
0.239321
0.219879
0.201499
0.184146
0.167782
0.152366
0.13786
0.124223
0.111415
0.099399
0.0881365
0.0775924
0.0677332
0.0585279
0.0499486
0.0419709
0.0345849
0.0278872
0.0216146
0.015905
0.0107858
0.00627256
0.00295885
0.00207159
0.00142855
0.000968575
0.000644304
0.000419504
0.000266688
0.000165205
9.97316e-05
5.91062e-05
3.54298e-05
2.3438e-05
1.76415e-05
1.31737e-05
9.33074e-06
6.18644e-06
3.80211e-06
2.15629e-06
1.1323e-06
5.56045e-07
2.61593e-07
1.19312e-07
5.31597e-08
2.32638e-08
1.00397e-08
4.28546e-09
1.81315e-09
7.61317e-10
3.17197e-10
1.30746e-10
5.28046e-11
2.03263e-11
6.82126e-12
1.19836e-12
0.999997
0.999988
0.999973
0.999947
0.999904
0.999833
0.999717
0.999528
0.999224
0.99874
0.997982
0.996813
0.995044
0.992424
0.988636
0.983308
0.976032
0.966412
0.95411
0.938899
0.92069
0.899537
0.875625
0.849233
0.820703
0.79041
0.758738
0.72606
0.69273
0.659074
0.625383
0.591915
0.558892
0.5265
0.494893
0.464195
0.434499
0.405881
0.378391
0.352061
0.326908
0.302934
0.280131
0.25848
0.23796
0.218539
0.200185
0.18286
0.166526
0.151144
0.136672
0.12307
0.110299
0.0983197
0.0870941
0.0765868
0.066764
0.0575942
0.0490488
0.041102
0.0337387
0.0270629
0.0208115
0.0151244
0.00999814
0.00547615
0.00281302
0.0019659
0.00135261
0.000914427
0.000606073
0.000392862
0.000248444
0.000153006
9.1855e-05
5.43148e-05
3.29273e-05
2.26517e-05
1.70021e-05
1.24248e-05
8.58297e-06
5.53759e-06
3.31051e-06
1.83239e-06
9.45878e-07
4.61153e-07
2.17075e-07
9.9497e-08
4.46614e-08
1.97117e-08
8.58043e-09
3.69273e-09
1.57424e-09
6.65594e-10
2.79081e-10
1.15712e-10
4.69839e-11
1.817e-11
6.11892e-12
1.07697e-12
0.999997
0.999988
0.999972
0.999946
0.999901
0.999828
0.999708
0.999513
0.999199
0.998701
0.997921
0.99672
0.994908
0.992231
0.98837
0.982955
0.97558
0.965854
0.953447
0.938137
0.919839
0.89861
0.874632
0.84818
0.819592
0.789238
0.757497
0.724743
0.691328
0.65758
0.623792
0.590226
0.557105
0.52462
0.492926
0.462149
0.432384
0.403707
0.376171
0.349807
0.324631
0.300645
0.277841
0.256199
0.235697
0.216302
0.197981
0.180695
0.164406
0.149073
0.134653
0.121108
0.108395
0.0964751
0.0853112
0.0748668
0.0651083
0.0560047
0.0475285
0.0396563
0.0323797
0.0257988
0.0196056
0.0139465
0.00881604
0.00423109
0.00259366
0.00180376
0.00123468
0.00083004
0.00054675
0.000351999
0.000220971
0.000135084
8.06274e-05
4.77095e-05
2.95428e-05
2.11524e-05
1.58372e-05
1.13877e-05
7.72321e-06
4.892e-06
2.87843e-06
1.5758e-06
8.09152e-07
3.94392e-07
1.86003e-07
8.54953e-08
3.84922e-08
1.70364e-08
7.43319e-09
3.20469e-09
1.36787e-09
5.78792e-10
2.42797e-10
1.00698e-10
4.08989e-11
1.58227e-11
5.33116e-12
9.38682e-13
0.999997
0.999987
0.999971
0.999944
0.999899
0.999824
0.999701
0.999501
0.999179
0.99867
0.997873
0.996648
0.994801
0.992077
0.988156
0.982664
0.975197
0.965366
0.952843
0.937411
0.918989
0.897637
0.873537
0.846966
0.81826
0.787789
0.755932
0.723061
0.689528
0.655661
0.621756
0.588075
0.554843
0.522253
0.490461
0.459595
0.429752
0.401009
0.373419
0.347013
0.321809
0.297807
0.274998
0.253365
0.232881
0.213514
0.19523
0.17799
0.161753
0.146478
0.132123
0.118645
0.106004
0.0941592
0.0830721
0.0727064
0.0630277
0.0540046
0.0456091
0.037817
0.0306667
0.0241673
0.0180832
0.0125713
0.00763404
0.00333551
0.00233972
0.00161788
0.0011008
0.000735309
0.000481023
0.000307409
0.000191515
0.000116268
6.91682e-05
4.12965e-05
2.66334e-05
1.9651e-05
1.45579e-05
1.02829e-05
6.83676e-06
4.2427e-06
2.44963e-06
1.32096e-06
6.71421e-07
3.25974e-07
1.53597e-07
7.06746e-08
3.1891e-08
1.41564e-08
6.19728e-09
2.68109e-09
1.14823e-09
4.87357e-10
2.04998e-10
8.52162e-11
3.46749e-11
1.3434e-11
4.53209e-12
7.98496e-13
0.999997
0.999987
0.999971
0.999943
0.999897
0.99982
0.999694
0.99949
0.999161
0.99864
0.997827
0.996577
0.994696
0.991924
0.987938
0.982364
0.974797
0.964849
0.952197
0.936626
0.91806
0.896562
0.872317
0.845602
0.816754
0.786143
0.754146
0.721137
0.687468
0.653468
0.619434
0.585628
0.552278
0.519577
0.487684
0.456726
0.426804
0.397992
0.370347
0.3439
0.318667
0.29465
0.271838
0.250214
0.229751
0.210416
0.192173
0.174983
0.158805
0.143595
0.129311
0.11591
0.10335
0.0915905
0.0805923
0.0703182
0.0607336
0.0518066
0.0435081
0.0358132
0.0288682
0.0225003
0.016563
0.0112434
0.00658912
0.00301919
0.00210378
0.00144469
0.000975785
0.000646784
0.000419701
0.00026599
0.000164362
9.91248e-05
5.8921e-05
3.57963e-05
2.44288e-05
1.82276e-05
1.33098e-05
9.23692e-06
6.0277e-06
3.67309e-06
2.0878e-06
1.11303e-06
5.61816e-07
2.72153e-07
1.28209e-07
5.90446e-08
2.66806e-08
1.18624e-08
5.20129e-09
2.25354e-09
9.66391e-10
4.10637e-10
1.72884e-10
7.19153e-11
2.92761e-11
1.1346e-11
3.82992e-12
6.74984e-13
0.999997
0.999987
0.99997
0.999942
0.999894
0.999816
0.999688
0.99948
0.999145
0.998614
0.997785
0.996514
0.9946
0.991783
0.987736
0.982081
0.974414
0.964346
0.951555
0.935833
0.917107
0.895443
0.871032
0.844151
0.81514
0.784369
0.752217
0.719056
0.68524
0.6511
0.616931
0.582997
0.549529
0.516718
0.484726
0.453681
0.423682
0.394808
0.367113
0.340628
0.315371
0.291343
0.268533
0.246923
0.226484
0.207185
0.188988
0.171853
0.155738
0.140598
0.126391
0.113072
0.1006
0.0889326
0.0780308
0.0678573
0.0583776
0.0495601
0.0413768
0.0338032
0.0270235
0.0206547
0.0148292
0.00955873
0.0048631
0.00273992
0.00189378
0.0012902
0.000864528
0.000568413
0.000365804
0.000229909
0.000140956
8.45296e-05
5.03227e-05
3.12934e-05
2.23589e-05
1.67336e-05
1.20737e-05
8.2527e-06
5.29522e-06
3.17285e-06
1.77709e-06
9.36833e-07
4.69368e-07
2.2669e-07
1.06677e-07
4.91364e-08
2.22243e-08
9.89514e-09
4.34597e-09
1.88628e-09
8.10293e-10
3.44852e-10
1.45383e-10
6.05388e-11
2.4663e-11
9.56349e-12
3.23074e-12
5.69604e-13
0.999997
0.999987
0.999969
0.999941
0.999893
0.999813
0.999682
0.99947
0.999129
0.998589
0.997746
0.996453
0.994507
0.991645
0.987536
0.981801
0.974031
0.963841
0.950909
0.93503
0.916136
0.894299
0.869712
0.842656
0.813473
0.782532
0.750216
0.716898
0.682932
0.648648
0.614344
0.580285
0.546701
0.513785
0.4817
0.450573
0.420506
0.391576
0.363837
0.337322
0.312048
0.288014
0.265212
0.243621
0.223212
0.203954
0.185807
0.168731
0.152682
0.137616
0.123489
0.110256
0.0978745
0.0863025
0.0755004
0.0654312
0.0560606
0.0473588
0.0393002
0.0318936
0.0252106
0.0189098
0.013194
0.00805396
0.00355019
0.00246381
0.00169139
0.00114487
0.000762212
0.000497845
0.000318225
0.000198662
0.000121088
7.24478e-05
4.35102e-05
2.80736e-05
2.07091e-05
1.54182e-05
1.09857e-05
7.39814e-06
4.67156e-06
2.75643e-06
1.52403e-06
7.95847e-07
3.96285e-07
1.90925e-07
8.97575e-08
4.13387e-08
1.87055e-08
8.33471e-09
3.66403e-09
1.59189e-09
6.84513e-10
2.91587e-10
1.23021e-10
5.12543e-11
2.0887e-11
8.10188e-12
2.73886e-12
4.8305e-13
0.999997
0.999986
0.999969
0.99994
0.999891
0.99981
0.999677
0.999461
0.999115
0.998566
0.997709
0.996394
0.994418
0.991512
0.987343
0.981528
0.973658
0.963344
0.95027
0.934232
0.915168
0.893154
0.868386
0.841151
0.811791
0.78068
0.748198
0.714722
0.680606
0.646181
0.611747
0.577568
0.543874
0.510862
0.47869
0.44749
0.417362
0.388385
0.360611
0.334074
0.308789
0.284758
0.261969
0.240402
0.220029
0.200815
0.182722
0.165708
0.149728
0.134738
0.120692
0.107546
0.0952548
0.0837771
0.0730721
0.0631023
0.053833
0.0452337
0.0372789
0.0300847
0.0235513
0.0174067
0.0118947
0.00705007
0.00310349
0.00216999
0.00149346
0.00101063
0.000671333
0.000436905
0.000278016
0.000172731
0.000104893
6.28221e-05
3.83213e-05
2.59175e-05
1.94184e-05
1.43246e-05
1.00733e-05
6.68348e-06
4.15533e-06
2.41652e-06
1.32017e-06
6.83333e-07
3.38247e-07
1.6254e-07
7.63122e-08
3.51293e-08
1.58968e-08
7.08624e-09
3.11722e-09
1.35538e-09
5.83282e-10
2.48653e-10
1.04973e-10
4.37531e-11
1.78336e-11
6.91957e-12
2.34105e-12
4.1306e-13
0.999997
0.999986
0.999969
0.999939
0.999889
0.999807
0.999672
0.999453
0.999101
0.998543
0.997673
0.996339
0.994333
0.991384
0.987157
0.981263
0.973294
0.962859
0.949644
0.933449
0.914216
0.892027
0.867081
0.839668
0.810134
0.778853
0.74621
0.712579
0.678319
0.64376
0.609201
0.574909
0.541115
0.508013
0.475765
0.444501
0.414321
0.385304
0.357503
0.330952
0.305664
0.281641
0.258871
0.237334
0.217
0.197834
0.179797
0.162847
0.146937
0.132023
0.118059
0.104999
0.0927978
0.0814128
0.0708026
0.0609285
0.0517543
0.0432471
0.0353778
0.0283432
0.0219062
0.0158809
0.0104704
0.00570847
0.00288158
0.00199471
0.00136178
0.000915064
0.000603934
0.000390625
0.000247101
0.000152708
9.2413e-05
5.54689e-05
3.44844e-05
2.4372e-05
1.8337e-05
1.33921e-05
9.29946e-06
6.08401e-06
3.72881e-06
2.14034e-06
1.15701e-06
5.94298e-07
2.92678e-07
1.40313e-07
6.57895e-08
3.02652e-08
1.36927e-08
6.10429e-09
2.68607e-09
1.1684e-09
5.03055e-10
2.14549e-10
9.06084e-11
3.77728e-11
1.53963e-11
5.97511e-12
2.02334e-12
3.57169e-13
0.999997
0.999986
0.999968
0.999938
0.999887
0.999804
0.999667
0.999445
0.999088
0.998522
0.997639
0.996285
0.994251
0.991261
0.986978
0.981009
0.972943
0.962392
0.94904
0.932693
0.913296
0.890936
0.865817
0.838232
0.80853
0.777087
0.744288
0.710511
0.676114
0.641429
0.606755
0.572359
0.538473
0.505292
0.472977
0.441657
0.411434
0.382386
0.354566
0.328006
0.302721
0.278712
0.255966
0.234462
0.21417
0.195054
0.177075
0.160188
0.144348
0.12951
0.115626
0.10265
0.0905377
0.0792446
0.0687301
0.0589553
0.0498847
0.0414863
0.0337381
0.0268182
0.0204556
0.0144814
0.0090976
0.00434131
0.00267977
0.00184547
0.00125355
0.00083813
0.000550399
0.000354228
0.000222999
0.000137245
8.29001e-05
4.99961e-05
3.17808e-05
2.31436e-05
1.73978e-05
1.25913e-05
8.6451e-06
5.58497e-06
3.37961e-06
1.91779e-06
1.0272e-06
5.24037e-07
2.57114e-07
1.22973e-07
5.75726e-08
2.64612e-08
1.19658e-08
5.33337e-09
2.34688e-09
1.02102e-09
4.39702e-10
1.87574e-10
7.92294e-11
3.303e-11
1.34616e-11
5.2252e-12
1.77124e-12
3.12831e-13
0.999997
0.999986
0.999968
0.999937
0.999886
0.999802
0.999663
0.999437
0.999075
0.998502
0.997607
0.996235
0.994174
0.991145
0.986808
0.980767
0.97261
0.961947
0.948466
0.931974
0.912421
0.889899
0.864616
0.836868
0.807006
0.77541
0.742466
0.708552
0.674028
0.639226
0.604447
0.569958
0.53599
0.502738
0.470365
0.438998
0.40874
0.379668
0.351835
0.325273
0.299996
0.276004
0.253285
0.231816
0.211567
0.192502
0.174579
0.157755
0.141984
0.127219
0.113412
0.100517
0.0884883
0.0772829
0.0668595
0.0571801
0.0482103
0.0399209
0.0323088
0.0255036
0.0190912
0.0132695
0.0080434
0.00350391
0.00244348
0.00168294
0.00114276
0.000763456
0.000500753
0.000321778
0.000202242
0.000124353
7.52464e-05
4.58318e-05
2.99783e-05
2.22758e-05
1.66747e-05
1.19605e-05
8.12469e-06
5.18776e-06
3.1031e-06
1.74291e-06
9.25905e-07
4.69472e-07
2.29563e-07
1.0954e-07
5.1201e-08
2.35064e-08
1.06216e-08
4.73201e-09
2.0817e-09
9.05541e-10
3.89957e-10
1.66352e-10
7.02624e-11
2.92873e-11
1.19342e-11
4.63279e-12
1.57224e-12
2.77845e-13
0.999997
0.999986
0.999967
0.999936
0.999885
0.999799
0.999659
0.99943
0.999064
0.998483
0.997577
0.996188
0.994101
0.991037
0.986648
0.980541
0.972298
0.961531
0.947928
0.9313
0.911602
0.888929
0.863493
0.835593
0.805584
0.773847
0.740769
0.70673
0.67209
0.637183
0.60231
0.567737
0.533696
0.500384
0.46796
0.436554
0.406267
0.377178
0.349337
0.322777
0.297512
0.27354
0.25085
0.229417
0.209211
0.190194
0.172327
0.155562
0.139856
0.125158
0.111423
0.0986023
0.0866508
0.0755244
0.0651815
0.0555838
0.0466961
0.0384876
0.031053
0.0243427
0.0180377
0.0123709
0.00736019
0.00316885
0.00222493
0.0015392
0.00104807
0.000701328
0.000460358
0.000295888
0.000185992
0.000114466
6.95474e-05
4.29178e-05
2.8966e-05
2.17631e-05
1.61891e-05
1.1507e-05
7.73568e-06
4.88502e-06
2.89086e-06
1.60858e-06
8.48174e-07
4.27626e-07
2.08413e-07
9.92098e-08
4.62901e-08
2.12235e-08
9.58052e-09
4.26506e-09
1.87528e-09
8.15443e-10
3.51061e-10
1.49726e-10
6.32251e-11
2.63457e-11
1.07326e-11
4.16651e-12
1.41575e-12
2.50349e-13
0.999997
0.999986
0.999967
0.999936
0.999883
0.999797
0.999655
0.999424
0.999053
0.998466
0.99755
0.996145
0.994035
0.990937
0.986502
0.980333
0.972011
0.961148
0.947434
0.930682
0.91085
0.888039
0.862463
0.834426
0.804283
0.772417
0.739219
0.705067
0.670324
0.635323
0.600366
0.56572
0.531617
0.498252
0.465786
0.434347
0.404038
0.374936
0.347092
0.320537
0.295285
0.271335
0.248673
0.227275
0.20711
0.188141
0.170324
0.153616
0.137968
0.123334
0.109663
0.0969103
0.0850279
0.073972
0.0637008
0.0541755
0.0453614
0.0372279
0.0299452
0.0233167
0.0171005
0.0115311
0.00663595
0.00302557
0.00211112
0.00145491
0.000988285
0.000660252
0.000432899
0.000278022
0.000174718
0.00010764
6.56974e-05
4.10917e-05
2.86073e-05
2.15614e-05
1.59174e-05
1.12111e-05
7.46155e-06
4.66325e-06
2.73257e-06
1.50762e-06
7.89539e-07
3.95976e-07
1.9237e-07
9.13497e-08
4.25413e-08
1.94752e-08
8.78069e-09
3.90522e-09
1.71576e-09
7.45619e-10
3.20841e-10
1.36778e-10
5.77333e-11
2.40461e-11
9.79184e-12
3.80129e-12
1.29333e-12
2.28846e-13
0.999997
0.999985
0.999967
0.999935
0.999882
0.999795
0.999652
0.999418
0.999044
0.998451
0.997525
0.996106
0.993975
0.990846
0.98637
0.980145
0.971753
0.960803
0.946989
0.930125
0.910175
0.88724
0.86154
0.833379
0.803117
0.771138
0.737833
0.703582
0.668749
0.633666
0.598636
0.563927
0.529769
0.49636
0.463859
0.432394
0.402068
0.372957
0.345112
0.318565
0.293327
0.269398
0.246764
0.225399
0.205273
0.186346
0.168577
0.151919
0.136325
0.121747
0.108135
0.0954418
0.0836208
0.0726272
0.0624189
0.052957
0.0442062
0.0361357
0.0289019
0.0223254
0.0161394
0.0105828
0.00566324
0.00288323
0.00201633
0.00139119
0.000945514
0.000631819
0.000414296
0.000266113
0.000167319
0.000103245
6.32976e-05
4.00468e-05
2.84693e-05
2.14882e-05
1.57688e-05
1.10191e-05
7.2704e-06
4.50302e-06
2.61619e-06
1.43277e-06
7.45867e-07
3.72318e-07
1.80338e-07
8.5433e-08
3.97092e-08
1.81495e-08
8.17208e-09
3.63048e-09
1.59355e-09
6.91963e-10
2.97551e-10
1.26773e-10
5.34794e-11
2.22611e-11
9.06046e-12
3.51712e-12
1.19822e-12
2.12142e-13
0.999997
0.999985
0.999966
0.999934
0.999881
0.999793
0.999649
0.999413
0.999036
0.998437
0.997503
0.996072
0.993922
0.990767
0.986254
0.97998
0.971526
0.960501
0.946598
0.929638
0.909583
0.886541
0.860732
0.832466
0.8021
0.770023
0.736626
0.70229
0.667378
0.632225
0.597133
0.562371
0.528168
0.494722
0.462192
0.430706
0.400367
0.37125
0.343406
0.316867
0.291644
0.267735
0.245126
0.223792
0.2037
0.184812
0.167085
0.150472
0.134925
0.120396
0.106836
0.094195
0.0824273
0.0714877
0.0613338
0.0519263
0.0432297
0.0352132
0.028005
0.0214828
0.0153411
0.00981312
0.00491675
0.00280624
0.0019604
0.0013519
0.000918663
0.000613936
0.000402702
0.000258825
0.000162916
0.00010075
6.20648e-05
3.96824e-05
2.86045e-05
2.15664e-05
1.57368e-05
1.09238e-05
7.15132e-06
4.39417e-06
2.53405e-06
1.3789e-06
7.14087e-07
3.54972e-07
1.71465e-07
8.10477e-08
3.75999e-08
1.71578e-08
7.71479e-09
3.42321e-09
1.50101e-09
6.51187e-10
2.79793e-10
1.19121e-10
5.02174e-11
2.08891e-11
8.49723e-12
3.29809e-12
1.12505e-12
1.99289e-13
0.999997
0.999985
0.999966
0.999934
0.99988
0.999792
0.999646
0.999409
0.999029
0.998425
0.997485
0.996043
0.993877
0.9907
0.986156
0.97984
0.971333
0.960244
0.946267
0.929224
0.909082
0.885949
0.86005
0.831693
0.801242
0.769082
0.735607
0.7012
0.666223
0.631012
0.595869
0.561063
0.526823
0.493347
0.460794
0.429292
0.398942
0.369821
0.34198
0.315449
0.290239
0.266348
0.243762
0.222454
0.202393
0.183538
0.165847
0.149273
0.133767
0.11928
0.105763
0.0931669
0.0814443
0.07055
0.0604411
0.0510782
0.0424261
0.034454
0.0272893
0.0208077
0.014707
0.00922154
0.00440789
0.00273511
0.00191216
0.00132022
0.000898399
0.000601324
0.000395097
0.000254427
0.000160535
9.96143e-05
6.16983e-05
3.9834e-05
2.89966e-05
2.18061e-05
1.58225e-05
1.09133e-05
7.09723e-06
4.33013e-06
2.48074e-06
1.34232e-06
6.91936e-07
3.42674e-07
1.65103e-07
7.78744e-08
3.60618e-08
1.64298e-08
7.37718e-09
3.2694e-09
1.43202e-09
6.20663e-10
2.6645e-10
1.13353e-10
4.77508e-11
1.98489e-11
8.06939e-12
3.13156e-12
1.06953e-12
1.89531e-13
0.999997
0.999985
0.999966
0.999934
0.99988
0.99979
0.999644
0.999406
0.999023
0.998416
0.997469
0.996019
0.993841
0.990645
0.986075
0.979726
0.971176
0.960035
0.945999
0.92889
0.908677
0.88547
0.859498
0.831069
0.800548
0.768323
0.734786
0.700322
0.665293
0.630036
0.594852
0.56001
0.525741
0.492241
0.45967
0.428155
0.397799
0.368676
0.340837
0.314313
0.289114
0.265239
0.242671
0.221386
0.20135
0.182523
0.164862
0.148319
0.132847
0.118395
0.104914
0.0923548
0.0806698
0.0698136
0.0597438
0.050421
0.0418081
0.0338726
0.0267496
0.0202983
0.0142234
0.0087565
0.00397083
0.00263212
0.00185282
0.0012863
0.000879392
0.000591024
0.000389807
0.000251945
0.000159571
9.94537e-05
6.1979e-05
4.03843e-05
2.95861e-05
2.21794e-05
1.60096e-05
1.09773e-05
7.09414e-06
4.3024e-06
2.45069e-06
1.31948e-06
6.7739e-07
3.34343e-07
1.60707e-07
7.5649e-08
3.49708e-08
1.59087e-08
7.13376e-09
3.15781e-09
1.3817e-09
5.98302e-10
2.56637e-10
1.09096e-10
4.59253e-11
1.90771e-11
7.75135e-12
3.00767e-12
1.02832e-12
1.82283e-13
0.999997
0.999985
0.999966
0.999933
0.999879
0.99979
0.999642
0.999403
0.999018
0.998409
0.997458
0.996001
0.993813
0.990603
0.986015
0.97964
0.971058
0.959878
0.945796
0.928637
0.908371
0.885109
0.859082
0.830599
0.800026
0.767751
0.734168
0.69966
0.664593
0.6293
0.594086
0.559218
0.524927
0.49141
0.458825
0.427301
0.396939
0.367814
0.339978
0.31346
0.28827
0.264407
0.241854
0.220586
0.200569
0.181764
0.164126
0.147608
0.132162
0.117737
0.104284
0.0917543
0.0800993
0.0692738
0.0592348
0.0499412
0.0413564
0.0334481
0.0263814
0.0199592
0.0139178
0.00848951
0.00376505
0.0025957
0.00182991
0.00127298
0.000872366
0.00058786
0.000388847
0.000252129
0.000160271
0.000100326
6.28691e-05
4.1258e-05
3.03235e-05
2.26495e-05
1.62685e-05
1.10954e-05
7.13049e-06
4.30069e-06
2.43779e-06
1.30692e-06
6.68543e-07
3.29004e-07
1.57806e-07
7.41513e-08
3.42264e-08
1.55496e-08
6.96466e-09
3.07983e-09
1.34637e-09
5.82535e-10
2.49695e-10
1.06076e-10
4.46271e-11
1.85272e-11
7.52445e-12
2.91924e-12
9.98971e-13
1.77112e-13
0.999997
0.999985
0.999966
0.999933
0.999879
0.999789
0.999641
0.999401
0.999016
0.998404
0.99745
0.995989
0.993795
0.990576
0.985974
0.979583
0.970979
0.959773
0.945661
0.928468
0.908167
0.884869
0.858805
0.830286
0.799678
0.767369
0.733755
0.699219
0.664125
0.628809
0.593574
0.558688
0.524383
0.490854
0.45826
0.42673
0.396364
0.367239
0.339404
0.31289
0.287707
0.263852
0.241309
0.220053
0.20005
0.181259
0.163637
0.147137
0.131709
0.117303
0.10387
0.0913602
0.0797259
0.0689212
0.0589024
0.0496289
0.0410641
0.0331744
0.0261662
0.0197532
0.013742
0.0083493
0.003674
0.00258865
0.00182714
0.0012731
0.000874144
0.000590386
0.000391517
0.000254595
0.00016237
0.000102025
6.42146e-05
4.2337e-05
3.1118e-05
2.31458e-05
1.65474e-05
1.12327e-05
7.18526e-06
4.31453e-06
2.43583e-06
1.30138e-06
6.63791e-07
3.25896e-07
1.56055e-07
7.32288e-08
3.37619e-08
1.53235e-08
6.85753e-09
3.03016e-09
1.32377e-09
5.72413e-10
2.45225e-10
1.04127e-10
4.37877e-11
1.81711e-11
7.37743e-12
2.86195e-12
9.80006e-13
1.73759e-13
0.999997
0.999985
0.999966
0.999933
0.999879
0.999789
0.999641
0.9994
0.999014
0.998402
0.997447
0.995983
0.993786
0.990562
0.985955
0.979555
0.970941
0.959723
0.945597
0.928388
0.908069
0.884754
0.858671
0.830135
0.799509
0.767184
0.733554
0.699004
0.663896
0.628568
0.593323
0.558428
0.524115
0.49058
0.457981
0.426448
0.39608
0.366954
0.33912
0.312607
0.287427
0.263576
0.241039
0.219788
0.199791
0.181008
0.163394
0.146903
0.131484
0.117088
0.103665
0.0911666
0.0795442
0.0687528
0.0587496
0.0494953
0.0409549
0.0330984
0.0261392
0.0195778
0.0136212
0.00826767
0.00362516
0.00258186
0.00182727
0.00127624
0.000878265
0.000594466
0.000395097
0.000257519
0.000164643
0.000103729
6.54581e-05
4.32241e-05
3.17033e-05
2.34942e-05
1.67384e-05
1.13267e-05
7.22447e-06
4.32672e-06
2.43707e-06
1.2995e-06
6.61736e-07
3.24452e-07
1.55232e-07
7.27925e-08
3.35415e-08
1.52159e-08
6.80629e-09
3.00625e-09
1.31283e-09
5.67493e-10
2.43046e-10
1.03174e-10
4.33765e-11
1.79965e-11
7.30522e-12
2.83381e-12
9.70708e-13
1.72099e-13
0.999997
0.999985
0.999966
0.999933
0.999879
0.999789
0.999641
0.9994
0.999014
0.998402
0.997447
0.995983
0.993786
0.990562
0.985954
0.979555
0.970941
0.959722
0.945596
0.928387
0.908068
0.884752
0.858669
0.830133
0.799507
0.767182
0.733551
0.699001
0.663893
0.628565
0.593319
0.558424
0.524112
0.490576
0.457978
0.426444
0.396076
0.366951
0.339117
0.312604
0.287424
0.263573
0.241036
0.219785
0.199789
0.181006
0.163392
0.1469
0.131482
0.117086
0.103663
0.0911641
0.0795415
0.0687498
0.0587463
0.0494921
0.0409527
0.0330996
0.0261467
0.0195843
0.0136213
0.00826617
0.00362398
0.00258094
0.00182641
0.00127563
0.000877881
0.000594248
0.000394982
0.000257463
0.000164618
0.000103718
6.5454e-05
4.32226e-05
3.17021e-05
2.34929e-05
1.67373e-05
1.13259e-05
7.224e-06
4.32647e-06
2.43694e-06
1.29943e-06
6.617e-07
3.24436e-07
1.55225e-07
7.27897e-08
3.35403e-08
1.52154e-08
6.80609e-09
3.00617e-09
1.31279e-09
5.67476e-10
2.43038e-10
1.0317e-10
4.33747e-11
1.79957e-11
7.30486e-12
2.8337e-12
9.70711e-13
1.72072e-13
0.999997
0.999985
0.999966
0.999933
0.999879
0.999789
0.999641
0.999401
0.999015
0.998404
0.99745
0.995989
0.993794
0.990575
0.985973
0.979582
0.970977
0.959771
0.945658
0.928465
0.908163
0.884864
0.858799
0.83028
0.799671
0.767362
0.733747
0.69921
0.664116
0.628799
0.593564
0.558678
0.524373
0.490844
0.45825
0.42672
0.396354
0.367229
0.339395
0.312881
0.287698
0.263843
0.241301
0.220045
0.200042
0.181251
0.16363
0.14713
0.131702
0.117297
0.103865
0.0913552
0.0797212
0.0689166
0.0588976
0.0496237
0.0410589
0.0331712
0.02617
0.0197568
0.0137394
0.00834636
0.00367254
0.00258796
0.00182629
0.00127247
0.000873787
0.00059022
0.000391459
0.000254584
0.000162375
0.000102033
6.42199e-05
4.23414e-05
3.11212e-05
2.31469e-05
1.65472e-05
1.1232e-05
7.1846e-06
4.31398e-06
2.4354e-06
1.30114e-06
6.63646e-07
3.25819e-07
1.56017e-07
7.32105e-08
3.37534e-08
1.53197e-08
6.85582e-09
3.02941e-09
1.32343e-09
5.72265e-10
2.4516e-10
1.04099e-10
4.37754e-11
1.81659e-11
7.37527e-12
2.86122e-12
9.79885e-13
1.73658e-13
0.999997
0.999985
0.999966
0.999933
0.999879
0.99979
0.999642
0.999403
0.999018
0.998409
0.997458
0.996001
0.993813
0.990602
0.986013
0.979638
0.971055
0.959874
0.945791
0.928631
0.908363
0.885101
0.859072
0.830588
0.800013
0.767737
0.734153
0.699645
0.664576
0.629283
0.594069
0.5592
0.52491
0.491392
0.458808
0.427284
0.396922
0.367798
0.339962
0.313444
0.288255
0.264392
0.24184
0.220572
0.200556
0.181751
0.164113
0.147596
0.132151
0.117727
0.104275
0.0917458
0.0800919
0.0692675
0.0592289
0.0499349
0.0413481
0.0334379
0.0263739
0.0199524
0.0139115
0.00848521
0.00376391
0.00259671
0.00183058
0.00127347
0.00087273
0.000588129
0.000389039
0.000252261
0.000160355
0.000100377
6.28983e-05
4.12772e-05
3.0337e-05
2.26567e-05
1.62714e-05
1.1096e-05
7.1301e-06
4.29996e-06
2.43719e-06
1.3065e-06
6.68284e-07
3.28864e-07
1.57736e-07
7.41177e-08
3.42106e-08
1.55424e-08
6.96141e-09
3.07837e-09
1.34572e-09
5.82247e-10
2.49569e-10
1.06021e-10
4.46032e-11
1.85169e-11
7.52026e-12
2.9178e-12
9.98682e-13
1.76932e-13
0.999997
0.999985
0.999966
0.999934
0.99988
0.99979
0.999644
0.999406
0.999023
0.998416
0.997469
0.996018
0.99384
0.990644
0.986073
0.979723
0.971172
0.96003
0.945992
0.928881
0.908666
0.885458
0.859484
0.831054
0.800531
0.768304
0.734765
0.7003
0.66527
0.630012
0.594828
0.559986
0.525717
0.492217
0.459646
0.428131
0.397775
0.368652
0.340814
0.31429
0.289092
0.265218
0.242651
0.221366
0.20133
0.182504
0.164844
0.148302
0.132831
0.11838
0.1049
0.0923415
0.0806576
0.0698029
0.0597348
0.0504136
0.041802
0.0338658
0.0267446
0.0202935
0.0142185
0.00875185
0.00396801
0.00263223
0.00185246
0.00128587
0.000879041
0.000590786
0.000389663
0.000251865
0.00015953
9.94348e-05
6.19716e-05
4.03849e-05
2.95912e-05
2.21828e-05
1.60106e-05
1.09769e-05
7.09287e-06
4.30115e-06
2.44969e-06
1.31879e-06
6.76989e-07
3.34129e-07
1.60599e-07
7.55961e-08
3.49456e-08
1.5897e-08
7.12838e-09
3.15537e-09
1.38061e-09
5.97815e-10
2.56423e-10
1.09003e-10
4.58849e-11
1.90598e-11
7.74428e-12
3.00516e-12
1.02773e-12
1.82006e-13
0.999997
0.999985
0.999966
0.999934
0.99988
0.999792
0.999646
0.999409
0.999028
0.998425
0.997484
0.996042
0.993876
0.990698
0.986153
0.979836
0.971328
0.960237
0.946258
0.929213
0.909069
0.885933
0.860031
0.831673
0.801219
0.769057
0.735581
0.701172
0.666194
0.630982
0.595838
0.561031
0.526791
0.493315
0.460762
0.42926
0.398911
0.369791
0.34195
0.315419
0.29021
0.266321
0.243735
0.222428
0.202368
0.183514
0.165824
0.149251
0.133746
0.11926
0.105744
0.0931493
0.0814279
0.0705348
0.0604274
0.0510663
0.0424162
0.0344456
0.0272831
0.0208023
0.0147019
0.00921627
0.0044036
0.0027345
0.00191084
0.00131892
0.000897425
0.000600689
0.000394723
0.000254224
0.000160431
9.95641e-05
6.16758e-05
3.98279e-05
2.8998e-05
2.18066e-05
1.58213e-05
1.0911e-05
7.09488e-06
4.32811e-06
2.47921e-06
1.34136e-06
6.91389e-07
3.42379e-07
1.64952e-07
7.77994e-08
3.60256e-08
1.64127e-08
7.36928e-09
3.26579e-09
1.43039e-09
6.19936e-10
2.66129e-10
1.13213e-10
4.76903e-11
1.9823e-11
8.05877e-12
3.12773e-12
1.06855e-12
1.89147e-13
0.999997
0.999985
0.999966
0.999934
0.999881
0.999793
0.999648
0.999413
0.999035
0.998437
0.997502
0.996071
0.993921
0.990765
0.986251
0.979976
0.971519
0.960492
0.946587
0.929624
0.909566
0.886521
0.86071
0.83244
0.802072
0.769993
0.736593
0.702255
0.667342
0.632188
0.597095
0.562332
0.528129
0.494683
0.462153
0.430667
0.400328
0.371212
0.343369
0.316831
0.291609
0.267701
0.245093
0.22376
0.203669
0.184782
0.167056
0.150445
0.1349
0.120372
0.106812
0.0941728
0.0824062
0.0714676
0.0613145
0.0519076
0.0432114
0.0351952
0.0279885
0.0214676
0.0153272
0.0098009
0.00490856
0.00280703
0.00196082
0.00135205
0.000918654
0.00061387
0.000402634
0.000258774
0.000162882
0.00010073
6.20546e-05
3.96816e-05
2.86087e-05
2.15666e-05
1.57337e-05
1.09199e-05
7.14752e-06
4.39107e-06
2.53195e-06
1.37762e-06
7.13355e-07
3.54577e-07
1.71261e-07
8.0946e-08
3.75505e-08
1.71343e-08
7.70385e-09
3.41818e-09
1.49873e-09
6.50167e-10
2.79342e-10
1.18924e-10
5.0132e-11
2.08526e-11
8.48225e-12
3.29262e-12
1.12355e-12
1.98783e-13
0.999997
0.999985
0.999967
0.999935
0.999882
0.999795
0.999651
0.999418
0.999044
0.99845
0.997524
0.996105
0.993973
0.990844
0.986366
0.980139
0.971745
0.960793
0.946975
0.930108
0.910155
0.887216
0.861513
0.833349
0.803084
0.771102
0.737794
0.703541
0.668706
0.633621
0.59859
0.56388
0.529723
0.496313
0.463812
0.432348
0.402022
0.372912
0.345068
0.318521
0.293285
0.269358
0.246724
0.225361
0.205236
0.186311
0.168543
0.151887
0.136295
0.121718
0.108107
0.0954154
0.0835956
0.0726032
0.0623961
0.0529352
0.0441855
0.0361163
0.0288825
0.0223076
0.0161233
0.0105677
0.00564677
0.00288214
0.00201617
0.00139119
0.000945458
0.000631715
0.000414189
0.000266027
0.000167258
0.000103206
6.32736e-05
4.00354e-05
2.84653e-05
2.14806e-05
1.57599e-05
1.10108e-05
7.26372e-06
4.49841e-06
2.61327e-06
1.43104e-06
7.44893e-07
3.71799e-07
1.80069e-07
8.52988e-08
3.96436e-08
1.81182e-08
8.15735e-09
3.62367e-09
1.59045e-09
6.90571e-10
2.96934e-10
1.26503e-10
5.33625e-11
2.22112e-11
9.03996e-12
3.50953e-12
1.19604e-12
2.11495e-13
0.999997
0.999986
0.999967
0.999936
0.999883
0.999797
0.999655
0.999424
0.999053
0.998465
0.997549
0.996143
0.994033
0.990933
0.986497
0.980326
0.972002
0.961136
0.947418
0.930662
0.910827
0.888011
0.862432
0.83439
0.804244
0.772375
0.739173
0.70502
0.670274
0.635272
0.600313
0.565666
0.531562
0.498197
0.465731
0.434293
0.403985
0.374883
0.34704
0.320487
0.295237
0.271288
0.248627
0.227231
0.207068
0.1881
0.170285
0.153579
0.137933
0.1233
0.109631
0.0968797
0.0849989
0.0739446
0.063675
0.0541515
0.0453394
0.0372088
0.0299272
0.0233006
0.017087
0.011519
0.00661979
0.00302237
0.00210959
0.00145383
0.000987312
0.000659415
0.000432252
0.000277566
0.000174421
0.00010746
6.55953e-05
4.10406e-05
2.85893e-05
2.15471e-05
1.59038e-05
1.11998e-05
7.45337e-06
4.65775e-06
2.72908e-06
1.50553e-06
7.88346e-07
3.9533e-07
1.92031e-07
9.11769e-08
4.24558e-08
1.94338e-08
8.7611e-09
3.89611e-09
1.71159e-09
7.43743e-10
3.20008e-10
1.36413e-10
5.75756e-11
2.39789e-11
9.76423e-12
3.79096e-12
1.29024e-12
2.28027e-13
0.999997
0.999986
0.999967
0.999936
0.999885
0.999799
0.999659
0.99943
0.999064
0.998482
0.997576
0.996186
0.994099
0.991033
0.986643
0.980533
0.972288
0.961517
0.94791
0.931278
0.911575
0.888897
0.863456
0.835553
0.805539
0.773798
0.740717
0.706675
0.672033
0.637124
0.602249
0.567676
0.533634
0.500321
0.467898
0.436492
0.406206
0.377118
0.349278
0.32272
0.297456
0.273486
0.250797
0.229366
0.209162
0.190148
0.172282
0.15552
0.139815
0.12512
0.111386
0.0985676
0.0866179
0.0754931
0.0651519
0.0555557
0.0466699
0.038464
0.0310329
0.0243257
0.0180241
0.01236
0.00734831
0.00316381
0.00222307
0.00153822
0.00104739
0.000700783
0.000459926
0.000295565
0.000185764
0.000114315
6.94525e-05
4.28632e-05
2.89432e-05
2.17503e-05
1.61778e-05
1.14975e-05
7.72834e-06
4.87966e-06
2.88719e-06
1.60624e-06
8.46772e-07
4.26837e-07
2.07985e-07
9.89874e-08
4.61783e-08
2.11689e-08
9.55448e-09
4.2529e-09
1.86971e-09
8.12931e-10
3.49946e-10
1.49238e-10
6.30142e-11
2.6256e-11
1.06957e-11
4.1526e-12
1.41146e-12
2.49314e-13
0.999997
0.999986
0.999968
0.999937
0.999886
0.999801
0.999663