/*--------------------------------*- C++ -*----------------------------------*\
  =========                 |
  \\      /  F ield         | OpenFOAM: The Open Source CFD Toolbox
   \\    /   O peration     | Website:  https://openfoam.org
    \\  /    A nd           | Version:  8
     \\/     M anipulation  |
\*---------------------------------------------------------------------------*/
FoamFile
{
    version     2.0;
    format      ascii;
    class       volScalarField;
    location    "200/fluid";
    object      CO2;
}
// * * * * * * * * * * * * * * * * * * * * * * * * * * * * * * * * * * * * * //

dimensions      [0 0 0 0 0 0 0];

internalField   nonuniform List<scalar> 
4000
(
3.86219e-07
1.68646e-06
3.86718e-06
7.50906e-06
1.35604e-05
2.35548e-05
3.99429e-05
6.65874e-05
0.000109478
0.000177725
0.000284868
0.000450473
0.000701865
0.00107563
0.00161822
0.00238488
0.0034361
0.00483145
0.00662168
0.00884135
0.011504
0.0146013
0.0181059
0.0219761
0.026161
0.0306052
0.0352525
0.0400483
0.044941
0.0498837
0.0548338
0.0597542
0.0646128
0.0693824
0.0740406
0.0785695
0.0829549
0.087186
0.0912549
0.0951567
0.0988887
0.10245
0.105841
0.109064
0.112122
0.115017
0.117754
0.120337
0.122769
0.125055
0.127197
0.129199
0.131062
0.132785
0.134369
0.135809
0.1371
0.138229
0.139184
0.139941
0.140469
0.140721
0.140648
0.140162
0.139141
0.137425
0.133357
0.122808
0.112129
0.10147
0.0909531
0.0806788
0.0707335
0.0611916
0.0521203
0.0435827
0.0356416
0.0283774
0.0218236
0.0160842
0.011239
0.00735832
0.00446821
0.00250471
0.00130057
0.000631863
0.000294315
0.000133014
5.87722e-05
2.55256e-05
1.09403e-05
4.64091e-06
1.95254e-06
8.15727e-07
3.38348e-07
1.38921e-07
5.59216e-08
2.14696e-08
7.19109e-09
1.26162e-09
3.93442e-07
1.71907e-06
3.94644e-06
7.67463e-06
1.38837e-05
2.416e-05
4.10391e-05
6.85142e-05
0.000112765
0.000183159
0.000293559
0.000463886
0.000721782
0.001104
0.00165689
0.00243521
0.00349856
0.00490532
0.00670516
0.0089319
0.011599
0.0146987
0.0182046
0.022076
0.0262631
0.0307111
0.035364
0.0401672
0.045069
0.0500216
0.0549822
0.0599132
0.064782
0.069561
0.0742277
0.0787639
0.0831555
0.0873915
0.0914639
0.0953679
0.0991009
0.102662
0.106052
0.109273
0.112328
0.11522
0.117953
0.120531
0.122957
0.125237
0.127373
0.129368
0.131224
0.13294
0.134516
0.135948
0.137229
0.138351
0.139298
0.14005
0.140578
0.140838
0.140785
0.140339
0.139392
0.137775
0.131892
0.121248
0.110488
0.0997607
0.0891874
0.0788694
0.0688929
0.0593335
0.0502608
0.0417416
0.0338592
0.0266504
0.0202152
0.0146412
0.0100129
0.00639376
0.00378247
0.00207194
0.00105887
0.000511422
0.000238702
0.00010858
4.8407e-05
2.12344e-05
9.19251e-06
3.93659e-06
1.67075e-06
7.03596e-07
2.93983e-07
1.21523e-07
4.92211e-08
1.89994e-08
6.39035e-09
1.12376e-09
4.04255e-07
1.767e-06
4.05936e-06
7.9013e-06
1.43071e-05
2.49177e-05
4.23525e-05
7.07289e-05
0.000116403
0.000188979
0.00030262
0.000477597
0.000741915
0.00113264
0.00169631
0.0024876
0.00356573
0.00498834
0.00680413
0.00904599
0.0117267
0.0148383
0.0183547
0.0222356
0.0264319
0.0308896
0.0355533
0.0403684
0.0452832
0.0502498
0.0552252
0.0601711
0.0650545
0.0698476
0.0745274
0.0790754
0.0834774
0.087722
0.0918012
0.0957103
0.0994465
0.103009
0.106399
0.109619
0.11267
0.115558
0.118285
0.120856
0.123275
0.125546
0.127672
0.129656
0.1315
0.133203
0.134765
0.136181
0.137445
0.138546
0.139471
0.1402
0.140704
0.140947
0.140896
0.140494
0.13968
0.138396
0.129476
0.118691
0.10783
0.0970358
0.0864276
0.0761047
0.0661529
0.0566489
0.0476641
0.0392685
0.0315704
0.0245669
0.0183874
0.013114
0.00881858
0.00553759
0.00322988
0.0017529
0.00089251
0.000431519
0.000201982
9.2192e-05
4.12392e-05
1.81436e-05
7.87319e-06
3.37757e-06
1.43522e-06
6.04879e-07
2.52863e-07
1.04566e-07
4.23708e-08
1.6364e-08
5.50768e-09
9.6905e-10
4.14674e-07
1.81263e-06
4.16464e-06
8.10714e-06
1.46808e-05
2.55676e-05
4.34496e-05
7.25364e-05
0.000119315
0.000193574
0.000309715
0.000488311
0.000757723
0.00115539
0.00172816
0.00253092
0.00362285
0.00506131
0.00689453
0.00915479
0.0118543
0.0149848
0.0185197
0.022419
0.0266335
0.0311093
0.0357911
0.0406244
0.0455575
0.0505425
0.055536
0.0604997
0.0654003
0.0702097
0.0749046
0.0794664
0.0838803
0.0881352
0.0922228
0.0961382
0.0998788
0.103444
0.106834
0.110052
0.113101
0.115983
0.118704
0.121267
0.123677
0.125937
0.128051
0.130022
0.13185
0.133535
0.135077
0.136469
0.137705
0.138772
0.139653
0.140324
0.140746
0.140879
0.140667
0.140029
0.138874
0.137126
0.126413
0.115504
0.104571
0.0937492
0.0831545
0.0728834
0.0630203
0.0536414
0.0448183
0.0366216
0.0291515
0.0224211
0.0165494
0.0116106
0.00766342
0.00471911
0.00270286
0.00144566
0.000728899
0.00035114
0.000164254
7.50684e-05
3.36631e-05
1.48579e-05
6.47054e-06
2.78614e-06
1.18819e-06
5.02442e-07
2.10664e-07
8.73364e-08
3.54626e-08
1.37184e-08
4.62385e-09
8.14167e-10
4.24327e-07
1.85482e-06
4.26163e-06
8.29614e-06
1.50233e-05
2.61637e-05
4.44595e-05
7.42115e-05
0.000122042
0.000197928
0.000316532
0.000498759
0.000773368
0.00117822
0.00176057
0.00257557
0.00368245
0.00513839
0.00699113
0.00927235
0.0119937
0.0151462
0.0187033
0.0226246
0.0268609
0.0313584
0.0360616
0.0409162
0.0458704
0.050876
0.0558897
0.0608728
0.0657918
0.0706185
0.0753292
0.0799052
0.0843317
0.0885971
0.0926933
0.0966152
0.10036
0.103928
0.107319
0.110535
0.11358
0.116457
0.11917
0.121725
0.124124
0.126372
0.128472
0.130427
0.132237
0.133903
0.135421
0.136787
0.13799
0.139018
0.139849
0.140453
0.14078
0.140782
0.14036
0.139368
0.137574
0.133864
0.123012
0.11202
0.101053
0.0902434
0.0797034
0.0695269
0.0597965
0.0505869
0.0419691
0.0340182
0.0267903
0.0203672
0.0148265
0.0102355
0.00663733
0.00401591
0.00226528
0.00119819
0.000600099
0.000288517
0.000134959
6.17456e-05
2.7732e-05
1.22613e-05
5.34894e-06
2.3069e-06
9.85238e-07
4.17146e-07
1.75086e-07
7.26471e-08
2.95161e-08
1.14235e-08
3.85302e-09
6.78713e-10
4.33074e-07
1.893e-06
4.3492e-06
8.4663e-06
1.53308e-05
2.66977e-05
4.5363e-05
7.57098e-05
0.000124482
0.000201834
0.000322669
0.000508216
0.000787633
0.00119924
0.00179076
0.00261774
0.00373963
0.00521356
0.00708695
0.00939091
0.0121364
0.015314
0.0188963
0.0228428
0.027104
0.031626
0.0363532
0.0412313
0.0462081
0.0512357
0.0562703
0.0612732
0.0662108
0.0710546
0.0757809
0.0803707
0.0848091
0.0890844
0.0931886
0.0971165
0.100865
0.104435
0.107825
0.111039
0.11408
0.116951
0.119656
0.122201
0.124589
0.126824
0.128909
0.130846
0.132637
0.134281
0.135774
0.137111
0.138283
0.139273
0.140064
0.140625
0.14091
0.140887
0.140482
0.13961
0.138165
0.130372
0.119457
0.10844
0.0974852
0.0867278
0.0762773
0.0662261
0.0566546
0.0476355
0.0392376
0.0315616
0.0246055
0.0184844
0.0132672
0.00901102
0.00574084
0.00341347
0.00189653
0.000991706
0.000492919
0.000236263
0.000110395
5.0516e-05
2.27107e-05
1.00562e-05
4.39472e-06
1.89893e-06
8.12501e-07
3.44603e-07
1.44855e-07
6.01761e-08
2.44712e-08
9.47754e-09
3.19953e-09
5.63879e-10
4.41156e-07
1.92829e-06
4.4302e-06
8.6239e-06
1.56162e-05
2.71947e-05
4.62071e-05
7.71161e-05
0.000126786
0.000205544
0.00032854
0.000517329
0.000801481
0.0012198
0.00182049
0.00265953
0.00379663
0.00528892
0.00718351
0.009511
0.0122817
0.0154854
0.0190944
0.0230675
0.0273551
0.0319029
0.0366553
0.0415576
0.0465577
0.0516075
0.0566631
0.0616856
0.0666413
0.0715016
0.0762426
0.0808454
0.0852947
0.089579
0.0936901
0.0976229
0.101375
0.104945
0.108334
0.111545
0.11458
0.117444
0.120141
0.122675
0.125051
0.127271
0.12934
0.131259
0.133029
0.134649
0.136115
0.137419
0.138552
0.139496
0.14023
0.140718
0.140921
0.140796
0.140271
0.139276
0.137767
0.127035
0.116034
0.104985
0.0940503
0.0833571
0.0730107
0.0630994
0.0537
0.0448824
0.0367132
0.0292874
0.0226087
0.0167861
0.0118819
0.00794344
0.00497656
0.0029122
0.00159662
0.000826825
0.000408401
0.000195271
9.11541e-05
4.17097e-05
1.87614e-05
8.31454e-06
3.63739e-06
1.57346e-06
6.74002e-07
2.86162e-07
1.20398e-07
5.00498e-08
2.03622e-08
7.8897e-09
2.66555e-09
4.69984e-10
4.48687e-07
1.96118e-06
4.50572e-06
8.77094e-06
1.58827e-05
2.76594e-05
4.69977e-05
7.84362e-05
0.000128953
0.000209046
0.000334103
0.000525999
0.000814717
0.00123954
0.0018492
0.00270013
0.00385234
0.00536298
0.00727894
0.00963026
0.0124266
0.015657
0.0192932
0.0232936
0.027608
0.032182
0.0369598
0.0418864
0.0469097
0.0519813
0.0570573
0.0620986
0.0670715
0.0719471
0.0767017
0.081316
0.085775
0.090067
0.0941838
0.0981203
0.101874
0.105444
0.108831
0.112037
0.115067
0.117923
0.120611
0.123133
0.125496
0.127702
0.129753
0.131653
0.133402
0.134996
0.136433
0.137703
0.138793
0.139684
0.140346
0.14073
0.140791
0.140439
0.139542
0.137906
0.135013
0.123976
0.112832
0.101737
0.0908231
0.0802021
0.0699684
0.0602039
0.0509811
0.0423675
0.0344281
0.0272226
0.0208172
0.015281
0.010672
0.00702736
0.0043339
0.00249924
0.00135383
0.000694959
0.000341274
0.000162775
7.58974e-05
3.47179e-05
1.56202e-05
6.92665e-06
3.03274e-06
1.31315e-06
5.63044e-07
2.39272e-07
1.00748e-07
4.19047e-08
1.7054e-08
6.61055e-09
2.23533e-09
3.94333e-10
4.55762e-07
1.99209e-06
4.57674e-06
8.90935e-06
1.61339e-05
2.80982e-05
4.77458e-05
7.96883e-05
0.000131015
0.000212388
0.000339427
0.000534326
0.000827472
0.00125863
0.00187705
0.00273961
0.00390665
0.00543537
0.00737238
0.00974725
0.0125689
0.0158259
0.0194891
0.0235164
0.0278574
0.0324572
0.0372598
0.0422102
0.0472559
0.0523484
0.0574436
0.0625026
0.0674914
0.072381
0.0771478
0.0817724
0.0862397
0.090538
0.0946592
0.0985982
0.102352
0.105921
0.109305
0.112507
0.115529
0.118377
0.121055
0.123566
0.125915
0.128105
0.13014
0.132021
0.133748
0.135318
0.136728
0.137968
0.139025
0.139877
0.140497
0.140832
0.140843
0.140442
0.139507
0.137864
0.131884
0.120853
0.109722
0.0986632
0.0878155
0.0772903
0.0671803
0.0575647
0.0485137
0.0400923
0.032383
0.0254035
0.0192455
0.0139712
0.00963184
0.00625237
0.00380045
0.00216302
0.00115942
0.000590665
0.000288624
0.000137369
6.39799e-05
2.92534e-05
1.31617e-05
5.83818e-06
2.55745e-06
1.10803e-06
4.75402e-07
2.02151e-07
8.51609e-08
3.54323e-08
1.44216e-08
5.5918e-09
1.89263e-09
3.34069e-10
4.62408e-07
2.02113e-06
4.64351e-06
9.03956e-06
1.63704e-05
2.85119e-05
4.8452e-05
8.08721e-05
0.000132968
0.000215559
0.00034449
0.000542261
0.000839653
0.0012769
0.00190375
0.00277756
0.00395893
0.00550515
0.00746259
0.00986032
0.0127066
0.0159893
0.0196787
0.0237321
0.0280987
0.0327234
0.0375498
0.0425227
0.0475896
0.0527017
0.057815
0.0628902
0.0678934
0.0727957
0.0775732
0.0822066
0.0866809
0.0909843
0.0951087
0.099049
0.102803
0.106369
0.109749
0.112945
0.115961
0.1188
0.121467
0.123966
0.126301
0.128476
0.130493
0.132354
0.13406
0.135606
0.136988
0.138198
0.139221
0.140039
0.140624
0.140933
0.140938
0.140571
0.139755
0.13841
0.129067
0.11801
0.106885
0.0958663
0.0850883
0.0746602
0.0646718
0.0551995
0.0463113
0.0380705
0.0305695
0.0238023
0.0178735
0.0128396
0.00874486
0.00560214
0.00336084
0.00189068
0.00100412
0.000508125
0.000247414
0.000117507
5.46623e-05
2.49777e-05
1.12356e-05
4.98422e-06
2.18396e-06
9.46583e-07
4.0631e-07
1.72843e-07
7.28372e-08
3.03093e-08
1.23363e-08
4.78435e-09
1.62105e-09
2.86312e-10
4.68627e-07
2.04831e-06
4.70601e-06
9.16153e-06
1.65922e-05
2.89001e-05
4.91155e-05
8.19857e-05
0.000134808
0.000218551
0.000349273
0.000549768
0.000851194
0.00129424
0.00192912
0.00281362
0.00400866
0.00557156
0.00754846
0.00996796
0.0128377
0.0161449
0.0198591
0.0239373
0.0283282
0.0329763
0.037825
0.042819
0.0479055
0.0530357
0.0581654
0.0632554
0.0682715
0.0731849
0.0779717
0.0826127
0.0870926
0.0913999
0.0955264
0.0994672
0.103219
0.106783
0.110158
0.113348
0.116356
0.119186
0.121843
0.124329
0.126651
0.12881
0.13081
0.132651
0.134333
0.135853
0.137204
0.138377
0.139355
0.140116
0.140629
0.140851
0.140742
0.140223
0.139205
0.137606
0.126659
0.115513
0.104365
0.093372
0.0826564
0.0723196
0.062446
0.0531083
0.0443716
0.0362967
0.0289636
0.0223956
0.0166828
0.0118692
0.00799471
0.00506082
0.00300094
0.00167117
0.000880523
0.000443019
0.000215079
0.000101959
4.73756e-05
2.16338e-05
9.7283e-06
4.31524e-06
1.891e-06
8.19767e-07
3.5196e-07
1.49756e-07
6.31169e-08
2.6264e-08
1.0689e-08
4.14617e-09
1.40646e-09
2.48582e-10
4.74394e-07
2.07352e-06
4.764e-06
9.27473e-06
1.67981e-05
2.92609e-05
4.97325e-05
8.30224e-05
0.000136522
0.000221341
0.000353738
0.000556783
0.000861986
0.00131046
0.00195286
0.0028474
0.00405525
0.00563378
0.00762891
0.0100688
0.0129605
0.0162904
0.0200278
0.024129
0.0285424
0.0332122
0.0380815
0.0430948
0.0481993
0.0533459
0.0584904
0.0635934
0.068621
0.0735441
0.0783388
0.082986
0.0874705
0.0917806
0.0959084
0.0998488
0.103599
0.107159
0.11053
0.113713
0.116714
0.119535
0.122181
0.124656
0.126964
0.129108
0.131091
0.132914
0.134574
0.136068
0.137388
0.138522
0.139452
0.140149
0.140568
0.140666
0.140368
0.139565
0.138107
0.135712
0.124557
0.113312
0.102138
0.0911684
0.0805124
0.0702625
0.0604972
0.0512854
0.0426895
0.0347692
0.027582
0.0211934
0.0156683
0.011049
0.00736784
0.00461465
0.00270859
0.00149521
0.000782466
0.000391734
0.000189693
8.97741e-05
4.16681e-05
1.90143e-05
8.54695e-06
3.79049e-06
1.66098e-06
7.20086e-07
3.09191e-07
1.31569e-07
5.54517e-08
2.30714e-08
9.38822e-09
3.64206e-09
1.237e-09
2.18798e-10
4.79671e-07
2.09659e-06
4.81708e-06
9.3784e-06
1.69868e-05
2.95916e-05
5.02985e-05
8.3974e-05
0.000138097
0.000223905
0.000357845
0.000563238
0.000871922
0.00132539
0.00197474
0.00287852
0.00409816
0.00569106
0.00770293
0.0101615
0.0130733
0.0164241
0.0201827
0.0243049
0.0287387
0.0334282
0.0383161
0.0433468
0.0484673
0.0536285
0.0587861
0.0639006
0.0689381
0.0738694
0.0786708
0.0833231
0.0878112
0.0921233
0.0962516
0.100191
0.103939
0.107495
0.110861
0.114039
0.117031
0.119844
0.12248
0.124944
0.12724
0.129371
0.131339
0.133145
0.134787
0.136261
0.137557
0.138664
0.139561
0.140218
0.140583
0.140618
0.14023
0.139297
0.137641
0.133674
0.12252
0.111285
0.100141
0.0892221
0.0786364
0.0684744
0.0588125
0.0497177
0.0412508
0.033469
0.0264311
0.0201969
0.0148242
0.0103711
0.00685348
0.00425201
0.0024735
0.00135511
0.000705
0.000351436
0.000169795
8.02336e-05
3.72007e-05
1.69636e-05
7.62153e-06
3.37909e-06
1.48046e-06
6.41776e-07
2.75555e-07
1.1725e-07
4.94115e-08
2.05536e-08
8.36175e-09
3.24417e-09
1.10332e-09
1.95305e-10
4.84418e-07
2.11734e-06
4.86483e-06
9.47168e-06
1.71566e-05
2.98893e-05
5.08084e-05
8.48315e-05
0.000139516
0.000226218
0.000361551
0.000569065
0.000880892
0.00133888
0.00199448
0.0029066
0.00413686
0.0057427
0.00776964
0.010245
0.0131748
0.0165443
0.0203218
0.0244628
0.0289148
0.0336217
0.0385262
0.0435722
0.0487068
0.0538808
0.0590497
0.0641741
0.06922
0.0741583
0.0789652
0.0836216
0.0881123
0.0924257
0.0965539
0.100492
0.104237
0.10779
0.111151
0.114322
0.117308
0.120113
0.12274
0.125194
0.127479
0.129599
0.131554
0.133347
0.134975
0.136434
0.137716
0.138809
0.139693
0.140343
0.140712
0.140767
0.140434
0.139617
0.13819
0.131946
0.120754
0.109522
0.0984087
0.0875407
0.0770227
0.0669421
0.0573735
0.0483827
0.0400315
0.0323822
0.0254937
0.0193935
0.0141409
0.00981028
0.00643043
0.00395718
0.00228464
0.00124373
0.000643887
0.000319808
0.000154215
7.2772e-05
3.3708e-05
1.536e-05
6.89755e-06
3.05701e-06
1.33902e-06
5.80357e-07
2.49149e-07
1.05999e-07
4.46609e-08
1.85719e-08
7.55341e-09
2.93077e-09
9.98095e-10
1.7681e-10
4.88588e-07
2.13557e-06
4.90679e-06
9.55366e-06
1.73059e-05
3.01512e-05
5.1257e-05
8.55862e-05
0.000140766
0.000228255
0.000364815
0.000574196
0.000888791
0.00135075
0.00201186
0.00293131
0.00417091
0.00578811
0.00782824
0.0103183
0.0132638
0.0166497
0.0204437
0.024601
0.0290688
0.0337908
0.0387095
0.0437688
0.0489155
0.0541004
0.0592789
0.0644117
0.0694645
0.0744086
0.0792199
0.0838794
0.0883721
0.0926862
0.096814
0.10075
0.104493
0.108042
0.111398
0.114564
0.117544
0.120341
0.12296
0.125405
0.127681
0.12979
0.131734
0.133516
0.135132
0.136579
0.13785
0.138934
0.139812
0.14046
0.140836
0.140909
0.140614
0.139863
0.138548
0.130398
0.119217
0.10801
0.096935
0.0861178
0.0756621
0.0656539
0.0561665
0.0472663
0.0390168
0.0314788
0.0246726
0.0186866
0.0135757
0.00936537
0.00609073
0.00372116
0.00213468
0.00115594
0.000595986
0.00029511
0.000142068
6.69591e-05
3.09876e-05
1.41108e-05
6.33334e-06
2.80586e-06
1.22864e-06
5.3239e-07
2.28509e-07
9.7197e-08
4.09419e-08
1.70195e-08
6.91993e-09
2.68512e-09
9.15672e-10
1.62318e-10
4.9214e-07
2.1511e-06
4.94254e-06
9.62351e-06
1.74331e-05
3.03744e-05
5.16394e-05
8.62297e-05
0.000141832
0.000229992
0.000367598
0.000578573
0.000895528
0.00136088
0.00202668
0.00295236
0.00419989
0.00582674
0.00787807
0.0103806
0.0133394
0.0167391
0.020547
0.024718
0.0291993
0.033934
0.0388646
0.0439349
0.0490916
0.0542855
0.059472
0.0646116
0.0696702
0.0746187
0.0794335
0.0840954
0.0885893
0.0929037
0.0970307
0.100966
0.104706
0.108251
0.111603
0.114764
0.117737
0.120527
0.123139
0.125576
0.127843
0.129943
0.131878
0.133648
0.135253
0.136689
0.137949
0.139021
0.139888
0.140527
0.140895
0.140961
0.140659
0.139897
0.138561
0.129153
0.117971
0.106777
0.0957286
0.0849508
0.0745452
0.0645976
0.055182
0.0463606
0.0381882
0.0307161
0.0239993
0.0181076
0.0130943
0.00899982
0.00582525
0.00353593
0.00201719
0.00108753
0.000558818
0.000275999
0.000132681
6.24694e-05
2.88868e-05
1.3146e-05
5.89744e-06
2.61173e-06
1.14328e-06
4.95274e-07
2.12528e-07
9.03782e-08
3.80592e-08
1.58157e-08
6.42854e-09
2.49456e-09
8.51778e-10
1.5108e-10
4.95035e-07
2.16376e-06
4.97167e-06
9.68046e-06
1.75368e-05
3.05564e-05
5.19512e-05
8.67546e-05
0.000142701
0.000231409
0.000369869
0.000582142
0.000901021
0.00136913
0.00203875
0.0029695
0.00422349
0.00585816
0.00791857
0.0104311
0.0134008
0.0168117
0.0206308
0.0248129
0.0293049
0.0340498
0.03899
0.0440692
0.049234
0.054435
0.0596278
0.0647727
0.0698357
0.0747877
0.079605
0.0842685
0.0887632
0.0930775
0.0972037
0.101137
0.104874
0.108417
0.111764
0.114921
0.117889
0.120673
0.123279
0.125709
0.127967
0.130058
0.131984
0.133744
0.135339
0.136763
0.13801
0.139069
0.139923
0.140548
0.140903
0.140961
0.140659
0.139917
0.138649
0.128306
0.117046
0.105827
0.0947859
0.0840364
0.0736734
0.0637768
0.0544115
0.0456398
0.0375185
0.0301096
0.0234654
0.0176496
0.0127143
0.00869844
0.00561029
0.00339289
0.00192683
0.00103502
0.000530408
0.000261437
0.00012554
5.90571e-05
2.72911e-05
1.24135e-05
5.56655e-06
2.46439e-06
1.07849e-06
4.67097e-07
2.00395e-07
8.51999e-08
3.58697e-08
1.49013e-08
6.05529e-09
2.34984e-09
8.03289e-10
1.42544e-10
4.97239e-07
2.1734e-06
4.99386e-06
9.72382e-06
1.76158e-05
3.06951e-05
5.21888e-05
8.71545e-05
0.000143364
0.000232489
0.000371598
0.000584861
0.000905203
0.00137541
0.00204793
0.00298254
0.00424142
0.00588202
0.00794931
0.0104695
0.0134473
0.0168666
0.0206943
0.0248848
0.0293848
0.0341374
0.0390849
0.0441707
0.0493415
0.0545479
0.0597453
0.0648941
0.0699603
0.0749148
0.0797338
0.0843983
0.0888934
0.0932074
0.0973326
0.101264
0.105
0.108539
0.111884
0.115036
0.118
0.120779
0.123379
0.125802
0.128054
0.130138
0.132054
0.133805
0.135389
0.136801
0.138034
0.139077
0.139913
0.140515
0.140843
0.140869
0.140524
0.139723
0.138375
0.127582
0.116312
0.105096
0.094069
0.0833408
0.0730038
0.0631357
0.0538077
0.0450804
0.0370112
0.0296554
0.0230667
0.0173087
0.0124328
0.00847663
0.00544548
0.00328378
0.00185998
0.00099646
0.000509544
0.000250752
0.000120305
5.65587e-05
2.61241e-05
1.18783e-05
5.32503e-06
2.35693e-06
1.03127e-06
4.46573e-07
1.9156e-07
8.14314e-08
3.42769e-08
1.42364e-08
5.78401e-09
2.2447e-09
7.68093e-10
1.36342e-10
4.98723e-07
2.17989e-06
5.0088e-06
9.75303e-06
1.76691e-05
3.07885e-05
5.23489e-05
8.74238e-05
0.000143809
0.000233215
0.000372761
0.000586687
0.000908011
0.00137963
0.00205409
0.00299127
0.00425343
0.00589801
0.0079699
0.0104952
0.0134785
0.0169035
0.0207368
0.0249329
0.0294384
0.0341962
0.0391484
0.0442387
0.0494135
0.0546235
0.0598239
0.0649753
0.0700434
0.0749993
0.0798194
0.0844845
0.0889797
0.0932933
0.0974177
0.101348
0.105082
0.108619
0.111961
0.115111
0.118071
0.120847
0.123442
0.125861
0.128107
0.130184
0.132093
0.133836
0.13541
0.136811
0.138031
0.139058
0.139874
0.140452
0.140749
0.140737
0.140342
0.139476
0.138047
0.127036
0.115771
0.104565
0.0935535
0.0828457
0.0725335
0.062695
0.053398
0.0447036
0.0366693
0.0293499
0.0227992
0.0170807
0.0122453
0.0083299
0.00533759
0.00320987
0.00181484
0.000970709
0.000495682
0.000243659
0.000116833
5.49034e-05
2.53518e-05
1.15245e-05
5.16548e-06
2.28597e-06
1.0001e-06
4.33033e-07
1.85735e-07
7.89474e-08
3.32276e-08
1.37987e-08
5.60556e-09
2.1756e-09
7.44984e-10
1.32261e-10
4.99462e-07
2.18311e-06
5.01621e-06
9.76747e-06
1.76953e-05
3.08343e-05
5.24271e-05
8.75551e-05
0.000144026
0.000233567
0.000373323
0.000587568
0.000909362
0.00138165
0.00205704
0.00299547
0.00425919
0.00590568
0.0079798
0.0105076
0.0134935
0.0169213
0.0207574
0.0249563
0.0294645
0.0342249
0.0391795
0.044272
0.0494489
0.0546606
0.0598626
0.0650152
0.0700842
0.0750409
0.0798614
0.0845268
0.089022
0.0933354
0.0974594
0.101389
0.105122
0.108658
0.111999
0.115147
0.118105
0.120879
0.123471
0.125887
0.12813
0.130203
0.132108
0.133846
0.135414
0.136808
0.13802
0.139036
0.13984
0.140403
0.140681
0.140646
0.140224
0.139327
0.137867
0.126756
0.115486
0.104285
0.0932833
0.0825885
0.0722914
0.0624692
0.0531895
0.0445131
0.0364973
0.0291971
0.0226661
0.0169678
0.0121531
0.0082582
0.00528527
0.0031744
0.00179248
0.000957931
0.000488831
0.000240169
0.000115141
5.4102e-05
2.49795e-05
1.13543e-05
5.08876e-06
2.25178e-06
9.85048e-07
4.26476e-07
1.82908e-07
7.77392e-08
3.2716e-08
1.35849e-08
5.51825e-09
2.14175e-09
7.33649e-10
1.30245e-10
4.99468e-07
2.18314e-06
5.01627e-06
9.76759e-06
1.76955e-05
3.08347e-05
5.24277e-05
8.7556e-05
0.000144028
0.00023357
0.000373327
0.000587574
0.000909371
0.00138166
0.00205706
0.00299549
0.00425923
0.00590573
0.00797986
0.0105077
0.0134936
0.0169214
0.0207575
0.0249564
0.0294646
0.034225
0.0391797
0.0442722
0.049449
0.0546608
0.0598628
0.0650154
0.0700844
0.075041
0.0798615
0.0845269
0.0890221
0.0933355
0.0974595
0.101389
0.105122
0.108658
0.111999
0.115147
0.118105
0.120879
0.123471
0.125887
0.12813
0.130203
0.132109
0.133846
0.135414
0.136808
0.13802
0.139037
0.13984
0.140404
0.140682
0.140647
0.140225
0.139327
0.137866
0.126754
0.115484
0.104283
0.0932811
0.0825864
0.0722895
0.0624675
0.053188
0.0445117
0.0364961
0.0291959
0.0226651
0.016967
0.0121524
0.00825757
0.00528478
0.00317406
0.00179226
0.000957807
0.000488767
0.000240137
0.000115125
5.40946e-05
2.4976e-05
1.13527e-05
5.08804e-06
2.25147e-06
9.8491e-07
4.26417e-07
1.82883e-07
7.77286e-08
3.27116e-08
1.35831e-08
5.51752e-09
2.1415e-09
7.33586e-10
1.30211e-10
4.98742e-07
2.17997e-06
5.00899e-06
9.75339e-06
1.76697e-05
3.07895e-05
5.23507e-05
8.74268e-05
0.000143814
0.000233223
0.000372773
0.000586706
0.000908039
0.00137967
0.00205415
0.00299136
0.00425354
0.00589815
0.00797008
0.0104954
0.0134787
0.0169037
0.0207371
0.0249332
0.0294387
0.0341965
0.0391488
0.0442391
0.0494139
0.0546239
0.0598243
0.0649757
0.0700439
0.0749998
0.0798198
0.084485
0.0889801
0.0932938
0.0974182
0.101349
0.105083
0.10862
0.111962
0.115111
0.118072
0.120847
0.123442
0.125861
0.128108
0.130185
0.132094
0.133837
0.135411
0.136812
0.138033
0.13906
0.139876
0.140454
0.140751
0.140738
0.140342
0.139474
0.138044
0.127031
0.115766
0.10456
0.0935482
0.0828406
0.0725288
0.0626906
0.0533939
0.0446998
0.0366657
0.0293466
0.0227962
0.0170779
0.012243
0.00832794
0.00533609
0.00320885
0.00181425
0.000970393
0.000495525
0.000243584
0.000116798
5.48872e-05
2.53444e-05
1.15211e-05
5.164e-06
2.28532e-06
9.99815e-07
4.32908e-07
1.85681e-07
7.89243e-08
3.32177e-08
1.37945e-08
5.60392e-09
2.17505e-09
7.44845e-10
1.32171e-10
4.97272e-07
2.17354e-06
4.99419e-06
9.72446e-06
1.7617e-05
3.06971e-05
5.21923e-05
8.71602e-05
0.000143373
0.000232504
0.000371622
0.000584897
0.000905258
0.00137549
0.00204805
0.0029827
0.00424163
0.00588231
0.00794967
0.0104699
0.0134478
0.0168672
0.0206949
0.0248854
0.0293855
0.0341382
0.0390856
0.0441715
0.0493423
0.0545487
0.0597461
0.064895
0.0699611
0.0749156
0.0797346
0.0843992
0.0888942
0.0932082
0.0973335
0.101265
0.105001
0.10854
0.111885
0.115037
0.118001
0.12078
0.12338
0.125804
0.128056
0.130139
0.132056
0.133807
0.135391
0.136803
0.138036
0.139079
0.139914
0.140516
0.140843
0.140866
0.140519
0.139717
0.138371
0.127576
0.116304
0.105088
0.094061
0.0833332
0.0729966
0.0631291
0.0538015
0.0450745
0.0370056
0.0296502
0.0230618
0.0173042
0.0124287
0.00847317
0.00544271
0.00328176
0.00185882
0.000995853
0.000509246
0.000250611
0.000120239
5.65282e-05
2.61102e-05
1.18721e-05
5.32228e-06
2.35572e-06
1.03075e-06
4.4635e-07
1.91466e-07
8.13914e-08
3.426e-08
1.42294e-08
5.78125e-09
2.24378e-09
7.67864e-10
1.36194e-10
4.95083e-07
2.16397e-06
4.97215e-06
9.68139e-06
1.75385e-05
3.05593e-05
5.19562e-05
8.67628e-05
0.000142715
0.000231431
0.000369903
0.000582195
0.000901101
0.00136925
0.00203891
0.00296973
0.0042238
0.00585856
0.00791907
0.0104318
0.0134015
0.0168125
0.0206317
0.0248139
0.0293059
0.0340509
0.0389911
0.0440703
0.0492351
0.0544362
0.059629
0.0647739
0.0698369
0.0747889
0.0796062
0.0842698
0.0887645
0.0930788
0.0972049
0.101138
0.104876
0.108418
0.111766
0.114922
0.11789
0.120675
0.12328
0.12571
0.127969
0.13006
0.131986
0.133747
0.135341
0.136766
0.138013
0.139072
0.139926
0.14055
0.140905
0.140961
0.140657
0.139912
0.138645
0.128295
0.117033
0.105814
0.0947733
0.0840244
0.0736622
0.0637663
0.0544019
0.0456311
0.0375106
0.0301023
0.0234588
0.0176436
0.0127089
0.00869392
0.00560673
0.00339086
0.00192557
0.00103433
0.000530045
0.000261257
0.000125454
5.90172e-05
2.72729e-05
1.24053e-05
5.56294e-06
2.46281e-06
1.07781e-06
4.66806e-07
2.00271e-07
8.51478e-08
3.58477e-08
1.48922e-08
6.05172e-09
2.34865e-09
8.03e-10
1.42347e-10
4.92203e-07
2.15138e-06
4.94317e-06
9.62475e-06
1.74353e-05
3.03783e-05
5.16459e-05
8.62407e-05
0.00014185
0.000230021
0.000367644
0.000578643
0.000895634
0.00136103
0.0020269
0.00295267
0.00420031
0.00582727
0.00787873
0.0103814
0.0133403
0.0167402
0.0205482
0.0247193
0.0292006
0.0339354
0.0388661
0.0439364
0.0490932
0.0542871
0.0594736
0.0646132
0.0696718
0.0746204
0.0794352
0.0840971
0.088591
0.0929054
0.0970324
0.100967
0.104707
0.108253
0.111604
0.114765
0.117739
0.120529
0.123141
0.125578
0.127845
0.129945
0.13188
0.133651
0.135256
0.136692
0.137952
0.139025
0.139892
0.140531
0.140898
0.140963
0.140659
0.139895
0.138557
0.129136
0.117951
0.106757
0.0957096
0.0849333
0.0745295
0.0645837
0.0551698
0.0463495
0.0381777
0.0307067
0.0239911
0.0181008
0.013089
0.00899622
0.0058231
0.00353412
0.00201596
0.00108678
0.000558397
0.000275784
0.000132577
6.24205e-05
2.88643e-05
1.31359e-05
5.89297e-06
2.60979e-06
1.14245e-06
4.94917e-07
2.12378e-07
9.03148e-08
3.80326e-08
1.58047e-08
6.42424e-09
2.49315e-09
8.51438e-10
1.50838e-10
4.88668e-07
2.13592e-06
4.90759e-06
9.55522e-06
1.73087e-05
3.01561e-05
5.12653e-05
8.56001e-05
0.000140789
0.000228292
0.000364872
0.000574285
0.000888925
0.00135095
0.00201214
0.0029317
0.00417143
0.00578878
0.00782908
0.0103193
0.013265
0.0166511
0.0204452
0.0246026
0.0290706
0.0337927
0.0387114
0.0437708
0.0489175
0.0541024
0.0592809
0.0644138
0.0694666
0.0744107
0.079222
0.0838816
0.0883742
0.0926883
0.0968161
0.100753
0.104495
0.108044
0.1114
0.114566
0.117545
0.120342
0.122961
0.125407
0.127682
0.129791
0.131736
0.133517
0.135133
0.136581
0.137852
0.138935
0.139812
0.14046
0.140835
0.140906
0.14061
0.139861
0.13855
0.130379
0.119197
0.10799
0.0969153
0.0860989
0.0756439
0.0656362
0.0561492
0.0472499
0.0390024
0.0314666
0.0246624
0.0186783
0.0135693
0.00936079
0.00608694
0.00371848
0.00213291
0.00115488
0.000595417
0.000294826
0.000141933
6.68962e-05
3.09591e-05
1.40981e-05
6.32781e-06
2.80348e-06
1.22763e-06
5.31963e-07
2.28331e-07
9.71225e-08
4.09109e-08
1.70067e-08
6.91498e-09
2.68351e-09
9.15287e-10
1.62038e-10
4.84515e-07
2.11776e-06
4.8658e-06
9.47357e-06
1.716e-05
2.98953e-05
5.08186e-05
8.48484e-05
0.000139544
0.000226263
0.000361621
0.000569173
0.000881055
0.00133912
0.00199482
0.00290707
0.0041375
0.00574352
0.00777066
0.0102462
0.0131762
0.016546
0.0203236
0.0244647
0.0289169
0.0336239
0.0385285
0.0435746
0.0487092
0.0538833
0.0590522
0.0641767
0.0692226
0.0741609
0.0789678
0.0836242
0.0881149
0.0924283
0.0965565
0.100495
0.10424
0.107792
0.111153
0.114325
0.11731
0.120115
0.122742
0.125196
0.127481
0.1296
0.131556
0.133348
0.134976
0.136435
0.137717
0.138809
0.139694
0.140344
0.140713
0.140768
0.140437
0.139624
0.138202
0.131914
0.120724
0.109495
0.0983831
0.0875166
0.0770002
0.0669213
0.0573546
0.0483658
0.0400162
0.0323684
0.0254818
0.0193837
0.0141335
0.00980337
0.00642477
0.00395309
0.002282
0.00124221
0.000643096
0.000319423
0.000154035
7.26899e-05
3.36715e-05
1.5344e-05
6.89071e-06
3.05411e-06
1.33781e-06
5.79853e-07
2.48941e-07
1.05913e-07
4.46256e-08
1.85575e-08
7.54788e-09
2.92899e-09
9.9767e-10
1.76497e-10
4.79786e-07
2.09709e-06
4.81824e-06
9.38065e-06
1.69908e-05
2.95987e-05
5.03106e-05
8.39941e-05
0.00013813
0.000223958
0.000357929
0.000563367
0.000872117
0.00132568
0.00197514
0.00287908
0.00409891
0.00569203
0.00770415
0.010163
0.013075
0.0164261
0.0201848
0.0243072
0.0287412
0.0334308
0.0383189
0.0433497
0.0484702
0.0536315
0.0587891
0.0639037
0.0689412
0.0738726
0.078674
0.0833263
0.0878143
0.0921264
0.0962547
0.100194
0.103942
0.107498
0.110864
0.114041
0.117034
0.119846
0.122482
0.124946
0.127242
0.129373
0.131341
0.133147
0.134788
0.136261
0.137558
0.138665
0.139562
0.140219
0.140586
0.140622
0.140236
0.139302
0.137638
0.133626
0.12248
0.111251
0.100109
0.0891923
0.0786085
0.0684481
0.0587878
0.0496945
0.041229
0.033449
0.0264138
0.0201812
0.0148089
0.0103581
0.0068439
0.00424556
0.00246958
0.00135295
0.000703907
0.000350918
0.000169558
8.01277e-05
3.71545e-05
1.69438e-05
7.61319e-06
3.37563e-06
1.47904e-06
6.41194e-07
2.7532e-07
1.17155e-07
4.93726e-08
2.05379e-08
8.35577e-09
3.24226e-09
1.10287e-09
1.94967e-10
4.74527e-07
2.0741e-06
4.76534e-06
9.27734e-06
1.68028e-05
2.92691e-05
4.97465e-05
8.30458e-05
0.00013656
0.000221402
0.000353836
0.000556933
0.000862213
0.00131079
0.00195334
0.00284806
0.00405613
0.00563491
0.00763033
0.0100705
0.0129624
0.0162927
0.0200303
0.0241318
0.0285453
0.0332153
0.0380848
0.0430982
0.0482027
0.0533494
0.058494
0.0635971
0.0686247