/*--------------------------------*- C++ -*----------------------------------*\
  =========                 |
  \\      /  F ield         | OpenFOAM: The Open Source CFD Toolbox
   \\    /   O peration     | Website:  https://openfoam.org
    \\  /    A nd           | Version:  8
     \\/     M anipulation  |
\*---------------------------------------------------------------------------*/
FoamFile
{
    version     2.0;
    format      ascii;
    class       volScalarField;
    location    "200/fluid";
    object      H2O;
}
// * * * * * * * * * * * * * * * * * * * * * * * * * * * * * * * * * * * * * //

dimensions      [0 0 0 0 0 0 0];

internalField   nonuniform List<scalar> 
4000
(
3.16194e-07
1.38069e-06
3.16602e-06
6.1476e-06
1.11018e-05
1.92841e-05
3.27009e-05
5.45145e-05
8.96288e-05
0.000145502
0.000233219
0.000368798
0.00057461
0.000880606
0.00132482
0.00195248
0.00281311
0.00395546
0.00542111
0.00723834
0.00941822
0.011954
0.0148232
0.0179916
0.0214177
0.0250562
0.0288609
0.0327872
0.0367928
0.0408393
0.044892
0.0489203
0.0528979
0.0568028
0.0606164
0.0643241
0.0679144
0.0713784
0.0747096
0.0779039
0.0809593
0.0838749
0.0866514
0.0892901
0.0917933
0.0941637
0.0964045
0.098519
0.10051
0.102382
0.104135
0.105774
0.107299
0.10871
0.110007
0.111186
0.112242
0.113167
0.113948
0.114568
0.115
0.115207
0.115148
0.114749
0.113914
0.112509
0.109178
0.100542
0.0917991
0.0830728
0.0744625
0.066051
0.0579089
0.050097
0.0426704
0.0356807
0.0291794
0.0232323
0.0178668
0.013168
0.00920126
0.00602419
0.00365809
0.00205058
0.00106476
0.0005173
0.000240953
0.000108898
4.81163e-05
2.08976e-05
8.95676e-06
3.79947e-06
1.59853e-06
6.67828e-07
2.77003e-07
1.13733e-07
4.57825e-08
1.7577e-08
5.88728e-09
1.03288e-09
3.22107e-07
1.40739e-06
3.23091e-06
6.28316e-06
1.13665e-05
1.97796e-05
3.35983e-05
5.60919e-05
9.23195e-05
0.000149951
0.000240334
0.000379779
0.000590916
0.000903834
0.00135648
0.00199369
0.00286424
0.00401594
0.00548945
0.00731246
0.00949599
0.0120337
0.0149039
0.0180734
0.0215013
0.0251429
0.0289522
0.0328846
0.0368976
0.0409522
0.0450135
0.0490504
0.0530364
0.056949
0.0607696
0.0644833
0.0680787
0.0715466
0.0748807
0.0780769
0.0811331
0.0840486
0.0868241
0.0894611
0.091962
0.0943295
0.0965668
0.0986773
0.100664
0.102531
0.10428
0.105913
0.107432
0.108837
0.110127
0.111299
0.112349
0.113267
0.114042
0.114658
0.11509
0.115302
0.11526
0.114895
0.114119
0.112796
0.107979
0.0992649
0.0904556
0.0816732
0.073017
0.0645697
0.056402
0.0485759
0.0411481
0.0341735
0.0277202
0.0218185
0.01655
0.0119867
0.00819748
0.00523451
0.00309667
0.00169628
0.000866889
0.000418696
0.000195423
8.88932e-05
3.96304e-05
1.73844e-05
7.52583e-06
3.22285e-06
1.36783e-06
5.76028e-07
2.40681e-07
9.94897e-08
4.02969e-08
1.55546e-08
5.23173e-09
9.20015e-10
3.3096e-07
1.44662e-06
3.32336e-06
6.46873e-06
1.17131e-05
2.03999e-05
3.46736e-05
5.79051e-05
9.52978e-05
0.000154716
0.000247753
0.000391004
0.000607399
0.000927283
0.00138875
0.00203658
0.00291923
0.00408391
0.00557048
0.00740587
0.00960056
0.012148
0.0150268
0.0182041
0.0216395
0.025289
0.0291071
0.0330492
0.0370729
0.0411391
0.0452124
0.0492615
0.0532596
0.0571836
0.0610149
0.0647384
0.0683422
0.0718172
0.0751569
0.0783572
0.081416
0.0843328
0.0871082
0.0897438
0.0922421
0.0946059
0.0968386
0.0989435
0.100924
0.102783
0.104524
0.106149
0.107658
0.109052
0.110331
0.11149
0.112525
0.113427
0.114184
0.11478
0.115193
0.115392
0.11535
0.115021
0.114355
0.113304
0.106001
0.0971711
0.0882791
0.0794423
0.0707575
0.0623062
0.0541588
0.046378
0.0390222
0.0321487
0.0258464
0.0201127
0.0150536
0.0107363
0.0072197
0.00453358
0.00264427
0.00143508
0.00073069
0.000353281
0.000165361
7.54768e-05
3.37622e-05
1.4854e-05
6.44571e-06
2.76518e-06
1.17501e-06
4.95209e-07
2.07017e-07
8.56073e-08
3.46886e-08
1.33971e-08
4.50909e-09
7.93353e-10
3.3949e-07
1.48399e-06
3.40955e-06
6.63724e-06
1.2019e-05
2.0932e-05
3.55718e-05
5.93849e-05
9.76826e-05
0.000158478
0.000253561
0.000399776
0.000620341
0.000945907
0.00141483
0.00207205
0.00296599
0.00414365
0.00564449
0.00749495
0.00970505
0.0122679
0.0151619
0.0183542
0.0218046
0.0254689
0.0293018
0.0332588
0.0372975
0.0413787
0.0454668
0.0495306
0.0535427
0.0574801
0.0613238
0.0650584
0.0686721
0.0721555
0.075502
0.0787075
0.0817699
0.0846886
0.0874644
0.0900988
0.0925945
0.0949544
0.0971818
0.0992802
0.101253
0.103104
0.104834
0.106447
0.107944
0.109324
0.110586
0.111726
0.112738
0.113612
0.114333
0.114882
0.115228
0.115336
0.115163
0.114641
0.113695
0.112264
0.103493
0.0945623
0.085611
0.0767516
0.0680779
0.059669
0.0515941
0.0439157
0.0366924
0.0299818
0.023866
0.018356
0.0135488
0.00950551
0.00627397
0.00386349
0.00221281
0.00118355
0.000596743
0.000287475
0.000134473
6.14579e-05
2.75596e-05
1.2164e-05
5.29738e-06
2.28099e-06
9.72761e-07
4.11345e-07
1.72469e-07
7.15016e-08
2.90329e-08
1.12312e-08
3.78551e-09
6.66551e-10
3.47393e-07
1.51853e-06
3.48896e-06
6.79198e-06
1.22994e-05
2.142e-05
3.63986e-05
6.07563e-05
9.99145e-05
0.000162042
0.000259142
0.00040833
0.000633149
0.0009646
0.00144137
0.0021086
0.00301479
0.00420675
0.00572357
0.00759119
0.00981912
0.0124001
0.0153122
0.0185225
0.0219908
0.0256728
0.0295233
0.0334978
0.0375537
0.0416518
0.0457564
0.049836
0.0538632
0.0578147
0.0616714
0.0654177
0.0690416
0.0725337
0.0758872
0.0790981
0.0821641
0.0850848
0.0878608
0.090494
0.0929867
0.0953422
0.0975638
0.099655
0.101619
0.10346
0.105179
0.10678
0.108262
0.109625
0.110868
0.111986
0.112971
0.113813
0.114493
0.114988
0.115255
0.115257
0.114911
0.114099
0.112631
0.109593
0.100709
0.0917097
0.0827308
0.0738814
0.0652525
0.0569211
0.0489548
0.041415
0.0343597
0.0278504
0.021933
0.0166745
0.0121384
0.00837974
0.00543392
0.00328779
0.00185457
0.000980946
0.000491296
0.000236206
0.00011049
5.05506e-05
2.27039e-05
1.00382e-05
4.37913e-06
1.88864e-06
8.06606e-07
3.41514e-07
1.43341e-07
5.94755e-08
2.41646e-08
9.35229e-09
3.15443e-09
5.55657e-10
3.54554e-07
1.54978e-06
3.56065e-06
6.93129e-06
1.25512e-05
2.18572e-05
3.71383e-05
6.19829e-05
0.000101912
0.000165239
0.000264166
0.000416072
0.000644828
0.00098181
0.00146608
0.00214312
0.0030616
0.0042683
0.00580202
0.00768826
0.00993598
0.0125374
0.0154702
0.0187012
0.0221898
0.0258919
0.0297621
0.0337557
0.0378302
0.0419462
0.046068
0.0501638
0.0542062
0.0581717
0.0620411
0.0657988
0.0694324
0.0729326
0.0762927
0.0795084
0.0825776
0.0854998
0.0882756
0.0909068
0.0933961
0.0957466
0.0979617
0.100045
0.102
0.103829
0.105536
0.107123
0.108589
0.109935
0.111157
0.112252
0.113211
0.114022
0.114669
0.115128
0.115362
0.115343
0.115011
0.114297
0.113115
0.106735
0.0977987
0.0887785
0.0798102
0.0710033
0.0624476
0.0542187
0.0463826
0.0389988
0.0321235
0.0258392
0.0201443
0.015133
0.0108617
0.00737724
0.00469997
0.00279458
0.00155267
0.000811901
0.000403549
0.000193426
9.03797e-05
4.1357e-05
1.85931e-05
8.23291e-06
3.59792e-06
1.55463e-06
6.65188e-07
2.82123e-07
1.18592e-07
4.92656e-08
2.00343e-08
7.75918e-09
2.61943e-09
4.61642e-10
3.61171e-07
1.57867e-06
3.62697e-06
7.06031e-06
1.27848e-05
2.22641e-05
3.78294e-05
6.31343e-05
0.000103798
0.000168277
0.000268973
0.000423533
0.000656165
0.000998637
0.00149042
0.00217733
0.00310827
0.00432999
0.00588108
0.00778658
0.0100549
0.0126778
0.0156324
0.0188852
0.0223954
0.0261186
0.0300093
0.0340228
0.0381164
0.0422506
0.0463896
0.0505015
0.0545587
0.0585377
0.0624192
0.0661874
0.06983
0.0733375
0.0767032
0.079923
0.0829945
0.0859173
0.0886921
0.0913208
0.0938059
0.0961507
0.0983586
0.100433
0.102378
0.104196
0.10589
0.107461
0.10891
0.110236
0.111436
0.112504
0.113431
0.114205
0.114805
0.115205
0.115371
0.115268
0.114839
0.114024
0.112789
0.104002
0.094996
0.0859506
0.0769981
0.0682437
0.0597733
0.0516589
0.0439637
0.0367449
0.0300568
0.0239773
0.0185096
0.0137427
0.00972764
0.00650322
0.00407427
0.00238419
0.00130714
0.000676914
0.000334355
0.000159867
7.46271e-05
3.41474e-05
1.53598e-05
6.80704e-06
2.9779e-06
1.28818e-06
5.518e-07
2.34278e-07
9.85687e-08
4.09753e-08
1.66704e-08
6.45923e-09
2.18226e-09
3.84772e-10
3.67336e-07
1.6056e-06
3.6888e-06
7.18069e-06
1.3003e-05
2.26445e-05
3.84766e-05
6.4215e-05
0.000105573
0.000171144
0.000273527
0.000430631
0.000667002
0.0010148
0.00151393
0.00221057
0.00315387
0.00439063
0.0059592
0.00788421
0.0101735
0.0128183
0.0157952
0.0190702
0.0226024
0.0263472
0.0302586
0.034292
0.0384046
0.0425567
0.0467123
0.0508396
0.0549108
0.0589024
0.062795
0.0665727
0.0702233
0.0737371
0.0771074
0.0803302
0.0834031
0.0863257
0.0890987
0.091724
0.0942043
0.0965428
0.0987429
0.100808
0.102742
0.104548
0.106228
0.107784
0.109215
0.11052
0.111696
0.112736
0.113629
0.114358
0.1149
0.115215
0.115264
0.114976
0.114242
0.112902
0.110534
0.101498
0.0923744
0.083291
0.074356
0.0656607
0.0572825
0.0492884
0.0417378
0.0346859
0.028186
0.0222869
0.0170428
0.0125105
0.00873711
0.00575324
0.00354813
0.00204611
0.00110837
0.000568957
0.000279398
0.000133263
6.21366e-05
2.84233e-05
1.27881e-05
5.67079e-06
2.48288e-06
1.07506e-06
4.60959e-07
1.9589e-07
8.24817e-08
3.4307e-08
1.3962e-08
5.412e-09
1.83004e-09
3.22837e-10
3.73128e-07
1.6309e-06
3.74694e-06
7.294e-06
1.32087e-05
2.30038e-05
3.90891e-05
6.52401e-05
0.000107261
0.00017388
0.000277886
0.000437448
0.000677444
0.00103043
0.00153672
0.0022429
0.00319834
0.00444989
0.0060357
0.00797999
0.0102901
0.0129565
0.0159555
0.0192527
0.0228066
0.0265725
0.0305043
0.0345571
0.038688
0.0428571
0.0470286
0.0511703
0.0552546
0.0592577
0.0631602
0.0669464
0.0706037
0.0741227
0.0774967
0.0807215
0.0837949
0.0867164
0.0894868
0.0921081
0.0945829
0.0969145
0.0991064
0.101162
0.103085
0.104879
0.106544
0.108084
0.109498
0.110784
0.111938
0.112953
0.113818
0.114516
0.115024
0.115298
0.115307
0.114979
0.114213
0.112868
0.107972
0.0989417
0.0898282
0.0807747
0.0718938
0.0632769
0.0549999
0.0471277
0.0397177
0.0328232
0.0265117
0.0207976
0.0157561
0.0114381
0.0078855
0.00511876
0.0031114
0.00177084
0.000949203
0.000483572
0.000236294
0.000112463
5.23798e-05
2.39495e-05
1.07753e-05
4.77967e-06
2.09376e-06
9.07133e-07
3.89207e-07
1.65499e-07
6.97204e-08
2.90081e-08
1.18069e-08
4.57796e-09
1.54948e-09
2.73499e-10
3.7857e-07
1.65468e-06
3.8016e-06
7.40061e-06
1.34023e-05
2.33425e-05
3.96672e-05
6.62093e-05
0.00010886
0.000176476
0.000282031
0.000443944
0.000687416
0.00104539
0.00155859
0.00227396
0.00324114
0.00450702
0.00610956
0.00807255
0.0104028
0.0130903
0.0161108
0.0194293
0.0230042
0.0267904
0.0307417
0.034813
0.0389612
0.0431464
0.0473326
0.0514877
0.0555837
0.0595972
0.0635085
0.0673019
0.0709649
0.074488
0.0778646
0.0810906
0.0841636
0.0870833
0.0898505
0.0924671
0.094936
0.0972603
0.0994436
0.10149
0.103401
0.105182
0.106834
0.108357
0.109753
0.111019
0.112151
0.113141
0.113979
0.114649
0.115128
0.11538
0.115385
0.115084
0.114416
0.113315
0.105666
0.0966136
0.087506
0.0784849
0.0696611
0.0611237
0.0529462
0.0451913
0.0379147
0.031168
0.025027
0.0194867
0.0146329
0.0105116
0.00715934
0.00458642
0.00275149
0.00154788
0.000822066
0.000415998
0.000202556
9.62017e-05
4.47515e-05
2.0449e-05
9.19847e-06
4.08053e-06
1.78799e-06
7.74959e-07
3.32643e-07
1.41505e-07
5.96312e-08
2.48139e-08
1.00996e-08
3.91691e-09
1.32714e-09
2.34401e-10
3.83661e-07
1.67693e-06
3.85277e-06
7.50047e-06
1.35839e-05
2.36603e-05
4.02104e-05
6.7121e-05
0.000110366
0.000178925
0.000285947
0.00045009
0.000696865
0.00105958
0.00157935
0.00230349
0.00328185
0.00456138
0.00617986
0.00816068
0.0105101
0.0132177
0.0162585
0.0195972
0.023192
0.0269974
0.030967
0.0350555
0.0392198
0.0434199
0.0476195
0.0517866
0.0558933
0.0599159
0.0638348
0.0676343
0.071302
0.0748283
0.0782067
0.0814329
0.0845049
0.0874222
0.0901856
0.0927973
0.09526
0.0975769
0.0997515
0.101787
0.103688
0.105456
0.107093
0.1086
0.109978
0.111222
0.112328
0.113288
0.114088
0.114712
0.115132
0.115314
0.115224
0.1148
0.113966
0.112657
0.103694
0.0945691
0.085443
0.0764428
0.0676701
0.0592074
0.051124
0.0434793
0.0363266
0.0297158
0.0237122
0.0183351
0.013658
0.00971722
0.0065452
0.00414325
0.00245685
0.00136817
0.000720877
0.000362696
0.000176083
8.34731e-05
3.8786e-05
1.77114e-05
7.96447e-06
3.53285e-06
1.54815e-06
6.71136e-07
2.88147e-07
1.22604e-07
5.16732e-08
2.15021e-08
8.75102e-09
3.39443e-09
1.15145e-09
2.03512e-10
3.88382e-07
1.69757e-06
3.90024e-06
7.59314e-06
1.37524e-05
2.39556e-05
4.07156e-05
6.79697e-05
0.000111769
0.00018121
0.000289602
0.000455833
0.0007057
0.00107286
0.00159879
0.00233114
0.00332
0.00461232
0.00624572
0.00824322
0.0106106
0.0133368
0.0163966
0.0197542
0.0233674
0.0271905
0.031177
0.0352814
0.0394603
0.0436738
0.0478856
0.0520634
0.0561794
0.0602099
0.0641353
0.0679399
0.0716113
0.07514
0.0785194
0.0817453
0.0848157
0.0877302
0.0904897
0.0930962
0.0955526
0.0978621
0.100028
0.102055
0.103944
0.1057
0.107323
0.108815
0.110175
0.111398
0.112479
0.113407
0.114168
0.114739
0.115082
0.115162
0.114918
0.114261
0.113067
0.111107
0.101973
0.0927673
0.0836196
0.0746388
0.0659148
0.0575233
0.0495285
0.0419869
0.0349495
0.0284652
0.0225811
0.0173509
0.0128275
0.00904575
0.00603199
0.00377797
0.0022175
0.00122412
0.000640598
0.00032071
0.0001553
7.34972e-05
3.41133e-05
1.55669e-05
6.99731e-06
3.10324e-06
1.35983e-06
5.89528e-07
2.53132e-07
1.07714e-07
4.53978e-08
1.88883e-08
7.68605e-09
2.98172e-09
1.01272e-09
1.79128e-10
3.92703e-07
1.71646e-06
3.9437e-06
7.67802e-06
1.39069e-05
2.42264e-05
4.1179e-05
6.87487e-05
0.000113059
0.000183309
0.000292965
0.000461118
0.000713835
0.00108509
0.0016167
0.00235662
0.00335512
0.00465922
0.00630632
0.00831912
0.010703
0.0134463
0.0165234
0.0198982
0.0235281
0.0273673
0.0313691
0.0354877
0.0396798
0.0439052
0.0481277
0.0523149
0.056439
0.0604762
0.0644071
0.0682159
0.0718902
0.0754205
0.0788003
0.0820255
0.085094
0.0880055
0.0907609
0.0933623
0.0958127
0.0981151
0.100273
0.102291
0.10417
0.105915
0.107526
0.109005
0.110349
0.111555
0.112617
0.113523
0.114257
0.114795
0.115094
0.115123
0.114805
0.114041
0.112686
0.109438
0.100306
0.0911084
0.0819849
0.0730453
0.0643789
0.0560594
0.0481493
0.0407034
0.0337716
0.0274007
0.0216389
0.016535
0.0121364
0.00849076
0.00561088
0.00348108
0.00202503
0.00110942
0.000577177
0.000287717
0.00013901
6.56865e-05
3.04559e-05
1.38879e-05
6.23968e-06
2.76643e-06
1.21204e-06
5.25416e-07
2.25595e-07
9.59917e-08
4.04527e-08
1.6827e-08
6.84569e-09
2.65598e-09
9.0328e-10
1.59895e-10
3.96588e-07
1.73345e-06
3.98279e-06
7.75438e-06
1.40459e-05
2.44701e-05
4.15964e-05
6.94508e-05
0.000114221
0.000185203
0.000295999
0.000465888
0.000721178
0.00109613
0.00163286
0.0023796
0.00338681
0.0047015
0.00636094
0.00838748
0.0107861
0.0135447
0.0166373
0.0200275
0.0236723
0.0275258
0.031541
0.0356722
0.0398758
0.0441117
0.0483435
0.0525388
0.0566698
0.0607127
0.0646481
0.0684603
0.0721367
0.0756681
0.0790479
0.0822719
0.0853383
0.0882467
0.0909981
0.0935947
0.0960393
0.0983352
0.100486
0.102495
0.104366
0.106101
0.107702
0.10917
0.110503
0.111697
0.112747
0.113641
0.114366
0.114898
0.1152
0.115244
0.114972
0.114303
0.113135
0.108023
0.0988599
0.0896647
0.0805663
0.0716688
0.0630578
0.0548049
0.0469712
0.0396105
0.0327734
0.026511
0.0208714
0.0158773
0.011577
0.00803159
0.00526454
0.00323971
0.00187041
0.00101823
0.000527145
0.000261824
0.000126254
5.95778e-05
2.75964e-05
1.25751e-05
5.64697e-06
2.50275e-06
1.09624e-06
4.75134e-07
2.03976e-07
8.67802e-08
3.65635e-08
1.52046e-08
6.18391e-09
2.3994e-09
8.17132e-10
1.44753e-10
4.00003e-07
1.74837e-06
4.01715e-06
7.8215e-06
1.41682e-05
2.46845e-05
4.19636e-05
7.00687e-05
0.000115244
0.00018687
0.000298671
0.000470089
0.000727646
0.00110585
0.00164709
0.00239984
0.00341469
0.00473867
0.00640891
0.00844748
0.010859
0.013631
0.0167371
0.0201406
0.0237984
0.0276643
0.0316912
0.0358331
0.0400467
0.0442915
0.0485311
0.0527333
0.05687
0.0609176
0.0648566
0.0686714
0.0723494
0.0758814
0.0792608
0.0824835
0.0855477
0.0884531
0.0912007
0.0937926
0.0962319
0.0985218
0.100666
0.102668
0.104531
0.106258
0.10785
0.109308
0.110631
0.111816
0.112857
0.113744
0.114463
0.114993
0.115301
0.115361
0.115119
0.114505
0.113428
0.106756
0.097602
0.088427
0.0793598
0.0705039
0.0619439
0.0537503
0.045983
0.0386965
0.0319427
0.0257714
0.0201993
0.0152986
0.0111143
0.00766735
0.00498642
0.00304648
0.00174765
0.000946359
0.000487929
0.000241604
0.00011631
5.48188e-05
2.53693e-05
1.15524e-05
5.18505e-06
2.29713e-06
1.00588e-06
4.35863e-07
1.87078e-07
7.95743e-08
3.35188e-08
1.39337e-08
5.66528e-09
2.19829e-09
7.49653e-10
1.32889e-10
4.02911e-07
1.76109e-06
4.04641e-06
7.87869e-06
1.42723e-05
2.48672e-05
4.22767e-05
7.05955e-05
0.000116116
0.000188293
0.000300949
0.000473672
0.000733161
0.00111414
0.00165922
0.00241707
0.00343842
0.0047703
0.0064497
0.00849847
0.0109209
0.0137042
0.0168217
0.0202364
0.0239052
0.0277814
0.0318181
0.0359691
0.0401909
0.0444431
0.0486892
0.052897
0.0570383
0.0610897
0.0650315
0.0688482
0.0725273
0.0760594
0.0794382
0.0826596
0.0857216
0.0886241
0.0913681
0.0939559
0.0963903
0.0986748
0.100813
0.102808
0.104664
0.106383
0.107967
0.109417
0.110731
0.111906
0.112938
0.113815
0.114525
0.115048
0.115349
0.115403
0.115156
0.114533
0.113438
0.105736
0.0965814
0.0874172
0.0783721
0.0695484
0.0610295
0.0528855
0.045177
0.037955
0.0312644
0.025147
0.019648
0.0148245
0.0107202
0.00736807
0.00476908
0.00289483
0.00165146
0.000890352
0.000457499
0.000225958
0.000108625
5.11432e-05
2.36493e-05
1.07625e-05
4.82818e-06
2.1382e-06
9.35995e-07
4.05476e-07
1.73995e-07
7.39918e-08
3.11587e-08
1.29482e-08
5.26299e-09
2.04227e-09
6.97343e-10
1.23688e-10
4.05281e-07
1.77145e-06
4.07027e-06
7.9253e-06
1.43572e-05
2.50163e-05
4.2532e-05
7.10252e-05
0.000116828
0.000189453
0.000302808
0.000476595
0.000737658
0.00112089
0.0016691
0.0024311
0.00345773
0.00479602
0.00648286
0.00853989
0.0109711
0.0137636
0.0168903
0.0203141
0.0239916
0.0278763
0.0319208
0.036079
0.0403074
0.0445655
0.0488167
0.0530289
0.0571738
0.061228
0.0651719
0.0689899
0.0726697
0.0762017
0.0795798
0.0827998
0.0858598
0.0887597
0.0915005
0.0940846
0.0965147
0.0987943
0.100927
0.102916
0.104766
0.106478
0.108054
0.109495
0.110801
0.111967
0.112988
0.113855
0.114553
0.115065
0.115356
0.115403
0.115156
0.114549
0.11351
0.105043
0.0958242
0.0866395
0.0776004
0.0687999
0.0603157
0.0522135
0.0445462
0.0373649
0.0307161
0.0246505
0.019211
0.0144496
0.010409
0.00712134
0.00459309
0.00277773
0.00157748
0.000847366
0.000434241
0.000214036
0.000102778
4.83495e-05
2.2343e-05
1.01628e-05
4.55729e-06
2.01757e-06
8.82951e-07
3.82408e-07
1.64061e-07
6.97524e-08
2.93662e-08
1.21996e-08
4.95742e-09
1.92379e-09
6.57646e-10
1.167e-10
4.07085e-07
1.77934e-06
4.08843e-06
7.96081e-06
1.44219e-05
2.51298e-05
4.27265e-05
7.13526e-05
0.000117371
0.000190337
0.000304224
0.00047882
0.000741082
0.00112604
0.00167662
0.00244178
0.00347241
0.00481556
0.00650803
0.00857131
0.0110092
0.0138086
0.0169422
0.0203729
0.0240571
0.027948
0.0319984
0.0361621
0.0403954
0.0446579
0.0489129
0.0531283
0.0572759
0.0613321
0.0652773
0.0690962
0.0727762
0.0763081
0.0796853
0.0829041
0.0859624
0.08886
0.0915982
0.094179
0.0966055
0.098881
0.101009
0.102993
0.104837
0.106543
0.108112
0.109545
0.110842
0.111998
0.113007
0.113861
0.114545
0.115039
0.115307
0.115328
0.115046
0.11439
0.113286
0.10445
0.0952235
0.0860415
0.0770135
0.0682303
0.0597676
0.0516887
0.0440519
0.0369069
0.0303007
0.0242786
0.0188845
0.0141704
0.0101786
0.00693974
0.00445817
0.0026884
0.00152275
0.000815793
0.000417159
0.000205289
9.84926e-05
4.63041e-05
2.13875e-05
9.72464e-06
4.35955e-06
1.92959e-06
8.4429e-07
3.65605e-07
1.56829e-07
6.66672e-08
2.80622e-08
1.16552e-08
4.73532e-09
1.83772e-09
6.28831e-10
1.11622e-10
4.083e-07
1.78465e-06
4.10066e-06
7.98472e-06
1.44655e-05
2.52062e-05
4.28575e-05
7.15731e-05
0.000117735
0.000190931
0.000305176
0.000480316
0.000743381
0.00112949
0.00168166
0.00244893
0.00348225
0.00482865
0.00652489
0.00859235
0.0110347
0.0138387
0.016977
0.0204123
0.0241009
0.0279961
0.0320505
0.0362178
0.0404544
0.0447198
0.0489773
0.0531947
0.0573439
0.0614013
0.0653474
0.0691667
0.0728469
0.0763784
0.079755
0.0829728
0.0860297
0.0889257
0.0916617
0.0942402
0.0966639
0.0989362
0.101061
0.103041
0.10488
0.10658
0.108144
0.10957
0.110859
0.112006
0.113005
0.113845
0.114513
0.114987
0.11523
0.11522
0.114897
0.114188
0.113018
0.104003
0.0947811
0.0856069
0.0765915
0.067825
0.0593826
0.0513278
0.0437165
0.0365985
0.0300208
0.0240285
0.0186655
0.0139838
0.0100251
0.00681962
0.00436983
0.00262789
0.00148579
0.000794711
0.00040581
0.000199481
9.56501e-05
4.49489e-05
2.07553e-05
9.43498e-06
4.22894e-06
1.87151e-06
8.18776e-07
3.5452e-07
1.5206e-07
6.46336e-08
2.72031e-08
1.12968e-08
4.58922e-09
1.78115e-09
6.09912e-10
1.08281e-10
4.08905e-07
1.78729e-06
4.10673e-06
7.99654e-06
1.4487e-05
2.52438e-05
4.29216e-05
7.16806e-05
0.000117913
0.000191219
0.000305636
0.000481037
0.000744487
0.00113114
0.00168408
0.00245236
0.00348696
0.00483493
0.00653299
0.00860248
0.011047
0.0138533
0.0169939
0.0204315
0.0241223
0.0280196
0.0320759
0.0362451
0.0404834
0.0447502
0.049009
0.0532274
0.0573774
0.0614353
0.0653818
0.0692013
0.0728815
0.0764129
0.0797891
0.0830063
0.0860625
0.0889575
0.0916924
0.0942695
0.0966916
0.0989622
0.101085
0.103062
0.104899
0.106596
0.108156
0.109578
0.110862
0.112003
0.112995
0.113828
0.114485
0.114947
0.115174
0.115146
0.1148
0.114066
0.112871
0.103774
0.0945477
0.0853775
0.0763703
0.0676145
0.0591843
0.051143
0.0435458
0.0364425
0.02988
0.0239034
0.0185565
0.0138914
0.00994965
0.00676092
0.00432701
0.00259886
0.00146749
0.000784249
0.000400201
0.000196624
9.42646e-05
4.42929e-05
2.04505e-05
9.29569e-06
4.16612e-06
1.84352e-06
8.0645e-07
3.49153e-07
1.49745e-07
6.36444e-08
2.67843e-08
1.11218e-08
4.51774e-09
1.75343e-09
6.00632e-10
1.0663e-10
4.0891e-07
1.78732e-06
4.10678e-06
7.99664e-06
1.44871e-05
2.52441e-05
4.29221e-05
7.16814e-05
0.000117914
0.000191221
0.00030564
0.000481042
0.000744494
0.00113116
0.0016841
0.00245238
0.00348699
0.00483497
0.00653304
0.00860254
0.0110471
0.0138534
0.016994
0.0204316
0.0241224
0.0280197
0.032076
0.0362452
0.0404835
0.0447503
0.0490091
0.0532275
0.0573775
0.0614354
0.0653819
0.0692014
0.0728816
0.076413
0.0797892
0.0830064
0.0860626
0.0889576
0.0916926
0.0942697
0.0966918
0.0989623
0.101085
0.103063
0.104899
0.106596
0.108156
0.109579
0.110863
0.112004
0.112996
0.113828
0.114486
0.114948
0.115175
0.115146
0.114801
0.114066
0.11287
0.103773
0.0945458
0.0853756
0.0763685
0.0676128
0.0591828
0.0511416
0.0435445
0.0364413
0.029879
0.0239025
0.0185557
0.0138907
0.00994903
0.0067604
0.0043266
0.00259857
0.00146731
0.000784149
0.00040015
0.000196598
9.42519e-05
4.42868e-05
2.04477e-05
9.29438e-06
4.16554e-06
1.84326e-06
8.06337e-07
3.49104e-07
1.49724e-07
6.36357e-08
2.67807e-08
1.11203e-08
4.51715e-09
1.75323e-09
6.0058e-10
1.06603e-10
4.08316e-07
1.78472e-06
4.10081e-06
7.98501e-06
1.4466e-05
2.52071e-05
4.2859e-05
7.15755e-05
0.000117739
0.000190938
0.000305186
0.000480331
0.000743404
0.00112952
0.00168171
0.002449
0.00348234
0.00482877
0.00652504
0.00859253
0.0110349
0.0138389
0.0169773
0.0204126
0.0241012
0.0279964
0.0320508
0.0362181
0.0404547
0.0447201
0.0489777
0.0531951
0.0573443
0.0614017
0.0653478
0.0691671
0.0728472
0.0763788
0.0797554
0.0829732
0.0860301
0.0889261
0.0916622
0.0942406
0.0966644
0.0989367
0.101061
0.103042
0.104881
0.106581
0.108145
0.109571
0.11086
0.112007
0.113006
0.113847
0.114515
0.114989
0.115231
0.115221
0.114897
0.114186
0.113016
0.104
0.0947766
0.0856026
0.0765871
0.0678209
0.0593787
0.0513242
0.0437131
0.0365953
0.0300179
0.0240258
0.018663
0.0139816
0.0100232
0.00681801
0.00436861
0.00262706
0.00148531
0.000794452
0.000405682
0.00019942
9.56214e-05
4.49357e-05
2.07492e-05
9.43226e-06
4.22772e-06
1.87097e-06
8.1854e-07
3.54418e-07
1.52015e-07
6.46146e-08
2.71951e-08
1.12935e-08
4.58788e-09
1.78069e-09
6.09798e-10
1.08207e-10
4.07112e-07
1.77946e-06
4.0887e-06
7.96133e-06
1.44229e-05
2.51314e-05
4.27293e-05
7.13573e-05
0.000117378
0.000190349
0.000304244
0.00047885
0.000741127
0.0011261
0.00167672
0.00244191
0.00347259
0.00481579
0.00650832
0.00857165
0.0110096
0.013809
0.0169427
0.0203735
0.0240577
0.0279486
0.031999
0.0361628
0.0403961
0.0446585
0.0489136
0.0531289
0.0572765
0.0613327
0.065278
0.0690969
0.0727769
0.0763088
0.0796861
0.0829048
0.0859631
0.0888608
0.0915989
0.0941798
0.0966063
0.0988818
0.10101
0.102994
0.104838
0.106544
0.108113
0.109547
0.110843
0.111999
0.113009
0.113863
0.114546
0.115039
0.115307
0.115326
0.115042
0.114385
0.113283
0.104446
0.0952174
0.0860345
0.0770069
0.0682241
0.0597617
0.0516832
0.0440468
0.0369021
0.0302962
0.0242743
0.0188805
0.0141668
0.0101753
0.00693691
0.0044559
0.00268675
0.0015218
0.000815296
0.000416915
0.000205173
9.84385e-05
4.62792e-05
2.13762e-05
9.71956e-06
4.35731e-06
1.92861e-06
8.43864e-07
3.65423e-07
1.56751e-07
6.66344e-08
2.80484e-08
1.16495e-08
4.73306e-09
1.83696e-09
6.28643e-10
1.11501e-10
4.0532e-07
1.77162e-06
4.07066e-06
7.92606e-06
1.43586e-05
2.50187e-05
4.25361e-05
7.1032e-05
0.000116839
0.000189471
0.000302836
0.000476638
0.000737723
0.00112099
0.00166924
0.0024313
0.00345799
0.00479635
0.00648328
0.00854038
0.0109717
0.0137642
0.016891
0.0203149
0.0239925
0.0278771
0.0319217
0.03608
0.0403084
0.0445664
0.0488177
0.0530298
0.0571748
0.061229
0.0651729
0.0689909
0.0726707
0.0762028
0.0795808
0.0828008
0.0858609
0.0887607
0.0915016
0.0940856
0.0965158
0.0987954
0.100928
0.102918
0.104767
0.106479
0.108056
0.109497
0.110803
0.111969
0.11299
0.113857
0.114556
0.115067
0.115357
0.115403
0.115154
0.114545
0.113507
0.105034
0.095814
0.0866289
0.07759
0.0687901
0.0603066
0.0522049
0.0445384
0.0373578
0.0307096
0.0246445
0.0192055
0.0144446
0.0104047
0.00711764
0.00459018
0.00277606
0.00157644
0.000846794
0.000433943
0.000213889
0.000102708
4.83169e-05
2.23281e-05
1.01561e-05
4.55433e-06
2.01628e-06
8.82392e-07
3.8217e-07
1.6396e-07
6.97097e-08
2.93482e-08
1.21921e-08
4.95449e-09
1.92282e-09
6.57409e-10
1.16538e-10
4.02962e-07
1.76131e-06
4.04693e-06
7.8797e-06
1.42741e-05
2.48704e-05
4.22821e-05
7.06045e-05
0.000116131
0.000188316
0.000300987
0.00047373
0.000733248
0.00111427
0.0016594
0.00241732
0.00343876
0.00477074
0.00645025
0.00849913
0.0109216
0.013705
0.0168226
0.0202375
0.0239063
0.0277826
0.0318193
0.0359704
0.0401922
0.0444444
0.0486905
0.0528983
0.0570397
0.0610911
0.0650329
0.0688495
0.0725287
0.0760608
0.0794396
0.0826609
0.085723
0.0886254
0.0913695
0.0939572
0.0963917
0.0986761
0.100814
0.10281
0.104666
0.106385
0.107969
0.109419
0.110733
0.111909
0.11294
0.113818
0.114529
0.115051
0.115352
0.115405
0.115157
0.114531
0.113436
0.105722
0.0965653
0.0874009
0.0783566
0.0695341
0.0610166
0.0528741
0.045167
0.0379459
0.0312557
0.0251393
0.0196413
0.014819
0.0107158
0.00736513
0.00476732
0.00289335
0.00165045
0.000889733
0.000457154
0.000225782
0.00010854
5.11031e-05
2.3631e-05
1.07542e-05
4.82452e-06
2.13661e-06
9.3531e-07
4.05185e-07
1.73872e-07
7.39399e-08
3.1137e-08
1.29392e-08
5.25947e-09
2.04112e-09
6.97065e-10
1.2349e-10
4.00068e-07
1.74866e-06
4.0178e-06
7.82278e-06
1.41705e-05
2.46885e-05
4.19704e-05
7.008e-05
0.000115263
0.0001869
0.000298718
0.000470162
0.000727755
0.00110601
0.00164732
0.00240015
0.00341511
0.00473922
0.0064096
0.00844831
0.0108599
0.0136321
0.0167383
0.0201419
0.0237998
0.0276658
0.0316927
0.0358347
0.0400483
0.0442931
0.0485328
0.052735
0.0568717
0.0609194
0.0648584
0.0686731
0.0723512
0.0758831
0.0792625
0.0824852
0.0855494
0.0884547
0.0912023
0.0937942
0.0962334
0.0985233
0.100667
0.102669
0.104532
0.106259
0.107851
0.109309
0.110633
0.111817
0.112858
0.113745
0.114463
0.114993
0.1153
0.115359
0.115117
0.114503
0.11343
0.106741
0.0975857
0.0884106
0.0793437
0.0704884
0.061929
0.0537358
0.0459688
0.0386831
0.0319309
0.0257614
0.0201909
0.0152917
0.0111091
0.0076636
0.00498332
0.00304428
0.0017462
0.000945494
0.000487463
0.000241371
0.000116199
5.47673e-05
2.5346e-05
1.1542e-05
5.18052e-06
2.29518e-06
1.00505e-06
4.35514e-07
1.86932e-07
7.95134e-08
3.34934e-08
1.39233e-08
5.66123e-09
2.19697e-09
7.49338e-10
1.32659e-10
3.96668e-07
1.73379e-06
3.98359e-06
7.75593e-06
1.40487e-05
2.4475e-05
4.16047e-05
6.94647e-05
0.000114243
0.000185239
0.000296056
0.000465977
0.000721312
0.00109633
0.00163314
0.00237999
0.00338733
0.00470217
0.00636177
0.00838849
0.0107872
0.013546
0.0166388
0.0200291
0.0236741
0.0275276
0.0315429
0.0356741
0.0398778
0.0441138
0.0483455
0.0525409
0.0566719
0.0607149
0.0646503
0.0684624
0.0721389
0.0756702
0.07905
0.082274
0.0853403
0.0882487
0.091
0.0935965
0.096041
0.0983369
0.100488
0.102497
0.104368
0.106103
0.107704
0.109171
0.110504
0.111698
0.112747
0.113642
0.114366
0.114898
0.1152
0.115246
0.114975
0.114309
0.113145
0.107997
0.0988359
0.0896424
0.0805454
0.0716491
0.0630394
0.0547879
0.0469557
0.0395967
0.0327609
0.0264998
0.0208617
0.0158692
0.0115709
0.00802593
0.0052599
0.00323636
0.00186825
0.00101699
0.000526497
0.000261509
0.000126107
5.95106e-05
2.75665e-05
1.2562e-05
5.64136e-06
2.50038e-06
1.09525e-06
4.74721e-07
2.03806e-07
8.67101e-08
3.65346e-08
1.51928e-08
6.17938e-09
2.39794e-09
8.16783e-10
1.44496e-10
3.92797e-07
1.71687e-06
3.94465e-06
7.67986e-06
1.39102e-05
2.42322e-05
4.11888e-05
6.87652e-05
0.000113086
0.000183352
0.000293033
0.000461224
0.000713994
0.00108532
0.00161703
0.00235708
0.00335574
0.00466002
0.00630732
0.00832032
0.0107044
0.0134479
0.0165251
0.0199001
0.0235302
0.0273695
0.0313713
0.03549
0.0396822
0.0439077
0.0481302
0.0523174
0.0564415
0.0604788
0.0644097
0.0682185
0.0718928
0.0754231
0.0788029
0.082028
0.0850964
0.0880078
0.0907631
0.0933645
0.0958147
0.0981171
0.100275
0.102292
0.104172
0.105916
0.107528
0.109006
0.11035
0.111556
0.112618
0.113524
0.114258
0.114796
0.115097
0.115126
0.11481
0.114045
0.112683
0.109398
0.100274
0.0910798
0.0819587
0.073021
0.0643561
0.0560379
0.0481291
0.0406844
0.0337538
0.0273844
0.0216248
0.0165222
0.0121239
0.00848009
0.00560304
0.0034758
0.00202182
0.00110765
0.000576282
0.000287294
0.000138815
6.55999e-05
3.04181e-05
1.38717e-05
6.23285e-06
2.7636e-06
1.21088e-06
5.2494e-07
2.25402e-07
9.59134e-08
4.04209e-08
1.68142e-08
6.84079e-09
2.65441e-09
9.02908e-10
1.59617e-10
3.88491e-07
1.69805e-06
3.90134e-06
7.59528e-06
1.37563e-05
2.39624e-05
4.07271e-05