/*--------------------------------*- C++ -*----------------------------------*\
  =========                 |
  \\      /  F ield         | OpenFOAM: The Open Source CFD Toolbox
   \\    /   O peration     | Website:  https://openfoam.org
    \\  /    A nd           | Version:  8
     \\/     M anipulation  |
\*---------------------------------------------------------------------------*/
FoamFile
{
    version     2.0;
    format      ascii;
    class       volScalarField;
    location    "200/fluid";
    object      N2;
}
// * * * * * * * * * * * * * * * * * * * * * * * * * * * * * * * * * * * * * //

dimensions      [0 0 0 0 0 0 0];

internalField   nonuniform List<scalar> 
4000
(
1.96518e-06
8.58001e-06
1.96691e-05
3.81766e-05
6.89059e-05
0.000119616
0.000202696
0.000337651
0.000554699
0.000899752
0.00144097
0.00227675
0.00354437
0.00542738
0.00815858
0.0120144
0.0172971
0.0243033
0.0332853
0.0444132
0.0577521
0.0732572
0.0907887
0.110135
0.131041
0.153226
0.176408
0.200313
0.224683
0.249282
0.273898
0.298345
0.322461
0.346113
0.369189
0.3916
0.413276
0.434165
0.454229
0.473444
0.491798
0.509289
0.525923
0.541713
0.556676
0.570832
0.584208
0.59683
0.608727
0.619928
0.630463
0.640364
0.64966
0.658381
0.666557
0.674217
0.681388
0.688098
0.694373
0.700238
0.705709
0.710728
0.715508
0.719969
0.724126
0.728012
0.731632
0.735181
0.738578
0.741828
0.744935
0.747898
0.750714
0.753379
0.755887
0.758228
0.760393
0.762363
0.764134
0.765683
0.766988
0.768031
0.768806
0.769332
0.769654
0.769832
0.769922
0.769965
0.769985
0.769993
0.769997
0.769999
0.769999
0.77
0.77
0.77
0.77
0.77
0.77
0.77
2.00087e-06
8.74123e-06
2.00613e-05
3.89964e-05
7.05072e-05
0.000122616
0.00020813
0.000347204
0.000570991
0.000926678
0.00148401
0.00234311
0.00364278
0.00556733
0.00834895
0.0122615
0.0176027
0.0246634
0.0336901
0.0448498
0.0582069
0.0737199
0.0912537
0.110603
0.131515
0.153716
0.176923
0.200863
0.225276
0.249923
0.27459
0.299088
0.323255
0.346954
0.370072
0.392519
0.414226
0.435139
0.45522
0.474447
0.492806
0.510298
0.526928
0.542709
0.55766
0.571801
0.585158
0.59776
0.609634
0.620811
0.631322
0.641196
0.650466
0.659161
0.667311
0.674944
0.68209
0.688775
0.695025
0.700868
0.706322
0.711322
0.71608
0.720513
0.724654
0.728519
0.732141
0.735684
0.73908
0.742332
0.745442
0.748407
0.751225
0.75389
0.756394
0.758728
0.760874
0.762828
0.764566
0.76607
0.767316
0.768289
0.76899
0.769448
0.769718
0.769864
0.769937
0.769971
0.769987
0.769994
0.769998
0.769999
0.77
0.77
0.77
0.77
0.77
0.77
0.77
0.77
2.05454e-06
8.9791e-06
2.06217e-05
4.01215e-05
7.2609e-05
0.000126376
0.000214648
0.000358191
0.00058903
0.000955518
0.00152887
0.00241093
0.00374224
0.00570862
0.00854307
0.0125191
0.0179321
0.0250694
0.0341727
0.0454041
0.058825
0.0743928
0.0919737
0.111365
0.132319
0.154563
0.177819
0.201814
0.226288
0.251001
0.275738
0.300307
0.324545
0.348311
0.371492
0.393997
0.415754
0.43671
0.456825
0.476077
0.494453
0.511953
0.528584
0.544359
0.559296
0.573418
0.586752
0.599325
0.611166
0.622308
0.63278
0.642615
0.651843
0.660495
0.668601
0.67619
0.68329
0.689929
0.696131
0.701922
0.707315
0.712246
0.716958
0.721357
0.725466
0.72929
0.732963
0.736501
0.73989
0.743134
0.746234
0.749186
0.751986
0.754628
0.757103
0.759399
0.761493
0.763389
0.765058
0.76648
0.767636
0.768518
0.769137
0.769533
0.769763
0.769885
0.769946
0.769976
0.769989
0.769995
0.769998
0.769999
0.77
0.77
0.77
0.77
0.77
0.77
0.77
0.77
2.10607e-06
9.20478e-06
2.11423e-05
4.11391e-05
7.4456e-05
0.000129588
0.000220067
0.000367114
0.0006034
0.000978168
0.00156381
0.00246364
0.00381992
0.00582027
0.00869918
0.012731
0.018211
0.025425
0.0346122
0.0459318
0.0594423
0.0750991
0.0927676
0.112245
0.133283
0.155611
0.178951
0.20303
0.227588
0.252386
0.277207
0.301859
0.326176
0.350018
0.37327
0.395838
0.417651
0.438655
0.458809
0.47809
0.496487
0.513998
0.530631
0.5464
0.561323
0.575425
0.588731
0.601271
0.613074
0.624173
0.6346
0.644385
0.653562
0.662161
0.670213
0.677748
0.684795
0.691381
0.697534
0.70328
0.708599
0.713497
0.718169
0.72252
0.726575
0.73031
0.733985
0.737505
0.740874
0.744095
0.747168
0.75009
0.752854
0.755454
0.757879
0.760117
0.762146
0.763966
0.765552
0.766884
0.767946
0.768737
0.769278
0.769615
0.769806
0.769907
0.769956
0.76998
0.769991
0.769996
0.769998
0.769999
0.77
0.77
0.77
0.77
0.77
0.77
0.77
0.77
2.15367e-06
9.41282e-06
2.16205e-05
4.20709e-05
7.61442e-05
0.000132525
0.000225043
0.000375365
0.000616823
0.000999597
0.00159735
0.002515
0.00389677
0.00593233
0.00885808
0.0129496
0.0185025
0.0258012
0.0350828
0.0465033
0.0601182
0.0758804
0.0936537
0.113234
0.134375
0.156804
0.180244
0.204422
0.229077
0.253971
0.278885
0.303626
0.328028
0.351949
0.375273
0.397907
0.419778
0.440829
0.461022
0.480333
0.49875
0.516272
0.532906
0.548667
0.563575
0.577653
0.590929
0.603432
0.615193
0.626244
0.636619
0.64635
0.655468
0.664007
0.671996
0.679468
0.68645
0.692974
0.699066
0.704755
0.709944
0.714778
0.719397
0.723699
0.727713
0.731429
0.735082
0.738577
0.741919
0.74511
0.748147
0.751028
0.753745
0.75629
0.758654
0.760822
0.762782
0.764519
0.766015
0.767253
0.768221
0.768925
0.769395
0.769681
0.76984
0.769923
0.769964
0.769984
0.769993
0.769997
0.769999
0.769999
0.77
0.77
0.77
0.77
0.77
0.77
0.77
0.77
2.19667e-06
9.6005e-06
2.2051e-05
4.29071e-05
7.76552e-05
0.000135149
0.000229481
0.000382723
0.000628804
0.00101876
0.00162745
0.00256138
0.00396669
0.00603529
0.00900585
0.0131559
0.0187818
0.026168
0.0355497
0.04708
0.0608112
0.0766931
0.0945869
0.114287
0.135545
0.15809
0.181642
0.205928
0.23069
0.255684
0.280694
0.305527
0.330013
0.354013
0.377408
0.400104
0.422028
0.443125
0.463353
0.48269
0.501123
0.518652
0.535285
0.551035
0.565924
0.579975
0.593217
0.60568
0.617395
0.628396
0.638715
0.648387
0.657443
0.665916
0.673838
0.681239
0.68815
0.694599
0.700614
0.706221
0.711296
0.716137
0.720665
0.724898
0.72885
0.732586
0.736203
0.739663
0.742968
0.746119
0.749113
0.751946
0.75461
0.757097
0.759396
0.761486
0.763371
0.765026
0.766434
0.767582
0.768462
0.769087
0.769493
0.769736
0.769869
0.769937
0.769971
0.769987
0.769994
0.769997
0.769999
0.77
0.77
0.77
0.77
0.77
0.77
0.77
0.77
0.77
2.2363e-06
9.77352e-06
2.24481e-05
4.36798e-05
7.90542e-05
0.000137585
0.000233619
0.000389617
0.000640095
0.00103695
0.00165623
0.00260603
0.00403452
0.00613593
0.0091513
0.0133602
0.0190603
0.0265358
0.0360204
0.0476646
0.0615172
0.0775248
0.0955459
0.115373
0.136756
0.159422
0.183092
0.207492
0.232361
0.257458
0.282565
0.307487
0.332056
0.35613
0.379592
0.402346
0.424319
0.445455
0.465714
0.485071
0.503516
0.521048
0.537674
0.55341
0.568276
0.582297
0.595503
0.607922
0.619589
0.630536
0.640798
0.650408
0.659399
0.667805
0.675658
0.682988
0.689826
0.696199
0.702134
0.707634
0.712657
0.717474
0.721952
0.726119
0.729946
0.733697
0.737281
0.740706
0.743974
0.747083
0.750031
0.752813
0.755422
0.757848
0.760081
0.7621
0.763909
0.765483
0.766807
0.767868
0.768666
0.769221
0.769574
0.76978
0.769891
0.769948
0.769976
0.769989
0.769995
0.769998
0.769999
0.77
0.77
0.77
0.77
0.77
0.77
0.77
0.77
0.77
2.27314e-06
9.93442e-06
2.28175e-05
4.4399e-05
8.03578e-05
0.000139859
0.000237487
0.000396076
0.000650704
0.00105409
0.00168345
0.00264846
0.00409929
0.00623253
0.00929173
0.0135586
0.0193324
0.0268973
0.0364855
0.0482451
0.0622215
0.0783576
0.0965091
0.116466
0.137976
0.160766
0.184555
0.209068
0.234045
0.259243
0.284443
0.309451
0.334098
0.358242
0.381764
0.40457
0.426586
0.447755
0.468038
0.487411
0.505862
0.523392
0.540007
0.555724
0.570564
0.584552
0.597718
0.610092
0.621709
0.632601
0.642804
0.652352
0.66128
0.66962
0.677406
0.684669
0.69144
0.697749
0.703623
0.708989
0.713935
0.718695
0.72312
0.727239
0.731022
0.734742
0.738294
0.741684
0.744913
0.74798
0.750882
0.753614
0.756167
0.758533
0.7607
0.762657
0.764391
0.765888
0.767132
0.768114
0.768838
0.769331
0.769638
0.769815
0.769909
0.769957
0.76998
0.769991
0.769996
0.769998
0.769999
0.77
0.77
0.77
0.77
0.77
0.77
0.77
0.77
0.77
2.30768e-06
1.00853e-05
2.31642e-05
4.50747e-05
8.15844e-05
0.000142002
0.000241141
0.000402193
0.000660781
0.00107043
0.00170948
0.00268917
0.00416166
0.00632587
0.00942785
0.0137516
0.0195976
0.0272504
0.036941
0.0488146
0.0629135
0.079177
0.0974578
0.117543
0.139179
0.162091
0.185996
0.21062
0.235701
0.260996
0.286284
0.311373
0.336092
0.360299
0.383875
0.406726
0.428779
0.449976
0.470277
0.489659
0.508112
0.525634
0.542234
0.557929
0.57274
0.586693
0.599817
0.612145
0.62371
0.634548
0.644692
0.654179
0.663043
0.671318
0.679039
0.686236
0.692944
0.699193
0.705014
0.710272
0.71516
0.719842
0.724201
0.728258
0.732035
0.735717
0.739233
0.742586
0.745776
0.748801
0.751658
0.75434
0.756841
0.759151
0.761253
0.763147
0.764814
0.76624
0.767411
0.768322
0.768981
0.769421
0.76969
0.769842
0.769923
0.769964
0.769983
0.769992
0.769997
0.769998
0.769999
0.77
0.77
0.77
0.77
0.77
0.77
0.77
0.77
0.77
2.34006e-06
1.02268e-05
2.34895e-05
4.57093e-05
8.27374e-05
0.000144019
0.000244586
0.00040797
0.000670313
0.00108591
0.00173421
0.00272794
0.00422118
0.00641514
0.00955831
0.0139369
0.0198528
0.0275908
0.0373805
0.0493648
0.0635825
0.0799697
0.0983757
0.118586
0.140343
0.163372
0.187389
0.212118
0.237297
0.262682
0.288053
0.313215
0.338
0.362263
0.385887
0.408778
0.43086
0.452078
0.472393
0.49178
0.510229
0.52774
0.544323
0.559993
0.574772
0.588688
0.601771
0.614052
0.625567
0.63635
0.646438
0.655864
0.664666
0.672877
0.680531
0.687661
0.694298
0.700472
0.706209
0.711387
0.716219
0.720853
0.72516
0.729135
0.732946
0.736596
0.74008
0.743398
0.746551
0.749537
0.752352
0.754989
0.757441
0.759698
0.761742
0.763578
0.765183
0.766544
0.767649
0.768496
0.769099
0.769494
0.769732
0.769864
0.769934
0.769969
0.769986
0.769993
0.769997
0.769999
0.769999
0.77
0.77
0.77
0.77
0.77
0.77
0.77
0.77
0.77
2.3703e-06
1.0359e-05
2.37935e-05
4.63025e-05
8.38162e-05
0.000145908
0.000247816
0.000413395
0.000679281
0.0011005
0.00175754
0.00276458
0.00427751
0.00649976
0.00968212
0.0141129
0.0200953
0.0279144
0.0377986
0.0498883
0.064219
0.0807237
0.0992486
0.119576
0.141449
0.164588
0.188709
0.213537
0.238806
0.264275
0.289721
0.31495
0.339793
0.364105
0.387771
0.410694
0.432802
0.454036
0.474359
0.493747
0.512189
0.529687
0.546249
0.561893
0.576641
0.59052
0.603561
0.615797
0.627263
0.637994
0.648026
0.657396
0.666139
0.67429
0.681883
0.68895
0.695522
0.701629
0.707283
0.712397
0.717297
0.721858
0.7261
0.729981
0.733774
0.737393
0.740843
0.744127
0.747244
0.750192
0.752967
0.755561
0.757968
0.760179
0.762175
0.763956
0.765503
0.766804
0.76785
0.768641
0.769195
0.769553
0.769765
0.769882
0.769943
0.769973
0.769987
0.769994
0.769997
0.769999
0.77
0.77
0.77
0.77
0.77
0.77
0.77
0.77
0.77
0.77
2.39828e-06
1.04813e-05
2.40748e-05
4.68519e-05
8.48161e-05
0.000147661
0.000250815
0.000418437
0.000687623
0.00111408
0.0017793
0.00279877
0.00433014
0.00657886
0.00979792
0.0142776
0.0203224
0.0282174
0.0381899
0.050378
0.0648142
0.0814285
0.100064
0.120501
0.14248
0.16572
0.189938
0.214856
0.240208
0.265752
0.291265
0.316554
0.341448
0.365804
0.389504
0.412455
0.434582
0.455829
0.476156
0.495542
0.513975
0.531457
0.547998
0.563616
0.578332
0.592175
0.605176
0.617369
0.628788
0.639471
0.649453
0.65877
0.66746
0.675557
0.683096
0.690111
0.696634
0.702696
0.70824
0.713316
0.718187
0.722708
0.726907
0.730742
0.734505
0.738094
0.741515
0.744768
0.747852
0.750766
0.753503
0.756059
0.758425
0.760591
0.762547
0.764279
0.765775
0.767024
0.768018
0.76876
0.769273
0.7696
0.769791
0.769895
0.769949
0.769976
0.769989
0.769995
0.769998
0.769999
0.77
0.77
0.77
0.77
0.77
0.77
0.77
0.77
0.77
0.77
2.42382e-06
1.05929e-05
2.43318e-05
4.73539e-05
8.57301e-05
0.000149264
0.000253561
0.000423056
0.000695272
0.00112655
0.00179928
0.00283019
0.00437852
0.0066516
0.00990445
0.014429
0.0205312
0.0284959
0.0385495
0.0508277
0.0653605
0.0820748
0.100811
0.121348
0.143423
0.166756
0.19106
0.216058
0.241485
0.267095
0.292668
0.318009
0.342947
0.36734
0.391071
0.414044
0.436187
0.457442
0.477771
0.497152
0.515575
0.533041
0.549561
0.565152
0.579838
0.593647
0.606611
0.618764
0.630141
0.640778
0.650714
0.659984
0.668626
0.676674
0.684165
0.691131
0.697607
0.703623
0.709066
0.714096
0.718924
0.723407
0.727572
0.731396
0.735138
0.738703
0.742097
0.745322
0.748378
0.75126
0.753965
0.756486
0.758814
0.760942
0.762856
0.764547
0.766002
0.767206
0.768156
0.768857
0.769336
0.769637
0.769811
0.769906
0.769955
0.769979
0.76999
0.769996
0.769998
0.769999
0.77
0.77
0.77
0.77
0.77
0.77
0.77
0.77
0.77
0.77
2.44671e-06
1.0693e-05
2.45622e-05
4.78042e-05
8.65504e-05
0.000150703
0.000256028
0.000427209
0.000702153
0.00113777
0.00181727
0.00285849
0.00442211
0.00671716
0.0100004
0.0145655
0.0207192
0.0287466
0.0388729
0.051232
0.0658511
0.0826547
0.101481
0.122106
0.144267
0.167681
0.192063
0.217131
0.242623
0.268292
0.293917
0.319302
0.344278
0.368703
0.392458
0.41545
0.437604
0.458865
0.479194
0.498569
0.516981
0.534431
0.550931
0.566497
0.581156
0.594933
0.607863
0.619979
0.631317
0.641915
0.651809
0.661036
0.669635
0.677639
0.685086
0.692007
0.698438
0.704408
0.709812
0.714797
0.719587
0.724028
0.728151
0.731968
0.735684
0.739225
0.742595
0.745796
0.748825
0.751681
0.754357
0.756847
0.759143
0.761234
0.763107
0.764762
0.766185
0.767356
0.768269
0.768936
0.769387
0.769667
0.769828
0.769915
0.769959
0.769981
0.769991
0.769996
0.769998
0.769999
0.77
0.77
0.77
0.77
0.77
0.77
0.77
0.77
0.77
0.77
2.46677e-06
1.07807e-05
2.4764e-05
4.81988e-05
8.72694e-05
0.000151965
0.000258192
0.000430853
0.000708194
0.00114763
0.00183308
0.00288336
0.00446042
0.00677476
0.0100848
0.0146854
0.0208842
0.0289665
0.0391564
0.0515859
0.0662804
0.0831616
0.102066
0.122768
0.145003
0.168488
0.192935
0.218065
0.243612
0.26933
0.294999
0.320423
0.345431
0.369882
0.393657
0.416663
0.438827
0.460091
0.480419
0.499787
0.518189
0.535624
0.552105
0.56765
0.582282
0.596032
0.608932
0.621015
0.63232
0.642882
0.652739
0.66193
0.67049
0.678457
0.685864
0.692747
0.699137
0.705066
0.710449
0.715387
0.720133
0.724534
0.728611
0.732441
0.736138
0.73966
0.743011
0.746191
0.749199
0.752032
0.754684
0.757149
0.759416
0.761476
0.763327
0.764951
0.766336
0.767475
0.76836
0.768999
0.769427
0.76969
0.76984
0.769921
0.769962
0.769982
0.769992
0.769996
0.769998
0.769999
0.77
0.77
0.77
0.77
0.77
0.77
0.77
0.77
0.77
0.77
2.48377e-06
1.08551e-05
2.49353e-05
4.85336e-05
8.78796e-05
0.000153037
0.00026003
0.00043395
0.000713329
0.00115601
0.00184651
0.00290451
0.00449299
0.00682373
0.0101564
0.0147872
0.0210243
0.029153
0.0393966
0.0518857
0.0666435
0.0835902
0.10256
0.123326
0.145624
0.169167
0.19367
0.218851
0.244444
0.270204
0.295909
0.321364
0.346398
0.37087
0.394662
0.41768
0.43985
0.461116
0.481442
0.500805
0.519196
0.536618
0.553082
0.568608
0.583219
0.596945
0.609818
0.621874
0.633149
0.643681
0.653508
0.662667
0.671196
0.679131
0.686508
0.69336
0.699719
0.705617
0.710969
0.715879
0.720595
0.724967
0.728986
0.732828
0.736508
0.740014
0.743349
0.746513
0.749504
0.752318
0.75495
0.757392
0.759638
0.76168
0.763507
0.765106
0.766464
0.767573
0.768431
0.769049
0.769458
0.769708
0.76985
0.769926
0.769965
0.769983
0.769992
0.769997
0.769998
0.769999
0.77
0.77
0.77
0.77
0.77
0.77
0.77
0.77
0.77
0.77
2.49757e-06
1.09154e-05
2.50742e-05
4.88052e-05
8.83749e-05
0.000153907
0.000261522
0.000436465
0.0007175
0.00116281
0.00185743
0.00292169
0.00451944
0.00686349
0.0102146
0.0148698
0.0211379
0.0293041
0.039591
0.0521281
0.066937
0.0839362
0.102959
0.123777
0.146124
0.169715
0.194262
0.219483
0.245113
0.270906
0.296641
0.32212
0.347175
0.371664
0.395468
0.418495
0.44067
0.461938
0.482262
0.501619
0.520002
0.537413
0.553863
0.569373
0.583966
0.597672
0.610524
0.622557
0.633809
0.644316
0.654118
0.663252
0.671755
0.679664
0.687014
0.693839
0.700172
0.706046
0.711369
0.716259
0.720956
0.725309
0.729289
0.733133
0.736801
0.740295
0.743616
0.746766
0.749742
0.75254
0.755157
0.757585
0.759817
0.761842
0.763649
0.765228
0.766566
0.767653
0.768488
0.769087
0.769482
0.769722
0.769858
0.76993
0.769966
0.769984
0.769993
0.769997
0.769999
0.769999
0.77
0.77
0.77
0.77
0.77
0.77
0.77
0.77
0.77
0.77
2.50802e-06
1.09611e-05
2.51794e-05
4.9011e-05
8.87501e-05
0.000154566
0.000262653
0.000438371
0.000720662
0.00116797
0.00186571
0.00293471
0.00453948
0.0068936
0.0102586
0.0149322
0.0212237
0.0294182
0.0397378
0.0523109
0.0671582
0.0841969
0.103259
0.124116
0.1465
0.170127
0.194707
0.219959
0.245617
0.271435
0.297191
0.322689
0.34776
0.372261
0.396074
0.419108
0.441287
0.462556
0.482877
0.50223
0.520607
0.538009
0.554449
0.569946
0.584525
0.598216
0.611051
0.623067
0.634301
0.64479
0.654572
0.663686
0.672169
0.680058
0.687388
0.694195
0.700512
0.706371
0.711659
0.716535
0.721219
0.72556
0.729516
0.733354
0.737015
0.740501
0.743814
0.746955
0.749922
0.752711
0.755318
0.757734
0.759952
0.761962
0.763755
0.765318
0.76664
0.767712
0.768532
0.769116
0.7695
0.769732
0.769863
0.769933
0.769968
0.769985
0.769993
0.769997
0.769999
0.769999
0.77
0.77
0.77
0.77
0.77
0.77
0.77
0.77
0.77
0.77
2.51502e-06
1.09917e-05
2.52499e-05
4.91489e-05
8.90014e-05
0.000155007
0.00026341
0.000439646
0.000722776
0.00117142
0.00187124
0.0029434
0.00455285
0.00691368
0.0102879
0.0149738
0.0212808
0.0294941
0.0398353
0.0524324
0.0673051
0.08437
0.103458
0.124341
0.14675
0.1704
0.195003
0.220275
0.245952
0.271787
0.297558
0.323068
0.34815
0.372659
0.396479
0.419517
0.441699
0.462968
0.483288
0.502638
0.52101
0.538407
0.554839
0.570328
0.584897
0.598578
0.611402
0.623406
0.634627
0.645103
0.654872
0.663973
0.672443
0.680319
0.687637
0.694433
0.700741
0.706593
0.711846
0.716726
0.721399
0.725731
0.729672
0.733506
0.737162
0.740643
0.743951
0.747085
0.750046
0.752827
0.755425
0.757833
0.760042
0.762043
0.763826
0.765379
0.76669
0.767751
0.76856
0.769135
0.769512
0.769739
0.769867
0.769935
0.769969
0.769985
0.769993
0.769997
0.769999
0.769999
0.77
0.77
0.77
0.77
0.77
0.77
0.77
0.77
0.77
0.77
2.5185e-06
1.10069e-05
2.52848e-05
4.92168e-05
8.91248e-05
0.000155223
0.000263779
0.000440265
0.000723798
0.00117308
0.00187389
0.00294756
0.00455924
0.00692325
0.0103019
0.0149936
0.021308
0.0295302
0.0398818
0.0524903
0.0673753
0.0844529
0.103554
0.12445
0.146871
0.170533
0.195146
0.220429
0.246116
0.271959
0.297738
0.323255
0.348342
0.372856
0.39668
0.41972
0.441903
0.463172
0.483492
0.502841
0.521211
0.538604
0.555033
0.570518
0.585083
0.598758
0.611577
0.623575
0.63479
0.645259
0.655022
0.664115
0.672577
0.680445
0.687753
0.694538
0.70083
0.706662
0.711883
0.716883
0.721523
0.725833
0.729757
0.733586
0.737239
0.740716
0.74402
0.747151
0.750108
0.752886
0.755479
0.757883
0.760087
0.762083
0.763861
0.765408
0.766714
0.76777
0.768574
0.769145
0.769518
0.769743
0.769869
0.769936
0.769969
0.769986
0.769993
0.769997
0.769999
0.769999
0.77
0.77
0.77
0.77
0.77
0.77
0.77
0.77
0.77
0.77
2.51857e-06
1.10072e-05
2.52854e-05
4.92181e-05
8.91272e-05
0.000155227
0.000263786
0.000440277
0.000723817
0.00117311
0.00187394
0.00294764
0.00455936
0.00692342
0.0103021
0.0149939
0.0213085
0.0295308
0.0398826
0.0524913
0.0673766
0.0844544
0.103556
0.124452
0.146873
0.170536
0.195149
0.220432
0.246119
0.271962
0.297741
0.323258
0.348345
0.372859
0.396683
0.419723
0.441906
0.463175
0.483495
0.502844
0.521214
0.538607
0.555036
0.57052
0.585085
0.59876
0.611579
0.623577
0.634792
0.645261
0.655024
0.664117
0.67258
0.680448
0.687757
0.694541
0.700832
0.70666
0.711874
0.716875
0.721522
0.725835
0.729759
0.733588
0.73724
0.740717
0.744021
0.747152
0.750109
0.752886
0.75548
0.757883
0.760087
0.762083
0.763861
0.765409
0.766715
0.76777
0.768574
0.769145
0.769518
0.769743
0.769869
0.769936
0.769969
0.769986
0.769993
0.769997
0.769999
0.769999
0.77
0.77
0.77
0.77
0.77
0.77
0.77
0.77
0.77
0.77
2.51523e-06
1.09926e-05
2.5252e-05
4.91529e-05
8.90087e-05
0.00015502
0.000263432
0.000439682
0.000722833
0.00117151
0.00187138
0.00294363
0.00455319
0.00691418
0.0102886
0.0149748
0.0212822
0.0294959
0.0398377
0.0524354
0.0673088
0.0843744
0.103464
0.124347
0.146757
0.170408
0.19501
0.220284
0.245961
0.271796
0.297567
0.323078
0.348159
0.372669
0.396489
0.419527
0.441708
0.462977
0.483297
0.502647
0.521019
0.538415
0.554847
0.570335
0.584905
0.598585
0.611409
0.623413
0.634633
0.645109
0.654877
0.663977
0.672447
0.680323
0.687641
0.694438
0.700746
0.706596
0.711841
0.716721
0.721402
0.725735
0.729674
0.733508
0.737165
0.740646
0.743953
0.747088
0.750048
0.752829
0.755427
0.757834
0.760043
0.762044
0.763827
0.765379
0.766691
0.767751
0.768561
0.769136
0.769512
0.769739
0.769867
0.769935
0.769969
0.769985
0.769993
0.769997
0.769999
0.769999
0.77
0.77
0.77
0.77
0.77
0.77
0.77
0.77
0.77
0.77
2.50837e-06
1.09626e-05
2.51829e-05
4.90179e-05
8.87626e-05
0.000154588
0.00026269
0.000438433
0.000720762
0.00116813
0.00186596
0.00293511
0.00454008
0.00689449
0.0102599
0.014934
0.0212262
0.0294214
0.039742
0.0523162
0.0671646
0.0842045
0.103268
0.124126
0.146511
0.170139
0.19472
0.219973
0.245631
0.27145
0.297206
0.322705
0.347776
0.372277
0.39609
0.419124
0.441302
0.462571
0.482892
0.502245
0.520621
0.538023
0.554462
0.569959
0.584537
0.598227
0.611063
0.623078
0.634311
0.644799
0.65458
0.663693
0.672175
0.680063
0.687392
0.6942
0.700519
0.706381
0.711667
0.716543
0.721228
0.725567
0.729519
0.733356
0.737017
0.740503
0.743817
0.746957
0.749924
0.752714
0.75532
0.757736
0.759954
0.761964
0.763756
0.76532
0.766642
0.767713
0.768533
0.769116
0.7695
0.769733
0.769863
0.769933
0.769968
0.769985
0.769993
0.769997
0.769999
0.769999
0.77
0.77
0.77
0.77
0.77
0.77
0.77
0.77
0.77
0.77
2.49807e-06
1.09176e-05
2.50792e-05
4.88149e-05
8.83925e-05
0.000153938
0.000261574
0.000436552
0.000717642
0.00116304
0.00185779
0.00292225
0.00452029
0.00686475
0.0102164
0.0148723
0.0211414
0.0293087
0.039597
0.0521355
0.0669461
0.083947
0.102971
0.123791
0.14614
0.169732
0.19428
0.219503
0.245134
0.270928
0.296663
0.322143
0.347198
0.371686
0.39549
0.418517
0.440692
0.46196
0.482283
0.50164
0.520022
0.537432
0.553882
0.569391
0.583983
0.597688
0.61054
0.622572
0.633823
0.64433
0.654131
0.663263
0.671765
0.679673
0.687021
0.693845
0.700177
0.706052
0.711375
0.716264
0.720963
0.725316
0.729294
0.733137
0.736807
0.7403
0.743622
0.746771
0.749746
0.752544
0.75516
0.757588
0.75982
0.761844
0.763651
0.76523
0.766567
0.767654
0.768489
0.769087
0.769482
0.769722
0.769858
0.76993
0.769966
0.769984
0.769993
0.769997
0.769999
0.769999
0.77
0.77
0.77
0.77
0.77
0.77
0.77
0.77
0.77
0.77
2.48441e-06
1.08578e-05
2.49417e-05
4.85461e-05
8.79023e-05
0.000153076
0.000260097
0.000434062
0.000713513
0.0011563
0.00184698
0.00290524
0.00449409
0.00682537
0.0101588
0.0147905
0.0210289
0.029159
0.0394043
0.0518954
0.0666553
0.0836041
0.102576
0.123345
0.145644
0.16919
0.193694
0.218876
0.24447
0.270231
0.295937
0.321393
0.346427
0.370899
0.39469
0.417708
0.439878
0.461144
0.481469
0.500831
0.519222
0.536643
0.553107
0.568631
0.583241
0.596966
0.609839
0.621894
0.633168
0.643699
0.653525
0.662683
0.671211
0.679145
0.68652
0.69337
0.699727
0.705624
0.710974
0.715883
0.7206
0.724974
0.728993
0.732835
0.736517
0.740023
0.743357
0.74652
0.74951
0.752323
0.754954
0.757396
0.759642
0.761683
0.763509
0.765108
0.766466
0.767574
0.768431
0.769049
0.769458
0.769708
0.76985
0.769926
0.769965
0.769983
0.769992
0.769997
0.769998
0.769999
0.77
0.77
0.77
0.77
0.77
0.77
0.77
0.77
0.77
0.77
2.46755e-06
1.07841e-05
2.47719e-05
4.82141e-05
8.72971e-05
0.000152014
0.000258274
0.000430991
0.00070842
0.00114799
0.00183365
0.00288426
0.00446178
0.00677679
0.0100877
0.0146895
0.0208899
0.028974
0.039166
0.0515979
0.0662949
0.0831788
0.102086
0.12279
0.145028
0.168515
0.192964
0.218096
0.243644
0.269364
0.295034
0.320458
0.345467
0.369917
0.393692
0.416699
0.438862
0.460125
0.480452
0.49982
0.51822
0.535655
0.552135
0.567678
0.58231
0.596059
0.608957
0.62104
0.632343
0.642904
0.65276
0.66195
0.670509
0.678475
0.685882
0.692764
0.699155
0.705084
0.710465
0.715403
0.720148
0.724547
0.728619
0.732448
0.736145
0.739667
0.743018
0.746198
0.749206
0.752038
0.75469
0.757154
0.759421
0.76148
0.76333
0.764954
0.766338
0.767476
0.768361
0.769
0.769427
0.76969
0.769841
0.769921
0.769962
0.769982
0.769992
0.769996
0.769998
0.769999
0.77
0.77
0.77
0.77
0.77
0.77
0.77
0.77
0.77
0.77
2.44764e-06
1.06971e-05
2.45715e-05
4.78224e-05
8.65833e-05
0.000150761
0.000256126
0.000427372
0.000702422
0.00113821
0.00181796
0.00285956
0.00442374
0.00671959
0.0100039
0.0145705
0.020726
0.0287556
0.0388844
0.0512463
0.0658686
0.0826753
0.101505
0.122133
0.144297
0.167714
0.192097
0.217168
0.242661
0.268331
0.293958
0.319344
0.34432
0.368745
0.3925
0.415492
0.437645
0.458905
0.479233
0.498607
0.517018
0.534468
0.550966
0.566532
0.581188
0.594965
0.607893
0.620008
0.631345
0.641941
0.651834
0.661061
0.669658
0.677661
0.685107
0.692028
0.698457
0.704426
0.70983
0.714813
0.719601
0.72404
0.728164
0.731982
0.735695
0.739235
0.742604
0.745804
0.748833
0.751688
0.754363
0.756853
0.759148
0.761238
0.763111
0.764765
0.766187
0.767358
0.768271
0.768937
0.769387
0.769667
0.769828
0.769915
0.769959
0.769981
0.769991
0.769996
0.769998
0.769999
0.77
0.77
0.77
0.77
0.77
0.77
0.77
0.77
0.77
0.77
2.42488e-06
1.05976e-05
2.43425e-05
4.73748e-05
8.57681e-05
0.00014933
0.000253674
0.000423245
0.000695583
0.00112705
0.00180008
0.00283143
0.00438041
0.00665442
0.00990853
0.0144348
0.0205391
0.0285064
0.038563
0.0508445
0.0653809
0.0820988
0.100839
0.121379
0.143457
0.166793
0.191101
0.216101
0.241529
0.267141
0.292716
0.318057
0.342996
0.367389
0.391119
0.414093
0.436235
0.457489
0.477817
0.497196
0.515618
0.533083
0.549602
0.565191
0.579876
0.593684
0.606646
0.618797
0.630173
0.640809
0.650743
0.660012
0.668652
0.676699
0.684189
0.691154
0.697627
0.70364
0.709081
0.71411
0.718935
0.723416
0.72759
0.731418
0.735153
0.738716
0.742109
0.745333
0.748388
0.751269
0.753973
0.756493
0.758821
0.760948
0.762861
0.764551
0.766006
0.767209
0.768158
0.768859
0.769337
0.769638
0.769812
0.769906
0.769955
0.769979
0.76999
0.769996
0.769998
0.769999
0.77
0.77
0.77
0.77
0.77
0.77
0.77
0.77
0.77
0.77
2.39949e-06
1.04865e-05
2.4087e-05
4.68757e-05
8.48592e-05
0.000147736
0.000250944
0.000418651
0.000687976
0.00111465
0.00178021
0.00280018
0.00433229
0.00658207
0.00980258
0.0142841
0.0203314
0.0282294
0.0382054
0.0503972
0.0648376
0.081456
0.100096
0.120537
0.142519
0.165763
0.189984
0.214904
0.240259
0.265804
0.291319
0.316608
0.341503
0.365859
0.38956
0.41251
0.434637
0.455882
0.476208
0.495592
0.514024
0.531505
0.548045
0.56366
0.578375
0.592216
0.605216
0.617407
0.628824
0.639505
0.649485
0.658802
0.66749
0.675586
0.683124
0.690137
0.696659
0.702719
0.70826
0.713332
0.7182
0.722719
0.726925
0.730759
0.734517
0.738106
0.741526
0.744778
0.747863
0.750776
0.753513
0.756068
0.758433
0.760599
0.762554
0.764286
0.765781
0.767029
0.768021
0.768763
0.769275
0.7696
0.769791
0.769896
0.76995
0.769976
0.769989
0.769995
0.769998
0.769999
0.77
0.77
0.77
0.77
0.77
0.77
0.77
0.77
0.77
0.77
2.37165e-06
1.03649e-05
2.3807e-05
4.6329e-05
8.38643e-05
0.000145992
0.000247959
0.000413634
0.000679675
0.00110113
0.00175856
0.00276616
0.00427993
0.00650336
0.00968735
0.0141203
0.0201055
0.0279279
0.037816
0.04991
0.0642454
0.0807548
0.0992844
0.119617
0.141493
0.164636
0.188761
0.213591
0.238863
0.264334
0.289781
0.315011
0.339855
0.364168
0.387833
0.410756
0.432863
0.454096
0.474417
0.493804
0.512245
0.529741
0.546301
0.561943
0.576689
0.590566
0.603605
0.615839
0.627302
0.638031
0.648062
0.65743
0.666171
0.67432
0.681912
0.688977
0.695549
0.701656
0.707307
0.712419
0.717319
0.721878
0.72612
0.729993
0.733783
0.737405
0.740856
0.74414
0.747257
0.750204
0.752977
0.755571
0.757977
0.760187
0.762183
0.763963
0.765509
0.766809
0.767854
0.768643
0.769197
0.769553
0.769765
0.769882
0.769943
0.769973
0.769987
0.769994
0.769997
0.769999
0.77
0.77
0.77
0.77
0.77
0.77
0.77
0.77
0.77
0.77
2.34155e-06
1.02333e-05
2.35045e-05
4.57385e-05
8.27904e-05
0.000144112
0.000244743
0.000408234
0.000670748
0.00108661
0.00173533
0.00272968
0.00422384
0.00641913
0.00956412
0.0139451
0.0198641
0.0276058
0.0373999
0.0493891
0.0636119
0.0800045
0.0984157
0.118631
0.140393
0.163426
0.187447
0.212179
0.23736
0.262747
0.28812
0.313284
0.338068
0.362332
0.385956
0.408846
0.430928
0.452145
0.472458
0.491843
0.51029
0.5278
0.54438
0.560048
0.574825
0.588739
0.601819
0.614098
0.625611
0.636392
0.646476
0.655901
0.6647
0.672909
0.680561
0.687689
0.694325
0.700499
0.706236
0.711412
0.716243
0.720876
0.72518
0.729146
0.732956
0.73661
0.740094
0.743412
0.746565
0.74955
0.752363
0.755
0.757451
0.759708
0.761751
0.763586
0.765189
0.766549
0.767653
0.768499
0.769101
0.769495
0.769732
0.769865
0.769934
0.769969
0.769986
0.769993
0.769997
0.769999
0.769999
0.77
0.77
0.77
0.77
0.77
0.77
0.77
0.77
0.77
2.3093e-06
1.00924e-05
2.31805e-05
4.51066e-05
8.16422e-05
0.000142103
0.000241314
0.000402482
0.000661255
0.00107119
0.0017107
0.00269108
0.00416458
0.00633024
0.00943421
0.0137606
0.01961
0.027267
0.0369624
0.0488415
0.062946
0.0792155
0.097502
0.117593
0.139234
0.16215
0.18606
0.210687
0.235771
0.261068
0.286358
0.311448
0.336168
0.360374
0.383951
0.406801
0.428853
0.450048
0.470348
0.489729
0.508179
0.525699
0.542297
0.557989
0.572798
0.586748
0.59987
0.612195
0.623758
0.634593
0.644735
0.65422
0.663082
0.671355
0.679073
0.686269
0.692974
0.699219
0.705037
0.710291
0.715175
0.719856
0.724214
0.728277
0.732058
0.735738
0.739252
0.742602
0.745791
0.748815
0.75167
0.754352
0.756852
0.759161
0.761262
0.763155
0.764821
0.766246
0.767416
0.768325
0.768984
0.769422
0.769691
0.769843
0.769923
0.769964
0.769983
0.769992
0.769997
0.769998
0.769999
0.77
0.77
0.77
0.77
0.77
0.77
0.77
0.77
0.77
2.2749e-06
9.94208e-06
2.28351e-05
4.44334e-05
8.04203e-05
0.000139968
0.000237673
0.000396387
0.000651216
0.00105492
0.00168477
0.00265052
0.00410245
0.00623726
0.00929864
0.0135685
0.0193459
0.0269153
0.036509
0.0482745
0.0622572
0.0783998
0.0965577
0.116521
0.138037
0.160831
0.184625
0.209142
0.234122
0.259322
0.284524
0.309533
0.334181
0.358325
0.381846
0.404652
0.426667
0.447835
0.468116
0.487487
0.505936
0.523462
0.540075
0.555789
0.570626
0.584612
0.597774
0.610146
0.62176
0.632649
0.64285
0.652395
0.66132
0.669658
0.677441
0.684702
0.691471