/*--------------------------------*- C++ -*----------------------------------*\
  =========                 |
  \\      /  F ield         | OpenFOAM: The Open Source CFD Toolbox
   \\    /   O peration     | Website:  https://openfoam.org
    \\  /    A nd           | Version:  8
     \\/     M anipulation  |
\*---------------------------------------------------------------------------*/
FoamFile
{
    version     2.0;
    format      ascii;
    class       volScalarField;
    location    "200/fluid";
    object      O2;
}
// * * * * * * * * * * * * * * * * * * * * * * * * * * * * * * * * * * * * * //

dimensions      [0 0 0 0 0 0 0];

internalField   nonuniform List<scalar> 
4000
(
3.22484e-10
1.40776e-09
3.22592e-09
6.2568e-09
1.12801e-08
1.95491e-08
3.3052e-08
5.4895e-08
8.98446e-08
1.45059e-07
2.31016e-07
3.62582e-07
5.60055e-07
8.49857e-07
1.26434e-06
1.84017e-06
2.61477e-06
3.62105e-06
4.88151e-06
6.40325e-06
8.17586e-06
1.01724e-05
1.23533e-05
1.46707e-05
1.70736e-05
1.95115e-05
2.19368e-05
2.4307e-05
2.65854e-05
2.87413e-05
3.07513e-05
3.25992e-05
3.42789e-05
3.57976e-05
3.7184e-05
3.84979e-05
3.98439e-05
4.13832e-05
4.33455e-05
4.60403e-05
4.9863e-05
5.5304e-05
6.2964e-05
7.35771e-05
8.80448e-05
0.000107484
0.000133295
0.000167245
0.000211586
0.000269199
0.00034378
0.000440085
0.000564238
0.000724145
0.000930026
0.00119513
0.00153669
0.0019772
0.00254616
0.00328252
0.00423673
0.00545683
0.00708171
0.00921444
0.012033
0.0157819
0.022874
0.0393981
0.0560654
0.0726599
0.089005
0.104953
0.120377
0.135167
0.149223
0.162449
0.174751
0.186004
0.196158
0.205052
0.212563
0.21858
0.223063
0.22611
0.22798
0.229018
0.229542
0.229793
0.229909
0.22996
0.229983
0.229993
0.229997
0.229999
0.229999
0.23
0.23
0.23
0.23
0.23
3.32278e-10
1.45181e-09
3.33231e-09
6.47727e-09
1.17071e-08
2.03434e-08
3.44855e-08
5.74142e-08
9.41595e-08
1.52259e-07
2.4271e-07
3.81041e-07
5.88333e-07
8.91843e-07
1.32471e-06
1.92419e-06
2.72795e-06
3.76881e-06
5.06874e-06
6.63415e-06
8.45379e-06
1.04999e-05
1.27319e-05
1.51011e-05
1.75555e-05
2.00435e-05
2.25166e-05
2.49311e-05
2.72493e-05
2.94401e-05
3.14795e-05
3.33512e-05
3.50496e-05
3.65836e-05
3.79841e-05
3.93157e-05
4.06898e-05
4.22764e-05
4.43154e-05
4.71284e-05
5.1123e-05
5.6802e-05
6.47785e-05
7.58001e-05
9.07842e-05
0.000110868
0.000137477
0.000172414
0.000217973
0.000277089
0.000353523
0.000452102
0.000579028
0.000742272
0.00095209
0.00122169
0.00156809
0.00201331
0.00258584
0.00332282
0.00427197
0.00547495
0.00706318
0.00912887
0.0118367
0.015434
0.0251748
0.0418369
0.0586236
0.0753193
0.0917477
0.107761
0.123232
0.138048
0.152105
0.165303
0.177513
0.188681
0.198651
0.20729
0.214465
0.220077
0.224128
0.226782
0.228355
0.229205
0.229629
0.229831
0.229925
0.229967
0.229986
0.229994
0.229997
0.229999
0.23
0.23
0.23
0.23
0.23
0.23
3.4688e-10
1.51644e-09
3.48415e-09
6.78105e-09
1.2273e-08
2.13548e-08
3.62405e-08
6.03855e-08
9.90771e-08
1.60219e-07
2.55309e-07
4.00528e-07
6.17767e-07
9.35223e-07
1.38706e-06
2.01153e-06
2.84715e-06
3.92727e-06
5.27409e-06
6.89382e-06
8.7747e-06
1.08882e-05
1.31926e-05
1.5638e-05
1.8171e-05
2.07384e-05
2.32899e-05
2.57803e-05
2.81703e-05
3.04273e-05
3.25262e-05
3.44504e-05
3.61945e-05
3.77688e-05
3.92082e-05
4.0584e-05
4.2018e-05
4.36941e-05
4.58686e-05
4.8882e-05
5.3162e-05
5.92316e-05
6.77254e-05
7.94146e-05
9.52453e-05
0.000116392
0.000144328
0.000180922
0.000228554
0.000290271
0.00036998
0.000472695
0.000604855
0.000774724
0.00099291
0.00127302
0.00163246
0.0020935
0.00268447
0.00344123
0.00440739
0.00561642
0.00718952
0.00918073
0.0116835
0.0147794
0.0289661
0.0458337
0.0627667
0.0795578
0.0960346
0.112051
0.127481
0.14221
0.15613
0.169136
0.181061
0.19191
0.201485
0.209658
0.216318
0.221406
0.224986
0.227278
0.228613
0.229329
0.229686
0.229857
0.229936
0.229972
0.229988
0.229995
0.229998
0.229999
0.23
0.23
0.23
0.23
0.23
0.23
3.62074e-10
1.58307e-09
3.63818e-09
7.08319e-09
1.28243e-08
2.23206e-08
3.78868e-08
6.31329e-08
1.03577e-07
1.67462e-07
2.6676e-07
4.18307e-07
6.44849e-07
9.75643e-07
1.44607e-06
2.09565e-06
2.96414e-06
4.08587e-06
5.48364e-06
7.16385e-06
9.1144e-06
1.1306e-05
1.36958e-05
1.62326e-05
1.8861e-05
2.1526e-05
2.41755e-05
2.67621e-05
2.92448e-05
3.15893e-05
3.37691e-05
3.57669e-05
3.75771e-05
3.92122e-05
4.07114e-05
4.21545e-05
4.36762e-05
4.54778e-05
4.78364e-05
5.11165e-05
5.57709e-05
6.23487e-05
7.15122e-05
8.4065e-05
0.000100993
0.000123523
0.000153199
0.000191986
0.000242393
0.000307645
0.000391887
0.000500467
0.00064028
0.000820241
0.00105188
0.00135017
0.00173451
0.0022302
0.00287024
0.00369777
0.00476075
0.00612033
0.0079182
0.0102389
0.0132231
0.0169655
0.0337691
0.050811
0.0678439
0.0846686
0.101118
0.11705
0.13234
0.146873
0.160542
0.173239
0.18481
0.195237
0.204335
0.21199
0.21811
0.222676
0.225804
0.227755
0.228868
0.229454
0.229745
0.229883
0.229948
0.229977
0.22999
0.229996
0.229998
0.229999
0.23
0.23
0.23
0.23
0.23
0.23
3.77195e-10
1.64926e-09
3.79078e-09
7.38173e-09
1.33681e-08
2.32734e-08
3.95148e-08
6.58618e-08
1.08075e-07
1.74756e-07
2.78391e-07
4.36523e-07
6.72828e-07
1.01772e-06
1.50792e-06
2.18438e-06
3.08822e-06
4.25489e-06
5.70792e-06
7.45396e-06
9.48068e-06
1.17581e-05
1.42423e-05
1.68805e-05
1.96158e-05
2.23912e-05
2.51526e-05
2.78506e-05
3.04421e-05
3.28908e-05
3.51688e-05
3.72577e-05
3.91521e-05
4.08664e-05
4.24453e-05
4.39786e-05
4.56165e-05
4.75805e-05
5.01726e-05
5.37852e-05
5.88999e-05
6.60963e-05
7.60698e-05
8.96626e-05
0.00010791
0.000132103
0.000163873
0.0002053
0.000259051
0.000328561
0.00041826
0.000533877
0.000682836
0.000874776
0.00112225
0.00144168
0.00185464
0.00238967
0.00308488
0.00399178
0.00515335
0.00668207
0.00876824
0.0115904
0.0154937
0.0220941
0.0390936
0.0562487
0.0733218
0.0901187
0.106477
0.122258
0.13734
0.151609
0.164958
0.177274
0.18847
0.198421
0.207007
0.214123
0.219702
0.223767
0.226483
0.228139
0.229068
0.229552
0.22979
0.229904
0.229957
0.229981
0.229992
0.229996
0.229998
0.229999
0.23
0.23
0.23
0.23
0.23
0.23
3.91981e-10
1.71393e-09
3.93968e-09
7.67265e-09
1.38975e-08
2.42005e-08
4.10991e-08
6.85202e-08
1.12465e-07
1.81895e-07
2.89817e-07
4.54504e-07
7.00608e-07
1.05978e-06
1.57022e-06
2.2745e-06
3.21532e-06
4.42951e-06
5.94153e-06
7.7584e-06
9.86762e-06
1.22385e-05
1.48259e-05
1.75757e-05
2.04292e-05
2.33274e-05
2.62142e-05
2.90379e-05
3.17534e-05
3.43224e-05
3.67153e-05
3.89124e-05
4.09088e-05
4.27213e-05
4.44011e-05
4.60498e-05
4.78354e-05
5.00022e-05
5.28815e-05
5.68964e-05
6.25609e-05
7.04883e-05
8.14115e-05
9.62177e-05
0.000115999
0.000142122
0.000176317
0.000220797
0.000278403
0.000352796
0.000448702
0.00057223
0.000731286
0.00093611
0.00119997
0.0015401
0.00197883
0.00254518
0.00327678
0.0042224
0.00540955
0.0069792
0.00901222
0.0116359
0.0150065
0.027567
0.0446471
0.0618292
0.0788721
0.0955814
0.111796
0.127379
0.142212
0.156184
0.169192
0.181082
0.191857
0.20134
0.209425
0.216022
0.221092
0.224702
0.227056
0.22846
0.229234
0.229633
0.229828
0.229921
0.229965
0.229984
0.229993
0.229997
0.229999
0.229999
0.23
0.23
0.23
0.23
0.23
0.23
4.06558e-10
1.7777e-09
4.0866e-09
7.95996e-09
1.4421e-08
2.51192e-08
4.26734e-08
7.11702e-08
1.16858e-07
1.89068e-07
3.01348e-07
4.72733e-07
7.28898e-07
1.10281e-06
1.63423e-06
2.36747e-06
3.34697e-06
4.61106e-06
6.18532e-06
8.07729e-06
1.02744e-05
1.27454e-05
1.54441e-05
1.83149e-05
2.12973e-05
2.43305e-05
2.73561e-05
3.03203e-05
3.31757e-05
3.58819e-05
3.84075e-05
4.07317e-05
4.28498e-05
4.47819e-05
4.65867e-05
4.838e-05
5.03496e-05
5.27656e-05
5.59919e-05
6.04854e-05
6.67948e-05
7.55706e-05
8.75871e-05
0.000103782
0.000125314
0.000153635
0.000190593
0.000238552
0.000300558
0.00038054
0.000483585
0.000616276
0.000787153
0.0010073
0.00129111
0.0016573
0.00213016
0.00274124
0.00353132
0.00454897
0.00584057
0.00755237
0.00974398
0.0125274
0.015948
0.0328025
0.049997
0.067213
0.0842159
0.100818
0.116866
0.13223
0.146793
0.160452
0.173105
0.184607
0.194952
0.203973
0.211573
0.217678
0.222278
0.22548
0.227521
0.228716
0.229366
0.229697
0.229858
0.229935
0.229971
0.229987
0.229994
0.229998
0.229999
0.23
0.23
0.23
0.23
0.23
0.23
0.23
4.20954e-10
1.84069e-09
4.23175e-09
8.24398e-09
1.4939e-08
2.60292e-08
4.42349e-08
7.38033e-08
1.21232e-07
1.96227e-07
3.1289e-07
4.91035e-07
7.574e-07
1.14632e-06
1.69922e-06
2.46227e-06
3.48179e-06
4.7978e-06
6.43715e-06
8.40811e-06
1.06982e-05
1.32757e-05
1.60935e-05
1.90946e-05
2.22168e-05
2.53974e-05
2.85759e-05
3.16962e-05
3.47086e-05
3.75706e-05
4.02486e-05
4.27209e-05
4.49834e-05
4.70596e-05
4.90177e-05
5.09892e-05
5.31848e-05
5.59028e-05
5.95429e-05
6.45976e-05
7.16525e-05
8.13967e-05
9.46497e-05
0.000112405
0.000135892
0.000166659
0.000206679
0.000258482
0.000325337
0.000411469
0.00052236
0.000665139
0.0008491
0.0010864
0.00139299
0.00178992
0.00230509
0.00297579
0.00385225
0.00498177
0.00645791
0.00848383
0.011202
0.0149026
0.0203287
0.0376143
0.0550062
0.0722776
0.0892365
0.10572
0.121589
0.136721
0.151009
0.164351
0.176648
0.187808
0.197729
0.206307
0.213449
0.219099
0.223275
0.226121
0.227898
0.228921
0.22947
0.229747
0.229882
0.229946
0.229976
0.229989
0.229995
0.229998
0.229999
0.23
0.23
0.23
0.23
0.23
0.23
0.23
4.35172e-10
1.90292e-09
4.3752e-09
8.52484e-09
1.54517e-08
2.6931e-08
4.57846e-08
7.64211e-08
1.25589e-07
2.03374e-07
3.24439e-07
5.09396e-07
7.86073e-07
1.19022e-06
1.76498e-06
2.55848e-06
3.61906e-06
4.98858e-06
6.69535e-06
8.74857e-06
1.11361e-05
1.38259e-05
1.67701e-05
1.99105e-05
2.31834e-05
2.65243e-05
2.98704e-05
3.31637e-05
3.63518e-05
3.93901e-05
4.22429e-05
4.48874e-05
4.732e-05
4.95691e-05
5.17132e-05
5.39021e-05
5.63712e-05
5.94517e-05
6.35792e-05
6.92835e-05
7.7188e-05
8.80227e-05
0.000102654
0.000122135
0.00014777
0.000181207
0.000224546
0.000280482
0.000352488
0.000445053
0.000563986
0.000716824
0.000913362
0.00116637
0.00149253
0.00191375
0.00245893
0.00316641
0.00408741
0.00525504
0.00678342
0.00885612
0.0116088
0.0153013
0.0252276
0.0424928
0.0598549
0.0770612
0.0939111
0.110241
0.125915
0.140815
0.154835
0.167879
0.179818
0.190628
0.200166
0.208338
0.215063
0.220301
0.224103
0.226643
0.2282
0.229083
0.229552
0.229787
0.229901
0.229955
0.22998
0.229991
0.229996
0.229998
0.229999
0.23
0.23
0.23
0.23
0.23
0.23
0.23
4.49145e-10
1.96407e-09
4.51623e-09
8.80107e-09
1.59563e-08
2.78192e-08
4.73124e-08
7.9005e-08
1.29895e-07
2.1045e-07
3.35894e-07
5.27645e-07
8.14634e-07
1.23405e-06
1.83083e-06
2.65512e-06
3.75738e-06
5.1815e-06
6.95743e-06
9.09553e-06
1.15842e-05
1.43914e-05
1.74689e-05
2.07574e-05
2.41919e-05
2.77061e-05
3.12355e-05
3.47196e-05
3.81039e-05
4.13412e-05
4.4394e-05
4.72381e-05
4.98711e-05
5.23266e-05
5.46953e-05
5.71471e-05
5.99442e-05
6.34527e-05
6.81459e-05
7.45912e-05
8.34505e-05
9.54961e-05
0.000111645
0.000133015
0.000160995
0.000197342
0.000244295
0.000304729
0.000382347
0.000481918
0.000609598
0.000773336
0.000983395
0.00125304
0.00159938
0.00204455
0.00261707
0.00335371
0.0043006
0.005482
0.00700332
0.0090104
0.0115719
0.0147997
0.0296404
0.0469346
0.0642755
0.0814128
0.098149
0.114325
0.129807
0.144483
0.15825
0.171013
0.182629
0.19311
0.202293
0.210093
0.216438
0.22131
0.224785
0.227066
0.228441
0.229211
0.229616
0.229817
0.229915
0.229961
0.229983
0.229992
0.229997
0.229999
0.229999
0.23
0.23
0.23
0.23
0.23
0.23
0.23
4.62763e-10
2.02368e-09
4.6537e-09
9.07044e-09
1.64485e-08
2.86862e-08
4.88052e-08
8.1532e-08
1.34111e-07
2.17387e-07
3.47143e-07
5.45596e-07
8.42786e-07
1.27736e-06
1.89605e-06
2.75111e-06
3.89521e-06
5.37439e-06
7.2205e-06
9.44528e-06
1.2038e-05
1.4967e-05
1.81838e-05
2.16285e-05
2.52351e-05
2.89358e-05
3.26644e-05
3.63584e-05
3.9961e-05
4.34226e-05
4.67035e-05
4.97786e-05
5.26467e-05
5.53477e-05
5.7986e-05
6.07528e-05
6.39378e-05
6.79443e-05
7.32823e-05
8.05562e-05
9.04657e-05
0.000103825
0.000121606
0.000144992
0.000175466
0.000214901
0.000265698
0.00033094
0.000414602
0.000521818
0.000659227
0.000835416
0.00106151
0.0013519
0.00172524
0.00220569
0.00282445
0.00362182
0.00464702
0.00593472
0.00764532
0.00985023
0.012685
0.0162522
0.0334289
0.0508423
0.0682057
0.0852946
0.101928
0.117959
0.133261
0.147727
0.161258
0.173763
0.185119
0.195291
0.20414
0.211598
0.217602
0.22215
0.225344
0.227406
0.228633
0.229312
0.229666
0.229842
0.229926
0.229966
0.229985
0.229993
0.229997
0.229999
0.229999
0.23
0.23
0.23
0.23
0.23
0.23
0.23
4.75876e-10
2.08108e-09
4.7861e-09
9.3299e-09
1.69228e-08
2.9522e-08
5.02449e-08
8.39711e-08
1.38185e-07
2.24097e-07
3.58036e-07
5.63008e-07
8.70144e-07
1.31954e-06
1.95973e-06
2.8451e-06
4.03062e-06
5.56464e-06
7.48104e-06
9.79328e-06
1.24919e-05
1.55458e-05
1.89068e-05
2.25148e-05
2.63033e-05
3.02034e-05
3.41474e-05
3.8071e-05
4.19154e-05
4.56289e-05
4.91695e-05
5.25112e-05
5.56546e-05
5.86465e-05
6.16067e-05
6.47483e-05
6.83879e-05
7.2966e-05
7.90271e-05
8.72092e-05
9.82465e-05
0.000112994
0.000132472
0.000157933
0.000190944
0.000233496
0.000288141
0.000358166
0.000447818
0.000562602
0.000709664
0.00089831
0.00114068
0.00145267
0.00185516
0.00237568
0.00305067
0.00392869
0.00505672
0.00651343
0.00848863
0.0110951
0.0145586
0.0192702
0.0367404
0.0542876
0.0716795
0.088724
0.10526
0.121153
0.136285
0.150554
0.163867
0.176132
0.187261
0.197155
0.205713
0.21287
0.218574
0.222842
0.225798
0.22768
0.228785
0.229392
0.229705
0.229861
0.229935
0.22997
0.229987
0.229994
0.229997
0.229999
0.23
0.23
0.23
0.23
0.23
0.23
0.23
0.23
4.88309e-10
2.1355e-09
4.91161e-09
9.57591e-09
1.73726e-08
3.03149e-08
5.16112e-08
8.62871e-08
1.42056e-07
2.30479e-07
3.6841e-07
5.79613e-07
8.9628e-07
1.35992e-06
2.02086e-06
2.93559e-06
4.16145e-06
5.74917e-06
7.73492e-06
1.01341e-05
1.29388e-05
1.61191e-05
1.96277e-05
2.34046e-05
2.73832e-05
3.14943e-05
3.56692e-05
3.98423e-05
4.39532e-05
4.7948e-05
5.17832e-05
5.54319e-05
5.88968e-05
6.22328e-05
6.55758e-05
6.91609e-05
7.33321e-05
7.85617e-05
8.54246e-05
9.45877e-05
0.000106815
0.000122995
0.000144193
0.000171717
0.000207206
0.000252743
0.000310994
0.000385393
0.000480373
0.000601676
0.000756758
0.000955326
0.00121006
0.0015376
0.00195983
0.00250573
0.00321389
0.004136
0.00531099
0.00684643
0.00894023
0.0117245
0.0154647
0.0224662
0.0399255
0.0574487
0.0747887
0.0917502
0.108174
0.123928
0.138899
0.152986
0.166098
0.178148
0.189045
0.1987
0.207022
0.213921
0.219372
0.223405
0.226162
0.227897
0.228906
0.229454
0.229736
0.229875
0.229942
0.229974
0.229988
0.229995
0.229998
0.229999
0.23
0.23
0.23
0.23
0.23
0.23
0.23
0.23
4.99862e-10
2.18607e-09
5.02825e-09
9.80451e-09
1.77906e-08
3.10517e-08
5.28814e-08
8.8441e-08
1.45658e-07
2.36422e-07
3.7808e-07
5.95115e-07
9.20721e-07
1.39776e-06
2.07829e-06
3.02088e-06
4.28522e-06
5.9245e-06
7.97731e-06
1.04613e-05
1.33704e-05
1.66765e-05
2.03333e-05
2.4282e-05
2.84566e-05
3.27879e-05
3.72072e-05
4.16483e-05
4.60498e-05
5.03566e-05
5.4524e-05
5.85249e-05
6.23651e-05
6.61086e-05
6.99081e-05
7.40187e-05
7.88085e-05
8.47771e-05
9.25248e-05
0.000102741
0.000116215
0.000133865
0.000156791
0.000186346
0.000224221
0.000272562
0.000334107
0.000412367
0.000511857
0.000638393
0.00079949
0.00100487
0.00126713
0.00160266
0.00203279
0.00258538
0.00329693
0.00421534
0.00537463
0.00686644
0.00886768
0.0114693
0.0148603
0.0251792
0.0426861
0.0601971
0.0774845
0.0943631
0.11068
0.126306
0.141131
0.155056
0.167989
0.179833
0.190499
0.199946
0.208082
0.214791
0.220029
0.223862
0.226456
0.22807
0.229001
0.229503
0.22976
0.229887
0.229948
0.229976
0.229989
0.229995
0.229998
0.229999
0.23
0.23
0.23
0.23
0.23
0.23
0.23
0.23
5.10328e-10
2.23187e-09
5.13389e-09
1.00115e-08
1.81691e-08
3.17191e-08
5.40319e-08
9.03925e-08
1.48922e-07
2.41812e-07
3.86859e-07
6.09203e-07
9.4297e-07
1.43228e-06
2.13082e-06
3.09914e-06
4.39921e-06
6.08669e-06
8.20267e-06
1.07672e-05
1.37766e-05
1.72046e-05
2.1007e-05
2.51265e-05
2.94983e-05
3.40547e-05
3.87275e-05
4.34513e-05
4.81646e-05
5.28124e-05
5.73499e-05
6.17512e-05
6.60265e-05
7.02507e-05
7.45932e-05
7.93239e-05
8.48312e-05
9.16362e-05
0.000100359
0.000111709
0.000126496
0.000145666
0.000170351
0.000201941
0.000242174
0.000293241
0.000357928
0.000439791
0.000543378
0.00067452
0.000840695
0.00105152
0.00131937
0.00166019
0.00209458
0.00264915
0.00335839
0.00426707
0.00540902
0.00686078
0.00879334
0.0112849
0.0144972
0.0275986
0.0450822
0.0625506
0.0797757
0.0965734
0.112792
0.128305
0.143003
0.156788
0.169562
0.181234
0.191772
0.201042
0.208958
0.215481
0.220556
0.224229
0.226688
0.228206
0.229075
0.229542
0.229779
0.229896
0.229952
0.229978
0.22999
0.229996
0.229998
0.229999
0.23
0.23
0.23
0.23
0.23
0.23
0.23
0.23
5.19494e-10
2.27199e-09
5.22639e-09
1.01928e-08
1.85005e-08
3.23033e-08
5.50389e-08
9.21006e-08
1.51781e-07
2.46533e-07
3.94553e-07
6.21563e-07
9.62519e-07
1.46267e-06
2.17717e-06
3.16841e-06
4.50049e-06
6.23145e-06
8.40486e-06
1.10433e-05
1.41455e-05
1.76878e-05
2.16281e-05
2.59116e-05
3.04756e-05
3.52545e-05
4.01822e-05
4.51951e-05
5.02335e-05
5.52441e-05
6.01842e-05
6.50312e-05
6.98021e-05
7.45853e-05
7.95648e-05
8.50176e-05
9.13457e-05
9.90868e-05
0.000108876
0.000121441
0.000137615
0.000158371
0.000184876
0.000218563
0.000261214
0.000315071
0.000382974
0.000468533
0.000576345
0.00071228
0.000883842
0.00110064
0.00137498
0.0017227
0.00216415
0.00272556
0.00344083
0.00435396
0.00549803
0.00694979
0.00888265
0.0113815
0.0146066
0.0295478
0.0470275
0.0644714
0.0816516
0.0983862
0.114526
0.129944
0.144531
0.158193
0.170847
0.182417
0.192817
0.20194
0.209705
0.216049
0.220968
0.224516
0.226871
0.228313
0.229133
0.229572
0.229794
0.229903
0.229955
0.22998
0.229991
0.229996
0.229998
0.229999
0.23
0.23
0.23
0.23
0.23
0.23
0.23
0.23
5.27153e-10
2.3055e-09
5.30367e-09
1.03442e-08
1.87772e-08
3.2791e-08
5.58795e-08
9.35263e-08
1.54166e-07
2.50474e-07
4.00978e-07
6.31893e-07
9.78875e-07
1.48813e-06
2.2161e-06
3.22676e-06
4.5861e-06
6.35432e-06
8.57732e-06
1.12801e-05
1.4464e-05
1.81079e-05
2.21724e-05
2.66052e-05
3.1347e-05
3.63347e-05
4.15058e-05
4.67999e-05
5.21611e-05
5.75401e-05
6.2899e-05
6.82221e-05
7.35375e-05
7.89496e-05
8.46542e-05
9.09213e-05
9.816e-05
0.000106918
0.000117845
0.000131685
0.000149298
0.00017169
0.00020007
0.000235917
0.00028107
0.000337833
0.000409116
0.000498606
0.000610986
0.000752215
0.000929893
0.00115372
0.00143612
0.00179295
0.00224453
0.0028169
0.00354383
0.00446877
0.00562179
0.00707876
0.00900508
0.0114688
0.0145812
0.0308865
0.0484761
0.0659526
0.0831179
0.0998065
0.115879
0.131218
0.145726
0.159311
0.171886
0.183358
0.193645
0.202651
0.210295
0.216516
0.221302
0.224738
0.227011
0.228394
0.229177
0.229594
0.229805
0.229908
0.229958
0.229981
0.229991
0.229996
0.229998
0.229999
0.23
0.23
0.23
0.23
0.23
0.23
0.23
0.23
5.33108e-10
2.33156e-09
5.36376e-09
1.04619e-08
1.89924e-08
3.31701e-08
5.65327e-08
9.46338e-08
1.56019e-07
2.53534e-07
4.05966e-07
6.39916e-07
9.91586e-07
1.50795e-06
2.24645e-06
3.27234e-06
4.65318e-06
6.45095e-06
8.71356e-06
1.14682e-05
1.47184e-05
1.84456e-05
2.2613e-05
2.71713e-05
3.20641e-05
3.72322e-05
4.26167e-05
4.8162e-05
5.38174e-05
5.95401e-05
6.53001e-05
7.10929e-05
7.69631e-05
8.30367e-05
8.95169e-05
9.66516e-05
0.000104845
0.000114649
0.000126722
0.000141832
0.000160864
0.000184866
0.000215093
0.000253079
0.000300728
0.000360423
0.000435163
0.000528739
0.000645962
0.000792943
0.000977462
0.00120944
0.00150156
0.00187004
0.00233573
0.00292558
0.00367441
0.004627
0.00580913
0.00730889
0.00929369
0.0118381
0.0150578
0.0320177
0.0496195
0.0670885
0.0842313
0.100886
0.116918
0.132212
0.146663
0.160179
0.172673
0.184062
0.194264
0.20318
0.210732
0.216861
0.221557
0.224908
0.227115
0.228454
0.229209
0.229611
0.229813
0.229912
0.229959
0.229982
0.229992
0.229996
0.229998
0.229999
0.23
0.23
0.23
0.23
0.23
0.23
0.23
0.23
5.37183e-10
2.3494e-09
5.40489e-09
1.05425e-08
1.91396e-08
3.34295e-08
5.69794e-08
9.53907e-08
1.57284e-07
2.55621e-07
4.09367e-07
6.45382e-07
1.00024e-06
1.52145e-06
2.26714e-06
3.30346e-06
4.69909e-06
6.51728e-06
8.80741e-06
1.15983e-05
1.48953e-05
1.86818e-05
2.29231e-05
2.75725e-05
3.25762e-05
3.78782e-05
4.34236e-05
4.91611e-05
5.50456e-05
6.10412e-05
6.71269e-05
7.33107e-05
7.96546e-05
8.63037e-05
9.3489e-05
0.000101494
0.000110607
0.000121382
0.000134492
0.000150727
0.000171006
0.000196415
0.000228256
0.000268121
0.000317977
0.000380283
0.000458133
0.000555433
0.000677132
0.00082952
0.00102061
0.00126061
0.00156262
0.00194343
0.0024247
0.0030343
0.00380805
0.0047928
0.00600907
0.00756449
0.00962064
0.0122563
0.0155894
0.0328668
0.0504583
0.0679117
0.0850303
0.101653
0.117647
0.132895
0.147298
0.160763
0.173204
0.184536
0.194679
0.203534
0.211023
0.217088
0.221725
0.225023
0.227185
0.228494
0.229231
0.229622
0.229819
0.229915
0.229961
0.229982
0.229992
0.229996
0.229998
0.229999
0.23
0.23
0.23
0.23
0.23
0.23
0.23
0.23
5.39219e-10
2.3583e-09
5.4254e-09
1.05826e-08
1.92127e-08
3.35579e-08
5.71999e-08
9.57631e-08
1.57904e-07
2.56642e-07
4.11025e-07
6.48038e-07
1.00444e-06
1.52798e-06
2.27714e-06
3.31852e-06
4.72132e-06
6.54948e-06
8.85313e-06
1.1662e-05
1.49823e-05
1.87986e-05
2.30774e-05
2.77733e-05
3.28343e-05
3.82061e-05
4.38362e-05
4.96762e-05
5.56845e-05
6.18296e-05
6.80969e-05
7.45025e-05
8.11192e-05
8.81086e-05
9.57342e-05
0.000104319
0.000114176
0.000125652
0.000139467
0.000156443
0.000177531
0.000203847
0.000236728
0.000277805
0.00032909
0.000393096
0.000472978
0.000572722
0.000697372
0.000853335
0.00104877
0.00129407
0.00160254
0.00199121
0.00248194
0.00310281
0.00389
0.00489017
0.00612241
0.00774749
0.0098322
0.012507
0.0158802
0.033302
0.0509001
0.0683453
0.0854482
0.102051
0.118021
0.133245
0.147621
0.161058
0.17347
0.184773
0.194885
0.203709
0.211166
0.2172
0.221806
0.225078
0.22722
0.228514
0.229241
0.229627
0.229821
0.229916
0.229961
0.229982
0.229992
0.229996
0.229998
0.229999
0.23
0.23
0.23
0.23
0.23
0.23
0.23
0.23
5.39186e-10
2.35816e-09
5.42509e-09
1.05821e-08
1.92119e-08
3.35569e-08
5.71988e-08
9.57623e-08
1.57905e-07
2.56646e-07
4.11037e-07
6.48064e-07
1.00449e-06
1.52808e-06
2.2773e-06
3.31876e-06
4.72169e-06
6.55e-06
8.85383e-06
1.16628e-05
1.49834e-05
1.87997e-05
2.30786e-05
2.77743e-05
3.28349e-05
3.82062e-05
4.38353e-05
4.9674e-05
5.56806e-05
6.18237e-05
6.80884e-05
7.44911e-05
8.11043e-05
8.80898e-05
9.57107e-05
0.00010429
0.00011414
0.00012561
0.000139416
0.000156382
0.000177458
0.00020376
0.000236625
0.000277682
0.000328944
0.000392922
0.000472772
0.000572475
0.000697074
0.000852973
0.00104832
0.00129351
0.00160184
0.00199033
0.00248084
0.00310149
0.00388856
0.00488893
0.00612199
0.00774697
0.00983115
0.0125067
0.0158812
0.0333042
0.0509032
0.0683485
0.0854513
0.102054
0.118024
0.133247
0.147623
0.16106
0.173472
0.184775
0.194887
0.20371
0.211167
0.217201
0.221807
0.225078
0.22722
0.228514
0.229242
0.229627
0.229821
0.229916
0.229961
0.229982
0.229992
0.229996
0.229998
0.229999
0.23
0.23
0.23
0.23
0.23
0.23
0.23
0.23
5.37087e-10
2.34899e-09
5.40403e-09
1.0541e-08
1.91374e-08
3.34265e-08
5.69761e-08
9.53882e-08
1.57285e-07
2.55632e-07
4.09398e-07
6.45451e-07
1.00038e-06
1.5217e-06
2.26756e-06
3.30414e-06
4.70011e-06
6.51874e-06
8.80938e-06
1.16008e-05
1.48984e-05
1.86852e-05
2.29266e-05
2.75756e-05
3.25784e-05
3.78789e-05
4.34218e-05
4.91558e-05
5.50358e-05
6.10256e-05
6.71044e-05
7.32799e-05
7.96142e-05
8.62522e-05
9.34246e-05
0.000101415
0.000110511
0.000121265
0.000134352
0.000150558
0.000170804
0.000196173
0.000227966
0.000267774
0.000317562
0.000379788
0.000457542
0.000554726
0.000676287
0.000828505
0.00101938
0.00125913
0.00156082
0.00194124
0.00242205
0.00303115
0.00380454
0.00478939
0.00600687
0.00756308
0.00962008
0.0122582
0.0155928
0.0328726
0.050466
0.067919
0.0850378
0.101661
0.117654
0.132902
0.147304
0.160768
0.173209
0.184541
0.194683
0.203538
0.211026
0.217091
0.221727
0.225024
0.227186
0.228495
0.229231
0.229622
0.229819
0.229915
0.229961
0.229982
0.229992
0.229996
0.229998
0.229999
0.23
0.23
0.23
0.23
0.23
0.23
0.23
0.23
5.32951e-10
2.3309e-09
5.36235e-09
1.04595e-08
1.89887e-08
3.31651e-08
5.65272e-08
9.46297e-08
1.56021e-07
2.53551e-07
4.06017e-07
6.4003e-07
9.91812e-07
1.50836e-06
2.24715e-06
3.27346e-06
4.65488e-06
6.45339e-06
8.71688e-06
1.14725e-05
1.47236e-05
1.84516e-05
2.26194e-05
2.71775e-05
3.20694e-05
3.72354e-05
4.26167e-05
4.81573e-05
5.38065e-05
5.95211e-05
6.52713e-05
7.10523e-05
7.69086e-05
8.29664e-05
8.94285e-05
9.65424e-05
0.000104712
0.000114488
0.000126529
0.000141598
0.000160584
0.000184529
0.000214687
0.000252592
0.000300145
0.000359726
0.000434333
0.000527757
0.000644807
0.000791596
0.00097591
0.00120768
0.00149959
0.0018679
0.00233351
0.00292345
0.00367268
0.00462583
0.00580919
0.00731157
0.00929965
0.0118466
0.0150632
0.032026
0.0496302
0.0671008
0.0842429
0.100897
0.116928
0.132222
0.146672
0.160187
0.172682
0.18407
0.194271
0.203187
0.210738
0.216866
0.221562
0.224911
0.227117
0.228455
0.22921
0.229611
0.229813
0.229912
0.229959
0.229982
0.229992
0.229996
0.229998
0.229999
0.23
0.23
0.23
0.23
0.23
0.23
0.23
0.23
5.26933e-10
2.30457e-09
5.30167e-09
1.03407e-08
1.87719e-08
3.27836e-08
5.58707e-08
9.35183e-08
1.54165e-07
2.5049e-07
4.01034e-07
6.32027e-07
9.79149e-07
1.48864e-06
2.21698e-06
3.22819e-06
4.58829e-06
6.3575e-06
8.58169e-06
1.12858e-05
1.44711e-05
1.81162e-05
2.21814e-05
2.66145e-05
3.13555e-05
3.63413e-05
4.1509e-05
4.67981e-05
5.21524e-05
5.75225e-05
6.28704e-05
6.81804e-05
7.34806e-05
7.88754e-05
8.45605e-05
9.08054e-05
9.80189e-05
0.000106748
0.00011764
0.000131438
0.000149001
0.000171332
0.000199639
0.000235398
0.000280444
0.000337078
0.000408206
0.00049751
0.000609666
0.000750629
0.000927994
0.00115146
0.00143344
0.00178982
0.00224093
0.00281289
0.00353956
0.00446495
0.0056189
0.00707824
0.00900812
0.0114754
0.0145861
0.0309009
0.0484937
0.065971
0.0831361
0.0998239
0.115895
0.131233
0.14574
0.159324
0.171898
0.183369
0.193655
0.20266
0.210303
0.216523
0.221307
0.224741
0.227013
0.228395
0.229177
0.229594
0.229805
0.229908
0.229958
0.229981
0.229991
0.229996
0.229998
0.229999
0.23
0.23
0.23
0.23
0.23
0.23
0.23
0.23
5.19208e-10
2.27077e-09
5.22377e-09
1.01882e-08
1.84932e-08
3.22929e-08
5.50257e-08
9.20867e-08
1.51772e-07
2.46542e-07
3.94603e-07
6.217e-07
9.62813e-07
1.46323e-06
2.17817e-06
3.17005e-06
4.50304e-06
6.2352e-06
8.41008e-06
1.10502e-05
1.41542e-05
1.76982e-05
2.16399e-05
2.5924e-05
3.04879e-05
3.52654e-05
4.01903e-05
4.51987e-05
5.02308e-05
5.5233e-05
6.01627e-05
6.49972e-05
6.97538e-05
7.45208e-05
7.94824e-05
8.49153e-05
9.12211e-05
9.89365e-05
0.000108696
0.000121226
0.000137357
0.000158061
0.000184504
0.000218115
0.000260673
0.000314416
0.000382177
0.00046756
0.000575152
0.000710812
0.000882029
0.0010984
0.00137221
0.0017193
0.00216005
0.00272072
0.00343533
0.00434816
0.00549252
0.00694589
0.0088819
0.0113848
0.0146107
0.0295718
0.0470558
0.0645003
0.0816792
0.0984117
0.114549
0.129964
0.144549
0.158209
0.170863
0.182431
0.192829
0.201951
0.209713
0.216054
0.220971
0.224519
0.226873
0.228314
0.229133
0.229572
0.229794
0.229903
0.229955
0.22998
0.229991
0.229996
0.229998
0.229999
0.23
0.23
0.23
0.23
0.23
0.23
0.23
0.23
5.09976e-10
2.23037e-09
5.13063e-09
1.00057e-08
1.81598e-08
3.17054e-08
5.40136e-08
9.0371e-08
1.48903e-07
2.41807e-07
3.86893e-07
6.09322e-07
9.43253e-07
1.43285e-06
2.13185e-06
3.10088e-06
4.40196e-06
6.09079e-06
8.20848e-06
1.0775e-05
1.37866e-05
1.72168e-05
2.1021e-05
2.51419e-05
2.95144e-05
3.40702e-05
3.87412e-05
4.34616e-05
4.81698e-05
5.28106e-05
5.73394e-05
6.17303e-05
6.59936e-05
7.02045e-05
7.45326e-05
7.92479e-05
8.47385e-05
9.15251e-05
0.000100227
0.000111553
0.000126313
0.000145451
0.000170098
0.000201644
0.000241825
0.00029283
0.000357445
0.000439225
0.000542719
0.000673758
0.000839828
0.00105055
0.00131833
0.00165915
0.00209363
0.00264849
0.00335831
0.00426793
0.00541112
0.00686448
0.00879813
0.0112884
0.0144925
0.0276253
0.045111
0.0625799
0.0798044
0.0966011
0.112819
0.128331
0.143029
0.156812
0.169584
0.181252
0.191788
0.201055
0.208968
0.215488
0.220562
0.224233
0.226691
0.228208
0.229076
0.229542
0.22978
0.229896
0.229952
0.229978
0.22999
0.229996
0.229998
0.229999
0.23
0.23
0.23
0.23
0.23
0.23
0.23
0.23
4.99445e-10
2.18428e-09
5.02434e-09
9.79744e-09
1.77791e-08
3.10344e-08
5.28572e-08
8.84104e-08
1.45625e-07
2.36397e-07
3.78087e-07
5.95198e-07
9.2096e-07
1.39828e-06
2.07928e-06
3.0226e-06
4.288e-06
5.92873e-06
7.98337e-06
1.04695e-05
1.33811e-05
1.66898e-05
2.0349e-05
2.42997e-05
2.84756e-05
3.28073e-05
3.72258e-05
4.16648e-05
4.60627e-05
5.03644e-05
5.45252e-05
5.85182e-05
6.23492e-05
6.60829e-05
6.98721e-05
7.39722e-05
7.87517e-05
8.47098e-05
9.24468e-05
0.000102652
0.000116115
0.000133754
0.000156668
0.000186211
0.000224075
0.000272405
0.000333942
0.000412196
0.000511684
0.000638228
0.000799343
0.00100476
0.00126708
0.00160269
0.00203293
0.00258566
0.00329731
0.00421567
0.00537464
0.00686507
0.00886327
0.0114595
0.0148423
0.0252255
0.0427285
0.0602368
0.0775219
0.0943984
0.110713
0.126337
0.141159
0.155081
0.168011
0.179854
0.190517
0.199961
0.208093
0.214802
0.220037
0.223869
0.22646
0.228072
0.229002
0.229504
0.229761
0.229887
0.229948
0.229976
0.229989
0.229995
0.229998
0.229999
0.23
0.23
0.23
0.23
0.23
0.23
0.23
0.23
4.87831e-10
2.13345e-09
4.90709e-09
9.56764e-09
1.73589e-08
3.02938e-08
5.15807e-08
8.62462e-08
1.42006e-07
2.30429e-07
3.68379e-07
5.79643e-07
8.96445e-07
1.36034e-06
2.02172e-06
2.93716e-06
4.16408e-06
5.75326e-06
7.74089e-06
1.01424e-05
1.29497e-05
1.61328e-05
1.96441e-05
2.34235e-05
2.74041e-05
3.15163e-05
3.56913e-05
3.98635e-05
4.3972e-05
4.79634e-05
5.17938e-05
5.54367e-05
5.8895e-05
6.2224e-05
6.556e-05
6.91386e-05
7.33041e-05
7.85291e-05
8.5389e-05
9.45508e-05
0.000106779
0.000122964
0.000144171
0.000171709
0.00020722
0.00025279
0.000311087
0.00038555
0.000480614
0.000602025
0.000757239
0.000955958
0.00121085
0.00153851
0.00196077
0.0025065
0.00321414
0.00413521
0.00530853
0.00684134
0.0089328
0.0117178
0.0154696
0.0225362
0.039983
0.0574997
0.0748356
0.0917941
0.108216
0.123967
0.138935
0.153021
0.166131
0.178178
0.189072
0.198724
0.207045
0.213941
0.219387
0.223415
0.226169
0.2279
0.228907
0.229455
0.229737
0.229875
0.229942
0.229974
0.229988
0.229995
0.229998
0.229999
0.23
0.23
0.23
0.23
0.23
0.23
0.23
0.23
4.75344e-10
2.07879e-09
4.78101e-09
9.32051e-09
1.69071e-08
2.94972e-08
5.0208e-08
8.39193e-08