/*--------------------------------*- C++ -*----------------------------------*\
  =========                 |
  \\      /  F ield         | OpenFOAM: The Open Source CFD Toolbox
   \\    /   O peration     | Website:  https://openfoam.org
    \\  /    A nd           | Version:  8
     \\/     M anipulation  |
\*---------------------------------------------------------------------------*/
FoamFile
{
    version     2.0;
    format      ascii;
    class       surfaceScalarField;
    location    "200/fluid";
    object      phi;
}
// * * * * * * * * * * * * * * * * * * * * * * * * * * * * * * * * * * * * * //

dimensions      [1 0 -1 0 0 0 0];

internalField   nonuniform List<scalar> 
7860
(
6.5747e-07
-1.69875e-08
6.55225e-07
-5.09354e-08
6.52034e-07
-8.4891e-08
6.47803e-07
-1.18773e-07
6.42417e-07
-1.52473e-07
6.35742e-07
-1.859e-07
6.27623e-07
-2.18994e-07
6.17893e-07
-2.5167e-07
6.06377e-07
-2.838e-07
5.92901e-07
-3.15209e-07
5.77301e-07
-3.45664e-07
5.59443e-07
-3.74861e-07
5.39238e-07
-4.02406e-07
5.16696e-07
-4.27813e-07
4.92031e-07
-4.50506e-07
4.65487e-07
-4.69816e-07
4.37395e-07
-4.85087e-07
4.08179e-07
-4.95804e-07
3.78331e-07
-5.01728e-07
3.48356e-07
-5.02986e-07
3.18722e-07
-5.00058e-07
2.89812e-07
-4.93671e-07
2.61907e-07
-4.84645e-07
2.35195e-07
-4.73761e-07
2.09811e-07
-4.6167e-07
1.85819e-07
-4.48863e-07
1.63195e-07
-4.35684e-07
1.41881e-07
-4.22373e-07
1.21801e-07
-4.09092e-07
1.02873e-07
-3.95954e-07
8.5019e-08
-3.8304e-07
6.81642e-08
-3.70414e-07
5.22382e-08
-3.58128e-07
3.7175e-08
-3.46229e-07
2.2913e-08
-3.34758e-07
9.39372e-09
-3.23754e-07
-3.43632e-09
-3.13249e-07
-1.56215e-08
-3.03249e-07
-2.72041e-08
-2.93745e-07
-3.823e-08
-2.84757e-07
-4.87421e-08
-2.76297e-07
-5.87811e-08
-2.68371e-07
-6.8385e-08
-2.60981e-07
-7.75897e-08
-2.54126e-07
-8.64286e-08
-2.478e-07
-9.49332e-08
-2.41996e-07
-1.03132e-07
-2.36702e-07
-1.11053e-07
-2.31908e-07
-1.1872e-07
-2.276e-07
-1.26155e-07
-2.23765e-07
-1.3338e-07
-2.20388e-07
-1.40411e-07
-2.17455e-07
-1.47267e-07
-2.14951e-07
-1.53961e-07
-2.12864e-07
-1.60505e-07
-2.1118e-07
-1.66912e-07
-2.09888e-07
-1.73192e-07
-2.08979e-07
-1.79355e-07
-2.08449e-07
-1.85412e-07
-2.08297e-07
-1.91379e-07
-2.0853e-07
-1.97277e-07
-2.09168e-07
-2.03135e-07
-2.10276e-07
-2.08997e-07
-2.11841e-07
-2.1493e-07
-2.14008e-07
-2.2101e-07
-2.16962e-07
-2.26908e-07
-2.20854e-07
-2.3978e-07
-2.28941e-07
-2.48495e-07
-2.45114e-07
-2.58783e-07
-2.62977e-07
-2.70288e-07
-2.8243e-07
-2.8308e-07
-3.03563e-07
-2.97355e-07
-3.2653e-07
-3.13351e-07
-3.51492e-07
-3.31378e-07
-3.78618e-07
-3.51835e-07
-4.08105e-07
-3.7525e-07
-4.40166e-07
-4.02296e-07
-4.75084e-07
-4.33833e-07
-5.13287e-07
-4.70884e-07
-5.54711e-07
-5.14441e-07
-5.98321e-07
-5.64979e-07
-6.41578e-07
-6.22072e-07
-6.79748e-07
-6.84562e-07
-7.06237e-07
-7.4997e-07
-7.15445e-07
-8.14869e-07
-7.06106e-07
-8.76082e-07
-6.81515e-07
-9.31569e-07
-6.46525e-07
-9.80494e-07
-6.05461e-07
-1.02269e-06
-5.60923e-07
-1.05813e-06
-5.14323e-07
-1.0874e-06
-4.66308e-07
-1.1113e-06
-4.17331e-07
-1.1306e-06
-3.67765e-07
-1.14598e-06
-3.1793e-07
-1.15806e-06
-2.68064e-07
-1.16734e-06
-2.18247e-07
-1.17425e-06
-1.68499e-07
-1.17918e-06
-1.19202e-07
-1.18242e-06
-7.10783e-08
-2.38864e-08
6.58004e-07
-1.64582e-08
6.56204e-07
-4.91352e-08
6.53069e-07
-8.17555e-08
6.48592e-07
-1.14296e-07
6.42711e-07
-1.46592e-07
6.35342e-07
-1.7853e-07
6.26384e-07
-2.10035e-07
6.15734e-07
-2.41018e-07
6.03291e-07
-2.71356e-07
5.8897e-07
-3.00885e-07
5.72708e-07
-3.29398e-07
5.54475e-07
-3.5662e-07
5.34278e-07
-3.82198e-07
5.12183e-07
-4.05699e-07
4.88337e-07
-4.26632e-07
4.62926e-07
-4.44365e-07
4.36202e-07
-4.58306e-07
4.08488e-07
-4.68014e-07
3.80163e-07
-4.73305e-07
3.51625e-07
-4.7433e-07
3.23255e-07
-4.7155e-07
2.95377e-07
-4.65638e-07
2.68246e-07
-4.57346e-07
2.42041e-07
-4.47379e-07
2.16889e-07
-4.36336e-07
1.92867e-07
-4.24655e-07
1.69998e-07
-4.1263e-07
1.48276e-07
-4.00468e-07
1.27675e-07
-3.8831e-07
1.08155e-07
-3.76258e-07
8.96713e-08
-3.64385e-07
7.2174e-08
-3.52751e-07
5.56109e-08
-3.41405e-07
3.99284e-08
-3.30392e-07
2.5073e-08
-3.19755e-07
1.09911e-08
-3.09531e-07
-2.3691e-09
-2.99754e-07
-1.50551e-08
-2.90428e-07
-2.71104e-08
-2.8155e-07
-3.85822e-08
-2.73141e-07
-4.95153e-08
-2.65214e-07
-5.9953e-08
-2.57779e-07
-6.99364e-08
-2.50839e-07
-7.95044e-08
-2.44395e-07
-8.86939e-08
-2.38443e-07
-9.75396e-08
-2.32978e-07
-1.06074e-07
-2.27992e-07
-1.14328e-07
-2.23475e-07
-1.22329e-07
-2.19415e-07
-1.30105e-07
-2.15802e-07
-1.3768e-07
-2.12623e-07
-1.45075e-07
-2.09866e-07
-1.52314e-07
-2.07517e-07
-1.59416e-07
-2.05564e-07
-1.66399e-07
-2.03995e-07
-1.73282e-07
-2.028e-07
-1.80085e-07
-2.0197e-07
-1.86826e-07
-2.01497e-07
-1.93529e-07
-2.01378e-07
-2.00222e-07
-2.01613e-07
-2.0694e-07
-2.02212e-07
-2.13739e-07
-2.0322e-07
-2.20697e-07
-2.04591e-07
-2.27932e-07
-2.06421e-07
-2.35607e-07
-2.08834e-07
-2.41595e-07
-2.11927e-07
-2.53909e-07
-2.22035e-07
-2.6314e-07
-2.36881e-07
-2.73978e-07
-2.53343e-07
-2.86358e-07
-2.71486e-07
-3.00314e-07
-2.91305e-07
-3.15991e-07
-3.12848e-07
-3.33611e-07
-3.3621e-07
-3.53451e-07
-3.61511e-07
-3.75847e-07
-3.88897e-07
-4.01197e-07
-4.18529e-07
-4.29913e-07
-4.50695e-07
-4.62469e-07
-4.85742e-07
-4.99417e-07
-5.23454e-07
-5.4125e-07
-5.62721e-07
-5.88196e-07
-6.01054e-07
-6.40014e-07
-6.3395e-07
-6.9584e-07
-6.55367e-07
-7.53819e-07
-6.60974e-07
-8.11464e-07
-6.50611e-07
-8.66515e-07
-6.27616e-07
-9.17507e-07
-5.96107e-07
-9.63761e-07
-5.59477e-07
-1.00505e-06
-5.19763e-07
-1.04125e-06
-4.78168e-07
-1.07251e-06
-4.35075e-07
-1.09907e-06
-3.90782e-07
-1.12126e-06
-3.45579e-07
-1.13945e-06
-2.99738e-07
-1.15404e-06
-2.53483e-07
-1.16537e-06
-2.06916e-07
-1.17377e-06
-1.601e-07
-1.17951e-06
-1.13457e-07
-1.1828e-06
-6.77938e-08
-2.28608e-08
6.57751e-07
-1.56757e-08
6.55483e-07
-4.68666e-08
6.51731e-07
-7.80039e-08
6.46461e-07
-1.09026e-07
6.39632e-07
-1.39763e-07
6.31198e-07
-1.70096e-07
6.21111e-07
-1.99947e-07
6.09326e-07
-2.29233e-07
5.95813e-07
-2.57841e-07
5.80556e-07
-2.85627e-07
5.63566e-07
-3.12403e-07
5.44877e-07
-3.37925e-07
5.24555e-07
-3.61866e-07
5.02686e-07
-3.83812e-07
4.79346e-07
-4.03266e-07
4.54695e-07
-4.19677e-07
4.28965e-07
-4.32523e-07
4.0244e-07
-4.41418e-07
3.75443e-07
-4.46218e-07
3.48302e-07
-4.47081e-07
3.21328e-07
-4.44448e-07
2.94781e-07
-4.38949e-07
2.68867e-07
-4.31278e-07
2.43728e-07
-4.22077e-07
2.1944e-07
-4.1188e-07
1.96043e-07
-4.01087e-07
1.73566e-07
-3.89982e-07
1.52025e-07
-3.78757e-07
1.31424e-07
-3.67542e-07
1.11754e-07
-3.56424e-07
9.29988e-08
-3.4547e-07
7.51331e-08
-3.3473e-07
5.81268e-08
-3.24249e-07
4.19451e-08
-3.14067e-07
2.65497e-08
-3.04222e-07
1.18997e-08
-2.9475e-07
-2.04708e-09
-2.85682e-07
-1.533e-08
-2.77019e-07
-2.79867e-08
-2.68762e-07
-4.00597e-08
-2.60932e-07
-5.15909e-08
-2.53542e-07
-6.26217e-08
-2.46602e-07
-7.31924e-08
-2.40117e-07
-8.33419e-08
-2.3409e-07
-9.31079e-08
-2.28517e-07
-1.02526e-07
-2.23395e-07
-1.11632e-07
-2.18717e-07
-1.20457e-07
-2.14475e-07
-1.29034e-07
-2.1066e-07
-1.37393e-07
-2.07262e-07
-1.45561e-07
-2.04269e-07
-1.53568e-07
-2.0167e-07
-1.6144e-07
-1.99453e-07
-1.69204e-07
-1.97606e-07
-1.76888e-07
-1.96116e-07
-1.84519e-07
-1.94972e-07
-1.92127e-07
-1.94164e-07
-1.99745e-07
-1.93681e-07
-2.07409e-07
-1.93515e-07
-2.15164e-07
-1.93662e-07
-2.23054e-07
-1.94127e-07
-2.31144e-07
-1.94932e-07
-2.39491e-07
-1.96023e-07
-2.48211e-07
-1.97441e-07
-2.57601e-07
-1.99105e-07
-2.63927e-07
-2.00918e-07
-2.7515e-07
-2.13138e-07
-2.85728e-07
-2.27273e-07
-2.97527e-07
-2.42751e-07
-3.10738e-07
-2.59734e-07
-3.25508e-07
-2.7827e-07
-3.42004e-07
-2.98397e-07
-3.60412e-07
-3.20197e-07
-3.80936e-07
-3.43785e-07
-4.03785e-07
-3.69303e-07
-4.29159e-07
-3.96933e-07
-4.5719e-07
-4.2704e-07
-4.88052e-07
-4.59892e-07
-5.21982e-07
-4.95119e-07
-5.5932e-07
-5.31361e-07
-6.00653e-07
-5.65676e-07
-6.46564e-07
-5.93398e-07
-6.96685e-07
-6.09472e-07
-7.49424e-07
-6.11122e-07
-8.02485e-07
-5.99276e-07
-8.53809e-07
-5.7721e-07
-9.02028e-07
-5.48344e-07
-9.46466e-07
-5.15256e-07
-9.86884e-07
-4.79443e-07
-1.02336e-06
-4.41738e-07
-1.05586e-06
-4.02598e-07
-1.08435e-06
-3.62295e-07
-1.1089e-06
-3.21033e-07
-1.12963e-06
-2.7901e-07
-1.14671e-06
-2.364e-07
-1.16034e-06
-1.93285e-07
-1.17071e-06
-1.49734e-07
-1.17799e-06
-1.06181e-07
-1.18234e-06
-6.34429e-08
-2.13763e-08
6.57753e-07
-1.48949e-08
6.55391e-07
-4.45046e-08
6.51437e-07
-7.40495e-08
6.45879e-07
-1.03469e-07
6.38705e-07
-1.32589e-07
6.29897e-07
-1.61288e-07
6.19441e-07
-1.89491e-07
6.07323e-07
-2.17114e-07
5.93536e-07
-2.44052e-07
5.78082e-07
-2.7017e-07
5.60974e-07
-2.95292e-07
5.42243e-07
-3.19187e-07
5.21942e-07
-3.41554e-07
5.00154e-07
-3.62008e-07
4.77e-07
-3.80088e-07
4.52648e-07
-3.9529e-07
4.27316e-07
-4.07142e-07
4.01261e-07
-4.15299e-07
3.74769e-07
-4.19645e-07
3.48131e-07
-4.20343e-07
3.2162e-07
-4.17821e-07
2.95471e-07
-4.1267e-07
2.6987e-07
-4.05537e-07
2.44955e-07
-3.97014e-07
2.20817e-07
-3.87588e-07
1.97512e-07
-3.77625e-07
1.75069e-07
-3.67383e-07
1.53501e-07
-3.57033e-07
1.32807e-07
-3.46694e-07
1.12977e-07
-3.36444e-07
9.39953e-08
-3.26342e-07
7.58406e-08
-3.16433e-07
5.84873e-08
-3.06759e-07
4.19067e-08
-2.97355e-07
2.60668e-08
-2.88256e-07
1.09333e-08
-2.79496e-07
-3.52967e-09
-2.71104e-07
-1.73559e-08
-2.63077e-07
-3.05782e-08
-2.55418e-07
-4.32344e-08
-2.48148e-07
-5.53627e-08
-2.41281e-07
-6.70017e-08
-2.34825e-07
-7.81892e-08
-2.28786e-07
-8.89628e-08
-2.23167e-07
-9.93593e-08
-2.17966e-07
-1.09415e-07
-2.1318e-07
-1.19163e-07
-2.08804e-07
-1.28639e-07
-2.04831e-07
-1.37876e-07
-2.01251e-07
-1.46904e-07
-1.98057e-07
-1.55756e-07
-1.95237e-07
-1.64462e-07
-1.92781e-07
-1.73051e-07
-1.90677e-07
-1.81555e-07
-1.88913e-07
-1.90003e-07
-1.87478e-07
-1.98426e-07
-1.86358e-07
-2.06856e-07
-1.85543e-07
-2.15326e-07
-1.85021e-07
-2.23871e-07
-1.84785e-07
-2.32525e-07
-1.84829e-07
-2.4131e-07
-1.8518e-07
-2.50273e-07
-1.85831e-07
-2.59426e-07
-1.8679e-07
-2.68717e-07
-1.88164e-07
-2.78023e-07
-1.8999e-07
-2.92073e-07
-1.92745e-07
-3.01528e-07
-2.04486e-07
-3.12292e-07
-2.17559e-07
-3.24361e-07
-2.31975e-07
-3.37862e-07
-2.47783e-07
-3.52933e-07
-2.65023e-07
-3.69716e-07
-2.83748e-07
-3.88356e-07
-3.0404e-07
-4.09009e-07
-3.26012e-07
-4.31836e-07
-3.49808e-07
-4.56974e-07
-3.7564e-07
-4.84548e-07
-4.03889e-07
-5.14783e-07
-4.34662e-07
-5.47998e-07
-4.67396e-07
-5.84601e-07
-5.00487e-07
-6.2501e-07
-5.30794e-07
-6.69337e-07
-5.53843e-07
-7.16942e-07
-5.65467e-07
-7.6634e-07
-5.64086e-07
-8.15708e-07
-5.51279e-07
-8.63511e-07
-5.30123e-07
-9.08708e-07
-5.03499e-07
-9.50722e-07
-4.73409e-07
-9.89258e-07
-4.40982e-07
-1.0242e-06
-4.0683e-07
-1.05553e-06
-3.71286e-07
-1.08326e-06
-3.34566e-07
-1.10746e-06
-2.96844e-07
-1.12817e-06
-2.58299e-07
-1.14548e-06
-2.19091e-07
-1.15947e-06
-1.79298e-07
-1.17021e-06
-1.38989e-07
-1.1778e-06
-9.85957e-08
-1.18231e-06
-5.89265e-08
-1.98674e-08
6.57688e-07
-1.40488e-08
6.5517e-07
-4.19872e-08
6.50984e-07
-6.98637e-08
6.45126e-07
-9.761e-08
6.37593e-07
-1.25056e-07
6.28387e-07
-1.52082e-07
6.1751e-07
-1.78613e-07
6.04968e-07
-2.04572e-07
5.90775e-07
-2.29858e-07
5.74954e-07
-2.54347e-07
5.57541e-07
-2.77874e-07
5.38586e-07
-3.00227e-07
5.18162e-07
-3.21121e-07
4.96366e-07
-3.40198e-07
4.73328e-07
-3.57027e-07
4.4921e-07
-3.71141e-07
4.24215e-07
-3.82104e-07
3.98579e-07
-3.89605e-07
3.72556e-07
-3.93548e-07
3.46407e-07
-3.94105e-07
3.20372e-07
-3.91682e-07
2.94659e-07
-3.86841e-07
2.69435e-07
-3.80185e-07
2.44821e-07
-3.72265e-07
2.20903e-07
-3.63531e-07
1.97735e-07
-3.54315e-07
1.75348e-07
-3.44854e-07
1.53759e-07
-3.35303e-07
1.32972e-07
-3.25766e-07
1.12981e-07
-3.16316e-07
9.37769e-08
-3.07004e-07
7.53422e-08
-2.97869e-07
5.76567e-08
-2.88948e-07
4.06965e-08
-2.80275e-07
2.44344e-08
-2.7188e-07
8.8406e-09
-2.63794e-07
-6.1153e-09
-2.56043e-07
-2.04635e-08
-2.48621e-07
-3.42331e-08
-2.41536e-07
-4.74585e-08
-2.34804e-07
-6.01745e-08
-2.2844e-07
-7.2417e-08
-2.22452e-07
-8.42216e-08
-2.16846e-07
-9.56241e-08
-2.11623e-07
-1.0666e-07
-2.06783e-07
-1.17364e-07
-2.02324e-07
-1.2777e-07
-1.9824e-07
-1.37912e-07
-1.94526e-07
-1.47824e-07
-1.91172e-07
-1.57537e-07
-1.88172e-07
-1.67084e-07
-1.85515e-07
-1.76496e-07
-1.83191e-07
-1.85804e-07
-1.81187e-07
-1.9504e-07
-1.79494e-07
-2.04236e-07
-1.78098e-07
-2.13422e-07
-1.76987e-07
-2.22633e-07
-1.7615e-07
-2.31901e-07
-1.75574e-07
-2.4126e-07
-1.75252e-07
-2.50748e-07
-1.75174e-07
-2.60395e-07
-1.75383e-07
-2.70273e-07
-1.75823e-07
-2.80413e-07
-1.76552e-07
-2.90763e-07
-1.77765e-07
-3.01153e-07
-1.79692e-07
-3.17014e-07
-1.85195e-07
-3.26855e-07
-1.95727e-07
-3.38047e-07
-2.07612e-07
-3.50556e-07
-2.20906e-07
-3.64461e-07
-2.35544e-07
-3.79886e-07
-2.51524e-07
-3.96957e-07
-2.68903e-07
-4.15796e-07
-2.87767e-07
-4.3653e-07
-3.08234e-07
-4.59282e-07
-3.30452e-07
-4.84135e-07
-3.54685e-07
-5.11193e-07
-3.81278e-07
-5.40645e-07
-4.10173e-07
-5.72756e-07
-4.40629e-07
-6.07876e-07
-4.70797e-07
-6.46355e-07
-4.97374e-07
-6.88245e-07
-5.16148e-07
-7.32922e-07
-5.23828e-07
-7.79068e-07
-5.19866e-07
-8.25163e-07
-5.06275e-07
-8.69962e-07
-4.85889e-07
-9.12623e-07
-4.61114e-07
-9.52649e-07
-4.33514e-07
-9.89745e-07
-4.03946e-07
-1.02373e-06
-3.7287e-07
-1.05449e-06
-3.40534e-07
-1.08197e-06
-3.07095e-07
-1.10613e-06
-2.72689e-07
-1.12696e-06
-2.37464e-07
-1.14449e-06
-2.0156e-07
-1.15875e-06
-1.65043e-07
-1.16976e-06
-1.27979e-07
-1.17757e-06
-9.07876e-08
-1.18224e-06
-5.42502e-08
-1.8289e-08
6.5767e-07
-1.31852e-08
6.55086e-07
-3.9403e-08
6.50783e-07
-6.5561e-08
6.44766e-07
-9.15926e-08
6.37042e-07
-1.17332e-07
6.27624e-07
-1.42664e-07
6.16526e-07
-1.67515e-07
6.03767e-07
-1.91812e-07
5.8937e-07
-2.15461e-07
5.73368e-07
-2.38343e-07
5.55804e-07
-2.60306e-07
5.36732e-07
-2.8115e-07
5.16229e-07
-3.00609e-07
4.94393e-07
-3.18349e-07
4.71353e-07
-3.33968e-07
4.47274e-07
-3.47034e-07
4.22354e-07
-3.57145e-07
3.96823e-07
-3.64023e-07
3.70932e-07
-3.67591e-07
3.44928e-07
-3.68021e-07
3.19042e-07
-3.65703e-07
2.93471e-07
-3.61165e-07
2.6837e-07
-3.5497e-07
2.43852e-07
-3.47627e-07
2.19996e-07
-3.39549e-07
1.9685e-07
-3.31042e-07
1.74443e-07
-3.22318e-07
1.52787e-07
-3.1352e-07
1.31887e-07
-3.0474e-07
1.11736e-07
-2.96042e-07
9.23254e-08
-2.87472e-07
7.36392e-08
-2.79066e-07
5.56593e-08
-2.70856e-07
3.8364e-08
-2.62871e-07
2.17288e-08
-2.55142e-07
5.72684e-09
-2.47695e-07
-9.6687e-09
-2.40553e-07
-2.44844e-08
-2.33707e-07
-3.87476e-08
-2.27168e-07
-5.24897e-08
-2.20951e-07
-6.57431e-08
-2.1507e-07
-7.85409e-08
-2.09532e-07
-9.09167e-08
-2.04341e-07
-1.02904e-07
-1.99501e-07
-1.14537e-07
-1.9501e-07
-1.25849e-07
-1.90866e-07
-1.36873e-07
-1.87065e-07
-1.47642e-07
-1.836e-07
-1.58188e-07
-1.80465e-07
-1.68543e-07
-1.77651e-07
-1.78739e-07
-1.75149e-07
-1.88807e-07
-1.72949e-07
-1.98778e-07
-1.71041e-07
-2.08683e-07
-1.69411e-07
-2.18553e-07
-1.6805e-07
-2.28421e-07
-1.66943e-07
-2.38317e-07
-1.66079e-07
-2.48277e-07
-1.65446e-07
-2.58336e-07
-1.65033e-07
-2.68531e-07
-1.64832e-07
-2.78911e-07
-1.6487e-07
-2.89533e-07
-1.65074e-07
-3.00458e-07
-1.65482e-07
-3.11963e-07
-1.66055e-07
-3.22061e-07
-1.66719e-07
-3.36215e-07
-1.75271e-07
-3.47666e-07
-1.85418e-07
-3.60003e-07
-1.96598e-07
-3.73426e-07
-2.09005e-07
-3.88077e-07
-2.2264e-07
-4.04093e-07
-2.37511e-07
-4.21609e-07
-2.53684e-07
-4.40756e-07
-2.71253e-07
-4.6166e-07
-2.90344e-07
-4.8444e-07
-3.11116e-07
-5.09177e-07
-3.33879e-07
-5.36008e-07
-3.58886e-07
-5.65151e-07
-3.8592e-07
-5.96891e-07
-4.14055e-07
-6.31575e-07
-4.41226e-07
-6.69465e-07
-4.64089e-07
-7.10415e-07
-4.78869e-07
-7.53606e-07
-4.83196e-07
-7.97715e-07
-4.7733e-07
-8.41409e-07
-4.63452e-07
-8.83683e-07
-4.44061e-07
-9.23891e-07
-4.21124e-07
-9.61655e-07
-3.95852e-07
-9.96746e-07
-3.68903e-07
-1.02901e-06
-3.40624e-07
-1.05836e-06
-3.11202e-07
-1.0847e-06
-2.80759e-07
-1.10798e-06
-2.49407e-07
-1.12817e-06
-2.17275e-07
-1.14524e-06
-1.84486e-07
-1.15919e-06
-1.51098e-07
-1.17e-06
-1.17172e-07
-1.17768e-06
-8.3108e-08
-1.18227e-06
-4.96519e-08
-1.67413e-08
6.57647e-07
-1.22987e-08
6.55e-07
-3.6756e-08
6.50598e-07
-6.11586e-08
6.44446e-07
-8.54411e-08
6.36559e-07
-1.09445e-07
6.26955e-07
-1.33059e-07
6.15656e-07
-1.56215e-07
6.02688e-07
-1.78843e-07
5.88082e-07
-2.00854e-07
5.71881e-07
-2.22139e-07
5.54133e-07
-2.42555e-07
5.34903e-07
-2.61915e-07
5.14272e-07
-2.79972e-07
4.92346e-07
-2.96412e-07
4.69257e-07
-3.10862e-07
4.4517e-07
-3.22922e-07
4.20282e-07
-3.32223e-07
3.94816e-07
-3.38512e-07
3.69013e-07
-3.4173e-07
3.4311e-07
-3.42048e-07
3.17326e-07
-3.39837e-07
2.91846e-07
-3.35594e-07
2.66817e-07
-3.29841e-07
2.42346e-07
-3.23049e-07
2.18504e-07
-3.15596e-07
1.95338e-07
-3.07763e-07
1.72874e-07
-2.9974e-07
1.51125e-07
-2.91656e-07
1.30092e-07
-2.83594e-07
1.09771e-07
-2.75611e-07
9.01529e-08
-2.67746e-07
7.12234e-08
-2.60032e-07
5.29654e-08
-2.52497e-07
3.5359e-08
-2.45169e-07
1.83813e-08
-2.38073e-07
2.00736e-09
-2.31235e-07
-1.37866e-08
-2.24673e-07
-2.90242e-08
-2.18379e-07
-4.37322e-08
-2.12363e-07
-5.79397e-08
-2.06641e-07
-7.16769e-08
-2.01224e-07
-8.49749e-08
-1.96118e-07
-9.78654e-08
-1.91329e-07
-1.1038e-07
-1.86858e-07
-1.22552e-07
-1.82705e-07
-1.34411e-07
-1.78867e-07
-1.45991e-07
-1.7534e-07
-1.57322e-07
-1.72119e-07
-1.68436e-07
-1.69196e-07
-1.79363e-07
-1.66564e-07
-1.90134e-07
-1.64215e-07
-2.00777e-07
-1.62138e-07
-2.11323e-07
-1.60324e-07
-2.21801e-07
-1.58763e-07
-2.32237e-07
-1.57441e-07
-2.4266e-07
-1.56351e-07
-2.53095e-07
-1.5548e-07
-2.63564e-07
-1.54821e-07
-2.7409e-07
-1.54367e-07
-2.84681e-07
-1.54133e-07
-2.9535e-07
-1.54124e-07
-3.06091e-07
-1.54313e-07
-3.16897e-07
-1.54763e-07
-3.27796e-07
-1.55421e-07
-3.44469e-07
-1.56344e-07
-3.5581e-07
-1.65068e-07
-3.67829e-07
-1.74645e-07
-3.80688e-07
-1.85141e-07
-3.94601e-07
-1.96682e-07
-4.09722e-07
-2.09327e-07
-4.26173e-07
-2.23121e-07
-4.44072e-07
-2.38135e-07
-4.63539e-07
-2.54467e-07
-4.84693e-07
-2.72245e-07
-5.07638e-07
-2.91648e-07
-5.32468e-07
-3.12997e-07
-5.59339e-07
-3.3643e-07
-5.8846e-07
-3.61595e-07
-6.20083e-07
-3.87399e-07
-6.54471e-07
-4.11625e-07
-6.91727e-07
-4.31e-07
-7.31527e-07
-4.42268e-07
-7.72994e-07
-4.43883e-07
-8.14947e-07
-4.36665e-07
-8.56302e-07
-4.228e-07
-8.96266e-07
-4.04452e-07
-9.34328e-07
-3.83234e-07
-9.70167e-07
-3.60094e-07
-1.00357e-06
-3.35536e-07
-1.03439e-06
-3.09825e-07
-1.0625e-06
-2.83099e-07
-1.08781e-06
-2.5545e-07
-1.11025e-06
-2.26968e-07
-1.12976e-06
-1.97763e-07
-1.14631e-06
-1.67944e-07
-1.15984e-06
-1.37559e-07
-1.17035e-06
-1.06663e-07
-1.17783e-06
-7.56325e-08
-1.18231e-06
-4.51711e-08
-1.52296e-08
6.57634e-07
-1.13993e-08
6.54947e-07
-3.40683e-08
6.50476e-07
-5.66876e-08
6.4423e-07
-7.91952e-08
6.36226e-07
-1.01441e-07
6.26488e-07
-1.23321e-07
6.1504e-07
-1.44768e-07
6.01916e-07
-1.65718e-07
5.87152e-07
-1.86089e-07
5.70792e-07
-2.05778e-07
5.52891e-07
-2.24652e-07
5.33517e-07
-2.42537e-07
5.12755e-07
-2.59203e-07
4.90713e-07
-2.7436e-07
4.67526e-07
-2.87661e-07
4.43361e-07
-2.98736e-07
4.18416e-07
-3.07248e-07
3.92913e-07
-3.12971e-07
3.67092e-07
-3.15859e-07
3.41184e-07
-3.16079e-07
3.15403e-07
-3.13985e-07
2.89927e-07
-3.10037e-07
2.64895e-07
-3.04721e-07
2.40408e-07
-2.98468e-07
2.16533e-07
-2.91623e-07
1.93312e-07
-2.84441e-07
1.70768e-07
-2.77094e-07
1.48911e-07
-2.69697e-07
1.27742e-07
-2.62325e-07
1.07255e-07
-2.55026e-07
8.74426e-08
-2.47837e-07
6.82896e-08
-2.40786e-07
4.978e-08
-2.33899e-07
3.18949e-08
-2.27199e-07
1.46126e-08
-2.2071e-07
-2.09003e-09
-2.14456e-07
-1.82346e-08
-2.08452e-07
-3.38429e-08
-2.02688e-07
-4.89408e-08
-1.97176e-07
-6.35557e-08
-1.91931e-07
-7.77161e-08
-1.86962e-07
-9.14513e-08
-1.82275e-07
-1.04791e-07
-1.77875e-07
-1.17766e-07
-1.73763e-07
-1.30406e-07
-1.69938e-07
-1.42742e-07
-1.66399e-07
-1.54804e-07
-1.6314e-07
-1.66621e-07
-1.60158e-07
-1.78223e-07
-1.57445e-07
-1.8964e-07
-1.54994e-07
-2.00899e-07
-1.52797e-07
-2.1203e-07
-1.50846e-07
-2.23059e-07
-1.4913e-07
-2.34016e-07
-1.47639e-07
-2.44925e-07
-1.46364e-07
-2.55815e-07
-1.45293e-07
-2.6671e-07
-1.44419e-07
-2.77636e-07
-1.43734e-07
-2.88617e-07
-1.43234e-07
-2.99664e-07
-1.42956e-07
-3.10813e-07
-1.42881e-07
-3.22051e-07
-1.43028e-07
-3.33304e-07
-1.43552e-07
-3.44442e-07
-1.44566e-07
-3.62336e-07
-1.47233e-07
-3.735e-07
-1.54963e-07
-3.8576e-07
-1.63602e-07
-3.99037e-07
-1.73256e-07
-4.134e-07
-1.8391e-07
-4.28961e-07
-1.95583e-07
-4.45831e-07
-2.08326e-07
-4.64118e-07
-2.22213e-07
-4.83936e-07
-2.37345e-07
-5.054e-07
-2.53846e-07
-5.28608e-07
-2.71923e-07
-5.53674e-07
-2.91865e-07
-5.80767e-07
-3.13695e-07
-6.10086e-07
-3.36945e-07
-6.4185e-07
-3.6038e-07
-6.76226e-07
-3.81701e-07
-7.13161e-07
-3.97816e-07
-7.52166e-07
-4.06046e-07
-7.92315e-07
-4.05551e-07
-8.32537e-07
-3.97505e-07
-8.71932e-07
-3.83974e-07
-9.09872e-07
-3.66799e-07
-9.45958e-07
-3.47286e-07
-9.79938e-07
-3.26179e-07
-1.01163e-06
-3.03869e-07
-1.04092e-06
-2.80557e-07
-1.06767e-06
-2.56349e-07
-1.09181e-06
-2.31315e-07
-1.11325e-06
-2.0553e-07
-1.13192e-06
-1.79088e-07
-1.14778e-06
-1.52085e-07
-1.16078e-06
-1.24561e-07
-1.17088e-06
-9.65656e-08
-1.17806e-06
-6.84477e-08
-1.18237e-06
-4.08654e-08
-1.37773e-08
6.57622e-07
-1.04879e-08
6.54899e-07
-3.13452e-08
6.5037e-07
-5.21584e-08
6.44044e-07
-7.28688e-08
6.35939e-07
-9.33367e-08
6.26082e-07
-1.13463e-07
6.14502e-07
-1.33187e-07
6.01233e-07
-1.52449e-07
5.86317e-07
-1.71172e-07
5.69801e-07
-1.89261e-07
5.51744e-07
-2.06593e-07
5.32217e-07
-2.23007e-07
5.1131e-07
-2.38291e-07
4.89133e-07
-2.52175e-07
4.65825e-07
-2.64341e-07
4.41556e-07
-2.74449e-07
4.16525e-07
-2.82193e-07
3.90957e-07
-2.87369e-07
3.65085e-07
-2.89945e-07
3.3914e-07
-2.90083e-07
3.13329e-07
-2.88113e-07
2.87825e-07
-2.84464e-07
2.6276e-07
-2.7958e-07
2.3823e-07
-2.73856e-07
2.14299e-07
-2.67606e-07
1.91003e-07
-2.61058e-07
1.68365e-07
-2.54367e-07
1.46393e-07
-2.47635e-07
1.25086e-07
-2.4093e-07
1.0444e-07
-2.34293e-07
8.44435e-08
-2.27757e-07
6.50843e-08
-2.21346e-07
4.63464e-08
-2.15083e-07
2.82114e-08
-2.0899e-07
1.06585e-08
-2.03088e-07
-6.33309e-09
-1.97398e-07
-2.27839e-08
-1.91932e-07
-3.87151e-08
-1.86681e-07
-5.41513e-08
-1.81658e-07
-6.91184e-08
-1.76876e-07
-8.36436e-08
-1.72342e-07
-9.77547e-08
-1.68063e-07
-1.1148e-07
-1.64042e-07
-1.24849e-07
-1.60281e-07
-1.37889e-07
-1.56778e-07
-1.5063e-07
-1.53532e-07
-1.631e-07
-1.50538e-07
-1.75327e-07
-1.47792e-07
-1.87341e-07
-1.45288e-07
-1.99168e-07
-1.43019e-07
-2.10836e-07
-1.40977e-07
-2.22371e-07
-1.39154e-07
-2.33802e-07
-1.3754e-07
-2.45153e-07
-1.36126e-07
-2.56452e-07
-1.34902e-07
-2.67725e-07
-1.33856e-07
-2.79e-07
-1.3298e-07
-2.90305e-07
-1.32263e-07
-3.01671e-07
-1.31697e-07
-3.13133e-07
-1.31318e-07
-3.24735e-07
-1.31083e-07
-3.36527e-07
-1.31004e-07
-3.48553e-07
-1.31209e-07
-3.59021e-07
-1.31772e-07
-3.74867e-07
-1.36657e-07
-3.87039e-07
-1.43783e-07
-4.00074e-07
-1.51737e-07
-4.14056e-07
-1.60636e-07
-4.29076e-07
-1.70462e-07
-4.45241e-07
-1.81223e-07
-4.62665e-07
-1.92968e-07
-4.81463e-07
-2.05774e-07
-5.01752e-07
-2.19742e-07
-5.23652e-07
-2.34995e-07
-5.47271e-07
-2.51763e-07
-5.72744e-07
-2.70281e-07
-6.00239e-07
-2.90469e-07
-6.29932e-07
-3.11767e-07
-6.61977e-07
-3.32837e-07
-6.96419e-07
-3.51377e-07
-7.3304e-07
-3.64561e-07
-7.71231e-07
-3.70276e-07
-8.10087e-07
-3.68235e-07
-8.48684e-07
-3.5979e-07
-8.86299e-07
-3.46825e-07
-9.22437e-07
-3.30894e-07
-9.56782e-07
-3.13053e-07
-9.89125e-07
-2.93889e-07
-1.01931e-06
-2.73707e-07
-1.04722e-06
-2.52662e-07
-1.07274e-06
-2.30833e-07
-1.09578e-06
-2.08273e-07
-1.11627e-06
-1.85044e-07
-1.13413e-06
-1.61227e-07
-1.14931e-06
-1.36906e-07
-1.16176e-06
-1.12114e-07
-1.17143e-06
-8.68936e-08
-1.17831e-06
-6.15671e-08
-1.18243e-06
-3.6743e-08
-1.23859e-08
6.57613e-07
-9.56696e-09
6.54861e-07
-2.85932e-08
6.50283e-07
-4.75802e-08
6.43888e-07
-6.64741e-08
6.35697e-07
-8.51456e-08
6.25737e-07
-1.03503e-07
6.1404e-07
-1.2149e-07
6.00642e-07
-1.39051e-07
5.85588e-07
-1.56117e-07
5.68927e-07
-1.72599e-07
5.5072e-07
-1.88385e-07
5.31043e-07
-2.03327e-07
5.09986e-07
-2.17229e-07
4.87664e-07
-2.29846e-07
4.64219e-07
-2.40886e-07
4.39824e-07
-2.5004e-07
4.14682e-07
-2.5703e-07
3.89016e-07
-2.61677e-07
3.63063e-07
-2.63957e-07
3.3705e-07
-2.64026e-07
3.1118e-07
-2.62191e-07
2.85622e-07
-2.58846e-07
2.60502e-07
-2.54395e-07
2.35911e-07
-2.49196e-07
2.1191e-07
-2.4353e-07
1.88532e-07
-2.37603e-07
1.65796e-07
-2.31553e-07
1.4371e-07
-2.25471e-07
1.22272e-07
-2.19414e-07
1.01476e-07
-2.13421e-07
8.13128e-08
-2.07519e-07
6.17685e-08
-2.0173e-07
4.28278e-08
-1.96074e-07
2.44729e-08
-1.9057e-07
6.68394e-09
-1.85238e-07
-1.05581e-08
-1.80097e-07
-2.72727e-08
-1.75154e-07
-4.34808e-08
-1.70404e-07
-5.92059e-08
-1.65858e-07
-7.44728e-08
-1.61527e-07
-8.93072e-08
-1.5742e-07
-1.03736e-07
-1.5354e-07
-1.17786e-07
-1.49892e-07
-1.31484e-07
-1.46476e-07
-1.44859e-07
-1.4329e-07
-1.57937e-07
-1.40334e-07
-1.70746e-07
-1.37604e-07
-1.83312e-07
-1.35095e-07
-1.95662e-07
-1.32802e-07
-2.07822e-07
-1.30718e-07
-2.19818e-07
-1.28836e-07
-2.31674e-07
-1.27148e-07
-2.43416e-07
-1.25646e-07
-2.55068e-07
-1.24321e-07
-2.66652e-07
-1.23162e-07
-2.78193e-07
-1.22162e-07
-2.89712e-07
-1.21309e-07
-3.01234e-07
-1.20593e-07
-3.12782e-07
-1.20009e-07
-3.24389e-07
-1.19577e-07
-3.36092e-07
-1.19251e-07
-3.47935e-07
-1.19032e-07
-3.60109e-07
-1.18898e-07
-3.7161e-07
-1.18795e-07
-3.85608e-07
-1.24857e-07
-3.9867e-07
-1.31678e-07
-4.12421e-07
-1.39123e-07
-4.27037e-07
-1.47352e-07
-4.42649e-07
-1.56398e-07
-4.59372e-07
-1.66285e-07
-4.77322e-07
-1.77065e-07
-4.96619e-07
-1.88815e-07
-5.17388e-07
-2.01636e-07
-5.39751e-07
-2.15654e-07
-5.6383e-07
-2.31104e-07
-5.89775e-07
-2.48158e-07
-6.17746e-07
-2.66658e-07
-6.47885e-07
-2.85971e-07
-6.80268e-07
-3.04702e-07
-7.14816e-07
-3.20622e-07
-7.51166e-07
-3.31225e-07
-7.88631e-07
-3.3492e-07
-8.26352e-07
-3.31824e-07
-8.6354e-07
-3.23341e-07
-8.99609e-07
-3.1114e-07
-9.34171e-07
-2.96523e-07
-9.66973e-07
-2.80342e-07
-9.97845e-07
-2.6306e-07
-1.02665e-06
-2.44918e-07
-1.05329e-06
-2.26035e-07
-1.07766e-06
-2.06471e-07
-1.09967e-06
-1.86266e-07
-1.11924e-06
-1.6547e-07
-1.13631e-06
-1.44155e-07
-1.15083e-06
-1.22393e-07
-1.16273e-06
-1.00211e-07
-1.17198e-06
-7.76449e-08
-1.17855e-06
-5.49908e-08
-1.18249e-06
-3.28053e-08
-1.10569e-08
6.57604e-07
-8.63726e-09
6.54826e-07
-2.58149e-08
6.50204e-07
-4.2958e-08
6.43747e-07
-6.00177e-08
6.35477e-07
-7.68757e-08
6.25423e-07
-9.34482e-08
6.13617e-07
-1.09684e-07
6.00099e-07
-1.25532e-07
5.84912e-07
-1.4093e-07
5.68111e-07
-1.55797e-07
5.49759e-07
-1.70031e-07
5.29931e-07
-1.83497e-07
5.08723e-07
-1.96018e-07
4.86253e-07
-2.07371e-07
4.62666e-07
-2.17292e-07
4.38138e-07
-2.25501e-07
4.12875e-07
-2.31751e-07
3.87103e-07
-2.35884e-07
3.61058e-07
-2.37884e-07
3.34966e-07
-2.37899e-07
3.09026e-07
-2.36209e-07
2.83403e-07
-2.33174e-07
2.58219e-07
-2.29157e-07
2.33561e-07
-2.24478e-07
2.09485e-07
-2.19391e-07
1.86023e-07
-2.14076e-07
1.63192e-07
-2.08655e-07
1.40997e-07
-2.03209e-07
1.19437e-07
-1.97787e-07
9.85053e-08
-1.92423e-07
7.81913e-08
-1.87141e-07
5.84825e-08
-1.8196e-07
3.93636e-08
-1.76896e-07
2.08173e-08
-1.71969e-07
2.82417e-09
-1.67194e-07
-1.46328e-08
-1.62589e-07
-3.15725e-08
-1.58159e-07
-4.80156e-08
-1.53899e-07
-6.39847e-08
-1.49821e-07
-7.95036e-08
-1.45934e-07
-9.45971e-08
-1.42245e-07
-1.09291e-07
-1.38759e-07
-1.2361e-07
-1.35479e-07
-1.37582e-07
-1.32404e-07
-1.51232e-07
-1.29534e-07
-1.64587e-07
-1.26867e-07
-1.77671e-07
-1.24401e-07
-1.90512e-07
-1.2213e-07
-2.03133e-07
-1.2005e-07
-2.15559e-07
-1.18156e-07
-2.27814e-07
-1.16441e-07
-2.39921e-07
-1.14898e-07
-2.51902e-07
-1.1352e-07
-2.63777e-07
-1.12298e-07
-2.75565e-07
-1.11227e-07
-2.87285e-07
-1.10298e-07
-2.9895e-07
-1.09504e-07
-3.10575e-07
-1.0884e-07
-3.22171e-07
-1.0831e-07
-3.33758e-07
-1.07917e-07
-3.45367e-07
-1.07619e-07
-3.57018e-07
-1.07439e-07
-3.68755e-07
-1.07346e-07
-3.84536e-07
-1.07426e-07
-3.96989e-07
-1.13076e-07
-4.102e-07
-1.19369e-07
-4.24189e-07
-1.26249e-07
-4.39085e-07
-1.33779e-07
-4.55013e-07
-1.42013e-07
-4.72081e-07
-1.50993e-07
-4.90399e-07
-1.6078e-07
-5.10081e-07
-1.7145e-07
-5.31251e-07
-1.83098e-07
-5.5403e-07
-1.95855e-07
-5.78552e-07
-2.09945e-07
-6.04967e-07
-2.25475e-07
-6.33418e-07
-2.42234e-07
-6.63999e-07
-2.59537e-07
-6.967e-07
-2.75987e-07
-7.31315e-07
-2.89483e-07
-7.67365e-07
-2.97869e-07
-8.04123e-07
-3.00002e-07
-8.408e-07
-2.96269e-07
-8.76731e-07
-2.88034e-07
-9.11447e-07
-2.76746e-07
-9.44638e-07
-2.63492e-07
-9.76101e-07
-2.48956e-07
-1.00569e-06
-2.33506e-07
-1.03329e-06
-2.17332e-07
-1.05881e-06
-2.00527e-07
-1.08215e-06
-1.83134e-07
-1.10323e-06
-1.65185e-07
-1.12198e-06
-1.4672e-07
-1.13834e-06
-1.27801e-07
-1.15224e-06
-1.0849e-07
-1.16364e-06
-8.88097e-08
-1.17249e-06
-6.87898e-08
-1.17879e-06
-4.86988e-08
-1.18255e-06
-2.90404e-08
-9.78631e-09
6.57596e-07
-7.6997e-09
6.54794e-07
-2.30128e-08
6.50132e-07
-3.82958e-08
6.43619e-07
-5.35049e-08
6.35277e-07
-6.85338e-08
6.25136e-07
-8.33067e-08
6.1323e-07
-9.77776e-08
5.99599e-07
-1.11901e-07
5.84289e-07
-1.2562e-07
5.67355e-07
-1.38863e-07
5.48863e-07
-1.51537e-07
5.28891e-07
-1.63523e-07
5.07536e-07
-1.74661e-07
4.84919e-07
-1.84751e-07
4.6119e-07
-1.93557e-07
4.36528e-07
-2.0083e-07
4.11142e-07
-2.06352e-07
3.8526e-07
-2.09985e-07
3.59118e-07
-2.11721e-07
3.32942e-07
-2.11694e-07
3.06928e-07
-2.10161e-07
2.81236e-07
-2.07442e-07
2.55986e-07
-2.03861e-07
2.3126e-07
-1.99702e-07
2.0711e-07
-1.95188e-07
1.83568e-07
-1.90477e-07
1.60647e-07
-1.85677e-07
1.38353e-07
-1.80857e-07
1.16683e-07
-1.76059e-07
9.56293e-08
-1.71313e-07
7.51826e-08
-1.66639e-07
5.53301e-08
-1.62054e-07
3.60568e-08
-1.57573e-07
1.73461e-08
-1.53211e-07
-8.20991e-10
-1.48983e-07
-1.84605e-08
-1.44905e-07
-3.559e-08
-1.40979e-07
-5.22303e-08
-1.37203e-07
-6.84032e-08
-1.33586e-07
-8.41317e-08
-1.30138e-07
-9.94397e-08
-1.26863e-07
-1.14352e-07
-1.23767e-07
-1.28893e-07
-1.2085e-07
-1.43088e-07
-1.18115e-07
-1.56962e-07
-1.1556e-07
-1.70541e-07
-1.13182e-07
-1.83848e-07
-1.10981e-07
-1.96909e-07
-1.08951e-07
-2.09747e-07
-1.07088e-07
-2.22386e-07
-1.05388e-07
-2.34848e-07
-1.03845e-07
-2.47155e-07
-1.02453e-07
-2.59328e-07
-1.01206e-07
-2.71387e-07
-1.00097e-07
-2.8335e-07
-9.91205e-08
-2.95234e-07
-9.82713e-08
-3.07056e-07
-9.75453e-08
-3.18829e-07
-9.694e-08
-3.30564e-07
-9.64751e-08
-3.42273e-07