/*--------------------------------*- C++ -*----------------------------------*\
  =========                 |
  \\      /  F ield         | OpenFOAM: The Open Source CFD Toolbox
   \\    /   O peration     | Website:  https://openfoam.org
    \\  /    A nd           | Version:  8
     \\/     M anipulation  |
\*---------------------------------------------------------------------------*/
FoamFile
{
    version     2.0;
    format      ascii;
    class       volScalarField;
    location    "200/fluid";
    object      Qdot;
}
// * * * * * * * * * * * * * * * * * * * * * * * * * * * * * * * * * * * * * //

dimensions      [1 -1 -3 0 0 0 0];

internalField   nonuniform List<scalar> 
4000
(
0
0
3.26224e-12
-3.03007e-07
1.32716e-20
-3.82834e-16
0
0
3.5537e-07
2.45554e-19
0
-5.43337e-10
0
0
3.95716e-07
-8.65562e-18
-5.69715e-17
-4.10989e-07
4.28845e-09
2.90313e-08
6.63259e-07
5.3995e-06
6.41058e-05
0.000668644
0.00587343
0.0427481
0.257957
1.30202
5.57047
20.5048
65.9095
187.554
478.201
1103.46
2322.66
4485.54
7988.08
13261
20792.6
31007.2
44433.5
61778.9
84003.9
112413
148807
195608
256071
334474
436409
569148
742162
967805
1.26223e+06
1.64662e+06
2.1488e+06
2.80547e+06
3.66515e+06
4.79226e+06
6.2728e+06
8.22227e+06
1.0794e+07
1.41473e+07
1.86912e+07
2.47761e+07
3.29842e+07
1.13665e+08
3.01688e+08
2.57871e+07
1.88276e+07
1.35451e+07
9.57858e+06
6.64244e+06
4.5062e+06
2.98468e+06
1.93032e+06
1.22767e+06
789932
389286
52301.2
1945.85
30.9652
0.273342
0.00207262
2.50081e-05
7.66194e-07
6.31261e-08
1.10277e-08
3.09492e-09
1.26274e-09
4.51126e-10
2.26168e-10
6.75252e-11
3.1966e-11
1.3049e-11
5.57456e-12
2.32368e-12
9.38254e-13
3.62954e-13
1.20248e-13
7.67978e-13
2.65239e-07
1.55814e-12
2.90049e-07
0
7.73283e-12
-3.22981e-07
0
0
1.64385e-15
0
-3.63642e-07
-5.30502e-10
0
0
-2.89229e-14
-4.46843e-09
5.91898e-14
-1.20594e-13
-1.27629e-13
2.81969e-08
5.03154e-07
5.93525e-06
7.19283e-05
0.00074324
0.00647565
0.0468448
0.28136
1.41503
6.03667
22.1676
71.1011
201.908
513.694
1182.5
2481.77
4774.81
8458.64
13955.8
21761.1
32271.9
46004
63664.8
86223.1
115020
151907
199374
260753
340413
444061
579117
755242
985039
1.28498e+06
1.67663e+06
2.18828e+06
2.85712e+06
3.73216e+06
4.87815e+06
6.38106e+06
8.35565e+06
1.09537e+07
1.43285e+07
1.88865e+07
2.4979e+07
3.321e+07
2.07908e+08
2.25903e+08
2.49731e+07
1.81214e+07
1.29644e+07
9.11749e+06
6.28558e+06
4.23673e+06
2.78677e+06
1.79019e+06
1.13424e+06
733292
260895
25092.9
681.861
8.46069
0.0645574
0.0005152
8.00907e-06
3.42598e-07
3.75668e-08
8.18673e-09
2.65147e-09
9.91412e-10
3.81768e-10
1.49135e-10
7.39846e-11
2.9661e-11
1.1208e-11
5.56079e-12
2.1149e-12
8.39295e-13
3.65037e-13
5.38272e-12
1.83608e-14
0
2.03404e-17
0
2.99066e-07
7.64564e-12
-1.57529e-11
-3.23535e-11
6.62496e-11
1.6071e-15
0
0
0
9.80231e-19
0
-2.00506e-18
-1.21651e-17
3.84283e-07
-6.72862e-16
-4.01487e-09
4.53361e-08
6.05961e-07
7.12742e-06
8.37577e-05
0.000859739
0.00743552
0.0534395
0.319245
1.59856
6.79541
24.88
79.5952
225.483
572.246
1313.54
2746.88
5259.25
9254.07
15151.8
23460.8
34552.4
48939
67348.9
90788.8
120682
158987
208337
272238
355282
463461
604573
788791
1.0294e+06
1.34377e+06
1.75468e+06
2.292e+06
2.9949e+06
3.91487e+06
5.11945e+06
6.69733e+06
8.76469e+06
1.14703e+07
1.49483e+07
1.9574e+07
2.56175e+07
3.3481e+07
3.86048e+08
1.0176e+08
2.36191e+07
1.70174e+07
1.20767e+07
8.41903e+06
5.74953e+06
3.83665e+06
2.49782e+06
1.59012e+06
1.00416e+06
632694
153609
9212.93
193.253
2.04832
0.0156265
0.000151692
3.24073e-06
1.88657e-07
2.61999e-08
6.13151e-09
2.24102e-09
7.96341e-10
3.72873e-10
1.30068e-10
5.83177e-11
2.73279e-11
9.36861e-12
5.09482e-12
1.90188e-12
7.3938e-13
5.72311e-12
9.81701e-14
1.71323e-14
0
-2.75965e-07
6.0467e-21
0
0
2.65423e-20
0
0
3.35634e-07
-1.09844e-10
-4.66993e-19
-5.02748e-10
-9.55812e-19
0
-1.94967e-18
-1.18154e-17
2.33423e-09
-7.89356e-16
4.78196e-09
4.87595e-08
7.11274e-07
8.17061e-06
9.86857e-05
0.00101073
0.00869872
0.0622386
0.370247
1.84692
7.82486
28.564
91.1334
257.494
651.681
1490.99
3104.56
5908.1
10314.7
16752.4
25733.2
37606.4
52892.2
72352.1
97061.9
128563
168964
221103
288737
376789
491689
641833
838212
1.09525e+06
1.43191e+06
1.87319e+06
2.45213e+06
3.21244e+06
4.21211e+06
5.52822e+06
7.26338e+06
9.55429e+06
1.25647e+07
1.64977e+07
2.18135e+07
2.8802e+07
3.78999e+07
4.31221e+08
3.02212e+07
2.18542e+07
1.5599e+07
1.09629e+07
7.56548e+06
5.1125e+06
3.37511e+06
2.17521e+06
1.37543e+06
872724
472522
72020.6
2869.35
47.6705
0.443636
0.00352719
4.31026e-05
1.27941e-06
1.01914e-07
1.63103e-08
4.49653e-09
1.42019e-09
6.70581e-10
2.55638e-10
1.21194e-10
4.40534e-11
2.21333e-11
8.89518e-12
3.83124e-12
1.49546e-12
7.43204e-13
2.56867e-13
8.72806e-14
1.44697e-14
-2.64297e-07
2.01981e-17
0
0
6.09397e-12
0
-3.17535e-07
3.23716e-07
-6.51269e-11
3.13882e-15
0
2.19861e-10
0
-8.95034e-10
-1.10925e-09
-1.82097e-09
2.26002e-09
-3.71761e-09
-8.38508e-09
4.32789e-07
1.04583e-06
9.83583e-06
0.000118192
0.00120356
0.0103197
0.0735203
0.435566
2.1646
9.13991
33.2639
105.834
298.223
752.558
1715.61
3554.65
6715.77
11621
18718.3
28503.5
41309.8
57676.5
78407.8
104680
138179
181198
236819
309105
403379
526605
687903
899255
1.17645e+06
1.54035e+06
2.01863e+06
2.64809e+06
3.47789e+06
4.57409e+06
6.02594e+06
7.95515e+06
1.05295e+07
1.39154e+07
1.84741e+07
2.48284e+07
3.36177e+07
8.26453e+07
3.30666e+08
2.77616e+07
1.99339e+07
1.41152e+07
9.83099e+06
6.71755e+06
4.49204e+06
2.93423e+06
1.8736e+06
1.18029e+06
757308
281743
28475.7
825.42
11.3158
0.0981709
0.000872823
1.40157e-05
5.7404e-07
5.79301e-08
1.1905e-08
3.49263e-09
1.40708e-09
4.9814e-10
2.25708e-10
9.34561e-11
4.38118e-11
1.37556e-11
6.82456e-12
3.23216e-12
1.3881e-12
5.46576e-13
1.99219e-13
7.03781e-14
1.1784e-14
3.70027e-13
0
6.35312e-12
-1.7151e-16
7.41152e-12
2.75125e-11
0
5.12478e-11
1.5186e-15
-1.0529e-10
-3.30361e-07
-6.26635e-15
9.06255e-19
0
-8.76661e-10
-1.48105e-17
-3.47604e-07
-1.08601e-15
9.4391e-14
6.55969e-08
1.01135e-06
1.21138e-05
0.000142052
0.00144476
0.0123478
0.0876363
0.517216
2.56109
10.7783
39.1092
124.086
348.69
877.223
1991.99
4103.98
7686.9
13172
21045.9
31751.4
45618.5
63215.8
85406.5
113490
149318
195394
255074
332761
434225
567016
741040
969325
1.26905e+06
1.66291e+06
2.18098e+06
2.86312e+06
3.76233e+06
4.94918e+06
6.51781e+06
8.59405e+06
1.13466e+07
1.49055e+07
1.97345e+07
2.6172e+07
3.47913e+07
3.20247e+08
1.53566e+08
2.54032e+07
1.80858e+07
1.26929e+07
8.75869e+06
5.92704e+06
3.92407e+06
2.53852e+06
1.60855e+06
1.01265e+06
639048
159911
10149.2
229.395
2.69631
0.0229317
0.000238396
5.09343e-06
2.81484e-07
3.66916e-08
8.29041e-09
2.83923e-09
1.01884e-09
4.42247e-10
1.9765e-10
7.30975e-11
3.35928e-11
1.52552e-11
6.00843e-12
2.60448e-12
1.1464e-12
4.5101e-13
1.76837e-13
5.93336e-14
1.05115e-14
0
-2.87766e-21
2.81493e-07
-2.89359e-07
-5.96522e-12
0
-3.04898e-11
0
-1.13705e-10
0
0
0
-1.22918e-14
0
8.50647e-10
-2.15253e-17
-1.37311e-16
-3.37505e-07
7.82721e-09
9.48957e-08
1.22999e-06
1.45313e-05
0.000171571
0.00174158
0.0148402
0.104968
0.617323
3.04647
12.7812
46.2455
146.342
410.141
1028.66
2326.12
4761.68
8828
14968.2
23735.1
35460.2
50493.7
69442.2
93247.3
123353
161787
211295
275522
359248
468734
612187
800393
1.04757e+06
1.37249e+06
1.80001e+06
2.36309e+06
3.10542e+06
4.08503e+06
5.37893e+06
7.08909e+06
9.35015e+06
1.23315e+07
1.61818e+07
2.13768e+07
2.81798e+07
3.69397e+07
4.47711e+08
3.25914e+07
2.30699e+07
1.63065e+07
1.13562e+07
7.77289e+06
5.21556e+06
3.42355e+06
2.19748e+06
1.38623e+06
878052
490275
79933.8
3490.96
64.4649
0.676996
0.00593564
7.47888e-05
2.12593e-06
1.54251e-07
2.41129e-08
6.02994e-09
2.08629e-09
9.14037e-10
3.34422e-10
1.50983e-10
7.28822e-11
3.02109e-11
1.19452e-11
5.19841e-12
2.31785e-12
9.06583e-13
4.04678e-13
1.47602e-13
4.81984e-14
9.21018e-15
3.69045e-13
-6.83802e-13
-6.27368e-12
-2.86852e-07
7.25176e-12
0
0
0
0
3.13438e-07
-5.92954e-15
0
0
0
-8.24911e-10
-2.08407e-17
3.21456e-07
-1.47772e-15
7.5465e-09
1.14222e-07
1.47482e-06
1.75361e-05
0.000206935
0.00210096
0.0178591
0.125941
0.738315
3.63242
15.1968
54.8457
173.145
484.077
1210.45
2725.05
5537.55
10152.9
17035.3
26783.8
39610.4
55897.2
76287.1
101830
134125
175390
228617
297754
387972
506044
660865
864155
1.13141e+06
1.48319e+06
1.94686e+06
2.55894e+06
3.36838e+06
4.44103e+06
5.86595e+06
7.76422e+06
1.03016e+07
1.36556e+07
1.81478e+07
2.44069e+07
3.29601e+07
5.73551e+07
3.78354e+08
2.88489e+07
2.06614e+07
1.45797e+07
1.01177e+07
6.89086e+06
4.59642e+06
2.9983e+06
1.91438e+06
1.20674e+06
773848
331258
36833.8
1215.22
18.9921
0.185325
0.00174315
2.70859e-05
1.0059e-06
9.13344e-08
1.61415e-08
4.81259e-09
1.672e-09
6.52494e-10
2.98695e-10
1.30296e-10
5.95793e-11
2.36359e-11
1.58747e-11
4.39746e-12
1.81287e-12
8.11751e-13
3.58052e-13
1.31448e-13
-7.13823e-13
7.88413e-15
-6.93105e-22
-8.37117e-13
-2.79638e-12
0
0
1.18635e-11
0
-1.01927e-19
3.046e-07
0
0
0
-3.98244e-10
0
9.82105e-10
-3.5719e-09
3.12305e-07
-1.7228e-15
1.45266e-08
-2.02717e-08
1.43358e-06
2.11925e-05
0.000249606
0.00252965
0.0214592
0.150938
0.88243
4.33004
18.0722
65.085
205.065
572.105
1426.46
3196.1
6439.84
11676.4
19403.7
30176.1
44163.7
61759.5
83656.8
111031
145642
189904
247059
321348
418321
545235
711619
930018
1.217e+06
1.59454e+06
2.09179e+06
2.74767e+06
3.61421e+06
4.76135e+06
6.28359e+06
8.30947e+06
1.10153e+07
1.45486e+07
1.92972e+07
2.5915e+07
3.4969e+07
2.14274e+08
2.38065e+08
2.67654e+07
1.89987e+07
1.33018e+07
9.16366e+06
6.1967e+06
4.10456e+06
2.66006e+06
1.69035e+06
1.06631e+06
685418
206719
16523.5
439.564
6.00307
0.0564637
0.000587267
1.13092e-05
5.3881e-07
5.8922e-08
1.22294e-08
3.91572e-09
1.47029e-09
6.4971e-10
2.54968e-10
1.03396e-10
4.65374e-11
2.35846e-11
9.9519e-12
4.00132e-12
9.31997e-13
7.16487e-13
2.87125e-13
9.66842e-14
3.7403e-14
6.53786e-15
-2.62548e-07
2.69676e-07
0
1.18857e-20
-3.36928e-16
3.4173e-16
0
0
-2.01419e-19
-9.64801e-11
4.05298e-19
8.11123e-19
-3.00379e-07
0
7.73128e-10
-2.91914e-17
-1.55091e-09
-1.99071e-15
1.39558e-08
3.10399e-07
1.95005e-06
2.53961e-05
0.000299286
0.00303228
0.0256847
0.180279
1.05162
5.14939
21.4522
77.1351
242.676
675.88
1680.64
3746.17
7472.83
13383
22032.5
33875.8
49055.9
67982.6
91421.5
120688
157702
205090
266332
345973
449943
585991
764274
998144
1.30519e+06
1.7086e+06
2.23904e+06
2.937e+06
3.85605e+06
5.06709e+06
6.66391e+06
8.77064e+06
1.15476e+07
1.51148e+07
1.98213e+07
2.61782e+07
3.45081e+07
3.97256e+08
9.53945e+07
2.47595e+07
1.74974e+07
1.21892e+07
8.35228e+06
5.61685e+06
3.70002e+06
2.38603e+06
1.51188e+06
957045
591175
129985
7493.94
168.189
2.06943
0.0193675
0.000227115
5.38647e-06
3.18255e-07
4.14527e-08
9.89632e-09
3.19986e-09
1.25954e-09
4.96466e-10
2.03575e-10
1.03748e-10
4.63624e-11
1.87526e-11
2.85673e-12
-1.78699e-12
1.62103e-12
5.72737e-13
-4.99779e-12
9.74265e-14
3.18915e-14
5.88999e-15
0
2.68584e-07
-5.78459e-21
-2.7921e-07
-2.54217e-11
2.86732e-07
5.19072e-11
0
0
0
3.95085e-19
0
2.91499e-07
0
-3.13158e-18
-2.81482e-17
-2.37761e-16
-2.2883e-15
1.33803e-08
1.81387e-07
2.34843e-06
3.01365e-05
0.000356324
0.00361119
0.0305567
0.214142
1.2471
6.09759
25.3717
91.1422
286.498
796.954
1976.62
4380.38
8632.32
15249.2
24885.7
37812.7
54180.6
74415.4
99385.2
130548
169985
220529
285898
370943
481991
627316
817780
1.06768e+06
1.39587e+06
1.82725e+06
2.39473e+06
3.14183e+06
4.12608e+06
5.42346e+06
7.13414e+06
9.3897e+06
1.236e+07
1.61831e+07
2.13534e+07
2.81495e+07
3.70242e+07
4.48181e+08
3.17849e+07
2.26973e+07
1.60038e+07
1.11203e+07
7.59839e+06
5.09442e+06
3.34581e+06
2.15266e+06
1.36449e+06
870790
485370
79090.1
3549.1
69.3471
0.789368
0.0075313
0.000100489
2.89477e-06
2.06838e-07
3.09094e-08
7.95543e-09
2.79544e-09
1.05661e-09
4.92872e-10
2.02324e-10
9.06839e-11
3.9877e-11
1.5561e-11
7.11274e-12
3.20929e-12
1.23273e-12
5.25934e-13
2.17468e-13
-5.08185e-12
2.9229e-14
-5.01809e-12
0
0
0
-1.16682e-20
0
0
2.84493e-07
2.85608e-07
2.86031e-07
2.68763e-15
3.84823e-19
4.49506e-10
4.47316e-10
0
-9.06501e-18
-3.61326e-17
-2.70483e-16
-2.60237e-15
1.92015e-08
2.1167e-07
2.65039e-06
3.54358e-05
0.000420611
0.00426426
0.0360626
0.25249
1.46901
7.17705
29.8491
107.204
336.93
936.588
2317.14
5100.23
9905.34
17242.4
27896.3
41877.8
59379.1
80857.9
107297
140284
182058
235631
304936
395100
512812
666841
868725
1.13371e+06
1.48197e+06
1.94032e+06
2.54448e+06
3.34212e+06
4.39708e+06
5.79516e+06
7.65202e+06
1.01243e+07
1.33849e+07
1.76774e+07
2.35987e+07
3.15603e+07
4.77723e+07
4.08053e+08
2.86268e+07
2.05438e+07
1.45317e+07
1.01153e+07
6.91636e+06
4.63697e+06
3.0445e+06
1.9596e+06
1.24636e+06
804942
383351
48270.9
1788.36
31.1845
0.335875
0.0033226
5.04591e-05
1.731e-06
1.43703e-07
2.34212e-08
6.41502e-09
2.39891e-09
9.51851e-10
3.92294e-10
1.88485e-10
8.38815e-11
3.27138e-11
1.54865e-11
6.31578e-12
2.62372e-12
1.23182e-12
4.78711e-13
1.83763e-13
7.48222e-14
5.11105e-12
4.35801e-15
3.66507e-13
0
7.95058e-17
0
0
0
-5.01817e-11
0
2.79775e-07
-2.0016e-10
-3.98288e-10
-7.44155e-19
0
-2.71537e-07
-8.73385e-18
-3.76221e-17
-2.69932e-07
-8.3049e-14
-2.47668e-07
2.47715e-07
3.12897e-06
4.13481e-05
0.000491225
0.00498281
0.0421415
0.294971
1.71576
8.38263
34.8748
125.329
394.133
1095.44
2703.18
5900.6
11289
19381.7
30958.2
45925.1
64458
87077.8
114877
149553
193480
249802
322618
417254
540658
701935
913071
1.1899e+06
1.55342e+06
2.03153e+06
2.66151e+06
3.49322e+06
4.59376e+06
6.05372e+06
7.99616e+06
1.05893e+07
1.3986e+07
1.85292e+07
2.48529e+07
3.34588e+07
1.12558e+08
3.32382e+08
2.68754e+07
1.91998e+07
1.35408e+07
9.40581e+06
6.42088e+06
4.29937e+06
2.82076e+06
1.81653e+06
1.15992e+06
756967
287764
30363.3
969.664
15.4101
0.159968
0.00165732
2.84673e-05
1.14077e-06
1.08689e-07
2.03611e-08
5.81703e-09
2.08542e-09
9.41329e-10
3.64513e-10
1.62756e-10
7.54904e-11
2.80528e-11
9.43216e-12
5.51754e-12
2.6147e-12
1.03905e-12
4.31278e-13
1.82894e-13
7.50762e-14
2.0878e-14
4.4257e-15
0
0
-5.66712e-21
1.14477e-20
-2.30563e-20
0
0
9.26266e-20
1.96296e-10
2.5566e-15
0
7.21658e-19
0
2.61911e-07
-2.6084e-07
-4.16489e-17
-3.30918e-16
-3.29836e-15
2.32676e-08
4.04798e-07
3.64688e-06
4.77282e-05
0.000566218
0.00575143
0.0486687
0.340796
1.98335
9.698
40.3955
145.385
457.853
1273.04
3132.47
6765.11
12707.8
21507.4
33917
49752.4
69185.7
92821.1
121844
158042
203885
262603
338395
436695
564579
731292
948964
1.23357e+06
1.60618e+06
2.09469e+06
2.73613e+06
3.57973e+06
4.69113e+06
6.15818e+06
8.09869e+06
1.06713e+07
1.40122e+07
1.8433e+07
2.45054e+07
3.26206e+07
2.4456e+08
2.34405e+08
2.52725e+07
1.80698e+07
1.27461e+07
8.85239e+06
6.04119e+06
4.04394e+06
2.65326e+06
1.71057e+06
1.09676e+06
718609
230608
19953.1
567.577
8.37721
0.085056
0.000927112
1.78218e-05
8.13803e-07
8.67343e-08
1.69841e-08
5.18412e-09
1.89412e-09
7.90409e-10
3.59788e-10
1.37481e-10
6.44618e-11
2.99389e-11
1.22618e-11
1.06403e-11
2.22561e-12
6.19547e-12
1.1876e-12
1.71251e-13
6.36053e-14
2.24184e-14
-5.00507e-12
0
0
0
0
2.27705e-20
0
2.69956e-07
0
-2.6719e-07
0
-2.62112e-07
2.58971e-07
1.38017e-18
-1.36203e-18
1.87284e-14
-2.46239e-07
-2.80048e-09
-3.63218e-15
2.45742e-08
4.27307e-07
3.91619e-06
5.38376e-05
0.000643496
0.00654393
0.0554385
0.388609
2.26447
11.0907
46.2918
167.002
527.113
1466.87
3596.48
7656.3
14055.6
23451.6
36551.1
53091.5
73275.7
97794.9
127903
165463
212998
273792
352091
453377
584762
755502
977692
1.26717e+06
1.64472e+06
2.13768e+06
2.78205e+06
3.62531e+06
4.73016e+06
6.17956e+06
8.08342e+06
1.05876e+07
1.38236e+07
1.80466e+07
2.37874e+07
3.1363e+07
3.3893e+08
1.50672e+08
2.41063e+07
1.72339e+07
1.21548e+07
8.44108e+06
5.76071e+06
3.85712e+06
2.53245e+06
1.63555e+06
1.05316e+06
686253
190474
13857.9
359.581
5.00788
0.0502659
0.000576286
1.22346e-05
6.22762e-07
7.19336e-08
1.53409e-08
4.55757e-09
1.85297e-09
7.33016e-10
3.09067e-10
1.51312e-10
6.36812e-11
2.96122e-11
1.57284e-11
4.70802e-12
2.21254e-12
9.37919e-13
3.82907e-13
-4.93771e-12
8.09626e-13
2.02564e-14
3.9132e-15
0
0
-5.94226e-12
0
0
2.38791e-11
-2.65075e-07
-1.23787e-15
1.87239e-10
0
0
0
0
-7.68102e-10
-2.38804e-07
-3.54524e-14
2.35022e-07
-3.96634e-15
2.61549e-08
3.42345e-07
4.54317e-06
6.01077e-05
0.000718839
0.00732499
0.062151
0.436362
2.54756
12.5065
52.3489
189.455
599.752
1670.78
4075.49
8499.68
15149.2
24955.7
38540.8
55578.5
76343.6
101600
132654
171419
220445
283052
363508
467322
601613
775623
1.00138e+06
1.2946e+06
1.67578e+06
2.1718e+06
2.81792e+06
3.6604e+06
4.76013e+06
6.19737e+06
8.07802e+06
1.05423e+07
1.37171e+07
1.78473e+07
2.34568e+07
3.08674e+07
3.89011e+08
9.77729e+07
2.30822e+07
1.65161e+07
1.16598e+07
8.10548e+06
5.53764e+06
3.71241e+06
2.44158e+06
1.58104e+06
1.0228e+06
658241
160888
10238.7
247.164
3.288
0.0328456
0.000394438
9.10055e-06
5.07275e-07
6.33458e-08
1.38181e-08
4.55962e-09
1.73085e-09
6.75961e-10
3.03184e-10
1.44131e-10
6.27993e-11
2.63636e-11
1.12939e-11
5.0331e-12
2.0126e-12
8.40519e-13
3.81496e-13
1.47651e-13
5.79202e-14
1.96536e-14
3.56982e-15
0
0
0
-1.11127e-20
-2.63126e-07
-3.0795e-16
0
0
0
0
-3.54168e-10
-9.11161e-15
3.06038e-10
0
7.23549e-10
3.3721e-14
2.53625e-09
2.75741e-09
2.4692e-08
3.70883e-07
4.89633e-06
6.57248e-05
0.000788097
0.00804804
0.0684098
0.481247
2.81614
13.864
58.2262
211.511
671.828
1872.86
4530.99
9158.5
15690.4
25640.8
39433.1
56723.2
77865.4
103669
135486
175248
225525
289652
371920
477856
614595
791379
1.02021e+06
1.3167e+06
1.70123e+06
2.20038e+06
2.84896e+06
3.69252e+06
4.79076e+06
6.22199e+06
8.08956e+06
1.05301e+07
1.36615e+07
1.77252e+07
2.3219e+07
3.04271e+07
4.38538e+08
6.41931e+07
2.18984e+07
1.57494e+07
1.11662e+07
7.79104e+06
5.34061e+06
3.59166e+06
2.3697e+06
1.54022e+06
1.00178e+06
633749
140110
8066.57
184.113
2.36525
0.0235865
0.000294624
7.27003e-06
4.34764e-07
5.67831e-08
1.30276e-08
4.14255e-09
1.60922e-09
6.85866e-10
2.86229e-10
1.3132e-10
5.62301e-11
2.52237e-11
1.04439e-11
4.62071e-12
2.17785e-12
8.35093e-13
3.33857e-13
1.35775e-13
5.21412e-14
1.82446e-14
3.77363e-15
-3.63887e-13
-2.60734e-07
0
1.10004e-20
0
0
0
0
2.48235e-07
0
1.89201e-10
8.79791e-15
3.61916e-10
-5.75354e-10
-2.18303e-07
1.10048e-09
-4.3412e-16
2.11902e-09
2.99644e-08
3.93363e-07
5.19674e-06
7.04287e-05
0.000846593
0.00865976
0.0737427
0.519804
3.04904
15.0541
63.4415
231.322
737.029
2052.87
4895.13
9394.9
15222.8
24991.8
38662.8
55910.9
77152.6
103228
135508
175923
227048
292226
375766
483218
621746
800618
1.03186e+06
1.3311e+06
1.71868e+06
2.22114e+06
2.87313e+06
3.71995e+06
4.82087e+06
6.25396e+06
8.12224e+06
1.05608e+07
1.368e+07
1.7727e+07
2.31884e+07
3.03342e+07
4.47466e+08
4.44332e+07
2.11153e+07
1.52186e+07
1.08146e+07
7.56384e+06
5.1978e+06
3.50492e+06
2.31941e+06
1.51295e+06
988585
617240
126381
6775.25
148.295
1.85644
0.0185098
0.000238292
6.18572e-06
3.88382e-07
5.3419e-08
1.2511e-08
4.27016e-09
1.52566e-09
7.08178e-10
3.13449e-10
1.28891e-10
4.97884e-11
2.35179e-11
1.10148e-11
5.28919e-12
1.87814e-12
8.28819e-13
3.31991e-13
1.46666e-13
5.20515e-14
1.8246e-14
3.58273e-15
2.59201e-07
3.8137e-17
-7.61689e-17
-1.1579e-11
-2.56269e-07
2.53685e-07
0
1.15875e-15
0
0
-4.35133e-15
0
2.82935e-10
-1.60838e-14
6.58855e-10
-5.69372e-17
-4.53197e-16
4.44705e-09
3.28949e-08
3.16911e-07
5.31526e-06
7.38353e-05
0.000888829
0.00910529
0.0776503
0.548263
3.22241
15.9486
67.4016
246.483
786.63
2180.69
5057.67
9687.88
15702.2
22382.3
35609.8
52466.4
73417.4
99327
131553
172007
223249
288608
372390
480146
619047
798379
1.03019e+06
1.33014e+06
1.71865e+06
2.22234e+06
2.87604e+06
3.72538e+06
4.83033e+06
6.26961e+06
8.14634e+06
1.05971e+07
1.37213e+07
1.77955e+07
2.33e+07
3.05135e+07
4.50547e+08
3.42463e+07
2.06215e+07
1.48702e+07
1.05768e+07
7.40722e+06
5.09863e+06
3.44497e+06
2.28519e+06
1.49489e+06
980046
605044
118314
6057.84
128.817
1.58416
0.0157966
0.000207609
5.57062e-06
3.62219e-07
5.08796e-08
1.21788e-08
4.15212e-09
1.57414e-09
6.54589e-10
2.64876e-10
1.26306e-10
5.42924e-11
2.38308e-11
1.01618e-11
4.35465e-12
1.77883e-12
8.21747e-13
-3.8739e-12
1.34644e-13
5.19102e-14
7.50665e-13
4.9914e-12
-4.75328e-18
0
0
-1.07757e-20
0
2.49532e-07
1.97642e-11
0
9.32541e-11
0
-2.23896e-07
8.17384e-15
-6.05086e-10
-2.20558e-18
-1.06882e-17
-5.80659e-17
-2.14297e-09
4.17218e-09
3.02954e-08
3.34088e-07
5.57587e-06
7.55308e-05
0.000910186
0.00933243
0.0796551
0.562964
3.31263
16.4175
69.4887
254.413
810.846
2219.59
5161.98
10062
16299.6
22594.4
29774.4
45812
65915.6
90967.1
122295
161772
211899
275954
358179
464057
600686
777258
1.00572e+06
1.30161e+06
1.68519e+06
2.18296e+06
2.82956e+06
3.67043e+06
4.76527e+06
6.19258e+06
8.05589e+06
1.04919e+07
1.35908e+07
1.76489e+07
2.31339e+07
3.03225e+07
4.54027e+08
3.02478e+07
2.01388e+07
1.45351e+07
1.03476e+07
7.25355e+06
4.99829e+06
3.38146e+06
2.24639e+06
1.47196e+06
966566
595293
114568
5749.8
120.474
1.46819
0.0146415
0.000194403
5.30557e-06
3.50937e-07
5.03594e-08
1.19176e-08
3.87485e-09
1.56473e-09
6.33483e-10
2.78274e-10
1.33979e-10
5.32308e-11
2.4764e-11
1.1004e-11
5.1535e-12
1.75835e-12
7.69515e-13
3.04932e-13
1.45142e-13
5.01927e-12
1.67808e-14
3.22961e-15
-4.75258e-18
0
-5.77177e-12
-1.50119e-16
0
1.23437e-11
0
1.13244e-15
0
-1.65001e-10
0
-2.17314e-07
0
-2.20547e-18
1.48819e-14
-5.80625e-17
1.18149e-09
4.1719e-09
3.25356e-08
4.20404e-07
5.49907e-06
7.55507e-05
0.000910509
0.00933449
0.0796706
0.563056
3.31306
16.419
69.4917
254.411
810.794
2219.3
5161.09
10059.8
16295.5
22588.2
29766.3
45797.6
65892.2
90931.1
122242
161695
211792
275805
357974
463779
600309
776753
1.00504e+06
1.30071e+06
1.68401e+06
2.1814e+06
2.82753e+06
3.66783e+06
4.76198e+06
6.18851e+06
8.051e+06
1.04862e+07
1.35848e+07
1.76436e+07
2.31304e+07
3.03223e+07
4.54017e+08
3.02317e+07
2.01332e+07
1.45293e+07
1.03427e+07
7.24986e+06
4.99566e+06
3.37968e+06
2.24525e+06
1.47126e+06
966153
595014
114498
5745.52
120.378
1.46697
0.0146298
0.00019427
5.3008e-06
3.4972e-07
5.00458e-08
1.23789e-08
4.02698e-09
1.60776e-09
6.55521e-10
2.90187e-10
1.28253e-10
5.56157e-11
2.53715e-11
9.62663e-12
3.75034e-12
1.93428e-12
8.13942e-13
3.04952e-13
-4.81257e-12
5.17239e-14
-4.96336e-12
3.22961e-15
0
0
2.59235e-07
0
0
2.27589e-11
5.88522e-16
0
-1.63268e-19
-3.19702e-19
-3.32116e-10
0
0
6.76767e-10
-8.98781e-18
-5.69306e-17
2.27311e-09
4.44646e-09
2.85348e-08
4.09794e-07
5.40544e-06
7.38167e-05
0.000889425
0.00911123
0.0776956
0.548539
3.22373
15.9533
67.4133
246.491
786.53
2180.02
5055.08
9682.25
15691.5
22367.7
35582.3
52420.1
73344.7
99218.3
131395
171785
222940
288184
371816
479375
618022
797026
1.02842e+06
1.32784e+06
1.71569e+06
2.21856e+06
2.87129e+06
3.71951e+06
4.82322e+06
6.26124e+06
8.13699e+06
1.05873e+07
1.37119e+07
1.77899e+07
2.3301e+07
3.05223e+07
4.50546e+08
3.41901e+07
2.06142e+07
1.4861e+07
1.05686e+07
7.4011e+06
5.09461e+06
3.44257e+06
2.2839e+06
1.49426e+06
979786
604777
118184
6047.47
128.552
1.58056
0.0157612
0.000207204
5.56439e-06
3.63539e-07
5.0895e-08
1.21507e-08
3.99698e-09
1.5663e-09
6.54729e-10
2.74284e-10
1.26328e-10
5.43015e-11
2.38347e-11
1.01632e-11
4.51318e-12
1.95686e-12
7.77022e-13
1.08074e-12
1.34663e-13
5.19163e-14
1.8231e-14
3.22988e-15
0
0
-2.61138e-07
0
0
-3.03007e-16
4.58064e-11
0
0
-7.85159e-11
-2.39027e-07
0
1.2343e-18
2.23343e-07
-9.42822e-18
1.10036e-09
-4.34066e-16
4.72279e-09
2.78759e-08
3.97408e-07
5.21394e-06
7.05274e-05
0.000847636
0.00866979
0.0738206
0.520291
3.05147
15.0636
63.4698
231.376
737.03
2052.33
4892.4
9386.51
15208.1
24968.9
38620.9
55841.9
77046.2
103071
135284
175609
226616
291640
374981
482177
620378
798842
1.02958e+06
1.32821e+06
1.71509e+06
2.21676e+06
2.86792e+06
3.71398e+06
4.81442e+06
6.24762e+06
8.11702e+06
1.05584e+07
1.3681e+07
1.77359e+07
2.32075e+07
3.03604e+07
4.47517e+08
4.42941e+07
2.11215e+07
1.52215e+07
1.08155e+07
7.56387e+06
5.19767e+06
3.50488e+06
2.31949e+06
1.51311e+06
988781
617174
126208
6758.23
147.821
1.84967
0.0184417
0.000237524
6.17189e-06
3.873e-07
5.21959e-08
1.23744e-08
4.11089e-09
1.60803e-09
6.89596e-10
3.13522e-10
1.28918e-10
5.53039e-11
2.42269e-11
1.03101e-11
4.56974e-12
1.79778e-12
8.28951e-13
3.32048e-13
1.35296e-13
4.32574e-12
1.82473e-14
3.22769e-15
0
0
7.72858e-17
-1.18178e-11
3.09211e-16
2.35055e-11
0
-5.09862e-11
2.5454e-07
-1.80046e-10
3.54143e-10
0
2.37899e-07
-7.37533e-10
2.29105e-07
-1.42108e-09
2.53591e-09
-4.25514e-15
2.24734e-08
3.75207e-07
5.01444e-06
6.58326e-05
0.000789386
0.0080611
0.0685133
0.481908
2.81953
13.878
58.2719
211.625
672
1872.76
4529.19
9151.4
15675.6
25616.7
39388.8
56650.2
77753.5
103506
135255
174928
225089
289066
371140
476827
613247
789627
1.01795e+06
1.31381e+06
1.69755e+06
2.19576e+06
2.84322e+06
3.6855e+06
4.78235e+06
6.21227e+06
8.07884e+06
1.05191e+07
1.36522e+07
1.77207e+07
2.3223e+07
3.04411e+07
4.38764e+08
6.38779e+07
2.18888e+07
1.57402e+07
1.11594e+07
7.78685e+06
5.33837e+06
3.59066e+06
2.36941e+06
1.54026e+06
1.00194e+06
633700
139849
8038.32
183.29
2.35319
0.0234649
0.000293265
7.24539e-06
4.32279e-07
5.70935e-08
1.33562e-08
4.21773e-09
1.6097e-09
6.62477e-10
3.10294e-10
1.31355e-10
5.87576e-11
2.45927e-11
1.11628e-11
4.62157e-12
2.17818e-12
8.35257e-13
3.56816e-13
1.35797e-13
5.21509e-14
1.96741e-14
3.57789e-15
0
3.86376e-17
0
0
-2.66507e-07
-3.1278e-16
0
9.44844e-11
0
-2.42469e-15
-4.78421e-15
0
3.90347e-10
-2.61962e-18
6.15077e-10
-1.49001e-09
1.47107e-09
-2.36807e-09
2.3805e-08
3.52668e-07
4.56305e-06
6.01446e-05
0.00072034
0.00734041
0.0622741
0.437162
2.55178
12.5246
52.4126
189.636
600.152
1671.36
4075.45
8496.25
15139.7
24938.9
38507.7
55522.2
76256.3
101473
132475
171174
220117
282616
362936
466575
600644
774371
999770
1.29251e+06
1.6731e+06
2.16836e+06
2.81349e+06
3.65473e+06
4.75296e+06
6.18843e+06
8.0672e+06
1.05298e+07
1.37038e+07
1.78355e+07
2.34499e+07
3.08689e+07
3.89366e+08
9.72399e+07
2.30592e+07
1.64947e+07
1.16438e+07
8.09498e+06
5.5314e+06
3.70901e+06
2.43986e+06
1.58021e+06
1.02243e+06
657864
160472
10190.2
245.681
3.26543
0.0326159
0.000392027
9.05793e-06
5.05635e-07
6.33745e-08
1.38578e-08
4.48537e-09
1.73137e-09
7.19886e-10
2.9401e-10
1.44883e-10
6.28142e-11
2.92512e-11
7.03299e-12
4.66836e-12
-2.85274e-12
8.407e-13
1.12697e-12
1.47681e-13
5.7932e-14
1.96567e-14
-4.99702e-12
0
0
2.66823e-07
-1.5793e-16
2.69933e-07
-2.42504e-11
0
-9.07361e-20
1.80316e-19
0
3.7623e-10
-7.43435e-10
7.33822e-10
-1.3619e-18
7.88475e-10
3.69965e-14
2.45095e-07
2.41959e-07
2.76163e-08
3.12578e-07
3.92653e-06
5.39977e-05
0.000645111
0.00656074
0.0555734
0.389498
2.26925
11.1119
46.3698
167.242
527.723
1468.13
3598.35
7657.39
14054
23447.4
36538.1
53065.7
73233.1
97731.7
127815
165347
212848
273603
351859
453099
584437
755134
977293
1.26677e+06
1.64438e+06
2.13749e+06
2.78218e+06
3.62601e+06
4.73183e+06
6.18276e+06
8.08887e+06
1.05961e+07
1.38356e+07
1.80619e+07
2.38027e+07
3.13693e+07
3.39815e+08
1.49713e+08
2.41158e+07
1.72422e+07
1.21608e+07
8.4448e+06
5.76266e+06
3.85788e+06
2.53249e+06
1.63527e+06
1.05282e+06
685770
189864
13773.3
356.799
4.96407
0.0498202
0.00057175
1.21575e-05
6.19061e-07
7.33275e-08
1.56542e-08
4.59497e-09
1.85362e-09
7.33279e-10
3.09168e-10
1.42244e-10
5.94536e-11
2.66956e-11
1.28896e-11
5.0796e-12
2.02727e-12
6.05048e-12
5.49303e-12
1.71125e-13
5.79204e-14
1.96161e-14
3.91354e-15
0
0
0
-1.59491e-16
0
2.46208e-11
2.74814e-07
9.2623e-20
0
-2.55646e-15
3.8726e-10
0
0
-2.61887e-07
1.48902e-09
-4.16444e-17
-3.3088e-16
-3.30893e-15
1.74485e-08
2.78453e-07
3.532e-06
4.77504e-05
0.000568072
0.00576828
0.0488067
0.341715
1.98837
9.7207
40.4815
145.661
458.606
1274.79
3135.82
6770.06
12713.9
21516
33925.3
49759.4
69191.3
92826.7
121853
158059
203917
262663
338499
436867
564852
731709
949587
1.23447e+06
1.60747e+06
2.0965e+06
2.7386e+06
3.58302e+06
4.6954e+06
6.1635e+06
8.10494e+06
1.06779e+07
1.40182e+07
1.84348e+07
2.44978e+07
3.25967e+07
2.4707e+08
2.32439e+08
2.52655e+07
1.8068e+07
1.27454e+07
8.85168e+06
6.04036e+06
4.04307e+06
2.65247e+06
1.7099e+06
1.09622e+06
718108
229749
19802.2
562.127
8.28675
0.0841218
0.000918053
1.7689e-05
8.08768e-07
8.67849e-08
1.73069e-08
5.18645e-09
1.97545e-09
7.65599e-10
3.41066e-10
1.49199e-10
6.95438e-11
2.99479e-11
1.22658e-11
5.49285e-12
-2.74601e-12
1.03609e-12
4.3078e-13
-4.20358e-12
6.36246e-14
2.0985e-14
3.89665e-15
2.02086e-13
0
2.70573e-07
-2.74013e-07
0
-2.78544e-07
0
9.45029e-20
0
2.78972e-07
-2.77664e-07
0
0
2.71514e-07
-5.82201e-18
-3.76182e-17
-2.66838e-07
-2.96068e-15
1.83255e-08
1.11347e-07
3.14073e-06
4.16451e-05
0.000492749
0.00499917
0.0422746
0.295864
1.72069
8.40519
34.9617
125.614
394.939
1097.4
2707.3
5907.82
11300.1
19398.9
30981.3
45955.2
64497.7
87131.5
114952
149660
193635
250027
322942
417717
541313
702852
914339
1.19163e+06
1.55573e+06
2.03455e+06
2.66535e+06
3.49792e+06
4.59919e+06
6.0595e+06
8.00147e+06
1.05927e+07
1.39859e+07
1.8523e+07
2.48415e+07
3.34535e+07
1.14561e+08
3.30182e+08
2.68545e+07
1.91844e+07
1.35283e+07
9.39547e+06
6.41266e+06
4.2931e+06
2.81619e+06
1.81335e+06
1.15781e+06
755630
285752
30105.7
959.116
15.2192
0.157931
0.00163826
2.82131e-05
1.12884e-06
1.08755e-07
2.03722e-08
5.98238e-09
2.0048e-09
9.35997e-10
3.88913e-10
1.6282e-10
6.51487e-11
3.32396e-11
1.38719e-11
6.28585e-12
2.61558e-12
1.03941e-12
4.31427e-13
-4.966e-12
5.18366e-12
2.3768e-14
4.22975e-15
0
2.99971e-12
-5.74567e-21
1.24086e-11
-2.8002e-07
-1.39811e-11
-9.59986e-20
-9.63742e-20
0
-2.85816e-07
0
-3.65709e-10
-3.63924e-10
2.81111e-07
2.10416e-14
-3.91399e-17
2.78289e-07
-2.6141e-15
1.91992e-08
3.44848e-07
2.66287e-06
3.55849e-05
0.000422091
0.0042791
0.0361845
0.253313
1.47357
7.19805
29.9306
107.474
337.703
938.513
2321.3
5107.93
9917.86
17262.2
27924.1
41915.2
59429.1
80925.3
107390
140412
182236
235881
305285
395586
513483
667764
869983
1.1354e+06
1.48424e+06
1.94332e+06
2.54837e+06
3.34707e+06
4.40324e+06
5.80259e+06
7.66066e+06
1.0134e+07
1.33952e+07
1.76899e+07
2.36161e+07
3.15933e+07
4.82123e+07
4.07269e+08
2.86051e+07
2.05233e+07
1.45143e+07
1.01016e+07
6.90623e+06
4.62978e+06
3.03958e+06
1.95633e+06
1.24428e+06
803697
381678
47855.4
1767.56
30.7634
0.331107
0.00327897
4.99192e-05
1.72067e-06
1.43808e-07
2.41711e-08
6.4191e-09
2.58725e-09
9.52296e-10
3.97602e-10
1.76493e-10
7.78366e-11
4.18103e-11
1.54925e-11
6.3185e-12
1.95545e-12
1.2323e-12
4.31296e-13
1.94437e-13
6.90022e-14
2.65229e-14
4.55555e-15
0
0
0
-2.79207e-07
-2.39039e-20
-1.41822e-11
2.86196e-11
5.76032e-11
2.92244e-07
-2.92737e-07
3.95064e-19
4.62568e-10
0