/*--------------------------------*- C++ -*----------------------------------*\
  =========                 |
  \\      /  F ield         | OpenFOAM: The Open Source CFD Toolbox
   \\    /   O peration     | Website:  https://openfoam.org
    \\  /    A nd           | Version:  8
     \\/     M anipulation  |
\*---------------------------------------------------------------------------*/
FoamFile
{
    version     2.0;
    format      ascii;
    class       volScalarField;
    location    "200/fluid";
    object      rDeltaT;
}
// * * * * * * * * * * * * * * * * * * * * * * * * * * * * * * * * * * * * * //

dimensions      [0 0 -1 0 0 0 0];

internalField   nonuniform List<scalar> 
4000
(
512.805
537.78
561.962
585.362
607.832
629.282
649.621
668.739
686.525
702.889
717.786
731.233
743.336
754.304
764.467
774.261
784.032
793.972
804.048
813.967
823.205
831.105
836.996
840.301
840.611
837.726
831.612
822.326
810.017
794.899
777.235
757.313
735.431
711.887
686.965
660.936
640.241
643.884
666.36
688.828
711.414
734.236
757.406
781.024
805.18
829.954
855.415
881.62
908.613
936.427
965.082
994.58
1024.91
1056.05
1087.94
1120.51
1153.68
1187.31
1221.28
1255.39
1289.42
1323.03
1356.13
1388.29
1419.07
3761.78
12879.5
1481.62
1468.86
1450.1
1424.87
1393.12
1354.77
1309.78
1258.28
1200.63
1137.49
1069.67
998.785
927.522
859.371
798.55
749.483
714.875
694.106
683.523
678.552
675.251
671.21
665.153
656.674
645.858
632.985
618.391
602.408
585.298
567.208
548.305
529.045
509.745
512.405
536.824
560.33
582.753
603.974
623.922
642.534
659.737
675.472
689.716
702.505
713.949
724.251
733.711
742.736
751.701
760.921
770.559
780.551
790.573
800.072
808.355
814.712
818.526
819.353
816.93
811.15
802.053
789.792
774.603
756.77
736.604
714.423
690.541
665.254
638.84
615.645
617.698
641.744
665.755
689.85
714.146
738.751
763.769
789.291
815.404
842.181
869.688
897.978
927.094
957.068
987.916
1019.64
1052.23
1085.66
1119.88
1154.82
1190.38
1226.45
1262.89
1299.5
1335.96
1372.23
1407.94
1442.85
7071.68
9990.32
1489.68
1470.98
1447.6
1418.53
1383.16
1341.17
1292.35
1236.72
1174.56
1106.39
1033.09
956.82
881.068
810.48
750.192
704.339
674.367
658.097
651.039
648.692
647.628
645.909
642.572
637.123
629.451
619.66
607.949
594.555
579.685
563.461
546.034
527.835
509.319
511.813
534.913
556.937
577.74
597.178
615.191
631.743
646.805
660.37
672.479
683.234
692.81
701.468
709.546
717.426
725.458
733.952
743.071
752.752
762.668
772.257
780.818
787.622
792.026
793.528
791.79
786.641
778.083
766.251
751.367
733.712
713.596
691.339
667.258
641.655
614.813
590.443
592.454
618.39
644.346
670.427
696.736
723.375
750.439
778.018
806.194
835.045
864.637
895.03
926.274
958.407
991.461
1025.45
1060.38
1096.24
1133
1170.61
1209.02
1248.11
1287.77
1327.83
1367.92
1408.07
1447.87
1487.28
14244.3
4798.84
1507.19
1482.76
1452.87
1417.06
1374.87
1326
1270.32
1207.93
1139.25
1064.93
986.345
906.354
829.093
759.638
702.984
662.221
637.253
624.897
620.581
620.218
620.86
620.868
619.478
616.299
611.163
604.047
595.027
584.234
571.795
557.782
542.316
525.817
508.702
511.224
533.126
553.87
573.302
591.296
607.809
622.829
636.351
648.398
659.033
668.374
676.608
683.994
690.865
697.607
704.607
712.186
720.504
729.485
738.788
747.84
755.927
762.315
766.35
767.528
765.519
760.167
751.464
739.522
724.537
706.765
686.492
664.018
639.642
613.653
586.325
564.298
569.897
597.699
625.621
653.753
682.185
711.007
740.306
770.164
800.661
831.868
863.853
896.674
930.382
965.019
1000.62
1037.2
1074.77
1113.31
1152.8
1193.18
1234.35
1276.18
1318.48
1360.9
1403.02
1444.64
1484.81
1522.3
17402
1552.64
1526.1
1493.77
1455.72
1411.76
1361.63
1305.15
1242.35
1173.51
1099.31
1020.63
939.439
859.106
783.961
718.782
667.7
632.675
612.536
603.602
601.492
602.553
604.299
605.342
604.982
602.903
598.987
593.224
585.667
576.406
565.52
553.037
539.041
523.916
508.078
510.585
531.17
550.528
568.515
585.011
599.983
613.433
625.373
635.844
644.929
652.769
659.571
665.613
671.244
676.86
682.851
689.528
697.041
705.298
713.947
722.405
729.956
735.86
739.46
740.246
737.884
732.209
723.204
710.969
695.688
677.599
656.976
634.102
609.263
582.735
554.778
537.174
548.555
578.185
608.049
638.221
668.782
699.809
731.38
763.57
796.45
830.086
864.539
899.866
936.112
973.317
1011.51
1050.7
1090.9
1132.08
1174.2
1217.18
1260.91
1305.22
1349.85
1394.24
1438.06
1480.76
1520.9
2809.01
13879.3
1572.93
1537.71
1497.52
1451.81
1400.34
1342.98
1279.72
1210.76
1136.61
1058.08
976.342
893.854
814.257
741.905
681.232
635.555
605.724
589.667
583.45
582.995
585.115
587.729
589.675
590.346
589.441
586.825
582.457
576.358
568.588
559.199
548.199
535.654
521.931
507.427
509.933
529.201
547.202
563.797
578.878
592.42
604.434
614.945
624.006
631.711
638.211
643.722
648.53
652.986
657.484
662.414
668.08
674.624
681.947
689.69
697.272
703.978
709.077
711.92
712.003
708.991
702.719
693.163
680.411
664.633
646.053
624.927
601.523
576.109
548.946
520.283
509.005
528.101
559.429
591.105
623.193
655.761
688.877
722.609
757.021
792.176
828.134
864.948
902.664
941.324
980.958
1021.59
1063.21
1105.83
1149.39
1193.86
1239.12
1285.04
1331.43
1378.02
1424.19
1469.97
1514.61
1557.72
11596.7
6987.62
1571.81
1532.96
1488
1436.99
1379.99
1317.15
1248.72
1175.16
1097.23
1015.86
932.615
850.361
772.886
704.445
648.996
608.976
584.211
571.946
568.162
569.12
572.046
575.209
577.657
578.891
578.662
576.85
573.409
568.346
561.699
553.5
543.739
532.467
520.023
506.791
509.265
527.179
543.798
558.989
572.651
584.766
595.352
604.442
612.097
618.422
623.578
627.789
631.347
634.61
637.975
641.825
646.461
652.011
658.367
665.161
671.806
677.591
681.791
683.764
683.014
679.213
672.194
661.932
648.509
632.085
612.873
591.113
567.059
540.967
513.082
483.641
479.813
507.75
540.637
573.979
607.829
642.244
677.282
713.001
749.456
786.703
824.789
863.759
903.651
944.495
986.309
1029.1
1072.86
1117.57
1163.15
1209.53
1256.58
1304.1
1351.81
1399.32
1445.97
1491.61
1535.18
1575.71
17938.2
1620.46
1566.01
1522.3
1472.23
1416.19
1354.38
1287.06
1214.65
1137.76
1057.31
974.336
890.777
809.776
735.154
670.966
620.628
585.733
565.264
556.038
554.126
556.156
559.725
563.375
566.307
568.097
568.522
567.47
564.891
560.781
555.164
548.062
539.455
529.386
518.169
506.171
508.587
525.135
540.367
554.157
566.414
577.123
586.309
594.011
600.297
605.279
609.123
612.059
614.384
616.457
618.673
621.412
624.965
629.453
634.756
640.501
646.099
650.846
654.023
655
653.29
648.572
640.684
629.599
615.393
598.22
578.28
555.802
531.028
504.198
475.547
448.849
453.287
487.065
521.352
556.188
591.618
627.688
664.447
701.942
740.221
779.327
819.3
860.172
901.972
944.717
988.412
1033.05
1078.61
1125.04
1172.27
1220.18
1268.61
1317.33
1366.04
1414.09
1461.02
1506.22
1548.1
2034.61
15632.4
1598.85
1555.64
1506.54
1451.63
1391.1
1325.22
1254.3
1178.86
1099.64
1017.62
933.988
851.019
772.005
700.736
641.003
595.653
565.493
548.827
542.211
541.877
544.801
548.893
552.926
556.23
558.451
559.395
558.963
557.104
553.808
549.094
542.971
535.416
526.461
516.4
505.578
507.9
523.065
536.896
549.276
560.121
569.423
577.209
583.525
588.445
592.084
594.616
596.273
597.356
598.227
599.277
600.883
603.329
606.722
610.936
615.587
620.088
623.737
625.825
625.733
622.987
617.272
608.434
596.444
581.378
563.382
542.649
519.397
493.856
466.253
436.812
417.599
430.72
465.646
501.173
537.332
574.157
611.687
649.96
689.015
728.89
769.618
811.229
853.746
897.185
941.552
986.842
1033.04
1080.09
1127.95
1176.52
1225.67
1275.23
1324.97
1374.56
1423.25
1470.78
1516.62
1559.45
7378.56
10335.2
1579.15
1533.36
1481.5
1423.79
1360.51
1292.04
1218.86
1141.6
1061.16
978.523
895.103
813.47
736.972
669.321
614.002
573.299
547.327
533.88
529.406
530.354
534.017
538.572
542.972
546.648
549.295
550.745
550.904
549.726
547.197
543.329
538.127
531.565
523.668
514.709
505.011
507.207
520.975
533.394
544.356
553.785
561.678
568.066
572.998
576.554
578.854
580.074
580.452
580.29
579.949
579.819
580.272
581.581
583.846
586.929
590.442
593.795
596.293
597.237
596.021
592.181
585.414
575.57
562.624
546.651
527.79
506.229
482.174
455.846
427.463
397.234
385.538
407.305
443.233
479.843
517.155
555.195
593.993
633.579
673.982
715.23
757.349
800.357
844.267
889.085
934.804
981.407
1028.86
1077.1
1126.06
1175.63
1225.64
1275.91
1326.17
1376.08
1424.92
1472.54
1518.54
1562.17
15181.5
4386.59
1551.8
1504.93
1451.42
1391.89
1326.81
1256.69
1182.14
1103.92
1023.02
940.459
857.899
778.097
704.425
640.479
589.42
552.992
530.724
520.042
517.381
519.424
523.736
528.722
533.48
537.523
540.585
542.52
543.244
542.712
540.908
537.841
533.511
527.892
521.004
513.096
504.471
506.506
518.866
529.861
539.395
547.4
553.877
558.861
562.406
564.595
565.552
565.457
564.55
563.135
561.573
560.252
559.535
559.689
560.802
562.728
565.073
567.248
568.562
568.329
565.953
560.984
553.132
542.25
528.32
511.413
491.668
469.262
444.398
417.284
388.128
357.13
352.737
382.85
419.641
457.183
495.489
534.575
574.462
615.171
656.724
699.141
742.435
786.619
831.696
877.659
924.492
972.165
1020.63
1069.81
1119.6
1169.88
1220.46
1271.08
1321.43
1371.07
1419.22
1465.85
1509.82
1550.07
17853.2
1568.63
1526.7
1477.17
1421.17
1359.46
1292.57
1221.04
1145.5
1066.78
985.872
903.843
822.554
744.877
674.165
613.864
566.803
534.233
515.195
506.869
505.744
508.737
513.641
519.053
524.188
528.619
532.116
534.549
535.84
535.946
534.853
532.564
529.078
524.368
518.451
511.555
503.955
505.801
516.739
526.3
534.396
540.968
546.024
549.6
551.753
552.572
552.183
550.77
548.574
545.902
543.111
540.588
538.689
537.672
537.615
538.363
539.518
540.491
540.598
539.164
535.608
529.492
520.536
508.603
493.676
475.829
455.195
431.949
406.283
378.399
348.495
317.971
320.518
357.23
394.755
433.091
472.241
512.216
553.026
594.687
637.21
680.607
724.886
770.049
816.091
862.998
910.744
959.287
1008.57
1058.51
1108.98
1159.85
1210.91
1261.89
1312.44
1361.93
1409.73
1455.41
1497.47
1734.79
16629
1546.46
1500
1447.44
1389.19
1325.72
1257.5
1185.05
1109.03
1030.27
949.783
868.666
788.961
713.598
645.88
589.09
545.732
516.616
500.397
494.099
494.304
498.146
503.616
509.466
515.003
519.852
523.808
526.755
528.623
529.37
528.982
527.458
524.798
520.973
515.997
510.077
503.462
505.089
514.596
522.712
529.361
534.494
538.121
540.283
541.042
540.486
538.75
536.016
532.529
528.595
524.572
520.839
517.749
515.55
514.31
513.866
513.816
513.573
512.46
509.815
505.07
497.8
487.737
474.751
458.83
440.048
418.537
394.465
368.019
339.392
308.774
283.997
293.107
330.371
368.508
407.509
447.368
488.088
529.672
572.127
615.458
659.669
704.762
750.73
797.562
845.237
893.722
942.969
992.911
1043.46
1094.5
1145.86
1197.34
1248.67
1299.48
1348.98
1396.79
1442.28
1483.82
3808.5
13927.9
1516.97
1468.4
1414.21
1354.7
1290.27
1221.41
1148.66
1072.69
994.384
914.705
834.836
756.967
684.036
619.284
565.824
525.855
499.811
486.05
481.509
482.887
487.511
493.54
499.851
505.826
511.129
515.578
519.065
521.528
522.927
523.247
522.486
520.641
517.684
513.627
508.653
502.988
504.373
512.439
519.101
524.295
527.981
530.175
530.92
530.28
528.349
525.263
521.208
516.43
511.233
505.974
501.03
496.743
493.354
490.922
489.277
488.013
486.547
484.21
480.35
474.416
465.996
454.832
440.804
423.902
404.202
381.834
356.962
329.767
300.433
269.143
249.53
264.526
302.235
340.873
380.42
420.864
462.198
504.419
547.526
591.518
636.392
682.143
728.758
776.22
824.501
873.563
923.354
973.802
1024.81
1076.27
1128.01
1179.83
1231.48
1282.59
1332.45
1380.71
1426.95
1469.93
8730.24
10215.1
1480.06
1431.55
1377.26
1317.66
1253.23
1184.5
1112.07
1036.68
959.243
880.713
802.362
726.494
656.038
594.16
543.807
506.907
483.58
471.962
468.96
471.391
476.755
483.349
490.152
496.602
502.398
507.372
511.429
514.509
516.575
517.612
517.616
516.58
514.481
511.326
507.276
502.531
503.653
510.269
515.47
519.202
521.437
522.193
521.518
519.479
516.173
511.738
506.364
500.295
493.837
487.343
481.185
475.7
471.117
467.49
464.639
462.158
459.467
455.906
450.838
443.723
434.164
421.914
406.86
388.999
368.406
345.21
319.571
291.664
261.667
229.753
214.639
234.759
272.815
311.849
351.833
392.747
434.577
477.311
520.942
565.463
610.863
657.132
704.253
752.2
800.943
850.437
900.625
951.432
1002.76
1054.49
1106.45
1158.45
1210.22
1261.42
1311.38
1359.71
1406.13
1449.48
12826.8
6710.84
1442.18
1393.76
1339.53
1280.08
1215.93
1147.66
1075.89
1001.38
925.084
847.93
771.277
697.49
629.478
570.334
522.841
488.692
467.753
458.001
456.355
459.749
465.827
472.999
480.325
487.29
493.616
499.152
503.808
507.529
510.281
512.047
512.82
512.595
511.347
509.082
505.938
502.088
502.929
508.088
511.821
514.087
514.866
514.183
512.088
508.65
503.972
498.192
491.501
484.145
476.43
468.704
461.335
454.651
448.875
444.05
439.993
436.297
432.385
427.607
421.34
413.058
402.378
389.063
373.009
354.216
332.761
308.773
282.405
253.829
223.215
190.73
179.39
203.812
242.124
281.459
321.78
363.06
405.275
448.41
492.449
537.379
583.183
629.846
677.343
725.648
774.721
824.516
874.971
926.006
977.523
1029.39
1081.46
1133.52
1185.3
1236.49
1286.41
1334.71
1381.16
1424.55
15095.9
4434.19
1404.32
1355.97
1301.9
1242.75
1179.07
1111.44
1040.52
967.095
892.101
816.463
741.591
669.895
604.248
547.662
502.776
471.079
452.233
444.088
443.637
447.922
454.698
462.466
470.347
477.864
484.758
490.889
496.174
500.561
504.018
506.526
508.078
508.665
508.266
506.882
504.631
501.657
502.201
505.898
508.159
508.955
508.277
506.155
502.641
497.808
491.761
484.64
476.639
468.004
459.036
450.084
441.508
433.629
426.662
420.642
415.381
410.474
405.348
399.366
391.915
382.485
370.706
356.352
339.326
319.635
297.355
272.613
245.561
216.362
185.183
152.182
143.848
171.709
210.192
249.738
290.304
331.853
374.356
417.789
462.131
507.361
553.461
600.405
648.168
696.716
746.007
795.989
846.598
897.751
949.347
1001.26
1053.32
1105.35
1157.08
1208.21
1258.1
1306.47
1353.12
1396.99
17121.6
3003.95
1365.39
1317.62
1264.17
1205.67
1142.74
1075.99
1006.11
933.912
860.34
786.298
713.247
643.607
580.212
525.991
483.462
453.949
436.974
430.223
430.789
435.897
443.361
451.741
460.208
468.31
475.806
482.563
488.504
493.581
497.762
501.027
503.368
504.773
505.223
504.717
503.348
501.235
501.472
503.701
504.487
503.812
501.678
498.118
493.189
486.966
479.556
471.103
461.799
451.891
441.68
431.508
421.731
412.662
404.509
397.299
390.841
384.73
378.402
371.229
362.613
352.058
339.207
323.844
305.881
285.327
262.262
236.809
209.119
179.349
147.658
114.198
108.078
138.488
177.061
216.736
257.46
299.19
341.889
385.526
430.075
475.51
521.804
568.931
616.859
665.549
714.957
765.026
815.687
866.855
918.421
970.254
1022.19
1074.01
1125.46
1176.19
1225.51
1273.11
1318.71
1360.97
17767.8
2109.7
1330.84
1282.25
1228.52
1170.19
1107.76
1041.79
972.93
901.972
829.842
757.416
686.169
618.512
557.224
505.157
464.724
437.129
421.836
416.404
417.842
423.71
431.841
440.839
449.909
458.621
466.746
474.156
480.779
486.568
491.492
495.531
498.671
500.903
502.205
502.575
502.083
500.82
500.74
501.5
500.81
498.665
495.076
490.083
483.744
476.138
467.373
457.595
446.999
435.829
424.383
413.001
402.031
391.78
382.447
374.053
366.406
359.103
351.586
343.24
333.481
321.826
307.932
291.594
272.73
251.353
227.545
201.428
173.148
142.857
110.709
100
100
104.196
142.783
182.508
223.31
265.137
307.947
351.702
396.37
441.919
488.32
535.54
583.544
632.29
681.729
731.801
782.434
833.538
885.002
936.689
988.427
1040
1091.14
1141.49
1190.34
1237.53
1282.67
1324.46
17865.1
1624.17
1296.76
1247.86
1194.04
1135.9
1073.94
1008.73
940.889
871.182
800.504
729.697
660.225
594.466
535.135
485.004
446.393
420.417
406.537
402.396
404.765
411.361
420.134
429.745
439.431
448.774
457.551
465.641
472.971
479.495
485.184
490.013
493.968
497.036
499.197
500.447
500.829
500.409
500.008
499.298
497.132
493.519
488.48
482.06
474.318
465.337
455.227
444.136
432.258
419.837
407.168
394.586
382.432
371.007
360.502
350.933
342.107
333.622
324.932
315.433
304.554
291.828
276.923
259.645
239.919
217.762
193.256
166.523
137.704
106.947
100
100
100
100
107.415
147.115
187.916
229.762
272.601
316.393
361.097
406.679
453.105
500.338
548.34
597.068
646.47
696.485
747.041
798.047
849.395
900.949
952.543
1003.97
1054.96
1105.18
1153.89
1201
1246.1
1287.94
17936.3
1430.5
1260.68
1212.16
1158.84
1101.35
1040.23
976.055
909.44
841.137
772.021
702.905
635.228
571.32
513.836
465.474
428.477
403.894
391.124
387.989
391.348
398.693
408.13
418.384
428.719
438.729
448.195
456.997
465.065
472.353
478.829
484.469
489.256
493.173
496.205
498.341
499.592
500.001
500.006
499.296
497.13
493.515
488.475
482.053
474.309
465.326
455.215
444.123
432.243
419.82
407.15
394.566
382.412
370.985
360.479
350.909
342.082
333.597
324.907
315.408
304.529
291.803
276.899
259.622
239.896
217.74
193.236
166.503
137.685
106.929
100
100
100
100
107.42
147.12
187.922
229.767
272.607
316.398
361.102
406.684
453.108
500.341
548.342
597.068
646.469
696.483
747.037
798.042
849.389
900.942
952.535
1003.96
1054.95
1105.17
1153.88
1200.99
1246.08
1287.92
17936.2
1429.88
1260.66
1212.14
1158.83
1101.34
1040.23
976.06
909.451
841.155
772.044
702.934
635.261
571.357
513.876
465.517
428.521
403.937
391.169
388.034
391.392
398.736
408.17
418.422
428.755
438.763
448.228
457.028
465.093
472.379
478.853
484.492
489.277
493.193
496.225
498.361
499.603
500
500.737
501.496
500.805
498.656
495.064
490.068
483.726
476.116
467.348
457.568
446.968
435.794
424.346
412.961
401.988
391.735
382.399
374.004
366.355
359.05
351.533
343.187
333.427
321.773
307.88
291.543
272.68
251.305
227.498
201.382
173.103
142.813
110.666
100
100
104.214
142.804
182.53
223.333
265.161
307.971
351.726
396.394
441.942
488.342
535.561
583.562
632.306
681.742
731.812
782.442
833.544
885.006
936.69
988.427
1040
1091.13
1141.49
1190.33
1237.51
1282.63
1324.41
17865.7
1621.52
1296.71
1247.81
1194
1135.86
1073.92
1008.72
940.889
871.195
800.529
729.733
660.272
594.523
535.201
485.079
446.473
420.502
406.627
402.487
404.854
411.448
420.218
429.825
439.506
448.845
457.618
465.703
473.029
479.55
485.234
490.059
494.01
497.075
499.237
500.487
500.852
500.407
501.469
503.697
504.482
503.804
501.666
498.103
493.17
486.944
479.531
471.074
461.767
451.855
441.641
431.466
421.686
412.614
404.458
397.246
390.786
384.674
378.344
371.17
362.554
351.998
339.147
323.784
305.822
285.268
262.202
236.75
209.059
179.289
147.597
114.137
108.065
138.529
177.105
216.782
257.508
299.24
341.94
385.578
430.127
475.562
521.856
568.982
616.908
665.596
715.002
765.068
815.727
866.891
918.455
970.285
1022.21
1074.03
1125.48
1176.2
1225.51
1273.11
1318.68
1360.93
17771.1
2102.34
1330.78
1282.18
1228.45
1170.12
1107.69
1041.73
972.884
901.941
829.825
757.413
686.18
618.537
557.263
505.211
464.791
437.208
421.925
416.497
417.936
423.803
431.93
440.924
449.989
458.697
466.817
474.222
480.84
486.625
491.544
495.578
498.715
500.943
502.245
502.615
502.105
500.817
502.198
505.894
508.153
508.946
508.265
506.14
502.622
497.786
491.735
484.611
476.606
467.967
458.996
450.041
441.461
433.579
426.609
420.586
415.324
410.414
405.286
399.302
391.85
382.418
370.638
356.283
339.257
319.565
297.284
272.54
245.487
216.288
185.106
152.103
143.837
171.772
210.259
249.809
290.378
331.929
374.434
417.869
462.212
507.443
553.543
600.487
648.249
696.796
746.085
796.065
846.671
897.821
949.413
1001.32
1053.38
1105.4
1157.12
1208.25
1258.13
1306.49
1353.12
1396.97
17132
2989.46
1365.29
1317.51
1264.06
1205.57
1142.64
1075.9
1006.03
933.846
860.286
786.258
713.222
643.599
580.222
526.022
483.514
454.02
437.059
430.317
430.887
435.994
443.455
451.831
460.293
468.39
475.881
482.632
488.568
493.64
497.815
501.076
503.412
504.814
505.263
504.755
503.37
501.233
502.926
508.084
511.816
514.079
514.855
514.168
512.069
508.628
503.946
498.162
491.467
484.108
476.389
468.66
461.287
454.6
448.821
443.993
439.933
436.234
432.319
427.54
421.27
412.986
402.304
388.987
372.93
354.135
332.679
308.688
282.318
253.74
223.123
190.635
179.381
203.898
242.215
281.554
321.88
363.163
405.382
448.519
492.561
537.492
583.298
629.961
677.459
725.763
774.836
824.629
875.081
926.114
977.627
1029.49
1081.55
1133.6
1185.38
1236.55
1286.46
1334.74
1381.16
1424.51
15110.2
4411.7
1404.18
1355.82
1301.75
1242.6
1178.93
1111.31
1040.4
966.984
892.002
816.378
741.523
669.847
604.225
547.666
502.81
471.139
452.314
444.182
443.738
448.024
454.797
462.56
470.437
477.948
484.837
490.962
496.24
500.622
504.073
506.575
508.122
508.705
508.305
506.919
504.651
501.655
503.651
510.265
515.465
519.194
521.425
522.178
521.5
519.457
516.148
511.709
506.33
500.257
493.795
487.298
481.136
475.647
471.061
467.43
464.576
462.092
459.398
455.835
450.763
443.645
434.083
421.83
406.774
388.909
368.313
345.114
319.472
291.561
261.559
229.641
214.633
234.868
272.931
311.971
351.96
392.879
434.712
477.451
521.085
565.609
611.012
657.283
704.404
752.353
801.096
850.589
900.776
951.581
1002.91
1054.63
1106.59
1158.58
1210.34
1261.52
1311.47
1359.77
1406.17
1449.5
12871.8
6665.23
1441.94
1393.52
1339.3
1279.86
1215.72
1147.46
1075.7
1001.21
924.924
847.788
771.157
697.396
629.416
570.308
522.853
488.74
467.829
458.097
456.46
459.856
465.932
473.099
480.419
487.378
493.698
499.227
503.877
507.591
510.337
512.097
512.865
512.635
511.384
509.116
505.957
502.087
504.371
512.436
519.096
524.288
527.971
530.161
530.902
530.259
528.325
525.234
521.175
516.392
511.192
505.929
500.98
496.69
493.297
490.862
489.213
487.946
486.476
484.135
480.272
474.334
465.91
454.742
440.709
423.803
404.099
381.727
356.85
329.65
300.311
269.015
249.528
264.66
302.376
341.02
380.574
421.023
462.363
504.589
547.701
591.697
636.575
682.329
728.947
776.411
824.694
873.757
923.548
973.995
1025.01
1076.46
1128.2
1180.02
1231.65
1282.77
1332.62
1380.88
1427.13
1470.14
8834.91
10132.7
1479.65
1431.19
1376.93
1317.36
1252.94
1184.23
1111.82
1036.45
959.03
880.521
802.194
726.358
655.939
594.105
543.798
506.943
483.652
472.059
469.069
471.505
476.867
483.455
490.251
496.695
502.483
507.45
511.5
514.572
516.632
517.662
517.659
516.619
514.517
511.358
507.294
502.53
505.088
514.593
522.708
529.354
534.484
538.108
540.267
541.022
540.462
538.721
535.983
532.492
528.554
524.526
520.79
517.696
515.492
514.249
513.801
513.747
513.5
512.383
509.733
504.983
497.709
487.64
474.649
458.723
439.936
418.419
394.341
367.889
339.256
308.63
283.999
293.266
330.537
368.682
407.69
447.557
488.283
529.873
572.334
615.67
659.887
704.984
750.956
797.791
845.469
893.956
943.204
993.147
1043.69
1094.73
1146.09
1197.56
1248.88
1299.68
1349.18
1396.98
1442.46
1483.99
3874.14
13847.3
1516.67
1468.1
1413.9
1354.39
1289.96
1221.11
1148.37
1072.41
994.121
914.464
834.621
756.787
683.9
619.199
565.793
525.878
499.879
486.149
481.624
483.007
487.629
493.653
499.957
505.924
511.219
515.659
519.138
521.592
522.984
523.297
522.529
520.678
517.717
513.655
508.669
502.987
505.799
516.737
526.296
534.39
540.96
546.012
549.584
551.735
552.549
552.156
550.738
548.538
545.861
543.067
540.539
538.636
537.615
537.554
538.298
539.448
540.417
540.519
539.08
535.518
529.396
520.434
508.495
493.562
475.708
455.067
431.814
406.141
378.249
348.337
317.977
320.701
357.422
394.956
433.3
472.458
512.44
553.258
594.925
637.455
680.859
725.143
770.312
816.359
863.269
911.018
959.564
1008.85
1058.78
1109.26
1160.13
1211.18
1262.15
1312.69
1362.16
1409.94
1455.59
1497.58
1747.45
16610.7
1546.25
1499.68
1447.08
1388.81
1325.33
1257.11
1184.68
1108.68
1029.94
949.48
868.396
788.732
713.419
645.76
589.034
545.74
516.678
500.498
494.22
494.432
498.272
503.736
509.578
515.105
519.945
523.892
526.83
528.688
529.427
529.031
527.5
524.833
521.003
516.022
510.089
503.462
506.506
518.864
529.857
539.389
547.392
553.866
558.848
562.389
564.573
565.526
565.427
564.515
563.096
561.529
560.204
559.483
559.633
560.742
562.664
565.004
567.174
568.482
568.242
565.86
560.885
553.025
542.137
528.199
511.284
491.531
469.117
444.245
417.122
387.957
356.95
352.749
383.067
419.868
457.42
495.734
534.828
574.723
615.441
657.001
699.425
742.726
786.917
831.999
877.968
924.806
972.483
1020.95
1070.13
1119.93
1170.2
1220.77
1271.39
1321.72
1371.34
1419.46
1466.05
1509.95
1550.11
17848.8
1568.36
1526.31
1476.72
1420.71
1358.99
1292.11
1220.59
1145.08
1066.38
985.506
903.515
822.272
744.652
674.006
613.779
566.793
534.287
515.295
506.995
505.879
508.871
513.768
519.171
524.295
528.715
532.202
534.624
535.905
536.003
534.901
532.603
529.111
524.394
518.471
511.565
503.955
507.206
520.974
533.391
544.352
553.779
561.669
568.054
572.982
576.534
578.83
580.046
580.419
580.252
579.906
579.773
580.221
581.526
583.787
586.865
590.373
593.721
596.212
597.15
595.926
592.078
585.303
575.451
562.497
546.515
527.645
506.074
482.011
455.673
427.279
397.04
385.555
407.548
443.486
480.105
517.426
555.476
594.283
633.877
674.289
715.545
757.671
800.686
844.604
889.429
935.155
981.765
1029.22
1077.47
1126.44
1176
1226.02
1276.29
1326.54
1376.43
1425.24
1472.81
1518.75
1562.32
15245.2
4324.68
1551.25
1504.36
1450.85
1391.32
1326.26
1256.16
1181.63
1103.45
1022.58
940.071
857.562
777.822
704.224
640.36
589.385
553.032
530.82
520.17
517.522
519.564
523.869
528.844
533.59
537.621
540.671
542.595
543.309
542.767
540.954
537.877
533.54
527.913
521.017
513.102
504.472
507.9
523.064
536.894
549.273
560.116
569.416
577.199
583.512
588.427
592.062
594.589
596.242
597.321
598.186
599.232
600.834
603.276
606.665
610.873
615.519
620.015
623.656
625.737
625.637
622.882
617.159
608.311
596.311
581.236
563.23
542.486
519.224
493.672
466.059
436.606
417.62
430.987
465.924
501.461
537.629
574.464
612.003
650.285
689.349
729.232
769.968
811.587
854.112
897.559
941.934
987.231
1033.43
1080.5
1128.36
1176.94
1226.1
1275.67
1325.42
1375.02
1423.72
1471.26
1517.09
1559.94
7552.66
10217.7
1578.33
1532.59
1480.78
1423.12
1359.87
1291.44
1218.3
1141.08
1060.68
978.086
894.718
813.148
736.726
669.162
613.936
573.319
547.412
534.006
529.549
530.498
534.153
538.696
543.083
546.746
549.38
550.818
550.966
549.778
547.239
543.361
538.151
531.58
523.675
514.711
505.012
508.588
525.135
540.366
554.155
566.41
577.118
586.3
593.999
600.282
605.26
609.1
612.031
614.351
616.419
618.631
621.365
624.914
629.397
634.696
640.435
646.027
650.766
653.935
654.903
653.184
648.456
640.558
629.461
615.245
598.06
578.109
555.62
530.834
503.993
475.33
448.877
453.578
487.367
521.665
556.511
591.95
628.029
664.797
702.301
740.589
779.703
819.683
860.564
902.371
945.123
988.826
1033.47
1079.04
1125.48
1172.71
1220.63
1269.07
1317.81
1366.53
1414.6
1461.5
1506.66
1548.46
2066.01
15564.9
1598.24
1554.98
1505.89
1450.99
1390.48
1324.61
1253.72
1178.31
1099.13
1017.15
933.56
850.651
771.711
700.53
640.895
595.641
565.559
548.943
542.35
542.02
544.936
549.016
553.035
556.325
558.532
559.464
559.02
557.15
553.845
549.121
542.989
535.424
526.46
516.397
505.58
509.266
527.18
543.798
558.989
572.65
584.763
595.346
604.433
612.084
618.406
623.557
627.763
631.317
634.575
637.935
641.781
646.413
651.958
658.309
665.097
671.735
677.513
681.704
683.668
682.907
679.094
672.065
661.791
648.356
631.92
612.695
590.923
566.857
540.752
512.855
483.4
479.845
508.075
540.973
574.325
608.184
642.608
677.655
713.383
749.847
787.101
825.195
864.172
904.071
944.922
986.743
1029.54
1073.31
1118.01
1163.6
1209.98
1257.01
1304.52
1352.22
1399.7
1446.33
1491.93
1535.43
1575.88
17924.3
1601.41
1565.5
1521.78
1471.67
1415.61
1353.79
1286.48
1214.08
1137.21
1056.79
973.856
890.349
809.418
734.884
670.798
620.566
585.762
565.357
556.164
554.26
556.286
559.842
563.478
566.396
568.172
568.585
567.521
564.931
560.81
555.184
548.073
539.456
529.377
518.161
506.173
509.935
529.202
547.203
563.798
578.879
592.42
604.431
614.94
623.997
631.698
638.194
643.7
648.503
652.954
657.448
662.373
668.036
674.575
681.893
689.63
697.204
703.902
708.992
711.824
711.895
708.872
702.588
693.018
680.253
664.462
645.869
624.73
601.312
575.884
548.708
520.032
509.043
528.449
559.787
591.473
623.571
656.148
689.272
723.011
757.431
792.595
828.56
865.381
903.105
941.772
981.413
1022.05
1063.68
1106.3
1149.88
1194.35
1239.61
1285.54
1331.93
1378.52
1424.69
1470.47
1515.1
1558.19
11767.2
6861.5
1571.02
1532.18
1487.23
1436.25
1379.28
1316.47
1248.07
1174.54
1096.65
1015.32
932.118
849.928
772.539
704.202
648.868
608.954
584.269
572.05
568.282
569.238
572.153
575.303
577.736
578.957
578.715
576.89
573.439
568.366
561.71
553.503
543.731
532.45
520.01
506.793
510.587
531.173
550.53
568.517
585.014
599.985
613.433
625.37
635.838
644.92
652.756
659.552
665.59
671.217
676.828
682.814
689.487
696.995
705.248
713.891
722.342
729.883
735.777
739.366
740.14
737.765
732.076
723.057
710.808
695.512
677.41
656.772
633.884
609.03
582.488
554.517
537.218
548.925
578.565
608.437
638.619
669.188
700.223
731.802
763.999
796.886
830.529
864.99
900.323
936.577
973.789
1011.99
1051.19
1091.39
1132.58
1174.71
1217.71
1261.45
1305.77
1350.41
1394.8
1438.6
1481.27
1521.36
2888.35
13778.7
1572.37
1537.09
1496.84
1451.12
1399.64
1342.3
1279.06
1210.11
1135.99
1057.49
975.783
893.348
813.829
741.578
681.025
635.468
605.734
589.739
583.549
583.097
585.209
587.81
589.742
590.4
589.482
586.854
582.476
576.368
568.59
559.193
548.182
535.628
521.912
507.429
511.226
533.13
553.873
573.306
591.301
607.814
622.832
636.353
648.397
659.028
668.365
676.594
683.976
690.843
697.58
704.576
712.151
720.464
729.44
738.736
747.78
755.858
762.236
766.259
767.423
765.4
760.033
751.315
739.357
724.358
706.57
686.282
663.792
639.401
613.398
586.055
564.348
570.288
598.099
626.03
654.169
682.609
711.438
740.744
770.609
801.112
832.325
864.316
897.142
930.856
965.5
1001.1
1037.69
1075.26
1113.81
1153.3
1193.68
1234.86
1276.69
1318.98
1361.4
1403.5
1445.06
1485.17
1522.53
17375.8
1552.41
1525.71
1493.28
1455.16
1411.17
1361.01
1304.53
1241.72
1172.89
1098.69
1020.03
938.875
858.605
783.552
718.493
667.54
632.63
612.57
603.676
601.575
602.63
604.364
605.393
605.02
602.929
599.002
593.23
585.665
576.397
565.504
553.011
539.006
523.892
508.08
511.816
534.918
556.942
577.746
597.186
615.199
631.75
646.81
660.373
672.479
683.23
692.802
701.456
709.529
717.405
725.433
733.922
743.036
752.713
762.622
772.203
780.754
787.547
791.937