/*--------------------------------*- C++ -*----------------------------------*\
  =========                 |
  \\      /  F ield         | OpenFOAM: The Open Source CFD Toolbox
   \\    /   O peration     | Website:  https://openfoam.org
    \\  /    A nd           | Version:  8
     \\/     M anipulation  |
\*---------------------------------------------------------------------------*/
FoamFile
{
    version     2.0;
    format      ascii;
    class       volScalarField;
    location    "200/fluid";
    object      rho;
}
// * * * * * * * * * * * * * * * * * * * * * * * * * * * * * * * * * * * * * //

dimensions      [1 -3 0 0 0 0 0];

internalField   nonuniform List<scalar> 
4000
(
0.658527
0.658505
0.658469
0.658407
0.658306
0.658138
0.657863
0.657417
0.656701
0.655564
0.65379
0.651069
0.646991
0.641037
0.63262
0.621164
0.606237
0.587706
0.565856
0.541392
0.515322
0.488739
0.46262
0.4377
0.414438
0.393049
0.373569
0.355918
0.339954
0.325509
0.31241
0.300497
0.289621
0.279656
0.270493
0.262039
0.254218
0.246948
0.240147
0.233764
0.227759
0.222095
0.216742
0.211674
0.206868
0.202304
0.197968
0.193845
0.189924
0.186195
0.182652
0.179287
0.176097
0.17308
0.170235
0.167563
0.165069
0.162758
0.160644
0.158741
0.157078
0.155709
0.154634
0.15395
0.153766
0.154238
0.156946
0.166291
0.177322
0.190307
0.205604
0.223685
0.24517
0.270872
0.301856
0.339508
0.385653
0.442763
0.513525
0.600006
0.702172
0.815262
0.927893
1.02486
1.09542
1.13911
1.16256
1.17412
1.17952
1.18195
1.18302
1.18348
1.18368
1.18376
1.1838
1.18381
1.18382
1.18382
1.18382
1.18382
0.658527
0.658505
0.658467
0.658405
0.6583
0.658128
0.657845
0.657385
0.656646
0.655474
0.653647
0.650851
0.646671
0.640592
0.632033
0.620433
0.605382
0.58677
0.564893
0.540459
0.51446
0.487969
0.461946
0.437113
0.41392
0.392583
0.373139
0.355513
0.339566
0.325132
0.312041
0.300133
0.289261
0.279299
0.270139
0.261689
0.253872
0.246605
0.239806
0.233426
0.227423
0.221763
0.216413
0.211349
0.206546
0.201987
0.197655
0.193537
0.189621
0.185897
0.18236
0.179001
0.175818
0.172808
0.16997
0.167305
0.164819
0.162516
0.160408
0.15851
0.156845
0.15547
0.154376
0.153657
0.15341
0.153792
0.158163
0.167796
0.179182
0.192609
0.208467
0.227266
0.249686
0.276619
0.309237
0.349069
0.398162
0.459209
0.534905
0.626971
0.734184
0.849563
0.959532
1.04911
1.1108
1.14737
1.16652
1.17589
1.18027
1.18226
1.18315
1.18353
1.1837
1.18377
1.1838
1.18381
1.18382
1.18382
1.18382
1.18382
0.658527
0.658504
0.658465
0.658401
0.658293
0.658115
0.657823
0.657348
0.656586
0.655378
0.653498
0.650628
0.646349
0.640144
0.631436
0.619674
0.604466
0.585721
0.563755
0.539286
0.513303
0.486868
0.460923
0.436174
0.413062
0.391796
0.37241
0.35483
0.338918
0.32451
0.311438
0.299543
0.288682
0.278728
0.269574
0.26113
0.253319
0.246053
0.239256
0.232878
0.226878
0.22122
0.215873
0.210812
0.206013
0.201458
0.197131
0.193019
0.189109
0.185393
0.181863
0.178514
0.175341
0.172342
0.169517
0.166867
0.164397
0.162112
0.160025
0.15815
0.156512
0.15516
0.154069
0.153316
0.152956
0.153057
0.160216
0.170334
0.182295
0.196418
0.213132
0.233003
0.256775
0.285429
0.320245
0.36288
0.415582
0.481083
0.561774
0.658538
0.768498
0.882646
0.986707
1.06777
1.12166
1.15291
1.16915
1.17708
1.1808
1.18249
1.18324
1.18357
1.18372
1.18378
1.1838
1.18381
1.18382
1.18382
1.18382
1.18382
0.658527
0.658503
0.658464
0.658398
0.658287
0.658105
0.657805
0.657318
0.656537
0.655302
0.653382
0.650454
0.646097
0.639789
0.630955
0.619049
0.60369
0.584803
0.562722
0.538174
0.512155
0.48572
0.459804
0.435101
0.412043
0.390832
0.371498
0.353963
0.33809
0.323714
0.310669
0.298795
0.28795
0.278009
0.268866
0.260431
0.252626
0.245365
0.238571
0.232195
0.226197
0.220542
0.215198
0.210139
0.205344
0.200794
0.196472
0.192366
0.188464
0.184756
0.181236
0.177898
0.174738
0.171755
0.168948
0.166319
0.163873
0.161619
0.15957
0.157744
0.156182
0.154921
0.153967
0.153418
0.153362
0.153914
0.162934
0.173642
0.1863
0.201261
0.218998
0.240131
0.265477
0.296105
0.333404
0.379171
0.435839
0.506071
0.591849
0.693048
0.805005
0.916848
1.01413
1.08639
1.13254
1.15854
1.17186
1.17833
1.18135
1.18273
1.18335
1.18362
1.18373
1.18378
1.18381
1.18382
1.18382
1.18382
1.18382
1.18382
0.658527
0.658503
0.658462
0.658394
0.658281
0.658095
0.657788
0.65729
0.656492
0.65523
0.65327
0.650285
0.645847
0.639433
0.630466
0.618407
0.602883
0.583838
0.561622
0.536979
0.510907
0.484462
0.458566
0.433905
0.410901
0.389745
0.370466
0.352981
0.337151
0.322812
0.309797
0.297949
0.287125
0.277201
0.268072
0.259648
0.251855
0.244598
0.237808
0.231435
0.225441
0.219788
0.214447
0.209392
0.204601
0.200055
0.195739
0.191639
0.187744
0.184046
0.180537
0.177213
0.174068
0.171102
0.168316
0.165711
0.163295
0.161077
0.159072
0.157303
0.15584
0.154693
0.15392
0.153677
0.154181
0.156539
0.166106
0.177455
0.190874
0.206753
0.225608
0.248118
0.275171
0.307925
0.347875
0.396982
0.457795
0.532776
0.623341
0.728124
0.840603
0.948501
1.03813
1.10188
1.14127
1.16297
1.17398
1.1793
1.18179
1.18292
1.18343
1.18365
1.18375
1.18379
1.18381
1.18382
1.18382
1.18382
1.18382
1.18382
0.658526
0.658502
0.658461
0.658392
0.658276
0.658086
0.657773
0.657265
0.656452
0.655166
0.65317
0.650132
0.64562
0.639106
0.630012
0.617801
0.602111
0.5829
0.560537
0.53578
0.509638
0.483163
0.457274
0.432646
0.409688
0.388586
0.369361
0.351927
0.336144
0.321846
0.308865
0.297046
0.286246
0.276343
0.267231
0.258822
0.251041
0.243792
0.237007
0.230639
0.224648
0.218999
0.213662
0.208611
0.203824
0.199283
0.194974
0.190881
0.186995
0.183308
0.179811
0.176501
0.173373
0.170427
0.167663
0.165085
0.162699
0.160516
0.158551
0.156825
0.155412
0.154274
0.153496
0.153158
0.153362
0.159476
0.169585
0.181586
0.195792
0.212625
0.232645
0.256589
0.285417
0.320378
0.363069
0.415631
0.480631
0.560248
0.655192
0.762715
0.874527
0.977484
1.05928
1.11515
1.14863
1.16669
1.17575
1.18012
1.18215
1.18308
1.1835
1.18368
1.18376
1.1838
1.18381
1.18382
1.18382
1.18382
1.18382
1.18382
0.658526
0.658501
0.658459
0.658389
0.658272
0.658077
0.657759
0.657242
0.656413
0.655105
0.653073
0.649984
0.645399
0.638787
0.629566
0.617203
0.601344
0.581964
0.559449
0.534573
0.508353
0.481845
0.455958
0.431358
0.408445
0.387396
0.368225
0.350844
0.335109
0.320853
0.30791
0.296122
0.285348
0.275468
0.266375
0.257984
0.250216
0.242975
0.236198
0.229836
0.22385
0.218206
0.212874
0.207827
0.203046
0.198512
0.194209
0.190125
0.186249
0.182573
0.17909
0.175795
0.172686
0.169761
0.167023
0.164475
0.162126
0.159986
0.158075
0.156423
0.155081
0.154025
0.153352
0.153129
0.153441
0.162391
0.173096
0.185791
0.200817
0.218633
0.239847
0.265254
0.29589
0.333091
0.378568
0.43462
0.503739
0.587738
0.686489
0.795775
0.905751
1.00302
1.07714
1.12599
1.15451
1.16962
1.17715
1.18076
1.18244
1.18321
1.18355
1.18371
1.18377
1.1838
1.18381
1.18382
1.18382
1.18382
1.18382
1.18382
0.658526
0.658501
0.658458
0.658386
0.658267
0.65807
0.657746
0.65722
0.656378
0.655047
0.652983
0.649844
0.645189
0.63848
0.629136
0.616623
0.600597
0.581048
0.558379
0.533381
0.507081
0.480534
0.454647
0.430072
0.407203
0.386206
0.367089
0.349761
0.334074
0.319862
0.306957
0.295202
0.284457
0.2746
0.265529
0.257156
0.249403
0.242173
0.235403
0.229049
0.22307
0.217432
0.212105
0.207064
0.20229
0.197762
0.193467
0.189392
0.185527
0.181863
0.178395
0.175117
0.172027
0.169125
0.166413
0.163897
0.161586
0.159494
0.157645
0.1561
0.154884
0.154024
0.153674
0.154016
0.155612
0.165204
0.176561
0.189975
0.205831
0.224633
0.247039
0.273904
0.306339
0.345764
0.394021
0.453513
0.526577
0.614595
0.716495
0.826603
0.933839
1.0251
1.09205
1.13481
1.15922
1.17196
1.17826
1.18127
1.18267
1.18331
1.1836
1.18373
1.18378
1.1838
1.18381
1.18382
1.18382
1.18382
1.18382
1.18382
0.658526
0.6585
0.658457
0.658384
0.658263
0.658062
0.657733
0.657199
0.656344
0.654992
0.652896
0.64971
0.644987
0.638185
0.628719
0.61606
0.599871
0.580155
0.557335
0.532218
0.505839
0.479254
0.453365
0.428815
0.405988
0.385042
0.365979
0.348703
0.333064
0.318896
0.306029
0.294307
0.283591
0.27376
0.26471
0.256358
0.24862
0.2414
0.23464
0.228294
0.222323
0.216691
0.211371
0.206338
0.20157
0.197051
0.192765
0.1887
0.184846
0.181195
0.177741
0.17448
0.17141
0.16853
0.165843
0.163355
0.161075
0.159017
0.157204
0.155716
0.154545
0.153734
0.153422
0.153775
0.158211
0.168217
0.180097
0.194148
0.210777
0.230519
0.254074
0.282356
0.316542
0.358131
0.40911
0.471913
0.54867
0.640268
0.744631
0.854715
0.958569
1.04384
1.10431
1.14189
1.16295
1.17379
1.17913
1.18167
1.18285
1.18339
1.18363
1.18374
1.18379
1.18381
1.18382
1.18382
1.18382
1.18382
1.18382
1.18382
0.658526
0.6585
0.658456
0.658382
0.658259
0.658056
0.657722
0.65718
0.656311
0.65494
0.652813
0.649582
0.644793
0.637902
0.628321
0.615521
0.599175
0.579299
0.556333
0.5311
0.504645
0.478024
0.452133
0.427608
0.404821
0.383924
0.364914
0.347689
0.332098
0.317972
0.305143
0.293455
0.282767
0.272961
0.263934
0.255601
0.247878
0.24067
0.233921
0.227584
0.22162
0.215997
0.210684
0.205658
0.200899
0.196388
0.192111
0.188057
0.184215
0.180578
0.17714
0.173897
0.170846
0.16799
0.165329
0.16287
0.160622
0.158601
0.156826
0.155369
0.15421
0.153374
0.152968
0.153089
0.160614
0.171064
0.183464
0.198135
0.215508
0.236152
0.26081
0.290451
0.326316
0.369985
0.423573
0.48949
0.569632
0.664333
0.770499
0.879868
0.979986
1.05955
1.11431
1.14756
1.16588
1.17523
1.17981
1.18199
1.183
1.18346
1.18366
1.18375
1.18379
1.18381
1.18382
1.18382
1.18382
1.18382
1.18382
1.18382
0.658526
0.658499
0.658455
0.65838
0.658255
0.658049
0.657711
0.657161
0.656281
0.654891
0.652735
0.649461
0.64461
0.637634
0.627943
0.615009
0.598514
0.578486
0.555384
0.530042
0.503515
0.476861
0.450969
0.426468
0.403721
0.382871
0.363911
0.346734
0.331189
0.317105
0.304312
0.292656
0.281996
0.272215
0.26321
0.254897
0.247189
0.239992
0.233253
0.226926
0.220971
0.215355
0.210051
0.205033
0.200282
0.19578
0.191513
0.18747
0.18364
0.180017
0.176595
0.17337
0.170342
0.16751
0.164879
0.162455
0.160251
0.158282
0.156578
0.155201
0.154113
0.153417
0.153195
0.153577
0.162746
0.173667
0.18659
0.201863
0.219948
0.241448
0.267151
0.298076
0.335526
0.381165
0.437209
0.506004
0.589183
0.686502
0.793878
0.902016
0.998281
1.07258
1.12241
1.15208
1.1682
1.17636
1.18035
1.18223
1.18311
1.1835
1.18368
1.18376
1.1838
1.18381
1.18382
1.18382
1.18382
1.18382
1.18382
1.18382
0.658526
0.658499
0.658454
0.658378
0.658252
0.658043
0.6577
0.657144
0.656253
0.654845
0.652662
0.649348
0.644439
0.637384
0.62759
0.614531
0.597896
0.577728
0.554498
0.529056
0.502463
0.47578
0.449888
0.42541
0.4027
0.381896
0.362982
0.345852
0.33035
0.316304
0.303546
0.29192
0.281288
0.27153
0.262545
0.254252
0.246558
0.239373
0.232645
0.226327
0.22038
0.214773
0.209477
0.204467
0.199724
0.195231
0.190974
0.186942
0.183124
0.179514
0.176108
0.172901
0.169892
0.167084
0.164482
0.162093
0.159932
0.158018
0.15641
0.155139
0.15421
0.15376
0.153931
0.155059
0.164678
0.176054
0.189472
0.20531
0.224056
0.246352
0.273023
0.30514
0.344059
0.391533
0.449844
0.521243
0.607094
0.706564
0.814648
0.921219
1.01371
1.08329
1.12893
1.15567
1.17002
1.17725
1.18076
1.18243
1.18319
1.18354
1.1837
1.18377
1.1838
1.18381
1.18382
1.18382
1.18382
1.18382
1.18382
1.18382
0.658526
0.658499
0.658453
0.658376
0.658249
0.658038
0.657691
0.657128
0.656227
0.654803
0.652595
0.649244
0.644282
0.637154
0.627265
0.614092
0.597329
0.577032
0.553686
0.528153
0.501502
0.474792
0.448903
0.424447
0.401772
0.381009
0.362139
0.345051
0.329588
0.315579
0.302853
0.291255
0.280648
0.270912
0.261947
0.253671
0.245991
0.238817
0.232099
0.22579
0.219852
0.214253
0.208965
0.203963
0.199228
0.194744
0.190496
0.186474
0.182667
0.17907
0.175677
0.172485
0.169494
0.166705
0.164125
0.161762
0.15963
0.157754
0.156207
0.154992
0.154143
0.153808
0.154156
0.156737
0.166625
0.178336
0.192159
0.20848
0.227812
0.25082
0.278366
0.311561
0.351813
0.400959
0.461321
0.535031
0.623182
0.724373
0.832769
0.937605
1.02657
1.09202
1.13417
1.15852
1.17146
1.17795
1.18109
1.18258
1.18326
1.18357
1.18371
1.18377
1.1838
1.18381
1.18382
1.18382
1.18382
1.18382
1.18382
1.18382
0.658526
0.658498
0.658452
0.658375
0.658246
0.658033
0.657683
0.657114
0.656203
0.654765
0.652535
0.64915
0.644141
0.636946
0.626972
0.613696
0.596819
0.576407
0.552958
0.527344
0.500641
0.473909
0.448022
0.423587
0.400944
0.380219
0.361388
0.344339
0.328912
0.314935
0.302238
0.290666
0.280081
0.270365
0.261419
0.253159
0.245491
0.238328
0.231619
0.225319
0.219389
0.213798
0.208517
0.203523
0.198796
0.194319
0.19008
0.186067
0.182271
0.178684
0.175303
0.172124
0.169146
0.166372
0.163806
0.161457
0.159338
0.157471
0.155924
0.154697
0.153805
0.153374
0.153523
0.15819
0.168359
0.180382
0.194564
0.211314
0.231162
0.254799
0.283121
0.317274
0.358709
0.409344
0.471514
0.547233
0.637327
0.739863
0.848285
0.951361
1.03714
1.09907
1.13833
1.16077
1.17259
1.1785
1.18135
1.18269
1.18332
1.1836
1.18372
1.18378
1.1838
1.18381
1.18382
1.18382
1.18382
1.18382
1.18382
1.18382
0.658526
0.658498
0.658451
0.658374
0.658244
0.658028
0.657675
0.657102
0.656183
0.654731
0.652482
0.649067
0.644016
0.636764
0.626715
0.613348
0.596372
0.575859
0.55232
0.526637
0.49989
0.473139
0.447255
0.422838
0.400224
0.379532
0.360737
0.343721
0.328326
0.314377
0.301706
0.290157
0.279592
0.269894
0.260963
0.252718
0.24506
0.237907
0.231207
0.224915
0.218993
0.213408
0.208134
0.203147
0.198427
0.193958
0.189727
0.185722
0.181935
0.178358
0.174987
0.171819
0.168853
0.16609
0.163535
0.161197
0.159088
0.157226
0.155673
0.154437
0.153519
0.153037
0.1531
0.159515
0.169897
0.182174
0.196662
0.213778
0.234071
0.258254
0.287247
0.322231
0.364697
0.416625
0.480349
0.557775
0.649476
0.75304
0.861304
0.962709
1.04571
1.1047
1.14162
1.16253
1.17348
1.17892
1.18155
1.18279
1.18336
1.18362
1.18373
1.18378
1.1838
1.18381
1.18382
1.18382
1.18382
1.18382
1.18382
1.18382
0.658526
0.658498
0.658451
0.658372
0.658241
0.658025
0.657669
0.657091
0.656165
0.654703
0.652436
0.648997
0.64391
0.636608
0.626496
0.613053
0.595992
0.575394
0.551779
0.526038
0.499255
0.472489
0.446608
0.422207
0.399617
0.378954
0.360188
0.343201
0.327833
0.313909
0.30126
0.28973
0.279182
0.269499
0.260583
0.25235
0.244702
0.237557
0.230864
0.224579
0.218664
0.213086
0.207818
0.202837
0.198123
0.193661
0.189437
0.18544
0.181661
0.178093
0.174732
0.171573
0.168618
0.165867
0.163324
0.160997
0.158899
0.157049
0.155506
0.15428
0.153372
0.152906
0.153009
0.160584
0.171159
0.18366
0.198411
0.215842
0.236514
0.26116
0.290723
0.32641
0.369747
0.422767
0.487794
0.566633
0.659632
0.763963
0.871969
0.971876
1.05253
1.10912
1.14419
1.1639
1.17416
1.17925
1.18171
1.18286
1.18339
1.18363
1.18374
1.18379
1.18381
1.18382
1.18382
1.18382
1.18382
1.18382
1.18382
1.18382
0.658525
0.658497
0.65845
0.658371
0.65824
0.658022
0.657664
0.657082
0.656151
0.65468
0.6524
0.64894
0.643823
0.636482
0.626317
0.612813
0.595683
0.575017
0.551341
0.525554
0.498741
0.471963
0.446085
0.421698
0.399128
0.378488
0.359746
0.342783
0.327437
0.313532
0.300901
0.289387
0.278853
0.269183
0.260278
0.252055
0.244415
0.237277
0.230591
0.224312
0.218402
0.212829
0.207567
0.202592
0.197884
0.193428
0.18921
0.18522
0.181448
0.177889
0.174536
0.171387
0.168442
0.165702
0.163172
0.160859
0.158775
0.156938
0.15541
0.154193
0.153288
0.152808
0.152866
0.161313
0.172107
0.184824
0.199809
0.217506
0.238492
0.263517
0.293544
0.329802
0.373846
0.427753
0.493831
0.573799
0.667811
0.772701
0.880421
0.979059
1.05782
1.11252
1.14614
1.16493
1.17468
1.1795
1.18182
1.18291
1.18341
1.18364
1.18374
1.18379
1.18381
1.18382
1.18382
1.18382
1.18382
1.18382
1.18382
1.18382
0.658525
0.658497
0.65845
0.658371
0.658238
0.658019
0.65766
0.657076
0.65614
0.654662
0.652372
0.648896
0.643757
0.636386
0.626182
0.61263
0.595449
0.574731
0.55101
0.525187
0.498352
0.471566
0.44569
0.421313
0.398759
0.378137
0.359413
0.342468
0.327138
0.313249
0.300631
0.289129
0.278606
0.268945
0.260049
0.251835
0.244201
0.237069
0.230387
0.224113
0.218208
0.21264
0.207381
0.202411
0.197708
0.193257
0.189045
0.18506
0.181295
0.177743
0.174398
0.171259
0.168324
0.165596
0.163078
0.160779
0.158712
0.156894
0.155394
0.154206
0.153339
0.152911
0.15305
0.16197
0.172889
0.185751
0.200903
0.218797
0.240019
0.26533
0.295708
0.3324
0.376986
0.431569
0.498444
0.579261
0.674023
0.779301
0.886761
0.984403
1.06172
1.11502
1.14757
1.16569
1.17505
1.17968
1.18191
1.18295
1.18343
1.18365
1.18375
1.18379
1.18381
1.18382
1.18382
1.18382
1.18382
1.18382
1.18382
1.18382
0.658525
0.658497
0.65845
0.65837
0.658238
0.658018
0.657657
0.657071
0.656132
0.65465
0.652353
0.648867
0.643713
0.636321
0.626092
0.612508
0.595292
0.57454
0.550788
0.524942
0.498093
0.471301
0.445427
0.421057
0.398512
0.377902
0.359191
0.342257
0.326938
0.31306
0.300451
0.288957
0.278441
0.268788
0.259898
0.251689
0.244059
0.23693
0.230253
0.223982
0.21808
0.212515
0.20726
0.202293
0.197593
0.193146
0.188938
0.184958
0.181199
0.177652
0.174314
0.171183
0.168256
0.165538
0.163032
0.160747
0.158696
0.156899
0.155432
0.154273
0.153449
0.153079
0.153296
0.162471
0.173466
0.18642
0.20168
0.219703
0.241083
0.266586
0.297202
0.334189
0.379142
0.434184
0.5016
0.58299
0.67825
0.78377
0.891025
0.987972
1.06432
1.11667
1.14852
1.1662
1.1753
1.1798
1.18196
1.18298
1.18344
1.18365
1.18375
1.18379
1.18381
1.18382
1.18382
1.18382
1.18382
1.18382
1.18382
1.18382
0.658525
0.658497
0.65845
0.65837
0.658237
0.658017
0.657656
0.657069
0.656129
0.654645
0.652344
0.648853
0.643692
0.63629
0.626048
0.61245
0.595217
0.574448
0.550682
0.524824
0.497968
0.471173
0.445299
0.420932
0.398392
0.377788
0.359082
0.342154
0.326841
0.312967
0.300362
0.288872
0.278361
0.26871
0.259823
0.251617
0.243989
0.236863
0.230187
0.223918
0.218017
0.212454
0.207201
0.202235
0.197538
0.193093
0.188887
0.18491
0.181154
0.17761
0.174277
0.171149
0.168229
0.165517
0.163019
0.160744
0.158706
0.156925
0.155481
0.154312
0.153518
0.153179
0.15343
0.162725
0.17377
0.186774
0.202091
0.22018
0.241638
0.267237
0.297972
0.335104
0.38024
0.43551
0.503191
0.584859
0.680356
0.785982
0.893119
0.989712
1.06557
1.11747
1.14898
1.16644
1.17543
1.17986
1.18199
1.18299
1.18345
1.18366
1.18375
1.18379
1.18381
1.18382
1.18382
1.18382
1.18382
1.18382
1.18382
1.18382
0.658525
0.658497
0.65845
0.65837
0.658237
0.658017
0.657656
0.657069
0.656129
0.654644
0.652344
0.648853
0.643692
0.63629
0.626048
0.61245
0.595216
0.574448
0.550681
0.524823
0.497967
0.471172
0.445298
0.420931
0.398391
0.377787
0.359081
0.342153
0.32684
0.312966
0.300362
0.288872
0.27836
0.26871
0.259823
0.251616
0.243989
0.236862
0.230186
0.223917
0.218017
0.212454
0.2072
0.202235
0.197537
0.193092
0.188887
0.18491
0.181153
0.17761
0.174276
0.171149
0.168228
0.165516
0.163018
0.160743
0.158705
0.156925
0.155481
0.154312
0.153518
0.153179
0.15343
0.162726
0.173772
0.186777
0.202094
0.220184
0.241642
0.267243
0.297978
0.335112
0.380249
0.43552
0.503203
0.584874
0.680373
0.786001
0.893139
0.989728
1.06558
1.11747
1.14899
1.16644
1.17543
1.17986
1.18199
1.18299
1.18345
1.18366
1.18375
1.18379
1.18381
1.18382
1.18382
1.18382
1.18382
1.18382
1.18382
1.18382
0.658525
0.658497
0.65845
0.65837
0.658238
0.658018
0.657657
0.657071
0.656132
0.65465
0.652352
0.648867
0.643713
0.63632
0.62609
0.612507
0.59529
0.574538
0.550785
0.524939
0.49809
0.471298
0.445424
0.421054
0.39851
0.3779
0.359189
0.342255
0.326937
0.313058
0.300449
0.288955
0.27844
0.268786
0.259896
0.251687
0.244057
0.236929
0.230251
0.22398
0.218078
0.212513
0.207258
0.202291
0.197591
0.193144
0.188936
0.184957
0.181197
0.17765
0.174312
0.17118
0.168254
0.165536
0.16303
0.160744
0.158693
0.156896
0.155431
0.154273
0.153449
0.153079
0.153298
0.162474
0.173472
0.186428
0.201689
0.219714
0.241095
0.266601
0.29722
0.334209
0.379167
0.434215
0.501639
0.583036
0.678304
0.783829
0.891081
0.988019
1.06435
1.11669
1.14854
1.1662
1.17531
1.17981
1.18196
1.18298
1.18344
1.18365
1.18375
1.18379
1.18381
1.18382
1.18382
1.18382
1.18382
1.18382
1.18382
1.18382
0.658525
0.658497
0.65845
0.658371
0.658238
0.658019
0.65766
0.657076
0.65614
0.654662
0.652371
0.648896
0.643756
0.636384
0.62618
0.612628
0.595445
0.574727
0.551005
0.525182
0.498347
0.471561
0.445685
0.421309
0.398754
0.378133
0.35941
0.342464
0.327135
0.313246
0.300628
0.289126
0.278603
0.268943
0.260047
0.251832
0.244198
0.237066
0.230385
0.22411
0.218205
0.212637
0.207379
0.202408
0.197705
0.193254
0.189042
0.185057
0.181292
0.17774
0.174395
0.171256
0.168321
0.165592
0.163075
0.160776
0.158709
0.156891
0.155393
0.154206
0.153341
0.152915
0.153052
0.161975
0.172895
0.18576
0.200914
0.21881
0.240036
0.265351
0.295733
0.332432
0.377025
0.431618
0.498506
0.579337
0.674113
0.779399
0.886855
0.984483
1.06178
1.11505
1.14759
1.1657
1.17506
1.17969
1.18191
1.18295
1.18343
1.18365
1.18375
1.18379
1.18381
1.18382
1.18382
1.18382
1.18382
1.18382
1.18382
1.18382
0.658525
0.658497
0.65845
0.658371
0.65824
0.658022
0.657664
0.657082
0.65615
0.654679
0.652399
0.648939
0.643822
0.63648
0.626314
0.612809
0.595678
0.575011
0.551335
0.525546
0.498733
0.471956
0.446078
0.421691
0.399121
0.378482
0.359741
0.342778
0.327432
0.313528
0.300897
0.289383
0.278849
0.269179
0.260274
0.252051
0.244411
0.237273
0.230587
0.224308
0.218398
0.212825
0.207563
0.202588
0.19788
0.193424
0.189206
0.185216
0.181444
0.177884
0.174532
0.171383
0.168438
0.165698
0.163167
0.160854
0.158771
0.156934
0.155407
0.154192
0.153289
0.152811
0.152869
0.161323
0.17212
0.184841
0.199828
0.217528
0.238518
0.263548
0.29358
0.329846
0.373901
0.427821
0.493916
0.573903
0.667934
0.772835
0.880552
0.979169
1.0579
1.11257
1.14617
1.16495
1.17468
1.17951
1.18182
1.18291
1.18341
1.18364
1.18374
1.18379
1.18381
1.18382
1.18382
1.18382
1.18382
1.18382
1.18382
1.18382
0.658526
0.658498
0.658451
0.658372
0.658241
0.658025
0.657669
0.657091
0.656165
0.654702
0.652436
0.648996
0.643908
0.636605
0.626492
0.613048
0.595985
0.575386
0.551771
0.526029
0.499245
0.472479
0.446598
0.422198
0.399609
0.378946
0.360181
0.343195
0.327827
0.313903
0.301254
0.289724
0.279177
0.269494
0.260578
0.252345
0.244697
0.237552
0.230859
0.224574
0.218659
0.213081
0.207813
0.202832
0.198118
0.193656
0.189432
0.185435
0.181656
0.178088
0.174726
0.171568
0.168613
0.165861
0.163318
0.160991
0.158894
0.157044
0.155502
0.154277
0.15337
0.152906
0.15301
0.160598
0.171178
0.183683
0.198438
0.215872
0.236549
0.2612
0.29077
0.326467
0.369816
0.422853
0.487902
0.566766
0.659789
0.764135
0.872138
0.972019
1.05263
1.10918
1.14422
1.16392
1.17417
1.17926
1.18171
1.18286
1.18339
1.18363
1.18374
1.18379
1.18381
1.18382
1.18382
1.18382
1.18382
1.18382
1.18382
1.18382
0.658526
0.658498
0.658451
0.658373
0.658243
0.658028
0.657675
0.657101
0.656182
0.654731
0.652481
0.649066
0.644013
0.63676
0.62671
0.613342
0.596364
0.575849
0.552309
0.526625
0.499878
0.473127
0.447243
0.422827
0.400213
0.379522
0.360727
0.343713
0.328318
0.31437
0.301699
0.29015
0.279585
0.269887
0.260957
0.252712
0.245054
0.237901
0.231201
0.224909
0.218987
0.213402
0.208128
0.203141
0.198421
0.193953
0.189721
0.185716
0.181929
0.178352
0.174981
0.171813
0.168847
0.166085
0.16353
0.161192
0.159083
0.157222
0.15567
0.154435
0.153517
0.153035
0.153095
0.15953
0.169916
0.182197
0.196689
0.21381
0.234109
0.258299
0.287301
0.322298
0.364779
0.416729
0.480479
0.557936
0.649668
0.753251
0.861514
0.962889
1.04584
1.10478
1.14167
1.16255
1.17349
1.17893
1.18155
1.18279
1.18336
1.18362
1.18373
1.18378
1.1838
1.18381
1.18382
1.18382
1.18382
1.18382
1.18382
1.18382
0.658526
0.658498
0.658452
0.658375
0.658246
0.658033
0.657682
0.657114
0.656203
0.654764
0.652533
0.649148
0.644138
0.636942
0.626966
0.613688
0.596809
0.576395
0.552944
0.52733
0.500627
0.473894
0.448008
0.423573
0.400931
0.380207
0.361377
0.344329
0.328903
0.314926
0.30223
0.290658
0.280073
0.270357
0.261411
0.253151
0.245483
0.238321
0.231612
0.225312
0.219382
0.213791
0.20851
0.203516
0.198789
0.194312
0.190073
0.18606
0.182264
0.178678
0.175296
0.172117
0.16914
0.166366
0.1638
0.161451
0.159333
0.157466
0.155919
0.154692
0.153798
0.153365
0.153509
0.158217
0.168388
0.180413
0.194599
0.211354
0.231208
0.254854
0.283187
0.317354
0.358808
0.409467
0.471669
0.547424
0.637555
0.740117
0.84854
0.951583
1.0373
1.09917
1.13839
1.1608
1.17261
1.1785
1.18135
1.1827
1.18332
1.1836
1.18372
1.18378
1.1838
1.18381
1.18382
1.18382
1.18382
1.18382
1.18382
1.18382
0.658526
0.658499
0.658453
0.658376
0.658249
0.658037
0.657691
0.657128
0.656226
0.654802
0.652594
0.649241
0.644279
0.637149
0.627258
0.614083
0.597318
0.577018
0.55367
0.528136
0.501484
0.474775
0.448886
0.42443
0.401756
0.380995
0.362126
0.345039
0.329577
0.315568
0.302843
0.291246
0.280638
0.270902
0.261938
0.253663
0.245982
0.238809
0.23209
0.225781
0.219844
0.214245
0.208956
0.203955
0.19922
0.194736
0.190488
0.186466
0.18266
0.179063
0.17567
0.172478
0.169488
0.166699
0.164119
0.161756
0.159625
0.157748
0.1562
0.154985
0.154135
0.153801
0.154154
0.156776
0.166662
0.178375
0.192201
0.208528
0.227867
0.250884
0.278443
0.311654
0.351927
0.4011
0.461498
0.53525
0.623445
0.724669
0.83307
0.937871
1.02677
1.09215
1.13424
1.15856
1.17148
1.17796
1.1811
1.18258
1.18326
1.18357
1.18371
1.18377
1.1838
1.18381
1.18382
1.18382
1.18382
1.18382
1.18382
1.18382
0.658526
0.658499
0.658454
0.658378
0.658252
0.658043
0.6577
0.657144
0.656252
0.654844
0.65266
0.649345
0.644435
0.637378
0.627581
0.614521
0.597883
0.577712
0.55448
0.529036
0.502443
0.475759
0.449869
0.425392
0.402683
0.38188
0.362967
0.345838
0.330336
0.316292
0.303534
0.291909
0.281277
0.271519
0.262535
0.254241
0.246548
0.239363
0.232635
0.226317
0.220371
0.214764
0.209467
0.204458
0.199715
0.195222
0.190965
0.186933
0.183116
0.179506
0.1761
0.172893
0.169885
0.167078
0.164475
0.162087
0.159926
0.158013
0.156405
0.155135
0.154207
0.153761
0.153941
0.155085
0.164705
0.176086
0.189511
0.205356
0.224113
0.24642
0.273106
0.305241
0.344184
0.39169
0.450041
0.521489
0.60739
0.706901
0.814996
0.921532
1.01395
1.08344
1.12902
1.15572
1.17004
1.17726
1.18077
1.18243
1.18319
1.18354
1.1837
1.18377
1.1838
1.18381
1.18382
1.18382
1.18382
1.18382
1.18382
1.18382
0.658526
0.658499
0.658455
0.65838
0.658255
0.658049
0.65771
0.657161
0.65628
0.654889
0.652733
0.649458
0.644606
0.637628
0.627934
0.614997
0.598498
0.578468
0.555363
0.530019
0.503491
0.476838
0.450947
0.426447
0.4037
0.382853
0.363893
0.346718
0.331174
0.31709
0.304298
0.292643
0.281984
0.272202
0.263198
0.254885
0.247177
0.239981
0.233242
0.226915
0.22096
0.215344
0.21004
0.205022
0.200271
0.195769
0.191503
0.18746
0.18363
0.180008
0.176586
0.173361
0.170333
0.167501
0.164871
0.162448
0.160244
0.158276
0.156573
0.155198
0.154112
0.15342
0.153205
0.153589
0.162763
0.173695
0.186629
0.201913
0.220008
0.241522
0.267241
0.298186
0.335662
0.381336
0.437425
0.506273
0.58951
0.686879
0.794274
0.902381
0.998566
1.07276
1.12251
1.15213
1.16822
1.17638
1.18035
1.18223
1.18311
1.1835
1.18368
1.18376
1.1838
1.18381
1.18382
1.18382
1.18382
1.18382
1.18382
1.18382
0.658526
0.6585
0.658456
0.658382
0.658259
0.658055
0.657721
0.657179
0.65631
0.654939
0.652811
0.649578
0.644788
0.637895
0.62831
0.615507
0.599157
0.579278
0.55631
0.531075
0.504618
0.477998
0.452107
0.427584
0.404798
0.383903
0.364894
0.34767
0.33208
0.317956
0.305127
0.29344
0.282753
0.272947
0.26392
0.255588
0.247865
0.240657
0.233908
0.227571
0.221608
0.215984
0.210672
0.205646
0.200887
0.196376
0.1921
0.188046
0.184204
0.180567
0.177129
0.173886
0.170837
0.16798
0.16532
0.162861
0.160615
0.158593
0.15682
0.155365
0.154207
0.153373
0.152968
0.153083
0.160636
0.171097
0.183508
0.198189
0.215573
0.23623
0.260905
0.290568
0.326461
0.370167
0.423802
0.489779
0.569985
0.664745
0.770942
0.880287
0.980323
1.05977
1.11444
1.14763
1.16591
1.17525
1.17982
1.18199
1.183
1.18346
1.18366
1.18375
1.18379
1.18381
1.18382
1.18382
1.18382
1.18382
1.18382
1.18382
0.658526
0.6585
0.658457
0.658384
0.658263
0.658062
0.657733
0.657199
0.656342
0.654991
0.652893
0.649706
0.644981
0.638176
0.628708
0.616045
0.599852
0.580132
0.557309
0.532189
0.505809
0.479225
0.453336
0.428788
0.405962
0.385018
0.365956
0.348682
0.333045
0.318877
0.306011
0.29429
0.283575
0.273744
0.264695
0.256343
0.248605
0.241385
0.234626
0.22828
0.222308
0.216677
0.211357
0.206324
0.201557
0.197038
0.192752
0.188687
0.184834
0.181183
0.17773
0.174469
0.171399
0.168519
0.165832
0.163344
0.161064
0.159006
0.157193
0.155704
0.154532
0.153719
0.153403
0.153748
0.158251
0.168263
0.18015
0.19421
0.21085
0.230604
0.254177
0.282481
0.316696
0.358323
0.409352
0.472217
0.549046
0.640713
0.745117
0.855188
0.958963
1.04412
1.10447
1.14198
1.16298
1.17381
1.17914
1.18168
1.18286
1.18339
1.18363
1.18374
1.18379
1.18381
1.18382
1.18382
1.18382
1.18382
1.18382
1.18382
0.658526
0.658501
0.658458
0.658386
0.658267
0.658069
0.657745
0.657219
0.656376
0.655045
0.65298
0.64984
0.645183
0.638471
0.629123
0.616606
0.600576
0.581022
0.558349
0.533349
0.507048
0.480501
0.454614
0.430042
0.407174
0.386179
0.367064
0.349737
0.334052
0.319841
0.306937
0.295183
0.284439
0.274583
0.265512
0.25714
0.249387
0.242156
0.235387
0.229033
0.223054
0.217416
0.212089
0.207049
0.202275
0.197748
0.193453
0.189379
0.185514
0.18185
0.178382
0.175104
0.172015
0.169113
0.166402
0.163886
0.161574
0.159482
0.157632
0.156087
0.154871
0.154012
0.153668
0.154026
0.155658
0.165252
0.176617
0.19004
0.205908
0.224723
0.247147
0.274035
0.3065
0.345963
0.394272
0.453829
0.52697
0.615064
0.717019
0.827129
0.934292
1.02543
1.09225
1.13491
1.15927
1.17198
1.17827
1.18128
1.18268
1.18331
1.1836
1.18373
1.18378
1.1838
1.18381
1.18382
1.18382
1.18382
1.18382
1.18382
0.658526
0.658501
0.658459
0.658389
0.658271
0.658077
0.657759
0.657241
0.656412
0.655103
0.65307
0.64998
0.645392
0.638777
0.629552
0.617184
0.601321
0.581936
0.559416
0.534538
0.508317
0.481808
0.455923
0.431324
0.408413
0.387366
0.368198
0.350818
0.335084
0.32083
0.307888
0.296101
0.285328
0.275448
0.266356
0.257965
0.250198
0.242957
0.23618
0.229818
0.223833
0.218189
0.212857
0.207811
0.20303
0.198496
0.194193
0.190109
0.186234
0.182558
0.179076
0.175781
0.172673
0.169749
0.167011
0.164464
0.162116
0.159978
0.158068
0.156419
0.15508
0.154028
0.153361
0.153147
0.153462
0.162422
0.173139
0.185847