/*--------------------------------*- C++ -*----------------------------------*\
  =========                 |
  \\      /  F ield         | OpenFOAM: The Open Source CFD Toolbox
   \\    /   O peration     | Website:  https://openfoam.org
    \\  /    A nd           | Version:  8
     \\/     M anipulation  |
\*---------------------------------------------------------------------------*/
FoamFile
{
    version     2.0;
    format      ascii;
    class       volScalarField;
    location    "200/fluid";
    object      T;
}
// * * * * * * * * * * * * * * * * * * * * * * * * * * * * * * * * * * * * * //

dimensions      [0 0 0 1 0 0 0];

internalField   nonuniform List<scalar> 
4000
(
293.003
293.014
293.032
293.063
293.113
293.196
293.332
293.554
293.911
294.478
295.369
296.745
298.832
301.933
306.43
312.774
321.453
332.935
347.603
365.682
387.214
412.056
439.927
470.47
503.306
538.085
574.505
612.323
651.349
691.44
732.484
774.397
817.105
860.539
904.629
949.296
994.452
1040.08
1086.2
1132.76
1179.71
1226.98
1274.51
1322.24
1370.09
1417.98
1465.85
1513.61
1561.17
1608.43
1655.29
1701.63
1747.33
1792.24
1836.2
1879.02
1920.49
1960.33
1998.22
2033.74
2066.34
2094.84
2119.44
2138.36
2149.88
2151.73
2122.39
2010.43
1891.98
1768.83
1642.54
1514.46
1385.84
1257.87
1131.76
1008.76
890.111
776.938
671.157
575.381
492.359
424.542
373.325
338.198
316.524
304.445
298.332
295.41
294.064
293.462
293.198
293.084
293.035
293.015
293.006
293.003
293.001
293
293
293
293.003
293.014
293.033
293.064
293.116
293.201
293.342
293.57
293.938
294.523
295.441
296.856
298.997
302.167
306.748
313.187
321.964
333.537
348.278
366.409
387.969
412.822
440.695
471.239
504.087
538.893
575.359
613.242
652.352
692.542
733.702
775.742
818.586
862.164
906.402
951.22
996.528
1042.31
1088.59
1135.31
1182.42
1229.84
1277.52
1325.38
1373.37
1421.4
1469.39
1517.27
1564.93
1612.29
1659.24
1705.65
1751.42
1796.38
1840.38
1883.22
1924.7
1964.54
2002.43
2037.97
2070.65
2099.3
2124.19
2143.6
2156.01
2159.07
2107.15
1993.43
1873.32
1748.61
1620.85
1491.39
1361.51
1232.41
1105.35
981.652
862.593
749.49
644.632
550.867
471.06
407.516
361.088
330.421
312.163
302.263
297.324
294.967
293.877
293.384
293.166
293.071
293.03
293.013
293.005
293.002
293.001
293
293
293
293.003
293.015
293.034
293.066
293.119
293.207
293.352
293.588
293.968
294.571
295.516
296.969
299.163
302.403
307.073
313.618
322.514
334.214
349.08
367.326
388.987
413.923
441.867
472.476
505.388
540.267
576.819
614.807
654.042
694.379
735.706
777.933
820.982
864.781
909.253
954.314
999.87
1045.92
1092.47
1139.46
1186.84
1234.53
1282.48
1330.61
1378.85
1427.12
1475.35
1523.45
1571.32
1618.87
1665.98
1712.55
1758.43
1803.48
1847.54
1890.41
1931.87
1971.63
2009.38
2044.72
2077.1
2105.43
2130.29
2150.2
2164.18
2171.13
2081.92
1965.39
1842.89
1716.15
1586.69
1455.87
1324.99
1195.31
1068.16
944.97
826.985
715.845
614.127
524.695
450.184
392.34
351.2
324.677
309.158
300.817
296.659
294.67
293.747
293.328
293.142
293.061
293.026
293.011
293.005
293.002
293.001
293
293
293
293.003
293.015
293.035
293.067
293.122
293.213
293.361
293.603
293.992
294.609
295.574
297.057
299.293
302.591
307.335
313.973
322.981
334.808
349.811
368.2
390.003
415.079
443.158
473.899
506.945
541.961
578.659
616.804
656.212
696.74
738.276
780.732
824.03
868.094
912.847
958.202
1004.06
1050.43
1097.32
1144.66
1192.38
1240.42
1288.71
1337.18
1385.75
1434.34
1482.88
1531.26
1579.41
1627.2
1674.54
1721.3
1767.33
1812.5
1856.62
1899.48
1940.86
1980.44
2017.88
2052.73
2084.14
2111.32
2134.31
2151.3
2160.9
2161.29
2049.35
1929.95
1805.12
1676.54
1545.71
1414.01
1282.74
1153.23
1026.85
905.068
789.103
680.923
583.232
498.787
429.913
377.795
341.755
319.142
306.201
299.362
295.976
294.36
293.61
293.269
293.117
293.05
293.021
293.009
293.004
293.002
293.001
293
293
293
293.004
293.015
293.035
293.069
293.125
293.218
293.37
293.617
294.015
294.645
295.631
297.144
299.422
302.779
307.601
314.339
323.468
335.435
350.593
369.145
391.113
416.353
444.594
475.495
508.702
543.884
580.756
619.087
658.694
699.439
741.211
783.922
827.493
871.85
916.91
962.586
1008.78
1055.51
1102.77
1150.48
1198.59
1247.02
1295.69
1344.54
1393.48
1442.44
1491.33
1540.04
1588.49
1636.57
1684.15
1731.11
1777.32
1822.59
1866.76
1909.6
1950.86
1990.21
2027.25
2061.49
2091.52
2117.14
2137.61
2150.24
2151.91
2127.51
2012.5
1890.61
1763.79
1633.74
1501.97
1369.85
1238.72
1109.95
984.955
865.116
751.773
647.18
554.045
474.949
411.831
365.262
333.899
314.679
303.872
298.228
295.446
294.119
293.502
293.222
293.097
293.042
293.018
293.008
293.003
293.001
293.001
293
293
293
293.004
293.016
293.036
293.07
293.128
293.222
293.377
293.63
294.035
294.678
295.681
297.221
299.54
302.952
307.849
314.685
323.935
336.047
351.368
370.097
392.25
417.677
446.104
477.191
510.583
545.953
583.019
621.554
661.379
702.356
744.378
787.356
831.213
875.872
921.252
967.258
1013.8
1060.9
1108.54
1156.65
1205.15
1253.98
1303.05
1352.3
1401.63
1450.97
1500.21
1549.27
1598.03
1646.39
1694.23
1741.4
1787.76
1833.14
1877.34
1920.13
1961.24
2000.34
2037.03
2070.8
2100.11
2125.8
2146.25
2160.16
2165.91
2090.83
1973.51
1849.68
1721.38
1590.31
1458.02
1325.92
1195.35
1067.72
944.488
826.89
716.509
615.783
527.351
453.571
395.959
354.495
327.267
310.951
301.932
297.282
295.001
293.915
293.411
293.182
293.08
293.034
293.015
293.006
293.003
293.001
293
293
293
293
293.004
293.016
293.037
293.072
293.13
293.226
293.384
293.641
294.054
294.708
295.73
297.297
299.654
303.121
308.093
315.027
324.401
336.66
352.149
371.061
393.407
419.03
447.654
478.937
512.525
548.094
585.365
624.114
664.163
705.379
747.655
790.905
835.05
880.013
925.71
972.046
1018.93
1066.4
1114.42
1162.92
1211.81
1261.04
1310.51
1360.15
1409.87
1459.57
1509.17
1558.56
1607.63
1656.27
1704.34
1751.7
1798.19
1843.64
1887.83
1930.51
1971.4
2010.12
2046.23
2079.04
2107.46
2132.1
2151.07
2163.25
2167.22
2055.65
1935.65
1809.79
1680.07
1548.18
1415.62
1283.78
1154.04
1027.8
906.485
791.285
684.038
587.271
503.513
434.864
382.395
345.521
321.869
307.974
300.403
296.54
294.652
293.756
293.34
293.151
293.066
293.028
293.012
293.005
293.002
293.001
293
293
293
293
293.004
293.016
293.037
293.073
293.132
293.23
293.391
293.652
294.072
294.737
295.775
297.368
299.763
303.283
308.329
315.36
324.856
337.262
352.921
372.019
394.56
420.384
449.21
480.693
514.483
550.254
587.733
626.696
666.971
708.424
750.952
794.468
838.895
884.155
930.161
976.816
1024.04
1071.86
1120.25
1169.12
1218.4
1268
1317.85
1367.87
1417.95
1468.01
1517.94
1567.65
1617
1665.89
1714.17
1761.69
1808.29
1853.78
1897.93
1940.48
1981.11
2019.41
2054.85
2086.17
2112.86
2134.76
2149.13
2153.27
2139.37
2022.85
1899.68
1771.75
1640.76
1508.26
1375.65
1244.3
1115.56
990.854
871.512
758.776
654.712
561.855
482.597
418.758
370.963
338.118
317.495
305.591
299.188
295.951
294.376
293.629
293.283
293.125
293.055
293.024
293.01
293.004
293.002
293.001
293
293
293
293
293.004
293.017
293.038
293.074
293.134
293.234
293.397
293.662
294.089
294.765
295.819
297.436
299.867
303.44
308.558
315.683
325.299
337.85
353.676
372.958
395.693
421.716
450.741
482.424
516.412
552.384
590.066
629.24
669.735
711.419
754.191
797.964
842.662
888.205
934.505
981.461
1029
1077.17
1125.9
1175.12
1224.75
1274.72
1324.92
1375.28
1425.7
1476.09
1526.33
1576.32
1625.93
1675.03
1723.49
1771.15
1817.84
1863.35
1907.46
1949.89
1990.33
2028.35
2063.46
2094
2120.1
2141.26
2155.01
2158.89
2106.42
1988.63
1864.21
1735.3
1603.72
1471.02
1338.66
1207.99
1080.38
957.271
839.869
729.577
628.637
539.532
464.503
405.077
361.449
332.081
313.989
303.705
298.234
295.491
294.16
293.53
293.238
293.106
293.046
293.02
293.009
293.004
293.002
293.001
293
293
293
293
293.004
293.017
293.039
293.075
293.136
293.237
293.403
293.672
294.105
294.791
295.861
297.502
299.968
303.59
308.777
315.994
325.726
338.418
354.405
373.864
396.788
423.004
452.223
484.099
518.279
554.444
592.323
631.699
672.403
714.307
757.31
801.326
846.279
892.087
938.662
985.9
1033.74
1082.22
1131.27
1180.82
1230.78
1281.07
1331.6
1382.28
1433.01
1483.68
1534.2
1584.43
1634.27
1683.56
1732.17
1779.92
1826.65
1872.14
1916.16
1958.42
1998.58
2036.25
2070.9
2101.02
2126.99
2148.5
2163.53
2170.51
2076.88
1957.33
1831.61
1701.84
1569.8
1437.06
1305.05
1175.13
1048.7
927.147
811.62
703.706
605.746
520.16
449.024
393.571
353.595
327.185
311.187
302.213
297.487
295.131
293.991
293.453
293.203
293.09
293.04
293.017
293.007
293.003
293.001
293.001
293
293
293
293
293.004
293.017
293.039
293.076
293.138
293.24
293.408
293.681
294.12
294.815
295.9
297.564
300.063
303.732
308.985
316.289
326.132
338.957
355.099
374.727
397.83
424.229
453.632
485.691
520.053
556.401
594.465
634.03
674.932
717.041
760.259
804.501
849.69
895.744
942.571
990.067
1038.18
1086.95
1136.29
1186.14
1236.39
1286.98
1337.8
1388.76
1439.77
1490.7
1541.46
1591.91
1641.93
1691.37
1740.09
1787.91
1834.64
1880.06
1923.91
1965.89
2005.63
2042.69
2076.4
2105.43
2130.64
2150.08
2162.39
2165.48
2051.42
1929.6
1802.37
1671.69
1539.24
1406.51
1274.91
1145.77
1020.49
900.416
786.673
681.019
585.849
503.505
435.896
383.968
347.152
323.231
308.952
301.033
296.9
294.849
293.859
293.392
293.176
293.078
293.034
293.015
293.006
293.003
293.001
293
293
293
293
293
293.004
293.017
293.04
293.077
293.14
293.243
293.413
293.69
294.134
294.838
295.937
297.621
300.151
303.866
309.179
316.565
326.512
339.462
355.748
375.535
398.805
425.375
454.95
487.178
521.71
558.226
596.461
636.202
677.284
719.583
762.998
807.446
852.85
899.126
946.183
993.911
1042.27
1091.3
1140.91
1191.02
1241.54
1292.39
1343.47
1394.68
1445.92
1497.09
1548.05
1598.69
1648.86
1698.44
1747.24
1795.1
1841.81
1887.14
1930.83
1972.53
2011.84
2048.27
2080.62
2108.22
2131.22
2147.14
2153.84
2146.47
2028.9
1904.83
1776.2
1644.74
1511.98
1379.35
1248.2
1119.85
995.668
876.964
764.884
661.339
568.733
489.326
424.861
376.014
341.896
320.051
307.175
300.102
296.439
294.627
293.755
293.344
293.155
293.069
293.03
293.013
293.006
293.002
293.001
293
293
293
293
293
293.004
293.017
293.04
293.078
293.141
293.246
293.418
293.698
294.147
294.859
295.971
297.674
300.233
303.988
309.359
316.82
326.861
339.927
356.345
376.277
399.7
426.427
456.158
488.541
523.227
559.897
598.287
638.186
679.432
721.901
765.493
810.127
855.723
902.198
949.458
997.394
1045.98
1095.23
1145.07
1195.42
1246.17
1297.25
1348.56
1399.99
1451.44
1502.8
1553.94
1604.73
1655.04
1704.72
1753.6
1801.5
1848.2
1893.47
1937.04
1978.54
2017.58
2053.6
2085.06
2111.88
2133.74
2148
2152.18
2124.94
2006.52
1881.65
1752.45
1620.67
1487.89
1355.5
1224.84
1097.27
974.131
856.671
746.105
644.484
554.187
477.39
415.678
369.482
337.637
317.505
305.764
299.367
296.076
294.453
293.674
293.307
293.138
293.061
293.027
293.012
293.005
293.002
293.001
293
293
293
293
293
293.004
293.018
293.04
293.079
293.143
293.248
293.422
293.705
294.159
294.878
296.001
297.722
300.306
304.099
309.52
317.049
327.177
340.346
356.883
376.945
400.505
427.371
457.242
489.764
524.586
561.393
599.921
639.961
681.352
723.971
767.72
812.516
858.281
904.931
952.369
1000.49
1049.27
1098.72
1148.76
1199.3
1250.26
1301.54
1353.04
1404.66
1456.28
1507.8
1559.09
1610.02
1660.45
1710.21
1759.15
1807.09
1853.8
1899.05
1942.56
1983.99
2022.94
2058.9
2090.41
2117.41
2139.88
2155.46
2162.33
2106.67
1986.99
1861.33
1731.69
1599.74
1467.02
1334.92
1204.78
1077.93
955.741
839.387
730.174
630.26
541.995
467.472
408.126
364.17
334.214
315.479
304.651
298.791
295.792
294.317
293.61
293.278
293.125
293.055
293.024
293.01
293.004
293.002
293.001
293
293
293
293
293
293.004
293.018
293.041
293.079
293.144
293.251
293.426
293.711
294.169
294.895
296.028
297.764
300.371
304.196
309.663
317.251
327.454
340.714
357.355
377.531
401.211
428.199
458.191
490.834
525.775
562.7
601.347
641.509
683.025
725.773
769.657
814.594
860.504
907.303
954.894
1003.17
1052.11
1101.73
1151.94
1202.66
1253.79
1305.23
1356.89
1408.66
1460.44
1512.09
1563.5
1614.54
1665.05
1714.89
1763.88
1811.83
1858.54
1903.77
1947.25
1988.63
2027.53
2063.46
2095.12
2122.24
2145.06
2161.33
2169.32
2090.22
1969.94
1843.86
1713.97
1581.97
1449.37
1317.56
1187.89
1061.69
940.326
824.933
716.915
618.475
531.943
459.351
401.997
359.903
331.491
313.88
303.777
298.34
295.571
294.211
293.56
293.255
293.114
293.051
293.022
293.01
293.004
293.002
293.001
293
293
293
293
293
293.004
293.018
293.041
293.08
293.145
293.252
293.429
293.716
294.178
294.909
296.051
297.8
300.426
304.279
309.784
317.423
327.69
341.026
357.756
378.028
401.809
428.9
458.995
491.739
526.78
563.805
602.552
642.816
684.437
727.293
771.29
816.343
862.374
909.298
957.014
1005.41
1054.5
1104.26
1154.61
1205.46
1256.73
1308.31
1360.1
1412
1463.88
1515.65
1567.15
1618.27
1668.84
1718.72
1767.74
1815.7
1862.39
1907.59
1951
1992.3
2031.11
2066.92
2098.46
2125.45
2148.11
2164.14
2171.45
2077.14
1956.18
1829.63
1699.47
1567.38
1434.86
1303.3
1174.02
1048.37
927.705
813.129
706.111
608.909
523.827
452.832
397.111
356.527
329.353
312.634
303.1
297.992
295.4
294.13
293.522
293.238
293.107
293.047
293.021
293.009
293.004
293.002
293.001
293
293
293
293
293
293.004
293.018
293.041
293.08
293.146
293.254
293.432
293.72
294.185
294.921
296.069
297.829
300.471
304.346
309.882
317.562
327.881
341.28
358.081
378.432
402.294
429.468
459.646
492.471
527.593
564.698
603.526
643.872
685.577
728.52
772.607
817.754
863.881
910.903
958.719
1007.22
1056.41
1106.28
1156.75
1207.71
1259.08
1310.77
1362.66
1414.65
1466.62
1518.46
1570.04
1621.21
1671.82
1721.72
1770.74
1818.69
1865.34
1910.47
1953.78
1994.96
2033.62
2069.28
2100.61
2127.47
2150.08
2166.27
2174.15
2068.4
1946
1818.64
1688.05
1555.8
1423.32
1291.95
1163
1037.81
917.71
803.792
697.586
601.385
517.469
447.751
393.323
353.926
327.716
311.684
302.585
297.728
295.27
294.068
293.493
293.224
293.101
293.044
293.019
293.008
293.004
293.002
293.001
293
293
293
293
293
293.004
293.018
293.041
293.081
293.146
293.255
293.433
293.724
294.19
294.93
296.084
297.852
300.506
304.398
309.957
317.668
328.027
341.473
358.328
378.737
402.661
429.898
460.138
493.025
528.207
565.373
604.262
644.669
686.437
729.446
773.6
818.817
865.016
912.111
960.002
1008.58
1057.85
1107.8
1158.35
1209.39
1260.84
1312.6
1364.56
1416.62
1468.66
1520.55
1572.17
1623.36
1674
1723.9
1772.9
1820.81
1867.4
1912.43
1955.63
1996.66
2035.12
2070.53
2101.44
2127.89
2149.95
2165.37
2172.06
2060.5
1937.64
1809.96
1679.21
1546.94
1414.54
1283.36
1154.69
1029.86
910.2
796.79
691.21
595.773
512.741
443.987
390.53
352.016
326.517
310.99
302.209
297.535
295.176
294.023
293.472
293.215
293.096
293.043
293.019
293.008
293.003
293.001
293.001
293
293
293
293
293
293.004
293.018
293.042
293.081
293.147
293.256
293.435
293.726
294.194
294.936
296.093
297.867
300.529
304.432
310.007
317.739
328.124
341.602
358.493
378.941
402.907
430.186
460.467
493.395
528.619
565.824
604.754
645.202
687.013
730.065
774.264
819.527
865.774
912.917
960.857
1009.48
1058.81
1108.81
1159.41
1210.5
1262.01
1313.81
1365.82
1417.92
1470
1521.92
1573.55
1624.76
1675.4
1725.29
1774.26
1822.12
1868.65
1913.59
1956.66
1997.53
2035.78
2070.93
2101.33
2127.38
2148.8
2163.38
2168.92
2054.47
1931.48
1803.74
1672.99
1540.77
1408.49
1277.47
1149.01
1024.46
905.112
792.059
686.913
592.002
509.574
441.474
388.673
350.752
325.726
310.531
301.961
297.407
295.113
293.993
293.458
293.208
293.093
293.041
293.018
293.008
293.003
293.001
293.001
293
293
293
293
293
293.004
293.018
293.042
293.081
293.147
293.256
293.435
293.727
294.196
294.939
296.098
297.874
300.54
304.449
310.031
317.773
328.17
341.664
358.572
379.04
403.025
430.324
460.627
493.575
528.818
566.045
604.994
645.464
687.295
730.37
774.591
819.877
866.147
913.314
961.278
1009.93
1059.28
1109.31
1159.93
1211.05
1262.58
1314.41
1366.44
1418.56
1470.65
1522.58
1574.23
1625.44
1676.07
1725.95
1774.9
1822.72
1869.2
1914.07
1957.04
1997.77
2035.84
2070.73
2100.75
2127.18
2148.1
2162.19
2167.22
2051.44
1928.27
1800.46
1669.71
1537.54
1405.34
1274.43
1146.11
1021.71
902.542
789.683
684.769
590.129
508.01
440.241
387.768
350.139
325.345
310.311
301.841
297.346
295.083
293.978
293.452
293.205
293.092
293.041
293.018
293.008
293.003
293.001
293.001
293
293
293
293
293
293.004
293.018
293.042
293.081
293.147
293.256
293.435
293.727
294.196
294.939
296.098
297.874
300.54
304.449
310.032
317.774
328.171
341.664
358.572
379.041
403.026
430.326
460.628
493.577
528.82
566.046
604.996
645.466
687.298
730.372
774.594
819.88
866.15
913.317
961.281
1009.93
1059.28
1109.31
1159.94
1211.06
1262.59
1314.42
1366.45
1418.57
1470.66
1522.59
1574.23
1625.45
1676.08
1725.96
1774.91
1822.73
1869.21
1914.08
1957.06
1997.79
2035.86
2070.73
2100.73
2127.17
2148.11
2162.19
2167.21
2051.42
1928.24
1800.43
1669.68
1537.51
1405.32
1274.41
1146.09
1021.69
902.523
789.664
684.752
590.114
507.997
440.23
387.759
350.134
325.341
310.309
301.84
297.345
295.083
293.978
293.451
293.205
293.092
293.041
293.018
293.008
293.003
293.001
293.001
293
293
293
293
293
293.004
293.018
293.042
293.081
293.147
293.256
293.435
293.726
294.194
294.936
296.093
297.867
300.529
304.433
310.008
317.74
328.125
341.604
358.495
378.944
402.91
430.189
460.471
493.4
528.624
565.83
604.76
645.209
687.02
730.073
774.273
819.536
865.784
912.928
960.868
1009.49
1058.82
1108.83
1159.42
1210.52
1262.02
1313.83
1365.84
1417.94
1470.02
1521.94
1573.58
1624.79
1675.42
1725.32
1774.29
1822.15
1868.67
1913.62
1956.69
1997.57
2035.83
2070.97
2101.33
2127.38
2148.82
2163.38
2168.9
2054.43
1931.42
1803.67
1672.91
1540.69
1408.41
1277.4
1148.95
1024.39
905.054
792.003
686.862
591.955
509.533
441.441
388.649
350.736
325.716
310.526
301.958
297.406
295.112
293.992
293.458
293.208
293.093
293.041
293.018
293.008
293.003
293.001
293.001
293
293
293
293
293
293.004
293.018
293.042
293.081
293.146
293.255
293.433
293.724
294.19
294.93
296.084
297.852
300.506
304.399
309.958
317.67
328.029
341.476
358.332
378.742
402.667
429.905
460.145
493.033
528.216
565.383
604.272
644.68
686.449
729.459
773.615
818.832
865.033
912.129
960.021
1008.6
1057.87
1107.83
1158.37
1209.42
1260.87
1312.63
1364.59
1416.65
1468.69
1520.59
1572.2
1623.4
1674.04
1723.94
1772.95
1820.85
1867.44
1912.48
1955.67
1996.7
2035.17
2070.59
2101.47
2127.9
2149.94
2165.33
2172.02
2060.44
1937.56
1809.88
1679.12
1546.84
1414.44
1283.26
1154.59
1029.76
910.107
796.7
691.125
595.695
512.674
443.932
390.489
351.988
326.499
310.98
302.204
297.532
295.175
294.022
293.472
293.215
293.096
293.043
293.019
293.008
293.003
293.001
293.001
293
293
293
293
293
293.004
293.018
293.041
293.08
293.146
293.254
293.432
293.721
294.185
294.921
296.07
297.83
300.472
304.348
309.884
317.565
327.884
341.285
358.086
378.438
402.302
429.477
459.656
492.483
527.606
564.712
603.541
643.888
685.594
728.539
772.627
817.776
863.905
910.928
958.747
1007.25
1056.44
1106.32
1156.78
1207.75
1259.12
1310.81
1362.7
1414.69
1466.67
1518.51
1570.09
1621.26
1671.88
1721.78
1770.8
1818.75
1865.4
1910.53
1953.85
1995.02
2033.68
2069.33
2100.66
2127.5
2150.09
2166.25
2174.12
2068.29
1945.86
1818.49
1687.9
1555.65
1423.17
1291.8
1162.86
1037.67
917.578
803.665
697.467
601.276
517.374
447.673
393.265
353.887
327.691
311.67
302.578
297.724
295.269
294.067
293.493
293.224
293.1
293.044
293.019
293.008
293.004
293.002
293.001
293
293
293
293
293
293.004
293.018
293.041
293.08
293.145
293.252
293.429
293.716
294.178
294.91
296.051
297.801
300.428
304.281
309.786
317.426
327.694
341.032
357.763
378.037
401.819
428.912
459.009
491.754
526.797
563.823
602.572
642.837
684.46
727.318
771.317
816.372
862.405
909.331
957.05
1005.45
1054.54
1104.3
1154.65
1205.51
1256.78
1308.36
1360.15
1412.05
1463.94
1515.71
1567.22
1618.33
1668.91
1718.8
1767.81
1815.78
1862.47
1907.67
1951.08
1992.39
2031.19
2067.01
2098.53
2125.51
2148.15
2164.14
2171.44
2076.97
1955.97
1829.41
1699.25
1567.17
1434.66
1303.11
1173.84
1048.19
927.534
812.965
705.956
608.767
523.703
452.73
397.034
356.475
329.321
312.616
303.091
297.987
295.398
294.129
293.522
293.237
293.106
293.047
293.021
293.009
293.004
293.002
293.001
293
293
293
293
293
293.004
293.018
293.041
293.079
293.144
293.251
293.426
293.711
294.169
294.895
296.029
297.765
300.373
304.198
309.665
317.255
327.459
340.721
357.364
377.542
401.223
428.214
458.208
490.852
525.795
562.723
601.372
641.536
683.054
725.804
769.69
814.629
860.542
907.344
954.937
1003.21
1052.16
1101.79
1152
1202.72
1253.85
1305.29
1356.96
1408.73
1460.51
1512.17
1563.58
1614.62
1665.13
1714.97
1763.96
1811.92
1858.63
1903.86
1947.33
1988.72
2027.62
2063.54
2095.19
2122.3
2145.1
2161.37
2169.4
2090.03
1969.73
1843.64
1713.74
1581.74
1449.14
1317.34
1187.67
1061.47
940.118
824.731
716.722
618.298
531.788
459.223
401.899
359.836
331.449
313.857
303.765
298.334
295.568
294.21
293.56
293.255
293.114
293.051
293.022
293.01
293.004
293.002
293.001
293
293
293
293
293
293.004
293.018
293.04
293.079
293.143
293.248
293.422
293.705
294.159
294.879
296.002
297.723
300.308
304.101
309.524
317.054
327.183
340.354
356.893
376.958
400.521
427.389
457.262
489.787
524.611
561.42
599.951
639.993
681.386
724.008
767.759
812.559
858.327
904.98
952.422
1000.54
1049.33
1098.78
1148.83
1199.37
1250.33
1301.62
1353.12
1404.74
1456.37
1507.89
1559.18
1610.11
1660.54
1710.31
1759.25
1807.18
1853.89
1899.14
1942.65
1984.08
2023.03
2058.99
2090.51
2117.51
2139.99
2155.61
2162.54
2106.34
1986.67
1861.03
1731.39
1599.45
1466.74
1334.64
1204.51
1077.66
955.482
839.137
729.937
630.042
541.802
467.312
408.004
364.086
334.162
315.45
304.636
298.783
295.789
294.316
293.609
293.278
293.125
293.055
293.024
293.01
293.004
293.002
293.001
293
293
293
293
293
293.004
293.017
293.04
293.078
293.141
293.246
293.418
293.698
294.147
294.86
295.972
297.676
300.235
303.991
309.363
316.825
326.869
339.937
356.358
376.293
399.718
426.448
456.181
488.568
523.256
559.929
598.321
638.224
679.473
721.944
765.54
810.177
855.776
902.255
949.519
997.459
1046.05
1095.31
1145.15
1195.5
1246.26
1297.34
1348.65
1400.08
1451.54
1502.9
1554.04
1604.84
1655.15
1704.83
1753.71
1801.6
1848.31
1893.58
1937.14
1978.65
2017.68
2053.7
2085.18
2112
2133.87
2148.12
2152.23
2124.45
2006.1
1881.26
1752.08
1620.32
1487.54
1355.16
1224.52
1096.95
973.822
856.373
745.821
644.222
553.955
477.196
415.529
369.378
337.572
317.468
305.746
299.358
296.072
294.452
293.673
293.307
293.138
293.061
293.027
293.012
293.005
293.002
293.001
293
293
293
293
293
293.004
293.017
293.04
293.077
293.14
293.243
293.413
293.69
294.134
294.839
295.938
297.623
300.153
303.869
309.184
316.572
326.52
339.474
355.762
375.553
398.826
425.399
454.977
487.209
521.743
558.263
596.501
636.245
677.331
719.632
763.051
807.503
852.911
899.192
946.253
993.986
1042.35
1091.38
1140.99
1191.11
1241.64
1292.49
1343.57
1394.79
1446.04
1497.2
1548.16
1598.8
1648.98
1698.56
1747.36
1795.22
1841.93
1887.26
1930.94
1972.64
2011.95
2048.37
2080.72
2108.31
2131.28
2147.15
2153.73
2146.15
2028.59
1904.5
1775.85
1644.38
1511.62
1378.98
1247.83
1119.48
995.312
876.619
764.555
661.033
568.459
489.095
424.681
375.887
341.815
320.006
307.151
300.091
296.434
294.625
293.754
293.344
293.155
293.069
293.03
293.013
293.006
293.002
293.001
293
293
293
293
293
293.004
293.017
293.039
293.076
293.138
293.24
293.408
293.682
294.12
294.816
295.901
297.565
300.065
303.736
308.99
316.296
326.142
338.97
355.115
374.747
397.854
424.257
453.663
485.726
520.092
556.442
594.51
634.079
674.984
717.098
760.32
804.566
849.759
895.818
942.65
990.151
1038.27
1087.04
1136.39
1186.24
1236.5
1287.09
1337.92
1388.89
1439.89
1490.83
1541.59
1592.04
1642.06
1691.51
1740.23
1788.05
1834.78
1880.19
1924.04
1966.02
2005.77
2042.82
2076.51
2105.51
2130.68
2150.07
2162.29
2165.34
2051.23
1929.3
1802.01
1671.3
1538.83
1406.1
1274.49
1145.36
1020.08
900.02
786.291
680.662
585.528
503.231
435.681
383.814
347.053
323.175
308.923
301.019
296.894
294.846
293.858
293.391
293.176
293.078
293.034
293.015
293.006
293.003
293.001
293
293
293
293
293
293.004
293.017
293.039
293.075
293.136
293.237
293.403
293.672
294.105
294.791
295.862
297.504
299.97
303.594
308.783
316.002
325.737
338.432
354.424
373.887
396.815
423.035
452.258
484.138
518.322
554.491
592.374
631.753
672.462
714.371
757.378
801.399
846.357
892.17
938.751
985.994
1033.84
1082.32
1131.38
1180.93
1230.9
1281.2
1331.73
1382.41
1433.15
1483.83
1534.34
1584.58
1634.42
1683.71
1732.32
1780.08
1826.81
1872.29
1916.31
1958.56
1998.73
2036.39
2071.02
2101.12
2127.06
2148.54
2163.57
2170.6
2076.61
1956.98
1831.2
1701.4
1569.34
1436.6
1304.58
1174.67
1048.24
926.7
811.187
703.297
605.375
519.84
448.768
393.385
353.474
327.115
311.151
302.196
297.479
295.127
293.99
293.452
293.203
293.09
293.039
293.017
293.007
293.003
293.001
293.001
293
293
293
293
293.004
293.017
293.038
293.074
293.134
293.234
293.397
293.663
294.089
294.765
295.821
297.439
299.871
303.445
308.564
315.692
325.312
337.867
353.697
372.983
395.723
421.75
450.78
482.467
516.46
552.436
590.123
629.301
669.801
711.49
754.266
798.045
842.748
888.297
934.603
981.565
1029.11
1077.28
1126.02
1175.25
1224.89
1274.86
1325.07
1375.43
1425.86
1476.25
1526.49
1576.48
1626.09
1675.2
1723.67
1771.33
1818.01
1863.53
1907.64
1950.07
1990.5
2028.53
2063.64
2094.19
2120.31
2141.5
2155.3
2159.29
2105.93
1988.12
1863.68
1734.77
1603.19
1470.5
1338.13
1207.47
1079.87
956.767
839.38
729.113
628.211
539.161
464.202
404.854
361.301
331.994
313.944
303.684
298.225
295.487
294.158
293.53
293.238
293.106
293.046
293.02
293.009
293.004
293.002
293.001
293
293
293
293
293.004
293.016
293.038
293.073
293.132
293.23
293.391
293.652
294.072
294.738
295.777
297.37
299.766
303.288
308.336
315.37
324.87
337.28
352.944
372.046
394.593
420.422
449.253
480.741
514.535
550.312
587.795
626.763
667.043
708.502
751.035
794.557
838.991
884.256
930.269
976.93
1024.16
1071.99
1120.38
1169.26
1218.54
1268.16
1318.01
1368.03
1418.12
1468.18
1518.12
1567.83
1617.18
1666.07
1714.35
1761.88
1808.48
1853.97
1898.12
1940.67
1981.3
2019.6
2055.06
2086.38
2113.07
2134.96
2149.24
2153.17
2138.77
2022.29
1899.1
1771.16
1640.18
1507.67
1375.07
1243.72
1114.99
990.293
870.967
758.254
654.23
561.431
482.247
418.493
370.784
338.011
317.439
305.564
299.177
295.947
294.374
293.628
293.283
293.125
293.055
293.024
293.01
293.004
293.002
293.001
293
293
293
293
293.004
293.016
293.037
293.072
293.13
293.226
293.384
293.642
294.055
294.709
295.731
297.299
299.657
303.126
308.101
315.038
324.416
336.679
352.174
371.092
393.443
419.072
447.701
478.989
512.583
548.157
585.434
624.187
664.243
705.464
747.746
791.002
835.154
880.124
925.828
972.171
1019.06
1066.54
1114.57
1163.07
1211.98
1261.21
1310.69
1360.33
1410.05
1459.76
1509.37
1558.76
1607.83
1656.47
1704.54
1751.9
1798.39
1843.83
1888.02
1930.7
1971.58
2010.29
2046.39
2079.16
2107.53
2132.11
2150.99
2163.04
2166.95
2055.28
1935.19
1809.27
1679.51
1547.6
1415.01
1283.17
1153.43
1027.19
905.891
790.713
683.503
586.793
503.111
434.554
382.179
345.39
321.799
307.94
300.389
296.534
294.65
293.755
293.34
293.15
293.066
293.028
293.012
293.005
293.002
293.001
293
293
293
293
293.004
293.016
293.036
293.07
293.128
293.222
293.378
293.63
294.036
294.679
295.683
297.224
299.544
302.958
307.858
314.697
323.952
336.068
351.395
370.13
392.289
417.723
446.156
477.248
510.646
546.022
583.094
621.635
661.466
702.449
744.477
787.462
831.326
875.993
921.38
967.394
1013.94
1061.05
1108.7
1156.81
1205.32
1254.16
1303.24
1352.49
1401.83
1451.17
1500.42
1549.48
1598.25
1646.61
1694.45
1741.62
1787.98
1833.35
1877.55
1920.33
1961.44
2000.53
2037.19
2070.93
2100.23
2125.92
2146.38
2160.33
2166.22
2090.36
1972.97
1849.09
1720.74
1589.66
1457.36
1325.25
1194.69
1067.06
943.845
826.268
715.921
615.25
526.894
453.21
395.702
354.333
327.179
310.909
301.915
297.275
294.998
293.914
293.411
293.182
293.08
293.034
293.015
293.006
293.003
293.001
293
293
293
293
293.004
293.015
293.035
293.069
293.125
293.218
293.37
293.618
294.015
294.647
295.632
297.146
299.426
302.785
307.611
314.352
323.486
335.458
350.622
369.18
391.156
416.403
444.65
475.558
508.771
543.959
580.837
619.174
658.788
699.54
741.319
784.037
827.616
871.98
917.049
962.733
1008.94
1055.68
1102.94
1150.66
1198.78
1247.21
1295.9
1344.75
1393.7
1442.66
1491.55
1540.27
1588.73
1636.8
1684.39
1731.35
1777.56
1822.84
1867
1909.85
1951.1
1990.46
2027.51
2061.76
2091.79
2117.4
2137.84
2150.4
2151.91
2126.76
2011.82
1889.93
1763.1
1633.05
1501.27
1369.14
1238.02
1109.25
984.268
864.446
751.133
646.59
553.53
474.532
411.525
365.065
333.788
314.625
303.849
298.22
295.443
294.118
293.502
293.222
293.097
293.042
293.018
293.008
293.003
293.001
293.001
293
293
293
293.003
293.015
293.035
293.068
293.122
293.213
293.362
293.604
293.993
294.611
295.576
297.06
299.298
302.598
307.345
313.987
323
334.833
349.843
368.239
390.049
415.132
443.218
473.966
507.019
542.042
578.747
616.899
656.314
696.849
738.393
780.857
824.162
868.235
912.997
958.36
1004.23
1050.61
1097.51
1144.85
1192.58
1240.63
1288.93
1337.41
1385.98
1434.58
1483.12
1531.52
1579.66
1627.46
1674.8
1721.56
1767.6
1812.76
1856.88
1899.74
1941.11
1980.69
2018.12
2052.95
2084.33
2111.48
2134.4
2151.28
2160.69
2160.93
2048.95
1929.45
1804.54
1675.91
1545.04
1413.31
1282.02
1152.5
1026.13
904.356
788.413
680.277
582.657
498.308
429.551
377.553
341.616
319.073
306.172
299.351
295.972
294.359
293.609
293.269
293.117
293.05
293.021
293.009
293.004
293.002
293.001
293
293
293
293.003
293.015
293.034
293.066
293.119
293.208
293.353
293.589
293.969
294.573
295.518
296.972
299.168
302.411
307.084
313.633
322.534
334.24
349.114
367.368
389.036
413.981
441.932
472.548
505.468
540.354
576.913
614.908
654.151
694.496
735.831
778.066
821.124
864.932
909.413
954.484
1000.05
1046.11
1092.67
1139.67
1187.06
1234.76
1282.72
1330.86
1379.1
1427.38
1475.62
1523.72
1571.59
1619.15
1666.27
1712.83
1758.72
1803.77
1847.83
1890.7
1932.15
1971.91
2009.66
2044.98
2077.34
2105.65
2130.48
2150.34
2164.3
2171.32
2081.51
1964.86
1842.27
1715.48
1585.98
1455.14
1324.23
1194.54
1067.39
944.206
826.237
715.135
613.483
524.146
449.757
392.046
351.025
324.589
309.12
300.803
296.655
294.669
293.747
293.329
293.143
293.061
293.026
293.011
293.005
293.002