/*--------------------------------*- C++ -*----------------------------------*\
  =========                 |
  \\      /  F ield         | OpenFOAM: The Open Source CFD Toolbox
   \\    /   O peration     | Website:  https://openfoam.org
    \\  /    A nd           | Version:  8
     \\/     M anipulation  |
\*---------------------------------------------------------------------------*/
FoamFile
{
    version     2.0;
    format      ascii;
    class       volVectorField;
    location    "200/fluid";
    object      U;
}
// * * * * * * * * * * * * * * * * * * * * * * * * * * * * * * * * * * * * * //

dimensions      [0 1 -1 0 0 0 0];

internalField   nonuniform List<vector> 
4000
(
(0.0999543 -0.00670994 0)
(0.0997062 -0.0199743 0)
(0.0993062 -0.0332005 0)
(0.0987539 -0.0464249 0)
(0.0980423 -0.0596202 0)
(0.0971562 -0.0727669 0)
(0.0960787 -0.0858583 0)
(0.0947932 -0.0988838 0)
(0.093286 -0.111824 0)
(0.0915486 -0.124655 0)
(0.0895805 -0.137355 0)
(0.0873915 -0.149905 0)
(0.0850053 -0.16229 0)
(0.0824621 -0.174501 0)
(0.0798248 -0.186513 0)
(0.0771678 -0.19837 0)
(0.0745504 -0.210092 0)
(0.0720091 -0.221676 0)
(0.0695502 -0.233082 0)
(0.0671456 -0.244233 0)
(0.064738 -0.255015 0)
(0.0622529 -0.265287 0)
(0.0596146 -0.274907 0)
(0.0567609 -0.283739 0)
(0.0536569 -0.291659 0)
(0.0502941 -0.298592 0)
(0.0466782 -0.304521 0)
(0.0428226 -0.309447 0)
(0.0387477 -0.313396 0)
(0.0344777 -0.31642 0)
(0.0300389 -0.318583 0)
(0.0254568 -0.319969 0)
(0.0207556 -0.320666 0)
(0.0159567 -0.320772 0)
(0.0110786 -0.320384 0)
(0.00613695 -0.319599 0)
(0.00114533 -0.318508 0)
(-0.00388381 -0.317202 0)
(-0.00894018 -0.315764 0)
(-0.0140176 -0.314273 0)
(-0.0191129 -0.3128 0)
(-0.0242243 -0.311411 0)
(-0.0293515 -0.310161 0)
(-0.0344946 -0.309101 0)
(-0.0396548 -0.308274 0)
(-0.0448335 -0.307715 0)
(-0.0500322 -0.307454 0)
(-0.0552523 -0.307518 0)
(-0.0604948 -0.307926 0)
(-0.0657601 -0.308692 0)
(-0.0710476 -0.309826 0)
(-0.0763555 -0.311336 0)
(-0.0816807 -0.313223 0)
(-0.087018 -0.315483 0)
(-0.0923603 -0.318112 0)
(-0.0976976 -0.321098 0)
(-0.103017 -0.324427 0)
(-0.108302 -0.328082 0)
(-0.113532 -0.332044 0)
(-0.118679 -0.336293 0)
(-0.123707 -0.340805 0)
(-0.128575 -0.345557 0)
(-0.133247 -0.350535 0)
(-0.137677 -0.355755 0)
(-0.141793 -0.361271 0)
(-0.145134 -0.367034 0)
(-0.14747 -0.372578 0)
(-0.146881 -0.37833 0)
(-0.14315 -0.381712 0)
(-0.138801 -0.382572 0)
(-0.134273 -0.381081 0)
(-0.129434 -0.377264 0)
(-0.124216 -0.371049 0)
(-0.118643 -0.362368 0)
(-0.112762 -0.351204 0)
(-0.106626 -0.337613 0)
(-0.100293 -0.321745 0)
(-0.0938533 -0.303851 0)
(-0.0874929 -0.284319 0)
(-0.081523 -0.263722 0)
(-0.076351 -0.242804 0)
(-0.0724381 -0.222536 0)
(-0.0702385 -0.203999 0)
(-0.0699964 -0.187737 0)
(-0.0715496 -0.173621 0)
(-0.0743929 -0.161049 0)
(-0.0779114 -0.149339 0)
(-0.0815838 -0.137992 0)
(-0.0850662 -0.12672 0)
(-0.0881603 -0.115361 0)
(-0.0907987 -0.103963 0)
(-0.0929938 -0.0925715 0)
(-0.0947885 -0.0812229 0)
(-0.0962335 -0.0699566 0)
(-0.0973788 -0.058801 0)
(-0.0982702 -0.0477537 0)
(-0.0989467 -0.0368013 0)
(-0.0994404 -0.0260116 0)
(-0.0997757 -0.0155235 0)
(-0.0999714 -0.00523176 0)
(0.0999997 -0.00634219 0)
(0.099826 -0.0189695 0)
(0.0994676 -0.0315855 0)
(0.0989037 -0.0441749 0)
(0.098135 -0.0566802 0)
(0.0971571 -0.0690633 0)
(0.095962 -0.0813034 0)
(0.094542 -0.0933794 0)
(0.0928941 -0.105266 0)
(0.0910222 -0.116939 0)
(0.0889403 -0.128378 0)
(0.0866746 -0.139574 0)
(0.0842647 -0.150535 0)
(0.0817632 -0.161296 0)
(0.079235 -0.171939 0)
(0.0767424 -0.182477 0)
(0.0743358 -0.192936 0)
(0.072042 -0.203332 0)
(0.0698552 -0.213654 0)
(0.0677343 -0.22385 0)
(0.065609 -0.233827 0)
(0.0633928 -0.243462 0)
(0.0609994 -0.252617 0)
(0.0583575 -0.261165 0)
(0.0554195 -0.269011 0)
(0.0521657 -0.276065 0)
(0.0485992 -0.282243 0)
(0.0447367 -0.287506 0)
(0.0406055 -0.291854 0)
(0.0362383 -0.295318 0)
(0.0316694 -0.297951 0)
(0.0269324 -0.299824 0)
(0.022058 -0.30102 0)
(0.0170733 -0.301627 0)
(0.0120015 -0.301736 0)
(0.00686172 -0.301439 0)
(0.00167015 -0.300823 0)
(-0.0035596 -0.299972 0)
(-0.00881681 -0.298968 0)
(-0.0140947 -0.297889 0)
(-0.0193898 -0.296803 0)
(-0.0247003 -0.295775 0)
(-0.0300261 -0.294859 0)
(-0.0353683 -0.294105 0)
(-0.0407287 -0.293556 0)
(-0.0461097 -0.293246 0)
(-0.0515144 -0.293209 0)
(-0.0569454 -0.293468 0)
(-0.0624055 -0.294046 0)
(-0.0678968 -0.294959 0)
(-0.0734209 -0.296218 0)
(-0.0789783 -0.297832 0)
(-0.0845685 -0.299805 0)
(-0.0901894 -0.302136 0)
(-0.0958373 -0.304822 0)
(-0.101506 -0.307854 0)
(-0.107188 -0.311219 0)
(-0.112873 -0.314899 0)
(-0.118546 -0.318874 0)
(-0.124189 -0.323114 0)
(-0.12977 -0.327587 0)
(-0.135262 -0.332253 0)
(-0.140672 -0.33707 0)
(-0.146052 -0.342016 0)
(-0.151252 -0.347079 0)
(-0.154666 -0.352017 0)
(-0.155884 -0.355959 0)
(-0.154123 -0.358436 0)
(-0.149894 -0.359283 0)
(-0.145203 -0.358371 0)
(-0.140377 -0.355445 0)
(-0.135247 -0.350292 0)
(-0.129721 -0.342758 0)
(-0.123794 -0.332741 0)
(-0.117488 -0.320214 0)
(-0.110828 -0.305245 0)
(-0.103838 -0.288024 0)
(-0.0965965 -0.268912 0)
(-0.0893282 -0.248509 0)
(-0.0824313 -0.227716 0)
(-0.0764446 -0.207731 0)
(-0.0719671 -0.189676 0)
(-0.069478 -0.174097 0)
(-0.0691087 -0.161053 0)
(-0.0705572 -0.150037 0)
(-0.0732502 -0.140283 0)
(-0.0765897 -0.131113 0)
(-0.080109 -0.122097 0)
(-0.0835133 -0.113034 0)
(-0.0866478 -0.103877 0)
(-0.0894306 -0.0944918 0)
(-0.0918381 -0.0848593 0)
(-0.0938771 -0.0750238 0)
(-0.0955691 -0.0650466 0)
(-0.0969432 -0.0549824 0)
(-0.0980302 -0.0448591 0)
(-0.0988574 -0.0346929 0)
(-0.0994454 -0.0245739 0)
(-0.0998119 -0.014671 0)
(-0.0999937 -0.00493813 0)
(0.0999821 -0.0061064 0)
(0.0997583 -0.0182529 0)
(0.0993191 -0.0303842 0)
(0.0986473 -0.0424825 0)
(0.0977455 -0.0544876 0)
(0.0966139 -0.0663605 0)
(0.0952511 -0.0780821 0)
(0.0936582 -0.0896357 0)
(0.091842 -0.101003 0)
(0.0898175 -0.11217 0)
(0.0876093 -0.123125 0)
(0.0852542 -0.133866 0)
(0.082801 -0.144401 0)
(0.0803081 -0.154746 0)
(0.0778345 -0.164928 0)
(0.0754357 -0.174983 0)
(0.0731586 -0.184948 0)
(0.0710275 -0.194846 0)
(0.0690335 -0.204671 0)
(0.0671308 -0.214378 0)
(0.0652433 -0.223883 0)
(0.0632778 -0.233072 0)
(0.0611411 -0.241816 0)
(0.0587537 -0.249989 0)
(0.0560561 -0.257482 0)
(0.0530122 -0.264212 0)
(0.0496115 -0.270125 0)
(0.0458655 -0.275199 0)
(0.0418003 -0.279434 0)
(0.0374499 -0.282859 0)
(0.0328515 -0.285519 0)
(0.0280423 -0.287475 0)
(0.023057 -0.2888 0)
(0.0179268 -0.289572 0)
(0.012679 -0.289874 0)
(0.00733681 -0.28979 0)
(0.00191969 -0.289399 0)
(-0.00355561 -0.28878 0)
(-0.00907569 -0.288008 0)
(-0.0146317 -0.287156 0)
(-0.0202181 -0.28629 0)
(-0.025832 -0.285469 0)
(-0.0314724 -0.284748 0)
(-0.0371396 -0.284172 0)
(-0.0428354 -0.283783 0)
(-0.0485625 -0.283617 0)
(-0.054324 -0.283702 0)
(-0.0601236 -0.284064 0)
(-0.0659651 -0.284723 0)
(-0.0718521 -0.285696 0)
(-0.077788 -0.286995 0)
(-0.0837755 -0.288627 0)
(-0.089817 -0.290595 0)
(-0.0959138 -0.292898 0)
(-0.102066 -0.29553 0)
(-0.108273 -0.29848 0)
(-0.114532 -0.301731 0)
(-0.12084 -0.305259 0)
(-0.127189 -0.309033 0)
(-0.133567 -0.313012 0)
(-0.139944 -0.317144 0)
(-0.146307 -0.321365 0)
(-0.152698 -0.325598 0)
(-0.159258 -0.329747 0)
(-0.165753 -0.333666 0)
(-0.168929 -0.337107 0)
(-0.16817 -0.340061 0)
(-0.164706 -0.341149 0)
(-0.159837 -0.340646 0)
(-0.15454 -0.338495 0)
(-0.148918 -0.334453 0)
(-0.142881 -0.328307 0)
(-0.136392 -0.319922 0)
(-0.129451 -0.309245 0)
(-0.122074 -0.296312 0)
(-0.11428 -0.281275 0)
(-0.106104 -0.26442 0)
(-0.0976808 -0.246201 0)
(-0.0893329 -0.227271 0)
(-0.0815693 -0.208464 0)
(-0.0750331 -0.190698 0)
(-0.0703623 -0.174792 0)
(-0.0679423 -0.161209 0)
(-0.0677196 -0.149856 0)
(-0.0692511 -0.140171 0)
(-0.0719274 -0.131447 0)
(-0.0751858 -0.123106 0)
(-0.0786122 -0.114794 0)
(-0.0819554 -0.106341 0)
(-0.0850883 -0.0976876 0)
(-0.0879481 -0.088835 0)
(-0.0904989 -0.0797983 0)
(-0.0927261 -0.0706014 0)
(-0.0946303 -0.0612773 0)
(-0.0962214 -0.0518581 0)
(-0.0975145 -0.042358 0)
(-0.0985246 -0.0327881 0)
(-0.0992624 -0.023238 0)
(-0.0997368 -0.0138788 0)
(-0.0999811 -0.00467445 0)
(0.0999857 -0.00580445 0)
(0.0997545 -0.0173499 0)
(0.0992933 -0.0288739 0)
(0.0985842 -0.040353 0)
(0.0976336 -0.0517238 0)
(0.0964468 -0.0629444 0)
(0.0950273 -0.0739936 0)
(0.0933814 -0.0848539 0)
(0.0915204 -0.0955078 0)
(0.0894625 -0.105941 0)
(0.0872343 -0.116146 0)
(0.0848726 -0.126125 0)
(0.0824248 -0.13589 0)
(0.0799477 -0.145467 0)
(0.0775037 -0.154895 0)
(0.0751529 -0.164219 0)
(0.0729425 -0.173482 0)
(0.0708939 -0.182712 0)
(0.0689935 -0.191909 0)
(0.0671902 -0.201035 0)
(0.0654019 -0.210013 0)
(0.06353 -0.218736 0)
(0.0614764 -0.227082 0)
(0.0591575 -0.234931 0)
(0.0565134 -0.242177 0)
(0.0535099 -0.248735 0)
(0.0501368 -0.254549 0)
(0.0464028 -0.259589 0)
(0.0423303 -0.263854 0)
(0.0379498 -0.267364 0)
(0.0332958 -0.270159 0)
(0.0284035 -0.272293 0)
(0.0233068 -0.273832 0)
(0.0180367 -0.274847 0)
(0.0126208 -0.275414 0)
(0.00708324 -0.275608 0)
(0.00144489 -0.275504 0)
(-0.00427623 -0.275175 0)
(-0.0100655 -0.27469 0)
(-0.0159127 -0.274118 0)
(-0.021811 -0.273521 0)
(-0.0277563 -0.272955 0)
(-0.0337467 -0.272469 0)
(-0.0397817 -0.272109 0)
(-0.0458627 -0.271913 0)
(-0.0519919 -0.271915 0)
(-0.0581726 -0.272143 0)
(-0.0644085 -0.272621 0)
(-0.0707038 -0.273369 0)
(-0.0770627 -0.274401 0)
(-0.0834894 -0.275729 0)
(-0.0899878 -0.277358 0)
(-0.0965609 -0.279291 0)
(-0.103211 -0.281523 0)
(-0.10994 -0.284046 0)
(-0.116747 -0.286844 0)
(-0.123629 -0.289896 0)
(-0.130579 -0.29317 0)
(-0.137587 -0.296626 0)
(-0.144624 -0.300213 0)
(-0.151648 -0.303858 0)
(-0.158604 -0.30748 0)
(-0.165467 -0.310982 0)
(-0.172252 -0.314227 0)
(-0.178754 -0.316977 0)
(-0.18312 -0.318833 0)
(-0.182423 -0.320155 0)
(-0.176981 -0.320006 0)
(-0.170648 -0.318321 0)
(-0.164165 -0.31499 0)
(-0.157351 -0.309836 0)
(-0.150088 -0.302708 0)
(-0.142365 -0.293522 0)
(-0.134201 -0.282269 0)
(-0.125626 -0.269034 0)
(-0.116679 -0.254014 0)
(-0.107445 -0.237536 0)
(-0.0981474 -0.22009 0)
(-0.0892061 -0.202348 0)
(-0.0811912 -0.185124 0)
(-0.0747314 -0.169268 0)
(-0.0703509 -0.155449 0)
(-0.0682672 -0.143911 0)
(-0.0682881 -0.134377 0)
(-0.069913 -0.126228 0)
(-0.0725521 -0.11881 0)
(-0.0756954 -0.111638 0)
(-0.0789807 -0.104428 0)
(-0.0821878 -0.0970415 0)
(-0.085198 -0.0894254 0)
(-0.087953 -0.0815663 0)
(-0.0904269 -0.0734735 0)
(-0.09261 -0.0651715 0)
(-0.0945011 -0.0566946 0)
(-0.0961036 -0.0480773 0)
(-0.0974239 -0.039337 0)
(-0.0984673 -0.0304894 0)
(-0.0992352 -0.0216274 0)
(-0.0997297 -0.0129243 0)
(-0.0999829 -0.00435575 0)
(0.099983 -0.00549636 0)
(0.0997353 -0.0164276 0)
(0.0992453 -0.0273369 0)
(0.0984956 -0.0382004 0)
(0.0974948 -0.0489554 0)
(0.0962503 -0.0595609 0)
(0.0947687 -0.0699966 0)
(0.0930592 -0.0802466 0)
(0.0911363 -0.0902956 0)
(0.0890215 -0.100132 0)
(0.0867448 -0.109751 0)
(0.0843465 -0.119155 0)
(0.0818771 -0.128358 0)
(0.0793962 -0.137384 0)
(0.0769676 -0.14627 0)
(0.0746516 -0.155056 0)
(0.0724936 -0.163783 0)
(0.0705122 -0.172479 0)
(0.06869 -0.181143 0)
(0.0669714 -0.18974 0)
(0.0652702 -0.198201 0)
(0.0634834 -0.20643 0)
(0.0615084 -0.214314 0)
(0.0592579 -0.221745 0)
(0.0566684 -0.228623 0)
(0.0537029 -0.234871 0)
(0.0503487 -0.240437 0)
(0.0466129 -0.245293 0)
(0.042516 -0.249437 0)
(0.0380872 -0.252885 0)
(0.0333602 -0.255674 0)
(0.0283692 -0.257852 0)
(0.0231477 -0.259478 0)
(0.0177264 -0.260618 0)
(0.0121331 -0.261338 0)
(0.00639217 -0.261709 0)
(0.000525321 -0.261799 0)
(-0.00544883 -0.261673 0)
(-0.0115152 -0.261398 0)
(-0.0176629 -0.261036 0)
(-0.0238842 -0.260643 0)
(-0.0301743 -0.260271 0)
(-0.0365303 -0.259968 0)
(-0.0429513 -0.259774 0)
(-0.0494379 -0.259724 0)
(-0.0559919 -0.25985 0)
(-0.0626162 -0.260179 0)
(-0.0693142 -0.260732 0)
(-0.0760899 -0.261527 0)
(-0.0829473 -0.262576 0)
(-0.0898905 -0.26389 0)
(-0.0969232 -0.265471 0)
(-0.104048 -0.267321 0)
(-0.111268 -0.269431 0)
(-0.118582 -0.271793 0)
(-0.125989 -0.274386 0)
(-0.133484 -0.277185 0)
(-0.141057 -0.280158 0)
(-0.148689 -0.283259 0)
(-0.156339 -0.286433 0)
(-0.163949 -0.289607 0)
(-0.171473 -0.292706 0)
(-0.178861 -0.295673 0)
(-0.185973 -0.298483 0)
(-0.192171 -0.300949 0)
(-0.195794 -0.302066 0)
(-0.194065 -0.301431 0)
(-0.187546 -0.299647 0)
(-0.180132 -0.296661 0)
(-0.172539 -0.292231 0)
(-0.164575 -0.28616 0)
(-0.156142 -0.278331 0)
(-0.147245 -0.268697 0)
(-0.13793 -0.257285 0)
(-0.128248 -0.244217 0)
(-0.118264 -0.22972 0)
(-0.108117 -0.214146 0)
(-0.098114 -0.198 0)
(-0.0887372 -0.18193 0)
(-0.0805837 -0.166671 0)
(-0.0742503 -0.152915 0)
(-0.0701613 -0.141117 0)
(-0.0683925 -0.131312 0)
(-0.0686339 -0.123123 0)
(-0.070341 -0.115969 0)
(-0.0729455 -0.109315 0)
(-0.075987 -0.102791 0)
(-0.0791511 -0.0961876 0)
(-0.0822491 -0.0894077 0)
(-0.0851762 -0.0824142 0)
(-0.0878765 -0.0751991 0)
(-0.0903207 -0.0677701 0)
(-0.0924942 -0.0601455 0)
(-0.0943909 -0.052353 0)
(-0.0960094 -0.044421 0)
(-0.0973515 -0.036363 0)
(-0.0984183 -0.0281926 0)
(-0.0992075 -0.0199995 0)
(-0.0997181 -0.0119516 0)
(-0.0999812 -0.00402917 0)
(0.0999832 -0.00517059 0)
(0.0997291 -0.015454 0)
(0.0992255 -0.0257159 0)
(0.0984549 -0.0359313 0)
(0.0974274 -0.0460388 0)
(0.0961524 -0.0559977 0)
(0.0946384 -0.065788 0)
(0.0928964 -0.0753943 0)
(0.0909429 -0.0848022 0)
(0.0888011 -0.094001 0)
(0.0865027 -0.102987 0)
(0.084089 -0.111765 0)
(0.0816114 -0.12035 0)
(0.0791298 -0.128767 0)
(0.0767083 -0.137054 0)
(0.0744068 -0.145253 0)
(0.0722696 -0.153406 0)
(0.0703139 -0.161541 0)
(0.0685201 -0.16966 0)
(0.0668305 -0.177732 0)
(0.0651566 -0.185692 0)
(0.0633933 -0.193449 0)
(0.0614364 -0.200899 0)
(0.0591966 -0.207937 0)
(0.056609 -0.214472 0)
(0.0536349 -0.220431 0)
(0.0502599 -0.225763 0)
(0.0464891 -0.230442 0)
(0.0423412 -0.234464 0)
(0.0378438 -0.237844 0)
(0.0330287 -0.240614 0)
(0.027929 -0.242818 0)
(0.022577 -0.24451 0)
(0.0170027 -0.245748 0)
(0.0112333 -0.246595 0)
(0.00529304 -0.247114 0)
(-0.000796279 -0.247368 0)
(-0.00701575 -0.247417 0)
(-0.0133504 -0.247321 0)
(-0.0197889 -0.247139 0)
(-0.0263234 -0.246922 0)
(-0.0329484 -0.246719 0)
(-0.0396604 -0.24657 0)
(-0.0464578 -0.246516 0)
(-0.0533408 -0.246587 0)
(-0.0603104 -0.246813 0)
(-0.0673689 -0.247217 0)
(-0.074519 -0.247819 0)
(-0.081764 -0.248634 0)
(-0.0891072 -0.249673 0)
(-0.0965516 -0.250944 0)
(-0.1041 -0.252449 0)
(-0.111754 -0.254185 0)
(-0.119515 -0.256143 0)
(-0.127379 -0.25831 0)
(-0.135344 -0.260665 0)
(-0.1434 -0.263178 0)
(-0.151536 -0.265812 0)
(-0.159724 -0.268518 0)
(-0.167917 -0.271232 0)
(-0.176064 -0.273879 0)
(-0.184195 -0.276386 0)
(-0.192382 -0.278681 0)
(-0.200355 -0.280721 0)
(-0.205484 -0.282337 0)
(-0.206041 -0.282983 0)
(-0.201832 -0.281348 0)
(-0.194826 -0.278521 0)
(-0.187007 -0.27461 0)
(-0.178702 -0.269401 0)
(-0.169861 -0.262716 0)
(-0.160478 -0.25447 0)
(-0.150614 -0.244648 0)
(-0.140345 -0.233309 0)
(-0.129752 -0.220599 0)
(-0.118941 -0.206758 0)
(-0.108118 -0.192146 0)
(-0.0976651 -0.177258 0)
(-0.0881163 -0.1627 0)
(-0.0800733 -0.149128 0)
(-0.0740777 -0.137108 0)
(-0.0704345 -0.126943 0)
(-0.0690759 -0.118547 0)
(-0.0695906 -0.111503 0)
(-0.0714089 -0.105274 0)
(-0.0739922 -0.0994047 0)
(-0.076929 -0.0935943 0)
(-0.0799491 -0.0876783 0)
(-0.0828942 -0.0815806 0)
(-0.0856773 -0.0752719 0)
(-0.0882513 -0.068746 0)
(-0.0905908 -0.0620091 0)
(-0.0926815 -0.0550777 0)
(-0.0945153 -0.0479773 0)
(-0.0960885 -0.0407342 0)
(-0.0973991 -0.0333613 0)
(-0.0984451 -0.0258721 0)
(-0.0992208 -0.0183534 0)
(-0.0997231 -0.0109672 0)
(-0.0999819 -0.00369821 0)
(0.0999825 -0.0048383 0)
(0.0997221 -0.0144608 0)
(0.0992065 -0.0240632 0)
(0.0984182 -0.0336214 0)
(0.0973682 -0.0430762 0)
(0.0960669 -0.0523886 0)
(0.0945238 -0.0615395 0)
(0.0927515 -0.0705144 0)
(0.0907677 -0.0793003 0)
(0.0885972 -0.0878878 0)
(0.0862731 -0.0962743 0)
(0.083838 -0.104465 0)
(0.0813449 -0.112475 0)
(0.0788547 -0.120329 0)
(0.0764322 -0.128062 0)
(0.0741371 -0.135717 0)
(0.0720129 -0.143331 0)
(0.070075 -0.150931 0)
(0.0683013 -0.15852 0)
(0.0666312 -0.166069 0)
(0.0649735 -0.173518 0)
(0.0632205 -0.180784 0)
(0.0612663 -0.187771 0)
(0.0590202 -0.194382 0)
(0.0564161 -0.200533 0)
(0.0534143 -0.206157 0)
(0.0499993 -0.211206 0)
(0.0461751 -0.215657 0)
(0.0419593 -0.219504 0)
(0.0373784 -0.222762 0)
(0.032463 -0.225459 0)
(0.0272454 -0.227634 0)
(0.0217567 -0.229336 0)
(0.0160264 -0.230618 0)
(0.0100811 -0.231538 0)
(0.00394464 -0.232153 0)
(-0.00236099 -0.23252 0)
(-0.00881686 -0.232694 0)
(-0.0154083 -0.232732 0)
(-0.0221241 -0.232685 0)
(-0.028956 -0.232602 0)
(-0.0358983 -0.232525 0)
(-0.0429469 -0.232493 0)
(-0.0500998 -0.232541 0)
(-0.0573563 -0.232698 0)
(-0.0647168 -0.23299 0)
(-0.0721829 -0.233437 0)
(-0.0797561 -0.234057 0)
(-0.0874389 -0.234863 0)
(-0.095233 -0.235865 0)
(-0.10314 -0.237066 0)
(-0.111161 -0.238467 0)
(-0.119296 -0.240065 0)
(-0.12754 -0.241848 0)
(-0.13589 -0.243802 0)
(-0.144334 -0.245903 0)
(-0.152859 -0.248122 0)
(-0.161437 -0.250419 0)
(-0.170029 -0.252744 0)
(-0.17856 -0.255031 0)
(-0.186971 -0.257207 0)
(-0.195205 -0.259184 0)
(-0.203297 -0.260836 0)
(-0.211092 -0.261947 0)
(-0.216576 -0.262219 0)
(-0.216007 -0.261899 0)
(-0.209348 -0.259964 0)
(-0.201243 -0.256804 0)
(-0.192676 -0.252491 0)
(-0.183563 -0.246917 0)
(-0.17385 -0.239984 0)
(-0.163598 -0.231654 0)
(-0.15289 -0.221947 0)
(-0.141821 -0.210951 0)
(-0.130491 -0.198829 0)
(-0.119042 -0.185834 0)
(-0.107743 -0.172327 0)
(-0.0970354 -0.158785 0)
(-0.0874806 -0.145767 0)
(-0.0796638 -0.13384 0)
(-0.0740549 -0.123444 0)
(-0.0708396 -0.114738 0)
(-0.0698304 -0.107539 0)
(-0.0705514 -0.101417 0)
(-0.0724331 -0.095901 0)
(-0.0749747 -0.090623 0)
(-0.0778094 -0.0853516 0)
(-0.0807023 -0.0799651 0)
(-0.0835172 -0.0744081 0)
(-0.0861787 -0.0686595 0)
(-0.0886447 -0.0627143 0)
(-0.0908914 -0.0565775 0)
(-0.0929045 -0.0502624 0)
(-0.094675 -0.0437909 0)
(-0.0961976 -0.0371859 0)
(-0.0974691 -0.030458 0)
(-0.0984856 -0.0236191 0)
(-0.0992405 -0.0167511 0)
(-0.0997297 -0.0100074 0)
(-0.0999821 -0.0033749 0)
(0.0999824 -0.00449899 0)
(0.099718 -0.0134469 0)
(0.0991944 -0.0223765 0)
(0.0983938 -0.0312645 0)
(0.0973279 -0.0400546 0)
(0.0960078 -0.0487095 0)
(0.0944438 -0.057211 0)
(0.0926494 -0.0655457 0)
(0.0906431 -0.0737012 0)
(0.0884508 -0.0816694 0)
(0.0861064 -0.089448 0)
(0.0836537 -0.0970429 0)
(0.0811461 -0.104469 0)
(0.0786455 -0.11175 0)
(0.0762166 -0.118922 0)
(0.0739191 -0.126023 0)
(0.0717957 -0.133091 0)
(0.0698603 -0.140152 0)
(0.0680889 -0.147209 0)
(0.0664188 -0.154234 0)
(0.0647566 -0.161173 0)
(0.0629932 -0.167947 0)
(0.0610211 -0.174469 0)
(0.058749 -0.18065 0)
(0.0561099 -0.18641 0)
(0.0530635 -0.191689 0)
(0.0495935 -0.196441 0)
(0.045703 -0.200646 0)
(0.0414089 -0.204297 0)
(0.0367365 -0.207408 0)
(0.0317157 -0.210003 0)
(0.0263776 -0.212119 0)
(0.0207528 -0.213799 0)
(0.0148698 -0.215093 0)
(0.00875477 -0.216051 0)
(0.00243144 -0.216727 0)
(-0.00407831 -0.217171 0)
(-0.0107558 -0.217436 0)
(-0.0175865 -0.217572 0)
(-0.0245595 -0.217627 0)
(-0.0316664 -0.217644 0)
(-0.0389009 -0.217662 0)
(-0.0462587 -0.217716 0)
(-0.0537371 -0.217837 0)
(-0.0613349 -0.218051 0)
(-0.0690515 -0.218382 0)
(-0.0768875 -0.218847 0)
(-0.0848435 -0.219461 0)
(-0.0929204 -0.220237 0)
(-0.101119 -0.22118 0)
(-0.109438 -0.222294 0)
(-0.117877 -0.223578 0)
(-0.126433 -0.225027 0)
(-0.135101 -0.226629 0)
(-0.14387 -0.228368 0)
(-0.152728 -0.230223 0)
(-0.161654 -0.232165 0)
(-0.170618 -0.234157 0)
(-0.179558 -0.236154 0)
(-0.188395 -0.238099 0)
(-0.197045 -0.239931 0)
(-0.205422 -0.241595 0)
(-0.213376 -0.243023 0)
(-0.220471 -0.243995 0)
(-0.224895 -0.243661 0)
(-0.223041 -0.242073 0)
(-0.215301 -0.239409 0)
(-0.206315 -0.235774 0)
(-0.196968 -0.231086 0)
(-0.187093 -0.225259 0)
(-0.176629 -0.218229 0)
(-0.165643 -0.209981 0)
(-0.154237 -0.200551 0)
(-0.14252 -0.190039 0)
(-0.13061 -0.178615 0)
(-0.118687 -0.166531 0)
(-0.107081 -0.15414 0)
(-0.0962766 -0.141892 0)
(-0.086848 -0.13029 0)
(-0.0793514 -0.119819 0)
(-0.0741772 -0.110809 0)
(-0.0713967 -0.103317 0)
(-0.0707227 -0.0971038 0)
(-0.0716336 -0.0917584 0)
(-0.0735703 -0.0868724 0)
(-0.0760692 -0.0821442 0)
(-0.0788034 -0.0773919 0)
(-0.0815695 -0.072522 0)
(-0.0842511 -0.0674927 0)
(-0.086784 -0.0622878 0)
(-0.0891319 -0.0569034 0)
(-0.0912737 -0.0513435 0)
(-0.0931957 -0.0456196 0)
(-0.0948892 -0.0397512 0)
(-0.096348 -0.0337588 0)
(-0.097568 -0.0276514 0)
(-0.0985446 -0.0214399 0)
(-0.0992702 -0.0152009 0)
(-0.0997403 -0.0090785 0)
(-0.0999828 -0.00306173 0)
(0.0999821 -0.00415519 0)
(0.0997142 -0.0124195 0)
(0.0991838 -0.0206675 0)
(0.0983728 -0.0288771 0)
(0.0972933 -0.0369954 0)
(0.0959568 -0.0449873 0)
(0.0943743 -0.0528359 0)
(0.0925597 -0.0605285 0)
(0.0905325 -0.068054 0)
(0.088319 -0.0754049 0)
(0.0859542 -0.0825796 0)
(0.0834826 -0.0895841 0)
(0.0809586 -0.0964326 0)
(0.0784445 -0.103149 0)
(0.0760056 -0.109765 0)
(0.0737014 -0.116318 0)
(0.0715739 -0.122844 0)
(0.0696354 -0.129367 0)
(0.06786 -0.135888 0)
(0.0661829 -0.142385 0)
(0.0645085 -0.148805 0)
(0.062726 -0.155077 0)
(0.060727 -0.161121 0)
(0.0584193 -0.166854 0)
(0.0557357 -0.172205 0)
(0.0526355 -0.177116 0)
(0.0491022 -0.181549 0)
(0.0451383 -0.185482 0)
(0.0407602 -0.18891 0)
(0.0359925 -0.191844 0)
(0.0308644 -0.194307 0)
(0.0254065 -0.196332 0)
(0.0196485 -0.197958 0)
(0.0136185 -0.19923 0)
(0.00734216 -0.200193 0)
(0.000843329 -0.200896 0)
(-0.00585634 -0.201385 0)
(-0.0127386 -0.201708 0)
(-0.0197892 -0.20191 0)
(-0.0269972 -0.202035 0)
(-0.0343541 -0.202122 0)
(-0.0418532 -0.202206 0)
(-0.0494899 -0.202317 0)
(-0.0572609 -0.202485 0)
(-0.0651642 -0.202731 0)
(-0.0731986 -0.203077 0)
(-0.0813635 -0.203539 0)
(-0.0896584 -0.204129 0)
(-0.0980828 -0.204856 0)
(-0.106636 -0.205726 0)
(-0.115315 -0.206741 0)
(-0.124118 -0.207898 0)
(-0.133038 -0.209191 0)
(-0.142069 -0.210607 0)
(-0.151198 -0.21213 0)
(-0.160409 -0.213737 0)
(-0.169681 -0.215399 0)
(-0.178978 -0.217079 0)
(-0.188234 -0.218732 0)
(-0.197367 -0.220306 0)
(-0.206348 -0.221753 0)
(-0.215198 -0.22305 0)
(-0.223652 -0.224218 0)
(-0.229451 -0.225088 0)
(-0.23088 -0.224716 0)
(-0.226716 -0.222378 0)
(-0.218607 -0.219125 0)
(-0.209388 -0.215127 0)
(-0.199617 -0.210243 0)
(-0.189229 -0.204358 0)
(-0.178227 -0.19742 0)
(-0.166705 -0.189427 0)
(-0.154785 -0.180427 0)
(-0.142589 -0.170525 0)
(-0.130259 -0.159893 0)
(-0.11802 -0.148779 0)
(-0.106252 -0.13752 0)
(-0.0954749 -0.126533 0)
(-0.0862619 -0.116268 0)
(-0.079131 -0.107126 0)
(-0.0743897 -0.0993429 0)
(-0.0720069 -0.0928953 0)
(-0.0716177 -0.0875156 0)
(-0.0726769 -0.0828239 0)
(-0.0746447 -0.0784735 0)
(-0.0770945 -0.0742218 0)
(-0.0797342 -0.0699276 0)
(-0.0823856 -0.0655202 0)
(-0.084948 -0.0609686 0)
(-0.0873656 -0.0562606 0)
(-0.0896064 -0.0513929 0)
(-0.0916512 -0.0463686 0)
(-0.0934876 -0.0411973 0)
(-0.0951067 -0.0358961 0)
(-0.0965026 -0.030483 0)
(-0.0976708 -0.0249654 0)
(-0.0986062 -0.0193526 0)
(-0.0993011 -0.0137157 0)
(-0.0997512 -0.00818854 0)
(-0.0999834 -0.00276145 0)
(0.0999819 -0.00380728 0)
(0.0997112 -0.0113798 0)
(0.0991751 -0.0189379 0)
(0.0983554 -0.026461 0)
(0.0972643 -0.0338999 0)
(0.0959138 -0.0412219 0)
(0.0943152 -0.0484112 0)
(0.0924829 -0.0554562 0)
(0.0904368 -0.0623468 0)
(0.088204 -0.0690761 0)
(0.08582 -0.0756431 0)
(0.08333 -0.0820536 0)
(0.0807891 -0.0883212 0)
(0.0782602 -0.0944683 0)
(0.0758089 -0.100525 0)
(0.0734944 -0.106527 0)
(0.0713582 -0.112506 0)
(0.0694111 -0.118486 0)
(0.0676256 -0.124467 0)
(0.0659346 -0.130429 0)
(0.0642409 -0.136324 0)
(0.0624323 -0.142086 0)
(0.0603995 -0.147643 0)
(0.0580498 -0.152918 0)
(0.0553159 -0.157848 0)
(0.052157 -0.162379 0)
(0.0485564 -0.166476 0)
(0.0445165 -0.170119 0)
(0.0400532 -0.173304 0)
(0.0351907 -0.176041 0)
(0.0299577 -0.17835 0)
(0.0243842 -0.18026 0)
(0.0184996 -0.181807 0)
(0.0123314 -0.183031 0)
(0.00590503 -0.183973 0)
(-0.000755644 -0.184677 0)
(-0.00762902 -0.185185 0)
(-0.0146973 -0.18554 0)
(-0.0219466 -0.185783 0)
(-0.0293659 -0.185953 0)
(-0.0369463 -0.186085 0)
(-0.0446811 -0.18621 0)
(-0.0525651 -0.186357 0)
(-0.0605944 -0.186549 0)
(-0.0687665 -0.186809 0)
(-0.0770791 -0.187152 0)
(-0.0855306 -0.187594 0)
(-0.0941194 -0.188145 0)
(-0.102843 -0.188812 0)
(-0.1117 -0.189599 0)
(-0.120684 -0.190508 0)
(-0.129792 -0.191533 0)
(-0.139014 -0.192668 0)
(-0.14834 -0.193899 0)
(-0.157754 -0.195209 0)
(-0.167235 -0.196573 0)
(-0.176756 -0.19796 0)
(-0.186274 -0.199331 0)
(-0.195714 -0.200637 0)
(-0.204996 -0.201824 0)
(-0.214142 -0.20284 0)
(-0.223281 -0.203631 0)
(-0.232053 -0.20414 0)
(-0.236899 -0.204251 0)
(-0.235748 -0.203665 0)
(-0.229462 -0.201428 0)
(-0.22093 -0.198272 0)
(-0.211513 -0.194363 0)
(-0.201391 -0.189615 0)
(-0.190567 -0.183946 0)
(-0.179118 -0.177328 0)
(-0.167163 -0.169777 0)
(-0.154834 -0.161355 0)
(-0.142269 -0.152176 0)
(-0.129628 -0.14241 0)
(-0.117181 -0.132299 0)
(-0.105353 -0.122162 0)
(-0.0946814 -0.112379 0)
(-0.0857347 -0.103347 0)
(-0.0789854 -0.0953934 0)
(-0.07466 -0.0886778 0)
(-0.0726378 -0.0831224 0)
(-0.0724951 -0.0784541 0)
(-0.0736757 -0.0743317 0)
(-0.0756629 -0.070464 0)
(-0.0780634 -0.0666553 0)
(-0.0806152 -0.0627951 0)
(-0.0831615 -0.0588294 0)
(-0.0856144 -0.0547347 0)
(-0.0879253 -0.0505014 0)
(-0.090066 -0.046127 0)
(-0.0920195 -0.0416134 0)
(-0.0937741 -0.0369692 0)
(-0.0953216 -0.0322092 0)
(-0.0966562 -0.0273491 0)
(-0.0977734 -0.0223952 0)
(-0.098668 -0.0173554 0)
(-0.0993324 -0.0122952 0)
(-0.0997624 -0.00733769 0)
(-0.0999841 -0.00247424 0)
(0.0999818 -0.00345595 0)
(0.0997085 -0.0103299 0)
(0.0991673 -0.017191 0)
(0.0983397 -0.0240207 0)
(0.0972381 -0.0307737 0)
(0.0958748 -0.0374199 0)
(0.0942613 -0.0439446 0)
(0.0924124 -0.0503375 0)
(0.0903485 -0.0565893 0)
(0.0880972 -0.0626939 0)
(0.0856944 -0.0686507 0)
(0.0831862 -0.074465 0)
(0.0806281 -0.0801499 0)
(0.0780835 -0.0857261 0)
(0.0756184 -0.0912217 0)
(0.0732919 -0.0966689 0)
(0.0711447 -0.102098 0)
(0.0691865 -0.107529 0)
(0.0673879 -0.112965 0)
(0.06568 -0.118385 0)
(0.0639639 -0.123747 0)
(0.0621262 -0.12899 0)
(0.0600566 -0.134049 0)
(0.0576625 -0.138855 0)
(0.0548763 -0.14335 0)
(0.0516574 -0.147487 0)
(0.0479891 -0.151233 0)
(0.0438738 -0.15457 0)
(0.0393272 -0.157495 0)
(0.0343733 -0.160015 0)
(0.0290403 -0.16215 0)
(0.023358 -0.163925 0)
(0.0173553 -0.165372 0)
(0.0110594 -0.166526 0)
(0.00449557 -0.167426 0)
(-0.00231214 -0.168109 0)
(-0.00934223 -0.168613 0)
(-0.0165774 -0.168979 0)
(-0.0240038 -0.169241 0)
(-0.0316105 -0.169435 0)
(-0.0393883 -0.169592 0)
(-0.0473301 -0.169741 0)
(-0.0554305 -0.169905 0)
(-0.0636849 -0.170106 0)
(-0.0720901 -0.170363 0)
(-0.080643 -0.17069 0)
(-0.0893409 -0.171101 0)
(-0.0981808 -0.171603 0)
(-0.107159 -0.172204 0)
(-0.116272 -0.172905 0)
(-0.125512 -0.173707 0)
(-0.134871 -0.174605 0)
(-0.144339 -0.175591 0)
(-0.153899 -0.176654 0)
(-0.163532 -0.177775 0)
(-0.173208 -0.178933 0)
(-0.182891 -0.180098 0)
(-0.192525 -0.181233 0)
(-0.202018 -0.182289 0)
(-0.21129 -0.183208 0)
(-0.220303 -0.183924 0)
(-0.229145 -0.18433 0)
(-0.237581 -0.18427 0)
(-0.242469 -0.183639 0)
(-0.240477 -0.1826 0)
(-0.232707 -0.180578 0)
(-0.223377 -0.177705 0)
(-0.21345 -0.174042 0)
(-0.202851 -0.16956 0)
(-0.191556 -0.164228 0)
(-0.179666 -0.158043 0)
(-0.16731 -0.151037 0)
(-0.154623 -0.143282 0)
(-0.141749 -0.134892 0)
(-0.128869 -0.126033 0)
(-0.116287 -0.116936 0)
(-0.10446 -0.107899 0)
(-0.0939409 -0.0992642 0)
(-0.08528 -0.091374 0)
(-0.0789023 -0.0844931 0)
(-0.0749579 -0.0787184 0)
(-0.07325 -0.0739385 0)
(-0.0733121 -0.0698891 0)
(-0.0745874 -0.0662707 0)
(-0.0765828 -0.0628411 0)
(-0.0789349 -0.0594435 0)
(-0.0814071 -0.0559916 0)
(-0.0838603 -0.0524441 0)
(-0.0862167 -0.0487831 0)
(-0.0884333 -0.0450013 0)
(-0.0904852 -0.041096 0)
(-0.0923569 -0.037069 0)
(-0.0940379 -0.0329272 0)
(-0.0955204 -0.0286835 0)
(-0.0967989 -0.0243517 0)
(-0.097869 -0.0199367 0)
(-0.0987257 -0.0154455 0)
(-0.0993616 -0.0109375 0)
(-0.0997729 -0.00652487 0)
(-0.0999848 -0.00219984 0)
(0.0999816 -0.00310147 0)
(0.0997061 -0.00927041 0)
(0.0991602 -0.0154282 0)
(0.0983255 -0.021558 0)
(0.0972143 -0.0276188 0)
(0.0958392 -0.0335831 0)
(0.0942121 -0.0394379 0)
(0.0923478 -0.0451735 0)
(0.0902672 -0.0507819 0)
(0.0879983 -0.0562576 0)
(0.0855777 -0.0616002 0)
(0.0830518 -0.0668147 0)
(0.0804767 -0.0719132 0)
(0.0779164 -0.0769147 0)
(0.075437 -0.081845 0)
(0.0730976 -0.0867334 0)
(0.0709381 -0.0916072 0)
(0.0689672 -0.096485 0)
(0.0671538 -0.101369 0)
(0.0654274 -0.10624 0)
(0.0636874 -0.111061 0)
(0.0618193 -0.115777 0)
(0.0597123 -0.120329 0)
(0.0572736 -0.124656 0)
(0.0544356 -0.128706 0)
(0.0511581 -0.132437 0)
(0.0474243 -0.135819 0)
(0.0432369 -0.138837 0)
(0.0386114 -0.141486 0)
(0.0335716 -0.143776 0)
(0.0281457 -0.14572 0)
(0.0223631 -0.147343 0)
(0.0162524 -0.148673 0)
(0.00984074 -0.149741 0)
(0.00315312 -0.150581 0)
(-0.00378609 -0.151226 0)
(-0.0109555 -0.15171 0)
(-0.0183382 -0.152068 0)
(-0.0259205 -0.152333 0)
(-0.0336911 -0.152536 0)
(-0.041641 -0.152703 0)
(-0.0497626 -0.152859 0)
(-0.0580499 -0.153027 0)
(-0.0664981 -0.153224 0)
(-0.075103 -0.153467 0)
(-0.083861 -0.15377 0)
(-0.0927682 -0.154141 0)
(-0.101821 -0.15459 0)
(-0.111014 -0.15512 0)
(-0.120341 -0.155735 0)
(-0.129795 -0.156433 0)
(-0.139364 -0.157211 0)
(-0.149036 -0.158061 0)
(-0.158792 -0.158972 0)
(-0.168608 -0.159929 0)
(-0.178452 -0.160914 0)
(-0.188279 -0.161901 0)
(-0.198019 -0.162859 0)
(-0.207571 -0.163744 0)
(-0.216835 -0.164503 0)
(-0.225718 -0.165079 0)
(-0.234144 -0.165392 0)
(-0.241793 -0.165313 0)
(-0.246335 -0.16453 0)
(-0.243945 -0.16296 0)
(-0.235337 -0.160807 0)
(-0.225329 -0.158011 0)
(-0.214879 -0.154511 0)
(-0.203828 -0.150279 0)
(-0.192125 -0.145302 0)
(-0.179865 -0.139588 0)
(-0.167179 -0.133171 0)
(-0.154205 -0.126122 0)
(-0.141089 -0.118549 0)
(-0.128035 -0.110611 0)
(-0.115378 -0.10252 0)
(-0.103601 -0.094548 0)
(-0.0932602 -0.0869974 0)
(-0.0848876 -0.0801603 0)
(-0.0788595 -0.0742452 0)
(-0.0752568 -0.0693026 0)
(-0.07382 -0.0652034 0)
(-0.0740526 -0.0617025 0)
(-0.0754022 -0.0585415 0)
(-0.0773992 -0.0555206 0)
(-0.0797063 -0.0525143 0)
(-0.0821082 -0.0494549 0)
(-0.0844797 -0.0463109 0)
(-0.0867517 -0.0430684 0)
(-0.0888858 -0.0397215 0)
(-0.0908596 -0.0362678 0)
(-0.0926592 -0.0327084 0)
(-0.0942749 -0.0290492 0)
(-0.0956995 -0.0253014 0)
(-0.0969277 -0.0214768 0)
(-0.0979556 -0.0175793 0)