/*--------------------------------*- C++ -*----------------------------------*\
  =========                 |
  \\      /  F ield         | OpenFOAM: The Open Source CFD Toolbox
   \\    /   O peration     | Website:  https://openfoam.org
    \\  /    A nd           | Version:  8
     \\/     M anipulation  |
\*---------------------------------------------------------------------------*/
FoamFile
{
    version     2.0;
    format      ascii;
    class       volScalarField;
    location    "80/fluid";
    object      CH4;
}
// * * * * * * * * * * * * * * * * * * * * * * * * * * * * * * * * * * * * * //

dimensions      [0 0 0 0 0 0 0];

internalField   nonuniform List<scalar> 
4000
(
0.99999
0.999955
0.999898
0.999807
0.999661
0.99943
0.999069
0.998512
0.997662
0.996387
0.994505
0.991786
0.987947
0.98267
0.975622
0.966498
0.955056
0.941151
0.924753
0.905942
0.884899
0.861874
0.837138
0.810982
0.783719
0.755712
0.727204
0.69842
0.669545
0.640749
0.612208
0.584044
0.556364
0.529253
0.502779
0.476995
0.451945
0.427659
0.404158
0.381456
0.359564
0.338484
0.318215
0.298749
0.280074
0.262176
0.24504
0.228646
0.212976
0.198007
0.18372
0.170092
0.157101
0.144725
0.132942
0.12173
0.111068
0.100937
0.0913159
0.0821859
0.0735293
0.0653293
0.0575704
0.0502387
0.0433222
0.0368109
0.0306979
0.0250142
0.0197472
0.0148727
0.0103684
0.00630902
0.00290481
0.0021186
0.00151892
0.00106821
0.000734986
0.000493245
0.000321519
0.000203417
0.000124687
7.42694e-05
4.41286e-05
2.76585e-05
2.07071e-05
1.57738e-05
1.14191e-05
7.70958e-06
4.79239e-06
2.71918e-06
1.40785e-06
6.73211e-07
3.06751e-07
1.35139e-07
5.80702e-08
2.44104e-08
9.9833e-09
3.87363e-09
1.30596e-09
2.29847e-10
0.99999
0.999956
0.999901
0.999812
0.99967
0.999446
0.999096
0.998555
0.997731
0.996494
0.994668
0.992028
0.988297
0.983156
0.97627
0.967323
0.95606
0.942313
0.926036
0.907283
0.886235
0.863137
0.838304
0.812064
0.784817
0.756731
0.728068
0.699066
0.669969
0.640987
0.612248
0.583897
0.556046
0.528771
0.502143
0.476219
0.451044
0.426647
0.40305
0.380267
0.358307
0.337173
0.31686
0.297361
0.278663
0.260751
0.243608
0.227215
0.211551
0.196594
0.182322
0.168714
0.155746
0.143396
0.13164
0.120459
0.109829
0.09973
0.0901423
0.0810464
0.0724242
0.0642587
0.0565343
0.0492368
0.042354
0.0358756
0.029794
0.0241517
0.018931
0.0140693
0.00962507
0.00564437
0.0027736
0.00200976
0.00143208
0.00100071
0.000683466
0.000455159
0.000295081
0.000185368
0.00011277
6.68285e-05
4.01997e-05
2.62874e-05
1.996e-05
1.47499e-05
1.02837e-05
6.65688e-06
3.95553e-06
2.14991e-06
1.07701e-06
5.0898e-07
2.31688e-07
1.02669e-07
4.45889e-08
1.90063e-08
7.89012e-09
3.10434e-09
1.05799e-09
1.8728e-10
0.99999
0.999958
0.999904
0.999818
0.999681
0.999463
0.999124
0.998599
0.997798
0.996594
0.994816
0.99224
0.988592
0.983555
0.976791
0.967973
0.956814
0.943155
0.92694
0.908236
0.887311
0.864313
0.839528
0.813358
0.785977
0.757692
0.728811
0.699623
0.670326
0.641105
0.61213
0.583545
0.555436
0.527913
0.501051
0.474912
0.449538
0.424963
0.401208
0.378287
0.35621
0.334977
0.314585
0.295023
0.276278
0.258333
0.241171
0.224771
0.20911
0.194166
0.179916
0.166337
0.153404
0.141094
0.129384
0.118252
0.107675
0.0976313
0.0881011
0.0790645
0.0705031
0.0623995
0.0547381
0.0475045
0.0406867
0.0342744
0.0282601
0.0226895
0.0175288
0.0127505
0.0082797
0.00419422
0.002523
0.00181781
0.00128664
0.000892823
0.000606285
0.000401555
0.000258389
0.000160587
9.68717e-05
5.72147e-05
3.51308e-05
2.48391e-05
1.85009e-05
1.33563e-05
9.08559e-06
5.74967e-06
3.35671e-06
1.80604e-06
9.01759e-07
4.26137e-07
1.94305e-07
8.62823e-08
3.75135e-08
1.59818e-08
6.6238e-09
2.60102e-09
8.85013e-10
1.56527e-10
0.999991
0.999959
0.999908
0.999824
0.999691
0.999481
0.999151
0.99864
0.997859
0.996682
0.99494
0.992409
0.988817
0.98384
0.977141
0.968391
0.957313
0.94379
0.927767
0.90929
0.88835
0.865367
0.840615
0.81429
0.786735
0.758318
0.729296
0.699896
0.670364
0.640898
0.611673
0.582799
0.554418
0.52663
0.499516
0.473138
0.447543
0.422765
0.398828
0.375747
0.353531
0.332181
0.311692
0.292053
0.27325
0.255265
0.238078
0.221667
0.206009
0.19108
0.176856
0.163312
0.150423
0.138165
0.126513
0.115444
0.104935
0.094963
0.085508
0.0765496
0.0680687
0.0600479
0.0524714
0.0453252
0.0385978
0.0322807
0.0263789
0.0209571
0.0159177
0.0112048
0.00692872
0.00314103
0.00226784
0.00161354
0.00112837
0.000773243
0.000517697
0.000337585
0.000213961
0.000132245
7.95199e-05
4.74464e-05
2.98388e-05
2.21266e-05
1.64792e-05
1.17062e-05
7.79974e-06
4.82244e-06
2.75048e-06
1.45012e-06
7.13451e-07
3.35447e-07
1.52909e-07
6.8095e-08
2.97459e-08
1.27424e-08
5.30969e-09
2.09439e-09
7.1482e-10
1.266e-10
0.999991
0.99996
0.999911
0.99983
0.999701
0.999496
0.999175
0.998677
0.997915
0.996763
0.995051
0.992556
0.989005
0.984077
0.977461
0.968841
0.957967
0.944591
0.928623
0.910082
0.889235
0.866215
0.841306
0.814885
0.787253
0.758669
0.729441
0.699831
0.670078
0.640358
0.610837
0.581689
0.553038
0.524987
0.497621
0.471004
0.445187
0.420205
0.396084
0.372839
0.350482
0.329012
0.308424
0.288706
0.269843
0.251816
0.234604
0.218184
0.202531
0.187621
0.173428
0.159925
0.147087
0.134888
0.123302
0.112306
0.101875
0.0919871
0.0826197
0.0737523
0.0653657
0.057442
0.0499651
0.0429208
0.0362973
0.0300852
0.0243433
0.0190742
0.0141511
0.00966041
0.00567145
0.00276239
0.00198018
0.0013983
0.000970339
0.000660118
0.000438979
0.000284448
0.000178751
0.00010917
6.5136e-05
3.99792e-05
2.64949e-05
2.00296e-05
1.47134e-05
1.02591e-05
6.70094e-06
4.06188e-06
2.27701e-06
1.18559e-06
5.79285e-07
2.7202e-07
1.24089e-07
5.53481e-08
2.42197e-08
1.03911e-08
4.33508e-09
1.71123e-09
5.84225e-10
1.0347e-10
0.999991
0.999962
0.999913
0.999835
0.999709
0.99951
0.999196
0.998707
0.997956
0.996819
0.995131
0.992676
0.98919
0.984372
0.977864
0.969332
0.958493
0.945148
0.929175
0.910704
0.889806
0.866718
0.841776
0.815242
0.787437
0.75868
0.729255
0.699434
0.669418
0.639434
0.609663
0.580259
0.551355
0.523057
0.495453
0.468612
0.442584
0.41741
0.393114
0.369716
0.347226
0.325643
0.304963
0.285172
0.266254
0.248191
0.230959
0.214535
0.198893
0.184007
0.169849
0.156393
0.143611
0.131477
0.119964
0.109048
0.0987027
0.0889052
0.0796331
0.0708651
0.0625816
0.0547646
0.0473979
0.040468
0.0339635
0.0278766
0.0222846
0.017112
0.0123267
0.00782945
0.00373688
0.00238141
0.00170196
0.00119571
0.000823974
0.000555312
0.000365079
0.000233847
0.000146205
8.88811e-05
5.3151e-05
3.32469e-05
2.40204e-05
1.80623e-05
1.30888e-05
8.97123e-06
5.74844e-06
3.41643e-06
1.88103e-06
9.65572e-07
4.68073e-07
2.19153e-07
9.9956e-08
4.46546e-08
1.95901e-08
8.42908e-09
3.52599e-09
1.39479e-09
4.76805e-10
8.44839e-11
0.999991
0.999963
0.999916
0.999839
0.999717
0.999521
0.999213
0.998733
0.997997
0.996887
0.995236
0.992828
0.989394
0.984619
0.978158
0.969676
0.95888
0.945539
0.929624
0.911122
0.890175
0.867051
0.841996
0.815329
0.787371
0.75843
0.728813
0.698746
0.668492
0.638265
0.608249
0.578603
0.549461
0.520933
0.493109
0.46606
0.43984
0.41449
0.390037
0.366501
0.343892
0.32221
0.301449
0.281595
0.262633
0.244542
0.227299
0.210877
0.195252
0.180395
0.166278
0.152873
0.140153
0.128088
0.116652
0.105819
0.0955636
0.0858609
0.0766881
0.0680236
0.0598474
0.0521415
0.04489
0.0380798
0.0317014
0.0257863
0.0203787
0.0153658
0.0106865
0.00649385
0.0029269
0.00210295
0.00148915
0.0010372
0.000709031
0.000474818
0.0003106
0.000197531
0.000122303
7.39995e-05
4.45912e-05
2.89145e-05
2.1772e-05
1.62637e-05
1.1641e-05
7.85647e-06
4.94764e-06
2.89008e-06
1.5677e-06
7.96003e-07
3.84156e-07
1.79573e-07
8.19115e-08
3.66314e-08
1.60942e-08
6.93591e-09
2.90546e-09
1.1505e-09
3.93506e-10
6.97316e-11
0.999992
0.999964
0.999918
0.999843
0.999723
0.999532
0.999231
0.998763
0.998042
0.996951
0.995323
0.992946
0.989548
0.984812
0.978393
0.969948
0.95918
0.945876
0.929947
0.911404
0.890423
0.867203
0.84203
0.815218
0.787092
0.757978
0.72813
0.697846
0.667369
0.636914
0.60667
0.576799
0.547437
0.518698
0.490674
0.463438
0.437046
0.411539
0.386948
0.363292
0.340581
0.318814
0.297986
0.278083
0.259087
0.240977
0.22373
0.20732
0.191717
0.176895
0.162824
0.149474
0.136818
0.124825
0.113468
0.102721
0.0925557
0.0829485
0.0738755
0.0653145
0.0572452
0.0496489
0.0425095
0.0358129
0.0295477
0.0238109
0.0185462
0.0136021
0.00910813
0.00511675
0.00264324
0.00187654
0.00131521
0.000907205
0.000613984
0.000406705
0.000263178
0.000166392
0.000102445
6.20061e-05
3.83149e-05
2.59138e-05
1.99855e-05
1.48293e-05
1.04733e-05
6.95427e-06
4.30226e-06
2.47004e-06
1.32036e-06
6.63218e-07
3.18589e-07
1.4863e-07
6.77815e-08
3.03378e-08
1.3348e-08
5.76165e-09
2.41714e-09
9.58196e-10
3.27936e-10
5.81215e-11
0.999992
0.999965
0.99992
0.999847
0.99973
0.999543
0.999248
0.998789
0.99808
0.997004
0.995397
0.993045
0.989677
0.984974
0.978588
0.970173
0.959412
0.946123
0.93017
0.911606
0.890549
0.867228
0.841929
0.814968
0.786683
0.757358
0.727313
0.696821
0.666131
0.635461
0.605004
0.574924
0.545361
0.51643
0.488226
0.460822
0.434278
0.408635
0.383924
0.360165
0.337368
0.315533
0.294651
0.27471
0.255691
0.237573
0.220331
0.203937
0.188363
0.17358
0.159558
0.146266
0.133675
0.121756
0.110478
0.0998156
0.0897405
0.0802278
0.0712532
0.0627944
0.0548311
0.0473451
0.040321
0.0337469
0.027615
0.022026
0.0168651
0.0119823
0.00751119
0.00348152
0.0023007
0.00164104
0.0011514
0.000793641
0.000536481
0.000354652
0.000228432
0.000143366
8.77763e-05
5.30105e-05
3.40202e-05
2.40909e-05
1.86049e-05
1.3633e-05
9.48815e-06
6.19927e-06
3.7716e-06
2.13196e-06
1.12532e-06
5.60197e-07
2.68119e-07
1.24891e-07
5.69435e-08
2.55017e-08
1.12315e-08
4.85363e-09
2.03833e-09
8.08649e-10
2.76864e-10
4.90732e-11
0.999992
0.999966
0.999922
0.999851
0.999736
0.999553
0.999263
0.998811
0.998112
0.99705
0.995461
0.99313
0.989787
0.985112
0.978752
0.970356
0.959618
0.946319
0.930346
0.911724
0.890587
0.867162
0.841734
0.814621
0.786156
0.756653
0.726418
0.695729
0.664838
0.633968
0.603314
0.573043
0.543296
0.514192
0.485827
0.458276
0.431599
0.405838
0.381025
0.35718
0.334312
0.312421
0.291499
0.271531
0.252499
0.234381
0.21715
0.200778
0.185238
0.170497
0.156526
0.143293
0.130768
0.11892
0.107721
0.0971406
0.0871524
0.0777302
0.0688494
0.0604873
0.0526232
0.0452387
0.0383179
0.0318483
0.0258671
0.0204135
0.0153887
0.0106929
0.0064916
0.00292271
0.00209382
0.00148043
0.00103093
0.00070548
0.000473334
0.000310721
0.000199359
0.000124631
7.61809e-05
4.62822e-05
3.04002e-05
2.28301e-05
1.72665e-05
1.2561e-05
8.64284e-06
5.56831e-06
3.3374e-06
1.8605e-06
9.71093e-07
4.79614e-07
2.28812e-07
1.06428e-07
4.85111e-08
2.17346e-08
9.58032e-09
4.14409e-09
1.74192e-09
6.91518e-10
2.36844e-10
4.19824e-11
0.999992
0.999966
0.999924
0.999854
0.999741
0.999562
0.999277
0.998831
0.998141
0.997091
0.995517
0.993206
0.989884
0.985231
0.978891
0.970507
0.959777
0.946462
0.930464
0.911789
0.890572
0.867041
0.841488
0.814237
0.785599
0.755919
0.7255
0.694624
0.663545
0.632489
0.601654
0.571208
0.541296
0.512038
0.48353
0.45585
0.429057
0.403195
0.378297
0.35438
0.331456
0.309521
0.288569
0.268584
0.249547
0.231434
0.21422
0.197875
0.18237
0.167674
0.153754
0.14058
0.128119
0.116341
0.105216
0.0947149
0.0848091
0.0754725
0.0666801
0.0584087
0.0506376
0.0433481
0.036525
0.0301565
0.0243548
0.0190348
0.0140258
0.00949345
0.00548815
0.00270595
0.00192389
0.00135222
0.000937111
0.000638712
0.000427018
0.0002793
0.000178321
0.000110982
6.78131e-05
4.15623e-05
2.82238e-05
2.17391e-05
1.63464e-05
1.17593e-05
7.98434e-06
5.06901e-06
2.99354e-06
1.64694e-06
8.5077e-07
4.17203e-07
1.98426e-07
9.21496e-08
4.19789e-08
1.88095e-08
8.29486e-09
3.59035e-09
1.51011e-09
5.99772e-10
2.0547e-10
3.64222e-11
0.999992
0.999967
0.999925
0.999857
0.999746
0.999569
0.999289
0.998849
0.998167
0.997128
0.995568
0.993273
0.989971
0.985339
0.97902
0.970653
0.959924
0.946598
0.930561
0.911826
0.890526
0.86689
0.841209
0.813809
0.785024
0.755182
0.724594
0.693546
0.662294
0.631068
0.600068
0.569465
0.539405
0.510009
0.481376
0.453583
0.426691
0.400744
0.375774
0.351799
0.328829
0.306862
0.285888
0.265894
0.246858
0.228756
0.211562
0.195246
0.179778
0.165126
0.151257
0.138139
0.12574
0.114028
0.102973
0.0925459
0.0827172
0.0734602
0.0647496
0.0565621
0.0488761
0.0416727
0.0349354
0.028654
0.0229406
0.0176918
0.012722
0.0081938
0.00412436
0.0024207
0.00173336
0.00122257
0.000848038
0.000577437
0.000385158
0.000251152
0.000159931
9.96414e-05
6.13329e-05
3.82942e-05
2.6865e-05
2.09251e-05
1.56325e-05
1.11285e-05
7.46144e-06
4.67171e-06
2.72118e-06
1.47903e-06
7.56724e-07
3.69161e-07
1.74988e-07
8.11078e-08
3.69129e-08
1.65342e-08
7.29212e-09
3.15728e-09
1.32843e-09
5.27759e-10
1.80823e-10
3.20531e-11
0.999993
0.999968
0.999927
0.999859
0.999751
0.999576
0.9993
0.998865
0.998191
0.997161
0.995614
0.993334
0.99005
0.985436
0.979133
0.970778
0.96005
0.94671
0.930638
0.911848
0.89047
0.866736
0.840937
0.813403
0.784475
0.754483
0.723738
0.692531
0.661122
0.629742
0.598593
0.567849
0.537658
0.508141
0.479398
0.451509
0.424532
0.398513
0.373483
0.349461
0.326455
0.304464
0.283476
0.263478
0.244447
0.22636
0.209188
0.192902
0.17747
0.16286
0.149039
0.135974
0.123633
0.111983
0.100993
0.090634
0.0808761
0.0716924
0.0630575
0.0549479
0.0473423
0.0402223
0.0335723
0.0273831
0.0217822
0.0166102
0.0117175
0.00726692
0.00331767
0.00226094
0.00161521
0.00113717
0.000787694
0.000535747
0.000356989
0.000232489
0.000147877
9.206e-05
5.68738e-05
3.61132e-05
2.61996e-05
2.04716e-05
1.51513e-05
1.06635e-05
7.05895e-06
4.36061e-06
2.50734e-06
1.34773e-06
6.836e-07
3.31927e-07
1.56855e-07
7.25618e-08
3.29849e-08
1.47656e-08
6.51051e-09
2.81882e-09
1.18612e-09
4.71259e-10
1.61467e-10
2.86206e-11
0.999993
0.999968
0.999928
0.999862
0.999755
0.999583
0.999309
0.99888
0.998212
0.997191
0.995655
0.99339
0.990122
0.985525
0.979237
0.970893
0.960165
0.946813
0.930711
0.91187
0.890423
0.866598
0.840692
0.813036
0.783977
0.753846
0.722959
0.691608
0.660056
0.628538
0.597257
0.566389
0.536083
0.506461
0.477624
0.449651
0.422603
0.396524
0.371445
0.347385
0.324352
0.302342
0.281346
0.261347
0.242324
0.224253
0.207103
0.190846
0.175449
0.160879
0.147103
0.134086
0.121798
0.110203
0.0992725
0.0889744
0.07928
0.0701621
0.061595
0.0535553
0.046022
0.0389769
0.032405
0.026327
0.0208167
0.0157387
0.010975
0.00669621
0.00301045
0.00216108
0.0015346
0.00107551
0.000742254
0.000503341
0.000334646
0.000217765
0.000138495
8.63542e-05
5.35784e-05
3.45506e-05
2.56993e-05
2.0118e-05
1.47785e-05
1.02999e-05
6.74123e-06
4.11439e-06
2.33869e-06
1.2448e-06
6.26606e-07
3.02991e-07
1.42779e-07
6.59259e-08
2.99314e-08
1.33884e-08
5.90071e-09
2.55424e-09
1.07468e-09
4.26951e-10
1.46275e-10
2.59259e-11
0.999993
0.999969
0.999929
0.999864
0.999758
0.999588
0.999318
0.998893
0.998232
0.997219
0.995694
0.993441
0.990188
0.985608
0.979335
0.971001
0.960273
0.946907
0.930781
0.911897
0.890388
0.866485
0.840488
0.812731
0.783548
0.753291
0.722277
0.690798
0.659121
0.627481
0.596084
0.565108
0.534702
0.50499
0.476073
0.44803
0.420922
0.394794
0.369675
0.345584
0.322529
0.300507
0.279505
0.259509
0.240496
0.22244
0.205312
0.189081
0.173716
0.159182
0.145445
0.132472
0.12023
0.108684
0.0978045
0.0875595
0.0779202
0.068859
0.0603503
0.0523706
0.0448994
0.037919
0.0314156
0.0254891
0.0200767
0.0149698
0.0103346
0.00620269
0.00284243
0.00204678
0.00145578
0.0010213
0.000705359
0.000478472
0.000318182
0.000207062
0.000131827
8.2432e-05
5.15626e-05
3.39617e-05
2.53436e-05
1.98646e-05
1.45005e-05
1.00201e-05
6.49226e-06
3.92041e-06
2.20612e-06
1.16431e-06
5.82259e-07
2.80527e-07
1.31859e-07
6.07754e-08
2.75589e-08
1.23168e-08
5.42542e-09
2.34767e-09
9.87544e-10
3.92273e-10
1.34377e-10
2.38151e-11
0.999993
0.999969
0.99993
0.999866
0.999761
0.999594
0.999326
0.998905
0.998249
0.997244
0.995729
0.993489
0.99025
0.985684
0.979425
0.971099
0.960378
0.947008
0.930861
0.91194
0.890378
0.866407
0.840326
0.812472
0.783192
0.752828
0.721704
0.690115
0.65833
0.626586
0.595091
0.564023
0.533533
0.503745
0.47476
0.44666
0.419503
0.393334
0.368183
0.344069
0.320998
0.298966
0.277962
0.257969
0.238965
0.220924
0.203815
0.187608
0.17227
0.157767
0.144065
0.131128
0.118925
0.107421
0.0965839
0.0863833
0.0767894
0.0677746
0.059313
0.051381
0.0439576
0.0370248
0.0305688
0.024751
0.0193842
0.0143181
0.0097364
0.00566612
0.00272325
0.00195732
0.00139116
0.000975892
0.000674281
0.000457918
0.000304915
0.00019873
0.000126716
7.94532e-05
5.01261e-05
3.40583e-05
2.55209e-05
1.98792e-05
1.43789e-05
9.84034e-06
6.31276e-06
3.77446e-06
2.10489e-06
1.10259e-06
5.48226e-07
2.63269e-07
1.23457e-07
5.68059e-08
2.57269e-08
1.14877e-08
5.057e-09
2.18729e-09
9.19796e-10
3.65283e-10
1.25112e-10
2.21712e-11
0.999993
0.99997
0.999931
0.999867
0.999764
0.999598
0.999333
0.998916
0.998265
0.997267
0.995761
0.993532
0.990307
0.985757
0.979512
0.9712
0.960484
0.947109
0.930946
0.911997
0.890393
0.866367
0.840218
0.812287
0.782925
0.752469
0.721251
0.689571
0.657695
0.625865
0.594289
0.563145
0.532586
0.502737
0.473698
0.445551
0.418356
0.392155
0.366979
0.342847
0.319763
0.297724
0.27672
0.256731
0.237735
0.219706
0.202614
0.186427
0.171111
0.156634
0.142959
0.130053
0.117881
0.10641
0.0956077
0.0854426
0.0758851
0.0669072
0.0584829
0.0505883
0.0432022
0.0363064
0.0298858
0.0241024
0.0187613
0.0137119
0.00913654
0.00505603
0.00257991
0.00186208
0.00132851
0.000935238
0.000648314
0.000441602
0.000294944
0.000192836
0.000123478
7.78853e-05
4.94181e-05
3.43149e-05
2.58179e-05
2.00108e-05
1.43591e-05
9.74407e-06
6.19451e-06
3.67101e-06
2.03084e-06
1.05678e-06
5.22766e-07
2.50287e-07
1.17108e-07
5.37951e-08
2.43328e-08
1.08551e-08
4.77523e-09
2.0644e-09
8.67817e-10
3.44557e-10
1.17995e-10
2.09082e-11
0.999993
0.99997
0.999932
0.999869
0.999767
0.999602
0.999339
0.998925
0.998279
0.997287
0.995789
0.99357
0.990358
0.985821
0.979591
0.971291
0.960581
0.947208
0.931035
0.912066
0.890431
0.866361
0.84016
0.812168
0.782737
0.752215
0.720924
0.68917
0.657224
0.625326
0.593685
0.562483
0.53187
0.501973
0.472894
0.444712
0.417488
0.391263
0.366069
0.341923
0.318831
0.296788
0.275782
0.255797
0.236808
0.218789
0.201709
0.185537
0.17024
0.155781
0.142128
0.129245
0.117097
0.105651
0.0948741
0.0847355
0.0752048
0.066254
0.0578567
0.0499889
0.0426291
0.0357586
0.0293621
0.0235722
0.0182465
0.0132019
0.00861868
0.00451589
0.00244932
0.00177779
0.00127481
0.000901653
0.000627847
0.000429549
0.0002882
0.000189372
0.000121943
7.74477e-05
4.95914e-05
3.47909e-05
2.62487e-05
2.02596e-05
1.44346e-05
9.71956e-06
6.12942e-06
3.60398e-06
1.97983e-06
1.0243e-06
5.04428e-07
2.40844e-07
1.12457e-07
5.15773e-08
2.33019e-08
1.03859e-08
4.56585e-09
1.97297e-09
8.29121e-10
3.29125e-10
1.12696e-10
1.99681e-11
0.999993
0.99997
0.999932
0.99987
0.999768
0.999605
0.999344
0.998932
0.998289
0.997302
0.995811
0.993601
0.990399
0.985874
0.979657
0.971368
0.960666
0.947295
0.931119
0.912137
0.89048
0.866381
0.840143
0.812108
0.78263
0.752057
0.720718
0.688913
0.656916
0.62497
0.593285
0.562041
0.531391
0.501462
0.472355
0.444149
0.416905
0.390664
0.365458
0.341303
0.318205
0.296159
0.275154
0.25517
0.236186
0.218174
0.201103
0.184942
0.169656
0.155211
0.141572
0.128704
0.116572
0.105143
0.0943841
0.0842633
0.0747508
0.0658183
0.0574392
0.0495893
0.042247
0.0353931
0.0290123
0.023208
0.017894
0.0128543
0.00826828
0.00415353
0.00236361
0.00172338
0.00124127
0.000881742
0.000616595
0.000423669
0.000285516
0.000188487
0.000121999
7.79498e-05
5.02485e-05
3.55423e-05
2.67832e-05
2.05764e-05
1.45661e-05
9.74215e-06
6.1025e-06
3.56519e-06
1.94743e-06
1.00286e-06
4.92086e-07
2.34424e-07
1.09275e-07
5.00549e-08
2.25929e-08
1.0063e-08
4.42179e-09
1.91012e-09
8.0256e-10
3.18551e-10
1.09071e-10
1.93256e-11
0.999993
0.99997
0.999932
0.99987
0.999769
0.999606
0.999346
0.998936
0.998295
0.997311
0.995824
0.993619
0.990423
0.985906
0.979697
0.971416
0.960721
0.947354
0.931177
0.91219
0.890522
0.866407
0.840149
0.812092
0.782589
0.751989
0.720622
0.688791
0.656768
0.624797
0.593088
0.561822
0.531153
0.501207
0.472086
0.443869
0.416614
0.390366
0.365153
0.340993
0.317892
0.295845
0.274839
0.254857
0.235875
0.217866
0.2008
0.184644
0.169364
0.154925
0.141294
0.128433
0.11631
0.104889
0.0941391
0.0840275
0.0745242
0.065601
0.0572312
0.0493906
0.0420571
0.0352118
0.0288388
0.0230285
0.0177218
0.0126873
0.00810435
0.00399982
0.00233163
0.00170346
0.00122964
0.000875566
0.000613866
0.000422969
0.000285904
0.000189367
0.000123017
7.89169e-05
5.10671e-05
3.61942e-05
2.71879e-05
2.08083e-05
1.46667e-05
9.76803e-06
6.09359e-06
3.54635e-06
1.93056e-06
9.9139e-07
4.8543e-07
2.30961e-07
1.07564e-07
4.92394e-08
2.22146e-08
9.89145e-09
4.34554e-09
1.87697e-09
7.88595e-10
3.13006e-10
1.07174e-10
1.89897e-11
0.999993
0.99997
0.999932
0.99987
0.999769
0.999606
0.999346
0.998936
0.998295
0.997311
0.995824
0.993619
0.990423
0.985906
0.979696
0.971415
0.96072
0.947352
0.931175
0.912187
0.890519
0.866404
0.840146
0.812088
0.782585
0.751986
0.720619
0.688787
0.656765
0.624794
0.593084
0.561819
0.53115
0.501204
0.472082
0.443865
0.416611
0.390362
0.365149
0.34099
0.317888
0.295841
0.274836
0.254854
0.235872
0.217863
0.200797
0.184641
0.169361
0.154923
0.141291
0.128431
0.116308
0.104887
0.0941373
0.0840258
0.0745227
0.0655996
0.0572299
0.0493894
0.042056
0.0352107
0.0288378
0.0230274
0.0177208
0.0126864
0.00810369
0.00399957
0.00233151
0.00170347
0.00122965
0.000875548
0.000613824
0.000422919
0.000285857
0.000189329
0.000122988
7.88963e-05
5.10543e-05
3.61844e-05
2.71813e-05
2.08028e-05
1.46627e-05
9.76507e-06
6.09158e-06
3.54514e-06
1.92991e-06
9.91074e-07
4.85288e-07
2.30899e-07
1.07537e-07
4.92274e-08
2.22093e-08
9.88904e-09
4.34443e-09
1.87646e-09
7.88369e-10
3.12911e-10
1.0714e-10
1.89835e-11
0.999993
0.99997
0.999932
0.99987
0.999768
0.999605
0.999344
0.998932
0.998289
0.997302
0.995811
0.993601
0.990398
0.985873
0.979655
0.971365
0.960663
0.947291
0.931113
0.91213
0.890472
0.866372
0.840133
0.812098
0.78262
0.752047
0.720708
0.688903
0.656907
0.624961
0.593275
0.562031
0.531381
0.501451
0.472344
0.444138
0.416894
0.390654
0.365447
0.341292
0.318194
0.296149
0.275144
0.255161
0.236177
0.218165
0.201095
0.184934
0.169648
0.155204
0.141565
0.128697
0.116566
0.105138
0.0943788
0.0842584
0.0747462
0.065814
0.0574352
0.0495856
0.0422434
0.0353897
0.0290092
0.0232055
0.0178918
0.0128526
0.00826732
0.0041532
0.00236335
0.00172339
0.00124124
0.000881595
0.000616403
0.000423472
0.00028534
0.000188344
0.00012189
7.78748e-05
5.01978e-05
3.55179e-05
2.67645e-05
2.05595e-05
1.45539e-05
9.73296e-06
6.0962e-06
3.56134e-06
1.94529e-06
1.00177e-06
4.91559e-07
2.34181e-07
1.09165e-07
5.00048e-08
2.25701e-08
1.00527e-08
4.41709e-09
1.90801e-09
8.01635e-10
3.18169e-10
1.08936e-10
1.93011e-11
0.999993
0.99997
0.999932
0.999869
0.999767
0.999602
0.999339
0.998925
0.998279
0.997287
0.995788
0.99357
0.990357
0.985819
0.979588
0.971287
0.960575
0.9472
0.931024
0.912054
0.890417
0.866346
0.840144
0.812151
0.78272
0.752197
0.720907
0.689152
0.657205
0.625307
0.593667
0.562464
0.531852
0.501954
0.472875
0.444693
0.417468
0.391244
0.36605
0.341904
0.318812
0.29677
0.275765
0.25578
0.236792
0.218773
0.201695
0.185523
0.170226
0.155769
0.142116
0.129233
0.117086
0.105641
0.0948651
0.0847271
0.0751971
0.0662468
0.0578499
0.0499825
0.0426229
0.0357527
0.0293565
0.0235699
0.018244
0.0132004
0.00861858
0.00451643
0.00244911
0.00177791
0.00127503
0.000901818
0.000627893
0.000429504
0.000288089
0.000189246
0.000121828
7.73629e-05
4.95159e-05
3.4798e-05
2.62421e-05
2.0242e-05
1.44156e-05
9.70261e-06
6.11731e-06
3.5964e-06
1.97566e-06
1.02221e-06
5.0345e-07
2.40402e-07
1.12259e-07
5.14884e-08
2.32616e-08
1.03675e-08
4.55747e-09
1.96918e-09
8.27451e-10
3.28433e-10
1.12451e-10
1.99237e-11
0.999993
0.99997
0.999931
0.999867
0.999764
0.999598
0.999333
0.998916
0.998265
0.997267
0.99576
0.993531
0.990306
0.985754
0.979508
0.971194
0.960476
0.947098
0.930931
0.91198
0.890373
0.866345
0.840195
0.812263
0.782901
0.752445
0.721226
0.689545
0.65767
0.625839
0.594263
0.563119
0.532559
0.50271
0.473671
0.445524
0.418328
0.392128
0.366952
0.34282
0.319737
0.297699
0.276695
0.256707
0.237713
0.219685
0.202593
0.186407
0.171093
0.156617
0.142943
0.130038
0.117867
0.106397
0.0955953
0.085431
0.0758741
0.0668968
0.0584729
0.0505787
0.043193
0.0362977
0.0298784
0.0240964
0.0187572
0.0137103
0.00913741
0.00505708
0.00257953
0.00186186
0.00132813
0.000934735
0.000647868
0.000441217
0.000294633
0.00019261
0.000123314
7.77819e-05
4.93188e-05
3.42162e-05
2.58211e-05
1.99899e-05
1.43298e-05
9.71719e-06
6.17442e-06
3.65847e-06
2.02399e-06
1.05336e-06
5.21165e-07
2.49565e-07
1.16785e-07
5.36501e-08
2.42673e-08
1.08253e-08
4.76171e-09
2.05831e-09
8.65149e-10
3.43456e-10
1.17606e-10
2.08379e-11
0.999993
0.999969
0.99993
0.999866
0.999761
0.999594
0.999326
0.998905
0.998249
0.997244
0.995728
0.993487
0.990248
0.985681
0.97942
0.971092
0.960367
0.946994
0.930843
0.911919
0.890353
0.866379
0.840296
0.812441
0.78316
0.752794
0.721669
0.690081
0.658295
0.626551
0.595056
0.563988
0.533498
0.503709
0.474725
0.446624
0.419468
0.393299
0.368149
0.344035
0.320965
0.298933
0.277931
0.257939
0.238937
0.220896
0.203789
0.187584
0.172247
0.157745
0.144044
0.131109
0.118907
0.107404
0.0965686
0.0863691
0.0767764
0.0677626
0.059302
0.0513708
0.0439481
0.0370161
0.0305612
0.0247446
0.0193779
0.0143143
0.00973675
0.00566697
0.00272281
0.00195765
0.0013917
0.000976348
0.000674473
0.000457874
0.000304798
0.000198592
0.000126609
7.93495e-05
4.97974e-05
3.39657e-05
2.55551e-05
1.98562e-05
1.43368e-05
9.79917e-06
6.28259e-06
3.75604e-06
2.09497e-06
1.09769e-06
5.45935e-07
2.62236e-07
1.22994e-07
5.65979e-08
2.56328e-08
1.1445e-08
5.03757e-09
2.17854e-09
9.15965e-10
3.63703e-10
1.24556e-10
2.20706e-11
0.999993
0.999969
0.999929
0.999864
0.999758
0.999588
0.999318
0.998893
0.998231
0.997218
0.995693
0.99344
0.990186
0.985603
0.979329
0.970992
0.96026
0.946889
0.930759
0.91187
0.890357
0.86645
0.84045
0.81269
0.783504
0.753248
0.722233
0.690754
0.659077
0.627438
0.596041
0.565065
0.534659
0.504947
0.476029
0.447986
0.420879
0.394751
0.369633
0.345543
0.322489
0.300468
0.279468
0.259473
0.240461
0.222407
0.20528
0.189052
0.173688
0.159155
0.145421
0.132449
0.120208
0.108665
0.0977864
0.0875429
0.077905
0.068845
0.0603374
0.0523588
0.0448883
0.0379085
0.0314057
0.0254825
0.0200714
0.0149666
0.0103334
0.00620148
0.00284134
0.00204656
0.00145549
0.00102084
0.000704812
0.00047812
0.000317886
0.000206755
0.00013148
8.20669e-05
5.10599e-05
3.39963e-05
2.55561e-05
1.98997e-05
1.44646e-05
9.97236e-06
6.45511e-06
3.89725e-06
2.19353e-06
1.15804e-06
5.793e-07
2.79181e-07
1.3125e-07
6.04993e-08
2.7433e-08
1.22593e-08
5.39916e-09
2.33583e-09
9.8235e-10
3.90131e-10
1.33623e-10
2.36789e-11
0.999993
0.999968
0.999928
0.999862
0.999755
0.999583
0.999309
0.998879
0.998212
0.99719
0.995654
0.993388
0.990118
0.98552
0.97923
0.970882
0.96015
0.946793
0.930685
0.911838
0.890385
0.866556
0.840647
0.81299
0.783927
0.753794
0.722906
0.691555
0.660003
0.628485
0.597205
0.566337
0.536031
0.506409
0.477572
0.449599
0.422552
0.396474
0.371395
0.347337
0.324304
0.302296
0.281301
0.261304
0.242284
0.224214
0.207067
0.190811
0.175416
0.160848
0.147074
0.13406
0.121773
0.110181
0.0992518
0.0889555
0.0792628
0.0701465
0.0615809
0.0535425
0.0460102
0.0389655
0.0323933
0.026318
0.0208128
0.0157369
0.0109734
0.00669479
0.00301113
0.00216149
0.00153397
0.00107488
0.000741899
0.000503106
0.000334465
0.000217512
0.000138224
8.60705e-05
5.317e-05
3.46934e-05
2.57552e-05
2.00926e-05
1.47243e-05
1.02468e-05
6.7016e-06
4.08955e-06
2.32488e-06
1.23772e-06
6.23158e-07
3.01379e-07
1.42032e-07
6.55796e-08
2.97709e-08
1.33142e-08
5.86657e-09
2.53877e-09
1.06787e-09
4.24143e-10
1.45285e-10
2.57472e-11
0.999993
0.999968
0.999926
0.999859
0.999751
0.999576
0.999299
0.998864
0.99819
0.99716
0.995612
0.993331
0.990046
0.98543
0.979125
0.970766
0.960032
0.946686
0.930609
0.911811
0.890426
0.866686
0.840881
0.813341
0.784412
0.754419
0.723674
0.692467
0.661058
0.629678
0.59853
0.567787
0.537596
0.50808
0.479338
0.451448
0.424473
0.398455
0.373426
0.349405
0.326401
0.304411
0.283426
0.263429
0.2444
0.226315
0.209146
0.192862
0.177433
0.162825
0.149007
0.135944
0.123605
0.111958
0.10097
0.0906132
0.0808575
0.0716761
0.0630435
0.0549362
0.047333
0.0402154
0.0335678
0.0273788
0.0217752
0.0166035
0.0117116
0.00726283
0.00331763
0.00226026
0.00161388
0.00113555
0.00078597
0.000534106
0.000355657
0.000231693
0.000147345
9.16419e-05
5.63235e-05
3.61338e-05
2.62684e-05
2.04774e-05
1.51251e-05
1.06286e-05
7.02887e-06
4.33967e-06
2.49461e-06
1.34065e-06
6.79893e-07
3.30105e-07
1.55976e-07
7.21416e-08
3.27857e-08
1.4672e-08
6.46707e-09
2.79902e-09
1.17739e-09
4.67647e-10
1.60193e-10
2.83906e-11
0.999992
0.999967
0.999925
0.999857
0.999746
0.999569
0.999288
0.998848
0.998166
0.997126
0.995566
0.99327
0.989966
0.985332
0.97901
0.97064
0.959905
0.946573
0.930528
0.911785
0.890477
0.866833
0.841145
0.813739
0.784951
0.755107
0.724519
0.69347
0.662219
0.630994
0.599994
0.569392
0.539333
0.509939
0.481306
0.453514
0.426624
0.400678
0.375709
0.351736
0.328768
0.306802
0.285831
0.265839
0.246805
0.228707
0.211515
0.195202
0.179737
0.165087
0.15122
0.138105
0.125709
0.114
0.102947
0.0925223
0.0826959
0.0734411
0.0647326
0.0565471
0.048863
0.0416612
0.0349251
0.0286442
0.0229337
0.017686
0.0127186
0.00819402
0.00412796
0.0024203
0.00173302
0.0012224
0.000848247
0.000577996
0.000385862
0.000251707
0.000160266
9.96945e-05
6.10941e-05
3.83577e-05
2.71069e-05
2.10156e-05
1.56464e-05
1.11126e-05
7.43959e-06
4.65364e-06
2.70895e-06
1.47167e-06
7.52604e-07
3.67049e-07
1.73935e-07
8.05929e-08
3.66649e-08
1.64165e-08
7.23712e-09
3.13212e-09
1.31731e-09
5.23157e-10
1.79199e-10
3.17599e-11
0.999992
0.999966
0.999923
0.999854
0.999741
0.999561
0.999276
0.99883
0.99814
0.997089
0.995514
0.993201
0.989878
0.985223
0.978879
0.97049
0.959754
0.946432
0.930425
0.91174
0.890513
0.866974
0.841414
0.814156
0.785515
0.755832
0.725412
0.694536
0.663458
0.632403
0.601569
0.571125
0.541214
0.511957
0.483451
0.455772
0.428981
0.403121
0.378224
0.35431
0.331387
0.309455
0.288506
0.268523
0.249489
0.23138
0.214168
0.197827
0.182325
0.167631
0.153714
0.140543
0.128085