/*--------------------------------*- C++ -*----------------------------------*\
  =========                 |
  \\      /  F ield         | OpenFOAM: The Open Source CFD Toolbox
   \\    /   O peration     | Website:  https://openfoam.org
    \\  /    A nd           | Version:  8
     \\/     M anipulation  |
\*---------------------------------------------------------------------------*/
FoamFile
{
    version     2.0;
    format      ascii;
    class       volScalarField;
    location    "80/fluid";
    object      CO2;
}
// * * * * * * * * * * * * * * * * * * * * * * * * * * * * * * * * * * * * * //

dimensions      [0 0 0 0 0 0 0];

internalField   nonuniform List<scalar> 
4000
(
5.32453e-07
2.32323e-06
5.31874e-06
1.03013e-05
1.85374e-05
3.20518e-05
5.40338e-05
8.9409e-05
0.000145604
0.000233489
0.000368406
0.000571079
0.000868059
0.00129126
0.00187623
0.00265901
0.00367219
0.004941
0.00648031
0.00829346
0.0103726
0.0127007
0.0152542
0.0180053
0.0209235
0.0239789
0.0271437
0.0303912
0.0336951
0.03703
0.0403801
0.043723
0.0470481
0.0503434
0.0535981
0.0568027
0.0599494
0.0630318
0.0660448
0.0689851
0.071851
0.0746419
0.077358
0.0799997
0.0825677
0.0850629
0.0874865
0.0898395
0.0921232
0.0943387
0.0964872
0.0985696
0.100587
0.102539
0.104426
0.106248
0.108004
0.109692
0.11131
0.112854
0.114318
0.115697
0.116981
0.118158
0.119213
0.120124
0.120865
0.121397
0.121677
0.121651
0.121235
0.120335
0.118412
0.109742
0.100901
0.0919871
0.0830861
0.0742743
0.0656123
0.0572242
0.0491661
0.0414999
0.0343703
0.0277011
0.021885
0.0163955
0.0116366
0.0077198
0.00472352
0.00264122
0.00134862
0.00063619
0.000286082
0.00012442
5.28019e-05
2.19362e-05
8.87732e-06
3.41487e-06
1.14445e-06
2.00923e-07
5.28056e-07
2.3035e-06
5.27203e-06
1.02087e-05
1.83688e-05
3.17605e-05
5.35423e-05
8.85877e-05
0.000144236
0.00023122
0.00036469
0.000565134
0.000858871
0.00127768
0.00185719
0.00263387
0.00364105
0.00490498
0.00644147
0.00825477
0.0103375
0.0126722
0.0152346
0.0179962
0.0209291
0.0240031
0.0271875
0.0304522
0.0337716
0.037129
0.0404944
0.0438604
0.0472006
0.0505112
0.0537799
0.0569969
0.0601539
0.0632447
0.0662643
0.0692095
0.072079
0.0748725
0.0775903
0.0802329
0.082801
0.0852958
0.0877184
0.09007
0.0923519
0.0945654
0.0967115
0.0987913
0.100806
0.102755
0.104639
0.106458
0.108211
0.109896
0.11151
0.11305
0.114512
0.115887
0.117166
0.118339
0.119389
0.120296
0.121032
0.121559
0.121831
0.121781
0.121311
0.120268
0.116909
0.108166
0.0992471
0.0902574
0.0812827
0.0724273
0.0637926
0.0554118
0.0473709
0.0397346
0.0327154
0.0261057
0.0203143
0.0147964
0.0101663
0.00649462
0.00381271
0.002049
0.00101542
0.000474832
0.000213846
9.37351e-05
4.02658e-05
1.6983e-05
6.98266e-06
2.7256e-06
9.23841e-07
1.63167e-07
5.24922e-07
2.29048e-06
5.2448e-06
1.0162e-05
1.82961e-05
3.16514e-05
5.33793e-05
8.83366e-05
0.000143828
0.00023053
0.000363503
0.000563117
0.000855564
0.00127254
0.00184969
0.00262378
0.0036288
0.00489143
0.00642801
0.0082426
0.0103288
0.01267
0.0152421
0.0180204
0.0209729
0.0240666
0.0272704
0.0305636
0.0339152
0.0372965
0.0406932
0.0440796
0.0474558
0.0507977
0.054094
0.057335
0.0605127
0.063621
0.0666549
0.0696118
0.0724908
0.0752918
0.0780153
0.080662
0.0832329
0.085729
0.0881519
0.0905028
0.0927831
0.0949942
0.0971374
0.0992137
0.101224
0.103169
0.105048
0.106862
0.108609
0.110288
0.111895
0.113428
0.11488
0.116246
0.117514
0.118674
0.119708
0.120598
0.121316
0.121829
0.122105
0.122113
0.121812
0.121187
0.114565
0.105666
0.0966482
0.0876152
0.078664
0.0698539
0.0612381
0.0528469
0.0448523
0.0373012
0.0304516
0.0243105
0.0182819
0.0131061
0.00884712
0.00555568
0.00321793
0.00171699
0.00084955
0.000397491
0.000179315
7.87391e-05
3.38473e-05
1.42618e-05
5.8519e-06
2.27897e-06
7.71001e-07
1.3604e-07
5.21729e-07
2.2768e-06
5.2145e-06
1.01059e-05
1.81997e-05
3.14918e-05
5.31201e-05
8.79222e-05
0.00014318
0.000229539
0.000362031
0.000561019
0.000852724
0.00126895
0.00184552
0.00261939
0.00362446
0.00488819
0.00642794
0.00824893
0.0103428
0.0126971
0.0152893
0.0180856
0.0210545
0.0241747
0.0274124
0.030728
0.0341105
0.0375276
0.0409539
0.0443863
0.0477964
0.0511703
0.0544961
0.0577638
0.0609654
0.0640943
0.0671458
0.0701177
0.0730094
0.075821
0.0785529
0.0812061
0.0837817
0.0862809
0.0887054
0.0910565
0.0933358
0.0955449
0.097685
0.0997573
0.101763
0.103702
0.105575
0.107381
0.10912
0.11079
0.112387
0.113908
0.115346
0.116694
0.117941
0.119073
0.120071
0.12091
0.121557
0.121965
0.122094
0.121874
0.121236
0.120126
0.111401
0.102425
0.0933332
0.0842359
0.0752349
0.0664201
0.0578855
0.049754
0.0419878
0.0346823
0.0278617
0.0219294
0.01627
0.0114643
0.00757963
0.00464993
0.0026303
0.00137439
0.000669585
0.000311507
0.000140419
6.18175e-05
2.66949e-05
1.13099e-05
4.66607e-06
1.82558e-06
6.19593e-07
1.09485e-07
5.19429e-07
2.26709e-06
5.19372e-06
1.00693e-05
1.81413e-05
3.14036e-05
5.29916e-05
8.7739e-05
0.000142922
0.000229184
0.000361566
0.000560447
0.000852091
0.00126832
0.00184521
0.00262021
0.00362829
0.00489741
0.00644485
0.00827426
0.0103847
0.0127558
0.0153614
0.018183
0.0211907
0.0243391
0.0276007
0.0309565
0.0343618
0.0378127
0.0412886
0.0447571
0.0482016
0.0516079
0.0549635
0.0582585
0.0614843
0.0646343
0.0677041
0.0706921
0.0735975
0.0764206
0.079162
0.0818226
0.0844036
0.0869066
0.089333
0.0916846
0.093963
0.0961699
0.0983065
0.100374
0.102374
0.104307
0.106172
0.10797
0.109698
0.111356
0.11294
0.114445
0.115865
0.117191
0.118411
0.119509
0.120464
0.121247
0.121813
0.12211
0.122063
0.121545
0.12035
0.116959
0.108083
0.0990249
0.0899155
0.0808632
0.0719525
0.0632514
0.0547989
0.0467234
0.0390704
0.0321671
0.0255411
0.0197992
0.0144714
0.0100185
0.0064939
0.00390417
0.00216922
0.00111861
0.000540857
0.000251161
0.000113253
4.99214e-05
2.15908e-05
9.1605e-06
3.7836e-06
1.48142e-06
5.0295e-07
8.88748e-08
5.1766e-07
2.25963e-06
5.17778e-06
1.00414e-05
1.80976e-05
3.13409e-05
5.29084e-05
8.76369e-05
0.000142807
0.000229061
0.000361455
0.000560427
0.000852388
0.00126954
0.00184837
0.00262681
0.00364022
0.00491713
0.00647322
0.00831979
0.0104463
0.0128351
0.0154739
0.018325
0.0213532
0.0245311
0.0278334
0.0312171
0.0346741
0.0381682
0.0416764
0.0451779
0.0486548
0.052092
0.0554767
0.0587981
0.0620477
0.0652183
0.0683063
0.0713104
0.0742298
0.0770648
0.079816
0.0824843
0.0850712
0.087578
0.0900067
0.0923588
0.0946362
0.0968406
0.0989735
0.101036
0.10303
0.104954
0.106811
0.108598
0.110315
0.111959
0.113526
0.115012
0.116409
0.117707
0.118894
0.119953
0.120861
0.12159
0.1221
0.122365
0.122349
0.122018
0.121387
0.113779
0.104694
0.0955115
0.0863343
0.0772494
0.0683516
0.0597472
0.0515406
0.0437035
0.0363156
0.0296086
0.0236416
0.0178734
0.0128575
0.00874012
0.00555122
0.00326826
0.0017814
0.000904648
0.00043356
0.000200604
9.0396e-05
3.98971e-05
1.72967e-05
7.35958e-06
3.04814e-06
1.1961e-06
4.06651e-07
7.18962e-08
5.16626e-07
2.25539e-06
5.16929e-06
1.00282e-05
1.80807e-05
3.13234e-05
5.28963e-05
8.76436e-05
0.000142863
0.000229241
0.000361907
0.000561427
0.000854415
0.00127335
0.00185512
0.00263819
0.00365852
0.00494307
0.00651477
0.0083764
0.01052
0.0129397
0.0156025
0.018474
0.0215372
0.0247566
0.0280879
0.0315211
0.0350164
0.0385474
0.0420907
0.0456257
0.0491345
0.0526015
0.0560136
0.05936
0.0626314
0.0658215
0.0689269
0.0719463
0.0748791
0.0777254
0.0804858
0.0831614
0.0857535
0.0882639
0.0906943
0.0930466
0.0953225
0.0975239
0.0996524
0.101709
0.103695
0.105612
0.107458
0.109233
0.110936
0.112564
0.114113
0.115577
0.116948
0.118213
0.119359
0.120364
0.1212
0.121826
0.122191
0.122239
0.121871
0.120962
0.119255
0.110351
0.101248
0.0920819
0.0829682
0.0740069
0.0652635
0.0567755
0.0486704
0.0410034
0.0338327
0.0273721
0.0216727
0.0161074
0.011416
0.00762594
0.00475175
0.00274524
0.00147221
0.000738724
0.000352185
0.000162597
7.32489e-05
3.23553e-05
1.40464e-05
5.98596e-06
2.48281e-06
9.75325e-07
3.3179e-07
5.86693e-08
5.1622e-07
2.25387e-06
5.16683e-06
1.00261e-05
1.80822e-05
3.13364e-05
5.29383e-05
8.77497e-05
0.000143099
0.000229725
0.000362848
0.00056318
0.000857568
0.00127883
0.00186432
0.00265305
0.00368155
0.00497861
0.00656451
0.00844202
0.0106143
0.0130591
0.0157454
0.0186588
0.0217572
0.0250029
0.0283815
0.0318501
0.03538
0.038945
0.0425213
0.046088
0.0496267
0.0531216
0.0565594
0.0599287
0.0632202
0.066428
0.0695494
0.072583
0.075528
0.0783846
0.0811533
0.0838354
0.0864321
0.0889453
0.0913768
0.0937285
0.0960024
0.0982002
0.100324
0.102374
0.104352
0.106259
0.108094
0.109856
0.111545
0.113155
0.114684
0.116124
0.117467
0.1187
0.119806
0.120764
0.121544
0.122094
0.122372
0.122303
0.121766
0.120582
0.116001
0.107051
0.0979207
0.0887507
0.0796555
0.0707431
0.0621108
0.0538483
0.045957
0.0385335
0.0317171
0.0252957
0.0198571
0.0145772
0.0101751
0.00667848
0.00408382
0.00231703
0.0012237
0.000607121
0.000288006
0.000132679
5.97527e-05
2.64164e-05
1.14854e-05
4.90313e-06
2.03701e-06
8.01207e-07
2.72756e-07
4.8241e-08
5.16351e-07
2.25465e-06
5.16963e-06
1.00343e-05
1.81033e-05
3.1385e-05
5.30424e-05
8.79593e-05
0.000143502
0.000230477
0.000364207
0.000565574
0.00086168
0.0012857
0.00187549
0.00267063
0.0037067
0.00501727
0.0066172
0.00851922
0.0107131
0.0131792
0.015903
0.0188483
0.0219752
0.0252669
0.0286798
0.032183
0.0357471
0.0393453
0.0429536
0.0465505
0.0501176
0.0536386
0.0570999
0.0604901
0.0637999
0.0670239
0.0701599
0.0732063
0.0761622
0.0790279
0.0818039
0.0844913
0.0870918
0.0896069
0.0920387
0.0943892
0.0966602
0.0988538
0.100971
0.103015
0.104984
0.106881
0.108704
0.110452
0.112125
0.113717
0.115224
0.116638
0.11795
0.119147
0.12021
0.121116
0.121837
0.122327
0.122563
0.122502
0.122106
0.121379
0.113281
0.104161
0.0949775
0.0858401
0.0768408
0.0680449
0.0595043
0.0513264
0.0435582
0.0362522
0.0298408
0.0235331
0.018234
0.0132181
0.00909116
0.00586838
0.00352658
0.00196874
0.00102615
0.000504377
0.000238348
0.000109628
4.93635e-05
2.18391e-05
9.50667e-06
4.06392e-06
1.69049e-06
6.65541e-07
2.26689e-07
4.00987e-08
5.16953e-07
2.25749e-06
5.17711e-06
1.00514e-05
1.81399e-05
3.14598e-05
5.31892e-05
8.82382e-05
0.000144018
0.000231404
0.000365838
0.000568379
0.000866394
0.00129344
0.00188784
0.00268986
0.00373688
0.00506063
0.00667906
0.00860109
0.0108207
0.0133168
0.0160687
0.0190452
0.0222112
0.0255342
0.0289799
0.0325159
0.0361123
0.0397418
0.04338
0.0470051
0.0505983
0.0541432
0.0576259
0.0610347
0.0643609
0.0675997
0.0707488
0.0738065
0.0767721
0.0796456
0.0824277
0.0851195
0.0877227
0.090239
0.0926703
0.0950188
0.0972865
0.0994752
0.101587
0.103622
0.105582
0.107468
0.109279
0.111013
0.112669
0.114241
0.115726
0.117113
0.118392
0.119548
0.120559
0.121396
0.122016
0.122369
0.122399
0.122008
0.121074
0.119355
0.110416
0.101284
0.0921014
0.0829853
0.0740357
0.0653377
0.0569682
0.0489488
0.0413443
0.0342077
0.0279229
0.022228
0.0167089
0.0120004
0.00814946
0.0051819
0.00306531
0.00168663
0.000868984
0.000423669
0.000199557
9.16607e-05
4.12682e-05
1.82695e-05
7.96147e-06
3.4076e-06
1.4191e-06
5.59182e-07
1.90554e-07
3.3711e-08
5.17894e-07
2.26179e-06
5.18784e-06
1.00747e-05
1.81874e-05
3.15528e-05
5.3366e-05
8.85656e-05
0.000144609
0.000232451
0.000367652
0.000571456
0.000871493
0.00130166
0.00190065
0.00270883
0.00376593
0.0051012
0.00673795
0.00867965
0.0109193
0.0134459
0.016227
0.019231
0.0224336
0.0257911
0.0292701
0.0328384
0.0364659
0.0401251
0.0437913
0.0474426
0.0510599
0.0546266
0.0581286
0.0615541
0.0648949
0.0681469
0.0713076
0.0743753
0.0773492
0.0802294
0.0830165
0.0857118
0.0883168
0.0908334
0.0932637
0.0956097
0.0978735
0.100057
0.102162
0.104189
0.10614
0.108015
0.109813
0.111532
0.113171
0.114725
0.116187
0.117549
0.118799
0.119919
0.120887
0.121672
0.12222
0.122485
0.12239
0.121804
0.120544
0.116777
0.107835
0.0987244
0.0895919
0.0805511
0.071691
0.0630848
0.0547958
0.0468666
0.0393844
0.0323833
0.0262596
0.020845
0.0154931
0.0109905
0.00736115
0.00461117
0.00268751
0.00145952
0.000744395
0.000360457
0.000169323
7.76834e-05
3.49703e-05
1.54893e-05
6.75582e-06
2.89449e-06
1.20655e-06
4.7576e-07
1.62189e-07
2.86956e-08
5.19048e-07
2.267e-06
5.2006e-06
1.01018e-05
1.82412e-05
3.16561e-05
5.35589e-05
8.89176e-05
0.000145239
0.000233554
0.000369551
0.000574665
0.000876818
0.00131033
0.00191451
0.00273067
0.00379787
0.00514766
0.00680051
0.00876317
0.011029
0.01358
0.0163899
0.0194266
0.0226559
0.0260421
0.0295505
0.0331479
0.0368038
0.0404902
0.044182
0.0478572
0.0514962
0.0550825
0.0586017
0.062042
0.0653959
0.0686597
0.0718306
0.074907
0.077888
0.0807738
0.083565
0.0862628
0.088869
0.0913853
0.093814
0.096157
0.0984165
0.100594
0.102692
0.104711
0.106653
0.108516
0.110301
0.112007
0.113629
0.115163
0.116604
0.117942
0.119164
0.120255
0.121193
0.121949
0.122477
0.122748
0.122712
0.122298
0.121436
0.114777
0.105657
0.096457
0.0872889
0.0782513
0.0694278
0.060892
0.0527126
0.0449534
0.0376704
0.0308632
0.0248334
0.019539
0.0143962
0.0101058
0.00668604
0.00413258
0.00237709
0.00127625
0.000645162
0.00031102
0.000145721
6.67744e-05
3.0051e-05
1.33146e-05
5.81112e-06
2.49172e-06
1.03944e-06
4.10101e-07
1.39849e-07
2.47448e-08
5.20304e-07
2.27264e-06
5.21426e-06
1.01303e-05
1.82973e-05
3.17624e-05
5.37553e-05
8.92726e-05
0.000145868
0.000234649
0.000371423
0.000577806
0.000881989
0.00131866
0.0019276
0.00275066
0.00382731
0.00518966
0.00685827
0.00884037
0.0111297
0.0137044
0.0165406
0.0196058
0.0228626
0.0262768
0.0298129
0.0334375
0.0371195
0.0408307
0.0445458
0.0482424
0.0519009
0.0555044
0.0590386
0.062492
0.0658576
0.0691317
0.0723116
0.0753955
0.0783826
0.081273
0.0840675
0.0867672
0.0893739
0.0918895
0.0943162
0.096656
0.0989111
0.101083
0.103174
0.105185
0.107117
0.10897
0.110742
0.112432
0.114037
0.115552
0.11697
0.11828
0.11947
0.120523
0.121415
0.122117
0.122582
0.122783
0.122671
0.12218
0.121271
0.112819
0.103657
0.0944536
0.085319
0.076341
0.0675915
0.0591309
0.0510346
0.0433592
0.036188
0.029523
0.0236302
0.0184815
0.0134907
0.00936937
0.00612479
0.00373817
0.00212453
0.00112913
0.000566436
0.000272068
0.000127206
5.82317e-05
2.61988e-05
1.16099e-05
5.06946e-06
2.17498e-06
9.07825e-07
3.58327e-07
1.22221e-07
2.16267e-08
5.21563e-07
2.27827e-06
5.22782e-06
1.01584e-05
1.83521e-05
3.18655e-05
5.39443e-05
8.96122e-05
0.000146466
0.000235686
0.000373185
0.000580751
0.000886814
0.0013264
0.00193972
0.00276911
0.00385452
0.00522867
0.00691077
0.00890873
0.011215
0.0138148
0.0166766
0.0197683
0.0230516
0.0264919
0.0300537
0.0337031
0.0374089
0.0411425
0.0448785
0.0485942
0.0522699
0.0558888
0.0594361
0.0629009
0.0662768
0.0695599
0.0727476
0.0758378
0.07883
0.0817242
0.0845212
0.0872223
0.0898291
0.0923437
0.0947681
0.0971047
0.0993554
0.101522
0.103607
0.10561
0.107532
0.109374
0.111134
0.11281
0.114398
0.115893
0.117286
0.118568
0.119722
0.120729
0.121562
0.122182
0.122542
0.122595
0.122258
0.121424
0.119941
0.110971
0.101816
0.0926201
0.0835039
0.074565
0.0658816
0.0575211
0.0495245
0.0419499
0.034862
0.0283079
0.022584
0.0175779
0.0127244
0.00875082
0.00565768
0.00341369
0.00191943
0.0010111
0.000503896
0.000241284
0.000112616
5.15089e-05
2.31682e-05
1.02682e-05
4.48522e-06
1.92521e-06
8.03928e-07
3.17423e-07
1.08288e-07
1.91619e-08
5.22744e-07
2.28354e-06
5.24045e-06
1.01845e-05
1.84027e-05
3.19602e-05
5.41173e-05
8.99219e-05
0.000147011
0.000236625
0.000374778
0.000583406
0.000891156
0.00133335
0.00195059
0.00278569
0.00387835
0.00526163
0.00695803
0.00897271
0.0112988
0.0139173
0.0167987
0.0199102
0.0232195
0.0266836
0.0302687
0.0339405
0.0376674
0.0414208
0.045175
0.0489074
0.0525981
0.05623
0.0597885
0.0632631
0.0666477
0.0699385
0.0731326
0.0762283
0.0792247
0.082122
0.084921
0.087623
0.0902297
0.0927432
0.0951656
0.097499
0.0997457
0.101907
0.103986
0.105982
0.107896
0.109728
0.111477
0.11314
0.114713
0.11619
0.117562
0.118816
0.119937
0.120902
0.12168
0.122221
0.122484
0.122404
0.121878
0.120779
0.118516
0.109478
0.100303
0.0911231
0.0820417
0.073141
0.0645036
0.0561949
0.0482724
0.0407848
0.0338042
0.0274121
0.0215553
0.0167343
0.0120388
0.00821634
0.00526375
0.00314532
0.00175257
0.00091634
0.000454171
0.000216924
0.000101101
4.62096e-05
2.078e-05
9.21072e-06
4.0245e-06
1.72811e-06
7.21888e-07
2.85109e-07
9.72777e-08
1.72141e-08
5.23781e-07
2.28817e-06
5.25153e-06
1.02073e-05
1.84468e-05
3.20427e-05
5.42678e-05
9.01908e-05
0.000147483
0.000237439
0.00037616
0.000585706
0.00089491
0.00133934
0.00195987
0.00279954
0.00389967
0.00529285
0.00700055
0.00902859
0.0113704
0.0140066
0.0169082
0.0200409
0.0233684
0.0268529
0.0304573
0.0341479
0.0378927
0.0416628
0.0454325
0.0491789
0.0528823
0.0565254
0.0600935
0.0635765
0.0669686
0.0702659
0.0734654
0.0765655
0.0795653
0.082465
0.0852654
0.0879679
0.0905743
0.0930866
0.0955069
0.0978376
0.100081
0.102238
0.104311
0.106301
0.108209
0.110033
0.111773
0.113426
0.114987
0.116451
0.117808
0.119044
0.120144
0.121084
0.121832
0.122332
0.122552
0.122418
0.121826
0.120642
0.117279
0.10821
0.0990163
0.0898321
0.0807654
0.0719028
0.063308
0.0550444
0.0471621
0.0397265
0.0328407
0.0267317
0.0208755
0.0161288
0.0115118
0.00778633
0.00494453
0.00292866
0.00161898
0.000841132
0.000414977
0.000197787
9.20696e-05
4.20557e-05
1.89081e-05
8.38149e-06
3.66302e-06
1.57337e-06
6.57448e-07
2.59718e-07
8.86257e-08
1.56835e-08
5.24629e-07
2.29195e-06
5.26057e-06
1.0226e-05
1.84829e-05
3.211e-05
5.43907e-05
9.04109e-05
0.00014787
0.000238109
0.0003773
0.000587616
0.000898053
0.00134441
0.00196789
0.00281194
0.00391767
0.00531818
0.00703493
0.00907511
0.0114302
0.0140804
0.0169988
0.020148
0.0234914
0.0269937
0.0306151
0.0343212
0.0380805
0.041864
0.0456458
0.0494031
0.0531162
0.0567678
0.0603435
0.0638334
0.0672318
0.0705346
0.0737387
0.0768425
0.0798451
0.0827468
0.0855484
0.0882514
0.0908574
0.0933687
0.0957874
0.0981157
0.100356
0.10251
0.104579
0.106564
0.108466
0.110285
0.112018
0.113664
0.115218
0.116674
0.118023
0.119252
0.120344
0.121277
0.122021
0.122522
0.122752
0.122648
0.122117
0.121049
0.116449
0.107304
0.0980729
0.0888757
0.0798103
0.0709572
0.0623831
0.0541469
0.0463101
0.038925
0.0320434
0.026071
0.020257
0.0155905
0.0110765
0.00744237
0.00468987
0.00275741
0.00151433
0.000782652
0.000384664
0.000183017
8.51055e-05
3.88529e-05
1.74643e-05
7.74157e-06
3.3839e-06
1.45383e-06
6.07645e-07
2.40091e-07
8.19374e-08
1.45004e-08
5.25258e-07
2.29476e-06
5.26729e-06
1.02398e-05
1.85097e-05
3.21604e-05
5.44829e-05
9.05765e-05
0.000148162
0.000238617
0.00037817
0.000589079
0.000900472
0.00134833
0.00197407
0.00282141
0.00393168
0.00533859
0.00706318
0.00911292
0.0114793
0.014142
0.0170717
0.0202348
0.023592
0.0271055
0.0307396
0.0344578
0.0382282
0.0420216
0.0458122
0.0495772
0.0532966
0.0569534
0.0605353
0.0640323
0.0674367
0.0707444
0.0739526
0.0770593
0.0800642
0.0829673
0.0857696
0.0884726
0.0910782
0.0935884
0.0960056
0.0983319
0.100569
0.10272
0.104786
0.106768
0.108666
0.11048
0.112209
0.113851
0.1154
0.116852
0.118198
0.119425
0.120518
0.121456
0.122209
0.12273
0.122991
0.122941
0.122501
0.121578
0.11589
0.106653
0.0973678
0.0881437
0.0790722
0.0702283
0.0616774
0.0534778
0.0456832
0.0383394
0.0315007
0.0255328
0.0197798
0.0151788
0.0107303
0.00717871
0.00449737
0.00262851
0.00143594
0.000739029
0.000362108
0.000172035
7.99276e-05
3.64711e-05
1.63903e-05
7.26543e-06
3.17619e-06
1.36487e-06
5.70593e-07
2.25494e-07
7.69648e-08
1.36209e-08
5.25658e-07
2.29654e-06
5.27157e-06
1.02487e-05
1.85269e-05
3.21928e-05
5.45426e-05
9.06846e-05
0.000148355
0.000238956
0.000378755
0.000590078
0.000902144
0.00135107
0.00197845
0.00282819
0.00394178
0.00535313
0.00708364
0.00913992
0.0115143
0.014186
0.0171254
0.0202972
0.0236639
0.0271866
0.0308282
0.034554
0.0383313
0.0421306
0.0459259
0.0496941
0.0534157
0.0570758
0.0606619
0.0641639
0.0675739
0.0708861
0.0740978
0.0772073
0.080214
0.0831184
0.0859215
0.0886247
0.09123
0.0937395
0.0961556
0.0984804
0.100716
0.102865
0.104928
0.106907
0.108802
0.110613
0.112339
0.113978
0.115525
0.116975
0.118319
0.119546
0.120642
0.121585
0.122348
0.122887
0.123173
0.123161
0.122782
0.121953
0.115525
0.106231
0.0969108
0.0876687
0.0785901
0.0697482
0.0612056
0.0530183
0.0452396
0.0379228
0.031108
0.0251914
0.0194646
0.0149041
0.0104973
0.00699132
0.00436288
0.00253935
0.00138207
0.000709187
0.000346737
0.000164568
7.64127e-05
3.4856e-05
1.56625e-05
6.943e-06
3.03564e-06
1.30473e-06
5.45569e-07
2.15647e-07
7.36141e-08
1.30288e-08
5.25839e-07
2.29735e-06
5.27351e-06
1.02527e-05
1.85348e-05
3.22076e-05
5.45701e-05
9.07348e-05
0.000148445
0.000239116
0.000379037
0.000590564
0.000902972
0.00135245
0.0019807
0.00283175
0.00394726
0.00536108
0.00709471
0.00915479
0.0115332
0.0142095
0.0171538
0.0203307
0.0237023
0.0272298
0.0308759
0.0346054
0.0383858
0.0421876
0.0459843
0.0497532
0.0534761
0.057138
0.0607265
0.0642313
0.0676446
0.0709601
0.0741741
0.0772851
0.0802928
0.0831977
0.0860009
0.0887041
0.091309
0.0938179
0.0962332
0.0985571
0.100792
0.102939
0.105001
0.106978
0.108872
0.110681
0.112405
0.114041
0.115586
0.117034
0.118377
0.119604
0.1207
0.121644
0.122411
0.122956
0.123248
0.123247
0.122882
0.122072
0.115314
0.105998
0.0966656
0.0874179
0.078339
0.0694998
0.0609619
0.0527814
0.045012
0.0377081
0.0309072
0.0250147
0.0193046
0.0147672
0.0103838
0.00690115
0.00429621
0.00249481
0.00135492
0.000694013
0.000338876
0.000160741
7.46097e-05
3.40276e-05
1.52894e-05
6.77789e-06
2.96373e-06
1.27399e-06
5.3279e-07
2.10622e-07
7.19051e-08
1.27268e-08
5.25829e-07
2.2973e-06
5.27341e-06
1.02525e-05
1.85344e-05
3.22071e-05
5.45693e-05
9.07335e-05
0.000148443
0.000239113
0.000379032
0.000590557
0.00090296
0.00135243
0.00198066
0.00283168
0.00394715
0.00536091
0.00709444
0.00915439
0.0115327
0.0142087
0.0171528
0.0203295
0.0237007
0.0272279
0.0308738
0.0346031
0.0383834
0.0421849
0.0459815
0.0497503
0.0534732
0.057135
0.0607233
0.0642281
0.0676414
0.070957
0.074171
0.077282
0.0802899
0.083195
0.0859984
0.0887016
0.0913067
0.0938157
0.0962311
0.098555
0.10079
0.102937
0.104999
0.106976
0.10887
0.110679
0.112403
0.114039
0.115585
0.117033
0.118376
0.119603
0.120699
0.121644
0.122412
0.122957
0.12325
0.123249
0.122883
0.122071
0.115312
0.105995
0.0966625
0.0874151
0.0783366
0.0694978
0.0609601
0.0527795
0.0450096
0.0377055
0.0309047
0.0250121
0.0193026
0.0147655
0.0103827
0.00690026
0.00429559
0.00249444
0.00135472
0.000693925
0.000338843
0.000160729
7.46057e-05
3.40262e-05
1.52889e-05
6.77768e-06
2.96363e-06
1.27394e-06
5.32768e-07
2.10613e-07
7.19026e-08
1.27266e-08
5.25632e-07
2.29643e-06
5.27132e-06
1.02482e-05
1.85261e-05
3.21914e-05
5.45404e-05
9.06809e-05
0.000148349
0.000238946
0.00037874
0.000590053
0.000902101
0.00135099
0.00197832
0.00282797
0.00394142
0.00535258
0.0070828
0.00913866
0.0115125
0.0141836
0.0171223
0.0202934
0.0236596
0.027182
0.0308233
0.0345489
0.0383263
0.0421259
0.0459215
0.04969
0.0534119
0.0570721
0.0606582
0.0641601
0.0675699
0.0708818
0.0740933
0.0772027
0.0802094
0.0831137
0.0859167
0.0886199
0.0912252
0.0937346
0.0961506
0.0984755
0.100711
0.10286
0.104923
0.106902
0.108797
0.110608
0.112334
0.113973
0.11552
0.11697
0.118314
0.119543
0.120639
0.121583
0.122348
0.122888
0.123174
0.123161
0.122779
0.121947
0.115519
0.106223
0.096903
0.0876607
0.0785825
0.0697404
0.0611967
0.0530076
0.0452266
0.0379105
0.0310956
0.0251855
0.0194581
0.0148974
0.0104943
0.00698912
0.00436128
0.00253812
0.00138121
0.000708667
0.000346452
0.000164425
7.63446e-05
3.48248e-05
1.56486e-05
6.93695e-06
3.03306e-06
1.30365e-06
5.45131e-07
2.1548e-07
7.35594e-08
1.30196e-08
5.2522e-07
2.29459e-06
5.26693e-06
1.02391e-05
1.85085e-05
3.21583e-05
5.44796e-05
9.0571e-05
0.000148153
0.000238603
0.000378146
0.00058904
0.000900404
0.00134821
0.00197386
0.00282106
0.00393108
0.00533757
0.00706164
0.00911073
0.0114763
0.0141381
0.0170669
0.020229
0.0235855
0.0270982
0.0307317
0.0344499
0.0382201
0.0420135
0.045804
0.0495687
0.0532878
0.0569444
0.0605262
0.0640229
0.0674271
0.0707347
0.0739429
0.0770498
0.0800548
0.0829581
0.0857605
0.0884637
0.0910693
0.0935796
0.0959968
0.0983231
0.100561
0.102712
0.104777
0.106759
0.108657
0.110471
0.112201
0.113842
0.115393
0.116845
0.118192
0.119421
0.120516
0.121455
0.12221
0.122731
0.122991
0.122935
0.12249
0.121568
0.115884
0.106645
0.0973603
0.0881379
0.079066
0.0702193
0.061663
0.0534589
0.0456615
0.0383224
0.0314774
0.0255338
0.0197738
0.0151679
0.0107225
0.00717209
0.00449264
0.00262527
0.00143399
0.00073796
0.000361567
0.000171775
7.98073e-05
3.64165e-05
1.63659e-05
7.25469e-06
3.17153e-06
1.36289e-06
5.69778e-07
2.25179e-07
7.68604e-08
1.36032e-08
5.24588e-07
2.29178e-06
5.26019e-06
1.02252e-05
1.84816e-05
3.2108e-05
5.43873e-05
9.04054e-05
0.000147861
0.000238094
0.000377274
0.000587569
0.00089797
0.00134426
0.00196763
0.0028115
0.00391695
0.00531705
0.00703315
0.00907249
0.0114266
0.0140756
0.0169927
0.0201409
0.023483
0.026984
0.0306052
0.0343111
0.0380703
0.0418538
0.0456358
0.0493932
0.0531063
0.0567579
0.0603337
0.0638235
0.0672217
0.0705243
0.0737284
0.076832
0.0798346
0.0827361
0.0855376
0.0882403
0.0908462
0.0933573
0.0957759
0.098104
0.100344
0.102498
0.104567
0.106552
0.108454
0.110273
0.112006
0.113653
0.115208
0.116665
0.118015
0.119246
0.120341
0.121276
0.122022
0.122521
0.122746
0.122631
0.12209
0.12103
0.116439
0.107284
0.0980455
0.0888443
0.0797792
0.0709258
0.0623523
0.0541181
0.046284
0.0389096
0.0320284
0.0260247
0.0202611
0.015575
0.0110568
0.00743131
0.00468164
0.00275206
0.00151115
0.000780891
0.000383747
0.000182568
8.48939e-05
3.87559e-05
1.74207e-05
7.72236e-06
3.37558e-06
1.4503e-06
6.06194e-07
2.39529e-07
8.17504e-08
1.44683e-08
5.23747e-07
2.28803e-06
5.25122e-06
1.02068e-05
1.84459e-05
3.20412e-05
5.42655e-05
9.01872e-05
0.000147477
0.00023743
0.000376142
0.000585674
0.000894848
0.00133922
0.00195964
0.00279914
0.00389897
0.00529174
0.00699882
0.0090259
0.0113664
0.0140008
0.0169012
0.0200324
0.0233583
0.0268422
0.0304456
0.0341352
0.0378793
0.0416491
0.0454186
0.049165
0.0528684
0.0565115
0.0600797
0.0635627
0.0669547
0.0702519
0.0734515
0.0765514
0.0795511
0.0824507
0.0852509
0.0879532
0.0905594
0.0930715
0.0954917
0.0978222
0.100065
0.102222
0.104295
0.106285
0.108193
0.110017
0.111757
0.11341
0.114972
0.116437
0.117795
0.119033
0.120135
0.121077
0.121825
0.122322
0.122536
0.122391
0.121791
0.120623
0.117274
0.108203
0.0990135
0.0898325
0.0807628
0.0718933
0.0632942
0.0550259
0.047143
0.0397008
0.0327503
0.0266805
0.0208955
0.0161211
0.011508
0.00777364
0.00493318
0.00292087
0.00161427
0.000838509
0.000413605
0.000197112
9.175e-05
4.19085e-05
1.88418e-05
8.3522e-06
3.65032e-06
1.56798e-06
6.55228e-07
2.58857e-07
8.83384e-08
1.56339e-08
5.22724e-07
2.28347e-06
5.24031e-06
1.01843e-05
1.84024e-05
3.19599e-05
5.41171e-05
8.99219e-05
0.000147011
0.000236625
0.000374778
0.000583402
0.000891139
0.0013333
0.00195047
0.00278541
0.00387779
0.00526065
0.0069564
0.00897027
0.0112954
0.013913
0.0167927
0.0199025
0.0232107
0.0266731
0.0302565
0.033927
0.0376529
0.0414057
0.0451597
0.048892
0.0525828
0.0562149
0.0597736
0.0632484
0.066633
0.0699237
0.0731177
0.0762131
0.0792092
0.0821061
0.0849048
0.0876064
0.0902127
0.0927258
0.0951479
0.097481
0.0997273
0.101889
0.103967
0.105962
0.107876
0.109708
0.111457
0.11312
0.114693
0.11617
0.117542
0.118797
0.11992
0.120885
0.121664
0.122204
0.122462
0.122375
0.121844
0.120756
0.118493
0.109439
0.100254
0.0910642
0.0819775
0.0730831
0.0644434
0.0561244
0.0481851
0.0406852
0.033654
0.027394
0.0217029
0.0167777
0.0120342
0.00819949
0.00524836
0.00313466
0.00174611
0.000912735
0.000452274
0.000215986
0.000100655
4.60032e-05
2.06868e-05
9.16942e-06
4.00657e-06
1.72049e-06
7.18747e-07
2.83889e-07
9.68701e-08
1.71437e-08
5.21568e-07
2.27831e-06
5.22793e-06
1.01587e-05
1.83528e-05
3.18669e-05
5.39471e-05
8.96174e-05
0.000146475
0.0002357
0.000373206
0.000580778
0.000886843
0.00132642
0.00193971
0.00276902
0.00385425
0.005228
0.00690945
0.00890655
0.0112117
0.0138098
0.0166696
0.0197584
0.0230402
0.0264789
0.0300392
0.0336873
0.0373921
0.041125
0.0448605
0.048576
0.0522519
0.0558709
0.0594184
0.0628834
0.0662593
0.0695424
0.0727299
0.0758199
0.0788117
0.0817056
0.0845021
0.0872028
0.0898092
0.0923234
0.0947475
0.0970836
0.0993338
0.1015
0.103584
0.105587
0.107509
0.10935
0.111109
0.112784
0.114371
0.115865
0.117258
0.118539
0.119693
0.120699
0.121532
0.122151
0.122508
0.122559
0.122222
0.121397
0.119907
0.110942
0.101805
0.092623
0.0835135
0.0745667
0.0658676
0.0574803
0.0494623
0.0418713
0.0347314
0.0283294
0.0225558
0.0175148
0.0126758
0.008716
0.00563449
0.0033994
0.00191113
0.00100649
0.000501441
0.000240056
0.000112026
5.12338e-05
2.30431e-05
1.02126e-05
4.46099e-06
1.91489e-06
7.9967e-07
3.15768e-07
1.07734e-07
1.90659e-08
5.20344e-07
2.27283e-06
5.21473e-06
1.01313e-05
1.82993e-05
3.17663e-05
5.37624e-05
8.92852e-05
0.000145889
0.000234684
0.000371477
0.000577885
0.000882095
0.00131879
0.00192773
0.00275075
0.00382726
0.00518935
0.00685749
0.00883881
0.0111271
0.0137004
0.0165353
0.0195994
0.0228534
0.026265
0.0297989
0.0334217
0.0371022
0.0408124
0.0445268
0.0482231
0.0518815
0.0554852
0.0590196
0.0624732
0.0658389
0.069113
0.0722927
0.0753762
0.078363
0.081253
0.084047
0.0867462
0.0893525
0.0918676
0.0942937
0.096633
0.0988875
0.101059
0.10315
0.10516
0.107091
0.108943
0.110714
0.112403
0.114007
0.115521
0.116937
0.118247
0.119436
0.120488
0.12138
0.122083
0.12255
0.122755
0.122645
0.122154
0.12122
0.112756
0.103591
0.0943777
0.0852281
0.0762364
0.0674853
0.0590455
0.0509538
0.0432741
0.036046
0.0295211
0.0236392
0.0184562
0.0134643
0.00934477
0.00610551
0.0037248
0.00211599
0.001124
0.000563534
0.000270565
0.000126464
5.78795e-05
2.60367e-05
1.15371e-05
5.03758e-06
2.16135e-06
9.02186e-07
3.5613e-07
1.21484e-07
2.1499e-08
5.19132e-07
2.26738e-06
5.20154e-06
1.01037e-05
1.8245e-05
3.16631e-05
5.35715e-05
8.89397e-05
0.000145276
0.000233616
0.000369649
0.000574814
0.000877037
0.00131063
0.00191491
0.00273113
0.00379819
0.00514761
0.00679958
0.00876049
0.011023
0.0135746
0.0163838
0.0194192
0.0226466
0.0260305
0.0295366
0.0331319
0.036786
0.040471
0.0441619
0.0478365
0.0514754
0.0550617
0.058581
0.0620215
0.0653754
0.0686391
0.0718099
0.074886
0.0778667
0.080752
0.0835427
0.0862401
0.0888458
0.0913616
0.0937897
0.0961321
0.098391
0.100568
0.102666
0.104684
0.106625