/*--------------------------------*- C++ -*----------------------------------*\
  =========                 |
  \\      /  F ield         | OpenFOAM: The Open Source CFD Toolbox
   \\    /   O peration     | Website:  https://openfoam.org
    \\  /    A nd           | Version:  8
     \\/     M anipulation  |
\*---------------------------------------------------------------------------*/
FoamFile
{
    version     2.0;
    format      ascii;
    class       volScalarField;
    location    "80/fluid";
    object      H2O;
}
// * * * * * * * * * * * * * * * * * * * * * * * * * * * * * * * * * * * * * //

dimensions      [0 0 0 0 0 0 0];

internalField   nonuniform List<scalar> 
4000
(
4.35915e-07
1.90201e-06
4.3544e-06
8.43361e-06
1.51764e-05
2.62405e-05
4.4237e-05
7.31984e-05
0.000119205
0.000191156
0.000301611
0.000467537
0.000710672
0.00105715
0.00153605
0.00217691
0.00300639
0.00404515
0.00530537
0.00678978
0.00849196
0.0103979
0.0124885
0.0147408
0.0171299
0.0196313
0.0222223
0.024881
0.0275859
0.0303161
0.0330588
0.0357956
0.0385179
0.0412157
0.0438803
0.0465039
0.04908
0.0516035
0.0540703
0.0564775
0.0588238
0.0611087
0.0633323
0.065495
0.0675974
0.0696403
0.0716244
0.0735508
0.0754204
0.0772343
0.0789932
0.080698
0.0823493
0.0839474
0.0854925
0.0869842
0.0884218
0.0898039
0.0911284
0.0923923
0.0935915
0.0947205
0.0957717
0.0967353
0.0975984
0.0983443
0.0989507
0.0993863
0.0996162
0.0995946
0.0992544
0.098517
0.0969425
0.089845
0.0826071
0.075309
0.0680219
0.0608077
0.0537162
0.0468489
0.0402519
0.0339756
0.0281387
0.0226786
0.017917
0.0134229
0.00952675
0.00632014
0.00386711
0.00216234
0.0011041
0.000520843
0.000234213
0.000101862
4.32285e-05
1.7959e-05
7.26778e-06
2.79572e-06
9.36955e-07
1.64494e-07
4.32314e-07
1.88585e-06
4.31616e-06
8.35774e-06
1.50384e-05
2.6002e-05
4.38346e-05
7.25259e-05
0.000118084
0.000189297
0.000298568
0.00046267
0.00070315
0.00104603
0.00152046
0.00215632
0.00298089
0.00401566
0.00527357
0.0067581
0.0084632
0.0103747
0.0124724
0.0147333
0.0171344
0.0196511
0.0222582
0.0249309
0.0276485
0.0303972
0.0331524
0.0359081
0.0386427
0.041353
0.0440291
0.0466628
0.0492475
0.0517779
0.05425
0.0566612
0.0590104
0.0612975
0.0635225
0.0656859
0.0677885
0.0698309
0.0718143
0.0737395
0.0756077
0.0774198
0.0791768
0.0808796
0.0825286
0.0841244
0.0856671
0.0871563
0.0885913
0.0899706
0.0912924
0.0925534
0.0937496
0.0948753
0.0959231
0.0968833
0.0977429
0.0984852
0.0990882
0.0995191
0.0997416
0.0997013
0.0993163
0.098462
0.0957121
0.0885545
0.0812527
0.0738929
0.0665454
0.0592956
0.0522265
0.0453652
0.0387821
0.0325304
0.0267838
0.0213725
0.0166311
0.0121137
0.00832306
0.00531709
0.00312143
0.00167749
0.000831314
0.000388741
0.000175074
7.67401e-05
3.29653e-05
1.39038e-05
5.71665e-06
2.23143e-06
7.56341e-07
1.33583e-07
4.29749e-07
1.8752e-06
4.29387e-06
8.31956e-06
1.49789e-05
2.59127e-05
4.37012e-05
7.23204e-05
0.000117751
0.000188733
0.000297597
0.000461019
0.000700443
0.00104181
0.00151433
0.00214807
0.00297087
0.00400457
0.00526255
0.00674815
0.00845608
0.0103728
0.0124785
0.0147532
0.0171703
0.0197031
0.022326
0.0250221
0.0277661
0.0305343
0.0333152
0.0360876
0.0388516
0.0415877
0.0442863
0.0469396
0.0495412
0.052086
0.0545698
0.0569906
0.0593476
0.0616408
0.0638705
0.0660373
0.068142
0.0701856
0.0721692
0.0740938
0.0759607
0.0777709
0.0795255
0.0812254
0.0828712
0.0844633
0.086002
0.0874868
0.0889171
0.0902914
0.0916076
0.0928624
0.0940516
0.0951693
0.0962078
0.0971571
0.098004
0.0987321
0.0993206
0.0997403
0.0999667
0.0999729
0.0997266
0.0992143
0.0937934
0.0865076
0.079125
0.0717298
0.0644015
0.0571888
0.0501351
0.0432653
0.0367202
0.0305381
0.0249305
0.0199028
0.0149672
0.0107298
0.00724306
0.00454839
0.00263449
0.00140568
0.000695519
0.000325423
0.000146804
6.4463e-05
2.77105e-05
1.1676e-05
4.7909e-06
1.86577e-06
6.31212e-07
1.11375e-07
4.27135e-07
1.86399e-06
4.26906e-06
8.27358e-06
1.48999e-05
2.5782e-05
4.3489e-05
7.19811e-05
0.00011722
0.000187921
0.000296391
0.000459301
0.000698118
0.00103888
0.00151091
0.00214447
0.00296732
0.00400192
0.0052625
0.00675332
0.00846753
0.010395
0.0125172
0.0148065
0.0172372
0.0197916
0.0224423
0.0251567
0.0279259
0.0307235
0.0335286
0.0363386
0.0391305
0.0418927
0.0446155
0.0472907
0.0499118
0.0524734
0.0549717
0.0574048
0.0597722
0.062074
0.0643106
0.0664827
0.0685913
0.0706375
0.0726223
0.0745472
0.0764132
0.0782217
0.0799738
0.0816704
0.0833123
0.0848998
0.0864333
0.0879122
0.0893359
0.0907027
0.0920103
0.0932552
0.0944327
0.0955363
0.0965571
0.0974837
0.0983007
0.0989878
0.0995175
0.0998518
0.0999569
0.0997774
0.0992545
0.0983459
0.0912031
0.0838547
0.0764111
0.0689632
0.0615941
0.0543776
0.0473903
0.0407332
0.0343751
0.0283941
0.0228102
0.0179534
0.0133201
0.00938576
0.00620538
0.00380686
0.0021534
0.0011252
0.000548183
0.000255028
0.000114959
5.06094e-05
2.18549e-05
9.25932e-06
3.82007e-06
1.49458e-06
5.07255e-07
8.96342e-08
4.25252e-07
1.85605e-06
4.25205e-06
8.24364e-06
1.48521e-05
2.57098e-05
4.33838e-05
7.18311e-05
0.000117009
0.000187631
0.000296011
0.000458833
0.000697599
0.00103837
0.00151066
0.00214514
0.00297045
0.00400947
0.00527634
0.00677406
0.00850182
0.0104431
0.0125763
0.0148863
0.0173486
0.0199262
0.0225964
0.0253438
0.0281317
0.0309569
0.0338026
0.0366422
0.0394622
0.0422509
0.0449982
0.0476957
0.0503367
0.0529156
0.0554288
0.057875
0.0602536
0.0625649
0.0648092
0.0669874
0.0691005
0.0711496
0.0731361
0.0750614
0.0769267
0.0787334
0.0804827
0.0821756
0.0838128
0.0853949
0.086922
0.0883938
0.0898091
0.0911665
0.0924631
0.0936953
0.0948577
0.0959431
0.0969418
0.0978409
0.0986228
0.0992641
0.0997274
0.0999702
0.0999319
0.0995075
0.0985292
0.095753
0.0884865
0.0810708
0.073613
0.066202
0.0589069
0.0517834
0.0448634
0.038252
0.0319866
0.0263349
0.0209103
0.0162094
0.0118476
0.00820206
0.0053165
0.00319631
0.00177592
0.000915795
0.000442795
0.000205623
9.2719e-05
4.08702e-05
1.76762e-05
7.49962e-06
3.0976e-06
1.21282e-06
4.1176e-07
7.2761e-08
4.23804e-07
1.84994e-06
4.239e-06
8.22082e-06
1.48164e-05
2.56585e-05
4.33157e-05
7.17476e-05
0.000116914
0.00018753
0.00029592
0.000458816
0.000697843
0.00103936
0.00151325
0.00215054
0.00298021
0.00402561
0.00529957
0.00681134
0.00855228
0.010508
0.0126683
0.0150025
0.0174817
0.0200834
0.022787
0.0255572
0.0283874
0.031248
0.0341201
0.0369867
0.0398333
0.0426473
0.0454182
0.0481375
0.0507979
0.0533937
0.0559218
0.0583812
0.0607713
0.0630923
0.0653447
0.0675292
0.069647
0.0716994
0.0736877
0.0756134
0.0774779
0.0792826
0.0810287
0.0827174
0.0843494
0.0859253
0.087445
0.0889082
0.0903136
0.0916595
0.0929428
0.0941592
0.095303
0.096366
0.0973377
0.0982041
0.0989474
0.0995449
0.0999624
0.100179
0.100166
0.0998953
0.0993782
0.09315
0.0857123
0.0781944
0.0706811
0.0632434
0.0559589
0.0489145
0.0421958
0.0357796
0.0297313
0.0242403
0.0193552
0.0146328
0.0105263
0.00715546
0.00454473
0.0026757
0.00145841
0.000740627
0.000354952
0.000164233
7.40064e-05
3.26634e-05
1.41606e-05
6.02522e-06
2.49548e-06
9.79237e-07
3.32922e-07
5.88608e-08
4.22957e-07
1.84647e-06
4.23205e-06
8.21004e-06
1.48025e-05
2.56442e-05
4.33058e-05
7.17531e-05
0.00011696
0.000187677
0.00029629
0.000459635
0.000699502
0.00104248
0.00151877
0.00215986
0.0029952
0.00404685
0.00533359
0.00685769
0.00861267
0.0105937
0.0127736
0.0151245
0.0176323
0.020268
0.0229953
0.0258061
0.0286676
0.0315584
0.0344593
0.0373534
0.040226
0.0430644
0.0458579
0.0485975
0.0512758
0.0538875
0.0564298
0.0589018
0.0613028
0.0636331
0.065893
0.0680835
0.0702057
0.0722609
0.0742506
0.0761764
0.0780397
0.079842
0.0815845
0.0832685
0.0848946
0.0864634
0.0879748
0.0894283
0.0908227
0.0921555
0.0934236
0.094622
0.0957439
0.0967802
0.0977181
0.0985408
0.0992254
0.0997379
0.100036
0.100076
0.0997748
0.0990302
0.0976332
0.0903432
0.0828907
0.0753867
0.0679253
0.0605888
0.0534307
0.0464816
0.039846
0.0335691
0.0276985
0.0224093
0.0177432
0.013187
0.00934617
0.00624329
0.00389021
0.0022475
0.00120529
0.000604787
0.000288331
0.000133117
5.99683e-05
2.6489e-05
1.14997e-05
4.90065e-06
2.03266e-06
7.9849e-07
2.71633e-07
4.8032e-08
4.22625e-07
1.84522e-06
4.23004e-06
8.20827e-06
1.48038e-05
2.56548e-05
4.33402e-05
7.18399e-05
0.000117154
0.000188074
0.000297061
0.000461071
0.000702084
0.00104697
0.0015263
0.00217203
0.00301405
0.00407594
0.00537431
0.00691141
0.00868982
0.0106913
0.0128906
0.0152758
0.0178124
0.0204696
0.0232357
0.0260754
0.0289653
0.0318839
0.0348118
0.0377319
0.040629
0.0434902
0.0463047
0.0490631
0.0517579
0.054384
0.0569395
0.0594231
0.0618341
0.0641728
0.0664395
0.0686353
0.0707612
0.0728188
0.0748094
0.0767347
0.0785963
0.0803956
0.082134
0.0838126
0.0854322
0.0869932
0.0884955
0.0899384
0.0913205
0.0926392
0.0938908
0.0950699
0.0961691
0.0971784
0.0980842
0.0988685
0.0995068
0.0999577
0.100185
0.100128
0.099689
0.0987191
0.094969
0.0876419
0.0801668
0.0726594
0.0652133
0.0579168
0.0508496
0.0440851
0.0376246
0.0315471
0.0259665
0.0207094
0.0162568
0.0119342
0.00833025
0.00546761
0.00334339
0.00189693
0.00100183
0.000497044
0.000235788
0.000108623
4.8919e-05
2.16269e-05
9.40304e-06
4.01415e-06
1.66768e-06
6.55941e-07
2.23303e-07
3.94945e-08
4.22732e-07
1.84586e-06
4.23233e-06
8.21501e-06
1.4821e-05
2.56946e-05
4.34253e-05
7.20115e-05
0.000117484
0.000188689
0.000298173
0.00046303
0.000705449
0.00105259
0.00153545
0.00218642
0.00303464
0.00410759
0.00541744
0.00697461
0.00877075
0.0107897
0.0130197
0.015431
0.0179909
0.0206858
0.0234799
0.0263479
0.0292658
0.0322117
0.0351657
0.0381105
0.0410308
0.0439134
0.0467472
0.0495227
0.0522324
0.0548719
0.0574393
0.0599333
0.0623533
0.0646994
0.0669721
0.0691723
0.0713013
0.0733604
0.0753513
0.0772756
0.0791349
0.0809307
0.0826644
0.0843371
0.0859496
0.0875023
0.0889948
0.0904265
0.0917954
0.0930989
0.0943326
0.0954907
0.0965649
0.0975444
0.0984145
0.0991565
0.0997465
0.100148
0.100341
0.100291
0.099967
0.0993722
0.0927422
0.0852758
0.0777573
0.0702766
0.0629089
0.0557078
0.0487156
0.0420205
0.0356607
0.0296794
0.0244304
0.0192663
0.014928
0.0108215
0.00744286
0.00480439
0.00288718
0.00161179
0.000840103
0.000412929
0.000195134
8.97512e-05
4.04134e-05
1.78795e-05
7.78302e-06
3.3271e-06
1.38399e-06
5.44873e-07
1.85589e-07
3.28284e-08
4.23225e-07
1.84819e-06
4.23845e-06
8.22903e-06
1.4851e-05
2.57558e-05
4.35455e-05
7.22399e-05
0.000117906
0.000189448
0.000299508
0.000465327
0.000709309
0.00105892
0.00154556
0.00220216
0.00305935
0.00414309
0.00546808
0.00704164
0.00885879
0.0109024
0.0131553
0.0155921
0.0181841
0.0209046
0.0237256
0.0266205
0.0295648
0.0325363
0.0355148
0.0384827
0.0414244
0.0443265
0.0471778
0.0499686
0.0526917
0.0553433
0.0579214
0.0604247
0.0628526
0.0652051
0.0674828
0.0696866
0.0718178
0.0738778
0.0758684
0.0777911
0.0796476
0.0814395
0.0831681
0.0848345
0.0864394
0.0879832
0.0894656
0.0908854
0.0922407
0.0935284
0.0947435
0.0958794
0.0969268
0.0978729
0.0987003
0.0993856
0.0998935
0.100183
0.100207
0.0998867
0.099122
0.0977148
0.0903967
0.0829205
0.0754026
0.0679393
0.0606124
0.0534914
0.0466394
0.0400739
0.0338482
0.0280056
0.0228602
0.0181979
0.0136795
0.00982462
0.00667189
0.00424238
0.00250954
0.00138083
0.000711429
0.000346854
0.000163375
7.50418e-05
3.37859e-05
1.49571e-05
6.51799e-06
2.78977e-06
1.16181e-06
4.57797e-07
1.56005e-07
2.75989e-08
4.23995e-07
1.85171e-06
4.24724e-06
8.2481e-06
1.48899e-05
2.5832e-05
4.36903e-05
7.25078e-05
0.00011839
0.000190306
0.000300994
0.000467846
0.000713484
0.00106566
0.00155604
0.0022177
0.00308314
0.0041763
0.0055163
0.00710595
0.00893954
0.011008
0.0132849
0.0157443
0.0183662
0.0211149
0.0239632
0.0268845
0.0298543
0.0328501
0.0358516
0.0388408
0.0418023
0.0447223
0.0475894
0.0503938
0.0531289
0.0557913
0.0583789
0.0608904
0.0633251
0.0656831
0.0679649
0.0701715
0.0723042
0.0743645
0.0763542
0.0782748
0.0801281
0.0819157
0.0836389
0.0852987
0.0868959
0.0884307
0.0899027
0.0913106
0.0926523
0.0939243
0.0951215
0.0962366
0.0972596
0.0981768
0.0989695
0.0996121
0.10006
0.100278
0.1002
0.0997203
0.0986883
0.0956046
0.0882837
0.0808248
0.0733481
0.0659465
0.0586928
0.051647
0.0448608
0.0383693
0.0322437
0.0265119
0.0214985
0.0170657
0.012684
0.00899785
0.00602651
0.00377513
0.00220024
0.0011949
0.00060943
0.000295103
0.000138623
6.35987e-05
2.86299e-05
1.2681e-05
5.53093e-06
2.36969e-06
9.87789e-07
3.89501e-07
1.32782e-07
2.34928e-08
4.2494e-07
1.85597e-06
4.25769e-06
8.27023e-06
1.49339e-05
2.59166e-05
4.38482e-05
7.2796e-05
0.000118906
0.000191209
0.000302548
0.000470473
0.000717843
0.00107276
0.0015674
0.00223557
0.00310928
0.00421435
0.00556752
0.00717433
0.00902932
0.0111178
0.0134183
0.0159043
0.0185481
0.0213205
0.0241927
0.0271379
0.030131
0.033149
0.0361714
0.0391802
0.0421595
0.0450956
0.0479767
0.0507933
0.0535391
0.0562111
0.0588071
0.0613257
0.0637663
0.0661288
0.0684139
0.0706226
0.0727562
0.0748164
0.0768047
0.0787229
0.0805727
0.0823557
0.0840732
0.0857263
0.0873156
0.0888413
0.0903028
0.0916988
0.0930268
0.0942833
0.0954628
0.0965579
0.0975587
0.0984517
0.0992195
0.0998387
0.100271
0.100492
0.100464
0.100125
0.0994183
0.0939668
0.0865007
0.0789685
0.0714627
0.0640636
0.0568399
0.0498517
0.0431553
0.036803
0.0308404
0.0252674
0.0203309
0.0159964
0.0117861
0.00827357
0.0054738
0.00338331
0.0019461
0.00104485
0.000528189
0.000254629
0.0001193
5.46676e-05
2.46025e-05
1.09005e-05
4.75751e-06
2.03995e-06
8.5098e-07
3.35746e-07
1.14493e-07
2.02583e-08
4.25969e-07
1.86059e-06
4.26887e-06
8.2936e-06
1.49799e-05
2.60036e-05
4.4009e-05
7.30867e-05
0.000119421
0.000192105
0.000304081
0.000473045
0.000722077
0.00107957
0.00157811
0.00225194
0.00313339
0.00424873
0.00561481
0.00723753
0.00911182
0.0112197
0.0135416
0.0160511
0.0187174
0.0215126
0.0244076
0.027375
0.0303894
0.0334277
0.0364692
0.0394956
0.0424908
0.045441
0.0483344
0.0511617
0.0539171
0.0565975
0.0592009
0.0617257
0.0641712
0.0665375
0.0688253
0.0710355
0.0731696
0.0752292
0.0772158
0.0791315
0.0809777
0.0827561
0.084468
0.0861144
0.0876959
0.0892124
0.0906634
0.0920473
0.0933613
0.0946015
0.0957621
0.0968349
0.0978094
0.0986711
0.0994014
0.0999762
0.100356
0.100522
0.100429
0.100028
0.0992836
0.0923641
0.0848631
0.0773283
0.0698499
0.0624997
0.0553366
0.04841
0.0417816
0.0354978
0.0296268
0.0241702
0.0193458
0.0151306
0.0110448
0.00767062
0.00501431
0.0030604
0.00173933
0.000924406
0.000463736
0.00022274
0.000104142
4.76738e-05
2.14487e-05
9.50491e-06
4.15032e-06
1.78064e-06
7.43229e-07
2.93359e-07
1.00061e-07
1.77056e-08
4.26999e-07
1.8652e-06
4.27997e-06
8.31662e-06
1.50247e-05
2.6088e-05
4.41637e-05
7.33647e-05
0.000119911
0.000192954
0.000305523
0.000475456
0.000726027
0.00108591
0.00158803
0.00226704
0.00315566
0.00428066
0.00565778
0.0072935
0.00918166
0.01131
0.013653
0.0161841
0.0188721
0.0216886
0.0246047
0.0275925
0.0306264
0.033683
0.0367416
0.0397836
0.0427929
0.0457556
0.0486598
0.0514964
0.0542602
0.0569481
0.0595578
0.0620878
0.0645375
0.0669069
0.0691968
0.0714081
0.0735423
0.0756009
0.0775858
0.0794988
0.0813414
0.0831153
0.0848217
0.0864617
0.0880357
0.0895435
0.0909844
0.0923564
0.0936566
0.0948804
0.0960213
0.0970703
0.0980151
0.0988395
0.0995215
0.10003
0.100324
0.100368
0.100091
0.0994085
0.0981943
0.0908513
0.0833557
0.0758273
0.0683639
0.0610457
0.0539367
0.047092
0.0405453
0.034344
0.0285412
0.0231754
0.0184893
0.0143909
0.0104173
0.00716422
0.00463189
0.00279476
0.00157142
0.00082778
0.000412535
0.000197537
9.21975e-05
4.21699e-05
1.89676e-05
8.40647e-06
3.67201e-06
1.57615e-06
6.58169e-07
2.59872e-07
8.86542e-08
1.56877e-08
4.27966e-07
1.86952e-06
4.29031e-06
8.33798e-06
1.50661e-05
2.61655e-05
4.43054e-05
7.36182e-05
0.000120356
0.000193723
0.000306828
0.000477629
0.000729581
0.0010916
0.00159693
0.00228062
0.00317517
0.00430765
0.00569648
0.00734588
0.00925021
0.011394
0.0137529
0.0163003
0.0190096
0.0218457
0.0247807
0.0277868
0.030838
0.0339109
0.0369844
0.04004
0.0430616
0.046035
0.0489483
0.051793
0.0545639
0.057258
0.059873
0.0624074
0.0648606
0.0672326
0.0695241
0.0717361
0.0738702
0.075928
0.0779112
0.0798216
0.0816609
0.0834307
0.0851323
0.0867664
0.0883337
0.0898337
0.0912655
0.0926269
0.0939147
0.0951237
0.0962468
0.0972739
0.0981915
0.0989812
0.0996182
0.100061
0.100277
0.100211
0.0997808
0.0988809
0.0970283
0.0896284
0.0821172
0.0746017
0.0671668
0.0598799
0.0528085
0.0460063
0.0395202
0.0333902
0.0276752
0.022442
0.0176471
0.0137003
0.00985607
0.00672665
0.00430939
0.00257504
0.00143481
0.000750199
0.000371825
0.000177594
8.27706e-05
3.78314e-05
1.70124e-05
7.54073e-06
3.29482e-06
1.41479e-06
5.91003e-07
2.33416e-07
7.96404e-08
1.4093e-08
4.28815e-07
1.8733e-06
4.29938e-06
8.35665e-06
1.51023e-05
2.62331e-05
4.44286e-05
7.38384e-05
0.000120743
0.000194389
0.000307959
0.000479512
0.000732655
0.0010965
0.00160453
0.00229196
0.00319263
0.00433321
0.00573129
0.00739163
0.00930888
0.0114671
0.0138426
0.0164073
0.0191315
0.0219843
0.0249351
0.0279566
0.0310224
0.034109
0.0371952
0.0402623
0.0432942
0.0462768
0.0491981
0.0520496
0.0548266
0.057526
0.0601455
0.0626835
0.0651394
0.0675134
0.0698061
0.0720186
0.0741524
0.0762091
0.0781907
0.0800988
0.0819351
0.0837013
0.0853986
0.0870278
0.0885894
0.090083
0.0915075
0.0928607
0.0941391
0.0953374
0.096448
0.0974607
0.0983612
0.0991304
0.0997429
0.100152
0.100332
0.100223
0.0997377
0.0987686
0.0960156
0.0885908
0.0810638
0.0735448
0.0661219
0.0588662
0.0518297
0.0450643
0.0386112
0.0325237
0.0268864
0.021885
0.0170906
0.0132045
0.00942459
0.0063746
0.00404804
0.00239767
0.00132545
0.000688627
0.000339738
0.000161926
7.53766e-05
3.44306e-05
1.54799e-05
6.86185e-06
2.99888e-06
1.28811e-06
5.38247e-07
2.12629e-07
7.25571e-08
1.28399e-08
4.29509e-07
1.8764e-06
4.30678e-06
8.3719e-06
1.51318e-05
2.62882e-05
4.45292e-05
7.40186e-05
0.00012106
0.000194938
0.000308892
0.000481076
0.000735228
0.00110066
0.00161109
0.00230211
0.00320736
0.00435395
0.00575944
0.00742971
0.00935778
0.0115275
0.0139167
0.016495
0.0192322
0.0220995
0.0250643
0.0280985
0.0311762
0.0342737
0.0373698
0.0404459
0.0434857
0.0464753
0.0494027
0.0522599
0.0550421
0.057746
0.0603693
0.0629103
0.0653685
0.0677441
0.0700378
0.0722506
0.0743842
0.0764401
0.0784203
0.0803265
0.0821604
0.0839237
0.0856176
0.0872429
0.0888002
0.090289
0.0917082
0.0930558
0.0943281
0.0955201
0.0966242
0.0976303
0.0985246
0.0992886
0.0998978
0.100307
0.100496
0.100411
0.0999758
0.0991016
0.0953358
0.0878489
0.0802914
0.0727617
0.06534
0.058092
0.0510725
0.0443296
0.0379136
0.0318675
0.0262337
0.0213441
0.0165843
0.0127638
0.00906822
0.00609301
0.00383955
0.00225747
0.00123977
0.00064075
0.000314921
0.000149834
6.96751e-05
3.18086e-05
1.42979e-05
6.33796e-06
2.77037e-06
1.19024e-06
4.97474e-07
1.96561e-07
6.70814e-08
1.18713e-08
4.30024e-07
1.8787e-06
4.31229e-06
8.38325e-06
1.51537e-05
2.63294e-05
4.46047e-05
7.41542e-05
0.000121299
0.000195354
0.000309604
0.000482274
0.000737209
0.00110386
0.00161615
0.00230987
0.00321883
0.00437066
0.00578256
0.00746067
0.009398
0.0115779
0.0139765
0.0165661
0.0193146
0.022191
0.0251662
0.0282103
0.0312971
0.0344027
0.0375061
0.0405884
0.0436335
0.0466273
0.0495597
0.0524227
0.0552098
0.0579178
0.0605443
0.0630878
0.0655478
0.0679246
0.0702188
0.0724318
0.0745649
0.07662
0.0785989
0.0805034
0.0823353
0.0840962
0.0857874
0.0874097
0.0889636
0.0904489
0.0918646
0.0932085
0.0944773
0.095666
0.0967676
0.0977724
0.0986672
0.0994346
0.100051
0.100478
0.100692
0.10065
0.100291
0.0995352
0.0948781
0.0873161
0.0797142
0.0721624
0.0647358
0.0574953
0.0504947
0.0437818
0.0374004
0.0313881
0.0257894
0.0209035
0.0161935
0.0124267
0.00878481
0.00587715
0.00368196
0.00215194
0.00117559
0.000605036
0.000296455
0.000140843
6.5436e-05
2.98586e-05
1.34186e-05
5.94815e-06
2.60032e-06
1.11741e-06
4.6714e-07
1.8461e-07
6.30104e-08
1.11513e-08
4.30352e-07
1.88016e-06
4.31579e-06
8.39049e-06
1.51678e-05
2.6356e-05
4.46536e-05
7.42427e-05
0.000121457
0.000195631
0.000310084
0.000483092
0.000738578
0.00110611
0.00161974
0.00231541
0.0032271
0.00438256
0.00579931
0.00748277
0.00942663
0.0116139
0.0140204
0.0166171
0.0193734
0.0222575
0.0252388
0.028289
0.0313815
0.0344919
0.0375991
0.0406841
0.043731
0.0467275
0.0496634
0.0525305
0.0553221
0.0580338
0.0606632
0.0632089
0.0656705
0.0680483
0.0703431
0.0725562
0.0746892
0.0767437
0.0787217
0.080625
0.0824555
0.0842146
0.0859038
0.0875239
0.0890755
0.0905583
0.0919713
0.0933127
0.0945792
0.0957661
0.0968667
0.0978716
0.0987684
0.0995403
0.100165
0.100606
0.10084
0.100831
0.100521
0.0998416
0.0945794
0.0869701
0.07934
0.0717736
0.064341
0.0571022
0.0501085
0.0434056
0.0370372
0.0310471
0.0254678
0.020624
0.0159355
0.0122018
0.00859407
0.00572373
0.00357185
0.00207895
0.00113149
0.000580606
0.000283871
0.000134731
6.25584e-05
2.85363e-05
1.28227e-05
5.68417e-06
2.48525e-06
1.06817e-06
4.46652e-07
1.76548e-07
6.02672e-08
1.06666e-08
4.305e-07
1.88082e-06
4.31737e-06
8.39377e-06
1.51742e-05
2.63681e-05
4.46761e-05
7.42838e-05
0.000121531
0.000195762
0.000310314
0.00048349
0.000739255
0.00110724
0.00162158
0.00231833
0.00323159
0.00438907
0.00580838
0.00749494
0.00944217
0.0116332
0.0140437
0.0166446
0.0194048
0.0222928
0.0252778
0.0283311
0.0314261
0.0345386
0.0376469
0.0407325
0.0437804
0.0467784
0.0497162
0.0525856
0.05538
0.0580944
0.0607257
0.0632726
0.065735
0.0681132
0.0704082
0.0726212
0.0747539
0.0768079
0.0787853
0.0806878
0.0825173
0.0842754
0.0859633
0.0875821
0.0891322
0.0906135
0.0920249
0.0933646
0.0946296
0.0958151
0.0969146
0.097919
0.0988159
0.099589
0.100217
0.100663
0.100902
0.100901
0.100603
0.0999396
0.0944068
0.0867797
0.0791393
0.0715683
0.0641355
0.0568989
0.049909
0.0432116
0.0368509
0.0308713
0.0253034
0.0204793
0.0158045
0.0120898
0.00850114
0.00564991
0.00351727
0.00204248
0.00110926
0.000568182
0.000277435
0.000131597
6.10823e-05
2.78581e-05
1.25173e-05
5.549e-06
2.42638e-06
1.04301e-06
4.3619e-07
1.72434e-07
5.88681e-08
1.04193e-08
4.30492e-07
1.88078e-06
4.31729e-06
8.39362e-06
1.5174e-05
2.63677e-05
4.46754e-05
7.42827e-05
0.000121529
0.00019576
0.000310311
0.000483484
0.000739245
0.00110722
0.00162155
0.00231827
0.00323149
0.00438893
0.00580816
0.00749462
0.00944171
0.0116326
0.0140428
0.0166435
0.0194035
0.0222913
0.0252761
0.0283293
0.0314241
0.0345364
0.0376446
0.0407301
0.043778
0.0467759
0.0497137
0.052583
0.0553774
0.0580918
0.0607231
0.0632701
0.0657326
0.068111
0.0704061
0.0726192
0.074752
0.0768061
0.0787835
0.0806861
0.0825157
0.0842738
0.0859618
0.0875806
0.0891307
0.0906119
0.0920234
0.0933631
0.0946281
0.0958137
0.0969133
0.097918
0.0988154
0.099589
0.100217
0.100664
0.100904
0.100903
0.100603
0.0999382
0.0944047
0.0867771
0.0791367
0.071566
0.0641335
0.0568973
0.0499075
0.0432101
0.0368489
0.0308691
0.0253014
0.0204772
0.0158028
0.0120884
0.00850023
0.00564919
0.00351676
0.00204218
0.0011091
0.00056811
0.000277408
0.000131588
6.1079e-05
2.7857e-05
1.25169e-05
5.54882e-06
2.4263e-06
1.04297e-06
4.36173e-07
1.72427e-07
5.88661e-08
1.04191e-08
4.3033e-07
1.88007e-06
4.31558e-06
8.3901e-06
1.51672e-05
2.63548e-05
4.46517e-05
7.42397e-05
0.000121452
0.000195623
0.000310071
0.000483071
0.000738542
0.00110605
0.00161963
0.00231523
0.00322681
0.00438211
0.00579863
0.00748174
0.00942517
0.011612
0.0140179
0.016614
0.0193699
0.0222536
0.0252348
0.0282849
0.0313774
0.0344881
0.0375955
0.0406808
0.0437279
0.0467244
0.0496603
0.0525273
0.0553188
0.0580303
0.0606596
0.0632052
0.0656667
0.0680445
0.0703393
0.0725523
0.0746852
0.0767397
0.0787177
0.080621
0.0824514
0.0842105
0.0858997
0.0875198
0.0890714
0.0905541
0.0919672
0.0933085
0.0945751
0.0957621
0.096863
0.0978685
0.0987662
0.0995392
0.100165
0.100607
0.100841
0.10083
0.100518
0.0998369
0.0945747
0.086964
0.0793336
0.071767
0.0643348
0.0570959
0.0501012
0.0433968
0.0370266
0.031037
0.0254577
0.0206191
0.0159302
0.0121964
0.00859163
0.00572193
0.00357054
0.00207794
0.00113078
0.000580179
0.000283637
0.000134613
6.25026e-05
2.85107e-05
1.28113e-05
5.67922e-06
2.48314e-06
1.06729e-06
4.46294e-07
1.76411e-07
6.02224e-08
1.0659e-08
4.29993e-07
1.87856e-06
4.31199e-06
8.38268e-06
1.51528e-05
2.63278e-05
4.46019e-05
7.41497e-05
0.000121292
0.000195342
0.000309585
0.000482242
0.000737153
0.00110377
0.00161598
0.00230958
0.00321834
0.00436982
0.0057813
0.00745887
0.00939554
0.0115747
0.0139725
0.0165613
0.0193092
0.0221851
0.0251597
0.0282038
0.0312905
0.0343961
0.0374993
0.0405814
0.0436263
0.0466199
0.0495522
0.052415
0.0552019
0.0579099
0.0605364
0.06308
0.0655402
0.067917
0.0702114
0.0724244
0.0745576
0.0766128
0.0785917
0.0804962
0.0823282
0.0840891
0.0857803
0.0874027
0.0889566
0.090442
0.0918577
0.0932017
0.0944708
0.0956601
0.0967626
0.0977687
0.0986651
0.0994343
0.100053
0.100479
0.100692
0.100646
0.100281
0.0995264
0.0948731
0.0873092
0.079708
0.0721577
0.0647306
0.0574879
0.0504829
0.0437663
0.0373827
0.0313742
0.0257703
0.0209043
0.0161886
0.0124179
0.0087784
0.00587173
0.00367809
0.00214928
0.00117399
0.000604161
0.000296011
0.000140631
6.53375e-05
2.98139e-05
1.33986e-05
5.93935e-06
2.59651e-06
1.11579e-06
4.66472e-07
1.84352e-07
6.2925e-08
1.11368e-08
4.29476e-07
1.87626e-06
4.30647e-06
8.37132e-06
1.51307e-05
2.62865e-05
4.45264e-05
7.40141e-05
0.000121052
0.000194925
0.000308871
0.000481038
0.00073516
0.00110054
0.00161088
0.00230175
0.00320677
0.00435302
0.00575798
0.00742757
0.00935483
0.0115236
0.0139118
0.0164892
0.0192253
0.0220916
0.0250562
0.0280902
0.0311678
0.0342654
0.0373616
0.0404378
0.0434777
0.0464672
0.0493946
0.0522517
0.0550338
0.0577376
0.0603608
0.0629017
0.0653599
0.0677353
0.0700289
0.0722416
0.074375
0.0764308
0.0784109
0.0803169
0.0821508
0.083914
0.0856078
0.0872331
0.0887904
0.0902793
0.0916987
0.0930466
0.0943195
0.0955122
0.0966177
0.0976255
0.0985219
0.0992879
0.099898
0.100306
0.100491
0.100397
0.0999543
0.0990864
0.0953278
0.0878326
0.080269
0.072736
0.0653145
0.0580663
0.0510473
0.044306
0.0378923
0.0318549
0.0262213
0.0213062
0.0165876
0.0127511
0.00905212
0.00608395
0.00383282
0.00225309
0.00123717
0.000639309
0.00031417
0.000149467
6.95019e-05
3.17291e-05
1.42622e-05
6.32223e-06
2.76356e-06
1.18735e-06
4.96286e-07
1.96101e-07
6.69284e-08
1.1845e-08
4.28787e-07
1.87319e-06
4.29913e-06
8.3562e-06
1.51015e-05
2.62318e-05
4.44267e-05
7.38355e-05
0.000120738
0.000194381
0.000307944
0.000479486
0.000732604
0.00109641
0.00160434
0.00229163
0.00319205
0.0043323
0.00572987
0.00738943
0.00930559
0.0114623
0.0138369
0.0164003
0.0191232
0.0219755
0.0249255
0.0279462
0.0310115
0.0340978
0.0371838
0.040251
0.0432829
0.0462655
0.0491867
0.0520382
0.0548152
0.0575146
0.0601341
0.062672
0.0651278
0.0675016
0.0697942
0.0720065
0.0741402
0.0761968
0.0781782
0.0800861
0.0819224
0.0836884
0.0853856
0.0870148
0.0885763
0.0900699
0.0914945
0.0928479
0.0941267
0.0953257
0.0964375
0.0974516
0.0983539
0.0991246
0.0997372
0.100144
0.100319
0.100201
0.0997093
0.098753
0.0960113
0.0885852
0.0810615
0.0735451
0.0661198
0.0588584
0.0518184
0.0450492
0.0385955
0.0325027
0.0268124
0.0218431
0.0171069
0.0131982
0.00942152
0.00636421
0.00403875
0.00239129
0.00132159
0.00068648
0.000338615
0.000161374
7.51149e-05
3.43101e-05
1.54256e-05
6.83787e-06
2.98848e-06
1.28369e-06
5.36429e-07
2.11924e-07
7.23218e-08
1.27994e-08
4.2795e-07
1.86945e-06
4.2902e-06
8.3378e-06
1.50659e-05
2.61653e-05
4.43052e-05
7.36183e-05
0.000120357
0.000193723
0.000306828
0.000477626
0.000729567
0.00109156
0.00159683
0.00228039
0.00317471
0.00430685
0.00569515
0.00734388
0.00924744
0.0113905
0.013748
0.016294
0.0190024
0.021837
0.0247707
0.0277757
0.0308261
0.0338985
0.0369718
0.0400274
0.0430491
0.0460227
0.0489362
0.0517809
0.0545519
0.0572459
0.0598608
0.062395
0.0648479
0.0672196
0.0695108
0.0717226
0.0738564
0.0759138
0.0778967
0.0798068
0.0816459
0.0834154
0.0851166
0.0867505
0.0883174
0.0898172
0.0912487
0.09261
0.0938977
0.095107
0.0962305
0.0972585
0.0981771
0.0989679
0.0996053
0.100047
0.100259
0.100187
0.0997522
0.0988616
0.0970095
0.0895964
0.0820769
0.0745535
0.0671143
0.0598325
0.0527592
0.0459486
0.0394487
0.0333086
0.0275522
0.0224272
0.0177679
0.0137358
0.00985231
0.00671285
0.00429679
0.00256632
0.00142953
0.000747248
0.000370273
0.000176826
8.24051e-05
3.76624e-05
1.69361e-05
7.50692e-06
3.28014e-06
1.40855e-06
5.88432e-07
2.32418e-07
7.93067e-08
1.40354e-08
4.27004e-07
1.86523e-06
4.28006e-06
8.31686e-06
1.50253e-05
2.60891e-05
4.4166e-05
7.33689e-05
0.000119918
0.000192965
0.000305541
0.000475478
0.000726051
0.00108593
0.00158802
0.00226697
0.00315544
0.00428012
0.00565671
0.00729171
0.00917891
0.011306
0.0136472
0.016176
0.0188628
0.0216781
0.0245928
0.0275795
0.0306126
0.0336687
0.0367269
0.0397688
0.0427782
0.045741
0.0486453
0.0514821
0.0542459
0.0569338
0.0595433
0.0620731
0.0645225
0.0668916
0.0691812
0.0713922
0.073526
0.0755844
0.0775689
0.0794815
0.0813237
0.0830972
0.0848033
0.0864428
0.0880163
0.0895236
0.0909639
0.0923353
0.0936348
0.0948579
0.0959982
0.0970467
0.0979912
0.0988153
0.099497
0.100004
0.100296
0.100338
0.100062
0.0993865
0.0981669
0.0908273
0.0833465
0.0758296
0.0683718
0.0610471
0.0539253
0.0470586
0.0404943
0.0342797
0.0284343
0.0231931
0.0184662
0.0143392
0.0103776
0.00713571
0.00461291
0.00278306
0.00156462
0.000824002
0.000410525
0.000196532
9.17144e-05
4.19446e-05
1.88652e-05
8.36094e-06
3.65217e-06
1.5677e-06
6.54683e-07
2.58516e-07
8.82005e-08
1.56091e-08
4.26001e-07
1.86074e-06
4.26926e-06
8.29443e-06
1.49815e-05
2.60068e-05
4.40148e-05
7.3097e-05
0.000119438
0.000192134
0.000304125
0.000473109
0.000722163
0.00107968
0.00157822
0.00225202
0.00313335
0.00424847
0.00561417
0.00723626
0.00910962
0.0112164
0.0135373
0.0160459
0.0187099
0.0215029
0.0243961
0.027362
0.0303753
0.0334127
0.0364537
0.0394798
0.042475
0.0454253
0.0483188
0.0511462
0.0539017
0.0565822
0.0591854
0.0617099
0.0641551
0.0665211
0.0688085
0.0710184
0.0731521
0.0752112
0.0771975
0.0791126
0.0809584
0.0827363
0.0844476
0.0860935
0.0876744
0.0891903
0.0906406
0.0920236
0.0933368
0.094576
0.0957356
0.0968076
0.0977813
0.0986426
0.099373
0.0999486
0.100331
0.100498
0.100408
0.100006
0.0992415
0.0923123
0.084809
0.0772662
0.0697755
0.0624141
0.0552496
0.0483401
0.0417154
0.0354281
0.0295106
0.0241687
0.0193532
0.0151099
0.0110231
0.00765048
0.00499853
0.00304946
0.00173234
0.000920206
0.00046136
0.000221509
0.000103535
4.73855e-05