/*--------------------------------*- C++ -*----------------------------------*\
  =========                 |
  \\      /  F ield         | OpenFOAM: The Open Source CFD Toolbox
   \\    /   O peration     | Website:  https://openfoam.org
    \\  /    A nd           | Version:  8
     \\/     M anipulation  |
\*---------------------------------------------------------------------------*/
FoamFile
{
    version     2.0;
    format      ascii;
    class       volScalarField;
    location    "80/fluid";
    object      N2;
}
// * * * * * * * * * * * * * * * * * * * * * * * * * * * * * * * * * * * * * //

dimensions      [0 0 0 0 0 0 0];

internalField   nonuniform List<scalar> 
4000
(
9.38717e-06
4.07009e-05
9.19219e-05
0.000174441
0.000305692
0.000512041
0.000832837
0.00132566
0.00207276
0.00318818
0.0048241
0.00717449
0.0104727
0.0149799
0.020963
0.0286627
0.0382608
0.0498565
0.0634536
0.0789653
0.0962251
0.115014
0.135104
0.156255
0.178208
0.200656
0.223406
0.246282
0.269146
0.291875
0.314322
0.336405
0.358035
0.379152
0.399706
0.41966
0.438986
0.457665
0.475685
0.493037
0.509715
0.525715
0.541041
0.555698
0.569696
0.583046
0.595763
0.607862
0.61936
0.630275
0.640625
0.650428
0.659704
0.668472
0.67675
0.684559
0.691917
0.698841
0.705352
0.711465
0.7172
0.722573
0.7276
0.732298
0.736683
0.740771
0.744577
0.748094
0.751346
0.754363
0.757179
0.759767
0.762071
0.763469
0.764775
0.765974
0.767049
0.767993
0.768804
0.769475
0.770008
0.770415
0.770705
0.770892
0.770923
0.770918
0.770797
0.770631
0.770457
0.770301
0.770181
0.770101
0.770053
0.770027
0.770013
0.770006
0.770003
0.770001
0.77
0.77
9.12774e-06
3.95475e-05
8.92241e-05
0.000169143
0.00029617
0.000495871
0.000806332
0.00128323
0.00200606
0.00308503
0.00466763
0.00694277
0.0101397
0.0145185
0.0203497
0.0278831
0.0373135
0.0487604
0.0622413
0.0776947
0.0949536
0.113803
0.133973
0.155189
0.1771
0.199593
0.222463
0.245525
0.268583
0.291458
0.314074
0.336302
0.358076
0.379329
0.400011
0.420082
0.439515
0.458289
0.476393
0.493818
0.510556
0.526607
0.541973
0.556661
0.570682
0.584047
0.596772
0.608874
0.620369
0.631276
0.641614
0.651402
0.660659
0.669406
0.677662
0.685446
0.692777
0.699674
0.706155
0.71224
0.717944
0.723286
0.728283
0.73295
0.737304
0.74136
0.745135
0.748615
0.751827
0.754827
0.757602
0.760149
0.762327
0.763727
0.765033
0.766228
0.7673
0.768243
0.769045
0.769699
0.770191
0.770529
0.77072
0.770874
0.770929
0.770849
0.77071
0.770545
0.770381
0.770242
0.770141
0.770077
0.770041
0.77002
0.77001
0.770005
0.770002
0.770001
0.77
0.77
8.8059e-06
3.81569e-05
8.61012e-05
0.000163262
0.000285948
0.000478889
0.000779006
0.00124036
0.00194018
0.00298607
0.00452242
0.00673492
0.0098503
0.0141283
0.0198422
0.027252
0.0365821
0.0479433
0.0613618
0.0767642
0.0938929
0.112631
0.132736
0.153851
0.17586
0.198516
0.221569
0.244766
0.267965
0.291035
0.31383
0.336254
0.358222
0.379666
0.400531
0.420775
0.440367
0.459288
0.477524
0.495065
0.511905
0.52804
0.543475
0.558219
0.572281
0.585676
0.59842
0.61053
0.622024
0.632922
0.643244
0.653009
0.662238
0.670952
0.67917
0.686912
0.694199
0.70105
0.707483
0.713517
0.719171
0.724461
0.729406
0.734021
0.738323
0.742329
0.746054
0.749482
0.752648
0.75558
0.758331
0.760847
0.762633
0.764038
0.765321
0.766467
0.767473
0.768339
0.769072
0.769682
0.770164
0.770513
0.77069
0.770778
0.770831
0.770758
0.770625
0.770471
0.770324
0.770204
0.770118
0.770065
0.770034
0.770017
0.770008
0.770004
0.770002
0.770001
0.77
0.77
8.47583e-06
3.67311e-05
8.29089e-05
0.000157286
0.00027567
0.000462081
0.000752493
0.00119984
0.00188032
0.00289996
0.00440143
0.00656965
0.00963082
0.0138499
0.0194998
0.0268421
0.0360903
0.0473136
0.0605355
0.0756985
0.0928286
0.111528
0.131563
0.152801
0.174954
0.197694
0.220825
0.244193
0.267571
0.29082
0.313813
0.336443
0.35862
0.38027
0.401334
0.421768
0.441539
0.460625
0.479011
0.496685
0.513639
0.529873
0.545389
0.560197
0.574309
0.58774
0.600506
0.612625
0.624118
0.635004
0.645305
0.655041
0.664234
0.672905
0.681075
0.688765
0.695995
0.702786
0.709157
0.715126
0.720714
0.725937
0.730813
0.73536
0.739595
0.743534
0.747189
0.750535
0.753649
0.756581
0.759273
0.761674
0.763149
0.764531
0.765798
0.766935
0.767929
0.768769
0.76945
0.769978
0.770361
0.770643
0.770816
0.770818
0.7708
0.770697
0.770555
0.770405
0.770271
0.770166
0.770095
0.770051
0.770027
0.770013
0.770007
0.770003
0.770001
0.770001
0.77
0.77
8.16816e-06
3.54063e-05
7.99586e-05
0.0001518
0.000266294
0.000446794
0.000728372
0.00116277
0.00182473
0.00281994
0.0042913
0.00642347
0.00944425
0.0136146
0.0191807
0.0263905
0.0354296
0.0464959
0.0596486
0.0748604
0.091867
0.110572
0.130741
0.152028
0.174188
0.197044
0.220337
0.243843
0.2674
0.290841
0.314039
0.336878
0.359263
0.381117
0.402378
0.423001
0.44295
0.462202
0.480739
0.498547
0.515618
0.53195
0.547549
0.562422
0.576584
0.590049
0.602836
0.614963
0.626451
0.637322
0.647598
0.657299
0.66645
0.675072
0.683187
0.690816
0.697982
0.704704
0.711002
0.716897
0.722407
0.727552
0.732348
0.736813
0.740965
0.744822
0.748361
0.751601
0.754641
0.757457
0.760043
0.762237
0.763649
0.764949
0.766122
0.767157
0.768054
0.76882
0.769462
0.769965
0.770315
0.770529
0.770722
0.770791
0.770742
0.770628
0.770488
0.770347
0.770227
0.770137
0.770077
0.770041
0.770022
0.770011
0.770005
0.770003
0.770001
0.77
0.77
0.77
7.88362e-06
3.41817e-05
7.72345e-05
0.00014675
0.000257747
0.000433237
0.000708016
0.00113349
0.00178401
0.0027643
0.00421135
0.00630384
0.00925844
0.013317
0.0187724
0.0258871
0.0348818
0.0459038
0.0590443
0.0741558
0.0911839
0.109925
0.130066
0.151413
0.173708
0.196683
0.2201
0.243764
0.267491
0.291118
0.314508
0.337541
0.36012
0.382165
0.403612
0.424412
0.444527
0.463934
0.482612
0.500545
0.517723
0.534146
0.549819
0.564751
0.578956
0.59245
0.605252
0.617382
0.62886
0.639711
0.649956
0.659619
0.668723
0.677291
0.685345
0.692909
0.700004
0.706652
0.712874
0.71869
0.724119
0.729181
0.733895
0.738278
0.742348
0.746121
0.749563
0.752733
0.755665
0.758427
0.760946
0.762657
0.764096
0.765405
0.766576
0.767603
0.768484
0.769214
0.769794
0.770231
0.770529
0.77065
0.770727
0.770783
0.770696
0.770566
0.770425
0.770294
0.770188
0.770111
0.770062
0.770033
0.770017
0.770009
0.770004
0.770002
0.770001
0.77
0.77
0.77
7.62719e-06
3.30798e-05
7.48012e-05
0.000142314
0.000250415
0.000421825
0.000690847
0.00110722
0.00174258
0.00269581
0.00410561
0.0061503
0.00905075
0.0130638
0.0184653
0.0255229
0.0344616
0.0454655
0.05852
0.0736349
0.0906808
0.109402
0.129612
0.151055
0.173439
0.196522
0.220078
0.243899
0.267794
0.291597
0.315167
0.338382
0.361141
0.383362
0.404979
0.425941
0.446209
0.465756
0.484559
0.502602
0.519874
0.536376
0.552113
0.567094
0.581333
0.594848
0.607658
0.619784
0.631248
0.642073
0.652283
0.661903
0.670956
0.679466
0.687457
0.694952
0.701975
0.708546
0.714688
0.720422
0.725768
0.730746
0.735375
0.739674
0.743662
0.747334
0.750682
0.753794
0.75673
0.75941
0.761758
0.763195
0.764536
0.765754
0.766833
0.767771
0.768573
0.76925
0.769789
0.770192
0.770493
0.770643
0.77067
0.770706
0.770624
0.7705
0.770368
0.770249
0.770156
0.770091
0.77005
0.770027
0.770014
0.770007
0.770003
0.770002
0.770001
0.77
0.77
0.77
7.40453e-06
3.21307e-05
7.27313e-05
0.00013851
0.000243897
0.000410863
0.000672228
0.00107732
0.00169708
0.00263132
0.00401606
0.00602907
0.00889121
0.0128602
0.0182138
0.0252234
0.03412
0.0450637
0.0581071
0.0732329
0.0902617
0.109033
0.129318
0.150829
0.173317
0.196526
0.220227
0.2442
0.268255
0.292224
0.315962
0.339344
0.362269
0.38465
0.40642
0.427527
0.447931
0.467602
0.486514
0.504651
0.522004
0.538571
0.554359
0.569378
0.583642
0.597169
0.60998
0.622095
0.633538
0.644333
0.654505
0.664079
0.673079
0.68153
0.689456
0.696882
0.703832
0.710327
0.71639
0.722043
0.727306
0.732199
0.736743
0.740955
0.744857
0.748401
0.751643
0.754695
0.757504
0.760079
0.76217
0.763628
0.76497
0.76618
0.767251
0.768173
0.768937
0.769544
0.769998
0.770305
0.770511
0.770678
0.770672
0.770657
0.770563
0.770441
0.770317
0.77021
0.770129
0.770074
0.770041
0.770022
0.770011
0.770006
0.770003
0.770001
0.770001
0.77
0.77
0.77
7.19403e-06
3.12194e-05
7.0656e-05
0.000134578
0.000237046
0.000399646
0.000654965
0.00105135
0.00165896
0.0025768
0.00394006
0.00592591
0.0087551
0.012686
0.0179985
0.0249665
0.0338418
0.0447464
0.0577875
0.0728907
0.0899553
0.108789
0.129132
0.150734
0.17333
0.196666
0.220501
0.244619
0.268825
0.292948
0.316841
0.340377
0.363451
0.385976
0.407884
0.42912
0.449643
0.46942
0.488426
0.506642
0.52406
0.54068
0.556508
0.571554
0.585834
0.599365
0.61217
0.624269
0.635687
0.646448
0.656579
0.666104
0.67505
0.683442
0.691304
0.698662
0.70554
0.711962
0.717949
0.723524
0.72871
0.733525
0.737991
0.742125
0.745948
0.749409
0.752594
0.75561
0.758375
0.760861
0.76251
0.763933
0.765222
0.766367
0.767367
0.768231
0.768965
0.76956
0.770007
0.770302
0.770463
0.770637
0.770666
0.770606
0.770504
0.770386
0.770272
0.770177
0.770107
0.770061
0.770033
0.770018
0.770009
0.770005
0.770002
0.770001
0.77
0.77
0.77
0.77
6.99366e-06
3.03542e-05
6.87315e-05
0.000130995
0.000230946
0.000389806
0.000639702
0.0010284
0.00162534
0.00252879
0.0038732
0.00583526
0.00863581
0.0125343
0.0178126
0.0247481
0.0335813
0.0444715
0.0574993
0.0726234
0.0897217
0.108605
0.129026
0.150723
0.173427
0.196884
0.22085
0.245105
0.269452
0.293719
0.317754
0.34143
0.36464
0.387295
0.409324
0.430674
0.4513
0.471169
0.490252
0.508533
0.526004
0.542665
0.558522
0.573586
0.587873
0.601402
0.614194
0.626273
0.637662
0.648388
0.658476
0.667953
0.676845
0.685178
0.692979
0.700271
0.707081
0.713432
0.719348
0.72485
0.729962
0.734705
0.739099
0.743165
0.746896
0.750285
0.753413
0.756367
0.759063
0.761432
0.762922
0.764315
0.765586
0.766714
0.767688
0.768505
0.76917
0.769691
0.770079
0.770352
0.770468
0.770592
0.770623
0.770556
0.770452
0.770339
0.770234
0.77015
0.77009
0.770051
0.770028
0.770015
0.770008
0.770004
0.770002
0.770001
0.77
0.77
0.77
0.77
6.81046e-06
2.95658e-05
6.69798e-05
0.000127752
0.000225451
0.000380977
0.000626041
0.00100788
0.00159532
0.00248593
0.00381351
0.00575437
0.00852949
0.0123995
0.0176496
0.0245634
0.0333692
0.044254
0.0572739
0.072416
0.0895572
0.108491
0.128983
0.150768
0.173579
0.19715
0.221239
0.245623
0.270102
0.2945
0.318665
0.342468
0.365799
0.388569
0.410705
0.432154
0.452869
0.472814
0.491962
0.510296
0.527808
0.544499
0.560376
0.575451
0.589739
0.60326
0.616036
0.628091
0.639449
0.650138
0.660184
0.669613
0.678453
0.68673
0.694472
0.701703
0.708449
0.714734
0.720583
0.726018
0.731062
0.735736
0.740061
0.744058
0.747673
0.750977
0.7541
0.756967
0.759584
0.761779
0.76323
0.764567
0.765772
0.766836
0.767759
0.768544
0.769186
0.769692
0.770069
0.77035
0.77047
0.770529
0.770567
0.770503
0.770402
0.770296
0.770202
0.770127
0.770075
0.770042
0.770023
0.770012
0.770006
0.770003
0.770002
0.770001
0.77
0.77
0.77
0.77
6.64466e-06
2.88528e-05
6.53973e-05
0.000124826
0.000220495
0.000373018
0.000613729
0.000989388
0.00156824
0.00244722
0.00375954
0.00568108
0.0084328
0.0122758
0.0174961
0.0243772
0.0331644
0.0440338
0.0570633
0.072227
0.0894038
0.108398
0.128966
0.15084
0.17375
0.19743
0.221634
0.246137
0.270737
0.295256
0.319539
0.343456
0.366895
0.389766
0.411997
0.433531
0.454321
0.474329
0.49353
0.511907
0.529451
0.546164
0.562054
0.577133
0.591417
0.604926
0.617683
0.629712
0.64104
0.651692
0.661696
0.671079
0.67987
0.688095
0.695781
0.702955
0.709642
0.715868
0.721657
0.727033
0.732018
0.736634
0.740904
0.744847
0.748407
0.751664
0.754746
0.757564
0.760113
0.761987
0.763458
0.764805
0.766012
0.767068
0.76797
0.768717
0.769313
0.769767
0.770085
0.770338
0.770461
0.770509
0.770533
0.770463
0.770363
0.770262
0.770175
0.770109
0.770063
0.770035
0.770019
0.77001
0.770005
0.770003
0.770001
0.770001
0.77
0.77
0.77
0.77
6.49486e-06
2.82087e-05
6.39672e-05
0.000122181
0.000216013
0.000365816
0.000602576
0.000972615
0.00154365
0.00241202
0.00371042
0.00561435
0.00834483
0.0121637
0.0173585
0.0242157
0.0329851
0.043846
0.0568807
0.0720645
0.0892765
0.108326
0.128963
0.15092
0.173921
0.197702
0.222012
0.246624
0.271334
0.295962
0.320351
0.344369
0.367904
0.390865
0.413177
0.434784
0.455637
0.475699
0.494943
0.513352
0.530921
0.547649
0.563547
0.578625
0.592901
0.606396
0.619133
0.631136
0.642432
0.653049
0.663013
0.672354
0.681098
0.689275
0.69691
0.704032
0.710666
0.716838
0.722572
0.727893
0.732823
0.737387
0.741605
0.7455
0.749006
0.75224
0.755307
0.75811
0.760585
0.762207
0.763644
0.764947
0.766105
0.767118
0.76799
0.768725
0.769324
0.769779
0.770075
0.770278
0.770399
0.77045
0.770484
0.770419
0.770325
0.770231
0.770152
0.770093
0.770054
0.77003
0.770016
0.770008
0.770004
0.770002
0.770001
0.770001
0.77
0.77
0.77
0.77
6.35962e-06
2.76269e-05
6.26749e-05
0.000119788
0.000211954
0.000359284
0.000592443
0.000957345
0.00152122
0.00237987
0.00366548
0.00555322
0.00826416
0.0120609
0.0172324
0.0240676
0.0328202
0.0436711
0.0567128
0.071918
0.089168
0.108263
0.128961
0.150991
0.174075
0.197947
0.222353
0.247063
0.271872
0.296597
0.32108
0.345188
0.368806
0.391844
0.414227
0.435896
0.456801
0.476906
0.496184
0.51462
0.532206
0.548945
0.564845
0.57992
0.594187
0.607667
0.620383
0.632362
0.643628
0.654212
0.66414
0.673441
0.682143
0.690276
0.697866
0.70494
0.711526
0.717649
0.723333
0.728603
0.733482
0.737993
0.742158
0.745978
0.749424
0.752602
0.755606
0.758355
0.760798
0.762354
0.763798
0.765108
0.766267
0.76727
0.768118
0.768819
0.769383
0.769814
0.770104
0.770286
0.770382
0.770397
0.770427
0.770369
0.770285
0.770201
0.770131
0.77008
0.770046
0.770025
0.770014
0.770007
0.770004
0.770002
0.770001
0.77
0.77
0.77
0.77
0.77
6.23804e-06
2.71037e-05
6.15114e-05
0.000117631
0.000208287
0.000353369
0.000583244
0.000943447
0.00150074
0.00235044
0.00362422
0.00549695
0.00818972
0.0119657
0.0171153
0.023929
0.032669
0.043518
0.056557
0.0717743
0.0890503
0.108188
0.128942
0.151038
0.174199
0.198152
0.222643
0.247441
0.272337
0.297147
0.321712
0.345897
0.369588
0.392692
0.415135
0.436855
0.457804
0.477945
0.49725
0.515706
0.533305
0.550051
0.565952
0.581021
0.595278
0.608742
0.621439
0.633394
0.644634
0.655187
0.665082
0.674348
0.683013
0.691107
0.698657
0.705691
0.712235
0.718316
0.723959
0.729187
0.734026
0.738497
0.742622
0.746354
0.749751
0.752965
0.755913
0.758604
0.760968
0.762483
0.763888
0.765162
0.766292
0.767275
0.768112
0.768803
0.769353
0.769768
0.770045
0.770238
0.770375
0.770384
0.770404
0.77034
0.770257
0.770178
0.770115
0.770069
0.77004
0.770022
0.770012
0.770006
0.770003
0.770002
0.770001
0.77
0.77
0.77
0.77
0.77
6.13002e-06
2.66385e-05
6.04755e-05
0.000115706
0.000205007
0.000348061
0.000574962
0.000930885
0.00148216
0.00232362
0.00358647
0.00544526
0.00812114
0.011878
0.0170081
0.0238056
0.0325249
0.0433598
0.0563991
0.0716297
0.0889301
0.108104
0.128905
0.151058
0.174283
0.198307
0.222872
0.247745
0.272717
0.2976
0.322236
0.346487
0.370239
0.393398
0.41589
0.437653
0.458637
0.478805
0.498132
0.516603
0.534212
0.550962
0.566861
0.581925
0.596172
0.609623
0.622302
0.634236
0.645452
0.65598
0.665846
0.675082
0.683716
0.691777
0.699293
0.706291
0.712801
0.718846
0.724454
0.729649
0.734456
0.738897
0.742995
0.746664
0.75004
0.753239
0.756166
0.75883
0.761106
0.762611
0.764008
0.765272
0.766389
0.767355
0.768172
0.768844
0.769373
0.769763
0.77001
0.770166
0.770332
0.77035
0.770365
0.770306
0.770229
0.770158
0.770101
0.770061
0.770035
0.770019
0.77001
0.770005
0.770003
0.770001
0.770001
0.77
0.77
0.77
0.77
0.77
6.03649e-06
2.62353e-05
5.95758e-05
0.000114029
0.00020214
0.000343403
0.000567658
0.000919753
0.00146561
0.00229959
0.00355243
0.00539831
0.00805828
0.0117965
0.0169061
0.0236822
0.0323863
0.0432125
0.056252
0.0714878
0.0888062
0.10801
0.128848
0.151048
0.174327
0.198409
0.223037
0.247974
0.273009
0.297954
0.322649
0.346955
0.370758
0.393963
0.416495
0.438291
0.459302
0.479492
0.498835
0.517317
0.534932
0.551684
0.567582
0.58264
0.596877
0.610316
0.62298
0.634897
0.646093
0.656599
0.666442
0.675653
0.684261
0.692294
0.699782
0.706752
0.713232
0.719248
0.724827
0.729993
0.734772
0.739188
0.743265
0.746917
0.750284
0.753479
0.7564
0.759039
0.761188
0.762665
0.764039
0.765285
0.766388
0.767343
0.768153
0.76882
0.76935
0.76975
0.770017
0.77015
0.7703
0.770318
0.770334
0.770278
0.770207
0.770141
0.77009
0.770054
0.77003
0.770017
0.770009
0.770005
0.770002
0.770001
0.770001
0.77
0.77
0.77
0.77
0.77
5.95966e-06
2.59036e-05
5.88333e-05
0.00011264
0.000199753
0.000339502
0.000561505
0.000910314
0.00145148
0.00227893
0.00352296
0.0053574
0.00800316
0.0117248
0.0168162
0.0235744
0.0322635
0.0430764
0.0561112
0.0713496
0.0886791
0.107904
0.128773
0.15101
0.174331
0.19846
0.223137
0.248126
0.273211
0.298206
0.322948
0.3473
0.371144
0.394387
0.416948
0.438766
0.459795
0.479998
0.499352
0.517841
0.535461
0.552214
0.56811
0.583163
0.597394
0.610823
0.623476
0.635379
0.646561
0.65705
0.666875
0.676067
0.684655
0.692668
0.700134
0.707082
0.71354
0.719534
0.72509
0.730235
0.734993
0.73939
0.743453
0.747113
0.750479
0.753682
0.756611
0.759236
0.761262
0.762727
0.764091
0.765326
0.766417
0.767358
0.768153
0.768805
0.76932
0.769712
0.770002
0.770135
0.770281
0.770297
0.770312
0.770258
0.77019
0.770129
0.770081
0.770048
0.770027
0.770015
0.770008
0.770004
0.770002
0.770001
0.770001
0.77
0.77
0.77
0.77
0.77
5.90339e-06
2.56601e-05
5.82864e-05
0.000111612
0.000197974
0.000336575
0.000556853
0.000903116
0.00144061
0.00226289
0.00349987
0.00532502
0.00795907
0.0116667
0.0167426
0.0234851
0.0321603
0.0429626
0.0559897
0.0712296
0.0885658
0.107803
0.128692
0.150955
0.174307
0.198469
0.223182
0.248207
0.27333
0.298363
0.323142
0.347528
0.371406
0.394674
0.417255
0.439087
0.460125
0.480337
0.499696
0.518189
0.53581
0.552562
0.568456
0.583506
0.597732
0.611154
0.623799
0.635693
0.646864
0.657342
0.667156
0.676335
0.684909
0.692908
0.70036
0.707294
0.713736
0.719714
0.725255
0.730384
0.735127
0.73951
0.743559
0.747228
0.750589
0.753795
0.756731
0.759352
0.761292
0.762744
0.764099
0.765329
0.766417
0.767358
0.768151
0.7688
0.769308
0.769681
0.769969
0.770107
0.770258
0.770275
0.770292
0.770241
0.770176
0.770118
0.770074
0.770044
0.770025
0.770014
0.770007
0.770004
0.770002
0.770001
0.770001
0.77
0.77
0.77
0.77
0.77
5.87266e-06
2.55267e-05
5.79853e-05
0.000111042
0.000196981
0.00033493
0.000554219
0.000899014
0.00143438
0.00225364
0.00348647
0.00530611
0.00793318
0.0116324
0.0166986
0.0234308
0.0320956
0.0428899
0.0559121
0.0711503
0.0884898
0.107734
0.128634
0.150911
0.174278
0.198459
0.223191
0.248236
0.273379
0.298432
0.323232
0.347639
0.371533
0.394815
0.417405
0.439244
0.460286
0.480499
0.49986
0.518354
0.535977
0.552729
0.568623
0.583671
0.597894
0.611314
0.623955
0.635845
0.647011
0.657483
0.667291
0.676464
0.685032
0.693024
0.700469
0.707395
0.71383
0.719801
0.725334
0.730455
0.735191
0.739567
0.74361
0.747283
0.750643
0.75385
0.756791
0.759408
0.761309
0.762756
0.764106
0.765331
0.766414
0.767352
0.768144
0.768793
0.769301
0.76967
0.769957
0.770092
0.770245
0.770263
0.770278
0.770229
0.770168
0.770112
0.77007
0.770042
0.770024
0.770013
0.770007
0.770004
0.770002
0.770001
0.77
0.77
0.77
0.77
0.77
0.77
5.8725e-06
2.5526e-05
5.79838e-05
0.000111039
0.000196976
0.000334923
0.000554209
0.000899002
0.00143436
0.00225363
0.00348649
0.00530619
0.00793336
0.0116328
0.0166993
0.0234318
0.0320971
0.0428919
0.0559147
0.0711536
0.0884937
0.107739
0.12864
0.150917
0.174285
0.198466
0.223198
0.248243
0.273387
0.29844
0.32324
0.347648
0.371542
0.394824
0.417415
0.439254
0.460295
0.480509
0.49987
0.518364
0.535985
0.552738
0.568631
0.583679
0.597901
0.611321
0.623961
0.635851
0.647017
0.657489
0.667296
0.676469
0.685037
0.693028
0.700473
0.707399
0.713834
0.719805
0.725337
0.730458
0.735192
0.739567
0.743608
0.74728
0.750638
0.753845
0.756789
0.759413
0.761318
0.762765
0.764114
0.765338
0.76642
0.767356
0.768147
0.768795
0.769304
0.769672
0.76996
0.770093
0.770246
0.770263
0.770277
0.770228
0.770167
0.770112
0.77007
0.770041
0.770023
0.770013
0.770007
0.770004
0.770002
0.770001
0.77
0.77
0.77
0.77
0.77
0.77
5.90319e-06
2.56592e-05
5.82846e-05
0.000111608
0.000197969
0.000336569
0.000556847
0.000903116
0.00144063
0.00226295
0.00350002
0.00532534
0.00795969
0.0116679
0.0167445
0.023488
0.0321645
0.0429682
0.0559971
0.071239
0.0885771
0.107817
0.128708
0.150972
0.174325
0.198488
0.223201
0.248226
0.273349
0.298381
0.323159
0.347546
0.371423
0.394692
0.417273
0.439105
0.460144
0.480355
0.499715
0.518207
0.535828
0.552581
0.568475
0.583524
0.597749
0.611171
0.623816
0.635709
0.64688
0.657358
0.667171
0.676349
0.684923
0.692921
0.700373
0.707305
0.713747
0.719725
0.725264
0.730391
0.735131
0.739512
0.743558
0.747224
0.750585
0.753793
0.756736
0.759365
0.76131
0.762766
0.764121
0.765349
0.766435
0.767374
0.768167
0.768815
0.769323
0.76969
0.769978
0.770109
0.770262
0.77028
0.770287
0.770236
0.770173
0.770117
0.770074
0.770044
0.770025
0.770014
0.770007
0.770004
0.770002
0.770001
0.770001
0.77
0.77
0.77
0.77
0.77
5.95972e-06
2.59039e-05
5.88343e-05
0.000112642
0.000199757
0.000339512
0.000561528
0.000910363
0.00145158
0.00227913
0.00352335
0.00535811
0.00800439
0.0117268
0.0168194
0.0235793
0.0322705
0.0430866
0.0561245
0.0713659
0.0886986
0.107926
0.128798
0.151037
0.17436
0.19849
0.223169
0.248158
0.273244
0.298239
0.322982
0.347334
0.371179
0.394422
0.416984
0.438802
0.459832
0.480036
0.499389
0.517878
0.535496
0.552248
0.568143
0.583196
0.597426
0.610854
0.623506
0.635408
0.646589
0.657077
0.666901
0.676092
0.684679
0.69269
0.700155
0.707102
0.713558
0.719549
0.725102
0.730243
0.734996
0.739388
0.743446
0.747103
0.750474
0.753686
0.756629
0.759252
0.761275
0.762749
0.764115
0.765349
0.76644
0.767383
0.76818
0.768832
0.769343
0.769712
0.77
0.770132
0.770284
0.770304
0.770307
0.770253
0.770186
0.770127
0.770081
0.770048
0.770028
0.770015
0.770008
0.770004
0.770002
0.770001
0.770001
0.77
0.77
0.77
0.77
0.77
6.03704e-06
2.62377e-05
5.95813e-05
0.00011404
0.000202159
0.000343437
0.00056772
0.000919865
0.00146581
0.00229995
0.00355307
0.00539941
0.00806013
0.0117995
0.0169108
0.0236891
0.0323961
0.0432256
0.0562694
0.0715097
0.0888324
0.10804
0.128882
0.151085
0.174366
0.198451
0.22308
0.248018
0.273053
0.297999
0.322693
0.347
0.370803
0.394008
0.41654
0.438337
0.459348
0.479538
0.498881
0.517362
0.534977
0.551728
0.567625
0.582683
0.59692
0.610357
0.623021
0.634936
0.646132
0.656636
0.666478
0.675688
0.684294
0.692326
0.699811
0.706779
0.713256
0.719269
0.724843
0.730004
0.734777
0.739187
0.74326
0.746915
0.750294
0.753509
0.756448
0.759066
0.761203
0.762703
0.764091
0.765343
0.766446
0.767399
0.768201
0.768857
0.76937
0.769739
0.770029
0.77016
0.770311
0.770335
0.770333
0.770273
0.770203
0.77014
0.770089
0.770054
0.770031
0.770017
0.770009
0.770005
0.770003
0.770001
0.770001
0.77
0.77
0.77
0.77
0.77
6.13117e-06
2.66435e-05
6.04866e-05
0.000115727
0.000205043
0.000348122
0.000575064
0.000931058
0.00148246
0.00232412
0.00358731
0.00544666
0.00812343
0.0118817
0.0170137
0.023814
0.0325369
0.0433758
0.0564198
0.0716559
0.0889621
0.108142
0.128948
0.151105
0.174333
0.19836
0.222928
0.247803
0.272775
0.29766
0.322296
0.346547
0.370299
0.393458
0.41595
0.437713
0.458697
0.478865
0.498192
0.516662
0.534271
0.55102
0.566919
0.581982
0.596227
0.609677
0.622355
0.634288
0.645503
0.656029
0.665894
0.675128
0.68376
0.691819
0.699333
0.706329
0.712835
0.718877
0.724481
0.72967
0.734471
0.738907
0.743005
0.74668
0.750074
0.753296
0.756237
0.758859
0.761113
0.762634
0.764033
0.765295
0.766409
0.767373
0.768188
0.768855
0.769378
0.769755
0.770052
0.770192
0.770339
0.770372
0.770367
0.7703
0.770224
0.770156
0.770101
0.770061
0.770035
0.77002
0.770011
0.770006
0.770003
0.770001
0.770001
0.77
0.77
0.77
0.77
0.77
6.23997e-06
2.71121e-05
6.15299e-05
0.000117665
0.000208345
0.000353464
0.000583398
0.000943696
0.00150115
0.00235109
0.00362528
0.00549866
0.00819243
0.0119699
0.0171216
0.0239385
0.0326828
0.0435369
0.0565818
0.0718055
0.0890876
0.108231
0.128991
0.151093
0.174259
0.198215
0.222709
0.247509
0.272406
0.297218
0.321784
0.345969
0.369659
0.392763
0.415205
0.436926
0.457874
0.478014
0.49732
0.515775
0.533374
0.550119
0.566019
0.581087
0.595343
0.608807
0.621502
0.633456
0.644694
0.655246
0.66514
0.674405
0.683069
0.691161
0.69871
0.705742
0.712285
0.718363
0.724003
0.729228
0.734063
0.738531
0.742656
0.74639
0.749797
0.753027
0.755987
0.758648
0.761015
0.762564
0.763981
0.765261
0.766392
0.76737
0.768198
0.768877
0.769407
0.769787
0.770087
0.770233
0.770365
0.770397
0.770394
0.770328
0.770249
0.770175
0.770114
0.77007
0.770041
0.770023
0.770012
0.770007
0.770003
0.770002
0.770001
0.77
0.77
0.77
0.77
0.77
6.36259e-06
2.76398e-05
6.27033e-05
0.00011984
0.000212042
0.000359425
0.000592666
0.000957695
0.00152176
0.00238073
0.00366684
0.00555535
0.00826746
0.0120659
0.0172398
0.0240785
0.0328355
0.0436923
0.0567412
0.0719539
0.0892117
0.108314
0.129019
0.151055
0.174146
0.198022
0.222432
0.247145
0.271956
0.296682
0.321166
0.345273
0.368891
0.391929
0.414311
0.435979
0.456884
0.476988
0.496266
0.514701
0.532287
0.549025
0.564924
0.579998
0.594264
0.607742
0.620457
0.632434
0.6437
0.654282
0.664209
0.673509
0.68221
0.690342
0.697931
0.705006
0.711591
0.717714
0.723399
0.72867
0.73355
0.738062
0.74223
0.746051
0.749498
0.75268
0.755685
0.758411
0.760873
0.762429
0.763836
0.765124
0.766271
0.767269
0.768117
0.768818
0.76937
0.76977
0.770087
0.770266
0.770405
0.770439
0.770428
0.77036
0.770276
0.770197
0.770131
0.770081
0.770048
0.770027
0.770015
0.770008
0.770004
0.770002
0.770001
0.77
0.77
0.77
0.77
0.77
6.49918e-06
2.82273e-05
6.40082e-05
0.000122255
0.000216138
0.000366016
0.000602887
0.000973092
0.00154437
0.00241314
0.00371212
0.00561693
0.00834873
0.0121695
0.017367
0.0242278
0.0330024
0.0438697
0.056912
0.0721043
0.0893249
0.108383
0.129029
0.150993
0.174001
0.197787
0.222102
0.246717
0.27143
0.296059
0.320449
0.344467
0.368001
0.390961
0.413273
0.434879
0.455731
0.475792
0.495035
0.513443
0.531011
0.547739
0.563635
0.578712
0.592987
0.60648
0.619216
0.631218
0.642513
0.653128
0.663091
0.672431
0.681174
0.68935
0.696985
0.704107
0.710741
0.716913
0.722648
0.727969
0.732899
0.737462
0.741678
0.74557
0.749071
0.752295
0.755352
0.758153
0.760696
0.762355
0.763771
0.76507
0.766232
0.767247
0.768112
0.768825
0.769389
0.769794
0.770094
0.770287
0.770433
0.770476
0.770467
0.770397
0.770309
0.770223
0.77015
0.770095
0.770056
0.770032
0.770017
0.770009
0.770005
0.770002
0.770001
0.770001
0.77
0.77
0.77
0.77
6.65063e-06
2.88785e-05
6.54538e-05
0.000124929
0.000220667
0.000373291
0.000614149
0.000990023
0.00156919
0.00244862
0.00376162
0.00568414
0.00843728
0.0122823
0.0175053
0.02439
0.033183
0.0440595
0.0570981
0.0722729
0.0894632
0.108465
0.129041
0.150924
0.17384
0.197526
0.221735
0.246242
0.270845
0.295365
0.319649
0.343566
0.367005
0.389875
0.412104
0.433637
0.454426
0.474433
0.493633
0.512008
0.529551
0.546263
0.562152
0.577229
0.591511
0.605019
0.617775
0.629802
0.641128
0.651778
0.661781
0.671163
0.679953
0.688177
0.695863
0.703036
0.709724
0.71595
0.721739
0.727115
0.7321
0.736717
0.740987
0.744929
0.748486
0.751739
0.754815
0.757629
0.760197
0.762063
0.763504
0.764827
0.766014
0.767057
0.767953
0.768701
0.769303
0.76975
0.770075
0.770296
0.770452
0.770499
0.770497
0.770432
0.770343
0.770253
0.770173
0.770111
0.770066
0.770038
0.770021
0.770011
0.770006
0.770003
0.770001
0.770001
0.77
0.77
0.77
0.77
6.81836e-06
2.95998e-05
6.70549e-05
0.00012789
0.00022568
0.000381339
0.000626594
0.00100871
0.00159654
0.00248771
0.00381609
0.0057581
0.00853487
0.0124073
0.0176606
0.0245787
0.0333905
0.0442822
0.0573105
0.0724607
0.0896088
0.108558
0.129063
0.15086
0.173679
0.197258
0.221353
0.245741
0.270223
0.294623
0.318789
0.342591
0.365921
0.388689
0.410824
0.432271
0.452984
0.472927
0.492073
0.510406
0.527917
0.544606
0.560482
0.575554
0.58984
0.60336
0.616134
0.628187
0.639544
0.650231
0.660275
0.669702
0.678541
0.686817
0.694558
0.701788
0.708533
0.714819
0.720668
0.726104
0.731151
0.73583
0.740164
0.744174
0.747801
0.751125
0.754261
0.757116
0.759653
0.761811
0.7633
0.764661
0.765889
0.76697
0.7679
0.768676
0.769302
0.769775
0.770111
0.77035
0.770511
0.770556
0.770549
0.77048
0.770386
0.770288
0.7702
0.77013
0.770079
0.770045
0.770025
0.770013
0.770007
0.770003
0.770002
0.770001
0.77
0.77
0.77
0.77
7.00386e-06
3.03982e-05
6.88294e-05
0.000131174
0.000231249
0.000390283
0.000640425
0.00102947
0.00162691
0.00253104
0.0038764
0.00583976
0.00864208
0.0125429
0.0178243
0.0247632
0.0336044
0.0445026
0.0575414
0.0726765
0.0897866
0.108683
0.129116
0.150824
0.173539
0.197003
0.220976
0.245236
0.269587
0.293856
0.317892
0.341567
0.364775
0.387428
0.409455
0.430802
0.451426
0.471292
0.490373
0.508652
0.526121
0.542779
0.558634
0.573696
0.587981
0.601508
0.614298
0.626374
0.637761
0.648485
0.658571
0.668046
0.676937
0.685268
0.693067
0.700358
0.707166
0.713515
0.719428
0.724928
0.730036
0.734775
0.739167
0.743232
0.746965
0.75036
0.753497
0.756448
0.7591
0.761495
0.763002
0.764357
0.765593
0.766692
0.767648
0.76846
0.76913
0.769657
0.770036
0.770307
0.770499
0.770557
0.770576
0.77052
0.770428
0.770327
0.770232
0.770153
0.770094
0.770055
0.77003
0.770016
0.770008
0.770004
0.770002
0.770001
0.77
0.77
0.77
0.77
7.20766e-06
3.12802e-05
7.08028e-05
0.000134828
0.000237469
0.000400294
0.000655935
0.00105279
0.00166104
0.00257974
0.00394418
0.00593162
0.008763
0.012697
0.018014
0.0249894
0.0338709
0.0447871
0.0578383
0.0729531
0.090031
0.108878
0.129233
0.150847
0.173454
0.196798
0.22064
0.244764
0.268973
0.293098
0.316991
0.340526
0.363599
0.386121
0.408026
0.429258
0.449778
0.469552
0.488555
0.506768
0.524183
0.540801
0.556626
0.571669
0.585946
0.599475
0.612277
0.624373
0.635789
0.646548
0.656677
0.6662
0.675144
0.683534
0.691395
0.698751
0.705628
0.712047
0.718032
0.723604
0.728785
0.733595
0.738055
0.742184
0.746
0.749458
0.752646
0.75567
0.758444
0.760992
0.762676
0.764088
0.765384
0.766547
0.767563
0.768425
0.769127
0.76967
0.770054
0.770324
0.770546
0.770615
0.77062
0.770567
0.770476
0.770371
0.770268
0.77018
0.770113
0.770066
0.770037
0.77002
0.77001
0.770005
0.770003
0.770001
0.770001
0.77
0.77
0.77
7.41569e-06
3.21773e-05
7.28264e-05