/*--------------------------------*- C++ -*----------------------------------*\
  =========                 |
  \\      /  F ield         | OpenFOAM: The Open Source CFD Toolbox
   \\    /   O peration     | Website:  https://openfoam.org
    \\  /    A nd           | Version:  8
     \\/     M anipulation  |
\*---------------------------------------------------------------------------*/
FoamFile
{
    version     2.0;
    format      ascii;
    class       volScalarField;
    location    "80/fluid";
    object      O2;
}
// * * * * * * * * * * * * * * * * * * * * * * * * * * * * * * * * * * * * * //

dimensions      [0 0 0 0 0 0 0];

internalField   nonuniform List<scalar> 
4000
(
1.37001e-09
5.93441e-09
1.3375e-08
2.53057e-08
4.41675e-08
7.36016e-08
1.18955e-07
1.87909e-07
2.91206e-07
4.43364e-07
6.63206e-07
9.73894e-07
1.40212e-06
1.97617e-06
2.72273e-06
3.663e-06
4.80898e-06
6.16137e-06
7.70883e-06
9.42958e-06
1.12937e-05
1.32668e-05
1.53141e-05
1.74015e-05
1.9497e-05
2.15747e-05
2.36143e-05
2.55981e-05
2.75093e-05
2.93328e-05
3.10681e-05
3.27041e-05
3.42474e-05
3.57045e-05
3.7088e-05
3.84218e-05
3.97459e-05
4.11237e-05
4.26489e-05
4.44526e-05
4.67089e-05
4.96417e-05
5.35272e-05
5.86977e-05
6.55458e-05
7.45328e-05
8.62007e-05
0.000101191
0.00012027
0.000144362
0.000174594
0.000212343
0.000259306
0.000317574
0.000389735
0.000478993
0.000589328
0.000725682
0.00089422
0.00110264
0.00136057
0.00168014
0.00207664
0.00256945
0.00318327
0.00394973
0.00490963
0.00610854
0.00761346
0.00951885
0.0119631
0.015072
0.0196701
0.0348254
0.0501972
0.0656618
0.0811077
0.0964315
0.111546
0.126248
0.140449
0.154036
0.166742
0.178701
0.189254
0.199248
0.208028
0.215321
0.220948
0.224892
0.227365
0.228742
0.229427
0.229747
0.229891
0.229954
0.229981
0.229993
0.229998
0.23
1.32774e-09
5.7516e-09
1.29619e-08
2.45217e-08
4.28021e-08
7.13489e-08
1.15365e-07
1.82321e-07
2.82665e-07
4.30543e-07
6.44359e-07
9.46915e-07
1.36478e-06
1.92656e-06
2.65989e-06
3.58746e-06
4.72309e-06
6.06968e-06
7.61718e-06
9.34536e-06
1.12235e-05
1.32159e-05
1.52854e-05
1.73962e-05
1.95198e-05
2.16295e-05
2.36999e-05
2.57083e-05
2.76394e-05
2.94906e-05
3.12405e-05
3.28989e-05
3.44524e-05
3.59179e-05
3.73074e-05
3.86438e-05
3.99678e-05
4.13441e-05
4.28684e-05
4.46737e-05
4.69366e-05
4.98829e-05
5.37899e-05
5.89901e-05
6.58762e-05
7.49092e-05
8.66312e-05
0.000101685
0.00012084
0.000145026
0.000175376
0.000213283
0.000260457
0.000319015
0.000391574
0.000481382
0.000592469
0.000729848
0.000899763
0.00111001
0.00137034
0.00169298
0.00209331
0.0025908
0.00321011
0.00398286
0.00494989
0.00615493
0.00766971
0.00962084
0.0121454
0.0154771
0.0222791
0.0375424
0.0530347
0.0686211
0.0841881
0.0995793
0.114641
0.129339
0.143543
0.157139
0.169741
0.181621
0.192106
0.202226
0.21079
0.217637
0.222681
0.226029
0.228011
0.229059
0.22957
0.229809
0.229917
0.229964
0.229985
0.229994
0.229998
0.23
1.28792e-09
5.57824e-09
1.25705e-08
2.37836e-08
4.15228e-08
6.92372e-08
1.11998e-07
1.77098e-07
2.74749e-07
4.18844e-07
6.27532e-07
9.23434e-07
1.33314e-06
1.88565e-06
2.60943e-06
3.52867e-06
4.66031e-06
6.00696e-06
7.55911e-06
9.29582e-06
1.1184e-05
1.31926e-05
1.52844e-05
1.74268e-05
1.95861e-05
2.17295e-05
2.3831e-05
2.58808e-05
2.78553e-05
2.97359e-05
3.15221e-05
3.31985e-05
3.47858e-05
3.62759e-05
3.76814e-05
3.90272e-05
4.03559e-05
4.17349e-05
4.32634e-05
4.50777e-05
4.73591e-05
5.03367e-05
5.42907e-05
5.95553e-05
6.65245e-05
7.56607e-05
8.75087e-05
0.000102717
0.000122062
0.000146489
0.00017715
0.000215464
0.000263181
0.00032247
0.000396019
0.000487167
0.000600071
0.000739903
0.000913117
0.00112777
0.00139394
0.00172422
0.0021344
0.00264421
0.00327833
0.00406744
0.00504939
0.00625931
0.00775117
0.00958406
0.0118509
0.0145578
0.0264854
0.0419705
0.0576194
0.0732949
0.0888556
0.104216
0.119296
0.134045
0.148166
0.16159
0.173893
0.184984
0.195901
0.205392
0.213275
0.219419
0.22382
0.226672
0.228336
0.229212
0.22964
0.22984
0.22993
0.22997
0.229988
0.229995
0.229998
0.23
1.24551e-09
5.39494e-09
1.21599e-08
2.30146e-08
4.02006e-08
6.70796e-08
1.08609e-07
1.71957e-07
2.67233e-07
4.08196e-07
6.12891e-07
9.03992e-07
1.30828e-06
1.85566e-06
2.57508e-06
3.49136e-06
4.62131e-06
5.9661e-06
7.51788e-06
9.25843e-06
1.11644e-05
1.31979e-05
1.53238e-05
1.75019e-05
1.96959e-05
2.18871e-05
2.40444e-05
2.61309e-05
2.81512e-05
3.00792e-05
3.19008e-05
3.36326e-05
3.5256e-05
3.67749e-05
3.8202e-05
3.95629e-05
4.09023e-05
4.2291e-05
4.38323e-05
4.56682e-05
4.79856e-05
5.10192e-05
5.50541e-05
6.04285e-05
6.75403e-05
7.68569e-05
8.89304e-05
0.00010442
0.00012412
0.000149
0.000180248
0.000219331
0.00026807
0.000328726
0.000404117
0.000497756
0.00061404
0.000758468
0.000937945
0.00116115
0.00143902
0.00178539
0.0022178
0.00275859
0.00343631
0.00428761
0.00535797
0.00669109
0.00838321
0.0105627
0.0133085
0.0167131
0.0319785
0.0475756
0.0633292
0.0790927
0.0947248
0.110096
0.12506
0.139403
0.153197
0.166234
0.178482
0.189277
0.199594
0.208441
0.215652
0.221133
0.224943
0.227333
0.228687
0.229382
0.229718
0.229874
0.229945
0.229976
0.22999
0.229996
0.229999
0.23
1.20589e-09
5.22425e-09
1.17797e-08
2.2308e-08
3.8995e-08
6.5121e-08
1.05538e-07
1.67284e-07
2.60328e-07
3.98453e-07
5.99841e-07
8.87311e-07
1.28811e-06
1.83219e-06
2.5469e-06
3.45702e-06
4.57906e-06
5.92379e-06
7.48582e-06
9.24629e-06
1.11762e-05
1.32406e-05
1.53985e-05
1.76229e-05
1.98808e-05
2.21223e-05
2.43237e-05
2.64771e-05
2.85367e-05
3.05201e-05
3.24165e-05
3.41994e-05
3.5867e-05
3.7423e-05
3.88803e-05
4.02658e-05
4.16271e-05
4.30388e-05
4.46099e-05
4.64897e-05
4.8873e-05
5.20027e-05
5.61712e-05
6.17239e-05
6.90667e-05
7.86765e-05
9.11186e-05
0.000107071
0.000127355
0.000152977
0.000185178
0.000225497
0.000275849
0.000338627
0.000416825
0.000514196
0.000635457
0.000786544
0.000974952
0.00121017
0.00150423
0.00187252
0.00233472
0.00291631
0.00365048
0.00458118
0.00575467
0.00724514
0.00921252
0.0118306
0.015407
0.0222888
0.0378018
0.0535565
0.0693792
0.0851176
0.100647
0.115861
0.130697
0.14495
0.158563
0.170929
0.1828
0.193181
0.202924
0.211141
0.217695
0.222548
0.225826
0.227828
0.228939
0.229501
0.229772
0.229898
0.229955
0.229981
0.229992
0.229997
0.229999
0.23
1.16896e-09
5.0652e-09
1.14258e-08
2.16518e-08
3.78843e-08
6.33591e-08
1.02896e-07
1.63505e-07
2.55138e-07
3.91559e-07
5.90499e-07
8.74429e-07
1.26993e-06
1.80592e-06
2.51432e-06
3.42214e-06
4.54884e-06
5.90282e-06
7.47959e-06
9.26171e-06
1.122e-05
1.3318e-05
1.553e-05
1.78082e-05
2.01105e-05
2.24103e-05
2.46872e-05
2.68957e-05
2.9048e-05
3.11083e-05
3.30635e-05
3.49036e-05
3.66241e-05
3.82275e-05
3.97268e-05
4.11504e-05
4.25489e-05
4.40022e-05
4.56263e-05
4.75801e-05
5.00687e-05
5.33453e-05
5.77129e-05
6.3528e-05
7.12086e-05
8.12464e-05
9.42269e-05
0.000110855
0.00013199
0.000158689
0.00019226
0.000234336
0.000286954
0.00035267
0.000434693
0.000537062
0.000664865
0.000824531
0.00102419
0.00127414
0.00158746
0.00198074
0.00247504
0.00309707
0.00388044
0.00486698
0.00608964
0.00761147
0.00949326
0.01183
0.0145524
0.0280323
0.0437958
0.059693
0.0755843
0.0913485
0.10684
0.12189
0.136324
0.150197
0.163371
0.175468
0.186253
0.196693
0.205907
0.21353
0.219473
0.223759
0.226571
0.228243
0.229149
0.229602
0.229818
0.229919
0.229964
0.229985
0.229994
0.229997
0.229999
0.23
1.1355e-09
4.92132e-09
1.1108e-08
2.10723e-08
3.69286e-08
6.18821e-08
1.00711e-07
1.60268e-07
2.50261e-07
3.83923e-07
5.79259e-07
8.58965e-07
1.25035e-06
1.78407e-06
2.49149e-06
3.4009e-06
4.53315e-06
5.8983e-06
7.49306e-06
9.29971e-06
1.12892e-05
1.34369e-05
1.56958e-05
1.80191e-05
2.03911e-05
2.27721e-05
2.51129e-05
2.7422e-05
2.96565e-05
3.1797e-05
3.38288e-05
3.57414e-05
3.75294e-05
3.91952e-05
4.07523e-05
4.22312e-05
4.36866e-05
4.5205e-05
4.69113e-05
4.89759e-05
5.16164e-05
5.50992e-05
5.97407e-05
6.59122e-05
7.40477e-05
8.46597e-05
9.83601e-05
0.000115889
0.000138154
0.000166274
0.000201645
0.00024601
0.000301557
0.00037104
0.000457927
0.000566604
0.000702622
0.000873022
0.00108677
0.00135529
0.00169325
0.00211948
0.0026584
0.00334175
0.00421127
0.00531549
0.0067119
0.00852479
0.0109381
0.0141041
0.018427
0.0340078
0.0498365
0.0657404
0.0815641
0.0971588
0.112422
0.127296
0.141572
0.155161
0.167931
0.179547
0.189892
0.199984
0.208602
0.215623
0.220985
0.224755
0.227165
0.228565
0.229309
0.229677
0.229853
0.229934
0.229971
0.229987
0.229995
0.229998
0.229999
0.23
1.10629e-09
4.79674e-09
1.08366e-08
2.05768e-08
3.60904e-08
6.05008e-08
9.84263e-08
1.56682e-07
2.44938e-07
3.76587e-07
5.69525e-07
8.46632e-07
1.23561e-06
1.76774e-06
2.47538e-06
3.38807e-06
4.52824e-06
5.90691e-06
7.52254e-06
9.35642e-06
1.1391e-05
1.35866e-05
1.58953e-05
1.83012e-05
2.07496e-05
2.31961e-05
2.56438e-05
2.80416e-05
3.0366e-05
3.25969e-05
3.4718e-05
3.67173e-05
3.85886e-05
4.03337e-05
4.1967e-05
4.35218e-05
4.50578e-05
4.66689e-05
4.84914e-05
5.07087e-05
5.35534e-05
5.73074e-05
6.23034e-05
6.89301e-05
7.76422e-05
8.89771e-05
0.000103579
0.00012223
0.000145895
0.000175766
0.000213336
0.000260478
0.000319546
0.000393513
0.000486136
0.000602173
0.000747662
0.000930284
0.00115983
0.00144881
0.00181329
0.00227394
0.00285756
0.00359914
0.00454492
0.00573553
0.00725489
0.00927204
0.0119323
0.0155031
0.0242164
0.0398023
0.0556277
0.0715024
0.0872665
0.102761
0.117839
0.132357
0.146318
0.159552
0.171767
0.183291
0.193194
0.202817
0.210921
0.217406
0.222251
0.225573
0.227644
0.228821
0.229435
0.229737
0.22988
0.229946
0.229976
0.22999
0.229996
0.229998
0.229999
0.23
1.0789e-09
4.67835e-09
1.05683e-08
2.00711e-08
3.52156e-08
5.90816e-08
9.62665e-08
1.53503e-07
2.40419e-07
3.70399e-07
5.614e-07
8.365e-07
1.2238e-06
1.75527e-06
2.46425e-06
3.38159e-06
4.53111e-06
5.9266e-06
7.5649e-06
9.43696e-06
1.15133e-05
1.37563e-05
1.61419e-05
1.86213e-05
2.11433e-05
2.37014e-05
2.62432e-05
2.87404e-05
3.11676e-05
3.35032e-05
3.57291e-05
3.78321e-05
3.98048e-05
4.16489e-05
4.33799e-05
4.50345e-05
4.66781e-05
4.84139e-05
5.03909e-05
5.28078e-05
5.59139e-05
6.00086e-05
6.54435e-05
7.26276e-05
8.20392e-05
9.42446e-05
0.000109925
0.000129912
0.000155232
0.00018716
0.000227295
0.000277649
0.000340757
0.000419822
0.000518902
0.000643143
0.000799081
0.000995026
0.00124156
0.00155217
0.00194401
0.00243889
0.00306443
0.00385527
0.00485427
0.00609006
0.00763715
0.00961461
0.0120412
0.0149055
0.0291657
0.0449889
0.0608918
0.0767231
0.0923466
0.107662
0.122586
0.13695
0.150686
0.163714
0.175232
0.18654
0.196153
0.20534
0.212952
0.218935
0.22331
0.22624
0.228025
0.229021
0.229533
0.229783
0.229901
0.229956
0.22998
0.229992
0.229996
0.229999
0.23
0.23
1.05233e-09
4.56373e-09
1.0314e-08
1.96005e-08
3.44223e-08
5.78203e-08
9.43473e-08
1.50691e-07
2.36448e-07
3.65006e-07
5.54407e-07
8.27945e-07
1.21415e-06
1.74573e-06
2.45708e-06
3.38052e-06
4.54171e-06
5.95595e-06
7.62275e-06
9.53183e-06
1.16585e-05
1.39638e-05
1.64167e-05
1.89759e-05
2.15982e-05
2.4252e-05
2.68997e-05
2.95098e-05
3.20546e-05
3.45109e-05
3.68591e-05
3.90845e-05
4.1179e-05
4.31443e-05
4.49975e-05
4.67789e-05
4.85611e-05
5.04577e-05
5.26324e-05
5.53006e-05
5.873e-05
6.32396e-05
6.92015e-05
7.70475e-05
8.72824e-05
0.000100505
0.000117439
0.000138967
0.000166186
0.000200461
0.000243506
0.000297481
0.000365116
0.000449867
0.000556122
0.000689464
0.000857019
0.0010679
0.0013338
0.00166981
0.00209541
0.00263599
0.00332473
0.0042054
0.00532751
0.00675039
0.0085924
0.0110453
0.01425
0.0185758
0.0341713
0.0499994
0.0658794
0.0816561
0.0971902
0.112355
0.127023
0.141162
0.154653
0.167389
0.178719
0.188959
0.198971
0.207606
0.214718
0.220231
0.224187
0.226781
0.228329
0.229178
0.229609
0.229819
0.229917
0.229963
0.229984
0.229993
0.229997
0.229999
0.23
0.23
1.02788e-09
4.45865e-09
1.00813e-08
1.91725e-08
3.37038e-08
5.66822e-08
9.26226e-08
1.48176e-07
2.32917e-07
3.60251e-07
5.48316e-07
8.20645e-07
1.20622e-06
1.73848e-06
2.4529e-06
3.38309e-06
4.55682e-06
5.98963e-06
7.68711e-06
9.6348e-06
1.18078e-05
1.41823e-05
1.67104e-05
1.93505e-05
2.20805e-05
2.48453e-05
2.7611e-05
3.03462e-05
3.30225e-05
3.56151e-05
3.81033e-05
4.04711e-05
4.27095e-05
4.48204e-05
4.68228e-05
4.87616e-05
5.0717e-05
5.28153e-05
5.52355e-05
5.82115e-05
6.20308e-05
6.70334e-05
7.36135e-05
8.22275e-05
9.34088e-05
0.000107792
0.000126145
0.000149409
0.000178751
0.00021563
0.000261877
0.000319798
0.00039231
0.000483102
0.000596861
0.000739545
0.000918754
0.00114421
0.00142841
0.00178746
0.00224227
0.00282014
0.00355706
0.00450097
0.00569248
0.00722473
0.00928374
0.0120146
0.0156957
0.0231329
0.0387269
0.0545316
0.0703512
0.0860279
0.10143
0.116445
0.130979
0.144961
0.158236
0.170714
0.181744
0.191538
0.20124
0.209497
0.216202
0.221312
0.224908
0.227217
0.22857
0.229302
0.229669
0.229847
0.22993
0.229969
0.229986
0.229994
0.229997
0.229999
0.23
0.23
1.00552e-09
4.36262e-09
9.86892e-09
1.87821e-08
3.30495e-08
5.5648e-08
9.10589e-08
1.45902e-07
2.29739e-07
3.55999e-07
5.42928e-07
8.14306e-07
1.19959e-06
1.73301e-06
2.45122e-06
3.38954e-06
4.57722e-06
6.03276e-06
7.76102e-06
9.75224e-06
1.19838e-05
1.44233e-05
1.70326e-05
1.97715e-05
2.25996e-05
2.54773e-05
2.83682e-05
3.12389e-05
3.40598e-05
3.68045e-05
3.94509e-05
4.19818e-05
4.43876e-05
4.66705e-05
4.8852e-05
5.09821e-05
5.31497e-05
5.54947e-05
5.82131e-05
6.15582e-05
6.58384e-05
7.14155e-05
7.87075e-05
8.81968e-05
0.000100448
0.000116136
0.000136076
0.00016127
0.000192965
0.000232715
0.000282474
0.000344698
0.000422489
0.000519759
0.000641462
0.000793867
0.000984924
0.00122472
0.00152608
0.00190532
0.0023832
0.00298621
0.00374809
0.00471124
0.00590475
0.00740467
0.00935648
0.0118194
0.0149083
0.0268482
0.042651
0.0585464
0.074388
0.0900394
0.105377
0.120288
0.134659
0.148377
0.161343
0.173493
0.184348
0.193935
0.203269
0.211147
0.21747
0.222218
0.225499
0.227569
0.228762
0.229399
0.229716
0.229868
0.22994
0.229973
0.229988
0.229995
0.229998
0.229999
0.23
0.23
9.85066e-10
4.27475e-09
9.67459e-09
1.84252e-08
3.24514e-08
5.47031e-08
8.96312e-08
1.43829e-07
2.26846e-07
3.52142e-07
5.3807e-07
8.08656e-07
1.19382e-06
1.72854e-06
2.45061e-06
3.39688e-06
4.59837e-06
6.07563e-06
7.83536e-06
9.87001e-06
1.21594e-05
1.46655e-05
1.73575e-05
2.01943e-05
2.31298e-05
2.61286e-05
2.91537e-05
3.21707e-05
3.5149e-05
3.8061e-05
4.08836e-05
4.35986e-05
4.61959e-05
4.86786e-05
5.1071e-05
5.3429e-05
5.58512e-05
5.84918e-05
6.15647e-05
6.53429e-05
7.01563e-05
7.63892e-05
8.44837e-05
9.49504e-05
0.000108388
0.000125513
0.000147193
0.000174502
0.000208768
0.000251659
0.000305264
0.000372217
0.000455838
0.000560318
0.000690958
0.000854461
0.00105931
0.00131625
0.00163887
0.0020444
0.00255458
0.00319686
0.0040058
0.00502348
0.00627366
0.00784491
0.00987519
0.0124159
0.0155427
0.0303483
0.0462206
0.0621341
0.0779382
0.0935053
0.108725
0.123501
0.137712
0.151272
0.164053
0.175993
0.186599
0.195918
0.204966
0.21253
0.218529
0.222966
0.225982
0.227852
0.228915
0.229475
0.229752
0.229886
0.229948
0.229977
0.22999
0.229996
0.229998
0.229999
0.23
0.23
9.6634e-10
4.1943e-09
9.4966e-09
1.8098e-08
3.1903e-08
5.38359e-08
8.832e-08
1.41924e-07
2.24187e-07
3.48598e-07
5.3361e-07
8.03484e-07
1.18857e-06
1.72458e-06
2.45039e-06
3.40428e-06
4.61908e-06
6.11742e-06
7.90602e-06
9.97982e-06
1.23179e-05
1.48972e-05
1.76739e-05
2.06096e-05
2.36569e-05
2.67822e-05
2.9948e-05
3.31197e-05
3.62658e-05
3.93584e-05
4.23734e-05
4.52921e-05
4.81045e-05
5.08149e-05
5.34511e-05
5.60751e-05
5.87963e-05
6.17834e-05
6.5268e-05
6.95429e-05
7.49585e-05
8.19213e-05
9.08976e-05
0.000102426
0.000117141
0.000135801
0.00015933
0.000188872
0.000225846
0.000272033
0.000329671
0.000401584
0.000491339
0.000603455
0.000743665
0.000919251
0.00113949
0.0014162
0.00176451
0.00220378
0.00275887
0.00346175
0.00435374
0.00548328
0.00689412
0.00869688
0.0110699
0.014117
0.0180572
0.0336621
0.0494956
0.0653692
0.0811228
0.0966157
0.111729
0.12635
0.140409
0.153805
0.166439
0.178196
0.188519
0.197614
0.206417
0.213706
0.219419
0.223586
0.226376
0.22808
0.229037
0.229535
0.229781
0.229899
0.229954
0.229979
0.229991
0.229996
0.229998
0.229999
0.23
0.23
9.4926e-10
4.12089e-09
9.33405e-09
1.77989e-08
3.14007e-08
5.30401e-08
8.71141e-08
1.40167e-07
2.21729e-07
3.4531e-07
5.29457e-07
7.98643e-07
1.18362e-06
1.72077e-06
2.44996e-06
3.4108e-06
4.63743e-06
6.15409e-06
7.97298e-06
1.00877e-05
1.24805e-05
1.51229e-05
1.79749e-05
2.09987e-05
2.41659e-05
2.74193e-05
3.07282e-05
3.40584e-05
3.73786e-05
4.06606e-05
4.38801e-05
4.70187e-05
5.00668e-05
5.30307e-05
5.59423e-05
5.88701e-05
6.19342e-05
6.53177e-05
6.92688e-05
7.40985e-05
8.01766e-05
8.79298e-05
9.78471e-05
0.000110495
0.00012654
0.000146782
0.000172201
0.000204001
0.000243688
0.000293146
0.000354744
0.000431473
0.000527117
0.000646474
0.000795644
0.000982402
0.00121669
0.00151125
0.00188248
0.00235155
0.00294593
0.00370133
0.00466446
0.00587475
0.00741167
0.00945052
0.0120935
0.0155333
0.0206453
0.036364
0.0522362
0.0680924
0.0837944
0.0992254
0.114257
0.128789
0.142722
0.155975
0.168424
0.179873
0.190397
0.199162
0.207687
0.214707
0.220164
0.224098
0.226696
0.228263
0.229134
0.229583
0.229804
0.22991
0.229959
0.229982
0.229992
0.229996
0.229999
0.229999
0.23
0.23
9.33857e-10
4.05464e-09
9.18714e-09
1.7528e-08
3.09446e-08
5.23152e-08
8.60115e-08
1.38554e-07
2.19458e-07
3.42252e-07
5.25559e-07
7.94037e-07
1.1788e-06
1.71682e-06
2.44887e-06
3.41578e-06
4.65388e-06
6.189e-06
8.0338e-06
1.0184e-05
1.26243e-05
1.5327e-05
1.82566e-05
2.13741e-05
2.46415e-05
2.80185e-05
3.1466e-05
3.4952e-05
3.84455e-05
4.19188e-05
4.53481e-05
4.87158e-05
5.2014e-05
5.52518e-05
5.84657e-05
6.17305e-05
6.51768e-05
6.90005e-05
7.34647e-05
7.88957e-05
8.56798e-05
9.42614e-05
0.00010515
0.000118936
0.000136315
0.000158126
0.000185391
0.00021937
0.000261634
0.000314146
0.000379371
0.000460416
0.000561202
0.000686695
0.000843198
0.00103873
0.00128353
0.00159071
0.00197713
0.00246457
0.00308129
0.00386413
0.00486144
0.0061012
0.00769215
0.00980219
0.0125338
0.0160931
0.0228756
0.0386304
0.0545207
0.0703748
0.0860492
0.101418
0.116386
0.130849
0.144727
0.157907
0.170213
0.181183
0.191677
0.200296
0.208684
0.215523
0.220772
0.224512
0.226953
0.228409
0.22921
0.229621
0.229822
0.229918
0.229963
0.229983
0.229993
0.229997
0.229999
0.229999
0.23
0.23
9.20322e-10
3.99636e-09
9.05763e-09
1.72885e-08
3.05396e-08
5.16686e-08
8.50222e-08
1.37096e-07
2.1739e-07
3.39439e-07
5.21924e-07
7.89657e-07
1.17405e-06
1.71261e-06
2.44693e-06
3.41895e-06
4.66611e-06
6.21586e-06
8.08219e-06
1.02645e-05
1.27462e-05
1.55008e-05
1.84989e-05
2.16964e-05
2.50553e-05
2.85466e-05
3.21243e-05
3.5756e-05
3.94134e-05
4.307e-05
4.67036e-05
5.02985e-05
5.38495e-05
5.73701e-05
6.09023e-05
6.45267e-05
6.8383e-05
7.26775e-05
7.76842e-05
8.37419e-05
9.12496e-05
0.000100666
0.000112518
0.000127417
0.000146084
0.000169386
0.00019838
0.000234368
0.000278964
0.00033418
0.000402537
0.000487193
0.000592123
0.000722335
0.000884151
0.00108557
0.00133676
0.00165061
0.0020436
0.00253682
0.00315733
0.00394007
0.00493036
0.00615161
0.00770602
0.00975089
0.0123715
0.0157548
0.024447
0.0403195
0.0562683
0.0721428
0.0878137
0.103166
0.118097
0.132511
0.146303
0.15938
0.171657
0.1824
0.192833
0.201307
0.209507
0.216177
0.221258
0.22484
0.227154
0.228522
0.229269
0.22965
0.229836
0.229925
0.229966
0.229985
0.229993
0.229997
0.229999
0.23
0.23
0.23
9.09051e-10
3.94775e-09
8.94922e-09
1.7087e-08
3.0197e-08
5.11175e-08
8.41723e-08
1.35832e-07
2.15577e-07
3.36938e-07
5.18635e-07
7.8559e-07
1.16945e-06
1.70814e-06
2.44388e-06
3.41955e-06
4.67366e-06
6.23524e-06
8.11932e-06
1.0327e-05
1.28432e-05
1.56426e-05
1.8692e-05
2.1958e-05
2.53988e-05
2.89773e-05
3.26642e-05
3.64219e-05
4.02219e-05
4.40398e-05
4.7856e-05
5.16578e-05
5.54439e-05
5.9233e-05
6.30759e-05
6.70647e-05
7.13375e-05
7.61071e-05
8.16551e-05
8.83285e-05
9.65358e-05
0.000106747
0.000119503
0.000135432
0.000155276
0.000179926
0.000210464
0.000248219
0.000294833
0.000352344
0.000423292
0.000510846
0.000618968
0.000752623
0.000918038
0.00112304
0.00137746
0.00169373
0.00208753
0.00257868
0.0031924
0.00396076
0.00492477
0.00610755
0.00759168
0.00952538
0.0119781
0.0151349
0.0255204
0.0415254
0.057552
0.0734661
0.0891475
0.104489
0.119387
0.133746
0.147474
0.160483
0.172658
0.183394
0.193719
0.202077
0.210158
0.216677
0.221625
0.225087
0.227305
0.228607
0.229314
0.229672
0.229846
0.229929
0.229968
0.229986
0.229994
0.229997
0.229999
0.23
0.23
0.23
9.00727e-10
3.91174e-09
8.8685e-09
1.69359e-08
2.99379e-08
5.06967e-08
8.35159e-08
1.34844e-07
2.14137e-07
3.34916e-07
5.15915e-07
7.82123e-07
1.16535e-06
1.7038e-06
2.44019e-06
3.41805e-06
4.67674e-06
6.24624e-06
8.14292e-06
1.03678e-05
1.29083e-05
1.57394e-05
1.88289e-05
2.21408e-05
2.56388e-05
2.92861e-05
3.30485e-05
3.68974e-05
4.08041e-05
4.47452e-05
4.87031e-05
5.26677e-05
5.66425e-05
6.06529e-05
6.47588e-05
6.9066e-05
7.37249e-05
7.89288e-05
8.49628e-05
9.21789e-05
0.000100992
0.000111883
0.000125402
0.000142193
0.000163014
0.000188775
0.000220577
0.000259769
0.000308013
0.000367363
0.000440365
0.000530185
0.000640764
0.000777014
0.000945061
0.00115256
0.00140909
0.00172664
0.00212025
0.00260881
0.00321612
0.00397223
0.00491523
0.00607054
0.00750342
0.00935897
0.0116977
0.0147002
0.02624
0.0423323
0.0584091
0.0743471
0.0900353
0.105368
0.120249
0.134588
0.148294
0.161271
0.173405
0.184042
0.194315
0.202598
0.210602
0.217034
0.221883
0.22526
0.22741
0.228665
0.229344
0.229687
0.229854
0.229933
0.229969
0.229986
0.229994
0.229997
0.229999
0.23
0.23
0.23
8.96256e-10
3.8923e-09
8.82459e-09
1.68529e-08
2.97941e-08
5.04606e-08
8.3143e-08
1.34274e-07
2.13296e-07
3.33715e-07
5.14263e-07
7.79956e-07
1.16267e-06
1.70076e-06
2.43717e-06
3.4158e-06
4.67649e-06
6.2497e-06
8.1524e-06
1.03863e-05
1.29387e-05
1.57857e-05
1.88955e-05
2.22325e-05
2.57602e-05
2.94429e-05
3.32475e-05
3.71441e-05
4.11065e-05
4.51131e-05
4.91478e-05
5.32032e-05
5.72858e-05
6.14258e-05
6.56905e-05
7.01967e-05
7.51107e-05
8.06285e-05
8.69957e-05
9.45731e-05
0.000103783
0.000115111
0.000129119
0.000146458
0.000167899
0.000194363
0.000226966
0.00026707
0.00031635
0.000376869
0.000451184
0.000542462
0.000654633
0.000792586
0.0009624
0.00117165
0.00142979
0.00174861
0.00214287
0.00263107
0.00323645
0.00398831
0.00492381
0.00606987
0.00748505
0.00931506
0.0116198
0.0145798
0.0266382
0.0427631
0.0588598
0.0748077
0.0904973
0.105826
0.120699
0.135025
0.148713
0.161672
0.173781
0.184377
0.194618
0.202859
0.210822
0.21721
0.222013
0.225347
0.227463
0.228695
0.22936
0.229694
0.229857
0.229934
0.22997
0.229987
0.229994
0.229997
0.229999
0.23
0.23
0.23
8.96559e-10
3.8936e-09
8.82744e-09
1.68582e-08
2.9803e-08
5.04747e-08
8.31648e-08
1.34307e-07
2.13341e-07
3.33776e-07
5.14342e-07
7.80046e-07
1.16276e-06
1.70082e-06
2.43716e-06
3.41564e-06
4.6761e-06
6.24899e-06
8.15125e-06
1.03846e-05
1.29363e-05
1.57826e-05
1.88916e-05
2.22278e-05
2.57549e-05
2.94371e-05
3.32414e-05
3.7138e-05
4.1101e-05
4.51086e-05
4.91448e-05
5.32021e-05
5.72872e-05
6.14302e-05
6.56985e-05
7.02091e-05
7.51281e-05
8.06519e-05
8.70264e-05
9.46127e-05
0.000103833
0.000115175
0.000129198
0.000146557
0.000168022
0.000194514
0.00022715
0.000267294
0.000316619
0.000377192
0.000451567
0.000542912
0.000655156
0.000793186
0.00096308
0.00117241
0.00143062
0.0017495
0.00214382
0.00263208
0.00323754
0.00398953
0.00492524
0.00607164
0.00748722
0.00931734
0.011621
0.0145784
0.0266346
0.0427596
0.0588569
0.0748055
0.0904958
0.105826
0.120699
0.135026
0.148714
0.161674
0.173783
0.184381
0.194622
0.202862
0.210825
0.217213
0.222015
0.225348
0.227464
0.228696
0.22936
0.229695
0.229857
0.229934
0.22997
0.229987
0.229994
0.229997
0.229999
0.23
0.23
0.23
9.01543e-10
3.9152e-09
8.87608e-09
1.69498e-08
2.99612e-08
5.07337e-08
8.35723e-08
1.34926e-07
2.14254e-07
3.35074e-07
5.16116e-07
7.82357e-07
1.16558e-06
1.70398e-06
2.44018e-06
3.41768e-06
4.67578e-06
6.24438e-06
8.13983e-06
1.03632e-05
1.29017e-05
1.57306e-05
1.88178e-05
2.21271e-05
2.56233e-05
2.92691e-05
3.30305e-05
3.68792e-05
4.07873e-05
4.47312e-05
4.86932e-05
5.26634e-05
5.66451e-05
6.06639e-05
6.478e-05
6.90993e-05
7.37722e-05
7.89927e-05
8.50469e-05
9.22875e-05
0.000101131
0.000112058
0.000125622
0.000142467
0.000163354
0.000189193
0.00022109
0.000260396
0.000308773
0.000368278
0.00044146
0.000531486
0.000642297
0.000778801
0.000947123
0.00115491
0.00141174
0.00172958
0.00212347
0.00261231
0.0032199
0.00397631
0.00491968
0.00607526
0.00750835
0.00936337
0.0116996
0.0146978
0.0262329
0.0423236
0.0584011
0.0743414
0.0900309
0.105366
0.12025
0.134592
0.148302
0.161285
0.173419
0.18405
0.194323
0.202606
0.210613
0.217043
0.221889
0.225263
0.227412
0.228666
0.229345
0.229687
0.229854
0.229933
0.22997
0.229986
0.229994
0.229997
0.229999
0.23
0.23
0.23
9.10359e-10
3.95331e-09
8.96141e-09
1.71093e-08
3.02346e-08
5.11774e-08
8.42636e-08
1.35967e-07
2.15767e-07
3.37194e-07
5.18961e-07
7.85972e-07
1.16984e-06
1.70844e-06
2.4439e-06
3.41901e-06
4.67216e-06
6.23223e-06
8.11427e-06
1.03194e-05
1.28325e-05
1.56283e-05
1.8674e-05
2.19365e-05
2.53739e-05
2.89497e-05
3.26353e-05
3.63943e-05
4.01964e-05
4.40178e-05
4.78393e-05
5.16482e-05
5.54437e-05
5.92448e-05
6.31022e-05
6.71086e-05
7.14023e-05
7.61969e-05
8.17748e-05
8.8484e-05
9.67346e-05
0.000106998
0.000119819
0.000135826
0.000155766
0.000180531
0.00021121
0.000249134
0.000295952
0.000353706
0.000424943
0.000512836
0.000621355
0.000755469
0.00092141
0.001127
0.0013821
0.00169911
0.00209369
0.00258568
0.00320025
0.00396943
0.0049342
0.00611675
0.00760007
0.00953173
0.0119812
0.0151379
0.0255185
0.0415193
0.0575421
0.0734533
0.0891355
0.10448
0.119386
0.133753
0.147491
0.160514
0.172702
0.183395
0.193728
0.20209
0.210178
0.216694
0.221637
0.225095
0.227309
0.228609
0.229314
0.229672
0.229847
0.229929
0.229968
0.229986
0.229994
0.229997
0.229999
0.23
0.23
0.23
9.22011e-10
4.00354e-09
9.07337e-09
1.73173e-08
3.0588e-08
5.17455e-08
8.51396e-08
1.37269e-07
2.17634e-07
3.39769e-07
5.22346e-07
7.90156e-07
1.17457e-06
1.71303e-06
2.447e-06
3.41833e-06
4.66425e-06
6.21205e-06
8.07561e-06
1.02543e-05
1.27314e-05
1.54809e-05
1.84739e-05
2.16667e-05
2.50209e-05
2.85085e-05
3.20856e-05
3.57168e-05
3.9375e-05
4.30346e-05
4.66736e-05
5.02764e-05
5.3838e-05
5.73722e-05
6.09207e-05
6.45646e-05
6.8444e-05
7.27659e-05
7.78054e-05
8.39024e-05
9.14576e-05
0.000100932
0.000112854
0.000127839
0.000146612
0.000170043
0.000199194
0.000235374
0.000280202
0.0003357
0.000404397
0.000489462
0.000594881
0.000725674
0.000888176
0.0010904
0.00134251
0.0016574
0.00205152
0.0025459
0.0031675
0.00395107
0.00494163
0.00616166
0.0077129
0.00975299
0.0123698
0.0157604
0.0244509
0.040318
0.0562667
0.0721423
0.087812
0.103168
0.118105
0.132526
0.14633
0.159419
0.171672
0.182475
0.192815
0.201319
0.209544
0.216202
0.221277
0.224852
0.22716
0.228525
0.229271
0.229651
0.229836
0.229925
0.229966
0.229985
0.229993
0.229997
0.229999
0.23
0.23
0.23
9.35887e-10
4.06327e-09
9.20606e-09
1.75627e-08
3.10029e-08
5.24081e-08
8.61536e-08
1.38764e-07
2.19757e-07
3.42661e-07
5.2609e-07
7.94681e-07
1.1795e-06
1.71744e-06
2.44917e-06
3.41533e-06
4.65193e-06
6.18482e-06
8.02633e-06
1.01721e-05
1.26068e-05
1.53029e-05
1.82268e-05
2.13374e-05
2.45981e-05
2.79721e-05
3.14154e-05
3.48989e-05
3.83919e-05
4.1867e-05
4.53006e-05
4.86754e-05
5.19835e-05
5.52341e-05
5.84635e-05
6.17467e-05
6.52147e-05
6.90642e-05
7.35586e-05
7.90255e-05
8.58526e-05
9.44863e-05
0.000105438
0.000119301
0.000136775
0.000158702
0.000186109
0.000220263
0.00026274
0.000315513
0.000381058
0.000462494
0.000563759
0.000689836
0.000847046
0.00104343
0.00128923
0.00159757
0.00198526
0.00247399
0.0030918
0.00387518
0.00487188
0.00610877
0.00769383
0.0097973
0.0125259
0.0160985
0.0228784
0.0386195
0.0545005
0.0703514
0.0860336
0.101417
0.116395
0.130871
0.144757
0.157963
0.170335
0.181251
0.191633
0.200289
0.208689
0.215552
0.220797
0.224529
0.226961
0.228413
0.229212
0.229622
0.229822
0.229918
0.229963
0.229983
0.229993
0.229997
0.229999
0.229999
0.23
0.23
9.51598e-10
4.13082e-09
9.35584e-09
1.78389e-08
3.14681e-08
5.31477e-08
8.72794e-08
1.40413e-07
2.22081e-07
3.45797e-07
5.30101e-07
7.99444e-07
1.18454e-06
1.72167e-06
2.45057e-06
3.41065e-06
4.63589e-06
6.15018e-06
7.96544e-06
1.00755e-05
1.24625e-05
1.50986e-05
1.79425e-05
2.09587e-05
2.41196e-05
2.7365e-05
3.06675e-05
3.3993e-05
3.73105e-05
4.05921e-05
4.38137e-05
4.6957e-05
5.00126e-05
5.29867e-05
5.59109e-05
5.88538e-05
6.19355e-05
6.53394e-05
6.93141e-05
7.41711e-05
8.02811e-05
8.80721e-05
9.80345e-05
0.000110736
0.000126847
0.000147169
0.000172684
0.000204602
0.000244432
0.000294062
0.000355868
0.00043285
0.000528797
0.000648517
0.000798117
0.000985377
0.00122023
0.00151542
0.00188728
0.00235691
0.0029516
0.00370684
0.00466896
0.00587663
0.00741014
0.00944413
0.0120843
0.0155338
0.0206409
0.0363546
0.0522328
0.0681006
0.0838118
0.0992362
0.114281
0.128844
0.142828
0.156137
0.168656
0.179912
0.190139
0.199069
0.207705
0.214749
0.2202
0.224121
0.226708
0.228269
0.229136
0.229584
0.229804
0.22991
0.229959
0.229982
0.229992
0.229996
0.229999
0.229999
0.23
0.23
9.68955e-10
4.20541e-09
9.52099e-09
1.81429e-08
3.19786e-08
5.39569e-08
8.85066e-08
1.42202e-07
2.2459e-07
3.49162e-07
5.34368e-07
8.0445e-07
1.18972e-06
1.72579e-06
2.4514e-06
3.40457e-06
4.61789e-06
6.1137e-06
7.8986e-06
9.96722e-06
1.22988e-05
1.487e-05
1.76372e-05
2.05622e-05
2.36024e-05
2.67195e-05
2.98776e-05
3.30428e-05
3.6184e-05
3.92738e-05
4.22881e-05
4.52087e-05
4.80253e-05
5.07423e-05
5.33871e-05
5.60215e-05
5.87547e-05
6.17553e-05
6.52548e-05
6.95459e-05
7.49792e-05
8.19616e-05
9.09597e-05
0.000102513
0.000117255
0.000135946
0.000159511
0.000189092
0.000226108
0.00027234
0.000330022
0.000401974
0.000491757
0.000603878
0.000744051
0.000919536
0.00113957
0.00141594
0.00176371
0.00220217
0.00275613
0.00345761
0.00434807
0.00547574
0.00688472
0.00868536
0.0110576
0.0141107
0.0180419
0.03364
0.0494786
0.0653489
0.081102
0.0966137
0.111755
0.126426
0.140535
0.153993
0.166694
0.178177
0.188547
0.197687
0.206504
0.213778
0.219469
0.223617
0.226391
0.228087
0.22904
0.229536
0.229782
0.229899
0.229954
0.229979
0.229991
0.229996
0.229998
0.229999
0.23
0.23
9.8793e-10
4.2869e-09
9.70129e-09
1.84743e-08
3.25344e-08
5.48363e-08
8.98372e-08
1.44138e-07
2.27297e-07
3.5278e-07
5.38939e-07
8.09787e-07
1.1952e-06
1.73008e-06