/*--------------------------------*- C++ -*----------------------------------*\
  =========                 |
  \\      /  F ield         | OpenFOAM: The Open Source CFD Toolbox
   \\    /   O peration     | Website:  https://openfoam.org
    \\  /    A nd           | Version:  8
     \\/     M anipulation  |
\*---------------------------------------------------------------------------*/
FoamFile
{
    version     2.0;
    format      ascii;
    class       surfaceScalarField;
    location    "80/fluid";
    object      phi;
}
// * * * * * * * * * * * * * * * * * * * * * * * * * * * * * * * * * * * * * //

dimensions      [1 0 -1 0 0 0 0];

internalField   nonuniform List<scalar> 
7860
(
6.56979e-07
-1.88194e-08
6.53723e-07
-5.68657e-08
6.49083e-07
-9.50908e-08
6.42881e-07
-1.33632e-07
6.34894e-07
-1.72889e-07
6.24845e-07
-2.13079e-07
6.12419e-07
-2.54221e-07
5.97295e-07
-2.96135e-07
5.79201e-07
-3.38414e-07
5.57993e-07
-3.80365e-07
5.33705e-07
-4.20958e-07
5.06508e-07
-4.58824e-07
4.76764e-07
-4.92356e-07
4.45021e-07
-5.19891e-07
4.11974e-07
-5.3996e-07
3.78389e-07
-5.51582e-07
3.45024e-07
-5.54478e-07
3.12541e-07
-5.49156e-07
2.81464e-07
-5.36796e-07
2.52161e-07
-5.19001e-07
2.24856e-07
-4.97489e-07
1.99683e-07
-4.73845e-07
1.76703e-07
-4.49359e-07
1.55835e-07
-4.24982e-07
1.36933e-07
-4.01361e-07
1.19835e-07
-3.78901e-07
1.04371e-07
-3.57821e-07
9.03734e-08
-3.38213e-07
7.76893e-08
-3.20085e-07
6.61758e-08
-3.03391e-07
5.57019e-08
-2.88057e-07
4.61502e-08
-2.73998e-07
3.74149e-08
-2.61123e-07
2.94005e-08
-2.49342e-07
2.20229e-08
-2.38572e-07
1.52065e-08
-2.28736e-07
8.88409e-09
-2.1976e-07
2.99525e-09
-2.11582e-07
-2.51053e-09
-2.04143e-07
-7.67448e-09
-1.97387e-07
-1.25351e-08
-1.91255e-07
-1.71304e-08
-1.85703e-07
-2.14942e-08
-1.80695e-07
-2.56569e-08
-1.76197e-07
-2.9646e-08
-1.72178e-07
-3.34863e-08
-1.68609e-07
-3.72003e-08
-1.65464e-07
-4.08085e-08
-1.6272e-07
-4.43298e-08
-1.60356e-07
-4.77812e-08
-1.58353e-07
-5.11789e-08
-1.56696e-07
-5.45373e-08
-1.55371e-07
-5.78707e-08
-1.54365e-07
-6.11915e-08
-1.5367e-07
-6.45123e-08
-1.53277e-07
-6.78442e-08
-1.53183e-07
-7.11987e-08
-1.53385e-07
-7.45858e-08
-1.53883e-07
-7.80157e-08
-1.54679e-07
-8.14978e-08
-1.55779e-07
-8.50411e-08
-1.57192e-07
-8.86544e-08
-1.58932e-07
-9.23457e-08
-1.61014e-07
-9.61233e-08
-1.63463e-07
-9.9995e-08
-1.66305e-07
-1.0397e-07
-1.69579e-07
-1.08059e-07
-1.73331e-07
-1.12276e-07
-1.77633e-07
-1.16641e-07
-1.82564e-07
-1.21179e-07
-1.88228e-07
-1.259e-07
-1.94783e-07
-1.30729e-07
-2.02411e-07
-1.40406e-07
-2.12807e-07
-1.47095e-07
-2.33856e-07
-1.55274e-07
-2.57786e-07
-1.64776e-07
-2.8474e-07
-1.75745e-07
-3.15103e-07
-1.88429e-07
-3.49327e-07
-2.03138e-07
-3.87861e-07
-2.20279e-07
-4.31101e-07
-2.40346e-07
-4.79403e-07
-2.64176e-07
-5.33082e-07
-2.92674e-07
-5.92141e-07
-3.27136e-07
-6.5637e-07
-3.69183e-07
-7.24701e-07
-4.20722e-07
-7.93998e-07
-4.82932e-07
-8.58463e-07
-5.56446e-07
-9.08465e-07
-6.40558e-07
-9.31959e-07
-7.31541e-07
-9.20119e-07
-8.22705e-07
-8.73459e-07
-9.07101e-07
-8.01009e-07
-9.80111e-07
-7.13642e-07
-1.04022e-06
-6.19478e-07
-1.08766e-06
-5.2289e-07
-1.12329e-06
-4.2624e-07
-1.14915e-06
-3.30543e-07
-1.16714e-06
-2.358e-07
-1.17879e-06
-1.40813e-07
-4.60914e-08
6.57956e-07
-1.8243e-08
6.55792e-07
-5.4705e-08
6.51868e-07
-9.11769e-08
6.46134e-07
-1.27915e-07
6.38433e-07
-1.6522e-07
6.28552e-07
-2.03252e-07
6.16245e-07
-2.42e-07
6.01263e-07
-2.8129e-07
5.83397e-07
-3.20756e-07
5.6253e-07
-3.59805e-07
5.3868e-07
-3.97548e-07
5.12016e-07
-4.32768e-07
4.82887e-07
-4.64034e-07
4.51816e-07
-4.89843e-07
4.19462e-07
-5.08842e-07
3.86556e-07
-5.20085e-07
3.53815e-07
-5.23256e-07
3.21869e-07
-5.18753e-07
2.91211e-07
-5.07616e-07
2.62177e-07
-4.91308e-07
2.34963e-07
-4.71427e-07
2.09669e-07
-4.4949e-07
1.86332e-07
-4.26744e-07
1.64905e-07
-4.04072e-07
1.45295e-07
-3.82092e-07
1.27394e-07
-3.61189e-07
1.11081e-07
-3.41571e-07
9.62238e-08
-3.2332e-07
8.269e-08
-3.0644e-07
7.03529e-08
-2.90885e-07
5.90912e-08
-2.76584e-07
4.87917e-08
-2.63456e-07
3.93503e-08
-2.51418e-07
3.06719e-08
-2.40386e-07
2.26696e-08
-2.30285e-07
1.52646e-08
-2.21042e-07
8.3862e-09
-2.12594e-07
1.97029e-09
-2.04882e-07
-4.03516e-09
-1.97853e-07
-9.67337e-09
-1.91457e-07
-1.4987e-08
-1.8564e-07
-2.00162e-08
-1.80364e-07
-2.47972e-08
-1.75596e-07
-2.93625e-08
-1.71306e-07
-3.37415e-08
-1.67466e-07
-3.79609e-08
-1.6405e-07
-4.20448e-08
-1.61033e-07
-4.60155e-08
-1.58396e-07
-4.98932e-08
-1.56119e-07
-5.36966e-08
-1.54184e-07
-5.74433e-08
-1.52577e-07
-6.11495e-08
-1.51286e-07
-6.48306e-08
-1.50299e-07
-6.85011e-08
-1.49608e-07
-7.21752e-08
-1.49206e-07
-7.58664e-08
-1.49089e-07
-7.95881e-08
-1.49254e-07
-8.33533e-08
-1.49702e-07
-8.71751e-08
-1.50435e-07
-9.10666e-08
-1.5146e-07
-9.50414e-08
-1.52785e-07
-9.91134e-08
-1.54423e-07
-1.03297e-07
-1.56389e-07
-1.0761e-07
-1.58706e-07
-1.12068e-07
-1.614e-07
-1.16696e-07
-1.64504e-07
-1.21522e-07
-1.68059e-07
-1.2659e-07
-1.72124e-07
-1.3197e-07
-1.76746e-07
-1.37771e-07
-1.81995e-07
-1.4409e-07
-1.88035e-07
-1.50023e-07
-1.95088e-07
-1.5997e-07
-2.07726e-07
-1.67126e-07
-2.2734e-07
-1.75916e-07
-2.49838e-07
-1.86332e-07
-2.75415e-07
-1.98487e-07
-3.04347e-07
-2.12614e-07
-3.36988e-07
-2.29039e-07
-3.73716e-07
-2.48176e-07
-4.14861e-07
-2.70462e-07
-4.60791e-07
-2.96596e-07
-5.11599e-07
-3.27384e-07
-5.67232e-07
-3.6372e-07
-6.27304e-07
-4.07136e-07
-6.90246e-07
-4.59206e-07
-7.52486e-07
-5.2139e-07
-8.07987e-07
-5.94377e-07
-8.47249e-07
-6.7664e-07
-8.59972e-07
-7.63415e-07
-8.40887e-07
-8.48213e-07
-7.93303e-07
-9.25724e-07
-7.25941e-07
-9.93018e-07
-6.4752e-07
-1.04922e-06
-5.63801e-07
-1.09447e-06
-4.77877e-07
-1.1293e-06
-3.91504e-07
-1.15474e-06
-3.05134e-07
-1.17182e-06
-2.1874e-07
-1.18117e-06
-1.31469e-07
-4.34368e-08
6.57582e-07
-1.72923e-08
6.54829e-07
-5.19554e-08
6.50242e-07
-8.65984e-08
6.43713e-07
-1.21403e-07
6.35116e-07
-1.56653e-07
6.24308e-07
-1.92493e-07
6.11146e-07
-2.28918e-07
5.9551e-07
-2.65777e-07
5.77316e-07
-3.02749e-07
5.5652e-07
-3.39284e-07
5.3315e-07
-3.74571e-07
5.07366e-07
-4.07527e-07
4.79469e-07
-4.36857e-07
4.49897e-07
-4.61184e-07
4.19199e-07
-4.79245e-07
3.87989e-07
-4.90134e-07
3.56883e-07
-4.9351e-07
3.26436e-07
-4.89689e-07
2.97095e-07
-4.79599e-07
2.69177e-07
-4.64584e-07
2.42876e-07
-4.46145e-07
2.18254e-07
-4.25694e-07
1.9529e-07
-4.0441e-07
1.73952e-07
-3.83175e-07
1.54189e-07
-3.62603e-07
1.35929e-07
-3.43065e-07
1.19085e-07
-3.24753e-07
1.03566e-07
-3.07737e-07
8.92719e-08
-2.92013e-07
7.61052e-08
-2.77532e-07
6.39689e-08
-2.64222e-07
5.27698e-08
-2.52004e-07
4.24187e-08
-2.40795e-07
3.28314e-08
-2.30517e-07
2.39291e-08
-2.21095e-07
1.56387e-08
-2.12464e-07
7.89269e-09
-2.04563e-07
6.2924e-10
-1.97339e-07
-6.19956e-09
-1.90744e-07
-1.26354e-08
-1.8473e-07
-1.8723e-08
-1.79251e-07
-2.45035e-08
-1.74272e-07
-3.00144e-08
-1.69764e-07
-3.52898e-08
-1.65701e-07
-4.03609e-08
-1.62057e-07
-4.52563e-08
-1.58808e-07
-5.00022e-08
-1.55933e-07
-5.46229e-08
-1.53413e-07
-5.91408e-08
-1.51231e-07
-6.35768e-08
-1.4937e-07
-6.79505e-08
-1.47819e-07
-7.22807e-08
-1.46563e-07
-7.6585e-08
-1.45595e-07
-8.08808e-08
-1.44905e-07
-8.5185e-08
-1.44487e-07
-8.95142e-08
-1.44337e-07
-9.38855e-08
-1.44453e-07
-9.83161e-08
-1.44835e-07
-1.02824e-07
-1.45485e-07
-1.07428e-07
-1.46407e-07
-1.1215e-07
-1.47609e-07
-1.17011e-07
-1.49101e-07
-1.22038e-07
-1.50898e-07
-1.27261e-07
-1.53017e-07
-1.32713e-07
-1.5548e-07
-1.38438e-07
-1.58313e-07
-1.44486e-07
-1.6155e-07
-1.50917e-07
-1.6524e-07
-1.57802e-07
-1.69409e-07
-1.65262e-07
-1.74077e-07
-1.73617e-07
-1.79193e-07
-1.78058e-07
-1.8472e-07
-1.87616e-07
-2.00345e-07
-1.96439e-07
-2.19202e-07
-2.06605e-07
-2.40616e-07
-2.18324e-07
-2.64946e-07
-2.31794e-07
-2.92502e-07
-2.47247e-07
-3.23615e-07
-2.64959e-07
-3.58635e-07
-2.8522e-07
-3.97894e-07
-3.08464e-07
-4.41657e-07
-3.35129e-07
-4.90018e-07
-3.65791e-07
-5.42928e-07
-4.01083e-07
-5.99837e-07
-4.42034e-07
-6.58658e-07
-4.90031e-07
-7.15225e-07
-5.46964e-07
-7.62518e-07
-6.13853e-07
-7.91358e-07
-6.89092e-07
-7.93874e-07
-7.6815e-07
-7.68273e-07
-8.45516e-07
-7.19817e-07
-9.17007e-07
-6.56468e-07
-9.80483e-07
-5.8501e-07
-1.03518e-06
-5.09545e-07
-1.081e-06
-4.32238e-07
-1.11826e-06
-3.54326e-07
-1.14698e-06
-2.76448e-07
-1.16734e-06
-1.98396e-07
-1.17962e-06
-1.19193e-07
-3.92323e-08
6.57666e-07
-1.6425e-08
6.54968e-07
-4.92613e-08
6.50376e-07
-8.20143e-08
6.4382e-07
-1.14863e-07
6.35204e-07
-1.48063e-07
6.24412e-07
-1.81747e-07
6.11327e-07
-2.15905e-07
5.95838e-07
-2.504e-07
5.77861e-07
-2.84941e-07
5.57363e-07
-3.19036e-07
5.34393e-07
-3.51957e-07
5.09104e-07
-3.82729e-07
4.81775e-07
-4.10179e-07
4.52807e-07
-4.33043e-07
4.22707e-07
-4.50143e-07
3.9205e-07
-4.60614e-07
3.61415e-07
-4.64096e-07
3.31339e-07
-4.60849e-07
3.02264e-07
-4.51705e-07
2.7451e-07
-4.37901e-07
2.48274e-07
-4.20829e-07
2.23659e-07
-4.01808e-07
2.00672e-07
-3.81962e-07
1.79274e-07
-3.62145e-07
1.59388e-07
-3.4294e-07
1.4093e-07
-3.247e-07
1.23799e-07
-3.0761e-07
1.07899e-07
-2.91742e-07
9.31361e-08
-2.77092e-07
7.94219e-08
-2.63612e-07
6.66699e-08
-2.51231e-07
5.47981e-08
-2.3987e-07
4.3728e-08
-2.29448e-07
3.33858e-08
-2.1989e-07
2.3702e-08
-2.11125e-07
1.46116e-08
-2.03089e-07
6.05352e-09
-1.95726e-07
-2.02604e-09
-1.88985e-07
-9.66765e-09
-1.82823e-07
-1.69109e-08
-1.77195e-07
-2.37987e-08
-1.72059e-07
-3.03705e-08
-1.67385e-07
-3.66628e-08
-1.63147e-07
-4.27093e-08
-1.59319e-07
-4.85414e-08
-1.55879e-07
-5.41881e-08
-1.52806e-07
-5.96765e-08
-1.5008e-07
-6.50317e-08
-1.47684e-07
-7.02775e-08
-1.45602e-07
-7.54361e-08
-1.4382e-07
-8.05289e-08
-1.42326e-07
-8.55761e-08
-1.41107e-07
-9.05977e-08
-1.40156e-07
-9.56128e-08
-1.39464e-07
-1.00641e-07
-1.39025e-07
-1.057e-07
-1.38835e-07
-1.10812e-07
-1.38891e-07
-1.15994e-07
-1.39194e-07
-1.21269e-07
-1.39744e-07
-1.26659e-07
-1.40544e-07
-1.32186e-07
-1.41603e-07
-1.37876e-07
-1.42927e-07
-1.43757e-07
-1.44529e-07
-1.49858e-07
-1.46426e-07
-1.56211e-07
-1.48637e-07
-1.6285e-07
-1.51189e-07
-1.69809e-07
-1.54123e-07
-1.77117e-07
-1.57488e-07
-1.84796e-07
-1.61336e-07
-1.92822e-07
-1.65752e-07
-2.01106e-07
-1.70784e-07
-2.11504e-07
-1.77317e-07
-2.19636e-07
-1.92851e-07
-2.28998e-07
-2.10685e-07
-2.39712e-07
-2.30994e-07
-2.51967e-07
-2.54084e-07
-2.65957e-07
-2.80272e-07
-2.81895e-07
-3.09894e-07
-3.00034e-07
-3.43286e-07
-3.20688e-07
-3.80758e-07
-3.44251e-07
-4.22506e-07
-3.71167e-07
-4.6857e-07
-4.02049e-07
-5.18795e-07
-4.37908e-07
-5.72277e-07
-4.79933e-07
-6.26407e-07
-5.29614e-07
-6.76485e-07
-5.88099e-07
-7.15327e-07
-6.55097e-07
-7.34718e-07
-7.27969e-07
-7.29169e-07
-8.02287e-07
-6.99427e-07
-8.73717e-07
-6.51547e-07
-9.39324e-07
-5.9247e-07
-9.97611e-07
-5.27485e-07
-1.04797e-06
-4.59532e-07
-1.09023e-06
-3.90132e-07
-1.12443e-06
-3.20181e-07
-1.15075e-06
-2.50161e-07
-1.16933e-06
-1.7982e-07
-1.18029e-06
-1.08235e-07
-3.57057e-08
6.57582e-07
-1.54739e-08
6.54725e-07
-4.64074e-08
6.49932e-07
-7.72281e-08
6.43143e-07
-1.08088e-07
6.34283e-07
-1.39228e-07
6.23264e-07
-1.70768e-07
6.09995e-07
-2.02701e-07
5.94398e-07
-2.34904e-07
5.76421e-07
-2.67118e-07
5.56059e-07
-2.98901e-07
5.33377e-07
-3.29597e-07
5.08526e-07
-3.58323e-07
4.81765e-07
-3.84007e-07
4.53459e-07
-4.0548e-07
4.24067e-07
-4.21644e-07
3.94108e-07
-4.31673e-07
3.64118e-07
-4.35201e-07
3.34599e-07
-4.32439e-07
3.05971e-07
-4.24139e-07
2.78544e-07
-4.11428e-07
2.5252e-07
-3.95599e-07
2.27997e-07
-3.7791e-07
2.04997e-07
-3.59423e-07
1.83495e-07
-3.40945e-07
1.63424e-07
-3.23028e-07
1.44696e-07
-3.06016e-07
1.27224e-07
-2.90088e-07
1.10917e-07
-2.75311e-07
9.56871e-08
-2.61681e-07
8.14488e-08
-2.49151e-07
6.81213e-08
-2.37653e-07
5.56279e-08
-2.27107e-07
4.38967e-08
-2.17437e-07
3.28602e-08
-2.08569e-07
2.24546e-08
-2.00436e-07
1.26205e-08
-1.92976e-07
3.30177e-09
-1.86136e-07
-5.54577e-09
-1.79868e-07
-1.39572e-08
-1.74133e-07
-2.19718e-08
-1.68888e-07
-2.96302e-08
-1.64095e-07
-3.69694e-08
-1.59728e-07
-4.40247e-08
-1.55761e-07
-5.08289e-08
-1.52173e-07
-5.74126e-08
-1.48942e-07
-6.38049e-08
-1.4605e-07
-7.00327e-08
-1.43478e-07
-7.61217e-08
-1.4121e-07
-8.20962e-08
-1.39232e-07
-8.79791e-08
-1.37531e-07
-9.37927e-08
-1.36096e-07
-9.95585e-08
-1.34916e-07
-1.05297e-07
-1.33981e-07
-1.11029e-07
-1.33286e-07
-1.16775e-07
-1.32824e-07
-1.22556e-07
-1.32591e-07
-1.28391e-07
-1.32583e-07
-1.34303e-07
-1.32801e-07
-1.40314e-07
-1.33244e-07
-1.46445e-07
-1.33916e-07
-1.52722e-07
-1.34823e-07
-1.5917e-07
-1.35971e-07
-1.65814e-07
-1.37373e-07
-1.72683e-07
-1.39042e-07
-1.79807e-07
-1.41e-07
-1.87217e-07
-1.43269e-07
-1.94953e-07
-1.45892e-07
-2.03084e-07
-1.48883e-07
-2.11653e-07
-1.52287e-07
-2.20646e-07
-1.56321e-07
-2.29214e-07
-1.61249e-07
-2.41344e-07
-1.70785e-07
-2.49923e-07
-1.8506e-07
-2.59872e-07
-2.0175e-07
-2.71211e-07
-2.20949e-07
-2.84085e-07
-2.42846e-07
-2.98682e-07
-2.6773e-07
-3.1521e-07
-2.95927e-07
-3.33912e-07
-3.27759e-07
-3.55108e-07
-3.63494e-07
-3.79198e-07
-4.03277e-07
-4.0666e-07
-4.47119e-07
-4.38003e-07
-4.94708e-07
-4.74302e-07
-5.4473e-07
-5.16622e-07
-5.94194e-07
-5.66127e-07
-6.3798e-07
-6.23427e-07
-6.68956e-07
-6.87665e-07
-6.80043e-07
-7.56053e-07
-6.67964e-07
-8.24745e-07
-6.35352e-07
-8.90401e-07
-5.88485e-07
-9.50879e-07
-5.33294e-07
-1.00508e-06
-4.73903e-07
-1.05243e-06
-4.12455e-07
-1.09264e-06
-3.5005e-07
-1.12553e-06
-2.8734e-07
-1.15106e-06
-2.24647e-07
-1.16927e-06
-1.61622e-07
-1.18019e-06
-9.73196e-08
-3.2073e-08
6.57585e-07
-1.45253e-08
6.54705e-07
-4.35312e-08
6.49867e-07
-7.23966e-08
6.43029e-07
-1.01263e-07
6.34129e-07
-1.3035e-07
6.23095e-07
-1.59772e-07
6.09853e-07
-1.89519e-07
5.94336e-07
-2.1948e-07
5.76498e-07
-2.4942e-07
5.56335e-07
-2.78944e-07
5.33906e-07
-3.07459e-07
5.09349e-07
-3.34166e-07
4.82904e-07
-3.58089e-07
4.54916e-07
-3.78157e-07
4.25821e-07
-3.93353e-07
3.96125e-07
-4.02894e-07
3.66354e-07
-4.06417e-07
3.37001e-07
-4.04086e-07
3.08478e-07
-3.96568e-07
2.81108e-07
-3.84896e-07
2.55091e-07
-3.7028e-07
2.30526e-07
-3.5389e-07
2.07443e-07
-3.36724e-07
1.85805e-07
-3.19546e-07
1.65548e-07
-3.02883e-07
1.46589e-07
-2.87062e-07
1.28836e-07
-2.72254e-07
1.122e-07
-2.58526e-07
9.65901e-08
-2.45874e-07
8.19245e-08
-2.34252e-07
6.81238e-08
-2.23594e-07
5.51152e-08
-2.13826e-07
4.28307e-08
-2.04873e-07
3.12068e-08
-1.96665e-07
2.01846e-08
-1.89136e-07
9.70868e-09
-1.8223e-07
-2.72112e-10
-1.75894e-07
-9.79228e-09
-1.70085e-07
-1.88811e-08
-1.64765e-07
-2.75806e-08
-1.59896e-07
-3.59275e-08
-1.55441e-07
-4.39572e-08
-1.51378e-07
-5.17028e-08
-1.47682e-07
-5.91959e-08
-1.44333e-07
-6.64662e-08
-1.41313e-07
-7.35417e-08
-1.38602e-07
-8.04492e-08
-1.36186e-07
-8.72139e-08
-1.34049e-07
-9.386e-08
-1.32179e-07
-1.00411e-07
-1.30562e-07
-1.06888e-07
-1.29188e-07
-1.13315e-07
-1.28048e-07
-1.19711e-07
-1.27133e-07
-1.26099e-07
-1.26437e-07
-1.32499e-07
-1.25952e-07
-1.38931e-07
-1.25676e-07
-1.45419e-07
-1.25604e-07
-1.51983e-07
-1.25736e-07
-1.58647e-07
-1.26071e-07
-1.65436e-07
-1.26612e-07
-1.72374e-07
-1.27362e-07
-1.7949e-07
-1.28328e-07
-1.86812e-07
-1.2952e-07
-1.94374e-07
-1.30949e-07
-2.02211e-07
-1.32633e-07
-2.10358e-07
-1.34598e-07
-2.18854e-07
-1.36881e-07
-2.27732e-07
-1.39503e-07
-2.37043e-07
-1.42478e-07
-2.47138e-07
-1.45708e-07
-2.52479e-07
-1.49148e-07
-2.63578e-07
-1.61325e-07
-2.73943e-07
-1.75477e-07
-2.85244e-07
-1.91514e-07
-2.97753e-07
-2.09824e-07
-3.11661e-07
-2.30694e-07
-3.27173e-07
-2.54417e-07
-3.44535e-07
-2.81307e-07
-3.64037e-07
-3.11669e-07
-3.86016e-07
-3.45728e-07
-4.10868e-07
-3.83577e-07
-4.39173e-07
-4.25189e-07
-4.71577e-07
-4.70035e-07
-5.09072e-07
-5.16375e-07
-5.5274e-07
-5.60878e-07
-6.0351e-07
-5.98166e-07
-6.61452e-07
-6.21495e-07
-7.24992e-07
-6.25269e-07
-7.90926e-07
-6.08317e-07
-8.55658e-07
-5.74506e-07
-9.16516e-07
-5.29746e-07
-9.71986e-07
-4.78874e-07
-1.0214e-06
-4.24984e-07
-1.06445e-06
-3.69629e-07
-1.10097e-06
-3.13627e-07
-1.13087e-06
-2.57483e-07
-1.15411e-06
-2.01422e-07
-1.17069e-06
-1.45049e-07
-1.18058e-06
-8.74284e-08
-2.88356e-08
6.5756e-07
-1.35521e-08
6.54627e-07
-4.06006e-08
6.49716e-07
-6.74925e-08
6.42796e-07
-9.43544e-08
6.33817e-07
-1.21391e-07
6.22717e-07
-1.48706e-07
6.09434e-07
-1.76291e-07
5.93914e-07
-2.04045e-07
5.76124e-07
-2.31757e-07
5.56067e-07
-2.59072e-07
5.33803e-07
-2.85457e-07
5.09468e-07
-3.10191e-07
4.83289e-07
-3.32387e-07
4.55592e-07
-3.51064e-07
4.26791e-07
-3.65278e-07
3.97365e-07
-3.74295e-07
3.67817e-07
-3.77757e-07
3.38621e-07
-3.75789e-07
3.10195e-07
-3.68984e-07
2.82854e-07
-3.58297e-07
2.568e-07
-3.44842e-07
2.32146e-07
-3.29704e-07
2.08925e-07
-3.13823e-07
1.87108e-07
-2.97915e-07
1.66635e-07
-2.82477e-07
1.47423e-07
-2.6782e-07
1.29383e-07
-2.54106e-07
1.12423e-07
-2.414e-07
9.64546e-08
-2.29696e-07
8.13958e-08
-2.18952e-07
6.71688e-08
-2.09106e-07
5.37021e-08
-2.00087e-07
4.09299e-08
-1.91825e-07
2.87914e-08
-1.84252e-07
1.72301e-08
-1.77307e-07
6.19354e-09
-1.70935e-07
-4.36105e-09
-1.65087e-07
-1.44625e-08
-1.59723e-07
-2.41422e-08
-1.5481e-07
-3.34389e-08
-1.50307e-07
-4.23879e-08
-1.46185e-07
-5.10225e-08
-1.42421e-07
-5.93742e-08
-1.38993e-07
-6.74733e-08
-1.35883e-07
-7.53483e-08
-1.33073e-07
-8.30264e-08
-1.30546e-07
-9.05334e-08
-1.28288e-07
-9.78941e-08
-1.26284e-07
-1.05132e-07
-1.24524e-07
-1.1227e-07
-1.22994e-07
-1.1933e-07
-1.21687e-07
-1.26334e-07
-1.20591e-07
-1.33302e-07
-1.197e-07
-1.40255e-07
-1.19007e-07
-1.47213e-07
-1.18507e-07
-1.54198e-07
-1.18194e-07
-1.61228e-07
-1.18066e-07
-1.68327e-07
-1.18122e-07
-1.75513e-07
-1.1836e-07
-1.8281e-07
-1.18784e-07
-1.9024e-07
-1.19396e-07
-1.97825e-07
-1.20204e-07
-2.05589e-07
-1.21216e-07
-2.13556e-07
-1.22446e-07
-2.21748e-07
-1.23914e-07
-2.30185e-07
-1.25657e-07
-2.38886e-07
-1.27712e-07
-2.47846e-07
-1.30129e-07
-2.56986e-07
-1.33032e-07
-2.66033e-07
-1.36559e-07
-2.79434e-07
-1.41704e-07
-2.8848e-07
-1.53019e-07
-2.98816e-07
-1.66132e-07
-3.10356e-07
-1.81253e-07
-3.23239e-07
-1.98557e-07
-3.37643e-07
-2.18313e-07
-3.53762e-07
-2.40809e-07
-3.71826e-07
-2.66335e-07
-3.9213e-07
-2.95156e-07
-4.15033e-07
-3.27454e-07
-4.40922e-07
-3.63276e-07
-4.70369e-07
-4.02516e-07
-5.04179e-07
-4.44409e-07
-5.43159e-07
-4.86891e-07
-5.88196e-07
-5.26357e-07
-6.39765e-07
-5.57395e-07
-6.97287e-07
-5.73908e-07
-7.58687e-07
-5.71818e-07
-8.2087e-07
-5.51602e-07
-8.80941e-07
-5.17709e-07
-9.36982e-07
-4.75431e-07
-9.87988e-07
-4.28718e-07
-1.03348e-06
-3.79894e-07
-1.07318e-06
-3.30108e-07
-1.10692e-06
-2.79966e-07
-1.13459e-06
-2.29848e-07
-1.15614e-06
-1.79889e-07
-1.17154e-06
-1.29647e-07
-1.18078e-06
-7.81976e-08
-2.57913e-08
6.57551e-07
-1.25701e-08
6.5459e-07
-3.76417e-08
6.49638e-07
-6.2546e-08
6.4267e-07
-8.73978e-08
6.33646e-07
-1.12386e-07
6.22514e-07
-1.37605e-07
6.09219e-07
-1.63046e-07
5.93716e-07
-1.88619e-07
5.75977e-07
-2.14132e-07
5.56006e-07
-2.39269e-07
5.33862e-07
-2.63552e-07
5.09674e-07
-2.86331e-07
4.83658e-07
-3.06803e-07
4.56123e-07
-3.24077e-07
4.2747e-07
-3.37283e-07
3.98163e-07
-3.45735e-07
3.68695e-07
-3.49088e-07
3.39541e-07
-3.47432e-07
3.1111e-07
-3.41301e-07
2.83716e-07
-3.31561e-07
2.57575e-07
-3.19232e-07
2.328e-07
-3.05324e-07
2.09425e-07
-2.90708e-07
1.87427e-07
-2.76052e-07
1.66746e-07
-2.61823e-07
1.47299e-07
-2.48312e-07
1.28996e-07
-2.35674e-07
1.11747e-07
-2.23967e-07
9.54617e-08
-2.1319e-07
8.00586e-08
-2.03303e-07
6.54608e-08
-1.94247e-07
5.15979e-08
-1.85956e-07
3.84055e-08
-1.78364e-07
2.58244e-08
-1.71407e-07
1.38002e-08
-1.65027e-07
2.28274e-09
-1.59173e-07
-8.76189e-09
-1.538e-07
-1.93587e-08
-1.4887e-07
-2.95425e-08
-1.44353e-07
-3.93498e-08
-1.4021e-07
-4.88139e-08
-1.36415e-07
-5.79665e-08
-1.32946e-07
-6.6838e-08
-1.29784e-07
-7.5457e-08
-1.26911e-07
-8.38509e-08
-1.24311e-07
-9.2046e-08
-1.21968e-07
-1.00067e-07
-1.1987e-07
-1.07938e-07
-1.18003e-07
-1.15682e-07
-1.16356e-07
-1.2332e-07
-1.14918e-07
-1.30875e-07
-1.13681e-07
-1.38366e-07
-1.12637e-07
-1.45815e-07
-1.11777e-07
-1.5324e-07
-1.11095e-07
-1.60662e-07
-1.10587e-07
-1.68099e-07
-1.10248e-07
-1.75572e-07
-1.10076e-07
-1.83099e-07
-1.10068e-07
-1.907e-07
-1.10225e-07
-1.98395e-07
-1.10548e-07
-2.06204e-07
-1.11042e-07
-2.1415e-07
-1.11712e-07
-2.22254e-07
-1.12566e-07
-2.30542e-07
-1.13617e-07
-2.39044e-07
-1.14879e-07
-2.47801e-07
-1.16382e-07
-2.56881e-07
-1.18124e-07
-2.66374e-07
-1.20125e-07
-2.76333e-07
-1.22538e-07
-2.84672e-07
-1.25582e-07
-2.98243e-07
-1.33352e-07
-3.08287e-07
-1.43894e-07
-3.19379e-07
-1.56192e-07
-3.31643e-07
-1.7042e-07
-3.45237e-07
-1.86726e-07
-3.60361e-07
-2.05352e-07
-3.77244e-07
-2.2658e-07
-3.96157e-07
-2.50686e-07
-4.17414e-07
-2.779e-07
-4.41406e-07
-3.08353e-07
-4.68543e-07
-3.42067e-07
-4.99382e-07
-3.78795e-07
-5.34771e-07
-4.17548e-07
-5.75398e-07
-4.56021e-07
-6.21902e-07
-4.90427e-07
-6.74322e-07
-5.15507e-07
-7.31538e-07
-5.26018e-07
-7.9114e-07
-5.19373e-07
-8.50191e-07
-4.97288e-07
-9.06316e-07
-4.64337e-07
-9.58125e-07
-4.25048e-07
-1.00498e-06
-3.82555e-07
-1.04662e-06
-3.38585e-07
-1.08288e-06
-2.93994e-07
-1.11367e-06
-2.49245e-07
-1.13891e-06
-2.04635e-07
-1.15857e-06
-1.60237e-07
-1.17264e-06
-1.15584e-07
-1.18106e-06
-6.97781e-08
-2.3029e-08
6.57538e-07
-1.15749e-08
6.54543e-07
-3.46493e-08
6.49544e-07
-5.75518e-08
6.42522e-07
-8.03856e-08
6.33442e-07
-1.03324e-07
6.2226e-07
-1.26451e-07
6.0893e-07
-1.49761e-07
5.93411e-07
-1.7317e-07
5.75682e-07
-1.96508e-07
5.55751e-07
-2.19492e-07
5.33677e-07
-2.41695e-07
5.09585e-07
-2.62536e-07
4.83681e-07
-2.81292e-07
4.56264e-07
-2.97155e-07
4.2772e-07
-3.09332e-07
3.985e-07
-3.17188e-07
3.69083e-07
-3.20391e-07
3.39938e-07
-3.19005e-07
3.11472e-07
-3.13506e-07
2.84007e-07
-3.04674e-07
2.57758e-07
-2.93444e-07
2.32845e-07
-2.80744e-07
2.09306e-07
-2.67375e-07
1.8712e-07
-2.53958e-07
1.6623e-07
-2.40925e-07
1.46554e-07
-2.28549e-07
1.28002e-07
-2.16973e-07
1.10482e-07
-2.06253e-07
9.39079e-08
-1.96389e-07
7.81952e-08
-1.87343e-07
6.32681e-08
-1.79061e-07
4.90568e-08
-1.71483e-07
3.54976e-08
-1.64546e-07
2.25326e-08
-1.5819e-07
1.01086e-08
-1.52363e-07
-1.82052e-09
-1.47015e-07
-1.32819e-08
-1.42105e-07
-2.43e-08
-1.37601e-07
-3.4912e-08
-1.33472e-07
-4.51524e-08
-1.29683e-07
-5.50532e-08
-1.2621e-07
-6.46448e-08
-1.23033e-07
-7.39562e-08
-1.20135e-07
-8.30151e-08
-1.17498e-07
-9.18477e-08
-1.15109e-07
-1.00479e-07
-1.12952e-07
-1.08934e-07
-1.11015e-07
-1.17234e-07
-1.09288e-07
-1.25401e-07
-1.07758e-07
-1.33458e-07
-1.06418e-07
-1.41425e-07
-1.05258e-07
-1.49321e-07
-1.0427e-07
-1.57166e-07
-1.03449e-07
-1.64979e-07
-1.02787e-07
-1.72779e-07
-1.02281e-07
-1.80584e-07
-1.01926e-07
-1.88415e-07
-1.01719e-07
-1.96288e-07
-1.0166e-07
-2.04223e-07
-1.01747e-07
-2.12241e-07
-1.01985e-07
-2.20359e-07
-1.02375e-07
-2.28599e-07
-1.02925e-07
-2.3698e-07
-1.03644e-07
-2.45523e-07
-1.04547e-07
-2.54245e-07
-1.05655e-07
-2.63164e-07
-1.07004e-07
-2.72276e-07
-1.0861e-07
-2.81565e-07
-1.10461e-07
-2.91359e-07
-1.12476e-07
-3.0089e-07
-1.14497e-07
-3.12763e-07
-1.23588e-07
-3.23863e-07
-1.33848e-07
-3.35883e-07
-1.45475e-07
-3.49082e-07
-1.58827e-07
-3.63641e-07
-1.74138e-07
-3.79758e-07
-1.91641e-07
-3.97668e-07
-2.11586e-07
-4.1766e-07
-2.3422e-07
-4.40085e-07
-2.59745e-07
-4.65358e-07
-2.88249e-07
-4.93991e-07
-3.19732e-07
-5.26462e-07
-3.538e-07
-5.6358e-07
-3.89247e-07
-6.05891e-07
-4.23643e-07
-6.53708e-07
-4.53135e-07
-7.06579e-07
-4.72804e-07
-7.62916e-07
-4.78356e-07
-8.20194e-07
-4.68501e-07
-8.75852e-07
-4.4573e-07
-9.28107e-07
-4.14405e-07
-9.76033e-07
-3.7831e-07
-1.01925e-06
-3.39914e-07
-1.05759e-06
-3.00514e-07
-1.09095e-06
-2.60752e-07
-1.11926e-06
-2.20989e-07
-1.14247e-06
-1.81451e-07
-1.16056e-06
-1.4216e-07
-1.17351e-06
-1.02635e-07
-1.18127e-06
-6.20162e-08
-2.04795e-08
6.57528e-07
-1.05691e-08
6.54504e-07
-3.16275e-08
6.49461e-07
-5.25139e-08
6.42387e-07
-7.3321e-08
6.33253e-07
-9.42054e-08
6.2202e-07
-1.15245e-07
6.08647e-07
-1.3643e-07
5.931e-07
-1.57688e-07
5.75363e-07
-1.78867e-07
5.55445e-07
-1.99715e-07
5.33406e-07
-2.19854e-07
5.09366e-07
-2.38766e-07
4.83524e-07
-2.55807e-07
4.56171e-07
-2.7025e-07
4.27679e-07
-2.81376e-07
3.98491e-07
-2.88604e-07
3.6908e-07
-2.91619e-07
3.3991e-07
-2.90469e-07
3.11387e-07
-2.85569e-07
2.8383e-07
-2.77621e-07
2.57462e-07
-2.67471e-07
2.32406e-07
-2.55964e-07
2.08704e-07
-2.43832e-07
1.86336e-07
-2.31645e-07
1.65246e-07
-2.19802e-07
1.45356e-07
-2.08552e-07
1.26575e-07
-1.9803e-07
1.08811e-07
-1.88288e-07
9.19774e-08
-1.79326e-07
7.59899e-08
-1.71111e-07
6.07729e-08
-1.63593e-07
4.6257e-08
-1.56715e-07
3.23792e-08
-1.50421e-07
1.90822e-08
-1.44656e-07
6.31405e-09
-1.39371e-07
-5.96434e-09
-1.3452e-07
-1.77768e-08
-1.30066e-07
-2.91518e-08
-1.25981e-07
-4.01253e-08
-1.22234e-07
-5.07308e-08
-1.18795e-07
-6.09991e-08
-1.15641e-07
-7.09596e-08
-1.12754e-07
-8.06403e-08
-1.10119e-07
-9.00677e-08
-1.07718e-07
-9.92671e-08
-1.0554e-07
-1.08263e-07
-1.0357e-07
-1.17077e-07
-1.01799e-07
-1.25733e-07
-1.00214e-07
-1.34252e-07
-9.88078e-08
-1.42653e-07
-9.757e-08
-1.50956e-07
-9.64935e-08
-1.59181e-07
-9.55712e-08
-1.67345e-07
-9.47968e-08
-1.75467e-07
-9.41651e-08
-1.83564e-07
-9.36717e-08
-1.91654e-07
-9.3313e-08
-1.99754e-07
-9.30867e-08
-2.07882e-07
-9.29918e-08
-2.16054e-07
-9.30286e-08
-2.24287e-07
-9.31996e-08
-2.32598e-07
-9.35094e-08
-2.41005e-07
-9.3966e-08
-2.49521e-07
-9.45815e-08
-2.58163e-07
-9.53723e-08
-2.66944e-07
-9.63727e-08
-2.75875e-07
-9.76142e-08
-2.84956e-07
-9.91496e-08
-2.94126e-07
-1.01046e-07
-3.03318e-07
-1.03293e-07
-3.18716e-07
-1.06301e-07
-3.28721e-07
-1.1445e-07
-3.39898e-07
-1.23779e-07
-3.52214e-07
-1.34537e-07
-3.65822e-07
-1.4691e-07
-3.80908e-07
-1.61114e-07
-3.97683e-07
-1.77374e-07
-4.16403e-07
-1.95923e-07
-4.37357e-07
-2.16974e-07
-4.60898e-07
-2.40687e-07
-4.87425e-07
-2.67116e-07
-5.17507e-07
-2.96217e-07
-5.51624e-07
-3.27474e-07
-5.90399e-07
-3.59504e-07
-6.34241e-07
-3.89822e-07
-6.83115e-07
-4.14641e-07
-7.36133e-07
-4.29519e-07
-7.91378e-07
-4.31129e-07
-8.46364e-07
-4.19233e-07
-8.98925e-07
-3.96723e-07
-9.47751e-07
-3.67552e-07
-9.92251e-07
-3.34808e-07
-1.03223e-06
-3.00419e-07
-1.06761e-06
-2.65357e-07
-1.09835e-06
-2.30116e-07
-1.1244e-06
-1.94978e-07
-1.14575e-06
-1.60119e-07
-1.1624e-06
-1.25523e-07
-1.17433e-06
-9.07103e-08
-1.18148e-06
-5.48665e-08
-1.81348e-08
6.57516e-07
-9.55195e-09
6.54462e-07
-2.8575e-08
6.49374e-07
-4.74306e-08
6.42245e-07
-6.62007e-08
6.33051e-07
-8.50261e-08
6.21758e-07
-1.03976e-07
6.08331e-07
-1.23042e-07
5.9274e-07
-1.42157e-07
5.74974e-07
-1.61188e-07
5.55045e-07
-1.79914e-07
5.33012e-07
-1.98002e-07
5.08995e-07
-2.14995e-07
4.83187e-07
-2.30322e-07
4.55869e-07
-2.43338e-07
4.27406e-07
-2.53397e-07
3.98227e-07
-2.59972e-07
3.68804e-07
-2.62771e-07
3.39591e-07
-2.61824e-07
3.10998e-07
-2.57494e-07
2.83346e-07
-2.50406e-07
2.56858e-07
-2.41317e-07
2.3166e-07
-2.3099e-07
2.07798e-07
-2.20087e-07
1.85258e-07
-2.09125e-07
1.63981e-07
-1.98466e-07
1.43891e-07
-1.88339e-07
1.24899e-07
-1.78866e-07
1.06913e-07
-1.70097e-07
8.98447e-08
-1.62031e-07
7.36121e-08
-1.54639e-07
5.8139e-08
-1.47877e-07
4.33561e-08
-1.41693e-07
2.92011e-08
-1.36034e-07
1.56173e-08
-1.30853e-07
2.5533e-09
-1.26102e-07
-1.00224e-08
-1.21742e-07
-2.21317e-08
-1.17739e-07
-3.38075e-08
-1.14067e-07
-4.50854e-08
-1.107e-07
-5.59974e-08
-1.07607e-07
-6.65735e-08
-1.0477e-07
-7.68424e-08
-1.02172e-07
-8.68311e-08
-9.97977e-08
-9.65652e-08
-9.76341e-08
-1.06069e-07
-9.56682e-08
-1.15366e-07
-9.38887e-08
-1.24479e-07
-9.22852e-08
-1.33428e-07
-9.08481e-08
-1.42234e-07
-8.95689e-08
-1.50915e-07
-8.84398e-08
-1.59492e-07
-8.74536e-08
-1.67982e-07
-8.66042e-08
-1.76402e-07
-8.58859e-08
-1.84771e-07
-8.52937e-08
-1.93104e-07
-8.48238e-08
-2.01418e-07
-8.44729e-08
-2.09731e-07
-8.42388e-08
-2.1806e-07
-8.41204e-08
-2.26421e-07
-8.4118e-08
-2.34833e-07
-8.42333e-08
-2.43315e-07
-8.44705e-08
-2.51888e-07
-8.48361e-08
-2.60573e-07
-8.53404e-08
-2.69395e-07
-8.5998e-08
-2.78384e-07
-8.68422e-08
-2.87573e-07
-8.7888e-08
-2.97004e-07
-8.919e-08
-3.0658e-07
-9.09561e-08
-3.15063e-07
-9.33235e-08
-3.30292e-07
-9.76999e-08
-3.40885e-07
-1.04845e-07
-3.52632e-07
-1.13255e-07
-3.65579e-07
-1.23096e-07
-3.79865e-07
-1.34462e-07
-3.95691e-07
-1.47519e-07
-4.13287e-07
-1.62472e-07
-4.32922e-07
-1.79534e-07
-4.54911e-07
-1.98891e-07
-4.79631e-07
-2.20666e-07
-5.07461e-07
-2.44888e-07
-5.39001e-07
-2.71466e-07
-5.74722e-07
-2.99766e-07
-6.15076e-07
-3.28324e-07
-6.60259e-07
-3.54651e-07
-7.09889e-07
-3.75153e-07
-7.62696e-07
-3.85952e-07
-8.1657e-07
-3.84625e-07
-8.69194e-07
-3.71703e-07
-9.18826e-07
-3.50178e-07
-9.64562e-07
-3.23501e-07
-1.00606e-06
-2.94158e-07
-1.04324e-06
-2.63644e-07
-1.07609e-06
-2.32697e-07
-1.10459e-06
-2.01699e-07
-1.12873e-06
-1.70874e-07
-1.14851e-06
-1.40357e-07
-1.16394e-06
-1.10104e-07
-1.175e-06
-7.96478e-08
-1.18164e-06
-4.82271e-08
-1.59568e-08
6.57505e-07
-8.52401e-09
6.54421e-07
-2.54927e-08
6.49289e-07
-4.23022e-08
6.42105e-07
-5.90244e-08
6.32849e-07
-7.57839e-08
6.21492e-07
-9.26413e-08
6.08004e-07
-1.09589e-07
5.92361e-07
-1.26568e-07
5.74553e-07
-1.43461e-07
5.54598e-07
-1.60076e-07
5.32554e-07
-1.76122e-07
5.08538e-07
-1.91203e-07
4.82741e-07
-2.04818e-07
4.55436e-07
-2.16399e-07
4.2698e-07
-2.25376e-07
3.97796e-07
-2.31276e-07
3.68346e-07
-2.33834e-07
3.39084e-07
-2.33064e-07
3.10417e-07
-2.29282e-07
2.82668e-07
-2.23034e-07
2.56062e-07
-2.14994e-07
2.30729e-07
-2.05837e-07
2.06717e-07
-1.96157e-07
1.84013e-07
-1.86415e-07
1.62563e-07
-1.76938e-07
1.4229e-07
-1.6793e-07
1.23105e-07
-1.59504e-07
1.04919e-07
-1.51704e-07
8.76414e-08
-1.4453e-07
7.11915e-08
-1.37958e-07
5.54929e-08
-1.31947e-07
4.04768e-08
-1.26451e-07
2.6081e-08
-1.21423e-07
1.22493e-08
-1.1682e-07
-1.06722e-09
-1.126e-07
-1.38947e-08
-1.08726e-07
-2.62548e-08
-1.0517e-07
-3.81841e-08
-1.01909e-07
-4.97172e-08
-9.89176e-08
-6.08856e-08
-9.61694e-08
-7.17187e-08
-9.36479e-08
-8.22444e-08
-9.1338e-08
-9.24889e-08
-8.92261e-08
-1.02477e-07
-8.73e-08
-1.12233e-07
-8.55484e-08
-1.21779e-07
-8.39611e-08
-1.31136e-07
-8.25288e-08
-1.40325e-07
-8.12432e-08
-1.49365e-07
-8.00964e-08
-1.58275e-07
-7.90816e-08
-1.67073e-07
-7.81926e-08
-1.75776e-07
-7.74236e-08
-1.844e-07
-7.67698e-08
-1.92963e-07
-7.62266e-08
-2.0148e-07
-7.57906e-08
-2.09968e-07
-7.54587e-08
-2.18442e-07
-7.52286e-08
-2.2692e-07
-7.5099e-08
-2.35421e-07
-7.50692e-08