/*--------------------------------*- C++ -*----------------------------------*\
  =========                 |
  \\      /  F ield         | OpenFOAM: The Open Source CFD Toolbox
   \\    /   O peration     | Website:  https://openfoam.org
    \\  /    A nd           | Version:  8
     \\/     M anipulation  |
\*---------------------------------------------------------------------------*/
FoamFile
{
    version     2.0;
    format      ascii;
    class       volScalarField;
    location    "80/fluid";
    object      Qdot;
}
// * * * * * * * * * * * * * * * * * * * * * * * * * * * * * * * * * * * * * //

dimensions      [1 -1 -3 0 0 0 0];

internalField   nonuniform List<scalar> 
4000
(
0
0
0
-3.07841e-07
-7.54665e-16
-1.57032e-15
3.25993e-15
-4.84539e-19
0
-1.22853e-10
1.47179e-14
0
-4.39056e-18
-4.44377e-18
2.37943e-09
-2.51033e-16
2.61975e-09
-1.56931e-14
2.76904e-07
7.12982e-07
5.97783e-06
5.07656e-05
0.000383059
0.00252713
0.0144531
0.0716249
0.309329
1.17432
3.95889
11.9733
32.8202
82.2811
190.333
409.014
821.79
1551.03
2759.19
4636.82
7383.31
11215.2
16354.1
22970.8
31253
41433
53812.9
68820.3
87065.2
109367
136809
170779
213032
265772
331763
414491
518357
648944
813355
1.02066e+06
1.28247e+06
1.61373e+06
2.0337e+06
2.56734e+06
3.24717e+06
4.1157e+06
5.22891e+06
6.66091e+06
8.51059e+06
1.09012e+07
1.40023e+07
1.80675e+07
2.3463e+07
5.16633e+07
3.24366e+08
2.02817e+07
1.57966e+07
1.21145e+07
9.12338e+06
6.72626e+06
4.83912e+06
3.38608e+06
2.29835e+06
1.51714e+06
997649
632350
141272
8366.85
177.554
1.77546
0.0117943
9.72963e-05
1.87551e-06
1.06911e-07
1.59511e-08
3.84612e-09
1.52941e-09
5.02541e-10
2.01511e-10
8.26871e-11
2.36279e-11
-6.81664e-13
0
3.14217e-12
-2.95522e-12
7.58585e-12
1.57954e-11
0
6.16048e-11
-7.01641e-11
0
1.20725e-10
2.47051e-10
3.91042e-07
3.96946e-07
4.02186e-07
1.27756e-09
-2.18134e-16
-1.57383e-15
-1.33185e-14
7.24882e-08
6.19936e-07
5.00902e-06
4.57612e-05
0.000351249
0.00236184
0.0137407
0.0691877
0.303105
1.1651
3.96671
12.0947
33.3524
84.0583
195.082
420.485
846.434
1598.67
2842.36
4767.13
7572.22
11478.1
16689.4
23375.9
31725.9
41980.7
54456.9
69605.5
88064.1
110682
138579
173187
216315
270243
337831
422696
529408
663778
833206
1.04715e+06
1.31775e+06
1.66061e+06
2.0959e+06
2.64976e+06
3.35624e+06
4.25995e+06
5.41976e+06
6.91399e+06
8.84806e+06
1.13509e+07
1.46183e+07
1.89927e+07
2.48977e+07
1.05819e+08
2.59114e+08
1.99628e+07
1.5382e+07
1.16844e+07
8.72086e+06
6.37558e+06
4.54948e+06
3.15858e+06
2.12964e+06
1.39578e+06
913742
475043
66740.7
2468.71
36.0869
0.270563
0.00169574
1.80494e-05
5.45193e-07
4.86446e-08
9.33206e-09
2.8131e-09
9.01233e-10
3.68932e-10
1.49705e-10
5.90086e-11
2.07009e-11
3.43685e-12
1.95164e-17
-8.19658e-17
2.91499e-07
-5.12028e-20
-5.31388e-20
3.25957e-07
3.36433e-07
0
0
0
-1.004e-18
0
-3.84893e-07
-8.3721e-18
1.23458e-09
-1.94024e-16
-1.38829e-15
-1.18832e-14
5.27442e-08
3.6966e-07
4.506e-06
4.1839e-05
0.000327371
0.00223699
0.0132388
0.0677584
0.301033
1.17105
4.03042
12.3976
34.4723
87.3808
203.997
441.492
891.062
1684.78
2993.38
5006.24
7925.04
11980.9
17354.6
24220.4
32774.1
43277.4
56076.4
71666.8
90738.6
114203
143256
179424
224642
281349
352621
442356
555495
698337
878925
1.10756e+06
1.3975e+06
1.76579e+06
2.2345e+06
2.83223e+06
3.59616e+06
4.57478e+06
5.83147e+06
7.44924e+06
9.53681e+06
1.22173e+07
1.56617e+07
2.01037e+07
2.58906e+07
3.12927e+08
1.17975e+08
1.9117e+07
1.45623e+07
1.09201e+07
8.0339e+06
5.77891e+06
4.05046e+06
2.75905e+06
1.82823e+06
1.20496e+06
796618
267465
23798.6
629.74
7.52201
0.054589
0.000418214
6.41269e-06
2.78243e-07
3.16887e-08
6.84563e-09
1.99719e-09
7.86697e-10
3.04819e-10
1.2789e-10
4.90253e-11
1.67848e-11
3.10208e-12
0
0
0
0
0
-3.21731e-07
3.27777e-11
-2.29674e-19
-3.48929e-07
-2.55733e-10
0
4.75023e-10
-1.07203e-09
-8.1355e-18
9.75163e-10
-1.71887e-16
1.12419e-13
3.83951e-07
5.11728e-08
5.04413e-07
4.1737e-06
3.98523e-05
0.000314565
0.00218503
0.0131231
0.0680046
0.305887
1.20298
4.17931
12.9708
36.3015
92.6796
217.456
472.34
955.38
1807.17
3205.36
5342.89
8429.71
12694.5
18305.1
25438.7
34301.7
45182.7
58465.2
74701.2
94648.8
119301
149957
188275
236359
296876
373200
469625
591625
746201
942338
1.1916e+06
1.50893e+06
1.91369e+06
2.43103e+06
3.09382e+06
3.94508e+06
5.04148e+06
6.4578e+06
8.29319e+06
1.06783e+07
1.37477e+07
1.77704e+07
2.31016e+07
3.03213e+07
3.79335e+08
2.36153e+07
1.79405e+07
1.34573e+07
9.943e+06
7.21674e+06
5.12929e+06
3.55834e+06
2.40214e+06
1.57737e+06
1.03804e+06
638849
131204
7003.6
139.006
1.37677
0.00982274
9.25546e-05
2.03295e-06
1.26999e-07
1.8951e-08
4.88644e-09
1.56996e-09
6.41544e-10
2.60516e-10
1.00526e-10
4.26419e-11
1.29744e-11
2.39619e-12
7.42819e-13
-5.83688e-21
0
0
0
-2.84399e-11
5.84232e-11
-6.60081e-11
4.60242e-19
-3.47634e-07
-3.53492e-07
0
2.72572e-14
-5.49305e-14
9.44453e-10
-1.66387e-16
-1.11232e-13
4.60089e-09
4.49945e-08
6.69502e-07
4.00014e-06
3.847e-05
0.000310892
0.00218737
0.0133037
0.0698361
0.317366
1.26116
4.42176
13.8198
38.985
100.083
235.835
513.785
1040.73
1967.77
3480.09
5778.7
9088.27
13618
19536.3
27021.1
36294.4
47670.9
61582.5
78645.4
99694.6
125822
158452
199398
250972
316110
398552
503069
635775
804525
1.01945e+06
1.29365e+06
1.64414e+06
2.09308e+06
2.6695e+06
3.41154e+06
4.36974e+06
5.61148e+06
7.2276e+06
9.34226e+06
1.21054e+07
1.57388e+07
2.06121e+07
2.7408e+07
9.52703e+07
2.61435e+08
2.17469e+07
1.63197e+07
1.20864e+07
8.80751e+06
6.29608e+06
4.40101e+06
2.9991e+06
1.98937e+06
1.28888e+06
843815
405319
51452.4
1874.82
29.6369
0.262396
0.00203003
2.53321e-05
8.02511e-07
6.8582e-08
1.28847e-08
3.42317e-09
1.2058e-09
4.64593e-10
2.03098e-10
9.04972e-11
3.20644e-11
1.56805e-11
2.05563e-12
0
0
-2.85847e-07
-7.30524e-12
1.50508e-11
2.80436e-11
-2.57832e-11
-3.07857e-15
-3.33876e-07
0
-9.30413e-19
-5.52112e-10
-3.51992e-07
0
-3.55193e-07
-1.53363e-16
-2.23979e-09
8.06583e-09
3.95333e-07
4.75602e-07
4.29076e-06
3.84848e-05
0.000314389
0.00224391
0.0138163
0.0732723
0.336736
1.34882
4.76216
15.0059
42.5704
109.788
259.599
566.807
1148.89
2169.21
3820.34
6316.35
9903.65
14758.3
21054.5
28972.7
38754
50742.3
65424.3
83487.1
105852
133723
168664
212668
268281
338748
428214
541991
686905
871759
1.10793e+06
1.4102e+06
1.79775e+06
2.29565e+06
2.93665e+06
3.76371e+06
4.83324e+06
6.21929e+06
8.01894e+06
1.03586e+07
1.33642e+07
1.72528e+07
2.22555e+07
2.87501e+07
3.71966e+08
8.2153e+07
1.94313e+07
1.44837e+07
1.06343e+07
7.67176e+06
5.42233e+06
3.7441e+06
2.52064e+06
1.65691e+06
1.0913e+06
712707
217094
17889.8
485.597
6.33493
0.0526456
0.000463926
7.80062e-06
3.48507e-07
3.85754e-08
8.47373e-09
2.62751e-09
9.76588e-10
3.77468e-10
1.61947e-10
6.32034e-11
2.65791e-11
8.84322e-12
1.52479e-12
0
0
0
-2.92579e-07
5.07242e-20
-2.76394e-11
-2.96096e-15
-2.16709e-19
0
0
0
0
-5.40553e-10
-3.70396e-18
3.45527e-07
-1.48178e-16
-1.06938e-15
7.78212e-09
4.61762e-08
2.9758e-07
4.31368e-06
3.92295e-05
0.000324652
0.0023445
0.0145936
0.0782844
0.362365
1.46386
5.21423
16.5266
47.1103
121.963
289.201
632.445
1281.87
2414.46
4236.28
6979.89
10884.1
16123.1
22866.5
31298.5
41682.8
54396.2
69985.5
89215.7
113101
142971
180541
228001
288157
364589
461890
585960
744408
947073
1.20672e+06
1.53996e+06
1.96847e+06
2.52068e+06
3.23397e+06
4.15777e+06
5.35778e+06
6.92183e+06
8.96824e+06
1.1647e+07
1.51321e+07
1.97579e+07
2.60474e+07
4.00105e+07
3.50522e+08
2.34634e+07
1.75145e+07
1.29085e+07
9.37035e+06
6.67943e+06
4.65878e+06
3.17088e+06
2.1048e+06
1.36541e+06
903618
549379
107323
5803.04
124.955
1.40926
0.0116917
0.00012384
2.84142e-06
1.73694e-07
2.41284e-08
5.75158e-09
2.04373e-09
7.86309e-10
3.24365e-10
1.27424e-10
5.38085e-11
2.27035e-11
7.37437e-12
1.36087e-12
0
2.73283e-07
0
2.44484e-20
0
-2.72394e-11
-2.08926e-19
3.14885e-07
0
-8.7343e-19
-3.27033e-07
0
-2.4902e-14
3.31939e-07
8.55015e-10
-3.80102e-09
-1.03771e-15
-3.18756e-07
5.18343e-08
6.28879e-07
4.26974e-06
4.07007e-05
0.000339994
0.00248542
0.0156655
0.0847318
0.396288
1.61341
5.77816
18.4021
52.6717
136.81
325.173
711.908
1441.94
2706.52
4728.23
7765.75
12038
17721.1
24978.8
34001.5
45079
58624.6
75250.8
95805.7
121404
153507
193991
245260
310390
393319
499111
634286
807270
1.02898e+06
1.31362e+06
1.67968e+06
2.15133e+06
2.76032e+06
3.54842e+06
4.57097e+06
5.90167e+06
7.63955e+06
9.9193e+06
1.2884e+07
1.67821e+07
2.2113e+07
2.94063e+07
1.62645e+08
2.06233e+08
2.13913e+07
1.5793e+07
1.15235e+07
8.28614e+06
5.857e+06
4.05976e+06
2.74795e+06
1.81696e+06
1.17949e+06
790723
372235
48306
1894.2
33.5194
0.339717
0.00294736
3.85794e-05
1.19354e-06
9.61512e-08
1.53433e-08
4.54413e-09
1.55014e-09
6.46e-10
2.57872e-10
1.08297e-10
4.88935e-11
1.72573e-11
1.82962e-12
1.10015e-12
0
0
-6.27843e-12
-1.28745e-11
0
1.00939e-19
5.45819e-11
0
0
0
8.58273e-19
0
-3.20584e-07
1.84187e-09
8.24822e-10
-1.37693e-16
-9.62662e-14
7.19923e-09
4.97553e-08
4.82704e-07
4.43434e-06
4.24882e-05
0.00036053
0.00266876
0.0169912
0.0928054
0.43723
1.79155
6.4513
20.6416
59.3108
154.53
368.075
806.481
1631.38
3050.11
5306.55
8681.04
13372.6
19557.3
27392.7
37080.2
48930.8
63407.3
81190.6
103213
130697
165240
208887
264259
334711
424546
539304
686128
874265
1.1157e+06
1.42603e+06
1.82556e+06
2.34078e+06
3.00633e+06
3.86752e+06
4.98358e+06
6.43183e+06
8.31267e+06
1.07552e+07
1.38768e+07
1.7896e+07
2.30604e+07
2.97224e+07
3.815e+08
6.22773e+07
1.88738e+07
1.3957e+07
1.01649e+07
7.27552e+06
5.10804e+06
3.51302e+06
2.36822e+06
1.56269e+06
1.02079e+06
676848
220250
20427.1
628.792
9.47419
0.0900476
0.000852345
1.40252e-05
5.72496e-07
5.92466e-08
1.1467e-08
3.33856e-09
1.27118e-09
5.35769e-10
2.2193e-10
9.81173e-11
3.78969e-11
1.42119e-11
5.40003e-12
9.28737e-13
0
-2.70901e-07
-2.77929e-07
0
0
1.38505e-15
-2.95626e-11
0
9.8293e-11
-9.90074e-11
3.09031e-07
0
-3.9937e-10
-3.10369e-07
-7.94297e-10
3.0647e-07
-1.01056e-15
6.9011e-09
4.76381e-08
6.40787e-07
4.65644e-06
4.49357e-05
0.000385713
0.00288371
0.0185256
0.102154
0.484914
1.9994
7.23794
23.2627
67.0947
175.338
418.487
917.442
1852.18
3450.08
5982.41
9730.62
14891.2
21630.9
30101.3
40518.2
53215.6
68712
87761.4
111381
140908
178078
225106
284835
360902
457982
582098
741030
944870
1.20673e+06
1.54371e+06
1.97818e+06
2.53949e+06
3.26629e+06
4.20968e+06
5.43749e+06
7.04025e+06
9.13933e+06
1.18852e+07
1.54464e+07
2.01513e+07
2.65174e+07
4.03658e+07
3.45127e+08
2.33766e+07
1.73177e+07
1.26832e+07
9.16451e+06
6.52071e+06
4.55553e+06
3.11398e+06
2.08315e+06
1.36806e+06
906608
565035
131844
8587.6
217.563
2.87825
0.0266345
0.000283494
5.87774e-06
3.11483e-07
3.86078e-08
8.68081e-09
2.68891e-09
1.05514e-09
4.28791e-10
1.89744e-10
8.57731e-11
3.16323e-11
1.42819e-11
5.2744e-12
7.5488e-13
-1.92898e-17
2.69694e-07
2.75915e-07
0
0
0
0
0
0
9.64119e-11
0
0
-2.25311e-14
-3.22116e-18
-2.24102e-17
-2.94052e-07
8.65519e-14
6.59922e-09
4.54905e-08
5.06963e-07
4.92577e-06
4.76723e-05
0.000414398
0.00313451
0.020329
0.112906
0.539479
2.23727
8.14003
26.2771
76.0739
199.408
476.903
1045.82
2105.35
3904.98
6751.21
10914.4
16589.1
23929.9
33083.7
44283.8
57891.7
74485.8
94896.3
120228
151934
191883
242463
306732
388600
493093
626685
797743
1.01712e+06
1.29891e+06
1.66151e+06
2.12903e+06
2.73313e+06
3.51566e+06
4.53224e+06
5.85728e+06
7.59119e+06
9.87088e+06
1.28375e+07
1.67512e+07
2.2141e+07
2.94801e+07
1.18152e+08
2.42738e+08
2.16389e+07
1.59151e+07
1.15789e+07
8.31059e+06
5.87043e+06
4.07213e+06
2.77022e+06
1.84417e+06
1.2066e+06
814301
435885
75192.8
3719.13
80.0353
0.955976
0.00888568
0.000108393
2.81086e-06
1.85742e-07
2.77168e-08
6.99093e-09
2.16895e-09
8.99534e-10
3.75327e-10
1.64296e-10
6.86233e-11
2.99461e-11
1.12392e-11
3.99131e-12
6.50519e-13
0
0
1.60953e-16
0
0
1.14926e-11
-2.88007e-07
0
0
-5.47891e-15
0
0
0
-3.09903e-18
-1.84344e-17
-1.27694e-16
-1.00893e-15
6.29437e-09
4.95057e-08
5.33884e-07
5.0873e-06
5.06325e-05
0.000446236
0.00340749
0.022301
0.124798
0.600192
2.50322
9.15334
29.6792
86.2555
226.814
543.562
1191.96
2390.97
4415.37
7609.12
12222.7
18447.5
26424.2
36301.1
48321.4
62891.2
80651.6
102505
129653
163661
206534
260830
329814
417662
529731
672908
856071
1.09069e+06
1.39162e+06
1.77813e+06
2.27528e+06
2.91574e+06
3.74222e+06
4.81072e+06
6.1949e+06
7.9921e+06
1.03305e+07
1.33269e+07
1.7216e+07
2.24454e+07
2.93258e+07
3.03728e+08
1.24745e+08
1.95065e+07
1.43971e+07
1.04899e+07
7.53151e+06
5.31683e+06
3.68209e+06
2.49583e+06
1.65619e+06
1.08127e+06
739218
331725
42287
1688.22
31.6419
0.350193
0.0033519
4.72996e-05
1.51091e-06
1.21538e-07
2.03258e-08
5.76528e-09
1.94644e-09
7.8673e-10
3.14092e-10
1.37603e-10
5.95663e-11
2.30559e-11
1.5406e-11
3.43096e-12
6.31665e-13
-1.9231e-17
0
2.71827e-07
-2.75617e-07
0
2.52068e-11
-2.82558e-07
-2.8356e-07
0
-5.32693e-15
0
0
0
-5.95317e-18
-2.06004e-17
-2.69007e-07
-1.01325e-15
5.98736e-09
4.7001e-08
5.46207e-07
5.40105e-06
5.39402e-05
0.000479647
0.00369954
0.0244148
0.137617
0.666039
2.79349
10.2663
33.4392
97.5759
257.439
618.231
1354.93
2708.4
4983.66
8542.08
13630
20425.1
29054
39670.3
52531.9
68095.6
87069.1
110429
139474
175886
221806
279970
353861
447937
567908
721115
917004
1.16776e+06
1.48912e+06
1.90141e+06
2.43095e+06
3.11181e+06
3.98807e+06
5.11682e+06
6.57189e+06
8.44854e+06
1.08656e+07
1.39268e+07
1.78393e+07
2.29906e+07
2.95518e+07
3.7206e+08
4.73583e+07
1.79293e+07
1.32393e+07
9.63824e+06
6.90713e+06
4.86374e+06
3.35993e+06
2.27556e+06
1.51118e+06
993049
677628
235599
24110.1
812.021
13.5493
0.142145
0.00142658
2.33113e-05
8.98788e-07
8.48864e-08
1.5662e-08
4.81507e-09
1.62591e-09
6.79788e-10
2.76484e-10
1.36904e-10
4.96725e-11
2.32151e-11
8.24979e-12
3.07395e-12
5.44917e-13
0
0
0
5.48821e-12
-2.74906e-07
0
0
-2.60545e-15
-3.73144e-19
3.71364e-19
0
0
0
-1.51755e-09
-2.25058e-17
-1.3291e-16
-2.54909e-07
3.13123e-09
5.00416e-08
6.85919e-07
5.59903e-06
5.72206e-05
0.000513836
0.00399838
0.0266043
0.150997
0.73534
3.10145
11.4564
37.491
109.863
290.872
699.893
1531.58
3047.09
5586.61
9520.32
15086.8
22448.1
31719.7
43061.5
56756.2
73315
93509.7
118393
149359
188197
237191
299247
378073
478415
606361
769746
978672
1.24619e+06
1.58922e+06
2.02966e+06
2.596e+06
3.3253e+06
4.26584e+06
5.48064e+06
7.05207e+06
9.08794e+06
1.17276e+07
1.50888e+07
1.94745e+07
2.53461e+07
3.51163e+07
3.55076e+08
2.3183e+07
1.71477e+07
1.25576e+07
9.08622e+06
6.48201e+06
4.5488e+06
3.13265e+06
2.11626e+06
1.40445e+06
925682
623706
176840
14177.3
416.057
6.30584
0.0639506
0.000681057
1.28267e-05
5.86789e-07
6.26342e-08
1.30206e-08
4.07097e-09
1.46264e-09
5.76251e-10
2.68566e-10
1.23738e-10
4.64547e-11
2.01397e-11
8.26316e-12
2.71371e-12
5.0297e-13
-1.37591e-21
-2.64753e-07
-1.57301e-16
2.27608e-20
2.71147e-07
0
2.68704e-11
-2.54566e-15
0
0
0
0
-7.38141e-10
-2.7315e-18
-2.14682e-17
-1.31651e-16
-1.01658e-15
5.36974e-09
5.76851e-08
6.98749e-07
5.90595e-06
6.01903e-05
0.000546687
0.00429119
0.0287698
0.164429
0.805705
3.41723
12.6879
41.7202
122.791
326.261
786.319
1715.2
3389.84
6193.74
10491
16511.2
24399.5
34269.9
46283.9
60764.8
78276.7
99646.7
126003
158824
199999
251936
317699
401199
507442
642859
815735
1.03677e+06
1.31984e+06
1.68294e+06
2.14955e+06
2.75033e+06
3.52548e+06
4.5279e+06
5.82749e+06
7.51709e+06
9.72059e+06
1.25685e+07
1.62542e+07
2.11046e+07
2.76566e+07
5.83587e+07
3.16024e+08
2.17198e+07
1.60889e+07
1.17841e+07
8.52093e+06
6.07183e+06
4.25578e+06
2.92922e+06
1.97734e+06
1.31349e+06
870450
567239
132673
8735.59
228.674
3.20361
0.031897
0.000362584
7.7934e-06
4.12024e-07
4.99571e-08
1.13424e-08
3.44655e-09
1.39584e-09
5.21961e-10
2.55161e-10
1.01361e-10
4.69914e-11
1.78285e-11
8.26866e-12
7.62037e-12
4.85387e-13
2.60532e-07
0
-2.67245e-12
-2.2514e-20
0
-9.01381e-20
4.77487e-11
0
0
-1.85825e-10
0
-1.3557e-18
1.85414e-14
-2.60921e-18
-2.29863e-17
2.33914e-07
-1.01462e-15
5.06023e-09
5.4203e-08
5.98396e-07
6.18121e-06
6.31553e-05
0.000577307
0.00456641
0.0308189
0.177374
0.874167
3.72734
13.9087
45.9515
135.834
362.153
873.519
1893.44
3706.27
6754.04
11370.5
17778.7
26111.8
36487.9
49078.3
64248.2
82611.1
105042
132732
167225
210493
265042
334056
421599
532868
674533
855181
1.0859e+06
1.38104e+06
1.75925e+06
2.24479e+06
2.86941e+06
3.67469e+06
4.71542e+06
6.06397e+06
7.81647e+06
1.0101e+07
1.30271e+07
1.68504e+07
2.20182e+07
2.88621e+07
1.09356e+08
2.66286e+08
2.05486e+07
1.5195e+07
1.11204e+07
8.03895e+06
5.72877e+06
4.01603e+06
2.76481e+06
1.86844e+06
1.24544e+06
832507
508562
101005
5703.26
135.954
1.78865
0.0176776
0.000214431
5.1822e-06
3.1049e-07
4.19056e-08
9.68628e-09
3.30739e-09
1.28131e-09
5.15274e-10
2.27418e-10
9.78355e-11
4.07359e-11
1.76983e-11
7.13554e-12
7.41858e-12
4.16739e-13
-1.37145e-21
-5.53056e-21
0
-1.18399e-11
2.63596e-07
0
-2.57847e-11
0
0
-2.50812e-07
3.53573e-10
0
-1.77501e-14
2.30341e-07
-5.78457e-10
-1.27531e-16
1.0964e-09
4.75111e-09
5.53324e-08
5.1453e-07
6.31704e-06
6.55034e-05
0.000603861
0.0048107
0.0326747
0.188982
0.936664
4.01384
15.0481
49.9389
148.224
396.322
955.066
2046.39
3950.65
7188.61
12037.3
18719.2
27367.8
38099.5
51116.3
66821.9
85861.7
109154
137936
173794
218756
275389
346955
437601
552624
698800
884831
1.12191e+06
1.42449e+06
1.81124e+06
2.30641e+06
2.94152e+06
3.75773e+06
4.80893e+06
6.16603e+06
7.92276e+06
1.02036e+07
1.30992e+07
1.68789e+07
2.19666e+07
2.8898e+07
1.83343e+08
2.16711e+08
1.9271e+07
1.42766e+07
1.04659e+07
7.57799e+06
5.40909e+06
3.79854e+06
2.6207e+06
1.77703e+06
1.19141e+06
806106
454558
79629.3
3998.34
88.2672
1.10492
0.0109089
0.000140413
3.74796e-06
2.47633e-07
3.65119e-08
9.13463e-09
2.86499e-09
1.11764e-09
4.86948e-10
2.1295e-10
9.10089e-11
4.04414e-11
1.69527e-11
1.6933e-12
2.17505e-12
3.95537e-13
-1.90762e-17
0
5.86273e-12
0
1.04571e-11
2.5785e-07
0
-4.05186e-11
2.47527e-07
1.74226e-10
-6.40879e-19
0
6.47258e-10
-2.36584e-18
-1.83696e-17
-1.24689e-16
-1.2651e-09
8.88485e-09
5.34659e-08
6.21532e-07
6.336e-06
6.72653e-05
0.000624882
0.00500737
0.0341954
0.198749
0.988996
4.25603
16.0211
53.3729
158.951
425.696
1022.04
2212.53
4267.09
7382.57
12328.6
19117.1
27891.4
38776.2
52007.1
68019.5
87480.4
111338
140848
177624
223719
281728
354939
447524
564789
713500
902306
1.14228e+06
1.44764e+06
1.83665e+06
2.33285e+06
2.96663e+06
3.77731e+06
4.81595e+06
6.149e+06
7.86328e+06
1.00727e+07
1.28592e+07
1.64585e+07
2.12566e+07
2.84263e+07
2.50239e+08
1.72542e+08
1.7968e+07
1.33809e+07
9.85329e+06
7.16207e+06
5.12934e+06
3.61358e+06
2.50098e+06
1.70119e+06
1.14373e+06
788212
417803
66356.8
3043.68
63.1489
0.75975
0.00751033
0.000101526
2.93191e-06
2.10368e-07
3.18183e-08
8.37617e-09
2.80305e-09
1.14611e-09
4.99157e-10
2.03675e-10
8.74003e-11
3.84915e-11
1.53084e-11
6.363e-12
2.27509e-12
3.86384e-13
0
1.60578e-12
0
0
-1.26646e-11
-8.54484e-20
-1.1737e-15
0
0
-9.28779e-11
-3.28037e-10
0
3.40309e-10
-5.35511e-10
-1.95119e-17
-1.25515e-16
-1.0046e-15
1.88284e-07
5.57106e-08
5.43644e-07
6.32582e-06
6.85315e-05
0.000639251
0.00514381
0.0352618
0.20567
1.02674
4.43172
16.7325
55.9015
166.836
446.91
1080.2
2343.44
4524.53
7714.52
12045.5
18730.3
27382.8
38156.5
51316.2
67313.3
86830
110823
140549
177626
224104
282574
356313
449467
567295
716479
905526
1.14528e+06
1.44958e+06
1.83611e+06
2.32754e+06
2.9529e+06
3.74946e+06
4.76518e+06
6.06193e+06
7.71968e+06
9.84229e+06
1.25114e+07
1.59183e+07
2.04258e+07
2.74035e+07
2.93606e+08
1.4191e+08
1.69193e+07
1.26516e+07
9.35184e+06
6.82177e+06
4.90226e+06
3.46483e+06
2.40567e+06
1.64171e+06
1.10759e+06
770501
396647
58486.1
2523.02
50.0426
0.585044
0.00578864
8.10537e-05
2.47383e-06
1.86395e-07
2.95715e-08
7.66725e-09
2.90577e-09
1.07274e-09
4.67731e-10
1.95475e-10
8.5581e-11
3.55327e-11
1.6662e-11
5.97152e-12
1.98894e-12
3.64203e-13
0
5.45006e-21
1.51134e-16
2.5511e-07
0
0
-2.442e-07
0
-1.67354e-10
4.2628e-15
2.19679e-07
0
-1.10438e-18
-1.12954e-09
2.84055e-14
2.08186e-09
5.13095e-14
7.65426e-09
5.12995e-08
6.25205e-07
6.57722e-06
6.91113e-05
0.000646181
0.00521129
0.0357987
0.209203
1.04628
4.52346
17.1044
57.2135
170.867
459.111
1111.51
2414.83
4666.94
7960.81
12006.2
17319.9
25564.9
35898
48607.5
64150.7
83210.4
106731
135950
172462
218287
275978
348764
440727
557032
704235
890660
1.12689e+06
1.42641e+06
1.80638e+06
2.2887e+06
2.90134e+06
3.68007e+06
4.67067e+06
5.93189e+06
7.53935e+06
9.59065e+06
1.21667e+07
1.54338e+07
1.97391e+07
2.6579e+07
3.0893e+08
1.27292e+08
1.61907e+07
1.2129e+07
8.98043e+06
6.56124e+06
4.72237e+06
3.34289e+06
2.32487e+06
1.5896e+06
1.07482e+06
748611
382306
54834.3
2297.99
44.5245
0.512818
0.00507515
7.2307e-05
2.26782e-06
1.75923e-07
2.85899e-08
7.58219e-09
2.67837e-09
1.00926e-09
4.3652e-10
1.92119e-10
8.19862e-11
3.35677e-11
1.43625e-11
6.13622e-12
2.06448e-12
-4.60969e-12
-2.58823e-07
0
0
0
0
-8.38876e-20
8.23961e-20
-8.57729e-11
0
3.05977e-19
-2.19988e-07
0
3.23772e-10
-4.24852e-18
-2.04012e-17
-1.25287e-16
-1.10086e-09
7.65446e-09
-1.06602e-07
6.28386e-07
6.57774e-06
6.90735e-05
0.00064587
0.00520822
0.0357766
0.209072
1.04563
4.52073
17.0947
57.1842
170.791
458.94
1111.19
2414.35
4666.48
7960.82
12007.3
17327.1
25576.9
35916.7
48635.7
64191.5
83268
106810
136059
172608
218481
276235
349100
441161
557589
704942
891548
1.128e+06
1.42776e+06
1.80802e+06
2.29066e+06
2.90366e+06
3.68278e+06
4.67381e+06
5.93551e+06
7.54352e+06
9.59547e+06
1.21721e+07
1.54397e+07
1.97447e+07
2.65853e+07
3.08926e+08
1.27332e+08
1.61908e+07
1.21289e+07
8.97969e+06
6.56011e+06
4.72112e+06
3.34174e+06
2.32396e+06
1.58898e+06
1.07442e+06
748291
382008
54756.6
2293.89
44.4381
0.511849
0.00506696
7.22194e-05
2.26624e-06
1.75433e-07
2.85997e-08
7.7644e-09
2.66205e-09
1.00955e-09
4.3662e-10
1.9146e-10
7.8905e-11
3.51387e-11
1.4364e-11
6.13676e-12
2.08326e-12
3.61908e-13
0
2.91226e-12
1.09364e-20
2.17692e-20
-2.29693e-11
-2.5321e-07
-2.49637e-07
0
4.51948e-15
-7.55683e-11
6.16883e-19
1.66916e-14
-1.16067e-18
-2.24481e-18
3.01854e-14
-1.297e-16
1.86818e-07
8.26946e-09
5.35208e-08
5.43701e-07
6.4787e-06
6.84304e-05
0.000638352
0.00513491
0.0351971
0.205289
1.02489
4.42369
16.7039
55.8149
166.61
446.402
1079.23
2341.96
4522.93
7713.97
12053.4
18746.6
27412.7
38206.1
51393
67426.8
86992.2
111049
140860
178046
224666
283318
357290
450737
568932
718572
908177
1.1486e+06
1.45371e+06
1.8412e+06
2.33374e+06
2.96035e+06
3.75834e+06
4.77565e+06
6.07413e+06
7.73374e+06
9.85831e+06
1.25282e+07
1.59354e+07
2.04409e+07
2.7408e+07
2.93596e+08
1.41991e+08
1.69228e+07
1.26542e+07
9.35187e+06
6.82014e+06
4.89994e+06
3.46245e+06
2.40365e+06
1.64029e+06
1.10671e+06
769320
395770
58260.4
2510.93
49.7805
0.581963
0.00576075
8.07292e-05
2.46556e-06
1.87143e-07
3.02555e-08
7.67288e-09
2.4885e-09
1.12145e-09
4.67954e-10
1.96269e-10
8.5746e-11
3.59746e-11
1.58686e-11
6.33619e-12
1.98928e-12
3.5173e-13
0
2.60957e-07
-1.53609e-16
3.06757e-16
-2.59803e-07
0
2.55118e-07
0
0
-2.42827e-07
-2.37388e-07
0
-1.2172e-18
2.19087e-07
5.47748e-10
-1.24689e-16
-1.02934e-09
4.44262e-09
5.58372e-08
7.11792e-07
6.32506e-06
6.71006e-05
0.000623504
0.00499356
0.0340951
0.198138
0.985861
4.24328
15.9764
53.2361
158.584
424.841
1020.35
2209.74
4263.57
7382.76
12334.3
19134.1
27927.4
38840.7
52111.6
68178.1
87710.9
111663
141297
178235
224541
282822
356382
449411
567238
716655
906338
1.14739e+06
1.45406e+06
1.84465e+06
2.34271e+06
2.97864e+06
3.79175e+06
4.83301e+06
6.16873e+06
7.88553e+06
1.0097e+07
1.28823e+07
1.64785e+07
2.12701e+07
2.84176e+07
2.50037e+08
1.72634e+08
1.79716e+07
1.33829e+07
9.85321e+06
7.16032e+06
5.12686e+06
3.61068e+06
2.49795e+06
1.69822e+06
1.14067e+06
788540
417172
66005
3020.34
62.5847
0.752635
0.00744444
0.000100769
2.91483e-06
2.08617e-07
3.25303e-08
8.57901e-09
2.72632e-09
1.14615e-09
4.64329e-10
2.10092e-10
8.50737e-11
3.79353e-11
1.2579e-11
6.16326e-12
3.01348e-12
3.7393e-13
0
0
-2.63488e-07
0
0
0
0
0
0
4.71647e-15
1.58612e-10
-3.81998e-10
-2.36329e-07
-2.30333e-07
2.25846e-07
-1.38484e-09
-1.09634e-09
6.88257e-09
5.32659e-08
6.14232e-07
6.30884e-06
6.51989e-05
0.00060172
0.0047932
0.0325501
0.188237
0.932966
3.9983
14.9914
49.7597
147.732
395.14
952.614
2042.31
3945.82
7183.97
12036.6
18728.8
27396.5
38158.3
51218.3
66982.9
86101.1
109497
138414
174449
219640
276571
348519
439656
555303
702272
889299
1.12762e+06
1.43173e+06
1.82036e+06
2.31777e+06
2.9555e+06
3.77463e+06
4.8289e+06
6.18888e+06
7.94766e+06
1.02288e+07
1.31206e+07
1.68917e+07
2.19666e+07
2.8874e+07
1.82994e+08
2.16717e+08
1.92764e+07
1.42826e+07
1.04712e+07
7.58105e+06
5.40967e+06
3.79719e+06
2.61746e+06
1.77209e+06
1.18387e+06
813094
454941
79207.1
3958.8
87.1858
1.09023
0.0107691
0.000138841
3.71479e-06
2.45897e-07
3.50683e-08
8.78718e-09
2.96753e-09
1.11852e-09
4.6183e-10
2.01439e-10
9.10588e-11
4.04618e-11
1.61473e-11
1.12787e-11
2.17582e-12
4.66564e-12
7.30421e-13
-2.63492e-07
0
2.66867e-07
2.67367e-07
0
-4.77478e-11
0
0
0
0
0
3.17495e-10
6.22366e-10
-2.04317e-17
-1.29852e-16
-1.01461e-15
5.06026e-09
5.42041e-08
7.10061e-07
6.06197e-06
6.29256e-05
0.000575218
0.00454708
0.030676
0.176502
0.869875
3.70904
13.8416
45.7378
135.237
360.683
870.341
1887.5
3697.22
6742.94
11359.4
17773
26119.7
36519.8
49146.3
64366.7
82797.3
105317
133123
167768
211231
266032
335372
423333
535135
677480
858989
1.09079e+06
1.38729e+06
1.76717e+06
2.25475e+06
2.88179e+06
3.68985e+06
4.73356e+06
6.08504e+06
7.83984e+06
1.01253e+07
1.30459e+07
1.68598e+07
2.20137e+07
2.88482e+07
1.08975e+08
2.66222e+08
2.055e+07
1.51947e+07
1.11175e+07
8.0342e+06
5.72375e+06
4.01079e+06
2.75927e+06
1.86283e+06
1.23891e+06
844426
504938
99864.9
5617.95
133.631
1.75735
0.0173816
0.000211264
5.11813e-06
3.08017e-07
4.12306e-08
9.49487e-09
3.20859e-09
1.28234e-09
4.94788e-10
2.27576e-10
9.78985e-11
4.20955e-11
1.77076e-11
6.76848e-12
2.35798e-12
4.04355e-13
2.60953e-07
0
2.67678e-07
3.17105e-16
1.0913e-11
0
-2.71621e-07
0
5.06239e-15
0
0
1.96239e-14
-4.06976e-10
-5.46276e-18
-1.42689e-09
-1.31648e-16
-1.23096e-09
5.36963e-09
5.76854e-08
4.71729e-07
5.99868e-06
6.00795e-05
0.000544687
0.00427221
0.028628
0.163583
0.801288
3.39789
12.6156
41.4858
122.124
324.58
782.559
1707.79
3377.39
6175.81
10467.7
16485.8
24377.8
34259.8
46294.7
60806.7
78361.3
99787.6
126216
159131
200424
252512
318464
402201
508738
644518
817835
1.0394e+06
1.32309e+06
1.68691e+06
2.15429e+06
2.75587e+06
3.53172e+06
4.53456e+06
5.83394e+06
7.52212e+06
9.72208e+06
1.25654e+07
1.6244e+07
2.10848e+07
2.76316e+07
5.82146e+07
3.15999e+08
2.17223e+07
1.60859e+07
1.17811e+07
8.51977e+06
6.07118e+06
4.25467e+06
2.92681e+06
1.97368e+06
1.3087e+06
884492
559827
130547
8566.05
223.993
3.1372
0.0312649
0.000356163
7.67822e-06
4.07323e-07
5.0025e-08
1.13554e-08
3.45013e-09
1.39707e-09
5.71051e-10
2.28837e-10
1.04758e-10
4.23521e-11
1.92722e-11
2.39094e-12
2.5382e-12
4.60459e-13
-1.92004e-17
5.61008e-21
0
0
2.74898e-07
-2.76377e-07
0
2.77097e-07
0
-5.1737e-15
0
0
0
-2.85387e-18
-2.60513e-07
1.32102e-09
-1.01231e-15
3.13117e-09
4.75466e-08
6.88351e-07
5.70352e-06
5.70254e-05
0.000511762
0.00397994
0.0264665
0.15013
0.73085
3.08178
11.3824
37.2485
109.163
289.075
695.77
1523.14
3031.96
5562.84
9485.8
15041.8
22395.3
31663.4
43007
56708.8
73279.5
93490.5
118394
149384
188250
237273
299359
378211
478570
606512
769857
978684
1.24601e+06
1.5887e+06
2.02861e+06
2.59413e+06
3.32222e+06
4.26105e+06
5.47355e+06
7.042e+06
9.07425e+06
1.171e+07
1.50674e+07
1.94494e+07
2.53243e+07
3.51059e+07
3.54726e+08
2.31817e+07
1.71332e+07
1.25377e+07
9.06455e+06
6.46082e+06
4.52992e+06
3.1176e+06
2.1035e+06
1.39246e+06
929340
621259
174975
13941
407.813
6.17274
0.0626159
0.00066796
1.26148e-05
5.76878e-07
6.34911e-08
1.26569e-08
4.07535e-09
1.51245e-09
6.25559e-10
2.6354e-10
1.11611e-10
4.72617e-11
2.01551e-11
8.269e-12
7.63635e-12
5.23851e-13
0
2.67242e-07
2.71823e-07
0
0
-1.32087e-15
2.79541e-11
0
2.83664e-07
-5.32626e-15
-2.23326e-10
4.44036e-10
0
-2.97643e-18
-1.76566e-17
-1.27807e-16
3.04388e-09
5.98718e-09
4.69997e-08
5.46193e-07
5.38969e-06
5.3672e-05
0.000478203
0.00368401
0.0242919
0.13683
0.661868
2.77488
10.1952
33.2032
96.8851
255.637
614.011
1346.04
2691.8
4956.11
8499.53
13570
20346.9
28958.3
39558.4
52404.6
67952
86906
110240
139251
175614
221466
279534
353291
447178
566890
719740
915149
1.16527e+06
1.4858e+06
1.89706e+06
2.42536e+06
3.10483e+06
3.97971e+06
5.10738e+06
6.56212e+06
8.43983e+06
1.08614e+07
1.39322e+07
1.78571e+07
2.30214e+07
2.95822e+07
3.7184e+08
4.77256e+07
1.79372e+07
1.32468e+07
9.64555e+06
6.91426e+06
4.8706e+06
3.36546e+06
2.27758e+06
1.5096e+06
997408
678957
234299
23794.5
798.251
13.2903
0.139317
0.00139912
2.29119e-05
8.86596e-07
8.29899e-08
1.5723e-08
4.42508e-09
1.62761e-09
6.81208e-10
2.87396e-10
1.31456e-10
5.66623e-11
2.76461e-11
9.01448e-12
-2.05356e-12
1.30626e-12
0
-5.6622e-21
0
2.78497e-07
-6.63752e-16
2.56167e-11
-2.87996e-07
1.95568e-19
0
-2.09095e-10
-2.91548e-07
0
0
-4.31776e-14
2.85244e-07
-2.82993e-07
-1.00889e-15
-2.67749e-07
4.95037e-08
5.33861e-07
5.08051e-06
5.07718e-05
0.000444988
0.00339534
0.0221983
0.124119
0.596511
2.4865
9.08849
29.4609
85.6084
225.103
539.493
1183.22
2374.16
4386.46
7562.72
12154.3
18353.7
26303
36150.7
48140
62674.7
80393.3
102195
129276
163199
205959
260108
328900
416497
528240
670993
853608
1.08752e+06
1.38755e+06
1.77292e+06
2.26864e+06
2.90736e+06
3.73177e+06
4.79794e+06
6.17977e+06
7.97509e+06
1.03131e+07
1.33105e+07
1.72091e+07
2.24534e+07
2.93563e+07
3.02696e+08
1.25349e+08
1.95081e+07
1.43894e+07
1.04775e+07
7.5168e+06
5.3021e+06
3.66957e+06
2.48983e+06
1.65513e+06
1.085e+06
733636
328096
41707.9
1660.04
31.0535
0.343305
0.00328608
4.64406e-05
1.48704e-06
1.20096e-07
1.99902e-08
5.55443e-09
1.84241e-09
7.64805e-10
3.22907e-10
1.4467e-10
6.02635e-11
2.39313e-11
5.27562e-12
3.43411e-12
6.3222e-13
0
0
0
-2.37347e-20
0
-1.16755e-11
0
1.99826e-19
-4.02342e-19
9.64069e-11
-3.00321e-07
0
0
-3.22098e-18
-2.24089e-17
-1.33354e-16
-1.00553e-15
6.59884e-09
4.54878e-08
5.10448e-07
4.92541e-06
4.76195e-05
0.000413667
0.00312408
0.0202435
0.112333
0.536332
2.22278
8.08313
26.0834
75.4935
197.857
473.168
1037.67
2089.22
3876.32
6704.87
10844.1
16489.9
23798
32915.9
44076.5
57640.2
74182.7
94531
119786
151396
191224
241652
305729
387357
491548
624764
795350
1.01413e+06
1.29517e+06
1.65682e+06
2.12308e+06
2.72553e+06
3.50583e+06
4.51936e+06
5.84023e+06
7.56859e+06
9.84137e+06
1.27982e+07
1.67067e+07
2.20985e+07
2.94612e+07
1.17285e+08
2.43047e+08
2.16416e+07
1.59129e+07
1.15772e+07