/*--------------------------------*- C++ -*----------------------------------*\
  =========                 |
  \\      /  F ield         | OpenFOAM: The Open Source CFD Toolbox
   \\    /   O peration     | Website:  https://openfoam.org
    \\  /    A nd           | Version:  8
     \\/     M anipulation  |
\*---------------------------------------------------------------------------*/
FoamFile
{
    version     2.0;
    format      ascii;
    class       volScalarField;
    location    "80/fluid";
    object      rDeltaT;
}
// * * * * * * * * * * * * * * * * * * * * * * * * * * * * * * * * * * * * * //

dimensions      [0 0 -1 0 0 0 0];

internalField   nonuniform List<scalar> 
4000
(
514.412
542.176
568.767
594.705
620.195
645.255
669.764
693.486
716.074
737.083
756.015
772.332
785.487
795.008
800.558
801.977
799.281
792.645
782.372
768.856
752.555
733.965
713.617
692.039
669.657
646.839
623.899
601.081
578.593
556.59
535.194
514.492
494.546
475.395
457.058
439.544
422.846
406.952
396.481
396.929
403.519
410.593
418.196
426.368
435.148
444.571
454.672
465.487
477.048
489.39
502.547
516.555
531.45
547.269
564.051
581.838
600.67
620.593
641.651
663.89
687.356
712.094
738.145
765.547
794.33
824.514
856.106
889.082
923.426
959.094
995.97
1753.73
13750.5
1111.54
1137.13
1160.78
1181.76
1199.33
1212.47
1219.92
1220.2
1212.27
1194.71
1166.14
1125.82
1074.26
1013.41
947.677
883.962
829.301
787.343
756.517
732.145
709.08
684.326
656.649
626.189
593.423
558.303
520.126
513.972
541.278
567.376
592.494
616.853
640.476
663.262
685.023
705.486
724.319
741.119
755.438
766.844
774.969
779.561
780.499
777.803
771.61
762.15
749.725
734.686
717.437
698.412
678.013
656.63
634.606
612.265
589.883
567.676
545.823
524.465
503.703
483.611
464.234
445.601
427.722
410.596
394.212
386.118
389.969
397.943
406.352
415.246
424.668
434.663
445.27
456.528
468.477
481.153
494.595
508.84
523.928
539.898
556.791
574.651
593.523
613.453
634.492
656.692
680.106
704.789
730.8
758.193
787.026
817.348
849.208
882.641
917.654
954.279
992.554
1032.37
3483.48
11348.8
1140.83
1159.58
1177.32
1192.73
1204.64
1211.82
1212.83
1206.16
1190.31
1163.71
1125.16
1074.63
1013.92
947.274
881.032
822.506
777.087
745.287
723.186
705.29
687.419
667.315
644.105
617.619
588.085
555.29
518.972
513.244
538.886
563.135
586.263
608.431
629.672
649.941
669.144
687.129
703.675
718.479
731.183
741.431
748.9
753.34
754.599
752.637
747.52
739.41
728.538
715.223
699.771
682.486
663.693
643.715
622.883
601.486
579.79
558.036
536.41
515.064
494.117
473.658
453.75
434.437
415.743
397.677
380.239
375.148
383.7
393.786
404.28
415.23
426.685
438.691
451.29
464.527
478.444
493.081
508.483
524.691
541.748
559.699
578.591
598.471
619.391
641.403
664.566
688.939
714.585
741.573
769.972
799.859
831.308
864.4
899.214
935.829
974.287
1014.64
1057.02
1101.96
11649.3
5565.69
1182.99
1195.76
1206.42
1214.01
1217.45
1215.5
1206.77
1189.92
1163.63
1126.7
1078.39
1019.71
953.535
885.187
821.379
768.292
729.15
702.817
685.08
671.146
657.353
641.694
623.348
601.978
577.446
549.352
517.153
512.58
536.894
559.746
581.374
601.947
621.507
640.028
657.434
673.597
688.331
701.392
712.502
721.372
727.736
731.381
732.172
730.055
725.086
717.38
707.125
694.521
679.853
663.441
645.571
626.527
606.576
585.984
564.976
543.746
522.465
501.276
480.292
459.606
439.285
419.379
399.922
380.933
366.213
366.673
378.621
390.936
403.666
416.858
430.557
444.809
459.658
475.148
491.323
508.227
525.904
544.4
563.759
584.031
605.263
627.507
650.817
675.249
700.86
727.714
755.872
785.399
816.36
848.814
882.815
918.398
955.574
994.307
1034.41
1075.79
1118.05
1173.5
15594.3
1217.3
1223.97
1228.07
1229.46
1227.41
1220.95
1208.99
1190.36
1163.94
1128.75
1083.95
1029.6
967.422
900.889
835.209
776.524
729.975
697.366
676.452
662.784
651.859
640.581
627.287
611.259
592.309
570.345
544.937
515.625
511.852
534.651
555.907
575.86
594.67
612.39
629.007
644.477
658.712
671.579
682.897
692.452
700.012
705.355
708.307
708.744
706.601
701.864
694.599
684.926
673.032
659.151
643.517
626.384
608.03
588.712
568.653
548.063
527.124
505.995
484.806
463.666
442.663
421.863
401.318
381.065
361.125
351.892
359.571
373.682
388.189
403.134
418.559
434.508
451.023
468.147
485.924
504.396
523.608
543.605
564.431
586.133
608.758
632.356
656.976
682.671
709.494
737.5
766.744
797.282
829.165
862.442
897.15
933.309
970.914
1009.92
1050.13
1091.34
1133.22
1175.13
3166.8
11471.3
1257.15
1254.64
1250.12
1242.75
1231.8
1216.43
1195.69
1168.63
1134.32
1091.95
1041
982.227
917.763
851.461
788.61
734.854
694.134
666.852
650.013
639.294
630.744
621.763
610.932
597.587
581.5
562.522
540.203
514.05
511.126
532.459
552.21
570.604
587.802
603.857
618.768
632.504
645.001
656.153
665.817
673.826
679.999
684.169
686.183
685.932
683.357
678.447
671.229
661.788
650.269
636.832
621.688
605.078
587.222
568.348
548.668
528.372
507.627
486.573
465.335
444.011
422.684
401.417
380.26
359.25
338.975
336.706
352.41
368.511
385.045
402.048
419.558
437.614
456.254
475.52
495.451
516.09
537.478
559.658
582.673
606.568
631.388
657.179
683.987
711.86
740.846
770.993
802.349
834.959
868.864
904.098
940.684
978.627
1017.91
1058.49
1100.18
1142.91
1186.52
1231.49
14134
4063.57
1269.86
1263.5
1253.78
1240.48
1223.09
1201.02
1173.59
1140.08
1099.82
1052.27
997.239
936.074
871.308
807.054
748.498
700.585
666.007
643.937
630.834
622.571
615.699
608.123
598.737
587.038
572.855
556.037
536.123
512.643
510.382
530.205
548.413
565.222
580.784
595.154
608.339
620.32
631.055
640.47
648.466
654.916
659.687
662.652
663.699
662.738
659.708
654.575
647.334
638.037
626.757
613.636
598.845
582.576
565.041
546.445
526.985
506.833
486.145
465.055
443.676
422.101
400.406
378.651
356.883
335.138
321.476
327.269
344.732
362.632
381.001
399.869
419.27
439.238
459.808
481.017
502.902
525.502
548.855
573
597.978
623.829
650.592
678.308
707.017
736.759
767.572
799.49
832.547
866.766
902.162
938.736
976.464
1015.29
1055.1
1095.68
1136.68
1177.75
1218.16
1462.21
14892.5
1292.14
1281.66
1268.32
1251.92
1232.15
1208.54
1180.51
1147.45
1108.78
1063.98
1012.6
954.958
892.623
828.522
766.89
712.684
670.081
640.646
622.674
612.438
606.119
600.756
594.603
586.744
576.76
564.5
549.81
532.237
511.316
509.63
527.944
544.619
559.861
573.817
586.54
598.041
608.313
617.329
625.04
631.374
636.249
639.572
641.259
641.232
639.426
635.788
630.267
622.845
613.519
602.338
589.393
574.815
558.772
541.445
523.025
503.685
483.592
462.891
441.706
420.143
398.289
376.215
353.978
331.623
309.182
302.815
317.252
336.278
355.779
375.78
396.307
417.388
439.054
461.334
484.263
507.873
532.2
557.276
583.138
609.821
637.359
665.786
695.136
725.442
756.733
789.037
822.377
856.77
892.223
928.73
966.267
1004.78
1044.19
1084.34
1124.91
1165.63
1206.29
1246.02
5404.29
9406.87
1297.05
1281.4
1262.95
1241.4
1216.5
1187.91
1155.17
1117.75
1075.17
1026.99
972.937
913.741
851.272
788.707
730.351
680.837
643.523
618.929
604.654
596.931
592.243
588.088
583.047
576.391
567.793
557.134
544.262
528.735
510.109
508.869
525.653
540.783
554.45
566.794
577.866
587.682
596.241
603.533
609.53
614.193
617.474
619.324
619.697
618.552
615.846
611.53
605.554
597.864
588.428
577.251
564.384
549.925
534.011
516.802
498.467
479.172
459.068
438.292
416.963
395.18
373.025
350.567
327.858
304.94
285.143
286.497
306.422
326.834
347.749
369.19
391.177
413.734
436.887
460.664
485.091
510.2
536.02
562.582
589.914
618.048
647.011
676.833
707.54
739.156
771.703
805.199
839.658
875.084
911.474
948.81
987.055
1026.15
1065.98
1106.43
1147.16
1188
1228.66
1269.48
15184.5
3213.29
1284.65
1266.99
1245.91
1221.46
1193.44
1161.61
1125.65
1085.22
1039.97
989.492
933.788
873.99
812.192
751.758
696.976
652.07
619.581
599.158
587.956
582.313
579.046
576.031
572.091
566.63
559.385
550.256
539.098
525.485
508.991
508.099
523.343
536.92
549.009
559.742
569.167
577.303
584.157
589.731
594.017
597.004
598.677
599.028
598.048
595.73
592.057
586.989
580.47
572.423
562.79
551.534
538.668
524.256
508.406
491.255
472.952
453.65
433.493
412.609
391.111
369.094
346.636
323.802
300.642
277.196
264.237
273.503
294.625
316.259
338.42
361.123
384.386
408.23
432.675
457.745
483.465
509.86
536.956
564.778
593.35
622.698
652.843
683.808
715.609
748.264
781.783
816.173
851.431
887.546
924.491
962.221
1000.66
1039.7
1079.16
1118.77
1158.1
1196.78
1234.15
1467.34
14680.8
1295.25
1276.42
1254.26
1228.98
1200.6
1168.99
1133.89
1094.97
1051.94
1004.5
952.312
895.584
835.768
775.161
717.257
666.245
625.873
597.891
581.213
572.713
568.897
566.906
564.938
562.017
557.663
551.664
543.941
534.353
522.493
507.961
507.321
521.01
533.023
543.526
552.641
560.415
566.869
572.017
575.872
578.445
579.75
579.806
578.638
576.278
572.752
568.067
562.197
555.077
546.618
536.724
525.326
512.401
497.98
482.141
465
446.69
427.35
407.115
386.105
364.428
342.176
319.423
296.231
272.65
248.717
242.541
259.57
281.75
304.46
327.711
351.517
375.89
400.847
426.407
452.59
479.415
506.905
535.08
563.962
593.57
623.923
655.038
686.929
719.609
753.084
787.357
822.426
858.279
894.893
932.232
970.238
1008.83
1047.87
1087.18
1126.35
1165.09
1203.06
1239.11
3850.45
10849.6
1284.13
1261.32
1235.82
1207.44
1176.11
1141.72
1104.06
1062.86
1017.88
968.83
915.506
858.345
799.027
740.033
684.929
637.737
601.692
577.806
564.423
558.277
556.087
555.291
554.351
552.45
549.191
544.406
538.028
529.922
519.705
507.002
506.534
518.655
529.093
538.003
545.496
551.617
556.389
559.832
561.97
562.831
562.454
560.886
558.189
554.429
549.664
543.928
537.207
529.436
520.507
510.3
498.712
485.683
471.213
455.353
438.193
419.853
400.458
380.132
358.992
337.14
314.663
291.634
268.113
244.148
221.614
222.038
244.607
267.72
291.374
315.578
340.341
365.675
391.593
418.11
445.242
473.006
501.421
530.503
560.269
590.735
621.913
653.816
686.451
719.825
753.937
788.783
824.351
860.623
897.567
935.142
973.288
1011.93
1050.95
1090.22
1129.4
1168.35
1207.03
1245.19
10711.4
6102.8
1259.36
1236.36
1209.92
1180.23
1147.38
1111.35
1072.07
1029.36
983.062
932.956
878.994
821.954
763.553
706.505
654.396
611.024
579.096
558.964
548.533
544.499
543.804
544.156
544.233
543.346
541.167
537.56
532.469
525.766
517.093
506.104
505.739
516.278
525.132
532.441
538.307
542.773
545.862
547.602
548.026
547.18
545.122
541.929
537.696
532.522
526.499
519.683
512.076
503.613
494.172
483.609
471.79
458.624
444.075
428.168
410.974
392.592
373.136
352.722
331.459
309.445
286.764
263.486
239.67
215.362
198.406
205.162
228.546
252.479
276.958
301.992
327.586
353.747
380.488
407.82
435.758
464.314
493.504
523.342
553.839
585.008
616.856
649.391
682.615
716.526
751.118
786.377
822.283
858.805
895.898
933.503
971.54
1009.9
1048.44
1086.97
1125.09
1162.62
1199.26
1234.58
15157.2
2487.51
1237.06
1211.88
1183.46
1151.99
1117.49
1079.94
1039.26
995.348
948.094
897.302
843.076
786.455
729.3
674.432
625.416
585.784
557.721
541.006
533.229
531.119
531.827
533.31
534.418
534.562
533.468
531.024
527.183
521.826
514.623
505.257
504.936
513.881
521.142
526.844
531.079
533.888
535.298
535.339
534.055
531.507
527.775
522.96
517.189
510.593
503.296
495.378
486.857
477.668
467.681
456.728
444.648
431.316
416.669
400.702
383.465
365.04
345.528
325.037
303.667
281.514
258.658
235.168
211.099
186.497
174.68
187.245
211.344
235.994
261.193
286.944
313.251
340.12
367.561
395.583
424.198
453.416
483.251
513.712
544.808
576.548
608.936
641.973
675.658
709.982
744.93
780.481
816.602
853.248
890.356
927.842
965.595
1003.47
1041.26
1078.73
1115.38
1151.04
1185.27
1295.4
14720.9
1241.24
1217.43
1189.65
1158.63
1124.77
1088.18
1048.83
1006.66
961.56
913.453
862.122
807.859
751.89
696.187
643.64
597.741
561.723
537.271
523.677
518.312
517.99
520.048
522.662
524.823
526.021
526.021
524.732
522.115
518.059
512.267
504.448
504.127
511.466
517.125
521.216
523.819
524.972
524.705
523.053
520.071
515.83
510.432
504.002
496.695
488.675
480.093
471.057
461.598
451.657
441.096
429.727
417.361
403.845
389.085
373.053
355.774
337.313
317.759
297.209
275.759
253.498
230.504
206.842
182.569
157.727
150.51
168.254
192.977
218.25
244.067
270.432
297.347
324.815
352.844
381.443
410.619
440.384
470.746
501.715
533.296
565.495
598.313
631.75
665.799
700.449
735.68
771.467
807.77
844.538
881.701
919.165
956.805
994.459
1031.91
1068.76
1104.63
1139.08
1171.44
1937.74
13584.4
1221.62
1194.36
1164.05
1131
1095.37
1057.23
1016.55
973.279
927.341
878.676
827.112
773.121
718.062
664.01
613.895
571.104
538.553
517.465
506.734
503.59
504.955
508.34
512.105
515.352
517.635
518.749
518.618
517.209
514.423
509.997
503.67
503.312
509.036
513.087
515.563
516.533
516.033
514.095
510.759
506.088
500.167
493.114
485.079
476.242
466.798
456.927
446.759
436.344
425.629
414.469
402.662
389.992
376.28
361.403
345.306
327.993
309.511
289.936
269.355
247.857
225.525
202.436
178.652
154.227
129.205
125.966
148.174
173.434
199.239
225.583
252.466
279.889
307.855
336.37
365.439
395.072
425.277
456.061
487.431
519.393
551.951
585.103
618.848
653.178
688.079
723.531
759.505
795.96
832.841
870.074
907.561
945.171
982.732
1020.01
1056.5
1091.96
1125.97
1157.47
3458.63
11811.7
1196.2
1167.21
1135.38
1100.92
1064.02
1024.75
983.117
939.079
892.611
843.677
792.174
738.72
684.82
632.596
584.993
545.265
516.019
498.061
489.973
488.904
491.892
496.606
501.554
505.93
509.334
511.588
512.625
512.418
510.882
507.79
502.915
502.491
506.592
509.031
509.891
509.23
507.082
503.481
498.471
492.123
484.534
475.839
466.21
455.852
444.987
433.823
422.515
411.131
399.624
387.846
375.583
362.597
348.682
333.687
317.532
300.199
281.718
262.15
241.571
220.063
197.706
174.57
150.718
126.202
101.775
101.846
127.003
152.717
178.969
205.75
233.06
260.898
289.266
318.168
347.61
377.598
408.142
439.246
470.917
503.16
535.977
569.367
603.328
637.85
672.92
708.517
744.612
781.166
818.124
855.417
892.949
930.598
968.2
1005.53
1042.08
1077.68
1111.94
1153.54
5893.67
10001.9
1164.07
1134.82
1102.63
1067.72
1030.3
990.512
948.407
904.006
857.353
808.459
757.327
704.649
652.097
601.836
556.786
520.046
493.923
478.872
473.233
474.127
478.701
484.761
490.936
496.489
501.059
504.484
506.706
507.703
507.405
505.628
502.174
501.667
504.139
504.964
504.208
501.919
498.13
492.873
486.2
478.188
468.946
458.623
447.411
435.54
423.258
410.799
398.345
385.979
373.666
361.257
348.525
335.214
321.094
305.987
289.787
272.455
254.003
234.475
213.937
192.464
170.129
146.998
123.133
100
100
100
104.733
130.826
157.444
184.58
212.231
240.395
269.073
298.268
327.987
358.234
389.016
420.341
452.213
484.636
517.612
551.141
585.219
619.838
654.983
690.635
726.766
763.338
800.3
837.585
875.106
912.746
950.355
987.732
1024.38
1060.18
1094.81
1165.66
8510.08
8333.82
1128.52
1099.5
1067.4
1032.47
994.959
955.021
912.774
868.306
821.732
773.113
722.592
670.929
619.89
571.682
529.182
495.323
472.131
459.774
456.394
459.166
465.314
472.752
480.202
486.984
492.765
497.395
500.824
503.032
503.97
503.494
501.444
500.84
501.68
500.89
498.521
494.61
489.186
482.284
473.959
464.295
453.412
441.473
428.688
415.311
401.615
387.86
374.253
360.895
347.764
334.712
321.502
307.864
293.541
278.334
262.11
244.808
226.418
206.971
186.521
165.132
142.872
119.803
100
100
100
100
100
107.783
134.692
162.102
190.01
218.413
247.311
276.708
306.607
337.015
367.939
399.383
431.353
463.853
496.886
530.448
564.538
599.146
634.259
669.857
705.912
742.387
779.231
816.38
853.745
891.213
928.636
965.815
1002.29
1037.86
1072.31
1153.88
10311.5
7091.62
1093.48
1064.26
1031.98
996.915
959.269
919.221
876.916
832.492
786.123
737.933
688.163
637.652
588.227
542.118
502.14
471.054
450.604
440.743
439.438
444.02
451.728
460.564
469.33
477.387
484.42
490.291
494.949
498.381
500.556
501.378
500.72
500.011
499.219
496.815
492.837
487.31
480.259
471.722
461.756
450.45
437.935
424.388
410.036
395.155
380.043
364.987
350.221
335.866
321.91
308.21
294.524
280.564
266.055
250.77
234.553
217.319
199.038
179.723
159.416
138.171
116.045
100
100
100
100
100
100
100
110.784
138.389
166.468
195.02
224.045
253.546
283.528
313.996
344.956
376.415
408.376
440.845
473.825
507.312
541.303
575.788
610.753
646.179
682.038
718.29
754.886
791.759
828.818
865.95
903
939.767
975.807
1010.88
1044.78
1132.63
11115.4
6463.33
1059.62
1029.87
997.171
961.778
923.885
883.667
841.29
796.932
750.826
703.15
654.22
604.945
557.189
513.187
475.659
447.232
429.447
422.042
422.807
429.036
438.193
448.379
458.448
467.786
476.087
483.212
489.109
493.768
497.175
499.282
500
500.01
499.215
496.81
492.83
487.302
480.25
471.711
461.744
450.439
437.924
424.377
410.027
395.148
380.038
364.986
350.223
335.872
321.92
308.225
294.542
280.586
266.08
250.797
234.583
217.349
199.069
179.755
159.448
138.201
116.075
100
100
100
100
100
100
100
110.83
138.432
166.51
195.06
224.084
253.583
283.563
314.029
344.987
376.443
408.403
440.869
473.846
507.33
541.317
575.799
610.761
646.183
682.038
718.286
754.878
791.747
828.804
865.934
902.983
939.75
975.789
1010.86
1044.76
1132.71
11115
6465.22
1059.55
1029.8
997.103
961.707
923.812
883.591
841.213
796.858
750.757
703.089
654.173
604.916
557.184
513.211
475.715
447.318
429.559
422.17
422.943
429.17
438.32
448.495
458.552
467.877
476.164
483.275
489.158
493.804
497.199
499.294
500.002
500.837
501.674
500.88
498.507
494.593
489.166
482.262
473.936
464.272
453.389
441.451
428.669
415.296
401.604
387.856
374.256
360.906
347.783
334.739
321.536
307.904
293.587
278.383
262.162
244.861
226.472
207.025
186.574
165.184
142.92
119.848
100
100
100
100
100
107.891
134.798
162.206
190.112
218.513
247.408
276.801
306.698
337.102
368.022
399.462
431.428
463.924
496.951
530.508
564.592
599.193
634.299
669.889
705.936
742.403
779.24
816.381
853.74
891.206
928.628
965.807
1002.28
1037.85
1072.29
1153.6
10309.4
7094.86
1093.37
1064.14
1031.86
996.79
959.135
919.079
876.769
832.346
785.985
737.809
688.062
637.588
588.213
542.163
502.247
471.219
450.817
440.989
439.701
444.283
451.98
460.798
469.539
477.569
484.575
490.417
495.047
498.453
500.604
501.401
500.723
501.664
504.133
504.954
504.194
501.903
498.11
492.851
486.177
478.164
468.921
458.6
447.39
435.523
423.245
410.792
398.345
385.986
373.68
361.279
348.552
335.247
321.13
306.025
289.827
272.496
254.042
234.513
213.973
192.497
170.157
147.022
123.151
100
100
100
104.872
130.965
157.583
184.718
212.368
240.53
269.207
298.401
328.117
358.362
389.142
420.464
452.333
484.752
517.724
551.249
585.322
619.934
655.072
690.717
726.84
763.404
800.358
837.635
875.15
912.787
950.395
987.771
1024.42
1060.2
1094.82
1164.98
8498.64
8337.19
1128.48
1099.44
1067.32
1032.39
994.856
954.903
912.645
868.168
821.589
772.975
722.482
670.856
619.863
571.713
529.277
495.48
472.34
460.019
456.656
459.431
465.57
472.988
480.413
487.168
492.92
497.522
500.922
503.103
504.016
503.517
501.448
502.489
506.586
509.022
509.878
509.213
507.063
503.458
498.447
492.097
484.509
475.815
466.187
455.833
444.972
433.813
422.511
411.133
399.633
387.861
375.603
362.621
348.708
333.715
317.56
300.226
281.743
262.172
241.589
220.077
197.714
174.572
150.714
126.191
101.849
102.014
127.173
152.888
179.14
205.921
233.231
261.069
289.437
318.338
347.78
377.767
408.309
439.412
471.081
503.321
536.135
569.522
603.478
637.995
673.059
708.649
744.737
781.283
818.233
855.518
893.043
930.686
968.282
1005.61
1042.14
1077.72
1111.94
1152.9
5879.49
10002
1164.1
1134.82
1102.6
1067.66
1030.23
990.42
948.296
903.876
857.205
808.296
757.215
704.574
652.064
601.857
556.868
520.19
494.122
479.11
473.493
474.392
478.958
484.999
491.148
496.673
501.214
504.609
506.803
507.772
507.45
505.65
502.178
503.309
509.029
513.077
515.549
516.516
516.013
514.072
510.735
506.062
500.14
493.088
485.054
476.221
466.78
456.913
446.751
436.342
425.632
414.477
402.674
390.008
376.297
361.421
345.322
328.007
309.521
289.942
269.355
247.851
225.513
202.416
178.625
154.192
129.161
126.039
148.373
173.635
199.442
225.787
252.672
280.096
308.063
336.578
365.648
395.281
425.485
456.268
487.637
519.598
552.153
585.303
619.045
653.37
688.267
723.713
759.68
796.127
833.001
870.226
907.706
945.309
982.861
1020.13
1056.6
1092.04
1126.01
1157.48
3445.28
11811.5
1196.28
1167.26
1135.4
1100.91
1063.97
1024.68
983.016
938.952
892.46
843.507
792.076
738.636
684.772
632.6
585.059
545.393
516.203
498.288
490.225
489.164
492.146
496.842
501.765
506.112
509.487
511.711
512.719
512.485
510.924
507.812
502.919
504.125
511.46
517.116
521.203
523.802
524.952
524.682
523.028
520.044
515.802
510.404
503.976
496.671
488.654
480.076
471.045
461.59
451.654
441.097
429.732
417.368
403.853
389.092
373.057
355.774
337.308
317.749
297.192
275.735
253.466
230.463
206.793
182.51
157.659
150.585
168.483
193.208
218.484
244.304
270.671
297.588
325.058
353.089
381.688
410.865
440.631
470.993
501.961
533.541
565.739
598.556
631.99
666.036
700.681
735.908
771.689
807.986
844.747
881.901
919.357
956.988
994.632
1032.07
1068.9
1104.76
1139.17
1171.5
1933.37
13585.5
1221.69
1194.43
1164.1
1131.01
1095.36
1057.19
1016.48
973.178
927.205
878.504
827.005
773.016
718.003
664.001
613.944
571.212
538.718
517.674
506.973
503.841
505.202
508.572
512.312
515.53
517.783
518.868
518.708
517.273
514.463
510.017
503.674
504.934
513.876
521.133
526.832
531.063
533.869
535.275
535.313
534.028
531.478
527.745
522.932
517.162
510.569
503.275
495.361
486.844
477.659
467.675
456.726
444.646
431.313
416.663
400.693
383.45
365.018
345.5
325
303.623
281.461
258.596
235.096
211.017
186.404
174.756
187.503
211.606
236.26
261.462
287.216
313.525
340.397
367.84
395.864
424.481
453.701
483.536
513.997
545.093
576.832
609.219
642.254
675.936
710.256
745.2
780.745
816.86
853.497
890.595
928.07
965.81
1003.67
1041.45
1078.88
1115.52
1151.16
1185.38
1295.53
14704.4
1241.38
1217.59
1189.78
1158.72
1124.81
1088.16
1048.78
1006.57
961.433
913.285
861.977
807.741
751.819
696.161
643.668
597.827
561.866
537.46
523.899
518.55
518.228
520.272
522.862
524.995
526.163
526.135
524.818
522.175
518.096
512.285
504.452
505.737
516.273
525.124
532.43
538.292
542.754
545.84
547.577
547.998
547.15
545.091
541.899
537.666
532.494
526.473
519.661
512.057
503.597
494.159
483.598
471.778
458.609
444.056
428.144
410.943
392.554
373.089
352.666
331.394
309.37
286.679
263.391
239.564
215.244
198.483
205.45
228.838
252.775
277.259
302.297
327.893
354.058
380.802
408.137
436.076
464.635
493.826
523.665
554.162
585.331
617.179
649.712
682.933
716.841
751.429
786.683
822.582
859.096
896.18
933.775
971.8
1010.15
1048.68
1087.19
1125.3
1162.82
1199.45
1234.76
15151.1
2506.07
1237.17
1211.96
1183.5
1151.99
1117.46
1079.88
1039.18
995.254
947.977
897.169
842.949
786.373
729.26
674.443
625.483
585.904
557.887
541.207
533.449
531.343
532.04
533.501
534.582
534.697
533.575
531.104
527.238
521.86
514.64
505.261
506.532
518.65
529.086
537.992
545.481
551.599
556.367
559.807
561.942
562.801
562.422
560.854
558.157
554.398
549.635
543.901
537.183
529.413
520.485
510.278
498.687
485.655
471.179
455.312
438.145
419.795
400.391
380.055
358.905
337.042
314.554
291.514
267.981
244.004
221.693
222.356
244.931
268.048
291.706
315.914
340.682
366.019
391.941
418.46
445.595
473.362
501.779
530.862
560.63
591.096
622.274
654.176
686.81
720.182
754.291
789.133
824.697
860.962
897.9
935.466
973.602
1012.23
1051.24
1090.49
1129.63
1168.56
1207.21
1245.33
10656
6129.79
1259.51
1236.48
1210
1180.27
1147.37
1111.31
1071.98
1029.25
982.946
932.827
878.855
821.855
763.497
706.499
654.443
611.12
579.236
559.14
548.732
544.705
544.002
544.335
544.386
543.472
541.266
537.632
532.518
525.795
517.108
506.109
507.319
521.006
533.016
543.516
552.627
560.398
566.849
571.993
575.844
578.415
579.718
579.773
578.605
576.245
572.719
568.035
562.165
555.046
546.586
536.69
525.288
512.358
497.93
482.083
464.932
446.612
427.261
407.014
385.993
364.305
342.041
319.276
296.073
272.479
248.534
242.618
259.924
282.109
304.824
328.079
351.889
376.266
401.227
426.791
452.977
479.805
507.298
535.475
564.359
593.968
624.322
655.438
687.329
720.007
753.481
787.752
822.819
858.668
895.278
932.611
970.609
1009.19
1048.21
1087.51
1126.64
1165.33
1203.23
1239.22
3816.42
10863.7
1284.27
1261.4
1235.84
1207.41
1176.05
1141.64
1103.97
1062.77
1017.77
968.692
915.341
858.263
798.968
740.017
684.96
637.812
601.806
577.954
564.597
558.461
556.267
555.456
554.492
552.564
549.28
544.47
538.071
529.947
519.718
507.006
508.098
523.341
536.915
549.001
559.73
569.152
577.284
584.134
589.705
593.988
596.972
598.644
598.993
598.011
595.693
592.018
586.949
580.428
572.38
562.745
551.483
538.609
524.188
508.327
491.165
472.85
453.536
433.366
412.47
390.96
368.931
346.462
323.615
300.443
276.984
264.315
273.887
295.015
316.653
338.818
361.526
384.794
408.641
433.09
458.164
483.888
510.287
537.385
565.21
593.784
623.134
653.281
684.246
716.048
748.702
782.22
816.608
851.865
887.977
924.919
962.645
1001.08
1040.11
1079.57
1119.16
1158.46
1197.13
1234.48
1468.18
14695
1295.22
1276.43
1254.27
1228.97
1200.58
1168.93
1133.8
1094.86
1051.82
1004.35
952.159
895.516
835.713
775.142
717.279
666.303
625.964
598.011
581.358
572.872
569.057
567.053
565.064
562.119
557.741
551.719
543.977
534.373
522.503
507.965
508.868
525.652
540.779
554.444
566.784
577.853
587.665
596.221
603.509
609.503
614.163
617.441
619.288
619.659
618.511
615.802
611.484
605.504
597.812
588.37
577.184
564.307
549.836
533.91
516.688
498.339
479.03
458.913
438.124
416.783
394.987
372.821
350.351
327.63
304.7
285.221
286.911
306.84
327.256
348.176
369.621
391.613
414.174
437.332
461.112
485.544
510.657
536.48
563.045
590.381
618.517
647.483
677.307
708.015
739.632
772.18
805.676
840.134
875.561
911.95
949.286
987.532
1026.63
1066.47
1106.93
1147.67
1188.52
1229.19
1270.02
15125.4
3282.7
1284.66
1266.97
1245.87
1221.4
1193.37
1161.54
1125.58
1085.14
1039.85
989.384
933.756
873.961
812.188
751.785
697.028
652.143
619.675
599.274
588.087
582.45
579.174
576.141
572.178
566.695
559.429
550.283
539.113
525.492
508.995
509.63
527.943
544.617
559.857
573.81
586.53
598.028
608.296
617.308
625.015
631.347
636.218
639.538
641.221
641.19
639.381
635.737
630.209
622.779
613.447
602.257
589.299
574.705
558.646
541.304
522.868
503.513
483.406
462.692
441.494
419.919
398.054
375.969
353.721
331.355
308.903
302.888
317.695
336.725
356.23
376.235
396.766
417.852
439.522
461.807
484.74
508.355
532.685
557.766
583.632
610.318
637.86
666.29
695.644
725.952
757.245
789.551
822.892
857.285
892.738
929.244
966.778
1005.29
1044.68
1084.82
1125.35
1166.02
1206.63
1246.31
5371.99
9430.55
1297.21
1281.52
1263.04
1241.46
1216.55
1187.93
1155.15
1117.72
1075.13
1026.92
972.889
913.732
851.295
788.755
730.413
680.905
643.597
619.017
604.756
597.042
592.349
588.179
583.118
576.442
567.826
557.152
544.27
528.739
510.112
510.382
530.206
548.414
565.22
580.78
595.148
608.33
620.308
631.039
640.451
648.442
654.889
659.656
662.616
663.656
662.689
659.652
654.51
647.258
637.95
626.658
613.517
598.71
582.424
564.872
546.259
526.783
506.617
485.915
464.812
443.422
421.837
400.132
378.367
356.59
334.835
321.547
327.731
345.197
363.1
381.473
400.345
419.751
439.723
460.297
481.511
503.4
526.004
549.362
573.512
598.494
624.349
651.116
678.835
707.548
737.292
768.106
800.026
833.082
867.3
902.695
939.265
976.988
1015.81
1055.61
1096.18
1137.17
1178.22
1218.6
1463.86
14921.1
1292.11
1281.65
1268.3
1251.88
1232.11
1208.5
1180.5
1147.47
1108.82
1064.02
1012.62
955.017
892.704
828.613
766.979
712.76
670.145
640.709
622.745
612.52
606.201
600.826
594.656
586.779
576.78
564.508
549.811
532.237
511.318
511.128
532.462
552.213
570.606
587.803
603.856
618.764
632.498
644.991
656.14
665.801
673.805
679.973
684.132
686.14
685.882
683.298
678.376
671.145
661.688
650.153
636.704
621.54
604.907
587.031
568.138
548.441
528.129
507.37
486.304
465.055
443.722
422.386
401.112
379.948
358.93
339.042
337.176
352.883
368.987
385.523
402.53
420.044
438.104
456.749
476.019
495.955
516.598
537.991
560.175
583.195
607.095
631.918
657.712
684.523
712.398
741.385
771.532
802.887
835.494
869.395
904.624
941.205
979.142
1018.42
1058.99
1100.67
1143.39
1187.01
1231.95
14008.1
4170.27
1270.08
1263.68
1253.93
1240.59
1223.18
1201.09
1173.64
1140.13
1099.9
1052.32
997.351
936.207
871.447
807.181
748.596
700.651
666.052
643.98
630.882
622.623
615.744
608.154
598.753
587.042
572.85
556.029
536.118
512.643
511.854
534.655
555.913
575.866
594.676
612.394
629.01
644.478
658.71
671.574
682.889
692.438
699.993
705.334
708.277
708.701
706.548
701.8
694.519
684.827
672.912
659.009
643.352
626.199
607.821
588.482
568.404
547.799
526.847
505.707
484.509
463.362
442.352
421.547
400.996
380.737
360.792
351.952
360.039
374.152
388.662
403.61
419.039
434.992
451.511
468.639
486.42
504.897
524.114
544.115
564.946
586.652
609.282
632.883
657.505
683.202
710.025
738.03
767.27
797.802
829.676
862.939
897.627
933.76
971.329
1010.28
1050.44
1091.57
1133.39
1175.22
3140.84
11489.6
1257.52
1254.92
1250.33
1242.92
1231.94
1216.56
1195.81
1168.73
1134.38
1092.04
1041.18
982.427
917.968
851.648
788.752
734.938
694.171
666.867
650.027
639.315
630.761
621.771
610.927
597.573
581.482
562.504
540.192
514.048
512.583
536.9
559.755
581.385
601.958
621.519
640.04
657.445
673.607
688.34
701.399
712.506
721.371
727.729
731.367
732.148
730.017
725.028
717.304
707.027
694.4
679.708
663.271
645.376
626.31
606.337
585.726
564.702
543.46
522.169
500.973
479.984
459.293
438.968
419.06
399.599
380.607
366.267
367.119
379.07
391.388
404.121
417.316
431.019
445.275
460.128
475.623
491.802
508.711
526.392
544.892
564.256
584.531
605.767
628.013
651.324
675.756
701.365
728.214
756.365
785.882
816.828
849.262
883.237
918.788
955.924
994.607
1034.65
1075.95
1118.18
1171.37
15600.5
1229.63
1224.24
1228.31
1229.67
1227.61
1221.15
1209.2
1190.58
1164.17
1128.95
1084.14
1029.85
967.688
901.142
835.41
776.647
730.022
697.364
676.434
662.769
651.842
640.558
627.255
611.222
592.273
570.315
544.918
515.62
513.247
538.894
563.148
586.279
608.449
629.691
649.962
669.166
687.151
703.698
718.502
731.205
741.45
748.914
753.345
754.592
752.614
747.478
739.348
728.454
715.114
699.635
682.324
663.504
643.501
622.647
601.232
579.521
557.754
536.12
514.768
493.818
473.356
453.447