/*--------------------------------*- C++ -*----------------------------------*\
  =========                 |
  \\      /  F ield         | OpenFOAM: The Open Source CFD Toolbox
   \\    /   O peration     | Website:  https://openfoam.org
    \\  /    A nd           | Version:  8
     \\/     M anipulation  |
\*---------------------------------------------------------------------------*/
FoamFile
{
    version     2.0;
    format      ascii;
    class       volScalarField;
    location    "80/fluid";
    object      rho;
}
// * * * * * * * * * * * * * * * * * * * * * * * * * * * * * * * * * * * * * //

dimensions      [1 -3 0 0 0 0 0];

internalField   nonuniform List<scalar> 
4000
(
0.658515
0.658451
0.658347
0.658178
0.657908
0.657479
0.656808
0.655771
0.654188
0.651814
0.648329
0.643338
0.636397
0.627075
0.615031
0.600121
0.582472
0.562498
0.540846
0.518279
0.495546
0.47328
0.451956
0.431872
0.413176
0.3959
0.380011
0.36543
0.352052
0.339765
0.328459
0.318026
0.30837
0.299406
0.291057
0.283257
0.275951
0.26909
0.262633
0.256539
0.250757
0.245255
0.24001
0.234999
0.230206
0.225613
0.221207
0.216976
0.212909
0.208999
0.205236
0.201614
0.198128
0.194774
0.191548
0.188447
0.18547
0.182616
0.179885
0.177279
0.1748
0.172453
0.170245
0.168183
0.166281
0.164554
0.163026
0.161733
0.160712
0.160012
0.159701
0.159891
0.161165
0.169926
0.180175
0.192158
0.206197
0.222712
0.242253
0.265551
0.293562
0.327552
0.369196
0.420815
0.485316
0.565392
0.662557
0.774497
0.891949
0.998938
1.08054
1.13228
1.15986
1.17319
1.17925
1.1819
1.18304
1.18352
1.18372
1.1838
0.658515
0.658453
0.658352
0.658187
0.657925
0.65751
0.65686
0.655855
0.654322
0.652023
0.648641
0.643788
0.637022
0.627901
0.616072
0.601362
0.583869
0.563985
0.542344
0.519714
0.496857
0.47443
0.452919
0.432639
0.413749
0.396301
0.380261
0.36555
0.35207
0.339701
0.328327
0.317839
0.308139
0.299139
0.290762
0.282941
0.275618
0.268744
0.262277
0.256175
0.250388
0.244882
0.239633
0.234621
0.229826
0.225233
0.220828
0.216598
0.212533
0.208624
0.204864
0.201246
0.197763
0.194413
0.191191
0.188095
0.185123
0.182275
0.17955
0.17695
0.174478
0.172138
0.169937
0.167884
0.16599
0.164272
0.162751
0.161468
0.160461
0.159779
0.159526
0.159864
0.162635
0.171695
0.182326
0.194793
0.209448
0.226759
0.247345
0.272022
0.301879
0.338359
0.383404
0.43968
0.510287
0.597789
0.702663
0.819932
0.936603
1.03518
1.10431
1.14491
1.16581
1.17579
1.18033
1.18233
1.1832
1.18358
1.18374
1.18381
0.658516
0.658456
0.658357
0.658197
0.657942
0.657537
0.656902
0.655919
0.654416
0.652159
0.648835
0.644058
0.637391
0.62839
0.616696
0.602127
0.584768
0.564986
0.5434
0.520767
0.497838
0.475295
0.453642
0.433195
0.414139
0.396535
0.380362
0.365539
0.351954
0.339491
0.328035
0.317477
0.307718
0.298669
0.29025
0.282395
0.275044
0.268147
0.261663
0.255547
0.249746
0.24423
0.238974
0.233956
0.229157
0.224561
0.220155
0.215925
0.211862
0.207956
0.204199
0.200585
0.197108
0.193764
0.190549
0.187461
0.184499
0.18166
0.178947
0.17636
0.173902
0.171578
0.169395
0.167362
0.16549
0.163796
0.1623
0.161039
0.160033
0.159314
0.158899
0.158833
0.165027
0.174636
0.185908
0.199145
0.214746
0.233231
0.255286
0.281818
0.314036
0.353519
0.402426
0.463555
0.539661
0.632594
0.741034
0.857539
0.967817
1.05651
1.11649
1.15105
1.16868
1.17707
1.18088
1.18257
1.1833
1.18362
1.18375
1.18381
0.658516
0.658458
0.658363
0.658208
0.65796
0.657566
0.656947
0.655987
0.654519
0.652308
0.649048
0.644355
0.637787
0.628902
0.617327
0.602865
0.585581
0.565821
0.544199
0.52148
0.498465
0.475802
0.454
0.433415
0.414237
0.396523
0.380239
0.365311
0.351632
0.339087
0.327559
0.316939
0.307127
0.298031
0.289573
0.281683
0.274304
0.267385
0.260882
0.254749
0.248933
0.243405
0.238139
0.233112
0.228308
0.223708
0.2193
0.215069
0.211007
0.207103
0.20335
0.199741
0.196271
0.192935
0.18973
0.186653
0.183702
0.180878
0.178181
0.175612
0.173175
0.170876
0.168722
0.166723
0.164895
0.163258
0.16184
0.160691
0.159837
0.159325
0.15925
0.159705
0.168328
0.178516
0.190506
0.204624
0.221303
0.241119
0.264831
0.293444
0.32826
0.370998
0.424024
0.490185
0.571912
0.670175
0.781851
0.897153
1.00077
1.07948
1.13002
1.15795
1.17192
1.17851
1.1815
1.18283
1.18341
1.18366
1.18377
1.18381
0.658517
0.65846
0.658368
0.658217
0.657975
0.657591
0.656986
0.656046
0.654604
0.652432
0.649222
0.644592
0.638103
0.629303
0.617806
0.6034
0.586131
0.566363
0.54471
0.521937
0.498807
0.476016
0.454098
0.433403
0.41411
0.396284
0.379901
0.364883
0.351125
0.338512
0.326926
0.316255
0.306397
0.297262
0.28877
0.280851
0.273447
0.266508
0.259989
0.25384
0.24801
0.242469
0.237193
0.232159
0.227349
0.222745
0.218334
0.214103
0.210041
0.20614
0.202391
0.198789
0.195326
0.192
0.188806
0.185742
0.182807
0.18
0.177323
0.174777
0.172367
0.170098
0.167979
0.166023
0.164246
0.162671
0.161347
0.16032
0.159637
0.159431
0.159918
0.162747
0.171992
0.182893
0.195716
0.210824
0.228695
0.24996
0.275447
0.306249
0.343788
0.389964
0.447268
0.518437
0.605439
0.708058
0.821144
0.932958
1.0284
1.09737
1.13994
1.16286
1.1742
1.17952
1.18194
1.18302
1.18349
1.18369
1.18378
1.18381
0.658517
0.658462
0.658372
0.658226
0.65799
0.657614
0.657023
0.656101
0.654687
0.65255
0.649385
0.644809
0.638376
0.629626
0.618174
0.603802
0.586549
0.56676
0.545051
0.522175
0.498929
0.476024
0.453985
0.43317
0.41377
0.395847
0.379379
0.364288
0.350469
0.337802
0.326169
0.315458
0.305565
0.296399
0.28788
0.279939
0.272517
0.265563
0.259031
0.252869
0.247027
0.241476
0.236191
0.23115
0.226335
0.221728
0.217315
0.213084
0.209025
0.205127
0.201384
0.197788
0.194335
0.19102
0.187839
0.184791
0.181873
0.179087
0.176433
0.173914
0.171534
0.169301
0.167224
0.165315
0.163592
0.162077
0.160818
0.159825
0.159131
0.158746
0.158692
0.16593
0.175877
0.187549
0.201254
0.217395
0.236503
0.259269
0.286604
0.319679
0.360027
0.409741
0.47142
0.547496
0.639409
0.74557
0.858821
0.965978
1.05294
1.11282
1.14839
1.16702
1.17613
1.18039
1.18232
1.18318
1.18355
1.18372
1.18379
1.18382
0.658518
0.658464
0.658376
0.658233
0.658003
0.657636
0.657055
0.65615
0.654756
0.652645
0.649513
0.644976
0.638587
0.629884
0.61847
0.604115
0.586852
0.567024
0.545228
0.522246
0.49889
0.475857
0.453698
0.432772
0.413273
0.395267
0.378727
0.363577
0.349708
0.336999
0.32533
0.314588
0.304668
0.29548
0.286943
0.278986
0.271551
0.264586
0.258047
0.251874
0.246022
0.240464
0.235173
0.230127
0.225309
0.2207
0.216287
0.212058
0.208001
0.204108
0.200372
0.196785
0.193342
0.190039
0.186873
0.183842
0.180945
0.178181
0.175553
0.173064
0.17072
0.168527
0.166499
0.164651
0.163006
0.161604
0.160496
0.159719
0.159347
0.159535
0.160609
0.169563
0.180114
0.192507
0.207074
0.22425
0.244607
0.268891
0.298084
0.333457
0.376661
0.429967
0.495954
0.576742
0.673018
0.781666
0.893639
0.99499
1.0734
1.12514
1.15487
1.17017
1.17758
1.18104
1.1826
1.1833
1.1836
1.18374
1.18379
1.18382
0.658518
0.658466
0.65838
0.65824
0.658015
0.657654
0.657083
0.656191
0.654815
0.652728
0.649625
0.645122
0.638769
0.630099
0.618706
0.604351
0.587058
0.567164
0.545279
0.522193
0.498709
0.475555
0.453281
0.432254
0.412668
0.394586
0.377988
0.36279
0.34888
0.336139
0.324443
0.313678
0.303741
0.294537
0.285987
0.278021
0.270579
0.263609
0.257064
0.250884
0.245027
0.239464
0.234169
0.229121
0.224301
0.219692
0.215281
0.211054
0.207002
0.203116
0.199387
0.19581
0.192379
0.18909
0.18594
0.182927
0.180051
0.177312
0.174711
0.172254
0.169945
0.167793
0.165812
0.164018
0.162435
0.161122
0.160109
0.159438
0.159244
0.159715
0.163788
0.173236
0.184387
0.197495
0.212913
0.231111
0.252709
0.278515
0.309576
0.347254
0.393351
0.450232
0.520403
0.605601
0.705598
0.815704
0.925259
1.02023
1.0905
1.13514
1.16003
1.17266
1.17873
1.18155
1.18282
1.18339
1.18364
1.18375
1.1838
1.18382
0.658519
0.658468
0.658384
0.658247
0.658025
0.65767
0.657108
0.656227
0.654867
0.6528
0.649722
0.645246
0.638921
0.630272
0.618887
0.604519
0.587189
0.567222
0.545242
0.522037
0.498433
0.47516
0.452779
0.431658
0.411992
0.393849
0.3772
0.361961
0.34802
0.335254
0.323539
0.312759
0.30281
0.293597
0.28504
0.277069
0.269624
0.262653
0.256107
0.249923
0.244062
0.238497
0.2332
0.228152
0.223333
0.218726
0.214317
0.210095
0.206049
0.20217
0.19845
0.194884
0.191466
0.188192
0.185059
0.182066
0.179212
0.176498
0.173927
0.171502
0.169231
0.167123
0.165192
0.163456
0.161939
0.160693
0.159725
0.159048
0.158723
0.158773
0.166557
0.176659
0.18849
0.202354
0.218643
0.23787
0.260698
0.288002
0.320904
0.360855
0.409838
0.470227
0.544383
0.633606
0.736628
0.847195
0.953401
1.04174
1.10451
1.14308
1.16407
1.17459
1.17961
1.18194
1.183
1.18347
1.18367
1.18376
1.1838
1.18382
0.658519
0.658469
0.658387
0.658252
0.658034
0.657685
0.65713
0.65626
0.654913
0.652863
0.649805
0.645352
0.639046
0.630411
0.619026
0.604637
0.587255
0.567212
0.545132
0.521813
0.498091
0.474706
0.452225
0.431018
0.411283
0.393084
0.376392
0.36112
0.347155
0.334371
0.322643
0.311854
0.301898
0.292682
0.284122
0.276151
0.268706
0.261737
0.25519
0.249005
0.243144
0.237578
0.232283
0.227236
0.222419
0.217815
0.213412
0.209195
0.205156
0.201286
0.197576
0.194021
0.190617
0.187358
0.184243
0.18127
0.178439
0.175751
0.173208
0.170817
0.168586
0.166525
0.164651
0.162987
0.161575
0.160466
0.159699
0.159342
0.159548
0.160631
0.169608
0.180179
0.192578
0.207118
0.224218
0.244424
0.268449
0.297215
0.331919
0.374103
0.425892
0.48969
0.56757
0.660376
0.765712
0.875862
0.97809
1.05989
1.11595
1.14942
1.16725
1.17609
1.1803
1.18225
1.18313
1.18352
1.1837
1.18377
1.1838
1.18382
0.658519
0.65847
0.658389
0.658257
0.658042
0.657698
0.657149
0.656288
0.654953
0.652918
0.649877
0.645441
0.639152
0.630525
0.619134
0.604718
0.587283
0.567164
0.544982
0.521551
0.497716
0.474224
0.451648
0.430362
0.410566
0.392319
0.375591
0.360293
0.34631
0.333513
0.321777
0.310983
0.301025
0.291807
0.283249
0.275279
0.267838
0.260873
0.254329
0.248145
0.242285
0.236721
0.231428
0.226384
0.22157
0.216971
0.212573
0.208364
0.204332
0.200471
0.196772
0.19323
0.189839
0.186597
0.183499
0.180546
0.177737
0.175074
0.17256
0.170201
0.168005
0.165985
0.164158
0.162551
0.161226
0.16021
0.15955
0.159392
0.15993
0.163156
0.172517
0.18355
0.196495
0.211686
0.229564
0.250709
0.275876
0.306045
0.342482
0.386835
0.44134
0.508353
0.589691
0.685604
0.792576
0.901585
0.999471
1.07506
1.12522
1.15445
1.16974
1.17727
1.18084
1.18249
1.18324
1.18357
1.18372
1.18378
1.18381
1.18382
0.658519
0.658471
0.658392
0.658261
0.65805
0.657709
0.657167
0.656313
0.654989
0.652966
0.64994
0.64552
0.639242
0.630619
0.619218
0.604771
0.587283
0.567085
0.544808
0.521271
0.497329
0.473739
0.451076
0.42972
0.409867
0.391578
0.374819
0.3595
0.345503
0.332698
0.320957
0.310162
0.300203
0.290988
0.282433
0.274468
0.267032
0.260073
0.253531
0.24735
0.241493
0.235932
0.230642
0.225602
0.220794
0.2162
0.211809
0.207606
0.203584
0.199732
0.196044
0.192514
0.189138
0.185911
0.182832
0.179898
0.177111
0.174473
0.171986
0.169656
0.167492
0.165506
0.163713
0.162138
0.160836
0.159818
0.159101
0.158777
0.158931
0.165171
0.175027
0.186567
0.200069
0.215895
0.234523
0.256568
0.282832
0.314352
0.352454
0.398897
0.455986
0.525999
0.610481
0.70903
0.817029
0.924353
1.01779
1.08765
1.13273
1.15845
1.17171
1.1782
1.18127
1.18268
1.18332
1.18361
1.18373
1.18379
1.18381
1.18382
0.65852
0.658472
0.658394
0.658265
0.658056
0.65772
0.657183
0.656336
0.655021
0.65301
0.649997
0.645589
0.639321
0.6307
0.619288
0.604812
0.587271
0.566999
0.544632
0.520996
0.496954
0.473271
0.450529
0.429108
0.409205
0.390879
0.374094
0.358759
0.344751
0.33194
0.320197
0.309402
0.299447
0.290235
0.281685
0.273726
0.266296
0.259343
0.252806
0.246627
0.240774
0.235217
0.229932
0.224897
0.220094
0.215507
0.211122
0.206927
0.202913
0.199071
0.195395
0.191877
0.188515
0.185304
0.182242
0.179328
0.176563
0.173949
0.17149
0.169192
0.167065
0.165121
0.163377
0.161858
0.160623
0.159671
0.159028
0.158782
0.159015
0.167214
0.177453
0.189424
0.203421
0.219829
0.239149
0.26203
0.289317
0.322096
0.361761
0.410181
0.469695
0.54247
0.629759
0.730486
0.83899
0.944267
1.03334
1.09805
1.1388
1.16161
1.17326
1.17893
1.1816
1.18283
1.18339
1.18363
1.18374
1.18379
1.18381
1.18382
0.65852
0.658473
0.658396
0.658269
0.658062
0.657729
0.657197
0.656357
0.65505
0.653049
0.650048
0.645651
0.639392
0.630774
0.619351
0.604847
0.587258
0.566917
0.544466
0.520737
0.496603
0.472836
0.450023
0.428544
0.408596
0.390238
0.373431
0.358082
0.344066
0.331252
0.319509
0.308716
0.298763
0.289557
0.281013
0.27306
0.265637
0.25869
0.252158
0.245983
0.240134
0.234582
0.229301
0.224272
0.219474
0.214893
0.210515
0.206328
0.202323
0.198491
0.194825
0.191319
0.18797
0.184774
0.181728
0.178834
0.17609
0.173501
0.171071
0.168806
0.166719
0.164823
0.163141
0.161707
0.160577
0.159775
0.159353
0.159449
0.160276
0.169219
0.179744
0.19207
0.206497
0.223423
0.243371
0.267022
0.295253
0.329198
0.370313
0.420567
0.482316
0.557599
0.647354
0.749836
0.858429
0.961464
1.0464
1.10658
1.14369
1.16413
1.17449
1.17951
1.18186
1.18295
1.18344
1.18366
1.18375
1.18379
1.18381
1.18382
0.65852
0.658474
0.658398
0.658272
0.658068
0.657737
0.65721
0.656376
0.655076
0.653085
0.650095
0.645709
0.639459
0.630843
0.619413
0.604885
0.587254
0.566854
0.544325
0.520512
0.496295
0.472451
0.449572
0.42804
0.408054
0.389667
0.372842
0.357481
0.343459
0.330642
0.3189
0.30811
0.298162
0.28896
0.280422
0.272476
0.26506
0.258119
0.251591
0.245421
0.239577
0.234029
0.228753
0.223729
0.218937
0.214362
0.20999
0.205811
0.201813
0.19799
0.194334
0.190839
0.187502
0.184319
0.181289
0.178411
0.175687
0.17312
0.170715
0.16848
0.166429
0.164579
0.162953
0.161611
0.16058
0.159888
0.159656
0.160022
0.161671
0.170905
0.181736
0.194404
0.209227
0.226622
0.247137
0.271478
0.300562
0.335565
0.378005
0.429934
0.493679
0.571195
0.663078
0.76694
0.875321
0.97608
1.05725
1.11351
1.14761
1.16613
1.17546
1.17996
1.18207
1.18304
1.18348
1.18367
1.18376
1.1838
1.18381
1.18382
0.65852
0.658475
0.658399
0.658275
0.658072
0.657745
0.657221
0.656393
0.6551
0.653118
0.650138
0.645763
0.639522
0.63091
0.619475
0.604929
0.587261
0.566806
0.544211
0.520326
0.496035
0.472124
0.449188
0.42761
0.407589
0.389178
0.372336
0.356965
0.342938
0.330121
0.318379
0.307592
0.297648
0.288452
0.279919
0.271979
0.264569
0.257635
0.251111
0.244945
0.239105
0.233562
0.228291
0.223271
0.218484
0.213915
0.209549
0.205376
0.201386
0.19757
0.193922
0.190437
0.18711
0.183938
0.18092
0.178056
0.175346
0.172795
0.170408
0.168195
0.166167
0.164342
0.162747
0.161454
0.160464
0.159822
0.159655
0.160107
0.162908
0.17235
0.183428
0.196385
0.21155
0.229355
0.250365
0.275312
0.305145
0.341079
0.384697
0.438121
0.503624
0.583068
0.676741
0.781659
0.88964
0.988237
1.0661
1.11907
1.15071
1.16771
1.17622
1.18031
1.18223
1.18311
1.18351
1.18369
1.18377
1.1838
1.18381
1.18382
0.65852
0.658475
0.6584
0.658277
0.658077
0.657752
0.657231
0.656408
0.655122
0.653148
0.650178
0.645814
0.639582
0.630976
0.619539
0.604978
0.587283
0.566785
0.544135
0.520186
0.495833
0.471863
0.448877
0.42726
0.407208
0.388776
0.371921
0.356542
0.342511
0.329693
0.317953
0.307169
0.297229
0.288037
0.27951
0.271575
0.26417
0.257241
0.25072
0.244558
0.238722
0.233182
0.227915
0.2229
0.218118
0.213553
0.209193
0.205025
0.201041
0.197231
0.19359
0.190112
0.186793
0.18363
0.180621
0.177767
0.175067
0.172527
0.170151
0.167947
0.165929
0.164112
0.162522
0.161229
0.160227
0.159555
0.159327
0.159667
0.163763
0.173432
0.184746
0.197964
0.213425
0.231579
0.253007
0.278467
0.308934
0.345658
0.390273
0.444962
0.511957
0.59302
0.688157
0.793866
0.901374
0.998044
1.07312
1.12343
1.15311
1.16892
1.1768
1.18059
1.18236
1.18317
1.18353
1.1837
1.18377
1.1838
1.18381
1.18382
0.65852
0.658476
0.658402
0.65828
0.65808
0.657757
0.65724
0.656421
0.655141
0.653174
0.650213
0.645859
0.639638
0.631039
0.619603
0.605034
0.587318
0.566787
0.544093
0.520094
0.495689
0.471672
0.448644
0.426994
0.406918
0.388469
0.371602
0.356217
0.342183
0.329365
0.317628
0.306846
0.296911
0.287724
0.2792
0.271268
0.263866
0.25694
0.250423
0.244263
0.23843
0.232894
0.22763
0.222618
0.21784
0.213279
0.208923
0.204759
0.20078
0.196975
0.19334
0.189868
0.186554
0.183398
0.180395
0.177547
0.174854
0.172319
0.169948
0.167748
0.165731
0.163913
0.162314
0.160998
0.159966
0.159238
0.158918
0.159114
0.164337
0.174199
0.18571
0.199138
0.214837
0.233268
0.25503
0.280896
0.311867
0.349219
0.394634
0.450329
0.518519
0.600868
0.69715
0.803437
0.910493
1.00558
1.07846
1.1267
1.15491
1.16983
1.17724
1.18079
1.18245
1.18321
1.18355
1.18371
1.18377
1.1838
1.18382
1.18382
0.658521
0.658476
0.658402
0.658281
0.658083
0.657762
0.657247
0.656431
0.655156
0.653195
0.650242
0.645897
0.639684
0.631093
0.61966
0.605087
0.587359
0.566804
0.544079
0.520044
0.495602
0.471549
0.448492
0.426817
0.406722
0.388259
0.371384
0.355994
0.34196
0.329142
0.317407
0.30663
0.296699
0.287515
0.278993
0.271062
0.263661
0.256737
0.250221
0.244063
0.238232
0.232698
0.227437
0.222428
0.217652
0.213094
0.208741
0.204581
0.200604
0.196804
0.193172
0.189704
0.186395
0.183242
0.180244
0.177401
0.174712
0.172181
0.169812
0.167614
0.165596
0.163774
0.162167
0.160829
0.159774
0.159008
0.158627
0.158733
0.16472
0.174716
0.186363
0.199937
0.215801
0.234424
0.256417
0.282568
0.313893
0.35169
0.397674
0.454091
0.523135
0.606406
0.703503
0.810189
0.9169
1.01084
1.08215
1.12896
1.15615
1.17045
1.17754
1.18093
1.18251
1.18324
1.18357
1.18371
1.18378
1.1838
1.18382
1.18382
0.658521
0.658476
0.658403
0.658282
0.658084
0.657764
0.657251
0.656437
0.655164
0.653208
0.650259
0.645919
0.639712
0.631126
0.619697
0.605124
0.587389
0.566823
0.544082
0.520027
0.495564
0.471493
0.448418
0.42673
0.406625
0.388156
0.371276
0.355883
0.341848
0.329031
0.317298
0.306524
0.296594
0.287412
0.278891
0.270961
0.26356
0.256636
0.25012
0.243963
0.238133
0.2326
0.22734
0.222332
0.217558
0.213001
0.20865
0.204492
0.200517
0.196719
0.193089
0.189623
0.186317
0.183167
0.180171
0.17733
0.174644
0.172115
0.169748
0.167551
0.165534
0.163711
0.162101
0.160756
0.159694
0.158917
0.15852
0.158609
0.164941
0.174997
0.186709
0.200355
0.216301
0.235022
0.257133
0.283428
0.314935
0.35296
0.399237
0.456021
0.5255
0.609237
0.706742
0.81362
0.920147
1.01351
1.08403
1.13012
1.15678
1.17076
1.17769
1.181
1.18255
1.18325
1.18357
1.18371
1.18378
1.1838
1.18382
1.18382
0.658521
0.658476
0.658403
0.658282
0.658084
0.657764
0.657251
0.656437
0.655164
0.653208
0.650259
0.64592
0.639713
0.631127
0.619697
0.605124
0.587389
0.566823
0.544082
0.520028
0.495565
0.471494
0.44842
0.426732
0.406628
0.388158
0.371278
0.355886
0.34185
0.329033
0.3173
0.306526
0.296596
0.287414
0.278893
0.270963
0.263562
0.256637
0.250122
0.243965
0.238134
0.232602
0.227342
0.222334
0.217559
0.213003
0.208651
0.204493
0.200519
0.19672
0.193091
0.189625
0.186318
0.183168
0.180173
0.177332
0.174645
0.172117
0.16975
0.167553
0.165536
0.163712
0.162102
0.160757
0.159694
0.158917
0.158521
0.158612
0.164944
0.175001
0.186713
0.20036
0.216307
0.235029
0.257141
0.283439
0.314949
0.352978
0.39926
0.45605
0.525536
0.609278
0.706785
0.813661
0.920181
1.01353
1.08405
1.13012
1.15678
1.17077
1.17769
1.181
1.18255
1.18325
1.18357
1.18371
1.18378
1.1838
1.18382
1.18382
0.658521
0.658476
0.658402
0.658281
0.658083
0.657762
0.657247
0.656431
0.655156
0.653196
0.650243
0.645898
0.639685
0.631094
0.619661
0.605089
0.58736
0.566806
0.544081
0.520047
0.495606
0.471555
0.448498
0.426824
0.406729
0.388267
0.371392
0.356002
0.341967
0.329149
0.317414
0.306636
0.296704
0.28752
0.278999
0.271068
0.263667
0.256743
0.250226
0.244069
0.238237
0.232703
0.227442
0.222432
0.217657
0.213099
0.208745
0.204585
0.200609
0.196809
0.193177
0.189709
0.1864
0.183247
0.18025
0.177406
0.174717
0.172186
0.169818
0.167619
0.165601
0.163778
0.162171
0.160833
0.159778
0.159012
0.158633
0.158741
0.164729
0.174726
0.186374
0.19995
0.215816
0.234443
0.256441
0.282598
0.313931
0.351739
0.397737
0.45417
0.52323
0.606515
0.703619
0.810302
0.916998
1.01092
1.0822
1.12899
1.15616
1.17046
1.17754
1.18093
1.18251
1.18324
1.18357
1.18371
1.18378
1.1838
1.18382
1.18382
0.658521
0.658476
0.658402
0.65828
0.65808
0.657758
0.657241
0.656421
0.655142
0.653175
0.650214
0.645861
0.639639
0.631041
0.619605
0.605036
0.58732
0.566789
0.544096
0.520098
0.495695
0.47168
0.448654
0.427005
0.40693
0.388481
0.371614
0.356229
0.342195
0.329376
0.317638
0.306857
0.296921
0.287733
0.279209
0.271277
0.263875
0.256949
0.250431
0.244272
0.238438
0.232902
0.227638
0.222626
0.217847
0.213287
0.20893
0.204767
0.200788
0.196983
0.193348
0.189876
0.186563
0.183406
0.180404
0.177555
0.174863
0.172328
0.169956
0.167756
0.165738
0.163919
0.16232
0.161004
0.159973
0.159248
0.158932
0.159131
0.164351
0.174217
0.185731
0.199162
0.214865
0.233301
0.255069
0.280946
0.311929
0.349299
0.394734
0.450457
0.518673
0.601047
0.697344
0.80363
0.910666
1.00572
1.07855
1.12676
1.15494
1.16984
1.17725
1.1808
1.18245
1.18321
1.18355
1.18371
1.18377
1.1838
1.18382
1.18382
0.65852
0.658475
0.658401
0.658278
0.658077
0.657752
0.657232
0.656408
0.655123
0.653149
0.650179
0.645816
0.639584
0.630978
0.619541
0.60498
0.587285
0.566788
0.544139
0.520191
0.495839
0.471872
0.448888
0.427273
0.407222
0.388792
0.371937
0.356558
0.342527
0.329708
0.317968
0.307183
0.297242
0.28805
0.279522
0.271587
0.264182
0.257252
0.250732
0.244569
0.238733
0.233193
0.227926
0.222911
0.218129
0.213564
0.209204
0.205036
0.201052
0.197243
0.193602
0.190124
0.186805
0.183642
0.180633
0.177779
0.175079
0.172538
0.170162
0.167957
0.165938
0.164121
0.162531
0.161239
0.160241
0.159574
0.159353
0.159692
0.163782
0.173455
0.184773
0.197994
0.213461
0.231622
0.253061
0.278533
0.309017
0.345763
0.390403
0.445124
0.512157
0.593249
0.688409
0.794123
0.901611
0.998239
1.07326
1.12352
1.15316
1.16895
1.17682
1.18059
1.18236
1.18317
1.18353
1.1837
1.18377
1.1838
1.18381
1.18382
0.65852
0.658475
0.658399
0.658275
0.658073
0.657745
0.657222
0.656393
0.655101
0.65312
0.65014
0.645765
0.639524
0.630913
0.619477
0.604931
0.587263
0.566808
0.544214
0.52033
0.496041
0.472133
0.449199
0.427624
0.407604
0.389195
0.372354
0.356984
0.342957
0.330139
0.318397
0.307609
0.297664
0.288467
0.279934
0.271994
0.264583
0.257649
0.251125
0.244959
0.239118
0.233575
0.228304
0.223284
0.218498
0.213929
0.209563
0.20539
0.2014
0.197585
0.193937
0.190452
0.187125
0.183953
0.180936
0.178071
0.175362
0.172811
0.170424
0.16821
0.166181
0.164357
0.162762
0.16147
0.160485
0.159848
0.159688
0.160137
0.162932
0.17238
0.183463
0.196426
0.211597
0.229411
0.250432
0.275395
0.305247
0.341206
0.384848
0.438315
0.503862
0.58334
0.677041
0.781969
0.889934
0.988486
1.06629
1.1192
1.15078
1.16774
1.17624
1.18032
1.18224
1.18311
1.18351
1.18369
1.18377
1.1838
1.18381
1.18382
0.65852
0.658474
0.658398
0.658272
0.658068
0.657738
0.65721
0.656376
0.655077
0.653087
0.650096
0.645711
0.639461
0.630845
0.619414
0.604886
0.587255
0.566854
0.544325
0.520514
0.496299
0.472458
0.449582
0.428053
0.408069
0.389685
0.372861
0.357501
0.34348
0.330663
0.31892
0.308129
0.29818
0.288978
0.280439
0.272493
0.265076
0.258135
0.251607
0.245437
0.239592
0.234045
0.228769
0.223745
0.218953
0.214378
0.210007
0.205828
0.201831
0.198008
0.194352
0.190857
0.187521
0.184338
0.181308
0.178431
0.175707
0.17314
0.170735
0.168501
0.16645
0.164599
0.162973
0.161632
0.160604
0.159916
0.159688
0.160049
0.161698
0.170939
0.181775
0.194448
0.209279
0.226685
0.247212
0.271569
0.300674
0.335703
0.378174
0.430157
0.493954
0.571503
0.663417
0.767294
0.875663
0.97638
1.05749
1.11367
1.1477
1.16618
1.17548
1.17997
1.18208
1.18304
1.18348
1.18367
1.18376
1.1838
1.18381
1.18382
0.65852
0.658473
0.658396
0.658269
0.658062
0.657729
0.657197
0.656358
0.655051
0.653051
0.650049
0.645653
0.639394
0.630775
0.619353
0.604848
0.587258
0.566916
0.544465
0.520737
0.496605
0.47284
0.45003
0.428554
0.40861
0.390255
0.373451
0.358103
0.344088
0.331274
0.31953
0.308737
0.298784
0.289576
0.281032
0.273079
0.265655
0.258707
0.252175
0.246001
0.240152
0.2346
0.229319
0.22429
0.219493
0.214912
0.210534
0.206348
0.202343
0.198511
0.194845
0.19134
0.187992
0.184796
0.181752
0.178858
0.176115
0.173527
0.171097
0.168833
0.166747
0.164852
0.163171
0.16174
0.160612
0.159812
0.159391
0.159482
0.160315
0.169263
0.179787
0.192117
0.206553
0.223491
0.243454
0.267122
0.295376
0.329351
0.370498
0.420809
0.4826
0.557925
0.647721
0.750224
0.858813
0.961811
1.04668
1.10678
1.14382
1.1642
1.17452
1.17952
1.18187
1.18295
1.18344
1.18366
1.18375
1.18379
1.18381
1.18382
0.65852
0.658472
0.658394
0.658265
0.658057
0.65772
0.657183
0.656337
0.655022
0.653011
0.649998
0.64559
0.639322
0.630701
0.619288
0.604811
0.587269
0.566995
0.544627
0.520991
0.496951
0.473271
0.450533
0.429116
0.409217
0.390895
0.374113
0.358779
0.344773
0.331963
0.32022
0.309425
0.299468
0.290256
0.281706
0.273746
0.266316
0.259362
0.252825
0.246647
0.240793
0.235237
0.229952
0.224917
0.220114
0.215527
0.211143
0.206949
0.202935
0.199094
0.195418
0.191901
0.188539
0.185329
0.182267
0.179355
0.176591
0.173978
0.17152
0.169223
0.167096
0.165153
0.16341
0.16189
0.160653
0.1597
0.159055
0.158809
0.159056
0.167259
0.177496
0.189469
0.203473
0.219892
0.239227
0.262131
0.289444
0.322254
0.361952
0.410428
0.469993
0.542814
0.630146
0.730899
0.839405
0.944652
1.03366
1.09829
1.13896
1.1617
1.17331
1.17895
1.18161
1.18283
1.18339
1.18363
1.18374
1.18379
1.18381
1.18382
0.658519
0.658471
0.658392
0.658261
0.65805
0.65771
0.657167
0.656314
0.65499
0.652967
0.649941
0.64552
0.639242
0.630618
0.619216
0.604767
0.587277
0.567077
0.544799
0.521263
0.497322
0.473734
0.451076
0.429724
0.409875
0.391591
0.374835
0.35952
0.345524
0.33272
0.32098
0.310185
0.300226
0.29101
0.282455
0.274489
0.267053
0.260093
0.253552
0.24737
0.241513
0.235952
0.230663
0.225623
0.220815
0.216222
0.211831
0.207629
0.203607
0.199756
0.196069
0.19254
0.189164
0.185938
0.182859
0.179926
0.17714
0.174502
0.172016
0.169687
0.167524
0.165539
0.163747
0.162172
0.160872
0.159855
0.159139
0.15882
0.158985
0.165216
0.175075
0.186622
0.200134
0.215974
0.234618
0.256682
0.28297
0.314518
0.352654
0.399148
0.456292
0.52635
0.610875
0.709454
0.817462
0.924767
1.01815
1.08793
1.13292
1.15856
1.17177
1.17823
1.18128
1.18269
1.18332
1.18361
1.18373
1.18379
1.18381
1.18382
0.658519
0.65847
0.658389
0.658257
0.658043
0.657698
0.65715
0.656289
0.654954
0.652919
0.649878
0.645442
0.639151
0.630522
0.61913
0.604711
0.587273
0.567151
0.544966
0.521536
0.497702
0.474213
0.451641
0.43036
0.410569
0.392328
0.375604
0.36031
0.346329
0.333534
0.321799
0.311006
0.301048
0.29183
0.283271
0.275301
0.26786
0.260894
0.25435
0.248166
0.242306
0.236742
0.231449
0.226406
0.221593
0.216994
0.212597
0.208387
0.204357
0.200496
0.196798
0.193256
0.189866
0.186624
0.183527
0.180575
0.177767
0.175105
0.172591
0.170233
0.168039
0.166021
0.164198
0.162594
0.161276
0.160266
0.15961
0.159452
0.159979
0.163186
0.17255
0.183587
0.196541
0.211742
0.229634
0.250798
0.275991
0.306197
0.342674
0.387078
0.44163
0.508692
0.590077
0.686025
0.793014
0.902014
0.99986
1.07538
1.12544
1.15458
1.16982
1.17731
1.18086
1.1825
1.18324
1.18357
1.18372
1.18378
1.18381
1.18382
0.658519
0.658469
0.658387
0.658252
0.658034
0.657685
0.65713
0.65626
0.654913
0.652863
0.649805
0.64535
0.639044
0.630407
0.619019
0.604626
0.587241
0.567194
0.545111
0.521791
0.49807
0.474688
0.452211
0.43101
0.411281
0.393088
0.376401
0.361134
0.347172
0.334391
0.322664
0.311876
0.301921
0.292704
0.284145
0.276173
0.268728
0.261758
0.255212
0.249027
0.243166
0.237601
0.232305
0.227259
0.222442
0.217839
0.213436
0.20922
0.205181
0.201311
0.197602
0.194048
0.190644
0.187386
0.184272
0.181299
0.178468
0.175781
0.173239
0.170848
0.168616
0.166555
0.164682
0.163018
0.161608
0.1605
0.159736
0.159379
0.159576
0.160662
0.169652
0.180228
0.192636
0.20719
0.224308
0.244533
0.26858
0.297373
0.332112
0.37434
0.426166
0.490018
0.567941
0.660782
0.76614
0.876294
0.978497
1.06024
1.1162
1.14958
1.16734
1.17614
1.18033
1.18226
1.18314
1.18353
1.1837
1.18377
1.18381
1.18382
0.658519
0.658468
0.658384
0.658247
0.658025
0.657671
0.657108
0.656228
0.654867
0.6528
0.649721
0.645244
0.638916
0.630265
0.618877
0.604505
0.587171
0.567199
0.545213
0.522004
0.498402
0.475133
0.452757
0.431641
0.411982
0.393846
0.377203
0.36197
0.348034
0.335271
0.323558
0.31278
0.302832
0.293619
0.285063
0.277091
0.269646
0.262675
0.256128
0.249945
0.244085
0.238519
0.233223
0.228175
0.223356
0.21875
0.214342
0.21012
0.206075
0.202196
0.198477
0.194911
0.191494
0.18822
0.185088
0.182096
0.179242
0.176529
0.173957
0.171532
0.169261
0.167153
0.165221
0.163485
0.161967
0.160721
0.159754
0.159079
0.158757
0.158822
0.166592
0.176696
0.188531
0.202401
0.2187
0.237942
0.260795
0.288131
0.321072
0.361065
0.410069
0.470543
0.544719
0.633982
0.73703
0.847611
0.953811
1.04211
1.1048
1.14328
1.16418
1.17464
1.17964
1.18196
1.183
1.18347
1.18367
1.18376
1.1838
1.18382
0.658518
0.658466
0.65838
0.658241
0.658015
0.657654
0.657084
0.656191
0.654815
0.652727
0.649623
0.645118
0.638763
0.630089
0.618692
0.604332
0.587035
0.567138
0.545245
0.522152
0.498668
0.475517
0.45325
0.432229
0.412651
0.394577
0.377986
0.362794
0.34889
0.336152
0.324459
0.313697
0.303761
0.294559
0.286009
0.278043
0.2706
0.263631
0.257086
0.250906
0.245049
0.239486
0.234192
0.229144
0.224324
0.219716
0.215305
0.211079
0.207028
0.203142
0.199414
0.195837
0.192407
0.189118
0.185969
0.182957
0.180082
0.177343
0.174744
0.172287
0.169979
0.167829
0.165849
0.164057
0.162476
0.161167
0.160157
0.159489
0.159294
0.15976
0.163817
0.173269
0.184427
0.197548
0.212983
0.231201
0.252818
0.278642
0.309729
0.347439
0.393574
0.450521
0.520701
0.605938
0.705961
0.816088
0.925655
1.02061
1.09082
1.13537
1.16017
1.17273
1.17877
1.18156
1.18283
1.1834
1.18364
1.18375
1.1838
1.18382
0.658518
0.658464
0.658377
0.658233
0.658003
0.657635
0.657055
0.656149
0.654755
0.652643
0.649509
0.64497
0.638577
0.629871
0.618452
0.604091
0.586822
0.566985
0.545185
0.522198
0.498838
0.475808
0.453656
0.432738
0.413248
0.39525
0.378718
0.363576
0.349713
0.337009
0.325344
0.314604
0.304687
0.2955
0.286963
0.279007
0.271572
0.264608
0.258068
0.251896
0.246045
0.240486
0.235196
0.230151
0.225332
0.220724
0.216311
0.212083
0.208027
0.204134