/*--------------------------------*- C++ -*----------------------------------*\
  =========                 |
  \\      /  F ield         | OpenFOAM: The Open Source CFD Toolbox
   \\    /   O peration     | Website:  https://openfoam.org
    \\  /    A nd           | Version:  8
     \\/     M anipulation  |
\*---------------------------------------------------------------------------*/
FoamFile
{
    version     2.0;
    format      ascii;
    class       volScalarField;
    location    "80/fluid";
    object      T;
}
// * * * * * * * * * * * * * * * * * * * * * * * * * * * * * * * * * * * * * //

dimensions      [0 0 0 1 0 0 0];

internalField   nonuniform List<scalar> 
4000
(
293.01
293.042
293.096
293.182
293.321
293.541
293.886
294.42
295.239
296.475
298.306
300.968
304.747
309.974
316.996
326.143
337.682
351.78
368.48
387.706
409.279
432.956
458.466
485.54
513.933
543.421
573.832
605.022
636.893
669.361
702.355
735.831
769.751
804.089
838.817
873.912
909.347
945.091
981.113
1017.39
1053.97
1090.86
1128.03
1165.46
1203.13
1241.01
1279.09
1317.33
1355.7
1394.17
1432.71
1471.26
1509.8
1548.26
1586.59
1624.73
1662.61
1700.14
1737.24
1773.8
1809.7
1844.77
1878.86
1911.73
1943.14
1972.74
2000.13
2024.62
2045.62
2062.37
2073.91
2078.59
2068.87
1968.56
1862.44
1751.65
1637.26
1520.26
1401.57
1282.07
1162.74
1044.66
928.947
816.75
709.538
610.136
521.475
446.685
388.255
346.915
320.857
306.269
299.023
295.643
294.131
293.474
293.193
293.075
293.025
293.004
293.01
293.041
293.093
293.178
293.312
293.525
293.859
294.377
295.17
296.366
298.142
300.727
304.403
309.501
316.372
325.354
336.728
350.675
367.256
386.406
407.955
431.661
457.247
484.435
512.956
542.607
573.214
604.631
636.724
669.404
702.617
736.312
770.449
805.003
839.945
875.251
910.891
946.836
983.051
1019.52
1056.29
1093.36
1130.7
1168.3
1206.14
1244.18
1282.41
1320.8
1359.32
1397.92
1436.59
1475.27
1513.91
1552.48
1590.91
1629.14
1667.1
1704.71
1741.87
1778.48
1814.41
1849.51
1883.61
1916.48
1947.87
1977.44
2004.8
2029.19
2050.03
2066.6
2077.34
2080.08
2051.3
1949.37
1841.5
1728.95
1612.8
1494.01
1373.51
1252.28
1131.35
1011.86
895.002
782.113
675.16
577.376
491.952
422.107
369.858
334.835
313.985
302.908
297.504
294.992
293.863
293.367
293.152
293.06
293.02
293.004
293.009
293.04
293.091
293.172
293.303
293.511
293.837
294.343
295.119
296.292
298.034
300.573
304.189
309.207
315.981
324.849
336.1
349.925
366.396
385.461
406.955
430.645
456.262
483.523
512.192
542.037
572.853
604.48
636.815
669.771
703.276
737.276
771.738
806.625
841.906
877.553
913.535
949.819
986.367
1023.17
1060.27
1097.67
1135.33
1173.25
1211.39
1249.74
1288.26
1326.93
1365.71
1404.58
1443.48
1482.39
1521.26
1560.03
1598.65
1637.05
1675.16
1712.9
1750.16
1786.85
1822.83
1857.94
1892
1924.79
1956.05
1985.44
2012.57
2036.74
2057.57
2074.56
2087.43
2095.4
2023.43
1918.3
1807.67
1692.69
1574.39
1453.8
1331.91
1209.78
1088.45
969.236
853.328
742.274
638.841
545.916
466.685
403.724
358.002
328.113
310.579
301.301
296.778
294.674
293.725
293.308
293.127
293.05
293.017
293.003
293.009
293.039
293.088
293.167
293.294
293.496
293.813
294.307
295.065
296.213
297.921
300.413
303.97
308.918
315.611
324.393
335.56
349.311
365.725
384.754
406.253
429.98
455.673
483.067
511.886
541.889
572.899
604.771
637.378
670.63
704.452
738.799
773.622
808.885
844.556
880.602
916.988
953.679
990.634
1027.85
1065.37
1103.18
1141.26
1179.58
1218.12
1256.85
1295.75
1334.78
1373.92
1413.12
1452.35
1491.56
1530.71
1569.75
1608.6
1647.22
1685.51
1723.4
1760.79
1797.55
1833.55
1868.62
1902.56
1935.13
1966.02
1994.85
2021.07
2043.8
2062.69
2077.05
2085.39
2086.34
1986.03
1878.74
1766.03
1649.22
1529.45
1407.78
1285.27
1162.99
1042.24
924.346
810.534
702.489
603.214
515.583
442.509
386.014
346.283
321.168
306.878
299.514
295.962
294.315
293.572
293.244
293.102
293.04
293.014
293.002
293.009
293.038
293.085
293.162
293.286
293.483
293.793
294.276
295.019
296.146
297.827
300.284
303.795
308.69
315.322
324.043
335.15
348.854
365.244
384.281
405.812
429.62
455.429
482.944
511.914
542.119
573.363
605.491
638.38
671.94
706.103
740.807
776.008
811.667
847.749
884.218
921.037
958.165
995.56
1033.23
1071.21
1109.48
1148.01
1186.78
1225.77
1264.94
1304.27
1343.72
1383.25
1422.84
1462.43
1501.99
1541.46
1580.79
1619.91
1658.76
1697.25
1735.29
1772.79
1809.6
1845.59
1880.57
1914.33
1946.6
1977.05
2005.23
2030.29
2051.46
2068.15
2078.41
2079.31
2049.9
1946.12
1836
1721.06
1602.55
1481.64
1359.42
1237
1115.47
996.119
880.124
769
664.669
570.148
488.233
421.487
371.293
337.031
315.962
304.222
298.256
295.39
294.062
293.463
293.198
293.082
293.032
293.011
293.002
293.008
293.036
293.083
293.158
293.278
293.471
293.774
294.247
294.977
296.086
297.742
300.167
303.641
308.492
315.08
323.758
334.834
348.525
364.926
384
405.608
429.514
455.442
483.12
512.287
542.709
574.195
606.588
639.772
673.649
708.148
743.21
778.789
814.845
851.339
888.234
925.49
963.061
1000.91
1039.04
1077.49
1116.23
1155.24
1194.48
1233.93
1273.56
1313.33
1353.21
1393.17
1433.15
1473.13
1513.04
1552.84
1592.47
1631.86
1670.93
1709.61
1747.79
1785.36
1822.19
1858.12
1892.95
1926.45
1958.34
1988.27
2015.8
2040.05
2060.8
2077.51
2090.1
2097.94
2013.15
1905.53
1792.63
1675.72
1555.95
1434.39
1312.08
1190.08
1069.63
952.019
838.33
730.052
629.787
540.145
463.865
403.124
358.679
329.22
311.598
301.996
297.198
294.907
293.849
293.371
293.159
293.066
293.026
293.009
293.002
293.008
293.035
293.08
293.154
293.272
293.46
293.757
294.222
294.941
296.034
297.67
300.07
303.514
308.333
314.889
323.541
334.605
348.303
364.734
383.875
405.571
429.596
455.68
483.541
512.912
543.563
575.299
607.968
641.446
675.638
710.471
745.886
781.837
818.281
855.18
892.491
930.172
968.175
1006.46
1045.05
1083.97
1123.18
1162.65
1202.36
1242.27
1282.35
1322.57
1362.88
1403.24
1443.62
1483.97
1524.23
1564.35
1604.26
1643.9
1683.19
1722.02
1760.31
1797.93
1834.73
1870.53
1905.13
1938.27
1969.6
1998.69
2024.83
2047.12
2065.06
2077.66
2082.58
2075.52
1972.49
1862.97
1748.52
1630.48
1510.03
1388.29
1266.37
1145.32
1026.35
910.718
799.476
694.388
598.201
513.418
442.61
387.521
348.282
322.98
308.203
300.309
296.402
294.545
293.688
293.301
293.129
293.054
293.021
293.007
293.001
293.008
293.035
293.079
293.15
293.265
293.45
293.742
294.2
294.908
295.988
297.607
299.987
303.407
308.202
314.737
323.377
334.443
348.164
364.647
383.864
405.671
429.837
456.089
484.14
513.726
544.61
576.602
609.544
643.313
677.813
712.971
748.729
785.038
821.856
859.142
896.851
934.938
973.354
1012.06
1051.09
1090.45
1130.11
1170.03
1210.19
1250.54
1291.05
1331.69
1372.41
1413.17
1453.93
1494.62
1535.21
1575.62
1615.8
1655.66
1695.12
1734.09
1772.45
1810.08
1846.81
1882.47
1916.82
1949.59
1980.42
2008.86
2033.86
2054.91
2071.53
2081.67
2082.78
2037.71
1932.95
1821.89
1706.26
1587.48
1466.74
1345.13
1223.75
1103.76
986.352
872.675
764.004
662.156
569.983
489.914
424.275
374.362
339.715
317.94
305.502
298.978
295.776
294.26
293.561
293.246
293.106
293.044
293.017
293.006
293.001
293.008
293.034
293.077
293.147
293.26
293.441
293.729
294.181
294.88
295.949
297.553
299.916
303.319
308.096
314.618
323.255
334.335
348.091
364.636
383.943
405.871
430.187
456.612
484.86
514.661
545.782
578.026
611.235
645.286
680.083
715.554
751.64
788.291
825.464
863.115
901.199
939.668
978.471
1017.57
1057.02
1096.8
1136.88
1177.22
1217.79
1258.55
1299.47
1340.5
1381.6
1422.73
1463.82
1504.84
1545.72
1586.4
1626.81
1666.86
1706.47
1745.53
1783.93
1821.52
1858.15
1893.6
1927.63
1959.95
1990.18
2017.86
2041.98
2062.44
2079.13
2090.93
2097.36
2006.07
1897.54
1784.08
1666.96
1547.35
1426.35
1305.03
1184.42
1065.63
949.882
838.088
731.94
633.323
545.035
469.446
408.616
363.381
332.74
313.929
303.39
297.948
295.293
294.04
293.464
293.203
293.088
293.037
293.014
293.005
293.001
293.008
293.033
293.075
293.144
293.255
293.434
293.718
294.164
294.856
295.915
297.507
299.856
303.245
308.01
314.525
323.166
334.266
348.066
364.68
384.086
406.14
430.608
457.209
485.653
515.669
547.019
579.507
612.973
647.295
682.376
718.144
754.539
791.511
829.015
867.007
905.44
944.262
983.423
1022.9
1062.72
1102.89
1143.35
1184.08
1225.04
1266.18
1307.47
1348.86
1390.3
1431.76
1473.16
1514.47
1555.61
1596.52
1637.12
1677.33
1717.05
1756.17
1794.58
1832.11
1868.58
1903.79
1937.45
1969.23
1998.68
2025.05
2047.43
2065.26
2077.71
2082.43
2075.26
1972.01
1862.33
1747.91
1630.15
1510.25
1389.31
1268.38
1148.58
1031.01
916.85
806.998
703.151
607.755
523.152
451.757
395.332
354.263
327.072
310.729
301.726
297.141
294.916
293.869
293.387
293.17
293.073
293.031
293.012
293.004
293.001
293.007
293.032
293.074
293.141
293.251
293.427
293.707
294.148
294.834
295.884
297.467
299.805
303.182
307.938
314.451
323.101
334.227
348.073
364.76
384.266
406.447
431.066
457.84
486.474
516.698
548.27
580.991
614.702
649.279
684.627
720.673
757.355
794.626
832.437
870.743
909.495
948.641
988.13
1027.94
1068.12
1108.64
1149.45
1190.53
1231.83
1273.32
1314.94
1356.65
1398.4
1440.15
1481.83
1523.39
1564.75
1605.86
1646.62
1686.95
1726.75
1765.91
1804.3
1841.75
1878.07
1913.04
1946.37
1977.68
2006.51
2031.71
2052.85
2069.43
2079.17
2079.47
2045.1
1940.54
1829.76
1714.53
1596.28
1476.23
1355.49
1235.12
1116.2
999.845
887.201
779.171
677.646
585.193
504.071
436.56
384.127
346.729
322.482
308.181
300.418
296.509
294.621
293.735
293.328
293.144
293.062
293.026
293.01
293.004
293.001
293.007
293.032
293.073
293.139
293.247
293.421
293.698
294.135
294.815
295.858
297.432
299.76
303.128
307.878
314.391
323.052
334.205
348.1
364.859
384.464
406.769
431.534
458.474
487.293
517.713
549.493
582.432
616.372
651.187
686.783
723.085
760.033
797.576
835.668
874.26
913.301
952.741
992.525
1032.65
1073.14
1113.97
1155.1
1196.5
1238.11
1279.89
1321.81
1363.8
1405.83
1447.83
1489.75
1531.52
1573.07
1614.34
1655.23
1695.66
1735.51
1774.68
1813.02
1850.37
1886.53
1921.28
1954.32
1985.32
2013.81
2038.74
2059.89
2077.21
2089.07
2094.27
2021.87
1914.29
1801.61
1685.22
1566.34
1446.08
1325.47
1205.55
1087.38
972.099
860.8
754.495
655.192
565.468
487.56
423.59
374.726
340.525
318.769
306.148
299.386
296.013
294.391
293.63
293.281
293.124
293.053
293.022
293.009
293.003
293.001
293.007
293.031
293.071
293.137
293.244
293.415
293.69
294.122
294.797
295.834
297.4
299.72
303.08
307.825
314.339
323.013
334.193
348.135
364.964
384.663
407.084
431.988
459.085
488.074
518.678
550.651
583.793
617.943
652.977
688.799
725.334
762.522
800.313
838.657
877.505
916.806
956.508
996.555
1036.95
1077.72
1118.84
1160.25
1201.92
1243.8
1285.85
1328.03
1370.27
1412.53
1454.75
1496.87
1538.82
1580.54
1621.93
1662.92
1703.41
1743.29
1782.43
1820.69
1857.89
1893.84
1928.28
1960.92
1991.38
2019.2
2043.23
2063.52
2079.83
2090.61
2094.6
1998.62
1889.47
1775.67
1658.55
1539.29
1418.97
1298.59
1179.17
1061.78
947.547
837.491
732.766
635.522
548.324
473.355
412.58
366.872
335.43
315.766
304.524
298.574
295.624
294.209
293.548
293.244
293.107
293.046
293.019
293.008
293.003
293
293.007
293.031
293.07
293.135
293.24
293.41
293.682
294.111
294.781
295.812
297.371
299.684
303.037
307.777
314.293
322.978
334.183
348.169
365.063
384.848
407.378
432.409
459.649
488.796
519.567
551.716
585.042
619.383
654.614
690.638
727.382
764.785
802.795
841.362
880.437
919.966
959.899
1000.18
1040.82
1081.83
1123.19
1164.85
1206.76
1248.88
1291.16
1333.55
1376.01
1418.47
1460.88
1503.17
1545.27
1587.11
1628.61
1669.67
1710.2
1750.08
1789.17
1827.32
1864.35
1900.04
1934.12
1966.24
1996
2022.72
2045.41
2063.74
2077.09
2083.32
2079.48
1976.22
1866.56
1752.28
1634.82
1515.41
1395.12
1274.98
1156.03
1039.35
926.06
817.129
713.835
618.465
533.557
461.236
403.301
360.349
331.264
313.345
303.229
297.931
295.317
294.067
293.483
293.216
293.095
293.041
293.017
293.007
293.002
293
293.007
293.031
293.069
293.133
293.238
293.406
293.675
294.101
294.767
295.792
297.345
299.65
302.996
307.733
314.249
322.942
334.169
348.193
365.145
385.009
407.636
432.781
460.15
489.436
520.357
552.664
586.153
620.662
656.067
692.27
729.197
766.787
804.988
843.75
883.02
922.748
962.879
1003.36
1044.21
1085.43
1127
1168.86
1210.98
1253.3
1295.77
1338.36
1380.99
1423.62
1466.19
1508.62
1550.84
1592.79
1634.37
1675.49
1716.04
1755.91
1794.95
1833
1869.86
1905.31
1939.04
1970.69
1999.78
2025.26
2046.62
2063.67
2074.46
2077.09
2062.71
1957.81
1847.09
1732.14
1614.29
1494.72
1374.49
1254.6
1136.08
1020.02
907.534
799.564
697.639
603.911
521.022
451.03
395.57
354.986
327.883
311.404
302.2
297.423
295.075
293.954
293.432
293.193
293.085
293.037
293.015
293.006
293.002
293
293.007
293.03
293.069
293.132
293.235
293.402
293.669
294.092
294.754
295.774
297.321
299.619
302.958
307.689
314.205
322.905
334.15
348.206
365.208
385.138
407.849
433.094
460.575
489.984
521.034
553.476
587.106
621.76
657.313
693.669
730.751
768.501
806.864
845.79
885.226
925.119
965.417
1006.07
1047.09
1088.49
1130.23
1172.27
1214.55
1257.04
1299.68
1342.42
1385.2
1427.97
1470.66
1513.2
1555.53
1597.56
1639.21
1680.38
1720.95
1760.82
1799.83
1837.82
1874.58
1909.88
1943.41
1974.79
2003.56
2028.34
2049.18
2065.6
2075.5
2076.97
2048.02
1942.29
1830.88
1715.41
1597.24
1477.51
1357.29
1237.58
1119.42
1003.88
892.032
784.804
684.017
591.732
510.593
442.601
389.245
350.645
325.178
309.865
301.39
297.024
294.885
293.866
293.392
293.175
293.077
293.033
293.014
293.006
293.002
293
293.007
293.03
293.068
293.131
293.233
293.398
293.663
294.084
294.742
295.758
297.298
299.59
302.922
307.648
314.16
322.864
334.122
348.203
365.244
385.231
408.012
433.34
460.914
490.425
521.583
554.138
587.884
622.658
658.334
694.814
732.024
769.902
808.396
847.455
887.025
927.054
967.488
1008.27
1049.44
1090.98
1132.86
1175.04
1217.46
1260.07
1302.84
1345.7
1388.6
1431.48
1474.27
1516.91
1559.32
1601.42
1643.12
1684.33
1724.93
1764.81
1803.81
1841.78
1878.51
1913.75
1947.23
1978.57
2007.31
2032.11
2053.11
2069.91
2080.59
2083.47
2038.1
1930.87
1818.44
1702.31
1583.72
1463.79
1343.52
1223.92
1106
990.838
879.513
772.903
673.021
581.906
502.196
435.845
384.211
347.219
323.061
308.67
300.764
296.717
294.739
293.799
293.361
293.161
293.071
293.031
293.013
293.005
293.002
293
293.007
293.03
293.067
293.129
293.231
293.395
293.659
294.077
294.732
295.743
297.279
299.564
302.89
307.609
314.117
322.821
334.087
348.187
365.258
385.286
408.122
433.516
461.164
490.755
521.997
554.641
588.478
623.344
659.114
695.689
732.995
770.97
809.562
848.717
888.39
928.525
969.064
1009.95
1051.23
1092.88
1134.86
1177.14
1219.67
1262.38
1305.25
1348.2
1391.19
1434.14
1477.01
1519.72
1562.18
1604.34
1646.08
1687.32
1727.95
1767.84
1806.85
1844.82
1881.56
1916.82
1950.33
1981.73
2010.6
2035.76
2057.17
2074.69
2086.58
2091.28
2031.55
1922.88
1809.48
1692.7
1573.7
1453.53
1333.18
1213.61
1095.82
980.923
869.948
763.826
664.608
574.383
495.775
430.692
380.388
344.632
321.472
307.777
300.298
296.488
294.63
293.748
293.338
293.151
293.066
293.029
293.012
293.005
293.002
293
293.007
293.029
293.067
293.129
293.23
293.393
293.655
294.071
294.724
295.732
297.263
299.543
302.862
307.575
314.079
322.782
334.052
348.162
365.253
385.31
408.184
433.623
461.323
490.971
522.273
554.978
588.878
623.808
659.642
696.281
733.651
771.689
810.342
849.564
889.305
929.514
970.128
1011.09
1052.44
1094.16
1136.22
1178.57
1221.16
1263.94
1306.87
1349.88
1392.93
1435.94
1478.85
1521.6
1564.11
1606.29
1648.06
1689.32
1729.97
1769.87
1808.89
1846.86
1883.61
1918.89
1952.44
1983.92
2012.91
2038.39
2060.11
2078.14
2090.81
2096.68
2027.2
1917.54
1803.46
1686.22
1566.93
1446.6
1326.17
1206.61
1088.91
974.165
863.409
757.585
658.813
569.191
491.337
427.13
377.747
342.85
320.379
307.165
299.979
296.332
294.556
293.714
293.323
293.144
293.063
293.027
293.011
293.005
293.002
293
293.007
293.029
293.067
293.128
293.229
293.392
293.653
294.068
294.719
295.725
297.253
299.53
302.846
307.555
314.055
322.756
334.026
348.142
365.242
385.314
408.207
433.669
461.396
491.073
522.407
555.144
589.076
624.039
659.904
696.575
733.974
772.041
810.726
849.98
889.757
930.002
970.656
1011.66
1053.04
1094.81
1136.9
1179.29
1221.91
1264.73
1307.68
1350.73
1393.8
1436.83
1479.77
1522.54
1565.06
1607.26
1649.04
1690.31
1730.96
1770.86
1809.88
1847.85
1884.59
1919.87
1953.43
1984.93
2013.97
2039.57
2061.38
2079.56
2092.43
2098.51
2024.67
1914.63
1800.27
1682.84
1563.43
1443.03
1322.58
1203.03
1085.38
970.728
860.086
754.422
655.883
566.571
489.104
425.342
376.423
341.952
319.826
306.852
299.816
296.252
294.518
293.696
293.315
293.14
293.062
293.027
293.011
293.004
293.002
293
293.007
293.029
293.067
293.128
293.229
293.392
293.653
294.068
294.719
295.725
297.253
299.53
302.845
307.554
314.055
322.756
334.026
348.142
365.242
385.314
408.207
433.669
461.395
491.071
522.404
555.141
589.073
624.035
659.901
696.571
733.971
772.038
810.722
849.977
889.754
929.999
970.652
1011.65
1053.04
1094.8
1136.9
1179.28
1221.9
1264.72
1307.68
1350.72
1393.79
1436.83
1479.76
1522.53
1565.05
1607.25
1649.03
1690.3
1730.94
1770.84
1809.86
1847.83
1884.57
1919.86
1953.41
1984.92
2013.96
2039.56
2061.38
2079.56
2092.42
2098.47
2024.64
1914.59
1800.23
1682.8
1563.39
1442.99
1322.54
1202.99
1085.34
970.68
860.037
754.375
655.839
566.533
489.074
425.32
376.409
341.945
319.823
306.851
299.815
296.251
294.518
293.696
293.315
293.14
293.062
293.027
293.011
293.004
293.002
293
293.007
293.029
293.067
293.129
293.23
293.393
293.655
294.071
294.724
295.732
297.262
299.542
302.862
307.575
314.079
322.782
334.051
348.162
365.252
385.309
408.182
433.62
461.319
490.965
522.266
554.97
588.869
623.798
659.631
696.27
733.639
771.677
810.33
849.552
889.293
929.5
970.114
1011.08
1052.42
1094.15
1136.2
1178.55
1221.14
1263.92
1306.85
1349.86
1392.9
1435.91
1478.83
1521.57
1564.08
1606.26
1648.03
1689.28
1729.92
1769.82
1808.84
1846.81
1883.55
1918.83
1952.38
1983.87
2012.86
2038.34
2060.06
2078.09
2090.74
2096.58
2027.09
1917.43
1803.35
1686.11
1566.82
1446.48
1326.05
1206.48
1088.78
974.032
863.275
757.454
658.694
569.089
491.256
427.071
377.707
342.824
320.364
307.156
299.974
296.329
294.555
293.713
293.322
293.144
293.063
293.027
293.011
293.005
293.002
293
293.007
293.03
293.067
293.129
293.231
293.395
293.659
294.077
294.732
295.743
297.278
299.563
302.889
307.608
314.117
322.821
334.087
348.187
365.257
385.285
408.12
433.512
461.157
490.746
521.987
554.628
588.463
623.329
659.097
695.672
732.978
770.953
809.544
848.699
888.371
928.505
969.044
1009.93
1051.2
1092.85
1134.84
1177.12
1219.64
1262.35
1305.21
1348.16
1391.15
1434.1
1476.97
1519.67
1562.13
1604.28
1646.02
1687.26
1727.88
1767.77
1806.78
1844.74
1881.48
1916.74
1950.25
1981.67
2010.54
2035.68
2057.08
2074.56
2086.39
2091.07
2031.37
1922.68
1809.28
1692.49
1573.5
1453.33
1332.97
1213.4
1095.61
980.705
869.734
763.61
664.412
574.214
495.639
430.589
380.316
344.586
321.444
307.761
300.29
296.484
294.628
293.747
293.338
293.151
293.066
293.029
293.012
293.005
293.002
293
293.007
293.03
293.068
293.131
293.233
293.398
293.663
294.084
294.742
295.757
297.298
299.589
302.922
307.647
314.16
322.864
334.122
348.203
365.244
385.23
408.01
433.336
460.908
490.416
521.57
554.123
587.867
622.639
658.313
694.792
732.001
769.879
808.373
847.431
887
927.028
967.461
1008.24
1049.41
1090.95
1132.83
1175
1217.42
1260.03
1302.8
1345.65
1388.55
1431.42
1474.21
1516.84
1559.24
1601.34
1643.04
1684.24
1724.84
1764.71
1803.71
1841.67
1878.4
1913.65
1947.13
1978.48
2007.21
2031.99
2052.95
2069.67
2080.27
2083.16
2037.87
1930.62
1818.19
1702.05
1583.46
1463.52
1343.25
1223.64
1105.71
990.542
879.223
772.633
672.757
581.682
502.015
435.707
384.111
347.152
323.019
308.645
300.75
296.71
294.735
293.797
293.36
293.161
293.071
293.031
293.013
293.005
293.002
293
293.007
293.03
293.069
293.132
293.235
293.402
293.669
294.092
294.753
295.774
297.32
299.618
302.958
307.689
314.204
322.905
334.15
348.207
365.208
385.139
407.849
433.092
460.57
489.976
521.022
553.461
587.087
621.738
657.289
693.643
730.725
768.474
806.836
845.761
885.197
925.089
965.387
1006.03
1047.05
1088.45
1130.19
1172.22
1214.51
1256.99
1299.62
1342.35
1385.13
1427.89
1470.58
1513.11
1555.44
1597.46
1639.1
1680.26
1720.83
1760.68
1799.69
1837.67
1874.43
1909.73
1943.26
1974.64
2003.39
2028.15
2048.94
2065.26
2075.08
2076.6
2047.74
1941.95
1830.52
1715.05
1596.87
1477.15
1356.92
1237.22
1119.05
1003.51
891.702
784.466
683.689
591.456
510.368
442.428
389.118
350.557
325.121
309.831
301.371
297.014
294.88
293.864
293.391
293.174
293.077
293.033
293.014
293.006
293.002
293
293.007
293.03
293.069
293.133
293.237
293.406
293.675
294.101
294.767
295.792
297.344
299.649
302.996
307.732
314.249
322.943
334.17
348.195
365.148
385.012
407.638
432.782
460.148
489.431
520.348
552.65
586.135
620.641
656.042
692.243
729.168
766.757
804.957
843.718
882.988
922.715
962.845
1003.32
1044.17
1085.39
1126.95
1168.81
1210.92
1253.24
1295.71
1338.29
1380.91
1423.53
1466.09
1508.51
1550.73
1592.66
1634.23
1675.34
1715.88
1755.73
1794.76
1832.8
1869.66
1905.1
1938.82
1970.47
1999.56
2025
2046.32
2063.32
2074.05
2076.74
2062.38
1957.42
1846.7
1731.75
1613.9
1494.32
1374.08
1254.19
1135.68
1019.63
907.17
799.154
697.217
603.576
520.757
450.825
395.418
354.878
327.812
311.36
302.174
297.409
295.068
293.951
293.43
293.192
293.084
293.036
293.015
293.006
293.002
293
293.007
293.031
293.07
293.135
293.24
293.41
293.682
294.111
294.781
295.812
297.371
299.683
303.036
307.777
314.293
322.979
334.185
348.172
365.068
384.854
407.384
432.414
459.651
488.794
519.561
551.706
585.027
619.363
654.59
690.612
727.353
764.754
802.763
841.329
880.403
919.931
959.862
1000.14
1040.78
1081.79
1123.14
1164.79
1206.7
1248.81
1291.08
1333.47
1375.92
1418.37
1460.77
1503.05
1545.14
1586.97
1628.45
1669.5
1710.01
1749.87
1788.94
1827.08
1864.09
1899.75
1933.81
1965.91
1995.65
2022.34
2044.97
2063.27
2076.61
2082.89
2078.98
1975.71
1866.12
1751.85
1634.37
1514.95
1394.65
1274.51
1155.57
1038.9
925.64
816.657
713.42
618.112
533.263
461.003
403.124
360.222
331.176
313.29
303.196
297.914
295.308
294.062
293.481
293.215
293.094
293.041
293.017
293.007
293.002
293
293.007
293.031
293.071
293.137
293.243
293.415
293.689
294.122
294.797
295.833
297.4
299.72
303.08
307.826
314.341
323.015
334.197
348.141
364.972
384.672
407.095
431.998
459.092
488.079
518.678
550.646
583.783
617.928
652.957
688.775
725.307
762.493
800.281
838.624
877.471
916.77
956.47
996.516
1036.91
1077.68
1118.79
1160.19
1201.85
1243.73
1285.77
1327.94
1370.17
1412.42
1454.63
1496.74
1538.68
1580.38
1621.76
1662.73
1703.2
1743.06
1782.18
1820.42
1857.6
1893.52
1927.94
1960.55
1990.99
2018.81
2042.86
2063.17
2079.5
2090.27
2094.06
1998.08
1889.02
1775.26
1658.15
1538.88
1418.53
1298.11
1178.68
1061.29
947.088
836.985
732.297
635.122
547.992
473.093
412.379
366.724
335.326
315.699
304.483
298.552
295.613
294.204
293.545
293.243
293.107
293.046
293.019
293.008
293.003
293
293.007
293.032
293.072
293.139
293.247
293.421
293.698
294.134
294.814
295.857
297.431
299.76
303.128
307.879
314.393
323.056
334.211
348.109
364.871
384.478
406.784
431.55
458.488
487.304
517.72
549.495
582.428
616.363
651.173
686.764
723.061
760.006
797.547
835.637
874.227
913.267
952.704
992.486
1032.6
1073.09
1113.92
1155.04
1196.43
1238.03
1279.81
1321.72
1363.7
1405.72
1447.71
1489.61
1531.37
1572.91
1614.16
1655.03
1695.44
1735.28
1774.42
1812.74
1850.07
1886.21
1920.93
1953.95
1984.93
2013.4
2038.3
2059.44
2076.73
2088.53
2093.56
2021.32
1913.77
1801.09
1684.67
1565.76
1445.48
1324.87
1204.96
1086.81
971.572
860.266
753.971
654.754
565.107
487.273
423.369
374.56
340.406
318.688
306.098
299.357
295.999
294.383
293.627
293.28
293.123
293.053
293.022
293.009
293.003
293.001
293.007
293.032
293.074
293.141
293.251
293.427
293.707
294.148
294.834
295.884
297.467
299.805
303.183
307.94
314.455
323.107
334.236
348.086
364.777
384.286
406.469
431.089
457.862
486.495
516.714
548.281
580.995
614.7
649.272
684.614
720.655
757.334
794.601
832.41
870.714
909.463
948.607
988.093
1027.9
1068.07
1108.58
1149.4
1190.47
1231.76
1273.23
1314.84
1356.55
1398.29
1440.02
1481.69
1523.23
1564.58
1605.67
1646.41
1686.73
1726.51
1765.65
1804.02
1841.44
1877.74
1912.67
1945.96
1977.23
2005.99
2031.09
2052.13
2068.65
2078.39
2078.84
2044.74
1940.18
1829.41
1714.16
1595.89
1475.83
1355.06
1234.65
1115.68
999.311
886.637
778.655
677.211
584.822
503.769
436.324
383.947
346.595
322.389
308.121
300.383
296.491
294.612
293.731
293.326
293.143
293.062
293.026
293.01
293.004
293.001
293.008
293.033
293.075
293.144
293.255
293.434
293.717
294.163
294.856
295.915
297.508
299.857
303.247
308.013
314.53
323.174
334.278
348.082
364.701
384.112
406.169
430.639
457.241
485.683
515.696
547.041
579.522
612.982
647.297
682.372
718.134
754.524
791.492
828.993
866.982
905.412
944.231
983.389
1022.86
1062.68
1102.84
1143.3
1184.02
1224.97
1266.1
1307.38
1348.75
1390.19
1431.63
1473.02
1514.31
1555.44
1596.33
1636.91
1677.11
1716.81
1755.92
1794.3
1831.82
1868.28
1903.47
1937.12
1968.88
1998.31
2024.65
2047
2064.8
2077.24
2082.07
2074.86
1971.5
1861.83
1747.38
1629.57
1509.63
1388.67
1267.77
1147.98
1030.41
916.251
806.48
702.691
607.371
522.839
451.51
395.141
354.117
326.966
310.658
301.683
297.117
294.904
293.863
293.385
293.169
293.073
293.03
293.012
293.004
293.001
293.008
293.034
293.077
293.147
293.26
293.441
293.729
294.181
294.881
295.95
297.555
299.918
303.322
308.101
314.625
323.266
334.349
348.111
364.663
383.978
405.91
430.228
456.655
484.902
514.7
545.816
578.053
611.255
645.298
680.089
715.553
751.633
788.279
825.448
863.095
901.176
939.641
978.44
1017.54
1056.98
1096.75
1136.82
1177.16
1217.72
1258.48
1299.38
1340.4
1381.49
1422.6
1463.69
1504.69
1545.56
1586.22
1626.6
1666.64
1706.23
1745.27
1783.66
1821.23
1857.84
1893.29
1927.31
1959.63
1989.85
2017.53
2041.62
2062.07
2078.74
2090.49
2096.71
2005.64
1897.16
1783.72
1666.6
1546.99
1425.97
1304.59
1183.91
1065.08
949.321
837.677
731.398
632.976
544.732
469.2
408.42
363.226
332.623
313.847
303.338
297.919
295.278
294.033
293.46
293.202
293.087
293.036
293.014
293.005
293.001
293.008
293.035
293.078
293.15
293.265
293.45
293.743
294.201
294.909
295.989
297.609
299.99
303.412
308.209
314.747
323.391
334.462
348.19
364.681
383.907
405.721
429.89
456.143
484.194
513.777
544.656
576.642
609.577
643.337
677.829
712.98
748.731
785.035
821.848
859.129
896.834
934.917
973.328
1012.03
1051.06
1090.41
1130.06
1169.98
1210.12
1250.46
1290.97
1331.59
1372.3
1413.05
1453.79
1494.47
1535.04
1575.44
1615.6
1655.44
1694.88
1733.83
1772.17
1809.77
1846.48
1882.12
1916.44
1949.17
1979.96
2008.36
2033.29
2054.28
2070.87
2081.03
2082.19
2037.36
1932.58
1821.49
1705.79
1586.92
1466.13
1344.52
1223.2
1103.25
985.869
872.213
763.46
661.828
569.691
489.674
424.081
374.205
339.589
317.848
305.44
298.943
295.757
294.251
293.557
293.244
293.105
293.044
293.017
293.006
293.001
293.008
293.035
293.08
293.154
293.272
293.46
293.758
294.223
294.942
296.036
297.672
300.074
303.52
308.342
314.901
323.558
334.627
348.332
364.773
383.923
405.631
429.663
455.748
483.608
512.977
543.623
575.352
608.014
641.483
675.667
710.491
745.899
781.843
818.281
855.173
892.48
930.156
968.154
1006.43
1045.02
1083.93
1123.13
1162.6
1202.3
1242.2
1282.27
1322.47
1362.77
1403.13
1443.49
1483.83
1524.07
1564.17
1604.07
1643.69
1682.96
1721.78
1760.04
1797.64
1834.42
1870.21
1904.79
1937.9
1969.2
1998.28
2024.39
2046.66
2064.61
2077.29
2082.39
2075.31
1972.17
1862.68
1748.24
1630.21
1509.77
1388.03
1266.07
1145
1026.02
910.313
799.056
694.049
597.914
513.188
442.425
387.368
348.152
322.877
308.131
300.266
296.379
294.533
293.682
293.298
293.128
293.053
293.021
293.007
293.001
293.008
293.036
293.083
293.158
293.278
293.471
293.774
294.248
294.979
296.088
297.745
300.173
303.649
308.504
315.095
323.779
334.862
348.559
364.969
384.054
405.675
429.592
455.525
483.203
512.366
542.783
574.263
606.647
639.822
673.69
708.179
743.232
778.803
814.852
851.34
888.229
925.479
963.044
1000.88
1039.01
1077.45
1116.19
1155.19
1194.42
1233.86
1273.48
1313.24
1353.11
1393.06
1433.03
1472.99
1512.89
1552.67
1592.29
1631.66
1670.72
1709.38
1747.54
1785.1
1821.91
1857.83
1892.65
1926.14
1958.02
1987.92
2015.42
2039.59
2060.23
2077.21
2089.65
2097.22
2012.86
1905.21
1792.27
1675.29
1555.44
1433.81
1311.48
1189.54
1069.14
951.528
837.866
729.669
629.513
539.936
463.702
402.985
358.554
329.114
311.518
301.943
297.169
294.893
293.842
293.368
293.158
293.066
293.026
293.009
293.002
293.009
293.038
293.085
293.162
293.286
293.483
293.794
294.277
295.021
296.15
297.832
300.291
303.805
308.704
315.341
324.068
335.183
348.895
365.294
384.343
405.886
429.705
455.523
483.042
512.009
542.208
573.444
605.563
638.441
671.991
706.143
740.838
776.03
811.68
847.755
884.217
921.03
958.152
995.54
1033.2
1071.18
1109.44
1147.96
1186.73
1225.71
1264.87
1304.18
1343.62
1383.14
1422.72
1462.3
1501.84
1541.3
1580.61
1619.72
1658.55
1697.02
1735.05
1772.52
1809.32
1845.28
1880.24
1913.98
1946.21
1976.6
2004.72
2029.68
2050.74
2067.46
2077.78
2078.86
2049.76
1946
1835.93
1721
1602.5
1481.57
1359.3
1236.78
1115.16
995.752
879.811
768.59
664.446
569.979
488.104
421.374
371.182
336.925
315.874
304.16
298.22
295.371
294.053
293.459
293.196
293.082
293.032
293.011
293.002
293.009
293.039
293.088
293.167
293.294
293.497
293.814
294.309
295.068
296.217
297.927
300.422
303.982
308.935
315.633
324.422
335.598
349.359
365.784
384.825
406.335
430.072
455.774
483.174
511.995
541.993
572.994
604.854
637.45
670.689
704.499
738.835
773.648
808.901
844.563
880.601
916.981
953.665
990.613
1027.82
1065.34
1103.14
1141.21
1179.52
1218.05
1256.78
1295.66
1334.69
1373.81
1413
1452.22
1491.42
1530.56
1569.58
1608.42
1647.02
1685.3
1723.18
1760.54
1797.29
1833.27
1868.33
1902.25
1934.81
1965.69
1994.51
2020.73
2043.46
2062.32
2076.69
2085.12
2086.04
1985.69
1878.43
1765.72
1648.87
1529.06
1407.37
1284.83
1162.59
1041.93
924.039
810.16
702.326
603.097
515.501
442.436
385.93
346.187
321.078
306.809
299.472
295.939
294.303
293.567
293.242
293.1
293.04
293.013
293.002
293.009
293.04
293.091
293.173
293.304
293.512
293.838
294.345
295.122
296.297
298.042
300.584
304.203
309.227
316.007
324.882
336.142
349.978
366.462
385.541
407.047