/*--------------------------------*- C++ -*----------------------------------*\
  =========                 |
  \\      /  F ield         | OpenFOAM: The Open Source CFD Toolbox
   \\    /   O peration     | Website:  https://openfoam.org
    \\  /    A nd           | Version:  8
     \\/     M anipulation  |
\*---------------------------------------------------------------------------*/
FoamFile
{
    version     2.0;
    format      ascii;
    class       volVectorField;
    location    "80/fluid";
    object      U;
}
// * * * * * * * * * * * * * * * * * * * * * * * * * * * * * * * * * * * * * //

dimensions      [0 1 -1 0 0 0 0];

internalField   nonuniform List<vector> 
4000
(
(0.0999332 -0.00752276 0)
(0.0995784 -0.0225074 0)
(0.0990058 -0.0375118 0)
(0.0982125 -0.0526929 0)
(0.0971827 -0.0682339 0)
(0.0958859 -0.0842543 0)
(0.0942858 -0.1008 0)
(0.092347 -0.117849 0)
(0.0900418 -0.135295 0)
(0.0873608 -0.152929 0)
(0.0843223 -0.170442 0)
(0.0809692 -0.187458 0)
(0.0773658 -0.203531 0)
(0.0735938 -0.218206 0)
(0.0697426 -0.231071 0)
(0.0658955 -0.241821 0)
(0.0621165 -0.250289 0)
(0.058443 -0.256458 0)
(0.0548852 -0.260447 0)
(0.0514335 -0.262473 0)
(0.0480692 -0.262804 0)
(0.0447789 -0.26172 0)
(0.0415627 -0.259483 0)
(0.0384211 -0.256388 0)
(0.0353521 -0.252674 0)
(0.0323545 -0.248536 0)
(0.0294298 -0.244133 0)
(0.0265802 -0.239593 0)
(0.0238079 -0.235018 0)
(0.0211148 -0.230488 0)
(0.0185012 -0.226065 0)
(0.0159659 -0.221801 0)
(0.0135066 -0.217734 0)
(0.0111194 -0.213893 0)
(0.00879921 -0.210303 0)
(0.00654078 -0.206981 0)
(0.00433754 -0.20394 0)
(0.00218307 -0.201191 0)
(7.0743e-05 -0.198741 0)
(-0.00200385 -0.196596 0)
(-0.00404616 -0.194764 0)
(-0.00606165 -0.19325 0)
(-0.00805806 -0.192058 0)
(-0.0100412 -0.191192 0)
(-0.0120188 -0.190654 0)
(-0.0139961 -0.190446 0)
(-0.0159807 -0.190569 0)
(-0.0179774 -0.191025 0)
(-0.0199935 -0.191817 0)
(-0.0220337 -0.192945 0)
(-0.024105 -0.194413 0)
(-0.0262116 -0.196225 0)
(-0.0283603 -0.198386 0)
(-0.0305552 -0.200901 0)
(-0.0328023 -0.203777 0)
(-0.0351056 -0.207022 0)
(-0.0374706 -0.210647 0)
(-0.0399006 -0.214662 0)
(-0.0424002 -0.219081 0)
(-0.0449716 -0.22392 0)
(-0.047618 -0.229195 0)
(-0.0503397 -0.234925 0)
(-0.0531376 -0.241132 0)
(-0.0560079 -0.24784 0)
(-0.058949 -0.255074 0)
(-0.0619498 -0.262862 0)
(-0.0650042 -0.271234 0)
(-0.0680863 -0.280227 0)
(-0.0711865 -0.289877 0)
(-0.0742753 -0.300227 0)
(-0.0773601 -0.311336 0)
(-0.0803561 -0.323274 0)
(-0.0830871 -0.336107 0)
(-0.0846757 -0.351709 0)
(-0.0839755 -0.366527 0)
(-0.083111 -0.38015 0)
(-0.0823427 -0.392504 0)
(-0.0815272 -0.403334 0)
(-0.0805698 -0.412207 0)
(-0.0794291 -0.41858 0)
(-0.0781486 -0.421739 0)
(-0.0766514 -0.421217 0)
(-0.0749967 -0.416222 0)
(-0.0731585 -0.406142 0)
(-0.0712049 -0.390523 0)
(-0.0692903 -0.369249 0)
(-0.0676596 -0.342679 0)
(-0.0666793 -0.312318 0)
(-0.0668867 -0.280405 0)
(-0.068715 -0.249128 0)
(-0.0721575 -0.219853 0)
(-0.0767234 -0.192778 0)
(-0.0816895 -0.167387 0)
(-0.0864113 -0.143093 0)
(-0.0904905 -0.119541 0)
(-0.093759 -0.0966051 0)
(-0.0962279 -0.0744363 0)
(-0.0980094 -0.0528899 0)
(-0.0992058 -0.0315849 0)
(-0.099896 -0.0104021 0)
(0.100008 -0.00701895 0)
(0.0998101 -0.0211117 0)
(0.0993783 -0.0352333 0)
(0.0986784 -0.0494714 0)
(0.0977033 -0.0639522 0)
(0.0964364 -0.0787492 0)
(0.0948527 -0.0938771 0)
(0.0929273 -0.109301 0)
(0.0906432 -0.124939 0)
(0.0879975 -0.140655 0)
(0.0850091 -0.15624 0)
(0.0817211 -0.171379 0)
(0.0781982 -0.185713 0)
(0.0745222 -0.198874 0)
(0.0707825 -0.210521 0)
(0.0670616 -0.220388 0)
(0.0634223 -0.228318 0)
(0.059899 -0.234278 0)
(0.0564972 -0.238349 0)
(0.0531994 -0.240704 0)
(0.0499768 -0.24158 0)
(0.0468004 -0.241246 0)
(0.0436513 -0.239962 0)
(0.0405241 -0.23791 0)
(0.0374173 -0.235267 0)
(0.0343359 -0.232191 0)
(0.0312902 -0.228818 0)
(0.0282911 -0.225261 0)
(0.0253482 -0.221613 0)
(0.0224692 -0.21795 0)
(0.0196598 -0.214332 0)
(0.0169225 -0.21081 0)
(0.0142577 -0.207422 0)
(0.0116635 -0.2042 0)
(0.00913631 -0.201171 0)
(0.00667101 -0.198355 0)
(0.00426166 -0.195768 0)
(0.00190112 -0.193423 0)
(-0.000416254 -0.19133 0)
(-0.00269562 -0.189498 0)
(-0.0049416 -0.187938 0)
(-0.00716164 -0.186658 0)
(-0.0093623 -0.185666 0)
(-0.0115516 -0.184966 0)
(-0.0137358 -0.184564 0)
(-0.0159225 -0.184463 0)
(-0.0181177 -0.184666 0)
(-0.0203291 -0.185176 0)
(-0.022562 -0.185995 0)
(-0.024824 -0.187127 0)
(-0.0271203 -0.188576 0)
(-0.0294582 -0.190346 0)
(-0.0318426 -0.192442 0)
(-0.0342806 -0.19487 0)
(-0.0367772 -0.197637 0)
(-0.0393391 -0.200752 0)
(-0.0419709 -0.204225 0)
(-0.0446791 -0.208067 0)
(-0.0474682 -0.212292 0)
(-0.0503436 -0.216916 0)
(-0.0533092 -0.221955 0)
(-0.0563695 -0.22743 0)
(-0.0595264 -0.233363 0)
(-0.0627832 -0.239777 0)
(-0.0661387 -0.246699 0)
(-0.069595 -0.254156 0)
(-0.0731413 -0.262177 0)
(-0.0767775 -0.270786 0)
(-0.0805021 -0.280009 0)
(-0.0843851 -0.289872 0)
(-0.0884155 -0.300423 0)
(-0.0919418 -0.311552 0)
(-0.0944759 -0.322869 0)
(-0.095318 -0.335251 0)
(-0.0940981 -0.347266 0)
(-0.0927771 -0.358504 0)
(-0.0916009 -0.368562 0)
(-0.0903777 -0.377 0)
(-0.0889831 -0.383305 0)
(-0.0874098 -0.386823 0)
(-0.0855548 -0.387031 0)
(-0.083413 -0.383179 0)
(-0.080932 -0.374622 0)
(-0.0780911 -0.36087 0)
(-0.0749836 -0.341802 0)
(-0.0718902 -0.317978 0)
(-0.0692439 -0.290935 0)
(-0.067658 -0.26243 0)
(-0.0677156 -0.234358 0)
(-0.0696597 -0.2083 0)
(-0.0732214 -0.184787 0)
(-0.0777606 -0.163362 0)
(-0.0825693 -0.143211 0)
(-0.0871033 -0.123695 0)
(-0.0910471 -0.104499 0)
(-0.0942578 -0.08556 0)
(-0.0967153 -0.066674 0)
(-0.0984483 -0.0477779 0)
(-0.0995036 -0.0286813 0)
(-0.0999988 -0.00945023 0)
(0.0999787 -0.00675384 0)
(0.0997138 -0.0202859 0)
(0.0991875 -0.0338267 0)
(0.0983741 -0.0474608 0)
(0.0972675 -0.061308 0)
(0.0958574 -0.0754411 0)
(0.0941315 -0.0898802 0)
(0.0920829 -0.1046 0)
(0.0897137 -0.119525 0)
(0.0870371 -0.134513 0)
(0.0840788 -0.149355 0)
(0.0808814 -0.163771 0)
(0.0775068 -0.177437 0)
(0.0740296 -0.190007 0)
(0.0705279 -0.201161 0)
(0.0670714 -0.21064 0)
(0.0637111 -0.218288 0)
(0.0604725 -0.224063 0)
(0.0573547 -0.228035 0)
(0.0543364 -0.230362 0)
(0.0513844 -0.231264 0)
(0.0484603 -0.230986 0)
(0.0455275 -0.229769 0)
(0.042563 -0.227837 0)
(0.0395604 -0.22538 0)
(0.0365242 -0.222555 0)
(0.0334657 -0.219487 0)
(0.0303997 -0.216277 0)
(0.0273416 -0.213001 0)
(0.0243053 -0.209724 0)
(0.0213019 -0.206495 0)
(0.0183398 -0.203354 0)
(0.0154245 -0.200334 0)
(0.0125587 -0.197462 0)
(0.00974246 -0.19476 0)
(0.0069739 -0.192247 0)
(0.00424905 -0.189937 0)
(0.00156334 -0.187842 0)
(-0.00108741 -0.185973 0)
(-0.00370546 -0.184339 0)
(-0.00629576 -0.182953 0)
(-0.00886437 -0.181824 0)
(-0.011419 -0.18096 0)
(-0.0139661 -0.180369 0)
(-0.0165136 -0.180053 0)
(-0.0190679 -0.18002 0)
(-0.021637 -0.180271 0)
(-0.0242274 -0.18081 0)
(-0.0268468 -0.181641 0)
(-0.0295016 -0.182768 0)
(-0.0321997 -0.184194 0)
(-0.0349473 -0.185924 0)
(-0.0377522 -0.187962 0)
(-0.0406208 -0.190315 0)
(-0.0435609 -0.19299 0)
(-0.0465789 -0.195994 0)
(-0.0496829 -0.199337 0)
(-0.0528794 -0.203028 0)
(-0.0561766 -0.207082 0)
(-0.0595815 -0.21151 0)
(-0.0631023 -0.216329 0)
(-0.0667462 -0.221555 0)
(-0.0705219 -0.227206 0)
(-0.0744364 -0.233301 0)
(-0.0785002 -0.239859 0)
(-0.0827176 -0.246896 0)
(-0.0870932 -0.254425 0)
(-0.0916255 -0.262449 0)
(-0.0963916 -0.270953 0)
(-0.101565 -0.279903 0)
(-0.106885 -0.289233 0)
(-0.109853 -0.298823 0)
(-0.11063 -0.309643 0)
(-0.109959 -0.320203 0)
(-0.108282 -0.330294 0)
(-0.106453 -0.339654 0)
(-0.10453 -0.347869 0)
(-0.102413 -0.354488 0)
(-0.100016 -0.359019 0)
(-0.0972822 -0.360931 0)
(-0.0941669 -0.359664 0)
(-0.0906271 -0.354669 0)
(-0.0866336 -0.345463 0)
(-0.0822198 -0.331746 0)
(-0.0775782 -0.313569 0)
(-0.0731251 -0.291463 0)
(-0.0694845 -0.266551 0)
(-0.0673541 -0.240514 0)
(-0.0672046 -0.215186 0)
(-0.0690509 -0.191835 0)
(-0.0724624 -0.170709 0)
(-0.0767878 -0.151271 0)
(-0.0813984 -0.132796 0)
(-0.0858283 -0.114757 0)
(-0.0898006 -0.0969097 0)
(-0.0931831 -0.0792036 0)
(-0.0959099 -0.0616573 0)
(-0.0979408 -0.0441741 0)
(-0.099265 -0.0265189 0)
(-0.0999468 -0.00873622 0)
(0.0999874 -0.00639961 0)
(0.0997313 -0.0192105 0)
(0.0992081 -0.032003 0)
(0.0983912 -0.0448477 0)
(0.0972789 -0.0578519 0)
(0.0958658 -0.0710782 0)
(0.094144 -0.0845418 0)
(0.0921087 -0.0982195 0)
(0.0897627 -0.112046 0)
(0.0871198 -0.125901 0)
(0.0842081 -0.139608 0)
(0.0810724 -0.152926 0)
(0.0777734 -0.165575 0)
(0.074383 -0.177252 0)
(0.0709759 -0.187671 0)
(0.0676186 -0.196599 0)
(0.0643589 -0.203886 0)
(0.0612201 -0.209481 0)
(0.058199 -0.213436 0)
(0.0552707 -0.215885 0)
(0.0523986 -0.217019 0)
(0.0495459 -0.217058 0)
(0.0466808 -0.216222 0)
(0.0437785 -0.214714 0)
(0.0408249 -0.212711 0)
(0.0378173 -0.210359 0)
(0.0347604 -0.207777 0)
(0.0316636 -0.205058 0)
(0.0285392 -0.202273 0)
(0.0253998 -0.199481 0)
(0.0222576 -0.196726 0)
(0.0191227 -0.194042 0)
(0.0160027 -0.191459 0)
(0.0129027 -0.188999 0)
(0.00982572 -0.186684 0)
(0.00677215 -0.184528 0)
(0.00374082 -0.182546 0)
(0.000729487 -0.180749 0)
(-0.00226235 -0.179147 0)
(-0.00523553 -0.177753 0)
(-0.00819313 -0.176578 0)
(-0.0111412 -0.175634 0)
(-0.0140855 -0.174928 0)
(-0.0170331 -0.174469 0)
(-0.0199902 -0.174262 0)
(-0.0229643 -0.174313 0)
(-0.0259622 -0.174625 0)
(-0.0289915 -0.175202 0)
(-0.0320593 -0.176049 0)
(-0.0351734 -0.177169 0)
(-0.0383408 -0.178567 0)
(-0.0415698 -0.180246 0)
(-0.0448674 -0.182211 0)
(-0.0482422 -0.184467 0)
(-0.0517014 -0.187021 0)
(-0.0552538 -0.189879 0)
(-0.058907 -0.193048 0)
(-0.0626698 -0.196539 0)
(-0.0665504 -0.20036 0)
(-0.0705574 -0.204521 0)
(-0.0746989 -0.209035 0)
(-0.0789832 -0.213913 0)
(-0.0834168 -0.219167 0)
(-0.0880067 -0.224806 0)
(-0.0927554 -0.230841 0)
(-0.0976617 -0.237274 0)
(-0.102707 -0.244099 0)
(-0.107866 -0.251297 0)
(-0.113162 -0.258834 0)
(-0.118638 -0.26664 0)
(-0.12404 -0.274555 0)
(-0.127642 -0.282329 0)
(-0.128281 -0.291828 0)
(-0.125762 -0.300864 0)
(-0.12282 -0.30928 0)
(-0.119863 -0.316852 0)
(-0.116727 -0.323243 0)
(-0.113303 -0.328055 0)
(-0.10954 -0.330842 0)
(-0.105408 -0.331119 0)
(-0.100893 -0.32838 0)
(-0.0959751 -0.322137 0)
(-0.0906722 -0.311991 0)
(-0.0851287 -0.297737 0)
(-0.079663 -0.279549 0)
(-0.0747634 -0.25811 0)
(-0.0710344 -0.234701 0)
(-0.0690383 -0.211018 0)
(-0.0690697 -0.188661 0)
(-0.0710032 -0.168491 0)
(-0.0743532 -0.150412 0)
(-0.0784883 -0.133759 0)
(-0.0828322 -0.117834 0)
(-0.0869725 -0.102178 0)
(-0.0906673 -0.086583 0)
(-0.0937955 -0.0710065 0)
(-0.0963039 -0.0554573 0)
(-0.098165 -0.0398503 0)
(-0.0993655 -0.0239776 0)
(-0.0999684 -0.00790713 0)
(0.0999825 -0.00605742 0)
(0.0997078 -0.0181707 0)
(0.0991568 -0.030251 0)
(0.0983055 -0.0423637 0)
(0.0971552 -0.0546095 0)
(0.0957038 -0.0670473 0)
(0.0939474 -0.0796924 0)
(0.0918859 -0.0925253 0)
(0.0895266 -0.105488 0)
(0.0868879 -0.118476 0)
(0.0840013 -0.131327 0)
(0.0809133 -0.143826 0)
(0.0776841 -0.155716 0)
(0.0743834 -0.166717 0)
(0.0710822 -0.176564 0)
(0.0678422 -0.185032 0)
(0.064706 -0.191976 0)
(0.0616904 -0.197343 0)
(0.0587873 -0.201172 0)
(0.0559688 -0.203585 0)
(0.0531967 -0.204761 0)
(0.0504292 -0.204903 0)
(0.047629 -0.204224 0)
(0.0447705 -0.202917 0)
(0.0418391 -0.201153 0)
(0.0388291 -0.199072 0)
(0.0357428 -0.196787 0)
(0.0325888 -0.194385 0)
(0.0293786 -0.191931 0)
(0.0261244 -0.189479 0)
(0.0228379 -0.187065 0)
(0.0195298 -0.18472 0)
(0.0162085 -0.182469 0)
(0.0128805 -0.180331 0)
(0.0095501 -0.178321 0)
(0.0062193 -0.176454 0)
(0.00288837 -0.17474 0)
(-0.00044194 -0.17319 0)
(-0.00376965 -0.171813 0)
(-0.00709388 -0.170621 0)
(-0.0104177 -0.169628 0)
(-0.0137455 -0.168842 0)
(-0.0170829 -0.168273 0)
(-0.0204355 -0.167927 0)
(-0.0238097 -0.167812 0)
(-0.027212 -0.167931 0)
(-0.0306495 -0.168289 0)
(-0.0341291 -0.168891 0)
(-0.0376584 -0.16974 0)
(-0.0412447 -0.170839 0)
(-0.044896 -0.172193 0)
(-0.0486198 -0.173805 0)
(-0.0524243 -0.175679 0)
(-0.0563173 -0.177819 0)
(-0.0603073 -0.180231 0)
(-0.0644024 -0.18292 0)
(-0.0686109 -0.185891 0)
(-0.0729413 -0.189152 0)
(-0.0774017 -0.19271 0)
(-0.0819999 -0.196573 0)
(-0.086743 -0.200749 0)
(-0.0916372 -0.205247 0)
(-0.0966865 -0.210075 0)
(-0.101893 -0.215241 0)
(-0.107253 -0.220751 0)
(-0.112752 -0.226608 0)
(-0.118359 -0.232806 0)
(-0.124068 -0.239329 0)
(-0.129893 -0.246186 0)
(-0.135758 -0.253434 0)
(-0.140681 -0.26088 0)
(-0.143438 -0.267817 0)
(-0.142991 -0.27505 0)
(-0.139438 -0.282138 0)
(-0.135459 -0.288799 0)
(-0.131395 -0.294711 0)
(-0.127101 -0.299535 0)
(-0.122471 -0.302908 0)
(-0.117476 -0.30442 0)
(-0.112106 -0.303628 0)
(-0.106367 -0.300075 0)
(-0.100275 -0.293327 0)
(-0.093886 -0.283068 0)
(-0.0874131 -0.269194 0)
(-0.0812561 -0.251971 0)
(-0.0759376 -0.232142 0)
(-0.0720519 -0.210944 0)
(-0.0700845 -0.189873 0)
(-0.0702002 -0.170171 0)
(-0.0721511 -0.152361 0)
(-0.0754005 -0.136217 0)
(-0.0793405 -0.121168 0)
(-0.0834537 -0.106683 0)
(-0.0873805 -0.0924318 0)
(-0.0909064 -0.0782677 0)
(-0.0939152 -0.0641625 0)
(-0.0963469 -0.050117 0)
(-0.0981662 -0.0360315 0)
(-0.0993535 -0.0216917 0)
(-0.0999602 -0.00715401 0)
(0.0999837 -0.00569489 0)
(0.0997068 -0.0170747 0)
(0.0991501 -0.0284091 0)
(0.0982906 -0.0397562 0)
(0.0971319 -0.0512085 0)
(0.0956745 -0.0628198 0)
(0.0939168 -0.0746031 0)
(0.0918604 -0.0865409 0)
(0.0895141 -0.0985823 0)
(0.0868968 -0.110634 0)
(0.0840401 -0.122556 0)
(0.0809895 -0.134157 0)
(0.077804 -0.14521 0)
(0.0745513 -0.155465 0)
(0.0713 -0.164682 0)
(0.0681103 -0.172657 0)
(0.0650239 -0.179248 0)
(0.0620578 -0.184398 0)
(0.0592028 -0.188134 0)
(0.0564305 -0.190558 0)
(0.0536997 -0.191827 0)
(0.050966 -0.192129 0)
(0.0481912 -0.191656 0)
(0.0453461 -0.190592 0)
(0.0424124 -0.189096 0)
(0.0393828 -0.187302 0)
(0.0362577 -0.185317 0)
(0.0330436 -0.183224 0)
(0.02975 -0.181085 0)
(0.026388 -0.178948 0)
(0.0229689 -0.176848 0)
(0.0195029 -0.174812 0)
(0.0159988 -0.172861 0)
(0.0124636 -0.171012 0)
(0.0089023 -0.169278 0)
(0.0053177 -0.167671 0)
(0.00171146 -0.166199 0)
(-0.00191312 -0.164871 0)
(-0.00555104 -0.163696 0)
(-0.00920136 -0.162688 0)
(-0.0128666 -0.161858 0)
(-0.0165508 -0.161216 0)
(-0.020258 -0.160769 0)
(-0.0239935 -0.160524 0)
(-0.0277629 -0.160487 0)
(-0.0315724 -0.160663 0)
(-0.0354282 -0.161056 0)
(-0.0393375 -0.161669 0)
(-0.0433071 -0.162507 0)
(-0.0473444 -0.163573 0)
(-0.0514569 -0.164869 0)
(-0.0556521 -0.166399 0)
(-0.0599378 -0.168165 0)
(-0.064322 -0.170172 0)
(-0.0688125 -0.172423 0)
(-0.0734172 -0.174922 0)
(-0.0781443 -0.177672 0)
(-0.0830013 -0.180679 0)
(-0.0879961 -0.183948 0)
(-0.0931352 -0.187482 0)
(-0.0984254 -0.191288 0)
(-0.103871 -0.19537 0)
(-0.109475 -0.199731 0)
(-0.115239 -0.204375 0)
(-0.121156 -0.2093 0)
(-0.127201 -0.2145 0)
(-0.133353 -0.219956 0)
(-0.139672 -0.225635 0)
(-0.146392 -0.23149 0)
(-0.152871 -0.237486 0)
(-0.155964 -0.243495 0)
(-0.155541 -0.250349 0)
(-0.152835 -0.256477 0)
(-0.148943 -0.262267 0)
(-0.14459 -0.26763 0)
(-0.139872 -0.272279 0)
(-0.134744 -0.275905 0)
(-0.129195 -0.278172 0)
(-0.123237 -0.278703 0)
(-0.1169 -0.277088 0)
(-0.110203 -0.272909 0)
(-0.103203 -0.265778 0)
(-0.0960287 -0.255427 0)
(-0.0889622 -0.241835 0)
(-0.0824529 -0.225336 0)
(-0.0770531 -0.206734 0)
(-0.0733258 -0.187269 0)
(-0.0716499 -0.168323 0)
(-0.0720389 -0.150915 0)
(-0.0741238 -0.135327 0)
(-0.0773269 -0.121206 0)
(-0.0810694 -0.107982 0)
(-0.084894 -0.0951841 0)
(-0.0885017 -0.0825449 0)
(-0.091722 -0.0699556 0)
(-0.094464 -0.0574033 0)
(-0.09668 -0.0448901 0)
(-0.0983385 -0.0323166 0)
(-0.099419 -0.0194767 0)
(-0.0999678 -0.00642592 0)
(0.0999825 -0.00533053 0)
(0.0996993 -0.0159744 0)
(0.0991326 -0.0265649 0)
(0.0982605 -0.0371551 0)
(0.0970883 -0.0478311 0)
(0.0956182 -0.0586425 0)
(0.0938502 -0.0696015 0)
(0.0917878 -0.0806926 0)
(0.0894418 -0.0918709 0)
(0.0868326 -0.103055 0)
(0.0839927 -0.114118 0)
(0.0809677 -0.124892 0)
(0.0778161 -0.135172 0)
(0.0746042 -0.144733 0)
(0.0713991 -0.153353 0)
(0.0682588 -0.160841 0)
(0.0652223 -0.167065 0)
(0.0623035 -0.171963 0)
(0.0594919 -0.175555 0)
(0.0567564 -0.177929 0)
(0.0540529 -0.179227 0)
(0.0513359 -0.179619 0)
(0.0485657 -0.179287 0)
(0.0457119 -0.178399 0)
(0.0427551 -0.177107 0)
(0.0396865 -0.175537 0)
(0.0365056 -0.173791 0)
(0.0332174 -0.171947 0)
(0.0298308 -0.170063 0)
(0.0263561 -0.168184 0)
(0.0228039 -0.166342 0)
(0.0191843 -0.164561 0)
(0.0155059 -0.16286 0)
(0.0117758 -0.161252 0)
(0.00799918 -0.159748 0)
(0.00417957 -0.158358 0)
(0.000320396 -0.157089 0)
(-0.00357266 -0.155948 0)
(-0.00749408 -0.154945 0)
(-0.0114426 -0.154093 0)
(-0.0154205 -0.153402 0)
(-0.0194306 -0.152879 0)
(-0.0234769 -0.152533 0)
(-0.0275635 -0.152369 0)
(-0.0316956 -0.152393 0)
(-0.0358787 -0.152609 0)
(-0.0401189 -0.153021 0)
(-0.0444223 -0.153632 0)
(-0.0487957 -0.154445 0)
(-0.0532457 -0.155462 0)
(-0.0577794 -0.156687 0)
(-0.0624037 -0.158122 0)
(-0.0671258 -0.159769 0)
(-0.0719528 -0.161629 0)
(-0.0768916 -0.163706 0)
(-0.0819492 -0.166002 0)
(-0.0871318 -0.16852 0)
(-0.0924457 -0.171261 0)
(-0.0978955 -0.174228 0)
(-0.103486 -0.177425 0)
(-0.109217 -0.180851 0)
(-0.115091 -0.184509 0)
(-0.1211 -0.188398 0)
(-0.127237 -0.192516 0)
(-0.133474 -0.196856 0)
(-0.139768 -0.201405 0)
(-0.146064 -0.206139 0)
(-0.152357 -0.211041 0)
(-0.158596 -0.216064 0)
(-0.164291 -0.221088 0)
(-0.167976 -0.225584 0)
(-0.167746 -0.231407 0)
(-0.163189 -0.23683 0)
(-0.158005 -0.241889 0)
(-0.152681 -0.24641 0)
(-0.147035 -0.250193 0)
(-0.140991 -0.252985 0)
(-0.134551 -0.254487 0)
(-0.127736 -0.254356 0)
(-0.120582 -0.25222 0)
(-0.113118 -0.247701 0)
(-0.105413 -0.240465 0)
(-0.0976595 -0.230307 0)
(-0.090197 -0.217279 0)
(-0.083496 -0.201788 0)
(-0.0781141 -0.184675 0)
(-0.074562 -0.167122 0)
(-0.0731118 -0.150316 0)
(-0.0736591 -0.134999 0)
(-0.0757671 -0.121251 0)
(-0.0788576 -0.108689 0)
(-0.0823925 -0.0968298 0)
(-0.0859664 -0.0853116 0)
(-0.0893207 -0.0739374 0)
(-0.0923083 -0.0626312 0)
(-0.0948509 -0.0513861 0)
(-0.0969067 -0.0401974 0)
(-0.0984477 -0.0289584 0)
(-0.0994547 -0.0174649 0)
(-0.0999683 -0.00576365 0)
(0.0999825 -0.00495904 0)
(0.099696 -0.0148549 0)
(0.0991236 -0.0246918 0)
(0.098244 -0.0345177 0)
(0.0970638 -0.044412 0)
(0.0955865 -0.05442 0)
(0.0938135 -0.0645524 0)
(0.0917495 -0.0747952 0)
(0.089406 -0.0851089 0)
(0.0868043 -0.0954214 0)
(0.0839767 -0.105622 0)
(0.0809689 -0.115562 0)
(0.0778383 -0.125058 0)
(0.0746501 -0.13391 0)
(0.0714703 -0.141917 0)
(0.0683555 -0.148905 0)
(0.0653435 -0.154748 0)
(0.0624479 -0.159384 0)
(0.059656 -0.162823 0)
(0.0569343 -0.16514 0)
(0.0542381 -0.16646 0)
(0.0515204 -0.166937 0)
(0.0487395 -0.166735 0)
(0.0458634 -0.166012 0)
(0.042872 -0.16491 0)
(0.0397554 -0.163546 0)
(0.0365119 -0.162017 0)
(0.0331459 -0.160397 0)
(0.0296653 -0.158741 0)
(0.02608 -0.15709 0)
(0.0224002 -0.155474 0)
(0.0186355 -0.153916 0)
(0.0147946 -0.152431 0)
(0.0108845 -0.151031 0)
(0.00691049 -0.149726 0)
(0.00287657 -0.148522 0)
(-0.00121186 -0.147426 0)
(-0.00534695 -0.146445 0)
(-0.00952316 -0.14559 0)
(-0.0137398 -0.144871 0)
(-0.0179984 -0.144296 0)
(-0.0223015 -0.143874 0)
(-0.026652 -0.14361 0)
(-0.0310539 -0.14351 0)
(-0.0355114 -0.143579 0)
(-0.0400297 -0.14382 0)
(-0.0446141 -0.144237 0)
(-0.0492703 -0.144832 0)
(-0.0540042 -0.145608 0)
(-0.058822 -0.146567 0)
(-0.0637298 -0.147711 0)
(-0.068734 -0.149042 0)
(-0.0738407 -0.15056 0)
(-0.0790559 -0.152268 0)
(-0.0843853 -0.154166 0)
(-0.0898344 -0.156257 0)
(-0.0954079 -0.158541 0)
(-0.101109 -0.16102 0)
(-0.106942 -0.163696 0)
(-0.112905 -0.16657 0)
(-0.119 -0.169643 0)
(-0.125218 -0.172915 0)
(-0.131554 -0.176386 0)
(-0.137989 -0.180054 0)
(-0.144492 -0.183915 0)
(-0.151014 -0.187953 0)
(-0.157562 -0.192161 0)
(-0.164191 -0.196551 0)
(-0.170666 -0.201176 0)
(-0.175266 -0.205919 0)
(-0.177002 -0.210513 0)
(-0.175227 -0.214703 0)
(-0.170251 -0.2188 0)
(-0.164579 -0.222753 0)
(-0.158638 -0.226294 0)
(-0.152315 -0.229188 0)
(-0.145577 -0.23119 0)
(-0.138447 -0.232012 0)
(-0.130966 -0.231327 0)
(-0.123179 -0.228782 0)
(-0.115128 -0.224027 0)
(-0.106907 -0.216773 0)
(-0.098756 -0.206871 0)
(-0.0910623 -0.194428 0)
(-0.0843192 -0.179909 0)
(-0.0790772 -0.164171 0)
(-0.0757888 -0.148331 0)
(-0.0746204 -0.133409 0)
(-0.0753597 -0.119936 0)
(-0.0775123 -0.107855 0)
(-0.0805029 -0.0967673 0)
(-0.0838335 -0.0862434 0)
(-0.0871504 -0.0759892 0)
(-0.0902372 -0.0658543 0)
(-0.0929741 -0.0557858 0)
(-0.0952983 -0.045783 0)
(-0.0971761 -0.0358379 0)
(-0.0985838 -0.0258426 0)
(-0.0995037 -0.0155998 0)
(-0.0999721 -0.0051504 0)
(0.099982 -0.00458381 0)
(0.0996917 -0.0137255 0)
(0.0991128 -0.0228052 0)
(0.0982249 -0.0318663 0)
(0.0970354 -0.0409816 0)
(0.095549 -0.0501926 0)
(0.093768 -0.0595088 0)
(0.0916982 -0.0689177 0)
(0.089352 -0.0783844 0)
(0.0867514 -0.0878455 0)
(0.0839292 -0.0972039 0)
(0.0809311 -0.106328 0)
(0.077814 -0.115056 0)
(0.0746425 -0.123208 0)
(0.0714814 -0.130603 0)
(0.0683859 -0.137083 0)
(0.0653923 -0.142529 0)
(0.0625122 -0.14688 0)
(0.0597315 -0.150139 0)
(0.0570153 -0.152369 0)
(0.0543174 -0.15368 0)
(0.0515889 -0.154209 0)
(0.048787 -0.154108 0)
(0.045879 -0.153521 0)
(0.0428441 -0.152579 0)
(0.0396718 -0.151392 0)
(0.0363598 -0.150052 0)
(0.032912 -0.148626 0)
(0.0293362 -0.147168 0)
(0.0256417 -0.145715 0)
(0.0218385 -0.144295 0)
(0.0179362 -0.142928 0)
(0.013943 -0.141629 0)
(0.00986615 -0.140408 0)
(0.00571085 -0.139272 0)
(0.00148194 -0.138227 0)
(-0.00281324 -0.137279 0)
(-0.00716552 -0.136434 0)
(-0.0115699 -0.135703 0)
(-0.0160258 -0.135095 0)
(-0.0205347 -0.134617 0)
(-0.0250983 -0.134276 0)
(-0.0297192 -0.134078 0)
(-0.0344006 -0.134026 0)
(-0.0391465 -0.134125 0)
(-0.0439612 -0.134378 0)
(-0.0488495 -0.134788 0)
(-0.0538165 -0.135357 0)
(-0.0588674 -0.136087 0)
(-0.0640075 -0.136979 0)
(-0.0692424 -0.138035 0)
(-0.0745773 -0.139255 0)
(-0.0800174 -0.14064 0)
(-0.0855676 -0.142192 0)
(-0.0912325 -0.14391 0)
(-0.0970161 -0.145796 0)
(-0.102921 -0.147848 0)
(-0.108951 -0.150069 0)
(-0.115104 -0.152459 0)
(-0.121381 -0.155016 0)
(-0.127775 -0.157742 0)
(-0.134279 -0.160635 0)
(-0.140879 -0.163692 0)
(-0.147552 -0.166911 0)
(-0.154242 -0.170279 0)
(-0.160917 -0.173782 0)
(-0.16762 -0.177386 0)
(-0.174461 -0.181051 0)
(-0.180847 -0.184718 0)
(-0.184625 -0.188274 0)
(-0.184407 -0.192873 0)
(-0.180268 -0.19667 0)
(-0.174851 -0.200191 0)
(-0.168976 -0.203491 0)
(-0.162675 -0.206384 0)
(-0.15592 -0.208669 0)
(-0.148726 -0.210118 0)
(-0.141133 -0.210466 0)
(-0.13319 -0.209409 0)
(-0.124949 -0.206624 0)
(-0.116478 -0.201791 0)
(-0.107906 -0.194667 0)
(-0.0995067 -0.18516 0)
(-0.0917069 -0.173433 0)
(-0.0850157 -0.159991 0)
(-0.0799663 -0.145687 0)
(-0.0769449 -0.131538 0)
(-0.0760195 -0.118381 0)
(-0.0768944 -0.106561 0)
(-0.0790459 -0.0959289 0)
(-0.0819181 -0.0861053 0)
(-0.085055 -0.0767329 0)
(-0.0881449 -0.0675825 0)
(-0.0910031 -0.0585431 0)
(-0.0935286 -0.0495788 0)
(-0.0956692 -0.0406913 0)
(-0.0973976 -0.0318678 0)
(-0.0986937 -0.0229991 0)
(-0.0995418 -0.0138952 0)
(-0.099974 -0.00459019 0)
(0.0999817 -0.00420392 0)
(0.0996881 -0.0125836 0)
(0.0991034 -0.0209001 0)
(0.0982077 -0.0291925 0)
(0.0970094 -0.0375269 0)
(0.095514 -0.0459411 0)
(0.0937246 -0.0544432 0)
(0.0916478 -0.0630219 0)
(0.0892969 -0.0716467 0)
(0.0866942 -0.080262 0)
(0.0838732 -0.088783 0)
(0.0808792 -0.0970943 0)
(0.077769 -0.105054 0)
(0.0746062 -0.112502 0)
(0.0714549 -0.119279 0)
(0.0683693 -0.125239 0)
(0.0653849 -0.130273 0)
(0.0625119 -0.134322 0)
(0.0597345 -0.137383 0)
(0.057016 -0.139506 0)
(0.0543085 -0.140789 0)
(0.0515621 -0.141353 0)
(0.048733 -0.141334 0)
(0.0457877 -0.140865 0)
(0.0427047 -0.140065 0)
(0.0394732 -0.139038 0)
(0.036091 -0.137867 0)
(0.0325616 -0.136616 0)
(0.0288925 -0.135334 0)
(0.025093 -0.134057 0)
(0.0211729 -0.132811 0)
(0.0171415 -0.131613 0)
(0.0130072 -0.130477 0)
(0.00877693 -0.129411 0)
(0.00445622 -0.128422 0)
(5.12976e-05 -0.127515 0)
(-0.00442863 -0.126693 0)
(-0.00897446 -0.125965 0)
(-0.0135818 -0.12534 0)
(-0.0182503 -0.124826 0)
(-0.0229806 -0.124428 0)
(-0.0277743 -0.124154 0)
(-0.0326333 -0.124006 0)
(-0.0375606 -0.12399 0)
(-0.0425595 -0.124107 0)
(-0.0476338 -0.124362 0)
(-0.0527876 -0.124755 0)
(-0.0580254 -0.125289 0)
(-0.0633516 -0.125965 0)
(-0.0687708 -0.126785 0)
(-0.0742875 -0.127748 0)
(-0.0799059 -0.128855 0)
(-0.0856302 -0.130107 0)
(-0.091464 -0.131504 0)
(-0.0974102 -0.133044 0)
(-0.103471 -0.13473 0)
(-0.109648 -0.136559 0)
(-0.11594 -0.138532 0)
(-0.122346 -0.140648 0)
(-0.128859 -0.142907 0)
(-0.135471 -0.145307 0)
(-0.142167 -0.14785 0)
(-0.148926 -0.150531 0)
(-0.155708 -0.153349 0)
(-0.162451 -0.156294 0)
(-0.169081 -0.159355 0)
(-0.175587 -0.162522 0)
(-0.181883 -0.165725 0)
(-0.187604 -0.168787 0)
(-0.191554 -0.171199 0)
(-0.191189 -0.175073 0)
(-0.185737 -0.178458 0)
(-0.17947 -0.181584 0)
(-0.173015 -0.184416 0)
(-0.166177 -0.186839 0)
(-0.158905 -0.188678 0)
(-0.151226 -0.189727 0)
(-0.143187 -0.189739 0)
(-0.134834 -0.18844 0)
(-0.12621 -0.185533 0)
(-0.117394 -0.180734 0)
(-0.108555 -0.173841 0)
(-0.0999964 -0.164816 0)
(-0.0921656 -0.153868 0)
(-0.085585 -0.141528 0)
(-0.080763 -0.12862 0)
(-0.0780171 -0.116057 0)
(-0.0773244 -0.104508 0)
(-0.0783209 -0.0941739 0)
(-0.0804647 -0.0848533 0)
(-0.0832227 -0.0761949 0)
(-0.0861787 -0.0679001 0)
(-0.0890593 -0.0597888 0)
(-0.0917073 -0.0517787 0)
(-0.0940387 -0.043846 0)
(-0.0960112 -0.0359942 0)
(-0.0976027 -0.0282071 0)
(-0.0987964 -0.0203766 0)
(-0.099578 -0.0123227 0)
(-0.0999763 -0.00407383 0)
(0.0999814 -0.00381994 0)
(0.0996844 -0.0114305 0)
(0.0990937 -0.0189787 0)
(0.0981899 -0.026499 0)
(0.0969822 -0.0340514 0)
(0.0954768 -0.0416695 0)
(0.0936775 -0.0493605 0)
(0.0915917 -0.0571143 0)
(0.0892335 -0.064904 0)
(0.0866257 -0.0726815 0)
(0.0838021 -0.080373 0)
(0.0808081 -0.0878783 0)
(0.0777004 -0.0950733 0)
(0.0745421 -0.101818 0)
(0.0713963 -0.107971 0)
(0.0683164 -0.1134 0)
(0.0653366 -0.118008 0)
(0.062466 -0.121736 0)
(0.0596871 -0.124577 0)
(0.0569621 -0.126573 0)
(0.0542412 -0.127805 0)
(0.0514733 -0.128383 0)
(0.0486135 -0.128427 0)
(0.0456282 -0.128056 0)
(0.0424952 -0.127381 0)
(0.0392036 -0.126495 0)
(0.0357512 -0.125475 0)
(0.0321418 -0.124381 0)
(0.0283826 -0.123258 0)
(0.0244831 -0.122139 0)
(0.0204529 -0.121047 0)
(0.0163014 -0.12 0)
(0.0120371 -0.119008 0)
(0.00766661 -0.118079 0)
(0.00319587 -0.117219 0)
(-0.00136736 -0.116431 0)
(-0.00601216 -0.115719 0)
(-0.0107298 -0.115093 0)
(-0.0155169 -0.114559 0)
(-0.0203728 -0.114124 0)
(-0.0252981 -0.113794 0)
(-0.0302937 -0.113572 0)
(-0.0353614 -0.113464 0)
(-0.0405035 -0.113472 0)
(-0.0457229 -0.113598 0)
(-0.0510229 -0.113845 0)
(-0.056407 -0.114215 0)
(-0.061879 -0.114709 0)
(-0.0674426 -0.115327 0)
(-0.0731016 -0.116071 0)
(-0.0788595 -0.11694 0)
(-0.0847197 -0.117935 0)
(-0.090685 -0.119055 0)
(-0.096758 -0.120301 0)
(-0.10294 -0.121672 0)
(-0.109233 -0.123166 0)
(-0.115636 -0.124785 0)
(-0.122146 -0.126526 0)
(-0.12876 -0.12839 0)
(-0.135471 -0.130376 0)
(-0.142269 -0.132485 0)
(-0.149138 -0.134716 0)
(-0.156056 -0.137073 0)
(-0.162975 -0.139555 0)
(-0.169836 -0.142163 0)
(-0.176599 -0.144904 0)
(-0.183248 -0.147825 0)
(-0.189548 -0.151007 0)
(-0.194216 -0.154267 0)
(-0.196409 -0.156622 0)
(-0.194729 -0.159186 0)
(-0.189043 -0.161623 0)
(-0.182513 -0.164032 0)
(-0.17573 -0.166256 0)
(-0.168558 -0.168138 0)
(-0.160953 -0.169509 0)
(-0.152946 -0.170171 0)
(-0.144589 -0.16989 0)
(-0.135936 -0.168408 0)
(-0.127026 -0.165451 0)
(-0.117954 -0.160771 0)
(-0.108928 -0.154202 0)
(-0.100282 -0.145748 0)
(-0.0924791 -0.135654 0)
(-0.0860473 -0.124459 0)
(-0.0814641 -0.112937 0)
(-0.0789788 -0.101884 0)
(-0.0784883 -0.0918156 0)
(-0.0795772 -0.0828227 0)
(-0.0816984 -0.0746797 0)
(-0.0843457 -0.0670752 0)
(-0.087139 -0.0597646 0)
(-0.0898368 -0.0526086 0)
(-0.092304 -0.0455471 0)
(-0.0944698 -0.038565 0)
(-0.0962992 -0.0316662 0)
(-0.0977746 -0.0248314 0)
(-0.098882 -0.0179555 0)
(-0.0996078 -0.0108697 0)
(-0.099978 -0.00359682 0)
(0.0999811 -0.00343173 0)
(0.0996808 -0.0102659 0)
(0.0990843 -0.0170398 0)
(0.0981724 -0.0237839 0)
(0.0969553 -0.0305517 0)
(0.0954395 -0.037373 0)
(0.0936297 -0.0442539 0)
(0.091534 -0.0511853 0)
(0.089167 -0.0581439 0)
(0.0865522 -0.0650883 0)
(0.0837236 -0.071955 0)
(0.080727 -0.0786578 0)
(0.0776185 -0.0850896 0)
(0.0744613 -0.0911289 0)
(0.0713176 -0.0966509 0)
(0.0682401 -0.10154 0)
(0.0652619 -0.105707 0)
(0.0623905 -0.109097 0)
(0.0596074 -0.1117 0)
(0.056873 -0.113549 0)
(0.0541363 -0.114712 0)
(0.0513449 -0.115286 0)
(0.0484532 -0.115375 0)
(0.0454269 -0.115088 0)
(0.042244 -0.114522 0)
(0.0388935 -0.113764 0)
(0.0353733 -0.112881 0)
(0.0316872 -0.11193 0)
(0.0278429 -0.110952 0)
(0.0238496 -0.109977 0)
(0.0197173 -0.109025 0)
(0.0154554 -0.108114 0)
(0.0110722 -0.107251 0)
(0.00657462 -0.106445 0)
(0.00196898 -0.1057 0)
(-0.00273536 -0.105018 0)
(-0.00752633 -0.104404 0)
(-0.0123959 -0.103866 0)
(-0.0173412 -0.103411 0)
(-0.0223617 -0.103044 0)
(-0.0274575 -0.10277 0)
(-0.0326293 -0.102592 0)
(-0.0378786 -0.102513 0)
(-0.0432072 -0.102537 0)
(-0.0486177 -0.102665 0)
(-0.0541128 -0.102899 0)
(-0.0596955 -0.10324 0)
(-0.0653689 -0.103689 0)
(-0.071136 -0.104247 0)
(-0.0769998 -0.104913 0)
(-0.082963 -0.105689 0)
(-0.0890279 -0.106573 0)
(-0.0951964 -0.107566 0)
(-0.10147 -0.108667 0)
(-0.107848 -0.109874 0)
(-0.114332 -0.111187 0)
(-0.120918 -0.112604 0)
(-0.127604 -0.114125 0)
(-0.134384 -0.115747 0)
(-0.141251 -0.117468 0)
(-0.148193 -0.119287 0)
(-0.1552 -0.121199 0)
(-0.162247 -0.123202 0)
(-0.169295 -0.125288 0)
(-0.176305 -0.127447 0)
(-0.183349 -0.129676 0)
(-0.19058 -0.132001 0)
(-0.197505 -0.13447 0)
(-0.200302 -0.13701 0)
(-0.199444 -0.139938 0)
(-0.196094 -0.142144 0)
(-0.190541 -0.144208 0)
(-0.184183 -0.146247 0)
(-0.177348 -0.148113 0)
(-0.170027 -0.149652 0)
(-0.162232 -0.150712 0)
(-0.154021 -0.151115 0)
(-0.145453 -0.150651 0)
(-0.13659 -0.149083 0)
(-0.127479 -0.146171 0)
(-0.118225 -0.1417 0)
(-0.109073 -0.135544 0)
(-0.100393 -0.127742 0)
(-0.0926591 -0.118562 0)
(-0.0863997 -0.108532 0)
(-0.0820586 -0.0983651 0)
(-0.0798196 -0.0887346 0)
(-0.0795098 -0.0800279 0)
(-0.0806752 -0.0722571 0)
(-0.0827704 -0.0651936 0)
(-0.0853162 -0.0585665 0)
(-0.0879654 -0.0521774 0)
(-0.0905039 -0.0459188 0)
(-0.0928146 -0.0397473 0)
(-0.0948378 -0.033654 0)
(-0.0965445 -0.0276425 0)
(-0.0979208 -0.0216919 0)