/*--------------------------------*- C++ -*----------------------------------*\
  =========                 |
  \\      /  F ield         | OpenFOAM: The Open Source CFD Toolbox
   \\    /   O peration     | Website:  https://openfoam.org
    \\  /    A nd           | Version:  8
     \\/     M anipulation  |
\*---------------------------------------------------------------------------*/
FoamFile
{
    version     2.0;
    format      ascii;
    class       volScalarField;
    location    "20000/solid";
    object      T;
}
// * * * * * * * * * * * * * * * * * * * * * * * * * * * * * * * * * * * * * //

dimensions      [0 0 0 1 0 0 0];

internalField   nonuniform List<scalar> 
1952
(
315.45
315.459
315.465
315.469
315.927
315.936
315.942
315.946
316.406
316.414
316.42
316.424
316.886
316.895
316.9
316.904
317.368
317.377
317.383
317.386
317.852
317.861
317.867
317.87
318.339
318.348
318.354
318.357
318.828
318.838
318.844
318.846
319.321
319.331
319.337
319.339
319.817
319.827
319.833
319.834
320.316
320.327
320.332
320.334
320.82
320.83
320.836
320.837
321.327
321.338
321.343
321.344
321.839
321.85
321.855
321.856
322.356
322.367
322.372
322.373
322.877
322.889
322.894
322.894
323.404
323.416
323.421
323.421
323.937
323.949
323.954
323.953
324.476
324.488
324.493
324.492
325.021
325.033
325.038
325.037
325.572
325.585
325.59
325.588
326.131
326.144
326.149
326.147
326.696
326.71
326.715
326.712
327.27
327.284
327.288
327.286
327.851
327.865
327.87
327.867
328.441
328.455
328.46
328.456
329.039
329.054
329.059
329.055
329.647
329.662
329.666
329.662
330.264
330.279
330.284
330.279
330.89
330.906
330.911
330.905
331.527
331.543
331.548
331.542
332.174
332.191
332.196
332.19
332.832
332.85
332.855
332.849
333.5
333.519
333.525
333.519
334.179
334.2
334.208
334.203
334.866
334.891
334.904
334.901
335.559
335.593
335.615
335.617
336.246
336.301
336.345
336.356
336.907
337.013
337.103
337.126
337.484
337.725
337.92
337.941
324.694
324.716
324.753
324.803
325.44
325.463
325.5
325.552
326.172
326.196
326.235
326.287
326.891
326.916
326.955
327.008
327.597
327.622
327.662
327.715
328.289
328.315
328.355
328.408
328.968
328.994
329.035
329.088
329.634
329.661
329.701
329.755
330.287
330.314
330.355
330.409
330.927
330.955
330.996
331.05
331.554
331.583
331.624
331.678
332.17
332.199
332.24
332.294
332.773
332.802
332.844
332.898
333.364
333.394
333.436
333.49
333.944
333.974
334.016
334.071
334.512
334.543
334.585
334.64
335.07
335.101
335.143
335.197
335.616
335.647
335.69
335.744
336.151
336.183
336.226
336.28
336.676
336.708
336.752
336.806
337.191
337.223
337.267
337.321
337.696
337.728
337.772
337.826
338.19
338.223
338.267
338.321
338.675
338.709
338.753
338.807
339.151
339.185
339.229
339.283
339.617
339.652
339.696
339.75
340.075
340.109
340.153
340.207
340.523
340.558
340.602
340.656
340.963
340.998
341.043
341.097
341.394
341.43
341.474
341.528
341.817
341.853
341.898
341.952
342.232
342.268
342.313
342.367
342.639
342.675
342.721
342.775
343.038
343.075
343.12
343.174
343.43
343.467
343.512
343.566
343.814
343.851
343.897
343.951
344.191
344.228
344.274
344.328
344.561
344.598
344.644
344.698
344.924
344.962
345.008
345.061
345.28
345.318
345.364
345.418
302.529
302.44
302.358
302.283
302.6
302.51
302.426
302.348
302.665
302.574
302.488
302.409
302.724
302.633
302.546
302.466
302.78
302.687
302.6
302.518
302.831
302.738
302.65
302.566
302.878
302.785
302.696
302.611
302.922
302.828
302.739
302.653
302.963
302.869
302.779
302.692
303.002
302.907
302.816
302.728
303.037
302.942
302.85
302.762
303.07
302.975
302.883
302.794
303.102
303.006
302.913
302.823
303.131
303.034
302.941
302.851
303.158
303.061
302.968
302.876
303.184
303.087
302.992
302.901
303.208
303.111
303.016
302.923
303.231
303.133
303.038
302.945
303.252
303.154
303.058
302.965
303.273
303.174
303.078
302.984
303.292
303.193
303.097
303.002
303.31
303.211
303.114
303.019
303.327
303.228
303.131
303.035
303.344
303.244
303.147
303.051
303.36
303.26
303.162
303.065
303.375
303.274
303.176
303.079
303.389
303.288
303.19
303.093
303.403
303.302
303.203
303.106
303.416
303.315
303.215
303.118
303.428
303.327
303.227
303.13
303.44
303.339
303.239
303.141
303.452
303.35
303.25
303.152
303.463
303.361
303.261
303.162
303.474
303.372
303.271
303.172
303.485
303.382
303.281
303.182
303.495
303.392
303.291
303.192
303.505
303.402
303.301
303.201
303.515
303.412
303.31
303.21
303.524
303.421
303.319
303.219
303.533
303.43
303.328
303.227
345.629
345.667
345.714
345.767
345.973
346.011
346.058
346.111
346.311
346.35
346.396
346.45
346.643
346.682
346.729
346.782
346.968
347.008
347.055
347.109
347.288
347.328
347.375
347.429
347.602
347.642
347.689
347.743
347.91
347.95
347.998
348.052
348.213
348.253
348.301
348.354
348.51
348.551
348.598
348.652
348.801
348.842
348.89
348.944
349.088
349.129
349.177
349.231
349.369
349.41
349.458
349.512
349.645
349.687
349.735
349.789
349.916
349.958
350.006
350.06
350.183
350.225
350.273
350.327
350.444
350.486
350.534
350.589
350.701
350.743
350.792
350.846
350.953
350.996
351.044
351.098
351.201
351.244
351.292
351.346
351.444
351.487
351.536
351.59
351.683
351.726
351.775
351.829
351.918
351.961
352.01
352.064
352.148
352.192
352.241
352.295
352.375
352.418
352.468
352.522
352.597
352.641
352.69
352.745
352.816
352.86
352.909
352.964
353.03
353.074
353.124
353.178
353.241
353.285
353.335
353.39
353.448
353.493
353.542
353.597
353.651
353.696
353.746
353.801
353.851
353.896
353.946
354.001
354.047
354.092
354.142
354.197
354.24
354.285
354.335
354.39
354.429
354.474
354.525
354.579
354.615
354.66
354.711
354.766
354.797
354.843
354.893
354.948
354.977
355.022
355.073
355.128
355.153
355.198
355.249
355.304
355.325
355.371
355.422
355.477
355.495
355.541
355.592
355.647
355.661
355.708
355.758
355.814
355.825
355.871
355.922
355.977
355.985
356.032
356.083
356.138
356.142
356.189
356.24
356.296
356.297
356.344
356.395
356.45
356.448
356.495
356.546
356.602
356.597
356.644
356.695
356.751
356.743
356.79
356.841
356.897
356.886
356.933
356.984
357.04
357.026
357.073
357.125
357.18
357.163
357.211
357.262
357.318
357.298
357.345
357.397
357.453
357.43
357.477
357.529
357.585
357.559
357.607
357.658
357.714
357.686
357.733
357.785
357.841
357.81
357.858
357.909
357.965
357.931
357.979
358.031
358.086
358.05
358.098
358.15
358.205
358.167
358.215
358.266
358.322
358.281
358.329
358.381
358.436
358.393
358.441
358.492
358.548
358.503
358.551
358.603
358.658
358.613
358.66
358.712
358.768
358.72
358.768
358.819
358.875
358.824
358.872
358.924
358.979
358.927
358.975
359.027
359.082
359.028
359.076
359.127
359.182
359.126
359.174
359.226
359.281
359.222
359.27
359.322
359.377
359.317
359.365
359.416
359.471
359.409
359.457
359.509
359.564
359.5
359.548
359.599
359.654
359.588
359.636
359.688
359.743
359.675
359.723
359.774
359.829
359.759
359.808
359.859
359.914
359.842
359.89
359.942
359.997
359.923
359.972
360.023
360.078
360.003
360.051
360.102
360.157
360.08
360.128
360.18
360.234
360.156
360.204
360.255
360.31
360.23
360.278
360.329
360.384
360.303
360.351
360.402
360.456
360.373
360.421
360.472
360.527
360.443
360.49
360.542
360.596
360.51
360.558
360.609
360.663
360.576
360.624
360.675
360.729
360.64
360.688
360.739
360.793
360.703
360.751
360.802
360.856
360.765
360.812
360.863
360.917
360.824
360.872
360.923
360.976
360.883
360.93
360.981
361.034
360.939
360.987
361.037
361.091
360.995
361.042
361.093
361.146
361.049
361.096
361.147
361.2
361.101
361.149
361.199
361.252
361.153
361.2
361.25
361.303
361.202
361.25
361.3
361.353
361.251
361.298
361.348
361.401
361.298
361.345
361.395
361.448
361.344
361.391
361.441
361.493
361.389
361.435
361.485
361.538
361.432
361.479
361.528
361.581
361.474
361.521
361.57
361.623
361.515
361.562
361.611
361.663
361.555
361.602
361.651
361.703
361.594
361.64
361.69
361.741
361.632
361.678
361.727
361.779
361.668
361.714
361.763
361.815
361.704
361.75
361.799
361.85
361.738
361.784
361.833
361.884
361.772
361.818
361.867
361.917
361.805
361.851
361.899
361.95
361.836
361.882
361.931
361.981
361.867
361.913
361.962
362.012
361.897
361.943
361.992
362.043
361.925
361.972
362.022
362.073
361.951
362
362.051
362.104
361.973
362.026
362.082
362.136
361.986
362.052
362.114
362.173
303.542
303.439
303.337
303.236
303.551
303.448
303.345
303.244
303.56
303.456
303.354
303.252
303.569
303.465
303.362
303.26
303.578
303.473
303.37
303.268
303.586
303.482
303.378
303.276
303.595
303.49
303.386
303.284
303.603
303.498
303.395
303.292
303.612
303.507
303.403
303.3
303.621
303.515
303.411
303.308
303.629
303.523
303.419
303.316
303.638
303.532
303.427
303.324
303.646
303.54
303.435
303.332
303.655
303.549
303.443
303.34
303.664
303.557
303.452
303.348
303.672
303.566
303.46
303.356
303.681
303.574
303.468
303.364
303.69
303.583
303.477
303.372
303.699
303.592
303.485
303.38
303.708
303.601
303.494
303.389
303.718
303.61
303.503
303.397
303.727
303.619
303.512
303.406
303.737
303.628
303.521
303.415
303.746
303.638
303.53
303.424
303.756
303.647
303.539
303.433
303.766
303.657
303.549
303.442
303.777
303.667
303.559
303.451
303.787
303.677
303.568
303.461
303.798
303.687
303.579
303.471
303.808
303.698
303.589
303.481
303.819
303.709
303.599
303.491
303.831
303.72
303.61
303.501
303.842
303.731
303.621
303.512
303.854
303.743
303.632
303.523
303.866
303.754
303.644
303.534
303.879
303.767
303.655
303.545
303.891
303.779
303.668
303.557
303.904
303.792
303.68
303.569
303.918
303.805
303.693
303.582
303.932
303.819
303.706
303.595
303.946
303.833
303.72
303.608
303.961
303.847
303.734
303.622
303.976
303.862
303.749
303.636
303.992
303.878
303.764
303.651
304.009
303.894
303.779
303.666
304.026
303.91
303.796
303.682
304.044
303.928
303.813
303.698
304.062
303.946
303.83
303.715
304.082
303.965
303.849
303.733
304.102
303.985
303.868
303.751
304.123
304.005
303.887
303.77
304.145
304.026
303.908
303.79
304.167
304.047
303.928
303.81
304.19
304.069
303.95
303.831
304.213
304.092
303.972
303.852
304.237
304.115
303.994
303.874
304.261
304.138
304.016
303.896
304.286
304.162
304.04
303.918
304.311
304.186
304.063
303.941
304.336
304.211
304.087
303.964
304.362
304.236
304.111
303.987
304.388
304.261
304.135
304.011
304.414
304.286
304.16
304.034
304.441
304.312
304.185
304.059
304.468
304.338
304.21
304.083
304.495
304.364
304.235
304.107
304.522
304.391
304.261
304.132
304.549
304.417
304.286
304.157
304.577
304.444
304.312
304.182
304.604
304.471
304.338
304.208
304.632
304.498
304.365
304.233
304.66
304.525
304.391
304.259
304.689
304.552
304.418
304.285
304.717
304.58
304.445
304.311
304.746
304.608
304.472
304.337
304.774
304.636
304.499
304.363
304.803
304.664
304.526
304.39
304.833
304.693
304.554
304.417
304.862
304.722
304.582
304.444
304.892
304.751
304.61
304.472
304.922
304.78
304.639
304.499
304.953
304.81
304.668
304.528
304.984
304.84
304.698
304.556
305.015
304.871
304.727
304.585
305.047
304.902
304.758
304.615
305.08
304.934
304.789
304.645
305.113
304.966
304.82
304.675
305.147
304.999
304.852
304.707
305.182
305.033
304.885
304.739
305.217
305.068
304.919
304.771
305.253
305.103
304.954
304.805
305.291
305.14
304.989
304.84
305.329
305.177
305.026
304.875
305.369
305.216
305.064
304.912
305.41
305.256
305.102
304.95
305.452
305.297
305.143
304.989
305.496
305.34
305.184
305.029
305.541
305.384
305.227
305.07
305.587
305.429
305.271
305.114
305.636
305.476
305.317
305.158
305.686
305.525
305.365
305.204
305.738
305.576
305.414
305.252
305.792
305.628
305.464
305.301
305.847
305.682
305.517
305.352
305.905
305.738
305.571
305.405
305.964
305.796
305.628
305.46
306.026
305.856
305.686
305.516
306.09
305.918
305.746
305.574
306.155
305.981
305.808
305.634
306.223
306.047
305.871
305.696
306.293
306.115
305.937
305.76
306.365
306.184
306.005
305.825
306.438
306.256
306.074
305.892
306.514
306.329
306.145
305.961
306.592
306.404
306.217
306.031
306.671
306.481
306.292
306.103
306.752
306.559
306.367
306.176
306.835
306.639
306.445
306.251
306.919
306.72
306.523
306.327
307.004
306.802
306.602
306.403
307.09
306.885
306.682
306.481
307.177
306.969
306.763
306.559
307.264
307.053
306.844
306.637
307.352
307.137
306.925
306.716
307.439
307.221
307.006
306.794
307.526
307.304
307.086
306.871
307.613
307.387
307.165
306.948
307.698
307.468
307.243
307.023
307.781
307.548
307.319
307.096
307.862
307.625
307.393
307.167
307.94
307.699
307.464
307.235
308.014
307.77
307.532
307.3
308.085
307.836
307.595
307.361
308.151
307.898
307.654
307.418
308.211
307.954
307.707
307.469
308.265
308.005
307.754
307.514
308.311
308.048
307.795
307.552
308.35
308.083
307.828
307.584
308.38
308.11
307.853
307.607
308.4
308.128
307.868
307.622
308.41
308.135
307.874
307.627
308.408
308.132
307.87
307.622
308.395
308.117
307.855
307.607
308.368
308.09
307.828
307.58
308.329
308.051
307.789
307.542
308.275
307.998
307.737
307.492
308.207
307.932
307.674
307.43
308.125
307.853
307.597
307.357
308.029
307.761
307.509
307.272
307.918
307.656
307.409
307.176
307.795
307.54
307.298
307.069
307.659
307.412
307.178
306.954
307.512
307.276
307.05
306.832
307.357
307.133
306.916
306.704
307.195
306.985
306.778
306.574
307.033
306.838
306.641
306.443
306.876
306.695
306.507
306.315
306.732
306.56
306.379
306.191
306.604
306.438
306.259
306.074
306.505
306.332
306.146
305.96
326.025
326.04
326.074
326.125
325.381
325.396
325.428
325.477
324.705
324.719
324.75
324.796
323.997
324.01
324.04
324.085
326.193
326.276
326.375
326.49
325.541
325.621
325.716
325.826
324.858
324.935
325.027
325.133
324.145
324.219
324.307
324.41
326.62
326.765
326.924
327.098
327.286
327.485
327.697
327.92
328.152
328.392
328.64
328.895
329.157
329.424
329.689
329.944
330.185
330.404
330.596
330.753
330.869
330.934
330.936
330.863
330.727
330.54
330.305
330.029
329.713
329.362
328.978
328.564
325.951
326.09
326.244
326.41
326.589
326.78
326.983
327.195
327.416
327.645
327.88
328.12
328.365
328.61
328.85
329.081
329.296
329.489
329.655
329.787
329.878
329.922
329.911
329.841
329.715
329.54
329.319
329.057
328.756
328.421
328.054
327.657
325.253
325.387
325.534
325.694
325.866
326.05
326.244
326.447
326.659
326.877
327.101
327.33
327.56
327.788
328.011
328.224
328.42
328.595
328.742
328.857
328.933
328.964
328.946
328.877
328.757
328.591
328.381
328.13
327.843
327.521
327.169
326.788
324.526
324.655
324.798
324.952
325.118
325.295
325.482
325.678
325.881
326.092
326.307
326.526
326.745
326.962
327.173
327.374
327.558
327.721
327.858
327.962
328.03
328.055
328.035
327.966
327.851
327.691
327.489
327.249
326.972
326.662
326.322
325.954
328.122
327.656
327.167
326.658
327.234
326.787
326.317
325.829
326.381
325.95
325.499
325.028
325.561
325.146
324.709
324.255
326.132
325.59
325.035
324.47
323.896
323.316
322.731
322.144
321.555
320.967
320.381
319.798
319.219
318.646
318.078
317.517
316.964
316.419
315.883
315.355
314.837
314.328
313.828
313.338
312.857
312.385
311.922
311.468
311.023
310.585
310.156
309.735
309.322
308.919
308.527
308.148
307.78
307.426
307.087
306.766
325.323
324.802
324.269
323.725
323.173
322.615
322.052
321.486
320.918
320.351
319.786
319.223
318.663
318.109
317.56
317.018
316.483
315.955
315.435
314.924
314.422
313.928
313.443
312.967
312.5
312.042
311.593
311.152
310.719
310.295
309.879
309.472
309.074
308.685
308.308
307.944
307.592
307.255
306.934
306.635
324.541
324.039
323.525
323.001
322.469
321.93
321.386
320.84
320.292
319.744
319.198
318.653
318.113
317.577
317.046
316.521
316.002
315.491
314.988
314.492
314.005
313.526
313.056
312.595
312.141
311.697
311.261
310.833
310.413
310.002
309.599
309.205
308.82
308.446
308.082
307.731
307.393
307.07
306.765
306.48
323.784
323.3
322.803
322.296
321.782
321.261
320.735
320.207
319.676
319.146
318.617
318.091
317.567
317.048
316.534
316.025
315.523
315.028
314.54
314.06
313.588
313.124
312.668
312.22
311.781
311.35
310.927
310.512
310.105
309.706
309.316
308.935
308.562
308.2
307.848
307.509
307.183
306.872
306.579
306.305
306.467
306.239
306.036
305.845
306.361
306.124
305.914
305.723
306.22
305.986
305.777
305.587
306.054
305.827
305.621
305.436
)
;

boundaryField
{
    external
    {
        type            externalWallHeatFluxTemperature;
        mode            coefficient;
        h               uniform 1000;
        Ta              uniform 300;
        qr              none;
        refValue        uniform 300;
        refGradient     uniform 0;
        valueFraction   nonuniform List<scalar> 
304
(
0.0153846
0.0153846
0.0153846
0.0153846
0.0153846
0.0153846
0.0153846
0.0153846
0.0153846
0.0153846
0.0153846
0.0153846
0.0153558
0.0153558
0.0153558
0.0153558
0.0153558
0.0153558
0.0153558
0.0153558
0.0153558
0.0153558
0.0153558
0.0153558
0.0153558
0.0153558
0.0153558
0.0153558
0.0153558
0.0153558
0.0153558
0.0153558
0.0153558
0.0153558
0.0153558
0.0153558
0.0153558
0.0153558
0.0153558
0.0153558
0.0153558
0.0153558
0.0153558
0.0153558
0.0153558
0.0153558
0.0153558
0.0153558
0.0153558
0.0153558
0.0153558
0.0153558
0.0153558
0.0153558
0.0153558
0.0153558
0.0153558
0.0153558
0.0153558
0.0153558
0.0153558
0.0153558
0.0153558
0.0153558
0.0153558
0.0153558
0.0153558
0.0153558
0.0153558
0.0153558
0.0153558
0.0153558
0.0153558
0.0153558
0.0153558
0.0153558
0.0153558
0.0153558
0.0153558
0.0153558
0.0153558
0.0153558
0.0153558
0.0153558
0.0153558
0.0153558
0.0153558
0.0153558
0.0153558
0.0153558
0.0153558
0.0153558
0.0153558
0.0153558
0.0153558
0.0153558
0.0153558
0.0153558
0.0153558
0.0153558
0.0153558
0.0153558
0.0153558
0.0153558
0.0153558
0.0153558
0.0153558
0.0153558
0.0153558
0.0153558
0.0153558
0.0153558
0.0153558
0.0153558
0.0153558
0.0153558
0.0153558
0.0153558
0.0153558
0.0153558
0.0153558
0.0153558
0.0153558
0.0153558
0.0153558
0.0153558
0.0153558
0.0153558
0.0153558
0.0153558
0.0153558
0.0153558
0.0153558
0.0153558
0.0153558
0.0153558
0.0153558
0.0153558
0.0153558
0.0153558
0.0153558
0.0153558
0.0153558
0.0153558
0.0153558
0.0153558
0.0153558
0.0153558
0.0153558
0.0153558
0.0153558
0.0153558
0.0153558
0.0153558
0.0153558
0.0153558
0.0153558
0.0153558
0.0153558
0.0153558
0.0153558
0.0153558
0.0153558
0.0153558
0.0153558
0.0153558
0.0153558
0.0153558
0.0153558
0.0153558
0.0153558
0.0153558
0.0153558
0.0153558
0.0153558
0.0153558
0.0153558
0.0153558
0.0153558
0.0153558
0.0153558
0.0153558
0.0153558
0.0153558
0.0153558
0.0153558
0.0153558
0.0153558
0.0153558
0.0153558
0.0153558
0.0153558
0.0153558
0.0153558
0.0153558
0.0153558
0.0153558
0.0153558
0.0153558
0.0153558
0.0153558
0.0153558
0.0153558
0.0153558
0.0153558
0.0153558
0.0153558
0.0153558
0.0153558
0.0153558
0.0153558
0.0153558
0.0153558
0.0153558
0.0153558
0.0153558
0.0153846
0.0153846
0.0153846
0.0153846
0.0153846
0.0153846
0.0153846
0.0153846
0.0153846
0.0153846
0.0153846
0.0153846
0.0153846
0.0153846
0.0153846
0.0153846
0.0153846
0.0153846
0.0153846
0.0153846
0.0153846
0.0153846
0.0153846
0.0153846
0.0153846
0.0153846
0.0153846
0.0153846
0.0153846
0.0153846
0.0153846
0.0153846
0.0153846
0.0153846
0.0153846
0.0153846
0.0153846
0.0153846
0.0153846
0.0153846
0.0153846
0.0153846
0.0153846
0.0153846
0.0153846
0.0153846
0.0153846
0.0153846
0.0153846
0.0153846
0.0153846
0.0153846
0.0153846
0.0153846
0.0153846
0.0153846
0.0153846
0.0153846
0.0153846
0.0153846
0.0153846
0.0153846
0.0153846
0.0153846
0.0153846
0.0153846
0.0153846
0.0153846
0.0153846
0.0153846
0.0153846
0.0153846
0.0153846
0.0153846
0.0153846
0.0153846
0.0153846
0.0153846
0.0153846
0.0153846
0.0153846
0.0153846
0.0153846
0.0153846
0.0153846
0.0153846
0.0153846
0.0153846
)
;
        value           nonuniform List<scalar> 
304
(
315.213
315.221
315.227
315.231
324.314
324.336
324.372
324.421
302.49
302.403
302.322
302.248
302.248
302.312
302.372
302.428
302.479
302.527
302.571
302.613
302.651
302.686
302.72
302.751
302.78
302.807
302.832
302.856
302.878
302.9
302.919
302.938
302.956
302.973
302.989
303.004
303.018
303.032
303.045
303.058
303.07
303.082
303.093
303.103
303.114
303.124
303.133
303.143
303.152
303.161
303.169
303.178
303.186
303.194
303.202
303.21
303.218
303.226
303.234
303.242
303.249
303.257
303.265
303.273
303.28
303.288
303.296
303.304
303.312
303.32
303.328
303.337
303.345
303.354
303.362
303.371
303.38
303.389
303.398
303.408
303.417
303.427
303.437
303.447
303.458
303.469
303.48
303.491
303.503
303.514
303.527
303.539
303.553
303.566
303.58
303.595
303.61
303.625
303.641
303.658
303.676
303.694
303.713
303.732
303.752
303.772
303.793
303.814
303.836
303.858
303.88
303.903
303.926
303.949
303.972
303.996
304.02
304.044
304.069
304.093
304.118
304.143
304.168
304.193
304.219
304.245
304.27
304.296
304.323
304.349
304.376
304.403
304.43
304.458
304.486
304.515
304.544
304.573
304.603
304.634
304.666
304.698
304.731
304.765
304.8
304.836
304.874
304.912
304.952
304.993
305.035
305.079
305.124
305.171
305.22
305.27
305.322
305.376
305.431
305.489
305.548
305.608
305.671
305.736
305.802
305.869
305.939
306.009
306.082
306.155
306.23
306.305
306.381
306.458
306.535
306.613
306.689
306.766
306.841
306.915
306.987
307.057
307.124
307.188
307.248
307.304
307.354
307.398
307.436
307.467
307.49
307.505
307.51
307.505
307.49
307.464
307.426
307.377
307.316
307.244
307.16
307.065
306.961
306.847
306.727
306.601
306.473
306.344
306.218
306.096
305.98
305.868
305.756
305.635
305.501
305.353
323.628
323.641
323.67
323.714
323.773
323.846
323.933
324.034
324.149
324.276
324.416
324.568
324.732
324.906
325.09
325.283
325.483
325.69
325.902
326.118
326.334
326.548
326.755
326.952
327.134
327.295
327.429
327.532
327.598
327.623
327.603
327.536
327.423
327.265
327.067
326.829
326.557
326.252
325.917
325.555
325.168
324.759
324.329
323.882
323.418
322.941
322.452
321.953
321.446
320.933
320.416
319.896
319.374
318.852
318.331
317.812
317.297
316.786
316.279
315.779
315.285
314.797
314.317
313.844
313.379
312.922
312.473
312.032
311.6
311.175
310.759
310.35
309.95
309.557
309.173
308.797
308.43
308.074
307.728
307.394
307.073
306.767
306.478
306.208
305.961
305.737
305.535
305.352
)
;
    }
    wedgeNeg
    {
        type            wedge;
    }
    wedgePos
    {
        type            wedge;
    }
    solid_to_gas
    {
        type            compressible::turbulentTemperatureRadCoupledMixed;
        refValue        nonuniform List<scalar> 
692
(
300.087
300.466
300.817
301.152
301.478
301.796
302.11
302.42
302.727
303.032
303.335
303.638
303.941
304.243
304.546
304.851
305.158
305.467
305.779
306.094
306.413
306.735
307.061
307.391
307.726
308.064
308.407
308.755
309.108
309.466
309.829
310.198
310.573
310.954
311.341
311.734
312.134
312.538
312.98
312.895
300.037
300.196
300.345
300.482
300.612
300.734
300.85
300.961
301.068
301.173
301.274
301.373
301.47
301.565
301.66
301.754
301.847
301.941
302.034
302.128
302.223
302.319
302.416
302.515
302.616
302.718
302.824
302.932
303.043
303.158
303.277
303.402
303.532
303.671
303.82
303.984
304.174
304.443
305.252
600.896
1023.84
1410.66
312.304
1395.22
300.068
300.366
300.656
300.941
301.22
301.493
301.76
302.02
302.273
302.519
302.757
302.986
303.208
303.421
303.626
303.823
304.013
304.195
304.371
304.541
304.705
304.865
305.02
305.171
305.319
305.464
305.606
305.747
305.885
306.021
306.156
306.29
306.423
306.554
306.685
306.814
306.943
307.071
307.198
307.324
399.107
401.633
403.94
405.697
407.117
408.311
409.35
410.277
411.118
411.894
412.616
413.294
413.934
414.541
415.122
415.681
416.222
416.747
417.258
417.757
418.245
418.723
419.192
419.653
420.106
420.552
420.991
421.425
421.853
422.275
422.693
423.106
423.515
423.919
424.32
424.717
425.111
425.501
425.888
426.272
415.145
415.4
415.677
415.975
416.287
416.61
416.941
417.278
417.621
417.968
418.32
418.676
419.036
419.398
419.763
420.129
420.495
420.862
421.229
421.596
421.961
422.324
422.686
423.045
423.4
423.752
424.1
424.444
424.783
425.116
425.443
425.764
426.077
426.381
426.676
426.962
427.24
427.512
427.768
428.006
307.45
307.574
307.698
307.821
307.944
308.065
308.186
308.306
308.425
308.543
308.66
308.777
308.892
309.007
309.121
309.234
309.346
309.458
309.569
309.679
309.788
309.897
310.005
310.112
310.219
310.326
310.432
310.537
310.643
310.748
310.852
310.957
311.061
311.165
311.269
311.373
311.477
311.581
311.686
311.79
311.895
312
312.106
312.212
312.318
312.426
312.533
312.641
312.75
312.86
312.97
313.082
313.194
313.307
313.421
313.536
313.652
313.769
313.887
314.006
314.126
314.248
314.37
314.494
314.619
314.745
314.873
315.002
315.132
315.264
315.396
315.53
315.666
315.803
315.941
316.08
316.22
316.362
316.505
316.649
316.794
316.94
317.087
317.236
317.385
317.535
317.686
317.839
317.991
318.145
318.3
318.455
318.611
318.767
318.924
319.082
319.239
319.397
319.555
319.713
319.871
320.028
320.186
320.342
320.497
320.651
320.804
320.956
321.106
321.253
321.398
321.54
321.676
321.808
321.934
322.05
322.153
322.241
322.295
322.31
426.653
427.032
427.407
427.78
428.151
428.519
428.884
429.248
429.608
429.967
430.324
430.678
431.033
431.385
431.735
432.082
432.426
432.768
433.108
433.445
433.781
434.114
434.445
434.773
435.1
435.424
435.746
436.066
436.383
436.698
437.011
437.322
437.631
437.938
438.245
438.548
438.847
439.143
439.436
439.727
440.014
440.299
440.581
440.86
441.136
441.409
441.679
441.946
442.21
442.47
442.725
442.975
443.216
443.441
443.633
443.768
443.864
443.929
444.008
444.087
444.149
444.235
444.306
444.36
444.437
444.493
444.555
444.614
444.674
444.737
444.794
444.822
444.881
444.905
444.962
444.983
445.009
445.046
445.061
445.077
445.086
445.099
445.107
445.106
445.083
445.073
445.072
445.042
445.02
444.989
444.962
444.908
444.881
444.837
444.776
444.705
444.628
444.555
444.447
444.366
444.252
444.143
444.023
443.878
443.758
443.596
443.455
443.294
443.124
442.935
442.746
442.548
442.361
442.141
441.924
441.709
441.509
441.331
441.238
366.35
408.864
424.255
441.227
431.551
428.277
428.562
428.816
429.089
429.364
429.653
429.967
430.235
430.562
430.839
431.14
431.453
431.796
432.12
432.44
432.758
433.089
433.418
433.786
434.123
434.482
434.815
435.192
435.576
435.945
436.322
436.698
437.091
437.472
437.875
438.285
438.708
439.11
439.505
439.934
440.356
440.793
441.213
441.624
442.068
442.527
442.964
443.442
443.884
444.325
444.793
445.282
445.77
446.324
446.88
447.445
448.017
448.599
449.189
449.789
450.399
451.018
451.647
452.286
452.936
453.596
454.267
454.948
455.641
456.345
457.06
457.786
458.524
459.274
460.036
460.809
461.595
462.393
463.204
464.027
464.863
465.711
466.573
467.448
468.336
469.238
470.153
471.082
472.025
472.981
473.951
474.935
475.933
476.947
477.975
479.019
480.079
481.155
482.249
483.361
484.491
485.641
486.811
488.002
489.213
490.446
491.701
492.979
494.281
495.608
496.96
498.338
499.743
501.176
502.637
504.127
505.647
507.2
508.786
510.405
512.061
513.755
515.489
517.265
519.083
1047.06
1048.42
1051.38
1055.61
1060.74
1066.23
1071.49
1078.26
1085.78
1094.21
1104.27
1115.14
1127.71
1141.08
1155.52
1171.19
1188.03
1205.05
1222.94
1240.07
1257.93
1276.33
1294.27
1311.94
1329.56
1347.12
1364.61
1382.14
1399.71
1417.56
1425.82
1393.6
1362.15
1332.7
1304.5
1277.08
1250.26
1223.89
1197.97
1172.49
1147.41
1122.97
1098.65
1076.34
520.945
522.853
524.807
526.808
528.856
530.954
533.103
535.305
537.559
539.866
542.223
544.63
547.084
549.579
552.109
554.666
557.238
559.81
562.365
564.885
567.344
569.71
571.939
573.98
575.766
577.22
578.252
578.833
578.765
577.872
576.12
573.201
568.903
562.591
553.516
540.533
522.964
504.598
479.753
1052.99
1030.56
1009.1
988.182
968.121
948.786
930.103
912.328
895.226
878.718
862.791
847.526
832.942
818.934
805.494
792.609
780.259
768.417
757.056
746.142
735.64
725.513
715.706
706.148
696.772
687.507
678.282
668.99
659.528
649.767
639.515
628.445
616.103
601.259
583.694
562.716
538.108
510.246
478.455
444.75
444.75
)
;
        refGradient     nonuniform List<scalar> 
692
(
5.36492
5.28031
5.19514
5.10936
5.02292
4.93578
4.84787
4.75914
4.66953
4.57897
4.48741
4.39478
4.30101
4.20603
4.10977
4.01215
3.91311
3.81255
3.71041
3.60659
3.50102
3.39359
3.28423
3.17284
3.05931
2.94356
2.82547
2.70494
2.58186
2.45611
2.3276
2.19621
2.06186
1.92449
1.78417
1.64116
1.49625
1.35142
1.21157
1.08926
5.42396
5.33922
5.25384
5.16778
5.08099
4.9934
4.90495
4.81561
4.7253
4.63396
4.54154
4.44797
4.35318
4.25711
4.15968
4.06082
3.96047
3.85853
3.75494
3.64961
3.54246
3.4334
3.32234
3.20919
3.09385
2.97622
2.85621
2.7337
2.60859
2.48075
2.35007
2.21641
2.07961
1.9395
1.79579
1.64809
1.49571
1.3374
1.17104
1.05229
0.960013
0.889336
0.993456
0.898811
3.70941
3.56451
3.42127
3.27974
3.13997
3.00199
2.86582
2.73147
2.59895
2.46826
2.3394
2.21237
2.08716
1.96375
1.84215
1.72234
1.60431
1.48803
1.3735
1.2607
1.14961
1.0402
0.932476
0.826402
0.721961
0.619135
0.517902
0.418241
0.320133
0.223556
0.128488
0.03491
-0.0572004
-0.147864
-0.237102
-0.324934
-0.411382
-0.496466
-0.580207
-0.662623
3.81809
3.67109
3.52571
3.38208
3.24024
3.10022
2.96202
2.82565
2.69112
2.55843
2.42757
2.29854
2.17134
2.04595
1.92237
1.80059
1.68058
1.56234
1.44584
1.33109
1.21805
1.1067
0.997042
0.889042
0.782684
0.677949
0.574816
0.473266
0.373277
0.274828
0.1779
0.082471
-0.0114796
-0.103973
-0.195029
-0.284669
-0.372914
-0.459784
-0.5453
-0.62948
7.71681
7.70465
7.69328
7.68264
7.67267
7.6633
7.6545
7.64621
7.63841
7.63104
7.62407
7.61748
7.61123
7.60529
7.59965
7.59427
7.58914
7.58423
7.57954
7.57504
7.57072
7.56657
7.56257
7.55871
7.55499
7.55139
7.5479
7.54452
7.54124
7.53805
7.53495
7.53193
7.52898
7.5261
7.52329
7.52054
7.51784
7.5152
7.51259
7.51004
-0.743733
-0.823791
-0.902774
-0.980513
-1.05703
-1.13235
-1.20648
-1.27945
-1.35127
-1.42196
-1.49153
-1.56002
-1.62742
-1.69376
-1.75906
-1.82333
-1.88659
-1.94885
-2.01013
-2.07043
-2.12979
-2.18821
-2.2457
-2.30228
-2.35796
-2.41275
-2.46668
-2.51974
-2.57195
-2.62332
-2.67387
-2.72361
-2.77254
-2.82067
-2.86802
-2.91459
-2.9604
-3.00546
-3.04976
-3.09332
-3.13616
-3.17826
-3.21966
-3.26034
-3.30032
-3.3396
-3.37819
-3.4161
-3.45333
-3.48989
-3.52578
-3.56101
-3.59558
-3.62949
-3.66277
-3.6954
-3.72741
-3.75879
-3.78956
-3.81974
-3.84932
-3.87831
-3.90705
-3.93548
-3.96335
-3.99068