/*--------------------------------*- C++ -*----------------------------------*\
  =========                 |
  \\      /  F ield         | OpenFOAM: The Open Source CFD Toolbox
   \\    /   O peration     | Website:  https://openfoam.org
    \\  /    A nd           | Version:  8
     \\/     M anipulation  |
\*---------------------------------------------------------------------------*/
FoamFile
{
    version     2.0;
    format      ascii;
    class       volScalarField;
    location    "440/fluid";
    object      CH4;
}
// * * * * * * * * * * * * * * * * * * * * * * * * * * * * * * * * * * * * * //

dimensions      [0 0 0 0 0 0 0];

internalField   nonuniform List<scalar> 
4000
(
0.999997
0.999987
0.99997
0.999942
0.999894
0.999816
0.999687
0.999477
0.999137
0.998594
0.997739
0.996415
0.9944
0.991403
0.987058
0.980936
0.972584
0.961566
0.947544
0.930314
0.909839
0.886235
0.859752
0.830731
0.799565
0.766674
0.732477
0.697379
0.661761
0.62597
0.590318
0.55508
0.52049
0.486744
0.454
0.422383
0.391992
0.362896
0.335141
0.308751
0.283731
0.260071
0.237752
0.216742
0.197002
0.178487
0.161148
0.144933
0.129789
0.115662
0.102499
0.0902472
0.0788573
0.0682812
0.0584741
0.0493946
0.0410054
0.033283
0.026367
0.019873
0.0139768
0.00867659
0.00404124
0.00281462
0.00193879
0.00131816
0.000882699
0.000580892
0.000374793
0.00023654
0.000145805
8.79075e-05
5.24269e-05
3.22404e-05
2.256e-05
1.71539e-05
1.27485e-05
9.00755e-06
5.9826e-06
3.70352e-06
2.12986e-06
1.14202e-06
5.75996e-07
2.77501e-07
1.29613e-07
5.9072e-08
2.6392e-08
1.15991e-08
5.0281e-09
2.1545e-09
9.14176e-10
3.84675e-10
1.60705e-10
6.66965e-11
2.74858e-11
1.12141e-11
4.4881e-12
1.71536e-12
5.73309e-13
1.00535e-13
0.999997
0.999987
0.99997
0.999941
0.999893
0.999814
0.999684
0.99947
0.999126
0.998577
0.997713
0.996377
0.994353
0.991351
0.987014
0.980924
0.972633
0.961722
0.947848
0.930801
0.910527
0.887131
0.860843
0.831989
0.800955
0.768153
0.734001
0.698908
0.663256
0.627401
0.59166
0.556313
0.521601
0.487725
0.454847
0.423096
0.392573
0.363352
0.335478
0.308975
0.283849
0.260096
0.237694
0.216611
0.196807
0.178236
0.160848
0.144592
0.129414
0.115259
0.102074
0.0898054
0.0784037
0.0678206
0.0580114
0.0489352
0.0405554
0.0328426
0.0259448
0.0194711
0.013603
0.00833854
0.00375025
0.00262564
0.00181516
0.00123689
0.000829168
0.000545671
0.000351736
0.000221598
0.000136286
8.20157e-05
4.89657e-05
3.04514e-05
2.17687e-05
1.65369e-05
1.2172e-05
8.50185e-06
5.57861e-06
3.4158e-06
1.95004e-06
1.04373e-06
5.28596e-07
2.56572e-07
1.20947e-07
5.56598e-08
2.50993e-08
1.11221e-08
4.85448e-09
2.09129e-09
8.90841e-10
3.75837e-10
1.5725e-10
6.53037e-11
2.69118e-11
1.09756e-11
4.39023e-12
1.67707e-12
5.60305e-13
9.82502e-14
0.999997
0.999987
0.999969
0.99994
0.999892
0.999812
0.999679
0.999463
0.999115
0.99856
0.997689
0.996346
0.994315
0.991311
0.986978
0.980901
0.972644
0.961794
0.948015
0.931098
0.910983
0.887765
0.861661
0.832985
0.802108
0.769434
0.735375
0.700334
0.664697
0.628819
0.593022
0.557591
0.522772
0.48877
0.455754
0.423858
0.393185
0.36381
0.335781
0.309135
0.283882
0.26001
0.237497
0.216312
0.196416
0.177764
0.160306
0.14399
0.12876
0.114562
0.101343
0.0890482
0.0776276
0.0670327
0.0572184
0.0481438
0.0397724
0.0321276
0.0252467
0.0188084
0.013006
0.00784776
0.00342881
0.00240627
0.00166578
0.0011355
0.00076075
0.000499906
0.000321509
0.000201985
0.000123881
7.44722e-05
4.46952e-05
2.84232e-05
2.08654e-05
1.58254e-05
1.15523e-05
7.99465e-06
5.19923e-06
3.16083e-06
1.79701e-06
9.61098e-07
4.87804e-07
2.37596e-07
1.12485e-07
5.20096e-08
2.35661e-08
1.04914e-08
4.59885e-09
1.98868e-09
8.49822e-10
3.59435e-10
1.50666e-10
6.26456e-11
2.58336e-11
1.05384e-11
4.21507e-12
1.60984e-12
5.37724e-13
9.42653e-14
0.999997
0.999987
0.999969
0.99994
0.999891
0.99981
0.999677
0.99946
0.99911
0.998553
0.99768
0.996335
0.994305
0.991306
0.986985
0.980937
0.972726
0.961941
0.948247
0.931433
0.911436
0.888344
0.862367
0.833812
0.803042
0.770456
0.73646
0.701457
0.665828
0.62993
0.594087
0.558585
0.523673
0.48956
0.456417
0.424379
0.393557
0.364039
0.335881
0.309107
0.283726
0.259731
0.237104
0.215814
0.195824
0.177087
0.159555
0.143175
0.127891
0.11365
0.100395
0.088074
0.0766353
0.0660301
0.0562135
0.0471443
0.038787
0.0312082
0.0243855
0.0179958
0.0122555
0.00719245
0.00321688
0.00225202
0.00155401
0.00105541
0.0007042
0.00046069
0.000294899
0.000184406
0.000112669
6.76906e-05
4.09956e-05
2.69074e-05
2.01367e-05
1.51814e-05
1.09693e-05
7.50602e-06
4.826e-06
2.90392e-06
1.63808e-06
8.72022e-07
4.41895e-07
2.15422e-07
1.02213e-07
4.74032e-08
2.15535e-08
9.63084e-09
4.23744e-09
1.83907e-09
7.88577e-10
3.34564e-10
1.40622e-10
5.86043e-11
2.42127e-11
9.89183e-12
3.96089e-12
1.51397e-12
5.0595e-13
8.87047e-14
0.999997
0.999987
0.999969
0.99994
0.999891
0.999809
0.999676
0.999458
0.999107
0.998549
0.997675
0.996331
0.994301
0.991306
0.986996
0.980967
0.972787
0.962048
0.948416
0.931678
0.911768
0.888769
0.862886
0.834417
0.803724
0.771198
0.737243
0.702259
0.666627
0.630704
0.594812
0.559238
0.524234
0.490014
0.456754
0.424601
0.393668
0.364035
0.335753
0.308855
0.283355
0.259248
0.236516
0.215131
0.195054
0.176241
0.158642
0.142204
0.126873
0.112594
0.0993101
0.0869686
0.0755175
0.0649075
0.0550928
0.046032
0.0376883
0.0301389
0.0233428
0.0169908
0.0112906
0.00623381
0.00314752
0.0021804
0.00149063
0.00100375
0.000664384
0.000431344
0.000274124
0.000170284
0.000103507
6.21268e-05
3.80233e-05
2.58212e-05
1.95185e-05
1.45915e-05
1.04293e-05
7.05592e-06
4.48712e-06
2.67484e-06
1.49875e-06
7.94874e-07
4.02357e-07
1.9631e-07
9.33142e-08
4.33768e-08
1.97725e-08
8.85731e-09
3.90648e-09
1.69919e-09
7.30054e-10
3.10278e-10
1.3061e-10
5.44997e-11
2.25396e-11
9.21545e-12
3.69213e-12
1.41178e-12
4.71905e-13
8.27291e-14
0.999997
0.999986
0.999969
0.99994
0.99989
0.999809
0.999675
0.999457
0.999106
0.998548
0.997675
0.996332
0.994306
0.991318
0.98702
0.981009
0.972856
0.962153
0.948566
0.93188
0.912029
0.88909
0.863265
0.834849
0.804199
0.771703
0.737764
0.702778
0.667125
0.63116
0.595209
0.559564
0.524481
0.490178
0.456831
0.424581
0.393539
0.363793
0.3354
0.308395
0.282791
0.258587
0.235766
0.2143
0.19415
0.175273
0.157619
0.141136
0.125768
0.11146
0.0981573
0.0858044
0.0743494
0.0637425
0.0539376
0.0448923
0.0365709
0.0290835
0.0223382
0.0160136
0.0103318
0.00533631
0.00308466
0.00211907
0.00143634
0.000959075
0.000629674
0.000405649
0.000255919
0.000157938
9.55403e-05
5.73294e-05
3.55465e-05
2.49802e-05
1.89164e-05
1.40084e-05
9.90725e-06
6.63061e-06
4.1731e-06
2.46544e-06
1.37213e-06
7.24616e-07
3.66023e-07
1.78568e-07
8.49561e-08
3.95506e-08
1.8062e-08
8.10764e-09
3.5834e-09
1.56192e-09
6.72404e-10
2.86299e-10
1.20713e-10
5.04412e-11
2.08857e-11
8.54715e-12
3.4267e-12
1.31089e-12
4.383e-13
7.68302e-14
0.999997
0.999986
0.999969
0.999939
0.99989
0.999809
0.999675
0.999457
0.999106
0.998548
0.997676
0.996335
0.994312
0.99133
0.987041
0.981044
0.97291
0.962233
0.948677
0.932027
0.912214
0.889313
0.863523
0.835135
0.804502
0.772012
0.738065
0.703058
0.66737
0.631362
0.59536
0.559659
0.524509
0.490125
0.456687
0.42434
0.3932
0.363357
0.334868
0.307771
0.282081
0.257797
0.234902
0.213369
0.193161
0.174234
0.156539
0.140023
0.12463
0.110306
0.0969942
0.0846403
0.0731917
0.0625983
0.0528136
0.043795
0.0355193
0.0280869
0.0213443
0.0150497
0.0094147
0.00451325
0.00300014
0.00203397
0.00136499
0.000904217
0.0005897
0.000377678
0.000237036
0.000145651
8.78882e-05
5.28603e-05
3.32767e-05
2.39868e-05
1.81942e-05
1.33913e-05
9.3995e-06
6.23934e-06
3.89532e-06
2.28538e-06
1.2654e-06
6.66127e-07
3.35957e-07
1.63899e-07
7.80246e-08
3.63588e-08
1.66235e-08
7.47125e-09
3.30634e-09
1.44297e-09
6.21947e-10
2.65114e-10
1.11896e-10
4.67991e-11
1.93923e-11
7.94063e-12
3.18482e-12
1.21866e-12
4.0752e-13
7.14196e-14
0.999997
0.999986
0.999969
0.999939
0.99989
0.999809
0.999675
0.999457
0.999106
0.998549
0.997678
0.996339
0.994319
0.991341
0.98706
0.981073
0.972954
0.962293
0.948757
0.932129
0.912338
0.889455
0.863677
0.835296
0.804662
0.772162
0.738196
0.703163
0.667444
0.631395
0.59534
0.559572
0.524347
0.489883
0.456362
0.42393
0.392706
0.362779
0.33421
0.307036
0.281275
0.256925
0.233971
0.212387
0.192134
0.173171
0.155447
0.138909
0.123503
0.109173
0.0958619
0.0835163
0.0720833
0.0615128
0.0517589
0.04278
0.0345381
0.0272329
0.0203757
0.0141646
0.00860417
0.0037892
0.00264213
0.00181631
0.00123005
0.000819589
0.000536422
0.000344255
0.000216299
0.00013304
8.0479e-05
4.87835e-05
3.13678e-05
2.31156e-05
1.75468e-05
1.28598e-05
8.97528e-06
5.91846e-06
3.67001e-06
2.14015e-06
1.17937e-06
6.18791e-07
3.11444e-07
1.5184e-07
7.22758e-08
3.36879e-08
1.54097e-08
6.93014e-09
3.06915e-09
1.34053e-09
5.78269e-10
2.46696e-10
1.04202e-10
4.36112e-11
1.80818e-11
7.40733e-12
2.97178e-12
1.13733e-12
3.80361e-13
6.66415e-14
0.999997
0.999986
0.999969
0.999939
0.99989
0.999809
0.999675
0.999457
0.999107
0.998551
0.99768
0.996342
0.994325
0.99135
0.987074
0.981094
0.972983
0.962333
0.948808
0.93219
0.912406
0.889528
0.86375
0.835364
0.80472
0.772206
0.738218
0.703152
0.667389
0.631286
0.595171
0.559337
0.524042
0.489506
0.45591
0.423404
0.392107
0.36211
0.333474
0.306237
0.280418
0.256017
0.233017
0.211394
0.191109
0.17212
0.154378
0.137829
0.122418
0.108089
0.0947865
0.0824551
0.0710421
0.0604977
0.0507758
0.0418352
0.0336606
0.0264089
0.0196016
0.0134806
0.00805283
0.00343697
0.00240166
0.00165579
0.00112461
0.000751258
0.000492738
0.000316759
0.000199331
0.000122855
7.46334e-05
4.57263e-05
3.01419e-05
2.26062e-05
1.71495e-05
1.25112e-05
8.68109e-06
5.68761e-06
3.50358e-06
2.03086e-06
1.11371e-06
5.82238e-07
2.92302e-07
1.42328e-07
6.76961e-08
3.154e-08
1.44247e-08
6.4873e-09
2.87353e-09
1.25544e-09
5.4176e-10
2.31215e-10
9.77038e-11
4.09082e-11
1.6967e-11
6.95241e-12
2.78967e-12
1.0677e-12
3.57104e-13
6.25417e-14
0.999997
0.999986
0.999969
0.999939
0.99989
0.999809
0.999675
0.999458
0.999108
0.998551
0.997682
0.996344
0.994329
0.991357
0.987083
0.981107
0.973
0.962354
0.948833
0.932217
0.912433
0.889553
0.86377
0.835372
0.80471
0.772168
0.738144
0.703036
0.667225
0.631069
0.594896
0.559001
0.523643
0.489041
0.455381
0.42281
0.391451
0.361394
0.332703
0.305415
0.279551
0.255109
0.232075
0.210423
0.190117
0.171112
0.153359
0.136807
0.121398
0.107077
0.0937867
0.0814732
0.070083
0.059566
0.0498758
0.0409711
0.0328837
0.0256807
0.0189238
0.0128633
0.00751179
0.00325156
0.00227043
0.00156445
0.00106217
0.000709388
0.000465234
0.000299105
0.00018831
0.000116233
7.09095e-05
4.39408e-05
2.96873e-05
2.24949e-05
1.70217e-05
1.23586e-05
8.51969e-06
5.54146e-06
3.38961e-06
1.95232e-06
1.06502e-06
5.54503e-07
2.77517e-07
1.34881e-07
6.40686e-08
2.98217e-08
1.363e-08
6.12739e-09
2.71352e-09
1.18546e-09
5.11596e-10
2.18374e-10
9.22961e-11
3.86524e-11
1.60346e-11
6.57124e-12
2.63687e-12
1.00924e-12
3.37578e-13
5.90929e-14
0.999997
0.999986
0.999969
0.99994
0.99989
0.999809
0.999675
0.999458
0.999108
0.998552
0.997683
0.996346
0.994331
0.99136
0.987088
0.981113
0.973008
0.962362
0.948841
0.932223
0.912434
0.889543
0.863745
0.835325
0.804636
0.772061
0.738
0.702849
0.66699
0.630782
0.594555
0.558604
0.523188
0.488529
0.454812
0.422186
0.390774
0.360668
0.331931
0.304603
0.278703
0.25423
0.231172
0.2095
0.189179
0.170166
0.15241
0.135859
0.120456
0.106146
0.0928715
0.080577
0.0692092
0.0587175
0.0490551
0.0401796
0.0321276
0.0249568
0.0182313
0.0121999
0.00686328
0.00318618
0.00221757
0.00152426
0.00103294
0.000688883
0.000451319
0.000289976
0.000182556
0.00011281
6.90863e-05
4.32338e-05
2.98093e-05
2.27049e-05
1.71043e-05
1.23454e-05
8.45797e-06
5.46162e-06
3.31647e-06
1.8978e-06
1.02967e-06
5.33795e-07
2.66254e-07
1.29128e-07
6.12345e-08
2.84663e-08
1.2998e-08
5.83919e-09
2.58463e-09
1.1288e-09
4.87062e-10
2.0789e-10
8.78675e-11
3.68003e-11
1.52674e-11
6.25711e-12
2.5108e-12
9.60971e-13
3.21452e-13
5.6245e-14
0.999997
0.999986
0.999969
0.99994
0.99989
0.999809
0.999676
0.999458
0.999108
0.998552
0.997683
0.996347
0.994332
0.991362
0.98709
0.981115
0.973008
0.962361
0.948834
0.932208
0.912408
0.889502
0.863683
0.835239
0.80452
0.771911
0.737811
0.702618
0.666713
0.630458
0.594181
0.558179
0.522712
0.488002
0.454236
0.421563
0.390108
0.359961
0.331188
0.303828
0.277899
0.253404
0.230328
0.208643
0.188314
0.169298
0.151543
0.134997
0.119605
0.105308
0.0920499
0.0797754
0.0684304
0.0579641
0.0483294
0.0394835
0.0314704
0.0243394
0.0176488
0.0116458
0.00633391
0.0031556
0.0021938
0.00150645
0.00102005
0.000679896
0.000445284
0.000286097
0.000180205
0.000111527
6.85612e-05
4.33067e-05
3.04523e-05
2.32036e-05
1.73757e-05
1.24551e-05
8.47032e-06
5.43124e-06
3.27409e-06
1.86156e-06
1.00465e-06
5.18599e-07
2.57795e-07
1.24737e-07
5.90453e-08
2.74094e-08
1.25014e-08
5.61125e-09
2.48213e-09
1.08353e-09
4.67383e-10
1.99453e-10
8.4293e-11
3.53021e-11
1.46457e-11
6.00217e-12
2.40838e-12
9.21732e-13
3.08328e-13
5.3931e-14
0.999997
0.999986
0.999969
0.99994
0.99989
0.999809
0.999676
0.999458
0.999108
0.998552
0.997683
0.996347
0.994332
0.991361
0.987088
0.981111
0.973002
0.962349
0.948815
0.932179
0.912364
0.88944
0.863599
0.835129
0.80438
0.771737
0.7376
0.702367
0.66642
0.63012
0.593798
0.557751
0.52224
0.487487
0.453678
0.420967
0.389474
0.359295
0.330492
0.303107
0.277158
0.252647
0.229558
0.207866
0.187533
0.168517
0.150767
0.134229
0.118848
0.104566
0.0913254
0.0790709
0.0677484
0.0573067
0.0476985
0.0388831
0.0309097
0.0238052
0.0171367
0.0111603
0.00587801
0.00312968
0.0021777
0.00149652
0.00101406
0.000676397
0.00044334
0.000285106
0.000179801
0.000111501
6.88165e-05
4.38224e-05
3.1232e-05
2.37929e-05
1.77255e-05
1.26288e-05
8.5315e-06
5.43267e-06
3.25479e-06
1.83948e-06
9.87772e-07
5.07842e-07
2.51626e-07
1.21478e-07
5.73973e-08
2.66049e-08
1.212e-08
5.43485e-09
2.4023e-09
1.04809e-09
4.51906e-10
1.92792e-10
8.1462e-11
3.41123e-11
1.4151e-11
5.79899e-12
2.32666e-12
8.90401e-13
2.97849e-13
5.20799e-14
0.999997
0.999986
0.999969
0.99994
0.99989
0.999809
0.999676
0.999458
0.999108
0.998552
0.997683
0.996346
0.994331
0.991359
0.987084
0.981105
0.972991
0.962332
0.948789
0.932141
0.912311
0.889368
0.863506
0.83501
0.804231
0.771557
0.737385
0.702115
0.66613
0.629791
0.593429
0.557343
0.521792
0.487002
0.453159
0.420415
0.388893
0.358687
0.329861
0.302457
0.276493
0.251969
0.228873
0.207177
0.186844
0.167831
0.150087
0.133559
0.118189
0.103922
0.0906982
0.0784627
0.0671608
0.0567416
0.0471594
0.0383694
0.0304234
0.0233432
0.0167008
0.010749
0.00550621
0.00310806
0.00216621
0.00149099
0.00101189
0.000676001
0.000443798
0.00028591
0.000180689
0.000112364
6.96432e-05
4.46614e-05
3.21201e-05
2.44504e-05
1.8134e-05
1.28511e-05
8.63067e-06
5.46223e-06
3.2531e-06
1.82951e-06
9.77938e-07
5.00855e-07
2.47399e-07
1.19177e-07
5.62087e-08
2.6015e-08
1.18366e-08
5.30244e-09
2.34187e-09
1.02107e-09
4.40036e-10
1.87658e-10
7.92711e-11
3.31884e-11
1.37659e-11
5.64055e-12
2.26283e-12
8.65914e-13
2.89663e-13
5.06273e-14
0.999997
0.999986
0.999969
0.999939
0.99989
0.999809
0.999675
0.999458
0.999108
0.998552
0.997682
0.996345
0.994329
0.991356
0.987079
0.981097
0.972978
0.962312
0.94876
0.9321
0.912255
0.889295
0.863411
0.834891
0.804086
0.771382
0.737179
0.701876
0.665858
0.629485
0.593089
0.556969
0.521386
0.486565
0.452693
0.419922
0.388376
0.358149
0.329306
0.301887
0.275912
0.25138
0.228279
0.206582
0.186251
0.167242
0.149505
0.132986
0.117629
0.103375
0.0901678
0.07795
0.0666685
0.0562717
0.0467098
0.0379369
0.0300198
0.0229621
0.0163419
0.0104128
0.00521086
0.00309155
0.00215869
0.00148875
0.00101246
0.000677851
0.000446036
0.000288067
0.000182563
0.000113918
7.09304e-05
4.5789e-05
3.31548e-05
2.51976e-05
1.86089e-05
1.31228e-05
8.76595e-06
5.51707e-06
3.26809e-06
1.829e-06
9.73956e-07
4.97135e-07
2.44827e-07
1.17693e-07
5.54106e-08
2.56073e-08
1.16365e-08
5.20728e-09
2.29785e-09
1.00117e-09
4.31222e-10
1.83819e-10
7.76241e-11
3.24909e-11
1.34742e-11
5.52031e-12
2.21439e-12
8.47312e-13
2.83446e-13
4.95178e-14
0.999997
0.999986
0.999969
0.999939
0.99989
0.999809
0.999675
0.999458
0.999108
0.998552
0.997682
0.996344
0.994327
0.991353
0.987074
0.981088
0.972965
0.962292
0.948731
0.93206
0.912202
0.889225
0.863322
0.834781
0.803952
0.771223
0.736994
0.701663
0.665616
0.629214
0.59279
0.556642
0.521033
0.486187
0.452292
0.4195
0.387935
0.357692
0.328835
0.301406
0.275422
0.250886
0.227782
0.206084
0.185756
0.166752
0.149023
0.132513
0.117167
0.102926
0.0897335
0.0775331
0.0662692
0.0558875
0.0463402
0.0375858
0.0296899
0.0226504
0.0160458
0.0101289
0.00495154
0.00307244
0.00215186
0.0014883
0.001015
0.000681481
0.000449738
0.000291357
0.000185276
0.000116065
7.26186e-05
4.71691e-05
3.43192e-05
2.60272e-05
1.91439e-05
1.34385e-05
8.93265e-06
5.59359e-06
3.29729e-06
1.8372e-06
9.74549e-07
4.95929e-07
2.43608e-07
1.16873e-07
5.4929e-08
2.53469e-08
1.15036e-08
5.14243e-09
2.26727e-09
9.8715e-10
4.24941e-10
1.81061e-10
7.64332e-11
3.19844e-11
1.32621e-11
5.43288e-12
2.17916e-12
8.33746e-13
2.78908e-13
4.87023e-14
0.999997
0.999986
0.999969
0.999939
0.99989
0.999809
0.999675
0.999458
0.999107
0.998551
0.997681
0.996343
0.994325
0.99135
0.987069
0.98108
0.972953
0.962275
0.948706
0.932025
0.912155
0.889164
0.863245
0.834686
0.803838
0.771088
0.736837
0.701484
0.665413
0.628989
0.592542
0.556372
0.520742
0.485877
0.451963
0.419155
0.387576
0.357321
0.328454
0.301017
0.275028
0.250488
0.227383
0.205687
0.185361
0.166362
0.148639
0.132138
0.116802
0.102574
0.089394
0.0772048
0.0659513
0.0555828
0.0460509
0.0373118
0.0294357
0.0224109
0.0158198
0.00991532
0.00476184
0.00306363
0.00215101
0.00149172
0.00102025
0.000687075
0.000454883
0.000295702
0.000188745
0.000118737
7.46527e-05
4.8755e-05
3.55798e-05
2.69152e-05
1.97202e-05
1.37841e-05
9.12111e-06
5.68549e-06
3.33674e-06
1.85178e-06
9.78875e-07
4.96639e-07
2.43371e-07
1.16533e-07
5.4685e-08
2.52008e-08
1.14241e-08
5.1019e-09
2.24758e-09
9.77934e-10
4.20755e-10
1.79208e-10
7.56299e-11
3.16421e-11
1.31182e-11
5.37321e-12
2.15501e-12
8.24408e-13
2.75776e-13
4.81336e-14
0.999997
0.999986
0.999969
0.999939
0.99989
0.999809
0.999675
0.999458
0.999107
0.998551
0.99768
0.996342
0.994324
0.991347
0.987065
0.981074
0.972943
0.96226
0.948685
0.931997
0.912117
0.889115
0.863184
0.834611
0.803749
0.770983
0.736715
0.701344
0.665257
0.628815
0.592351
0.556165
0.52052
0.48564
0.451713
0.418893
0.387304
0.35704
0.328166
0.300724
0.274731
0.25019
0.227085
0.205389
0.185067
0.166073
0.148356
0.131862
0.116533
0.102312
0.0891399
0.0769601
0.0657178
0.0553608
0.0458407
0.0371134
0.0292528
0.0222392
0.0156578
0.00976138
0.0046226
0.00305365
0.00215108
0.00149666
0.00102701
0.000693974
0.000461064
0.000300829
0.000192777
0.000121795
7.69272e-05
5.04567e-05
3.68696e-05
2.78104e-05
2.02997e-05
1.41332e-05
9.31418e-06
5.78245e-06
3.38064e-06
1.86958e-06
9.85247e-07
4.9855e-07
2.43801e-07
1.16538e-07
5.46086e-08
2.51365e-08
1.13844e-08
5.08025e-09
2.23663e-09
9.72667e-10
4.18315e-10
1.78107e-10
7.51445e-11
3.1432e-11
1.30287e-11
5.33577e-12
2.13972e-12
8.185e-13
2.73781e-13
4.77645e-14
0.999997
0.999986
0.999969
0.999939
0.99989
0.999809
0.999675
0.999457
0.999107
0.998551
0.99768
0.996341
0.994323
0.991345
0.987062
0.981069
0.972936
0.96225
0.948671
0.931977
0.912092
0.889082
0.863142
0.83456
0.803687
0.770911
0.736632
0.70125
0.665151
0.628697
0.592222
0.556025
0.52037
0.48548
0.451545
0.418717
0.387122
0.356852
0.327975
0.300529
0.274534
0.249992
0.226887
0.205194
0.184873
0.165882
0.148169
0.131679
0.116355
0.10214
0.088974
0.0768015
0.065567
0.0552182
0.0457065
0.0369875
0.0291376
0.0221314
0.0155561
0.00966378
0.00453222
0.00304709
0.00215353
0.00150325
0.00103491
0.000701623
0.000467729
0.000306257
0.000196989
0.000124946
7.9227e-05
5.21185e-05
3.80637e-05
2.86164e-05
2.08125e-05
1.4439e-05
9.48293e-06
5.86784e-06
3.42008e-06
1.88616e-06
9.91546e-07
5.00676e-07
2.44492e-07
1.16727e-07
5.464e-08
2.5129e-08
1.13727e-08
5.07194e-09
2.23184e-09
9.70179e-10
4.171e-10
1.77539e-10
7.48872e-11
3.13183e-11
1.29795e-11
5.31493e-12
2.13114e-12
8.15176e-13
2.72648e-13
4.75485e-14
0.999997
0.999986
0.999969
0.999939
0.99989
0.999809
0.999675
0.999457
0.999107
0.998551
0.99768
0.996341
0.994322
0.991344
0.98706
0.981067
0.972933
0.962245
0.948664
0.931968
0.912079
0.889066
0.863122
0.834535
0.803657
0.770875
0.736591
0.701203
0.665098
0.628639
0.592158
0.555956
0.520295
0.485401
0.451462
0.41863
0.387032
0.35676
0.32788
0.300432
0.274437
0.249894
0.226789
0.205096
0.184777
0.165787
0.148076
0.131588
0.116268
0.102056
0.0888938
0.0767254
0.0654952
0.0551509
0.0456437
0.0369293
0.0290853
0.022083
0.0155103
0.00961885
0.00448798
0.00304389
0.00215736
0.00150986
0.00104203
0.000708167
0.000473245
0.000310649
0.000200339
0.000127416
8.09962e-05
5.33477e-05
3.88807e-05
2.91382e-05
2.11318e-05
1.46238e-05
9.58285e-06
5.91777e-06
3.44308e-06
1.8959e-06
9.95327e-07
5.02007e-07
2.44956e-07
1.16874e-07
5.46792e-08
2.51354e-08
1.13712e-08
5.06962e-09
2.23021e-09
9.6925e-10
4.16622e-10
1.77308e-10
7.47802e-11
3.12702e-11
1.29585e-11
5.30591e-12
2.12739e-12
8.13726e-13
2.72149e-13
4.74471e-14
0.999997
0.999986
0.999969
0.999939
0.99989
0.999809
0.999675
0.999457
0.999107
0.99855
0.99768
0.996341
0.994322
0.991344
0.98706
0.981067
0.972932
0.962245
0.948664
0.931967
0.912078
0.889065
0.863121
0.834535
0.803656
0.770874
0.736589
0.701202
0.665097
0.628637
0.592157
0.555955
0.520294
0.4854
0.45146
0.418629
0.38703
0.356758
0.327879
0.300431
0.274436
0.249893
0.226789
0.205095
0.184776
0.165787
0.148075
0.131588
0.116267
0.102055
0.0888933
0.0767249
0.0654948
0.0551505
0.0456433
0.0369289
0.029085
0.0220827
0.01551
0.0096186
0.00448777
0.00304384
0.00215733
0.00150984
0.00104202
0.000708163
0.000473245
0.00031065
0.000200341
0.000127418
8.09978e-05
5.33489e-05
3.88816e-05
2.91386e-05
2.11319e-05
1.46238e-05
9.58276e-06
5.91769e-06
3.44302e-06
1.89586e-06
9.95306e-07
5.01996e-07
2.4495e-07
1.16871e-07
5.46781e-08
2.51349e-08
1.13709e-08
5.06953e-09
2.23017e-09
9.69236e-10
4.16617e-10
1.77306e-10
7.47792e-11
3.12698e-11
1.29583e-11
5.30585e-12
2.12738e-12
8.13734e-13
2.72145e-13
4.74373e-14
0.999997
0.999986
0.999969
0.999939
0.99989
0.999809
0.999675
0.999457
0.999107
0.998551
0.99768
0.996341
0.994322
0.991345
0.987061
0.981069
0.972935
0.962249
0.94867
0.931976
0.91209
0.88908
0.86314
0.834558
0.803685
0.770908
0.736628
0.701246
0.665147
0.628693
0.592218
0.556022
0.520366
0.485477
0.451542
0.418714
0.387118
0.356849
0.327972
0.300526
0.274532
0.249989
0.226885
0.205191
0.184871
0.16588
0.148167
0.131677
0.116354
0.102138
0.0889725
0.0768001
0.0655657
0.055217
0.0457053
0.0369864
0.0291366
0.0221305
0.0155552
0.00966296
0.00453154
0.00304688
0.0021534
0.00150318
0.00103487
0.000701605
0.000467725
0.00030626
0.000196994
0.000124951
7.92318e-05
5.21222e-05
3.80662e-05
2.86176e-05
2.0813e-05
1.44389e-05
9.48274e-06
5.86763e-06
3.41992e-06
1.88605e-06
9.91487e-07
5.00645e-07
2.44477e-07
1.1672e-07
5.46368e-08
2.51276e-08
1.13721e-08
5.0717e-09
2.23174e-09
9.70138e-10
4.17084e-10
1.77533e-10
7.48846e-11
3.13173e-11
1.29791e-11
5.31477e-12
2.1311e-12
8.15195e-13
2.72626e-13
4.75278e-14
0.999997
0.999986
0.999969
0.999939
0.99989
0.999809
0.999675
0.999458
0.999107
0.998551
0.99768
0.996342
0.994323
0.991347
0.987064
0.981073
0.972942
0.962259
0.948683
0.931994
0.912115
0.889112
0.86318
0.834607
0.803744
0.770977
0.736709
0.701339
0.665251
0.628809
0.592345
0.556159
0.520514
0.485634
0.451707
0.418887
0.387298
0.357035
0.328161
0.300719
0.274726
0.250185
0.227081
0.205386
0.185063
0.166069
0.148352
0.131859
0.11653
0.10231
0.0891374
0.0769577
0.0657155
0.0553587
0.0458387
0.0371115
0.029251
0.0222375
0.0156561
0.00975983
0.00462122
0.00305315
0.00215079
0.00149649
0.00102692
0.000693933
0.00046105
0.000300828
0.000192782
0.000121802
7.69335e-05
5.04619e-05
3.68735e-05
2.78126e-05
2.03006e-05
1.41333e-05
9.31398e-06
5.78217e-06
3.38041e-06
1.86943e-06
9.85157e-07
4.98502e-07
2.43777e-07
1.16527e-07
5.46035e-08
2.51343e-08
1.13834e-08
5.07984e-09
2.23646e-09
9.72599e-10
4.18287e-10
1.78096e-10
7.51399e-11
3.14301e-11
1.3028e-11
5.33549e-12
2.13966e-12
8.1853e-13
2.73744e-13
4.7733e-14
0.999997
0.999986
0.999969
0.999939
0.99989
0.999809
0.999675
0.999458
0.999107
0.998551
0.997681
0.996343
0.994325
0.991349
0.987068
0.981079
0.972951
0.962273
0.948703
0.932022
0.912151
0.889159
0.863239
0.83468
0.803831
0.771081
0.736829
0.701476
0.665405
0.62898
0.592533
0.556364
0.520734
0.485869
0.451955
0.419147
0.387568
0.357313
0.328447
0.30101
0.275021
0.250482
0.227378
0.205681
0.185356
0.166358
0.148635
0.132134
0.116798
0.10257
0.0893905
0.0772015
0.0659482
0.0555799
0.0460482
0.0373092
0.0294331
0.0224085
0.0158174
0.00991297
0.00475952
0.0030627
0.00215049
0.00149143
0.00102009
0.000686997
0.000454849
0.000295691
0.000188745
0.000118742
7.46583e-05
4.87603e-05
3.55842e-05
2.69177e-05
1.97212e-05
1.37843e-05
9.12086e-06
5.68513e-06
3.33644e-06
1.85157e-06
9.78754e-07
4.96574e-07
2.43339e-07
1.16518e-07
5.4678e-08
2.51977e-08
1.14228e-08
5.10135e-09
2.24735e-09
9.77839e-10
4.20717e-10
1.79192e-10
7.56236e-11
3.16396e-11
1.31171e-11
5.37283e-12
2.15493e-12
8.24432e-13
2.75723e-13
4.80914e-14
0.999997
0.999986
0.999969
0.999939
0.99989
0.999809
0.999675
0.999458
0.999108
0.998551
0.997681
0.996344
0.994327
0.991352
0.987073
0.981086
0.972963
0.96229
0.948728
0.932056
0.912197
0.889219
0.863315
0.834773
0.803944
0.771214
0.736984
0.701653
0.665606
0.629204
0.592779
0.556632
0.521022
0.486177
0.452281
0.41949
0.387925
0.357683
0.328826
0.301397
0.275414
0.250878
0.227775
0.206077
0.185749
0.166746
0.149017
0.132508
0.117162
0.102921
0.0897292
0.077529
0.0662653
0.0558839
0.0463368
0.0375825
0.0296867
0.0226473
0.0160428
0.0101261
0.00494888
0.00307194
0.0021515
0.00148806
0.00101486
0.000681406
0.000449702
0.000291343
0.000185273
0.000116068
7.26231e-05
4.7174e-05
3.43236e-05
2.60298e-05
1.9145e-05
1.34386e-05
8.93234e-06
5.59317e-06
3.29693e-06
1.83695e-06
9.74402e-07
4.9585e-07
2.4357e-07
1.16855e-07
5.49207e-08
2.53432e-08
1.1502e-08
5.14175e-09
2.26698e-09
9.8703e-10
4.24892e-10
1.81041e-10
7.6425e-11
3.19811e-11
1.32608e-11
5.43237e-12
2.17906e-12
8.33748e-13
2.78838e-13
4.865e-14
0.999997
0.999986
0.999969
0.999939
0.99989
0.999809
0.999675
0.999458
0.999108
0.998552
0.997682
0.996345
0.994329
0.991355
0.987078
0.981095
0.972975
0.962309
0.948756
0.932095
0.912249
0.889287
0.863402
0.834881
0.804075
0.771371
0.737168
0.701864
0.665845
0.629472
0.593076
0.556956
0.521373
0.486553
0.452681
0.41991
0.388364
0.358138
0.329295
0.301877
0.275902
0.251371
0.22827
0.206573
0.186243
0.167234
0.149498
0.13298
0.117623
0.10337
0.0901624
0.077945
0.0666637
0.0562672
0.0467056
0.037933
0.0300161
0.0229587
0.0163386
0.0104095
0.00520776
0.00309041
0.00215807
0.00148842
0.00101228
0.000677761
0.000445993
0.000288048
0.000182557
0.000113918
7.0933e-05
4.57926e-05
3.31586e-05
2.51999e-05
1.86098e-05
1.31229e-05
8.76556e-06
5.51658e-06
3.26768e-06
1.82872e-06
9.73787e-07
4.97045e-07
2.44782e-07
1.17671e-07
5.54006e-08
2.56029e-08
1.16345e-08
5.20644e-09
2.2975e-09
1.00103e-09
4.31161e-10
1.83794e-10
7.76138e-11
3.24867e-11
1.34725e-11
5.51966e-12
2.21424e-12
8.47303e-13
2.83365e-13
4.94568e-14
0.999997
0.999986
0.999969
0.999939
0.99989
0.999809
0.999675
0.999458
0.999108
0.998552
0.997683
0.996346
0.99433
0.991358
0.987083
0.981103
0.972988
0.962328
0.948784
0.932134
0.912304
0.88936
0.863496
0.834999
0.804219
0.771544
0.737371
0.702101
0.666115
0.629776
0.593414
0.557327
0.521777
0.486987
0.453144
0.4204
0.388879
0.358673
0.329848
0.302445
0.276481
0.251958
0.228862
0.207167
0.186835
0.167822
0.150079
0.133551
0.118182
0.103915
0.090692
0.0784569
0.0671554
0.0567367
0.0471549
0.0383652
0.0304193
0.0233394
0.0166972
0.0107458
0.00550333
0.00310746
0.00216579
0.00149071
0.00101172
0.000675899
0.000443742
0.000285881
0.000180676
0.00011236
6.96428e-05
4.46633e-05
3.21229e-05
2.44522e-05
1.81346e-05
1.28509e-05
8.63016e-06
5.46166e-06
3.25264e-06
1.8292e-06
9.77754e-07
5.00754e-07
2.47348e-07
1.19152e-07
5.61973e-08
2.60099e-08
1.18344e-08
5.30146e-09
2.34145e-09
1.02089e-09
4.39963e-10
1.87627e-10
7.92585e-11
3.31832e-11
1.37637e-11
5.63975e-12
2.2626e-12
8.65884e-13
2.89572e-13
5.05587e-14
0.999997
0.999986
0.999969
0.99994
0.99989
0.999809
0.999675
0.999458
0.999108
0.998552
0.997683
0.996346
0.994331
0.99136
0.987086
0.981109
0.972998
0.962344
0.948809
0.932171
0.912355
0.88943
0.863588
0.835116
0.804366
0.771722
0.737584
0.70235
0.666403
0.630103
0.593781
0.557733
0.522222
0.487469
0.453661
0.42095
0.389458
0.359279
0.330477
0.303093
0.277145
0.252634
0.229546
0.207854
0.187523
0.168507
0.150758
0.134221
0.11884
0.104558
0.0913183
0.0790644
0.0677423
0.0573011
0.0476933
0.0388783
0.0309052
0.023801
0.0171328
0.0111568
0.00587488
0.00312933
0.00217743
0.00149633
0.00101393
0.00067632
0.000443295
0.000285082
0.000179789
0.000111496
6.88156e-05
4.38237e-05
3.12347e-05
2.37945e-05
1.77261e-05
1.26286e-05
8.53092e-06
5.43206e-06
3.25429e-06
1.83914e-06
9.87569e-07
5.07732e-07
2.5157e-07
1.21451e-07
5.73846e-08
2.65991e-08
1.21174e-08
5.43373e-09
2.40182e-09
1.04788e-09
4.51819e-10
1.92755e-10
8.14467e-11
3.41059e-11
1.41483e-11
5.79799e-12
2.32636e-12
8.90347e-13
2.9775e-13
5.20065e-14
0.999997
0.999986
0.999969
0.99994
0.99989
0.999809
0.999675
0.999458
0.999108
0.998552
0.997683
0.996346
0.994331
0.99136
0.987087
0.981112
0.973004
0.962355
0.948827
0.9322
0.912398
0.88949
0.86367
0.835224
0.804504
0.771893
0.737793
0.702599
0.666694
0.630438
0.59416
0.558158
0.522691
0.487982
0.454216
0.421544
0.390089
0.359943
0.33117
0.303811
0.277884
0.253389
0.230314
0.20863
0.188302
0.169286
0.151532
0.134987
0.119595
0.105299
0.0920419
0.079768
0.0684235
0.0579577
0.0483233
0.039478
0.0314655
0.0243349
0.0176447
0.011642
0.0063305
0.00315532
0.00219357
0.00150626
0.00101992
0.000679804
0.000445227
0.000286063
0.000180187
0.000111519
6.85583e-05
4.33075e-05
3.04558e-05
2.32057e-05
1.73763e-05
1.24549e-05
8.46968e-06
5.43056e-06
3.27355e-06
1.86119e-06
1.00443e-06
5.18478e-07
2.57733e-07
1.24707e-07
5.9031e-08
2.74028e-08
1.24985e-08
5.60995e-09
2.48157e-09
1.08329e-09
4.6728e-10
1.99409e-10
8.42746e-11
3.52943e-11
1.46425e-11