/*--------------------------------*- C++ -*----------------------------------*\
  =========                 |
  \\      /  F ield         | OpenFOAM: The Open Source CFD Toolbox
   \\    /   O peration     | Website:  https://openfoam.org
    \\  /    A nd           | Version:  8
     \\/     M anipulation  |
\*---------------------------------------------------------------------------*/
FoamFile
{
    version     2.0;
    format      ascii;
    class       volScalarField;
    location    "440/fluid";
    object      CO2;
}
// * * * * * * * * * * * * * * * * * * * * * * * * * * * * * * * * * * * * * //

dimensions      [0 0 0 0 0 0 0];

internalField   nonuniform List<scalar> 
4000
(
4.46776e-07
1.95184e-06
4.48057e-06
8.71447e-06
1.57716e-05
2.74683e-05
4.67206e-05
7.81451e-05
0.000128929
0.000210036
0.00033779
0.000535781
0.000836855
0.00128467
0.00193401
0.00284875
0.00409688
0.00574321
0.00783857
0.0104131
0.0134728
0.0169998
0.0209569
0.0252934
0.0299503
0.034865
0.0399749
0.0452195
0.0505421
0.0558906
0.0612184
0.0664847
0.0716544
0.0766982
0.0815924
0.0863183
0.0908612
0.0952102
0.0993583
0.103302
0.107039
0.110572
0.113902
0.117033
0.11997
0.122719
0.125284
0.127672
0.129888
0.131935
0.133816
0.135533
0.137084
0.138465
0.13967
0.140684
0.141491
0.142064
0.142361
0.14235
0.141959
0.1411
0.139672
0.129479
0.118925
0.10825
0.0976323
0.0872095
0.0770875
0.0673504
0.0580674
0.0492973
0.0410938
0.0335283
0.0266094
0.0204229
0.015035
0.010511
0.00690513
0.00422656
0.0024027
0.00127339
0.000634892
0.000302484
0.000139798
6.3087e-05
2.79284e-05
1.21711e-05
5.23538e-06
2.22758e-06
9.39184e-07
3.92942e-07
1.63323e-07
6.74781e-08
2.76991e-08
1.12636e-08
4.49573e-09
1.71475e-09
5.72331e-10
1.00302e-10
4.50012e-07
1.96669e-06
4.51768e-06
8.79467e-06
1.59333e-05
2.77784e-05
4.72896e-05
7.91449e-05
0.000130606
0.000212705
0.000341788
0.000541343
0.000843884
0.00129239
0.00194047
0.00285055
0.00408945
0.00571987
0.007793
0.0103404
0.0133697
0.0168658
0.0207938
0.0251052
0.0297425
0.0346439
0.0397471
0.0449911
0.0503187
0.0556768
0.061018
0.0663006
0.0714885
0.0765518
0.081466
0.0862119
0.0907743
0.095142
0.0993078
0.103268
0.107021
0.110567
0.113909
0.117051
0.119997
0.122753
0.125325
0.127718
0.129937
0.131986
0.133867
0.135583
0.13713
0.138505
0.1397
0.140699
0.141485
0.142026
0.14228
0.142211
0.141741
0.140784
0.139249
0.128771
0.118028
0.107224
0.0965168
0.0860313
0.0758663
0.0661019
0.0568055
0.0480361
0.0398492
0.0323306
0.02547
0.0193723
0.0141062
0.00973711
0.00631055
0.00381487
0.00214994
0.00113626
0.000568553
0.000272876
0.000127314
5.80434e-05
2.5953e-05
1.14127e-05
4.94707e-06
2.11807e-06
8.97306e-07
3.76737e-07
1.56964e-07
6.49502e-08
2.66856e-08
1.08571e-08
4.33485e-09
1.65384e-09
5.52151e-10
9.67967e-11
4.55103e-07
1.98943e-06
4.57204e-06
8.90551e-06
1.61429e-05
2.8155e-05
4.79374e-05
8.02099e-05
0.000132276
0.000215197
0.000345303
0.000545971
0.000849466
0.00129838
0.0019459
0.00285394
0.00408775
0.00570897
0.00776788
0.0102958
0.0133014
0.0167708
0.0206713
0.0249563
0.02957
0.0344524
0.0395418
0.0447779
0.0501033
0.0554648
0.0608144
0.0661095
0.0713136
0.0763956
0.0813305
0.0860981
0.0906828
0.0950733
0.099262
0.103243
0.107015
0.110579
0.113937
0.117093
0.120052
0.122819
0.1254
0.1278
0.130024
0.132076
0.133958
0.135671
0.137214
0.13858
0.139759
0.140737
0.141488
0.141976
0.142154
0.141965
0.141315
0.140078
0.138122
0.127373
0.116441
0.105508
0.0947177
0.0841852
0.0740032
0.0642488
0.0549878
0.0462796
0.0381805
0.030784
0.0240708
0.0181532
0.0130947
0.00895088
0.00574837
0.00345078
0.00193759
0.00102394
0.000513837
0.000247634
0.000116095
5.31977e-05
2.39065e-05
1.05632e-05
4.59885e-06
1.97651e-06
8.4002e-07
3.53585e-07
1.476e-07
6.11562e-08
2.51476e-08
1.02359e-08
4.08765e-09
1.55966e-09
5.20723e-10
9.12774e-11
4.58669e-07
2.00499e-06
4.60769e-06
8.97441e-06
1.62655e-05
2.8362e-05
4.82717e-05
8.07279e-05
0.000133043
0.000216271
0.000346694
0.000547583
0.000850993
0.00129915
0.00194469
0.0028485
0.00407539
0.00568691
0.00773313
0.0102456
0.0132335
0.0166841
0.0205656
0.0248326
0.0294304
0.0342996
0.0393795
0.0446101
0.0499343
0.0552989
0.0606555
0.0659613
0.0711791
0.0762778
0.0812317
0.0860204
0.0906273
0.0950392
0.0992472
0.103247
0.107038
0.110619
0.113994
0.117165
0.120137
0.122915
0.125505
0.127912
0.130141
0.132196
0.134079
0.135791
0.137328
0.138686
0.139852
0.14081
0.141533
0.141978
0.1421
0.141823
0.141031
0.139561
0.136382
0.125451
0.114395
0.103384
0.0925562
0.0820192
0.0718631
0.0621628
0.0529832
0.0443833
0.0364192
0.0291672
0.0226411
0.0169317
0.0120965
0.00818183
0.00519882
0.00309144
0.00172365
0.000907304
0.000454873
0.000219524
0.000103188
4.74421e-05
2.13997e-05
9.49252e-06
4.14894e-06
1.78992e-06
7.6342e-07
3.22379e-07
1.34955e-07
5.60527e-08
2.30955e-08
9.41587e-09
3.76493e-09
1.43787e-09
4.80358e-10
8.4218e-11
4.60926e-07
2.01477e-06
4.62977e-06
9.01627e-06
1.63384e-05
2.84821e-05
4.846e-05
8.10098e-05
0.000133442
0.000216798
0.00034733
0.000548258
0.000851525
0.00129909
0.00194306
0.00284396
0.00406614
0.00567078
0.00770779
0.0102089
0.0131838
0.0166204
0.020488
0.0247419
0.0293283
0.0341886
0.0392624
0.0444902
0.0498149
0.0551834
0.0605473
0.0658638
0.0710954
0.0762102
0.0811815
0.0859875
0.0906111
0.0950401
0.0992664
0.103285
0.107093
0.11069
0.114079
0.117263
0.120247
0.123035
0.125633
0.128047
0.13028
0.132337
0.13422
0.135929
0.137462
0.138813
0.13997
0.140916
0.141625
0.142054
0.142162
0.141881
0.141109
0.139718
0.134053
0.123129
0.11207
0.101064
0.0902557
0.0797585
0.0696646
0.0600499
0.05098
0.0425136
0.0347072
0.0276118
0.0212854
0.01579
0.0111779
0.00748628
0.00471103
0.00277827
0.00154002
0.00080816
0.000404915
0.000195637
9.21433e-05
4.24665e-05
1.92043e-05
8.54013e-06
3.7416e-06
1.61774e-06
6.91358e-07
2.92462e-07
1.22617e-07
5.0994e-08
2.10335e-08
8.58248e-09
3.43391e-09
1.31206e-09
4.38455e-10
7.68692e-11
4.62061e-07
2.01962e-06
4.64046e-06
9.03586e-06
1.63711e-05
2.8533e-05
4.85344e-05
8.11099e-05
0.000133562
0.000216915
0.000347379
0.000548071
0.00085077
0.00129725
0.00193943
0.00283757
0.00405577
0.00565505
0.00768533
0.0101785
0.0131447
0.0165723
0.0204312
0.0246772
0.0292572
0.034113
0.0391845
0.0444126
0.0497406
0.0551153
0.060488
0.0658152
0.0710588
0.076186
0.0811704
0.0859909
0.0906306
0.0950763
0.0993189
0.103353
0.107176
0.110787
0.114189
0.117384
0.120377
0.123173
0.125777
0.128194
0.13043
0.132487
0.134368
0.136073
0.137599
0.138941
0.140086
0.141018
0.14171
0.142119
0.142206
0.141901
0.141101
0.139674
0.131679
0.120784
0.10975
0.0987723
0.0880049
0.077566
0.0675496
0.0580326
0.0490801
0.0407502
0.0331148
0.0261885
0.0200507
0.0147566
0.0103528
0.00686651
0.00427933
0.00250211
0.00137781
0.00071993
0.000359901
0.000173841
8.19341e-05
3.7811e-05
1.71283e-05
7.63174e-06
3.35048e-06
1.45162e-06
6.21599e-07
2.63442e-07
1.10637e-07
4.60804e-08
1.90308e-08
7.77325e-09
3.11253e-09
1.18991e-09
3.97771e-10
6.97329e-11
4.62551e-07
2.02168e-06
4.64487e-06
9.04357e-06
1.63831e-05
2.85501e-05
4.85562e-05
8.11326e-05
0.000133572
0.000216875
0.000347211
0.000547638
0.000849845
0.00129547
0.00193628
0.00283235
0.00404763
0.00564306
0.00766862
0.0101564
0.0131169
0.0165388
0.0203925
0.0246344
0.0292117
0.0340666
0.0391394
0.0443707
0.0497038
0.0550851
0.0604655
0.0658013
0.0710549
0.0761941
0.0811922
0.0860271
0.0906812
0.0951412
0.0993977
0.103445
0.10728
0.110903
0.114314
0.117518
0.120518
0.123319
0.125927
0.128346
0.130582
0.132636
0.134513
0.136211
0.137727
0.139055
0.140183
0.141093
0.141759
0.142137
0.142192
0.14185
0.141011
0.139559
0.129511
0.118651
0.107626
0.0966641
0.0859294
0.0755441
0.0656028
0.056181
0.0473423
0.0391432
0.0316669
0.0249009
0.0189401
0.0138344
0.00962352
0.0063249
0.00390667
0.00226645
0.00124066
0.000645758
0.000322135
0.000155527
7.33223e-05
3.38616e-05
1.53547e-05
6.84957e-06
3.0109e-06
1.30619e-06
5.60041e-07
2.37645e-07
9.99177e-08
4.16585e-08
1.72198e-08
7.03854e-09
2.8198e-09
1.07837e-09
3.60561e-10
6.31995e-11
4.62678e-07
2.02219e-06
4.64581e-06
9.04481e-06
1.6384e-05
2.85484e-05
4.85466e-05
8.11034e-05
0.000133501
0.000216719
0.0003469
0.000547052
0.000848799
0.0012937
0.00193341
0.00282792
0.00404112
0.00563396
0.00765649
0.010141
0.0130983
0.0165175
0.0203692
0.0246101
0.0291877
0.0340442
0.0391197
0.0443549
0.0496927
0.0550801
0.0604685
0.0658142
0.071079
0.0762302
0.0812406
0.0860881
0.0907547
0.0952269
0.0994951
0.103553
0.107398
0.11103
0.114449
0.117659
0.120664
0.123468
0.126078
0.128496
0.130729
0.132779
0.134648
0.136335
0.137837
0.139146
0.140249
0.141128
0.141754
0.14208
0.142074
0.141659
0.140744
0.139247
0.128262
0.11707
0.105875
0.09484
0.0840938
0.0737398
0.063861
0.0545253
0.0457911
0.0377105
0.0303631
0.0237401
0.0179458
0.0130185
0.00898697
0.00585764
0.00358837
0.00206667
0.00112486
0.00058314
0.000290159
0.000139955
6.59636e-05
3.04696e-05
1.3824e-05
6.17142e-06
2.71527e-06
1.17912e-06
5.06084e-07
2.14971e-07
9.04737e-08
3.7755e-08
1.56185e-08
6.38794e-09
2.56028e-09
9.79401e-10
3.27526e-10
5.73963e-11
4.62635e-07
2.02196e-06
4.64511e-06
9.04294e-06
1.63794e-05
2.85381e-05
4.85248e-05
8.10591e-05
0.000133414
0.000216558
0.000346608
0.000546545
0.000847947
0.00129232
0.00193127
0.00282475
0.00403663
0.00562795
0.00764888
0.0101319
0.013088
0.0165065
0.0203582
0.0245998
0.0291788
0.0340374
0.0391163
0.0443564
0.0497008
0.0550962
0.0604936
0.0658491
0.0711242
0.0762862
0.0813075
0.0861659
0.0908433
0.0953257
0.0996035
0.103671
0.107523
0.111162
0.114586
0.117801
0.120808
0.123614
0.126223
0.12864
0.130869
0.132912
0.134772
0.136446
0.137931
0.139218
0.140291
0.141129
0.141695
0.14194
0.141815
0.141218
0.14002
0.138077
0.126862
0.115519
0.10424
0.093173
0.0824363
0.0721237
0.0623117
0.0530638
0.0444347
0.0364734
0.0292498
0.0227786
0.0171207
0.0123294
0.00844605
0.00546279
0.00332098
0.00189975
0.00102847
0.000531107
0.000263578
0.000126985
5.98166e-05
2.76262e-05
1.25359e-05
5.59854e-06
2.46456e-06
1.07094e-06
4.59987e-07
1.95536e-07
8.23552e-08
3.43909e-08
1.42353e-08
5.82499e-09
2.33539e-09
8.93548e-10
2.98861e-10
5.23548e-11
4.62528e-07
2.02147e-06
4.64385e-06
9.04013e-06
1.63736e-05
2.85264e-05
4.8502e-05
8.10162e-05
0.000133336
0.000216419
0.00034637
0.00054615
0.000847315
0.00129135
0.00192985
0.00282276
0.00403401
0.00562469
0.00764507
0.0101278
0.0130838
0.0165026
0.0203551
0.0245984
0.0291801
0.0340429
0.039127
0.0443734
0.0497249
0.0551282
0.0605342
0.0658987
0.0711833
0.0763548
0.0813858
0.0862536
0.09094
0.095431
0.0997166
0.103791
0.10765
0.111293
0.114721
0.117938
0.120947
0.123753
0.126361
0.128774
0.130998
0.133035
0.134886
0.136549
0.138019
0.139286
0.140336
0.141142
0.141667
0.141862
0.141665
0.140967
0.139621
0.136741
0.125416
0.114009
0.102703
0.0916399
0.0809331
0.0706727
0.0609324
0.0517742
0.0432534
0.0354236
0.0283423
0.022007
0.0164749
0.0117876
0.00800473
0.00513364
0.00309777
0.00176052
0.000948151
0.000487754
0.000241413
0.000116152
5.46724e-05
2.52415e-05
1.14533e-05
5.11595e-06
2.25289e-06
9.79426e-07
4.2091e-07
1.79031e-07
7.54487e-08
3.15246e-08
1.30554e-08
5.3442e-09
2.14316e-09
8.20121e-10
2.74344e-10
4.80385e-11
4.62434e-07
2.02104e-06
4.64278e-06
9.03782e-06
1.63689e-05
2.85173e-05
4.84849e-05
8.09851e-05
0.000133281
0.000216326
0.000346217
0.000545908
0.000846949
0.00129082
0.00192913
0.00282183
0.00403289
0.00562342
0.00764379
0.0101267
0.0130835
0.0165038
0.0203586
0.0246051
0.0291909
0.0340585
0.0391482
0.0444009
0.0497595
0.0551703
0.0605843
0.0659571
0.0712502
0.0764301
0.0814694
0.0863453
0.0910392
0.0955371
0.099829
0.103908
0.107772
0.111419
0.11485
0.118068
0.121077
0.123882
0.126487
0.128897
0.131116
0.133146
0.134989
0.136642
0.138101
0.139356
0.140391
0.141182
0.141691
0.141875
0.141676
0.140998
0.139719
0.135271
0.123954
0.11256
0.101277
0.0902484
0.0795887
0.0693877
0.0597185
0.0506426
0.0422166
0.0344876
0.0274656
0.0212275
0.0158226
0.0112933
0.00763909
0.00485607
0.00290867
0.00164307
0.00088071
0.000451489
0.000222916
0.000107124
5.03859e-05
2.32537e-05
1.055e-05
4.7128e-06
2.07582e-06
9.02746e-07
3.88117e-07
1.65159e-07
6.96355e-08
2.91089e-08
1.20598e-08
4.93814e-09
1.98068e-09
7.58028e-10
2.53605e-10
4.43892e-11
4.62384e-07
2.02081e-06
4.64221e-06
9.03658e-06
1.63664e-05
2.85124e-05
4.84758e-05
8.09688e-05
0.000133253
0.00021628
0.000346145
0.000545799
0.000846794
0.00129061
0.00192888
0.00282159
0.00403276
0.00562363
0.0076447
0.0101288
0.0130873
0.0165098
0.0203676
0.0246177
0.0292078
0.0340804
0.0391758
0.0444347
0.0498
0.0552179
0.0606392
0.0660195
0.07132
0.0765073
0.0815537
0.0864362
0.0911364
0.0956399
0.0999366
0.10402
0.107887
0.111536
0.114968
0.118187
0.121195
0.123998
0.126601
0.129007
0.13122
0.133245
0.13508
0.136724
0.138173
0.139417
0.140441
0.141221
0.141719
0.141893
0.141689
0.141011
0.139737
0.133921
0.122615
0.111245
0.0999952
0.0890115
0.0784079
0.0682723
0.058675
0.0496745
0.0413196
0.0336417
0.0267044
0.0205571
0.015247
0.0108119
0.00727332
0.00461587
0.00274433
0.00154238
0.000823661
0.000421092
0.000207503
9.96213e-05
4.68296e-05
2.16053e-05
9.80086e-06
4.37825e-06
1.92874e-06
8.38985e-07
3.60815e-07
1.53595e-07
6.4784e-08
2.70907e-08
1.12272e-08
4.59831e-09
1.84463e-09
7.06013e-10
2.36217e-10
4.13336e-11
4.6238e-07
2.02078e-06
4.64211e-06
9.0363e-06
1.63657e-05
2.85109e-05
4.84728e-05
8.09635e-05
0.000133245
0.000216267
0.000346128
0.000545784
0.000846799
0.00129068
0.00192907
0.00282204
0.00403367
0.00562528
0.00764744
0.0101331
0.0130936
0.0165188
0.0203798
0.0246337
0.0292282
0.0341058
0.0392066
0.0444714
0.0498428
0.0552671
0.0606949
0.0660818
0.0713887
0.0765823
0.0816346
0.0865227
0.0912278
0.0957357
0.100036
0.104122
0.107991
0.111641
0.115074
0.118292
0.121299
0.1241
0.126699
0.129101
0.131309
0.133327
0.135155
0.136792
0.138232
0.139466
0.140479
0.141247
0.141734
0.141899
0.141685
0.141001
0.139724
0.13274
0.121444
0.110097
0.0988846
0.0879516
0.0774053
0.0673234
0.0577779
0.0488269
0.040519
0.0329145
0.0260551
0.0199912
0.0147685
0.0104232
0.00697378
0.00439774
0.0026089
0.00145891
0.000776569
0.000396157
0.000194894
9.34878e-05
4.39206e-05
2.02555e-05
9.18655e-06
4.1035e-06
1.80777e-06
7.86465e-07
3.38296e-07
1.44044e-07
6.07723e-08
2.54201e-08
1.05375e-08
4.31657e-09
1.73177e-09
6.62853e-10
2.21788e-10
3.87966e-11
4.62422e-07
2.02096e-06
4.64251e-06
9.03702e-06
1.63669e-05
2.85129e-05
4.84762e-05
8.09695e-05
0.000133256
0.000216289
0.000346171
0.000545869
0.000846962
0.00129098
0.00192962
0.00282299
0.00403524
0.00562777
0.00765123
0.0101386
0.0131013
0.0165293
0.0203935
0.0246512
0.02925
0.0341321
0.039238
0.0445081
0.0498851
0.055315
0.0607485
0.066141
0.0714534
0.0766521
0.0817093
0.0866018
0.0913108
0.0958219
0.100125
0.104213
0.108083
0.111734
0.115166
0.118383
0.121388
0.124186
0.126782
0.129179
0.131382
0.133394
0.135215
0.136843
0.138274
0.139498
0.140501
0.141258
0.141734
0.141888
0.141664
0.140971
0.139694
0.131739
0.120445
0.109116
0.0979334
0.0870272
0.0765048
0.0664603
0.0569622
0.0480682
0.0398297
0.0322946
0.0255061
0.0195161
0.0143701
0.0101033
0.00673173
0.00422844
0.00250231
0.00139566
0.000739735
0.000376221
0.00018474
8.85298e-05
4.15624e-05
1.91588e-05
8.68658e-06
3.87957e-06
1.70905e-06
7.43557e-07
3.19879e-07
1.36226e-07
5.74853e-08
2.40502e-08
9.9715e-09
4.08532e-09
1.63911e-09
6.27413e-10
2.09944e-10
3.67105e-11
4.62499e-07
2.0213e-06
4.64326e-06
9.03847e-06
1.63695e-05
2.85175e-05
4.84842e-05
8.09836e-05
0.000133281
0.000216334
0.000346252
0.000546012
0.000847214
0.00129142
0.00193035
0.00282419
0.00403714
0.00563065
0.00765546
0.0101446
0.0131095
0.0165401
0.0204074
0.0246686
0.0292712
0.0341576
0.0392679
0.0445427
0.0499244
0.0553593
0.0607975
0.0661947
0.0715115
0.0767145
0.0817754
0.0866713
0.0913833
0.0958967
0.100202
0.104291
0.108161
0.111812
0.115244
0.118459
0.121462
0.124257
0.126848
0.129241
0.131438
0.133444
0.135257
0.136878
0.1383
0.139515
0.140508
0.141256
0.141721
0.141865
0.141633
0.140931
0.13965
0.130902
0.1196
0.108279
0.0971111
0.0862317
0.0757474
0.065744
0.0562908
0.0474461
0.0392607
0.0317818
0.0250517
0.0191232
0.0140409
0.00983881
0.0065306
0.00408513
0.00240668
0.00134143
0.000710831
0.0003605
0.000176586
8.45313e-05
3.96593e-05
1.82733e-05
8.28268e-06
3.69858e-06
1.62923e-06
7.08845e-07
3.04973e-07
1.29896e-07
5.48231e-08
2.29404e-08
9.51296e-09
3.89797e-09
1.56411e-09
5.98729e-10
2.00361e-10
3.50198e-11
4.62594e-07
2.02171e-06
4.64421e-06
9.0403e-06
1.63728e-05
2.85234e-05
4.84946e-05
8.10017e-05
0.000133313
0.000216389
0.000346349
0.000546181
0.000847501
0.0012919
0.00193114
0.00282545
0.00403908
0.00563356
0.00765964
0.0101504
0.0131174
0.0165503
0.0204204
0.0246846
0.0292907
0.0341807
0.0392948
0.0445735
0.0499592
0.055398
0.0608402
0.066241
0.0715614
0.0767676
0.0818314
0.0867298
0.0914437
0.0959588
0.100265
0.104355
0.108225
0.111875
0.115305
0.118519
0.121519
0.12431
0.126898
0.129286
0.131478
0.133478
0.135284
0.136897
0.138312
0.139518
0.140502
0.141242
0.1417
0.14184
0.141609
0.140919
0.139671
0.130241
0.118926
0.107607
0.0964498
0.0855908
0.0751345
0.0651641
0.0557478
0.0469432
0.0388008
0.0313671
0.0246845
0.018806
0.0137754
0.00962588
0.00636907
0.00397044
0.00233064
0.00129374
0.000684096
0.000347351
0.000170045
8.13246e-05
3.81319e-05
1.75641e-05
7.96004e-06
3.55425e-06
1.56565e-06
6.81222e-07
2.9312e-07
1.24865e-07
5.27085e-08
2.20594e-08
9.14945e-09
3.74969e-09
1.5048e-09
5.76043e-10
1.92781e-10
3.36805e-11
4.62689e-07
2.02212e-06
4.64516e-06
9.04216e-06
1.63762e-05
2.85294e-05
4.85052e-05
8.10203e-05
0.000133345
0.000216445
0.000346446
0.000546346
0.00084778
0.00129236
0.00193189
0.00282662
0.00404087
0.0056362
0.0076634
0.0101556
0.0131243
0.0165592
0.0204316
0.0246984
0.0293072
0.0342002
0.0393174
0.0445992
0.0499881
0.05543
0.0608752
0.0662789
0.0716018
0.0768103
0.0818762
0.0867761
0.0914913
0.0960072
0.100313
0.104403
0.108273
0.111922
0.115351
0.118562
0.12156
0.124348
0.126932
0.129316
0.131503
0.133496
0.135296
0.136902
0.138309
0.139507
0.140483
0.141214
0.141664
0.141798
0.141563
0.14087
0.139627
0.129706
0.118383
0.107065
0.0959217
0.0850823
0.0746499
0.064707
0.0553209
0.0465486
0.0384405
0.0310427
0.0243976
0.0185584
0.0135687
0.00946074
0.00624446
0.00388271
0.00227341
0.00125906
0.000664441
0.000336717
0.000164939
7.89178e-05
3.6983e-05
1.7026e-05
7.71358e-06
3.4437e-06
1.51691e-06
6.60058e-07
2.84047e-07
1.2102e-07
5.10953e-08
2.13887e-08
8.87281e-09
3.63681e-09
1.45963e-09
5.58759e-10
1.87004e-10
3.26574e-11
4.62773e-07
2.02249e-06
4.64599e-06
9.04379e-06
1.63792e-05
2.85347e-05
4.85144e-05
8.10364e-05
0.000133373
0.000216494
0.000346528
0.000546486
0.000848015
0.00129274
0.00193251
0.00282759
0.00404233
0.00563834
0.00766644
0.0101598
0.0131298
0.0165663
0.0204405
0.0247093
0.0293202
0.0342154
0.0393349
0.0446191
0.0500103
0.0554545
0.0609018
0.0663075
0.0716322
0.0768422
0.0819091
0.08681
0.0915258
0.096042
0.100348
0.104438
0.108307
0.111955
0.115382
0.118591
0.121586
0.124372
0.126952
0.129331
0.131513
0.133501
0.135295
0.136894
0.138294
0.139485
0.140453
0.141176
0.141619
0.141748
0.141509
0.140819
0.139587
0.129326
0.117983
0.106662
0.0955263
0.084701
0.0742871
0.0643655
0.0550027
0.0462552
0.0381732
0.0308026
0.0241857
0.018376
0.0134168
0.00933973
0.00615352
0.00381903
0.00223209
0.00123415
0.000650351
0.000329136
0.000161014
7.70099e-05
3.61165e-05
1.66325e-05
7.53628e-06
3.36476e-06
1.48221e-06
6.44995e-07
2.77587e-07
1.1828e-07
4.99441e-08
2.09092e-08
8.67478e-09
3.55592e-09
1.42724e-09
5.4638e-10
1.8286e-10
3.19208e-11
4.62833e-07
2.02275e-06
4.6466e-06
9.04497e-06
1.63814e-05
2.85385e-05
4.85211e-05
8.1048e-05
0.000133393
0.000216528
0.000346587
0.000546586
0.000848181
0.00129302
0.00193294
0.00282826
0.00404335
0.00563983
0.00766854
0.0101626
0.0131336
0.0165712
0.0204466
0.0247167
0.0293291
0.0342258
0.0393468
0.0446325
0.0500253
0.0554709
0.0609196
0.0663265
0.0716522
0.076863
0.0819305
0.0868316
0.0915475
0.0960636
0.10037
0.104459
0.108327
0.111974
0.115399
0.118607
0.1216
0.124382
0.126959
0.129335
0.131513
0.133496
0.135285
0.136879
0.138272
0.139456
0.140417
0.141135
0.141572
0.141697
0.141458
0.140772
0.139556
0.129075
0.117713
0.106388
0.0952569
0.0844416
0.0740411
0.0641348
0.0547887
0.0460588
0.0379949
0.030643
0.0240453
0.0182556
0.0133168
0.00926043
0.00609423
0.00377773
0.00220543
0.00121813
0.000641304
0.000324289
0.000158586
7.58224e-05
3.55449e-05
1.63722e-05
7.41976e-06
3.31321e-06
1.4597e-06
6.3528e-07
2.73439e-07
1.16525e-07
4.92076e-08
2.06025e-08
8.54813e-09
3.50416e-09
1.4065e-09
5.38462e-10
1.80204e-10
3.14459e-11
4.62866e-07
2.0229e-06
4.64693e-06
9.0456e-06
1.63825e-05
2.85405e-05
4.85246e-05
8.10539e-05
0.000133403
0.000216545
0.000346617
0.000546635
0.000848262
0.00129315
0.00193315
0.00282859
0.00404385
0.00564056
0.00766957
0.010164
0.0131354
0.0165736
0.0204496
0.0247204
0.0293334
0.0342309
0.0393527
0.0446392
0.0500327
0.055479
0.0609283
0.0663358
0.071662
0.0768731
0.0819408
0.0868419
0.0915575
0.0960733
0.100379
0.104467
0.108335
0.111981
0.115406
0.118612
0.121604
0.124385
0.12696
0.129333
0.131509
0.133489
0.135274
0.136864
0.138253
0.139433
0.140389
0.141102
0.141535
0.141657
0.141419
0.140739
0.139538
0.128951
0.117573
0.106244
0.0951153
0.0843062
0.0739138
0.0640166
0.0546801
0.0459599
0.037906
0.030564
0.0239764
0.0181969
0.0132685
0.00922242
0.00606602
0.00375824
0.00219296
0.00121069
0.000637118
0.00032205
0.000157472
7.52801e-05
3.52852e-05
1.62492e-05
7.36353e-06
3.2882e-06
1.44877e-06
6.30569e-07
2.71431e-07
1.15677e-07
4.88522e-08
2.04547e-08
8.48707e-09
3.4792e-09
1.39649e-09
5.34643e-10
1.7892e-10
3.12126e-11
4.62872e-07
2.02292e-06
4.64699e-06
9.04571e-06
1.63827e-05
2.85409e-05
4.85252e-05
8.10549e-05
0.000133405
0.000216548
0.000346621
0.000546641
0.000848272
0.00129316
0.00193317
0.00282862
0.00404389
0.00564061
0.00766964
0.0101641
0.0131355
0.0165737
0.0204497
0.0247205
0.0293336
0.034231
0.0393528
0.0446393
0.0500328
0.0554792
0.0609285
0.0663359
0.0716622
0.0768733
0.081941
0.0868421
0.0915576
0.0960734
0.100379
0.104468
0.108335
0.111981
0.115406
0.118612
0.121604
0.124385
0.12696
0.129333
0.131509
0.133489
0.135274
0.136864
0.138253
0.139433
0.140389
0.141102
0.141535
0.141657
0.141419
0.140739
0.139538
0.128951
0.117573
0.106244
0.0951151
0.084306
0.0739136
0.0640164
0.0546799
0.0459597
0.0379058
0.0305639
0.0239763
0.0181968
0.0132684
0.00922231
0.00606593
0.00375818
0.00219292
0.00121066
0.000637103
0.000322043
0.000157468
7.52783e-05
3.52844e-05
1.62488e-05
7.36338e-06
3.28814e-06
1.44874e-06
6.30559e-07
2.71427e-07
1.15675e-07
4.88515e-08
2.04544e-08
8.48695e-09
3.47916e-09
1.39648e-09
5.34647e-10
1.78916e-10
3.12059e-11
4.6285e-07
2.02283e-06
4.64677e-06
9.0453e-06
1.6382e-05
2.85395e-05
4.85228e-05
8.10508e-05
0.000133398
0.000216535
0.000346599
0.000546604
0.000848208
0.00129306
0.001933
0.00282834
0.00404346
0.00563998
0.00766873
0.0101628
0.0131338
0.0165715
0.0204469
0.0247171
0.0293295
0.0342262
0.0393473
0.044633
0.0500258
0.0554714
0.0609201
0.066327
0.0716527
0.0768635
0.081931
0.0868321
0.091548
0.096064
0.10037
0.104459
0.108327
0.111974
0.1154
0.118607
0.1216
0.124383
0.12696
0.129335
0.131513
0.133497
0.135286
0.136879
0.138272
0.139457
0.140418
0.141135
0.141572
0.141697
0.141458
0.140773
0.139556
0.129074
0.117713
0.106388
0.0952562
0.084441
0.0740404
0.0641342
0.0547881
0.0460582
0.0379944
0.0306425
0.0240448
0.0182551
0.0133164
0.00926012
0.00609398
0.00377755
0.00220531
0.00121806
0.000641264
0.000324268
0.000158576
7.58175e-05
3.55426e-05
1.63712e-05
7.41937e-06
3.31305e-06
1.45963e-06
6.3525e-07
2.73427e-07
1.1652e-07
4.92055e-08
2.06017e-08
8.54776e-09
3.50402e-09
1.40646e-09
5.38469e-10
1.80186e-10
3.14313e-11
4.62801e-07
2.02261e-06
4.64628e-06
9.04433e-06
1.63802e-05
2.85364e-05
4.85173e-05
8.10411e-05
0.000133381
0.000216506
0.000346548
0.000546517
0.000848061
0.00129281
0.00193261
0.00282773
0.00404252
0.00563859
0.00766676
0.0101601
0.0131302
0.0165669
0.0204411
0.02471
0.0293209
0.0342162
0.0393357
0.0446199
0.0500112
0.0554553
0.0609026
0.0663083
0.071633
0.076843
0.08191
0.0868108
0.0915266
0.0960427
0.100349
0.104438
0.108308
0.111955
0.115383
0.118592
0.121587
0.124372
0.126952
0.129331
0.131514
0.133501
0.135296
0.136895
0.138294
0.139485
0.140453
0.141177
0.14162
0.141749
0.141511
0.14082
0.139589
0.129325
0.117982
0.106661
0.0955253
0.0847
0.074286
0.0643644
0.0550016
0.0462542
0.0381722
0.0308017
0.0241848
0.0183752
0.0134161
0.00933916
0.00615308
0.00381871
0.00223187
0.00123402
0.000650281
0.000329099
0.000160996
7.70015e-05
3.61128e-05
1.6631e-05
7.53559e-06
3.36446e-06
1.48208e-06
6.44941e-07
2.77564e-07
1.1827e-07
4.99401e-08
2.09075e-08
8.6741e-09
3.55566e-09
1.42717e-09
5.46389e-10
1.82829e-10
3.18983e-11
4.62728e-07
2.02229e-06
4.64555e-06
9.04292e-06
1.63776e-05
2.85318e-05
4.85092e-05
8.10268e-05
0.000133356
0.000216463
0.000346473
0.000546388
0.000847844
0.00129245
0.00193203
0.00282681
0.00404113
0.00563654
0.00766384
0.0101561
0.0131249
0.01656
0.0204325
0.0246994
0.0293082
0.0342012
0.0393185
0.0446004
0.0499893
0.0554312
0.0608764
0.0662801
0.071603
0.0768115
0.0818773
0.0867772
0.0914924
0.0960082
0.100314
0.104404
0.108274
0.111923
0.115352
0.118563
0.121561
0.124349
0.126933
0.129316
0.131503
0.133496
0.135297
0.136903
0.138309
0.139508
0.140484
0.141215
0.141665
0.1418
0.141565
0.140873
0.13963
0.129707
0.118383
0.107064
0.0959201
0.0850806
0.0746482
0.0647053
0.0553193
0.0465471
0.038439
0.0310414
0.0243964
0.0185573
0.0135677
0.00945993
0.00624383
0.00388227
0.00227312
0.00125889
0.000664344
0.000336667
0.000164915
7.89065e-05
3.6978e-05
1.70237e-05
7.71256e-06
3.44325e-06
1.51672e-06
6.59976e-07
2.84013e-07
1.21006e-07
5.10895e-08
2.13863e-08
8.87182e-09
3.63643e-09
1.45954e-09
5.58757e-10
1.86959e-10
3.26267e-11
4.62643e-07
2.02192e-06
4.6447e-06
9.04125e-06
1.63746e-05
2.85264e-05
4.84996e-05
8.10101e-05
0.000133326
0.000216411
0.000346384
0.000546234
0.000847583
0.00129202
0.00193132
0.00282569
0.00403942
0.005634
0.0076602
0.0101511
0.0131182
0.0165512
0.0204215
0.0246858
0.0292919
0.034182
0.0392962
0.0445749
0.0499607
0.0553995
0.0608417
0.0662426
0.0715629
0.0767691
0.0818329
0.0867312
0.0914451
0.0959601
0.100266
0.104356
0.108226
0.111876
0.115306
0.11852
0.12152
0.124311
0.126899
0.129287
0.131479
0.133478
0.135285
0.136898
0.138312
0.139519
0.140503
0.141243
0.141701
0.141842
0.141611
0.140921
0.139674
0.130237
0.118923
0.107604
0.0964473
0.0855885
0.0751321
0.0651618
0.0557456
0.0469411
0.0387989
0.0313653
0.0246829
0.0188045
0.0137741
0.00962484
0.00636827
0.00396986
0.00233027
0.00129351
0.000683974
0.000347289
0.000170017
8.13107e-05
3.8125e-05
1.75609e-05
7.95859e-06
3.55363e-06
1.56538e-06
6.81112e-07
2.93075e-07
1.24846e-07
5.27007e-08
2.20562e-08
9.14812e-09
3.74919e-09
1.50467e-09
5.76021e-10
1.92722e-10
3.36418e-11
4.62559e-07
2.02156e-06
4.64386e-06
9.03963e-06
1.63716e-05
2.85211e-05
4.84904e-05
8.09938e-05
0.000133298
0.00021636
0.000346294
0.000546078
0.000847313
0.00129156
0.00193057
0.00282449
0.00403754
0.00563119
0.00765613
0.0101454
0.0131105
0.0165412
0.0204087
0.02467
0.0292728
0.0341592
0.0392697
0.0445445
0.0499263
0.0553611
0.0607994
0.0661965
0.0715134
0.0767163
0.0817772
0.0866731
0.0913849
0.0958984
0.100203
0.104292
0.108163
0.111813
0.115245
0.11846
0.121463
0.124258
0.126849
0.129242
0.131439
0.133445
0.135258
0.136879
0.138301
0.139516
0.140509
0.141257
0.141722
0.141867
0.141635
0.140934
0.139654
0.130902
0.119599
0.108277
0.0971088
0.086229
0.0757447
0.0657412
0.0562881
0.0474435
0.0392583
0.0317795
0.0250497
0.0191215
0.0140394
0.00983755
0.00652963
0.00408443
0.00240622
0.00134116
0.00071068
0.000360424
0.000176548
8.45126e-05
3.96507e-05
1.82694e-05
8.28095e-06
3.69783e-06
1.6289e-06
7.08707e-07
3.04915e-07
1.29872e-07
5.48131e-08
2.29363e-08
9.51124e-09
3.89732e-09
1.56393e-09
5.98691e-10
2.0029e-10
3.49736e-11
4.62492e-07
2.02127e-06
4.64321e-06
9.03838e-06
1.63693e-05
2.85172e-05
4.84834e-05
8.09815e-05
0.000133275
0.00021632
0.000346221
0.000545946
0.000847079
0.00129115
0.00192987
0.00282334
0.00403572
0.0056284
0.00765203
0.0101396
0.0131025
0.0165306
0.0203951
0.0246529
0.0292518
0.0341341
0.03924
0.0445102
0.0498872
0.0553172
0.0607507
0.0661432
0.0714556
0.0766543
0.0817114
0.0866038
0.0913128
0.0958239
0.100127
0.104215
0.108085
0.111736
0.115168
0.118385
0.12139
0.124188
0.126783
0.12918
0.131383
0.133395
0.135216
0.136844
0.138275
0.139499
0.140502
0.14126
0.141735
0.141889
0.141666
0.140973
0.139696
0.131735
0.120441
0.109111
0.0979289
0.0870229
0.0765009
0.0664566
0.0569587
0.048065
0.0398268
0.0322919
0.0255037
0.019514
0.0143683
0.0101018
0.00673059
0.00422763
0.00250178
0.00139534
0.000739554
0.000376124
0.000184691
8.85065e-05
4.15516e-05
1.91539e-05
8.68442e-06
3.87863e-06
1.70865e-06
7.43383e-07
3.19806e-07
1.36195e-07
5.74726e-08
2.40449e-08
9.96929e-09
4.08449e-09
1.63885e-09
6.27352e-10
2.09861e-10
3.66571e-11
4.6246e-07
2.02113e-06
4.64292e-06
9.03787e-06
1.63685e-05
2.85158e-05
4.84812e-05
8.09773e-05
0.000133267
0.000216304
0.000346186
0.000545874
0.000846934
0.00129088
0.00192936
0.00282245
0.00403423
0.00562601
0.00764836
0.0101342
0.013095
0.0165204
0.0203816
0.0246357
0.0292304
0.034108
0.039209
0.0444738
0.0498453
0.0552697
0.0606975
0.0660844
0.0713913
0.0765848
0.0816371
0.0865251
0.0912302
0.0957379
0.100038
0.104124
0.107993
0.111643
0.115076
0.118294
0.121301
0.124102
0.1267
0.129102
0.131311
0.133328
0.135156
0.136793
0.138233
0.139467
0.140479
0.141248
0.141735
0.141899
0.141686
0.141001
0.139725
0.132733
0.121437
0.110091
0.0988786
0.0879461
0.0774003
0.0673188
0.0577737
0.0488231
0.0405156
0.0329114
0.0260523
0.0199887
0.0147664
0.0104214
0.00697244
0.0043968
0.00260829
0.00145854
0.00077636
0.000396047
0.000194838
9.3461e-05
4.3908e-05
2.02497e-05
9.18395e-06
4.10236e-06
1.80727e-06
7.8625e-07
3.38205e-07
1.44006e-07
6.07563e-08
2.54135e-08
1.05347e-08
4.31551e-09
1.73143e-09
6.62766e-10
2.21695e-10
3.87377e-11
4.62475e-07
2.0212e-06
4.64312e-06
9.03834e-06
1.63695e-05
2.85179e-05
4.8485e-05
8.09842e-05
0.000133279
0.000216321
0.000346209
0.000545899
0.000846948
0.00129084
0.00192921
0.00282205
0.00403339