/*--------------------------------*- C++ -*----------------------------------*\
  =========                 |
  \\      /  F ield         | OpenFOAM: The Open Source CFD Toolbox
   \\    /   O peration     | Website:  https://openfoam.org
    \\  /    A nd           | Version:  8
     \\/     M anipulation  |
\*---------------------------------------------------------------------------*/
FoamFile
{
    version     2.0;
    format      ascii;
    class       volScalarField;
    location    "440/fluid";
    object      N2;
}
// * * * * * * * * * * * * * * * * * * * * * * * * * * * * * * * * * * * * * //

dimensions      [0 0 0 0 0 0 0];

internalField   nonuniform List<scalar> 
4000
(
2.17691e-06
9.51032e-06
2.18314e-05
4.24609e-05
7.68463e-05
0.000133837
0.000227643
0.000380756
0.000628195
0.00102338
0.00164586
0.00261055
0.00407752
0.0062595
0.00942338
0.0138805
0.0199621
0.027984
0.0381941
0.0507392
0.0656485
0.0828354
0.102119
0.123251
0.145945
0.169895
0.194796
0.220353
0.246289
0.272351
0.298311
0.32397
0.349157
0.373729
0.397571
0.420591
0.44272
0.463905
0.484113
0.503328
0.521545
0.538771
0.555023
0.570321
0.584696
0.59818
0.610809
0.622623
0.633661
0.643962
0.653568
0.662518
0.670851
0.678605
0.685816
0.692521
0.698752
0.704535
0.709775
0.714776
0.719424
0.723744
0.727712
0.731516
0.73515
0.738623
0.741936
0.745092
0.74809
0.750927
0.753601
0.756106
0.758434
0.760572
0.76252
0.764259
0.765773
0.767045
0.768059
0.768812
0.769325
0.769642
0.769822
0.769915
0.769961
0.769982
0.769992
0.769997
0.769999
0.769999
0.77
0.77
0.77
0.77
0.77
0.77
0.77
0.77
0.77
0.77
2.19258e-06
9.58228e-06
2.20116e-05
4.28508e-05
7.76331e-05
0.000135348
0.000230416
0.000385631
0.000636376
0.00103641
0.00166537
0.00263771
0.00411186
0.00629725
0.00945505
0.0138895
0.019926
0.0278706
0.0379725
0.0503853
0.065147
0.082183
0.101325
0.122334
0.144932
0.168817
0.193685
0.219239
0.2452
0.271308
0.297333
0.323071
0.348346
0.373013
0.396952
0.420071
0.442295
0.463571
0.483866
0.503163
0.521458
0.538752
0.555063
0.570415
0.584837
0.598362
0.611027
0.622872
0.633935
0.644257
0.65388
0.662844
0.671187
0.678948
0.686164
0.69287
0.6991
0.704885
0.710122
0.715125
0.719773
0.724093
0.728055
0.731859
0.735497
0.738973
0.74229
0.745449
0.74845
0.751289
0.753962
0.756464
0.758786
0.760909
0.76284
0.764554
0.766034
0.767263
0.768226
0.768927
0.769396
0.769681
0.76984
0.769923
0.769964
0.769984
0.769993
0.769997
0.769999
0.769999
0.77
0.77
0.77
0.77
0.77
0.77
0.77
0.77
0.77
0.77
2.21751e-06
9.69361e-06
2.22776e-05
4.33928e-05
7.86577e-05
0.000137189
0.000233581
0.000390834
0.000644531
0.00104857
0.00168253
0.0026603
0.00413911
0.00632648
0.0094816
0.0139062
0.0199183
0.0278181
0.0378508
0.050169
0.0648148
0.0817212
0.100728
0.121609
0.144092
0.167884
0.192684
0.2182
0.244149
0.270274
0.29634
0.322139
0.347492
0.372251
0.396291
0.419515
0.441848
0.463236
0.483644
0.503045
0.521432
0.538813
0.555206
0.570632
0.58512
0.598705
0.611422
0.623311
0.634413
0.644767
0.654417
0.663401
0.67176
0.679532
0.686756
0.693467
0.6997
0.705448
0.710694
0.715702
0.720351
0.724668
0.728618
0.73242
0.736057
0.739532
0.742847
0.746002
0.748996
0.751824
0.754481
0.756962
0.759257
0.761344
0.763233
0.764896
0.766318
0.767483
0.768384
0.76903
0.769455
0.769712
0.769856
0.76993
0.769967
0.769985
0.769993
0.769997
0.769999
0.769999
0.77
0.77
0.77
0.77
0.77
0.77
0.77
0.77
0.77
0.77
2.23499e-06
9.76989e-06
2.24523e-05
4.37305e-05
7.9259e-05
0.000138203
0.00023522
0.000393374
0.000648297
0.00105385
0.00168937
0.00266825
0.00414668
0.00633042
0.00947604
0.0138801
0.0198585
0.0277111
0.037682
0.0499249
0.0644848
0.0812992
0.100214
0.121007
0.143411
0.167139
0.191893
0.217381
0.243324
0.269463
0.295562
0.321413
0.346834
0.371673
0.395805
0.419133
0.441574
0.463067
0.483569
0.503062
0.521543
0.539014
0.55549
0.570992
0.58555
0.599197
0.611969
0.623905
0.635046
0.645434
0.65511
0.664115
0.67249
0.680273
0.687503
0.694215
0.700445
0.706154
0.711372
0.716367
0.721007
0.725317
0.729268
0.733077
0.736716
0.740188
0.743496
0.746639
0.749616
0.752422
0.755052
0.757499
0.759753
0.761798
0.763634
0.765239
0.766599
0.767699
0.768538
0.769131
0.769515
0.769745
0.769872
0.769938
0.769971
0.769987
0.769994
0.769997
0.769999
0.769999
0.77
0.77
0.77
0.77
0.77
0.77
0.77
0.77
0.77
0.77
2.24608e-06
9.8179e-06
2.25608e-05
4.39361e-05
7.96169e-05
0.000138792
0.000236144
0.000394757
0.000650256
0.00105644
0.0016925
0.00267158
0.00414935
0.00633026
0.00946827
0.0138583
0.0198138
0.027633
0.0375591
0.0497466
0.0642431
0.0809896
0.0998361
0.120565
0.142914
0.166598
0.191322
0.216795
0.24274
0.268898
0.295033
0.320935
0.346422
0.37134
0.395557
0.418968
0.44149
0.463066
0.483658
0.503243
0.52181
0.539363
0.555915
0.571488
0.586109
0.599812
0.612633
0.624612
0.635789
0.646205
0.655904
0.664925
0.673311
0.681099
0.68833
0.695039
0.701263
0.706954
0.712155
0.717123
0.721727
0.72601
0.729974
0.733783
0.737416
0.740878
0.744172
0.747296
0.750248
0.753025
0.755621
0.758027
0.760236
0.762235
0.764015
0.76556
0.766857
0.767895
0.768675
0.769219
0.769567
0.769773
0.769886
0.769945
0.769974
0.769988
0.769995
0.769998
0.769999
0.77
0.77
0.77
0.77
0.77
0.77
0.77
0.77
0.77
0.77
0.77
2.2517e-06
9.84194e-06
2.26138e-05
4.40333e-05
7.97792e-05
0.000139046
0.000236514
0.000395257
0.000650859
0.00105704
0.00169279
0.00267077
0.00414582
0.00632149
0.00945081
0.0138274
0.0197636
0.0275567
0.0374501
0.0495992
0.0640532
0.0807556
0.0995595
0.12025
0.142568
0.166229
0.190941
0.216416
0.242377
0.268564
0.294741
0.320695
0.346241
0.371218
0.395498
0.418979
0.441581
0.463239
0.483912
0.503575
0.522217
0.539841
0.556458
0.572091
0.586766
0.600516
0.613378
0.62539
0.636595
0.647033
0.656747
0.665779
0.674169
0.681958
0.689185
0.695887
0.702098
0.707747
0.712914
0.717868
0.722466
0.726711
0.730687
0.734487
0.738108
0.741555
0.744829
0.74793
0.750855
0.7536
0.756159
0.758525
0.760684
0.762635
0.764361
0.76585
0.767089
0.768069
0.768796
0.769296
0.769612
0.769798
0.769899
0.769951
0.769977
0.769989
0.769995
0.769998
0.769999
0.77
0.77
0.77
0.77
0.77
0.77
0.77
0.77
0.77
0.77
0.77
2.25417e-06
9.85232e-06
2.2636e-05
4.40722e-05
7.98401e-05
0.000139133
0.000236627
0.000395378
0.000650926
0.00105688
0.00169202
0.00266872
0.0041414
0.00631296
0.00943565
0.0138022
0.0197242
0.0274987
0.0373691
0.049492
0.0639181
0.080593
0.0993716
0.120042
0.142346
0.166003
0.190721
0.216211
0.242196
0.268415
0.294629
0.320624
0.346218
0.371253
0.395599
0.419151
0.441824
0.463553
0.484296
0.504025
0.522731
0.540414
0.557085
0.572766
0.587484
0.601271
0.614164
0.626202
0.637426
0.647877
0.6576
0.666634
0.675023
0.682805
0.690021
0.696709
0.702893
0.708508
0.713683
0.718622
0.723195
0.727376
0.731359
0.73515
0.738758
0.742188
0.745441
0.748518
0.751415
0.754128
0.756652
0.758979
0.761092
0.762997
0.764673
0.766109
0.767293
0.768221
0.768901
0.769363
0.769651
0.769818
0.769909
0.769956
0.769979
0.76999
0.769996
0.769998
0.769999
0.77
0.77
0.77
0.77
0.77
0.77
0.77
0.77
0.77
0.77
0.77
2.25486e-06
9.8551e-06
2.26413e-05
4.40795e-05
7.98465e-05
0.000139129
0.000236587
0.000395247
0.000650595
0.00105614
0.00169054
0.00266592
0.00413638
0.00630442
0.00942179
0.0137808
0.0196928
0.0274547
0.0373104
0.0494174
0.063828
0.0804894
0.0992585
0.119924
0.142229
0.165893
0.190625
0.216133
0.242141
0.268389
0.294641
0.320684
0.346332
0.371426
0.395833
0.419447
0.442181
0.463971
0.484772
0.504558
0.523315
0.541046
0.557761
0.57348
0.588231
0.602045
0.61496
0.627014
0.638249
0.648707
0.658431
0.667462
0.675843
0.683613
0.690812
0.697478
0.703646
0.709179
0.71446
0.719357
0.723894
0.72802
0.731985
0.73576
0.739352
0.742764
0.745997
0.749049
0.751919
0.754602
0.757093
0.759384
0.761459
0.763323
0.764953
0.766338
0.767472
0.768352
0.768991
0.769419
0.769684
0.769836
0.769918
0.769961
0.769981
0.769991
0.769996
0.769998
0.769999
0.77
0.77
0.77
0.77
0.77
0.77
0.77
0.77
0.77
0.77
0.77
2.25471e-06
9.85427e-06
2.26385e-05
4.40717e-05
7.98265e-05
0.000139082
0.000236487
0.00039504
0.000650189
0.00105538
0.00168915
0.0026635
0.0041323
0.0062978
0.00941152
0.0137655
0.0196711
0.0274257
0.0372737
0.0493735
0.0637782
0.0804362
0.099205
0.119874
0.142186
0.16586
0.190607
0.216139
0.242179
0.268466
0.294762
0.320853
0.346552
0.371698
0.396159
0.419827
0.442614
0.464455
0.485306
0.505137
0.523937
0.541705
0.558454
0.574202
0.588977
0.60281
0.615739
0.627803
0.639043
0.649502
0.659222
0.668246
0.676616
0.684373
0.691556
0.698204
0.704338
0.70985
0.715126
0.720005
0.724519
0.728618
0.732561
0.736318
0.739891
0.743284
0.746495
0.749523
0.752366
0.75502
0.757478
0.759733
0.761772
0.763593
0.765184
0.766532
0.767624
0.768463
0.769066
0.769466
0.769711
0.769851
0.769926
0.769964
0.769983
0.769992
0.769996
0.769998
0.769999
0.77
0.77
0.77
0.77
0.77
0.77
0.77
0.77
0.77
0.77
0.77
2.25425e-06
9.85211e-06
2.26329e-05
4.40591e-05
7.97998e-05
0.000139028
0.00023638
0.000394839
0.00064982
0.00105472
0.00168802
0.00266161
0.00412928
0.00629316
0.0094047
0.013756
0.0196586
0.02741
0.0372554
0.0493535
0.063758
0.0804174
0.0991902
0.119867
0.142193
0.165887
0.19066
0.216222
0.242297
0.268623
0.294961
0.321096
0.346841
0.372034
0.396542
0.420257
0.44309
0.464974
0.485865
0.505733
0.524567
0.542365
0.559139
0.574908
0.5897
0.603545
0.616482
0.62855
0.63979
0.650245
0.659957
0.668971
0.677328
0.685069
0.692234
0.698864
0.704942
0.710433
0.715689
0.72055
0.725047
0.729135
0.733067
0.736811
0.74037
0.743745
0.746937
0.749943
0.752761
0.755386
0.757812
0.760029
0.762026
0.763809
0.765365
0.766684
0.767748
0.768556
0.769128
0.769505
0.769733
0.769863
0.769932
0.769967
0.769985
0.769993
0.769997
0.769999
0.769999
0.77
0.77
0.77
0.77
0.77
0.77
0.77
0.77
0.77
0.77
0.77
2.25384e-06
9.85023e-06
2.26282e-05
4.40487e-05
7.97784e-05
0.000138986
0.000236301
0.000394694
0.000649563
0.00105428
0.0016873
0.00266047
0.00412755
0.00629066
0.00940128
0.0137516
0.0196533
0.0274041
0.0372495
0.049349
0.0637572
0.080424
0.0992082
0.1199
0.142246
0.165964
0.190764
0.216358
0.242467
0.26883
0.295207
0.321383
0.34717
0.372405
0.396955
0.420709
0.44358
0.465501
0.486425
0.506323
0.525183
0.543004
0.559796
0.57558
0.590382
0.604235
0.617176
0.629243
0.64048
0.650928
0.660631
0.669633
0.677976
0.685701
0.692849
0.69946
0.705516
0.710985
0.716218
0.721051
0.725518
0.729596
0.733517
0.737248
0.740792
0.744151
0.747324
0.750311
0.753106
0.755706
0.758104
0.760292
0.762272
0.764028
0.765548
0.766822
0.767851
0.768634
0.769182
0.769538
0.769752
0.769873
0.769937
0.76997
0.769986
0.769993
0.769997
0.769999
0.769999
0.77
0.77
0.77
0.77
0.77
0.77
0.77
0.77
0.77
0.77
0.77
2.25363e-06
9.84928e-06
2.26258e-05
4.40433e-05
7.97674e-05
0.000138964
0.00023626
0.00039462
0.000649436
0.00105407
0.00168697
0.00265997
0.00412684
0.00628971
0.00940017
0.0137506
0.0196528
0.0274054
0.0372543
0.0493595
0.0637761
0.0804541
0.0992528
0.119963
0.14233
0.166072
0.1909
0.216525
0.242667
0.269065
0.295478
0.321691
0.347515
0.372787
0.397372
0.421161
0.444064
0.466014
0.486965
0.506887
0.525767
0.543605
0.56041
0.576204
0.591013
0.604869
0.617809
0.629874
0.641104
0.651544
0.661237
0.670225
0.678553
0.686262
0.693392
0.699984
0.706013
0.711454
0.716661
0.721473
0.72592
0.729998
0.73391
0.73763
0.741161
0.744504
0.74766
0.750626
0.7534
0.755978
0.758355
0.760529
0.762485
0.764215
0.765709
0.766957
0.767953
0.768701
0.769228
0.769566
0.769768
0.769881
0.769942
0.769972
0.769987
0.769994
0.769997
0.769999
0.769999
0.77
0.77
0.77
0.77
0.77
0.77
0.77
0.77
0.77
0.77
0.77
2.25364e-06
9.84928e-06
2.26256e-05
4.40425e-05
7.9765e-05
0.000138959
0.000236248
0.000394599
0.0006494
0.00105402
0.0016869
0.00265993
0.00412691
0.0062901
0.00940123
0.0137529
0.0196575
0.0274137
0.037268
0.0493808
0.0638076
0.0804986
0.0993132
0.120042
0.142431
0.166198
0.191053
0.216707
0.242879
0.269309
0.295755
0.322001
0.347857
0.373161
0.397777
0.421594
0.444524
0.466498
0.48747
0.507411
0.526306
0.544156
0.560971
0.576771
0.591583
0.605439
0.618377
0.630437
0.64166
0.65209
0.661772
0.670747
0.679061
0.686753
0.693866
0.700437
0.706439
0.711862
0.717056
0.721849
0.726273
0.730349
0.734251
0.737959
0.741476
0.744804
0.747942
0.750893
0.753652
0.756216
0.758579
0.760732
0.762666
0.764373
0.765843
0.767066
0.768037
0.768762
0.769266
0.769589
0.769781
0.769888
0.769945
0.769974
0.769988
0.769994
0.769997
0.769999
0.769999
0.77
0.77
0.77
0.77
0.77
0.77
0.77
0.77
0.77
0.77
0.77
2.25387e-06
9.85027e-06
2.26277e-05
4.40465e-05
7.97717e-05
0.00013897
0.000236267
0.000394632
0.00064946
0.00105413
0.00168713
0.00266037
0.00412774
0.00629164
0.00940398
0.0137577
0.0196653
0.0274261
0.0372868
0.0494082
0.063846
0.0805505
0.0993812
0.120129
0.142538
0.166329
0.191209
0.216889
0.24309
0.269548
0.296023
0.322298
0.348182
0.373513
0.398154
0.421995
0.444947
0.46694
0.487929
0.507884
0.526791
0.54465
0.561471
0.577274
0.592087
0.605942
0.618876
0.63093
0.642145
0.652566
0.662236
0.6712
0.6795
0.687178
0.694274
0.700829
0.706813
0.71222
0.717396
0.722173
0.726567
0.730645
0.734539
0.738238
0.741744
0.745063
0.748194
0.751134
0.75388
0.756428
0.758772
0.760905
0.76282
0.764506
0.765955
0.767156
0.768105
0.76881
0.769296
0.769607
0.769792
0.769894
0.769948
0.769975
0.769988
0.769995
0.769998
0.769999
0.77
0.77
0.77
0.77
0.77
0.77
0.77
0.77
0.77
0.77
0.77
0.77
2.25426e-06
9.85197e-06
2.26316e-05
4.40538e-05
7.9785e-05
0.000138993
0.000236308
0.000394703
0.000649586
0.00105436
0.00168753
0.00266108
0.00412899
0.00629379
0.00940761
0.0137636
0.0196747
0.0274404
0.0373077
0.0494378
0.0638864
0.080604
0.0994501
0.120215
0.142644
0.166456
0.191359
0.217062
0.243287
0.269771
0.296271
0.32257
0.348477
0.37383
0.398493
0.422353
0.445323
0.467332
0.488333
0.508299
0.527215
0.54508
0.561905
0.57771
0.592522
0.606374
0.619304
0.631351
0.642559
0.652971
0.662631
0.671584
0.67987
0.687534
0.694617
0.701161
0.707126
0.712519
0.717681
0.722442
0.726806
0.730892
0.734782
0.738474
0.741974
0.745284
0.748405
0.751333
0.754066
0.756601
0.758931
0.761048
0.762946
0.764616
0.766047
0.76723
0.768161
0.76885
0.769322
0.769622
0.7698
0.769898
0.76995
0.769976
0.769989
0.769995
0.769998
0.769999
0.77
0.77
0.77
0.77
0.77
0.77
0.77
0.77
0.77
0.77
0.77
0.77
2.25473e-06
9.854e-06
2.26362e-05
4.40629e-05
7.98014e-05
0.000139022
0.000236359
0.000394792
0.000649743
0.00105463
0.00168801
0.00266191
0.0041304
0.00629617
0.0094115
0.0137698
0.0196843
0.0274547
0.0373284
0.0494666
0.0639252
0.0806547
0.0995145
0.120295
0.142741
0.166571
0.191493
0.217217
0.243463
0.269967
0.296488
0.322807
0.348734
0.374105
0.398785
0.422661
0.445644
0.467665
0.488677
0.508651
0.527573
0.545442
0.562269
0.578075
0.592886
0.606735
0.61966
0.631702
0.642903
0.653307
0.662957
0.671898
0.680174
0.687828
0.694902
0.701435
0.707385
0.712765
0.717915
0.722663
0.726999
0.731092
0.734976
0.738662
0.742157
0.745461
0.748573
0.751493
0.754217
0.75674
0.759058
0.761163
0.763048
0.764704
0.766121
0.767289
0.768206
0.768882
0.769344
0.769636
0.769807
0.769902
0.769952
0.769977
0.769989
0.769995
0.769998
0.769999
0.77
0.77
0.77
0.77
0.77
0.77
0.77
0.77
0.77
0.77
0.77
0.77
2.2552e-06
9.85603e-06
2.26409e-05
4.40719e-05
7.98179e-05
0.000139051
0.00023641
0.000394882
0.0006499
0.00105491
0.00168848
0.00266271
0.00413177
0.00629842
0.00941515
0.0137756
0.0196931
0.0274676
0.0373469
0.0494921
0.0639593
0.0806989
0.0995702
0.120364
0.142824
0.166669
0.191607
0.217348
0.24361
0.270131
0.296668
0.323003
0.348946
0.374331
0.399024
0.422913
0.445906
0.467936
0.488956
0.508936
0.527862
0.545734
0.562562
0.578367
0.593177
0.607023
0.619945
0.631981
0.643176
0.653572
0.663215
0.672149
0.680419
0.688065
0.69513
0.701653
0.70759
0.712961
0.718101
0.722841
0.727157
0.731248
0.735128
0.738812
0.742301
0.745599
0.748705
0.751618
0.754333
0.756849
0.759158
0.761253
0.763128
0.764773
0.766178
0.767335
0.768241
0.768906
0.76936
0.769645
0.769813
0.769905
0.769954
0.769978
0.76999
0.769995
0.769998
0.769999
0.77
0.77
0.77
0.77
0.77
0.77
0.77
0.77
0.77
0.77
0.77
0.77
2.2556e-06
9.85777e-06
2.26449e-05
4.40797e-05
7.98322e-05
0.000139077
0.000236455
0.00039496
0.000650034
0.00105514
0.00168888
0.00266339
0.0041329
0.00630029
0.00941816
0.0137803
0.0197002
0.0274781
0.0373618
0.0495125
0.0639864
0.0807339
0.0996142
0.120418
0.142889
0.166745
0.191696
0.217449
0.243724
0.270257
0.296807
0.323154
0.349108
0.374504
0.399207
0.423104
0.446105
0.468142
0.489167
0.509151
0.52808
0.545953
0.562783
0.578587
0.593395
0.607239
0.620157
0.63219
0.643379
0.653771
0.66341
0.672339
0.680602
0.688242
0.6953
0.701816
0.707743
0.713107
0.71824
0.722974
0.727275
0.731363
0.73524
0.738921
0.742407
0.745701
0.748802
0.751709
0.75442
0.756929
0.759231
0.761319
0.763186
0.764823
0.76622
0.767369
0.768266
0.768924
0.769371
0.769652
0.769817
0.769907
0.769955
0.769978
0.76999
0.769995
0.769998
0.769999
0.77
0.77
0.77
0.77
0.77
0.77
0.77
0.77
0.77
0.77
0.77
0.77
2.25588e-06
9.85902e-06
2.26477e-05
4.40853e-05
7.98424e-05
0.000139095
0.000236486
0.000395015
0.000650129
0.0010553
0.00168916
0.00266387
0.0041337
0.0063016
0.00942025
0.0137835
0.0197051
0.0274854
0.037372
0.0495265
0.0640051
0.0807579
0.0996443
0.120455
0.142933
0.166797
0.191756
0.217517
0.243801
0.270343
0.296901
0.323256
0.349217
0.374621
0.39933
0.423233
0.446239
0.46828
0.489308
0.509294
0.528225
0.5461
0.562929
0.578733
0.59354
0.607382
0.620298
0.632328
0.643516
0.653905
0.66354
0.672465
0.680724
0.688359
0.695413
0.701924
0.707845
0.713204
0.718333
0.723062
0.727354
0.731438
0.735314
0.738992
0.742476
0.745767
0.748866
0.75177
0.754476
0.756981
0.759279
0.761363
0.763224
0.764856
0.766248
0.767391
0.768283
0.768936
0.769379
0.769657
0.769819
0.769909
0.769955
0.769979
0.76999
0.769995
0.769998
0.769999
0.77
0.77
0.77
0.77
0.77
0.77
0.77
0.77
0.77
0.77
0.77
0.77
2.25603e-06
9.85967e-06
2.26492e-05
4.40882e-05
7.98476e-05
0.000139104
0.000236502
0.000395042
0.000650176
0.00105538
0.0016893
0.0026641
0.00413408
0.00630223
0.00942126
0.0137851
0.0197075
0.0274889
0.037377
0.0495334
0.0640141
0.0807696
0.0996591
0.120473
0.142955
0.166823
0.191786
0.217551
0.243839
0.270386
0.296947
0.323306
0.349271
0.374678
0.399391
0.423296
0.446305
0.468348
0.489378
0.509366
0.528298
0.546173
0.563002
0.578807
0.593613
0.607455
0.620369
0.632398
0.643584
0.653972
0.663605
0.672527
0.680784
0.688418
0.695469
0.701978
0.707896
0.713252
0.718379
0.723105
0.727392
0.731475
0.73535
0.739027
0.74251
0.7458
0.748897
0.751799
0.754504
0.757007
0.759302
0.761384
0.763243
0.764872
0.766261
0.767401
0.768291
0.768941
0.769382
0.769659
0.76982
0.769909
0.769956
0.769979
0.76999
0.769995
0.769998
0.769999
0.77
0.77
0.77
0.77
0.77
0.77
0.77
0.77
0.77
0.77
0.77
0.77
2.25605e-06
9.85975e-06
2.26494e-05
4.40885e-05
7.98482e-05
0.000139105
0.000236504
0.000395045
0.000650182
0.00105539
0.00168931
0.00266412
0.00413412
0.00630228
0.00942134
0.0137852
0.0197077
0.0274891
0.0373773
0.0495337
0.0640145
0.0807701
0.0996596
0.120473
0.142955
0.166824
0.191786
0.217552
0.24384
0.270386
0.296948
0.323307
0.349272
0.374679
0.399392
0.423297
0.446306
0.468349
0.489379
0.509367
0.528298
0.546173
0.563003
0.578807
0.593613
0.607455
0.62037
0.632399
0.643585
0.653972
0.663605
0.672528
0.680785
0.688418
0.695469
0.701978
0.707896
0.713252
0.718379
0.723106
0.727393
0.731475
0.73535
0.739028
0.74251
0.7458
0.748897
0.7518
0.754504
0.757007
0.759302
0.761384
0.763243
0.764872
0.766261
0.767401
0.768291
0.768941
0.769382
0.769659
0.76982
0.769909
0.769956
0.769979
0.76999
0.769995
0.769998
0.769999
0.77
0.77
0.77
0.77
0.77
0.77
0.77
0.77
0.77
0.77
0.77
0.77
2.25594e-06
9.85927e-06
2.26483e-05
4.40864e-05
7.98444e-05
0.000139098
0.000236492
0.000395025
0.000650146
0.00105533
0.0016892
0.00266393
0.0041338
0.00630175
0.00942048
0.0137838
0.0197056
0.027486
0.0373728
0.0495275
0.0640062
0.0807593
0.0996459
0.120456
0.142935
0.1668
0.191758
0.21752
0.243804
0.270346
0.296903
0.323259
0.34922
0.374623
0.399332
0.423235
0.446241
0.468282
0.48931
0.509296
0.528227
0.546102
0.562931
0.578735
0.593542
0.607384
0.6203
0.63233
0.643517
0.653906
0.663541
0.672466
0.680725
0.68836
0.695414
0.701925
0.707846
0.713204
0.718334
0.723062
0.727354
0.731438
0.735314
0.738992
0.742476
0.745768
0.748866
0.75177
0.754476
0.756981
0.759279
0.761363
0.763225
0.764856
0.766248
0.767391
0.768283
0.768936
0.769379
0.769657
0.769819
0.769909
0.769955
0.769979
0.76999
0.769995
0.769998
0.769999
0.77
0.77
0.77
0.77
0.77
0.77
0.77
0.77
0.77
0.77
0.77
0.77
2.25569e-06
9.8582e-06
2.26459e-05
4.40816e-05
7.98357e-05
0.000139083
0.000236465
0.000394977
0.000650063
0.00105518
0.00168895
0.00266351
0.00413308
0.00630056
0.00941856
0.0137808
0.019701
0.0274792
0.0373631
0.0495142
0.0639885
0.0807363
0.099617
0.120421
0.142892
0.166749
0.191699
0.217453
0.243728
0.270262
0.296811
0.323158
0.349112
0.374509
0.399211
0.423108
0.446109
0.468146
0.489171
0.509154
0.528083
0.545957
0.562786
0.57859
0.593398
0.607242
0.62016
0.632192
0.643382
0.653773
0.663412
0.672341
0.680604
0.688243
0.695301
0.701817
0.707745
0.713108
0.718241
0.722974
0.727276
0.731363
0.735241
0.738921
0.742407
0.745701
0.748802
0.75171
0.75442
0.756929
0.759231
0.761319
0.763186
0.764823
0.76622
0.767369
0.768267
0.768924
0.769371
0.769652
0.769817
0.769907
0.769955
0.769978
0.76999
0.769995
0.769998
0.769999
0.77
0.77
0.77
0.77
0.77
0.77
0.77
0.77
0.77
0.77
0.77
0.77
2.25534e-06
9.85664e-06
2.26423e-05
4.40747e-05
7.9823e-05
0.00013906
0.000236425
0.000394907
0.000649941
0.00105497
0.00168859
0.00266288
0.00413202
0.00629881
0.00941572
0.0137764
0.0196942
0.0274691
0.0373488
0.0494944
0.0639621
0.0807022
0.099574
0.120368
0.142829
0.166674
0.191612
0.217353
0.243616
0.270137
0.296674
0.323009
0.348952
0.374337
0.39903
0.422918
0.445912
0.467942
0.488961
0.508941
0.527866
0.545738
0.562566
0.578372
0.593181
0.607027
0.619948
0.631985
0.643179
0.653575
0.663217
0.672151
0.680421
0.688067
0.695132
0.701655
0.707592
0.712962
0.718103
0.722842
0.727158
0.731249
0.735129
0.738812
0.742302
0.7456
0.748706
0.751618
0.754334
0.756849
0.759158
0.761253
0.763128
0.764773
0.766178
0.767335
0.768241
0.768906
0.76936
0.769645
0.769813
0.769905
0.769954
0.769978
0.76999
0.769995
0.769998
0.769999
0.77
0.77
0.77
0.77
0.77
0.77
0.77
0.77
0.77
0.77
0.77
0.77
2.25492e-06
9.85481e-06
2.26381e-05
4.40665e-05
7.9808e-05
0.000139034
0.000236378
0.000394825
0.000649797
0.00105472
0.00168815
0.00266213
0.00413074
0.00629667
0.00941224
0.0137709
0.0196857
0.0274566
0.0373308
0.0494696
0.0639289
0.080659
0.0995194
0.120301
0.142747
0.166578
0.1915
0.217225
0.243471
0.269975
0.296496
0.322815
0.348742
0.374113
0.398793
0.422669
0.445651
0.467672
0.488684
0.508657
0.527579
0.545448
0.562275
0.57808
0.59289
0.606739
0.619665
0.631706
0.642907
0.65331
0.662961
0.671901
0.680177
0.687831
0.694905
0.701437
0.707387
0.712767
0.717916
0.722665
0.727001
0.731093
0.734977
0.738663
0.742158
0.745462
0.748574
0.751494
0.754217
0.756741
0.759059
0.761164
0.763049
0.764704
0.766121
0.767289
0.768207
0.768882
0.769344
0.769636
0.769807
0.769902
0.769952
0.769977
0.769989
0.769995
0.769998
0.769999
0.77
0.77
0.77
0.77
0.77
0.77
0.77
0.77
0.77
0.77
0.77
0.77
2.25449e-06
9.85297e-06
2.26339e-05
4.40583e-05
7.97931e-05
0.000139007
0.000236332
0.000394744
0.000649654
0.00105447
0.0016877
0.00266135
0.00412941
0.00629442
0.00940853
0.0137649
0.0196765
0.0274427
0.0373108
0.0494416
0.063891
0.0806093
0.0994561
0.120222
0.142652
0.166464
0.191367
0.217071
0.243297
0.26978
0.29628
0.322579
0.348487
0.37384
0.398502
0.422363
0.445331
0.46734
0.488342
0.508307
0.527222
0.545087
0.561911
0.577716
0.592528
0.60638
0.619309
0.631356
0.642564
0.652976
0.662635
0.671587
0.679874
0.687537
0.69462
0.701164
0.707129
0.712521
0.717683
0.722444
0.726807
0.730893
0.734782
0.738475
0.741975
0.745285
0.748405
0.751334
0.754067
0.756602
0.758931
0.761049
0.762947
0.764616
0.766047
0.76723
0.768161
0.76885
0.769322
0.769622
0.7698
0.769899
0.76995
0.769976
0.769989
0.769995
0.769998
0.769999
0.77
0.77
0.77
0.77
0.77
0.77
0.77
0.77
0.77
0.77
0.77
0.77
2.25415e-06
9.85149e-06
2.26305e-05
4.40519e-05
7.97816e-05
0.000138987
0.000236297
0.000394681
0.000649541
0.00105427
0.00168734
0.00266069
0.00412824
0.00629239
0.00940508
0.0137592
0.0196675
0.0274289
0.0372904
0.0494127
0.0638514
0.0805568
0.0993884
0.120137
0.142547
0.166338
0.191219
0.2169
0.243101
0.26956
0.296035
0.322309
0.348193
0.373524
0.398165
0.422006
0.444957
0.46695
0.487939
0.507893
0.5268
0.544658
0.561479
0.577282
0.592094
0.605948
0.618882
0.630935
0.64215
0.652571
0.662241
0.671204
0.679504
0.687182
0.694277
0.700832
0.706815
0.712223
0.717399
0.722175
0.726569
0.730647
0.734541
0.73824
0.741746
0.745064
0.748195
0.751135
0.753881
0.756429
0.758773
0.760906
0.76282
0.764507
0.765955
0.767156
0.768105
0.76881
0.769296
0.769607
0.769792
0.769894
0.769948
0.769975
0.769988
0.769995
0.769998
0.769999
0.77
0.77
0.77
0.77
0.77
0.77
0.77
0.77
0.77
0.77
0.77
0.77
2.25397e-06
9.85072e-06
2.26289e-05
4.40489e-05
7.97767e-05
0.000138979
0.000236283
0.000394657
0.000649496
0.00105417
0.00168715
0.00266032
0.0041275
0.00629098
0.00940252
0.0137548
0.01966
0.027417
0.0372723
0.0493861
0.0638139
0.080506
0.0993216
0.120052
0.142441
0.166209
0.191065
0.216719
0.242892
0.269322
0.295769
0.322015
0.347871
0.373174
0.39779
0.421607
0.444536
0.46651
0.487481
0.507421
0.526316
0.544166
0.56098
0.57678
0.591591
0.605447
0.618384
0.630443
0.641666
0.652096
0.661777
0.670752
0.679065
0.686757
0.69387
0.700441
0.706442
0.711865
0.717058
0.721851
0.726275
0.730351
0.734253
0.737961
0.741478
0.744805
0.747944
0.750894
0.753653
0.756217
0.75858
0.760733
0.762667
0.764374
0.765844
0.767067
0.768037
0.768762
0.769266
0.769589
0.769781
0.769889
0.769945
0.769974
0.769988
0.769994
0.769997
0.769999
0.769999
0.77
0.77
0.77
0.77
0.77
0.77
0.77
0.77
0.77
0.77
0.77
2.25401e-06
9.85092e-06
2.26295e-05
4.40506e-05
7.97806e-05
0.000138987
0.000236299
0.000394686
0.000649544
0.00105425
0.00168725
0.00266041
0.00412752
0.00629075
0.00940167
0.0137527
0.0196557
0.0274092
0.0372592
0.0493655
0.0637834
0.0804626
0.0992624
0.119974
0.142341
0.166085
0.190914
0.216539
0.242681
0.26908
0.295493
0.321707
0.34753
0.372802
0.397387
0.421175
0.444078
0.466027
0.486977
0.506899
0.525778
0.543615
0.560421
0.576214
0.591022
0.604877
0.617817
0.629881
0.641111
0.65155
0.661242
0.670231
0.678558
0.686267
0.693397
0.699988
0.706016
0.711457
0.716664
0.721476
0.725922
0.73
0.733913
0.737632
0.741163
0.744506
0.747662
0.750628
0.753402
0.755979
0.758356
0.76053
0.762486
0.764216
0.76571
0.766958
0.767954
0.768701
0.769228
0.769566
0.769768
0.769882
0.769942
0.769972
0.769987
0.769994
0.769997
0.769999
0.769999
0.77
0.77
0.77
0.77
0.77
0.77
0.77
0.77
0.77
0.77
0.77
2.25426e-06
9.85208e-06
2.26324e-05
4.4057e-05
7.97935e-05
0.000139012
0.000236346
0.000394769
0.000649687
0.00105448
0.00168762
0.00266096
0.0041283
0.00629179
0.00940293
0.013754
0.0196565
0.0274084
0.0372551
0.0493559
0.0637656
0.0804337
0.0992192
0.119913
0.142259
0.165978
0.190779
0.216374
0.242483
0.268847
0.295224
0.3214
0.347187
0.372422
0.396971
0.420725
0.443596
0.465516
0.486439
0.506337
0.525196
0.543016
0.559808
0.575591
0.590392
0.604245
0.617184
0.629251
0.640487
0.650935
0.660637
0.669639
0.677981
0.685706
0.692854
0.699464
0.70552
0.710988
0.716221
0.721054
0.725521
0.729599
0.73352
0.73725
0.740794
0.744153
0.747326
0.750312
0.753108
0.755707
0.758105
0.760293
0.762273
0.764028
0.765549
0.766823
0.767851
0.768634
0.769182
0.769538
0.769752
0.769873
0.769937
0.76997
0.769986
0.769993
0.769997
0.769999
0.769999
0.77
0.77
0.77
0.77
0.77
0.77
0.77
0.77
0.77
0.77
0.77
2.25473e-06
9.85423e-06
2.26378e-05
4.40685e-05
7.98169e-05
0.000139058
0.000236432
0.000394925
0.00064996
0.00105495
0.00168838
0.00266218
0.00413014
0.00629445
0.00940657
0.0137586
0.0196622
0.0274148
0.0372615
0.0493611
0.0637673
0.0804282
0.0992026
0.119881
0.142208
0.165903
0.190677
0.21624
0.242315
0.268641
0.294979
0.321115
0.346859
0.372053
0.396561
0.420275
0.443107
0.464991
0.485881
0.505749
0.524581
0.542379
0.559152
0.57492
0.589711
0.603556
0.616492
0.628559
0.639798
0.650252
0.659964
0.668977
0.677333
0.685074
0.692239
0.698867
0.704945
0.710436
0.715693
0.720554
0.725051
0.729139
0.733071
0.736814
0.740373
0.743748
0.746939
0.749946
0.752763
0.755388
0.757813
0.76003
0.762028
0.76381
0.765366
0.766684
0.767748
0.768556
0.769129
0.769505
0.769733
0.769863
0.769932
0.769967
0.769985
0.769993
0.769997
0.769999
0.769999
0.77
0.77
0.77
0.77
0.77
0.77
0.77
0.77
0.77
0.77
0.77
2.25525e-06
9.85664e-06
2.2644e-05
4.40823e-05
7.98457e-05
0.000139116
0.000236544
0.000395136
0.000650346
0.00105563
0.00168956
0.00266413
0.00413327
0.00629925
0.00941363
0.0137685
0.0196752
0.027431
0.0372805
0.0493819
0.0637883
0.080448
0.0992184
0.119889
0.142202
0.165878
0.190626
0.216159
0.2422
0.268487
0.294783
0.320874
0.346573
0.371719
0.396179
0.419846
0.442633
0.464474
0.485323
0.505154
0.523953
0.541721
0.558468
0.574215
0.588989
0.602822
0.61575
0.627813
0.639052
0.649509
0.659228
0.668251
0.67662
0.684376
0.691558
0.698205
0.70434
0.709856
0.715133
0.720012
0.724526
0.728623
0.732566
0.736322
0.739895
0.743287
0.746498
0.749526
0.752369
0.755022
0.757479
0.759735
0.761773
0.763594
0.765185
0.766533
0.767625
0.768464
0.769066
0.769466
0.769711
0.769851
0.769926
0.769964
0.769983
0.769992
0.769996
0.769998
0.769999
0.77
0.77
0.77
0.77
0.77
0.77
0.77
0.77
0.77
0.77
0.77
2.25546e-06
9.85774e-06
2.26473e-05
4.40914e-05
7.98679e-05
0.000139166
0.000236651
0.000395353
0.000650769
0.00105642
0.00169099
0.00266662
0.00413746
0.00630602
0.00942413
0.0137841
0.0196973
0.0274607
0.0373182
0.049427
0.0638394
0.0805026
0.0992734
0.11994
0.142247
0.165913
0.190645
0.216154
0.242163
0.268412
0.294664
0.320708
0.346355
0.371449
0.395855
0.419469
0.442202
0.463991
0.484792
0.504576
0.523333
0.541063
0.557777
0.573495
0.588244
0.602058
0.614971
0.627025
0.638259
0.648715
0.658438
0.667468
0.675847
0.683617
0.690815
0.69748
0.703649
0.709182
0.714468
0.719366
0.723902
0.728027
0.73199
0.735765
0.739356
0.742768
0.746
0.749052
0.751922
0.754604
0.757095
0.759386
0.76146
0.763324
0.764954
0.766339
0.767473
0.768353
0.768991
0.769419
0.769684