/*--------------------------------*- C++ -*----------------------------------*\
  =========                 |
  \\      /  F ield         | OpenFOAM: The Open Source CFD Toolbox
   \\    /   O peration     | Website:  https://openfoam.org
    \\  /    A nd           | Version:  8
     \\/     M anipulation  |
\*---------------------------------------------------------------------------*/
FoamFile
{
    version     2.0;
    format      ascii;
    class       volScalarField;
    location    "440/fluid";
    object      O2;
}
// * * * * * * * * * * * * * * * * * * * * * * * * * * * * * * * * * * * * * //

dimensions      [0 0 0 0 0 0 0];

internalField   nonuniform List<scalar> 
4000
(
4.32669e-10
1.88887e-09
4.32897e-09
8.39773e-09
1.5143e-08
2.62486e-08
4.43835e-08
7.37109e-08
1.20601e-07
1.94577e-07
3.09482e-07
4.84752e-07
7.46514e-07
1.12799e-06
1.66854e-06
2.41096e-06
3.3969e-06
4.65189e-06
6.19699e-06
8.02763e-06
1.01168e-05
1.24199e-05
1.48801e-05
1.74345e-05
2.00188e-05
2.25718e-05
2.50375e-05
2.73665e-05
2.95175e-05
3.14578e-05
3.31642e-05
3.46268e-05
3.58537e-05
3.68804e-05
3.77827e-05
3.86914e-05
3.98061e-05
4.14063e-05
4.38609e-05
4.76407e-05
5.33438e-05
6.16981e-05
7.36364e-05
9.0479e-05
0.000113818
0.000145726
0.000188904
0.00024688
0.000324257
0.000427043
0.000563061
0.000742482
0.000978503
0.00128821
0.00169368
0.00222341
0.00291414
0.00381082
0.00494737
0.00645998
0.00842017
0.0109625
0.014226
0.0301876
0.0466229
0.0631864
0.0796183
0.09572
0.111337
0.126346
0.140646
0.15415
0.166777
0.178419
0.189064
0.198581
0.20687
0.213829
0.219377
0.223498
0.226304
0.228041
0.229023
0.229535
0.229785
0.229903
0.229957
0.229981
0.229992
0.229997
0.229999
0.229999
0.23
0.23
0.23
0.23
0.23
0.23
0.23
0.23
4.41818e-10
1.93016e-09
4.42924e-09
8.60687e-09
1.55505e-08
2.70098e-08
4.57597e-08
7.61295e-08
1.24736e-07
2.01444e-07
3.20556e-07
5.02083e-07
7.7282e-07
1.16659e-06
1.72238e-06
2.48172e-06
3.48133e-06
4.76848e-06
6.35241e-06
8.2268e-06
1.03657e-05
1.2725e-05
1.5248e-05
1.78709e-05
2.05286e-05
2.3158e-05
2.57014e-05
2.81074e-05
3.0333e-05
3.23437e-05
3.41154e-05
3.56374e-05
3.69179e-05
3.79942e-05
3.8946e-05
3.99107e-05
4.10978e-05
4.28017e-05
4.5411e-05
4.93981e-05
5.53363e-05
6.40202e-05
7.65716e-05
9.41663e-05
0.000118449
0.000151551
0.000196252
0.000256186
0.000336107
0.000442236
0.000582706
0.000768132
0.00101236
0.00133339
0.00175465
0.00230651
0.0030283
0.00397193
0.00516876
0.0067672
0.00884129
0.0115265
0.0149435
0.0313195
0.0480311
0.0647834
0.0813467
0.0975405
0.113221
0.12827
0.14259
0.156091
0.168692
0.180261
0.190816
0.200197
0.208299
0.21502
0.220292
0.224131
0.226692
0.228252
0.229125
0.22958
0.229804
0.229911
0.22996
0.229982
0.229992
0.229997
0.229999
0.229999
0.23
0.23
0.23
0.23
0.23
0.23
0.23
0.23
4.55536e-10
1.99092e-09
4.57221e-09
8.89321e-09
1.60836e-08
2.79589e-08
4.7392e-08
7.88462e-08
1.29115e-07
2.08297e-07
3.30976e-07
5.17439e-07
7.94808e-07
1.19748e-06
1.76347e-06
2.5434e-06
3.58352e-06
4.909e-06
6.53748e-06
8.46581e-06
1.06692e-05
1.31042e-05
1.57138e-05
1.84335e-05
2.11967e-05
2.39384e-05
2.65984e-05
2.91229e-05
3.14664e-05
3.35919e-05
3.54735e-05
3.70988e-05
3.84759e-05
3.96435e-05
4.0687e-05
4.17562e-05
4.30672e-05
4.49209e-05
4.76895e-05
5.19007e-05
5.83354e-05
6.78037e-05
8.12347e-05
9.99555e-05
0.000125672
0.000160596
0.000207616
0.000270516
0.000354263
0.000465385
0.00061246
0.00080676
0.0010631
0.00140098
0.00184608
0.00243225
0.0032043
0.00421453
0.00552534
0.00729808
0.00963552
0.0127255
0.016753
0.0335214
0.0505068
0.0674462
0.08413
0.100391
0.116094
0.131126
0.145389
0.158795
0.17126
0.182641
0.192969
0.202073
0.209855
0.21623
0.221157
0.224691
0.227019
0.228425
0.229209
0.229619
0.229821
0.229918
0.229963
0.229984
0.229993
0.229997
0.229999
0.229999
0.23
0.23
0.23
0.23
0.23
0.23
0.23
0.23
4.68876e-10
2.04937e-09
4.70717e-09
9.15769e-09
1.65658e-08
2.88035e-08
4.8834e-08
8.12636e-08
1.33103e-07
2.14754e-07
3.41186e-07
5.33181e-07
8.18514e-07
1.23231e-06
1.81885e-06
2.62274e-06
3.68768e-06
5.04853e-06
6.72427e-06
8.713e-06
1.09908e-05
1.35144e-05
1.62265e-05
1.90614e-05
2.19505e-05
2.48268e-05
2.76275e-05
3.02961e-05
3.27843e-05
3.50526e-05
3.70724e-05
3.88306e-05
4.0336e-05
4.16224e-05
4.27754e-05
4.3937e-05
4.53356e-05
4.73126e-05
5.04351e-05
5.52495e-05
6.23443e-05
7.25856e-05
8.70483e-05
0.000107103
0.000134513
0.000171568
0.00022126
0.000287513
0.000375484
0.000491959
0.000645875
0.00084901
0.0011169
0.00147011
0.00193585
0.00255037
0.00336211
0.00442286
0.00580764
0.0077054
0.0102451
0.0136726
0.0194778
0.0365138
0.0536815
0.0707319
0.0874685
0.103732
0.119392
0.134339
0.148475
0.161714
0.17397
0.185129
0.195169
0.203952
0.21139
0.217413
0.222002
0.225244
0.227348
0.228604
0.2293
0.229662
0.229841
0.229927
0.229967
0.229985
0.229994
0.229997
0.229999
0.23
0.23
0.23
0.23
0.23
0.23
0.23
0.23
0.23
4.81252e-10
2.10339e-09
4.83095e-09
9.39742e-09
1.69963e-08
2.95441e-08
5.00701e-08
8.32795e-08
1.36325e-07
2.19782e-07
3.4884e-07
5.44603e-07
8.36781e-07
1.26253e-06
1.86727e-06
2.69503e-06
3.79166e-06
5.19426e-06
6.92388e-06
8.98037e-06
1.1341e-05
1.3963e-05
1.67887e-05
1.97514e-05
2.27808e-05
2.58076e-05
2.87661e-05
3.15971e-05
3.42499e-05
3.66828e-05
3.88594e-05
4.07591e-05
4.2382e-05
4.37551e-05
4.49804e-05
4.62335e-05
4.78927e-05
5.03169e-05
5.38855e-05
5.92012e-05
6.69915e-05
7.81549e-05
9.38131e-05
0.000115388
0.000144704
0.000184127
0.000236744
0.000306599
0.000398994
0.000520897
0.000681461
0.000892716
0.00117049
0.00153562
0.0020156
0.0026467
0.00347694
0.00455462
0.00595307
0.00784934
0.0103493
0.0136537
0.0230782
0.0401032
0.0572718
0.074313
0.0910167
0.107217
0.122779
0.137592
0.151559
0.164591
0.176605
0.187522
0.197254
0.205708
0.212804
0.218483
0.222752
0.225726
0.227631
0.228757
0.229377
0.229699
0.229858
0.229935
0.22997
0.229987
0.229994
0.229998
0.229999
0.23
0.23
0.23
0.23
0.23
0.23
0.23
0.23
0.23
4.92667e-10
2.15322e-09
4.9452e-09
9.61936e-09
1.73973e-08
3.02399e-08
5.12416e-08
8.52148e-08
1.39467e-07
2.24834e-07
3.57539e-07
5.6021e-07
8.61802e-07
1.30006e-06
1.91989e-06
2.77038e-06
3.89936e-06
5.34613e-06
7.13388e-06
9.26423e-06
1.17157e-05
1.44458e-05
1.73966e-05
2.04999e-05
2.36836e-05
2.68771e-05
3.00107e-05
3.30177e-05
3.58396e-05
3.84268e-05
4.07367e-05
4.27478e-05
4.44738e-05
4.59697e-05
4.74388e-05
4.90656e-05
5.1041e-05
5.37759e-05
5.77857e-05
6.37059e-05
7.23089e-05
8.45387e-05
0.000101567
0.000124873
0.000156352
0.000198456
0.00025438
0.000328298
0.000425676
0.000553668
0.000721649
0.000941901
0.00123053
0.00160865
0.00210402
0.00275317
0.00360408
0.00469969
0.00611899
0.00804454
0.0105825
0.0139283
0.0267447
0.0437245
0.0608548
0.0778495
0.0944874
0.110596
0.126037
0.140699
0.154484
0.167305
0.179055
0.189711
0.199154
0.207298
0.214073
0.219436
0.223417
0.226151
0.22788
0.228892
0.229446
0.229733
0.229874
0.229942
0.229974
0.229988
0.229995
0.229998
0.229999
0.23
0.23
0.23
0.23
0.23
0.23
0.23
0.23
0.23
5.03293e-10
2.1995e-09
5.05079e-09
9.82288e-09
1.77615e-08
3.08668e-08
5.23018e-08
8.70532e-08
1.42722e-07
2.30723e-07
3.67159e-07
5.74816e-07
8.8422e-07
1.33429e-06
1.97153e-06
2.84708e-06
4.01117e-06
5.50564e-06
7.35614e-06
9.56632e-06
1.2116e-05
1.49634e-05
1.80512e-05
2.13079e-05
2.46559e-05
2.80177e-05
3.13198e-05
3.44879e-05
3.74582e-05
4.01822e-05
4.26184e-05
4.48445e-05
4.68562e-05
4.87179e-05
5.04562e-05
5.22941e-05
5.45494e-05
5.7662e-05
6.21904e-05
6.88151e-05
7.83556e-05
9.18062e-05
0.000110396
0.000135673
0.000169621
0.000214803
0.000274555
0.000353235
0.000456533
0.000591892
0.000769038
0.00100068
0.00130344
0.00169904
0.00221591
0.00289128
0.00377134
0.00490075
0.00636892
0.00834599
0.010934
0.0142962
0.0301002
0.0470269
0.0641387
0.0811058
0.0976899
0.113713
0.129037
0.14355
0.157159
0.169778
0.181283
0.191692
0.200862
0.208717
0.215195
0.22027
0.22399
0.226513
0.228091
0.229007
0.229504
0.229761
0.229887
0.229948
0.229976
0.229989
0.229995
0.229998
0.229999
0.23
0.23
0.23
0.23
0.23
0.23
0.23
0.23
0.23
5.13622e-10
2.24448e-09
5.1541e-09
1.00261e-08
1.81396e-08
3.15583e-08
5.35682e-08
8.92287e-08
1.463e-07
2.36337e-07
3.76064e-07
5.88905e-07
9.0635e-07
1.36866e-06
2.02411e-06
2.92604e-06
4.12727e-06
5.67243e-06
7.59012e-06
9.88627e-06
1.2541e-05
1.55113e-05
1.8736e-05
2.21429e-05
2.56458e-05
2.9166e-05
3.26261e-05
3.59499e-05
3.91588e-05
4.21943e-05
4.5032e-05
4.75645e-05
4.98148e-05
5.18468e-05
5.37916e-05
5.58812e-05
5.84636e-05
6.20176e-05
6.71461e-05
7.45764e-05
8.51768e-05
9.99958e-05
0.000120327
0.000147799
0.0001845
0.000233132
0.000297216
0.000381348
0.000491541
0.000635659
0.00082399
0.00106999
0.00139127
0.00181082
0.00235873
0.0030742
0.004008
0.00518956
0.00677655
0.00884497
0.0115316
0.0149438
0.0321043
0.0495084
0.0668631
0.0839317
0.100526
0.116496
0.131721
0.1461
0.159547
0.171983
0.183289
0.193478
0.202392
0.209972
0.216174
0.220988
0.22448
0.226821
0.228269
0.229103
0.229554
0.229785
0.229899
0.229953
0.229979
0.229991
0.229996
0.229998
0.229999
0.23
0.23
0.23
0.23
0.23
0.23
0.23
0.23
0.23
5.24824e-10
2.29381e-09
5.2689e-09
1.02525e-08
1.8553e-08
3.22771e-08
5.47655e-08
9.12211e-08
1.4959e-07
2.41722e-07
3.84806e-07
6.02961e-07
9.28691e-07
1.40368e-06
2.07817e-06
3.00786e-06
4.24806e-06
5.84576e-06
7.83127e-06
1.02116e-05
1.29673e-05
1.60534e-05
1.94091e-05
2.29584e-05
2.66194e-05
3.03692e-05
3.41304e-05
3.78478e-05
4.13845e-05
4.46961e-05
4.77448e-05
5.05052e-05
5.29869e-05
5.52546e-05
5.74574e-05
5.9853e-05
6.28236e-05
6.68906e-05
7.27026e-05
8.10338e-05
9.28012e-05
0.000109107
0.000131311
0.000161126
0.000200752
0.000253039
0.000321704
0.00041161
0.00052913
0.000682622
0.000883064
0.00114489
0.00148713
0.00193488
0.00252142
0.00329098
0.0043018
0.00559505
0.00735489
0.00968187
0.0127742
0.0168258
0.0343144
0.0519327
0.0694041
0.0865122
0.103086
0.118989
0.134109
0.148351
0.161635
0.173887
0.185002
0.194957
0.203661
0.211032
0.217006
0.221596
0.224891
0.227077
0.228418
0.229183
0.229594
0.229805
0.229908
0.229957
0.229981
0.229991
0.229996
0.229998
0.229999
0.23
0.23
0.23
0.23
0.23
0.23
0.23
0.23
0.23
5.35606e-10
2.34093e-09
5.37709e-09
1.04631e-08
1.89351e-08
3.29448e-08
5.5907e-08
9.31472e-08
1.52807e-07
2.47044e-07
3.9352e-07
6.17057e-07
9.51181e-07
1.43896e-06
2.13236e-06
3.08923e-06
4.36725e-06
6.01451e-06
8.06382e-06
1.05222e-05
1.33673e-05
1.65891e-05
2.01292e-05
2.39228e-05
2.79085e-05
3.19545e-05
3.59893e-05
3.99412e-05
4.37394e-05
4.73234e-05
5.06461e-05
5.36814e-05
5.64395e-05
5.89924e-05
6.1507e-05
6.42687e-05
6.76954e-05
7.2352e-05
7.89315e-05
8.82522e-05
0.000101275
0.000119153
0.000143305
0.000175523
0.000218103
0.000274027
0.000347182
0.000442649
0.000567089
0.00072924
0.000940582
0.00121623
0.00157611
0.00204658
0.00266263
0.00347086
0.00452501
0.00588396
0.00774223
0.0102112
0.0135141
0.0189244
0.0365692
0.0542768
0.071783
0.0888808
0.105405
0.121226
0.136233
0.150336
0.163453
0.175503
0.186398
0.196144
0.204655
0.211866
0.217685
0.222102
0.225234
0.227292
0.228541
0.22925
0.229629
0.229821
0.229916
0.229961
0.229982
0.229992
0.229997
0.229998
0.229999
0.23
0.23
0.23
0.23
0.23
0.23
0.23
0.23
0.23
5.45644e-10
2.38487e-09
5.47843e-09
1.06617e-08
1.92976e-08
3.35825e-08
5.70045e-08
9.50075e-08
1.55922e-07
2.52198e-07
4.01941e-07
6.30597e-07
9.72615e-07
1.47232e-06
2.18326e-06
3.16521e-06
4.47848e-06
6.17645e-06
8.30569e-06
1.08842e-05
1.39102e-05
1.7324e-05
2.10712e-05
2.50819e-05
2.92769e-05
3.35704e-05
3.78787e-05
4.2122e-05
4.62264e-05
5.0127e-05
5.37722e-05
5.7133e-05
6.02208e-05
6.31165e-05
6.60067e-05
6.92066e-05
7.31693e-05
7.85023e-05
8.59401e-05
9.63398e-05
0.000110701
0.00013022
0.000156366
0.000190996
0.000236485
0.000295913
0.000373285
0.000473826
0.000604362
0.000773825
0.000993906
0.00127993
0.00165203
0.00213666
0.00276866
0.00359403
0.00466386
0.00603239
0.00788607
0.010317
0.0135124
0.0212011
0.038831
0.0565153
0.0739837
0.0910263
0.107477
0.123205
0.138102
0.152078
0.165049
0.176943
0.187747
0.197344
0.205658
0.212626
0.218248
0.222529
0.225525
0.227472
0.228645
0.229305
0.229657
0.229835
0.229922
0.229964
0.229984
0.229993
0.229997
0.229999
0.229999
0.23
0.23
0.23
0.23
0.23
0.23
0.23
0.23
0.23
5.54953e-10
2.42527e-09
5.5705e-09
1.08406e-08
1.96219e-08
3.41522e-08
5.79872e-08
9.66768e-08
1.58719e-07
2.56821e-07
4.09463e-07
6.42668e-07
9.92362e-07
1.50463e-06
2.23594e-06
3.25061e-06
4.61554e-06
6.39255e-06
8.61673e-06
1.13079e-05
1.44579e-05
1.8031e-05
2.19705e-05
2.62042e-05
3.06508e-05
3.52245e-05
3.98395e-05
4.44125e-05
4.8866e-05
5.31307e-05
5.71508e-05
6.08949e-05
6.43758e-05
6.76848e-05
7.10307e-05
7.47586e-05
7.93558e-05
8.54694e-05
9.38713e-05
0.000105452
0.000121246
0.000142486
0.000170687
0.000207759
0.000256145
0.000318999
0.000400413
0.000505708
0.000641809
0.000817745
0.00104529
0.00133982
0.00172144
0.00221646
0.00285937
0.00369548
0.00477357
0.00614668
0.00800094
0.0104262
0.0136087
0.023285
0.0408963
0.0585438
0.0759589
0.0929314
0.109295
0.124922
0.139708
0.153568
0.166429
0.178244
0.188918
0.198375
0.206544
0.213367
0.218811
0.222899
0.225778
0.227627
0.228733
0.229352
0.229681
0.229847
0.229928
0.229967
0.229985
0.229993
0.229997
0.229999
0.229999
0.23
0.23
0.23
0.23
0.23
0.23
0.23
0.23
0.23
5.64746e-10
2.46816e-09
5.66915e-09
1.10314e-08
1.99684e-08
3.47595e-08
5.90309e-08
9.8463e-08
1.61776e-07
2.62073e-07
4.18542e-07
6.58453e-07
1.01835e-06
1.54617e-06
2.30061e-06
3.3484e-06
4.75847e-06
6.59316e-06
8.89847e-06
1.16966e-05
1.49821e-05
1.87226e-05
2.2863e-05
2.73322e-05
3.20488e-05
3.69263e-05
4.18771e-05
4.68157e-05
5.16611e-05
5.63403e-05
6.07939e-05
6.49879e-05
6.89381e-05
7.27478e-05
7.66503e-05
8.10195e-05
8.63724e-05
9.33923e-05
0.000102883
0.000115766
0.000133105
0.000156169
0.000186517
0.000226108
0.000277445
0.00034375
0.000429187
0.000539153
0.000680655
0.000862794
0.0010974
0.00139989
0.00179034
0.00229497
0.00294807
0.00379426
0.00488075
0.00626296
0.00812573
0.0105548
0.0137343
0.0251095
0.0427023
0.0603114
0.077669
0.094563
0.110838
0.126382
0.141088
0.154872
0.16766
0.179363
0.189916
0.199245
0.20728
0.213965
0.219271
0.223234
0.225986
0.227756
0.228805
0.229391
0.2297
0.229856
0.229932
0.229969
0.229986
0.229994
0.229997
0.229999
0.229999
0.23
0.23
0.23
0.23
0.23
0.23
0.23
0.23
0.23
5.7395e-10
2.50854e-09
5.76281e-09
1.12174e-08
2.03125e-08
3.53746e-08
6.01093e-08
1.00322e-07
1.64934e-07
2.6735e-07
4.2719e-07
6.72265e-07
1.04052e-06
1.5814e-06
2.3557e-06
3.43287e-06
4.88522e-06
6.7791e-06
9.16511e-06
1.20699e-05
1.54919e-05
1.94021e-05
2.37484e-05
2.84615e-05
3.3461e-05
3.86609e-05
4.3973e-05
4.93104e-05
5.45902e-05
5.97366e-05
6.46873e-05
6.94074e-05
7.39167e-05
7.83335e-05
8.29172e-05
8.80661e-05
9.43198e-05
0.000102392
0.000113115
0.000127435
0.000146449
0.000171461
0.000204075
0.000246301
0.000300701
0.000370561
0.000460116
0.000574839
0.00072181
0.000910201
0.00115191
0.00146239
0.00186174
0.00237609
0.00303929
0.00389629
0.0049939
0.00638676
0.00825907
0.0106951
0.0138662
0.0266535
0.0442422
0.0618228
0.079133
0.0959854
0.112223
0.127709
0.142343
0.156039
0.16872
0.180316
0.190761
0.199976
0.207893
0.214457
0.219644
0.223495
0.22615
0.227853
0.228862
0.229421
0.229716
0.229864
0.229936
0.229971
0.229987
0.229994
0.229997
0.229999
0.23
0.23
0.23
0.23
0.23
0.23
0.23
0.23
0.23
0.23
5.82129e-10
2.54434e-09
5.84549e-09
1.13798e-08
2.06105e-08
3.5903e-08
6.10274e-08
1.01895e-07
1.67599e-07
2.71818e-07
4.34602e-07
6.84432e-07
1.06028e-06
1.61306e-06
2.40563e-06
3.51018e-06
5.00245e-06
6.95284e-06
9.41645e-06
1.24245e-05
1.598e-05
2.00579e-05
2.46097e-05
2.9569e-05
3.48579e-05
4.03919e-05
4.60841e-05
5.18481e-05
5.76006e-05
6.32649e-05
6.87781e-05
7.41061e-05
7.92759e-05
8.44239e-05
8.98363e-05
9.59259e-05
0.000103244
0.000112528
0.000124633
0.000140532
0.000161354
0.000188444
0.00022345
0.00026844
0.000326033
0.000399581
0.000493389
0.000612999
0.000765562
0.000960311
0.0012092
0.00152767
0.00193565
0.00245915
0.00313251
0.00400085
0.00510775
0.00650989
0.00839107
0.0108348
0.0140025
0.0279454
0.0455437
0.0631117
0.0803982
0.0972089
0.113388
0.128811
0.143375
0.156995
0.169595
0.181105
0.191459
0.20058
0.208399
0.214863
0.219953
0.223715
0.226297
0.227936
0.228906
0.229445
0.229728
0.22987
0.229939
0.229972
0.229987
0.229994
0.229997
0.229999
0.23
0.23
0.23
0.23
0.23
0.23
0.23
0.23
0.23
0.23
5.89147e-10
2.57506e-09
5.91635e-09
1.15189e-08
2.08656e-08
3.63553e-08
6.18141e-08
1.03246e-07
1.69896e-07
2.7569e-07
4.41067e-07
6.95119e-07
1.07774e-06
1.64119e-06
2.45023e-06
3.57962e-06
5.10834e-06
7.11073e-06
9.64627e-06
1.27509e-05
1.64322e-05
2.06698e-05
2.54193e-05
3.06184e-05
3.61929e-05
4.20616e-05
4.81407e-05
5.43465e-05
6.0598e-05
6.68208e-05
7.29542e-05
7.89692e-05
8.49039e-05
9.09172e-05
9.732e-05
0.000104522
0.000113072
0.000123723
0.00013735
0.000154956
0.000177704
0.000206983
0.000244492
0.000292357
0.000353258
0.000430614
0.000528796
0.000653411
0.000811672
0.00101283
0.00126878
0.00159483
0.00201106
0.00254388
0.00322694
0.00410358
0.00521636
0.00662048
0.00849628
0.0109203
0.0140314
0.0289681
0.0465822
0.064145
0.0814151
0.0981941
0.11433
0.129702
0.14421
0.157769
0.170303
0.181742
0.192024
0.201068
0.208807
0.215191
0.220201
0.223892
0.226414
0.22801
0.228948
0.229466
0.229738
0.229875
0.229941
0.229973
0.229988
0.229995
0.229998
0.229999
0.23
0.23
0.23
0.23
0.23
0.23
0.23
0.23
0.23
0.23
5.94945e-10
2.60043e-09
5.97491e-09
1.16339e-08
2.10768e-08
3.67303e-08
6.24674e-08
1.04371e-07
1.71814e-07
2.78932e-07
4.465e-07
7.0413e-07
1.09251e-06
1.66508e-06
2.48827e-06
3.6391e-06
5.19946e-06
7.24724e-06
9.84602e-06
1.30362e-05
1.68299e-05
2.12116e-05
2.61415e-05
3.15621e-05
3.74037e-05
4.35904e-05
5.00431e-05
5.66836e-05
6.34364e-05
7.02332e-05
7.70205e-05
8.37799e-05
9.05674e-05
9.75703e-05
0.000105118
0.00011359
0.000123511
0.00013565
0.0001509
0.000170293
0.000195034
0.00022656
0.000266626
0.000317418
0.000381682
0.000462908
0.000565526
0.000695194
0.000859137
0.00106659
0.00132959
0.00166391
0.00208949
0.00263179
0.00332421
0.00421009
0.00533046
0.00674082
0.00862043
0.0110442
0.0141428
0.0297921
0.0474181
0.0649778
0.0822264
0.0989753
0.115075
0.130405
0.144866
0.158375
0.170856
0.182241
0.192465
0.201448
0.209125
0.215445
0.220393
0.224027
0.226502
0.228063
0.228978
0.229482
0.229746
0.229879
0.229943
0.229974
0.229988
0.229995
0.229998
0.229999
0.23
0.23
0.23
0.23
0.23
0.23
0.23
0.23
0.23
0.23
5.99418e-10
2.62001e-09
6.02012e-09
1.17227e-08
2.124e-08
3.70205e-08
6.29739e-08
1.05244e-07
1.73306e-07
2.8146e-07
4.50745e-07
7.11189e-07
1.10411e-06
1.68391e-06
2.51834e-06
3.68628e-06
5.27202e-06
7.35642e-06
1.00065e-05
1.32665e-05
1.71529e-05
2.16543e-05
2.67356e-05
3.23441e-05
3.84154e-05
4.48793e-05
5.16632e-05
5.86962e-05
6.59115e-05
7.32507e-05
8.06733e-05
8.81786e-05
9.58501e-05
0.000103911
0.000112698
0.000122533
0.000133896
0.000147561
0.000164443
0.000185608
0.000212303
0.000246019
0.000288568
0.000342194
0.000409709
0.000494654
0.00060153
0.000736053
0.000905563
0.00111952
0.00139007
0.00173245
0.00216653
0.0027179
0.00341962
0.00431456
0.00544228
0.00685816
0.00873968
0.0111587
0.014236
0.0303802
0.0480348
0.0655969
0.0828334
0.0995603
0.115632
0.130929
0.145355
0.158826
0.171267
0.18261
0.192791
0.201729
0.209359
0.215631
0.220533
0.224124
0.226566
0.228101
0.228999
0.229494
0.229752
0.229882
0.229944
0.229974
0.229988
0.229995
0.229998
0.229999
0.23
0.23
0.23
0.23
0.23
0.23
0.23
0.23
0.23
0.23
6.02457e-10
2.63332e-09
6.05085e-09
1.17831e-08
2.13511e-08
3.7218e-08
6.33187e-08
1.05839e-07
1.74324e-07
2.83186e-07
4.53649e-07
7.16026e-07
1.11208e-06
1.69687e-06
2.53909e-06
3.71892e-06
5.32238e-06
7.43247e-06
1.01188e-05
1.34284e-05
1.73809e-05
2.19685e-05
2.71597e-05
3.29059e-05
3.91474e-05
4.58192e-05
5.28551e-05
6.01916e-05
6.77712e-05
7.55472e-05
8.34946e-05
9.16351e-05
0.000100084
0.000109103
0.000119019
0.000130202
0.000142945
0.000158022
0.000176374
0.000199103
0.000227504
0.000263119
0.000307817
0.000363902
0.000434247
0.00052247
0.000633151
0.000772128
0.000946813
0.00116666
0.00144363
0.00179315
0.00223502
0.00279467
0.00350486
0.00440793
0.00554206
0.00696197
0.00884302
0.0112534
0.0143056
0.0307677
0.0484487
0.0660167
0.083246
0.0999576
0.116009
0.131283
0.145683
0.159127
0.171541
0.182855
0.193007
0.201914
0.209512
0.215753
0.220624
0.224188
0.226607
0.228126
0.229013
0.229501
0.229756
0.229883
0.229945
0.229975
0.229989
0.229995
0.229998
0.229999
0.23
0.23
0.23
0.23
0.23
0.23
0.23
0.23
0.23
0.23
6.03971e-10
2.63994e-09
6.0661e-09
1.1813e-08
2.14059e-08
3.73151e-08
6.34877e-08
1.0613e-07
1.7482e-07
2.84026e-07
4.55059e-07
7.18372e-07
1.11594e-06
1.70314e-06
2.54915e-06
3.73478e-06
5.34692e-06
7.46966e-06
1.01739e-05
1.35082e-05
1.7494e-05
2.21251e-05
2.73724e-05
3.31895e-05
3.95195e-05
4.63004e-05
5.34701e-05
6.09696e-05
6.87475e-05
7.67646e-05
8.50063e-05
9.35082e-05
0.000102404
0.000111959
0.000122568
0.000134656
0.00014859
0.000164735
0.000184118
0.000207906
0.000237445
0.000274324
0.000320456
0.000378194
0.000450459
0.000540917
0.000654198
0.000796165
0.000974263
0.00119797
0.00147935
0.00183386
0.00228125
0.00284686
0.00356324
0.00447233
0.00561127
0.00703401
0.00891383
0.0113151
0.0143426
0.0309595
0.0486633
0.066237
0.0834622
0.100164
0.116203
0.131463
0.145849
0.159279
0.171677
0.182976
0.193112
0.202004
0.209586
0.215811
0.220667
0.224218
0.226626
0.228137
0.22902
0.229505
0.229758
0.229884
0.229946
0.229975
0.229989
0.229995
0.229998
0.229999
0.23
0.23
0.23
0.23
0.23
0.23
0.23
0.23
0.23
0.23
6.03974e-10
2.63995e-09
6.06612e-09
1.18131e-08
2.14059e-08
3.73152e-08
6.34879e-08
1.0613e-07
1.7482e-07
2.84026e-07
4.55058e-07
7.18371e-07
1.11594e-06
1.70314e-06
2.54914e-06
3.73477e-06
5.3469e-06
7.46963e-06
1.01738e-05
1.35082e-05
1.74939e-05
2.2125e-05
2.73723e-05
3.31893e-05
3.95192e-05
4.63001e-05
5.34697e-05
6.09693e-05
6.87472e-05
7.67644e-05
8.50061e-05
9.35082e-05
0.000102404
0.000111959
0.000122568
0.000134657
0.000148591
0.000164736
0.00018412
0.000207908
0.000237448
0.000274326
0.000320458
0.000378196
0.00045046
0.000540917
0.000654197
0.000796161
0.000974255
0.00119795
0.00147933
0.00183383
0.0022812
0.0028468
0.00356317
0.00447224
0.00561117
0.0070339
0.00891371
0.0113149
0.0143424
0.0309598
0.0486636
0.0662373
0.0834626
0.100165
0.116204
0.131464
0.14585
0.159279
0.171678
0.182977
0.193112
0.202004
0.209587
0.215811
0.220668
0.224218
0.226626
0.228137
0.22902
0.229505
0.229758
0.229884
0.229946
0.229975
0.229989
0.229995
0.229998
0.229999
0.23
0.23
0.23
0.23
0.23
0.23
0.23
0.23
0.23
0.23
6.02466e-10
2.63336e-09
6.05093e-09
1.17833e-08
2.13513e-08
3.72183e-08
6.33191e-08
1.05839e-07
1.74324e-07
2.83186e-07
4.53647e-07
7.16023e-07
1.11208e-06
1.69685e-06
2.53906e-06
3.71888e-06
5.32232e-06
7.43237e-06
1.01186e-05
1.34282e-05
1.73806e-05
2.19681e-05
2.71592e-05
3.29052e-05
3.91466e-05
4.58183e-05
5.28541e-05
6.01906e-05
6.77702e-05
7.55463e-05
8.34939e-05
9.16347e-05
0.000100084
0.000109103
0.00011902
0.000130204
0.000142948
0.000158026
0.000176378
0.000199107
0.000227509
0.000263125
0.000307823
0.000363907
0.00043425
0.000522469
0.000633145
0.000772117
0.000946791
0.00116663
0.00144357
0.00179306
0.00223489
0.0027945
0.00350464
0.00440764
0.00554171
0.00696154
0.00884251
0.0112528
0.0143048
0.0307685
0.0484496
0.0660177
0.083247
0.0999586
0.11601
0.131284
0.145684
0.159128
0.171542
0.182856
0.193007
0.201915
0.209513
0.215753
0.220624
0.224188
0.226607
0.228126
0.229013
0.229501
0.229756
0.229883
0.229945
0.229975
0.229989
0.229995
0.229998
0.229999
0.23
0.23
0.23
0.23
0.23
0.23
0.23
0.23
0.23
0.23
5.99445e-10
2.62013e-09
6.0204e-09
1.17233e-08
2.12411e-08
3.70224e-08
6.29771e-08
1.05249e-07
1.73315e-07
2.81475e-07
4.50769e-07
7.11226e-07
1.10417e-06
1.68399e-06
2.51846e-06
3.68643e-06
5.27222e-06
7.35667e-06
1.00068e-05
1.32669e-05
1.71532e-05
2.16546e-05
2.67359e-05
3.23443e-05
3.84156e-05
4.48794e-05
5.16633e-05
5.86964e-05
6.59118e-05
7.32512e-05
8.06742e-05
8.81801e-05
9.58523e-05
0.000103914
0.000112702
0.000122538
0.000133903
0.000147568
0.000164451
0.000185617
0.000212313
0.000246029
0.000288577
0.000342203
0.000409714
0.000494654
0.000601521
0.000736031
0.000905524
0.00111945
0.00138997
0.0017323
0.00216632
0.00271761
0.00341922
0.00431402
0.00544158
0.00685721
0.00873842
0.011157
0.0142337
0.0303807
0.0480358
0.0655982
0.0828348
0.0995619
0.115633
0.130931
0.145356
0.158827
0.171269
0.182611
0.192792
0.20173
0.20936
0.215632
0.220534
0.224125
0.226566
0.228101
0.229
0.229494
0.229752
0.229882
0.229944
0.229974
0.229988
0.229995
0.229998
0.229999
0.23
0.23
0.23
0.23
0.23
0.23
0.23
0.23
0.23
0.23
5.94978e-10
2.60058e-09
5.97525e-09
1.16346e-08
2.1078e-08
3.67324e-08
6.24712e-08
1.04377e-07
1.71824e-07
2.78949e-07
4.46526e-07
7.0417e-07
1.09257e-06
1.66517e-06
2.48839e-06
3.63926e-06
5.19966e-06
7.24749e-06
9.84629e-06
1.30364e-05
1.68302e-05
2.12118e-05
2.61416e-05
3.1562e-05
3.74036e-05
4.35901e-05
5.00427e-05
5.66832e-05
6.34361e-05
7.02331e-05
7.70208e-05
8.37807e-05
9.0569e-05
9.75727e-05
0.000105121
0.000113594
0.000123517
0.000135656
0.000150907
0.000170301
0.000195043
0.000226569
0.000266634
0.000317424
0.000381685
0.000462903
0.00056551
0.00069516
0.000859075
0.00106649
0.00132943
0.00166367
0.00208915
0.00263129
0.0033235
0.00420909
0.00532909
0.00673893
0.00861781
0.0110406
0.0141376
0.0297919
0.0474193
0.0649798
0.0822289
0.0989778
0.115077
0.130407
0.144869
0.158377
0.170859
0.182243
0.192467
0.20145
0.209126
0.215446
0.220394
0.224027
0.226503
0.228063
0.228978
0.229482
0.229746
0.229879
0.229943
0.229974
0.229988
0.229995
0.229998
0.229999
0.23
0.23
0.23
0.23
0.23
0.23
0.23
0.23
0.23
0.23
5.89179e-10
2.5752e-09
5.91668e-09
1.15195e-08
2.08668e-08
3.63575e-08
6.18178e-08
1.03252e-07
1.69907e-07
2.75707e-07
4.41095e-07
6.95161e-07
1.0778e-06
1.64128e-06
2.45036e-06
3.57979e-06
5.10855e-06
7.11098e-06
9.64653e-06
1.27511e-05
1.64324e-05
2.06699e-05
2.54193e-05
3.06182e-05
3.61924e-05
4.2061e-05
4.81399e-05
5.43456e-05
6.05971e-05
6.682e-05
7.29537e-05
7.89692e-05
8.49045e-05
9.09185e-05
9.73221e-05
0.000104525
0.000113075
0.000123727
0.000137356
0.000154962
0.000177711
0.000206989
0.000244498
0.00029236
0.000353257
0.000430606
0.000528776
0.000653373
0.000811607
0.00101273
0.00126861
0.00159458
0.0020107
0.00254336
0.0032262
0.00410255
0.00521495
0.00661857
0.00849372
0.0109169
0.014027
0.0289732
0.0465871
0.0641492
0.0814189
0.0981978
0.114334
0.129706
0.144213
0.157772
0.170306
0.181745
0.192026
0.20107
0.208809
0.215193
0.220203
0.223892
0.226415
0.22801
0.228948
0.229466
0.229738
0.229875
0.229941
0.229973
0.229988
0.229995
0.229998
0.229999
0.23
0.23
0.23
0.23
0.23
0.23
0.23
0.23
0.23
0.23
5.82151e-10
2.54444e-09
5.84571e-09
1.13802e-08
2.06113e-08
3.59044e-08
6.10299e-08
1.01899e-07
1.67606e-07
2.71831e-07
4.34623e-07
6.84467e-07
1.06034e-06
1.61315e-06
2.40576e-06
3.51035e-06
5.00266e-06
6.95309e-06
9.41671e-06
1.24248e-05
1.59802e-05
2.0058e-05
2.46096e-05
2.95686e-05
3.48572e-05
4.0391e-05
4.6083e-05
5.18468e-05
5.75992e-05
6.32635e-05
6.87768e-05
7.41052e-05
7.92755e-05
8.44241e-05
8.98371e-05
9.59274e-05
0.000103246
0.000112531
0.000124637
0.000140537
0.000161359
0.000188449
0.000223455
0.000268442
0.000326031
0.000399572
0.000493369
0.000612963
0.0007655
0.000960213
0.00120905
0.00152744
0.00193531
0.00245867
0.00313183
0.0039999
0.00510645
0.00650807
0.00838848
0.0108311
0.0139971
0.0279463
0.0455455
0.063114
0.0804017
0.097213
0.113392
0.128815
0.143379
0.156999
0.169599
0.181108
0.191462
0.200583
0.208401
0.214865
0.219954
0.223716
0.226298
0.227937
0.228907
0.229445
0.229728
0.22987
0.229939
0.229972
0.229987
0.229994
0.229997
0.229999
0.23
0.23
0.23
0.23
0.23
0.23
0.23
0.23
0.23
0.23
5.73954e-10
2.50855e-09
5.76282e-09
1.12174e-08
2.03123e-08
3.53742e-08
6.01087e-08
1.0032e-07
1.6493e-07
2.67343e-07
4.27175e-07
6.72245e-07
1.04052e-06
1.58144e-06
2.35578e-06
3.433e-06
4.88539e-06
6.7793e-06
9.16531e-06
1.207e-05
1.54919e-05
1.9402e-05
2.37481e-05
2.8461e-05
3.34602e-05
3.86598e-05
4.39716e-05
4.93088e-05
5.45884e-05
5.97348e-05
6.46855e-05
6.94058e-05
7.39154e-05
7.83326e-05
8.29169e-05
8.80663e-05
9.43207e-05
0.000102394
0.000113117
0.000127438
0.000146453
0.000171465
0.000204078
0.000246303
0.000300701
0.000370556
0.000460104
0.000574816
0.000721769
0.000910135
0.00115181
0.00146224
0.00186152
0.00237577
0.00303883
0.00389565
0.00499302
0.00638555
0.00825748
0.0106931
0.0138637
0.02666
0.0442492
0.0618304
0.0791401
0.095992
0.11223
0.127715
0.142348
0.156044
0.168725
0.18032
0.190764
0.199979
0.207895
0.214459
0.219645
0.223496
0.226151
0.227853
0.228862
0.229421
0.229716
0.229864
0.229936
0.229971
0.229987
0.229994
0.229997
0.229999
0.23
0.23
0.23
0.23
0.23
0.23
0.23
0.23
0.23
0.23
5.6466e-10
2.46771e-09
5.66801e-09
1.10298e-08
1.99651e-08
3.47538e-08
5.90228e-08
9.84481e-08
1.61746e-07
2.62003e-07
4.18365e-07
6.58018e-07
1.01817e-06
1.54612e-06
2.30065e-06
3.34849e-06
4.75854e-06
6.59315e-06
8.8984e-06
1.16965e-05
1.49818e-05
1.87221e-05
2.28623e-05
2.73314e-05
3.20477e-05
3.6925e-05
4.18755e-05
4.68138e-05
5.1659e-05
5.6338e-05
6.07915e-05
6.49857e-05
6.8936e-05
7.2746e-05
7.66489e-05
8.10186e-05
8.63722e-05
9.33927e-05
0.000102885
0.000115768
0.000133108
0.000156173
0.000186521
0.000226113
0.00027745
0.000343753
0.000429188
0.000539151
0.000680648
0.000862779
0.00109738
0.00139985
0.00179028
0.00229489
0.00294796
0.00379411
0.00488052
0.00626264
0.00812535
0.0105543
0.0137338
0.0251199
0.0427125
0.0603214
0.0776782
0.0945714
0.110846
0.126389
0.141095
0.154878
0.167665
0.179367
0.18992
0.199249
0.207283
0.213967
0.219273
0.223236
0.225987
0.227756
0.228806
0.229391
0.2297
0.229856
0.229932
0.229969
0.229986
0.229994
0.229997
0.229999
0.229999
0.23
0.23
0.23
0.23
0.23
0.23
0.23
0.23
0.23
5.55094e-10
2.42598e-09
5.57237e-09
1.08442e-08
1.96296e-08
3.41662e-08
5.80101e-08
9.67155e-08
1.58785e-07
2.5694e-07
4.09698e-07
6.43138e-07
9.92588e-07
1.50476e-06
2.23602e-06
3.25066e-06
4.61558e-06
6.39244e-06
8.61616e-06
1.13066e-05
1.44556e-05
1.80286e-05
2.19682e-05
2.62021e-05
3.06488e-05
3.52225e-05
3.98373e-05
4.44102e-05
4.88635e-05
5.3128e-05
5.71481e-05
6.08922e-05
6.43732e-05
6.76824e-05
7.10286e-05
7.47569e-05
7.93545e-05
8.54688e-05
9.38714e-05
0.000105453
0.000121248