/*--------------------------------*- C++ -*----------------------------------*\
  =========                 |
  \\      /  F ield         | OpenFOAM: The Open Source CFD Toolbox
   \\    /   O peration     | Website:  https://openfoam.org
    \\  /    A nd           | Version:  8
     \\/     M anipulation  |
\*---------------------------------------------------------------------------*/
FoamFile
{
    version     2.0;
    format      ascii;
    class       surfaceScalarField;
    location    "440/fluid";
    object      phi;
}
// * * * * * * * * * * * * * * * * * * * * * * * * * * * * * * * * * * * * * //

dimensions      [1 0 -1 0 0 0 0];

internalField   nonuniform List<scalar> 
7860
(
6.57336e-07
-1.75006e-08
6.54807e-07
-5.24749e-08
6.51208e-07
-8.72721e-08
6.46436e-07
-1.21804e-07
6.40366e-07
-1.56069e-07
6.32846e-07
-1.90022e-07
6.23702e-07
-2.23588e-07
6.12747e-07
-2.56657e-07
5.99787e-07
-2.89077e-07
5.84634e-07
-3.20642e-07
5.67121e-07
-3.51082e-07
5.47117e-07
-3.80051e-07
5.24573e-07
-4.07114e-07
4.99587e-07
-4.31745e-07
4.72427e-07
-4.53336e-07
4.43418e-07
-4.71227e-07
4.1298e-07
-4.84839e-07
3.81624e-07
-4.93817e-07
3.4989e-07
-4.98164e-07
3.18286e-07
-4.98279e-07
2.87233e-07
-4.94876e-07
2.5704e-07
-4.88829e-07
2.27906e-07
-4.80996e-07
1.99958e-07
-4.721e-07
1.7328e-07
-4.62668e-07
1.47852e-07
-4.53039e-07
1.23611e-07
-4.43408e-07
1.00482e-07
-4.33872e-07
7.839e-08
-4.24464e-07
5.72686e-08
-4.15184e-07
3.70592e-08
-4.06016e-07
1.77122e-08
-3.96942e-07
-8.1525e-10
-3.87951e-07
-1.8552e-08
-3.79037e-07
-3.55228e-08
-3.70207e-07
-5.17594e-08
-3.61467e-07
-6.72857e-08
-3.52777e-07
-8.21233e-08
-3.44141e-07
-9.62925e-08
-3.35576e-07
-1.09813e-07
-3.27099e-07
-1.22703e-07
-3.18729e-07
-1.3498e-07
-3.10486e-07
-1.46663e-07
-3.02388e-07
-1.57768e-07
-2.94452e-07
-1.68312e-07
-2.86696e-07
-1.78313e-07
-2.79137e-07
-1.87786e-07
-2.7179e-07
-1.96749e-07
-2.6467e-07
-2.05215e-07
-2.57794e-07
-2.13203e-07
-2.51177e-07
-2.20726e-07
-2.44834e-07
-2.278e-07
-2.38784e-07
-2.34441e-07
-2.33046e-07
-2.40666e-07
-2.27644e-07
-2.46493e-07
-2.22606e-07
-2.51943e-07
-2.17966e-07
-2.57043e-07
-2.13769e-07
-2.61835e-07
-2.10068e-07
-2.6636e-07
-2.06977e-07
-2.70666e-07
-2.04488e-07
-2.74853e-07
-2.02802e-07
-2.79311e-07
-2.02071e-07
-2.84894e-07
-2.02263e-07
-2.92109e-07
-2.12965e-07
-3.00313e-07
-2.25069e-07
-3.09334e-07
-2.38447e-07
-3.19226e-07
-2.53244e-07
-3.30104e-07
-2.69669e-07
-3.42122e-07
-2.87971e-07
-3.55482e-07
-3.08448e-07
-3.7046e-07
-3.3147e-07
-3.87423e-07
-3.57482e-07
-4.06864e-07
-3.87e-07
-4.29427e-07
-4.20696e-07
-4.55936e-07
-4.59312e-07
-4.87364e-07
-5.03055e-07
-5.24674e-07
-5.51153e-07
-5.68399e-07
-6.01146e-07
-6.18406e-07
-6.48096e-07
-6.73779e-07
-6.85002e-07
-7.32391e-07
-7.0561e-07
-7.91293e-07
-7.07837e-07
-8.47737e-07
-6.94308e-07
-8.99891e-07
-6.69669e-07
-9.46906e-07
-6.38176e-07
-9.88515e-07
-6.02694e-07
-1.0246e-06
-5.64825e-07
-1.0554e-06
-5.2536e-07
-1.08146e-06
-4.84755e-07
-1.10335e-06
-4.43361e-07
-1.12158e-06
-4.01445e-07
-1.13662e-06
-3.59216e-07
-1.1489e-06
-3.1683e-07
-1.15881e-06
-2.74402e-07
-1.16668e-06
-2.32004e-07
-1.17279e-06
-1.89673e-07
-1.17741e-06
-1.47423e-07
-1.18072e-06
-1.05261e-07
-1.18289e-06
-6.31652e-08
-2.1084e-08
6.57938e-07
-1.69052e-08
6.55911e-07
-5.0448e-08
6.52381e-07
-8.37418e-08
6.47347e-07
-1.1677e-07
6.40744e-07
-1.49466e-07
6.3248e-07
-1.81757e-07
6.22445e-07
-2.13552e-07
6.10529e-07
-2.4474e-07
5.96627e-07
-2.75174e-07
5.80659e-07
-3.04671e-07
5.62571e-07
-3.32991e-07
5.42356e-07
-3.5983e-07
5.20059e-07
-3.8481e-07
4.95808e-07
-4.07482e-07
4.69809e-07
-4.27319e-07
4.42318e-07
-4.43712e-07
4.13663e-07
-4.56152e-07
3.84235e-07
-4.64347e-07
3.54445e-07
-4.68324e-07
3.24681e-07
-4.68458e-07
2.95271e-07
-4.65405e-07
2.66463e-07
-4.59957e-07
2.38421e-07
-4.5289e-07
2.11253e-07
-4.44868e-07
1.85028e-07
-4.36382e-07
1.59765e-07
-4.27718e-07
1.35455e-07
-4.19044e-07
1.12076e-07
-4.10442e-07
8.96014e-08
-4.01943e-07
6.80038e-08
-3.93543e-07
4.72556e-08
-3.85227e-07
2.73307e-08
-3.7698e-07
8.2041e-09
-3.68789e-07
-1.01472e-08
-3.60653e-07
-2.77448e-08
-3.52577e-07
-4.46092e-08
-3.4457e-07
-6.07591e-08
-3.36594e-07
-7.62136e-08
-3.28653e-07
-9.09918e-08
-3.20764e-07
-1.05112e-07
-3.12945e-07
-1.18592e-07
-3.05215e-07
-1.3145e-07
-2.97593e-07
-1.43706e-07
-2.90098e-07
-1.55377e-07
-2.82745e-07
-1.66485e-07
-2.75554e-07
-1.77047e-07
-2.68541e-07
-1.87082e-07
-2.61721e-07
-1.9661e-07
-2.55109e-07
-2.0565e-07
-2.48722e-07
-2.14223e-07
-2.42574e-07
-2.22347e-07
-2.3668e-07
-2.30044e-07
-2.31058e-07
-2.37339e-07
-2.25725e-07
-2.44254e-07
-2.20703e-07
-2.5082e-07
-2.16017e-07
-2.57069e-07
-2.11697e-07
-2.63044e-07
-2.07778e-07
-2.6879e-07
-2.0431e-07
-2.74385e-07
-2.01376e-07
-2.79921e-07
-1.98953e-07
-2.85564e-07
-1.97171e-07
-2.91563e-07
-1.96101e-07
-2.98561e-07
-1.95801e-07
-3.06071e-07
-2.05529e-07
-3.14665e-07
-2.1657e-07
-3.24305e-07
-2.28923e-07
-3.35007e-07
-2.42676e-07
-3.46857e-07
-2.57973e-07
-3.59989e-07
-2.75014e-07
-3.7458e-07
-2.94056e-07
-3.90852e-07
-3.15422e-07
-4.09081e-07
-3.39505e-07
-4.29599e-07
-3.66765e-07
-4.52764e-07
-3.97851e-07
-4.79021e-07
-4.33412e-07
-5.08902e-07
-4.73568e-07
-5.42952e-07
-5.17522e-07
-5.81604e-07
-5.62916e-07
-6.25052e-07
-6.05036e-07
-6.72953e-07
-6.3742e-07
-7.23965e-07
-6.54824e-07
-7.75952e-07
-6.55991e-07
-8.26783e-07
-6.43556e-07
-8.74932e-07
-6.2156e-07
-9.196e-07
-5.93528e-07
-9.60454e-07
-5.61849e-07
-9.97326e-07
-5.27957e-07
-1.03018e-06
-4.92513e-07
-1.0591e-06
-4.55833e-07
-1.08427e-06
-4.18192e-07
-1.10591e-06
-3.79805e-07
-1.12428e-06
-3.40845e-07
-1.13966e-06
-3.01452e-07
-1.15232e-06
-2.61739e-07
-1.16253e-06
-2.21792e-07
-1.17053e-06
-1.81672e-07
-1.17653e-06
-1.41428e-07
-1.18068e-06
-1.01112e-07
-1.18307e-06
-6.0773e-08
-2.03322e-08
6.57655e-07
-1.60265e-08
6.55112e-07
-4.79048e-08
6.50915e-07
-7.95448e-08
6.45031e-07
-1.10886e-07
6.37421e-07
-1.41856e-07
6.28037e-07
-1.72373e-07
6.16833e-07
-2.02347e-07
6.03768e-07
-2.31675e-07
5.88821e-07
-2.60226e-07
5.71991e-07
-2.87839e-07
5.53309e-07
-3.14306e-07
5.32837e-07
-3.39355e-07
5.10674e-07
-3.6264e-07
4.86931e-07
-3.83729e-07
4.61751e-07
-4.02123e-07
4.35359e-07
-4.173e-07
4.08052e-07
-4.28817e-07
3.80161e-07
-4.36422e-07
3.52026e-07
-4.40148e-07
3.23962e-07
-4.40346e-07
2.96225e-07
-4.37618e-07
2.6901e-07
-4.32688e-07
2.42439e-07
-4.26266e-07
2.16573e-07
-4.18949e-07
1.9142e-07
-4.11178e-07
1.66993e-07
-4.03241e-07
1.43297e-07
-3.95301e-07
1.20337e-07
-3.87439e-07
9.81117e-08
-3.79677e-07
7.66191e-08
-3.72012e-07
5.58533e-08
-3.64426e-07
3.58074e-08
-3.56901e-07
1.64728e-08
-3.49424e-07
-2.16054e-09
-3.41991e-07
-2.01036e-08
-3.34607e-07
-3.73683e-08
-3.27277e-07
-5.39659e-08
-3.19968e-07
-6.9909e-08
-3.12681e-07
-8.52105e-08
-3.05433e-07
-9.98847e-08
-2.9824e-07
-1.13948e-07
-2.91122e-07
-1.27416e-07
-2.84094e-07
-1.40309e-07
-2.77174e-07
-1.52643e-07
-2.7038e-07
-1.6444e-07
-2.63727e-07
-1.75717e-07
-2.57232e-07
-1.86498e-07
-2.5091e-07
-1.96803e-07
-2.44774e-07
-2.06656e-07
-2.38839e-07
-2.16082e-07
-2.33119e-07
-2.25107e-07
-2.27626e-07
-2.33762e-07
-2.22376e-07
-2.42077e-07
-2.17383e-07
-2.50091e-07
-2.12665e-07
-2.57845e-07
-2.08242e-07
-2.65386e-07
-2.04136e-07
-2.72772e-07
-2.00377e-07
-2.80056e-07
-1.97019e-07
-2.87316e-07
-1.94111e-07
-2.94627e-07
-1.91644e-07
-3.0205e-07
-1.89761e-07
-3.09615e-07
-1.8857e-07
-3.17617e-07
-1.8856e-07
-3.25781e-07
-1.97456e-07
-3.3492e-07
-2.07538e-07
-3.45094e-07
-2.18872e-07
-3.56367e-07
-2.31542e-07
-3.68826e-07
-2.45672e-07
-3.82576e-07
-2.61441e-07
-3.97739e-07
-2.79089e-07
-4.14456e-07
-2.98925e-07
-4.32878e-07
-3.21328e-07
-4.53156e-07
-3.46761e-07
-4.75418e-07
-3.75895e-07
-4.99863e-07
-4.09307e-07
-5.26795e-07
-4.47002e-07
-5.56692e-07
-4.88007e-07
-5.90327e-07
-5.29654e-07
-6.2848e-07
-5.67218e-07
-6.712e-07
-5.94965e-07
-7.17408e-07
-6.08801e-07
-7.65172e-07
-6.08341e-07
-8.12519e-07
-5.96272e-07
-8.57984e-07
-5.76127e-07
-9.0072e-07
-5.50807e-07
-9.40347e-07
-5.2223e-07
-9.76815e-07
-4.91492e-07
-1.01012e-06
-4.59212e-07
-1.04021e-06
-4.25744e-07
-1.06709e-06
-3.91311e-07
-1.09082e-06
-3.56072e-07
-1.11151e-06
-3.20159e-07
-1.12928e-06
-2.83682e-07
-1.14428e-06
-2.46737e-07
-1.15667e-06
-2.09406e-07
-1.16658e-06
-1.71754e-07
-1.17417e-06
-1.33845e-07
-1.17952e-06
-9.57562e-08
-1.18273e-06
-5.7561e-08
-1.92453e-08
6.57667e-07
-1.51595e-08
6.55045e-07
-4.52832e-08
6.50664e-07
-7.5164e-08
6.44521e-07
-1.04743e-07
6.36606e-07
-1.33941e-07
6.26907e-07
-1.62673e-07
6.15413e-07
-1.90853e-07
6.02119e-07
-2.18381e-07
5.87029e-07
-2.45135e-07
5.70157e-07
-2.70967e-07
5.51538e-07
-2.95684e-07
5.31227e-07
-3.1904e-07
5.0931e-07
-3.40717e-07
4.85912e-07
-3.60323e-07
4.61206e-07
-3.77405e-07
4.35418e-07
-3.91495e-07
4.08816e-07
-4.02192e-07
3.81691e-07
-4.09269e-07
3.54337e-07
-4.12761e-07
3.27024e-07
-4.12995e-07
2.99976e-07
-4.10528e-07
2.73362e-07
-4.0603e-07
2.47297e-07
-4.00157e-07
2.21852e-07
-3.9346e-07
1.97062e-07
-3.86346e-07
1.72943e-07
-3.79081e-07
1.49499e-07
-3.71819e-07
1.26728e-07
-3.64631e-07
1.04624e-07
-3.57539e-07
8.31835e-08
-3.50539e-07
6.23996e-08
-3.43612e-07
4.22669e-08
-3.36741e-07
2.27792e-08
-3.29911e-07
3.9293e-09
-3.23118e-07
-1.42897e-08
-3.16365e-07
-3.18852e-08
-3.09658e-07
-4.88639e-08
-3.02966e-07
-6.52346e-08
-2.96286e-07
-8.10082e-08
-2.89634e-07
-9.61973e-08
-2.83025e-07
-1.10817e-07
-2.76476e-07
-1.24881e-07
-2.70003e-07
-1.38407e-07
-2.63621e-07
-1.51413e-07
-2.57347e-07
-1.63916e-07
-2.51196e-07
-1.75939e-07
-2.45182e-07
-1.87503e-07
-2.39318e-07
-1.98631e-07
-2.33619e-07
-2.09348e-07
-2.28095e-07
-2.19681e-07
-2.22758e-07
-2.29661e-07
-2.1762e-07
-2.39319e-07
-2.12692e-07
-2.48691e-07
-2.07986e-07
-2.57818e-07
-2.03515e-07
-2.66742e-07
-1.99294e-07
-2.75514e-07
-1.95341e-07
-2.8419e-07
-1.91678e-07
-2.92823e-07
-1.88361e-07
-3.01493e-07
-1.8542e-07
-3.10265e-07
-1.82853e-07
-3.19189e-07
-1.80817e-07
-3.28266e-07
-1.79442e-07
-3.36914e-07
-1.80813e-07
-3.45651e-07
-1.88826e-07
-3.5533e-07
-1.97976e-07
-3.65989e-07
-2.08342e-07
-3.7769e-07
-2.19983e-07
-3.90508e-07
-2.33011e-07
-4.04527e-07
-2.47595e-07
-4.19838e-07
-2.63971e-07
-4.36539e-07
-2.82437e-07
-4.54742e-07
-3.03361e-07
-4.74551e-07
-3.27214e-07
-4.96087e-07
-3.54648e-07
-5.19589e-07
-3.86121e-07
-5.45433e-07
-4.21495e-07
-5.74165e-07
-4.59619e-07
-6.06462e-07
-4.97685e-07
-6.42862e-07
-5.31104e-07
-6.83271e-07
-5.54777e-07
-7.26672e-07
-5.65549e-07
-7.71432e-07
-5.63671e-07
-8.15934e-07
-5.51819e-07
-8.58973e-07
-5.33113e-07
-8.99796e-07
-5.09997e-07
-9.37992e-07
-4.8404e-07
-9.73366e-07
-4.56121e-07
-1.00585e-06
-4.26731e-07
-1.03543e-06
-3.9616e-07
-1.06214e-06
-3.64599e-07
-1.08602e-06
-3.32193e-07
-1.10712e-06
-2.99058e-07
-1.12551e-06
-2.65296e-07
-1.14125e-06
-2.30997e-07
-1.15442e-06
-1.96237e-07
-1.16509e-06
-1.61087e-07
-1.17332e-06
-1.25616e-07
-1.17916e-06
-8.99118e-08
-1.18266e-06
-5.40642e-08
-1.80803e-08
6.57603e-07
-1.4229e-08
6.54837e-07
-4.2517e-08
6.50247e-07
-7.05744e-08
6.43839e-07
-9.83347e-08
6.35617e-07
-1.25718e-07
6.25588e-07
-1.52644e-07
6.13761e-07
-1.79027e-07
6.00155e-07
-2.04774e-07
5.84795e-07
-2.29774e-07
5.67721e-07
-2.53891e-07
5.48987e-07
-2.76949e-07
5.28671e-07
-2.98722e-07
5.06879e-07
-3.1892e-07
4.83744e-07
-3.37182e-07
4.59441e-07
-3.53093e-07
4.34179e-07
-3.6622e-07
4.08199e-07
-3.76195e-07
3.81763e-07
-3.82811e-07
3.55129e-07
-3.861e-07
3.28531e-07
-3.86367e-07
3.02164e-07
-3.84128e-07
2.76175e-07
-3.80006e-07
2.50663e-07
-3.7461e-07
2.25691e-07
-3.68453e-07
2.01294e-07
-3.61915e-07
1.77489e-07
-3.55243e-07
1.54283e-07
-3.48581e-07
1.31677e-07
-3.41994e-07
1.09669e-07
-3.35503e-07
8.82571e-08
-3.29101e-07
6.74391e-08
-3.2277e-07
4.72117e-08
-3.16491e-07
2.7572e-08
-3.1025e-07
8.51643e-09
-3.04043e-07
-9.95937e-09
-2.9787e-07
-2.78608e-08
-2.91738e-07
-4.51936e-08
-2.85613e-07
-6.19655e-08
-2.79493e-07
-7.81861e-08
-2.73392e-07
-9.38663e-08
-2.67323e-07
-1.09018e-07
-2.61302e-07
-1.23655e-07
-2.55343e-07
-1.37793e-07
-2.4946e-07
-1.51448e-07
-2.43668e-07
-1.64639e-07
-2.37981e-07
-1.77385e-07
-2.32411e-07
-1.89709e-07
-2.2697e-07
-2.01633e-07
-2.2167e-07
-2.13182e-07
-2.16521e-07
-2.24384e-07
-2.11533e-07
-2.35266e-07
-2.06715e-07
-2.45859e-07
-2.02075e-07
-2.56199e-07
-1.97624e-07
-2.66321e-07
-1.93371e-07
-2.76266e-07
-1.89328e-07
-2.86077e-07
-1.8551e-07
-2.95803e-07
-1.81933e-07
-3.05493e-07
-1.78652e-07
-3.15213e-07
-1.75684e-07
-3.25025e-07
-1.73026e-07
-3.35009e-07
-1.70818e-07
-3.45242e-07
-1.69144e-07
-3.54423e-07
-1.7226e-07
-3.6386e-07
-1.79497e-07
-3.74129e-07
-1.87824e-07
-3.85285e-07
-1.97313e-07
-3.97392e-07
-2.08016e-07
-4.10518e-07
-2.20037e-07
-4.24737e-07
-2.33544e-07
-4.40126e-07
-2.48766e-07
-4.56769e-07
-2.65996e-07
-4.74757e-07
-2.85595e-07
-4.94172e-07
-3.08045e-07
-5.15127e-07
-3.33962e-07
-5.37855e-07
-3.63683e-07
-5.62713e-07
-3.96942e-07
-5.90216e-07
-4.32421e-07
-6.20988e-07
-4.67198e-07
-6.55497e-07
-4.96837e-07
-6.93617e-07
-5.16838e-07
-7.34418e-07
-5.24868e-07
-7.76484e-07
-5.21677e-07
-8.1845e-07
-5.09893e-07
-8.59301e-07
-4.92282e-07
-8.98387e-07
-4.7092e-07
-9.35325e-07
-4.47106e-07
-9.6989e-07
-4.21559e-07
-1.00194e-06
-3.94678e-07
-1.03141e-06
-3.66697e-07
-1.05823e-06
-3.37771e-07
-1.08241e-06
-3.08016e-07
-1.10394e-06
-2.7753e-07
-1.12284e-06
-2.46399e-07
-1.13913e-06
-2.14704e-07
-1.15285e-06
-1.82519e-07
-1.16402e-06
-1.49911e-07
-1.17269e-06
-1.16951e-07
-1.17887e-06
-8.37331e-08
-1.18258e-06
-5.03531e-08
-1.6837e-08
6.57595e-07
-1.32907e-08
6.54788e-07
-3.97101e-08
6.50125e-07
-6.59111e-08
6.4362e-07
-9.18292e-08
6.35288e-07
-1.17387e-07
6.25149e-07
-1.42505e-07
6.13225e-07
-1.67104e-07
5.99547e-07
-1.91096e-07
5.8415e-07
-2.14378e-07
5.67084e-07
-2.36823e-07
5.48408e-07
-2.58272e-07
5.28204e-07
-2.78516e-07
5.06576e-07
-2.97288e-07
4.83656e-07
-3.14257e-07
4.59613e-07
-3.29042e-07
4.34648e-07
-3.41245e-07
4.08994e-07
-3.50528e-07
3.82901e-07
-3.56701e-07
3.56616e-07
-3.59795e-07
3.30361e-07
-3.6009e-07
3.04323e-07
-3.58064e-07
2.78639e-07
-3.54295e-07
2.53405e-07
-3.49348e-07
2.28678e-07
-3.43698e-07
2.04489e-07
-3.37699e-07
1.80852e-07
-3.3158e-07
1.57771e-07
-3.25475e-07
1.35246e-07
-3.19445e-07
1.13272e-07
-3.13508e-07
9.18487e-08
-3.07657e-07
7.09722e-08
-3.01874e-07
5.06409e-08
-2.96141e-07
3.08523e-08
-2.90445e-07
1.16027e-08
-2.84777e-07
-7.11236e-09
-2.7914e-07
-2.52985e-08
-2.73537e-07
-4.29608e-08
-2.67935e-07
-6.01052e-08
-2.62332e-07
-7.67389e-08
-2.56741e-07
-9.28712e-08
-2.51173e-07
-1.08513e-07
-2.45641e-07
-1.23676e-07
-2.4016e-07
-1.38375e-07
-2.34741e-07
-1.52625e-07
-2.29397e-07
-1.66443e-07
-2.24141e-07
-1.79848e-07
-2.18984e-07
-1.92861e-07
-2.13936e-07
-2.05501e-07
-2.09008e-07
-2.17794e-07
-2.04208e-07
-2.29762e-07
-1.99544e-07
-2.41433e-07
-1.95023e-07
-2.52833e-07
-1.90655e-07
-2.63993e-07
-1.86445e-07
-2.74945e-07
-1.82402e-07
-2.85721e-07
-1.78535e-07
-2.96357e-07
-1.74857e-07
-3.06893e-07
-1.71383e-07
-3.17369e-07
-1.68164e-07
-3.2784e-07
-1.652e-07
-3.38361e-07
-1.62494e-07
-3.49005e-07
-1.60167e-07
-3.59806e-07
-1.58318e-07
-3.69577e-07
-1.62862e-07
-3.79727e-07
-1.69452e-07
-3.9057e-07
-1.77093e-07
-4.02179e-07
-1.85826e-07
-4.14629e-07
-1.95697e-07
-4.27996e-07
-2.06814e-07
-4.42353e-07
-2.19344e-07
-4.57779e-07
-2.33512e-07
-4.74356e-07
-2.49607e-07
-4.92178e-07
-2.67978e-07
-5.11331e-07
-2.89116e-07
-5.31963e-07
-3.13576e-07
-5.54333e-07
-3.41574e-07
-5.78828e-07
-3.72719e-07
-6.05971e-07
-4.05546e-07
-6.36334e-07
-4.3708e-07
-6.7025e-07
-4.63124e-07
-7.07432e-07
-4.79803e-07
-7.4689e-07
-4.85506e-07
-7.87297e-07
-4.81327e-07
-8.27454e-07
-4.69765e-07
-8.66507e-07
-4.53245e-07
-9.03913e-07
-4.33521e-07
-9.39354e-07
-4.11668e-07
-9.72639e-07
-3.88276e-07
-1.00365e-06
-3.63672e-07
-1.03229e-06
-3.3805e-07
-1.05853e-06
-3.11539e-07
-1.0823e-06
-2.84239e-07
-1.1036e-06
-2.56233e-07
-1.1224e-06
-2.27599e-07
-1.13869e-06
-1.9841e-07
-1.15248e-06
-1.68733e-07
-1.16376e-06
-1.38633e-07
-1.17253e-06
-1.0818e-07
-1.1788e-06
-7.74648e-08
-1.18256e-06
-4.65872e-08
-1.55783e-08
6.57582e-07
-1.23386e-08
6.5474e-07
-3.68689e-08
6.50026e-07
-6.11965e-08
6.43455e-07
-8.52586e-08
6.3505e-07
-1.08981e-07
6.24835e-07
-1.3229e-07
6.12842e-07
-1.5511e-07
5.99107e-07
-1.77361e-07
5.83676e-07
-1.98946e-07
5.66603e-07
-2.19749e-07
5.47956e-07
-2.39625e-07
5.27822e-07
-2.5838e-07
5.06309e-07
-2.75772e-07
4.8355e-07
-2.91495e-07
4.59711e-07
-3.05198e-07
4.34988e-07
-3.16515e-07
4.09604e-07
-3.25134e-07
3.83795e-07
-3.3088e-07
3.57795e-07
-3.3378e-07
3.31816e-07
-3.34094e-07
3.06034e-07
-3.32264e-07
2.8058e-07
-3.28822e-07
2.55545e-07
-3.24292e-07
2.30983e-07
-3.19116e-07
2.06925e-07
-3.1362e-07
1.83383e-07
-3.08019e-07
1.60361e-07
-3.02435e-07
1.37859e-07
-2.96926e-07
1.15873e-07
-2.91506e-07
9.44015e-08
-2.86169e-07
7.344e-08
-2.80897e-07
5.29858e-08
-2.75672e-07
3.30356e-08
-2.70481e-07
1.35856e-08
-2.65314e-07
-5.36859e-09
-2.60174e-07
-2.38313e-08
-2.55062e-07
-4.18062e-08
-2.49947e-07
-5.9298e-08
-2.44827e-07
-7.63129e-08
-2.39711e-07
-9.28589e-08
-2.34612e-07
-1.08945e-07
-2.29539e-07
-1.24583e-07
-2.24506e-07
-1.39785e-07
-2.19522e-07
-1.54565e-07
-2.146e-07
-1.68939e-07
-2.0975e-07
-1.82922e-07
-2.04982e-07
-1.96534e-07
-2.00306e-07
-2.09793e-07
-1.9573e-07
-2.2272e-07
-1.91262e-07
-2.35336e-07
-1.86909e-07
-2.47664e-07
-1.82678e-07
-2.59727e-07
-1.78575e-07
-2.7155e-07
-1.74606e-07
-2.83157e-07
-1.7078e-07
-2.94576e-07
-1.67104e-07
-3.05833e-07
-1.6359e-07
-3.16955e-07
-1.60252e-07
-3.27965e-07
-1.57146e-07
-3.38913e-07
-1.54239e-07
-3.49837e-07
-1.51562e-07
-3.6082e-07
-1.49179e-07
-3.7196e-07
-1.47193e-07
-3.82438e-07
-1.52501e-07
-3.93244e-07
-1.58737e-07
-4.04583e-07
-1.65855e-07
-4.16583e-07
-1.73935e-07
-4.2934e-07
-1.8306e-07
-4.42936e-07
-1.93348e-07
-4.57453e-07
-2.0497e-07
-4.72975e-07
-2.18147e-07
-4.89592e-07
-2.33161e-07
-5.07404e-07
-2.50352e-07
-5.26516e-07
-2.70208e-07
-5.47102e-07
-2.93211e-07
-5.69435e-07
-3.19475e-07
-5.93893e-07
-3.485e-07
-6.20952e-07
-3.78718e-07
-6.51079e-07
-4.07161e-07
-6.84452e-07
-4.29918e-07
-7.20677e-07
-4.43698e-07
-7.5879e-07
-4.4747e-07
-7.97614e-07
-4.42547e-07
-8.36132e-07
-4.31271e-07
-8.7362e-07
-4.15768e-07
-9.09613e-07
-3.97534e-07
-9.43822e-07
-3.77462e-07
-9.76059e-07
-3.56039e-07
-1.0062e-06
-3.33535e-07
-1.03414e-06
-3.10108e-07
-1.05981e-06
-2.85865e-07
-1.08316e-06
-2.60889e-07
-1.10414e-06
-2.35253e-07
-1.12272e-06
-2.09022e-07
-1.13887e-06
-1.82264e-07
-1.15256e-06
-1.55038e-07
-1.16379e-06
-1.27404e-07
-1.17254e-06
-9.94308e-08
-1.1788e-06
-7.12052e-08
-1.18256e-06
-4.28232e-08
-1.43193e-08
6.5758e-07
-1.13847e-08
6.5473e-07
-3.40191e-08
6.5e-07
-5.64667e-08
6.4341e-07
-7.86688e-08
6.34985e-07
-1.00556e-07
6.24754e-07
-1.22059e-07
6.12752e-07
-1.43108e-07
5.99021e-07
-1.63629e-07
5.83608e-07
-1.83532e-07
5.66572e-07
-2.02713e-07
5.47984e-07
-2.21036e-07
5.27931e-07
-2.38326e-07
5.0652e-07
-2.54359e-07
4.83883e-07
-2.68856e-07
4.60183e-07
-2.81495e-07
4.35612e-07
-2.91939e-07
4.10387e-07
-2.99903e-07
3.8474e-07
-3.05224e-07
3.58898e-07
-3.07929e-07
3.33069e-07
-3.08254e-07
3.07424e-07
-3.06606e-07
2.8209e-07
-3.03475e-07
2.57157e-07
-2.99345e-07
2.32677e-07
-2.94622e-07
2.08679e-07
-2.89609e-07
1.85175e-07
-2.84501e-07
1.62167e-07
-2.79414e-07
1.39652e-07
-2.74398e-07
1.17626e-07
-2.69467e-07
9.60836e-08
-2.64614e-07
7.502e-08
-2.59822e-07
5.44317e-08
-2.55073e-07
3.43158e-08
-2.50354e-07
1.46692e-08
-2.45658e-07
-4.51163e-09
-2.40984e-07
-2.32309e-08
-2.36333e-07
-4.14918e-08
-2.31676e-07
-5.92979e-08
-2.2701e-07
-7.66546e-08
-2.22343e-07
-9.35685e-08
-2.17686e-07
-1.10048e-07
-2.13047e-07
-1.26102e-07
-2.08438e-07
-1.41741e-07
-2.03869e-07
-1.56979e-07
-1.99348e-07
-1.71828e-07
-1.94886e-07
-1.86303e-07
-1.90492e-07
-2.0042e-07
-1.86174e-07
-2.14195e-07
-1.81939e-07
-2.27646e-07
-1.77795e-07
-2.40792e-07
-1.73748e-07
-2.53652e-07
-1.69804e-07
-2.66244e-07
-1.65969e-07
-2.78588e-07
-1.62249e-07
-2.90705e-07
-1.58653e-07
-3.02615e-07
-1.5519e-07
-3.14337e-07
-1.5187e-07
-3.25892e-07
-1.48712e-07
-3.37303e-07
-1.45773e-07
-3.485e-07
-1.42993e-07
-3.59576e-07
-1.40464e-07
-3.7054e-07
-1.38218e-07
-3.81653e-07
-1.36356e-07
-3.92648e-07
-1.41556e-07
-4.03998e-07
-1.47454e-07
-4.1582e-07
-1.54114e-07
-4.28231e-07
-1.61617e-07
-4.41331e-07
-1.70064e-07
-4.55211e-07
-1.79584e-07
-4.69959e-07
-1.9035e-07
-4.85666e-07
-2.02581e-07
-5.02433e-07
-2.16547e-07
-5.20372e-07
-2.32581e-07
-5.3961e-07
-2.51153e-07
-5.60349e-07
-2.72668e-07
-5.82876e-07
-2.97154e-07
-6.07562e-07
-3.24022e-07
-6.34839e-07
-3.5164e-07
-6.65068e-07
-3.77108e-07
-6.98283e-07
-3.96841e-07
-7.33978e-07
-4.08101e-07
-7.71188e-07
-4.10322e-07
-8.0884e-07
-4.0493e-07
-8.46049e-07
-3.9408e-07
-8.82202e-07
-3.79624e-07
-9.16908e-07
-3.62833e-07
-9.49919e-07
-3.44453e-07
-9.81072e-07
-3.24887e-07
-1.01025e-06
-3.04359e-07
-1.03736e-06
-2.83001e-07
-1.06232e-06
-2.60903e-07
-1.08507e-06
-2.38136e-07
-1.10556e-06
-2.14762e-07
-1.12375e-06
-1.9084e-07
-1.13958e-06
-1.66428e-07
-1.15304e-06
-1.41583e-07
-1.16408e-06
-1.16357e-07
-1.1727e-06
-9.08137e-08
-1.17887e-06
-6.50353e-08
-1.18258e-06
-3.91128e-08
-1.30789e-08
6.57579e-07
-1.04296e-08
6.54726e-07
-3.11663e-08
6.49992e-07
-5.17329e-08
6.43398e-07
-7.20747e-08
6.3497e-07
-9.21279e-08
6.24739e-07
-1.11828e-07
6.12742e-07
-1.31112e-07
5.99023e-07
-1.4991e-07
5.83634e-07
-1.68142e-07
5.66633e-07
-1.85712e-07
5.48093e-07
-2.02496e-07
5.28103e-07
-2.18336e-07
5.0677e-07
-2.33025e-07
4.84224e-07
-2.4631e-07
4.60627e-07
-2.57896e-07
4.36167e-07
-2.67477e-07
4.11056e-07
-2.7479e-07
3.85522e-07
-2.79686e-07
3.59787e-07
-2.82189e-07
3.34055e-07
-2.82516e-07
3.08494e-07
-2.81038e-07
2.83231e-07
-2.78205e-07
2.58353e-07
-2.74459e-07
2.33912e-07
-2.70172e-07
2.09935e-07
-2.65622e-07
1.86433e-07
-2.60989e-07
1.63405e-07
-2.56376e-07
1.40847e-07
-2.51831e-07
1.18754e-07
-2.47365e-07
9.71208e-08
-2.42971e-07
7.59422e-08
-2.38635e-07
5.52149e-08
-2.34338e-07
3.49358e-08
-2.30068e-07
1.51019e-08
-2.25817e-07
-4.29036e-09
-2.21585e-07
-2.32448e-08
-2.17372e-07
-4.17639e-08
-2.13149e-07
-5.98507e-08
-2.08915e-07
-7.75092e-08
-2.04676e-07
-9.47448e-08
-2.00441e-07
-1.11564e-07
-1.96218e-07
-1.27976e-07
-1.92016e-07
-1.43989e-07
-1.87844e-07
-1.59613e-07
-1.83712e-07
-1.74861e-07
-1.79626e-07
-1.89744e-07
-1.75596e-07
-2.04277e-07
-1.71628e-07
-2.18473e-07
-1.67729e-07
-2.32349e-07
-1.63906e-07
-2.45919e-07
-1.60164e-07
-2.59201e-07
-1.56509e-07
-2.72211e-07
-1.52946e-07
-2.84966e-07
-1.49482e-07
-2.97485e-07
-1.46124e-07
-3.09784e-07
-1.42881e-07
-3.2188e-07
-1.39767e-07
-3.33782e-07
-1.36805e-07
-3.4551e-07
-1.34043e-07
-3.57056e-07
-1.31444e-07
-3.68413e-07
-1.29111e-07
-3.79535e-07
-1.27112e-07
-3.9057e-07
-1.25762e-07
-4.01632e-07
-1.30548e-07
-4.13177e-07
-1.35974e-07
-4.2526e-07
-1.42106e-07
-4.37949e-07
-1.49013e-07
-4.51323e-07
-1.56786e-07
-4.6546e-07
-1.65552e-07
-4.80447e-07
-1.75478e-07
-4.96379e-07
-1.86774e-07
-5.13365e-07
-1.99698e-07
-5.31526e-07
-2.14568e-07
-5.51013e-07
-2.31827e-07
-5.72047e-07
-2.51806e-07
-5.94919e-07
-2.74462e-07
-6.1998e-07
-2.99142e-07
-6.47596e-07
-3.24194e-07
-6.78012e-07
-3.46839e-07
-7.11125e-07
-3.63843e-07
-7.4635e-07
-3.72956e-07
-7.82754e-07
-3.73967e-07
-8.19375e-07
-3.68336e-07
-8.55449e-07
-3.5802e-07
-8.90453e-07
-3.44628e-07
-9.2405e-07
-3.2924e-07
-9.56023e-07
-3.12481e-07
-9.86223e-07
-2.94688e-07
-1.01454e-06
-2.76046e-07
-1.04087e-06
-2.56665e-07
-1.06515e-06
-2.36622e-07
-1.08731e-06
-2.15976e-07
-1.10729e-06
-1.94782e-07
-1.12504e-06
-1.73091e-07
-1.14051e-06
-1.50955e-07
-1.15367e-06
-1.28423e-07
-1.16449e-06
-1.05544e-07
-1.17293e-06
-8.23742e-08
-1.17897e-06
-5.89906e-08
-1.18261e-06
-3.54771e-08
-1.18634e-08
6.5758e-07
-9.47577e-09
6.5473e-07
-2.83166e-08
6.50001e-07
-4.70037e-08
6.43413e-07
-6.54873e-08
6.34995e-07
-8.3709e-08
6.24777e-07
-1.0161e-07
6.12798e-07
-1.19133e-07
5.99103e-07
-1.36215e-07
5.83743e-07
-1.52783e-07
5.6678e-07
-1.68749e-07
5.48287e-07
-1.84003e-07
5.28349e-07
-1.98398e-07
5.07076e-07
-2.11751e-07
4.84596e-07
-2.2383e-07
4.61068e-07
-2.34368e-07
4.36678e-07
-2.43087e-07
4.11637e-07
-2.49748e-07
3.86168e-07
-2.54216e-07
3.60492e-07
-2.56512e-07
3.34811e-07
-2.56833e-07
3.09293e-07
-2.55516e-07
2.84062e-07
-2.52969e-07
2.59203e-07
-2.49595e-07
2.34767e-07
-2.45731e-07
2.1078e-07
-2.4163e-07
1.87251e-07
-2.37454e-07
1.64179e-07
-2.33299e-07
1.41561e-07
-2.29206e-07
1.1939e-07
-2.25188e-07
9.76597e-08
-2.21236e-07
7.63657e-08
-2.17335e-07
5.55039e-08
-2.1347e-07
3.50711e-08
-2.09629e-07
1.50643e-08
-2.05805e-07
-4.51971e-09
-2.01996e-07
-2.36845e-08
-1.98202e-07
-4.24318e-08
-1.94396e-07
-6.07638e-08
-1.90577e-07
-7.86835e-08
-1.86749e-07
-9.61951e-08
-1.82922e-07
-1.13304e-07
-1.79101e-07
-1.30017e-07
-1.75295e-07
-1.46341e-07
-1.71511e-07
-1.62285e-07
-1.67758e-07
-1.77859e-07
-1.64042e-07
-1.93073e-07
-1.60371e-07
-2.07939e-07
-1.56751e-07
-2.22469e-07
-1.53188e-07
-2.36675e-07
-1.49688e-07
-2.50572e-07
-1.46256e-07
-2.64173e-07
-1.42897e-07
-2.77492e-07
-1.39616e-07
-2.90544e-07
-1.36419e-07
-3.03344e-07
-1.33313e-07
-3.15909e-07
-1.30307e-07
-3.28253e-07
-1.27414e-07
-3.40387e-07
-1.24661e-07
-3.52336e-07
-1.22085e-07
-3.64108e-07
-1.19661e-07
-3.75705e-07
-1.17502e-07
-3.87089e-07
-1.15697e-07
-3.98211e-07
-1.1517e-07
-4.09362e-07
-1.19457e-07
-4.2105e-07
-1.24351e-07
-4.33309e-07
-1.29918e-07
-4.46195e-07
-1.36206e-07
-4.59775e-07
-1.43292e-07
-4.74123e-07
-1.51298e-07
-4.89326e-07
-1.60378e-07
-5.0548e-07
-1.70732e-07
-5.22704e-07
-1.82596e-07
-5.41127e-07
-1.96277e-07
-5.60918e-07
-2.12178e-07
-5.82313e-07
-2.30563e-07
-6.05599e-07
-2.51332e-07
-6.31103e-07
-2.73794e-07
-6.59124e-07
-2.96317e-07
-6.89796e-07
-3.16291e-07
-7.22895e-07
-3.30837e-07
-7.57776e-07
-3.38139e-07
-7.93539e-07
-3.38243e-07
-8.29314e-07
-3.32582e-07
-8.64435e-07
-3.2291e-07
-8.98452e-07
-3.10616e-07
-9.31076e-07
-2.96619e-07
-9.62117e-07
-2.81441e-07
-9.91442e-07
-2.65364e-07
-1.01895e-06
-2.48542e-07
-1.04454e-06
-2.31069e-07
-1.06816e-06
-2.13009e-07
-1.08972e-06
-1.94412e-07
-1.10918e-06
-1.75326e-07
-1.12647e-06
-1.55797e-07
-1.14156e-06
-1.35869e-07
-1.15439e-06
-1.15586e-07
-1.16495e-06
-9.49914e-08
-1.17318e-06
-7.41358e-08
-1.17909e-06
-5.3089e-08
-1.18264e-06
-3.19275e-08
-1.06768e-08
6.57581e-07
-8.52344e-09
6.54736e-07
-2.54713e-08
6.50014e-07
-4.22815e-08
6.43436e-07
-5.89095e-08
6.3503e-07
-7.53027e-08
6.24828e-07
-9.14083e-08
6.12868e-07
-1.07174e-07
5.99196e-07
-1.22543e-07
5.83864e-07
-1.37451e-07
5.66933e-07
-1.51818e-07
5.48475e-07
-1.65545e-07
5.28578e-07
-1.78502e-07
5.07348e-07
-1.90522e-07
4.84914e-07
-2.01397e-07
4.61433e-07
-2.10888e-07
4.3709e-07
-2.18744e-07
4.12092e-07
-2.24751e-07
3.86663e-07
-2.28787e-07
3.61021e-07
-2.30871e-07
3.35366e-07
-2.31179e-07
3.09864e-07
-2.30014e-07
2.84638e-07
-2.27743e-07
2.59773e-07
-2.24729e-07
2.3532e-07
-2.21277e-07
2.11304e-07
-2.17612e-07
1.87733e-07
-2.13881e-07
1.64608e-07
-2.10171e-07
1.41922e-07
-2.06518e-07
1.19669e-07
-2.02932e-07
9.78426e-08
-1.99406e-07
7.64373e-08
-1.95926e-07
5.54492e-08
-1.92479e-07
3.48749e-08
-1.89052e-07
1.47118e-08
-1.85638e-07
-5.04309e-09
-1.82238e-07
-2.43929e-08
-1.78848e-07
-4.33388e-08
-1.75446e-07
-6.18819e-08
-1.72029e-07
-8.00243e-08
-1.68602e-07
-9.77692e-08
-1.65171e-07
-1.1512e-07
-1.61743e-07
-1.32083e-07
-1.58325e-07
-1.48664e-07
-1.54923e-07
-1.64869e-07
-1.51545e-07
-1.80707e-07
-1.48196e-07
-1.96187e-07
-1.44883e-07
-2.11316e-07
-1.41612e-07
-2.26107e-07
-1.38388e-07
-2.40569e-07
-1.35216e-07
-2.54714e-07
-1.32101e-07
-2.68553e-07
-1.29048e-07
-2.82098e-07
-1.26061e-07
-2.95361e-07
-1.23146e-07
-3.08355e-07
-1.20309e-07
-3.21093e-07
-1.17559e-07
-3.33589e-07
-1.14908e-07
-3.45859e-07
-1.12381e-07
-3.57923e-07
-1.10012e-07
-3.69796e-07
-1.07778e-07
-3.81514e-07
-1.05775e-07
-3.93102e-07
-1.04072e-07
-4.04387e-07
-1.04333e-07
-4.15738e-07
-1.08164e-07
-4.27605e-07
-1.12545e-07
-4.40046e-07
-1.17544e-07
-4.53118e-07
-1.23205e-07
-4.66889e-07
-1.296e-07
-4.81435e-07
-1.36837e-07
-4.96843e-07
-1.45061e-07
-5.1322e-07
-1.54454e-07
-5.30689e-07
-1.65235e-07
-5.49392e-07
-1.77689e-07
-5.69514e-07
-1.9218e-07
-5.91298e-07
-2.0891e-07
-6.15026e-07
-2.2774e-07
-6.4099e-07
-2.47963e-07
-6.69422e-07
-2.68008e-07
-7.00349e-07
-2.85467e-07
-7.33447e-07
-2.97816e-07
-7.6803e-07
-3.03607e-07
-8.0324e-07
-3.03065e-07
-8.3829e-07
-2.97549e-07
-8.72597e-07
-2.88612e-07
-9.0577e-07
-2.77448e-07
-9.37556e-07
-2.64835e-07
-9.67788e-07
-2.5121e-07
-9.96344e-07
-2.36808e-07
-1.02313e-06
-2.21759e-07
-1.04806e-06
-2.0614e-07
-1.07106e-06
-1.90006e-07
-1.09207e-06
-1.73401e-07
-1.11103e-06
-1.56366e-07
-1.12789e-06
-1.38939e-07
-1.1426e-06
-1.2116e-07
-1.15512e-06
-1.03067e-07
-1.16541e-06
-8.46988e-08
-1.17345e-06
-6.60998e-08
-1.1792e-06
-4.73324e-08
-1.18266e-06
-2.84653e-08
-9.5195e-09
6.57583e-07
-7.57283e-09
6.54743e-07
-2.26309e-08
6.50028e-07
-3.75672e-08
6.43461e-07
-5.23423e-08
6.35068e-07
-6.69096e-08
6.24881e-07
-8.12219e-08
6.1294e-07
-9.52327e-08
5.99289e-07
-1.08892e-07
5.83981e-07
-1.22142e-07
5.67075e-07
-1.34913e-07
5.48645e-07
-1.47116e-07
5.28778e-07
-1.58635e-07
5.07578e-07
-1.69323e-07
4.85175e-07
-1.78995e-07
4.61724e-07
-1.87439e-07
4.37408e-07
-1.94431e-07
4.12435e-07
-1.99781e-07
3.87024e-07
-2.0338e-07
3.61394e-07
-2.05245e-07
3.35744e-07
-2.05532e-07
3.10238e-07
-2.04512e-07
2.85002e-07
-2.0251e-07
2.60118e-07
-1.99848e-07
2.35637e-07
-1.96798e-07
2.11583e-07
-1.93559e-07
1.87966e-07
-1.90264e-07
1.64783e-07
-1.86987e-07
1.42028e-07
-1.83763e-07
1.19695e-07
-1.80598e-07
9.77773e-08
-1.77486e-07
7.62687e-08
-1.74416e-07
5.51655e-08
-1.71374e-07
3.44645e-08
-1.68349e-07
1.41632e-08
-1.65335e-07
-5.74095e-09
-1.62331e-07
-2.52507e-08
-1.59336e-07
-4.43665e-08
-1.56328e-07
-6.30888e-08
-1.53303e-07
-8.14186e-08
-1.50268e-07
-9.93581e-08
-1.47227e-07
-1.1691e-07
-1.44187e-07
-1.34079e-07
-1.41151e-07
-1.50868e-07
-1.38128e-07
-1.67285e-07
-1.35122e-07
-1.83335e-07
-1.3214e-07
-1.99025e-07
-1.29186e-07
-2.14363e-07
-1.26266e-07
-2.29358e-07
-1.23386e-07
-2.44019e-07
-1.20548e-07
-2.58354e-07
-1.17758e-07
-2.72374e-07
-1.15019e-07
-2.86089e-07
-1.12337e-07
-2.9951e-07
-1.09716e-07
-3.12649e-07
-1.07162e-07
-3.25516e-07
-1.04684e-07
-3.38126e-07
-1.0229e-07
-3.50494e-07
-1.00006e-07
-3.6264e-07