/*--------------------------------*- C++ -*----------------------------------*\
  =========                 |
  \\      /  F ield         | OpenFOAM: The Open Source CFD Toolbox
   \\    /   O peration     | Website:  https://openfoam.org
    \\  /    A nd           | Version:  8
     \\/     M anipulation  |
\*---------------------------------------------------------------------------*/
FoamFile
{
    version     2.0;
    format      ascii;
    class       volScalarField;
    location    "440/fluid";
    object      Qdot;
}
// * * * * * * * * * * * * * * * * * * * * * * * * * * * * * * * * * * * * * //

dimensions      [1 -1 -3 0 0 0 0];

internalField   nonuniform List<scalar> 
4000
(
-1.67092e-13
-2.78977e-07
0
0
-6.34947e-12
1.61552e-11
0
6.85975e-11
1.14493e-10
3.6378e-07
0
7.09428e-15
-1.09942e-09
-3.89015e-07
-2.25493e-09
-3.00324e-17
2.07111e-09
-1.95111e-15
5.21848e-09
1.72489e-07
2.34841e-06
3.23071e-05
0.000387515
0.00392965
0.032707
0.222426
1.24426
5.80118
22.8999
77.7702
230.627
604.977
1418.69
3002.67
5793.51
10280.8
16988.3
26477.9
39452.4
56913.1
80305.8
111501
152951
208231
281805
379668
509774
682595
911815
1.21528e+06
1.61618e+06
2.14468e+06
2.83992e+06
3.75271e+06
4.94895e+06
6.51421e+06
8.55987e+06
1.12244e+07
1.46198e+07
1.91646e+07
2.5107e+07
3.29105e+07
4.19002e+08
3.56806e+07
2.55624e+07
1.81182e+07
1.26782e+07
8.74053e+06
5.92408e+06
3.93941e+06
2.56715e+06
1.64244e+06
1.04381e+06
681566
238570
24547.9
790.898
12.336
0.119056
0.00110268
1.71131e-05
6.53954e-07
6.26092e-08
1.14919e-08
3.54978e-09
1.25979e-09
4.79801e-10
2.11027e-10
8.26871e-11
3.84851e-11
1.80817e-11
6.69127e-12
3.32497e-12
1.14564e-12
4.8987e-13
-6.53153e-13
8.13163e-14
4.64917e-12
1.09751e-14
1.81523e-15
0
-8.60795e-13
3.59541e-12
0
-1.84111e-16
1.30201e-11
0
0
0
-1.40937e-10
3.62183e-07
0
0
2.03231e-18
-2.86263e-14
-3.87082e-07
4.46782e-09
-2.00733e-15
9.16326e-09
-3.50027e-08
2.2966e-06
3.11869e-05
0.000375078
0.00381061
0.0318718
0.218281
1.23109
5.78883
23.0431
78.8781
235.626
622.17
1467.39
3118.41
6029.29
10714.4
17705.1
27563.5
40986.6
58931.5
82725.2
114314
156590
212792
287519
386951
519278
695304
929203
1.23954e+06
1.65062e+06
2.19424e+06
2.91201e+06
3.85835e+06
5.10449e+06
6.74368e+06
8.89806e+06
1.17314e+07
1.53538e+07
2.0232e+07
2.66354e+07
3.50312e+07
4.30234e+08
3.36843e+07
2.41803e+07
1.7159e+07
1.20111e+07
8.27582e+06
5.60063e+06
3.71534e+06
2.4136e+06
1.53944e+06
977639
630871
180963
14145.3
382.365
5.22727
0.0479248
0.000478533
8.93533e-06
4.19766e-07
4.768e-08
1.03032e-08
2.92508e-09
1.26201e-09
4.94111e-10
2.29947e-10
8.09378e-11
3.90414e-11
1.67216e-11
6.55581e-12
2.82876e-12
1.20206e-12
4.85353e-13
1.02571e-12
8.84038e-13
-5.36848e-12
5.24745e-12
1.81775e-15
0
0
0
0
1.81819e-16
1.28188e-11
0
-5.37957e-11
0
-3.25734e-15
-2.78109e-10
0
0
3.63955e-07
3.67663e-07
-2.39828e-17
-2.36933e-09
3.78712e-07
1.27658e-08
1.78662e-07
2.33793e-06
3.12212e-05
0.00037493
0.0038036
0.0318903
0.219438
1.24547
5.89935
23.6662
81.6517
245.801
653.826
1552.46
3315.8
6427.72
11445.6
18914
29377.6
43448.1
62062.9
86896.2
119976
163744
221774
298864
401457
538111
720142
962479
1.28481e+06
1.71315e+06
2.28185e+06
3.03644e+06
4.03739e+06
5.3652e+06
7.12756e+06
9.4692e+06
1.25652e+07
1.66195e+07
2.21668e+07
2.9583e+07
3.95022e+07
4.23672e+08
3.154e+07
2.26373e+07
1.60437e+07
1.12056e+07
7.69682e+06
5.18812e+06
3.42559e+06
2.21449e+06
1.40743e+06
895767
550704
119480
7040.12
163.856
2.0638
0.0193045
0.000221091
5.06886e-06
2.89316e-07
3.75341e-08
9.23943e-09
2.94775e-09
1.1648e-09
4.19219e-10
1.97634e-10
9.28761e-11
3.30621e-11
1.45408e-11
6.41917e-12
2.77938e-12
1.11545e-12
4.27817e-13
2.13109e-13
7.15744e-14
3.08975e-14
1.02372e-14
7.46341e-13
0
2.02956e-17
0
2.96954e-07
0
1.55505e-11
0
0
0
1.09169e-10
0
0
-3.50506e-07
-1.90576e-18
-9.16731e-10
-3.10148e-17
1.86799e-09
-2.1779e-15
8.52862e-09
-7.54201e-09
2.37452e-06
3.16906e-05
0.000379196
0.00385709
0.0324802
0.224791
1.28437
6.12744
24.7644
86.0808
261.04
699.268
1671.16
3587.12
6966.9
12387.7
20400.4
31523.1
46569.8
66596
92916.6
127528
173173
233564
313719
420360
562422
751736
1.00396e+06
1.33982e+06
1.78682e+06
2.38153e+06
3.17268e+06
4.22544e+06
5.62728e+06
7.49623e+06
9.99254e+06
1.32958e+07
1.76787e+07
2.3762e+07
3.20338e+07
8.32359e+07
3.74924e+08
3.01264e+07
2.15238e+07
1.51752e+07
1.05379e+07
7.19271e+06
4.81583e+06
3.15798e+06
2.0288e+06
1.28522e+06
823037
444213
71919.5
3298.37
66.8116
0.78238
0.00754153
9.95787e-05
2.79987e-06
1.96062e-07
2.90654e-08
7.53404e-09
2.44062e-09
9.15978e-10
3.54691e-10
1.73678e-10
7.62057e-11
3.18953e-11
1.43276e-11
4.15747e-13
2.41812e-12
1.0586e-12
4.25233e-13
-6.59437e-13
6.80238e-14
2.48179e-14
8.77811e-15
1.65009e-15
6.97063e-22
-2.02139e-17
0
0
-1.77791e-16
-1.53362e-11
-2.54861e-11
-1.08779e-19
-3.27386e-07
0
0
3.37786e-07
-1.27986e-14
-1.96712e-09
-8.8858e-10
-2.62747e-17
-4.02769e-09
3.65216e-09
8.23903e-09
1.83614e-07
2.46328e-06
3.26196e-05
0.000390475
0.00398309
0.0336891
0.234434
1.34774
6.47213
26.3365
92.1763
281.356
758.054
1819.68
3913.75
7591.85
13450.9
22177.9
34384.2
50674.6
72027.3
99885.7
136299
184133
247272
330966
442218
590318
787554
1.05019e+06
1.39974e+06
1.8648e+06
2.48331e+06
3.30583e+06
4.3998e+06
5.85546e+06
7.79391e+06
1.03782e+07
1.37833e+07
1.82721e+07
2.44457e+07
3.27221e+07
2.13006e+08
2.58287e+08
2.96464e+07
2.09641e+07
1.4637e+07
1.00686e+07
6.80911e+06
4.51791e+06
2.93722e+06
1.87329e+06
1.18286e+06
762831
337738
40899.9
1527.66
27.4791
0.306483
0.00312133
4.81207e-05
1.65413e-06
1.37098e-07
2.26378e-08
6.10274e-09
2.29196e-09
7.87881e-10
3.96376e-10
1.69126e-10
6.88325e-11
3.13783e-11
1.99729e-11
5.40889e-12
2.41528e-12
9.9275e-13
-4.03645e-13
1.67719e-13
6.17656e-14
5.34345e-12
-5.18174e-12
1.47853e-15
2.64041e-07
-1.6947e-12
8.32387e-17
-1.71395e-16
-1.75841e-16
1.23124e-11
0
-1.06891e-19
2.30371e-10
1.28392e-10
0
0
5.2461e-10
0
8.6285e-10
5.06843e-14
-2.42136e-16
-2.37039e-15
7.96542e-09
1.935e-07
2.58114e-06
3.39815e-05
0.000407299
0.00417318
0.0354684
0.248201
1.43541
6.93399
28.3725
99.7959
305.833
826.547
1988.81
4287.14
8349.02
14863.8
24498.4
37781.6
55354.3
78188.6
107752
146189
196510
262801
350567
467115
622119
828347
1.10268e+06
1.46745e+06
1.95225e+06
2.59631e+06
3.45175e+06
4.58793e+06
6.09729e+06
8.10343e+06
1.07716e+07
1.4263e+07
1.88592e+07
2.51853e+07
3.36606e+07
3.19532e+08
1.51671e+08
2.9126e+07
2.04105e+07
1.41191e+07
9.62295e+06
6.44868e+06
4.24105e+06
2.73455e+06
1.73244e+06
1.0915e+06
705842
235551
22684.5
716.601
11.6404
0.125767
0.00136956
2.46217e-05
1.01369e-06
9.89694e-08
1.82545e-08
5.36616e-09
1.92887e-09
7.27629e-10
3.42372e-10
1.47141e-10
6.41803e-11
2.67667e-11
1.64334e-11
6.61445e-12
2.28075e-12
9.4024e-13
3.92745e-13
1.47881e-13
6.17392e-14
-5.26401e-12
8.09669e-15
1.30716e-15
-2.63666e-07
-2.87823e-21
0
-1.21922e-20
1.73862e-16
3.5472e-16
7.21461e-16
-6.15786e-11
1.47939e-15
-1.25648e-10
0
0
3.23024e-07
-8.34066e-10
1.02917e-09
-3.17506e-17
1.69418e-09
-2.47797e-15
1.88382e-08
2.05774e-07
2.5377e-06
3.55118e-05
0.000430376
0.00442653
0.037797
0.265716
1.54364
7.48613
30.7377
108.451
333.356
907.058
2201.98
4793.88
9350.76
16564.4
27168.4
41641.9
60598.7
85022
116422
157070
210147
279979
372357
494950
657885
874526
1.16253e+06
1.54525e+06
2.05361e+06
2.72855e+06
3.62436e+06
4.81303e+06
6.39014e+06
8.48268e+06
1.12514e+07
1.48629e+07
1.96267e+07
2.61433e+07
3.48116e+07
4.1402e+08
5.45051e+07
2.81123e+07
1.94996e+07
1.33734e+07
9.04563e+06
6.01969e+06
3.93344e+06
2.52176e+06
1.59132e+06
1.00338e+06
638346
169600
12525.5
345.694
5.16984
0.0551379
0.000649855
1.36034e-05
6.65401e-07
7.40653e-08
1.56197e-08
4.47193e-09
1.69287e-09
6.83391e-10
3.05336e-10
1.45008e-10
6.03583e-11
2.72769e-11
1.21411e-11
4.8935e-12
2.05789e-12
8.32878e-13
3.68363e-13
1.47505e-13
6.16862e-14
2.1909e-14
-7.51665e-13
1.31461e-15
-4.83536e-18
0
-2.81276e-12
-1.68327e-16
-1.447e-11
1.1984e-11
2.43222e-11
-1.03178e-19
-1.45087e-15
1.22973e-10
0
-3.13312e-07
4.04482e-10
3.15487e-07
-1.81115e-09
-4.10153e-17
-3.19796e-07
-3.24471e-07
2.22737e-08
3.87494e-07
2.73162e-06
3.78567e-05
0.000458126
0.00472996
0.04052
0.285797
1.6655
8.10346
33.5193
119.498
372.343
1021.62
2490.56
5417.13
10525.9
18526.8
30195.4
45943.1
66357
92425.3
125738
168715
224729
298372
395747
524930
696579
924777
1.22816e+06
1.63142e+06
2.16731e+06
2.87933e+06
3.82524e+06
5.0818e+06
6.751e+06
8.96845e+06
1.19137e+07
1.57156e+07
2.07544e+07
2.75973e+07
3.65835e+07
4.60951e+08
3.54207e+07
2.51252e+07
1.75805e+07
1.21208e+07
8.22156e+06
5.47756e+06
3.57959e+06
2.29467e+06
1.44993e+06
920252
559827
118959
7091.77
175.095
2.45045
0.0261611
0.000335429
8.10483e-06
4.61592e-07
5.93358e-08
1.30612e-08
4.30178e-09
1.56747e-09
6.50685e-10
2.80843e-10
1.42986e-10
5.31137e-11
2.37097e-11
1.00242e-11
4.26212e-12
1.84038e-12
7.2772e-13
3.03308e-13
1.41553e-13
5.28318e-14
2.04396e-14
6.67799e-15
-5.03777e-12
0
2.8546e-21
0
0
-1.16397e-11
0
0
0
2.04177e-19
-3.04028e-07
3.04937e-07
8.24416e-19
3.05939e-07
0
9.68232e-10
-3.6394e-17
-2.78922e-16
-3.91614e-09
1.82576e-08
3.91415e-07
2.92413e-06
4.03375e-05
0.00048868
0.00505965
0.0435139
0.30932
1.82188
8.98897
37.5177
134.538
420.331
1156.95
2826.51
6144.45
11879.8
20748.2
33560.9
50634.8
72528.9
100241
135465
180777
239750
317229
419621
555400
735746
975465
1.29419e+06
1.71805e+06
2.2818e+06
3.03185e+06
4.03021e+06
5.35997e+06
7.13268e+06
9.49865e+06
1.26585e+07
1.67737e+07
2.24513e+07
3.00897e+07
4.03662e+07
4.4583e+08
3.20297e+07
2.27864e+07
1.59893e+07
1.10497e+07
7.50806e+06
5.00814e+06
3.27579e+06
2.10267e+06
1.33317e+06
854462
482324
83552.4
4198.31
94.3748
1.25246
0.0135205
0.000188782
5.20826e-06
3.37592e-07
4.71981e-08
1.09534e-08
3.56254e-09
1.54312e-09
6.40752e-10
2.51596e-10
1.21041e-10
5.88037e-11
2.34329e-11
8.67297e-12
4.18248e-12
1.62715e-12
6.18776e-12
3.01957e-13
5.48131e-12
8.26309e-13
1.89672e-14
6.69533e-15
1.14743e-15
0
2.69583e-07
-2.75826e-07
-2.81265e-07
1.41424e-11
0
5.2526e-11
0
0
-9.57498e-11
-5.59776e-15
-2.97517e-07
-4.70303e-10
-9.39059e-10
-6.39849e-18
-3.83948e-17
-1.52945e-09
-2.9097e-15
1.37743e-08
2.49765e-07
3.28773e-06
4.31217e-05
0.000525848
0.00550124
0.0479217
0.343375
2.03312
10.0572
42.1421
151.779
476.194
1315.47
3220.34
6991.01
13426.1
23228.5
37240.4
55654.7
79003
108304
145371
192921
254719
335811
442859
584639
772735
1.02248e+06
1.35424e+06
1.79509e+06
2.38115e+06
3.16066e+06
4.19823e+06
5.5806e+06
7.42462e+06
9.88835e+06
1.31615e+07
1.74621e+07
2.34312e+07
3.15007e+07
7.74059e+07
4.06432e+08
3.0056e+07
2.13615e+07
1.49782e+07
1.03445e+07
7.02513e+06
4.68404e+06
3.06347e+06
1.96802e+06
1.2522e+06
811012
410518
59824.6
2619.07
54.3869
0.692285
0.00760557
0.000115321
3.58895e-06
2.59861e-07
3.91179e-08
1.02405e-08
3.61125e-09
1.37752e-09
5.81573e-10
2.72506e-10
1.07105e-10
5.17449e-11
2.15758e-11
4.40546e-12
8.57862e-12
1.70247e-12
6.69539e-13
5.6362e-12
5.42623e-12
4.93574e-14
1.89683e-14
5.98003e-15
1.0625e-15
2.62169e-07
2.68464e-07
5.77821e-21
1.63778e-16
0
-1.14993e-11
0
5.7309e-11
0
-9.36106e-11
0
-2.89663e-07
0
-9.10574e-10
7.38578e-10
-4.32676e-17
-3.09084e-16
-3.06071e-15
1.98525e-08
1.08702e-07
3.58332e-06
4.68461e-05
0.000577061
0.00606379
0.0529462
0.380921
2.26596
11.2634
47.4335
171.698
541.267
1501.13
3681.72
7972.54
15174.6
25956.5
41192.9
60931.8
85666.3
116471
155278
204928
269345
353721
464889
611819
806327
1.06402e+06
1.40559e+06
1.85849e+06
2.45921e+06
3.25636e+06
4.31476e+06
5.72097e+06
7.59083e+06
1.00796e+07
1.33684e+07
1.76601e+07
2.35627e+07
3.14417e+07
1.6099e+08
3.31991e+08
2.90686e+07
2.06018e+07
1.44128e+07
9.9356e+06
6.73729e+06
4.48697e+06
2.93282e+06
1.88508e+06
1.20325e+06
785862
356383
44217.7
1729.64
33.4947
0.412534
0.00463306
7.59085e-05
2.62974e-06
2.11625e-07
3.4884e-08
8.75915e-09
3.06888e-09
1.30104e-09
5.71692e-10
2.38666e-10
1.12244e-10
4.48661e-11
1.9756e-11
7.71136e-12
3.5372e-12
-3.73301e-12
6.6479e-13
2.6372e-13
1.21257e-13
4.62653e-14
1.74863e-14
5.62597e-15
9.76755e-16
0
-2.99822e-12
0
-2.76109e-07
0
2.52751e-11
9.56219e-20
0
-1.33754e-15
-2.84089e-07
5.32491e-15
0
0
2.09553e-14
-8.97877e-18
-4.17392e-17
-3.33278e-16
-3.28631e-15
1.90405e-08
4.21916e-07
3.61346e-06
5.11094e-05
0.000630429
0.0066556
0.0584067
0.422419
2.52649
12.6283
53.4815
194.674
616.928
1718.17
4220.63
9102.55
17121.6
28893.9
45343.3
66353.4
92389.5
124613
165060
216692
283542
370910
485732
637086
836899
1.10089e+06
1.44983e+06
1.9112e+06
2.52144e+06
3.32888e+06
4.39775e+06
5.81348e+06
7.68988e+06
1.01788e+07
1.34533e+07
1.77099e+07
2.35475e+07
3.13194e+07
2.26554e+08
2.68805e+08
2.84078e+07
2.01091e+07
1.40524e+07
9.6778e+06
6.55736e+06
4.3649e+06
2.85289e+06
1.8354e+06
1.17524e+06
772722
300754
33860.4
1207.03
22.0312
0.264233
0.00303681
5.34202e-05
2.02957e-06
1.78633e-07
3.07004e-08
8.59477e-09
3.01082e-09
1.27643e-09
5.14393e-10
2.39707e-10
1.04454e-10
4.42135e-11
1.94927e-11
8.39277e-12
3.88328e-12
1.54256e-12
6.11704e-13
4.71527e-12
5.33147e-12
4.02276e-14
1.60049e-14
5.63096e-15
7.3879e-13
-2.61423e-07
2.98571e-12
0
0
-2.32855e-20
2.49174e-11
-6.55039e-16
0
2.78498e-07
3.74506e-19
7.44814e-19
0
-3.50065e-10
-2.91127e-18
8.47163e-10
-4.02073e-17
3.0418e-09
6.07283e-09
1.82254e-08
4.36824e-07
3.95717e-06
5.53476e-05
0.000687028
0.00729254
0.064355
0.46811
2.81624
14.1614
60.3415
220.987
704.338
1970.35
4845.48
10386.1
19234.4
31951
49553.6
71742.9
98987.6
132553
174570
228103
297261
387418
505571
660854
865240
1.13447e+06
1.48929e+06
1.95709e+06
2.57408e+06
3.38819e+06
4.46293e+06
5.88259e+06
7.75925e+06
1.02414e+07
1.34957e+07
1.77214e+07
2.3507e+07
3.11872e+07
2.81861e+08
2.1553e+08
2.77921e+07
1.96851e+07
1.37625e+07
9.48184e+06
6.42699e+06
4.27996e+06
2.79929e+06
1.80346e+06
1.15861e+06
764412
265597
26758.4
884.243
15.3595
0.180642
0.00212625
3.98817e-05
1.6414e-06
1.55266e-07
2.90039e-08
8.06158e-09
2.76907e-09
1.15982e-09
5.05213e-10
2.12072e-10
9.17516e-11
4.7253e-11
1.84616e-11
8.28592e-12
3.46055e-12
6.58753e-12
6.06663e-13
2.60339e-13
1.05586e-13
-5.11233e-12
1.59792e-14
5.07624e-12
9.81534e-16
0
2.65123e-07
0
0
2.30085e-20
-2.73747e-07
2.20575e-11
0
8.7742e-11
8.72008e-11
0
-7.63954e-10
-7.56054e-10
-2.8138e-18
6.64584e-10
-4.41963e-17
-1.30938e-09
3.20543e-09
2.64091e-08
3.24809e-07
4.42755e-06
5.98544e-05
0.000746502
0.00796922
0.0707342
0.517589
3.13317
15.8559
68.0068
250.712
804.069
2259.87
5559.56
11808.3
21423.7
34950
53592.9
76818.2
105167
140006
183542
238925
310310
403122
524389
683279
891772
1.16559e+06
1.5254e+06
1.99845e+06
2.62065e+06
3.43948e+06
4.51772e+06
5.93835e+06
7.81082e+06
1.02822e+07
1.3516e+07
1.77109e+07
2.34399e+07
3.10284e+07
3.27072e+08
1.7257e+08
2.71899e+07
1.92863e+07
1.35014e+07
9.31341e+06
6.32052e+06
4.2146e+06
2.76088e+06
1.7826e+06
1.14928e+06
758755
242751
21859.4
679.04
11.3217
0.131252
0.00158109
3.13735e-05
1.38473e-06
1.39246e-07
2.66815e-08
7.53143e-09
2.88051e-09
1.22315e-09
4.94097e-10
2.31547e-10
9.50802e-11
4.28153e-11
1.81853e-11
1.32731e-11
3.41896e-12
1.36595e-12
6.01257e-13
2.58418e-13
-5.04228e-12
3.99416e-14
5.11162e-12
5.26977e-15
8.93854e-16
-6.87228e-22
0
-5.9793e-12
0
2.27314e-20
0
0
1.81035e-19
0
0
-2.61752e-07
-2.58227e-07
-2.55288e-07
6.47939e-10
-6.39823e-10
-5.3047e-17
3.62202e-14
-3.91643e-15
2.21155e-08
3.41798e-07
4.64478e-06
6.42521e-05
0.000807722
0.0086681
0.0773869
0.569721
3.47078
17.6821
76.3702
283.552
915.499
2585.31
6354.69
13315.1
23504
37578.6
57058.4
81143.3
110479
146505
191510
248679
322208
417539
541724
703933
916131
1.19398e+06
1.55804e+06
2.03532e+06
2.6614e+06
3.48309e+06
4.5619e+06
5.97938e+06
7.84459e+06
1.03032e+07
1.35087e+07
1.76599e+07
2.33208e+07
3.08094e+07
3.62504e+08
1.38369e+08
2.6598e+07
1.89e+07
1.32549e+07
9.16012e+06
6.22827e+06
4.16144e+06
2.73221e+06
1.76901e+06
1.14495e+06
755033
224829
18495.5
546.277
8.80638
0.101016
0.0012429
2.58763e-05
1.20936e-06
1.26099e-07
2.53437e-08
7.34104e-09
2.80994e-09
1.15584e-09
4.83283e-10
2.14934e-10
9.65436e-11
3.78698e-11
1.43814e-11
8.05724e-12
3.19145e-12
2.09816e-12
5.95521e-13
5.34067e-12
1.01127e-13
5.13402e-12
1.44585e-14
4.90652e-15
-7.34914e-13
-1.63704e-13
0
0
-2.65828e-07
0
3.12337e-16
2.64698e-07
0
0
1.84834e-10
-2.54104e-07
0
3.17368e-10
0
1.37091e-09
1.21289e-09
-1.19851e-09
-4.10086e-15
2.3916e-08
3.63392e-07
4.8688e-06
6.86173e-05
0.000867514
0.00936086
0.084047
0.62249
3.81661
19.5772
85.1689
318.589
1035.85
2938.4
7200.71
14781.7
25139.1
39353.5
59372.1
84091.5
114254
151352
197722
256563
332084
429734
556568
721742
937182
1.21846e+06
1.58598e+06
2.0664e+06
2.69464e+06
3.51651e+06
4.59288e+06
6.00496e+06
7.85857e+06
1.02925e+07
1.3455e+07
1.7537e+07
2.30812e+07
3.03783e+07
3.95454e+08
1.09984e+08
2.59733e+07
1.85075e+07
1.30133e+07
9.0159e+06
6.1457e+06
4.11699e+06
2.71067e+06
1.76079e+06
1.14431e+06
752907
211464
16206.6
459.611
7.20931
0.0820409
0.00102797
2.22719e-05
1.09129e-06
1.19381e-07
2.39945e-08
7.13982e-09
2.73618e-09
1.0806e-09
4.83924e-10
2.1099e-10
9.14265e-11
4.13047e-11
1.68944e-11
7.93671e-12
3.24905e-12
1.33499e-12
5.89522e-13
2.41519e-13
9.46842e-14
3.95681e-14
1.44136e-14
-7.34849e-13
5.00207e-12
-4.77303e-18
-2.61791e-07
0
-2.63259e-07
-2.21774e-20
4.41699e-20
-4.66521e-11
0
1.19641e-15
9.92797e-11
0
0
-2.37928e-07
-7.38965e-10
-2.29116e-07
-5.35025e-17
-4.26416e-16
2.25726e-09
2.48995e-08
4.89757e-07
5.08097e-06
7.2693e-05
0.000922798
0.0100075
0.0903318
0.672857
4.15088
21.4342
93.9202
353.964
1158.86
3299.21
8029.53
15968.7
25782.4
39555.6
59757.5
84837.5
115594
153564
201084
261348
338556
438150
567177
734769
952785
1.23666e+06
1.6065e+06
2.08852e+06
2.71737e+06
3.53912e+06
4.6135e+06
6.01826e+06
7.85687e+06
1.02658e+07
1.33873e+07
1.74104e+07
2.28641e+07
3.00311e+07
4.17932e+08
8.87001e+07
2.54029e+07
1.8145e+07
1.27908e+07
8.88505e+06
6.07308e+06
4.08008e+06
2.69473e+06
1.75654e+06
1.14615e+06
752332
202162
14689.6
403.513
6.19385
0.0700621
0.000890798
1.99118e-05
1.01074e-06
1.14496e-07
2.32654e-08
6.92995e-09
2.65991e-09
1.05219e-09
4.81519e-10
2.05519e-10
9.49631e-11
3.98149e-11
1.80019e-11
8.52856e-12
-1.63802e-12
1.31858e-12
5.83281e-13
2.29133e-13
9.40086e-14
3.93548e-14
1.4362e-14
5.05169e-15
8.75271e-16
0
2.60681e-07
0
0
0
-2.57801e-07
2.52602e-11
0
-2.48465e-07
0
2.39544e-07
0
0
-2.42251e-18
-2.20726e-07
3.22842e-14
-4.42122e-16
2.14004e-09
-1.76618e-07
3.95006e-07
5.25283e-06
7.60516e-05
0.000969587
0.0105601
0.0957542
0.716795
4.4461
23.097
101.873
386.587
1273.35
3630.25
8713.64
16463.3
24643.4
37283.9
57288.4
82374
113385
151864
200115
261307
339608
440436
570800
739768
959116
1.24413e+06
1.6148e+06
2.09735e+06
2.72613e+06
3.54539e+06
4.61362e+06
6.00754e+06
7.82802e+06
1.0208e+07
1.32839e+07
1.72411e+07
2.25923e+07
2.96069e+07
4.34387e+08
7.44574e+07
2.48101e+07
1.7776e+07
1.25684e+07
8.7567e+06
6.0035e+06
4.04593e+06
2.68095e+06
1.75368e+06
1.14849e+06
753717
196326
13743.3
368.601
5.56592
0.0626749
0.000805547
1.8421e-05
9.59139e-07
1.10658e-07
2.31059e-08
6.88194e-09
2.58134e-09
1.10327e-09
4.78343e-10
2.0532e-10
9.28858e-11
4.11977e-11
1.83701e-11
7.68394e-12
3.23583e-12
1.39079e-12
-1.94231e-13
2.26991e-13
9.32973e-14
3.62809e-14
1.50909e-14
4.88127e-15
4.99349e-12
-2.59193e-07
0
0
2.17757e-20
1.50632e-16
0
-2.50639e-07
-2.46834e-07
1.13986e-15
-2.3773e-07
2.32408e-07
2.2667e-07
-2.21296e-07
-1.23602e-09
5.40458e-10
-5.74881e-17
-4.49757e-16
2.48591e-09
2.85645e-08
4.09642e-07
5.36572e-06
7.84978e-05
0.0010037
0.0109659
0.0997722
0.749667
4.66936
24.3695
108.036
412.127
1362.63
3872.02
9043.67
15767.8
23978.2
31582.6
51027.1
75659.7
106385
144721
192928
254117
332408
433164
563336
731932
950640
1.23468e+06
1.60384e+06
2.0839e+06
2.70822e+06
3.52063e+06
4.57839e+06
5.9565e+06
7.75331e+06
1.0098e+07
1.31215e+07
1.70042e+07
2.22414e+07
2.90883e+07
4.45265e+08
6.5487e+07
2.422e+07
1.74057e+07
1.23427e+07
8.62431e+06
5.92974e+06
4.00787e+06
2.66369e+06
1.74774e+06
1.14795e+06
753744
193224
13227.5
349.017
5.21051
0.0584829
0.000756945
1.75667e-05
9.30502e-07
1.08901e-07
2.31381e-08
7.08361e-09
2.58873e-09
1.0712e-09
4.67488e-10
2.10228e-10
9.07576e-11
3.88681e-11
1.73384e-11
7.55296e-12
3.36079e-12
2.0836e-12
5.70167e-13
2.3599e-13
9.25604e-14
-6.95304e-13
1.49547e-14
4.99747e-12
8.50067e-16
2.58822e-07
0
1.0856e-20
0
0
-1.23583e-11
0
-3.88769e-11
1.11142e-15
1.65725e-10
3.2294e-10
5.90591e-19
3.36306e-10
-2.06715e-07
1.50475e-14
-5.88166e-17
-1.19949e-09
-1.82565e-07
3.09432e-08
4.14996e-07
5.67712e-06
7.97324e-05
0.00102105
0.0111736
0.101845
0.766768
4.78654
25.0435
111.321
425.643
1406.74
3948.48
8846.86
16430.6
24976.5
32692.7
40386.5
63972.8
93578.9
130725
177619
237295
313783
412353
539843
705123
919697
1.19851e+06
1.56097e+06
2.03238e+06
2.64564e+06
3.44371e+06
4.48272e+06
5.83599e+06
7.59952e+06
9.89915e+06
1.28613e+07
1.66609e+07
2.17766e+07
2.84495e+07
4.50948e+08
6.14262e+07
2.36222e+07
1.70156e+07
1.20915e+07
8.46535e+06
5.83136e+06
3.94862e+06
2.62909e+06
1.7281e+06
1.13665e+06
747286
191586
13027
340.906
5.05919
0.0566833
0.000736053
1.71979e-05
9.16848e-07
1.07873e-07
2.25769e-08
6.99211e-09
2.56957e-09
1.07633e-09
4.73738e-10
2.00464e-10
9.36963e-11
4.06305e-11
1.69962e-11
7.41897e-12
3.30797e-12
1.35327e-12
-1.46892e-13
2.38596e-13
5.01359e-12
3.58312e-14
-4.22207e-12
4.85677e-15
8.73851e-16
0
2.72552e-21
2.58969e-12
-6.32085e-12
0
1.23583e-11
2.43341e-11
4.77814e-11
0
-9.1376e-11
6.07318e-19
-5.90581e-19
-7.99047e-15
-2.22639e-18
-6.33663e-10
-5.88151e-17
1.19942e-09
1.89148e-07
3.13689e-08
4.14981e-07
5.50346e-06
7.97368e-05
0.00102117
0.0111742
0.101848
0.766789
4.78666
25.044
111.323
425.65
1406.75
3948.48
8846.98
16430.8
24976.8
32693.1
40383.8
63970.4
93577
130724
177619
237296
313786
412358
539852
705135
919713
1.19853e+06
1.561e+06
2.0324e+06
2.64567e+06
3.44375e+06
4.48274e+06
5.836e+06
7.59952e+06
9.8991e+06
1.28611e+07
1.66606e+07
2.17761e+07
2.84489e+07
4.50967e+08
6.14103e+07
2.3621e+07
1.70147e+07
1.2091e+07
8.46499e+06
5.83113e+06
3.94847e+06
2.62901e+06
1.72805e+06
1.13662e+06
747262
191571
13025.2
340.845
5.05815
0.0566714
0.000735907
1.71957e-05
9.17344e-07
1.07382e-07
2.25807e-08
6.83347e-09
2.56564e-09
1.09727e-09
4.82484e-10
2.0495e-10
9.08776e-11
4.06296e-11
1.77293e-11
7.41896e-12
3.2134e-12
1.35327e-12
5.63371e-13
4.3947e-12
9.18017e-14
4.98169e-12
-4.9522e-12
5.21087e-15
8.49425e-16
0
0
7.61662e-17
0
0
1.25555e-11
0
3.97384e-11
-1.13984e-15
-9.40105e-11
2.32251e-07
0
0
-2.32439e-18
1.20464e-09
-5.74852e-17
-2.2994e-09
2.0225e-09
3.10049e-08
3.06034e-07
5.46721e-06
7.85044e-05
0.00100375
0.0109671
0.0997816
0.749728
4.66968
24.371
108.042
412.145
1362.68
3872.12
9043.45
15768.3
23979
31580.2
51025.4
75659.5
106387
144726
192938
254134
332432
433200
563386
731999
950728
1.2348e+06
1.60399e+06
2.08408e+06
2.70843e+06
3.52087e+06
4.57866e+06
5.95678e+06
7.75356e+06
1.00982e+07
1.31215e+07
1.70038e+07
2.22405e+07
2.90868e+07
4.45325e+08
6.54397e+07
2.42167e+07
1.74034e+07
1.23413e+07
8.6234e+06
5.92919e+06
4.00755e+06
2.6635e+06
1.74763e+06
1.14789e+06
753690
193179
13222.1
348.835
5.20741
0.0584473
0.000756536
1.75577e-05
9.29884e-07
1.0827e-07
2.31939e-08
7.08354e-09
2.65306e-09
1.07119e-09
4.85453e-10
2.05836e-10
8.84109e-11
4.03371e-11
1.73383e-11
7.39851e-12
3.18664e-12
2.08357e-12
5.7018e-13
2.29813e-13
9.25602e-14
3.88908e-14
5.00282e-12
4.86948e-15
8.50086e-16
0
-2.74892e-21
0
-2.60689e-07
2.59598e-07
-2.57798e-07
0
4.05993e-11
0
0
0
2.34558e-07
-2.29726e-07
0
-7.10926e-18
3.22826e-14
-4.42098e-16
4.76985e-09
3.29317e-08
3.97063e-07
5.25749e-06
7.61802e-05
0.00096991
0.0105628
0.0957771
0.716946
4.44693
23.1008
101.888
386.639
1273.5
3630.64
8714.23
16462.7
24642
37286.6
57293.4
82382.6
113398
151884
200144
261348
339664
440512
570900
739898
959284
1.24434e+06
1.61507e+06
2.09768e+06
2.72653e+06
3.54586e+06
4.61417e+06
6.00813e+06
7.82863e+06
1.02085e+07
1.32841e+07
1.72408e+07
2.25911e+07
2.96044e+07
4.34517e+08
7.4383e+07
2.48045e+07
1.77725e+07
1.25663e+07
8.75549e+06
6.00282e+06
4.04555e+06
2.68074e+06
1.75357e+06
1.14844e+06
753661
196258
13734.3
368.291
5.56056
0.062613
0.000804823
1.8407e-05
9.5915e-07
1.11844e-07
2.31059e-08
7.01967e-09
2.65176e-09
1.05901e-09
4.82752e-10
2.111e-10
9.28853e-11
4.11984e-11
1.7674e-11
7.29875e-12
3.23582e-12
1.30159e-12
5.3187e-13
2.26998e-13
9.32971e-14
3.62818e-14
1.43054e-14
4.8811e-15
8.94943e-16
0
-2.76063e-21
-3.25124e-12
1.18093e-11
0
2.61785e-07
-2.57226e-11
-5.09594e-11
-1.19639e-15
2.50967e-07
-1.95355e-10
0
-3.06423e-10
7.38952e-10
1.3155e-09
-1.42597e-09
2.54753e-09
2.77414e-09
2.7132e-08
4.92445e-07
4.96867e-06
7.27346e-05
0.000923201
0.0100111
0.0903608
0.673046
4.1519
21.4388
93.9379
354.024
1159.04
3299.67
8030.38
15969.1
25783
39560.9
59766.1
84850.8
115614
153593
201124
261404
338631
438251
567309
734942
953008
1.23694e+06
1.60685e+06
2.08896e+06
2.71789e+06
3.53974e+06
4.6142e+06
6.01904e+06
7.85769e+06
1.02666e+07
1.33878e+07
1.74105e+07
2.28634e+07
3.00291e+07
4.18227e+08
8.86237e+07
2.53954e+07
1.81403e+07
1.2788e+07
8.88339e+06
6.07212e+06
4.07955e+06
2.69445e+06
1.75639e+06
1.14607e+06
752264
202069
14676.7
403.061
6.18592
0.0699699
0.000889732
1.98914e-05
1.00966e-06
1.14499e-07
2.32656e-08
6.92995e-09
2.65993e-09
1.05218e-09
4.69927e-10
2.05521e-10
9.49625e-11
4.17557e-11
1.73721e-11
7.10258e-12
-1.63801e-12
2.08847e-12
5.3783e-13
2.29132e-13
9.40083e-14
5.07386e-12
-7.2513e-13
5.24821e-15
8.70758e-16
-3.64904e-13
1.32266e-12
0
2.65831e-07
-2.24542e-20
4.4842e-20
6.22072e-16
0
0
-2.42143e-15
0
-2.50339e-07
2.46719e-07
-2.61828e-18
-7.73416e-18
-1.21279e-09
-4.1196e-16
6.52238e-14
2.55044e-07
3.65711e-07
4.87885e-06
6.86739e-05
0.000867769
0.00936496
0.0840814
0.622712
3.8178
19.5825
85.1891
318.656
1036.04
2938.89
7201.71
14782.9
25140.9
39360
59382.5
84107.2
114277
151384
197767
256625
332167
429844
556713
721930
937424
1.21877e+06
1.58636e+06
2.06687e+06
2.69521e+06
3.5172e+06
4.59371e+06
6.00593e+06
7.85973e+06
1.02939e+07
1.34565e+07
1.75392e+07
2.30847e+07
3.03845e+07
3.95929e+08
1.09749e+08
2.59722e+07
1.85061e+07
1.30122e+07
9.01507e+06
6.14514e+06
4.11664e+06
2.71047e+06
1.76068e+06
1.14425e+06
752829
211352
16189.6
458.993
7.19823
0.081911
0.00102649
2.22497e-05
1.08879e-06
1.19384e-07
2.46304e-08
7.13983e-09
2.73686e-09
1.08062e-09
4.72066e-10
2.10301e-10
9.14278e-11
4.13054e-11
1.68938e-11
7.21616e-12
3.33046e-12
1.38541e-12
5.89519e-13
2.31187e-13
8.89201e-14
5.10223e-12
1.44135e-14
4.90005e-15
8.95251e-16
-2.01488e-13
0
-5.97926e-12
0
1.5835e-16
1.33444e-11
-2.66478e-11
-2.68333e-07
-1.25288e-15
-1.896e-10
0
-2.58219e-07
2.55279e-07
0
-6.39795e-10
2.4688e-07
-2.7951e-09
-3.91621e-15
2.21142e-08
4.61783e-07
4.65546e-06
6.41828e-05
0.000808022
0.00867301
0.0774259
0.569974
3.47212
17.6881
76.3925
283.625
915.707
2585.82
6355.76
13316.6
23506.5
37585.4
57069.1
81159.4
110503
146538
191555
248741
322291
417649
541868
704119
916368
1.19428e+06
1.55842e+06
2.03579e+06
2.66198e+06
3.48378e+06
4.56273e+06
5.98036e+06
7.84575e+06
1.03046e+07
1.351e+07
1.76614e+07
2.3322e+07
3.08097e+07
3.62852e+08
1.38251e+08
2.65913e+07
1.88962e+07
1.32526e+07
9.15879e+06
6.22748e+06
4.16098e+06
2.73195e+06
1.76886e+06
1.14487e+06
754966
224698
18473.6
545.449
8.79107
0.100834
0.00124085
2.58474e-05
1.20941e-06
1.25383e-07
2.53442e-08
7.34107e-09
2.80997e-09
1.1081e-09
4.8328e-10
2.14933e-10
9.0157e-11
3.92035e-11
1.79122e-11
7.326e-12
8.2499e-12
1.35083e-12
-4.45837e-12
2.09899e-13
1.01127e-13
3.97648e-14
7.6172e-13
-4.29762e-12
8.94826e-16
4.79349e-18
0
0
0
-2.72733e-07
1.35413e-11
-2.71096e-11
0
0
0
3.85617e-10
0
0
0
-8.35747e-18
-1.61967e-09
-3.78717e-16
7.24399e-14
2.58114e-08
3.22187e-07
4.30739e-06
5.96558e-05
0.000747233
0.00797449
0.0707768
0.517866
3.13464
15.8624
68.031
250.79
804.288
2260.41
5560.68
11810.1
21426.6
34956.6
53603.2
76833.5
105189
140036
183585
238982
310387
403223
524522
683450
891989
1.16586e+06
1.52574e+06
1.99886e+06
2.62115e+06
3.44007e+06
4.51839e+06
5.93908e+06
7.81156e+06
1.02829e+07
1.35166e+07
1.77113e+07
2.34397e+07
3.10273e+07
3.27373e+08
1.72311e+08
2.71848e+07
1.92825e+07
1.34988e+07
9.3116e+06
6.31936e+06
4.21389e+06
2.76047e+06
1.78237e+06
1.14916e+06
758665
242600
21831.2
677.915
11.3002
0.130994
0.00157822
3.13307e-05
1.38482e-06
1.3851e-07
2.66822e-08
7.53159e-09
2.88055e-09
1.13457e-09
4.73937e-10
2.19413e-10
1.00863e-10
4.28161e-11
2.1148e-11
8.17412e-12
3.41901e-12
1.41757e-12
6.0127e-13
-5.22632e-13
1.01757e-13
3.70281e-14
1.59448e-14
5.26973e-15
5.01097e-12
-3.66464e-13
-2.9857e-12
0
-5.50474e-12
-1.6221e-16
1.37385e-11
2.75726e-11
-5.51924e-11
1.10211e-10
8.93334e-11
0
-1.0303e-14
0
-2.91116e-18
2.01196e-14
3.99655e-14
3.94934e-14
-8.30608e-14
2.42992e-08
3.04305e-07
3.95693e-06
5.51268e-05
0.000687673
0.00729808
0.0644
0.468404
2.8178
14.1683
60.3672
221.07
704.567
1970.91
4846.64
10388
19237.5
31957.4
49563.3
71757.2
99007.9
132582
174609
228156
297332
387512
505694
661015
865448
1.13474e+06
1.48963e+06
1.95751e+06
2.57461e+06
3.38884e+06
4.46372e+06
5.88354e+06
7.76037e+06
1.02426e+07
1.3497e+07
1.77229e+07
2.35085e+07
3.11887e+07
2.82206e+08
2.15192e+08
2.77889e+07
1.96825e+07
1.37605e+07
9.48047e+06
6.42609e+06
4.27941e+06
2.79898e+06
1.80328e+06
1.15852e+06
764352
265438
26722.3
882.685
15.3283
0.180258
0.00212203
3.98201e-05
1.63999e-06
1.54654e-07
2.86928e-08
7.70978e-09
2.76912e-09
1.15982e-09
5.09435e-10
2.12072e-10
9.68067e-11
4.35301e-11
1.92177e-11
8.2859e-12
3.46054e-12
1.38029e-12
-2.06432e-13
2.49731e-13
8.70114e-13
4.14129e-14
1.59796e-14
5.27135e-15
8.92469e-16
-3.66991e-13
0
0
0
0
0
6.66112e-16
0
1.92002e-19
-9.14724e-11
-2.83146e-07
0
0
2.79323e-07
7.13912e-10
-4.17375e-17
-4.179e-14
-3.29211e-15
2.95366e-07
2.86706e-07
3.62605e-06
5.0878e-05
0.00063106
0.00666118
0.0584518
0.422716
2.52809
12.6355
53.5082
194.76
617.167
1718.75
4221.84
9104.64
17125
28900.2
45352.7
66366.8
92408.5
124639
165096
216740
283607
370996
485845
637233
837089
1.10113e+06
1.45014e+06
1.91159e+06
2.52193e+06
3.3295e+06
4.39853e+06
5.81445e+06
7.69108e+06
1.01803e+07
1.3455e+07
1.7712e+07
2.35502e+07
3.13224e+07
2.2695e+08
2.68414e+08
2.84046e+07
2.01063e+07
1.40502e+07
9.67612e+06
6.55621e+06
4.36416e+06
2.85243e+06
1.83514e+06
1.17511e+06
772658
300429
33812.7
1204.77