/*--------------------------------*- C++ -*----------------------------------*\
  =========                 |
  \\      /  F ield         | OpenFOAM: The Open Source CFD Toolbox
   \\    /   O peration     | Website:  https://openfoam.org
    \\  /    A nd           | Version:  8
     \\/     M anipulation  |
\*---------------------------------------------------------------------------*/
FoamFile
{
    version     2.0;
    format      ascii;
    class       volScalarField;
    location    "440/fluid";
    object      rDeltaT;
}
// * * * * * * * * * * * * * * * * * * * * * * * * * * * * * * * * * * * * * //

dimensions      [0 0 -1 0 0 0 0];

internalField   nonuniform List<scalar> 
4000
(
513.283
538.942
563.481
587.034
609.539
630.903
651.009
669.728
686.938
702.545
716.51
728.878
739.807
749.592
758.673
767.559
776.652
786.174
796.079
806.03
815.468
823.718
830.115
834.104
835.303
833.516
828.615
820.557
809.37
795.135
777.972
758.029
736.661
746.247
787.655
828.424
868.505
907.858
946.454
984.27
1021.29
1057.51
1092.91
1127.48
1161.21
1194.09
1226.1
1257.23
1287.45
1316.73
1345.04
1372.36
1398.63
1423.82
1447.88
1470.77
1492.44
1512.86
1531.77
1549.55
1566.1
1582.27
16687.1
1572.86
1541.32
1503.79
1460.95
1413.47
1361.87
1306.62
1248.18
1187.08
1123.94
1059.37
994.076
929.41
867.353
810.353
761.34
723.207
697.425
683.01
676.867
675.309
675.245
674.665
672.45
668.135
661.707
653.345
643.288
631.784
619.062
605.323
590.739
575.445
559.548
543.128
526.253
508.883
512.831
537.861
561.64
584.104
605.22
624.918
643.114
659.725
674.69
687.993
699.687
709.919
718.952
727.176
735.067
743.083
751.608
760.845
770.746
780.975
790.948
799.949
807.252
812.235
814.439
813.54
809.359
801.838
791.015
776.992
759.915
739.959
717.311
710.927
737.696
779.656
821.071
861.888
902.065
941.573
980.39
1018.49
1055.86
1092.49
1128.36
1163.47
1197.8
1231.33
1264.04
1295.91
1326.92
1357.04
1386.24
1414.49
1441.75
1467.98
1493.14
1517.17
1539.78
1561.38
1581.79
1601.06
17179.1
1587.19
1550.19
1508.5
1462.28
1411.77
1357.25
1299.01
1237.38
1172.77
1105.69
1036.65
966.45
896.863
830.487
770.613
720.728
683.514
659.66
647.284
642.845
642.713
644.097
645.246
645.231
643.557
640.025
634.647
627.527
618.811
608.66
597.233
584.675
571.111
556.645
541.36
525.319
508.566
512.165
535.716
557.848
578.526
597.686
615.272
631.233
645.537
658.186
669.233
678.805
687.116
694.48
701.303
708.031
715.104
722.897
731.618
741.224
751.385
761.53
770.943
778.888
784.704
787.849
787.918
784.682
778.053
768.048
754.757
738.32
718.908
696.708
675.719
687.394
729.957
772.214
814.098
855.558
896.546
937.024
976.972
1016.37
1055.21
1093.46
1131.12
1168.18
1204.61
1240.41
1275.56
1310.04
1343.84
1376.95
1409.33
1440.96
1471.81
1501.81
1530.76
1558.39
1584.8
1609.24
1630.73
16968.1
1611.1
1567.94
1520.33
1468.48
1412.59
1352.84
1289.46
1222.73
1153.08
1081.06
1007.25
932.824
860
791.795
731.78
683.345
648.542
627.188
616.849
613.92
614.971
617.446
619.741
621.046
620.968
619.314
616.025
611.124
604.675
596.768
587.499
576.964
565.252
552.443
538.609
523.821
508.107
511.507
533.735
554.472
573.673
591.29
607.288
621.644
634.354
645.448
655.005
663.164
670.145
676.258
681.896
687.517
693.584
700.483
708.427
717.365
726.967
736.655
745.71
753.389
759.019
762.063
762.135
759.001
752.553
742.783
729.755
713.585
694.422
672.436
647.811
648.195
683.369
726.31
769.104
811.69
854.023
896.071
937.802
979.194
1020.23
1060.88
1101.14
1140.99
1180.41
1219.39
1257.92
1295.97
1333.52
1370.54
1407
1442.85
1478
1512.34
1545.53
1577.29
1607.52
1635.2
3198.85
15121.7
1628.14
1579.32
1526.12
1468.71
1407.33
1342.21
1273.64
1202.01
1127.87
1051.94
974.961
898.494
825.055
757.736
699.877
654.364
622.632
603.928
595.538
593.93
595.926
599.216
602.345
604.532
605.396
604.781
602.647
599.008
593.91
587.41
579.571
570.453
560.114
548.608
535.987
522.311
507.615
510.801
531.588
550.831
568.491
584.53
598.92
611.656
622.752
632.259
640.275
646.96
652.554
657.381
661.845
666.404
671.52
677.567
684.748
693.008
702.013
711.189
719.82
727.158
732.527
735.379
735.322
732.108
725.62
715.835
702.806
686.637
667.464
645.445
620.752
612.654
639.335
682.853
726.448
770.063
813.647
857.161
900.569
943.845
986.964
1029.9
1072.64
1115.16
1157.44
1199.45
1241.16
1282.55
1323.57
1364.18
1404.31
1443.88
1482.75
1520.75
1557.49
1592.63
1626.07
1656.94
8373.86
10464.5
1633.43
1580.84
1523.41
1461.55
1395.63
1326.04
1253.22
1177.71
1100.2
1021.51
942.537
865.128
791.928
726.007
670.494
627.849
598.936
582.518
575.701
575.081
577.742
581.611
585.39
588.364
590.165
590.618
589.656
587.267
583.47
578.299
571.792
563.994
554.944
544.683
533.254
520.711
507.09
510.089
529.452
547.254
563.46
578.036
590.969
602.261
611.941
620.07
626.756
632.17
636.553
640.23
643.604
647.127
651.251
656.348
662.613
669.993
678.159
686.546
694.445
701.118
705.89
708.216
707.698
704.085
697.247
687.155
673.848
657.417
637.987
615.7
590.714
576.8
597.827
641.853
686.167
730.706
775.416
820.254
865.183
910.17
955.186
1000.2
1045.19
1090.12
1134.97
1179.68
1224.23
1268.56
1312.61
1356.3
1399.53
1442.18
1484.07
1524.96
1564.31
1601.81
1637.34
1669.85
12634.3
6190.97
1628.6
1573.4
1512.8
1447.46
1377.97
1304.9
1228.84
1150.49
1070.68
990.264
910.357
833.012
760.925
697.095
644.412
604.91
578.942
564.871
559.678
560.079
563.383
567.716
571.926
575.38
577.75
578.877
578.693
577.176
574.331
570.173
564.726
558.016
550.068
540.911
530.577
519.114
506.559
509.366
527.285
543.639
558.396
571.528
583.029
592.908
601.201
607.98
613.36
617.517
620.7
623.234
625.52
628.009
631.145
635.289
640.632
647.115
654.408
661.951
669.038
674.937
678.979
680.62
679.465
675.257
667.864
657.249
643.446
626.535
606.63
583.867
558.393
540.616
558.083
602.555
647.5
692.854
738.56
784.572
830.847
877.349
924.04
970.885
1017.85
1064.89
1111.96
1159.01
1205.98
1252.8
1299.38
1345.61
1391.36
1436.45
1480.65
1523.64
1564.84
1603.93
1640.6
1673.71
16432.6
2259.81
1616.47
1559.42
1496.31
1428.23
1355.99
1280.34
1202
1121.78
1040.6
959.348
879.303
802.66
732.115
670.566
620.661
584.051
560.665
548.574
544.715
545.952
549.803
554.566
559.201
563.136
566.067
567.841
568.387
567.675
565.698
562.462
557.979
552.266
545.34
537.22
527.935
517.526
506.028
508.643
525.121
540.04
553.373
565.096
575.207
583.723
590.686
596.172
600.301
603.252
605.275
606.696
607.91
609.36
611.483
614.634
618.994
624.502
630.829
637.418
643.573
648.566
651.735
652.539
650.585
645.617
637.5
626.191
611.72
594.163
573.625
550.231
524.12
504.054
519.63
564.465
609.938
655.982
702.539
749.557
796.989
844.791
892.92
941.332
989.979
1038.81
1087.77
1136.78
1185.78
1234.66
1283.31
1331.6
1379.35
1426.35
1472.32
1516.91
1559.3
1599.29
1636.37
1669.14
18389.1
1652.81
1599.98
1540.19
1474.69
1404.43
1330.23
1252.88
1173.16
1091.92
1010.16
928.775
849.198
773.717
705.016
645.89
598.757
564.929
543.974
533.733
531.128
533.164
537.537
542.694
547.699
552.035
555.43
557.741
558.899
558.871
557.645
555.217
551.594
546.784
540.798
533.649
525.36
515.967
505.505
507.918
522.955
536.444
548.36
558.686
567.423
574.593
580.241
584.449
587.34
589.095
589.964
590.271
590.409
590.812
591.911
594.05
597.404
601.906
607.227
612.812
617.969
621.977
624.181
624.043
621.175
615.324
606.354
594.224
578.957
560.623
539.323
515.177
488.317
467.092
481.962
527.071
572.965
619.574
666.835
714.692
763.093
811.986
861.323
911.048
961.105
1011.43
1061.95
1112.59
1163.25
1213.82
1264.16
1314.11
1363.47
1412
1459.36
1505.09
1548.35
1589.12
1625.97
1657.33
17839.7
1634.07
1578.42
1516.46
1449.17
1377.41
1301.98
1223.66
1143.25
1061.67
979.915
898.905
820.211
746.181
679.468
622.757
578.26
546.985
528.204
519.595
518.097
520.855
525.724
531.277
536.661
541.407
545.262
548.095
549.839
550.458
549.936
548.268
545.453
541.496
536.402
530.18
522.85
514.444
504.992
507.194
520.793
532.857
543.365
552.304
559.679
565.516
569.864
572.808
574.472
575.04
574.761
573.955
573.011
572.357
572.414
573.519
575.836
579.296
583.566
588.094
592.191
595.144
596.304
595.143
591.275
584.448
574.531
561.479
545.317
526.113
503.964
478.985
451.301
429.724
444.717
490.008
536.213
583.26
631.081
679.616
728.806
778.594
828.922
879.727
930.942
982.492
1034.29
1086.25
1138.25
1190.17
1241.85
1293.11
1343.73
1393.43
1441.87
1488.47
1532.53
1573.87
1611.07
3006.3
16336.1
1610.52
1552.93
1489.49
1421.03
1348.36
1272.26
1193.5
1112.92
1031.46
950.105
869.812
792.273
719.858
655.186
600.837
558.831
529.915
513.115
505.988
505.51
508.952
514.312
520.266
526.034
531.186
535.492
538.829
541.132
542.368
542.516
541.569
539.523
536.379
532.14
526.811
520.407
512.958
504.492
506.472
518.635
529.276
538.38
545.936
551.955
556.464
559.516
561.198
561.638
561.018
559.587
557.663
555.63
553.908
552.91
552.962
554.223
556.615
559.803
563.236
566.231
568.081
568.144
565.896
560.959
553.087
542.15
528.108
510.983
490.843
467.783
441.915
413.361
391.961
407.607
452.988
499.399
546.764
595.011
644.076
693.893
744.399
795.527
847.208
899.365
951.913
1004.76
1057.79
1110.89
1163.9
1216.67
1269
1320.64
1371.31
1420.65
1468.09
1512.95
1555.11
1593.33
6330.12
13378.7
1582.13
1523.87
1459.83
1390.89
1317.89
1241.62
1162.89
1082.55
1001.56
920.903
841.579
765.361
694.639
631.991
579.903
540.216
513.452
498.435
492.643
493.099
497.192
503.041
509.412
515.585
521.163
525.933
529.781
532.643
534.487
535.293
535.05
533.753
531.399
527.99
523.528
518.026
511.51
504.005
505.751
516.48
525.702
533.404
539.581
544.245
547.428
549.186
549.607
548.821
547.011
544.424
541.376
538.245
535.445
533.379
532.363
532.548
533.849
535.93
538.238
540.096
540.803
539.723
536.343
530.289
521.322
509.316
494.234
476.099
454.979
430.969
404.179
374.728
353.826
370.428
415.811
462.329
509.9
558.451
607.911
658.211
709.279
761.045
813.429
866.348
919.708
973.404
1027.32
1081.32
1135.25
1188.93
1242.15
1294.67
1346.19
1396.34
1444.54
1490.1
1532.96
1571.84
8942.29
10854.1
1550.92
1492.58
1428.46
1359.51
1286.6
1210.54
1132.17
1052.37
972.12
892.373
814.17
739.375
670.372
609.7
559.753
522.215
497.412
484.011
479.434
480.758
485.481
491.824
498.632
505.232
511.257
516.508
520.877
524.304
526.758
528.217
528.669
528.108
526.531
523.935
520.322
515.702
510.097
503.529
505.031
514.329
522.133
528.434
533.232
536.541
538.398
538.86
538.019
536.004
533
529.252
525.074
520.837
516.949
513.803
511.707
510.802
510.995
511.948
513.108
513.803
513.337
511.084
506.537
499.332
489.235
476.125
459.97
440.795
418.669
393.688
365.959
335.602
315.353
333.035
378.338
424.869
472.546
521.291
571.028
621.682
673.179
725.44
778.38
831.908
885.923
940.314
994.953
1049.7
1104.39
1158.83
1212.81
1266.08
1318.32
1369.17
1418.01
1464.2
1507.65
1547.02
11150.4
8719.61
1518.08
1459.94
1396.05
1327.4
1254.87
1179.31
1101.57
1022.53
943.211
864.518
787.551
714.232
646.939
588.171
540.233
504.674
481.654
469.714
466.245
468.383
473.72
480.568
487.835
494.889
501.387
507.14
512.048
516.054
519.125
521.241
522.389
522.561
521.751
519.958
517.181
513.427
508.715
503.065
504.312
512.18
518.567
523.468
526.886
528.841
529.37
528.535
526.428
523.181
518.978
514.065
508.749
503.399
498.415
494.181
490.994
488.986
488.058
487.867
487.862
487.373
485.713
482.264
476.528
468.147
456.897
442.663
425.415
405.183
382.038
356.076
327.406
296.145
276.577
295.332
340.477
386.938
434.629
483.469
533.378
584.278
636.087
688.722
742.092
796.102
850.643
905.596
960.829
1016.19
1071.51
1126.6
1181.23
1235.14
1288.01
1339.46
1388.89
1435.64
1479.61
1519.45
12958.1
6992.06
1484.24
1426.48
1363.04
1294.91
1222.99
1148.14
1071.2
993.105
914.838
837.309
761.654
689.837
624.224
567.275
521.217
487.475
466.075
455.458
453.006
455.913
461.856
469.222
476.97
484.506
491.502
497.782
503.25
507.85
511.551
514.332
516.18
517.085
517.042
516.045
514.094
511.194
507.361
502.609
503.593
510.033
515.004
518.505
520.543
521.141
520.341
518.206
514.83
510.348
504.943
498.858
492.401
485.932
479.845
474.515
470.229
467.109
465.049
463.702
462.518
460.832
457.964
453.303
446.362
436.792
424.376
409.005
390.654
369.359
345.193
318.251
288.644
256.49
237.539
257.258
302.175
348.49
396.114
444.962
494.952
546
598.021
650.926
704.622
759.006
813.964
869.373
925.094
980.97
1036.83
1092.46
1147.65
1202.11
1255.53
1307.54
1357.49
1404.77
1449.24
1489.57
14374.2
5610.97
1449.87
1392.6
1329.74
1262.28
1191.12
1117.12
1041.14
964.099
886.991
810.705
736.409
666.099
602.126
546.91
502.606
470.534
450.603
441.183
439.663
443.302
449.847
457.745
466
474.044
481.567
488.399
494.448
499.661
504.006
507.463
510.019
511.661
512.384
512.182
511.052
508.997
506.03
502.163
502.876
507.888
511.442
513.542
514.2
513.441
511.309
507.872
503.226
497.505
490.894
483.635
476.031
468.439
461.244
454.813
449.421
445.182
441.983
439.472
437.1
434.207
430.121
424.239
416.084
405.317
391.728
375.216
355.763
333.406
308.221
280.309
249.779
216.749
198.279
218.781
263.406
309.506
356.991
405.77
455.76
506.872
559.019
612.107
666.039
720.707
775.994
831.772
887.896
944.207
1000.52
1056.64
1112.32
1167.29
1221.23
1273.75
1324.22
1372.01
1417.01
1457.91
15693.7
4473.98
1415.07
1358.37
1296.2
1229.54
1159.28
1086.27
1011.37
935.487
859.621
784.639
711.735
642.924
580.543
526.975
484.313
453.787
435.213
426.873
426.184
430.522
437.669
446.116
454.902
463.481
471.556
478.964
485.616
491.46
496.466
500.613
503.885
506.271
507.764
508.356
508.043
506.827
504.718
501.723
502.158
505.743
507.881
508.58
507.856
505.739
502.275
497.534
491.615
484.653
476.834
468.397
459.644
450.925
442.619
435.082
428.581
423.218
418.873
415.193
411.628
407.523
402.212
395.105
385.734
373.767
359.006
341.355
320.802
297.39
271.199
242.33
210.894
177.01
158.837
179.89
224.165
269.989
317.267
365.91
415.828
466.931
519.128
572.322
626.413
681.288
736.828
792.9
849.357
906.034
962.747
1019.29
1075.42
1130.87
1185.31
1238.35
1289.36
1337.72
1383.33
1424.87
16598
3606.79
1379.79
1323.86
1262.54
1196.82
1127.59
1055.67
981.938
907.291
832.72
759.078
687.576
620.24
559.389
507.37
466.227
437.125
419.838
412.545
412.593
417.591
425.332
434.336
443.669
452.804
461.453
469.459
476.734
483.229
488.912
493.761
497.761
500.899
503.166
504.555
505.059
504.679
503.42
501.288
501.441
503.598
504.32
503.618
501.512
498.035
493.238
487.192
479.999
471.794
462.765
453.149
443.244
433.397
423.977
415.332
407.718
401.228
395.736
390.882
386.121
380.8
374.265
365.932
355.344
342.181
326.251
307.468
285.826
261.371
234.188
204.38
172.061
137.349
119.252
140.59
184.461
229.952
276.965
325.409
375.191
426.219
478.4
531.633
585.815
640.832
696.56
752.864
809.596
866.587
923.652
980.58
1037.13
1093.02
1147.94
1201.48
1253.01
1301.93
1348.12
1390.28
17267.9
3031.34
1344.33
1289.21
1228.83
1164.15
1096.03
1025.31
952.822
879.477
806.25
733.981
663.888
597.999
538.612
488.041
448.284
420.455
404.329
398.081
398.871
404.511
412.836
422.399
432.291
441.999
451.241
459.864
467.783
474.947
481.323
486.889
491.629
495.529
498.578
500.768
502.091
502.545
502.134
500.858
500.724
501.454
500.76
498.656
495.167
490.331
484.199
476.848
468.378
458.931
448.69
437.894
426.837
415.86
405.325
395.57
386.842
379.224
372.582
366.554
360.595
354.06
346.3
336.743
324.943
310.59
293.5
273.595
250.876
225.395
197.238
166.513
133.335
100
100
100.898
144.316
189.421
236.115
284.302
333.89
384.784
436.886
490.097
544.308
599.405
655.261
711.741
768.692
825.946
883.314
940.583
997.511
1053.82
1109.18
1163.21
1215.25
1264.73
1311.53
1354.35
17709.7
2668.41
1308.81
1254.58
1195.21
1131.64
1064.71
995.239
924.058
852.059
780.208
709.332
640.647
576.175
518.188
468.97
430.476
403.778
388.645
383.338
384.936
391.224
400.133
410.265
420.732
431.032
440.89
450.153
458.736
466.588
473.676
479.976
485.471
490.144
493.985
496.983
499.13
500.42
500.854
500.43
500.007
499.31
497.199
493.694
488.822
482.625
475.159
466.501
456.756
446.065
434.612
422.636
410.426
398.318
386.668
375.804
365.961
357.214
349.422
342.22
335.065
327.316
318.335
307.56
294.554
279.019
260.779
239.767
215.986
189.497
160.389
128.771
100
100
100
100
103.759
148.429
194.752
242.631
291.97
342.672
394.639
447.768
501.951
557.071
613
669.601
726.72
784.188
841.816
899.389
956.664
1013.36
1069.16
1123.66
1176.22
1226.27
1273.69
1317.19
17939.6
2503.94
1273.18
1219.94
1161.68
1099.3
1033.62
965.458
895.628
825.013
754.565
685.097
617.818
554.732
498.089
450.14
412.806
387.129
372.837
368.265
370.675
377.627
387.144
397.87
408.94
419.861
430.362
440.292
449.565
458.129
465.949
473.002
479.267
484.729
489.374
493.189
496.165
498.296
499.576
500.003
500.006
499.308
497.197
493.692
488.82
482.622
475.155
466.497
456.751
446.059
434.606
422.629
410.418
398.31
386.659
375.794
365.951
357.203
349.41
342.208
335.052
327.302
318.32
307.544
294.538
279.002
260.762
239.748
215.967
189.477
160.369
128.751
100
100
100
100
103.749
148.42
194.744
242.623
291.962
342.665
394.632
447.762
501.945
557.065
612.995
669.596
726.715
784.183
841.81
899.383
956.658
1013.36
1069.15
1123.65
1176.21
1226.25
1273.66
1317.17
17940.7
2503.31
1273.13
1219.88
1161.63
1099.25
1033.58
965.421
895.595
824.983
754.539
685.075
617.799
554.716
498.076
450.129
412.798
387.123
372.834
368.263
370.673
377.626
387.142
397.869
408.939
419.861
430.362
440.292
449.564
458.128
465.949
473.001
479.267
484.729
489.373
493.189
496.165
498.295
499.573
500
500.722
501.451
500.756
498.652
495.162
490.324
484.191
476.838
468.368
458.919
448.677
437.88
426.821
415.842
405.306
395.551
386.821
379.201
372.558
366.528
360.568
354.031
346.269
336.711
324.909
310.554
293.462
273.556
250.836
225.353
197.196
166.469
133.29
100
100
100.883
144.303
189.409
236.105
284.294
333.884
384.779
436.883
490.095
544.308
599.406
655.264
711.745
768.697
825.952
883.32
940.589
997.517
1053.82
1109.18
1163.21
1215.24
1264.71
1311.5
1354.32
17713.2
2666.58
1308.67
1254.44
1195.08
1131.52
1064.6
995.14
923.969
851.98
780.139
709.271
640.595
576.131
518.153
468.941
430.453
403.762
388.636
383.331
384.929
391.219
400.129
410.262
420.729
431.03
440.888
450.152
458.735
466.587
473.675
479.975
485.469
490.143
493.984
496.982
499.129
500.418
500.848
500.424
501.439
503.595
504.317
503.614
501.506
498.028
493.23
487.183
479.988
471.782
462.751
453.134
443.228
433.379
423.958
415.311
407.696
401.204
395.71
390.855
386.091
380.769
374.231
365.896
355.306
342.141
326.209
307.425
285.78
261.324
234.139
204.329
172.008
137.294
119.222
140.588
184.461
229.954
276.97
325.416
375.201
426.232
478.415
531.652
585.836
640.856
696.588
752.896
809.63
866.625
923.694
980.624
1037.18
1093.07
1147.99
1201.53
1253.05
1301.97
1348.15
1390.3
17276.2
3028.59
1344.11
1289
1228.64
1163.97
1095.87
1025.16
952.689
879.359
806.146
733.89
663.809
597.933
538.557
487.997
448.251
420.432
404.314
398.069
398.861
404.504
412.83
422.395
432.287
441.995
451.238
459.862
467.781
474.944
481.32
486.887
491.627
495.527
498.576
500.767
502.09
502.543
502.128
500.852
502.157
505.74
507.877
508.576
507.85
505.732
502.267
497.525
491.604
484.64
476.819
468.381
459.627
450.906
442.599
435.06
428.558
423.193
418.847
415.164
411.597
407.49
402.177
395.068
385.693
373.725
358.961
341.307
320.752
297.338
271.145
242.273
210.835
176.949
158.809
179.899
224.177
270.004
317.286
365.932
415.853
466.96
519.161
572.359
626.454
681.334
736.879
792.957
849.419
906.102
962.822
1019.37
1075.51
1130.97
1185.42
1238.47
1289.48
1337.85
1383.46
1425
16614.5
3604.11
1379.48
1323.57
1262.28
1196.59
1127.38
1055.49
981.773
907.145
832.591
758.966
687.479
620.159
559.321
507.316
466.186
437.096
419.817
412.529
412.581
417.583
425.325
434.331
443.665
452.8
461.45
469.456
476.732
483.227
488.909
493.759
497.758
500.897
503.164
504.553
505.058
504.676
503.415
501.283
502.874
507.885
511.439
513.538
514.194
513.434
511.301
507.863
503.215
497.492
490.879
483.619
476.013
468.42
461.223
454.79
449.398
445.157
441.955
439.442
437.069
434.174
430.084
424.2
416.042
405.272
391.68
375.166
355.709
333.349
308.162
280.247
249.714
216.681
198.253
218.801
263.429
309.533
357.021
405.805
455.799
506.916
559.067
612.16
666.097
720.77
776.064
831.847
887.979
944.296
1000.62
1056.74
1112.43
1167.41
1221.37
1273.9
1324.38
1372.2
1417.22
1458.16
15712.3
4463.16
1414.74
1358.08
1295.94
1229.3
1159.07
1086.08
1011.19
935.331
859.481
784.516
711.628
642.833
580.468
526.915
484.268
453.754
435.19
426.857
426.173
430.514
437.663
446.111
454.898
463.477
471.552
478.961
485.613
491.458
496.464
500.61
503.882
506.269
507.761
508.354
508.042
506.825
504.713
501.718
503.592
510.031
515.001
518.5
520.537
521.134
520.333
518.196
514.819
510.335
504.928
498.842
492.383
485.913
479.824
474.493
470.205
467.083
465.022
463.672
462.486
460.798
457.927
453.263
446.318
436.745
424.325
408.951
390.598
369.3
345.13
318.185
288.575
256.418
237.515
257.287
302.208
348.527
396.156
445.009
495.003
546.055
598.081
650.992
704.693
759.083
814.047
869.463
925.191
981.075
1036.94
1092.59
1147.78
1202.25
1255.69
1307.71
1357.68
1404.97
1449.46
1489.8
14392.8
5607.17
1449.62
1392.36
1329.5
1262.06
1190.91
1116.93
1040.97
963.943
886.851
810.581
736.3
666.005
602.049
546.848
502.559
470.5
450.58
441.168
439.653
443.295
449.842
457.741
465.997
474.041
481.564
488.396
494.445
499.658
504.004
507.461
510.016
511.659
512.382
512.18
511.05
508.994
506.026
502.159
504.311
512.178
518.564
523.464
526.881
528.835
529.362
528.526
526.417
523.168
518.964
514.049
508.731
503.38
498.394
494.158
490.97
488.96
488.031
487.837
487.83
487.338
485.675
482.223
476.483
468.099
456.845
442.608
425.356
405.121
381.972
356.007
327.333
296.069
276.556
295.37
340.519
386.985
434.681
483.525
533.439
584.343
636.157
688.797
742.173
796.188
850.734
905.694
960.933
1016.3
1071.63
1126.73
1181.36
1235.28
1288.15
1339.61
1389.04
1435.8
1479.76
1519.6
12973.2
6982.31
1484.1
1426.33
1362.87
1294.74
1222.83
1147.98
1071.06
992.966
914.709
837.193
761.55
689.747
624.149
567.215
521.172
487.443
466.053
455.444
452.997
455.907
461.852
469.219
476.968
484.504
491.5
497.781
503.248
507.848
511.549
514.33
516.178
517.083
517.04
516.044
514.093
511.192
507.357
502.607
505.03
514.327
522.13
528.431
533.227
536.535
538.39
538.851
538.008
535.992
532.986
529.237
525.056
520.818
516.928
513.781
511.684
510.776
510.968
511.918
513.077
513.768
513.299
511.042
506.492
499.283
489.182
476.069
459.909
440.73
418.601
393.616
365.884
335.523
315.334
333.082
378.389
424.924
472.606
521.355
571.096
621.755
673.256
725.521
778.466
831.998
886.018
940.413
995.057
1049.81
1104.5
1158.95
1212.93
1266.2
1318.45
1369.29
1418.14
1464.33
1507.76
1547.12
11165.1
8706.32
1517.98
1459.83
1395.93
1327.28
1254.74
1179.18
1101.44
1022.41
943.096
864.412
787.455
714.149
646.869
588.114
540.19
504.643
481.634
469.702
466.238
468.379
473.718
480.567
487.834
494.888
501.386
507.139
512.047
516.053
519.123
521.239
522.387
522.559
521.75
519.957
517.18
513.425
508.713
503.063
505.75
516.479
525.7
533.401
539.576
544.239
547.421
549.177
549.597
548.809
546.997
544.409
541.36
538.227
535.425
533.357
532.34
532.523
533.823
535.901
538.207
540.062
540.766
539.682
536.298
530.24
521.268
509.259
494.172
476.033
454.909
430.895
404.101
374.647
353.81
370.483
415.87
462.391
509.967
558.522
607.986
658.289
709.362
761.131
813.519
866.441
919.804
973.504
1027.42
1081.42
1135.36
1189.04
1242.26
1294.79
1346.3
1396.45
1444.64
1490.21
1533.05
1571.91
8958.19
10838.7
1550.84
1492.49
1428.36
1359.4
1286.48
1210.43
1132.06
1052.26
972.016
892.275
814.081
739.297
670.306
609.647
559.712
522.187
497.394
484.002
479.429
480.756
485.481
491.825
498.632
505.233
511.258
516.508
520.876
524.304
526.757
528.216
528.668
528.107
526.53
523.934
520.321
515.7
510.095
503.528
506.471
518.633
529.274
538.377
545.933
551.95
556.457
559.509
561.189
561.627
561.005
559.573
557.647
555.612
553.889
552.889
552.94
554.199
556.589
559.775
563.205
566.198
568.045
568.103
565.851
560.91
553.033
542.092
528.045
510.916
490.771
467.707
441.835
413.277
391.947
407.669
453.054
499.469
546.837
595.088
644.156
693.976
744.485
795.617
847.3
899.46
952.01
1004.86
1057.89
1110.99
1164.01
1216.78
1269.1
1320.74
1371.41
1420.75
1468.19
1513.04
1555.2
1593.4
6348.55
13360
1582.05
1523.78
1459.73
1390.79
1317.78
1241.51
1162.78
1082.44
1001.46
920.81
841.494
765.286
694.575
631.939
579.864
540.189
513.435
498.427
492.641
493.099
497.194
503.043
509.414
515.587
521.165
525.935
529.781
532.644
534.488
535.293
535.05
533.752
531.398
527.989
523.527
518.025
511.509
504.005
507.194
520.792
532.855
543.362
552.3
559.675
565.51
569.857
572.799
574.462
575.028
574.747
573.94
572.994
572.339
572.395
573.497
575.813
579.272
583.54
588.065
592.159
595.108
596.265
595.099
591.225
584.394
574.472
561.416
545.249
526.04
503.886
478.903
451.216
429.712
444.786
490.081
536.29
583.34
631.164
679.702
728.895
778.685
829.015
879.821
931.038
982.589
1034.39
1086.35
1138.35
1190.27
1241.95
1293.21
1343.83
1393.54
1441.97
1488.58
1532.63
1573.96
1611.14
3030
16315.6
1610.43
1552.84
1489.38
1420.92
1348.25
1272.15
1193.39
1112.82
1031.36
950.014
869.729
792.198
719.795
655.134
600.798
558.805
529.9
513.108
505.987
505.512
508.956
514.316
520.27
526.037
531.189
535.494
538.831
541.134
542.369
542.517
541.569
539.523
536.379
532.139
526.81
520.406
512.958
504.493
507.918
522.955
536.443
548.358
558.683
567.419
574.588
580.235
584.441
587.33
589.084
589.952
590.257
590.393
590.795
591.892
594.03
597.382
601.883
607.202
612.784
617.938
621.942
624.142
624
621.126
615.27
606.295
594.16
578.887
560.548
539.244
515.094
488.229
467.083
482.039
527.152
573.049
619.661
666.925
714.784
763.187
812.082
861.419
911.145
961.203
1011.53
1062.05
1112.69
1163.35
1213.91
1264.25
1314.2
1363.56
1412.09
1459.47
1505.21
1548.51
1589.25
1626.05
1657.36
17835.3
1633.98
1578.31
1516.34
1449.05
1377.3
1301.87
1223.55
1143.15
1061.57
979.823
898.821
820.136
746.117
679.415
622.718
578.233
546.97
528.198
519.595
518.101
520.86
525.731
531.283
536.666
541.411
545.265
548.098
549.841
550.459
549.938
548.269
545.454
541.496
536.401
530.179
522.849
514.444
504.994
508.643
525.121
540.04
553.372
565.095
575.205
583.72
590.681
596.165
600.292
603.242
605.264
606.682
607.895
609.343
611.466
614.615
618.974
624.48
630.805
637.392
643.543
648.532
651.697
652.496
650.537
645.563
637.44
626.126
611.65
594.087
573.544
550.145
524.028
504.048
519.716
564.554
610.03
656.077
702.636
749.656
797.089
844.892
893.022
941.433
990.08
1038.91
1087.87
1136.88
1185.87
1234.75
1283.39
1331.68
1379.43
1426.42
1472.39
1516.99
1559.4
1599.63
1636.54
1669.23
18389.6
1652.68
1599.84
1540.07
1474.57
1404.31
1330.12
1252.77
1173.05
1091.82
1010.07
928.691
849.122
773.651
704.962
645.849
598.73
564.914
543.969
533.735
531.134
533.171
537.545
542.701
547.705
552.041
555.434
557.745
558.902
558.874
557.646
555.218
551.595
546.785
540.798
533.649
525.359
515.969
505.507
509.367
527.286
543.639
558.395
571.528
583.027
592.905
601.197
607.974
613.353
617.509
620.689
623.222
625.507
627.994
631.128
635.272
640.613
647.095
654.386
661.926
669.01
674.905
678.942
680.578
679.417
675.203
667.804
657.184
643.374
626.457
606.546
583.777
558.298
540.612
558.177
602.653
647.601
692.957
738.665
784.678
830.955
877.457
924.148
970.993
1017.95
1064.99
1112.06
1159.11
1206.08
1252.9
1299.47
1345.7
1391.45
1436.54
1480.74
1523.74
1564.95
1604.05
1640.73
1673.81
16451.1
2241.02
1616.38
1559.32
1496.21
1428.13
1355.89
1280.24
1201.9
1121.68
1040.51
959.264
879.226
802.592
732.058
670.522
620.631
584.034
560.659
548.576
544.721
545.961
549.813
554.575
559.209
563.143
566.072
567.846
568.391
567.678
565.7
562.463
557.98
552.266
545.34
537.219
527.935
517.528
506.031
510.09
529.453
547.255
563.46
578.036
590.968
602.26
611.938
620.065
626.751
632.162
636.544
640.22
643.592
647.113
651.237
656.332
662.596
669.975
678.139
686.523
694.419
701.087
705.854
708.174
707.651
704.031
697.187
687.088
673.774
657.337
637.9
615.607
590.615
576.799
597.932
641.961
686.278
730.818
775.53
820.37
865.299
910.286
955.301
1000.32
1045.3
1090.23
1135.07
1179.79
1224.33
1268.66
1312.71
1356.39
1399.63
1442.27
1484.16
1525.05
1564.41
1601.9
1637.42
1669.92
12656.1
6167.53
1628.53
1573.32
1512.72
1447.37
1377.88
1304.8
1228.75
1150.4
1070.59
990.18
910.278
832.942
760.865
697.049
644.38
604.891
578.935
564.873
559.685
560.089
563.393
567.726
571.935
575.387
577.756
578.882
578.697
577.179
574.333
570.175
564.727
558.016
550.068
540.91
530.577
519.117
506.562
510.802
531.59
550.833
568.493
584.531
598.921
611.656
622.751
632.257
640.271
646.955
652.547
657.372
661.834
666.393
671.507
677.554
684.733
692.992
701.994
711.168
719.795
727.129
732.492
735.338
735.274
732.054
725.558
715.766
702.73
686.554
667.374
645.349
620.649
612.656
639.451
682.972
726.569
770.185
813.771
857.285
900.694
943.97
987.088
1030.03
1072.76
1115.28
1157.55
1199.56
1241.27
1282.65
1323.67
1364.28
1404.41
1443.97
1482.84
1520.84
1557.57
1592.7
1626.13
1656.99
8399.25
10436
1633.37
1580.77
1523.33
1461.47
1395.54
1325.95
1253.13
1177.62
1100.12
1021.42
942.456
865.054
791.864
725.955
670.457
627.827
598.928
582.519
575.709
575.091
577.753
581.622
585.4
588.372
590.171
590.623
589.66
587.27
583.473
578.3
571.793
563.994
554.944
544.683
533.254
520.714
507.094
511.508
533.738
554.475
573.675
591.292
607.29
621.645
634.354
645.447
655.003
663.16
670.14
676.251
681.887
687.507
693.573
700.472
708.414
717.352
726.951
736.636
745.687
753.361
758.985
762.022
762.088
758.946
752.49
742.712
729.676
713.498
694.328
672.335
647.702
648.201
683.497
726.441
769.237
811.824
854.158
896.206
937.937
979.328
1020.36
1061.01
1101.27
1141.11
1180.53
1219.51
1258.03
1296.07
1333.62
1370.63
1407.09
1442.93
1478.08
1512.42
1545.59
1577.35
1607.58
1635.26
3236.73
15087.8
1628.09
1579.26
1526.05
1468.64
1407.25
1342.12
1273.55
1201.92
1127.78
1051.85
974.876
898.415
824.985
757.679
699.834
654.337
622.62
603.928
595.546
593.941
595.938
599.227
602.355
604.54
605.403
604.787
602.651
599.011
593.912
587.412
579.571
570.453
560.114
548.607
535.988
522.314
507.619
512.166
535.719
557.851
578.529
597.69
615.275
631.236
645.539
658.187
669.233
678.803
687.113
694.476
701.297
708.024
715.096
722.888
731.608
741.213
751.372
761.513
770.922
778.862