/*--------------------------------*- C++ -*----------------------------------*\
  =========                 |
  \\      /  F ield         | OpenFOAM: The Open Source CFD Toolbox
   \\    /   O peration     | Website:  https://openfoam.org
    \\  /    A nd           | Version:  8
     \\/     M anipulation  |
\*---------------------------------------------------------------------------*/
FoamFile
{
    version     2.0;
    format      ascii;
    class       volScalarField;
    location    "440/fluid";
    object      rho;
}
// * * * * * * * * * * * * * * * * * * * * * * * * * * * * * * * * * * * * * //

dimensions      [1 -3 0 0 0 0 0];

internalField   nonuniform List<scalar> 
4000
(
0.658526
0.658501
0.658459
0.658388
0.658271
0.658076
0.657756
0.657234
0.656392
0.655053
0.652957
0.649739
0.644915
0.637894
0.628027
0.614723
0.597619
0.576737
0.552604
0.526172
0.498622
0.471113
0.444581
0.41966
0.396685
0.375758
0.356827
0.339751
0.324348
0.310428
0.297811
0.286332
0.27585
0.266243
0.257411
0.249266
0.241697
0.234635
0.228027
0.221829
0.216002
0.210514
0.205337
0.200449
0.19583
0.191463
0.187335
0.183434
0.179751
0.176278
0.17301
0.169945
0.16708
0.164418
0.161963
0.159722
0.15771
0.155946
0.154493
0.153312
0.152496
0.152121
0.152313
0.160545
0.170425
0.18213
0.195922
0.212164
0.231336
0.254069
0.281188
0.313763
0.353171
0.401247
0.460357
0.532822
0.620172
0.72161
0.831728
0.93937
1.03088
1.09738
1.13904
1.16204
1.17365
1.17921
1.18178
1.18293
1.18344
1.18366
1.18375
1.18379
1.18381
1.18382
1.18382
1.18382
1.18382
1.18382
1.18382
1.18382
0.658526
0.658501
0.658458
0.658387
0.658268
0.658071
0.657746
0.657217
0.656364
0.655009
0.652891
0.649649
0.644804
0.637775
0.627931
0.614698
0.597718
0.577022
0.553103
0.526876
0.499491
0.472086
0.445598
0.420666
0.39764
0.376638
0.357619
0.340452
0.324961
0.310959
0.298267
0.28672
0.276176
0.266515
0.257635
0.249446
0.24184
0.234745
0.228107
0.221882
0.216031
0.210521
0.205326
0.200421
0.195787
0.191407
0.187267
0.183356
0.179665
0.176185
0.172912
0.169844
0.166978
0.164318
0.161867
0.159636
0.157639
0.155898
0.154478
0.153343
0.152589
0.152296
0.152585
0.161137
0.171325
0.183355
0.197518
0.214204
0.233927
0.257363
0.285392
0.319158
0.360127
0.410277
0.47206
0.547728
0.638462
0.74259
0.853338
0.958511
1.04502
1.10605
1.14355
1.16413
1.17455
1.17958
1.18192
1.18298
1.18346
1.18367
1.18376
1.18379
1.18381
1.18382
1.18382
1.18382
1.18382
1.18382
1.18382
1.18382
0.658526
0.658501
0.658457
0.658385
0.658265
0.658065
0.657736
0.657199
0.656337
0.654968
0.652834
0.649574
0.644715
0.637682
0.62785
0.61465
0.597741
0.577155
0.553379
0.527309
0.500069
0.47278
0.446365
0.421466
0.398438
0.377405
0.358338
0.341111
0.325556
0.311488
0.298731
0.287123
0.276521
0.266806
0.257875
0.24964
0.241992
0.234856
0.228181
0.221921
0.21604
0.210503
0.205283
0.200355
0.1957
0.191301
0.187144
0.183218
0.179513
0.176023
0.172742
0.169668
0.1668
0.164141
0.161697
0.159479
0.157505
0.155812
0.154448
0.153405
0.152799
0.152741
0.153411
0.162358
0.172962
0.185457
0.200162
0.217497
0.238016
0.262442
0.291713
0.327041
0.369972
0.422595
0.487325
0.566163
0.659698
0.765229
0.874853
0.976112
1.0572
1.11325
1.1473
1.16592
1.17536
1.17993
1.18207
1.18305
1.18348
1.18368
1.18376
1.1838
1.18381
1.18382
1.18382
1.18382
1.18382
1.18382
1.18382
1.18382
0.658526
0.6585
0.658457
0.658384
0.658263
0.658061
0.65773
0.657191
0.656324
0.65495
0.652811
0.649548
0.644691
0.63767
0.627868
0.614728
0.597905
0.577424
0.55376
0.527797
0.500645
0.473415
0.447031
0.422134
0.399087
0.37802
0.358908
0.341632
0.326024
0.311904
0.299095
0.287437
0.276787
0.267026
0.25805
0.249773
0.242084
0.234912
0.228205
0.221916
0.216006
0.210441
0.205195
0.200243
0.195565
0.191146
0.186971
0.183028
0.179309
0.175807
0.172517
0.169437
0.166565
0.163906
0.161467
0.15926
0.157304
0.155649
0.154334
0.153363
0.152873
0.153018
0.154792
0.164122
0.175158
0.188156
0.20346
0.221519
0.242926
0.268446
0.299073
0.33608
0.381094
0.436297
0.50402
0.585979
0.682146
0.788795
0.896992
0.99415
1.06978
1.12084
1.15136
1.16793
1.1763
1.18035
1.18225
1.18313
1.18352
1.18369
1.18377
1.1838
1.18381
1.18382
1.18382
1.18382
1.18382
1.18382
1.18382
1.18382
0.658526
0.6585
0.658457
0.658383
0.658261
0.658059
0.657727
0.657186
0.656317
0.654942
0.652801
0.649537
0.644683
0.637672
0.627893
0.614792
0.598028
0.577621
0.554039
0.528155
0.501069
0.473884
0.447521
0.422626
0.399563
0.378469
0.359322
0.342006
0.326356
0.312194
0.299344
0.287644
0.276954
0.267152
0.25814
0.24983
0.242112
0.234912
0.228176
0.221859
0.215922
0.210332
0.205062
0.200088
0.19539
0.190952
0.186759
0.182802
0.17907
0.175557
0.172259
0.169172
0.166296
0.163637
0.161199
0.158996
0.157047
0.155403
0.154096
0.153128
0.152623
0.152696
0.156702
0.166318
0.177734
0.191211
0.20711
0.225903
0.248214
0.27485
0.306856
0.345557
0.392671
0.450435
0.52105
0.6059
0.704282
0.81146
0.917645
1.01045
1.08083
1.12738
1.15484
1.16964
1.1771
1.18071
1.18241
1.1832
1.18355
1.1837
1.18377
1.1838
1.18381
1.18382
1.18382
1.18382
1.18382
1.18382
1.18382
1.18382
0.658526
0.6585
0.658456
0.658383
0.658261
0.658058
0.657726
0.657185
0.656315
0.65494
0.6528
0.64954
0.644695
0.6377
0.627947
0.614883
0.598166
0.577813
0.554287
0.528452
0.501402
0.474239
0.447882
0.422978
0.399896
0.378776
0.359598
0.342248
0.326564
0.312366
0.299481
0.287748
0.277027
0.267199
0.258161
0.249825
0.242081
0.234855
0.228094
0.221753
0.215794
0.210183
0.204892
0.199899
0.195184
0.190729
0.186523
0.182553
0.178811
0.175289
0.171985
0.168894
0.166018
0.16336
0.160927
0.158731
0.156792
0.155168
0.153881
0.152931
0.152446
0.152561
0.158696
0.168601
0.180391
0.194342
0.210828
0.230346
0.253549
0.281285
0.314642
0.355
0.404171
0.464412
0.537763
0.625262
0.725518
0.832842
0.936773
1.02529
1.0908
1.13327
1.15799
1.1712
1.17784
1.18105
1.18257
1.18326
1.18358
1.18372
1.18378
1.1838
1.18381
1.18382
1.18382
1.18382
1.18382
1.18382
1.18382
1.18382
0.658526
0.6585
0.658456
0.658383
0.658261
0.658058
0.657725
0.657184
0.656315
0.654941
0.652803
0.649547
0.64471
0.637728
0.627994
0.614957
0.598274
0.577959
0.554471
0.528668
0.50164
0.474486
0.448128
0.423212
0.40011
0.378964
0.359759
0.34238
0.326667
0.312443
0.299534
0.287779
0.277036
0.267185
0.258124
0.249765
0.241999
0.234752
0.227971
0.221611
0.215632
0.210004
0.204697
0.199688
0.194959
0.190492
0.186274
0.182295
0.178545
0.175019
0.171712
0.168621
0.165748
0.163097
0.160674
0.158493
0.156576
0.15498
0.153712
0.15279
0.152341
0.152504
0.160566
0.170738
0.182904
0.197329
0.214398
0.234628
0.258701
0.287501
0.322162
0.364114
0.415261
0.477847
0.553744
0.64362
0.745392
0.852494
0.953966
1.03833
1.09938
1.13829
1.16065
1.17252
1.17847
1.18134
1.1827
1.18332
1.1836
1.18373
1.18378
1.1838
1.18381
1.18382
1.18382
1.18382
1.18382
1.18382
1.18382
1.18382
0.658526
0.6585
0.658456
0.658383
0.658261
0.658058
0.657725
0.657185
0.656317
0.654943
0.652808
0.649557
0.644726
0.637755
0.628037
0.615021
0.598361
0.578071
0.554605
0.528819
0.5018
0.474645
0.448277
0.423345
0.400223
0.379056
0.359829
0.342431
0.326699
0.312457
0.299528
0.287752
0.276989
0.267119
0.258039
0.249663
0.24188
0.234616
0.227818
0.221442
0.215449
0.209807
0.204487
0.199466
0.194726
0.190249
0.186024
0.182038
0.178285
0.174757
0.17145
0.168364
0.165499
0.16286
0.160456
0.1583
0.156412
0.154874
0.153625
0.15277
0.152388
0.152609
0.161613
0.172341
0.18503
0.200002
0.21768
0.238618
0.263533
0.293351
0.32925
0.372714
0.425727
0.490498
0.568726
0.6607
0.763664
0.870272
0.969229
1.04971
1.10678
1.14257
1.16293
1.17365
1.17901
1.18159
1.18281
1.18337
1.18362
1.18374
1.18378
1.18381
1.18381
1.18382
1.18382
1.18382
1.18382
1.18382
1.18382
1.18382
0.658526
0.6585
0.658456
0.658383
0.658261
0.658058
0.657726
0.657185
0.656318
0.654946
0.652813
0.649565
0.64474
0.637777
0.628069
0.615066
0.598421
0.578145
0.55469
0.528909
0.501889
0.474727
0.448348
0.423402
0.400266
0.379084
0.359842
0.342427
0.326678
0.312417
0.299471
0.28768
0.276901
0.267016
0.257922
0.249533
0.241735
0.234458
0.227648
0.22126
0.215255
0.209602
0.204272
0.199242
0.194494
0.190011
0.18578
0.181791
0.178036
0.174509
0.171206
0.168127
0.165272
0.162649
0.160268
0.158144
0.156308
0.154835
0.153681
0.152978
0.152841
0.15347
0.162845
0.173966
0.187082
0.202531
0.22076
0.242346
0.26804
0.298801
0.335849
0.380724
0.435474
0.502253
0.582585
0.67638
0.780246
0.88615
0.982611
1.0595
1.11305
1.14617
1.16483
1.17459
1.17946
1.1818
1.1829
1.18341
1.18364
1.18374
1.18379
1.18381
1.18382
1.18382
1.18382
1.18382
1.18382
1.18382
1.18382
1.18382
0.658526
0.6585
0.658456
0.658383
0.658261
0.658059
0.657726
0.657186
0.656319
0.654948
0.652817
0.649572
0.64475
0.637792
0.62809
0.615094
0.598456
0.578185
0.554733
0.52895
0.501925
0.474757
0.448368
0.423411
0.400261
0.379063
0.359805
0.342375
0.326612
0.312338
0.299379
0.287576
0.276786
0.266889
0.257786
0.249385
0.241578
0.23429
0.22747
0.221073
0.21506
0.209398
0.204061
0.199024
0.194271
0.189783
0.185549
0.181559
0.177804
0.174278
0.17098
0.167907
0.165063
0.162454
0.16009
0.157991
0.156197
0.154766
0.153673
0.153056
0.153051
0.154528
0.164184
0.175614
0.189081
0.204938
0.223649
0.245815
0.272211
0.30383
0.341927
0.388101
0.444444
0.513044
0.595248
0.6906
0.795116
0.90018
0.994238
1.06788
1.11835
1.14919
1.16642
1.17538
1.17983
1.18198
1.18298
1.18345
1.18366
1.18375
1.18379
1.18381
1.18382
1.18382
1.18382
1.18382
1.18382
1.18382
1.18382
1.18382
0.658526
0.6585
0.658456
0.658383
0.658261
0.658059
0.657727
0.657187
0.65632
0.65495
0.652819
0.649576
0.644756
0.6378
0.628101
0.615108
0.598471
0.578201
0.554747
0.52896
0.501928
0.474748
0.448346
0.423375
0.400211
0.379001
0.359731
0.34229
0.326516
0.312233
0.299266
0.287453
0.276655
0.266751
0.257639
0.249231
0.241416
0.234121
0.227294
0.220889
0.21487
0.209202
0.203859
0.198819
0.194061
0.189571
0.185335
0.181344
0.17759
0.174068
0.170773
0.167706
0.16487
0.162269
0.159917
0.157829
0.156049
0.154627
0.153537
0.152905
0.152844
0.155735
0.165578
0.177241
0.190993
0.207196
0.226327
0.249004
0.276027
0.308416
0.347459
0.394809
0.452587
0.522815
0.606672
0.703342
0.808301
0.91245
1.00425
1.07499
1.12281
1.15171
1.16774
1.17604
1.18015
1.18212
1.18305
1.18348
1.18367
1.18376
1.18379
1.18381
1.18382
1.18382
1.18382
1.18382
1.18382
1.18382
1.18382
1.18382
0.658526
0.6585
0.658456
0.658383
0.658261
0.658059
0.657727
0.657187
0.656321
0.65495
0.652821
0.649577
0.644758
0.637804
0.628105
0.615111
0.598473
0.578199
0.554737
0.528941
0.501896
0.474704
0.44829
0.423307
0.400132
0.378913
0.359634
0.342185
0.326405
0.312115
0.299141
0.287323
0.276519
0.266609
0.257492
0.249079
0.241257
0.233957
0.227124
0.220715
0.214691
0.209019
0.203673
0.198629
0.19387
0.189378
0.185142
0.181152
0.177399
0.17388
0.170589
0.167528
0.164698
0.162106
0.159762
0.157684
0.155915
0.154503
0.15342
0.15279
0.152727
0.156861
0.166875
0.178745
0.192746
0.209252
0.228752
0.251881
0.279461
0.312536
0.352422
0.400824
0.459887
0.531556
0.616848
0.714619
0.81986
0.92307
1.0128
1.08099
1.12652
1.1538
1.16883
1.17658
1.1804
1.18224
1.1831
1.1835
1.18368
1.18376
1.1838
1.18381
1.18382
1.18382
1.18382
1.18382
1.18382
1.18382
1.18382
1.18382
0.658526
0.6585
0.658456
0.658383
0.658261
0.658059
0.657727
0.657187
0.656321
0.654951
0.652821
0.649578
0.644758
0.637803
0.628102
0.615105
0.598461
0.578179
0.554707
0.528899
0.501843
0.474638
0.448213
0.423221
0.400038
0.378811
0.359527
0.342072
0.326287
0.311993
0.299015
0.287192
0.276384
0.26647
0.25735
0.248933
0.241108
0.233803
0.226967
0.220555
0.214528
0.208853
0.203505
0.19846
0.193699
0.189207
0.184972
0.180983
0.177233
0.173717
0.170431
0.167375
0.164552
0.161968
0.159633
0.157565
0.155808
0.154406
0.15333
0.152708
0.152651
0.157859
0.168029
0.180083
0.194305
0.211077
0.230902
0.254429
0.282497
0.316175
0.356802
0.406135
0.466327
0.539255
0.625782
0.724461
0.829861
0.932161
1.02003
1.086
1.1296
1.15552
1.16973
1.17702
1.18062
1.18234
1.18315
1.18352
1.18369
1.18376
1.1838
1.18381
1.18382
1.18382
1.18382
1.18382
1.18382
1.18382
1.18382
1.18382
0.658526
0.6585
0.658456
0.658383
0.658261
0.658059
0.657727
0.657187
0.656321
0.65495
0.65282
0.649576
0.644756
0.637798
0.628094
0.615092
0.598441
0.578149
0.554666
0.528846
0.501777
0.474562
0.448127
0.423126
0.399937
0.378705
0.359417
0.341959
0.326171
0.311874
0.298893
0.287068
0.276258
0.266342
0.25722
0.248801
0.240972
0.233665
0.226827
0.220412
0.214383
0.208707
0.203358
0.198312
0.193551
0.18906
0.184826
0.180839
0.177092
0.17358
0.170299
0.167249
0.164433
0.161856
0.159531
0.157472
0.155725
0.154333
0.153268
0.152655
0.152608
0.158707
0.169021
0.181239
0.195655
0.212658
0.232763
0.256633
0.285125
0.319326
0.360599
0.410742
0.471911
0.545921
0.633495
0.732916
0.838388
0.939835
1.02607
1.09015
1.13214
1.15693
1.17046
1.17738
1.18079
1.18242
1.18319
1.18354
1.1837
1.18377
1.1838
1.18381
1.18382
1.18382
1.18382
1.18382
1.18382
1.18382
1.18382
1.18382
0.658526
0.6585
0.658456
0.658383
0.658261
0.658059
0.657727
0.657187
0.65632
0.65495
0.652819
0.649574
0.644752
0.637791
0.628083
0.615075
0.598416
0.578114
0.55462
0.528788
0.501708
0.474483
0.448039
0.423032
0.399838
0.378603
0.359312
0.341852
0.326062
0.311764
0.298782
0.286956
0.276145
0.266227
0.257104
0.248684
0.240854
0.233545
0.226706
0.22029
0.21426
0.208583
0.203233
0.198188
0.193428
0.188938
0.184705
0.180721
0.176978
0.17347
0.170194
0.16715
0.16434
0.161772
0.159454
0.157403
0.155667
0.154284
0.153227
0.152624
0.15259
0.159414
0.169853
0.182214
0.196796
0.213998
0.234342
0.258506
0.287357
0.322003
0.363826
0.414657
0.476655
0.551577
0.640024
0.740042
0.845528
0.94621
1.03104
1.09354
1.13419
1.15807
1.17105
1.17767
1.18093
1.18249
1.18322
1.18355
1.1837
1.18377
1.1838
1.18381
1.18382
1.18382
1.18382
1.18382
1.18382
1.18382
1.18382
1.18382
0.658526
0.6585
0.658456
0.658383
0.658261
0.658059
0.657726
0.657186
0.65632
0.654949
0.652817
0.649571
0.644747
0.637784
0.628072
0.615057
0.59839
0.578078
0.554574
0.528731
0.501641
0.474408
0.447957
0.422946
0.399748
0.378511
0.359218
0.341757
0.325967
0.311668
0.298686
0.28686
0.276048
0.26613
0.257006
0.248585
0.240755
0.233446
0.226605
0.220189
0.214159
0.208482
0.203133
0.198087
0.193328
0.18884
0.18461
0.180629
0.176889
0.173385
0.170114
0.167076
0.164273
0.161711
0.1594
0.157356
0.155627
0.154249
0.153193
0.152583
0.152533
0.159977
0.17053
0.183016
0.197739
0.215106
0.23565
0.260055
0.289205
0.324218
0.366496
0.417898
0.48058
0.556251
0.645406
0.745895
0.851362
0.951385
1.03505
1.09626
1.13583
1.15898
1.17152
1.1779
1.18104
1.18254
1.18324
1.18356
1.18371
1.18377
1.1838
1.18381
1.18382
1.18382
1.18382
1.18382
1.18382
1.18382
1.18382
1.18382
0.658526
0.6585
0.658456
0.658383
0.658261
0.658059
0.657726
0.657186
0.656319
0.654948
0.652816
0.649569
0.644743
0.637777
0.628061
0.61504
0.598366
0.578046
0.554533
0.528681
0.501583
0.474342
0.447887
0.422871
0.399671
0.378432
0.359139
0.341678
0.325888
0.311589
0.298607
0.286781
0.275969
0.266051
0.256928
0.248507
0.240677
0.233367
0.226527
0.220111
0.21408
0.208404
0.203055
0.198011
0.193254
0.188767
0.18454
0.180562
0.176825
0.173326
0.17006
0.167027
0.164229
0.161673
0.159369
0.157332
0.155611
0.154238
0.153186
0.152578
0.15253
0.160438
0.171079
0.183662
0.198497
0.215996
0.236698
0.261296
0.290682
0.325987
0.368626
0.420481
0.483706
0.559968
0.649676
0.750522
0.855953
0.955436
1.03817
1.09836
1.1371
1.15968
1.17188
1.17808
1.18112
1.18258
1.18326
1.18357
1.18371
1.18377
1.1838
1.18381
1.18382
1.18382
1.18382
1.18382
1.18382
1.18382
1.18382
1.18382
0.658526
0.6585
0.658456
0.658383
0.658261
0.658058
0.657726
0.657186
0.656319
0.654947
0.652814
0.649566
0.644739
0.637771
0.628052
0.615027
0.598347
0.57802
0.554499
0.52864
0.501536
0.47429
0.447831
0.422813
0.399611
0.378371
0.359078
0.341617
0.325827
0.311529
0.298547
0.286721
0.27591
0.265993
0.25687
0.24845
0.24062
0.233311
0.226471
0.220055
0.214025
0.208349
0.203001
0.197959
0.193202
0.188718
0.184493
0.180518
0.176785
0.173289
0.170027
0.166999
0.164207
0.161657
0.159358
0.157328
0.155612
0.154244
0.153195
0.152585
0.152531
0.160769
0.171487
0.184149
0.199072
0.216672
0.237492
0.262235
0.291798
0.327319
0.370229
0.422421
0.486049
0.562749
0.652862
0.753962
0.85935
0.958417
1.04046
1.09991
1.13803
1.16019
1.17214
1.17821
1.18118
1.18261
1.18327
1.18358
1.18371
1.18377
1.1838
1.18381
1.18382
1.18382
1.18382
1.18382
1.18382
1.18382
1.18382
1.18382
0.658526
0.6585
0.658456
0.658383
0.658261
0.658058
0.657726
0.657186
0.656318
0.654946
0.652813
0.649565
0.644737
0.637767
0.628045
0.615017
0.598333
0.578002
0.554476
0.528612
0.501504
0.474254
0.447793
0.422773
0.39957
0.37833
0.359036
0.341576
0.325786
0.311488
0.298507
0.286682
0.275871
0.265955
0.256833
0.248414
0.240584
0.233275
0.226436
0.22002
0.213991
0.208316
0.202969
0.197927
0.193173
0.18869
0.184467
0.180494
0.176764
0.173271
0.170013
0.166989
0.164202
0.161657
0.159364
0.157338
0.155628
0.154263
0.153214
0.1526
0.152536
0.160989
0.171764
0.184484
0.199468
0.217136
0.238037
0.262875
0.292555
0.328221
0.371309
0.423724
0.487617
0.564604
0.65498
0.756239
0.861586
0.960367
1.04195
1.10091
1.13864
1.16052
1.17231
1.17829
1.18122
1.18262
1.18328
1.18358
1.18371
1.18378
1.1838
1.18381
1.18382
1.18382
1.18382
1.18382
1.18382
1.18382
1.18382
1.18382
0.658526
0.6585
0.658456
0.658383
0.658261
0.658058
0.657726
0.657186
0.656318
0.654946
0.652813
0.649564
0.644735
0.637765
0.628042
0.615013
0.598327
0.577993
0.554465
0.528599
0.501488
0.474237
0.447774
0.422753
0.39955
0.378309
0.359016
0.341555
0.325766
0.311468
0.298487
0.286662
0.275852
0.265936
0.256815
0.248396
0.240567
0.233259
0.22642
0.220005
0.213976
0.208302
0.202955
0.197914
0.193161
0.188679
0.184457
0.180486
0.176758
0.173267
0.170012
0.166991
0.164207
0.161665
0.159376
0.157354
0.155647
0.154284
0.153234
0.152616
0.15254
0.161098
0.17191
0.184662
0.199678
0.217381
0.238321
0.263206
0.292942
0.328677
0.371851
0.424373
0.488392
0.565513
0.65601
0.757336
0.862655
0.961291
1.04265
1.10137
1.13892
1.16068
1.17239
1.17833
1.18124
1.18263
1.18328
1.18358
1.18372
1.18378
1.1838
1.18381
1.18382
1.18382
1.18382
1.18382
1.18382
1.18382
1.18382
1.18382
0.658526
0.6585
0.658456
0.658383
0.658261
0.658058
0.657726
0.657186
0.656318
0.654946
0.652813
0.649564
0.644735
0.637764
0.628042
0.615012
0.598326
0.577993
0.554464
0.528598
0.501487
0.474236
0.447773
0.422752
0.399549
0.378309
0.359015
0.341555
0.325765
0.311468
0.298487
0.286662
0.275852
0.265936
0.256815
0.248396
0.240567
0.233259
0.22642
0.220005
0.213976
0.208302
0.202955
0.197914
0.193161
0.188679
0.184457
0.180486
0.176758
0.173267
0.170012
0.166991
0.164207
0.161665
0.159376
0.157354
0.155647
0.154283
0.153234
0.152616
0.152539
0.161098
0.17191
0.184662
0.199678
0.217381
0.238321
0.263206
0.292943
0.328678
0.371852
0.424375
0.488393
0.565515
0.656012
0.75734
0.862658
0.961294
1.04265
1.10137
1.13892
1.16068
1.17239
1.17833
1.18124
1.18263
1.18328
1.18358
1.18372
1.18378
1.1838
1.18381
1.18382
1.18382
1.18382
1.18382
1.18382
1.18382
1.18382
1.18382
0.658526
0.6585
0.658456
0.658383
0.658261
0.658058
0.657726
0.657186
0.656318
0.654946
0.652813
0.649565
0.644736
0.637766
0.628044
0.615016
0.598332
0.578
0.554474
0.52861
0.501501
0.474252
0.44779
0.422771
0.399568
0.378328
0.359035
0.341574
0.325785
0.311487
0.298506
0.286681
0.27587
0.265954
0.256832
0.248413
0.240583
0.233275
0.226435
0.22002
0.213991
0.208316
0.202969
0.197927
0.193172
0.18869
0.184467
0.180494
0.176763
0.173271
0.170013
0.166989
0.164202
0.161657
0.159363
0.157338
0.155628
0.154262
0.153213
0.1526
0.152535
0.160989
0.171765
0.184485
0.199469
0.217137
0.238038
0.262877
0.292557
0.328224
0.371312
0.423729
0.487623
0.564611
0.654988
0.756248
0.861595
0.960376
1.04196
1.10091
1.13864
1.16053
1.17231
1.17829
1.18122
1.18262
1.18328
1.18358
1.18371
1.18378
1.1838
1.18381
1.18382
1.18382
1.18382
1.18382
1.18382
1.18382
1.18382
1.18382
0.658526
0.6585
0.658456
0.658383
0.658261
0.658058
0.657726
0.657186
0.656319
0.654947
0.652814
0.649566
0.644738
0.63777
0.62805
0.615025
0.598344
0.578017
0.554496
0.528637
0.501532
0.474286
0.447827
0.422809
0.399608
0.378368
0.359075
0.341614
0.325825
0.311527
0.298545
0.286719
0.275908
0.265991
0.256869
0.248449
0.240619
0.23331
0.22647
0.220054
0.214024
0.208349
0.203001
0.197958
0.193202
0.188717
0.184492
0.180517
0.176784
0.173288
0.170026
0.166998
0.164206
0.161656
0.159358
0.157327
0.155612
0.154243
0.153194
0.152584
0.152529
0.160769
0.171487
0.18415
0.199073
0.216674
0.237495
0.262238
0.291801
0.327324
0.370234
0.422429
0.486058
0.562761
0.652876
0.753978
0.859367
0.958433
1.04047
1.09991
1.13804
1.16019
1.17214
1.17821
1.18118
1.18261
1.18327
1.18358
1.18371
1.18377
1.1838
1.18381
1.18382
1.18382
1.18382
1.18382
1.18382
1.18382
1.18382
1.18382
0.658526
0.6585
0.658456
0.658383
0.658261
0.658058
0.657726
0.657186
0.656319
0.654948
0.652815
0.649568
0.644742
0.637775
0.628059
0.615038
0.598363
0.578042
0.554528
0.528675
0.501577
0.474337
0.447881
0.422866
0.399667
0.378428
0.359135
0.341674
0.325884
0.311586
0.298604
0.286778
0.275967
0.266049
0.256926
0.248506
0.240675
0.233366
0.226525
0.220109
0.214079
0.208403
0.203054
0.19801
0.193253
0.188766
0.184539
0.180561
0.176824
0.173325
0.170059
0.167026
0.164228
0.161672
0.159368
0.157331
0.155609
0.154236
0.153185
0.152576
0.152527
0.160437
0.17108
0.183663
0.198499
0.215999
0.236701
0.261301
0.290688
0.325994
0.368635
0.420492
0.483719
0.559985
0.649696
0.750545
0.855976
0.955457
1.03819
1.09838
1.13711
1.15968
1.17188
1.17808
1.18112
1.18258
1.18326
1.18357
1.18371
1.18377
1.1838
1.18381
1.18382
1.18382
1.18382
1.18382
1.18382
1.18382
1.18382
1.18382
0.658526
0.6585
0.658456
0.658383
0.658261
0.658059
0.657726
0.657186
0.65632
0.654948
0.652817
0.64957
0.644746
0.637782
0.628069
0.615053
0.598385
0.578073
0.554568
0.528724
0.501634
0.4744
0.447951
0.422939
0.399742
0.378505
0.359213
0.341753
0.325963
0.311664
0.298683
0.286856
0.276045
0.266127
0.257004
0.248583
0.240753
0.233444
0.226603
0.220187
0.214157
0.20848
0.203131
0.198086
0.193327
0.188839
0.184609
0.180628
0.176888
0.173384
0.170113
0.167075
0.164272
0.16171
0.159399
0.157355
0.155626
0.154247
0.153191
0.152581
0.15253
0.159979
0.170533
0.183018
0.197742
0.21511
0.235655
0.260062
0.289213
0.324227
0.366507
0.417912
0.480597
0.556273
0.645431
0.745924
0.851392
0.951411
1.03507
1.09627
1.13584
1.15898
1.17152
1.1779
1.18104
1.18254
1.18324
1.18356
1.18371
1.18377
1.1838
1.18381
1.18382
1.18382
1.18382
1.18382
1.18382
1.18382
1.18382
1.18382
0.658526
0.6585
0.658456
0.658383
0.658261
0.658059
0.657726
0.657187
0.65632
0.654949
0.652818
0.649573
0.64475
0.637789
0.62808
0.61507
0.59841
0.578107
0.554612
0.528779
0.501699
0.474474
0.448031
0.423025
0.399831
0.378596
0.359306
0.341847
0.326057
0.31176
0.298778
0.286952
0.276141
0.266224
0.257101
0.248681
0.240851
0.233543
0.226703
0.220288
0.214258
0.208581
0.203231
0.198186
0.193426
0.188936
0.184704
0.18072
0.176976
0.173468
0.170192
0.167148
0.164339
0.16177
0.159452
0.157402
0.155665
0.154282
0.153225
0.152621
0.152586
0.159414
0.169855
0.182217
0.1968
0.214003
0.234348
0.258513
0.287367
0.322014
0.36384
0.414675
0.476677
0.551603
0.640054
0.740076
0.845563
0.946241
1.03106
1.09356
1.1342
1.15808
1.17105
1.17767
1.18093
1.18249
1.18322
1.18355
1.1837
1.18377
1.1838
1.18381
1.18382
1.18382
1.18382
1.18382
1.18382
1.18382
1.18382
1.18382
0.658526
0.6585
0.658456
0.658383
0.658261
0.658059
0.657727
0.657187
0.65632
0.65495
0.652819
0.649575
0.644754
0.637795
0.628091
0.615087
0.598434
0.578141
0.554657
0.528836
0.501767
0.474552
0.448117
0.423117
0.399928
0.378697
0.359409
0.341952
0.326165
0.311868
0.298888
0.287064
0.276254
0.266338
0.257216
0.248797
0.240969
0.233662
0.226824
0.22041
0.214381
0.208705
0.203355
0.19831
0.193549
0.189058
0.184824
0.180837
0.177091
0.173578
0.170297
0.167248
0.164431
0.161855
0.159529
0.15747
0.155724
0.154332
0.153266
0.152653
0.152605
0.158711
0.169025
0.181244
0.195661
0.212666
0.232771
0.256643
0.285136
0.31934
0.360616
0.410762
0.471936
0.545951
0.63353
0.732955
0.838427
0.939871
1.02609
1.09017
1.13215
1.15694
1.17046
1.17738
1.18079
1.18242
1.18319
1.18354
1.1837
1.18377
1.1838
1.18381
1.18382
1.18382
1.18382
1.18382
1.18382
1.18382
1.18382
1.18382
0.658526
0.6585
0.658456
0.658383
0.658261
0.658059
0.657727
0.657187
0.65632
0.65495
0.65282
0.649576
0.644756
0.637799
0.628098
0.615099
0.598454
0.57817
0.554697
0.528888
0.501831
0.474627
0.448202
0.42321
0.400028
0.378802
0.359518
0.342065
0.32628
0.311986
0.299009
0.287187
0.276379
0.266466
0.257346
0.248929
0.241104
0.2338
0.226964
0.220552
0.214525
0.20885
0.203502
0.198457
0.193696
0.189205
0.18497
0.180981
0.177231
0.173715
0.170429
0.167374
0.16455
0.161966
0.159631
0.157563
0.155806
0.154404
0.153329
0.152707
0.15265
0.157864
0.168035
0.18009
0.194313
0.211086
0.230912
0.254441
0.282511
0.316191
0.356821
0.406159
0.466356
0.539289
0.625822
0.724505
0.829906
0.932202
1.02006
1.08602
1.12962
1.15553
1.16973
1.17702
1.18062
1.18234
1.18315
1.18352
1.18369
1.18376
1.1838
1.18381
1.18382
1.18382
1.18382
1.18382
1.18382
1.18382
1.18382
1.18382
0.658526
0.6585
0.658456
0.658383
0.658261
0.658059
0.657727
0.657187
0.65632
0.65495
0.65282
0.649576
0.644756
0.6378
0.6281
0.615105
0.598465
0.578188
0.554726
0.528928
0.501883
0.474691
0.448277
0.423295
0.400121
0.378902
0.359625
0.342177
0.326397
0.312108
0.299134
0.287317
0.276513
0.266603
0.257487
0.249074
0.241253
0.233952
0.22712
0.220711
0.214687
0.209016
0.20367
0.198626
0.193867
0.189375
0.18514
0.181149
0.177397
0.173877
0.170587
0.167526
0.164696
0.162104
0.15976
0.157682
0.155913
0.154502
0.153418
0.152789
0.152726
0.156867
0.166883
0.178753
0.192756
0.209262
0.228764
0.251895
0.279477
0.312555
0.352444
0.400851
0.459919
0.531594
0.616893
0.714668
0.81991
0.923116
1.01284
1.08101
1.12654
1.15381
1.16883
1.17658
1.18041
1.18224
1.1831
1.1835
1.18368
1.18376
1.1838
1.18381
1.18382
1.18382
1.18382
1.18382
1.18382
1.18382
1.18382
1.18382
0.658526
0.6585
0.658456
0.658383
0.658261
0.658059
0.657726
0.657186
0.65632
0.654949
0.652818
0.649574
0.644753
0.637796
0.628096
0.6151
0.598462
0.57819
0.554734
0.528946
0.501913
0.474733
0.448331
0.423361
0.400198
0.378989
0.35972
0.34228
0.326507
0.312225
0.299258
0.287446
0.276649
0.266745
0.257633
0.249226
0.241411
0.234116
0.227289
0.220885
0.214866
0.209198
0.203856
0.198815
0.194058
0.189568
0.185333
0.181342
0.177588
0.174065
0.170771
0.167704
0.164868
0.162268
0.159915
0.157828
0.156047
0.154626
0.153536
0.152904
0.152843
0.155742
0.165586
0.177251
0.191004
0.207208
0.22634
0.249019
0.276045
0.308437
0.347483
0.394838
0.452622
0.522857
0.606721
0.703396
0.808357
0.912502
1.00429
1.07502
1.12282
1.15172
1.16774
1.17604
1.18015
1.18212
1.18305
1.18348
1.18367
1.18376
1.18379
1.18381
1.18382
1.18382
1.18382
1.18382
1.18382
1.18382
1.18382
1.18382
0.658526
0.6585
0.658456
0.658383
0.658261
0.658058
0.657726
0.657186
0.656319
0.654947
0.652816
0.64957
0.644747
0.637788
0.628084
0.615086
0.598446
0.578173
0.554718
0.528935
0.501909
0.47474
0.448352
0.423396
0.400246
0.37905
0.359793
0.342364
0.326601
0.312329
0.299371
0.287568
0.276779
0.266883
0.257779
0.249379
0.241572
0.234285
0.227465
0.221068
0.215055
0.209394
0.204057
0.199021
0.194267
0.18978
0.185546
0.181556
0.177801
0.174276
0.170977
0.167905
0.165061
0.162452
0.160089
0.15799
0.156196
0.154765
0.153672
0.153055
0.153049
0.154537
0.164194
0.175625
0.189093
0.204952
0.223665
0.245833
0.272231
0.303854
0.341954
0.388133
0.444482
0.51309
0.595302
0.69066
0.795178
0.900238
0.994285
1.06791
1.11837
1.1492
1.16642
1.17539
1.17984
1.18198
1.18298
1.18345
1.18366
1.18375
1.18379
1.18381
1.18382
1.18382
1.18382
1.18382
1.18382
1.18382
1.18382
1.18382
0.658526
0.6585
0.658456
0.658383
0.658261
0.658058
0.657726
0.657185
0.656317
0.654945
0.652811
0.649563
0.644737
0.637772
0.628062
0.615057
0.59841
0.578131
0.554674
0.528892
0.501871
0.474709
0.44833
0.423386
0.40025
0.37907
0.359829
0.342415
0.326666
0.312407
0.299462
0.287671
0.276893
0.267008
0.257915
0.249526
0.241729
0.234452
0.227642
0.221255
0.21525
0.209597
0.204267
0.199238
0.19449
0.190007
0.185777
0.181788
0.178033
0.174506
0.171204
0.168125
0.165271
0.162648
0.160267
0.158144
0.156308
0.154834
0.153681
0.152979
0.152845
0.153478
0.162855
0.173977
0.187095
0.202546
0.220776
0.242365
0.268061
0.298826
0.335878
0.380759
0.435515
0.502303
0.582642
0.676445
0.780314
0.886214
0.982664
1.05954
1.11308
1.14618
1.16484
1.1746
1.17946
1.1818
1.1829
1.18341
1.18364
1.18374
1.18379
1.18381
1.18382
1.18382
1.18382
1.18382
1.18382
1.18382
1.18382
1.18382
0.658526
0.6585
0.658456
0.658383
0.658261
0.658058
0.657725
0.657184
0.656316
0.654942
0.652807
0.649555
0.644723
0.63775
0.62803
0.615011
0.598349
0.578056
0.554588
0.528801
0.50178
0.474626
0.448258
0.423327
0.400207
0.379041
0.359815
0.342417
0.326687
0.312445
0.299517
0.287743
0.276981
0.26711
0.258032
0.249656
0.241873
0.234609
0.227812
0.221436
0.215444
0.209801
0.204481
0.199461
0.194721
0.190245
0.18602
0.182035
0.178282
0.174754
0.171448
0.168362
0.165498
0.162859
0.160455
0.1583
0.156413
0.154875
0.153625
0.152771
0.152392
0.152616
0.161623
0.172353
0.185044
0.200018
0.217698
0.238638
0.263557
0.293378
0.329281
0.372751
0.425771
0.490551
0.568788
0.66077
0.763739
0.870344
0.96929
1.04975
1.1068
1.14259
1.16293
1.17365
1.17901
1.18159
1.18281
1.18337
1.18362
1.18374
1.18378
1.18381
1.18381
1.18382
1.18382
1.18382
1.18382
1.18382
1.18382
1.18382
0.658526
0.6585
0.658456
0.658383
0.658261
0.658058
0.657725
0.657184
0.656315
0.654939
0.652801
0.649545
0.644706
0.637722
0.627986
0.614947
0.598261
0.577943
0.554453
0.528648
0.501619
0.474465
0.448107
0.423193
0.400092
0.378947
0.359743
0.342366
0.326654
0.312431
0.299522
0.287768
0.277026
0.267175
0.258115
0.249757
0.241992
0.234745
0.227964
0.221604
0.215626
0.209998
0.204691
0.199683
0.194954
0.190487
0.18627
0.182291
0.178542
0.175016
0.171709
0.168619
0.165746
0.163095
0.160673
0.158492
0.156575
0.154979
0.153712
0.15279
0.152341
0.152505
0.160577
0.170752
0.182919
0.197346
0.214417
0.234649
0.258725
0.287529
0.322195
0.364153
0.415308
0.477903
0.55381
0.643696
0.745474
0.852574