/*--------------------------------*- C++ -*----------------------------------*\
  =========                 |
  \\      /  F ield         | OpenFOAM: The Open Source CFD Toolbox
   \\    /   O peration     | Website:  https://openfoam.org
    \\  /    A nd           | Version:  8
     \\/     M anipulation  |
\*---------------------------------------------------------------------------*/
FoamFile
{
    version     2.0;
    format      ascii;
    class       volScalarField;
    location    "440/fluid";
    object      T;
}
// * * * * * * * * * * * * * * * * * * * * * * * * * * * * * * * * * * * * * //

dimensions      [0 0 0 1 0 0 0];

internalField   nonuniform List<scalar> 
4000
(
293.004
293.016
293.037
293.072
293.13
293.226
293.385
293.644
294.062
294.731
295.783
297.414
299.892
303.575
308.91
316.412
326.622
340.038
357.023
377.75
402.18
430.091
461.138
494.925
531.065
569.217
609.104
650.509
693.267
737.254
782.369
828.524
875.632
923.597
972.307
1021.66
1071.69
1122.34
1173.51
1225.11
1277.04
1329.2
1381.47
1433.74
1485.89
1537.8
1589.34
1640.38
1690.76
1740.35
1788.97
1836.43
1882.54
1927.06
1969.72
2010.2
2048.09
2082.89
2113.22
2139.94
2161.24
2175.82
2181.65
2077.62
1964.3
1844.47
1720.34
1593.71
1466.07
1338.75
1212.93
1089.78
970.491
856.085
747.66
647.134
556.856
479.206
416.197
368.793
336.234
315.963
304.463
298.465
295.527
294.14
293.505
293.22
293.095
293.04
293.017
293.007
293.003
293.001
293
293
293
293
293
293
293.004
293.016
293.037
293.072
293.131
293.229
293.39
293.652
294.076
294.753
295.816
297.459
299.95
303.639
308.963
316.427
326.561
339.848
356.654
377.166
401.36
429.035
459.863
493.462
529.452
567.497
607.317
648.691
691.453
735.471
780.644
826.879
874.088
922.171
971.017
1020.52
1070.7
1121.52
1172.87
1224.65
1276.78
1329.13
1381.59
1434.06
1486.4
1538.5
1590.23
1641.44
1692
1741.74
1790.5
1838.08
1884.29
1928.87
1971.54
2011.95
2049.7
2084.23
2114.14
2140.24
2160.66
2174.07
2178.49
2070.7
1954.66
1832.79
1707.05
1579.11
1450.36
1322.1
1195.5
1071.76
952.091
837.533
729.365
629.714
541.049
465.773
405.728
361.472
331.71
313.499
303.268
297.931
295.301
294.049
293.469
293.206
293.089
293.038
293.016
293.007
293.003
293.001
293
293
293
293
293
293
293.004
293.016
293.038
293.073
293.133
293.232
293.395
293.661
294.09
294.773
295.845
297.497
299.996
303.688
309.008
316.455
326.547
339.759
356.451
376.808
400.817
428.286
458.905
492.303
528.114
566.007
605.707
646.995
689.704
733.705
778.892
825.174
872.461
920.653
969.636
1019.3
1069.66
1120.69
1172.28
1224.32
1276.7
1329.31
1382.05
1434.8
1487.43
1539.82
1591.84
1643.33
1694.16
1744.16
1793.16
1840.95
1887.32
1932.02
1974.74
2015.1
2052.64
2086.53
2115.74
2140.59
2158.93
2168.97
2167.98
2056.29
1937.24
1813.03
1685.45
1556.07
1426.24
1297.22
1170.22
1046.46
927.203
813.485
706.804
609.426
523.786
452.096
395.814
354.991
327.908
311.48
302.283
297.476
295.099
293.962
293.432
293.191
293.083
293.036
293.015
293.006
293.003
293.001
293
293
293
293
293
293
293.004
293.017
293.038
293.074
293.134
293.234
293.398
293.665
294.096
294.782
295.856
297.511
300.008
303.694
308.998
316.41
326.446
339.58
356.17
376.405
400.276
427.602
458.077
491.341
527.03
564.819
604.434
645.661
688.334
732.323
777.526
823.852
871.21
919.506
968.627
1018.46
1069.03
1120.28
1172.09
1224.37
1277.02
1329.93
1382.98
1436.05
1489.02
1541.74
1594.09
1645.92
1697.07
1747.37
1796.65
1844.69
1891.28
1936.15
1978.96
2019.33
2056.75
2090.15
2118.7
2142.58
2159.27
2166.44
2150.02
2035.51
1914.22
1788.2
1659.22
1528.8
1398.29
1268.98
1142.08
1018.87
900.601
788.305
683.674
589.025
506.697
438.687
386.107
348.587
324.073
309.381
301.22
296.969
294.866
293.858
293.387
293.172
293.075
293.032
293.014
293.006
293.002
293.001
293
293
293
293
293
293
293.004
293.017
293.038
293.074
293.135
293.235
293.399
293.668
294.1
294.786
295.862
297.516
300.012
303.694
308.984
316.373
326.371
339.448
355.965
376.11
399.88
427.1
457.47
490.635
526.238
563.955
603.516
644.708
687.365
731.361
776.595
822.981
870.431
918.847
968.112
1018.1
1068.84
1120.28
1172.33
1224.87
1277.8
1331.01
1384.38
1437.78
1491.08
1544.15
1596.84
1649.01
1700.49
1751.1
1800.67
1848.99
1895.81
1940.86
1983.82
2024.28
2061.75
2095.09
2123.61
2147.46
2164.35
2172.5
2125.32
2010.06
1887.81
1760.85
1631.09
1500.13
1369.38
1240.17
1113.76
991.464
874.482
763.905
661.589
569.847
490.901
426.521
377.47
342.996
320.776
307.596
300.318
296.537
294.666
293.768
293.347
293.154
293.068
293.029
293.012
293.005
293.002
293.001
293
293
293
293
293
293
293.004
293.017
293.038
293.074
293.135
293.235
293.4
293.668
294.101
294.787
295.862
297.515
300.006
303.678
308.954
316.32
326.286
339.32
355.783
375.866
399.569
426.72
457.025
490.132
525.686
563.366
602.904
644.09
686.761
730.792
776.083
822.546
870.088
918.608
967.994
1018.13
1069.06
1120.71
1172.99
1225.79
1279
1332.5
1386.17
1439.89
1493.52
1546.91
1599.93
1652.42
1704.21
1755.12
1804.96
1853.51
1900.53
1945.74
1988.81
2029.32
2066.77
2099.88
2128.15
2151.8
2168.45
2175.94
2100.1
1984.24
1861.28
1733.67
1603.39
1472.14
1341.4
1212.51
1086.8
965.584
849.991
741.22
641.257
552.367
476.647
415.645
369.809
338.057
317.86
306.004
299.504
296.142
294.481
293.683
293.31
293.138
293.061
293.026
293.011
293.005
293.002
293.001
293
293
293
293
293
293
293.004
293.017
293.038
293.075
293.135
293.235
293.4
293.669
294.101
294.787
295.861
297.511
299.999
303.664
308.928
316.278
326.219
339.223
355.648
375.688
399.347
426.455
456.721
489.798
525.331
563.004
602.55
643.756
686.462
730.54
775.888
822.419
870.048
918.682
968.21
1018.51
1069.62
1121.48
1173.99
1227.03
1280.5
1334.28
1388.24
1442.25
1496.18
1549.88
1603.2
1655.98
1708.04
1759.2
1809.26
1858
1905.16
1950.45
1993.53
2033.98
2071.22
2104
2132.1
2155.39
2171.51
2178.19
2077.04
1960.7
1836.92
1708.52
1577.67
1446.14
1315.43
1186.94
1061.97
941.853
827.638
720.648
622.95
536.755
464.037
406.127
363.184
333.833
315.389
304.663
298.82
295.81
294.325
293.612
293.277
293.124
293.054
293.024
293.01
293.004
293.002
293.001
293
293
293
293
293
293
293.004
293.017
293.038
293.075
293.135
293.235
293.4
293.668
294.1
294.786
295.858
297.506
299.99
303.649
308.905
316.241
326.166
339.148
355.55
375.565
399.199
426.286
456.538
489.608
525.144
562.829
602.394
643.629
686.37
730.497
775.912
822.531
870.268
919.028
968.698
1019.16
1070.45
1122.51
1175.22
1228.5
1282.21
1336.24
1390.47
1444.75
1498.95
1552.92
1606.5
1659.53
1711.82
1763.19
1813.42
1862.28
1909.51
1954.79
1997.76
2037.98
2074.9
2106.82
2134.93
2157.24
2172.34
2178.09
2064.87
1943.66
1816.89
1686.66
1554.75
1422.72
1291.97
1163.83
1039.58
920.503
807.596
702.297
606.715
523.003
453.017
397.885
357.498
330.235
313.293
303.527
298.239
295.527
294.191
293.55
293.25
293.111
293.049
293.021
293.009
293.004
293.002
293.001
293
293
293
293
293
293
293.004
293.017
293.038
293.075
293.135
293.235
293.4
293.668
294.099
294.784
295.856
297.502
299.983
303.638
308.887
316.215
326.129
339.099
355.488
375.491
399.116
426.199
456.451
489.527
525.075
562.776
602.367
643.64
686.434
730.628
776.125
822.838
870.684
919.567
969.375
1019.99
1071.45
1123.69
1176.61
1230.09
1284.03
1338.29
1392.75
1447.27
1501.72
1555.92
1609.73
1662.97
1715.46
1766.99
1817.35
1866.29
1913.53
1958.74
2001.53
2041.42
2077.68
2108.74
2135.55
2155.68
2167.25
2167.16
2050.43
1926.58
1797.94
1666.47
1533.84
1401.51
1270.83
1143.09
1019.55
901.459
789.775
686.051
592.423
510.981
443.46
390.801
352.657
327.198
311.536
302.578
297.755
295.291
294.079
293.498
293.226
293.101
293.044
293.019
293.008
293.004
293.001
293.001
293
293
293
293
293
293
293.004
293.017
293.038
293.075
293.135
293.235
293.4
293.668
294.099
294.783
295.854
297.499
299.978
303.63
308.875
316.199
326.108
339.073
355.457
375.457
399.083
426.167
456.427
489.516
525.084
562.817
602.45
643.773
686.628
730.893
776.471
823.278
871.23
920.232
970.17
1020.93
1072.55
1124.96
1178.06
1231.73
1285.87
1340.34
1395.01
1449.74
1504.39
1558.81
1612.81
1666.23
1718.88
1770.54
1821
1870
1917.25
1962.41
2005.06
2044.7
2080.38
2110.87
2136.85
2155.74
2165.42
2153.43
2034.74
1909.44
1779.79
1647.67
1514.7
1382.32
1251.86
1124.59
1001.77
884.593
774.038
671.771
579.928
500.538
435.222
384.747
348.555
324.645
310.066
301.786
297.351
295.094
293.986
293.455
293.206
293.092
293.041
293.018
293.008
293.003
293.001
293.001
293
293
293
293
293
293
293.004
293.017
293.038
293.074
293.135
293.235
293.4
293.667
294.098
294.782
295.852
297.497
299.975
303.625
308.869
316.191
326.098
339.062
355.446
375.449
399.08
426.177
456.454
489.568
525.167
562.938
602.615
643.991
686.907
731.242
776.9
823.797
871.85
920.963
971.022
1021.92
1073.68
1126.24
1179.5
1233.35
1287.66
1342.31
1397.17
1452.09
1506.92
1561.51
1615.68
1669.25
1722.03
1773.81
1824.35
1873.41
1920.68
1965.82
2008.42
2047.97
2083.53
2113.9
2139.86
2158.94
2169.36
2137.73
2018.52
1892.74
1762.72
1630.38
1497.37
1365.13
1234.99
1108.23
986.117
869.798
760.304
659.364
569.116
491.541
428.168
379.604
345.099
322.508
308.843
301.13
297.016
294.931
293.908
293.419
293.19
293.085
293.037
293.016
293.007
293.003
293.001
293.001
293
293
293
293
293
293
293.004
293.017
293.038
293.074
293.135
293.235
293.399
293.667
294.098
294.782
295.852
297.496
299.973
303.624
308.867
316.189
326.097
339.064
355.454
375.465
399.11
426.224
456.524
489.665
525.298
563.108
602.831
644.259
687.235
731.637
777.371
824.353
872.499
921.713
971.883
1022.9
1074.79
1127.49
1180.9
1234.89
1289.36
1344.17
1399.18
1454.26
1509.24
1563.98
1618.28
1671.98
1724.87
1776.74
1827.35
1876.45
1923.73
1968.86
2011.42
2050.9
2086.33
2116.57
2142.43
2161.46
2171.89
2123.23
2003.61
1877.54
1747.34
1614.94
1482
1349.97
1220.18
1093.92
972.479
856.953
748.399
648.647
559.82
483.851
422.176
375.262
342.202
320.729
307.829
300.587
296.74
294.796
293.844
293.39
293.177
293.079
293.035
293.015
293.007
293.003
293.001
293
293
293
293
293
293
293
293.004
293.017
293.038
293.074
293.135
293.235
293.399
293.667
294.098
294.782
295.852
297.496
299.973
303.624
308.869
316.193
326.105
339.077
355.476
375.5
399.16
426.295
456.619
489.789
525.456
563.305
603.072
644.55
687.581
732.047
777.85
824.909
873.139
922.446
972.713
1023.83
1075.84
1128.66
1182.19
1236.32
1290.92
1345.86
1401.01
1456.22
1511.33
1566.18
1620.6
1674.39
1727.37
1779.3
1829.96
1879.08
1926.37
1971.46
2013.96
2053.36
2088.63
2118.76
2144.51
2163.43
2173.73
2110.55
1990.53
1864.2
1733.87
1601.46
1468.62
1336.81
1207.38
1081.6
960.762
845.924
738.2
639.491
551.904
477.331
417.125
371.626
339.791
319.256
306.993
300.141
296.514
294.685
293.792
293.365
293.166
293.074
293.033
293.014
293.006
293.003
293.001
293
293
293
293
293
293
293
293.004
293.017
293.038
293.074
293.135
293.235
293.399
293.667
294.098
294.782
295.852
297.496
299.975
303.627
308.873
316.2
326.117
339.097
355.506
375.544
399.221
426.377
456.726
489.925
525.624
563.509
603.317
644.842
687.924
732.446
778.312
825.439
873.744
923.13
973.483
1024.69
1076.8
1129.72
1183.36
1237.6
1292.31
1347.36
1402.62
1457.94
1513.15
1568.1
1622.6
1676.48
1729.51
1781.49
1832.18
1881.3
1928.57
1973.62
2016.05
2055.35
2090.49
2120.5
2146.1
2164.88
2174.99
2099.89
1979.43
1852.83
1722.38
1589.97
1457.25
1325.66
1196.53
1071.16
950.833
836.585
729.581
631.769
545.247
471.869
412.911
368.61
337.801
318.047
306.31
299.777
296.329
294.595
293.749
293.345
293.157
293.07
293.031
293.013
293.006
293.002
293.001
293
293
293
293
293
293
293
293.004
293.017
293.038
293.074
293.135
293.235
293.4
293.667
294.098
294.783
295.853
297.498
299.977
303.63
308.879
316.21
326.133
339.121
355.54
375.592
399.286
426.462
456.835
490.06
525.789
563.707
603.552
645.117
688.244
732.815
778.735
825.922
874.29
923.744
974.169
1025.46
1077.64
1130.65
1184.38
1238.71
1293.51
1348.65
1404
1459.4
1514.7
1569.72
1624.29
1678.21
1731.29
1783.29
1833.99
1883.1
1930.33
1975.33
2017.68
2056.91
2091.91
2121.8
2147.27
2165.9
2175.76
2091.1
1970.21
1843.36
1712.79
1580.37
1447.74
1316.32
1187.46
1062.44
942.554
828.807
722.413
625.36
539.737
467.361
409.448
366.142
336.181
317.066
305.757
299.483
296.18
294.523
293.715
293.329
293.149
293.067
293.029
293.013
293.005
293.002
293.001
293
293
293
293
293
293
293
293.004
293.017
293.038
293.075
293.135
293.235
293.4
293.668
294.099
294.783
295.853
297.499
299.979
303.634
308.886
316.221
326.149
339.144
355.574
375.638
399.349
426.543
456.936
490.185
525.94
563.887
603.763
645.362
688.527
733.14
779.105
826.34
874.76
924.27
974.753
1026.1
1078.35
1131.44
1185.23
1239.63
1294.5
1349.72
1405.14
1460.6
1515.96
1571.03
1625.65
1679.61
1732.71
1784.72
1835.41
1884.49
1931.68
1976.63
2018.92
2058.07
2092.98
2122.79
2148.24
2166.94
2176.98
2084.15
1962.76
1835.63
1704.94
1572.51
1439.95
1308.69
1180.05
1055.33
935.809
822.478
716.589
620.162
535.277
463.722
406.661
364.162
334.886
316.284
305.318
299.25
296.062
294.466
293.687
293.317
293.143
293.064
293.028
293.012
293.005
293.002
293.001
293
293
293
293
293
293
293
293.004
293.017
293.038
293.075
293.135
293.235
293.4
293.668
294.099
294.783
295.854
297.5
299.981
303.638
308.892
316.23
326.163
339.166
355.604
375.68
399.404
426.613
457.024
490.292
526.069
564.039
603.94
645.568
688.763
733.409
779.409
826.683
875.144
924.697
975.226
1026.62
1078.93
1132.06
1185.91
1240.36
1295.29
1350.56
1406.02
1461.54
1516.93
1572.04
1626.68
1680.66
1733.77
1785.77
1836.44
1885.5
1932.65
1977.54
2019.76
2058.82
2093.62
2123.35
2148.73
2167.4
2177.37
2078.49
1956.77
1829.45
1698.67
1566.25
1433.77
1302.64
1174.2
1049.72
930.496
817.5
712.017
616.09
531.79
460.885
404.495
362.627
333.884
315.681
304.979
299.071
295.971
294.421
293.666
293.307
293.139
293.062
293.027
293.012
293.005
293.002
293.001
293
293
293
293
293
293
293
293.004
293.017
293.038
293.075
293.135
293.235
293.4
293.668
294.099
294.784
295.855
297.502
299.983
303.641
308.897
316.238
326.175
339.183
355.629
375.713
399.447
426.669
457.094
490.377
526.169
564.157
604.078
645.726
688.945
733.614
779.641
826.943
875.434
925.018
975.578
1027.01
1079.35
1132.52
1186.41
1240.9
1295.86
1351.16
1406.66
1462.2
1517.63
1572.76
1627.41
1681.39
1734.49
1786.48
1837.13
1886.15
1933.25
1978.08
2020.22
2059.2
2093.91
2123.57
2148.91
2167.59
2177.61
2074.44
1952.33
1824.81
1693.95
1561.53
1429.11
1298.1
1169.81
1045.53
926.539
813.801
708.627
613.077
529.218
458.798
402.906
361.506
333.154
315.24
304.731
298.939
295.905
294.389
293.651
293.3
293.136
293.061
293.027
293.012
293.005
293.002
293.001
293
293
293
293
293
293
293
293.004
293.017
293.038
293.075
293.135
293.235
293.4
293.668
294.099
294.784
295.855
297.502
299.985
303.643
308.901
316.244
326.184
339.195
355.646
375.736
399.477
426.707
457.141
490.434
526.238
564.238
604.172
645.834
689.067
733.753
779.797
827.117
875.627
925.231
975.81
1027.26
1079.62
1132.81
1186.72
1241.24
1296.22
1351.54
1407.06
1462.62
1518.05
1573.19
1627.84
1681.82
1734.91
1786.88
1837.5
1886.48
1933.53
1978.29
2020.37
2059.28
2093.91
2123.52
2148.84
2167.56
2177.71
2071.76
1949.32
1821.62
1690.7
1558.3
1425.94
1295.02
1166.85
1042.72
923.889
811.334
706.375
611.083
527.521
457.427
401.868
360.776
332.681
314.956
304.57
298.854
295.862
294.368
293.641
293.295
293.134
293.06
293.026
293.011
293.005
293.002
293.001
293
293
293
293
293
293
293
293.004
293.017
293.038
293.075
293.135
293.235
293.4
293.668
294.099
294.784
295.856
297.503
299.985
303.644
308.902
316.246
326.188
339.201
355.654
375.748
399.492
426.726
457.165
490.463
526.272
564.278
604.218
645.887
689.127
733.821
779.874
827.202
875.722
925.335
975.924
1027.38
1079.75
1132.95
1186.87
1241.4
1296.39
1351.72
1407.25
1462.81
1518.25
1573.38
1628.03
1682
1735.08
1787.03
1837.62
1886.57
1933.58
1978.3
2020.33
2059.19
2093.76
2123.33
2148.65
2167.43
2177.74
2070.44
1947.74
1819.93
1688.98
1556.59
1424.28
1293.43
1165.34
1041.3
922.564
810.112
705.269
610.112
526.701
456.769
401.373
360.431
332.459
314.823
304.496
298.814
295.842
294.358
293.636
293.293
293.133
293.059
293.026
293.011
293.005
293.002
293.001
293
293
293
293
293
293
293
293.004
293.017
293.038
293.075
293.135
293.235
293.4
293.668
294.099
294.784
295.856
297.503
299.985
303.645
308.903
316.246
326.188
339.202
355.655
375.748
399.493
426.727
457.165
490.464
526.273
564.279
604.219
645.888
689.129
733.823
779.875
827.204
875.723
925.336
975.925
1027.38
1079.75
1132.95
1186.88
1241.4
1296.39
1351.72
1407.25
1462.81
1518.25
1573.38
1628.04
1682
1735.08
1787.03
1837.62
1886.57
1933.58
1978.3
2020.33
2059.19
2093.76
2123.33
2148.65
2167.43
2177.74
2070.43
1947.74
1819.93
1688.98
1556.59
1424.28
1293.43
1165.34
1041.3
922.562
810.109
705.267
610.109
526.699
456.767
401.372
360.43
332.458
314.823
304.496
298.814
295.842
294.358
293.636
293.293
293.133
293.059
293.026
293.011
293.005
293.002
293.001
293
293
293
293
293
293
293
293.004
293.017
293.038
293.075
293.135
293.235
293.4
293.668
294.099
294.784
295.856
297.502
299.985
303.644
308.901
316.244
326.184
339.196
355.647
375.738
399.48
426.71
457.144
490.437
526.241
564.241
604.175
645.838
689.071
733.757
779.802
827.121
875.632
925.235
975.815
1027.27
1079.63
1132.82
1186.73
1241.24
1296.23
1351.55
1407.07
1462.62
1518.06
1573.2
1627.85
1681.83
1734.92
1786.89
1837.5
1886.49
1933.53
1978.3
2020.38
2059.29
2093.92
2123.53
2148.85
2167.57
2177.72
2071.76
1949.31
1821.62
1690.69
1558.29
1425.93
1295.01
1166.84
1042.71
923.881
811.326
706.368
611.076
527.515
457.422
401.863
360.773
332.679
314.954
304.57
298.853
295.862
294.368
293.641
293.295
293.134
293.06
293.026
293.011
293.005
293.002
293.001
293
293
293
293
293
293
293
293.004
293.017
293.038
293.075
293.135
293.235
293.4
293.668
294.099
294.784
295.855
297.502
299.984
303.642
308.898
316.239
326.177
339.185
355.631
375.716
399.451
426.673
457.098
490.382
526.175
564.163
604.084
645.733
688.951
733.621
779.649
826.951
875.442
925.027
975.587
1027.02
1079.36
1132.53
1186.42
1240.91
1295.87
1351.17
1406.67
1462.21
1517.64
1572.77
1627.42
1681.4
1734.5
1786.49
1837.14
1886.16
1933.26
1978.09
2020.24
2059.22
2093.92
2123.59
2148.93
2167.61
2177.64
2074.44
1952.33
1824.8
1693.94
1561.52
1429.1
1298.09
1169.8
1045.52
926.524
813.787
708.614
613.065
529.206
458.788
402.899
361.5
333.15
315.238
304.73
298.938
295.905
294.389
293.651
293.3
293.136
293.061
293.027
293.012
293.005
293.002
293.001
293
293
293
293
293
293
293
293.004
293.017
293.038
293.075
293.135
293.235
293.4
293.668
294.099
294.784
295.854
297.501
299.982
303.639
308.893
316.232
326.165
339.169
355.608
375.684
399.409
426.619
457.031
490.299
526.076
564.047
603.949
645.577
688.773
733.418
779.42
826.693
875.155
924.709
975.237
1026.63
1078.94
1132.07
1185.92
1240.38
1295.3
1350.57
1406.04
1461.55
1516.95
1572.06
1626.7
1680.68
1733.78
1785.79
1836.45
1885.51
1932.66
1977.55
2019.78
2058.84
2093.64
2123.38
2148.76
2167.44
2177.41
2078.49
1956.76
1829.43
1698.65
1566.23
1433.75
1302.62
1174.17
1049.7
930.475
817.48
711.997
616.072
531.774
460.871
404.484
362.619
333.879
315.678
304.977
299.07
295.971
294.421
293.666
293.307
293.139
293.062
293.027
293.012
293.005
293.002
293.001
293
293
293
293
293
293
293
293.004
293.017
293.038
293.075
293.135
293.235
293.4
293.668
294.099
294.783
295.854
297.499
299.98
303.635
308.887
316.223
326.151
339.148
355.579
375.644
399.355
426.55
456.945
490.194
525.95
563.897
603.774
645.374
688.54
733.153
779.118
826.354
874.775
924.285
974.769
1026.12
1078.37
1131.45
1185.25
1239.65
1294.52
1349.74
1405.15
1460.62
1515.98
1571.05
1625.67
1679.63
1732.72
1784.74
1835.42
1884.51
1931.7
1976.65
2018.94
2058.09
2093
2122.82
2148.27
2166.99
2177.03
2084.13
1962.74
1835.61
1704.91
1572.48
1439.92
1308.66
1180.02
1055.3
935.781
822.451
716.564
620.139
535.256
463.704
406.647
364.152
334.88
316.281
305.316
299.249
296.062
294.465
293.687
293.317
293.143
293.064
293.028
293.012
293.005
293.002
293.001
293
293
293
293
293
293
293
293.004
293.017
293.038
293.074
293.135
293.235
293.4
293.667
294.098
294.783
295.853
297.498
299.978
303.631
308.881
316.213
326.136
339.125
355.546
375.598
399.294
426.471
456.845
490.071
525.801
563.72
603.566
645.131
688.259
732.831
778.752
825.938
874.307
923.762
974.187
1025.47
1077.66
1130.67
1184.4
1238.73
1293.53
1348.67
1404.02
1459.42
1514.72
1569.74
1624.31
1678.24
1731.31
1783.32
1834.01
1883.13
1930.36
1975.35
2017.71
2056.93
2091.94
2121.83
2147.3
2165.94
2175.81
2091.09
1970.19
1843.33
1712.75
1580.34
1447.7
1316.28
1187.42
1062.4
942.519
828.774
722.382
625.332
539.711
467.34
409.432
366.129
336.173
317.061
305.754
299.482
296.18
294.523
293.714
293.329
293.149
293.067
293.029
293.013
293.005
293.002
293.001
293
293
293
293
293
293
293
293.004
293.017
293.038
293.074
293.135
293.235
293.4
293.667
294.098
294.782
295.852
297.497
299.976
303.628
308.876
316.203
326.121
339.103
355.513
375.552
399.231
426.388
456.738
489.938
525.639
563.525
603.333
644.858
687.942
732.464
778.331
825.459
873.765
923.152
973.505
1024.72
1076.82
1129.75
1183.39
1237.62
1292.33
1347.39
1402.65
1457.96
1513.18
1568.13
1622.63
1676.5
1729.54
1781.52
1832.2
1881.33
1928.59
1973.65
2016.07
2055.37
2090.52
2120.53
2146.13
2164.91
2175.02
2099.85
1979.38
1852.78
1722.33
1589.92
1457.2
1325.61
1196.48
1071.11
950.79
836.544
729.543
631.735
545.217
471.844
412.892
368.596
337.792
318.041
306.307
299.775
296.328
294.595
293.749
293.345
293.157
293.07
293.031
293.013
293.006
293.002
293.001
293
293
293
293
293
293
293
293.004
293.017
293.038
293.074
293.135
293.235
293.4
293.667
294.098
294.782
295.852
297.496
299.974
303.626
308.871
316.196
326.109
339.083
355.483
375.509
399.171
426.307
456.633
489.805
525.473
563.322
603.09
644.569
687.602
732.068
777.873
824.932
873.164
922.471
972.739
1023.86
1075.86
1128.69
1182.22
1236.35
1290.95
1345.89
1401.04
1456.25
1511.36
1566.21
1620.63
1674.42
1727.4
1779.33
1829.99
1879.11
1926.39
1971.49
2013.99
2053.38
2088.65
2118.79
2144.54
2163.45
2173.75
2110.48
1990.46
1864.13
1733.81
1601.4
1468.56
1336.75
1207.32
1081.54
960.711
845.876
738.156
639.451
551.87
477.303
417.102
371.61
339.78
319.249
306.99
300.139
296.513
294.685
293.792
293.365
293.166
293.074
293.033
293.014
293.006
293.003
293.001
293
293
293
293
293
293
293
293.004
293.017
293.038
293.074
293.135
293.235
293.4
293.667
294.098
294.782
295.852
297.497
299.975
303.626
308.87
316.193
326.102
339.071
355.462
375.476
399.122
426.238
456.54
489.683
525.317
563.128
602.852
644.281
687.258
731.661
777.396
824.379
872.526
921.742
971.912
1022.93
1074.82
1127.52
1180.93
1234.93
1289.39
1344.2
1399.22
1454.29
1509.28
1564.01
1618.32
1672.01
1724.9
1776.77
1827.38
1876.48
1923.76
1968.89
2011.45
2050.93
2086.35
2116.6
2142.45
2161.49
2171.91
2123.15
2003.53
1877.45
1747.26
1614.86
1481.93
1349.9
1220.11
1093.86
972.419
856.898
748.347
648.601
559.78
483.818
422.151
375.243
342.19
320.721
307.825
300.585
296.739
294.795
293.844
293.389
293.177
293.079
293.035
293.015
293.007
293.003
293.001
293
293
293
293
293
293
293
293.004
293.017
293.038
293.074
293.135
293.235
293.4
293.668
294.099
294.783
295.853
297.498
299.976
303.627
308.872
316.195
326.104
339.07
355.456
375.461
399.094
426.193
456.472
489.587
525.188
562.96
602.639
644.016
686.933
731.27
776.929
823.827
871.881
920.995
971.055
1021.95
1073.71
1126.28
1179.54
1233.39
1287.7
1342.35
1397.21
1452.13
1506.96
1561.54
1615.71
1669.28
1722.06
1773.84
1824.39
1873.44
1920.71
1965.85
2008.45
2048
2083.55
2113.93
2139.88
2158.96
2169.38
2137.63
2018.42
1892.64
1762.62
1630.29
1497.28
1365.05
1234.91
1108.16
986.048
869.734
760.245
659.312
569.07
491.503
428.139
379.582
345.084
322.5
308.838
301.127
297.015
294.93
293.908
293.419
293.19
293.085
293.037
293.016
293.007
293.003
293.001
293.001
293
293
293
293
293
293
293.004
293.017
293.038
293.075
293.135
293.235
293.4
293.668
294.099
294.784
295.854
297.5
299.979
303.632
308.879
316.203
326.114
339.081
355.467
375.47
399.098
426.185
456.447
489.537
525.108
562.842
602.476
643.801
686.658
730.924
776.503
823.312
871.265
920.267
970.207
1020.97
1072.59
1125
1178.1
1231.77
1285.91
1340.38
1395.05
1449.79
1504.44
1558.85
1612.85
1666.27
1718.92
1770.58
1821.04
1870.04
1917.28
1962.44
2005.09
2044.72
2080.4
2110.89
2136.87
2155.76
2165.44
2153.31
2034.62
1909.33
1779.68
1647.56
1514.6
1382.23
1251.77
1124.5
1001.69
884.52
773.972
671.712
579.877
500.495
435.188
384.722
348.539
324.635
310.061
301.783
297.349
295.093
293.985
293.455
293.206
293.092
293.041
293.018
293.008
293.003
293.001
293.001
293
293
293
293
293
293
293.004
293.017
293.038
293.075
293.135
293.235
293.4
293.668
294.1
294.785
295.856
297.503
299.985
303.64
308.891
316.22
326.136
339.108
355.499
375.505
399.133
426.218
456.473
489.551
525.1
562.804
602.397
643.671
686.467
730.663
776.16
822.875
870.723
919.607
969.416
1020.03
1071.49
1123.74
1176.65
1230.14
1284.07
1338.34
1392.8
1447.32
1501.76
1555.97
1609.78
1663.02
1715.5
1767.03
1817.38
1866.32
1913.55
1958.76
2001.55
2041.42
2077.68
2108.75
2135.56
2155.68
2167.2
2167.06
2050.32
1926.46
1797.83
1666.36
1533.73
1401.4
1270.73
1142.99
1019.46
901.378
789.701
685.984
592.365
510.932
443.421
390.772
352.637
327.187
311.529
302.574
297.753
295.29
294.079
293.498
293.226
293.101
293.044
293.019
293.008
293.004
293.001
293.001
293
293
293
293
293
293
293.004
293.017
293.038
293.075
293.135
293.235
293.4
293.669
294.1
294.786
295.859
297.507
299.992
303.652
308.909
316.247
326.174
339.158
355.562
375.58
399.217
426.307
456.562
489.634
525.172
562.859
602.427
643.663
686.406
730.534
775.951
822.572
870.31
919.072
968.743
1019.21
1070.5
1122.55
1175.27
1228.55
1282.26
1336.29
1390.52
1444.8
1499
1552.97
1606.55
1659.58
1711.87
1763.23
1813.46
1862.31
1909.53
1954.81
1997.77
2037.98
2074.89
2106.81
2134.95
2157.24
2172.31
2178
2064.75
1943.53
1816.76
1686.53
1554.63
1422.6
1291.86
1163.72
1039.48
920.413
807.513
702.222
606.649
522.948
452.973
397.853
357.475
330.221
313.286
303.523
298.237
295.526
294.191
293.55
293.249
293.111
293.049
293.021
293.009
293.004
293.002
293.001
293
293
293
293
293
293
293.004
293.017
293.038
293.075
293.135
293.235
293.4
293.669
294.101
294.788
295.861
297.512
300.001
303.667
308.933
316.284
326.228
339.234
355.662
375.705
399.367
426.478
456.747
489.826
525.362
563.037
602.585
643.793
686.501
730.581
775.932
822.464
870.095
918.73
968.259
1018.57
1069.68
1121.54
1174.04
1227.09
1280.56
1334.33
1388.3
1442.31
1496.24
1549.94
1603.25
1656.03
1708.09
1759.25
1809.3
1858.04
1905.19
1950.48
1993.55
2033.99
2071.23
2104.01
2132.11
2155.41
2171.53
2178.19
2076.91
1960.56
1836.77
1708.38
1577.54
1446.01
1315.31
1186.82
1061.86
941.755
827.547
720.565
622.877
536.692
463.986
406.09
363.158
333.817
315.38
304.659
298.818
295.809
294.324
293.611
293.277
293.124
293.054
293.024
293.01
293.004
293.002
293.001
293
293
293
293
293
293
293.004
293.017
293.038
293.074
293.135
293.235
293.4
293.669
294.101
294.788
295.863
297.516
300.008
303.682
308.959
316.327
326.295
339.332
355.798
375.884
399.59
426.744
457.053
490.162
525.719
563.402
602.943
644.131
686.804
730.837
776.13
822.594
870.139
918.661
968.049
1018.19
1069.11
1120.77
1173.05
1225.85
1279.06
1332.56
1386.23
1439.95
1493.58
1546.98
1600
1652.48
1704.27
1755.17
1805.01
1853.56
1900.58
1945.78
1988.85
2029.36
2066.81
2099.91
2128.19
2151.84
2168.47
2175.95
2099.95
1984.09
1861.13
1733.52
1603.25
1472.01
1341.27
1212.39
1086.68
965.475
849.889
741.127
641.174
552.296
476.589
415.601
369.779
338.037
317.849
305.998
299.501
296.141
294.48
293.683
293.309
293.138
293.061
293.026
293.011
293.005
293.002
293.001
293
293
293
293
293
293
293.004
293.017
293.038
293.074
293.135
293.235
293.4
293.668
294.1
294.787
295.863
297.518
300.015
303.697
308.989
316.38
326.38
339.461
355.981
376.13
399.904
427.126
457.5
490.669
526.274
563.994
603.558
644.752
687.412
731.41
776.646
823.034
870.486
918.904
968.171
1018.17
1068.91
1120.35
1172.39
1224.94
1277.87
1331.08
1384.45
1437.85
1491.15
1544.22
1596.91
1649.08
1700.55
1751.17
1800.73
1849.05
1895.86
1940.91
1983.87
2024.33
2061.79
2095.14
2123.65
2147.49
2164.38
2172.52
2125.16
2009.9
1887.65
1760.7
1630.94
1499.98
1369.24
1240.04
1113.64
991.344
874.369
763.801
661.495
569.766
490.835
426.47
377.435
342.973
320.763
307.589
300.314
296.535
294.665
293.767
293.347
293.154
293.068
293.029
293.012
293.005
293.002
293.001
293
293
293
293
293
293
293.004
293.017
293.038
293.074
293.134
293.234
293.398
293.666
294.097
294.783
295.857
297.512
300.011
303.698
309.003
316.418
326.457
339.593
356.187
376.426
400.301
427.631
458.11
491.377
527.069
564.861
604.479
645.709
688.384
732.376
777.581
823.91
871.271
919.569
968.691
1018.53
1069.1
1120.35
1172.16
1224.45
1277.1
1330.01
1383.06
1436.13
1489.09
1541.82
1594.17
1645.99
1697.14
1747.44
1796.72
1844.76
1891.35
1936.21
1979.02
2019.38
2056.8
2090.2
2118.75
2142.63
2159.32
2166.5
2149.86
2035.35
1914.06
1788.05
1659.07
1528.65
1398.15
1268.83
1141.94
1018.74
900.477
788.189
683.569
588.933
506.62
438.627
386.065
348.559
324.056
309.373
301.215
296.967
294.865
293.857
293.387
293.172
293.075
293.032
293.014
293.006
293.002
293.001
293
293
293
293
293
293
293.004
293.016
293.038
293.073
293.133
293.232
293.395
293.661
294.09
294.774
295.846
297.499
299.998
303.692
309.014
316.463
326.559
339.774
356.47
376.831
400.844
428.317
458.94
492.342
528.156
566.052
605.755
647.047
689.759
733.762
778.952
825.237
872.526
920.72
969.705
1019.37
1069.74
1120.77
1172.36
1224.4
1276.78
1329.39
1382.13
1434.88
1487.52
1539.91
1591.92
1643.42
1694.24
1744.24
1793.23
1841.02
1887.39
1932.09
1974.8
2015.16
2052.69
2086.58
2115.77
2140.61
2158.92
2168.92
2167.86
2056.16
1937.1
1812.88
1685.3
1555.91
1426.08
1297.06
1170.07
1046.31
927.067
813.357
706.687
609.322
523.698
452.027
395.764
354.958
327.888
311.469
302.278
297.474
295.098
293.961
293.432
293.191
293.083
293.036
293.015
293.006
293.003
293.001
293
293
293
293
293
293
293.004
293.016
293.037
293.073
293.131
293.229
293.39
293.653
294.077
294.753
295.817
297.461
299.953
303.643
308.969
316.436
326.573
339.864
356.674
377.19
401.389
429.068
459.9
493.503
529.497
567.546
607.368
648.746
691.51
735.532
780.707
826.945
874.157
922.243
971.091
1020.59
1070.78
1121.6
1172.95
1224.74