/*--------------------------------*- C++ -*----------------------------------*\
  =========                 |
  \\      /  F ield         | OpenFOAM: The Open Source CFD Toolbox
   \\    /   O peration     | Website:  https://openfoam.org
    \\  /    A nd           | Version:  8
     \\/     M anipulation  |
\*---------------------------------------------------------------------------*/
FoamFile
{
    version     2.0;
    format      ascii;
    class       volVectorField;
    location    "440/fluid";
    object      U;
}
// * * * * * * * * * * * * * * * * * * * * * * * * * * * * * * * * * * * * * //

dimensions      [0 1 -1 0 0 0 0];

internalField   nonuniform List<vector> 
4000
(
(0.0999487 -0.00693732 0)
(0.0996693 -0.0206398 0)
(0.0992184 -0.0342299 0)
(0.0985957 -0.0477473 0)
(0.0977938 -0.0612078 0)
(0.0967961 -0.0746122 0)
(0.0955836 -0.0879516 0)
(0.0941379 -0.101209 0)
(0.0924447 -0.11436 0)
(0.0904956 -0.127377 0)
(0.0882921 -0.140237 0)
(0.0858484 -0.152919 0)
(0.0831952 -0.165415 0)
(0.0803846 -0.177717 0)
(0.0774904 -0.189843 0)
(0.0745887 -0.201862 0)
(0.0717352 -0.213831 0)
(0.0689554 -0.225788 0)
(0.0662359 -0.237745 0)
(0.0635229 -0.249673 0)
(0.0607321 -0.26151 0)
(0.0577661 -0.273167 0)
(0.0545333 -0.284539 0)
(0.0509663 -0.295512 0)
(0.0470328 -0.305969 0)
(0.0427205 -0.315858 0)
(0.0380297 -0.32512 0)
(0.0329722 -0.333708 0)
(0.0275687 -0.341585 0)
(0.0218455 -0.348727 0)
(0.015832 -0.355119 0)
(0.00955822 -0.360762 0)
(0.00305443 -0.365662 0)
(-0.00364683 -0.369839 0)
(-0.0105139 -0.373313 0)
(-0.0175199 -0.376116 0)
(-0.0246407 -0.378278 0)
(-0.031854 -0.379837 0)
(-0.0391386 -0.380831 0)
(-0.0464745 -0.381299 0)
(-0.0538427 -0.381282 0)
(-0.061225 -0.380819 0)
(-0.0686037 -0.37995 0)
(-0.0759615 -0.378714 0)
(-0.0832816 -0.377146 0)
(-0.090547 -0.375285 0)
(-0.0977408 -0.373164 0)
(-0.104845 -0.370819 0)
(-0.111843 -0.368283 0)
(-0.118714 -0.36559 0)
(-0.125439 -0.362776 0)
(-0.131997 -0.359875 0)
(-0.138365 -0.356928 0)
(-0.144518 -0.353976 0)
(-0.150431 -0.351065 0)
(-0.156071 -0.348251 0)
(-0.161407 -0.345599 0)
(-0.16638 -0.343184 0)
(-0.170962 -0.341087 0)
(-0.175174 -0.339432 0)
(-0.179138 -0.33846 0)
(-0.182496 -0.338561 0)
(-0.183256 -0.339808 0)
(-0.17984 -0.340715 0)
(-0.173812 -0.339936 0)
(-0.167143 -0.337454 0)
(-0.160128 -0.333546 0)
(-0.152727 -0.328366 0)
(-0.144967 -0.321989 0)
(-0.136925 -0.314465 0)
(-0.128685 -0.305846 0)
(-0.120333 -0.296183 0)
(-0.111961 -0.285541 0)
(-0.103663 -0.27399 0)
(-0.095572 -0.261611 0)
(-0.0879139 -0.248522 0)
(-0.08101 -0.234926 0)
(-0.0752385 -0.221107 0)
(-0.0709919 -0.207556 0)
(-0.0686059 -0.194847 0)
(-0.0681907 -0.183282 0)
(-0.069513 -0.172813 0)
(-0.0720789 -0.163127 0)
(-0.0753311 -0.153855 0)
(-0.0788054 -0.144716 0)
(-0.0821883 -0.135541 0)
(-0.0852887 -0.126222 0)
(-0.0880203 -0.116776 0)
(-0.0903735 -0.107261 0)
(-0.0923714 -0.0977124 0)
(-0.0940485 -0.0881632 0)
(-0.0954414 -0.0786415 0)
(-0.0965859 -0.0691694 0)
(-0.0975151 -0.0597613 0)
(-0.0982591 -0.0504234 0)
(-0.0988443 -0.041154 0)
(-0.0992935 -0.0319472 0)
(-0.0996248 -0.0227954 0)
(-0.0998505 -0.0136845 0)
(-0.0999815 -0.00457682 0)
(0.0999997 -0.00652372 0)
(0.0998042 -0.0195068 0)
(0.0994005 -0.0324058 0)
(0.0987661 -0.0452069 0)
(0.0979024 -0.0578915 0)
(0.0968056 -0.0704369 0)
(0.0954667 -0.082818 0)
(0.093878 -0.0950062 0)
(0.0920375 -0.106972 0)
(0.0899513 -0.118688 0)
(0.0876377 -0.130134 0)
(0.0851288 -0.141306 0)
(0.0824721 -0.152225 0)
(0.0797305 -0.162956 0)
(0.0769758 -0.17358 0)
(0.0742747 -0.184145 0)
(0.0716764 -0.194715 0)
(0.0691988 -0.205352 0)
(0.0668203 -0.21609 0)
(0.0644774 -0.226928 0)
(0.062075 -0.237819 0)
(0.059503 -0.248683 0)
(0.0566562 -0.259424 0)
(0.0534506 -0.26995 0)
(0.0498311 -0.280174 0)
(0.0457747 -0.289963 0)
(0.0412783 -0.299219 0)
(0.0363559 -0.307868 0)
(0.0310331 -0.31586 0)
(0.0253428 -0.323163 0)
(0.0193209 -0.32976 0)
(0.0130042 -0.335646 0)
(0.00642837 -0.340829 0)
(-0.000371734 -0.345321 0)
(-0.00736274 -0.349145 0)
(-0.0145139 -0.35233 0)
(-0.0217977 -0.354907 0)
(-0.0291897 -0.356912 0)
(-0.0366672 -0.358382 0)
(-0.0442092 -0.359352 0)
(-0.0517956 -0.359862 0)
(-0.0594075 -0.359948 0)
(-0.0670269 -0.359648 0)
(-0.0746371 -0.358998 0)
(-0.0822215 -0.358033 0)
(-0.0897639 -0.356788 0)
(-0.0972481 -0.355297 0)
(-0.104658 -0.353592 0)
(-0.111976 -0.351706 0)
(-0.119185 -0.349671 0)
(-0.126269 -0.34752 0)
(-0.133208 -0.345285 0)
(-0.139982 -0.343003 0)
(-0.146572 -0.340709 0)
(-0.152954 -0.338442 0)
(-0.159105 -0.336244 0)
(-0.164993 -0.334157 0)
(-0.170569 -0.332223 0)
(-0.175801 -0.33048 0)
(-0.180752 -0.328963 0)
(-0.185573 -0.327695 0)
(-0.189901 -0.32666 0)
(-0.19131 -0.32567 0)
(-0.187809 -0.32405 0)
(-0.181188 -0.32148 0)
(-0.173993 -0.317793 0)
(-0.166582 -0.312957 0)
(-0.158834 -0.306965 0)
(-0.150732 -0.299814 0)
(-0.142327 -0.29151 0)
(-0.133683 -0.282071 0)
(-0.124866 -0.271529 0)
(-0.115944 -0.259939 0)
(-0.106984 -0.247395 0)
(-0.0981179 -0.234055 0)
(-0.0896021 -0.220194 0)
(-0.081823 -0.206254 0)
(-0.0752524 -0.19286 0)
(-0.0703771 -0.180555 0)
(-0.0675493 -0.169619 0)
(-0.066815 -0.160095 0)
(-0.067864 -0.151718 0)
(-0.0701686 -0.144055 0)
(-0.0731856 -0.136699 0)
(-0.0764841 -0.129377 0)
(-0.0797779 -0.121956 0)
(-0.0829062 -0.114412 0)
(-0.0857786 -0.106681 0)
(-0.0883514 -0.0987162 0)
(-0.0906168 -0.0905444 0)
(-0.0925821 -0.0822061 0)
(-0.0942634 -0.0737415 0)
(-0.0956816 -0.0651858 0)
(-0.0968596 -0.0565673 0)
(-0.0978202 -0.0479075 0)
(-0.0985853 -0.0392208 0)
(-0.0991729 -0.0305176 0)
(-0.0995958 -0.0218078 0)
(-0.0998623 -0.013098 0)
(-0.099995 -0.00437624 0)
(0.0999799 -0.00625845 0)
(0.0997287 -0.0187019 0)
(0.0992366 -0.0310589 0)
(0.0984857 -0.0433131 0)
(0.0974798 -0.0554421 0)
(0.0962197 -0.0674222 0)
(0.0947047 -0.0792308 0)
(0.0929374 -0.0908451 0)
(0.0909269 -0.102244 0)
(0.0886918 -0.11341 0)
(0.0862619 -0.124333 0)
(0.0836806 -0.135013 0)
(0.0810041 -0.145464 0)
(0.0782968 -0.155715 0)
(0.0756239 -0.165814 0)
(0.0730463 -0.175829 0)
(0.0706106 -0.185831 0)
(0.0683338 -0.195885 0)
(0.0661926 -0.206032 0)
(0.064122 -0.216276 0)
(0.0620244 -0.22658 0)
(0.0597863 -0.236874 0)
(0.0572969 -0.247064 0)
(0.0544617 -0.25705 0)
(0.0512088 -0.26673 0)
(0.0474953 -0.276017 0)
(0.043308 -0.284834 0)
(0.0386556 -0.293117 0)
(0.0335614 -0.300818 0)
(0.0280574 -0.307903 0)
(0.0221799 -0.314351 0)
(0.0159668 -0.320152 0)
(0.00945524 -0.325306 0)
(0.00268128 -0.329824 0)
(-0.00431999 -0.333721 0)
(-0.0115163 -0.337021 0)
(-0.0188791 -0.339753 0)
(-0.0263824 -0.341945 0)
(-0.0340022 -0.343631 0)
(-0.0417162 -0.344845 0)
(-0.0495039 -0.34562 0)
(-0.0573464 -0.345993 0)
(-0.0652262 -0.345996 0)
(-0.0731266 -0.345664 0)
(-0.0810318 -0.345029 0)
(-0.0889261 -0.344123 0)
(-0.0967948 -0.342977 0)
(-0.104623 -0.341621 0)
(-0.112396 -0.340084 0)
(-0.1201 -0.338395 0)
(-0.127721 -0.336582 0)
(-0.135244 -0.334674 0)
(-0.142654 -0.332697 0)
(-0.149937 -0.330681 0)
(-0.157076 -0.328653 0)
(-0.164054 -0.326639 0)
(-0.17084 -0.324665 0)
(-0.177383 -0.322746 0)
(-0.183652 -0.320893 0)
(-0.189688 -0.31911 0)
(-0.195565 -0.317383 0)
(-0.200707 -0.315638 0)
(-0.202317 -0.313615 0)
(-0.198386 -0.310672 0)
(-0.191039 -0.306893 0)
(-0.183066 -0.302194 0)
(-0.174881 -0.296514 0)
(-0.166361 -0.289813 0)
(-0.157474 -0.282078 0)
(-0.148261 -0.273318 0)
(-0.138778 -0.263568 0)
(-0.129083 -0.252893 0)
(-0.119236 -0.241394 0)
(-0.109318 -0.229219 0)
(-0.0994986 -0.21658 0)
(-0.090103 -0.203775 0)
(-0.081591 -0.191184 0)
(-0.0745035 -0.179233 0)
(-0.0693485 -0.168313 0)
(-0.0664153 -0.158663 0)
(-0.065638 -0.15025 0)
(-0.0666242 -0.142785 0)
(-0.0688245 -0.135867 0)
(-0.071714 -0.129141 0)
(-0.0748894 -0.122372 0)
(-0.0780877 -0.115438 0)
(-0.0811638 -0.108297 0)
(-0.0840451 -0.100954 0)
(-0.0866917 -0.093429 0)
(-0.089083 -0.0857433 0)
(-0.0912126 -0.0779184 0)
(-0.0930834 -0.0699757 0)
(-0.0947035 -0.0619357 0)
(-0.0960839 -0.0538169 0)
(-0.0972373 -0.0456345 0)
(-0.098177 -0.0374008 0)
(-0.0989141 -0.0291271 0)
(-0.0994558 -0.0208272 0)
(-0.0998064 -0.0125137 0)
(-0.0999868 -0.00418216 0)
(0.0999842 -0.00592096 0)
(0.0997272 -0.0176934 0)
(0.0992155 -0.0293752 0)
(0.0984306 -0.040944 0)
(0.0973807 -0.0523723 0)
(0.0960722 -0.0636336 0)
(0.0945101 -0.0747029 0)
(0.0927024 -0.0855571 0)
(0.0906629 -0.0961756 0)
(0.0884133 -0.106543 0)
(0.0859849 -0.116651 0)
(0.0834199 -0.126505 0)
(0.0807726 -0.136124 0)
(0.078107 -0.145548 0)
(0.075492 -0.154835 0)
(0.0729924 -0.164055 0)
(0.0706556 -0.173286 0)
(0.0684972 -0.182596 0)
(0.0664918 -0.192028 0)
(0.0645711 -0.201591 0)
(0.0626339 -0.211254 0)
(0.0605627 -0.220954 0)
(0.0582427 -0.230603 0)
(0.0555767 -0.240105 0)
(0.0524942 -0.249363 0)
(0.0489523 -0.258288 0)
(0.044934 -0.2668 0)
(0.0404425 -0.274835 0)
(0.0354957 -0.282346 0)
(0.0301206 -0.289295 0)
(0.0243495 -0.295661 0)
(0.018217 -0.301432 0)
(0.0117579 -0.306607 0)
(0.00500609 -0.311191 0)
(-0.00200475 -0.3152 0)
(-0.00924298 -0.318652 0)
(-0.0166798 -0.321571 0)
(-0.0242892 -0.323984 0)
(-0.0320476 -0.32592 0)
(-0.0399335 -0.327409 0)
(-0.0479272 -0.328483 0)
(-0.0560106 -0.329173 0)
(-0.0641664 -0.32951 0)
(-0.0723786 -0.329523 0)
(-0.080632 -0.329243 0)
(-0.088912 -0.328697 0)
(-0.0972048 -0.327911 0)
(-0.105497 -0.326913 0)
(-0.113775 -0.325726 0)
(-0.122028 -0.324374 0)
(-0.130241 -0.322878 0)
(-0.138402 -0.321261 0)
(-0.146498 -0.319541 0)
(-0.154515 -0.317737 0)
(-0.162436 -0.315863 0)
(-0.170242 -0.313932 0)
(-0.177892 -0.311953 0)
(-0.185326 -0.309926 0)
(-0.192513 -0.307846 0)
(-0.199496 -0.305714 0)
(-0.20627 -0.303537 0)
(-0.211814 -0.301254 0)
(-0.213018 -0.298319 0)
(-0.208207 -0.29427 0)
(-0.200117 -0.289427 0)
(-0.191395 -0.283804 0)
(-0.182402 -0.277339 0)
(-0.173025 -0.26999 0)
(-0.163248 -0.261747 0)
(-0.153124 -0.252627 0)
(-0.142721 -0.242673 0)
(-0.132117 -0.231965 0)
(-0.121393 -0.220614 0)
(-0.110668 -0.20878 0)
(-0.100175 -0.196682 0)
(-0.0903014 -0.184615 0)
(-0.081541 -0.172944 0)
(-0.0744172 -0.162061 0)
(-0.0693626 -0.152298 0)
(-0.0665648 -0.143809 0)
(-0.0658746 -0.13649 0)
(-0.0668628 -0.130027 0)
(-0.0689907 -0.124034 0)
(-0.071767 -0.118192 0)
(-0.0748218 -0.112289 0)
(-0.0779127 -0.106216 0)
(-0.0808988 -0.0999258 0)
(-0.0837065 -0.0934088 0)
(-0.0863002 -0.0866736 0)
(-0.0886647 -0.0797389 0)
(-0.0907949 -0.0726273 0)
(-0.092691 -0.0653617 0)
(-0.0943562 -0.057964 0)
(-0.0957955 -0.0504541 0)
(-0.0970149 -0.0428492 0)
(-0.0980207 -0.0351645 0)
(-0.0988181 -0.0274149 0)
(-0.0994082 -0.0196186 0)
(-0.0997909 -0.0117938 0)
(-0.0999871 -0.00394268 0)
(0.0999813 -0.00558052 0)
(0.0997087 -0.0166747 0)
(0.0991705 -0.0276813 0)
(0.0983492 -0.038577 0)
(0.0972552 -0.0493345 0)
(0.0958976 -0.0599278 0)
(0.0942845 -0.0703334 0)
(0.092427 -0.0805303 0)
(0.0903422 -0.0905004 0)
(0.0880553 -0.100231 0)
(0.0856007 -0.109716 0)
(0.083024 -0.118962 0)
(0.080382 -0.127988 0)
(0.0777408 -0.136828 0)
(0.0751704 -0.145536 0)
(0.0727352 -0.154178 0)
(0.0704813 -0.162824 0)
(0.0684231 -0.171539 0)
(0.0665337 -0.180365 0)
(0.0647434 -0.189314 0)
(0.0629492 -0.198363 0)
(0.061031 -0.207455 0)
(0.0588703 -0.216515 0)
(0.0563662 -0.225454 0)
(0.0534438 -0.234185 0)
(0.0500564 -0.242624 0)
(0.0461834 -0.250701 0)
(0.0418244 -0.258354 0)
(0.0369942 -0.265537 0)
(0.031717 -0.272215 0)
(0.0260228 -0.278365 0)
(0.019944 -0.283974 0)
(0.0135136 -0.289039 0)
(0.00676435 -0.293563 0)
(-0.000271532 -0.297557 0)
(-0.00756327 -0.301036 0)
(-0.0150831 -0.304022 0)
(-0.0228063 -0.306537 0)
(-0.0307108 -0.308607 0)
(-0.0387761 -0.310259 0)
(-0.0469832 -0.31152 0)
(-0.0553141 -0.312418 0)
(-0.0637525 -0.31298 0)
(-0.0722831 -0.313231 0)
(-0.0808911 -0.313197 0)
(-0.0895629 -0.312902 0)
(-0.098285 -0.312369 0)
(-0.107045 -0.311618 0)
(-0.115829 -0.310671 0)
(-0.124625 -0.309544 0)
(-0.13342 -0.308255 0)
(-0.142201 -0.306818 0)
(-0.150951 -0.305246 0)
(-0.159655 -0.303548 0)
(-0.168293 -0.301732 0)
(-0.176837 -0.299802 0)
(-0.185236 -0.297757 0)
(-0.193423 -0.295589 0)
(-0.201382 -0.293288 0)
(-0.2092 -0.29086 0)
(-0.216755 -0.288319 0)
(-0.2222 -0.2856 0)
(-0.222195 -0.281924 0)
(-0.216198 -0.277067 0)
(-0.207548 -0.271509 0)
(-0.198272 -0.2653 0)
(-0.188592 -0.258375 0)
(-0.178441 -0.250698 0)
(-0.167849 -0.242272 0)
(-0.156896 -0.233126 0)
(-0.145675 -0.223318 0)
(-0.134282 -0.212937 0)
(-0.122822 -0.202105 0)
(-0.111451 -0.190983 0)
(-0.100453 -0.179787 0)
(-0.0902496 -0.168794 0)
(-0.0813455 -0.158323 0)
(-0.0742398 -0.14869 0)
(-0.0693047 -0.140131 0)
(-0.0666458 -0.132705 0)
(-0.0660431 -0.126257 0)
(-0.0670376 -0.12048 0)
(-0.069101 -0.115044 0)
(-0.0717727 -0.109689 0)
(-0.0747145 -0.10425 0)
(-0.0777066 -0.0986437 0)
(-0.0806198 -0.0928347 0)
(-0.0833829 -0.0868175 0)
(-0.0859577 -0.0806002 0)
(-0.0883245 -0.0741976 0)
(-0.0904737 -0.0676267 0)
(-0.0924016 -0.0609056 0)
(-0.0941075 -0.0540518 0)
(-0.0955925 -0.0470819 0)
(-0.0968593 -0.0400113 0)
(-0.0979106 -0.0328542 0)
(-0.0987486 -0.0256254 0)
(-0.0993716 -0.0183439 0)
(-0.0997771 -0.0110298 0)
(-0.0999858 -0.00368773 0)
(0.0999818 -0.00522429 0)
(0.0997054 -0.0156107 0)
(0.0991585 -0.0259134 0)
(0.098324 -0.0361082 0)
(0.0972139 -0.0461678 0)
(0.0958392 -0.0560663 0)
(0.0942099 -0.0657807 0)
(0.092339 -0.0752909 0)
(0.0902456 -0.08458 0)
(0.0879559 -0.0936364 0)
(0.0855057 -0.102456 0)
(0.082941 -0.111045 0)
(0.0803186 -0.119424 0)
(0.0777046 -0.127628 0)
(0.0751686 -0.135709 0)
(0.0727748 -0.143732 0)
(0.0705691 -0.151766 0)
(0.0685662 -0.159875 0)
(0.0667395 -0.168101 0)
(0.0650199 -0.176456 0)
(0.0633044 -0.184921 0)
(0.0614723 -0.193443 0)
(0.059404 -0.201952 0)
(0.0569967 -0.210366 0)
(0.0541727 -0.218603 0)
(0.0508825 -0.226586 0)
(0.0471021 -0.234246 0)
(0.0428278 -0.241527 0)
(0.0380714 -0.248384 0)
(0.0328542 -0.254783 0)
(0.0272038 -0.260701 0)
(0.0211504 -0.266126 0)
(0.0147252 -0.271052 0)
(0.00795908 -0.27548 0)
(0.000882483 -0.27942 0)
(-0.00647571 -0.282885 0)
(-0.0140893 -0.285892 0)
(-0.0219349 -0.288462 0)
(-0.0299912 -0.290616 0)
(-0.0382381 -0.292379 0)
(-0.0466575 -0.293774 0)
(-0.0552322 -0.294824 0)
(-0.0639464 -0.295553 0)
(-0.0727851 -0.295983 0)
(-0.0817341 -0.296135 0)
(-0.0907797 -0.296031 0)
(-0.0999085 -0.295688 0)
(-0.109107 -0.295123 0)
(-0.118362 -0.294353 0)
(-0.127659 -0.29339 0)
(-0.136984 -0.292246 0)
(-0.14632 -0.290931 0)
(-0.155648 -0.289453 0)
(-0.164948 -0.287815 0)
(-0.174194 -0.286019 0)
(-0.183349 -0.284065 0)
(-0.192348 -0.281945 0)
(-0.201113 -0.279646 0)
(-0.20965 -0.277153 0)
(-0.218068 -0.27447 0)
(-0.226055 -0.271594 0)
(-0.230912 -0.268457 0)
(-0.229467 -0.264189 0)
(-0.222437 -0.258887 0)
(-0.213366 -0.252972 0)
(-0.203635 -0.24648 0)
(-0.193354 -0.239359 0)
(-0.182521 -0.231591 0)
(-0.171216 -0.223192 0)
(-0.159551 -0.214205 0)
(-0.147641 -0.204695 0)
(-0.135604 -0.194755 0)
(-0.123567 -0.184504 0)
(-0.111724 -0.174095 0)
(-0.100401 -0.163731 0)
(-0.0900454 -0.153661 0)
(-0.0811613 -0.144165 0)
(-0.0742166 -0.13551 0)
(-0.0695191 -0.127878 0)
(-0.0670934 -0.121287 0)
(-0.0666549 -0.115565 0)
(-0.0677187 -0.110421 0)
(-0.0697666 -0.105557 0)
(-0.072365 -0.100745 0)
(-0.0752034 -0.0958409 0)
(-0.0780839 -0.0907712 0)
(-0.0808911 -0.0855052 0)
(-0.0835614 -0.0800366 0)
(-0.0860603 -0.0743721 0)
(-0.0883691 -0.0685243 0)
(-0.0904774 -0.0625084 0)
(-0.0923795 -0.0563406 0)
(-0.0940723 -0.0500372 0)
(-0.0955541 -0.043614 0)
(-0.0968244 -0.0370858 0)
(-0.0978835 -0.0304668 0)
(-0.0987308 -0.0237722 0)
(-0.0993624 -0.0170218 0)
(-0.0997741 -0.0102365 0)
(-0.0999858 -0.00342287 0)
(0.0999813 -0.00486533 0)
(0.0997013 -0.0145383 0)
(0.099148 -0.0241328 0)
(0.0983044 -0.0336258 0)
(0.0971836 -0.042991 0)
(0.0957973 -0.0522038 0)
(0.0941567 -0.0612426 0)
(0.0922759 -0.0700887 0)
(0.090175 -0.0787268 0)
(0.0878817 -0.0871465 0)
(0.0854325 -0.0953447 0)
(0.0828743 -0.103328 0)
(0.0802647 -0.111115 0)
(0.0776702 -0.11874 0)
(0.0751605 -0.126251 0)
(0.0727999 -0.133709 0)
(0.0706342 -0.141177 0)
(0.0686776 -0.148717 0)
(0.0669034 -0.156367 0)
(0.065242 -0.164142 0)
(0.0635898 -0.172023 0)
(0.0618251 -0.179967 0)
(0.0598271 -0.187909 0)
(0.0574909 -0.195774 0)
(0.054737 -0.203488 0)
(0.0515135 -0.210978 0)
(0.0477941 -0.218182 0)
(0.0435729 -0.225046 0)
(0.0388595 -0.231528 0)
(0.0336734 -0.237597 0)
(0.02804 -0.243229 0)
(0.0219876 -0.248412 0)
(0.0155456 -0.253139 0)
(0.00874308 -0.257411 0)
(0.00160863 -0.261235 0)
(-0.0058301 -0.264622 0)
(-0.0135478 -0.267586 0)
(-0.021522 -0.270146 0)
(-0.029732 -0.272319 0)
(-0.0381589 -0.274125 0)
(-0.0467847 -0.275586 0)
(-0.0555931 -0.276721 0)
(-0.0645684 -0.277551 0)
(-0.0736958 -0.278093 0)
(-0.082961 -0.278366 0)
(-0.0923498 -0.278387 0)
(-0.101848 -0.278171 0)
(-0.111442 -0.277731 0)
(-0.121115 -0.277078 0)
(-0.130853 -0.276223 0)
(-0.140636 -0.275174 0)
(-0.150446 -0.273936 0)
(-0.160259 -0.272514 0)
(-0.170048 -0.270907 0)
(-0.179781 -0.269115 0)
(-0.18941 -0.267133 0)
(-0.198855 -0.264948 0)
(-0.20803 -0.262546 0)
(-0.216957 -0.259916 0)
(-0.225753 -0.257038 0)
(-0.233908 -0.253888 0)
(-0.238 -0.250438 0)
(-0.235188 -0.245909 0)
(-0.227329 -0.240516 0)
(-0.217891 -0.234522 0)
(-0.207736 -0.227973 0)
(-0.196916 -0.220857 0)
(-0.185493 -0.213184 0)
(-0.173591 -0.204986 0)
(-0.161345 -0.196315 0)
(-0.148889 -0.187241 0)
(-0.136357 -0.177857 0)
(-0.123895 -0.168275 0)
(-0.111727 -0.158642 0)
(-0.100211 -0.149144 0)
(-0.0898113 -0.140005 0)
(-0.08102 -0.13147 0)
(-0.0742697 -0.123757 0)
(-0.0698077 -0.116995 0)
(-0.0675903 -0.111157 0)
(-0.0672855 -0.106058 0)
(-0.0683967 -0.101429 0)
(-0.0704215 -0.0970098 0)
(-0.0729524 -0.0926107 0)
(-0.0757026 -0.0881156 0)
(-0.078491 -0.0834648 0)
(-0.0812119 -0.078634 0)
(-0.0838061 -0.0736187 0)
(-0.086241 -0.0684242 0)
(-0.0884977 -0.063061 0)
(-0.0905651 -0.0575417 0)
(-0.0924364 -0.05188 0)
(-0.0941068 -0.0460899 0)
(-0.0955734 -0.0401853 0)
(-0.0968341 -0.0341794 0)
(-0.0978877 -0.0280855 0)
(-0.0987322 -0.0219179 0)
(-0.0993627 -0.0156958 0)
(-0.099774 -0.0094398 0)
(-0.0999858 -0.00315671 0)
(0.0999814 -0.00450318 0)
(0.0997005 -0.0134565 0)
(0.0991454 -0.0223373 0)
(0.0982992 -0.0311234 0)
(0.0971752 -0.03979 0)
(0.0957861 -0.0483139 0)
(0.0941433 -0.0566747 0)
(0.0922619 -0.0648552 0)
(0.0901624 -0.0728411 0)
(0.0878731 -0.0806231 0)
(0.0854307 -0.0881985 0)
(0.0828827 -0.0955739 0)
(0.0802865 -0.102767 0)
(0.0777086 -0.109811 0)
(0.0752187 -0.116751 0)
(0.0728808 -0.123642 0)
(0.070741 -0.130548 0)
(0.0688135 -0.137523 0)
(0.0670716 -0.144605 0)
(0.0654459 -0.151809 0)
(0.0638327 -0.15912 0)
(0.0621099 -0.166495 0)
(0.0601555 -0.173878 0)
(0.0578636 -0.181199 0)
(0.0551528 -0.188389 0)
(0.0519696 -0.195383 0)
(0.0482857 -0.20212 0)
(0.0440935 -0.208553 0)
(0.0394004 -0.214642 0)
(0.0342239 -0.220356 0)
(0.0285876 -0.225674 0)
(0.0225182 -0.230584 0)
(0.0160434 -0.235078 0)
(0.00919101 -0.239156 0)
(0.00198869 -0.242824 0)
(-0.00553694 -0.246089 0)
(-0.0133616 -0.248966 0)
(-0.0214635 -0.251467 0)
(-0.0298228 -0.25361 0)
(-0.0384211 -0.255412 0)
(-0.0472408 -0.256889 0)
(-0.0562656 -0.258059 0)
(-0.0654801 -0.258939 0)
(-0.0748691 -0.259545 0)
(-0.0844178 -0.25989 0)
(-0.0941114 -0.25999 0)
(-0.103935 -0.259856 0)
(-0.113872 -0.259497 0)
(-0.123905 -0.258925 0)
(-0.134017 -0.258144 0)
(-0.144186 -0.257162 0)
(-0.154388 -0.255981 0)
(-0.164595 -0.254602 0)
(-0.174775 -0.253027 0)
(-0.184886 -0.25125 0)
(-0.194872 -0.249266 0)
(-0.204636 -0.247064 0)
(-0.214098 -0.244625 0)
(-0.223253 -0.241937 0)
(-0.232181 -0.238971 0)
(-0.240271 -0.235673 0)
(-0.243759 -0.232026 0)
(-0.239948 -0.22743 0)
(-0.231295 -0.222117 0)
(-0.221303 -0.216206 0)
(-0.210664 -0.209756 0)
(-0.199362 -0.202796 0)
(-0.187458 -0.195358 0)
(-0.175089 -0.187486 0)
(-0.162399 -0.179236 0)
(-0.149535 -0.170678 0)
(-0.136641 -0.1619 0)
(-0.12388 -0.153008 0)
(-0.111505 -0.144136 0)
(-0.0999003 -0.135455 0)
(-0.0895362 -0.127165 0)
(-0.080895 -0.119478 0)
(-0.0743744 -0.112576 0)
(-0.0701658 -0.106551 0)
(-0.0681665 -0.101352 0)
(-0.0680049 -0.0967945 0)
(-0.0691761 -0.0926299 0)
(-0.0711922 -0.0886312 0)
(-0.0736683 -0.0846352 0)
(-0.076339 -0.0805437 0)
(-0.0790386 -0.0763067 0)
(-0.0816711 -0.0719039 0)
(-0.084183 -0.0673315 0)
(-0.086544 -0.0625942 0)
(-0.0887364 -0.057701 0)
(-0.0907492 -0.052663 0)
(-0.092575 -0.047492 0)
(-0.0942084 -0.0422007 0)
(-0.0956455 -0.0368016 0)
(-0.0968831 -0.0313069 0)
(-0.097919 -0.0257287 0)
(-0.0987505 -0.0200807 0)
(-0.0993717 -0.014381 0)
(-0.0997773 -0.00864939 0)
(-0.099986 -0.00289258 0)
(0.0999813 -0.00414074 0)
(0.0997002 -0.0123738 0)
(0.0991445 -0.0205403 0)
(0.0982976 -0.0286198 0)
(0.097173 -0.0365893 0)
(0.0957835 -0.044427 0)
(0.094141 -0.0521143 0)
(0.0922609 -0.0596353 0)
(0.090164 -0.066977 0)
(0.0878789 -0.0741308 0)
(0.0854426 -0.0810947 0)
(0.0829027 -0.0878749 0)
(0.0803169 -0.0944884 0)
(0.0777517 -0.100965 0)
(0.0752767 -0.107346 0)
(0.0729561 -0.113685 0)
(0.0708357 -0.120039 0)
(0.0689298 -0.126458 0)
(0.0672118 -0.132979 0)
(0.065612 -0.139616 0)
(0.0640263 -0.146355 0)
(0.0623321 -0.153159 0)
(0.0604068 -0.159976 0)
(0.0581431 -0.166743 0)
(0.0554586 -0.173396 0)
(0.0522981 -0.179876 0)
(0.0486318 -0.186128 0)
(0.0444505 -0.192107 0)
(0.0397601 -0.197777 0)
(0.0345765 -0.203109 0)
(0.0289222 -0.208083 0)
(0.0228226 -0.212686 0)
(0.0163044 -0.216912 0)
(0.00939437 -0.220759 0)
(0.00211925 -0.224231 0)
(-0.00549523 -0.227336 0)
(-0.0134255 -0.230082 0)
(-0.0216506 -0.232484 0)
(-0.0301509 -0.234554 0)
(-0.0389083 -0.236307 0)
(-0.0479056 -0.237757 0)
(-0.0571263 -0.23892 0)
(-0.0665546 -0.239809 0)
(-0.0761751 -0.240437 0)
(-0.0859723 -0.240817 0)
(-0.0959303 -0.240959 0)
(-0.106033 -0.240872 0)
(-0.116262 -0.240566 0)
(-0.126599 -0.240046 0)
(-0.137022 -0.239318 0)
(-0.147509 -0.238384 0)
(-0.158031 -0.237248 0)
(-0.168557 -0.235908 0)
(-0.179048 -0.234364 0)
(-0.189457 -0.232612 0)
(-0.199716 -0.230645 0)
(-0.209714 -0.228453 0)
(-0.219359 -0.226022 0)
(-0.228641 -0.223338 0)
(-0.237577 -0.220393 0)
(-0.245371 -0.217131 0)
(-0.24823 -0.213454 0)
(-0.243625 -0.20886 0)
(-0.234328 -0.203659 0)
(-0.223827 -0.197934 0)
(-0.212744 -0.191728 0)
(-0.201028 -0.185074 0)
(-0.188732 -0.178011 0)
(-0.175993 -0.170586 0)
(-0.162963 -0.162856 0)
(-0.149794 -0.15489 0)
(-0.136638 -0.14677 0)
(-0.123673 -0.138596 0)
(-0.111175 -0.130491 0)
(-0.0995484 -0.12261 0)
(-0.0892679 -0.115133 0)
(-0.0808013 -0.108243 0)
(-0.0745126 -0.102091 0)
(-0.0705433 -0.0967368 0)
(-0.0687405 -0.0921125 0)
(-0.0687033 -0.088037 0)
(-0.0699242 -0.0842858 0)
(-0.0719308 -0.0806619 0)
(-0.0743587 -0.0770271 0)
(-0.0769605 -0.0733001 0)
(-0.0795831 -0.0694397 0)
(-0.0821383 -0.0654298 0)
(-0.0845767 -0.0612673 0)
(-0.0868703 -0.0569565 0)
(-0.0890021 -0.0525051 0)
(-0.0909614 -0.0479226 0)
(-0.0927407 -0.0432193 0)
(-0.0943344 -0.0384063 0)
(-0.0957379 -0.0334946 0)
(-0.0969479 -0.0284952 0)
(-0.0979616 -0.0234189 0)
(-0.0987758 -0.0182783 0)
(-0.0993844 -0.0130902 0)
(-0.0997817 -0.0078732 0)
(-0.0999863 -0.00263316 0)
(0.0999813 -0.00377831 0)
(0.0997005 -0.011291 0)
(0.0991454 -0.0187433 0)
(0.0982993 -0.0261164 0)
(0.0971759 -0.0333892 0)
(0.0957881 -0.0405416 0)
(0.0941479 -0.0475566 0)
(0.0922708 -0.0544197 0)
(0.090178 -0.061119 0)
(0.0878979 -0.0676469 0)
(0.0854679 -0.0740015 0)
(0.0829354 -0.0801887 0)
(0.0803582 -0.0862244 0)
(0.0778027 -0.0921356 0)
(0.0753386 -0.0979613 0)
(0.0730299 -0.10375 0)
(0.0709226 -0.109553 0)
(0.069031 -0.115419 0)
(0.0673283 -0.12138 0)
(0.065745 -0.127451 0)
(0.0641766 -0.133618 0)
(0.0625 -0.13985 0)
(0.0605917 -0.146098 0)
(0.0583437 -0.152306 0)
(0.0556722 -0.158415 0)
(0.052521 -0.164372 0)
(0.048859 -0.170126 0)
(0.0446757 -0.175637 0)
(0.039976 -0.18087 0)
(0.0347748 -0.185799 0)
(0.0290936 -0.190405 0)
(0.0229567 -0.194677 0)
(0.0163899 -0.198607 0)
(0.00941935 -0.202194 0)
(0.00207097 -0.205439 0)
(-0.00563014 -0.20835 0)
(-0.013661 -0.210934 0)
(-0.0220009 -0.213202 0)
(-0.0306307 -0.215166 0)
(-0.0395322 -0.216837 0)
(-0.0486882 -0.218228 0)
(-0.058082 -0.219351 0)
(-0.0676974 -0.220218 0)
(-0.0775184 -0.220839 0)
(-0.0875285 -0.221225 0)
(-0.0977107 -0.221385 0)
(-0.108047 -0.221324 0)
(-0.118519 -0.221051 0)
(-0.129104 -0.22057 0)
(-0.13978 -0.219883 0)
(-0.150519 -0.218993 0)
(-0.161291 -0.217901 0)
(-0.172061 -0.216605 0)
(-0.182786 -0.215104 0)
(-0.193413 -0.213393 0)
(-0.203863 -0.211468 0)
(-0.214021 -0.209318 0)
(-0.2238 -0.206938 0)
(-0.233203 -0.20433 0)
(-0.242193 -0.201507 0)
(-0.249624 -0.198453 0)
(-0.251719 -0.194862 0)
(-0.24631 -0.190344 0)
(-0.23653 -0.185306 0)
(-0.225647 -0.179841 0)
(-0.214205 -0.173969 0)
(-0.202148 -0.167715 0)
(-0.189532 -0.161114 0)
(-0.176499 -0.154212 0)
(-0.163204 -0.147063 0)
(-0.149805 -0.139734 0)
(-0.136456 -0.132299 0)
(-0.12335 -0.12485 0)
(-0.110786 -0.1175 0)
(-0.0991806 -0.110389 0)
(-0.08901 -0.103677 0)
(-0.0807276 -0.0975235 0)
(-0.0746658 -0.0920528 0)
(-0.0709213 -0.0873026 0)
(-0.0692995 -0.0831948 0)
(-0.0693761 -0.0795578 0)
(-0.0706436 -0.0761905 0)
(-0.0726437 -0.0729219 0)
(-0.0750304 -0.0696346 0)
(-0.0775715 -0.0662604 0)
(-0.080125 -0.0627653 0)
(-0.0826095 -0.059136 0)
(-0.0849795 -0.0553702 0)
(-0.0872089 -0.0514718 0)
(-0.0892819 -0.0474475 0)
(-0.0911882 -0.0433055 0)
(-0.0929204 -0.039055 0)
(-0.0944729 -0.0347056 0)
(-0.095841 -0.0302672 0)
(-0.097021 -0.0257495 0)
(-0.0980101 -0.0211623 0)
(-0.0988048 -0.0165168 0)
(-0.0993989 -0.0118284 0)
(-0.0997869 -0.00711431 0)
(-0.0999866 -0.00237949 0)
(0.0999814 -0.00341647 0)
(0.099701 -0.0102099 0)
(0.0991467 -0.016949 0)
(0.0983019 -0.0236169 0)
(0.0971802 -0.0301941 0)
(0.0957945 -0.0366628 0)
(0.094157 -0.0430075 0)
(0.092283 -0.0492148 0)
(0.090194 -0.0552743 0)
(0.0879184 -0.061179 0)
(0.0854935 -0.0669275 0)
(0.0829668 -0.072525 0)
(0.0803961 -0.077986 0)
(0.0778477 -0.0833352 0)
(0.0753914 -0.088608 0)
(0.0730913 -0.0938482 0)
(0.0709931 -0.0991033 0)
(0.0691112 -0.104417 0)
(0.0674189 -0.109819 0)
(0.0658463 -0.115322 0)
(0.0642886 -0.120916 0)
(0.0626221 -0.126571 0)
(0.0607228 -0.132245 0)
(0.0584816 -0.137887 0)
(0.0558141 -0.143443 0)
(0.052663 -0.148865 0)
(0.0489965 -0.154108 0)
(0.0448031 -0.159135 0)
(0.0400867 -0.163913 0)
(0.0348617 -0.16842 0)
(0.0291485 -0.172639 0)
(0.0229709 -0.176556 0)
(0.016354 -0.180167 0)
(0.00932318 -0.183468 0)
(0.00190406 -0.186461 0)
(-0.00587878 -0.189152 0)
(-0.0140027 -0.191547 0)
(-0.0224473 -0.193654 0)
(-0.0311934 -0.195484 0)
(-0.0402229 -0.197047 0)
(-0.0495184 -0.198353 0)
(-0.0590627 -0.199412 0)
(-0.0688394 -0.200233 0)
(-0.0788314 -0.200827 0)
(-0.0890215 -0.201201 0)
(-0.0993915 -0.201361 0)
(-0.109922 -0.201315 0)
(-0.120593 -0.201066 0)
(-0.13138 -0.200618 0)
(-0.142258 -0.199973 0)
(-0.153197 -0.199133 0)
(-0.164165 -0.198098 0)
(-0.175122 -0.196867 0)
(-0.186024 -0.195437 0)
(-0.196813 -0.193807 0)
(-0.207405 -0.191971 0)
(-0.217685 -0.189924 0)
(-0.227586 -0.187663 0)
(-0.23715 -0.185199 0)
(-0.246279 -0.182556 0)
(-0.253227 -0.179739 0)
(-0.25428 -0.176229 0)
(-0.248011 -0.17189 0)
(-0.237938 -0.167108 0)
(-0.226844 -0.16198 0)
(-0.215157 -0.156512 0)
(-0.202846 -0.150722 0)
(-0.189987 -0.144641 0)
(-0.176729 -0.138312 0)
(-0.163234 -0.131785 0)
(-0.149662 -0.12512 0)
(-0.136174 -0.118386 0)
(-0.122975 -0.111665 0)
(-0.110383 -0.10506 0)
(-0.0988243 -0.0986956 0)
(-0.0887744 -0.0927145 0)
(-0.0806727 -0.0872549 0)
(-0.0748225 -0.0824181 0)
(-0.0712812 -0.0782245 0)
(-0.069819 -0.0745919 0)
(-0.0699941 -0.0713608 0)
(-0.0713011 -0.0683529 0)
(-0.0732952 -0.0654208 0)
(-0.075646 -0.0624655 0)
(-0.0781346 -0.05943 0)
(-0.0806281 -0.0562862 0)
(-0.0830507 -0.0530235 0)
(-0.0853601 -0.0496402 0)
(-0.0875319 -0.0461397 0)
(-0.0895513 -0.042528 0)
(-0.0914086 -0.0388123 0)
(-0.0930967 -0.0350004 0)
(-0.0946098 -0.0311008 0)
(-0.0959436 -0.0271221 0)
(-0.0970944 -0.0230728 0)
(-0.098059 -0.0189617 0)
(-0.0988342 -0.0147986 0)
(-0.0994137 -0.0105976 0)
(-0.0997921 -0.006374 0)
(-0.099987 -0.00213201 0)
(0.0999814 -0.00305526 0)
(0.0997015 -0.00913062 0)
(0.0991482 -0.0151576 0)
(0.0983048 -0.0211212 0)
(0.0971849 -0.027004 0)
(0.0958014 -0.03279 0)
(0.0941664 -0.0384653 0)
(0.0922955 -0.0440181 0)
(0.0902098 -0.0494388 0)
(0.0879379 -0.0547215 0)
(0.0855172 -0.0598648 0)
(0.082995 -0.0648735 0)
(0.0804291 -0.0697606 0)
(0.0778858 -0.0745485 0)
(0.0754349 -0.0792688 0)
(0.0731404 -0.0839609 0)
(0.0710481 -0.0886676 0)
(0.0691723 -0.0934279 0)
(0.0674863 -0.0982697 0)
(0.0659197 -0.103204 0)
(0.0643677 -0.108221 0)
(0.0627059 -0.113297 0)
(0.0608097 -0.118391 0)
(0.0585694 -0.123459 0)
(0.0559 -0.128455 0)
(0.0527433 -0.133332 0)
(0.0490669 -0.138053 0)
(0.0448585 -0.142582 0)
(0.0401216 -0.146892 0)
(0.0348697 -0.150961 0)
(0.0291227 -0.154774 0)
(0.0229039 -0.158319 0)
(0.0162378 -0.161591 0)
(0.0091497 -0.164587 0)
(0.0016646 -0.167308 0)
(-0.00619315 -0.169757 0)
(-0.0144012 -0.171941 0)
(-0.0229391 -0.173867 0)
(-0.0317878 -0.175543 0)
(-0.0409291 -0.176977 0)
(-0.0503451 -0.178178 0)
(-0.0600185 -0.179155 0)
(-0.0699322 -0.179915 0)
(-0.0800685 -0.180466 0)
(-0.0904092 -0.180814 0)
(-0.100935 -0.180966 0)
(-0.111626 -0.180926 0)
(-0.122459 -0.180697 0)
(-0.13341 -0.180282 0)
(-0.14445 -0.179684 0)
(-0.15555 -0.178902 0)
(-0.166673 -0.177938 0)
(-0.177778 -0.176789 0)
(-0.188818 -0.175454 0)
(-0.199734 -0.173932 0)
(-0.210436 -0.172219 0)
(-0.220811 -0.170311 0)
(-0.230807 -0.168206 0)
(-0.240491 -0.165913 0)
(-0.249683 -0.163447 0)
(-0.256067 -0.160829 0)
(-0.256088 -0.1575 0)
(-0.24911 -0.153461 0)
(-0.238842 -0.149043 0)
(-0.227614 -0.14433 0)
(-0.215751 -0.13933 0)
(-0.203248 -0.134057 0)
(-0.190204 -0.128541 0)
(-0.176776 -0.12282 0)
(-0.16313 -0.116941 0)
(-0.149431 -0.110958 0)
(-0.135843 -0.104931 0)
(-0.122584 -0.0989341 0)
(-0.109987 -0.0930598 0)
(-0.0984892 -0.0874196 0)
(-0.0885616 -0.0821377 0)
(-0.0806308 -0.0773335 0)
(-0.0749735 -0.0730892 0)
(-0.0716131 -0.0694128 0)
(-0.0702906 -0.0662225 0)
(-0.0705511 -0.063373 0)
(-0.0718922 -0.0607081 0)
(-0.073881 -0.0581017 0)
(-0.0762011 -0.0554701 0)
(-0.0786443 -0.052766 0)
(-0.0810856 -0.0499662 0)
(-0.083454 -0.047062 0)
(-0.0857099 -0.0440524 0)
(-0.0878305 -0.0409404 0)
(-0.0898018 -0.0377311 0)
(-0.0916146 -0.0344308 0)
(-0.0932622 -0.0310463 0)
(-0.0947391 -0.027585 0)
(-0.0960409 -0.0240544 0)
(-0.0971641 -0.0204618 0)
(-0.0981056 -0.016815 0)