/*--------------------------------*- C++ -*----------------------------------*\
  =========                 |
  \\      /  F ield         | OpenFOAM: The Open Source CFD Toolbox
   \\    /   O peration     | Website:  https://openfoam.org
    \\  /    A nd           | Version:  8
     \\/     M anipulation  |
\*---------------------------------------------------------------------------*/
FoamFile
{
    version     2.0;
    format      ascii;
    class       volScalarField;
    location    "140/fluid";
    object      CH4;
}
// * * * * * * * * * * * * * * * * * * * * * * * * * * * * * * * * * * * * * //

dimensions      [0 0 0 0 0 0 0];

internalField   nonuniform List<scalar> 
4000
(
0.999997
0.999987
0.99997
0.999941
0.999894
0.999816
0.99969
0.999486
0.999159
0.998643
0.997838
0.996604
0.994745
0.992005
0.988064
0.982552
0.975074
0.965254
0.952793
0.937506
0.919352
0.898433
0.874965
0.849248
0.82163
0.792476
0.762147
0.730986
0.699306
0.667392
0.635494
0.60383
0.572583
0.54191
0.511936
0.482763
0.45447
0.427115
0.400742
0.37538
0.351044
0.327739
0.305459
0.284194
0.263926
0.244632
0.226288
0.208866
0.192336
0.176666
0.161826
0.147783
0.134505
0.12196
0.110118
0.0989482
0.0884218
0.0785113
0.0691904
0.0604349
0.0522224
0.0445331
0.0373498
0.0306726
0.0245628
0.0188415
0.0136149
0.00889783
0.00472503
0.00255886
0.00180386
0.00125193
0.000853395
0.000569839
0.000371679
0.000236156
0.000145858
8.76229e-05
5.16976e-05
3.11362e-05
2.1226e-05
1.60587e-05
1.18782e-05
8.29208e-06
5.38888e-06
3.22716e-06
1.77459e-06
9.0091e-07
4.30001e-07
1.97375e-07
8.80783e-08
3.85113e-08
1.65885e-08
7.06279e-09
2.97578e-09
1.238e-09
5.03828e-10
1.95105e-10
6.57422e-11
1.15763e-11
0.999997
0.999987
0.999969
0.99994
0.999892
0.999813
0.999684
0.999475
0.999142
0.998614
0.997793
0.996535
0.994645
0.991866
0.987881
0.982322
0.9748
0.964943
0.952455
0.937151
0.918989
0.898061
0.874578
0.848835
0.821174
0.79196
0.761554
0.7303
0.698519
0.666499
0.634493
0.602724
0.571378
0.540614
0.51056
0.481317
0.452966
0.425563
0.399154
0.373767
0.349416
0.326105
0.303827
0.28257
0.262317
0.243044
0.224725
0.207333
0.190835
0.175202
0.160399
0.146396
0.133158
0.120656
0.108856
0.0977289
0.0872457
0.0773785
0.0681013
0.0593898
0.0512222
0.0435788
0.0364435
0.0298206
0.0237816
0.0181048
0.0128989
0.00816345
0.00390763
0.00238193
0.00168127
0.00116577
0.00079263
0.000527185
0.000342085
0.000215993
0.00013247
7.90589e-05
4.65472e-05
2.84722e-05
2.0173e-05
1.5146e-05
1.0912e-05
7.37612e-06
4.62111e-06
2.66455e-06
1.41692e-06
7.02334e-07
3.3242e-07
1.52572e-07
6.84706e-08
3.02166e-08
1.3161e-08
5.6704e-09
2.41797e-09
1.01778e-09
4.18773e-10
1.63718e-10
5.55523e-11
9.81571e-12
0.999997
0.999986
0.999968
0.999939
0.99989
0.999809
0.999677
0.999463
0.999121
0.998581
0.997742
0.996459
0.994534
0.991711
0.987672
0.982049
0.974456
0.964526
0.951965
0.936594
0.918368
0.89738
0.873837
0.848027
0.820289
0.790983
0.760469
0.729093
0.697177
0.665012
0.632858
0.600939
0.569448
0.538546
0.508363
0.479004
0.450551
0.423062
0.396582
0.371139
0.346748
0.323411
0.30112
0.279864
0.259622
0.240372
0.222084
0.204731
0.18828
0.172698
0.157953
0.144011
0.130839
0.118404
0.106674
0.0956185
0.0852082
0.075415
0.0662126
0.057577
0.0494864
0.0419218
0.0348678
0.0283694
0.0223894
0.0168093
0.0117397
0.00718383
0.00318615
0.00223119
0.00155515
0.00106637
0.00071749
0.000472327
0.000303323
0.000189521
0.000115088
6.82257e-05
4.03634e-05
2.56243e-05
1.87868e-05
1.39081e-05
9.79194e-06
6.45953e-06
3.95416e-06
2.23788e-06
1.17631e-06
5.80387e-07
2.74687e-07
1.2626e-07
5.67592e-08
2.50801e-08
1.09305e-08
4.70931e-09
2.00728e-09
8.44442e-10
3.47305e-10
1.35759e-10
4.60696e-11
8.14076e-12
0.999997
0.999986
0.999968
0.999938
0.999888
0.999805
0.999671
0.999453
0.999105
0.998557
0.997704
0.996402
0.99445
0.991591
0.987505
0.981823
0.974158
0.964146
0.951493
0.936021
0.917687
0.896585
0.87292
0.846982
0.819108
0.789659
0.758994
0.727461
0.695381
0.66305
0.630727
0.598642
0.566989
0.535932
0.505606
0.476116
0.447546
0.419956
0.393392
0.367881
0.343439
0.320067
0.297758
0.276497
0.256265
0.237036
0.218782
0.201473
0.185075
0.169555
0.154878
0.141011
0.127918
0.115566
0.103923
0.0929578
0.0826395
0.0729401
0.0638332
0.0552947
0.0473029
0.0398395
0.0328921
0.0265715
0.0206538
0.0152442
0.0103765
0.00611031
0.00288506
0.00201623
0.00139012
0.000942992
0.000627597
0.000408589
0.000259448
0.000160315
9.64272e-05
5.69731e-05
3.42815e-05
2.31778e-05
1.72359e-05
1.25205e-05
8.60661e-06
5.53124e-06
3.29784e-06
1.82286e-06
9.40818e-07
4.58859e-07
2.16265e-07
9.93302e-08
4.4719e-08
1.98159e-08
8.6672e-09
3.74873e-09
1.60396e-09
6.77117e-10
2.79307e-10
1.09429e-10
3.7191e-11
6.57583e-12
0.999997
0.999986
0.999967
0.999937
0.999886
0.999802
0.999665
0.999444
0.99909
0.998532
0.997666
0.996343
0.994363
0.991463
0.987323
0.981573
0.973825
0.963714
0.95095
0.935355
0.91689
0.895647
0.871835
0.845743
0.817708
0.788091
0.757253
0.725541
0.69328
0.660767
0.628265
0.596004
0.564182
0.532966
0.502491
0.472866
0.444176
0.416482
0.389831
0.364251
0.339755
0.316347
0.294018
0.272753
0.252531
0.233326
0.215109
0.197848
0.181508
0.166056
0.151455
0.13767
0.124665
0.112408
0.100863
0.0899991
0.0797859
0.0701945
0.0611983
0.0527734
0.0448987
0.0375568
0.030761
0.0245835
0.0187676
0.0134337
0.00858651
0.0042328
0.00246669
0.00172873
0.00119082
0.000804891
0.000532648
0.000344244
0.000216749
0.000132769
7.93252e-05
4.69479e-05
2.90722e-05
2.07841e-05
1.54827e-05
1.10652e-05
7.45351e-06
4.68577e-06
2.73538e-06
1.48604e-06
7.57926e-07
3.67892e-07
1.73098e-07
7.95067e-08
3.58276e-08
1.58959e-08
6.96177e-09
3.01477e-09
1.29127e-09
5.4557e-10
2.25178e-10
8.82538e-11
2.99995e-11
5.30374e-12
0.999997
0.999986
0.999967
0.999936
0.999884
0.999799
0.99966
0.999435
0.999076
0.99851
0.997631
0.996289
0.994281
0.991343
0.987149
0.98133
0.973493
0.963276
0.950387
0.934651
0.916032
0.894626
0.870642
0.844371
0.816153
0.786349
0.755321
0.723418
0.690968
0.658267
0.625581
0.593144
0.561156
0.529783
0.499164
0.469409
0.440604
0.412812
0.386079
0.360434
0.335891
0.31245
0.290105
0.26884
0.248633
0.229456
0.21128
0.194071
0.177794
0.162414
0.147893
0.134196
0.121286
0.109127
0.0976866
0.0869306
0.0768282
0.0673499
0.0584689
0.0501607
0.042404
0.0351814
0.0285651
0.0225115
0.0168208
0.0116731
0.00707262
0.00309512
0.00217817
0.00151009
0.00102986
0.000689411
0.000451862
0.000289212
0.00018036
0.000109555
6.52205e-05
3.90632e-05
2.54609e-05
1.88369e-05
1.38964e-05
9.7564e-06
6.43803e-06
3.96029e-06
2.26498e-06
1.20996e-06
6.09728e-07
2.94371e-07
1.38171e-07
6.34306e-08
2.86037e-08
1.27087e-08
5.57568e-09
2.41904e-09
1.03795e-09
4.39206e-10
1.81487e-10
7.11845e-11
2.42072e-11
4.27945e-12
0.999997
0.999985
0.999966
0.999935
0.999883
0.999796
0.999655
0.999427
0.999063
0.998488
0.997596
0.996235
0.994199
0.99122
0.986972
0.981079
0.97315
0.962819
0.949798
0.933913
0.915129
0.893548
0.86938
0.842919
0.814507
0.784506
0.753281
0.721182
0.688539
0.65565
0.622784
0.590175
0.558025
0.526503
0.495749
0.465873
0.436963
0.409081
0.382276
0.356575
0.331991
0.308527
0.286173
0.264914
0.244726
0.225583
0.207452
0.1903
0.17409
0.158785
0.144349
0.130743
0.117931
0.105876
0.0945432
0.0838996
0.0739134
0.064555
0.0557971
0.0476152
0.0399879
0.0329
0.0265063
0.0204959
0.0150062
0.0100755
0.00576881
0.00280413
0.00194459
0.00133207
0.00089874
0.000595537
0.000386456
0.000244918
0.000151303
9.12197e-05
5.42614e-05
3.31618e-05
2.29693e-05
1.71832e-05
1.25017e-05
8.6219e-06
5.57781e-06
3.36282e-06
1.88888e-06
9.94952e-07
4.96591e-07
2.3878e-07
1.11871e-07
5.13314e-08
2.31545e-08
1.0295e-08
4.52099e-09
1.96342e-09
8.43237e-10
3.57081e-10
1.47625e-10
5.79173e-11
1.96967e-11
3.48121e-12
0.999997
0.999985
0.999966
0.999934
0.999881
0.999794
0.999651
0.99942
0.99905
0.998468
0.997563
0.996183
0.994119
0.9911
0.986796
0.980829
0.972805
0.962359
0.9492
0.93316
0.914206
0.892442
0.868084
0.841428
0.812817
0.782616
0.751193
0.718899
0.686066
0.652995
0.619955
0.587182
0.55488
0.523219
0.49234
0.462356
0.433352
0.405393
0.378526
0.352779
0.328165
0.304685
0.28233
0.261084
0.240923
0.221818
0.203737
0.186645
0.170505
0.155278
0.140928
0.127414
0.1147
0.102749
0.0915239
0.080992
0.0711211
0.0618815
0.0532462
0.0451919
0.0376989
0.0307728
0.0245244
0.0186005
0.0131765
0.00824805
0.00383227
0.0023734
0.00166093
0.00114196
0.000770504
0.000509258
0.000329011
0.000207349
0.000127362
7.65153e-05
4.57378e-05
2.87956e-05
2.08702e-05
1.5631e-05
1.12347e-05
7.62739e-06
4.84761e-06
2.87081e-06
1.58732e-06
8.26031e-07
4.08871e-07
1.95912e-07
9.16289e-08
4.20208e-08
1.8958e-08
8.43429e-09
3.707e-09
1.6114e-09
6.92651e-10
2.93515e-10
1.214e-10
4.76382e-11
1.62015e-11
2.86281e-12
0.999997
0.999985
0.999966
0.999933
0.99988
0.999791
0.999646
0.999412
0.999038
0.998447
0.99753
0.996131
0.99404
0.990981
0.986622
0.980581
0.972462
0.961899
0.948602
0.932406
0.913281
0.891335
0.866786
0.839934
0.811126
0.780729
0.749111
0.716629
0.683612
0.650366
0.617162
0.584236
0.551794
0.520007
0.489016
0.458934
0.429849
0.401824
0.374907
0.349124
0.324489
0.301002
0.278655
0.257428
0.237298
0.218236
0.200209
0.18318
0.167111
0.151964
0.1377
0.124278
0.111661
0.0998116
0.0886924
0.0782693
0.0685097
0.0593836
0.0508636
0.0429258
0.0355499
0.0288164
0.0226714
0.0169059
0.0116916
0.00704344
0.00306994
0.00215313
0.00148965
0.00101488
0.000679338
0.00044569
0.000285883
0.000178937
0.000109292
6.55725e-05
3.96657e-05
2.60832e-05
1.93955e-05
1.44039e-05
1.02057e-05
6.81615e-06
4.2572e-06
2.47938e-06
1.35163e-06
6.95984e-07
3.42079e-07
1.63409e-07
7.62997e-08
3.4966e-08
1.57731e-08
7.01905e-09
3.0864e-09
1.34236e-09
5.77308e-10
2.44734e-10
1.01244e-10
3.97306e-11
1.35115e-11
2.38678e-12
0.999997
0.999985
0.999965
0.999933
0.999878
0.999789
0.999642
0.999405
0.999026
0.998428
0.997499
0.996082
0.993963
0.990866
0.986452
0.980339
0.972126
0.961448
0.948016
0.931666
0.912373
0.890247
0.865513
0.838471
0.809471
0.778884
0.74708
0.714417
0.681228
0.647819
0.614461
0.581395
0.548825
0.516924
0.485834
0.455669
0.426514
0.398434
0.371477
0.345668
0.32102
0.297535
0.2752
0.253998
0.233905
0.214889
0.196917
0.179952
0.163955
0.148887
0.134707
0.121376
0.108854
0.0971026
0.0860857
0.0757678
0.0661162
0.0571004
0.0486935
0.0408721
0.0336182
0.0271074
0.0209697
0.0153764
0.0103621
0.00598164
0.00285167
0.00197893
0.00135718
0.000917403
0.000609579
0.000397088
0.000252958
0.000157325
9.56486e-05
5.74356e-05
3.5321e-05
2.43857e-05
1.82915e-05
1.34274e-05
9.37624e-06
6.16243e-06
3.78576e-06
2.17114e-06
1.16861e-06
5.95999e-07
2.91464e-07
1.38787e-07
6.46776e-08
2.96086e-08
1.33498e-08
5.94003e-09
2.61227e-09
1.13643e-09
4.88869e-10
2.07279e-10
8.57531e-11
3.36496e-11
1.14423e-11
2.02061e-12
0.999996
0.999985
0.999965
0.999932
0.999877
0.999786
0.999638
0.999398
0.999014
0.998409
0.997469
0.996034
0.993889
0.990755
0.986289
0.980105
0.971803
0.961014
0.947452
0.930953
0.911498
0.889201
0.864288
0.837064
0.807883
0.777116
0.745138
0.712306
0.678956
0.645396
0.611898
0.578704
0.54602
0.514018
0.482842
0.452604
0.423391
0.395267
0.368278
0.342452
0.317799
0.29432
0.272004
0.250831
0.230776
0.211808
0.193892
0.17699
0.161064
0.146072
0.131974
0.118729
0.106297
0.0946394
0.0837189
0.0734998
0.0639488
0.0550351
0.0467305
0.0390102
0.0318681
0.0254722
0.0194092
0.0138733
0.0088711
0.00441983
0.002525
0.00176359
0.00121343
0.000821136
0.000545357
0.000354669
0.000225388
0.000139817
8.48973e-05
5.11769e-05
3.20992e-05
2.29708e-05
1.72954e-05
1.25825e-05
8.68007e-06
5.62532e-06
3.4058e-06
1.92721e-06
1.02602e-06
5.19032e-07
2.52751e-07
1.20023e-07
5.58341e-08
2.55323e-08
1.15044e-08
5.11716e-09
2.25009e-09
9.7885e-10
4.21084e-10
1.78531e-10
7.38505e-11
2.89744e-11
9.85121e-12
1.73901e-12
0.999996
0.999985
0.999965
0.999931
0.999876
0.999784
0.999634
0.999392
0.999004
0.998392
0.997441
0.99599
0.99382
0.99065
0.986135
0.979885
0.971498
0.960604
0.946918
0.93028
0.910672
0.888213
0.863133
0.835739
0.806389
0.775455
0.743314
0.710327
0.676831
0.643133
0.60951
0.576201
0.543415
0.511326
0.480074
0.449775
0.420513
0.392354
0.365342
0.339505
0.314853
0.291385
0.26909
0.247948
0.227933
0.209013
0.191152
0.174312
0.158453
0.143534
0.129513
0.116349
0.104002
0.0924326
0.0816029
0.0714775
0.0620233
0.0532102
0.0450116
0.0374061
0.0303881
0.0240845
0.0181128
0.0126712
0.00775663
0.00342945
0.00232094
0.00161798
0.00111117
0.000750339
0.000497132
0.000322451
0.000204371
0.000126519
7.68421e-05
4.66526e-05
2.9988e-05
2.20196e-05
1.65335e-05
1.1914e-05
8.1231e-06
5.1959e-06
3.10451e-06
1.73599e-06
9.15432e-07
4.59821e-07
2.23081e-07
1.05668e-07
4.90738e-08
2.24155e-08
1.00924e-08
4.48698e-09
1.97241e-09
8.57898e-10
3.68998e-10
1.5642e-10
6.46899e-11
2.5375e-11
8.62613e-12
1.52218e-12
0.999996
0.999984
0.999964
0.999931
0.999875
0.999782
0.999631
0.999386
0.998994
0.998376
0.997415
0.995949
0.993756
0.990553
0.985992
0.979681
0.971215
0.960224
0.946424
0.929657
0.909908
0.8873
0.862066
0.834516
0.80501
0.773925
0.741637
0.70851
0.674881
0.641061
0.607325
0.573916
0.541042
0.508875
0.47756
0.447209
0.417908
0.389721
0.362692
0.336849
0.312201
0.288748
0.266476
0.245365
0.225389
0.206515
0.188707
0.171925
0.156129
0.141277
0.127327
0.114238
0.101968
0.0904773
0.0797287
0.0696858
0.060315
0.0515853
0.043469
0.0359417
0.029092
0.0228763
0.0170318
0.0117537
0.00705957
0.00308121
0.00216836
0.00150657
0.00103183
0.000695123
0.000459569
0.000297503
0.000188251
0.000116467
7.09067e-05
4.35149e-05
2.87904e-05
2.14632e-05
1.60171e-05
1.14277e-05
7.70229e-06
4.86601e-06
2.87228e-06
1.58905e-06
8.30839e-07
4.14684e-07
2.00481e-07
9.4729e-08
4.39165e-08
2.00344e-08
9.01218e-09
4.0041e-09
1.75934e-09
7.64958e-10
3.28928e-10
1.39395e-10
5.76317e-11
2.26009e-11
7.68194e-12
1.35506e-12
0.999996
0.999984
0.999964
0.99993
0.999874
0.99978
0.999628
0.999381
0.998985
0.998361
0.997391
0.995911
0.993699
0.990466
0.985863
0.979496
0.970959
0.95988
0.945976
0.929093
0.909217
0.886475
0.861102
0.833413
0.803768
0.772547
0.740128
0.706876
0.673131
0.639203
0.605369
0.571873
0.538921
0.50669
0.475321
0.444927
0.415594
0.387385
0.360345
0.334499
0.309858
0.28642
0.264171
0.243091
0.223152
0.204321
0.186561
0.169833
0.154094
0.139303
0.125417
0.112395
0.100194
0.0887751
0.0780998
0.0681322
0.0588388
0.0501893
0.0421572
0.0347225
0.0280797
0.0218043
0.0160874
0.010953
0.00643392
0.00293774
0.00205906
0.00142589
0.000973834
0.000654485
0.000431823
0.00027908
0.000176404
0.000109161
6.66909e-05
4.14121e-05
2.81721e-05
2.11786e-05
1.56962e-05
1.10935e-05
7.39701e-06
4.62024e-06
2.69747e-06
1.4782e-06
7.6704e-07
3.80648e-07
1.83416e-07
8.64522e-08
4.00048e-08
1.82238e-08
8.18862e-09
3.6351e-09
1.59616e-09
6.93649e-10
2.98136e-10
1.26295e-10
5.21966e-11
2.04639e-11
6.95455e-12
1.22629e-12
0.999996
0.999984
0.999964
0.99993
0.999873
0.999779
0.999625
0.999376
0.998978
0.998349
0.997371
0.995879
0.993648
0.990389
0.98575
0.979334
0.970733
0.959577
0.945583
0.928597
0.908609
0.885749
0.860254
0.832443
0.802677
0.771337
0.738805
0.705445
0.671599
0.637578
0.60366
0.570089
0.537074
0.504787
0.473374
0.442945
0.413585
0.385359
0.358311
0.332466
0.307833
0.28441
0.262184
0.241132
0.221227
0.202434
0.184718
0.168036
0.152348
0.13761
0.12378
0.110815
0.0986734
0.0873148
0.0767007
0.0667952
0.0575649
0.0489801
0.0410156
0.0336568
0.0270912
0.0208733
0.0152027
0.0101084
0.00561423
0.00276856
0.00194245
0.00134651
0.000920488
0.000619157
0.000408837
0.00026445
0.000167362
0.000103812
6.3774e-05
4.01367e-05
2.80891e-05
2.1146e-05
1.55561e-05
1.08939e-05
7.19197e-06
4.44596e-06
2.57041e-06
1.39673e-06
7.1989e-07
3.55391e-07
1.70706e-07
8.02629e-08
3.70677e-08
1.6859e-08
7.56558e-09
3.35502e-09
1.47193e-09
6.39221e-10
2.74582e-10
1.16258e-10
4.80271e-11
1.88235e-11
6.39605e-12
1.12741e-12
0.999996
0.999984
0.999964
0.999929
0.999872
0.999777
0.999623
0.999372
0.998971
0.998338
0.997354
0.995851
0.993605
0.990324
0.985654
0.979196
0.970542
0.95932
0.945248
0.928175
0.908092
0.885132
0.859534
0.831619
0.80175
0.770311
0.737682
0.704231
0.6703
0.636202
0.602215
0.568582
0.535512
0.503181
0.471731
0.441273
0.411893
0.383655
0.356602
0.330758
0.306133
0.282725
0.260518
0.239491
0.219616
0.200857
0.183178
0.166537
0.150892
0.136199
0.122417
0.109501
0.0974087
0.0861004
0.0755366
0.0656805
0.0564976
0.0479563
0.0400285
0.0326895
0.0261244
0.0200858
0.0144072
0.00929177
0.00474164
0.0025871
0.00182754
0.00127388
0.000874777
0.000590615
0.000391231
0.000253789
0.000161085
0.000100287
6.19797e-05
3.94453e-05
2.80815e-05
2.1176e-05
1.54998e-05
1.07809e-05
7.0593e-06
4.32688e-06
2.48106e-06
1.33855e-06
6.85887e-07
3.37048e-07
1.61416e-07
7.5711e-08
3.48949e-08
1.58439e-08
7.09996e-09
3.14479e-09
1.37833e-09
5.98076e-10
2.56727e-10
1.08633e-10
4.48546e-11
1.75741e-11
5.97054e-12
1.05205e-12
0.999996
0.999984
0.999963
0.999929
0.999871
0.999776
0.999621
0.999369
0.998966
0.998329
0.99734
0.995829
0.993571
0.990272
0.985576
0.979085
0.970387
0.959112
0.944977
0.927833
0.907673
0.884631
0.85895
0.83095
0.800998
0.769477
0.736771
0.703247
0.669248
0.635087
0.601044
0.567361
0.534249
0.501882
0.470403
0.439923
0.410528
0.38228
0.355223
0.329381
0.304764
0.281368
0.259178
0.238172
0.218321
0.199591
0.181942
0.165334
0.149724
0.135069
0.121324
0.108448
0.096396
0.0851285
0.0746059
0.0647912
0.0556497
0.0471495
0.0392621
0.0319623
0.0254065
0.019417
0.0137655
0.00866126
0.00413138
0.00247335
0.00175252
0.00122574
0.000844669
0.000572274
0.000380399
0.000247639
0.000157782
9.86753e-05
6.13544e-05
3.94132e-05
2.83698e-05
2.1364e-05
1.55537e-05
1.07507e-05
6.99092e-06
4.25335e-06
2.42204e-06
1.29877e-06
6.62121e-07
3.24202e-07
1.54821e-07
7.2445e-08
3.33218e-08
1.51035e-08
6.75825e-09
2.98971e-09
1.30898e-09
5.67477e-10
2.4341e-10
1.02932e-10
4.24789e-11
1.66377e-11
5.65148e-12
9.95517e-13
0.999996
0.999984
0.999963
0.999929
0.999871
0.999776
0.99962
0.999367
0.998962
0.998323
0.997329
0.995813
0.993545
0.990232
0.985518
0.979001
0.97027
0.958954
0.944772
0.927574
0.907356
0.884252
0.858507
0.830444
0.800428
0.768846
0.73608
0.702501
0.66845
0.634242
0.600156
0.566437
0.533293
0.500899
0.469399
0.438902
0.409495
0.38124
0.35418
0.328341
0.30373
0.280343
0.258167
0.237177
0.217346
0.198636
0.181011
0.164429
0.148847
0.13422
0.120505
0.107659
0.0956382
0.0844019
0.0739108
0.0641277
0.0550181
0.0465509
0.0386984
0.0314366
0.0249079
0.0189548
0.0133359
0.00826198
0.00378631
0.00241878
0.00171748
0.00120417
0.000832008
0.000565281
0.000376858
0.000246099
0.000157342
9.88026e-05
6.17642e-05
3.99717e-05
2.89384e-05
2.17155e-05
1.57189e-05
1.07969e-05
6.9757e-06
4.217e-06
2.38687e-06
1.27324e-06
6.46284e-07
3.15489e-07
1.50284e-07
7.01714e-08
3.22162e-08
1.45792e-08
6.51483e-09
2.87871e-09
1.25915e-09
5.45431e-10
2.33793e-10
9.88094e-11
4.07591e-11
1.59596e-11
5.42041e-12
9.5457e-13
0.999996
0.999984
0.999963
0.999928
0.999871
0.999775
0.999619
0.999366
0.99896
0.998319
0.997323
0.995802
0.993528
0.990206
0.98548
0.978946
0.970193
0.95885
0.944636
0.927402
0.907144
0.883999
0.858211
0.830104
0.800045
0.768421
0.735616
0.701999
0.667913
0.633673
0.599559
0.565815
0.532651
0.50024
0.468725
0.438217
0.4088
0.38054
0.353479
0.327641
0.303034
0.279654
0.257487
0.236509
0.21669
0.197996
0.180387
0.163823
0.148259
0.133652
0.119958
0.107133
0.0951342
0.0839205
0.0734523
0.0636924
0.0546062
0.0461622
0.0383323
0.0310924
0.0246036
0.0186759
0.013087
0.00804884
0.00363064
0.00240442
0.00170921
0.00120035
0.000831053
0.000565954
0.000378303
0.000247775
0.000158942
0.000100187
6.29015e-05
4.08947e-05
2.96509e-05
2.21474e-05
1.59417e-05
1.08881e-05
6.99493e-06
4.20603e-06
2.36902e-06
1.25835e-06
6.36456e-07
3.09934e-07
1.47346e-07
6.8687e-08
3.14911e-08
1.42343e-08
6.35426e-09
2.80535e-09
1.22618e-09
5.30829e-10
2.27421e-10
9.60776e-11
3.96201e-11
1.55107e-11
5.26759e-12
9.27506e-13
0.999996
0.999984
0.999963
0.999928
0.999871
0.999775
0.999619
0.999365
0.998959
0.998317
0.99732
0.995797
0.99352
0.990194
0.985462
0.97892
0.970157
0.958801
0.944571
0.927319
0.907042
0.883876
0.858067
0.829939
0.799859
0.768214
0.735388
0.701751
0.667648
0.633392
0.599264
0.565508
0.532333
0.499914
0.468391
0.437876
0.408454
0.380191
0.353128
0.32729
0.302685
0.279309
0.257146
0.236173
0.216361
0.197675
0.180074
0.163519
0.147964
0.133368
0.119684
0.10687
0.0948832
0.0836813
0.0732251
0.0634775
0.0544036
0.0459719
0.0381539
0.0309253
0.0244693
0.0185551
0.0129824
0.00796365
0.00357464
0.00240463
0.00171181
0.00120397
0.00083493
0.000569646
0.000381566
0.000250499
0.000161113
0.00010185
6.41334e-05
4.17778e-05
3.02373e-05
2.24849e-05
1.61148e-05
1.09631e-05
7.01749e-06
4.20549e-06
2.3618e-06
1.25137e-06
6.31599e-07
3.07132e-07
1.45854e-07
6.79309e-08
3.11217e-08
1.40587e-08
6.27264e-09
2.7681e-09
1.20945e-09
5.23425e-10
2.24192e-10
9.46942e-11
3.90437e-11
1.52838e-11
5.19039e-12
9.1384e-13
0.999996
0.999984
0.999963
0.999928
0.999871
0.999775
0.999619
0.999365
0.998959
0.998317
0.99732
0.995797
0.99352
0.990194
0.985461
0.978919
0.970156
0.9588
0.94457
0.927318
0.907041
0.883875
0.858066
0.829937
0.799857
0.768211
0.735385
0.701748
0.667645
0.633389
0.59926
0.565504
0.532329
0.499909
0.468386
0.437871
0.408449
0.380186
0.353123
0.327285
0.30268
0.279304
0.257141
0.236169
0.216357
0.19767
0.18007
0.163514
0.14796
0.133364
0.11968
0.106867
0.0948795
0.0836779
0.0732222
0.063475
0.0544018
0.0459706
0.0381531
0.0309243
0.0244693
0.0185552
0.012982
0.00796289
0.00357452
0.00240492
0.00171158
0.00120352
0.000834462
0.000569269
0.000381303
0.000250335
0.00016102
0.000101802
6.4112e-05
4.17703e-05
3.02365e-05
2.24854e-05
1.6115e-05
1.09628e-05
7.01697e-06
4.20498e-06
2.36143e-06
1.25115e-06
6.31489e-07
3.0708e-07
1.45831e-07
6.79221e-08
3.11187e-08
1.40576e-08
6.27224e-09
2.76795e-09
1.20939e-09
5.23394e-10
2.24177e-10
9.46871e-11
3.90404e-11
1.52824e-11
5.18995e-12
9.13777e-13
0.999996
0.999984
0.999963
0.999928
0.999871
0.999775
0.999619
0.999366
0.99896
0.998319
0.997323
0.995802
0.993528
0.990206
0.985479
0.978945
0.970192
0.958848
0.944634
0.927399
0.907141
0.883994
0.858206
0.830098
0.800039
0.768414
0.735608
0.70199
0.667903
0.633663
0.599548
0.565803
0.532638
0.500227
0.468711
0.438202
0.408786
0.380526
0.353465
0.327626
0.303019
0.27964
0.257473
0.236495
0.216676
0.197982
0.180374
0.16381
0.148247
0.13364
0.119947
0.107122
0.0951243
0.0839115
0.0734443
0.0636856
0.0546006
0.0461578
0.0383285
0.0310879
0.0246015
0.0186743
0.0130842
0.00804511
0.00362956
0.00240517
0.00170844
0.00119888
0.000829546
0.000564748
0.000377478
0.000247275
0.000158674
0.000100061
6.28518e-05
4.08805e-05
2.96495e-05
2.21472e-05
1.59403e-05
1.08857e-05
6.99238e-06
4.20389e-06
2.36763e-06
1.2575e-06
6.35992e-07
3.09704e-07
1.47237e-07
6.86375e-08
3.14694e-08
1.42248e-08
6.35018e-09
2.80358e-09
1.22541e-09
5.30495e-10
2.27276e-10
9.60154e-11
3.95941e-11
1.55006e-11
5.26427e-12
9.26957e-13
0.999996
0.999984
0.999963
0.999929
0.999871
0.999776
0.99962
0.999367
0.998962
0.998323
0.997329
0.995813
0.993545
0.990232
0.985517
0.979
0.970268
0.958951
0.944768
0.927569
0.907349
0.884244
0.858498
0.830433
0.800416
0.768832
0.736066
0.702485
0.668433
0.634223
0.600136
0.566416
0.533271
0.500876
0.469375
0.438878
0.40947
0.381215
0.354156
0.328316
0.303705
0.280319
0.258143
0.237154
0.217323
0.198614
0.18099
0.164408
0.148826
0.1342
0.120486
0.107641
0.0956213
0.0843862
0.0738964
0.0641147
0.0550065
0.0465403
0.0386877
0.0314242
0.0248981
0.018945
0.0133248
0.00825152
0.0037826
0.0024206
0.00171763
0.00120334
0.000830868
0.000564253
0.000376101
0.000245617
0.00015707
9.86663e-05
6.17048e-05
3.99516e-05
2.89336e-05
2.17116e-05
1.57136e-05
1.0791e-05
6.97034e-06
4.21323e-06
2.38433e-06
1.27173e-06
6.45476e-07
3.15093e-07
1.50093e-07
7.00848e-08
3.21777e-08
1.45622e-08
6.5073e-09
2.87538e-09
1.25769e-09
5.44786e-10
2.33512e-10
9.86886e-11
4.07087e-11
1.59399e-11
5.41391e-12
9.53488e-13
0.999996
0.999984
0.999963
0.999929
0.999871
0.999776
0.999621
0.999369
0.998966
0.998329
0.99734
0.995829
0.99357
0.990271
0.985575
0.979083
0.970384
0.959107
0.944971
0.927825
0.907664
0.88462
0.858937
0.830935
0.800981
0.769458
0.73675
0.703224
0.669223
0.635061
0.601015
0.567331
0.534218
0.50185
0.47037
0.439889
0.410493
0.382245
0.355188
0.329346
0.30473
0.281334
0.259144
0.238139
0.218289
0.199559
0.181911
0.165304
0.149696
0.135042
0.121298
0.108422
0.0963717
0.085105
0.0745832
0.0647691
0.0556283
0.0471295
0.0392445
0.0319493
0.0254015
0.019411
0.0137513
0.0086445
0.00412033
0.00247332
0.00175208
0.00122484
0.000843614
0.00057134
0.000379701
0.000247178
0.000157508
9.85269e-05
6.12815e-05
3.93839e-05
2.8362e-05
2.13583e-05
1.55465e-05
1.07428e-05
6.98439e-06
4.24831e-06
2.41862e-06
1.29676e-06
6.61019e-07
3.23652e-07
1.5455e-07
7.23179e-08
3.32626e-08
1.50763e-08
6.74586e-09
2.98412e-09
1.30648e-09
5.66373e-10
2.42927e-10
1.02725e-10
4.23927e-11
1.66041e-11
5.64033e-12
9.93636e-13
0.999996
0.999984
0.999964
0.999929
0.999872
0.999777
0.999623
0.999372
0.998971
0.998338
0.997353
0.995851
0.993604
0.990323
0.985652
0.979193
0.970538
0.959314
0.945241
0.928165
0.90808
0.885117
0.859517
0.831599
0.801727
0.770285
0.737654
0.704201
0.670268
0.636167
0.602178
0.568543
0.535472
0.503139
0.471687
0.441229
0.411848
0.38361
0.356556
0.330713
0.306089
0.282681
0.260475
0.239449
0.219575
0.200817
0.183139
0.166499
0.150855
0.136164
0.122383
0.109468
0.0973768
0.0860695
0.0755067
0.0656514
0.0564695
0.0479296
0.0400036
0.0326659
0.0261028
0.0200662
0.0143898
0.00927434
0.00472292
0.00258389
0.0018259
0.00127283
0.000873986
0.000590009
0.000390797
0.000253501
0.000160908
0.000100187
6.19275e-05
3.94234e-05
2.80728e-05
2.11642e-05
1.54866e-05
1.07695e-05
7.0503e-06
4.32041e-06
2.47697e-06
1.33613e-06
6.84529e-07
3.36333e-07
1.61062e-07
7.55401e-08
3.48124e-08
1.58048e-08
7.0818e-09
3.13648e-09
1.37458e-09
5.9641e-10
2.55999e-10
1.08321e-10
4.47248e-11
1.75236e-11
5.95376e-12
1.0492e-12
0.999996
0.999984
0.999964
0.99993
0.999873
0.999779
0.999625
0.999376
0.998978
0.998348
0.997371
0.995878
0.993647
0.990387
0.985748
0.97933
0.970728
0.95957
0.945573
0.928584
0.908593
0.88573
0.860232
0.832417
0.802647
0.771305
0.738769
0.705406
0.671558
0.637534
0.603614
0.570041
0.537023
0.504735
0.47332
0.44289
0.41353
0.385304
0.358256
0.33241
0.307778
0.284356
0.262131
0.24108
0.221177
0.202386
0.18467
0.16799
0.152304
0.137568
0.12374
0.110776
0.0986366
0.0872799
0.0766678
0.0667644
0.0575363
0.0489534
0.0409893
0.0336277
0.0270516
0.020839
0.0151876
0.0100996
0.005598
0.00276445
0.00194041
0.00134551
0.000920014
0.000618953
0.000408765
0.000264432
0.000167358
0.000103807
6.37672e-05
4.01331e-05
2.80932e-05
2.11415e-05
1.55459e-05
1.08831e-05
7.1827e-06
4.43919e-06
2.56586e-06
1.39389e-06
7.18235e-07
3.54486e-07
1.70248e-07
8.00361e-08
3.69567e-08
1.68053e-08
7.54029e-09
3.34334e-09
1.46664e-09
6.36865e-10
2.73552e-10
1.15817e-10
4.78445e-11
1.87525e-11
6.37249e-12
1.12341e-12
0.999996
0.999984
0.999964
0.99993
0.999874
0.99978
0.999628
0.999381
0.998985
0.998361
0.997391
0.995911
0.993697
0.990464
0.98586
0.979492
0.970952
0.959871
0.945965
0.929078
0.909198
0.886451
0.861074
0.833381
0.803732
0.772507
0.740084
0.706829
0.673081
0.63915
0.605314
0.571815
0.538861
0.506628
0.475257
0.444862
0.415528
0.387318
0.360278
0.334433
0.309793
0.286356
0.264109
0.24303
0.223093
0.204264
0.186505
0.169779
0.154042
0.139253
0.125369
0.112348
0.100149
0.0887315
0.0780572
0.0680905
0.0587981
0.0501504
0.0421219
0.0346933
0.0280552
0.021785
0.0160749
0.0109439
0.00641819
0.00293115
0.00205612
0.00142423
0.000972854
0.000653874
0.000431429
0.000278823
0.000176238
0.000109054
6.66236e-05
4.13746e-05
2.81648e-05
2.11744e-05
1.56868e-05
1.10822e-05
7.3868e-06
4.61228e-06
2.69187e-06
1.47461e-06
7.64914e-07
3.79466e-07
1.82816e-07
8.61509e-08
3.98572e-08
1.81514e-08
8.15423e-09
3.61915e-09
1.58892e-09
6.90425e-10
2.96729e-10
1.25695e-10
5.1949e-11
2.0368e-11
6.92277e-12
1.2209e-12
0.999996
0.999984
0.999964
0.999931
0.999874
0.999782
0.999631
0.999386
0.998994
0.998375
0.997414
0.995948
0.993755
0.990551
0.985989
0.979676
0.971207
0.960213
0.94641
0.929639
0.909885
0.887272
0.862033
0.834478
0.804968
0.773878
0.741585
0.708454
0.674822
0.640998
0.60726
0.573848
0.540971
0.508803
0.477486
0.447134
0.417832
0.389644
0.362616
0.336773
0.312126
0.288674
0.266403
0.245295
0.225321
0.206449
0.188642
0.171863
0.156069
0.14122
0.127272
0.114185
0.101918
0.0904295
0.0796829
0.0696417
0.0602724
0.0515442
0.0434302
0.0359074
0.0290697
0.0228574
0.0170107
0.0117358
0.00704315
0.00307701
0.00216805
0.00150449
0.00102948
0.000693155
0.000458148
0.000296568
0.000187675
0.00011613
7.07189e-05
4.34194e-05
2.87603e-05
2.145e-05
1.60018e-05
1.14124e-05
7.68912e-06
4.85588e-06
2.86519e-06
1.58449e-06
8.28116e-07
4.13154e-07
1.99698e-07
9.43338e-08
4.37225e-08
1.99386e-08
8.96628e-09
3.98273e-09
1.74962e-09
7.60637e-10
3.27047e-10
1.38595e-10
5.73031e-11
2.24741e-11
7.64004e-12
1.34795e-12
0.999996
0.999985
0.999965
0.999931
0.999876
0.999784
0.999634
0.999392
0.999004
0.998391
0.99744
0.995989
0.993819
0.990647
0.986131
0.979879
0.971489
0.960592
0.946902
0.930259
0.910646
0.888181
0.863095
0.835695
0.806338
0.7754
0.743254
0.710262
0.676762
0.643061
0.609434
0.576123
0.543334
0.511242
0.479989
0.449688
0.420426
0.392266
0.365255
0.339418
0.314767
0.291301
0.269008
0.247868
0.227855
0.208937
0.191079
0.174242
0.158386
0.14347
0.129452
0.116291
0.103947
0.092381
0.0815544
0.0714318
0.0619799
0.0531684
0.0449704
0.0373643
0.0303511
0.024048
0.0180745
0.0126315
0.00772597
0.00342157
0.00232605
0.00161887
0.00111014
0.000748733
0.000495629
0.000321291
0.000203568
0.000126004
7.65316e-05
4.64796e-05
2.9915e-05
2.19924e-05
1.65147e-05
1.1898e-05
8.10969e-06
5.1853e-06
3.09674e-06
1.73075e-06
9.12161e-07
4.57914e-07
2.22085e-07
1.05159e-07
4.88221e-08
2.22915e-08
1.00324e-08
4.45883e-09
1.95959e-09
8.52196e-10
3.66522e-10
1.55372e-10
6.42608e-11
2.52101e-11
8.57181e-12
1.51298e-12
0.999996
0.999985
0.999965
0.999932
0.999877
0.999786
0.999638
0.999398
0.999014
0.998409
0.997468
0.996033
0.993887
0.990752
0.986284
0.980098
0.971793
0.961
0.947433
0.93093
0.911469
0.889164
0.864244
0.837014
0.807826