/*--------------------------------*- C++ -*----------------------------------*\
  =========                 |
  \\      /  F ield         | OpenFOAM: The Open Source CFD Toolbox
   \\    /   O peration     | Website:  https://openfoam.org
    \\  /    A nd           | Version:  8
     \\/     M anipulation  |
\*---------------------------------------------------------------------------*/
FoamFile
{
    version     2.0;
    format      ascii;
    class       volScalarField;
    location    "140/fluid";
    object      CO2;
}
// * * * * * * * * * * * * * * * * * * * * * * * * * * * * * * * * * * * * * //

dimensions      [0 0 0 0 0 0 0];

internalField   nonuniform List<scalar> 
4000
(
3.95797e-07
1.72784e-06
3.95992e-06
7.68296e-06
1.38601e-05
2.40451e-05
4.07153e-05
6.77638e-05
0.000111207
0.000180157
0.000288082
0.000454315
0.000705622
0.00107744
0.00161418
0.00236778
0.00339392
0.00474599
0.00646773
0.00858683
0.0111112
0.0140288
0.0173111
0.0209173
0.0247996
0.0289071
0.0331893
0.037598
0.0420886
0.0466208
0.0511589
0.055672
0.0601335
0.0645211
0.0688165
0.073005
0.0770751
0.0810181
0.0848274
0.0884986
0.0920294
0.0954193
0.0986683
0.101778
0.10475
0.107587
0.110292
0.112868
0.115318
0.117645
0.119852
0.121943
0.123919
0.125781
0.127531
0.129168
0.130691
0.132097
0.133381
0.134534
0.135547
0.136403
0.137083
0.137556
0.137784
0.137721
0.13729
0.136386
0.134848
0.128381
0.118168
0.107863
0.0975896
0.0874521
0.0775386
0.0679273
0.0586884
0.0498878
0.0415905
0.0338729
0.0267836
0.0204141
0.0148564
0.010202
0.00652771
0.00385223
0.00208954
0.00104757
0.000494382
0.000224685
9.93971e-05
4.31296e-05
1.84532e-05
7.8102e-06
3.2736e-06
1.35577e-06
5.49662e-07
2.12205e-07
7.13392e-08
1.25377e-08
4.01541e-07
1.75386e-06
4.02347e-06
7.81644e-06
1.41219e-05
2.45371e-05
4.16079e-05
6.93319e-05
0.000113874
0.00018454
0.000295031
0.000464916
0.000721144
0.00109921
0.00164335
0.00240508
0.00343945
0.0047991
0.00652725
0.00865142
0.0111798
0.0141012
0.0173877
0.0209994
0.024889
0.0290061
0.0332998
0.0377217
0.0422265
0.0467736
0.0513265
0.0558538
0.0603285
0.0647281
0.0690341
0.0732316
0.0773091
0.0812579
0.0850715
0.0887455
0.0922779
0.0956679
0.0989161
0.102024
0.104993
0.107827
0.110527
0.113099
0.115543
0.117865
0.120066
0.12215
0.124119
0.125974
0.127715
0.129344
0.130857
0.132252
0.133523
0.134661
0.135657
0.136492
0.137148
0.137596
0.1378
0.137724
0.137312
0.136502
0.135231
0.1268
0.116422
0.106003
0.0956456
0.0854415
0.0754751
0.0658232
0.0565571
0.0477458
0.0394587
0.0318027
0.0247888
0.0185507
0.0131877
0.00879558
0.00543897
0.00309724
0.00162794
0.000798426
0.000374388
0.000170453
7.59627e-05
3.33189e-05
1.44345e-05
6.18968e-06
2.62841e-06
1.10237e-06
4.52216e-07
1.76384e-07
5.97575e-08
1.05446e-08
4.1066e-07
1.79433e-06
4.11908e-06
8.00898e-06
1.44827e-05
2.51844e-05
4.27318e-05
7.12275e-05
0.000116983
0.000189501
0.000302722
0.000476485
0.000738012
0.00112301
0.00167584
0.00244792
0.00349398
0.00486615
0.00660705
0.00874371
0.0112841
0.0142171
0.0175153
0.0211393
0.0250424
0.0291745
0.0334852
0.0379257
0.0424507
0.0470188
0.0515932
0.0561418
0.0606372
0.0650563
0.0693802
0.0735938
0.0776854
0.081646
0.0854692
0.0891505
0.0926882
0.0960814
0.0993309
0.102438
0.105405
0.108235
0.110931
0.113496
0.115933
0.118247
0.120439
0.122513
0.12447
0.126313
0.128041
0.129654
0.131151
0.132526
0.133774
0.134884
0.135844
0.136634
0.13723
0.137593
0.137683
0.137444
0.136798
0.135658
0.133951
0.123815
0.113394
0.102925
0.0925283
0.0823046
0.0723438
0.0627264
0.0535275
0.0448208
0.0366809
0.0292236
0.0224599
0.0165312
0.0115299
0.00753347
0.00456793
0.00256146
0.00133458
0.000653051
0.000306724
0.000140002
6.25332e-05
2.74685e-05
1.19068e-05
5.10481e-06
2.16633e-06
9.07888e-07
3.72223e-07
1.45151e-07
4.91791e-08
8.67885e-09
4.19463e-07
1.83292e-06
4.2082e-06
8.18346e-06
1.47999e-05
2.57364e-05
4.36635e-05
7.27613e-05
0.000119451
0.000193386
0.000308706
0.000485502
0.000751286
0.00114208
0.00170252
0.00248423
0.00354201
0.0049279
0.00668432
0.00883801
0.0113967
0.014349
0.0176675
0.0213127
0.0252378
0.0293928
0.0337272
0.0381922
0.0427421
0.0473354
0.051935
0.0565083
0.0610275
0.0654692
0.0698141
0.0740468
0.0781553
0.0821305
0.0859657
0.0896568
0.0932018
0.0966
0.0998522
0.10296
0.105926
0.108752
0.111443
0.114001
0.116431
0.118734
0.120915
0.122977
0.124921
0.126748
0.12846
0.130054
0.13153
0.132881
0.1341
0.135176
0.136094
0.136832
0.137357
0.137623
0.137577
0.137123
0.136119
0.134331
0.130536
0.120226
0.109737
0.0992265
0.0888217
0.0786273
0.0687339
0.0592233
0.0501723
0.0416565
0.0337569
0.0265425
0.0201057
0.0145404
0.00993123
0.00633733
0.0037501
0.0020569
0.00105348
0.000509977
0.000238672
0.000108905
4.87327e-05
2.14735e-05
9.344e-06
4.02263e-06
1.714e-06
7.20966e-07
2.96513e-07
1.1591e-07
3.93371e-08
6.94682e-09
4.27782e-07
1.86932e-06
4.29208e-06
8.34739e-06
1.50979e-05
2.62567e-05
4.45476e-05
7.42313e-05
0.000121848
0.000197219
0.000314713
0.000494712
0.000765081
0.00116222
0.00173113
0.00252372
0.00359492
0.00499671
0.00677127
0.008945
0.0115253
0.0145005
0.0178429
0.021513
0.0254639
0.0296455
0.034007
0.0384996
0.0430773
0.0476983
0.0523251
0.056925
0.0614696
0.0659352
0.0703023
0.0745551
0.0786814
0.082672
0.0865202
0.0902218
0.0937748
0.0971786
0.100434
0.103543
0.106507
0.10933
0.112016
0.114567
0.116987
0.11928
0.121449
0.123497
0.125426
0.127236
0.128929
0.130502
0.131953
0.133277
0.134465
0.135505
0.136382
0.137071
0.137542
0.137754
0.13767
0.137224
0.136349
0.134987
0.126996
0.116456
0.105848
0.0952944
0.084906
0.0747782
0.0649966
0.0556398
0.0467825
0.0384984
0.0308989
0.0239893
0.0179005
0.0127163
0.00850862
0.00531123
0.0030775
0.00165918
0.000839777
0.000404586
0.000189023
8.62502e-05
3.86286e-05
1.70418e-05
7.425e-06
3.20032e-06
1.36505e-06
5.74683e-07
2.36504e-07
9.24921e-08
3.13971e-08
5.54441e-09
4.35469e-07
1.90291e-06
4.36931e-06
8.49793e-06
1.53709e-05
2.67324e-05
4.53551e-05
7.55742e-05
0.000124041
0.000200736
0.000320251
0.000503262
0.000778005
0.00118131
0.00175864
0.00256231
0.00364752
0.00506636
0.00686085
0.00905706
0.0116619
0.0146633
0.0180331
0.0217314
0.0257113
0.0299221
0.0343132
0.0388352
0.0434422
0.0480919
0.0527466
0.0573732
0.0619431
0.0664325
0.0708214
0.0750938
0.0792375
0.083243
0.0871037
0.0908153
0.0943759
0.0977849
0.101043
0.104152
0.107115
0.109934
0.112614
0.115157
0.117568
0.11985
0.122006
0.124039
0.125951
0.127742
0.129414
0.130964
0.132388
0.13368
0.134831
0.135827
0.136649
0.137268
0.137644
0.137735
0.137475
0.136772
0.135517
0.13358
0.123124
0.1125
0.101857
0.0913192
0.0809939
0.0709733
0.0613404
0.0521714
0.0435394
0.0355177
0.0282016
0.0216211
0.0158902
0.0110854
0.00726506
0.00443655
0.00251797
0.00133455
0.000667234
0.00031968
0.000148973
6.79324e-05
3.0444e-05
1.34493e-05
5.87007e-06
2.53491e-06
1.08321e-06
4.56757e-07
1.88209e-07
7.36688e-08
2.50199e-08
4.41832e-09
4.42745e-07
1.93473e-06
4.44253e-06
8.64092e-06
1.56309e-05
2.71872e-05
4.61306e-05
7.68714e-05
0.000126173
0.000204181
0.000325717
0.000511768
0.000790961
0.00120059
0.0017866
0.00260176
0.00370159
0.00513828
0.0069537
0.00917358
0.0118044
0.0148334
0.0182322
0.0219604
0.0259706
0.030212
0.0346336
0.0391859
0.0438225
0.048501
0.0531834
0.0578363
0.062431
0.0669431
0.0713527
0.0756437
0.0798035
0.0838227
0.0876947
0.0914153
0.0949825
0.0983958
0.101656
0.104765
0.107725
0.11054
0.113213
0.115748
0.118148
0.120418
0.12256
0.124577
0.126471
0.128243
0.129893
0.131417
0.132813
0.134073
0.135185
0.136135
0.1369
0.137448
0.137727
0.137688
0.13723
0.1362
0.134353
0.129658
0.119196
0.108565
0.0979415
0.0874598
0.0772293
0.0673419
0.0578784
0.0489134
0.0405179
0.0327777
0.0257336
0.0194816
0.0141013
0.0096619
0.00620617
0.00371311
0.00206897
0.00108096
0.000535188
0.000255355
0.000118774
5.41342e-05
2.42682e-05
1.07293e-05
4.68764e-06
2.02649e-06
8.66843e-07
3.65836e-07
1.50837e-07
5.90623e-08
2.00623e-08
3.54218e-09
4.4968e-07
1.96506e-06
4.51237e-06
8.77738e-06
1.58792e-05
2.76222e-05
4.68739e-05
7.81174e-05
0.000128227
0.00020751
0.000331019
0.000520055
0.000803646
0.00121957
0.00181428
0.00264103
0.0037557
0.00521061
0.00704751
0.00929176
0.0119492
0.0150068
0.0184353
0.022194
0.0262351
0.0305075
0.0349597
0.039542
0.0442078
0.0489145
0.0536236
0.0583016
0.0629196
0.0674531
0.0718819
0.0761898
0.0803641
0.0843955
0.0882774
0.0920056
0.0955781
0.0989944
0.102255
0.105363
0.10832
0.111129
0.113795
0.116321
0.11871
0.120967
0.123095
0.125096
0.126971
0.128723
0.130349
0.131848
0.133214
0.134439
0.135513
0.136418
0.137133
0.137628
0.137862
0.137806
0.137399
0.136594
0.135373
0.126335
0.115631
0.104902
0.0942695
0.0838419
0.0737134
0.0639676
0.0546798
0.0459205
0.0377583
0.0302987
0.023536
0.0175933
0.0125424
0.00844332
0.00531984
0.00312267
0.00171123
0.000882713
0.00043323
0.00020593
9.56046e-05
4.3547e-05
1.95248e-05
8.63758e-06
3.77713e-06
1.63451e-06
6.99843e-07
2.95593e-07
1.21944e-07
4.77639e-08
1.62264e-08
2.86442e-09
4.56329e-07
1.99414e-06
4.57939e-06
8.9085e-06
1.61182e-05
2.80416e-05
4.7592e-05
7.93243e-05
0.000130222
0.000210754
0.000336203
0.000528184
0.000816127
0.00123829
0.00184166
0.00267997
0.00380946
0.00528258
0.00714096
0.00940958
0.0120938
0.0151798
0.0186379
0.0224269
0.0264986
0.0308013
0.0352835
0.039895
0.044589
0.0493225
0.054057
0.0587586
0.0633983
0.0679514
0.0723976
0.0767206
0.0809077
0.0849497
0.0888399
0.0925742
0.0961507
0.0995688
0.10283
0.105935
0.108887
0.111691
0.114349
0.116865
0.119243
0.121487
0.123599
0.125583
0.12744
0.12917
0.130773
0.132244
0.133578
0.134765
0.135793
0.13664
0.13728
0.137669
0.137765
0.137497
0.136768
0.13545
0.133364
0.122808
0.112097
0.101389
0.0908122
0.0804754
0.0704704
0.0608782
0.0517716
0.0432195
0.0352893
0.0280679
0.0215835
0.015937
0.0111959
0.00741069
0.00458593
0.00264586
0.001429
0.000729189
0.00035532
0.000168381
7.80449e-05
3.55255e-05
1.59273e-05
7.04842e-06
3.08391e-06
1.33539e-06
5.72128e-07
2.41771e-07
9.97709e-08
3.90841e-08
1.32778e-08
2.34333e-09
4.62684e-07
2.02195e-06
4.64348e-06
9.03395e-06
1.63471e-05
2.84436e-05
4.82814e-05
8.04847e-05
0.000132144
0.000213884
0.000341215
0.000536058
0.000828242
0.0012565
0.00186834
0.00271797
0.00386199
0.00535299
0.00723245
0.00952495
0.0122353
0.0153492
0.0188362
0.0226546
0.0267558
0.0310878
0.0355987
0.040238
0.0449586
0.0497173
0.0544754
0.0591989
0.0638584
0.0684292
0.0728909
0.0772271
0.0814253
0.0854763
0.0893733
0.0931124
0.0966915
0.10011
0.10337
0.106472
0.109419
0.112216
0.114865
0.117371
0.119738
0.121968
0.124066
0.126033
0.127871
0.12958
0.131159
0.132603
0.133907
0.135059
0.136044
0.13684
0.137414
0.137712
0.137688
0.137236
0.136211
0.134384
0.130037
0.119502
0.108816
0.0981533
0.0876489
0.077412
0.0675339
0.0580938
0.0491632
0.0408096
0.0331002
0.0260972
0.0198734
0.0145018
0.0100455
0.00654447
0.00398346
0.00226313
0.00120687
0.00061004
0.000295827
0.000139776
6.46777e-05
2.94173e-05
1.31856e-05
5.83574e-06
2.55418e-06
1.10648e-06
4.74252e-07
2.00473e-07
8.27416e-08
3.2414e-08
1.10114e-08
1.94276e-09
4.68711e-07
2.04833e-06
4.70431e-06
9.15307e-06
1.65646e-05
2.8826e-05
4.89378e-05
8.15911e-05
0.000133978
0.000216877
0.000346013
0.000543607
0.000839872
0.001274
0.001894
0.00275454
0.00391257
0.00542079
0.00732053
0.00963599
0.0123714
0.0155119
0.0190265
0.022873
0.0270022
0.031362
0.0358998
0.0405652
0.0453106
0.0500926
0.0548724
0.0596156
0.064293
0.0688796
0.073355
0.0777027
0.0819104
0.0859687
0.0898712
0.0936138
0.0971944
0.100613
0.10387
0.106968
0.10991
0.1127
0.11534
0.117836
0.120191
0.122408
0.12449
0.126441
0.12826
0.129949
0.131504
0.132923
0.134198
0.135319
0.136271
0.137032
0.137574
0.13785
0.137829
0.137436
0.136587
0.135176
0.127347
0.116661
0.105923
0.0952718
0.0848235
0.0746767
0.0649163
0.0556171
0.0468475
0.0386729
0.0311823
0.0243901
0.0183983
0.013274
0.00907361
0.00582485
0.00349281
0.00195767
0.00103264
0.000517829
0.000250118
0.000117892
5.44721e-05
2.47564e-05
1.10926e-05
4.90916e-06
2.14889e-06
9.31099e-07
3.99162e-07
1.68752e-07
6.96491e-08
2.7283e-08
9.26748e-09
1.63453e-09
4.74358e-07
2.07304e-06
4.76131e-06
9.26477e-06
1.67686e-05
2.9185e-05
4.95546e-05
8.26316e-05
0.000135705
0.000219697
0.00035054
0.000550735
0.000850862
0.00129055
0.00191827
0.00278915
0.00396043
0.00548493
0.00740382
0.00974094
0.0125
0.0156655
0.019206
0.0230787
0.0272341
0.0316196
0.0361824
0.0408717
0.0456398
0.050443
0.0552424
0.0600034
0.0646967
0.0692973
0.0737846
0.0781422
0.0823577
0.0864221
0.0903288
0.0940737
0.097655
0.101072
0.104327
0.107421
0.110357
0.113139
0.115771
0.118256
0.120599
0.122803
0.124871
0.126805
0.128606
0.130274
0.131806
0.133197
0.134441
0.135526
0.136435
0.137147
0.137632
0.137848
0.137761
0.137304
0.136403
0.134995
0.124827
0.114076
0.103324
0.0926988
0.082311
0.0722528
0.0626042
0.0534366
0.0448158
0.0368057
0.0294994
0.0229029
0.0171263
0.0122274
0.00825678
0.00523027
0.00309499
0.00171446
0.000896007
0.000446302
0.000214854
0.000101059
4.6635e-05
2.11788e-05
9.48585e-06
4.19742e-06
1.83734e-06
7.96157e-07
3.41333e-07
1.44302e-07
5.95518e-08
2.33245e-08
7.92195e-09
1.39672e-09
4.79566e-07
2.09584e-06
4.81389e-06
9.36782e-06
1.69569e-05
2.95166e-05
5.01247e-05
8.35941e-05
0.000137304
0.00022231
0.000354737
0.000557348
0.000861062
0.00130592
0.00194082
0.00282129
0.00400488
0.00554446
0.0074811
0.00983824
0.0126191
0.0158077
0.019372
0.0232688
0.027448
0.031857
0.0364425
0.0411535
0.045942
0.0507643
0.0555811
0.0603579
0.0650651
0.0696777
0.0741752
0.0785412
0.0827634
0.0868327
0.0907425
0.094489
0.0980702
0.101486
0.104737
0.107827
0.110757
0.113532
0.116155
0.118631
0.120963
0.123154
0.125208
0.127126
0.128909
0.130556
0.132065
0.133429
0.134639
0.135682
0.136537
0.137179
0.137561
0.137643
0.137357
0.136603
0.13525
0.133088
0.122459
0.111702
0.100973
0.0903989
0.0800842
0.0701186
0.0605799
0.0515373
0.0430549
0.0351952
0.0280326
0.021616
0.0160372
0.0113428
0.00757607
0.00474265
0.00277423
0.00152145
0.000788947
0.000390761
0.000187589
8.80741e-05
4.05961e-05
1.84227e-05
8.24777e-06
3.64869e-06
1.59696e-06
6.91959e-07
2.96644e-07
1.25396e-07
5.17403e-08
2.02615e-08
6.88077e-09
1.2127e-09
4.8427e-07
2.11643e-06
4.86141e-06
9.46097e-06
1.71273e-05
2.98167e-05
5.06409e-05
8.44662e-05
0.000138753
0.000224681
0.000358546
0.000563354
0.00087033
0.00131988
0.00196131
0.0028505
0.00404525
0.00559852
0.00755122
0.00992648
0.0127271
0.0159365
0.0195222
0.0234405
0.0276413
0.0320712
0.0366769
0.0414072
0.0462138
0.0510529
0.055885
0.0606755
0.0653948
0.0700177
0.0745238
0.0788968
0.0831244
0.0871976
0.0911098
0.0948571
0.0984377
0.101851
0.1051
0.108184
0.111109
0.113877
0.116492
0.118959
0.121281
0.123461
0.125502
0.127406
0.129173
0.130803
0.132291
0.133632
0.134814
0.135824
0.136637
0.137224
0.137529
0.137513
0.137079
0.136105
0.134417
0.130998
0.12037
0.109628
0.0989328
0.0884103
0.0781655
0.0682862
0.0588484
0.0499203
0.0415655
0.0338464
0.0268237
0.0205672
0.01514
0.0106147
0.00701985
0.00434867
0.00251841
0.00136938
0.000705409
0.00034771
0.000166519
7.80535e-05
3.59374e-05
1.62961e-05
7.29196e-06
3.22477e-06
1.4111e-06
6.11328e-07
2.62037e-07
1.10746e-07
4.56851e-08
1.78868e-08
6.07355e-09
1.07004e-09
4.88413e-07
2.13457e-06
4.90326e-06
9.54305e-06
1.72774e-05
3.00813e-05
5.10965e-05
8.52363e-05
0.000140034
0.000226777
0.000361917
0.00056867
0.000878535
0.00133224
0.00197945
0.00287635
0.00408098
0.00564634
0.00761323
0.0100045
0.0128224
0.0160501
0.0196546
0.0235919
0.0278115
0.0322597
0.0368831
0.0416301
0.0464524
0.0513059
0.0561511
0.0609534
0.0656828
0.0703145
0.0748278
0.0792065
0.0834385
0.0875146
0.0914284
0.0951761
0.0987558
0.102167
0.105412
0.108493
0.111412
0.114174
0.116782
0.119241
0.121553
0.123724
0.125754
0.127646
0.129401
0.131017
0.132491
0.133816
0.134982
0.135974
0.13677
0.137339
0.13763
0.137605
0.137173
0.136218
0.134583
0.129369
0.11868
0.10792
0.0972363
0.0867501
0.0765607
0.0667529
0.0574003
0.04857
0.0403248
0.0327291
0.0258528
0.0197295
0.0144274
0.0100294
0.00657444
0.00403551
0.00231695
0.00125068
0.000640649
0.000314489
0.00015029
7.03401e-05
3.23506e-05
1.46579e-05
6.55507e-06
2.89763e-06
1.26754e-06
5.4899e-07
2.3526e-07
9.94034e-08
4.09952e-08
1.60472e-08
5.44823e-09
9.59534e-10
4.91941e-07
2.15001e-06
4.93891e-06
9.613e-06
1.74054e-05
3.03071e-05
5.14854e-05
8.58942e-05
0.000141129
0.00022857
0.000364801
0.00057322
0.000885561
0.00134283
0.00199498
0.0028985
0.00411157
0.00568727
0.00766627
0.0100711
0.0129039
0.0161472
0.0197677
0.0237211
0.0279566
0.0324204
0.0370587
0.0418198
0.0466553
0.0515209
0.0563771
0.061189
0.065927
0.0705658
0.0750849
0.0794681
0.0837035
0.0877819
0.0916968
0.0954445
0.0990231
0.102433
0.105675
0.108751
0.111666
0.114422
0.117024
0.119475
0.12178
0.123942
0.125964
0.127847
0.129592
0.131198
0.132662
0.133977
0.135136
0.136123
0.13692
0.137499
0.137816
0.137842
0.137502
0.136707
0.135338
0.128172
0.117372
0.106563
0.0958714
0.0854049
0.075255
0.0655014
0.0562151
0.0474614
0.0393044
0.0318045
0.0250138
0.0190029
0.0138387
0.00955972
0.00621755
0.00378784
0.00215949
0.00115878
0.00059084
0.000289048
0.000137881
6.44439e-05
2.96076e-05
1.34041e-05
5.9905e-06
2.64674e-06
1.15733e-06
5.01087e-07
2.14667e-07
9.06753e-08
3.73848e-08
1.46308e-08
4.96678e-09
8.74457e-10
4.9481e-07
2.16257e-06
4.96791e-06
9.66993e-06
1.75097e-05
3.04911e-05
5.18026e-05
8.64312e-05
0.000142024
0.000230035
0.000367159
0.000576944
0.000891312
0.0013515
0.0020077
0.00291662
0.00413661
0.00572077
0.00770968
0.0101257
0.0129705
0.0162265
0.0198601
0.0238267
0.0280751
0.0325515
0.0372019
0.0419744
0.0468205
0.0516959
0.0565608
0.0613805
0.0661251
0.0707695
0.0752931
0.07968
0.0839179
0.0879979
0.0919135
0.0956609
0.0992384
0.102646
0.105885
0.108959
0.111869
0.114621
0.117217
0.119663
0.121961
0.124116
0.12613
0.128005
0.129742
0.13134
0.132796
0.134104
0.135256
0.136239
0.137036
0.137621
0.137952
0.138005
0.137715
0.136999
0.135755
0.127147
0.116296
0.105468
0.0947804
0.0843365
0.0742243
0.0645212
0.0552953
0.0466095
0.038523
0.0310895
0.0243676
0.0184377
0.013362
0.00919229
0.00594446
0.00359773
0.00203932
0.00108903
0.000553156
0.000269973
0.000128565
6.00122e-05
2.75431e-05
1.24593e-05
5.56463e-06
2.45729e-06
1.07402e-06
4.64852e-07
1.9908e-07
8.40662e-08
3.46503e-08
1.35581e-08
4.60217e-09
8.10031e-10
4.96984e-07
2.17209e-06
4.98991e-06
9.71313e-06
1.75889e-05
3.0631e-05
5.20439e-05
8.68401e-05
0.000142706
0.000231153
0.00036896
0.000579789
0.000895708
0.00135813
0.00201743
0.00293049
0.00415576
0.0057464
0.00774288
0.0101674
0.0130215
0.0162872
0.0199307
0.0239073
0.0281656
0.0326516
0.0373112
0.0420923
0.0469465
0.0518291
0.0567006
0.061526
0.0662755
0.070924
0.0754509
0.0798403
0.0840802
0.0881612
0.0920772
0.0958242
0.0994008
0.102807
0.106044
0.109114
0.112021
0.114769
0.117361
0.119802
0.122095
0.124244
0.126252
0.12812
0.12985
0.13144
0.132888
0.134188
0.135332
0.136306
0.137094
0.13767
0.137995
0.13804
0.137742
0.137019
0.135774
0.126299
0.115439
0.104617
0.0939474
0.0835314
0.0734544
0.0637889
0.0546026
0.0459575
0.0379125
0.0305322
0.0238751
0.018012
0.0130058
0.00890764
0.00573916
0.00345782
0.00195104
0.00103794
0.000525629
0.000256087
0.000121789
5.67884e-05
2.60403e-05
1.17711e-05
5.25422e-06
2.31913e-06
1.01326e-06
4.38415e-07
1.87707e-07
7.92447e-08
3.26562e-08
1.27761e-08
4.33647e-09
7.63094e-10
4.98435e-07
2.17845e-06
5.00458e-06
9.74195e-06
1.76417e-05
3.07243e-05
5.22051e-05
8.71135e-05
0.000143162
0.000231902
0.000370168
0.000581698
0.000898661
0.00136259
0.00202398
0.00293983
0.00416868
0.00576369
0.0077653
0.0101956
0.013056
0.0163282
0.0199786
0.0239619
0.028227
0.0327194
0.0373851
0.0421721
0.0470316
0.051919
0.0567947
0.0616237
0.0663762
0.0710271
0.0755562
0.0799476
0.0841888
0.0882706
0.0921868
0.0959335
0.0995092
0.102914
0.106149
0.109218
0.112122
0.114867
0.117455
0.119892
0.122181
0.124326
0.126329
0.128192
0.129916
0.1315
0.13294
0.134232
0.135366
0.136329
0.137103
0.137662
0.137964
0.13798
0.137642
0.136865
0.135553
0.125662
0.114816
0.10401
0.0933599
0.0829651
0.07291
0.0632709
0.0541147
0.0455034
0.0374977
0.0301579
0.0235436
0.0177257
0.0127668
0.0087172
0.00559636
0.00336206
0.00189135
0.00100345
0.000507025
0.000246708
0.000117217
5.46161e-05
2.50297e-05
1.13089e-05
5.04602e-06
2.22657e-06
9.7259e-07
4.20741e-07
1.80114e-07
7.60297e-08
3.13283e-08
1.22561e-08
4.15998e-09
7.31935e-10
4.99153e-07
2.18159e-06
5.01183e-06
9.75616e-06
1.76677e-05
3.07702e-05
5.22842e-05
8.72474e-05
0.000143385
0.000232267
0.000370757
0.000582627
0.000900097
0.00136475
0.00202716
0.00294437
0.00417495
0.00577209
0.00777621
0.0102093
0.0130728
0.0163484
0.020002
0.0239888
0.0282572
0.0327529
0.0374218
0.0422117
0.0470738
0.0519636
0.0568413
0.0616719
0.0664256
0.0710777
0.0756079
0.0800003
0.0842425
0.0883247
0.092241
0.0959876
0.0995628
0.102967
0.106201
0.109268
0.112172
0.114915
0.117501
0.119936
0.122223
0.124365
0.126365
0.128225
0.129945
0.131525
0.13296
0.134247
0.135374
0.136329
0.137092
0.137638
0.137922
0.137915
0.137546
0.136729
0.135371
0.125322
0.114479
0.103682
0.0930445
0.0826644
0.0726262
0.0630045
0.0538664
0.0452743
0.0372888
0.0299702
0.0233781
0.0175834
0.0126487
0.00862362
0.0055268
0.00331414
0.00186161
0.000986366
0.000497829
0.000242077
0.000114963
5.35458e-05
2.45318e-05
1.10812e-05
4.94339e-06
2.1809e-06
9.525e-07
4.11999e-07
1.76353e-07
7.44351e-08
3.0669e-08
1.19976e-08
4.07216e-09
7.16424e-10
4.99154e-07
2.18159e-06
5.01184e-06
9.75617e-06
1.76677e-05
3.07702e-05
5.22841e-05
8.72473e-05
0.000143384
0.000232267
0.000370755
0.000582624
0.00090009
0.00136474
0.00202714
0.00294434
0.0041749
0.00577202
0.00777611
0.0102092
0.0130726
0.0163481
0.0200018
0.0239886
0.0282569
0.0327526
0.0374214
0.0422113
0.0470734
0.0519632
0.0568409
0.0616716
0.0664253
0.0710773
0.0756074
0.0799997
0.0842418
0.0883241
0.0922403
0.0959868
0.0995621
0.102966
0.1062
0.109268
0.112171
0.114914
0.117501
0.119935
0.122222
0.124364
0.126364
0.128224
0.129944
0.131524
0.13296
0.134246
0.135374
0.136329
0.137093
0.137638
0.137921
0.137914
0.137543
0.136725
0.135367
0.125318
0.114474
0.103677
0.0930394
0.0826596
0.0726219
0.0630007
0.053863
0.0452714
0.0372862
0.029968
0.0233761
0.0175817
0.0126473
0.00862254
0.00552603
0.00331364
0.00186131
0.0009862
0.000497741
0.00024203
0.000114938
5.35339e-05
2.45264e-05
1.10788e-05
4.9423e-06
2.18042e-06
9.52287e-07
4.11906e-07
1.76312e-07
7.44178e-08
3.06617e-08
1.19947e-08
4.07116e-09
7.16243e-10
4.98438e-07
2.17846e-06
5.00461e-06
9.742e-06
1.76418e-05
3.07244e-05
5.22051e-05
8.71134e-05
0.000143161
0.0002319
0.000370164
0.00058169
0.000898645
0.00136256
0.00202393
0.00293975
0.00416855
0.0057635
0.00776503
0.0101952
0.0130555
0.0163277
0.0199779
0.0239612
0.0282261
0.0327184
0.0373841
0.042171
0.0470304
0.0519179
0.0567935
0.0616225
0.066375
0.0710257
0.0755547
0.0799459
0.084187
0.0882687
0.0921848
0.0959314
0.0995071
0.102912
0.106147
0.109215
0.11212
0.114864
0.117453
0.11989
0.122179
0.124323
0.126326
0.12819
0.129914
0.131498
0.132939
0.134231
0.135366
0.136329
0.137104
0.137663
0.137964
0.137977
0.137636
0.136855
0.135543
0.125649
0.114801
0.103994
0.0933447
0.0829509
0.0728973
0.0632595
0.0541045
0.0454945
0.0374898
0.0301509
0.0235375
0.0177204
0.0127625
0.00871387
0.00559409
0.00336083
0.00189058
0.00100301
0.000506791
0.000246591
0.000117158
5.45881e-05
2.50167e-05
1.1303e-05
5.04334e-06
2.22537e-06
9.72056e-07
4.20505e-07
1.8001e-07
7.59848e-08
3.13093e-08
1.22484e-08
4.15729e-09
7.3145e-10
4.96991e-07
2.17212e-06
4.98997e-06
9.71323e-06
1.7589e-05
3.06312e-05
5.20442e-05
8.68405e-05
0.000142706
0.000231152
0.000368958
0.000579782
0.000895693
0.0013581
0.00201738
0.0029304
0.00415561
0.00574616
0.00774254
0.0101669
0.0130209
0.0162864
0.0199298
0.0239063
0.0281644
0.0326503
0.0373097
0.0420907
0.0469448
0.0518273
0.0566987
0.061524
0.0662734
0.0709218
0.0754486
0.0798378
0.0840775
0.0881584
0.0920741
0.095821
0.0993974
0.102803
0.10604
0.10911
0.112017
0.114765
0.117357
0.119797
0.12209
0.124239
0.126247
0.128116
0.129846
0.131436
0.132885
0.134185
0.135329
0.136305
0.137092
0.137668
0.137991
0.138033
0.13773
0.137003
0.135762
0.126279
0.115417
0.104593
0.0939244
0.0835093
0.0734334
0.0637696
0.0545851
0.0459418
0.0378988
0.0305201
0.0238645
0.0180029
0.0129982
0.00890161
0.00573475
0.00345471
0.00194915
0.00103689
0.000525089
0.00025583
0.000121666
5.67314e-05
2.60147e-05
1.17596e-05
5.24913e-06
2.31688e-06
1.01226e-06
4.37978e-07
1.87516e-07
7.91621e-08
3.26213e-08
1.27621e-08
4.33159e-09
7.62216e-10
4.94821e-07
2.16262e-06
4.96802e-06
9.67013e-06
1.751e-05
3.04916e-05
5.18034e-05
8.64323e-05
0.000142025
0.000230036
0.000367159
0.00057694
0.0008913
0.00135147
0.00200765
0.00291652
0.00413644
0.00572051
0.00770929
0.0101251
0.0129698
0.0162256
0.019859
0.0238254
0.0280736
0.0325498
0.0372
0.0419723
0.0468183
0.0516935
0.0565583
0.0613778
0.0661222
0.0707665
0.0752899
0.0796766
0.0839143
0.0879941
0.0919094
0.0956565
0.0992338
0.102641
0.10588
0.108953
0.111863
0.114615
0.117211
0.119656
0.121954
0.124109
0.126123
0.127998
0.129735
0.131333
0.132789
0.134098
0.13525
0.136234
0.13703
0.137615
0.137945
0.137996
0.137703
0.136986
0.135749
0.127119
0.116266
0.105437
0.0947499
0.0843071
0.0741962
0.0644947
0.0552705
0.0465867
0.0385028
0.0310718
0.0243522
0.0184243
0.0133509
0.00918356
0.00593796
0.00359321
0.00203656
0.0010875
0.000552369
0.000269602
0.000128388
5.99313e-05
2.75063e-05
1.24427e-05
5.55724e-06
2.454e-06
1.07257e-06
4.64211e-07
1.98799e-07
8.39445e-08
3.45989e-08
1.35374e-08
4.59496e-09
8.08735e-10
4.91959e-07
2.15009e-06
4.93908e-06
9.61333e-06
1.7406e-05
3.03081e-05
5.14869e-05
8.58964e-05
0.000141132
0.000228574
0.000364805
0.000573223
0.000885558
0.00134282
0.00199494
0.00289841
0.00411141
0.00568702
0.00766588
0.0100706
0.0129031
0.0161462
0.0197665
0.0237197
0.0279549
0.0324184
0.0370565
0.0418173
0.0466526
0.0515181
0.056374
0.0611858
0.0659235
0.0705621
0.0750809
0.0794639
0.0836991
0.0877771
0.0916917
0.095439
0.0990172
0.102426
0.105668
0.108744
0.111658
0.114414
0.117016
0.119467
0.121772
0.123933
0.125955
0.127837
0.129582
0.131188
0.132652
0.133967
0.135125
0.136112
0.136909
0.137489
0.137805
0.137832
0.137493
0.1367
0.135336
0.128127
0.117329
0.106522
0.0958325
0.0853687
0.0752215
0.0654705
0.0561865
0.0474348
0.0392796
0.0317819
0.0249933
0.0189852
0.0138239
0.00954781
0.00620854
0.00378175
0.00215577
0.00115673
0.000589791
0.000288542
0.000137648
6.43386e-05
2.95592e-05
1.33821e-05
5.9806e-06
2.64231e-06
1.15535e-06
5.00212e-07
2.14282e-07
9.05084e-08
3.73141e-08
1.46024e-08
4.95687e-09
8.72675e-10
4.88439e-07
2.13468e-06
4.90351e-06
9.54354e-06
1.72783e-05
3.00828e-05
5.10988e-05
8.524e-05
0.00014004
0.000226785
0.000361927
0.000568681
0.000878545
0.00133225
0.00197943
0.0028763
0.00408086
0.00564612
0.00761287
0.0100039
0.0128217
0.0160491
0.0196533
0.0235904
0.0278096
0.0322575
0.0368806
0.0416274
0.0464494
0.0513027
0.0561477
0.0609496
0.0656789
0.0703103
0.0748233
0.0792016
0.0834333
0.087509
0.0914224
0.0951696
0.0987488
0.10216
0.105404
0.108484
0.111403
0.114165
0.116772
0.11923
0.121542
0.123712
0.125742
0.127634
0.129388
0.131004
0.132477
0.133801
0.134966
0.135958
0.136753
0.137323
0.137614
0.137591
0.137161
0.136209
0.134568
0.1293
0.11862
0.107865
0.0971867
0.0867047
0.0765191
0.0667147
0.0573654
0.0485381
0.0402956
0.0327025
0.0258293
0.019709
0.0144098
0.0100155
0.00656404
0.00402827
0.00231242
0.00124813
0.000639323
0.00031384
0.000149996
7.02071e-05
3.22898e-05
1.46299e-05
6.54228e-06
2.89186e-06
1.26495e-06
5.47838e-07
2.34752e-07
9.91827e-08
4.09016e-08
1.60096e-08
5.43512e-09
9.57176e-10
4.84306e-07
2.11659e-06
4.86176e-06
9.46165e-06
1.71285e-05
2.98188e-05
5.06443e-05
8.44717e-05
0.000138762
0.000224693
0.000358564
0.000563377
0.000870358
0.00131991
0.00196132
0.00285049
0.00404519
0.00559837
0.00755094
0.00992602
0.0127264
0.0159355
0.0195209
0.023439
0.0276394
0.032069
0.0366744
0.0414043
0.0462107
0.0510495
0.0558812
0.0606715
0.0653904
0.0700131
0.0745188
0.0788914
0.0831186
0.0871913
0.091103
0.0948497
0.0984297
0.101843
0.10509
0.108175
0.111099
0.113866
0.116481
0.118947
0.121268
0.123447
0.125488
0.127391
0.129158
0.130786
0.132274
0.133613
0.134795
0.135803
0.136616
0.137203
0.137509
0.137493
0.13706
0.136084
0.134379
0.130924
0.120305
0.109568
0.098877
0.0883581
0.0781165
0.0682404
0.0588058
0.0498811
0.0415299
0.0338147
0.0267965
0.0205434
0.01512
0.010598
0.00700693
0.00433959
0.00251268
0.00136612
0.000703706
0.000346873
0.000166145
7.78846e-05
3.58611e-05
1.62605e-05
7.27561e-06
3.21734e-06
1.40776e-06
6.09838e-07
2.61379e-07
1.1046e-07
4.55641e-08
1.78382e-08
6.05664e-09
1.067e-09
4.79613e-07
2.09604e-06
4.81436e-06
9.36872e-06
1.69586e-05
2.95194e-05
5.01294e-05
8.36017e-05
0.000137316
0.000222328
0.000354763
0.000557385
0.000861111
0.00130598
0.00194088
0.00282134
0.00400489
0.00554441
0.00748092
0.0098379
0.0126186
0.0158069
0.0193708
0.0232673
0.0274462
0.0318548
0.0364399
0.0411506
0.0459388
0.0507607
0.0555772
0.0603537
0.0650605
0.0696728
0.0741699
0.0785354
0.0827571
0.0868259
0.0907351
0.0944809
0.0980614
0.101476
0.104727
0.107816
0.110745
0.113519
0.116142
0.118617
0.120948
0.123139
0.125192
0.127109
0.128891
0.130538
0.132045
0.133408
0.134617
0.135659
0.136514
0.137154
0.137535
0.137616
0.137328
0.136568
0.1352
0.133023
0.122398
0.111638
0.10091
0.090338
0.0800264
0.0700644
0.0605294
0.0514906
0.0430122
0.0351565
0.0279965
0.0215844
0.0160102
0.0113207
0.00755921
0.00473088
0.00276681
0.00151722
0.000786736
0.000389675
0.000187109
8.78598e-05
4.05009e-05
1.83781e-05
8.22714e-06
3.63928e-06
1.59271e-06
6.90062e-07
2.95807e-07
1.25033e-07
5.1587e-08
2.02001e-08
6.85944e-09
1.20886e-09
4.74418e-07
2.07331e-06
4.76191e-06
9.26592e-06
1.67707e-05
2.91886e-05
4.95607e-05
8.26415e-05
0.000135721
0.000219722
0.000350577
0.000550788
0.000850934
0.00129065
0.00191839
0.00278927
0.00396054
0.00548499
0.00740379
0.00974077
0.0124996
0.0156649
0.0192051
0.0230774
0.0272324
0.0316175
0.0361799
0.0408688
0.0456366
0.0504394
0.0552384
0.0599991
0.064692
0.0692921
0.073779
0.0781361
0.0823511
0.0864149
0.0903209
0.0940651
0.0976456
0.101062
0.104316
0.107409
0.110344
0.113126
0.115757