/*--------------------------------*- C++ -*----------------------------------*\
  =========                 |
  \\      /  F ield         | OpenFOAM: The Open Source CFD Toolbox
   \\    /   O peration     | Website:  https://openfoam.org
    \\  /    A nd           | Version:  8
     \\/     M anipulation  |
\*---------------------------------------------------------------------------*/
FoamFile
{
    version     2.0;
    format      ascii;
    class       volScalarField;
    location    "140/fluid";
    object      H2O;
}
// * * * * * * * * * * * * * * * * * * * * * * * * * * * * * * * * * * * * * //

dimensions      [0 0 0 0 0 0 0];

internalField   nonuniform List<scalar> 
4000
(
3.24035e-07
1.41457e-06
3.24195e-06
6.28997e-06
1.13471e-05
1.96855e-05
3.33332e-05
5.54776e-05
9.10444e-05
0.000147493
0.00023585
0.000371944
0.000577687
0.000882093
0.00132152
0.00193848
0.00277858
0.0038855
0.00529508
0.00702996
0.00909661
0.0114853
0.0141724
0.0171248
0.0203032
0.023666
0.0271718
0.0307811
0.0344575
0.038168
0.0418834
0.0455782
0.0492307
0.0528228
0.0563394
0.0597685
0.0631007
0.0663288
0.0694474
0.072453
0.0753437
0.0781189
0.0807789
0.0833246
0.0857578
0.0880804
0.0902949
0.0924037
0.0944095
0.0963148
0.0981221
0.0998336
0.101451
0.102976
0.104408
0.105749
0.106996
0.108147
0.109198
0.110142
0.110971
0.111672
0.112228
0.112616
0.112802
0.112751
0.112398
0.111658
0.110399
0.105105
0.0967428
0.0883062
0.0798958
0.0715962
0.0634802
0.0556115
0.0480477
0.0408427
0.0340498
0.0277315
0.0219275
0.0167128
0.0121628
0.00835231
0.00534418
0.00315378
0.00171069
0.000857637
0.000404746
0.000183948
8.13755e-05
3.53098e-05
1.51075e-05
6.39415e-06
2.68006e-06
1.10995e-06
4.50004e-07
1.7373e-07
5.84048e-08
1.02645e-08
3.28738e-07
1.43587e-06
3.29398e-06
6.39925e-06
1.15615e-05
2.00883e-05
3.40641e-05
5.67614e-05
9.32273e-05
0.000151081
0.000241539
0.000380623
0.000590394
0.000899911
0.00134539
0.00196902
0.00281585
0.00392898
0.00534381
0.00708284
0.00915281
0.0115445
0.0142351
0.017192
0.0203764
0.023747
0.0272622
0.0308824
0.0345705
0.0382931
0.0420205
0.045727
0.0493904
0.0529923
0.0565176
0.059954
0.0632922
0.0665251
0.0696473
0.0726551
0.0755471
0.0783225
0.0809818
0.083526
0.085957
0.0882768
0.0904878
0.0925928
0.0945942
0.0964949
0.0982971
0.100003
0.101615
0.103133
0.104559
0.105893
0.107131
0.108273
0.109314
0.110246
0.111061
0.111745
0.112282
0.112649
0.112816
0.112754
0.112416
0.111753
0.110712
0.10381
0.0953134
0.0867839
0.0783042
0.0699502
0.0617908
0.0538889
0.0463028
0.039089
0.0323045
0.0260366
0.0202944
0.0151873
0.0107966
0.00720087
0.00445284
0.00253568
0.00133278
0.000653664
0.000306508
0.000139549
6.219e-05
2.72779e-05
1.18174e-05
5.06744e-06
2.15185e-06
9.025e-07
3.70225e-07
1.44404e-07
4.89229e-08
8.63274e-09
3.36203e-07
1.469e-06
3.37226e-06
6.55688e-06
1.18569e-05
2.06183e-05
3.49841e-05
5.83133e-05
9.57733e-05
0.000155143
0.000247836
0.000390094
0.000604204
0.000919402
0.001372
0.00200409
0.00286049
0.00398388
0.00540913
0.00715839
0.00923819
0.0116394
0.0143396
0.0173066
0.020502
0.0238849
0.027414
0.0310495
0.034754
0.0384939
0.0422389
0.0459628
0.0496431
0.053261
0.056801
0.0602506
0.0636003
0.0668429
0.0699728
0.0729868
0.075883
0.078661
0.0813213
0.0838652
0.0862944
0.0886113
0.0908183
0.0929182
0.0949137
0.0968076
0.0986023
0.1003
0.101903
0.103411
0.104826
0.106147
0.107372
0.108498
0.109519
0.110428
0.111214
0.111861
0.112349
0.112646
0.11272
0.112524
0.111995
0.111062
0.109665
0.101366
0.0928347
0.0842641
0.0757521
0.0673821
0.0592273
0.0513535
0.0438225
0.0366944
0.0300304
0.0239251
0.0183877
0.013534
0.00943942
0.00616759
0.00373972
0.00209705
0.00109261
0.000534647
0.000251112
0.000114619
5.11954e-05
2.24883e-05
9.74796e-06
4.17926e-06
1.77356e-06
7.4328e-07
3.04736e-07
1.18834e-07
4.02625e-08
7.1053e-09
3.43411e-07
1.50059e-06
3.44522e-06
6.69973e-06
1.21165e-05
2.10702e-05
3.57469e-05
5.9569e-05
9.77938e-05
0.000158324
0.000252735
0.000397476
0.000615071
0.000935013
0.00139384
0.00203382
0.00289981
0.00403443
0.00547239
0.0072356
0.00933036
0.0117474
0.0144642
0.0174485
0.020662
0.0240637
0.0276122
0.0312676
0.0349926
0.0387531
0.0425187
0.0462628
0.0499627
0.0535991
0.0571562
0.0606215
0.063985
0.0672395
0.0703794
0.0734013
0.0763035
0.0790856
0.0817482
0.0842925
0.0867205
0.0890346
0.0912375
0.0933319
0.0953207
0.0972067
0.0989924
0.10068
0.102271
0.103768
0.105169
0.106474
0.107682
0.108788
0.109786
0.110668
0.111419
0.112023
0.112453
0.112671
0.112633
0.112261
0.111439
0.109976
0.106869
0.0984278
0.0898403
0.0812358
0.0727175
0.0643714
0.0562718
0.0484856
0.0410756
0.0341038
0.0276365
0.0217301
0.0164604
0.0119041
0.00813061
0.00518832
0.00307018
0.00168397
0.000862477
0.000417514
0.000195399
8.916e-05
3.9897e-05
1.75802e-05
7.64985e-06
3.29329e-06
1.40324e-06
5.90248e-07
2.42753e-07
9.48947e-08
3.22049e-08
5.6873e-09
3.50221e-07
1.53039e-06
3.51388e-06
6.83393e-06
1.23605e-05
2.14961e-05
3.64707e-05
6.07725e-05
9.97561e-05
0.000161462
0.000257652
0.000405016
0.000626365
0.000951502
0.00141726
0.00206615
0.00294313
0.00409076
0.00554358
0.0073232
0.00943565
0.0118714
0.0146078
0.0176125
0.0208471
0.0242705
0.0278412
0.0315193
0.035267
0.0390502
0.0428381
0.046604
0.0503246
0.0539805
0.0575558
0.0610376
0.0644158
0.0676829
0.0708333
0.0738638
0.0767726
0.0795593
0.0822245
0.0847695
0.0871965
0.0895079
0.0917064
0.0937949
0.0957764
0.0976538
0.0994296
0.101106
0.102685
0.104167
0.105553
0.106841
0.108029
0.109113
0.110085
0.110937
0.111654
0.112219
0.112604
0.112778
0.112709
0.112344
0.111628
0.110513
0.10397
0.0953418
0.0866564
0.0780167
0.0695118
0.0612203
0.0532122
0.0455518
0.0383004
0.0315183
0.0252967
0.0196398
0.014655
0.0104107
0.00696593
0.00434826
0.00251952
0.00135835
0.000687518
0.000331231
0.000154751
7.06123e-05
3.16249e-05
1.3952e-05
6.07878e-06
2.62007e-06
1.11756e-06
4.70488e-07
1.93624e-07
7.57224e-08
2.57045e-08
4.53916e-09
3.56515e-07
1.5579e-06
3.57711e-06
6.95718e-06
1.2584e-05
2.18856e-05
3.71318e-05
6.18719e-05
0.000101551
0.000164341
0.000262186
0.000412016
0.000636946
0.000967132
0.00143978
0.00209774
0.0029862
0.00414779
0.00561692
0.00741494
0.00954749
0.0120047
0.0147635
0.0177913
0.0210496
0.024497
0.0280919
0.031794
0.0355657
0.0393724
0.0431832
0.0469709
0.0507123
0.0543877
0.0579808
0.0614787
0.0648711
0.0681503
0.071311
0.0743497
0.0772647
0.0800556
0.0827231
0.0852686
0.0876942
0.0900024
0.0921961
0.0942783
0.096252
0.0981201
0.0998852
0.101549
0.103115
0.104581
0.10595
0.107219
0.108385
0.109443
0.110385
0.111201
0.111873
0.11238
0.112688
0.112763
0.112549
0.111974
0.110946
0.109361
0.100801
0.0921026
0.0833892
0.0747622
0.066309
0.0581053
0.0502188
0.0427122
0.0356453
0.029078
0.0230884
0.017701
0.0130092
0.00907548
0.00594784
0.00363216
0.00206144
0.00109258
0.000546259
0.000261719
0.000121963
5.56157e-05
2.49242e-05
1.10108e-05
4.80578e-06
2.07531e-06
8.86814e-07
3.73943e-07
1.54085e-07
6.0312e-08
2.04836e-08
3.61724e-09
3.62472e-07
1.58394e-06
3.63706e-06
7.07425e-06
1.27968e-05
2.22579e-05
3.77667e-05
6.29339e-05
0.000103297
0.000167161
0.000266661
0.00041898
0.000647553
0.000982916
0.00146268
0.00213004
0.00303046
0.00420666
0.00569293
0.00751033
0.00966412
0.012144
0.0149265
0.0179788
0.0212619
0.0247343
0.0283542
0.0320811
0.0358771
0.0397074
0.0435408
0.0473501
0.0511117
0.0548057
0.0584158
0.0619288
0.0653344
0.0686249
0.0717949
0.0748409
0.0777613
0.0805557
0.0832248
0.08577
0.0881936
0.0904981
0.0926864
0.0947617
0.096727
0.0985852
0.100339
0.10199
0.103541
0.104992
0.106342
0.10759
0.108733
0.109764
0.110675
0.111453
0.112079
0.112527
0.112756
0.112724
0.112349
0.111506
0.109994
0.10615
0.0975847
0.0888814
0.0801839
0.0716026
0.0632269
0.0551322
0.0473846
0.0400449
0.0331717
0.0268348
0.0210679
0.0159494
0.0115446
0.00791011
0.00508094
0.00303989
0.00169385
0.000884974
0.000438153
0.000209057
9.72392e-05
4.43192e-05
1.98681e-05
8.784e-06
3.83773e-06
1.65907e-06
7.09677e-07
2.99507e-07
1.23489e-07
4.83538e-08
1.64248e-08
2.89995e-09
3.68149e-07
1.60877e-06
3.69423e-06
7.18597e-06
1.30002e-05
2.26141e-05
3.83753e-05
6.3954e-05
0.000104978
0.000169887
0.000271003
0.000425765
0.000657938
0.00099845
0.00148533
0.00216219
0.00307476
0.00426588
0.00576973
0.00760708
0.00978274
0.012286
0.0150928
0.0181701
0.0214784
0.0249762
0.0286212
0.0323727
0.0361926
0.0400458
0.0439012
0.047731
0.0515118
0.0552233
0.0588491
0.0623759
0.0657934
0.0690939
0.0722719
0.0753242
0.078249
0.0810459
0.0837156
0.0862598
0.0886805
0.0909806
0.093163
0.0952309
0.0971872
0.099035
0.100777
0.102415
0.10395
0.105384
0.106716
0.107942
0.109061
0.110064
0.110943
0.111684
0.11227
0.112675
0.112867
0.11282
0.112488
0.111828
0.110829
0.10343
0.0946661
0.0858822
0.0771776
0.0686406
0.0603485
0.0523697
0.0447659
0.0375947
0.0309124
0.0248053
0.0192687
0.0144034
0.0102684
0.00691247
0.0043553
0.0025565
0.00140097
0.000722669
0.000354681
0.000168593
7.82706e-05
3.56516e-05
1.59848e-05
7.07151e-06
3.09231e-06
1.33816e-06
5.72955e-07
2.42e-07
9.98346e-08
3.91039e-08
1.32844e-08
2.34507e-09
3.73593e-07
1.63259e-06
3.74911e-06
7.29331e-06
1.31959e-05
2.29574e-05
3.89632e-05
6.49421e-05
0.000106612
0.000172543
0.000275247
0.000432419
0.000668156
0.00101378
0.00150775
0.00219406
0.00311877
0.0043248
0.00584624
0.00770354
0.00990107
0.0124276
0.0152587
0.0183607
0.0216941
0.0252168
0.0288863
0.0326617
0.0365046
0.0403799
0.044256
0.0481052
0.0519036
0.0556312
0.0592713
0.0628105
0.0662384
0.0695476
0.0727324
0.0757897
0.0787177
0.0815161
0.0841856
0.0867279
0.0891452
0.0914403
0.0936162
0.095676
0.097623
0.09946
0.10119
0.102814
0.104334
0.105751
0.107062
0.108267
0.109359
0.110331
0.111172
0.111866
0.11239
0.112709
0.112787
0.112568
0.111971
0.110892
0.109184
0.100542
0.0917727
0.083006
0.0743471
0.0658845
0.0576935
0.0498404
0.042385
0.0353834
0.0288911
0.022979
0.0176702
0.0130475
0.00916597
0.00606707
0.00375446
0.00216614
0.00116991
0.00059698
0.000290898
0.000137852
6.38947e-05
2.90844e-05
1.30396e-05
5.77048e-06
2.52477e-06
1.09327e-06
4.68396e-07
1.97936e-07
8.16816e-08
3.19978e-08
1.08705e-08
1.91846e-09
3.78795e-07
1.65535e-06
3.80158e-06
7.39602e-06
1.33832e-05
2.32865e-05
3.95276e-05
6.58921e-05
0.000108185
0.000175105
0.00027935
0.000438866
0.000678074
0.00102869
0.00152959
0.00222518
0.00316178
0.00438244
0.00592114
0.00779799
0.0100169
0.0125662
0.015421
0.0185471
0.0219047
0.0254513
0.0291443
0.0329425
0.0368072
0.0407032
0.0445986
0.0484656
0.0522803
0.0560224
0.0596751
0.0632252
0.0666622
0.0699787
0.0731691
0.0762303
0.0791605
0.0819594
0.0846278
0.0871675
0.0895807
0.0918703
0.0940393
0.0960909
0.0980282
0.0998543
0.101572
0.103182
0.104687
0.106086
0.107379
0.108561
0.109628
0.110572
0.111378
0.11203
0.1125
0.112744
0.112724
0.112354
0.111515
0.110019
0.10646
0.0978349
0.0890866
0.0803572
0.0717574
0.0633765
0.0552894
0.0475609
0.0402495
0.0334105
0.0270988
0.0213655
0.0162701
0.0118725
0.00822416
0.0053579
0.00326123
0.00185281
0.00098805
0.000499435
0.000242191
0.000114433
5.29511e-05
2.40837e-05
1.07949e-05
4.77767e-06
2.09108e-06
9.05864e-07
3.88266e-07
1.64126e-07
6.77398e-08
2.65371e-08
9.01493e-09
1.59052e-09
3.8373e-07
1.67695e-06
3.85137e-06
7.49354e-06
1.35613e-05
2.35996e-05
4.0065e-05
6.67979e-05
0.000109687
0.000177555
0.000283278
0.000445047
0.000687596
0.00104302
0.0015506
0.00225512
0.00320319
0.00443795
0.00599325
0.0078889
0.0101284
0.0126995
0.0155769
0.0187259
0.0221065
0.0256758
0.0293909
0.0332104
0.0370954
0.0410104
0.0449235
0.0488068
0.0526361
0.0563911
0.0600551
0.0636145
0.0670593
0.0703819
0.0735768
0.0766408
0.0795722
0.0823709
0.0850376
0.087574
0.0899827
0.0922664
0.0944282
0.0964714
0.0983991
0.100214
0.101919
0.103516
0.105006
0.106388
0.107661
0.108823
0.109867
0.110785
0.111564
0.112187
0.112631
0.112857
0.11284
0.112518
0.111822
0.110668
0.104258
0.0955092
0.0867182
0.0779981
0.0694442
0.0611372
0.0531464
0.0455332
0.0383536
0.0316612
0.0255287
0.0199679
0.0150625
0.0108673
0.00742849
0.00476875
0.00285953
0.00160272
0.000845415
0.000423942
0.000204769
9.65167e-05
4.45959e-05
2.02678e-05
9.08142e-06
4.01908e-06
1.75928e-06
7.62283e-07
3.26791e-07
1.38155e-07
5.70211e-08
2.23364e-08
7.58721e-09
1.33818e-09
3.88353e-07
1.69718e-06
3.89805e-06
7.58498e-06
1.37283e-05
2.38935e-05
4.05699e-05
6.76497e-05
0.0001111
0.000179864
0.000286984
0.000450882
0.000696593
0.00105656
0.00157047
0.00228345
0.00324237
0.00449046
0.00606145
0.00797483
0.0102337
0.0128252
0.0157238
0.0188944
0.0222963
0.0258867
0.0296222
0.0334613
0.0373649
0.0412973
0.0452264
0.0491243
0.0529666
0.056733
0.0604068
0.0639743
0.0674255
0.070753
0.0739514
0.0770173
0.0799493
0.082747
0.0854115
0.0879444
0.0903483
0.092626
0.0947807
0.0968155
0.0987337
0.100538
0.102231
0.103814
0.105289
0.106654
0.107908
0.109047
0.110066
0.110954
0.111698
0.112281
0.112678
0.112855
0.112784
0.112409
0.111672
0.110519
0.102195
0.0933933
0.0845901
0.0758917
0.0673873
0.0591527
0.0512535
0.043748
0.0366903
0.0301325
0.0241509
0.0187504
0.0140212
0.0100104
0.00675975
0.00428197
0.00253384
0.00140361
0.000733553
0.000365383
0.000175899
8.27358e-05
3.81797e-05
1.73389e-05
7.76598e-06
3.43639e-06
1.50421e-06
6.51807e-07
2.79446e-07
1.18139e-07
4.87545e-08
1.90956e-08
6.48563e-09
1.14348e-09
3.92616e-07
1.71584e-06
3.94109e-06
7.66935e-06
1.38825e-05
2.4165e-05
4.10366e-05
6.84377e-05
0.000112409
0.000182003
0.00029042
0.000456296
0.000704944
0.00106914
0.00158893
0.00230977
0.00327876
0.0045392
0.00612471
0.00805448
0.0103312
0.0129416
0.0158597
0.0190499
0.0224715
0.026081
0.0298351
0.033692
0.0376123
0.0415603
0.0455037
0.0494145
0.0532682
0.0570446
0.0607266
0.064301
0.0677577
0.0710892
0.0742901
0.0773573
0.0802892
0.0830856
0.0857475
0.0882767
0.0906758
0.0929475
0.0950952
0.097122
0.0990311
0.100825
0.102507
0.104077
0.105537
0.106885
0.10812
0.109237
0.110228
0.111081
0.111782
0.112307
0.11262
0.112687
0.112453
0.111836
0.110728
0.108958
0.100256
0.0914494
0.082666
0.0740088
0.0655642
0.0574055
0.0495962
0.0421931
0.0352487
0.028814
0.02295
0.0176968
0.0131295
0.00928622
0.00620246
0.00388276
0.00227124
0.0012456
0.000645904
0.000319913
0.000153578
7.21055e-05
3.32357e-05
1.50825e-05
6.75237e-06
2.98715e-06
1.30742e-06
5.66501e-07
2.4286e-07
1.0266e-07
4.23594e-08
1.65879e-08
5.63322e-09
9.92826e-10
3.96468e-07
1.7327e-06
3.97999e-06
7.74561e-06
1.4022e-05
2.44106e-05
4.14593e-05
6.91517e-05
0.000113596
0.000183944
0.000293539
0.000461213
0.000712532
0.00108058
0.0016057
0.00233368
0.00331181
0.00458346
0.00618212
0.00812672
0.0104196
0.013047
0.0159826
0.0191906
0.0226297
0.0262564
0.0300271
0.0338997
0.0378349
0.0417966
0.0457525
0.0496745
0.0535381
0.0573229
0.061012
0.0645921
0.0680532
0.0713879
0.0745908
0.0776587
0.08059
0.0833849
0.0860441
0.0885696
0.090964
0.0932302
0.0953713
0.0973907
0.0992914
0.101076
0.102747
0.104306
0.105753
0.107087
0.108306
0.109403
0.110371
0.111198
0.111864
0.112344
0.112594
0.11258
0.112225
0.111428
0.110046
0.107247
0.0985459
0.0897517
0.0809954
0.0723808
0.0639934
0.0559053
0.0481787
0.0408693
0.0340293
0.0277097
0.0219604
0.0168382
0.012395
0.00869015
0.00574709
0.00356022
0.0020618
0.0011211
0.000577512
0.000284667
0.000136328
6.39017e-05
2.94216e-05
1.33415e-05
5.96987e-06
2.64009e-06
1.15526e-06
5.00489e-07
2.14527e-07
9.06665e-08
3.7402e-08
1.46437e-08
4.97236e-09
8.76032e-10
3.9986e-07
1.74755e-06
4.01425e-06
7.81281e-06
1.41449e-05
2.46273e-05
4.18322e-05
6.97822e-05
0.000114645
0.00018566
0.000296298
0.000465565
0.000719249
0.0010907
0.00162055
0.00235485
0.00334106
0.00462261
0.00623288
0.00819056
0.0104976
0.0131401
0.0160911
0.0193145
0.022769
0.0264107
0.0301958
0.0340822
0.0380302
0.0420037
0.0459704
0.049902
0.053774
0.0575659
0.0612609
0.0648456
0.0683103
0.0716475
0.0748517
0.0779198
0.0808505
0.0836436
0.0863002
0.0888222
0.0912122
0.0934733
0.0956086
0.0976213
0.0995147
0.101291
0.102954
0.104503
0.10594
0.107263
0.108469
0.109554
0.110509
0.111321
0.111972
0.112438
0.112677
0.112656
0.112302
0.111521
0.110182
0.105913
0.0971625
0.0883529
0.0796065
0.0710215
0.0626796
0.05465
0.0469931
0.0397638
0.0330136
0.026795
0.0211655
0.0161524
0.0118116
0.00821101
0.00538244
0.00330384
0.00189686
0.00102392
0.000524494
0.00025747
0.000123041
5.75868e-05
2.64852e-05
1.20003e-05
5.36658e-06
2.37227e-06
1.03772e-06
4.49454e-07
1.92605e-07
8.13807e-08
3.35624e-08
1.31377e-08
4.46042e-09
7.85562e-10
4.02748e-07
1.7602e-06
4.04344e-06
7.87008e-06
1.42497e-05
2.48122e-05
4.21506e-05
7.03208e-05
0.000115541
0.000187128
0.000298659
0.000469291
0.000725001
0.00109937
0.00163327
0.00237297
0.0033661
0.00465612
0.00627631
0.00824516
0.0105643
0.0132195
0.0161836
0.0194203
0.0228878
0.0265423
0.0303396
0.0342375
0.0381963
0.0421797
0.0461554
0.0500949
0.0539738
0.0577716
0.0614713
0.0650599
0.0685274
0.0718663
0.0750714
0.0781395
0.0810693
0.0838607
0.0865149
0.0890337
0.0914199
0.0936764
0.0958065
0.0978135
0.0997006
0.10147
0.103125
0.104667
0.106096
0.107411
0.108609
0.109686
0.110634
0.111443
0.112095
0.11257
0.112829
0.11285
0.112572
0.111921
0.1108
0.104933
0.0960914
0.087242
0.078489
0.0699202
0.0616106
0.0536254
0.0460228
0.0388562
0.0321782
0.0260381
0.0204786
0.0155575
0.0113296
0.00782646
0.00509026
0.00310107
0.00176795
0.000948685
0.000483715
0.000236641
0.000112882
5.27597e-05
2.42395e-05
1.09738e-05
4.90437e-06
2.16686e-06
9.47492e-07
4.10236e-07
1.75746e-07
7.42351e-08
3.06066e-08
1.19781e-08
4.06626e-09
7.15911e-10
4.05097e-07
1.77048e-06
4.06719e-06
7.91669e-06
1.4335e-05
2.49628e-05
4.24103e-05
7.07604e-05
0.000116274
0.000188328
0.00030059
0.000472339
0.000729709
0.00110646
0.00164369
0.00238781
0.0033866
0.00468354
0.00631184
0.00828981
0.0106189
0.0132845
0.0162593
0.0195067
0.0229849
0.0266496
0.0304568
0.0343641
0.0383316
0.042323
0.0463058
0.0502517
0.054136
0.0579384
0.0616418
0.0652333
0.0687029
0.0720431
0.0752488
0.0783167
0.0812456
0.0840355
0.0866874
0.0892034
0.0915862
0.0938388
0.0959645
0.0979667
0.0998484
0.101613
0.103261
0.104797
0.106219
0.107527
0.108719
0.10979
0.110733
0.111538
0.11219
0.112669
0.11294
0.112983
0.112746
0.11216
0.111142
0.104094
0.0952109
0.0863454
0.0775959
0.0690456
0.0607668
0.0528229
0.0452697
0.0381587
0.0315384
0.0254527
0.0199496
0.0150947
0.0109393
0.00752564
0.00486668
0.00294543
0.00166957
0.00089158
0.000452864
0.000221024
0.000105255
4.91314e-05
2.25493e-05
1.02003e-05
4.55571e-06
2.01176e-06
8.79294e-07
3.80571e-07
1.62985e-07
6.88242e-08
2.83679e-08
1.10999e-08
3.76775e-09
6.63165e-10
4.06876e-07
1.77827e-06
4.08519e-06
7.95205e-06
1.43998e-05
2.50773e-05
4.26079e-05
7.10952e-05
0.000116832
0.000189243
0.000302065
0.000474668
0.000733308
0.00111189
0.00165165
0.00239917
0.00340229
0.00470452
0.00633902
0.00832396
0.0106606
0.0133342
0.0163171
0.0195727
0.023059
0.0267316
0.0305463
0.0344606
0.0384347
0.042432
0.0464202
0.0503708
0.0542591
0.0580648
0.061771
0.0653646
0.0688357
0.0721768
0.0753828
0.0784505
0.0813785
0.084167
0.0868171
0.0893308
0.0917108
0.0939602
0.0960823
0.0980805
0.0999578
0.101717
0.103361
0.104891
0.106307
0.107609
0.108794
0.109859
0.110795
0.111593
0.112238
0.11271
0.112975
0.113012
0.112768
0.112176
0.111157
0.1034
0.0945093
0.0856487
0.0769139
0.0683864
0.0601365
0.0522234
0.0447027
0.037625
0.0310386
0.0249964
0.0195463
0.0147462
0.0106478
0.00729261
0.0046986
0.00283089
0.0015973
0.000849754
0.000430328
0.000209656
9.97078e-05
4.64922e-05
2.1319e-05
9.63687e-06
4.30158e-06
1.89865e-06
8.29546e-07
3.58927e-07
1.53674e-07
6.48769e-08
2.67353e-08
1.04596e-08
3.55023e-09
6.24738e-10
4.08064e-07
1.78348e-06
4.09721e-06
7.97565e-06
1.44431e-05
2.51537e-05
4.27398e-05
7.13191e-05
0.000117205
0.000189856
0.000303053
0.000476231
0.000735726
0.00111554
0.00165702
0.00240682
0.00341286
0.00471868
0.00635738
0.00834705
0.0106888
0.0133678
0.0163563
0.0196174
0.0231092
0.0267871
0.0306069
0.0345259
0.0385043
0.0425057
0.0464973
0.0504508
0.0543416
0.0581493
0.0618572
0.0654524
0.0689247
0.0722664
0.0754725
0.0785399
0.0814673
0.0842547
0.0869034
0.0894154
0.0917934
0.0940404
0.0961598
0.0981549
0.100029
0.101785
0.103424
0.10495
0.106361
0.107658
0.108837
0.109894
0.110823
0.111611
0.112245
0.112703
0.11295
0.112963
0.112687
0.112051
0.110976
0.102878
0.0939985
0.0851518
0.076433
0.0679228
0.0596908
0.0517994
0.0443032
0.0372532
0.030699
0.02469
0.019275
0.0145119
0.0104521
0.0071367
0.00458169
0.00275249
0.00154843
0.000821513
0.000415097
0.000201977
9.59644e-05
4.47137e-05
2.04916e-05
9.2585e-06
4.13113e-06
1.82288e-06
7.96251e-07
3.44457e-07
1.47457e-07
6.22448e-08
2.56482e-08
1.00339e-08
3.40574e-09
5.99228e-10
4.08652e-07
1.78605e-06
4.10314e-06
7.98728e-06
1.44644e-05
2.51913e-05
4.28046e-05
7.14287e-05
0.000117388
0.000190155
0.000303535
0.000476992
0.000736901
0.00111731
0.00165962
0.00241053
0.003418
0.00472556
0.00636631
0.0083583
0.0107026
0.0133843
0.0163755
0.0196394
0.0231339
0.0268145
0.0306369
0.0345583
0.0385389
0.0425421
0.0465355
0.0504903
0.0543821
0.0581907
0.0618996
0.0654956
0.0689686
0.0723107
0.0755169
0.0785842
0.0815112
0.0842981
0.086946
0.089457
0.0918338
0.0940795
0.0961974
0.0981908
0.100063
0.101817
0.103454
0.104977
0.106385
0.107678
0.108854
0.109906
0.110829
0.111611
0.112236
0.112683
0.112915
0.112909
0.112607
0.111939
0.110827
0.1026
0.0937231
0.0848835
0.0761747
0.0676766
0.0594584
0.0515812
0.0441
0.0370657
0.030528
0.0245364
0.0191395
0.0143954
0.0103553
0.00706009
0.00452474
0.00271326
0.00152408
0.000807529
0.000407568
0.000198187
9.4119e-05
4.38375e-05
2.0084e-05
9.07209e-06
4.04711e-06
1.78549e-06
7.79804e-07
3.373e-07
1.44378e-07
6.09394e-08
2.51084e-08
9.8223e-09
3.33384e-09
5.8653e-10
4.08653e-07
1.78605e-06
4.10315e-06
7.98729e-06
1.44644e-05
2.51913e-05
4.28046e-05
7.14286e-05
0.000117388
0.000190155
0.000303534
0.000476989
0.000736896
0.0011173
0.0016596
0.0024105
0.00341796
0.0047255
0.00636623
0.00835819
0.0107024
0.0133841
0.0163753
0.0196392
0.0231337
0.0268143
0.0306366
0.034558
0.0385386
0.0425418
0.0465352
0.05049
0.0543818
0.0581903
0.0618991
0.0654951
0.068968
0.0723101
0.0755163
0.0785836
0.0815106
0.0842975
0.0869454
0.0894564
0.0918331
0.0940788
0.0961967
0.0981901
0.100062
0.101816
0.103453
0.104976
0.106384
0.107678
0.108853
0.109906
0.110829
0.111611
0.112236
0.112683
0.112915
0.112909
0.112605
0.111935
0.110824
0.102597
0.0937189
0.0848791
0.0761705
0.0676727
0.0594549
0.0515781
0.0440972
0.0370633
0.0305259
0.0245345
0.0191378
0.014394
0.0103542
0.0070592
0.00452411
0.00271285
0.00152384
0.000807394
0.000407497
0.000198147
9.40986e-05
4.38277e-05
2.00796e-05
9.0701e-06
4.04622e-06
1.78509e-06
7.79629e-07
3.37224e-07
1.44345e-07
6.09252e-08
2.51025e-08
9.81994e-09
3.33302e-09
5.86382e-10
4.08067e-07
1.78349e-06
4.09723e-06
7.97569e-06
1.44432e-05
2.51538e-05
4.27399e-05
7.1319e-05
0.000117205
0.000189855
0.00030305
0.000476224
0.000735713
0.00111552
0.00165698
0.00240675
0.00341276
0.00471853
0.00635716
0.00834675
0.0106884
0.0133673
0.0163557
0.0196168
0.0231084
0.0267863
0.030606
0.034525
0.0385034
0.0425047
0.0464964
0.0504498
0.0543406
0.0581481
0.061856
0.065451
0.0689232
0.0722648
0.0754709
0.0785382
0.0814656
0.0842529
0.0869016
0.0894135
0.0917913
0.0940383
0.0961577
0.0981528
0.100027
0.101783
0.103422
0.104948
0.106359
0.107656
0.108836
0.109894
0.110823
0.111612
0.112246
0.112703
0.11295
0.112961
0.112681
0.112042
0.110968
0.102868
0.0939864
0.085139
0.0764205
0.0679112
0.0596803
0.05179
0.0442949
0.0372459
0.0306926
0.0246843
0.01927
0.0145076
0.0104486
0.00713397
0.00457983
0.00275148
0.0015478
0.000821155
0.000414905
0.000201882
9.59166e-05
4.46908e-05
2.04809e-05
9.25364e-06
4.12894e-06
1.82189e-06
7.95814e-07
3.44264e-07
1.47373e-07
6.22081e-08
2.56326e-08
1.00276e-08
3.40354e-09
5.98832e-10
4.06882e-07
1.7783e-06
4.08524e-06
7.95214e-06
1.44e-05
2.50775e-05
4.26081e-05
7.10955e-05
0.000116832
0.000189242
0.000302063
0.000474662
0.000733296
0.00111187
0.00165161
0.00239909
0.00340216
0.00470433
0.00633875
0.00832358
0.0106601
0.0133336
0.0163164
0.0195718
0.023058
0.0267305
0.0305451
0.0344593
0.0384333
0.0424306
0.0464187
0.0503691
0.0542574
0.058063
0.0617691
0.0653625
0.0688335
0.0721745
0.0753803
0.0784478
0.0813757
0.0841641
0.086814
0.0893276
0.0917075
0.0939568
0.0960788
0.0980768
0.0999541
0.101714
0.103357
0.104887
0.106304
0.107606
0.108792
0.109856
0.110793
0.111591
0.112236
0.112708
0.112972
0.113006
0.112758
0.112163
0.111147
0.103383
0.094491
0.0856297
0.0768951
0.0683683
0.0601193
0.0522076
0.0446884
0.0376122
0.0310274
0.0249865
0.0195377
0.0147388
0.0106415
0.00728767
0.00469499
0.00282834
0.00159575
0.000848889
0.000429886
0.000209446
9.96066e-05
4.64455e-05
2.1298e-05
9.62751e-06
4.29742e-06
1.89681e-06
8.28731e-07
3.58568e-07
1.53518e-07
6.48093e-08
2.67068e-08
1.04482e-08
3.54623e-09
6.2402e-10
4.05106e-07
1.77052e-06
4.06728e-06
7.91685e-06
1.43353e-05
2.49632e-05
4.2411e-05
7.07613e-05
0.000116275
0.000188328
0.00030059
0.000472336
0.000729699
0.00110644
0.00164364
0.00238773
0.00338647
0.00468333
0.00631153
0.00828937
0.0106183
0.0132838
0.0162584
0.0195056
0.0229836
0.0266482
0.0304553
0.0343624
0.0383297
0.042321
0.0463038
0.0502495
0.0541337
0.0579359
0.0616392
0.0652305
0.0686999
0.07204
0.0752454
0.0783131
0.0812418
0.0840314
0.0866831
0.089199
0.0915815
0.0938339
0.0959595
0.0979614
0.099843
0.101607
0.103256
0.104791
0.106213
0.107521
0.108714
0.109785
0.110728
0.111533
0.112185
0.112664
0.112934
0.112976
0.112736
0.112149
0.111137
0.104071
0.0951862
0.0863202
0.0775709
0.0690215
0.0607438
0.0528012
0.0452495
0.0381402
0.0315219
0.0254382
0.0199369
0.0150838
0.0109303
0.0075185
0.00486135
0.00294173
0.00166732
0.000890329
0.00045222
0.000220721
0.00010511
4.90652e-05
2.25192e-05
1.01868e-05
4.54966e-06
2.00907e-06
8.78103e-07
3.80045e-07
1.62755e-07
6.87246e-08
2.83258e-08
1.1083e-08
3.76185e-09
6.62104e-10
4.02763e-07
1.76026e-06
4.04358e-06
7.87035e-06
1.42502e-05
2.48129e-05
4.21519e-05
7.03227e-05
0.000115544
0.000187131
0.000298662
0.000469292
0.000724998
0.00109935
0.00163324
0.0023729
0.00336598
0.00465591
0.00627599
0.00824469
0.0105637
0.0132187
0.0161826
0.0194191
0.0228864
0.0265406
0.0303378
0.0342355
0.0381941
0.0421774
0.0461529
0.0500922
0.053971
0.0577685
0.0614681
0.0650564
0.0685237
0.0718624
0.0750672
0.078135
0.0810645
0.0838556
0.0865095
0.089028
0.0914138
0.09367
0.0957998
0.0978066
0.0996934
0.101463
0.103118
0.104659
0.106088
0.107402
0.108601
0.109678
0.110626
0.111434
0.112086
0.112561
0.11282
0.112841
0.112564
0.111915
0.110799
0.104896
0.0960561
0.0872083
0.0784572
0.0698906
0.0615832
0.0536001
0.0459994
0.0388345
0.0321578
0.0260195
0.0204618
0.015543
0.0113175
0.00781671
0.00508288
0.00309608
0.00176491
0.000947003
0.000482857
0.000236226
0.000112691
5.26735e-05
2.41998e-05
1.09558e-05
4.89627e-06
2.16323e-06
9.45876e-07
4.09519e-07
1.75431e-07
7.40984e-08
3.05487e-08
1.19549e-08
4.05815e-09
7.14451e-10
3.99881e-07
1.74764e-06
4.01446e-06
7.81321e-06
1.41456e-05
2.46285e-05
4.18342e-05
6.97852e-05
0.000114649
0.000185667
0.000296306
0.000465574
0.000719257
0.0010907
0.00162054
0.0023548
0.00334096
0.00462243
0.00623259
0.00819012
0.010497
0.0131392
0.01609
0.0193132
0.0227675
0.026409
0.0301939
0.03408
0.0380278
0.0420011
0.0459676
0.0498989
0.0537707
0.0575624
0.0612571
0.0648417
0.0683061
0.0716429
0.0748467
0.0779145
0.0808448
0.0836375
0.0862937
0.0888153
0.0912049
0.0934655
0.0956004
0.0976127
0.0995057
0.101282
0.102944
0.104493
0.105929
0.107252
0.108458
0.109542
0.110496
0.111307
0.111959
0.112425
0.112664
0.112645
0.112293
0.111513
0.110169
0.105857
0.0971131
0.0883084
0.0795659
0.0709844
0.0626455
0.0546187
0.0469645
0.0397377
0.0329897
0.0267733
0.0211462
0.0161356
0.0117972
0.00819957
0.00537392
0.00329791
0.00189316
0.00102183
0.000523408
0.000256938
0.000122801
5.7478e-05
2.64354e-05
1.19773e-05
5.3561e-06
2.36754e-06
1.0356e-06
4.4851e-07
1.92189e-07
8.12e-08
3.34858e-08
1.31069e-08
4.44969e-09
7.83632e-10
3.96497e-07
1.73283e-06
3.98028e-06
7.74617e-06
1.4023e-05
2.44124e-05
4.14621e-05
6.91562e-05
0.000113603
0.000183954
0.000293553
0.000461232
0.000712554
0.0010806
0.00160572
0.00233367
0.00331176
0.00458334
0.00618189
0.00812635
0.010419
0.0130463
0.0159816
0.0191893
0.0226281
0.0262546
0.030025
0.0338974
0.0378323
0.0417937
0.0457495
0.0496712
0.0535346
0.0573191
0.0610079
0.0645877
0.0680485
0.0713828
0.0745852
0.0776526
0.0805836
0.0833779
0.0860366
0.0885616
0.0909555
0.0932211
0.0953617
0.0973806
0.0992808
0.101065
0.102736
0.104294
0.10574
0.107074
0.108291
0.109388
0.110356
0.111181
0.111847
0.112327
0.112577
0.112564
0.11221
0.111411
0.110015
0.107186
0.0984926
0.0897027
0.0809497
0.072338
0.0639533
0.0558678
0.0481438
0.0408372
0.0340002
0.0276838
0.021938
0.0168187
0.0123786
0.00867649
0.00573651
0.00355278
0.00205711
0.00111843
0.000576118
0.000283982
0.000136022
6.37634e-05
2.93592e-05
1.33124e-05
5.95648e-06
2.63401e-06
1.15252e-06
4.99269e-07
2.13989e-07
9.04326e-08
3.7303e-08
1.4604e-08
4.95852e-09
8.73541e-10
3.92655e-07
1.71601e-06
3.94147e-06
7.67009e-06
1.38838e-05
2.41673e-05
4.10405e-05
6.84439e-05
0.000112419
0.000182018
0.000290441
0.000456326
0.000704984
0.00106919
0.00158898
0.00230981
0.00327877
0.00453916
0.00612457
0.0080542
0.0103307
0.012941
0.0158587
0.0190487
0.02247
0.0260792
0.0298331
0.0336896
0.0376097
0.0415574
0.0455006
0.049411
0.0532645
0.0570405
0.0607222
0.0642962
0.0677525
0.0710836
0.074284
0.0773507
0.080282
0.0830779
0.0857392
0.0882678
0.0906662
0.0929374
0.0950844
0.0971106
0.099019
0.100812
0.102493
0.104063
0.105522
0.10687
0.108104
0.10922
0.11021
0.111063
0.111762
0.112286
0.112599
0.112665
0.112429
0.111807
0.110687
0.108904
0.100206
0.0913973
0.0826143
0.073959
0.0655169
0.0573611
0.0495549
0.0421549
0.0352137
0.0287823
0.0229205
0.017671
0.0131074
0.00926814
0.00618866
0.00387313
0.00226516
0.00124213
0.000644094
0.000319023
0.000153185
7.19301e-05
3.31578e-05
1.5046e-05
6.73548e-06
2.97945e-06
1.30394e-06
5.64948e-07
2.42175e-07
1.02363e-07
4.22338e-08
1.65377e-08
5.61577e-09
9.8968e-10
3.88402e-07
1.6974e-06
3.89853e-06
7.58593e-06
1.373e-05
2.38965e-05
4.05749e-05
6.76579e-05
0.000111113
0.000179884
0.000287014
0.000450926
0.000696653
0.00105664