/*--------------------------------*- C++ -*----------------------------------*\
  =========                 |
  \\      /  F ield         | OpenFOAM: The Open Source CFD Toolbox
   \\    /   O peration     | Website:  https://openfoam.org
    \\  /    A nd           | Version:  8
     \\/     M anipulation  |
\*---------------------------------------------------------------------------*/
FoamFile
{
    version     2.0;
    format      ascii;
    class       volScalarField;
    location    "140/fluid";
    object      N2;
}
// * * * * * * * * * * * * * * * * * * * * * * * * * * * * * * * * * * * * * //

dimensions      [0 0 0 0 0 0 0];

internalField   nonuniform List<scalar> 
4000
(
2.33092e-06
1.01679e-05
2.3265e-05
4.50267e-05
8.09678e-05
0.000139933
0.000235938
0.000390881
0.0006384
0.00102913
0.00163749
0.00256959
0.00397144
0.00603498
0.00899891
0.0131399
0.0187516
0.0261109
0.0354399
0.0468716
0.0604324
0.0760439
0.0935407
0.112697
0.133252
0.154933
0.177472
0.200613
0.224124
0.247793
0.271435
0.29489
0.318021
0.340713
0.362873
0.384427
0.405317
0.425499
0.444943
0.463626
0.481537
0.498673
0.515038
0.530641
0.545494
0.559615
0.573022
0.585737
0.597783
0.609182
0.61996
0.630142
0.639751
0.648812
0.657351
0.66539
0.672953
0.680064
0.686744
0.693015
0.698899
0.704414
0.709582
0.714411
0.718868
0.723098
0.727045
0.730727
0.734164
0.737378
0.740477
0.743444
0.746279
0.748983
0.751552
0.753984
0.756275
0.75842
0.760411
0.762239
0.763898
0.765373
0.766649
0.76771
0.768542
0.769143
0.769537
0.769769
0.769891
0.769951
0.769978
0.769991
0.769996
0.769998
0.769999
0.77
0.77
0.77
0.77
0.77
2.35979e-06
1.02973e-05
2.35779e-05
4.5679e-05
8.22416e-05
0.000142319
0.000240256
0.000398442
0.000651202
0.00105005
0.0016704
0.00261928
0.00404322
0.00613394
0.00912874
0.0133017
0.0189427
0.0263254
0.0356695
0.0471083
0.0606712
0.0762843
0.0937878
0.11296
0.133544
0.155269
0.177864
0.201073
0.224659
0.248408
0.272131
0.295665
0.318871
0.341632
0.363853
0.38546
0.406395
0.426614
0.446085
0.464788
0.482712
0.499854
0.516219
0.531816
0.546659
0.560765
0.574154
0.586848
0.598869
0.610242
0.620993
0.631145
0.640724
0.649754
0.658262
0.666269
0.673802
0.680881
0.68753
0.69377
0.699622
0.705106
0.710241
0.715031
0.719436
0.723629
0.727547
0.731211
0.734637
0.737876
0.740985
0.743956
0.746794
0.749498
0.752067
0.754499
0.756787
0.758927
0.76091
0.762718
0.764355
0.765797
0.767028
0.768028
0.768786
0.769312
0.76964
0.769824
0.769918
0.769963
0.769983
0.769993
0.769997
0.769999
0.769999
0.77
0.77
0.77
0.77
0.77
2.40195e-06
1.04853e-05
2.4025e-05
4.65856e-05
8.39514e-05
0.000145403
0.000245631
0.000407529
0.00066612
0.00107383
0.00170713
0.00267427
0.00412283
0.00624528
0.009279
0.0134971
0.0191874
0.0266207
0.0360137
0.0474977
0.0611017
0.0767537
0.0942968
0.113514
0.134151
0.15594
0.178611
0.201909
0.225593
0.249448
0.27328
0.296925
0.320238
0.343102
0.36542
0.387113
0.408124
0.428408
0.447934
0.466678
0.484633
0.501795
0.518169
0.533766
0.548601
0.562691
0.576057
0.588722
0.600709
0.612043
0.622751
0.632857
0.642388
0.651368
0.659824
0.667779
0.675258
0.682285
0.688881
0.695069
0.700871
0.706306
0.711394
0.716113
0.720501
0.724664
0.728542
0.732161
0.735515
0.738747
0.741839
0.744796
0.747619
0.750306
0.752856
0.755263
0.757522
0.759626
0.761564
0.763319
0.764892
0.76626
0.767404
0.768313
0.768982
0.769431
0.769705
0.769856
0.769933
0.769969
0.769986
0.769994
0.769997
0.769999
0.77
0.77
0.77
0.77
0.77
0.77
2.44166e-06
1.06596e-05
2.44284e-05
4.73778e-05
8.53958e-05
0.000147923
0.000249893
0.000414551
0.00067741
0.00109157
0.00173437
0.00271513
0.00418268
0.00633071
0.00939764
0.0136572
0.0193973
0.0268881
0.0363452
0.047899
0.0615776
0.0773089
0.0949362
0.114243
0.134975
0.156866
0.179645
0.203056
0.226858
0.250834
0.274789
0.298555
0.321987
0.344963
0.367386
0.389176
0.410273
0.430632
0.450219
0.469014
0.487006
0.504193
0.520581
0.536181
0.551009
0.565082
0.578422
0.591054
0.603001
0.614289
0.624946
0.634997
0.644468
0.653387
0.661778
0.669668
0.67708
0.684038
0.690567
0.696687
0.702421
0.707791
0.712813
0.717422
0.721797
0.725887
0.729707
0.733277
0.736597
0.739802
0.74287
0.745801
0.748594
0.751248
0.753759
0.756122
0.758332
0.760378
0.762251
0.763941
0.765435
0.766715
0.767768
0.768583
0.769165
0.769544
0.769767
0.769888
0.769948
0.769976
0.769989
0.769995
0.769998
0.769999
0.77
0.77
0.77
0.77
0.77
0.77
2.47843e-06
1.08207e-05
2.48005e-05
4.81078e-05
8.67287e-05
0.000150261
0.000253883
0.000421209
0.0006883
0.00110901
0.00176174
0.00275709
0.00424543
0.0064221
0.00952702
0.013835
0.0196342
0.0271943
0.03673
0.0483699
0.0621411
0.0779705
0.0957014
0.115117
0.135964
0.157973
0.180877
0.204416
0.228348
0.252455
0.276541
0.300434
0.323988
0.347081
0.369612
0.391501
0.412685
0.433119
0.45277
0.471615
0.489645
0.506858
0.52326
0.538863
0.553681
0.567735
0.581047
0.593642
0.605545
0.616783
0.627382
0.637371
0.646777
0.655626
0.663945
0.67176
0.679095
0.685976
0.692425
0.698466
0.704118
0.709403
0.714321
0.718829
0.723131
0.727154
0.730917
0.734434
0.737744
0.740922
0.743959
0.746856
0.749611
0.752222
0.754685
0.756995
0.759144
0.761126
0.76292
0.764533
0.765941
0.767131
0.76809
0.768814
0.769316
0.769633
0.769815
0.769911
0.769958
0.769981
0.769992
0.769996
0.769998
0.769999
0.77
0.77
0.77
0.77
0.77
0.77
2.51163e-06
1.09659e-05
2.51353e-05
4.87629e-05
8.79222e-05
0.000152352
0.00025745
0.00042717
0.000698073
0.00112474
0.00178657
0.0027955
0.00430356
0.006508
0.00965073
0.0140083
0.0198702
0.0275063
0.0371305
0.04887
0.06275
0.0786956
0.0965485
0.116091
0.137068
0.159212
0.182252
0.205927
0.229997
0.254239
0.278456
0.302477
0.326152
0.349358
0.371994
0.393976
0.415244
0.435749
0.455459
0.474351
0.492414
0.509649
0.526061
0.541662
0.556468
0.5705
0.583781
0.596336
0.608191
0.619374
0.629913
0.639836
0.649172
0.657947
0.66619
0.673926
0.681182
0.687983
0.694353
0.700315
0.705892
0.711106
0.715914
0.720361
0.724614
0.728565
0.732246
0.735645
0.738928
0.742065
0.74506
0.747911
0.750618
0.753178
0.755585
0.757834
0.759918
0.761828
0.763549
0.76508
0.766403
0.767503
0.768372
0.76901
0.769441
0.769705
0.769853
0.76993
0.769967
0.769985
0.769993
0.769997
0.769999
0.769999
0.77
0.77
0.77
0.77
0.77
0.77
2.54262e-06
1.11016e-05
2.54486e-05
4.93776e-05
8.90466e-05
0.000154331
0.000260849
0.000432892
0.000707536
0.00114011
0.00181107
0.00283377
0.00436202
0.00659516
0.0097773
0.014187
0.020115
0.0278317
0.0375502
0.0493964
0.0633932
0.0794637
0.0974477
0.117126
0.138242
0.160527
0.183708
0.207524
0.231732
0.25611
0.280458
0.304602
0.328394
0.351708
0.374441
0.396511
0.417854
0.438424
0.458185
0.477116
0.495208
0.512459
0.528875
0.54447
0.559259
0.573265
0.58651
0.599021
0.610826
0.621951
0.632427
0.642282
0.651545
0.660244
0.668406
0.67606
0.683231
0.689946
0.696228
0.702102
0.707591
0.712716
0.717379
0.721823
0.725976
0.729851
0.73347
0.736829
0.740071
0.743167
0.746118
0.748923
0.75158
0.754085
0.756433
0.75862
0.760637
0.762472
0.764123
0.765574
0.766812
0.767827
0.768611
0.769173
0.769541
0.769761
0.769882
0.769944
0.769974
0.769988
0.769995
0.769998
0.769999
0.77
0.77
0.77
0.77
0.77
0.77
0.77
2.57185e-06
1.12296e-05
2.57445e-05
4.99587e-05
9.01111e-05
0.000156209
0.000264082
0.000438353
0.0007166
0.0011549
0.00183476
0.00287097
0.00441919
0.00668097
0.00990277
0.0143654
0.0203611
0.0281609
0.0379773
0.0499344
0.0640529
0.0802535
0.0983736
0.118192
0.139451
0.161878
0.185202
0.209158
0.233503
0.258012
0.282485
0.306748
0.330649
0.354062
0.376885
0.399033
0.420443
0.441068
0.460873
0.479836
0.497948
0.515208
0.531623
0.547206
0.561974
0.575949
0.589156
0.601621
0.613373
0.624439
0.634851
0.644637
0.653827
0.66245
0.670534
0.678108
0.685197
0.691828
0.698025
0.703812
0.70921
0.714224
0.718786
0.723164
0.727248
0.731057
0.734589
0.737936
0.74114
0.744195
0.747102
0.749861
0.752468
0.754919
0.757211
0.759337
0.76129
0.763053
0.764632
0.766008
0.767169
0.768103
0.768811
0.769305
0.769621
0.769805
0.769905
0.769955
0.769979
0.76999
0.769996
0.769998
0.769999
0.77
0.77
0.77
0.77
0.77
0.77
0.77
2.59967e-06
1.13516e-05
2.60264e-05
5.05134e-05
9.11293e-05
0.00015801
0.000267192
0.000443622
0.00072538
0.00116928
0.0018579
0.00290746
0.00447549
0.00676577
0.0100272
0.0145428
0.0206065
0.0284898
0.0384047
0.0504736
0.0647147
0.0810461
0.0993027
0.119261
0.140661
0.16323
0.186693
0.210786
0.235262
0.259897
0.284488
0.308861
0.332863
0.356367
0.379269
0.401486
0.422955
0.443626
0.463466
0.482453
0.500578
0.517841
0.534249
0.549815
0.564558
0.5785
0.591666
0.604083
0.61578
0.626787
0.637134
0.646851
0.65597
0.664518
0.672526
0.680021
0.687032
0.693585
0.699705
0.705418
0.710747
0.715645
0.720164
0.724477
0.72849
0.732229
0.735669
0.73898
0.742141
0.745151
0.748012
0.750723
0.753279
0.755678
0.757914
0.759982
0.761872
0.763573
0.765084
0.766389
0.767476
0.768337
0.768976
0.769412
0.769684
0.769839
0.769922
0.769963
0.769983
0.769992
0.769997
0.769998
0.769999
0.77
0.77
0.77
0.77
0.77
0.77
0.77
2.62606e-06
1.14673e-05
2.62942e-05
5.10407e-05
9.20984e-05
0.000159727
0.000270161
0.000448666
0.000733803
0.00118311
0.0018802
0.00294273
0.00453007
0.00684822
0.0101485
0.014716
0.0208466
0.0288122
0.0388242
0.0510032
0.065365
0.0818248
0.100215
0.12031
0.141848
0.164553
0.18815
0.212372
0.236973
0.261725
0.286426
0.310899
0.334993
0.358578
0.381551
0.403828
0.425346
0.446055
0.465922
0.484926
0.503059
0.520319
0.536715
0.552261
0.566975
0.580881
0.594004
0.606372
0.618015
0.628963
0.639247
0.648898
0.657946
0.666422
0.674356
0.681775
0.688709
0.695184
0.701226
0.706861
0.712111
0.716863
0.721406
0.725639
0.72958
0.733252
0.736648
0.739923
0.743045
0.746015
0.748834
0.751499
0.754009
0.756358
0.758542
0.760554
0.762386
0.764031
0.765478
0.766717
0.767738
0.768533
0.769111
0.769497
0.769733
0.769865
0.769935
0.769969
0.769986
0.769994
0.769997
0.769999
0.769999
0.77
0.77
0.77
0.77
0.77
0.77
0.77
2.65089e-06
1.15761e-05
2.65463e-05
5.15374e-05
9.30124e-05
0.000161349
0.000272971
0.000453446
0.000741803
0.00119628
0.00190148
0.00297645
0.00458234
0.0069273
0.0102649
0.0148827
0.0210778
0.0291228
0.0392285
0.0515136
0.0659915
0.0825747
0.101093
0.121318
0.142987
0.165821
0.189543
0.213887
0.238603
0.263464
0.288265
0.31283
0.337005
0.360662
0.383697
0.406025
0.427584
0.448324
0.468211
0.487226
0.50536
0.522613
0.538994
0.554517
0.569201
0.58307
0.59615
0.60847
0.62006
0.630951
0.641175
0.650762
0.659744
0.668153
0.676017
0.683367
0.690231
0.696636
0.702609
0.708174
0.713347
0.718014
0.722495
0.726667
0.730549
0.734162
0.73753
0.740768
0.743852
0.746784
0.749563
0.752188
0.754655
0.756959
0.759096
0.761059
0.762835
0.764427
0.765818
0.766998
0.767958
0.768696
0.769222
0.769566
0.769772
0.769886
0.769945
0.769974
0.769988
0.769995
0.769998
0.769999
0.77
0.77
0.77
0.77
0.77
0.77
0.77
0.77
2.67389e-06
1.1677e-05
2.678e-05
5.19982e-05
9.38613e-05
0.000162857
0.000275588
0.000457906
0.000749279
0.0012086
0.00192143
0.00300811
0.00463151
0.0070018
0.0103748
0.01504
0.0212962
0.0294163
0.0396105
0.0519958
0.0665833
0.0832826
0.101921
0.122268
0.144058
0.167013
0.190852
0.215307
0.240128
0.265087
0.289979
0.314625
0.338873
0.362593
0.38568
0.408052
0.429644
0.450408
0.47031
0.489331
0.507463
0.524706
0.541069
0.556567
0.57122
0.585052
0.59809
0.610364
0.621903
0.63274
0.642907
0.652434
0.661355
0.6697
0.677499
0.684783
0.69158
0.697917
0.70382
0.709312
0.714407
0.719023
0.723453
0.727573
0.731407
0.734936
0.738303
0.74151
0.744563
0.747462
0.750206
0.752794
0.755222
0.757486
0.75958
0.761499
0.763228
0.764771
0.76611
0.767237
0.768143
0.76883
0.769311
0.76962
0.769802
0.769902
0.769953
0.769978
0.76999
0.769995
0.769998
0.769999
0.77
0.77
0.77
0.77
0.77
0.77
0.77
0.77
2.69479e-06
1.17687e-05
2.69924e-05
5.24175e-05
9.46343e-05
0.000164232
0.000277978
0.000461986
0.000756129
0.00121991
0.00193977
0.00303727
0.00467684
0.00707057
0.0104763
0.0151855
0.0214982
0.0296879
0.039964
0.052442
0.0671305
0.0839369
0.102686
0.123145
0.145047
0.16811
0.192055
0.216611
0.241527
0.266573
0.291545
0.316263
0.340574
0.364348
0.387481
0.409888
0.431508
0.45229
0.472203
0.491227
0.509353
0.526584
0.542928
0.558401
0.573024
0.586821
0.599819
0.612049
0.623542
0.634329
0.644442
0.653916
0.66278
0.671069
0.678811
0.686038
0.692778
0.699061
0.704914
0.710363
0.715357
0.71994
0.724325
0.728401
0.732191
0.735658
0.738994
0.742171
0.745192
0.748059
0.75077
0.753323
0.755715
0.757942
0.759998
0.761877
0.763569
0.765068
0.76636
0.767439
0.768298
0.76894
0.769383
0.769663
0.769826
0.769914
0.769959
0.769981
0.769991
0.769996
0.769998
0.769999
0.77
0.77
0.77
0.77
0.77
0.77
0.77
0.77
2.71329e-06
1.18499e-05
2.71806e-05
5.27894e-05
9.53209e-05
0.000165455
0.000280107
0.000465627
0.000762254
0.00123005
0.00195623
0.00306348
0.00471765
0.00713254
0.0105679
0.0153169
0.0216807
0.0299333
0.0402835
0.0528451
0.0676248
0.0845276
0.103376
0.123935
0.145937
0.169098
0.193136
0.217782
0.242781
0.267905
0.292946
0.317727
0.342092
0.365912
0.389083
0.41152
0.433161
0.453958
0.473878
0.492901
0.511021
0.528239
0.544564
0.560013
0.574608
0.588372
0.601334
0.613523
0.624973
0.635714
0.645781
0.655205
0.66402
0.672257
0.679947
0.687122
0.693809
0.700039
0.705838
0.711231
0.716089
0.720742
0.725071
0.729095
0.732841
0.736276
0.739585
0.742736
0.74573
0.748568
0.75125
0.753773
0.756133
0.758327
0.760349
0.762192
0.763848
0.765308
0.766564
0.767603
0.768423
0.769028
0.76944
0.769697
0.769844
0.769923
0.769963
0.769983
0.769992
0.769996
0.769998
0.769999
0.77
0.77
0.77
0.77
0.77
0.77
0.77
0.77
2.72917e-06
1.19195e-05
2.73422e-05
5.3109e-05
9.59118e-05
0.000166509
0.000281946
0.000468779
0.000767567
0.00123885
0.00197057
0.00308634
0.00475331
0.00718678
0.0106482
0.0154321
0.0218409
0.0301488
0.0405641
0.0531993
0.068059
0.0850464
0.103982
0.124629
0.146718
0.169963
0.194083
0.218806
0.243878
0.269067
0.294169
0.319002
0.343413
0.367272
0.390474
0.412936
0.434594
0.455402
0.475326
0.494348
0.51246
0.529665
0.545973
0.5614
0.575969
0.589703
0.602632
0.614787
0.626199
0.636901
0.646926
0.656308
0.66508
0.673273
0.68092
0.688051
0.694694
0.700878
0.70663
0.711968
0.716769
0.721378
0.725673
0.729663
0.733377
0.736791
0.740078
0.743206
0.746177
0.748992
0.75165
0.754148
0.756482
0.758648
0.76064
0.762452
0.764071
0.765499
0.766726
0.767735
0.768523
0.769098
0.769484
0.769723
0.769858
0.769931
0.769967
0.769985
0.769993
0.769997
0.769999
0.769999
0.77
0.77
0.77
0.77
0.77
0.77
0.77
0.77
2.74223e-06
1.19768e-05
2.74754e-05
5.33726e-05
9.64e-05
0.000167382
0.000283473
0.000471401
0.000771999
0.00124622
0.00198258
0.00310555
0.00478333
0.00723253
0.0107159
0.0155295
0.0219765
0.0303314
0.040802
0.0534996
0.0684273
0.0854865
0.104496
0.125217
0.147379
0.170697
0.194885
0.219673
0.244805
0.27005
0.295201
0.320079
0.344527
0.368418
0.391645
0.414127
0.435799
0.456615
0.476541
0.495561
0.513666
0.530859
0.547151
0.562559
0.577105
0.590814
0.603715
0.615839
0.627218
0.637886
0.647877
0.657223
0.665958
0.674115
0.681725
0.688819
0.695428
0.70158
0.707304
0.712625
0.717419
0.721879
0.726153
0.730116
0.733805
0.737204
0.740473
0.743583
0.746536
0.749333
0.751972
0.75445
0.756764
0.758909
0.760878
0.762665
0.764263
0.765664
0.766859
0.767841
0.768603
0.769153
0.769519
0.769743
0.769869
0.769936
0.76997
0.769986
0.769993
0.769997
0.769999
0.769999
0.77
0.77
0.77
0.77
0.77
0.77
0.77
0.77
2.75238e-06
1.20214e-05
2.7579e-05
5.35781e-05
9.67814e-05
0.000168066
0.000284672
0.000473467
0.000775502
0.00125206
0.00199214
0.00312088
0.00480735
0.00726921
0.0107704
0.0156079
0.0220858
0.0304787
0.0409941
0.0537423
0.0687252
0.0858425
0.104912
0.125694
0.147915
0.171291
0.195535
0.220375
0.245555
0.270845
0.296036
0.320949
0.345427
0.369343
0.392591
0.415087
0.43677
0.457592
0.47752
0.496537
0.514635
0.531819
0.548098
0.563489
0.578016
0.591704
0.604582
0.616681
0.628035
0.638676
0.648638
0.657955
0.666661
0.674788
0.682368
0.689432
0.696011
0.702132
0.707824
0.713115
0.717901
0.722321
0.726562
0.730497
0.734141
0.737535
0.740788
0.743882
0.74682
0.749601
0.752224
0.754686
0.756982
0.759108
0.761058
0.762828
0.764409
0.765792
0.766965
0.767923
0.768663
0.769195
0.769546
0.769758
0.769878
0.76994
0.769972
0.769987
0.769994
0.769997
0.769999
0.769999
0.77
0.77
0.77
0.77
0.77
0.77
0.77
0.77
2.75965e-06
1.20534e-05
2.76533e-05
5.37256e-05
9.70559e-05
0.000168559
0.00028554
0.00047497
0.00077806
0.00125634
0.00199918
0.0031322
0.00482515
0.00729648
0.010811
0.0156665
0.0221676
0.0305893
0.0411385
0.053925
0.0689496
0.086111
0.105226
0.126053
0.14832
0.17174
0.196026
0.220906
0.246123
0.271446
0.296668
0.321607
0.346108
0.370042
0.393305
0.415813
0.437504
0.45833
0.478259
0.497273
0.515367
0.532542
0.548811
0.56419
0.578702
0.592374
0.605234
0.617314
0.628648
0.639268
0.649209
0.658504
0.667188
0.675293
0.682851
0.689893
0.696449
0.702548
0.708215
0.713478
0.718244
0.722639
0.726859
0.730776
0.734382
0.737778
0.741019
0.744101
0.747028
0.749797
0.752408
0.754858
0.757142
0.759257
0.761197
0.762954
0.76452
0.765887
0.767045
0.767986
0.768709
0.769226
0.769565
0.76977
0.769884
0.769944
0.769973
0.769988
0.769994
0.769997
0.769999
0.769999
0.77
0.77
0.77
0.77
0.77
0.77
0.77
0.77
2.76417e-06
1.20732e-05
2.76995e-05
5.38174e-05
9.72269e-05
0.000168868
0.000286085
0.000475916
0.000779679
0.00125906
0.00200367
0.00313947
0.00483663
0.00731416
0.0108374
0.0157048
0.0222213
0.030662
0.0412338
0.0540458
0.0690984
0.0862895
0.105435
0.126293
0.148591
0.17204
0.196355
0.221262
0.246504
0.27185
0.297092
0.322049
0.346565
0.370512
0.393784
0.4163
0.437997
0.458826
0.478755
0.497768
0.515858
0.533029
0.54929
0.564661
0.579163
0.592824
0.605672
0.617739
0.629059
0.639665
0.649591
0.658871
0.66754
0.675629
0.683171
0.690198
0.69674
0.702824
0.708479
0.713731
0.718473
0.722857
0.727066
0.730971
0.734552
0.737945
0.741177
0.744251
0.747169
0.749931
0.752535
0.754977
0.757254
0.75936
0.761291
0.763038
0.764594
0.76595
0.767098
0.768028
0.76874
0.769247
0.769578
0.769777
0.769888
0.769946
0.769974
0.769988
0.769994
0.769998
0.769999
0.77
0.77
0.77
0.77
0.77
0.77
0.77
0.77
0.77
2.76623e-06
1.20822e-05
2.77203e-05
5.38587e-05
9.73037e-05
0.000169006
0.00028633
0.000476342
0.000780411
0.0012603
0.00200572
0.0031428
0.00484191
0.00732232
0.0108497
0.0157227
0.0222465
0.0306962
0.0412788
0.0541032
0.0691694
0.086375
0.105535
0.126409
0.148722
0.172187
0.196516
0.221437
0.246692
0.27205
0.297302
0.322268
0.346792
0.370745
0.394023
0.416543
0.438243
0.459074
0.479004
0.498017
0.516105
0.533273
0.549531
0.564898
0.579395
0.59305
0.605892
0.617953
0.629266
0.639864
0.649783
0.659055
0.667716
0.675797
0.683332
0.690351
0.696884
0.702962
0.708611
0.713858
0.71858
0.72296
0.727166
0.731067
0.734638
0.738028
0.741258
0.744328
0.747242
0.75
0.752599
0.755037
0.757309
0.759411
0.761337
0.763079
0.76463
0.765981
0.767124
0.768048
0.768755
0.769257
0.769585
0.769781
0.76989
0.769947
0.769975
0.769988
0.769995
0.769998
0.769999
0.77
0.77
0.77
0.77
0.77
0.77
0.77
0.77
0.77
2.76619e-06
1.20821e-05
2.77201e-05
5.38583e-05
9.73031e-05
0.000169005
0.000286329
0.000476343
0.000780414
0.00126031
0.00200574
0.00314284
0.00484199
0.00732246
0.0108499
0.015723
0.022247
0.0306969
0.0412797
0.0541044
0.069171
0.0863769
0.105538
0.126412
0.148725
0.17219
0.19652
0.22144
0.246696
0.272054
0.297307
0.322272
0.346797
0.37075
0.394028
0.416549
0.438249
0.45908
0.479011
0.498023
0.516111
0.533279
0.549537
0.564904
0.579401
0.593056
0.605898
0.617959
0.629272
0.63987
0.649789
0.659061
0.667722
0.675803
0.683337
0.690356
0.696889
0.702966
0.708614
0.713862
0.718584
0.722964
0.72717
0.731072
0.734642
0.738032
0.741261
0.744332
0.747246
0.750003
0.752602
0.75504
0.757311
0.759413
0.761338
0.76308
0.764631
0.765982
0.767124
0.768049
0.768755
0.769257
0.769585
0.769781
0.76989
0.769947
0.769975
0.769988
0.769995
0.769998
0.769999
0.77
0.77
0.77
0.77
0.77
0.77
0.77
0.77
0.77
2.76412e-06
1.2073e-05
2.76991e-05
5.38169e-05
9.72265e-05
0.000168868
0.000286087
0.000475923
0.000779696
0.0012591
0.00200374
0.00313961
0.00483687
0.00731455
0.0108381
0.0157058
0.0222227
0.030664
0.0412364
0.0540493
0.0691027
0.0862947
0.105441
0.1263
0.148599
0.172049
0.196365
0.221273
0.246516
0.271863
0.297106
0.322063
0.34658
0.370527
0.393801
0.416318
0.438014
0.458843
0.478773
0.497787
0.515877
0.533047
0.549309
0.564679
0.579181
0.592842
0.60569
0.617757
0.629077
0.639682
0.649608
0.658888
0.667556
0.675644
0.683186
0.690212
0.696752
0.702835
0.70849
0.713743
0.718483
0.722867
0.727079
0.730986
0.734564
0.737956
0.741189
0.744263
0.74718
0.749941
0.752544
0.754985
0.75726
0.759365
0.761295
0.763041
0.764596
0.765952
0.767099
0.768029
0.768741
0.769247
0.769578
0.769777
0.769888
0.769946
0.769974
0.769988
0.769994
0.769998
0.769999
0.77
0.77
0.77
0.77
0.77
0.77
0.77
0.77
0.77
2.75959e-06
1.20531e-05
2.76529e-05
5.37253e-05
9.70561e-05
0.000168561
0.000285547
0.000474986
0.000778096
0.00125641
0.00199931
0.00313245
0.00482557
0.00729718
0.0108121
0.0156682
0.0221701
0.0305927
0.0411431
0.053931
0.0689571
0.0861201
0.105236
0.126066
0.148334
0.171755
0.196043
0.220924
0.246144
0.271468
0.296691
0.321631
0.346134
0.370069
0.393333
0.415842
0.437533
0.458359
0.478289
0.497304
0.515397
0.532573
0.548842
0.564221
0.578733
0.592404
0.605264
0.617344
0.628677
0.639297
0.649237
0.658532
0.667215
0.675319
0.682876
0.689917
0.696472
0.70257
0.708238
0.713504
0.718269
0.722664
0.726887
0.730804
0.734403
0.737795
0.741036
0.744118
0.747043
0.749811
0.752421
0.754869
0.757152
0.759266
0.761204
0.76296
0.764525
0.76589
0.767048
0.767988
0.76871
0.769226
0.769566
0.76977
0.769884
0.769944
0.769973
0.769988
0.769994
0.769997
0.769999
0.769999
0.77
0.77
0.77
0.77
0.77
0.77
0.77
0.77
2.75235e-06
1.20214e-05
2.75791e-05
5.35787e-05
9.67835e-05
0.000168071
0.000284685
0.000473497
0.000775563
0.00125217
0.00199235
0.00312125
0.00480797
0.00727022
0.010772
0.0156103
0.0220892
0.0304836
0.0410006
0.0537507
0.0687358
0.0858554
0.104927
0.125711
0.147935
0.171313
0.195559
0.220401
0.245584
0.270876
0.296069
0.320983
0.345464
0.369381
0.39263
0.415128
0.436811
0.457634
0.477562
0.496579
0.514678
0.531862
0.54814
0.563532
0.578059
0.591746
0.604624
0.616722
0.628075
0.638716
0.648677
0.657994
0.666699
0.674826
0.682406
0.689469
0.696047
0.702167
0.707858
0.713144
0.717922
0.722343
0.726594
0.730533
0.734172
0.737561
0.740813
0.743906
0.746842
0.749621
0.752242
0.754701
0.756995
0.759119
0.761067
0.762836
0.764415
0.765796
0.766969
0.767925
0.768665
0.769196
0.769546
0.769759
0.769878
0.769941
0.769972
0.769987
0.769994
0.769997
0.769999
0.769999
0.77
0.77
0.77
0.77
0.77
0.77
0.77
0.77
2.74224e-06
1.1977e-05
2.74759e-05
5.33741e-05
9.64041e-05
0.000167392
0.000283494
0.000471444
0.000772083
0.00124637
0.00198287
0.00310604
0.00478415
0.00723385
0.010718
0.0155326
0.0219809
0.0303376
0.0408104
0.0535105
0.0684411
0.0855033
0.104516
0.125241
0.147406
0.170726
0.194918
0.219708
0.244843
0.27009
0.295244
0.320123
0.344574
0.368467
0.391696
0.414179
0.435852
0.456669
0.476596
0.495616
0.513721
0.530914
0.547206
0.562614
0.577159
0.590868
0.603768
0.615892
0.62727
0.637938
0.647928
0.657273
0.666008
0.674164
0.681773
0.688867
0.695475
0.701626
0.707348
0.712667
0.71746
0.721918
0.72619
0.730153
0.733843
0.737241
0.740506
0.743613
0.746564
0.749358
0.751994
0.75447
0.756781
0.758923
0.76089
0.762675
0.764271
0.765671
0.766863
0.767844
0.768605
0.769154
0.76952
0.769744
0.76987
0.769936
0.76997
0.769986
0.769994
0.769997
0.769999
0.769999
0.77
0.77
0.77
0.77
0.77
0.77
0.77
0.77
2.72922e-06
1.19198e-05
2.73432e-05
5.31115e-05
9.59178e-05
0.000166522
0.000281974
0.000468835
0.000767675
0.00123905
0.00197092
0.00308695
0.00475432
0.0071884
0.0106507
0.0154358
0.0218463
0.0301565
0.0405744
0.0532128
0.0680762
0.0850674
0.104007
0.124658
0.14675
0.17
0.194123
0.218849
0.243924
0.269117
0.294221
0.319057
0.34347
0.367332
0.390535
0.412999
0.434659
0.455468
0.475392
0.494415
0.512527
0.529732
0.54604
0.561467
0.576035
0.589769
0.602697
0.614851
0.626262
0.636963
0.646987
0.656368
0.665138
0.67333
0.680975
0.688104
0.694746
0.700929
0.70668
0.712023
0.716836
0.72144
0.725714
0.729697
0.73342
0.736838
0.740119
0.743243
0.74621
0.749022
0.751676
0.75417
0.756501
0.758665
0.760654
0.762463
0.76408
0.765506
0.766731
0.767739
0.768525
0.769099
0.769485
0.769723
0.769859
0.769931
0.769967
0.769985
0.769993
0.769997
0.769999
0.769999
0.77
0.77
0.77
0.77
0.77
0.77
0.77
0.77
2.71339e-06
1.18504e-05
2.71821e-05
5.2793e-05
9.53291e-05
0.000165472
0.000280143
0.000465697
0.000762386
0.00123029
0.00195666
0.0030642
0.00471884
0.00713446
0.0105709
0.0153213
0.0216871
0.0299424
0.0402958
0.0528612
0.0676453
0.0845527
0.103406
0.12397
0.145976
0.169142
0.193184
0.217833
0.242837
0.267964
0.293009
0.317792
0.34216
0.365983
0.389155
0.411595
0.433237
0.454036
0.473956
0.49298
0.5111
0.528318
0.544643
0.560092
0.574686
0.588449
0.60141
0.613599
0.625048
0.635788
0.645854
0.655277
0.664091
0.672327
0.680017
0.687191
0.693879
0.700107
0.705903
0.71129
0.716144
0.720791
0.725114
0.729136
0.732895
0.736332
0.739633
0.742779
0.74577
0.748604
0.751282
0.753802
0.756158
0.758349
0.760367
0.762206
0.763859
0.765317
0.76657
0.767608
0.768426
0.76903
0.769441
0.769697
0.769845
0.769924
0.769964
0.769983
0.769992
0.769996
0.769998
0.769999
0.77
0.77
0.77
0.77
0.77
0.77
0.77
0.77
2.69494e-06
1.17694e-05
2.69944e-05
5.24223e-05
9.4645e-05
0.000164254
0.000278022
0.000462071
0.000756287
0.0012202
0.00194027
0.00303812
0.00467823
0.00707278
0.0104797
0.0151906
0.0215056
0.0296984
0.0399782
0.0524606
0.0671542
0.0839661
0.102721
0.123186
0.145093
0.168161
0.192111
0.216672
0.241592
0.266642
0.291617
0.316339
0.340653
0.36443
0.387565
0.409975
0.431595
0.452379
0.472293
0.491317
0.509444
0.526675
0.543019
0.558491
0.573113
0.58691
0.599907
0.612136
0.623627
0.634413
0.644526
0.653998
0.662861
0.671148
0.67889
0.686117
0.692857
0.69914
0.704992
0.710437
0.715419
0.719999
0.724388
0.728462
0.732256
0.735717
0.739045
0.74222
0.745238
0.7481
0.750806
0.753355
0.755743
0.757966
0.760018
0.761894
0.763582
0.765078
0.766367
0.767444
0.768301
0.768942
0.769384
0.769664
0.769826
0.769914
0.769959
0.769981
0.769991
0.769996
0.769998
0.769999
0.77
0.77
0.77
0.77
0.77
0.77
0.77
0.77
2.67411e-06
1.16781e-05
2.67828e-05
5.20046e-05
9.38748e-05
0.000162884
0.000275642
0.000458008
0.000749466
0.00120894
0.00192201
0.00300909
0.0046331
0.00700432
0.0103787
0.0150458
0.0213046
0.0294281
0.0396266
0.052017
0.0666102
0.083316
0.101961
0.122315
0.144112
0.167072
0.190916
0.215377
0.240203
0.265166
0.290062
0.314712
0.338962
0.362686
0.385776
0.408149
0.429743
0.450509
0.470412
0.489434
0.507566
0.524808
0.541171
0.556668
0.571321
0.585152
0.598189
0.610462
0.622
0.632835
0.643
0.652525
0.661444
0.669787
0.677585
0.684867
0.691663
0.697999
0.703902
0.709395
0.714486
0.719102
0.723535
0.727659
0.731491
0.735004
0.738359
0.741565
0.744615
0.74751
0.75025
0.752832
0.755255
0.757514
0.759605
0.761519
0.763244
0.764783
0.766119
0.767244
0.768148
0.768833
0.769313
0.769621
0.769803
0.769902
0.769953
0.769978
0.76999
0.769995
0.769998
0.769999
0.77
0.77
0.77
0.77
0.77
0.77
0.77
0.77
2.65119e-06
1.15776e-05
2.655e-05
5.15455e-05
9.30293e-05
0.000161382
0.000273036
0.000453568
0.000742023
0.00119667
0.00190214
0.00297756
0.00458414
0.00693014
0.0102693
0.0148892
0.0210872
0.029136
0.0392464
0.0515372
0.0660217
0.0826122
0.101138
0.121371
0.143047
0.165888
0.189617
0.213967
0.238688
0.263553
0.288359
0.312927
0.337106
0.360766
0.383804
0.406134
0.427695
0.448436
0.468325
0.48734
0.505474
0.522727
0.539108
0.55463
0.569313
0.583181
0.59626
0.608579
0.620168
0.631057
0.641279
0.650864
0.659845
0.668251
0.676114
0.683461
0.690322
0.696725
0.702695
0.708259
0.713429
0.718098
0.722575
0.726735
0.73062
0.734233
0.737598
0.74083
0.74391
0.746837
0.749611
0.752231
0.754692
0.756991
0.759123
0.761082
0.762853
0.764441
0.765828
0.767006
0.767964
0.7687
0.769224
0.769567
0.769773
0.769886
0.769945
0.769974
0.769988
0.769995
0.769998
0.769999
0.77
0.77
0.77
0.77
0.77
0.77
0.77
0.77
2.62646e-06
1.14692e-05
2.6299e-05
5.1051e-05
9.21194e-05
0.000159768
0.000270239
0.000448809
0.000734059
0.00118356
0.00188096
0.00294399
0.0045321
0.00685139
0.0101533
0.0147232
0.0208569
0.0288267
0.0388439
0.0510292
0.0653983
0.0818663
0.100265
0.120368
0.141915
0.164628
0.188232
0.212461
0.237067
0.261824
0.28653
0.311008
0.335105
0.358693
0.381669
0.403949
0.425468
0.446179
0.466047
0.485052
0.503184
0.520444
0.53684
0.552385
0.567098
0.581003
0.594125
0.606491
0.618133
0.629079
0.639361
0.64901
0.658057
0.666531
0.674463
0.681881
0.688814
0.695287
0.701329
0.706961
0.712208
0.716954
0.721487
0.72571
0.729647
0.733334
0.73673
0.739996
0.74311
0.746074
0.748886
0.751545
0.754049
0.756393
0.758572
0.760579
0.762407
0.764047
0.76549
0.766726
0.767744
0.768538
0.769115
0.769499
0.769734
0.769866
0.769935
0.76997
0.769986
0.769994
0.769997
0.769999
0.769999
0.77
0.77
0.77
0.77
0.77
0.77
0.77
2.60018e-06
1.1354e-05
2.60324e-05
5.05262e-05
9.1155e-05
0.00015806
0.000267284
0.00044379
0.000725677
0.0011698
0.00185876
0.00290887
0.00447776
0.0067693
0.0100325
0.0145506
0.0206178
0.0285056
0.0384261
0.0505019
0.0647511
0.0810914
0.0993576
0.119325
0.140735
0.163313
0.186784
0.210884
0.235367
0.260007
0.284603
0.30898
0.332986
0.356493
0.379398
0.401618
0.423088
0.443761
0.463602
0.48259
0.500715
0.517978
0.534385
0.54995
0.564692
0.578632
0.591796
0.604212
0.615907
0.626912
0.637257
0.646973
0.656089
0.664635
0.67264
0.680133
0.687141
0.693691
0.699808
0.705517
0.710841
0.715728
0.720244
0.724563
0.728578
0.732326
0.735754
0.739051
0.742209
0.745215
0.748071
0.750775
0.753325
0.755718
0.757948
0.760009
0.761895
0.763591
0.765098
0.766399
0.767483
0.768343
0.76898
0.769414
0.769685
0.76984
0.769922
0.769963
0.769983
0.769992
0.769997
0.769998
0.769999
0.77
0.77
0.77
0.77
0.77
0.77
0.77
2.5725e-06
1.12327e-05
2.57519e-05
4.99744e-05
9.01422e-05
0.000156269
0.000264191
0.000438548
0.000716942
0.00115549
0.00183574
0.00287256
0.00442172
0.00668487
0.00990864
0.014374
0.0203734
0.028178
0.0380005
0.049965
0.0640923
0.0803027
0.0984334
0.118262
0.139532
0.161969
0.185302
0.209266
0.233618
0.258133
0.282612