/*--------------------------------*- C++ -*----------------------------------*\
  =========                 |
  \\      /  F ield         | OpenFOAM: The Open Source CFD Toolbox
   \\    /   O peration     | Website:  https://openfoam.org
    \\  /    A nd           | Version:  8
     \\/     M anipulation  |
\*---------------------------------------------------------------------------*/
FoamFile
{
    version     2.0;
    format      ascii;
    class       volScalarField;
    location    "140/fluid";
    object      O2;
}
// * * * * * * * * * * * * * * * * * * * * * * * * * * * * * * * * * * * * * //

dimensions      [0 0 0 0 0 0 0];

internalField   nonuniform List<scalar> 
4000
(
3.10262e-10
1.35352e-09
3.09736e-09
5.99546e-09
1.07818e-08
1.86311e-08
3.13992e-08
5.19728e-08
8.47617e-08
1.36356e-07
2.16348e-07
3.3826e-07
5.20417e-07
7.8645e-07
1.16501e-06
1.68815e-06
2.38817e-06
3.29305e-06
4.42154e-06
5.77933e-06
7.35763e-06
9.13435e-06
1.10774e-05
1.31484e-05
1.53069e-05
1.7513e-05
1.97293e-05
2.19223e-05
2.40633e-05
2.61279e-05
2.80968e-05
2.9956e-05
3.16976e-05
3.33218e-05
3.48415e-05
3.62881e-05
3.77209e-05
3.92376e-05
4.09838e-05
4.31617e-05
4.60406e-05
4.99597e-05
5.53338e-05
6.26621e-05
7.25416e-05
8.56887e-05
0.000102971
0.000125449
0.000154432
0.000191554
0.000238857
0.000298906
0.000374929
0.000470994
0.000592231
0.000745118
0.00093784
0.00118076
0.00148701
0.00187329
0.00236088
0.00297701
0.00375682
0.00474397
0.00598273
0.00758881
0.00965269
0.0123324
0.0158643
0.0265772
0.0428087
0.0591354
0.0753817
0.091399
0.107057
0.122241
0.136843
0.150762
0.163897
0.176126
0.18737
0.197484
0.206319
0.213727
0.219581
0.223848
0.226661
0.228325
0.229209
0.229641
0.229841
0.229931
0.22997
0.229988
0.229995
0.229998
0.229999
0.23
0.23
0.23
3.16842e-10
1.38325e-09
3.16966e-09
6.1464e-09
1.10762e-08
1.91818e-08
3.23965e-08
5.37279e-08
8.77649e-08
1.41351e-07
2.24416e-07
3.50902e-07
5.39617e-07
8.14701e-07
1.20527e-06
1.74378e-06
2.46272e-06
3.39015e-06
4.5447e-06
5.93186e-06
7.54253e-06
9.35419e-06
1.13341e-05
1.34433e-05
1.56403e-05
1.78843e-05
2.01368e-05
2.23636e-05
2.45349e-05
2.66259e-05
2.86167e-05
3.04932e-05
3.22475e-05
3.38806e-05
3.54067e-05
3.68596e-05
3.83022e-05
3.98376e-05
4.16176e-05
4.38521e-05
4.68183e-05
5.08637e-05
5.64113e-05
6.39689e-05
7.41438e-05
8.76653e-05
0.000105419
0.000128491
0.000158225
0.000196302
0.000244827
0.000306452
0.000384521
0.000483256
0.000607997
0.000765497
0.000964311
0.00121528
0.00153217
0.00193241
0.00243813
0.00307732
0.00388531
0.00490358
0.00616671
0.00778824
0.00982544
0.0123706
0.0155122
0.0291312
0.0455985
0.0620909
0.0784639
0.0945832
0.110325
0.125573
0.140221
0.154159
0.167281
0.179415
0.190542
0.200449
0.208977
0.215968
0.221317
0.225052
0.227398
0.228723
0.229401
0.229727
0.229878
0.229947
0.229977
0.22999
0.229996
0.229998
0.229999
0.23
0.23
0.23
3.27184e-10
1.42906e-09
3.2775e-09
6.36271e-09
1.14802e-08
1.99051e-08
3.36526e-08
5.58534e-08
9.1276e-08
1.47015e-07
2.33338e-07
3.64623e-07
5.60207e-07
8.4485e-07
1.24835e-06
1.80381e-06
2.54437e-06
3.49854e-06
4.68531e-06
6.11029e-06
7.76428e-06
9.62442e-06
1.16574e-05
1.38232e-05
1.60794e-05
1.83838e-05
2.06965e-05
2.29817e-05
2.52081e-05
2.73498e-05
2.93858e-05
3.13012e-05
3.30881e-05
3.47481e-05
3.6297e-05
3.77722e-05
3.92424e-05
4.08189e-05
4.26641e-05
4.49999e-05
4.81172e-05
5.23769e-05
5.82162e-05
6.61581e-05
7.6828e-05
9.09791e-05
0.000109529
0.000133607
0.00016462
0.00020433
0.000254957
0.000319306
0.000400929
0.000504334
0.000635246
0.000800952
0.00101075
0.0012765
0.00161344
0.0020411
0.0025847
0.00327683
0.00415987
0.00527922
0.00670631
0.00855928
0.0109249
0.0139359
0.0176828
0.033841
0.050377
0.0669483
0.0833837
0.0995348
0.11527
0.130468
0.145013
0.158791
0.171684
0.183507
0.194241
0.203661
0.211616
0.21798
0.222707
0.225908
0.227867
0.228956
0.229509
0.229776
0.2299
0.229956
0.229981
0.229992
0.229997
0.229999
0.229999
0.23
0.23
0.23
3.37785e-10
1.47556e-09
3.38503e-09
6.57372e-09
1.18651e-08
2.05791e-08
3.48003e-08
5.7765e-08
9.43994e-08
1.52027e-07
2.41242e-07
3.76865e-07
5.78823e-07
8.72611e-07
1.28889e-06
1.86173e-06
2.62521e-06
3.60873e-06
4.83193e-06
6.30079e-06
8.00613e-06
9.9247e-06
1.20224e-05
1.42582e-05
1.65882e-05
1.89685e-05
2.13576e-05
2.3718e-05
2.60168e-05
2.82263e-05
3.03243e-05
3.22951e-05
3.41302e-05
3.58317e-05
3.74175e-05
3.89294e-05
4.04433e-05
4.20809e-05
4.40175e-05
4.64913e-05
4.981e-05
5.43522e-05
6.05728e-05
6.90147e-05
8.03268e-05
9.52929e-05
0.000114872
0.000140249
0.000172908
0.000214715
0.000268029
0.000335842
0.00042196
0.00053123
0.00066984
0.000845705
0.00106898
0.00135271
0.00171377
0.00217405
0.00276211
0.00351561
0.00448447
0.00571325
0.00733908
0.00948426
0.0123591
0.0163059
0.0231139
0.0395278
0.0561627
0.0727937
0.0892389
0.105345
0.120976
0.136008
0.150324
0.163804
0.176321
0.187763
0.197982
0.206828
0.214162
0.219886
0.224011
0.226713
0.228316
0.229184
0.229618
0.229826
0.229922
0.229966
0.229985
0.229994
0.229997
0.229999
0.23
0.23
0.23
0.23
3.48321e-10
1.5217e-09
3.49149e-09
6.78221e-09
1.22454e-08
2.1246e-08
3.59405e-08
5.96772e-08
9.75517e-08
1.57139e-07
2.49393e-07
3.89634e-07
5.98447e-07
9.02159e-07
1.33242e-06
1.92437e-06
2.71321e-06
3.72932e-06
4.9931e-06
6.51097e-06
8.27382e-06
1.02581e-05
1.24288e-05
1.47441e-05
1.71584e-05
1.96263e-05
2.21046e-05
2.45537e-05
2.69388e-05
2.92306e-05
3.14054e-05
3.34459e-05
3.53434e-05
3.71006e-05
3.87377e-05
4.03016e-05
4.18773e-05
4.35985e-05
4.56561e-05
4.8308e-05
5.18818e-05
5.67768e-05
6.34694e-05
7.25266e-05
8.4626e-05
0.000100589
0.000121424
0.000148386
0.000183046
0.000227392
0.000283944
0.000355904
0.000447357
0.000563514
0.000711041
0.000898472
0.00113676
0.00143996
0.00182616
0.00231864
0.00294728
0.00375037
0.00477261
0.00605497
0.00772285
0.0098444
0.0125191
0.0158324
0.028824
0.045551
0.0623459
0.0790282
0.0954386
0.111435
0.126889
0.141681
0.155693
0.168811
0.180855
0.191817
0.201488
0.20973
0.216428
0.221522
0.225085
0.227348
0.228657
0.229353
0.229698
0.229862
0.229938
0.229973
0.229988
0.229995
0.229998
0.229999
0.23
0.23
0.23
0.23
3.5859e-10
1.56662e-09
3.595e-09
6.98462e-09
1.2614e-08
2.18923e-08
3.70461e-08
6.1534e-08
1.00621e-07
1.62137e-07
2.57405e-07
4.0227e-07
6.18028e-07
9.31927e-07
1.37673e-06
1.98888e-06
2.80486e-06
3.85627e-06
5.16445e-06
6.73639e-06
8.56304e-06
1.06205e-05
1.2873e-05
1.52773e-05
1.77867e-05
2.03537e-05
2.29333e-05
2.5484e-05
2.79691e-05
3.03571e-05
3.26227e-05
3.47474e-05
3.67218e-05
3.85492e-05
4.0253e-05
4.18862e-05
4.35443e-05
4.53752e-05
4.75881e-05
5.04635e-05
5.43517e-05
5.96753e-05
6.69359e-05
7.67283e-05
8.97647e-05
0.000106911
0.000129236
0.000158073
0.000195101
0.00024245
0.000302826
0.000379683
0.000477432
0.000601722
0.000759798
0.000960972
0.00121725
0.00154413
0.00196175
0.00249631
0.00318213
0.00406435
0.00518831
0.00662891
0.00854113
0.0110147
0.0142181
0.0183187
0.0349695
0.0518223
0.0686647
0.0853179
0.101627
0.117454
0.132675
0.147173
0.160832
0.173537
0.185135
0.195579
0.204684
0.212326
0.218409
0.222917
0.225978
0.227867
0.228933
0.229489
0.229762
0.229891
0.229951
0.229978
0.229991
0.229996
0.229998
0.229999
0.23
0.23
0.23
0.23
3.68719e-10
1.61096e-09
3.69721e-09
7.18477e-09
1.29793e-08
2.25345e-08
3.81486e-08
6.33939e-08
1.03712e-07
1.67198e-07
2.65568e-07
4.15226e-07
6.38232e-07
9.62828e-07
1.42301e-06
2.05659e-06
2.90153e-06
3.99078e-06
5.34678e-06
6.97719e-06
8.87317e-06
1.10104e-05
1.33526e-05
1.58551e-05
1.84697e-05
2.11472e-05
2.38405e-05
2.65061e-05
2.91051e-05
3.1604e-05
3.39757e-05
3.62002e-05
3.82675e-05
4.0182e-05
4.19705e-05
4.36936e-05
4.54586e-05
4.74302e-05
4.98394e-05
5.29908e-05
5.72602e-05
6.3096e-05
7.10279e-05
8.16823e-05
9.58113e-05
0.000114332
0.000138382
0.000169385
0.000209141
0.000259941
0.000324702
0.000407156
0.000512086
0.000645628
0.000815673
0.00103239
0.00130894
0.00166237
0.0021149
0.00269569
0.00344332
0.00440917
0.00563237
0.00726858
0.00943954
0.0123664
0.0164138
0.0245587
0.0412039
0.0580541
0.0748578
0.0914192
0.107578
0.123196
0.138152
0.15233
0.165619
0.177882
0.189053
0.198978
0.207529
0.214592
0.220096
0.224071
0.226694
0.228272
0.229144
0.229592
0.22981
0.229913
0.229961
0.229983
0.229992
0.229997
0.229999
0.229999
0.23
0.23
0.23
0.23
3.78721e-10
1.65474e-09
3.7982e-09
7.38265e-09
1.33409e-08
2.31711e-08
3.9244e-08
6.52467e-08
1.068e-07
1.72274e-07
2.73793e-07
4.28342e-07
6.58792e-07
9.94448e-07
1.47062e-06
2.12667e-06
3.00215e-06
4.13153e-06
5.53851e-06
7.23156e-06
9.20214e-06
1.14257e-05
1.38652e-05
1.64749e-05
1.92048e-05
2.20042e-05
2.48239e-05
2.76181e-05
3.03459e-05
3.29715e-05
3.54659e-05
3.78077e-05
3.99863e-05
4.20074e-05
4.39021e-05
4.57399e-05
4.76418e-05
4.97911e-05
5.2444e-05
5.59312e-05
6.0656e-05
6.70952e-05
7.58088e-05
8.74586e-05
0.000102841
0.000122931
0.000148941
0.000182394
0.000225223
0.000279888
0.000349529
0.000438169
0.000550962
0.000694527
0.000877371
0.00111043
0.0014078
0.00178759
0.00227308
0.00289404
0.00368833
0.00470047
0.00596103
0.00760941
0.00968823
0.0122724
0.0153763
0.029925
0.046902
0.063879
0.08068
0.0971476
0.113141
0.128536
0.143216
0.157071
0.169993
0.181815
0.192542
0.201979
0.210009
0.216533
0.221509
0.225013
0.227265
0.228589
0.229307
0.229671
0.229847
0.22993
0.229969
0.229986
0.229994
0.229997
0.229999
0.23
0.23
0.23
0.23
0.23
3.88594e-10
1.69797e-09
3.89798e-09
7.57837e-09
1.3699e-08
2.38029e-08
4.03336e-08
6.70951e-08
1.09892e-07
1.77375e-07
2.82088e-07
4.41627e-07
6.79707e-07
1.02675e-06
1.51948e-06
2.19887e-06
3.10623e-06
4.27771e-06
5.73838e-06
7.49772e-06
9.54759e-06
1.18634e-05
1.44073e-05
1.71327e-05
1.9988e-05
2.29208e-05
2.58797e-05
2.8817e-05
3.16892e-05
3.44587e-05
3.70942e-05
3.95729e-05
4.18836e-05
4.40339e-05
4.606e-05
4.80418e-05
5.01158e-05
5.24866e-05
5.54375e-05
5.93278e-05
6.45896e-05
7.17302e-05
8.13422e-05
9.4127e-05
0.00011093
0.000132791
0.000161006
0.00019721
0.000243482
0.000302472
0.000377573
0.00047314
0.000594768
0.000749669
0.000947157
0.0011993
0.00152176
0.00193498
0.00246574
0.00314927
0.00403222
0.0051607
0.00661342
0.00855184
0.0110784
0.0143856
0.018714
0.0355163
0.0525001
0.0694394
0.0861492
0.102472
0.118271
0.133424
0.14782
0.16135
0.173908
0.185354
0.195643
0.204613
0.212152
0.218178
0.222679
0.225774
0.227716
0.228834
0.229432
0.229731
0.229875
0.229943
0.229975
0.229989
0.229995
0.229998
0.229999
0.23
0.23
0.23
0.23
0.23
3.9828e-10
1.74039e-09
3.99594e-09
7.77067e-09
1.40514e-08
2.44255e-08
4.14095e-08
6.89247e-08
1.12961e-07
1.82454e-07
2.90378e-07
4.54952e-07
7.00766e-07
1.05941e-06
1.56907e-06
2.27245e-06
3.21272e-06
4.42783e-06
5.94443e-06
7.77311e-06
9.90634e-06
1.23196e-05
1.49745e-05
1.78235e-05
2.08138e-05
2.38911e-05
2.70023e-05
3.00973e-05
3.31306e-05
3.60622e-05
3.88588e-05
4.14961e-05
4.39627e-05
4.62682e-05
4.8455e-05
5.06147e-05
5.29014e-05
5.55439e-05
5.88537e-05
6.32197e-05
6.91045e-05
7.70466e-05
8.76737e-05
0.000101729
0.000120111
0.000143928
0.000174566
0.000213776
0.000263788
0.000327447
0.000408397
0.000511317
0.000642226
0.00080889
0.00102136
0.00129267
0.00163984
0.00208518
0.00265812
0.00339788
0.00435719
0.00557351
0.00721312
0.00939402
0.0123316
0.0163624
0.0240038
0.0407616
0.0576958
0.0745573
0.0911505
0.107315
0.122915
0.13783
0.15195
0.165168
0.177379
0.188482
0.19836
0.206895
0.213983
0.219558
0.22364
0.226385
0.228071
0.229024
0.229527
0.229776
0.229896
0.229953
0.229979
0.229991
0.229996
0.229998
0.229999
0.23
0.23
0.23
0.23
0.23
4.07693e-10
1.78162e-09
4.0912e-09
7.95784e-09
1.43947e-08
2.50333e-08
4.24621e-08
7.0719e-08
1.15978e-07
1.87464e-07
2.98582e-07
4.68185e-07
7.21754e-07
1.09208e-06
1.61886e-06
2.34658e-06
3.32038e-06
4.58015e-06
6.15422e-06
8.0545e-06
1.02743e-05
1.27892e-05
1.55607e-05
1.85404e-05
2.16744e-05
2.49068e-05
2.81828e-05
3.14503e-05
3.46616e-05
3.77746e-05
4.0754e-05
4.35739e-05
4.6223e-05
4.87134e-05
5.10949e-05
5.34721e-05
5.60179e-05
5.89877e-05
6.27222e-05
6.76407e-05
7.42367e-05
8.30807e-05
9.48369e-05
0.000110293
0.000130405
0.000156353
0.000189619
0.000232073
0.000286098
0.000354729
0.000441848
0.000552422
0.000692818
0.000871205
0.00109808
0.00138694
0.0017552
0.00222529
0.00282627
0.00359577
0.00458036
0.00580698
0.00742714
0.00950575
0.0121708
0.015574
0.0283396
0.0452984
0.0622936
0.0791254
0.095624
0.111644
0.127057
0.141751
0.155618
0.168555
0.180422
0.191192
0.200704
0.208848
0.215531
0.220705
0.224423
0.226872
0.228349
0.229172
0.2296
0.229811
0.229913
0.22996
0.229982
0.229992
0.229997
0.229999
0.229999
0.23
0.23
0.23
0.23
0.23
4.16719e-10
1.82117e-09
4.18263e-09
8.13765e-09
1.4725e-08
2.56189e-08
4.34783e-08
7.24556e-08
1.18907e-07
1.9234e-07
3.06592e-07
4.81147e-07
7.42381e-07
1.12429e-06
1.66812e-06
2.42018e-06
3.42764e-06
4.73241e-06
6.36468e-06
8.33781e-06
1.06461e-05
1.32656e-05
1.61578e-05
1.92739e-05
2.25589e-05
2.59559e-05
2.94084e-05
3.28627e-05
3.62691e-05
3.95833e-05
4.27682e-05
4.57967e-05
4.86575e-05
5.13661e-05
5.39808e-05
5.662e-05
5.94764e-05
6.28336e-05
6.70614e-05
7.26093e-05
8.00009e-05
8.98394e-05
0.000102827
0.000119799
0.000141772
0.000170009
0.000206094
0.000252036
0.000310391
0.000384422
0.000478299
0.000597363
0.000748453
0.000940336
0.00118425
0.00149458
0.00188978
0.00239339
0.00303543
0.0038539
0.00489538
0.00618987
0.00788884
0.0100429
0.0127628
0.0161201
0.0323549
0.0494023
0.0664122
0.0831972
0.0995981
0.115478
0.130716
0.145203
0.158837
0.171516
0.183092
0.193554
0.202726
0.210513
0.216832
0.221653
0.225057
0.22726
0.228568
0.229286
0.229656
0.229838
0.229925
0.229966
0.229985
0.229993
0.229997
0.229999
0.229999
0.23
0.23
0.23
0.23
0.23
4.25234e-10
1.85848e-09
4.26894e-09
8.30756e-09
1.50375e-08
2.6174e-08
4.44437e-08
7.41092e-08
1.21703e-07
1.9701e-07
3.14285e-07
4.93636e-07
7.62318e-07
1.15553e-06
1.71603e-06
2.49201e-06
3.53265e-06
4.88197e-06
6.5721e-06
8.61802e-06
1.10152e-05
1.37405e-05
1.67557e-05
2.00117e-05
2.34532e-05
2.70223e-05
3.06615e-05
3.43155e-05
3.7933e-05
4.1468e-05
4.48818e-05
4.81461e-05
5.12502e-05
5.42136e-05
5.71036e-05
6.00536e-05
6.32773e-05
6.70845e-05
7.18733e-05
7.81209e-05
8.63792e-05
9.72818e-05
0.000111568
0.00013012
0.000154016
0.000184598
0.000223556
0.000273037
0.000335777
0.000415279
0.000516038
0.000643831
0.0008061
0.00101246
0.00127533
0.00161086
0.00204005
0.00259033
0.00329768
0.00420952
0.00537025
0.00685293
0.00883311
0.0114071
0.0147721
0.0192151
0.0361232
0.053171
0.0701367
0.0868386
0.103123
0.118856
0.133921
0.148212
0.161628
0.17407
0.18542
0.195598
0.204457
0.211921
0.217916
0.22243
0.225569
0.227569
0.228739
0.229375
0.2297
0.229859
0.229935
0.229971
0.229987
0.229994
0.229997
0.229999
0.23
0.23
0.23
0.23
0.23
0.23
4.331e-10
1.89297e-09
4.34875e-09
8.46485e-09
1.53273e-08
2.66895e-08
4.53422e-08
7.56522e-08
1.2432e-07
2.01391e-07
3.21524e-07
5.05422e-07
7.8119e-07
1.18518e-06
1.76165e-06
2.5606e-06
3.63324e-06
5.02569e-06
6.77209e-06
8.88917e-06
1.13738e-05
1.42038e-05
1.73417e-05
2.07385e-05
2.43389e-05
2.80848e-05
3.19178e-05
3.57819e-05
3.96247e-05
4.3399e-05
4.70646e-05
5.05928e-05
5.39739e-05
5.72321e-05
6.04446e-05
6.37593e-05
6.74102e-05
7.17314e-05
7.71458e-05
8.41549e-05
9.33348e-05
0.000105346
0.000120961
0.000141103
0.000166905
0.000199777
0.000241497
0.000294322
0.000361134
0.000445618
0.00055251
0.000687903
0.000859665
0.00107798
0.0013561
0.00171128
0.00216618
0.0027506
0.00350404
0.00447893
0.00570776
0.00736098
0.00953753
0.0124189
0.0162625
0.0225415
0.0394399
0.0564584
0.0733684
0.0899864
0.106159
0.121757
0.136663
0.150774
0.16399
0.176211
0.18734
0.197266
0.205885
0.213081
0.218803
0.223059
0.225978
0.227812
0.228872
0.229444
0.229734
0.229875
0.229942
0.229974
0.229988
0.229995
0.229998
0.229999
0.23
0.23
0.23
0.23
0.23
0.23
4.40179e-10
1.92401e-09
4.42066e-09
8.60672e-09
1.5589e-08
2.71562e-08
4.61574e-08
7.70554e-08
1.26705e-07
2.05396e-07
3.28162e-07
5.16259e-07
7.9859e-07
1.21259e-06
1.80395e-06
2.62436e-06
3.727e-06
5.16005e-06
6.95965e-06
9.14435e-06
1.17126e-05
1.46435e-05
1.79004e-05
2.14352e-05
2.5193e-05
2.9116e-05
3.31458e-05
3.72262e-05
4.13045e-05
4.53329e-05
4.9271e-05
5.30901e-05
5.67826e-05
6.03781e-05
6.39641e-05
6.77012e-05
7.18418e-05
7.67405e-05
8.28403e-05
9.06623e-05
0.000100802
0.000113942
0.000130881
0.000152579
0.000180209
0.000215234
0.000259492
0.000315313
0.000385663
0.000474324
0.000586138
0.000727312
0.000905829
0.00113198
0.00141909
0.00178442
0.0022505
0.00284681
0.00361216
0.00459715
0.00583317
0.00748727
0.00964899
0.0124895
0.0162437
0.025159
0.0421366
0.0591746
0.0760593
0.0926169
0.108701
0.124185
0.138957
0.152914
0.165957
0.177984
0.188882
0.198598
0.20702
0.214013
0.219513
0.223559
0.226299
0.228001
0.228976
0.229497
0.22976
0.229887
0.229948
0.229977
0.22999
0.229995
0.229998
0.229999
0.23
0.23
0.23
0.23
0.23
0.23
4.46335e-10
1.95101e-09
4.48326e-09
8.73038e-09
1.58176e-08
2.75645e-08
4.68722e-08
7.8289e-08
1.28808e-07
2.08937e-07
3.34044e-07
5.25888e-07
8.14089e-07
1.23707e-06
1.8418e-06
2.68156e-06
3.81132e-06
5.2812e-06
7.12926e-06
9.37588e-06
1.20211e-05
1.50456e-05
1.84139e-05
2.20791e-05
2.59874e-05
3.00816e-05
3.43045e-05
3.86006e-05
4.29177e-05
4.72087e-05
5.1434e-05
5.55665e-05
5.96019e-05
6.35766e-05
6.75882e-05
7.18063e-05
7.64982e-05
8.20341e-05
8.88719e-05
9.75465e-05
0.000108669
0.00012294
0.000141181
0.000164379
0.00019374
0.000230761
0.000277323
0.000335794
0.000409179
0.00050129
0.000616976
0.000762422
0.000945518
0.00117635
0.00146785
0.00183661
0.00230397
0.0028975
0.00365288
0.00461656
0.00581143
0.00734293
0.0093663
0.0119649
0.0153159
0.0271044
0.0442362
0.0613385
0.0782287
0.0947513
0.110771
0.126169
0.140837
0.154673
0.167578
0.179453
0.190216
0.199754
0.207958
0.214762
0.220083
0.223954
0.226551
0.228148
0.229055
0.229538
0.229779
0.229897
0.229953
0.229979
0.22999
0.229996
0.229998
0.229999
0.23
0.23
0.23
0.23
0.23
0.23
4.51436e-10
1.9734e-09
4.53521e-09
8.83315e-09
1.60078e-08
2.79052e-08
4.74702e-08
7.93237e-08
1.30576e-07
2.11922e-07
3.39017e-07
5.34048e-07
8.27253e-07
1.25791e-06
1.87409e-06
2.73043e-06
3.88351e-06
5.38513e-06
7.27513e-06
9.57556e-06
1.22881e-05
1.5395e-05
1.88622e-05
2.26444e-05
2.66891e-05
3.09408e-05
3.53438e-05
3.98443e-05
4.4392e-05
4.8942e-05
5.34571e-05
5.79136e-05
6.23131e-05
6.6701e-05
7.11836e-05
7.59337e-05
8.12288e-05
8.74486e-05
9.50602e-05
0.000104608
0.000116717
0.000132102
0.000151607
0.000176242
0.000207239
0.000246127
0.000294814
0.000355699
0.000431808
0.000526966
0.000646014
0.000795095
0.000982001
0.00121663
0.00151158
0.00188286
0.00235089
0.00294169
0.00368844
0.00463357
0.00579976
0.00727425
0.00921223
0.011683
0.0148302
0.0287502
0.0459524
0.0630791
0.0799591
0.0964443
0.112404
0.127723
0.142296
0.156026
0.168819
0.180591
0.191245
0.200655
0.208718
0.215349
0.220519
0.224258
0.226743
0.22826
0.229116
0.229568
0.229794
0.229904
0.229956
0.22998
0.229991
0.229996
0.229998
0.229999
0.23
0.23
0.23
0.23
0.23
0.23
4.55365e-10
1.99065e-09
4.57528e-09
8.91256e-09
1.61552e-08
2.81696e-08
4.79356e-08
8.01313e-08
1.31961e-07
2.14266e-07
3.4293e-07
5.40484e-07
8.37657e-07
1.2744e-06
1.89968e-06
2.76924e-06
3.94091e-06
5.4679e-06
7.3915e-06
9.73521e-06
1.25022e-05
1.5676e-05
1.92243e-05
2.31032e-05
2.72619e-05
3.1647e-05
3.62047e-05
4.08838e-05
4.56368e-05
5.04223e-05
5.52074e-05
5.99744e-05
6.47336e-05
6.95425e-05
7.45161e-05
7.98263e-05
8.57494e-05
9.26676e-05
0.000101052
0.000111455
0.000124512
0.000140956
0.00016165
0.000187628
0.00022015
0.000260775
0.000311444
0.000374587
0.000453264
0.00055133
0.000673656
0.000826405
0.00101738
0.00125648
0.00155626
0.0019327
0.00240612
0.0030024
0.00375457
0.00470484
0.00587788
0.00735479
0.00929495
0.0117672
0.0149001
0.0301042
0.0473151
0.0644292
0.081279
0.0977197
0.113624
0.128884
0.143395
0.157061
0.16979
0.181477
0.19203
0.201333
0.209286
0.215803
0.220846
0.224481
0.226884
0.228341
0.22916
0.22959
0.229805
0.229909
0.229958
0.229981
0.229992
0.229996
0.229998
0.229999
0.23
0.23
0.23
0.23
0.23
0.23
4.58013e-10
2.00228e-09
4.60232e-09
8.96621e-09
1.62549e-08
2.83489e-08
4.82519e-08
8.06816e-08
1.32906e-07
2.15871e-07
3.45619e-07
5.44917e-07
8.4484e-07
1.28582e-06
1.91742e-06
2.79618e-06
3.98081e-06
5.52553e-06
7.47265e-06
9.84677e-06
1.26521e-05
1.58735e-05
1.94796e-05
2.3428e-05
2.76696e-05
3.21526e-05
3.68253e-05
4.16391e-05
4.65496e-05
5.1519e-05
5.65196e-05
6.15402e-05
6.66006e-05
7.17699e-05
7.71847e-05
8.30445e-05
8.957e-05
9.71362e-05
0.000106218
0.000117375
0.000131255
0.000148609
0.000170319
0.000197443
0.00023127
0.000273388
0.000325771
0.000390892
0.000471853
0.000572564
0.000697959
0.000854281
0.00104944
0.00129349
0.00159919
0.00198284
0.00246523
0.00307298
0.00384026
0.00481108
0.00600897
0.00752386
0.009518
0.0120643
0.0152882
0.0311108
0.0482994
0.0653869
0.0822067
0.0986148
0.114486
0.129705
0.144169
0.157783
0.17045
0.182074
0.192558
0.20179
0.209667
0.216107
0.221075
0.224635
0.22698
0.228397
0.229189
0.229605
0.229812
0.229913
0.22996
0.229982
0.229992
0.229996
0.229998
0.229999
0.23
0.23
0.23
0.23
0.23
0.23
4.59315e-10
2.008e-09
4.6156e-09
8.99253e-09
1.63038e-08
2.84368e-08
4.8407e-08
8.09516e-08
1.33371e-07
2.1666e-07
3.46941e-07
5.47098e-07
8.48375e-07
1.29143e-06
1.92616e-06
2.80946e-06
4.0005e-06
5.55401e-06
7.51283e-06
9.90215e-06
1.27268e-05
1.59722e-05
1.96078e-05
2.3592e-05
2.78765e-05
3.24107e-05
3.71443e-05
4.20301e-05
4.70259e-05
5.20967e-05
5.72181e-05
6.23843e-05
6.76214e-05
7.30088e-05
7.87001e-05
8.49191e-05
9.19197e-05
9.99508e-05
0.000109507
0.000121163
0.000135579
0.000153518
0.000175881
0.000203741
0.000238409
0.000281494
0.000334999
0.000401426
0.000483915
0.000586424
0.000713949
0.000872813
0.00107104
0.00131883
0.00162917
0.00201869
0.00250863
0.00312632
0.00390689
0.0048957
0.00611361
0.0076605
0.00969868
0.0123018
0.0155898
0.0316441
0.0488282
0.0659024
0.0827035
0.0990893
0.114934
0.130127
0.144563
0.158147
0.170782
0.182373
0.192822
0.202017
0.209856
0.216257
0.221186
0.224711
0.227027
0.228424
0.229204
0.229613
0.229816
0.229914
0.229961
0.229982
0.229992
0.229997
0.229998
0.229999
0.23
0.23
0.23
0.23
0.23
0.23
4.59264e-10
2.00777e-09
4.61505e-09
8.99139e-09
1.63016e-08
2.84327e-08
4.83995e-08
8.09381e-08
1.33347e-07
2.1662e-07
3.46874e-07
5.46991e-07
8.4821e-07
1.29119e-06
1.92583e-06
2.80901e-06
3.99997e-06
5.55342e-06
7.51229e-06
9.90178e-06
1.27268e-05
1.59728e-05
1.96092e-05
2.35945e-05
2.78804e-05
3.24162e-05
3.71515e-05
4.20391e-05
4.70368e-05
5.21094e-05
5.72325e-05
6.24002e-05
6.76388e-05
7.30274e-05
7.87196e-05
8.4939e-05
9.19394e-05
9.99695e-05
0.000109524
0.000121177
0.000135587
0.000153519
0.00017587
0.000203715
0.000238359
0.000281412
0.000334873
0.000401238
0.000483646
0.000586045
0.000713426
0.000872105
0.00107009
0.00131759
0.00162758
0.00201669
0.00250619
0.00312344
0.00390369
0.0048924
0.00611063
0.00765878
0.00969911
0.0123047
0.0155926
0.0316481
0.048834
0.0659088
0.0827098
0.0990951
0.11494
0.130131
0.144567
0.158151
0.170785
0.182376
0.192825
0.20202
0.209858
0.216259
0.221187
0.224712
0.227028
0.228424
0.229204
0.229613
0.229816
0.229914
0.229961
0.229982
0.229992
0.229997
0.229998
0.229999
0.23
0.23
0.23
0.23
0.23
0.23
4.57866e-10
2.00163e-09
4.60076e-09
8.963e-09
1.62487e-08
2.83374e-08
4.82309e-08
8.06441e-08
1.32841e-07
2.1576e-07
3.45435e-07
5.44622e-07
8.44384e-07
1.28514e-06
1.91648e-06
2.79492e-06
3.97927e-06
5.5238e-06
7.47097e-06
9.84551e-06
1.26518e-05
1.58747e-05
1.94832e-05
2.34347e-05
2.76802e-05
3.21676e-05
3.68454e-05
4.16646e-05
4.65806e-05
5.15555e-05
5.65612e-05
6.15866e-05
6.66512e-05
7.18241e-05
7.72417e-05
8.31032e-05
8.96287e-05
9.7193e-05
0.000106271
0.000117421
0.00013129
0.000148627
0.000170311
0.000197397
0.00023117
0.00027321
0.000325486
0.000390459
0.000471219
0.00057166
0.0006967
0.00085256
0.00104713
0.00129044
0.00159526
0.00197788
0.00245915
0.00306584
0.00383235
0.00480306
0.00600191
0.00752027
0.00952038
0.012073
0.0152955
0.0311226
0.0483156
0.0654051
0.0822249
0.098632
0.114501
0.129719
0.144182
0.157794
0.17046
0.182083
0.192566
0.201798
0.209674
0.216112
0.221078
0.224637
0.226981
0.228397
0.22919
0.229606
0.229813
0.229913
0.22996
0.229982
0.229992
0.229996
0.229998
0.229999
0.23
0.23
0.23
0.23
0.23
0.23
4.5513e-10
1.98961e-09
4.57279e-09
8.90746e-09
1.61454e-08
2.81513e-08
4.79023e-08
8.00719e-08
1.31857e-07
2.14089e-07
3.42637e-07
5.40014e-07
8.36929e-07
1.27332e-06
1.89815e-06
2.7672e-06
3.93837e-06
5.465e-06
7.38858e-06
9.73284e-06
1.25012e-05
1.56774e-05
1.92292e-05
2.31128e-05
2.72775e-05
3.16697e-05
3.62354e-05
4.09231e-05
4.56852e-05
5.04797e-05
5.52734e-05
6.00485e-05
6.48147e-05
6.96296e-05
7.46082e-05
7.99219e-05
8.5847e-05
9.27656e-05
0.000101148
0.000111547
0.000124594
0.000141022
0.00016169
0.000187628
0.000220091
0.00026063
0.000311176
0.000374147
0.000452586
0.00055033
0.000672225
0.000824406
0.00101465
0.00125283
0.00155149
0.00192664
0.00239867
0.00299365
0.00374495
0.00469538
0.00587033
0.00735228
0.00929977
0.0117787
0.0149054
0.0301226
0.0473384
0.0644556
0.0813064
0.0977469
0.113651
0.128908
0.143417
0.157082
0.169808
0.181494
0.192044
0.201346
0.209297
0.215812
0.220853
0.224486
0.226887
0.228343
0.229161
0.229591
0.229805
0.229909
0.229958
0.229981
0.229992
0.229996
0.229998
0.229999
0.23
0.23
0.23
0.23
0.23
0.23
4.51129e-10
1.97203e-09
4.53195e-09
8.82649e-09
1.5995e-08
2.78813e-08
4.74267e-08
7.9246e-08
1.3044e-07
2.1169e-07
3.38629e-07
5.33421e-07
8.26274e-07
1.25644e-06
1.87198e-06
2.72756e-06
3.87985e-06
5.3808e-06
7.2705e-06
9.5713e-06
1.22852e-05
1.53947e-05
1.88661e-05
2.2654e-05
2.67061e-05
3.09667e-05
3.53799e-05
3.98915e-05
4.4451e-05
4.9013e-05
5.35398e-05
5.80074e-05
6.24169e-05
6.68135e-05
7.13036e-05
7.60602e-05
8.13608e-05
8.75854e-05
9.5201e-05
0.000104752
0.000116861
0.000132243
0.00015174
0.000176357
0.000207323
0.000246161
0.000294773
0.000355546
0.000431495
0.000526427
0.000645168
0.000793837
0.000980207
0.00121416
0.0015083
0.00187866
0.00234576
0.00293581
0.00368232
0.00462827
0.00579689
0.00727453
0.00921565
0.0116873
0.0148224
0.0287757
0.0459825
0.0631123
0.0799935
0.0964788
0.112438
0.127756
0.142328
0.156056
0.168847
0.180615
0.191267
0.200674
0.208734
0.215362
0.220529
0.224265
0.226747
0.228262
0.229117
0.229569
0.229795
0.229904
0.229956
0.22998
0.229991
0.229996
0.229998
0.229999
0.23
0.23
0.23
0.23
0.23
0.23
4.4597e-10
1.94939e-09
4.4794e-09
8.72249e-09
1.58024e-08
2.75362e-08
4.68206e-08
7.81967e-08
1.28646e-07
2.08658e-07
3.33577e-07
5.25126e-07
8.12887e-07
1.23525e-06
1.83915e-06
2.67787e-06
3.8065e-06
5.2753e-06
7.12261e-06
9.36915e-06
1.20154e-05
1.50423e-05
1.84148e-05
2.20861e-05
2.60024e-05
3.01065e-05
3.43408e-05
3.86496e-05
4.29803e-05
4.72852e-05
5.15244e-05
5.56702e-05
5.9718e-05
6.3704e-05
6.77258e-05
7.19535e-05
7.66549e-05
8.22008e-05
8.90497e-05
9.77369e-05
0.000108873
0.00012316
0.000141418
0.000164633
0.00019401
0.000231046
0.000277617
0.000336093
0.000409473
0.000501567
0.000617225
0.000762628
0.00094567
0.00117645
0.0014679
0.00183664
0.00230405
0.00289771
0.00365333
0.00461731
0.00581195
0.00734265
0.00936377
0.011957
0.0152984
0.0271517
0.0442828
0.0613839
0.0782724
0.0947928
0.11081
0.126206
0.140872
0.154707
0.167611
0.179485
0.190246
0.19978
0.20798
0.21478
0.220096
0.223964
0.226557
0.228151
0.229057
0.229538
0.22978
0.229897
0.229953
0.229979
0.22999
0.229996
0.229998
0.229999
0.23
0.23
0.23
0.23
0.23
0.23
4.39772e-10
1.9222e-09
4.41636e-09
8.59793e-09
1.55721e-08
2.71247e-08
4.60999e-08
7.69523e-08
1.26523e-07
2.05082e-07
3.27632e-07
5.15388e-07
7.97203e-07
1.21046e-06
1.8008e-06
2.61991e-06
3.72104e-06
5.15252e-06
6.95078e-06
9.13475e-06
1.17033e-05
1.4636e-05
1.78964e-05
2.14369e-05
2.52026e-05
2.91354e-05
3.31769e-05
3.72705e-05
4.1363e-05
4.54063e-05
4.93593e-05
5.31929e-05
5.68991e-05
6.05074e-05
6.41053e-05
6.78541e-05
7.20068e-05
7.69192e-05
8.30355e-05
9.08777e-05
0.000101042
0.000114214
0.000131193
0.000152939
0.000180629
0.000215728
0.000260079
0.000316019
0.00038652
0.000475378
0.000587447
0.000728955
0.000907906
0.00113462
0.00142241
0.00178855
0.00225549
0.00285252
0.0036181
0.00460224
0.00583482
0.00748541
0.00964372
0.0124813
0.0162447
0.0252404
0.0422072
0.0592379
0.0761171
0.0926704
0.108751
0.124232
0.139001
0.152956
0.165997
0.178021
0.188916
0.198628
0.207046
0.214035
0.219529
0.22357
0.226307
0.228005
0.228978
0.229498
0.22976
0.229888
0.229948
0.229977
0.22999
0.229995
0.229998
0.229999
0.23
0.23
0.23
0.23
0.23
0.23
4.32663e-10
1.89102e-09
4.34415e-09
8.45546e-09
1.53093e-08
2.6656e-08
4.5281e-08
7.55421e-08
1.24125e-07
2.01053e-07
3.2095e-07
5.04472e-07
7.79661e-07
1.1828e-06
1.75809e-06
2.55548e-06
3.62623e-06
5.0166e-06
6.76098e-06
8.87649e-06
1.13604e-05
1.41912e-05
1.73315e-05
2.07329e-05
2.43402e-05
2.8095e-05
3.19389e-05
3.58155e-05
3.9672e-05
4.34607e-05
4.71409e-05
5.06834e-05
5.40783e-05
5.73493e-05
6.05738e-05
6.39002e-05
6.75635e-05
7.18989e-05
7.73306e-05
8.43617e-05
9.35698e-05
0.000105617
0.000121278
0.000141479
0.000167357
0.000200325
0.000242168
0.000295152
0.000362168
0.000446918
0.000554153
0.000689988
0.000862314
0.00108134
0.00136033
0.00171654
0.00217258
0.00275815
0.00351249
0.00448765
0.00571541
0.00736624
0.00954061
0.0124253
0.0162937
0.0226274
0.0395129
0.0565253
0.0734308
0.0900456
0.106216
0.121811
0.136716
0.150824
0.164036
0.176254
0.187378
0.1973
0.205915
0.213107
0.218823
0.223073
0.225987
0.227817
0.228875
0.229445
0.229734
0.229875
0.229943
0.229974
0.229988
0.229995
0.229998
0.229999
0.23
0.23
0.23
0.23
0.23
0.23
4.24778e-10
1.85646e-09
4.26415e-09
8.29782e-09
1.50189e-08
2.61394e-08
4.43805e-08
7.39957e-08
1.21502e-07
1.96659e-07
3.13686e-07
4.92637e-07
7.60697e-07
1.15297e-06
1.71216e-06
2.48635e-06
3.52476e-06
4.87149e-06
6.5589e-06
8.60232e-06
1.09977e-05
1.37224e-05
1.67385e-05
1.99975e-05
2.34441e-05
2.70204e-05
3.06688e-05
3.43336e-05
3.79632e-05
4.15111e-05
4.4938e-05
4.82151e-05
5.13315e-05
5.43062e-05
5.72066e-05
6.01664e-05
6.34001e-05
6.72183e-05
7.20204e-05
7.82849e-05
8.65648e-05
9.74951e-05
0.000111816
0.000130413
0.000154365
0.000185016
0.00022406
0.000273647
0.000336517
0.000416178
0.00051713
0.000645154
0.000807698
0.00101437
0.00127762
0.00161358
0.00204325
0.0025941
0.00330215
0.00421502
0.00537726
0.00686162
0.00884474
0.0114275