/*--------------------------------*- C++ -*----------------------------------*\
  =========                 |
  \\      /  F ield         | OpenFOAM: The Open Source CFD Toolbox
   \\    /   O peration     | Website:  https://openfoam.org
    \\  /    A nd           | Version:  8
     \\/     M anipulation  |
\*---------------------------------------------------------------------------*/
FoamFile
{
    version     2.0;
    format      ascii;
    class       surfaceScalarField;
    location    "140/fluid";
    object      phi;
}
// * * * * * * * * * * * * * * * * * * * * * * * * * * * * * * * * * * * * * //

dimensions      [1 0 -1 0 0 0 0];

internalField   nonuniform List<scalar> 
7860
(
6.5743e-07
-1.72532e-08
6.55104e-07
-5.19057e-08
6.51794e-07
-8.65183e-08
6.474e-07
-1.20933e-07
6.41801e-07
-1.55113e-07
6.34851e-07
-1.8905e-07
6.26384e-07
-2.22749e-07
6.16217e-07
-2.56179e-07
6.04157e-07
-2.89236e-07
5.90012e-07
-3.21746e-07
5.73607e-07
-3.53461e-07
5.54802e-07
-3.84049e-07
5.33531e-07
-4.13076e-07
5.09897e-07
-4.39992e-07
4.8409e-07
-4.64095e-07
4.56376e-07
-4.8457e-07
4.27135e-07
-5.00592e-07
3.96853e-07
-5.1148e-07
3.66082e-07
-5.16859e-07
3.35387e-07
-5.16775e-07
3.05282e-07
-5.11702e-07
2.76184e-07
-5.02436e-07
2.48398e-07
-4.89925e-07
2.22125e-07
-4.75115e-07
1.97522e-07
-4.58842e-07
1.74615e-07
-4.41765e-07
1.53354e-07
-4.24393e-07
1.33645e-07
-4.07097e-07
1.15379e-07
-3.90144e-07
9.8443e-08
-3.73719e-07
8.27261e-08
-3.57946e-07
6.81224e-08
-3.42907e-07
5.45331e-08
-3.28649e-07
4.18664e-08
-3.15199e-07
3.00373e-08
-3.02567e-07
1.89673e-08
-2.90749e-07
8.58385e-09
-2.79736e-07
-1.1799e-09
-2.69512e-07
-1.03788e-08
-2.60036e-07
-1.90621e-08
-2.51267e-07
-2.72819e-08
-2.43182e-07
-3.50857e-08
-2.35756e-07
-4.25177e-08
-2.28964e-07
-4.96184e-08
-2.2278e-07
-5.64252e-08
-2.17177e-07
-6.29727e-08
-2.1213e-07
-6.92927e-08
-2.07615e-07
-7.54144e-08
-2.03608e-07
-8.13648e-08
-2.0009e-07
-8.71686e-08
-1.97039e-07
-9.28485e-08
-1.94439e-07
-9.84252e-08
-1.92274e-07
-1.03918e-07
-1.90529e-07
-1.09343e-07
-1.89193e-07
-1.14717e-07
-1.88255e-07
-1.20054e-07
-1.87709e-07
-1.25367e-07
-1.87548e-07
-1.30668e-07
-1.87768e-07
-1.35969e-07
-1.88369e-07
-1.4128e-07
-1.89351e-07
-1.46616e-07
-1.90721e-07
-1.5199e-07
-1.92488e-07
-1.57424e-07
-1.94665e-07
-1.62947e-07
-1.97277e-07
-1.68598e-07
-2.00371e-07
-1.74439e-07
-2.03941e-07
-1.80585e-07
-2.08105e-07
-1.87291e-07
-2.13006e-07
-1.90599e-07
-2.18693e-07
-2.03278e-07
-2.32936e-07
-2.1278e-07
-2.52406e-07
-2.23672e-07
-2.74097e-07
-2.35811e-07
-2.97982e-07
-2.49347e-07
-3.242e-07
-2.64552e-07
-3.5292e-07
-2.81758e-07
-3.84282e-07
-3.01387e-07
-4.18394e-07
-3.23982e-07
-4.55313e-07
-3.50247e-07
-4.94999e-07
-3.81065e-07
-5.37397e-07
-4.17559e-07
-5.82362e-07
-4.61017e-07
-6.28869e-07
-5.12571e-07
-6.74569e-07
-5.72289e-07
-7.15342e-07
-6.39404e-07
-7.44909e-07
-7.11836e-07
-7.56534e-07
-7.85835e-07
-7.46715e-07
-8.56978e-07
-7.17446e-07
-9.21803e-07
-6.74103e-07
-9.78533e-07
-6.22359e-07
-1.02673e-06
-5.6611e-07
-1.06653e-06
-5.07597e-07
-1.09842e-06
-4.4806e-07
-1.12356e-06
-3.88104e-07
-1.14305e-06
-3.28054e-07
-1.15787e-06
-2.67894e-07
-1.16882e-06
-2.07519e-07
-1.17656e-06
-1.47281e-07
-1.18163e-06
-8.78062e-08
-2.9149e-08
6.58007e-07
-1.67261e-08
6.56189e-07
-5.00888e-08
6.53005e-07
-8.33344e-08
6.48445e-07
-1.16374e-07
6.42444e-07
-1.49113e-07
6.34909e-07
-1.81516e-07
6.2573e-07
-2.13574e-07
6.14791e-07
-2.45246e-07
6.01977e-07
-2.76432e-07
5.8719e-07
-3.06973e-07
5.70352e-07
-3.36647e-07
5.51421e-07
-3.65154e-07
5.30403e-07
-3.92109e-07
5.07378e-07
-4.17039e-07
4.82484e-07
-4.39299e-07
4.55927e-07
-4.58137e-07
4.28002e-07
-4.72817e-07
3.99095e-07
-4.82741e-07
3.69655e-07
-4.87594e-07
3.40153e-07
-4.87442e-07
3.11036e-07
-4.82732e-07
2.8268e-07
-4.74193e-07
2.55375e-07
-4.62691e-07
2.29322e-07
-4.4909e-07
2.04664e-07
-4.34166e-07
1.81462e-07
-4.18507e-07
1.59721e-07
-4.0256e-07
1.39404e-07
-3.86661e-07
1.20454e-07
-3.71051e-07
1.02795e-07
-3.55901e-07
8.63463e-08
-3.41326e-07
7.10228e-08
-3.27402e-07
5.6739e-08
-3.14179e-07
4.34109e-08
-3.01683e-07
3.09576e-08
-2.89925e-07
1.93017e-08
-2.78907e-07
8.36988e-09
-2.68621e-07
-1.90642e-09
-2.59056e-07
-1.15854e-08
-2.50174e-07
-2.07203e-08
-2.41941e-07
-2.93658e-08
-2.34337e-07
-3.75723e-08
-2.27342e-07
-4.53868e-08
-2.20935e-07
-5.28528e-08
-2.15091e-07
-6.00106e-08
-2.09789e-07
-6.68973e-08
-2.05006e-07
-7.35475e-08
-2.00721e-07
-7.9993e-08
-1.96912e-07
-8.62633e-08
-1.93562e-07
-9.23858e-08
-1.90653e-07
-9.83858e-08
-1.88169e-07
-1.04287e-07
-1.86096e-07
-1.10111e-07
-1.84422e-07
-1.15878e-07
-1.83137e-07
-1.21608e-07
-1.82233e-07
-1.27318e-07
-1.81701e-07
-1.33027e-07
-1.81537e-07
-1.3875e-07
-1.81738e-07
-1.44507e-07
-1.82303e-07
-1.50314e-07
-1.83232e-07
-1.56194e-07
-1.84528e-07
-1.6217e-07
-1.86198e-07
-1.68275e-07
-1.88247e-07
-1.74546e-07
-1.90697e-07
-1.81035e-07
-1.93572e-07
-1.87785e-07
-1.96866e-07
-1.94929e-07
-2.00609e-07
-2.0286e-07
-2.04649e-07
-2.06805e-07
-2.08923e-07
-2.18786e-07
-2.25139e-07
-2.28771e-07
-2.43857e-07
-2.40248e-07
-2.64402e-07
-2.53298e-07
-2.87094e-07
-2.68057e-07
-3.12037e-07
-2.84771e-07
-3.39301e-07
-3.03778e-07
-3.68961e-07
-3.25491e-07
-4.01064e-07
-3.50417e-07
-4.35596e-07
-3.79145e-07
-4.72449e-07
-4.12312e-07
-5.1156e-07
-4.50681e-07
-5.52606e-07
-4.95085e-07
-5.94336e-07
-5.46167e-07
-6.34306e-07
-6.03865e-07
-6.68654e-07
-6.67212e-07
-6.91574e-07
-7.33959e-07
-6.97636e-07
-8.00818e-07
-6.8508e-07
-8.64589e-07
-6.56669e-07
-9.23095e-07
-6.17117e-07
-9.75295e-07
-5.70882e-07
-1.0209e-06
-5.20836e-07
-1.05993e-06
-4.68714e-07
-1.09259e-06
-4.15461e-07
-1.11934e-06
-3.61377e-07
-1.14072e-06
-3.06684e-07
-1.15727e-06
-2.51353e-07
-1.16947e-06
-1.9532e-07
-1.17775e-06
-1.38998e-07
-1.18241e-06
-8.31473e-08
-2.7738e-08
6.57743e-07
-1.59355e-08
6.55449e-07
-4.77947e-08
6.51651e-07
-7.95366e-08
6.46309e-07
-1.11033e-07
6.39378e-07
-1.42183e-07
6.30804e-07
-1.72944e-07
6.2053e-07
-2.03303e-07
6.08504e-07
-2.33224e-07
5.94684e-07
-2.62621e-07
5.79048e-07
-2.91351e-07
5.61598e-07
-3.19218e-07
5.42362e-07
-3.45949e-07
5.21389e-07
-3.71182e-07
4.98728e-07
-3.94442e-07
4.74483e-07
-4.15139e-07
4.48842e-07
-4.32605e-07
4.22071e-07
-4.46175e-07
3.94504e-07
-4.55317e-07
3.66518e-07
-4.59756e-07
3.38505e-07
-4.59568e-07
3.10831e-07
-4.55175e-07
2.8381e-07
-4.47256e-07
2.57683e-07
-4.36609e-07
2.32612e-07
-4.24023e-07
2.08673e-07
-4.10192e-07
1.85912e-07
-3.95675e-07
1.64352e-07
-3.80899e-07
1.43994e-07
-3.66175e-07
1.24815e-07
-3.51726e-07
1.06781e-07
-3.37704e-07
8.98417e-08
-3.24214e-07
7.39415e-08
-3.11322e-07
5.90187e-08
-2.99073e-07
4.50089e-08
-2.87488e-07
3.18467e-08
-2.76579e-07
1.94668e-08
-2.66345e-07
7.80527e-09
-2.56783e-07
-3.19858e-09
-2.47878e-07
-1.3598e-08
-2.39597e-07
-2.34429e-08
-2.31909e-07
-3.27852e-08
-2.24799e-07
-4.16743e-08
-2.18249e-07
-5.01569e-08
-2.1224e-07
-5.82766e-08
-2.06751e-07
-6.60747e-08
-2.01763e-07
-7.35897e-08
-1.97255e-07
-8.08574e-08
-1.93209e-07
-8.79118e-08
-1.89607e-07
-9.47843e-08
-1.86431e-07
-1.01505e-07
-1.83667e-07
-1.08101e-07
-1.813e-07
-1.14599e-07
-1.79319e-07
-1.21024e-07
-1.77712e-07
-1.274e-07
-1.7647e-07
-1.3375e-07
-1.75586e-07
-1.40095e-07
-1.75054e-07
-1.46458e-07
-1.74869e-07
-1.52859e-07
-1.75029e-07
-1.59319e-07
-1.75534e-07
-1.65857e-07
-1.76385e-07
-1.72494e-07
-1.77586e-07
-1.79248e-07
-1.79147e-07
-1.86134e-07
-1.81078e-07
-1.93161e-07
-1.83423e-07
-2.00353e-07
-1.86185e-07
-2.07701e-07
-1.89425e-07
-2.15182e-07
-1.93216e-07
-2.22665e-07
-1.97569e-07
-2.3965e-07
-2.03183e-07
-2.48105e-07
-2.18572e-07
-2.57944e-07
-2.35848e-07
-2.69398e-07
-2.55041e-07
-2.82628e-07
-2.76293e-07
-2.97813e-07
-2.99694e-07
-3.15154e-07
-3.253e-07
-3.34899e-07
-3.5315e-07
-3.57346e-07
-3.83257e-07
-3.8283e-07
-4.15584e-07
-4.11681e-07
-4.50045e-07
-4.442e-07
-4.86619e-07
-4.80769e-07
-5.24802e-07
-5.21807e-07
-5.63112e-07
-5.67775e-07
-5.98745e-07
-6.19255e-07
-6.27313e-07
-6.75981e-07
-6.43608e-07
-7.36194e-07
-6.43955e-07
-7.97043e-07
-6.28414e-07
-8.55769e-07
-6.00291e-07
-9.10479e-07
-5.63592e-07
-9.60246e-07
-5.21678e-07
-1.00475e-06
-4.76594e-07
-1.04401e-06
-4.29568e-07
-1.07817e-06
-3.81344e-07
-1.10725e-06
-3.32324e-07
-1.13132e-06
-2.82618e-07
-1.15058e-06
-2.32098e-07
-1.16524e-06
-1.80661e-07
-1.17554e-06
-1.28703e-07
-1.18171e-06
-7.69765e-08
-2.56244e-08
6.57753e-07
-1.51551e-08
6.55381e-07
-4.54226e-08
6.51402e-07
-7.55576e-08
6.45803e-07
-1.05434e-07
6.38565e-07
-1.34947e-07
6.29667e-07
-1.64048e-07
6.19082e-07
-1.92722e-07
6.06787e-07
-2.20934e-07
5.92762e-07
-2.48604e-07
5.76995e-07
-2.75597e-07
5.59488e-07
-3.0173e-07
5.40257e-07
-3.26748e-07
5.19348e-07
-3.50314e-07
4.96836e-07
-3.71988e-07
4.7285e-07
-3.91228e-07
4.47573e-07
-4.07422e-07
4.21249e-07
-4.19963e-07
3.94177e-07
-4.28368e-07
3.66698e-07
-4.324e-07
3.39163e-07
-4.32146e-07
3.11907e-07
-4.2801e-07
2.8522e-07
-4.20629e-07
2.5933e-07
-4.10743e-07
2.34402e-07
-3.99081e-07
2.10539e-07
-3.86279e-07
1.87795e-07
-3.72849e-07
1.66191e-07
-3.59184e-07
1.45717e-07
-3.45569e-07
1.26349e-07
-3.32207e-07
1.08048e-07
-3.1924e-07
9.07683e-08
-3.06762e-07
7.44589e-08
-2.94836e-07
5.90647e-08
-2.83499e-07
4.45292e-08
-2.72773e-07
3.0795e-08
-2.62667e-07
1.7805e-08
-2.53181e-07
5.50241e-09
-2.44311e-07
-6.16447e-09
-2.36044e-07
-1.72432e-08
-2.28346e-07
-2.77792e-08
-2.21191e-07
-3.78201e-08
-2.14567e-07
-4.74118e-08
-2.08457e-07
-5.65984e-08
-2.02844e-07
-6.54217e-08
-1.9771e-07
-7.39217e-08
-1.93036e-07
-8.21361e-08
-1.88805e-07
-9.01008e-08
-1.85e-07
-9.78498e-08
-1.81605e-07
-1.05415e-07
-1.78605e-07
-1.12828e-07
-1.75986e-07
-1.20117e-07
-1.73736e-07
-1.27311e-07
-1.71843e-07
-1.34436e-07
-1.70298e-07
-1.41519e-07
-1.69092e-07
-1.48584e-07
-1.68219e-07
-1.55658e-07
-1.67674e-07
-1.62764e-07
-1.67452e-07
-1.69928e-07
-1.67551e-07
-1.77174e-07
-1.67971e-07
-1.84528e-07
-1.68713e-07
-1.92014e-07
-1.69782e-07
-1.99659e-07
-1.71185e-07
-2.07486e-07
-1.72939e-07
-2.15515e-07
-1.75087e-07
-2.23811e-07
-1.77603e-07
-2.32433e-07
-1.80569e-07
-2.41308e-07
-1.84204e-07
-2.50217e-07
-1.88799e-07
-2.68066e-07
-1.97387e-07
-2.76922e-07
-2.11313e-07
-2.87408e-07
-2.27218e-07
-2.99487e-07
-2.45135e-07
-3.13282e-07
-2.65044e-07
-3.28984e-07
-2.86982e-07
-3.46801e-07
-3.10995e-07
-3.66967e-07
-3.37111e-07
-3.89752e-07
-3.65323e-07
-4.1546e-07
-3.95568e-07
-4.44381e-07
-4.278e-07
-4.76867e-07
-4.61914e-07
-5.13388e-07
-4.97145e-07
-5.54458e-07
-5.31758e-07
-6.00473e-07
-5.62727e-07
-6.51372e-07
-5.85755e-07
-7.06187e-07
-5.96462e-07
-7.62957e-07
-5.92606e-07
-8.19346e-07
-5.75342e-07
-8.7343e-07
-5.48006e-07
-9.2394e-07
-5.13976e-07
-9.70216e-07
-4.75825e-07
-1.01194e-06
-4.35067e-07
-1.04898e-06
-3.92612e-07
-1.08134e-06
-3.49019e-07
-1.10909e-06
-3.04593e-07
-1.13231e-06
-2.59404e-07
-1.1511e-06
-2.13312e-07
-1.16554e-06
-1.66215e-07
-1.17574e-06
-1.18502e-07
-1.18181e-06
-7.09124e-08
-2.36121e-08
6.57685e-07
-1.43067e-08
6.55155e-07
-4.28924e-08
6.50944e-07
-7.13467e-08
6.45046e-07
-9.95373e-08
6.37458e-07
-1.27359e-07
6.28172e-07
-1.54764e-07
6.17183e-07
-1.81735e-07
6.04486e-07
-2.08242e-07
5.90083e-07
-2.34208e-07
5.73984e-07
-2.5951e-07
5.56212e-07
-2.83976e-07
5.36808e-07
-3.07369e-07
5.15833e-07
-3.29376e-07
4.93381e-07
-3.49586e-07
4.69579e-07
-3.67493e-07
4.44604e-07
-3.8253e-07
4.18683e-07
-3.94138e-07
3.92089e-07
-4.01877e-07
3.65126e-07
-4.0554e-07
3.38112e-07
-4.05221e-07
3.11344e-07
-4.01311e-07
2.85084e-07
-3.94408e-07
2.5954e-07
-3.85204e-07
2.34863e-07
-3.74375e-07
2.11154e-07
-3.62506e-07
1.88468e-07
-3.50072e-07
1.66829e-07
-3.37429e-07
1.46236e-07
-3.2484e-07
1.26671e-07
-3.12491e-07
1.08101e-07
-3.00508e-07
9.04875e-08
-2.88979e-07
7.3784e-08
-2.77959e-07
5.79422e-08
-2.67483e-07
4.29111e-08
-2.57568e-07
2.8639e-08
-2.48224e-07
1.50741e-08
-2.3945e-07
2.16503e-09
-2.31242e-07
-1.0133e-08
-2.23586e-07
-2.18618e-08
-2.16448e-07
-3.30646e-08
-2.0981e-07
-4.37852e-08
-2.03658e-07
-5.40665e-08
-1.97978e-07
-6.39497e-08
-1.92753e-07
-7.34745e-08
-1.87968e-07
-8.26791e-08
-1.83605e-07
-9.16001e-08
-1.79649e-07
-1.00272e-07
-1.76084e-07
-1.08729e-07
-1.72895e-07
-1.17004e-07
-1.70069e-07
-1.25126e-07
-1.67594e-07
-1.33125e-07
-1.65457e-07
-1.41032e-07
-1.6365e-07
-1.48874e-07
-1.62163e-07
-1.56679e-07
-1.60987e-07
-1.64475e-07
-1.60117e-07
-1.72289e-07
-1.59547e-07
-1.80152e-07
-1.59273e-07
-1.88093e-07
-1.59291e-07
-1.96144e-07
-1.59598e-07
-2.04341e-07
-1.60195e-07
-2.12722e-07
-1.6108e-07
-2.21336e-07
-1.62255e-07
-2.30227e-07
-1.63738e-07
-2.39462e-07
-1.6554e-07
-2.49089e-07
-1.67635e-07
-2.59204e-07
-1.70037e-07
-2.70205e-07
-1.72602e-07
-2.75463e-07
-1.75256e-07
-2.89566e-07
-1.87376e-07
-3.00922e-07
-2.01333e-07
-3.13233e-07
-2.16676e-07
-3.26807e-07
-2.33731e-07
-3.41853e-07
-2.52602e-07
-3.58593e-07
-2.73332e-07
-3.77265e-07
-2.95965e-07
-3.98126e-07
-3.20533e-07
-4.21447e-07
-3.47026e-07
-4.47507e-07
-3.75383e-07
-4.76559e-07
-4.05607e-07
-5.08931e-07
-4.37448e-07
-5.45015e-07
-4.69927e-07
-5.85173e-07
-5.01088e-07
-6.29594e-07
-5.27738e-07
-6.78019e-07
-5.45762e-07
-7.2944e-07
-5.51625e-07
-7.82159e-07
-5.44329e-07
-8.34319e-07
-5.25807e-07
-8.8445e-07
-4.99255e-07
-9.31584e-07
-4.67522e-07
-9.7517e-07
-4.3256e-07
-1.01488e-06
-3.95501e-07
-1.05052e-06
-3.57036e-07
-1.08198e-06
-3.17596e-07
-1.10918e-06
-2.774e-07
-1.13213e-06
-2.36464e-07
-1.15082e-06
-1.94619e-07
-1.16529e-06
-1.51749e-07
-1.17557e-06
-1.08223e-07
-1.18174e-06
-6.47422e-08
-2.15268e-08
6.57669e-07
-1.34415e-08
6.55071e-07
-4.02952e-08
6.50743e-07
-6.70192e-08
6.44689e-07
-9.34838e-08
6.36915e-07
-1.19586e-07
6.27427e-07
-1.45277e-07
6.1623e-07
-1.70541e-07
6.03332e-07
-1.95349e-07
5.88746e-07
-2.19628e-07
5.72489e-07
-2.43264e-07
5.54592e-07
-2.66094e-07
5.35098e-07
-2.87899e-07
5.14073e-07
-3.08384e-07
4.91608e-07
-3.27167e-07
4.67835e-07
-3.43779e-07
4.42927e-07
-3.57694e-07
4.17106e-07
-3.68399e-07
3.90639e-07
-3.75497e-07
3.63822e-07
-3.78807e-07
3.3696e-07
-3.78431e-07
3.10341e-07
-3.74741e-07
2.84212e-07
-3.683e-07
2.58771e-07
-3.59752e-07
2.34161e-07
-3.49721e-07
2.10473e-07
-3.38746e-07
1.87761e-07
-3.27261e-07
1.66045e-07
-3.15592e-07
1.45322e-07
-3.03979e-07
1.25573e-07
-2.9259e-07
1.06767e-07
-2.81542e-07
8.88653e-08
-2.70912e-07
7.18255e-08
-2.60752e-07
5.56014e-08
-2.51091e-07
4.01454e-08
-2.41947e-07
2.54093e-08
-2.33326e-07
1.13448e-08
-2.2523e-07
-2.09443e-09
-2.17652e-07
-1.49477e-08
-2.10579e-07
-2.72528e-08
-2.0398e-07
-3.90511e-08
-1.97838e-07
-5.03836e-08
-1.92141e-07
-6.12898e-08
-1.86877e-07
-7.18087e-08
-1.8203e-07
-8.19775e-08
-1.77584e-07
-9.18325e-08
-1.73526e-07
-1.01409e-07
-1.69839e-07
-1.10739e-07
-1.66509e-07
-1.19857e-07
-1.63524e-07
-1.28794e-07
-1.6087e-07
-1.37579e-07
-1.58537e-07
-1.46243e-07
-1.56513e-07
-1.54813e-07
-1.5479e-07
-1.6332e-07
-1.5336e-07
-1.71789e-07
-1.52214e-07
-1.80248e-07
-1.51348e-07
-1.88724e-07
-1.50755e-07
-1.97244e-07
-1.50432e-07
-2.05834e-07
-1.50376e-07
-2.14519e-07
-1.50585e-07
-2.23325e-07
-1.5106e-07
-2.32274e-07
-1.51804e-07
-2.41388e-07
-1.52822e-07
-2.50678e-07
-1.54151e-07
-2.60174e-07
-1.55781e-07
-2.69854e-07
-1.57758e-07
-2.7965e-07
-1.60178e-07
-2.89358e-07
-1.63107e-07
-3.06592e-07
-1.67345e-07
-3.165e-07
-1.78708e-07
-3.27771e-07
-1.91634e-07
-3.40285e-07
-2.06087e-07
-3.54189e-07
-2.22135e-07
-3.69666e-07
-2.39864e-07
-3.86892e-07
-2.59333e-07
-4.06062e-07
-2.80584e-07
-4.27398e-07
-3.03633e-07
-4.51145e-07
-3.28458e-07
-4.77548e-07
-3.55016e-07
-5.06863e-07
-3.83294e-07
-5.39434e-07
-4.12855e-07
-5.7563e-07
-4.42522e-07
-6.15747e-07
-4.70146e-07
-6.59821e-07
-4.92472e-07
-7.07335e-07
-5.05783e-07
-7.57042e-07
-5.07525e-07
-8.07229e-07
-4.97766e-07
-8.56289e-07
-4.7882e-07
-9.03088e-07
-4.53526e-07
-9.46943e-07
-4.24189e-07
-9.87478e-07
-3.92271e-07
-1.02446e-06
-3.58629e-07
-1.05775e-06
-3.23803e-07
-1.08723e-06
-2.88135e-07
-1.11284e-06
-2.51795e-07
-1.13455e-06
-2.14762e-07
-1.15231e-06
-1.76854e-07
-1.16611e-06
-1.37952e-07
-1.17594e-06
-9.83959e-08
-1.18184e-06
-5.88448e-08
-1.95431e-08
6.57643e-07
-1.25511e-08
6.54978e-07
-3.76298e-08
6.50543e-07
-6.25847e-08
6.44347e-07
-8.72887e-08
6.36403e-07
-1.11642e-07
6.26723e-07
-1.35598e-07
6.15321e-07
-1.59142e-07
6.02214e-07
-1.82245e-07
5.8742e-07
-2.04841e-07
5.70968e-07
-2.26822e-07
5.52896e-07
-2.48036e-07
5.33255e-07
-2.68279e-07
5.12118e-07
-2.87277e-07
4.89584e-07
-3.04673e-07
4.65786e-07
-3.20031e-07
4.40897e-07
-3.32867e-07
4.15136e-07
-3.42708e-07
3.8876e-07
-3.49194e-07
3.62056e-07
-3.5217e-07
3.35313e-07
-3.51741e-07
3.08804e-07
-3.48264e-07
2.82767e-07
-3.42267e-07
2.57387e-07
-3.34348e-07
2.328e-07
-3.2508e-07
2.09096e-07
-3.14961e-07
1.86323e-07
-3.04384e-07
1.64502e-07
-2.93647e-07
1.4363e-07
-2.82968e-07
1.23687e-07
-2.72499e-07
1.04645e-07
-2.62344e-07
8.64678e-08
-2.52575e-07
6.91132e-08
-2.43236e-07
5.25378e-08
-2.34356e-07
3.66962e-08
-2.25949e-07
2.15427e-08
-2.18021e-07
7.0315e-09
-2.10573e-07
-6.87818e-09
-2.036e-07
-2.02223e-08
-1.97087e-07
-3.30376e-08
-1.91005e-07
-4.53633e-08
-1.85342e-07
-5.72376e-08
-1.80087e-07
-6.86981e-08
-1.75226e-07
-7.97813e-08
-1.70745e-07
-9.05226e-08
-1.66631e-07
-1.00956e-07
-1.62869e-07
-1.11115e-07
-1.59446e-07
-1.21032e-07
-1.56349e-07
-1.30738e-07
-1.53565e-07
-1.40263e-07
-1.51082e-07
-1.49636e-07
-1.48892e-07
-1.58885e-07
-1.46982e-07
-1.6804e-07
-1.45346e-07
-1.77126e-07
-1.43976e-07
-1.86171e-07
-1.42864e-07
-1.95202e-07
-1.42006e-07
-2.04244e-07
-1.41396e-07
-2.13323e-07
-1.4103e-07
-2.22466e-07
-1.40908e-07
-2.31697e-07
-1.41026e-07
-2.41043e-07
-1.41387e-07
-2.50527e-07
-1.41993e-07
-2.60173e-07
-1.42851e-07
-2.70012e-07
-1.43995e-07
-2.80118e-07
-1.45366e-07
-2.90542e-07
-1.47038e-07
-3.012e-07
-1.49244e-07
-3.11344e-07
-1.52298e-07
-3.28799e-07
-1.59338e-07
-3.39378e-07
-1.69611e-07
-3.51261e-07
-1.81503e-07
-3.64433e-07
-1.94985e-07
-3.78996e-07
-2.10009e-07
-3.95116e-07
-2.26604e-07
-4.12972e-07
-2.44822e-07
-4.3276e-07
-2.64702e-07
-4.54697e-07
-2.86252e-07
-4.7902e-07
-3.09432e-07
-5.05955e-07
-3.34234e-07
-5.35767e-07
-3.60569e-07
-5.68772e-07
-3.87827e-07
-6.05248e-07
-4.14678e-07
-6.45326e-07
-4.3884e-07
-6.88794e-07
-4.57128e-07
-7.34892e-07
-4.66338e-07
-7.82317e-07
-4.64838e-07
-8.29584e-07
-4.53447e-07
-8.75465e-07
-4.3458e-07
-9.19138e-07
-4.10689e-07
-9.60105e-07
-3.83628e-07
-9.98057e-07
-3.54508e-07
-1.03278e-06
-3.2399e-07
-1.06412e-06
-2.92501e-07
-1.09196e-06
-2.60313e-07
-1.11622e-06
-2.27549e-07
-1.13682e-06
-1.9416e-07
-1.15373e-06
-1.59951e-07
-1.16688e-06
-1.24797e-07
-1.17627e-06
-8.90098e-08
-1.18191e-06
-5.31979e-08
-1.76353e-08
6.57629e-07
-1.16461e-08
6.54917e-07
-3.49179e-08
6.50404e-07
-5.80726e-08
6.44104e-07
-8.09886e-08
6.36032e-07
-1.03571e-07
6.26207e-07
-1.25775e-07
6.14648e-07
-1.47586e-07
6.01377e-07
-1.68977e-07
5.86418e-07
-1.89888e-07
5.69803e-07
-2.10216e-07
5.51576e-07
-2.29822e-07
5.31792e-07
-2.48515e-07
5.10527e-07
-2.66039e-07
4.87883e-07
-2.82064e-07
4.63995e-07
-2.96189e-07
4.3904e-07
-3.07965e-07
4.13235e-07
-3.16963e-07
3.86837e-07
-3.22857e-07
3.60129e-07
-3.25514e-07
3.33393e-07
-3.25044e-07
3.06896e-07
-3.21785e-07
2.80865e-07
-3.16228e-07
2.55479e-07
-3.08926e-07
2.30866e-07
-3.00404e-07
2.07108e-07
-2.91116e-07
1.84253e-07
-2.8142e-07
1.62317e-07
-2.71586e-07
1.41295e-07
-2.6181e-07
1.2117e-07
-2.52228e-07
1.01911e-07
-2.42935e-07
8.34847e-08
-2.33995e-07
6.58496e-08
-2.25448e-07
4.89637e-08
-2.17319e-07
3.27835e-08
-2.09622e-07
1.7265e-08
-2.02362e-07
2.36463e-09
-1.95539e-07
-1.1953e-08
-1.89149e-07
-2.57214e-08
-1.83176e-07
-3.89775e-08
-1.77596e-07
-5.17585e-08
-1.72396e-07
-6.41006e-08
-1.67569e-07
-7.60395e-08
-1.631e-07
-8.76098e-08
-1.58977e-07
-9.88451e-08
-1.55187e-07
-1.09778e-07
-1.51717e-07
-1.2044e-07
-1.48554e-07
-1.30862e-07
-1.45686e-07
-1.41073e-07
-1.43102e-07
-1.51103e-07
-1.40791e-07
-1.60979e-07
-1.38743e-07
-1.7073e-07
-1.36951e-07
-1.80382e-07
-1.35404e-07
-1.89963e-07
-1.34097e-07
-1.99498e-07
-1.33023e-07
-2.09016e-07
-1.32176e-07
-2.18542e-07
-1.31552e-07
-2.28106e-07
-1.31146e-07
-2.37735e-07
-1.30955e-07
-2.4746e-07
-1.30978e-07
-2.57312e-07
-1.31214e-07
-2.67325e-07
-1.31663e-07
-2.77529e-07
-1.32338e-07
-2.87956e-07
-1.33253e-07
-2.98619e-07
-1.34379e-07
-3.09573e-07
-1.35729e-07
-3.21221e-07
-1.37151e-07
-3.28527e-07
-1.38422e-07
-3.43191e-07
-1.47889e-07
-3.5584e-07
-1.58346e-07
-3.69266e-07
-1.69803e-07
-3.83769e-07
-1.8257e-07
-3.99524e-07
-1.96732e-07
-4.16716e-07
-2.1233e-07
-4.35545e-07
-2.29408e-07
-4.56233e-07
-2.48001e-07
-4.79013e-07
-2.68111e-07
-5.04126e-07
-2.89701e-07
-5.31808e-07
-3.12783e-07
-5.62332e-07
-3.37162e-07
-5.95973e-07
-3.62094e-07
-6.32919e-07
-3.86127e-07
-6.73142e-07
-4.06919e-07
-7.16213e-07
-4.21473e-07
-7.6119e-07
-4.27188e-07
-8.06759e-07
-4.23255e-07
-8.51627e-07
-4.10982e-07
-8.94831e-07
-3.92684e-07
-9.35768e-07
-3.7041e-07
-9.74084e-07
-3.45629e-07
-1.00955e-06
-3.19186e-07
-1.04202e-06
-2.91598e-07
-1.07134e-06
-2.63211e-07
-1.09741e-06
-2.34249e-07
-1.12017e-06
-2.048e-07
-1.13953e-06
-1.74798e-07
-1.15544e-06
-1.44041e-07
-1.16784e-06
-1.12399e-07
-1.1767e-06
-8.01561e-08
-1.18202e-06
-4.78702e-08
-1.58371e-08
6.57614e-07
-1.07264e-08
6.54859e-07
-3.21629e-08
6.50277e-07
-5.34904e-08
6.43881e-07
-7.45935e-08
6.35692e-07
-9.53828e-08
6.25732e-07
-1.15816e-07
6.14024e-07
-1.3588e-07
6.00593e-07
-1.55549e-07
5.85467e-07
-1.74767e-07
5.68683e-07
-1.93441e-07
5.50289e-07
-2.11439e-07
5.30343e-07
-2.28586e-07
5.08928e-07
-2.44646e-07
4.86147e-07
-2.59315e-07
4.62142e-07
-2.72222e-07
4.37089e-07
-2.82959e-07
4.1121e-07
-2.91134e-07
3.8476e-07
-2.96455e-07
3.58016e-07
-2.9881e-07
3.31257e-07
-2.98311e-07
3.04742e-07
-2.95274e-07
2.78689e-07
-2.90156e-07
2.5327e-07
-2.83461e-07
2.28607e-07
-2.75672e-07
2.0478e-07
-2.67197e-07
1.81829e-07
-2.58361e-07
1.59772e-07
-2.49405e-07
1.38602e-07
-2.40506e-07
1.18302e-07
-2.31786e-07
9.88412e-08
-2.2333e-07
8.01861e-08
-2.15194e-07
6.22976e-08
-2.07415e-07
4.51346e-08
-2.00015e-07
2.8655e-08
-1.93006e-07
1.28164e-08
-1.86394e-07
-2.42217e-09
-1.80177e-07
-1.70919e-08
-1.74353e-07
-3.12256e-08
-1.68906e-07
-4.48598e-08
-1.63813e-07
-5.80302e-08
-1.59067e-07
-7.07714e-08
-1.54656e-07
-8.31176e-08
-1.50571e-07
-9.51017e-08
-1.46799e-07
-1.06756e-07
-1.43328e-07
-1.18111e-07
-1.40145e-07
-1.29197e-07
-1.3724e-07
-1.40043e-07
-1.34601e-07
-1.50678e-07
-1.32218e-07
-1.61128e-07
-1.30081e-07
-1.71421e-07
-1.28181e-07
-1.81583e-07
-1.2651e-07
-1.91638e-07
-1.25061e-07
-2.01612e-07
-1.23827e-07
-2.1153e-07
-1.22802e-07
-2.21415e-07
-1.21982e-07
-2.3129e-07
-1.21362e-07
-2.4118e-07
-1.20939e-07
-2.51104e-07
-1.20712e-07
-2.61085e-07
-1.20681e-07
-2.71141e-07
-1.20849e-07
-2.81286e-07
-1.21222e-07
-2.91527e-07
-1.21832e-07
-3.01884e-07
-1.22671e-07
-3.12344e-07
-1.23778e-07
-3.22842e-07
-1.25242e-07
-3.33207e-07
-1.27093e-07
-3.52006e-07
-1.29756e-07
-3.63045e-07
-1.38087e-07
-3.75384e-07
-1.47543e-07
-3.88848e-07
-1.58193e-07
-4.03558e-07
-1.70059e-07
-4.19671e-07
-1.83203e-07
-4.37343e-07
-1.97674e-07
-4.56748e-07
-2.13515e-07
-4.78081e-07
-2.30748e-07
-5.01556e-07
-2.49362e-07
-5.27394e-07
-2.6933e-07
-5.55822e-07
-2.9065e-07
-5.87087e-07
-3.13016e-07
-6.21391e-07
-3.35588e-07
-6.5879e-07
-3.56838e-07
-6.99064e-07
-3.74443e-07
-7.4157e-07
-3.85688e-07
-7.85253e-07
-3.88587e-07
-8.28885e-07
-3.82979e-07
-8.71414e-07
-3.70419e-07
-9.12135e-07
-3.53013e-07
-9.50611e-07
-3.32458e-07
-9.86588e-07
-3.09904e-07
-1.01989e-06
-2.86006e-07
-1.05036e-06
-2.61173e-07
-1.07791e-06
-2.35693e-07
-1.10242e-06
-2.09747e-07
-1.12382e-06
-1.83399e-07
-1.14206e-06
-1.56567e-07
-1.15705e-06
-1.29046e-07
-1.16874e-06
-1.00708e-07
-1.1771e-06
-7.18033e-08
-1.18212e-06
-4.28425e-08
-1.41402e-08
6.57602e-07
-9.79456e-09
6.5481e-07
-2.93707e-08
6.50166e-07
-4.88466e-08
6.43686e-07
-6.81141e-08
6.35392e-07
-8.70901e-08
6.2531e-07
-1.05735e-07
6.13465e-07
-1.24037e-07
5.99885e-07
-1.41972e-07
5.84602e-07
-1.59489e-07
5.67655e-07
-1.76501e-07
5.49094e-07
-1.92889e-07
5.28984e-07
-2.08491e-07
5.07407e-07
-2.23091e-07
4.84474e-07
-2.36409e-07
4.60328e-07
-2.4811e-07
4.35151e-07
-2.57821e-07
4.09166e-07
-2.65189e-07
3.82629e-07
-2.69955e-07
3.55815e-07
-2.72026e-07
3.29001e-07
-2.7151e-07
3.02438e-07
-2.68705e-07
2.76339e-07
-2.64027e-07
2.50869e-07
-2.57938e-07
2.26144e-07
-2.50872e-07
2.02238e-07
-2.43197e-07
1.79191e-07
-2.35203e-07
1.57016e-07
-2.27108e-07
1.35706e-07
-2.19066e-07
1.15244e-07
-2.11188e-07
9.56002e-08
-2.03548e-07
7.67407e-08
-1.96197e-07
5.86278e-08
-1.89167e-07
4.12214e-08
-1.82478e-07
2.44806e-08
-1.76141e-07
8.36422e-09
-1.7016e-07
-7.16413e-09
-1.64535e-07
-2.21341e-08
-1.59264e-07
-3.65789e-08
-1.5433e-07
-5.05339e-08
-1.49716e-07
-6.40335e-08
-1.45413e-07
-7.71111e-08
-1.41413e-07
-8.97995e-08
-1.37705e-07
-1.0213e-07
-1.34279e-07
-1.14134e-07
-1.31123e-07
-1.2584e-07
-1.28226e-07
-1.37278e-07
-1.25578e-07
-1.48475e-07
-1.23169e-07
-1.59457e-07
-1.20989e-07
-1.70252e-07
-1.1903e-07
-1.80884e-07
-1.17282e-07
-1.91377e-07
-1.1574e-07
-2.01756e-07
-1.14397e-07
-2.12045e-07
-1.13245e-07
-2.22267e-07
-1.12281e-07
-2.32444e-07
-1.11499e-07
-2.426e-07
-1.10896e-07
-2.52759e-07
-1.10469e-07
-2.62943e-07
-1.10216e-07
-2.73178e-07
-1.10136e-07
-2.83491e-07
-1.10233e-07
-2.93911e-07
-1.10511e-07
-3.04469e-07
-1.11003e-07
-3.15154e-07
-1.11662e-07
-3.26061e-07
-1.12585e-07
-3.37066e-07
-1.14001e-07
-3.47603e-07
-1.16155e-07
-3.6669e-07
-1.20613e-07
-3.78307e-07
-1.27924e-07
-3.91132e-07
-1.36415e-07
-4.05152e-07
-1.46152e-07
-4.20454e-07
-1.57059e-07
-4.37186e-07
-1.69144e-07
-4.55509e-07
-1.82449e-07
-4.75599e-07
-1.97011e-07
-4.97652e-07
-2.12843e-07
-5.21876e-07
-2.29922e-07
-5.48483e-07
-2.48238e-07
-5.77695e-07
-2.6775e-07
-6.09717e-07
-2.8806e-07
-6.44665e-07
-3.08267e-07
-6.82462e-07
-3.26812e-07
-7.22703e-07
-3.41468e-07
-7.64584e-07
-3.49865e-07
-8.07004e-07
-3.50587e-07
-8.48863e-07
-3.43951e-07
-8.89323e-07
-3.31582e-07
-9.27862e-07
-3.1532e-07
-9.64178e-07
-2.96563e-07
-9.98082e-07
-2.76202e-07
-1.02943e-06
-2.54748e-07
-1.05812e-06
-2.32532e-07
-1.08404e-06
-2.09794e-07
-1.10711e-06
-1.86684e-07
-1.12726e-06
-1.63247e-07
-1.14444e-06
-1.39389e-07
-1.15858e-06
-1.1491e-07
-1.16961e-06
-8.96811e-08
-1.17749e-06
-6.39249e-08
-1.18223e-06
-3.8103e-08
-1.25439e-08
6.5759e-07
-8.85123e-09
6.54763e-07
-2.65438e-08
6.50062e-07
-4.41453e-08
6.43503e-07
-6.15557e-08
6.35111e-07
-7.86988e-08
6.24913e-07
-9.55385e-08
6.12937e-07
-1.12063e-07
5.99213e-07
-1.28251e-07
5.83776e-07
-1.44056e-07
5.66667e-07
-1.59399e-07
5.4794e-07
-1.74172e-07
5.27661e-07
-1.88226e-07
5.05919e-07
-2.01367e-07
4.82826e-07
-2.13341e-07
4.58532e-07
-2.23844e-07
4.3322e-07
-2.32542e-07
4.07118e-07
-2.39119e-07
3.80482e-07
-2.43348e-07
3.53588e-07
-2.4515e-07
3.26707e-07
-2.44633e-07
3.00087e-07
-2.42069e-07
2.73933e-07
-2.37837e-07
2.48404e-07
-2.32351e-07
2.23613e-07
-2.26002e-07
1.99628e-07
-2.19117e-07
1.76486e-07
-2.11953e-07
1.542e-07
-2.04702e-07
1.32761e-07
-1.97502e-07
1.12151e-07
-1.90449e-07
9.23426e-08
-1.83609e-07
7.33013e-08
-1.77027e-07
5.49905e-08
-1.70731e-07
3.73713e-08
-1.64739e-07
2.04038e-08
-1.5906e-07
4.04793e-09
-1.53698e-07
-1.1728e-08
-1.48654e-07
-2.69528e-08
-1.43926e-07
-4.16608e-08
-1.39498e-07
-5.58862e-08
-1.35354e-07
-6.96621e-08
-1.31489e-07
-8.30211e-08
-1.27894e-07
-9.59948e-08
-1.2456e-07
-1.08614e-07
-1.21477e-07
-1.20907e-07
-1.18634e-07
-1.32904e-07
-1.16023e-07
-1.44631e-07
-1.13632e-07
-1.56115e-07
-1.11454e-07
-1.67382e-07
-1.0948e-07
-1.78457e-07
-1.07702e-07
-1.89363e-07
-1.06113e-07
-2.00125e-07
-1.04706e-07
-2.10764e-07
-1.03476e-07
-2.21304e-07
-1.02416e-07
-2.31767e-07
-1.01523e-07
-2.42174e-07
-1.00791e-07
-2.5255e-07
-1.00217e-07
-2.62917e-07
-9.97969e-08
-2.73302e-07
-9.95279e-08
-2.83733e-07
-9.94063e-08
-2.94247e-07
-9.94285e-08
-3.04886e-07
-9.95915e-08
-3.15706e-07
-9.99115e-08
-3.26754e-07
-1.00332e-07
-3.38132e-07
-1.00884e-07
-3.50124e-07
-1.01564e-07
-3.58278e-07
-1.02439e-07
-3.75296e-07
-1.08751e-07
-3.88646e-07
-1.16022e-07
-4.02731e-07
-1.24064e-07
-4.17815e-07
-1.33102e-07
-4.34076e-07
-1.43159e-07
-4.51696e-07
-1.54256e-07
-4.70862e-07
-1.66434e-07
-4.91777e-07
-1.79731e-07
-5.14651e-07
-1.94156e-07
-5.39698e-07
-2.09685e-07
-5.67131e-07
-2.26328e-07
-5.97162e-07
-2.43994e-07
-6.2995e-07
-2.62227e-07
-6.65517e-07
-2.80099e-07
-7.03645e-07
-2.96072e-07
-7.43764e-07
-3.08074e-07
-7.84952e-07
-3.14111e-07
-8.26127e-07
-3.13257e-07
-8.6634e-07
-3.06136e-07
-9.04949e-07
-2.94323e-07
-9.41579e-07
-2.79386e-07
-9.7602e-07
-2.62466e-07
-1.00813e-06
-2.44254e-07
-1.0378e-06
-2.25155e-07
-1.06493e-06
-2.05438e-07
-1.08944e-06
-1.85303e-07
-1.11125e-06
-1.64878e-07
-1.13031e-06
-1.44189e-07
-1.14656e-06
-1.23139e-07
-1.15994e-06
-1.01531e-07
-1.17038e-06
-7.92432e-08
-1.17784e-06
-5.64684e-08
-1.18232e-06
-3.36219e-08
-1.10389e-08
6.5758e-07
-7.89739e-09
6.54721e-07
-2.36848e-08
6.49966e-07
-3.93906e-08
6.43334e-07
-5.49237e-08
6.3485e-07
-7.02154e-08
6.24543e-07
-8.52328e-08
6.12443e-07
-9.99651e-08
5.98583e-07
-1.14394e-07
5.82998e-07
-1.28475e-07
5.65733e-07
-1.42141e-07
5.46844e-07
-1.55291e-07
5.26401e-07
-1.67795e-07
5.04495e-07
-1.79476e-07
4.81243e-07
-1.9011e-07
4.56798e-07
-1.99423e-07
4.31349e-07
-2.07119e-07
4.05125e-07
-2.12921e-07
3.78386e-07
-2.16628e-07
3.51405e-07
-2.1818e-07
3.24453e-07
-2.17676e-07
2.9777e-07
-2.15363e-07
2.71558e-07
-2.11582e-07
2.45971e-07
-2.06701e-07
2.21113e-07
-2.01064e-07
1.97053e-07
-1.94961e-07
1.73823e-07
-1.88616e-07
1.51434e-07
-1.82198e-07
1.29878e-07
-1.75826e-07
1.09137e-07
-1.69586e-07
8.91821e-08
-1.63533e-07
6.99811e-08
-1.57707e-07
5.14979e-08
-1.52133e-07
3.36945e-08
-1.46826e-07
1.65322e-08
-1.41796e-07
-2.77275e-11
-1.37045e-07
-1.60148e-08
-1.32573e-07
-3.14548e-08
-1.28381e-07
-4.63841e-08
-1.24451e-07
-6.08356e-08
-1.20774e-07
-7.48419e-08
-1.17342e-07
-8.84345e-08
-1.14149e-07
-1.01644e-07
-1.11185e-07
-1.145e-07
-1.08443e-07
-1.27032e-07
-1.05913e-07
-1.39266e-07
-1.03587e-07
-1.51229e-07
-1.01455e-07
-1.62947e-07
-9.9511e-08
-1.74444e-07
-9.77464e-08
-1.85744e-07
-9.61545e-08
-1.9687e-07
-9.47291e-08
-2.07844e-07
-9.34645e-08
-2.18688e-07
-9.23556e-08
-2.29422e-07
-9.13981e-08
-2.40067e-07
-9.0588e-08
-2.50642e-07
-8.99221e-08
-2.61166e-07
-8.93979e-08
-2.71657e-07
-8.90137e-08