/*--------------------------------*- C++ -*----------------------------------*\
  =========                 |
  \\      /  F ield         | OpenFOAM: The Open Source CFD Toolbox
   \\    /   O peration     | Website:  https://openfoam.org
    \\  /    A nd           | Version:  8
     \\/     M anipulation  |
\*---------------------------------------------------------------------------*/
FoamFile
{
    version     2.0;
    format      ascii;
    class       volScalarField;
    location    "140/fluid";
    object      Qdot;
}
// * * * * * * * * * * * * * * * * * * * * * * * * * * * * * * * * * * * * * //

dimensions      [1 -1 -3 0 0 0 0];

internalField   nonuniform List<scalar> 
4000
(
-2.65613e-07
8.62066e-13
-1.8028e-12
-3.05696e-12
7.80496e-12
3.26793e-07
0
0
-1.20455e-19
3.43858e-15
2.40653e-10
7.16375e-15
1.04617e-18
0
-2.15422e-18
-8.72853e-18
-2.10748e-09
-4.37796e-16
-5.29262e-09
2.90435e-08
1.19143e-07
3.77698e-06
4.31765e-05
0.000422945
0.0035032
0.0242859
0.140924
0.690346
2.89104
10.4974
33.5179
95.3587
244.582
571.236
1224.79
2425.86
4457.94
7626.6
12258.8
18735.9
27344.6
38428.4
52429
69937.7
91776.8
119097
153446
196878
252060
322415
412322
527386
674798
863810
1.10635e+06
1.41786e+06
1.81831e+06
2.33369e+06
2.99787e+06
3.85513e+06
4.9637e+06
6.40056e+06
8.26832e+06
1.06995e+07
1.38491e+07
1.80604e+07
2.36672e+07
3.12345e+07
2.38664e+08
1.7705e+08
2.1484e+07
1.59446e+07
1.16513e+07
8.35861e+06
5.87046e+06
4.02505e+06
2.68822e+06
1.74927e+06
1.11879e+06
726953
287375
31119.1
944.351
12.5414
0.0955622
0.000696159
9.32833e-06
3.46904e-07
3.6987e-08
7.75148e-09
2.44588e-09
8.6532e-10
3.61147e-10
1.35736e-10
5.24899e-11
2.38796e-11
9.24766e-12
3.49373e-12
1.24675e-12
2.12099e-13
0
-1.46758e-21
-2.92534e-12
6.78464e-12
-6.31124e-12
-3.80931e-16
0
0
1.18571e-19
3.59185e-07
0
0
3.7842e-07
0
1.22864e-09
-8.48329e-18
2.51631e-09
1.20425e-13
4.15374e-07
1.88196e-08
1.72718e-07
4.59317e-06
4.702e-05
0.000456667
0.00377249
0.0261038
0.151306
0.740644
3.09969
11.2471
35.8802
101.965
261.152
608.826
1302.34
2571.55
4706.38
8010.61
12808.7
19477.3
28288.2
39580.8
53805.9
71573.4
93744.5
121521
156508
200839
257272
329355
421629
539925
691738
886735
1.13741e+06
1.45995e+06
1.87535e+06
2.41096e+06
3.10238e+06
3.99614e+06
5.15309e+06
6.65308e+06
8.60106e+06
1.11292e+07
1.43704e+07
1.86474e+07
2.4236e+07
3.15399e+07
3.61416e+08
1.02414e+08
2.03368e+07
1.50582e+07
1.09691e+07
7.83716e+06
5.47554e+06
3.73029e+06
2.47305e+06
1.59754e+06
1.01809e+06
653251
177752
11758.7
247.048
2.4182
0.0157781
0.000128407
2.43949e-06
1.37736e-07
1.94384e-08
4.94913e-09
1.55151e-09
6.29901e-10
2.58895e-10
1.06178e-10
4.54568e-11
2.05018e-11
8.01413e-12
2.94376e-12
9.69621e-13
5.2925e-12
1.66715e-13
0
8.49022e-17
0
0
-1.5805e-11
-7.71556e-16
-6.65273e-11
3.436e-07
0
0
-2.32625e-10
0
0
-2.02423e-18
-8.1889e-18
-1.97543e-09
-5.60992e-16
-4.96184e-09
3.63399e-08
4.21111e-07
4.58793e-06
5.26837e-05
0.000512741
0.00422258
0.0291454
0.16862
0.824259
3.44588
12.4911
39.8079
112.989
288.94
672.229
1433.95
2820.43
5133.75
8678.82
13782.9
20820.5
30051.2
41820.5
56607.9
75068.5
98142
127125
163750
210307
269754
345905
443660
569336
731089
939485
1.20825e+06
1.55524e+06
2.00379e+06
2.58439e+06
3.33703e+06
4.31425e+06
5.58525e+06
7.24131e+06
9.40294e+06
1.22131e+07
1.58701e+07
2.07243e+07
2.70409e+07
3.51661e+07
3.96263e+08
2.97853e+07
1.93216e+07
1.41214e+07
1.01572e+07
7.16727e+06
4.94518e+06
3.32635e+06
2.17797e+06
1.39313e+06
888103
503285
82195.4
3348.1
53.2166
0.44794
0.00311831
3.40741e-05
9.60654e-07
7.48778e-08
1.29404e-08
3.41817e-09
1.22226e-09
5.3173e-10
2.09503e-10
8.42098e-11
3.68396e-11
1.71775e-11
6.45207e-12
2.56213e-12
-4.4155e-12
1.71125e-13
0
0
0
7.35968e-12
3.07004e-07
0
7.6068e-16
-3.30816e-07
1.21041e-10
-2.46239e-10
-3.48231e-07
-2.27213e-10
-1.34266e-14
0
-3.93658e-18
-1.193e-17
-7.63338e-17
-6.25115e-16
-4.80834e-09
3.12544e-08
6.89496e-07
5.36897e-06
6.08719e-05
0.000588789
0.00484447
0.033391
0.192898
0.941574
3.93078
14.2287
45.2783
128.302
327.442
759.842
1615.16
3161.12
5713.02
9580.84
15110.6
22651.2
32460.8
44900.4
60485.2
79939.6
104305
135003
173933
223591
287204
368943
474188
609905
785130
1.01163e+06
1.30479e+06
1.68475e+06
2.17799e+06
2.81947e+06
3.65547e+06
4.74762e+06
6.17846e+06
8.05939e+06
1.05423e+07
1.37796e+07
1.8178e+07
2.41459e+07
3.23302e+07
8.43079e+07
2.92813e+08
2.496e+07
1.81817e+07
1.3082e+07
9.26512e+06
6.43717e+06
4.37295e+06
2.89681e+06
1.87071e+06
1.18698e+06
763092
290250
28813.9
789.993
9.75829
0.0736922
0.000578123
8.77282e-06
3.65828e-07
3.96425e-08
7.93613e-09
2.73023e-09
9.809e-10
4.16383e-10
1.65562e-10
7.44918e-11
2.79128e-11
1.22046e-11
5.68044e-12
2.10107e-12
6.07081e-13
1.27299e-13
-4.85671e-18
0
0
0
-7.51233e-12
0
-7.49149e-16
0
0
3.15652e-15
-4.58995e-19
-2.72178e-10
4.4732e-10
0
-1.11957e-09
-1.15586e-17
-8.16626e-17
-1.10111e-13
8.42986e-09
4.72061e-08
5.65224e-07
6.594e-06
7.08164e-05
0.00068883
0.00565923
0.038949
0.224636
1.09466
4.56221
16.4866
52.3715
148.114
377.132
872.55
1847.12
3593.6
6437.86
10700
16762
24914.8
35429
48689.9
65257
85942.9
111908
144724
186484
239926
308596
397082
511323
659029
850244
1.09809e+06
1.41975e+06
1.83781e+06
2.38205e+06
3.09181e+06
4.01927e+06
5.23384e+06
6.82814e+06
8.92608e+06
1.16846e+07
1.527e+07
2.00901e+07
2.64765e+07
3.49343e+07
3.47664e+08
1.28532e+08
2.23577e+07
1.62077e+07
1.15743e+07
8.12011e+06
5.57982e+06
3.7449e+06
2.45028e+06
1.56586e+06
991063
620317
145372
8346.93
168.609
1.72286
0.0128339
0.000124763
2.73443e-06
1.62839e-07
2.27972e-08
6.13371e-09
1.81999e-09
8.18615e-10
3.27482e-10
1.31145e-10
5.5927e-11
2.45975e-11
1.15093e-11
4.05001e-12
1.8143e-12
5.4222e-13
5.16961e-12
-4.85047e-18
-2.74357e-07
0
0
-3.5323e-16
2.59546e-20
-5.6345e-11
-3.19636e-07
0
2.21889e-19
-4.77169e-10
0
5.35536e-10
0
8.84504e-10
-3.45969e-07
5.23694e-14
-1.06634e-13
3.62827e-07
4.55778e-08
8.57358e-07
7.49615e-06
8.4026e-05
0.000815403
0.00669699
0.0460288
0.265018
1.28903
5.36209
19.3397
61.3118
173.02
439.408
1013.22
2134.7
4123.67
7315.83
12051.1
18736.7
27599.7
38929
53141.7
70852.7
92976.4
120809
156086
201121
258921
333390
429584
554067
715390
924716
1.19667e+06
1.55047e+06
2.01141e+06
2.61292e+06
3.3993e+06
4.42941e+06
5.78177e+06
7.56142e+06
9.90929e+06
1.29858e+07
1.70246e+07
2.24884e+07
2.96863e+07
4.02799e+07
4.08674e+08
2.77335e+07
2.0173e+07
1.44721e+07
1.02201e+07
7.0863e+06
4.81033e+06
3.18874e+06
2.06255e+06
1.30859e+06
833904
424147
59548.3
2203.5
34.6698
0.309902
0.00244686
3.09976e-05
9.81123e-07
8.33163e-08
1.51762e-08
3.96852e-09
1.27856e-09
5.68175e-10
2.392e-10
1.05829e-10
3.68769e-11
1.80463e-11
8.20089e-12
3.50342e-12
1.43895e-12
-4.74362e-12
-6.60048e-13
0
0
8.28894e-17
0
0
-1.50211e-11
5.21797e-20
-1.47674e-15
0
1.2734e-10
0
2.10662e-10
-8.88728e-19
3.3111e-07
-1.79787e-18
-1.44697e-17
-1.73726e-09
-9.31578e-16
7.85846e-09
6.3298e-08
9.68657e-07
9.07768e-06
0.000100073
0.000973192
0.00798886
0.0548401
0.315219
1.53033
6.35347
22.8701
72.3558
203.727
515.995
1185.49
2484.25
4758.97
8361.94
13664.9
21039
30700.7
42943
58220.9
77217.7
100964
130894
168933
217621
280259
361135
465809
601522
777725
1.0068e+06
1.305e+06
1.69373e+06
2.20128e+06
2.86515e+06
3.73521e+06
4.87814e+06
6.38368e+06
8.37354e+06
1.10148e+07
1.4463e+07
1.91883e+07
2.56349e+07
3.45649e+07
1.26162e+08
2.59956e+08
2.52846e+07
1.81557e+07
1.28771e+07
8.99278e+06
6.16515e+06
4.13737e+06
2.71213e+06
1.73784e+06
1.09936e+06
708260
237087
21145.5
565.676
7.26749
0.0605518
0.000542734
9.26417e-06
4.1562e-07
4.64343e-08
9.71254e-09
3.02731e-09
1.1148e-09
4.66185e-10
1.94658e-10
9.089e-11
3.76004e-11
1.64862e-11
6.62886e-12
2.51573e-12
1.06305e-12
5.5455e-12
6.29771e-14
-3.69254e-13
0
0
0
5.91664e-12
3.52191e-16
-2.45127e-11
0
0
-1.01374e-10
-4.55105e-10
-1.199e-14
8.64388e-19
0
1.90418e-10
-1.74977e-17
4.88798e-14
-1.07536e-15
7.56908e-09
-9.71949e-08
9.40872e-07
1.04946e-05
0.000119898
0.00116624
0.0095728
0.0656376
0.376678
1.8254
7.56426
27.1769
85.8128
241.092
608.977
1393.73
2903.04
5506.81
9576.57
15535.2
23675.3
34214.5
47458.5
63898.8
84307.6
109838
142073
183132
235793
303661
391415
505137
652753
844622
1.09433e+06
1.41971e+06
1.84427e+06
2.39901e+06
3.1249e+06
4.07615e+06
5.32452e+06
6.96501e+06
9.12308e+06
1.19563e+07
1.55977e+07
2.05022e+07
2.6918e+07
3.52379e+07
4.0879e+08
9.27963e+07
2.19345e+07
1.58041e+07
1.12022e+07
7.79646e+06
5.31558e+06
3.54249e+06
2.30508e+06
1.46877e+06
931004
574327
125748
7010.84
146.452
1.61285
0.0133111
0.000142314
3.29239e-06
2.00857e-07
2.81551e-08
7.26193e-09
2.28928e-09
8.58293e-10
3.8441e-10
1.42202e-10
6.5368e-11
2.96876e-11
1.41901e-11
5.50711e-12
2.23249e-12
8.37354e-13
3.01715e-13
5.24652e-14
3.68747e-13
0
-2.80199e-12
-5.73529e-12
-2.90695e-07
3.47432e-16
2.99724e-07
3.03164e-07
0
-3.07858e-07
4.17555e-19
-3.99767e-10
-3.12007e-07
-2.34466e-14
3.13286e-07
-2.02838e-17
3.16095e-07
-1.23287e-15
4.01202e-09
2.46734e-07
1.1202e-06
1.28148e-05
0.000143643
0.00139933
0.0114827
0.0786577
0.450756
2.18086
9.02223
32.361
102.006
286.024
720.589
1642.54
3398.04
6379.01
10984.1
17668
26642.6
38125.8
52443
70131.6
92064.2
119524
154250
198564
255485
328935
424003
547310
707502
915899
1.18738e+06
1.54153e+06
2.00422e+06
2.60973e+06
3.40355e+06
4.44627e+06
5.81881e+06
7.62948e+06
1.00237e+07
1.31639e+07
1.72908e+07
2.29031e+07
3.03489e+07
4.22996e+07
3.97712e+08
2.75818e+07
1.99161e+07
1.41969e+07
9.96801e+06
6.87652e+06
4.64882e+06
3.07316e+06
1.98585e+06
1.2616e+06
806999
412715
59588.8
2335.63
39.9025
0.393955
0.00338987
4.45599e-05
1.38312e-06
1.08936e-07
1.8592e-08
5.22991e-09
1.76634e-09
6.92401e-10
3.06282e-10
1.29415e-10
5.89806e-11
2.33127e-11
1.08585e-11
4.30676e-12
1.85773e-12
7.49639e-13
2.58161e-13
4.17394e-14
-6.92507e-22
2.70034e-07
-3.42088e-12
1.19118e-20
0
-3.42634e-16
4.97566e-20
1.39893e-15
0
-2.82876e-15
0
-1.13569e-14
-8.15258e-19
-3.01905e-07
-2.27097e-14
3.01995e-07
-1.56746e-16
3.12307e-09
-3.00807e-07
1.01829e-07
1.32339e-06
1.50733e-05
0.000171933
0.00167523
0.0137485
0.0941097
0.538684
2.60285
10.7536
38.5205
121.256
339.441
853.084
1936.32
3974.53
7385.28
12605.9
20057.7
29921.1
42399.2
57840.2
76843.4
100391
129894
167259
215003
276388
355648
458273
591413
764409
989505
1.28281e+06
1.66558e+06
2.16596e+06
2.82138e+06
3.68184e+06
4.81449e+06
6.31023e+06
8.29308e+06
1.09342e+07
1.43848e+07
1.9032e+07
2.55165e+07
3.44461e+07
1.14801e+08
2.78454e+08
2.54852e+07
1.82325e+07
1.28894e+07
8.97782e+06
6.14429e+06
4.1212e+06
2.70414e+06
1.73721e+06
1.10293e+06
713464
259305
26849.5
809.751
11.7429
0.108417
0.00101186
1.65654e-05
6.73377e-07
6.70323e-08
1.30895e-08
3.62728e-09
1.51692e-09
6.00506e-10
2.80163e-10
1.03823e-10
4.62177e-11
2.33455e-11
8.59695e-12
3.54468e-12
1.58877e-12
5.02083e-12
9.82337e-13
3.65864e-14
-6.91528e-22
2.68921e-07
6.16247e-12
-5.6302e-12
0
-3.3779e-16
-2.86948e-11
9.85158e-20
0
-2.76228e-15
0
-2.93462e-07
-4.63517e-10
1.57681e-18
-2.91339e-07
-2.19837e-17
-1.75743e-16
-1.60723e-15
1.33647e-08
2.72603e-07
1.41206e-06
1.79356e-05
0.000204405
0.00199608
0.016387
0.112122
0.641274
3.09571
12.7784
45.7343
143.834
402.153
1008.45
2278.58
4633.87
8514.64
14415.5
22680.4
33465.6
46968.3
63558.9
83920.5
109149
140784
180899
232201
298194
383408
493716
636751
822469
1.06389e+06
1.37807e+06
1.78741e+06
2.32139e+06
3.01891e+06
3.93137e+06
5.12692e+06
6.69622e+06
8.76033e+06
1.14768e+07
1.49712e+07
1.97183e+07
2.6035e+07
3.44709e+07
3.28287e+08
1.39722e+08
2.27096e+07
1.62884e+07
1.15195e+07
8.01472e+06
5.47265e+06
3.65935e+06
2.39321e+06
1.53435e+06
977093
626811
170520
12070
297.68
3.79232
0.0339979
0.000353746
7.19803e-06
3.7047e-07
4.56104e-08
1.03601e-08
3.22947e-09
1.26199e-09
5.25944e-10
2.28889e-10
9.6708e-11
3.99011e-11
1.86167e-11
7.83253e-12
3.55781e-12
1.4045e-12
4.95256e-12
1.6928e-13
3.13046e-14
3.67187e-13
0
0
0
-2.51729e-11
0
0
0
2.86782e-07
2.69498e-15
0
-4.51024e-10
0
0
-2.80763e-07
-2.41545e-17
-1.92653e-16
-1.82665e-15
1.27637e-08
1.37334e-07
1.69183e-06
2.10917e-05
0.000241287
0.00236116
0.019395
0.132694
0.758647
3.66072
15.1049
54.0447
169.912
474.704
1187.96
2670.59
5369.76
9746.93
16383.8
25482.5
37192.9
51715.3
69454.5
91188.6
118126
151943
194876
249823
320536
411857
530066
683326
882279
1.14083e+06
1.47715e+06
1.91507e+06
2.48579e+06
3.23019e+06
4.20181e+06
5.47066e+06
7.12801e+06
9.29236e+06
1.21088e+07
1.56956e+07
2.04921e+07
2.67008e+07
3.46661e+07
4.20962e+08
4.56291e+07
2.05589e+07
1.47696e+07
1.04446e+07
7.25781e+06
4.94547e+06
3.29839e+06
2.15208e+06
1.37912e+06
883302
534149
106870
5621.13
118.011
1.36129
0.0122126
0.00014386
3.59479e-06
2.30869e-07
3.27106e-08
7.65246e-09
2.63409e-09
1.06493e-09
4.46814e-10
2.0302e-10
9.07525e-11
3.84129e-11
1.70364e-11
7.06116e-12
-2.08712e-12
1.17627e-12
4.73501e-13
1.59166e-13
3.03584e-14
0
-2.81185e-21
2.70956e-07
0
0
0
0
0
2.0122e-10
0
5.22982e-15
2.76336e-07
2.75088e-07
2.04725e-14
2.03177e-14
-2.89753e-17
-4.03595e-14
-2.04839e-15
1.21594e-08
1.63528e-07
1.98991e-06
2.47685e-05
0.000282021
0.00276597
0.02274
0.155627
0.889855
4.29427
17.7227
63.4315
199.476
557.15
1391.59
3109.56
6184.07
11105.2
18453.5
28370.3
40973.7
56465.1
75308.3
98377.2
126984
162936
208618
267114
342406
439645
565524
728757
940743
1.21642e+06
1.57542e+06
2.04358e+06
2.655e+06
3.45474e+06
4.50244e+06
5.87725e+06
7.68431e+06
1.00636e+07
1.31706e+07
1.7204e+07
2.269e+07
2.99592e+07
4.28991e+07
3.87302e+08
2.66026e+07
1.92137e+07
1.37118e+07
9.64706e+06
6.67568e+06
4.53284e+06
3.01444e+06
1.96333e+06
1.25957e+06
813915
433539
66283.5
2778.67
51.1335
0.548082
0.00502942
6.73885e-05
2.03286e-06
1.53761e-07
2.51596e-08
6.85617e-09
2.23545e-09
8.65383e-10
3.95223e-10
1.77336e-10
7.80209e-11
3.34998e-11
1.39258e-11
6.28744e-12
2.60662e-12
6.2199e-12
3.81974e-13
1.48664e-13
2.61822e-14
0
0
0
0
2.30888e-20
-1.10614e-11
-6.46947e-16
1.29226e-15
0
2.72304e-07
2.70206e-07
7.68606e-10
-9.96667e-15
0
-1.95245e-14
2.95157e-09
1.31318e-09
-2.28481e-15
1.1553e-08
3.08623e-07
2.17838e-06
2.84779e-05
0.000325709
0.00320111
0.0263494
0.180461
1.03247
4.98584
20.594
73.7802
232.231
648.775
1617.18
3586.32
7038.15
12500.7
20529.7
31203.8
44620.6
60990.1
80847.1
105154
135313
173244
221447
283158
362547
465011
597566
769366
992402
1.28243e+06
1.66023e+06
2.15328e+06
2.79806e+06
3.6432e+06
4.75374e+06
6.21717e+06
8.15178e+06
1.07183e+07
1.40503e+07
1.85014e+07
2.46264e+07
3.28695e+07
8.34253e+07
3.23642e+08
2.50552e+07
1.80376e+07
1.2833e+07
9.00258e+06
6.21286e+06
4.20847e+06
2.79356e+06
1.81837e+06
1.16961e+06
763566
351440
41972.7
1479.15
24.4407
0.248735
0.00236761
3.59521e-05
1.28189e-06
1.12609e-07
1.98752e-08
5.68521e-09
2.20607e-09
8.5644e-10
3.44111e-10
1.51964e-10
7.14408e-11
3.02922e-11
8.69183e-12
5.51553e-12
3.36446e-12
5.24e-12
3.83511e-13
1.26345e-13
2.63748e-14
2.60785e-07
-2.78746e-21
0
0
0
6.36019e-16
2.7024e-07
-9.6584e-11
0
-2.49261e-15
0
0
-9.61447e-15
-6.4958e-10
-2.48809e-07
-3.44903e-17
1.53816e-09
-2.51389e-15
1.88744e-08
2.0063e-07
2.50264e-06
3.22458e-05
0.000370824
0.00365198
0.030103
0.206399
1.18215
5.71566
23.6428
84.8414
267.459
747.656
1859.17
4080.9
7877.11
13840
22468.8
33790.3
47890.6
65007.9
85749.1
111141
142663
182311
232666
297060
379776
486354
623980
802018
1.03271e+06
1.3321e+06
1.72131e+06
2.22822e+06
2.88974e+06
3.75494e+06
4.88931e+06
6.38068e+06
8.34739e+06
1.09477e+07
1.43099e+07
1.89211e+07
2.51155e+07
3.34721e+07
1.79732e+08
2.49986e+08
2.34352e+07
1.68616e+07
1.19927e+07
8.4111e+06
5.8033e+06
3.93041e+06
2.60952e+06
1.7008e+06
1.0987e+06
723989
266536
27742.1
855.595
12.9705
0.127525
0.00126778
2.15939e-05
8.86215e-07
8.76e-08
1.68009e-08
4.89133e-09
1.81729e-09
7.53399e-10
3.16896e-10
1.39422e-10
6.99418e-11
2.41336e-11
1.22932e-11
5.12063e-12
-2.90209e-12
9.40547e-13
-3.87161e-13
5.17015e-12
2.08187e-14
-3.65021e-13
0
2.65143e-07
0
1.07344e-11
0
6.23406e-16
0
-2.60908e-07
-1.85078e-10
2.54536e-07
0
2.47041e-07
2.42177e-07
2.38756e-07
-1.20748e-09
1.18992e-09
-2.74163e-15
2.06792e-08
2.24638e-07
2.71227e-06
3.61042e-05
0.000415184
0.00409707
0.0338268
0.232265
1.33229
6.45262
26.7446
96.1852
303.853
850.106
2106.73
4556.05
8607.38
14978.8
24066.6
35874.8
50483.3
68182.5
89638.4
115923
148570
189611
241672
308127
393301
502776
643761
825619
1.06053e+06
1.36438e+06
1.75796e+06
2.26848e+06
2.93175e+06
3.79486e+06
4.92005e+06
6.38972e+06
8.31334e+06
1.0837e+07
1.40641e+07
1.84367e+07
2.42284e+07
3.19139e+07
2.97311e+08
1.72488e+08
2.15625e+07
1.56076e+07
1.11531e+07
7.85197e+06
5.43455e+06
3.69073e+06
2.45701e+06
1.60686e+06
1.04402e+06
691515
224801
19451.7
541.069
7.66525
0.0737486
0.000766389
1.44253e-05
6.6436e-07
7.26267e-08
1.51432e-08
4.63298e-09
1.78697e-09
7.16954e-10
3.12491e-10
1.25489e-10
6.65587e-11
2.3934e-11
1.07326e-11
4.55859e-12
2.77796e-12
8.46529e-13
3.15183e-13
1.04278e-13
1.95033e-14
3.64482e-13
0
7.73281e-17
1.54892e-16
0
0
0
-9.24453e-11
-2.39214e-15
9.91862e-11
4.63372e-15
-2.42193e-07
-2.37699e-07
-2.32192e-07
-4.91323e-18
-1.41257e-09
3.26606e-14
2.72724e-09
1.72857e-08
1.35202e-07
3.11731e-06
3.94874e-05
0.000456124
0.00450963
0.0372962
0.256502
1.4739
7.15294
29.7175
107.157
339.328
949.966
2341.11
4946.14
9076.34
15704.7
25048.2
37123
52028.5
70110.1
92070.2
119015
152500
194569
247858
315741
402539
513802
656680
840413
1.07696e+06
1.38186e+06
1.77528e+06
2.28351e+06
2.94081e+06
3.79194e+06
4.89549e+06
6.32832e+06
8.1915e+06
1.06184e+07
1.37061e+07
1.77281e+07
2.31343e+07
3.02162e+07
3.69027e+08
1.13502e+08
2.0158e+07
1.46439e+07
1.04998e+07
7.41536e+06
5.14776e+06
3.50642e+06
2.34187e+06
1.53762e+06
1.00463e+06
664868
193695
14572.7
375.012
5.04301
0.0478993
0.000518201
1.05924e-05
5.34369e-07
6.25562e-08
1.3302e-08
4.0268e-09
1.57917e-09
6.40511e-10
2.62148e-10
1.35033e-10
5.19469e-11
2.3692e-11
1.06432e-11
4.32803e-12
1.09794e-12
7.5251e-13
3.1509e-13
1.04489e-13
7.52981e-13
-2.59611e-07
0
0
1.53288e-16
0
0
4.57808e-11
0
-2.33087e-15
2.43422e-07
-2.3848e-07
0
-3.60497e-10
-7.03609e-10
6.86686e-10
-3.66004e-17
2.08229e-07
5.79398e-14
2.07822e-08
2.59522e-07
3.3594e-06
4.23529e-05
0.000490545
0.00485922
0.0402498
0.277252
1.59594
7.76124
32.3227
116.86
370.882
1037.88
2531.88
5149.8
9135.61
15721.6
25065.2
37134.4
52080.2
70291.5
92489.1
119795
153762
196426
250412
319073
406698
518782
662386
846607
1.08319e+06
1.38731e+06
1.77865e+06
2.2827e+06
2.9326e+06
3.77143e+06
4.85529e+06
6.25733e+06
8.0731e+06
1.04276e+07
1.34195e+07
1.72804e+07
2.24555e+07
2.91992e+07
3.98278e+08
7.7961e+07
1.91578e+07
1.39563e+07
1.00344e+07
7.10626e+06
4.94694e+06
3.37925e+06
2.26379e+06
1.49164e+06
979169
644622
172745
11755.2
285.429
3.6916
0.0347663
0.000388441
8.45526e-06
4.55912e-07
5.65274e-08
1.25061e-08
4.00793e-09
1.54471e-09
6.27805e-10
2.80069e-10
1.22484e-10
5.6861e-11
2.19924e-11
1.12632e-11
4.29474e-12
2.56164e-12
1.51117e-12
-4.45297e-13
1.0455e-13
1.82096e-14
0
-3.8144e-17
0
0
0
2.53505e-07
-5.87878e-16
-3.96175e-11
-1.62936e-19
2.36229e-07
2.30921e-07
-2.24628e-07
-2.81407e-10
2.13013e-07
-6.68463e-18
2.30427e-09
1.00636e-09
1.96202e-09
1.89807e-08
1.75743e-07
3.54337e-06
4.44244e-05
0.000515782
0.00511449
0.0424172
0.292559
1.68651
8.21585
34.2845
124.211
394.702
1101.05
2643.8
5512.89
9762.86
14771.5
23703.7
35464.6
50138.7
68141
90203.5
117441
151383
194044
248014
316610
404069
515814
658809
842006
1.07695e+06
1.37854e+06
1.76606e+06
2.26451e+06
2.90633e+06
3.73369e+06
4.80157e+06
6.18173e+06
7.96802e+06
1.02836e+07
1.32264e+07
1.7025e+07
2.21219e+07
2.87698e+07
4.04695e+08
6.01061e+07
1.85329e+07
1.35109e+07
9.72491e+06
6.89691e+06
4.80958e+06
3.29231e+06
2.21113e+06
1.4614e+06
962872
632313
160206
10219.3
238.331
2.99888
0.0280725
0.00032056
7.27796e-06
4.11289e-07
5.2783e-08
1.19881e-08
3.74263e-09
1.50765e-09
6.13396e-10
2.95976e-10
1.24334e-10
4.97557e-11
2.31053e-11
1.04205e-11
4.25567e-12
-2.95324e-12
5.67464e-12
3.13645e-13
9.31186e-14
1.68181e-14
0
0
0
-1.07703e-20
-2.96951e-16
0
-2.4511e-07
8.62499e-11
-2.20937e-15
-3.09195e-19
-3.00652e-19
2.16102e-07
-2.69564e-10
5.21612e-10
-1.12463e-09
-9.76487e-10
-1.16256e-09
4.08975e-09
1.58766e-08
2.71278e-07
3.64487e-06
4.54657e-05
0.000528432
0.00524567
0.0435369
0.300513
1.73389
8.45519
35.3226
128.086
406.684
1128.54
2740.19
5716.7
10120.6
15305.2
20578.8
31706
45711.4
63037.1
84416.9
110938
144091
185844
238732
306008
391828
501516
641907
821789
1.05249e+06
1.34865e+06
1.7292e+06
2.21871e+06
2.84907e+06
3.66188e+06
4.71138e+06
6.0686e+06
7.82673e+06
1.01084e+07
1.30078e+07
1.67608e+07
2.18023e+07
2.83819e+07
4.05502e+08
5.31443e+07
1.80269e+07
1.31485e+07
9.46928e+06
6.72016e+06
4.69031e+06
3.21413e+06
2.16154e+06
1.43098e+06
944518
620025
154074
9560.41
218.435
2.70991
0.0252895
0.000291921
6.7679e-06
3.9157e-07
5.10497e-08
1.20942e-08
3.87846e-09
1.46799e-09
5.99377e-10
2.68643e-10
1.17356e-10
4.80564e-11
2.27646e-11
9.27573e-12
4.21102e-12
1.71963e-12
7.21266e-13
5.23142e-12
9.29496e-14
1.68237e-14
0
0
-5.42599e-21
0
2.26664e-11
0
0
-1.12992e-15
2.34962e-07
-7.37542e-11
-3.00643e-19
-2.16095e-07
-2.09563e-07
-2.03134e-07
1.1246e-09
-4.29792e-17
2.72967e-14
1.82148e-07
1.76564e-08
2.73389e-07
3.55944e-06
4.54599e-05
0.000528489
0.00524585
0.0435428
0.30058
1.73441
8.45835
35.3382
128.15
406.907
1129.19
2741.82
5720.05
10126.2
15313
20591.6
31723.9
45734.8
63066.2
84451.7
110978
144135
185890
238775
306042
391842
501494
641826
821616
1.05218e+06
1.34814e+06
1.72841e+06
2.21752e+06
2.84737e+06
3.65951e+06
4.70822e+06
6.06454e+06
7.8218e+06
1.01028e+07
1.30022e+07
1.67569e+07
2.18017e+07
2.83856e+07
4.05458e+08
5.30978e+07
1.80222e+07
1.3143e+07
9.46481e+06
6.71724e+06
4.68879e+06
3.2136e+06
2.16157e+06
1.43125e+06
944837
620238
154039
9552.64
218.182
2.70612
0.0252518
0.00029152
6.75931e-06
3.91157e-07
5.07311e-08
1.19595e-08
3.72241e-09
1.51249e-09
5.99453e-10
2.47693e-10
1.17371e-10
4.9604e-11
2.33862e-11
9.27628e-12
4.05266e-12
9.98769e-13
6.96516e-13
2.67187e-13
-4.8832e-12
1.82414e-14
0
0
2.59242e-07
-2.58082e-07
0
-4.27694e-20
0
1.15688e-15
0
7.60578e-11
0
0
-2.19101e-07
-1.21914e-09
-1.55253e-14
3.0144e-14
-2.9707e-14
4.37306e-09
1.70651e-08
2.64449e-07
3.45486e-06
4.44094e-05
0.000515612
0.00511499
0.0424316
0.292729
1.68789
8.22434
34.3268
124.387
395.322
1102.9
2648.38
5522.34
9778.71
14793.5
23744.3
35521.1
50212.7
68233.4
90314.8
117571
151529
194201
248174
316757
404178
515848
658710
841691
1.0763e+06
1.37741e+06
1.76424e+06
2.26173e+06
2.90229e+06
3.72807e+06
4.7941e+06
6.17229e+06
7.95691e+06
1.02718e+07
1.32159e+07
1.702e+07
2.21266e+07
2.87846e+07
4.04628e+08
5.99251e+07
1.85258e+07
1.34982e+07
9.71149e+06
6.88542e+06
4.80089e+06
3.28635e+06
2.20734e+06
1.45917e+06
961663
631613
159841
10183.5
237.333
2.98494
0.0279407
0.000319223
7.25458e-06
4.11572e-07
5.30904e-08
1.20269e-08
3.74429e-09
1.42585e-09
6.14285e-10
2.74635e-10
1.25696e-10
5.04668e-11
2.37388e-11
1.04224e-11
3.1765e-12
1.08774e-12
7.00937e-13
2.90983e-13
9.626e-14
1.68191e-14
0
3.83176e-17
0
0
0
0
-2.55135e-07
0
0
0
0
-2.33186e-07
-2.27717e-07
-7.03555e-10
-4.68385e-18
-3.65972e-17
-1.06717e-09
4.6586e-09
2.19569e-07
2.59496e-07
3.25985e-06
4.22132e-05
0.000490473
0.00485962
0.0402688
0.277491
1.59791
7.77359
32.3849
117.119
371.803
1040.67
2538.94
5164.03
9159.68
15766.5
25133.8
37230.6
52207.3
70452.1
92685.6
120030
154035
196736
250754
319433
407054
519094
662594
846617
1.08286e+06
1.38646e+06
1.77702e+06
2.27998e+06
2.9284e+06
3.76534e+06
4.84696e+06
6.24665e+06
8.0604e+06
1.0414e+07
1.34075e+07
1.72743e+07
2.24591e+07
2.92106e+07
3.98326e+08
7.74883e+07
1.91483e+07
1.39412e+07
1.00187e+07
7.09289e+06
4.93684e+06
3.37228e+06
2.25936e+06
1.489e+06
977688
643541
172141
11688.2
283.45
3.6629
0.0344908
0.000385705
8.40737e-06
4.56157e-07
5.59237e-08
1.25137e-08
3.93567e-09
1.54546e-09
6.71061e-10
2.8017e-10
1.21823e-10
5.44867e-11
2.34206e-11
1.05411e-11
4.49502e-12
1.8282e-12
7.95535e-13
-3.97292e-12
5.11371e-12
1.96315e-14
0
-3.84911e-17
0
0
0
2.35097e-11
0
2.57596e-07
-1.82587e-10
-2.3566e-15
-1.58663e-10
2.41795e-07
0
-1.25355e-18
-2.28067e-07
-3.35958e-14
-2.97996e-16
2.21875e-09
1.94673e-08
2.49016e-07
3.00514e-06
3.94371e-05
0.000455721
0.004509
0.0373101
0.256729
1.47594
7.16632
29.7866
107.451
340.384
953.212
2349.58
4964.04
9109.47
15764.1
25140.2
37254.1
52204.1
70335.8
92352.2
119361
152919
195069
248449
316430
403330
514693
657659
841452
1.07802e+06
1.38286e+06
1.77613e+06
2.28407e+06
2.94096e+06
3.79156e+06
4.89456e+06
6.32697e+06
8.19021e+06
1.06181e+07
1.37081e+07
1.77331e+07
2.31414e+07
3.02174e+07
3.70045e+08
1.12508e+08
2.01576e+07
1.46424e+07
1.04962e+07
7.41086e+06
5.1435e+06
3.50304e+06
2.33949e+06
1.53611e+06
1.00377e+06
664279
192964
14467.5
371.572
4.99003
0.0473847
0.000513188
1.05121e-05
5.32217e-07
6.22399e-08
1.34961e-08
4.19996e-09
1.53232e-09
6.40817e-10
2.62973e-10
1.35087e-10
5.76811e-11
2.37004e-11
1.06465e-11
4.32935e-12
1.83886e-12
7.52729e-13
3.15174e-13
1.04511e-13
1.95831e-14
0
2.63162e-07
2.6514e-07
2.66319e-07
0
2.66315e-07
2.6519e-07
1.2382e-15
1.87255e-10
-8.30234e-11
-2.54484e-07
2.50426e-07
-7.0716e-10
-2.43549e-07
2.38123e-07
1.20738e-09
-2.30947e-07
-2.34811e-09
-2.09559e-07
2.21799e-07
2.82156e-06
3.6046e-05
0.000414664
0.00409469
0.033828
0.232416
1.33397
6.46455
26.809
96.4666
304.884
853.332
2115.36
4575.25
8644.4
15045.5
24172.1
36028
50692.2
68455.6
89986
116359
149111
190280
242497
309140
394544
504297
645620
827887
1.06329e+06
1.36774e+06
1.76204e+06
2.27344e+06
2.93775e+06
3.8021e+06
4.92872e+06
6.39997e+06
8.32521e+06
1.08502e+07
1.40771e+07
1.84465e+07
2.42304e+07
3.19027e+07
2.99857e+08
1.70664e+08
2.15512e+07
1.56059e+07
1.1153e+07
7.85122e+06
5.43293e+06
3.68872e+06
2.45506e+06
1.60523e+06
1.0428e+06
690641
223754
19272.4
534.712
7.56267
0.0727318
0.00075684
1.4285e-05
6.59572e-07
7.26904e-08
1.51544e-08
4.5577e-09
1.78794e-09
6.97197e-10
2.89904e-10
1.25549e-10
6.33846e-11
2.32059e-11
1.00013e-11
-3.4648e-13
2.86175e-12
8.46846e-13
3.15303e-13
1.04312e-13
7.55713e-13
2.60784e-07
-2.64332e-07
0
0
-2.42417e-11
0
0
-5.3252e-11
0
0
0
-7.43767e-10
-2.55645e-07
-1.36146e-18
7.87654e-10
-2.45674e-07
-2.51804e-16
-2.50843e-15
2.57141e-07
3.18639e-07
2.49161e-06
3.21688e-05
0.000370202
0.00364773
0.0300869
0.206429
1.18313
5.72418
23.6931
85.0722
268.332
750.456
1866.85
4098.67
7912.69
13905.2
22574.3
33946.7
48107.6
65295.9
86121.2
111614
143262
183066
233619
298265
381303
488294
626451
805170
1.03673e+06
1.33724e+06
1.72786e+06
2.23652e+06
2.90015e+06
3.76778e+06
4.90477e+06
6.39858e+06
8.3669e+06
1.09673e+07
1.43256e+07
1.89273e+07
2.51102e+07
3.34651e+07
1.82314e+08
2.47512e+08
2.34042e+07
1.68436e+07
1.19809e+07
8.40315e+06
5.798e+06
3.92697e+06
2.60732e+06
1.69943e+06
1.09791e+06
723533
264946
27448.8
843.596
12.7602
0.125371
0.0012483
2.13307e-05
8.77187e-07
8.76851e-08
1.68145e-08
4.53754e-09
1.81843e-09
7.53847e-10
3.4024e-10
1.44006e-10
6.49137e-11
2.7113e-11
1.74135e-11
5.12302e-12
7.35119e-12
-4.17368e-12
3.3806e-13
1.15432e-13
5.02999e-12
-3.66107e-13
-2.79969e-21
-2.6903e-07
0
0
0
-4.93803e-11
4.42537e-11
0
0
2.70405e-07
0
-7.60719e-10
-2.62166e-07
1.48976e-09
-3.05265e-17
-1.31305e-09
-2.27364e-15
1.41429e-08
1.75336e-07
2.29071e-06
2.82563e-05
0.000324913
0.00319471
0.0263148
0.180352
1.03258
4.98987
20.6246
73.9368
232.86
650.873
1623.12
3600.56
7067.7
12556.1
20621.5
31342.4
44815.8
61251.8
81187.8
105590
135867
173945
222338
284290
363991
466859
599936
772412
996321
1.28747e+06
1.66669e+06
2.16151e+06
2.80846e+06
3.65616e+06
4.76957e+06
6.23599e+06
8.17332e+06
1.07416e+07
1.40732e+07
1.85227e+07
2.46478e+07
3.29056e+07
8.46798e+07
3.21819e+08
2.5054e+07
1.8043e+07
1.28387e+07
9.00624e+06
6.21427e+06
4.2083e+06
2.79256e+06
1.81711e+06
1.16843e+06
762670
349226
41464.5
1454.71
23.9685
0.243671
0.00232301
3.54135e-05
1.26897e-06
1.11283e-07
2.02928e-08
5.32331e-09
2.21248e-09
8.57007e-10
3.44338e-10
1.52053e-10
7.74654e-11
2.51468e-11
1.23679e-11
5.51857e-12
2.22899e-12
9.92703e-13
-3.68427e-13
1.26405e-13
-7.13573e-13
0
-3.91756e-17
0
0
0
0
0
2.80697e-07
-2.80544e-07
8.99908e-11
0
3.55879e-10
-2.74282e-07
0
1.55097e-09
-2.60755e-17
-2.18974e-16
-2.65653e-07
1.21581e-08
2.56171e-08
1.97761e-06
2.45275e-05
0.000281099
0.00275812
0.0226893
0.155388
0.889108
4.29366
17.7323
63.5064
199.83
558.435
1395.42
3119.17
6204.8
11145.3
18521.3
28474.4
41121.8
56664.3
75566.9
98705.7
127396
163452
209261
267914
343404
440891
567077
730691
943146
1.2194e+06
1.57909e+06
2.04809e+06
2.66051e+06
3.46144e+06
4.5106e+06
5.88724e+06
7.69673e+06
1.00795e+07
1.31917e+07
1.72358e+07
2.27391e+07
3.00389e+07
4.33394e+07
3.86403e+08
2.66346e+07
1.92126e+07
1.3698e+07
9.63172e+06
6.66311e+06
4.52392e+06
3.0086e+06
1.95969e+06
1.25739e+06
812714
430284
65442.7
2727.16
50.0037
0.535067
0.00491644
6.61554e-05
2.00571e-06
1.52456e-07
2.44401e-08
6.86181e-09
2.23715e-09
9.61187e-10
3.95492e-10
1.77457e-10
7.19946e-11
3.35224e-11
1.32505e-11
6.2913e-12
2.6082e-12
-4.05966e-12
4.75818e-13
1.37167e-13
2.61944e-14
0
-3.00313e-12
0
0
-2.80577e-07
0
2.85172e-07
2.86286e-07
1.9354e-19
2.86733e-07
5.37807e-15
0
-2.83926e-07
-2.12201e-14
-3.03152e-18
-1.44039e-09
2.78739e-07
-1.81444e-15
9.89955e-09
1.33804e-07
1.67321e-06
2.11184e-05
0.000240169
0.00235217
0.0193332
0.132353
0.757193
3.65611
15.0956
54.0446
170.008
475.211
1189.74
2675.47
5380.99
9769.81
16423.6
25544.4
37281.1
51833
69604.5
91373.8
118351
152211
195193
250196
320970
412360
530644
683986
883030
1.14169e+06
1.47816e+06
1.91631e+06
2.48741e+06
3.23251e+06
4.20541e+06
5.47655e+06
7.13791e+06
9.3089e+06
1.21359e+07
1.5739e+07
2.05585e+07
2.67943e+07
3.47792e+07
4.20369e+08
4.46302e+07
2.06128e+07
1.47857e+07
1.04435e+07
7.25105e+06
4.93848e+06
3.29294e+06
2.14835e+06
1.37676e+06
881932
531583
105576
5510.81
115.176
1.32525
0.011898
0.00014075
3.54155e-06
2.26582e-07
3.19844e-08
8.0361e-09
2.44311e-09
1.06573e-09
4.47138e-10
2.03165e-10
9.08165e-11
3.67369e-11
1.61969e-11
6.72025e-12
3.17962e-12
-4.00559e-12
-3.33358e-13
9.09489e-13
-7.0995e-13
1.64954e-13
3.0158e-12
-8.07267e-17
-1.18012e-20
0
0
-2.86942e-11
0
1.97852e-19
2.76216e-15
0
-1.10369e-14
-2.92794e-07
-2.19672e-14
-2.92239e-07
-2.19818e-17
-4.3889e-14
3.68107e-09
1.33633e-08
2.72571e-07
1.54259e-06