/*--------------------------------*- C++ -*----------------------------------*\
  =========                 |
  \\      /  F ield         | OpenFOAM: The Open Source CFD Toolbox
   \\    /   O peration     | Website:  https://openfoam.org
    \\  /    A nd           | Version:  8
     \\/     M anipulation  |
\*---------------------------------------------------------------------------*/
FoamFile
{
    version     2.0;
    format      ascii;
    class       volScalarField;
    location    "140/fluid";
    object      rDeltaT;
}
// * * * * * * * * * * * * * * * * * * * * * * * * * * * * * * * * * * * * * //

dimensions      [0 0 -1 0 0 0 0];

internalField   nonuniform List<scalar> 
4000
(
513.126
538.655
563.231
586.91
609.608
631.287
651.902
671.373
689.596
706.468
721.926
735.962
748.652
760.171
770.797
780.783
790.268
799.218
807.385
814.312
819.407
822.056
821.746
818.145
811.148
800.895
787.634
771.686
753.425
733.245
711.536
688.667
664.974
640.75
616.251
591.69
567.241
545.01
541.64
555.548
569.799
584.491
599.713
615.545
632.063
649.334
667.423
686.388
706.284
727.161
749.066
772.04
796.122
821.343
847.729
875.299
904.063
934.019
965.153
997.44
1030.83
1065.27
1100.68
1136.94
1173.87
1211.44
1249.53
1288.33
7911.62
8412.63
1367.39
1372.07
1371.19
1364.03
1350.08
1328.81
1299.67
1262.21
1216.24
1161.89
1099.61
1031.02
959.065
887.879
823.005
770.134
732.489
708.992
695.21
685.934
677.21
666.914
654.179
639.001
621.686
602.519
581.663
559.359
536.163
512.299
512.726
537.713
561.639
584.369
605.851
626.064
644.991
662.592
678.812
693.62
707.035
719.142
730.114
740.213
749.714
758.846
767.74
776.354
784.427
791.484
796.909
800.054
800.36
797.446
791.168
781.557
768.803
753.215
735.174
715.092
693.379
670.422
646.573
622.138
597.379
572.516
547.725
526.508
525.184
540.712
556.519
572.705
589.359
606.567
624.407
642.952
662.271
682.428
703.484
725.496
748.518
772.6
797.788
824.123
851.642
880.374
910.343
941.561
974.029
1007.73
1042.65
1078.73
1115.9
1154.07
1193.03
1232.81
1273.25
1314.54
12938.8
5190.13
1375.88
1375.1
1369.57
1358.17
1339.97
1314.22
1280.23
1237.49
1185.74
1125.01
1056
981.081
904.42
831.813
769.563
722.628
692.202
675.119
666.148
660.353
654.588
647.281
637.779
625.868
611.655
595.271
576.785
556.375
534.539
511.706
512.125
535.77
558.191
579.283
598.965
617.227
634.077
649.516
663.548
676.21
687.59
697.844
707.198
715.924
724.284
732.512
740.754
748.981
756.943
764.163
770.016
773.833
775.019
773.142
767.964
759.415
747.619
732.843
715.447
695.83
674.401
651.549
627.632
602.964
577.819
552.422
526.963
507.459
509.374
527.127
545.158
563.557
582.408
601.792
621.785
642.463
663.893
686.143
709.278
733.358
758.442
784.585
811.842
840.26
869.883
900.751
932.894
966.333
1001.07
1037.1
1074.37
1112.81
1152.27
1192.5
1233.17
1273.96
1314.12
1352.55
16223.1
1618.69
1410.3
1399.2
1383.73
1362.9
1335.62
1300.97
1258.19
1206.79
1146.67
1078.08
1002.44
923.073
844.971
774.479
717.494
677.281
653.037
640.6
634.905
631.706
628.394
623.696
617.106
608.386
597.454
584.268
568.776
551.077
531.642
510.82
511.533
533.977
555.118
574.843
593.088
609.858
625.183
639.089
651.605
662.785
672.732
681.607
689.634
697.09
704.27
711.439
718.758
726.204
733.525
740.245
745.73
749.304
750.358
748.442
743.303
734.882
723.289
708.759
691.611
672.207
650.919
628.11
604.115
579.234
553.728
527.82
501.696
487.205
495.756
515.757
536.085
556.819
578.033
599.8
622.193
645.279
669.126
693.8
719.362
745.876
773.399
801.99
831.702
862.586
894.687
928.045
962.689
998.636
1035.89
1074.42
1114.17
1155.04
1196.86
1239.22
1281.95
1324.37
1365.46
2719.99
12671.9
1455.54
1438.61
1418.07
1392.9
1362.25
1325.26
1281.2
1229.52
1169.99
1102.82
1028.7
949.889
870.315
795.199
730.329
680.443
647.249
628.64
620.05
616.809
615.279
613.348
609.972
604.715
597.43
588.065
576.556
562.807
546.866
529.141
509.982
510.889
532.004
551.748
570.017
586.752
601.968
615.706
628.008
638.92
648.519
656.927
664.328
670.968
677.14
683.156
689.29
695.702
702.373
709.048
715.249
720.34
723.637
724.52
722.521
717.368
708.98
697.445
682.975
665.867
646.458
625.103
602.142
577.895
552.648
526.65
500.115
473.223
465.694
482.909
505.115
527.716
550.779
574.368
598.55
623.387
648.944
675.281
702.462
730.544
759.587
789.649
820.783
853.042
886.474
921.125
957.03
994.217
1032.7
1072.49
1113.55
1155.83
1199.24
1243.6
1288.58
1334.11
1379.66
1425.02
11759.6
6256.63
1467.01
1446.53
1420.62
1388.97
1351.08
1306.5
1254.87
1196.01
1130.08
1057.49
979.521
899.085
820.479
748.975
689.837
646.607
619.504
605.435
599.792
598.379
598.179
597.481
595.428
591.64
585.955
578.289
568.542
556.589
542.458
526.525
509.115
510.232
530.019
548.397
565.267
580.579
594.353
606.641
617.492
626.966
635.149
642.174
648.234
653.58
658.513
663.348
668.363
673.726
679.419
685.194
690.58
694.948
697.62
697.978
695.553
690.062
681.411
669.67
655.028
637.758
618.175
596.609
573.379
548.787
523.101
496.558
469.361
445.343
446.634
470.476
494.728
519.448
544.692
570.517
596.98
624.137
652.045
680.759
710.336
740.828
772.29
804.773
838.327
872.997
908.826
945.848
984.088
1023.56
1064.25
1106.14
1149.13
1193.12
1237.88
1283.02
1328.09
1372.71
1415.74
1500.74
16822.8
1501.31
1478.76
1450.46
1416.79
1377.58
1332.42
1280.91
1222.84
1158.22
1087.44
1011.16
931.245
851.09
775.205
708.703
656.109
619.673
598.304
588.251
585.063
585.029
585.682
585.671
584.335
581.381
576.683
570.153
561.679
551.119
538.481
524.104
508.294
509.556
527.975
544.958
560.41
574.286
586.614
597.449
606.847
614.877
621.633
627.259
631.957
635.987
639.658
643.291
647.169
651.462
656.153
660.995
665.52
669.101
671.063
670.792
667.815
661.845
652.779
640.671
625.697
608.108
588.203
566.289
542.67
517.63
491.422
464.269
436.365
420.827
432.108
457.747
483.872
510.531
537.773
565.647
594.201
623.485
653.547
684.437
716.203
748.892
782.55
817.221
852.946
889.762
927.7
966.782
1007.02
1048.41
1090.93
1134.51
1179.07
1224.44
1270.39
1316.34
1362.1
1406.78
1449.24
4021.67
11435.2
1509.33
1479.41
1444.74
1404.81
1359.36
1308.16
1250.99
1187.79
1118.81
1044.55
965.982
885.514
806.823
734.48
673.278
626.896
596.381
579.65
572.663
571.291
572.308
573.688
574.336
573.719
571.598
567.86
562.414
555.141
545.893
534.669
521.778
507.506
508.869
525.904
541.483
555.518
567.971
578.872
588.279
596.254
602.872
608.233
612.489
615.845
618.569
620.973
623.382
626.08
629.24
632.846
636.655
640.203
642.871
643.991
642.952
639.286
632.701
623.088
610.49
595.065
577.052
556.727
534.383
510.306
484.762
457.993
430.209
401.591
395.198
417.066
444.32
472.127
500.526
529.558
559.265
589.688
620.87
652.851
685.675
719.38
754.008
789.597
826.181
863.794
902.462
942.208
983.044
1024.97
1067.98
1112.03
1157.06
1202.97
1249.62
1296.75
1343.9
1391.08
1437.58
1483.46
14968.7
4692.26
1491.51
1460.42
1423.33
1380.37
1331.45
1276.57
1215.77
1149.28
1077.57
1001.28
921.833
842.061
765.847
697.733
642.086
601.695
576.532
563.788
559.348
559.444
561.295
563.235
564.385
564.324
562.865
559.913
555.382
549.149
541.066
531.123
519.601
506.763
508.17
523.8
537.957
550.562
561.582
571.049
579.025
585.575
590.777
594.739
597.617
599.623
601.028
602.149
603.314
604.809
606.808
609.296
612.032
614.555
616.252
616.461
614.58
610.142
602.857
592.609
579.432
563.474
544.958
524.144
501.31
476.725
450.643
423.291
394.868
369.904
373.027
401.149
429.844
459.147
489.09
519.707
551.033
583.101
615.947
649.607
684.113
719.5
755.798
793.037
831.242
870.435
910.63
951.833
994.04
1037.23
1081.35
1126.34
1172.07
1218.36
1264.96
1311.38
1357.13
1401.8
1444.1
1561.53
16503.9
1514.49
1483.04
1445.96
1403.44
1355.57
1302.31
1243.59
1179.5
1110.33
1036.64
959.174
879.746
801.468
728.314
664.691
614.447
579.496
558.91
549.418
546.996
548.261
550.813
553.27
554.916
555.409
554.598
552.403
548.741
543.49
536.506
527.772
517.543
506.06
507.462
521.668
534.39
545.554
555.133
563.163
569.705
574.829
578.616
581.18
582.679
583.331
583.411
583.237
583.142
583.411
584.218
585.549
587.166
588.613
589.282
588.521
585.734
580.461
572.41
561.465
547.652
531.107
512.039
490.697
467.341
442.228
415.597
387.663
358.615
342.059
354.776
384.123
414.095
444.718
476.018
508.023
540.76
574.259
608.546
643.651
679.6
716.418
754.13
792.754
832.307
872.799
914.234
956.604
999.89
1044.06
1089.04
1134.76
1181.06
1227.77
1274.61
1320.88
1366.33
1410.32
1451.24
3671.95
12111.2
1503.15
1466.47
1425.1
1378.68
1327.16
1270.57
1208.92
1142.39
1071.36
996.436
918.539
839.84
763.62
693.884
634.819
589.713
559.66
543.011
536.232
535.484
537.727
540.898
543.841
545.964
546.991
546.799
545.321
542.478
538.152
532.203
524.611
515.601
505.398
506.745
519.511
530.781
540.49
548.618
555.202
560.304
563.995
566.362
567.521
567.635
566.927
565.673
564.196
562.826
561.853
561.449
561.601
562.071
562.41
562.016
560.247
556.514
550.363
541.507
529.825
515.338
498.174
478.528
456.637
432.747
407.102
379.929
351.43
321.786
313.407
335.397
365.824
396.918
428.697
461.183
494.394
528.355
563.087
598.612
634.951
672.127
710.156
749.055
788.835
829.505
871.066
913.511
956.822
1000.97
1045.91
1091.56
1137.84
1184.61
1231.68
1278.8
1325.38
1371.56
1416.53
1459.99
11442.8
6721.25
1473.85
1437.02
1394.54
1346.62
1293.4
1235.07
1171.83
1103.99
1032.09
956.768
879.218
801.897
728.202
662.112
607.546
567.223
541.509
528.217
523.699
524.359
527.456
531.213
534.652
537.276
538.855
539.292
538.525
536.485
533.055
528.102
521.604
513.758
504.77
506.02
517.329
527.133
535.376
542.042
547.171
550.826
553.08
554.023
553.773
552.5
550.427
547.835
545.046
542.395
540.167
538.536
537.49
536.793
535.999
534.516
531.711
527.005
519.95
510.263
497.822
482.643
464.844
444.611
422.168
397.748
371.584
343.888
314.855
284.706
284.084
314.772
346.147
378.222
411.008
444.521
478.776
513.788
549.575
586.153
623.538
661.745
700.786
740.669
781.399
822.975
865.389
908.623
952.65
997.424
1042.88
1088.93
1135.44
1182.25
1229.11
1275.69
1321.36
1366.09
1408.92
1449.35
16943.7
2395.14
1447.12
1407.78
1363.05
1313.2
1258.35
1198.62
1134.27
1065.67
993.438
918.25
841.553
766.015
695.096
632.7
582.443
546.492
524.594
514.173
511.576
513.452
517.331
521.669
525.625
528.777
530.933
532.01
531.959
530.71
528.156
524.17
518.727
511.999
504.172
505.287
515.124
523.449
530.214
535.409
539.076
541.278
542.091
541.605
539.944
537.281
533.842
529.909
525.807
521.868
518.379
515.513
513.257
511.378
509.436
506.849
502.992
497.297
489.325
478.795
465.585
449.708
431.273
410.458
387.472
362.538
335.876
307.689
278.16
254.563
261.349
292.828
325.029
357.955
391.613
426.012
461.16
497.069
533.752
571.22
609.484
648.551
688.43
729.122
770.625
812.93
856.019
899.866
944.427
989.642
1035.43
1081.66
1128.18
1174.78
1221.16
1266.83
1311.27
1354.25
1394.56
1551.28
16027.3
1460.25
1423.44
1381.05
1333.53
1281.25
1224.39
1163.11
1097.65
1028.44
956.073
881.285
805.726
732.184
664.129
605.344
559.118
527.105
508.537
500.577
499.632
502.589
507.212
512.144
516.652
520.37
523.136
524.878
525.552
525.097
523.409
520.372
515.956
510.31
503.601
504.547
512.898
519.732
525.009
528.726
530.925
531.67
531.038
529.123
526.052
522
517.195
511.922
506.506
501.279
496.527
492.42
488.948
485.88
482.782
479.081
474.165
467.475
458.581
447.207
433.231
416.661
397.601
376.216
352.708
327.287
300.16
271.52
241.541
223.879
237.36
269.526
302.439
336.099
370.504
405.659
441.567
478.236
515.674
553.886
592.881
632.662
673.232
714.588
756.724
799.626
843.273
887.632
932.657
978.281
1024.41
1070.93
1117.67
1164.39
1210.77
1256.11
1300.14
1342.17
1380.64
2693.41
13820.4
1435.48
1395.21
1350.34
1300.88
1247.02
1188.93
1126.77
1060.82
991.516
919.477
845.495
771.406
700.069
634.935
579.642
537.156
508.674
493.02
487.194
487.705
491.657
497.013
502.566
507.667
511.995
515.407
517.841
519.258
519.601
518.777
516.676
513.269
508.678
503.05
503.8
510.655
515.987
519.768
522.001
522.728
522.014
519.938
516.595
512.116
506.677
500.512
493.903
487.177
480.664
474.649
469.302
464.611
460.351
456.095
451.279
445.302
437.619
427.807
415.596
400.864
383.616
363.948
342.018
318.015
292.14
264.587
235.541
205.164
192.731
212.098
244.849
278.371
312.654
347.693
383.485
420.032
457.335
495.398
534.224
573.818
614.179
655.306
697.195
739.835
783.211
827.298
872.061
917.454
963.41
1009.84
1056.63
1103.6
1150.55
1197.15
1242.68
1287.19
1329.57
1368.64
5739.38
11128.9
1400.6
1359.89
1314.51
1264.57
1210.27
1151.84
1089.54
1023.69
954.822
883.537
810.734
738.401
669.427
607.221
555.263
516.215
490.886
477.788
473.839
475.664
480.563
486.662
492.874
498.615
503.599
507.697
510.853
513.033
514.186
514.227
513.057
510.645
507.09
502.518
503.048
508.396
512.219
514.498
515.242
514.496
512.324
508.805
504.038
498.156
491.339
483.818
475.881
467.851
460.059
452.786
446.201
440.294
434.843
429.43
423.502
416.47
407.802
397.083
384.048
368.577
350.672
330.422
307.977
283.514
257.225
229.293
199.891
169.173
161.188
185.559
218.802
252.833
287.637
323.203
359.524
396.595
434.415
472.983
512.302
552.369
593.183
634.74
677.031
720.045
763.763
808.159
853.197
898.829
944.994
991.606
1038.56
1085.7
1132.83
1179.69
1225.61
1270.69
1314.04
1354.98
10296.6
8166.6
1359.94
1320.06
1275.24
1225.71
1171.76
1113.69
1051.83
986.598
918.58
848.407
777.079
706.697
640.16
580.819
531.993
496.07
473.536
462.68
460.396
463.433
469.253
476.118
483.031
489.462
495.148
499.971
503.881
506.846
508.821
509.733
509.493
508.068
505.536
501.998
502.292
506.124
508.432
509.205
508.46
506.242
502.615
497.658
491.473
484.196
476.008
467.143
457.887
448.562
439.498
430.973
423.157
416.039
409.403
402.838
395.805
387.728
378.087
366.476
352.637
336.451
317.916
297.116
274.191
249.31
222.651
194.39
164.688
133.692
129.321
157.759
191.403
225.85
261.079
297.072
333.816
371.305
409.533
448.495
488.19
528.613
569.761
611.624
654.194
697.453
741.381
785.949
831.119
876.84
923.048
969.658
1016.56
1063.61
1110.62
1157.33
1203.11
1247.78
1291.02
1331.98
13551.4
5610.4
1321.31
1281.37
1236.58
1187.21
1133.54
1075.89
1014.62
950.191
883.222
814.357
744.671
676.33
612.222
555.624
509.697
476.588
456.525
447.614
446.804
450.974
457.707
465.365
473.022
480.189
486.621
492.208
496.901
500.672
503.485
505.275
505.966
505.525
504.006
501.49
501.533
503.843
504.632
503.898
501.665
497.977
492.9
486.513
478.92
470.258
460.71
450.512
439.948
429.34
419.014
409.247
400.206
391.884
384.07
376.363
368.236
359.127
348.528
336.046
321.427
304.553
285.42
264.107
240.743
215.489
188.512
159.977
130.036
100
100
128.726
162.685
197.458
233.019
269.343
306.415
344.221
382.753
422.003
461.967
502.637
544.006
586.063
628.795
672.182
716.199
760.814
805.985
851.656
897.756
944.197
990.86
1037.6
1084.2
1130.42
1175.65
1219.69
1262.33
1302.7
15429.2
3959.65
1285.17
1244.76
1199.63
1150.13
1096.56
1039.23
978.53
914.929
849.071
781.589
713.606
647.315
585.563
531.54
488.264
457.679
439.837
432.647
433.092
438.325
445.956
454.425
462.858
470.798
478.012
484.394
489.898
494.496
498.159
500.836
502.462
503.004
502.494
500.989
500.771
501.556
500.825
498.586
494.867
489.716
483.196
475.388
466.397
456.362
445.467
433.949
422.091
410.212
398.635
387.636
377.38
367.863
358.879
350.04
340.83
330.705
319.17
305.84
290.468
272.939
253.244
231.457
207.7
182.122
154.88
126.129
100
100
100
100
132.686
167.702
203.507
240.072
277.377
315.404
354.143
393.583
433.715
474.531
516.02
558.168
600.961
644.376
688.385
732.952
778.031
823.563
869.472
915.664
962.015
1008.36
1054.5
1100.15
1144.72
1187.98
1229.69
1268.86
15996.2
3078.39
1251.21
1209.83
1164.05
1114.22
1060.64
1003.6
943.482
880.758
816.071
750.042
683.808
619.553
560.067
508.439
467.549
439.189
423.326
417.801
419.425
425.623
434.096
443.355
452.569
461.299
469.318
476.521
482.857
488.301
492.829
496.402
498.968
500.496
500.993
500.493
500.008
499.267
497.017
493.275
488.077
481.47
473.518
464.3
453.923
442.529
430.302
417.478
404.339
391.202
378.387
366.166
354.704
344
333.856
323.894
313.617
302.492
290.041
275.889
259.797
241.65
221.438
199.225
175.127
149.28
121.832
100
100
100
100
100
101.474
136.649
172.611
209.327
246.772
284.928
323.778
363.31
403.513
444.379
485.894
528.043
570.808
614.166
658.088
702.536
747.463
792.807
838.492
884.421
930.469
976.475
1022.23
1067.46
1111.58
1154.39
1195.63
1234.29
16169.4
2725.31
1216.35
1174.47
1128.4
1078.5
1025.1
968.526
909.147
847.446
784.062
719.601
655.191
592.978
535.678
486.274
447.517
421.073
406.835
402.769
405.653
412.787
422.08
432.13
442.141
451.684
460.535
468.584
475.776
482.086
487.495
491.977
495.493
498.008
499.507
500
500.007
499.265
497.014
493.272
488.072
481.464
473.51
464.292
453.913
442.518
430.29
417.464
404.325
391.187
378.371
366.15
354.688
343.984
333.84
323.88
313.603
302.481
290.031
275.881
259.79
241.645
221.435
199.224
175.126
149.281
121.834
100
100
100
100
100
101.499
136.673
172.635
209.35
246.795
284.95
323.798
363.329
403.531
444.396
485.909
528.056
570.819
614.175
658.095
702.54
747.464
792.805
838.487
884.412
930.456
976.458
1022.21
1067.44
1111.54
1154.35
1195.58
1234.23
16168.4
2722.95
1216.33
1174.45
1128.38
1078.49
1025.1
968.532
909.164
847.475
784.103
719.654
655.255
593.053
535.761
486.364
447.61
421.168
406.93
402.858
405.736
412.864
422.15
432.192
442.196
451.733
460.579
468.622
475.809
482.115
487.521
492
495.516
498.027
499.517
500
500.769
501.553
500.82
498.578
494.857
489.703
483.181
475.371
466.377
456.339
445.442
433.922
422.061
410.181
398.603
387.603
377.346
367.829
358.846
350.008
340.801
330.678
319.145
305.818
290.45
272.924
253.232
231.447
207.692
182.114
154.873
126.121
100
100
100
100
132.748
167.764
203.569
240.134
277.438
315.464
354.202
393.64
433.77
474.583
516.069
558.215
601.004
644.415
688.42
732.982
778.056
823.582
869.485
915.67
962.011
1008.35
1054.47
1100.11
1144.65
1187.89
1229.57
1268.72
15994.8
3068.31
1251.16
1209.77
1164
1114.18
1060.61
1003.6
943.498
880.798
816.134
750.128
683.917
619.683
560.216
508.605
467.727
439.375
423.513
417.981
419.594
425.78
434.239
443.484
452.684
461.401
469.408
476.599
482.925
488.361
492.882
496.45
499.014
500.534
501.013
500.493
501.531
503.84
504.627
503.891
501.655
497.965
492.885
486.495
478.899
470.234
460.684
450.483
439.917
429.307
418.979
409.211
400.169
391.847
384.032
376.326
368.199
359.092
348.496
336.016
321.398
304.526
285.395
264.082
240.719
215.464
188.487
159.95
130.008
100
100
128.813
162.773
197.549
233.11
269.435
306.507
344.313
382.845
422.095
462.058
502.727
544.094
586.149
628.879
672.263
716.278
760.89
806.057
851.723
897.818
944.253
990.909
1037.64
1084.23
1130.43
1175.63
1219.63
1262.22
1302.55
15441.8
3935.09
1285.04
1244.62
1199.5
1150.02
1096.48
1039.18
978.504
914.928
849.094
781.636
713.675
647.406
585.677
531.677
488.421
457.853
440.02
432.83
433.27
438.492
446.11
454.563
462.981
470.906
478.107
484.477
489.97
494.559
498.214
500.885
502.507
503.041
502.513
500.988
502.29
506.121
508.427
509.198
508.45
506.229
502.599
497.64
491.452
484.172
475.981
467.114
457.855
448.528
439.461
430.935
423.116
415.997
409.36
402.796
395.763
387.687
378.046
366.436
352.598
336.412
317.877
297.077
274.151
249.269
222.608
194.344
164.64
133.639
129.348
157.872
191.519
225.968
261.199
297.194
333.94
371.43
409.658
448.621
488.316
528.739
569.886
611.749
654.318
697.576
741.503
786.07
831.237
876.956
923.161
969.768
1016.67
1063.71
1110.71
1157.42
1203.18
1247.84
1291.06
1332.03
13609.6
5560.84
1320.98
1281.08
1236.34
1187.01
1133.39
1075.78
1014.54
950.141
883.198
814.357
744.694
676.378
612.296
555.726
509.829
476.747
456.702
447.799
446.989
451.149
457.868
465.51
473.151
480.302
486.72
492.294
496.975
500.737
503.54
505.324
506.011
505.561
504.024
501.489
503.047
508.392
512.214
514.491
515.232
514.483
512.309
508.787
504.017
498.132
491.311
483.788
475.848
467.816
460.02
452.745
446.158
440.249
434.797
429.383
423.454
416.422
407.753
397.033
383.998
368.527
350.62
330.369
307.922
283.457
257.164
229.228
199.822
169.1
161.216
185.697
218.944
252.979
287.787
323.355
359.678
396.751
434.572
473.142
512.462
552.529
593.344
634.901
677.192
720.205
763.922
808.317
853.353
898.985
945.147
991.757
1038.7
1085.84
1132.98
1179.85
1225.78
1270.9
1314.3
1355.33
10402.2
8086.61
1359.48
1319.71
1274.97
1225.51
1171.61
1113.57
1051.73
986.525
918.526
848.371
777.061
706.7
640.191
580.883
532.095
496.21
473.705
462.864
460.582
463.611
469.418
476.267
483.163
489.578
495.25
500.059
503.956
506.91
508.877
509.782
509.536
508.101
505.551
501.997
503.799
510.652
515.982
519.761
521.991
522.715
521.999
519.919
516.573
512.091
506.65
500.481
493.869
487.14
480.624
474.606
469.257
464.564
460.301
456.043
451.225
445.247
437.563
427.749
415.536
400.803
383.552
363.882
341.948
317.942
292.062
264.505
235.453
205.07
192.761
212.262
245.019
278.545
312.832
347.874
383.67
420.219
457.524
495.589
534.417
574.011
614.372
655.5
697.388
740.027
783.401
827.486
872.247
917.636
963.588
1010.02
1056.8
1103.77
1150.72
1197.32
1242.87
1287.39
1329.81
1368.91
5820.12
11037.2
1400.41
1359.74
1314.4
1264.47
1210.18
1151.76
1089.46
1023.61
954.745
883.466
810.671
738.355
669.407
607.238
555.326
516.327
491.038
477.965
474.024
475.844
480.729
486.813
493.008
498.733
503.701
507.784
510.928
513.096
514.24
514.273
513.097
510.675
507.103
502.516
504.545
512.895
519.728
525.002
528.717
530.913
531.655
531.02
529.102
526.027
521.972
517.164
511.887
506.468
501.238
496.482
492.373
488.897
485.826
482.726
479.023
474.104
467.412
458.515
447.138
433.159
416.585
397.521
376.132
352.619
327.192
300.059
271.412
241.426
223.912
237.551
269.723
302.642
336.306
370.716
405.874
441.786
478.457
515.897
554.111
593.106
632.887
673.456
714.811
756.945
799.844
843.486
887.84
932.857
978.473
1024.6
1071.11
1117.83
1164.54
1210.91
1256.24
1300.25
1342.26
1380.69
2727.6
13758.5
1435.63
1395.3
1350.37
1300.86
1246.96
1188.84
1126.67
1060.7
991.395
919.352
845.372
771.295
699.984
634.892
579.654
537.229
508.8
493.182
487.371
487.881
491.822
497.163
502.698
507.783
512.095
515.492
517.913
519.318
519.652
518.82
516.712
513.294
508.688
503.048
505.285
515.121
523.444
530.207
535.401
539.064
541.264
542.073
541.584
539.92
537.253
533.81
529.873
525.767
521.825
518.333
515.463
513.204
511.322
509.376
506.786
502.925
497.226
489.25
478.716
465.503
449.621
431.181
410.359
387.367
362.427
335.758
307.562
278.025
254.598
261.568
293.054
325.261
358.193
391.856
426.258
461.41
497.323
534.008
571.478
609.742
648.81
688.687
729.377
770.876
813.176
856.259
900.097
944.648
989.85
1035.62
1081.84
1128.34
1174.92
1221.27
1266.91
1311.31
1354.23
1394.46
1561.53
15985.6
1460.47
1423.55
1381.09
1333.52
1281.2
1224.3
1162.99
1097.51
1028.27
955.893
881.096
805.542
732.022
664.01
605.287
559.135
527.191
508.673
500.738
499.798
502.747
507.356
512.272
516.763
520.466
523.217
524.946
525.609
525.143
523.448
520.402
515.977
510.317
503.597
506.019
517.326
527.129
535.37
542.034
547.16
550.812
553.063
554.002
553.749
552.472
550.395
547.799
545.007
542.351
540.12
538.485
537.435
536.734
535.935
534.449
531.639
526.928
519.868
510.176
497.729
482.544
464.738
444.499
422.048
397.62
371.447
343.742
314.7
284.744
284.332
315.027
346.409
378.49
411.283
444.801
479.059
514.075
549.865
586.446
623.832
662.04
701.08
740.961
781.687
823.258
865.666
908.891
952.906
997.664
1043.1
1089.12
1135.6
1182.36
1229.16
1275.66
1321.22
1365.79
1408.43
1448.63
16914.8
2333.08
1447.34
1407.86
1363.01
1313.09
1258.18
1198.41
1134.03
1065.41
993.154
917.954
841.259
765.744
694.873
632.55
582.381
546.519
524.689
514.308
511.725
513.598
517.466
521.789
525.729
528.866
531.008
532.073
532.01
530.752
528.189
524.195
518.742
512.002
504.169
506.744
519.509
530.777
540.485
548.611
555.192
560.291
563.979
566.342
567.497
567.608
566.895
565.637
564.155
562.782
561.805
561.396
561.544
562.01
562.344
561.945
560.17
556.431
550.274
541.412
529.723
515.229
498.056
478.402
456.502
432.603
406.948
379.764
351.254
321.599
313.448
335.682
366.117
397.218
429.004
461.496
494.713
528.678
563.414
598.942
635.284
672.461
710.491
749.389
789.168
829.834
871.39
913.827
957.129
1001.27
1046.19
1091.83
1138.09
1184.84
1231.89
1279
1325.57
1371.73
1416.7
1460.21
11636.5
6560.17
1473.2
1436.46
1394.03
1346.15
1292.97
1234.65
1171.41
1103.57
1031.66
956.335
878.789
801.494
727.853
661.846
607.386
567.173
541.55
528.316
523.826
524.49
527.578
531.323
534.747
537.356
538.923
539.347
538.57
536.52
533.082
528.121
521.613
513.757
504.766
507.462
521.667
534.387
545.55
555.127
563.154
569.694
574.814
578.598
581.157
582.652
583.3
583.375
583.197
583.097
583.362
584.165
585.492
587.104
588.545
589.208
588.441
585.647
580.365
572.307
561.354
547.531
530.977
511.9
490.547
467.181
442.057
415.414
387.468
358.407
342.103
355.092
384.448
414.428
445.058
476.366
508.377
541.121
574.624
608.917
644.025
679.978
716.799
754.512
793.137
832.69
873.181
914.613
956.98
1000.26
1044.42
1089.4
1135.11
1181.41
1228.11
1274.94
1321.22
1366.66
1410.64
1451.53
3780.68
11969
1502.72
1465.98
1424.57
1378.14
1326.62
1270.01
1208.36
1141.82
1070.78
995.852
917.959
839.287
763.125
693.482
634.54
589.568
559.632
543.065
536.328
535.595
537.835
540.996
543.926
546.036
547.05
546.847
545.358
542.506
538.172
532.215
524.614
515.598
505.394
508.17
523.799
537.955
550.559
561.577
571.042
579.015
585.561
590.76
594.718
597.591
599.593
600.993
602.11
603.27
604.761
606.755
609.238
611.969
614.486
616.176
616.378
614.488
610.041
602.747
592.489
579.302
563.333
544.806
523.98
501.134
476.537
450.442
423.076
394.639
369.953
373.374
401.505
430.21
459.521
489.472
520.097
551.429
583.505
616.357
650.023
684.535
719.926
756.229
793.472
831.681
870.876
911.073
952.277
994.483
1037.67
1081.79
1126.77
1172.49
1218.77
1265.35
1311.74
1357.44
1402.05
1444.3
1577.47
16465.6
1514.38
1482.71
1445.51
1402.91
1354.98
1301.67
1242.92
1178.8
1109.61
1035.91
958.445
879.041
800.82
727.766
664.28
614.192
579.387
558.909
549.481
547.085
548.354
550.899
553.346
554.979
555.46
554.638
552.433
548.762
543.503
536.511
527.77
517.537
506.058
508.869
525.904
541.482
555.516
567.967
578.866
588.27
596.243
602.857
608.214
612.465
615.817
618.536
620.935
623.339
626.033
629.188
632.789
636.592
640.134
642.794
643.905
642.857
639.18
632.585
622.96
610.35
594.914
576.888
556.55
534.193
510.102
484.545
457.761
429.962
401.329
395.249
417.452
444.716
472.532
500.94
529.981
559.696
590.127
621.317
653.306
686.137
719.85
754.486
790.081
826.673
864.292
902.968
942.72
983.563
1025.5
1068.51
1112.56
1157.6
1203.51
1250.15
1297.27
1344.4
1391.52
1437.93
1483.74
15153
4566.98
1490.88
1459.71
1422.58
1379.59
1330.66
1275.76
1214.94
1148.43
1076.71
1000.42
920.992
841.274
765.158
697.189
641.716
601.499
576.474
563.818
559.418
559.526
561.373
563.303
564.441
564.369
562.899
559.937
555.397
549.155
541.065
531.116
519.593
506.761
509.557
527.976
544.957
560.409
574.284
586.61
597.442
606.838
614.864
621.616
627.238
631.931
635.956
639.622
643.251
647.124
651.412
656.097
660.933
665.451
669.023
670.976
670.694
667.706
661.724
652.645
640.524
625.536
607.934
588.014
566.086
542.453
517.397
491.174
464.006
436.086
420.883
432.521
458.17
484.305
510.974
538.225
566.108
594.671
623.964
654.036
684.935
716.71
749.408
783.076
817.757
853.492
890.318
928.266
967.359
1007.61
1049.01
1091.54
1135.13
1179.7
1225.08
1271.04
1317
1362.76
1407.42
1449.81
4155.7
11273.4
1508.57
1478.6
1443.91
1403.97
1358.5
1307.28
1250.08
1186.86
1117.86
1043.59
965.035
884.61
806.008
733.808
672.793
626.608
596.262
579.645
572.717
571.364
572.381
573.752
574.388
573.759
571.627
567.879
562.424
555.142
545.886
534.656
521.769
507.505
510.233
530.02
548.398
565.268
580.579
594.351
606.637
617.486
626.956
635.135
642.156
648.211
653.553
658.48
663.31
668.32
673.678
679.365
685.134
690.512
694.871
697.532
697.879
695.441
689.937
681.272
669.515
654.859
637.574
617.976
596.394
573.149
548.541
522.84
496.281
469.068
445.403
447.07
470.922
495.184
519.913
545.167
571.001
597.474
624.641
652.559
681.283
710.87
741.373
772.847
805.342
838.908
873.591
909.432
946.467
984.719
1024.2
1064.91
1106.79
1149.8
1193.78
1238.53
1283.65
1328.7
1373.29
1416.24
1515.95
16787.9
1500.96
1478.14
1449.74
1415.99
1376.72
1331.51
1279.96
1221.85
1157.21
1086.41
1010.13
930.24
850.162
774.412
708.1
655.723
619.488
598.263
588.29
585.133
585.101
585.746
585.722
584.372
581.407
576.698
570.158
561.674
551.106
538.464
524.094
508.296
510.89
532.006
551.75
570.019
586.754
601.969
615.705
628.005
638.914
648.508
656.912
664.309
670.944
677.111
683.122
689.251
695.658
702.323
708.991
715.184
720.266
723.551
724.421
722.409
717.24
708.837
697.285
682.799
665.675
646.25
624.879
601.902
577.64
552.377
526.363
499.813
472.905
465.755
483.372
505.588
528.198
551.27
574.868
599.059
623.906
649.473
675.821
703.013
731.107
760.163
790.238
821.386
853.66
887.11
921.778
957.703
994.913
1033.42
1073.24
1114.33
1156.65
1200.1
1244.49
1289.53
1335.12
1380.75
1426.28
12072.9
6102.46
1465.81
1445.42
1419.58
1387.96
1350.09
1305.51
1253.87
1194.99
1129.03
1056.43
978.47
898.085
819.592
748.266
689.353
646.349
619.424
605.461
599.861
598.456
598.247
597.534
595.466
591.663
585.967
578.29
568.533
556.571
542.438
526.515
509.118
511.535
533.98
555.121
574.847
593.092
609.862
625.186
639.09
651.603
662.779
672.722
681.593
689.615
697.066
704.241
711.405
718.719
726.159
733.473
740.184
745.659
749.22
750.26
748.329
743.173
734.735
723.125
708.578
691.413
671.992
650.688
627.863
603.851
578.955
553.434
527.511
501.372
487.269
496.23
516.239
536.575
557.317
578.54
600.316
622.718
645.814
669.671
694.356
719.93
746.456
773.993
802.598
832.325
863.226
895.345
928.722
963.388
999.36
1036.64
1075.2
1114.98
1155.88
1197.73
1240.1
1282.82
1325.19
1366.17
2828.19
12484.1
1455
1437.96
1417.36
1392.15
1361.45
1324.43
1280.32
1228.59
1169.02
1101.81
1027.66
948.868
869.37
794.405
729.753
680.109
647.123
628.648
620.119
616.889
615.349
613.401
610.007
604.734
597.435
588.059
576.54
562.783
546.841
529.129
509.986
512.127
535.774
558.196
579.289
598.972
617.233
634.082
649.52
663.55
676.208
687.584
697.834
707.184
715.906
724.261
732.484
740.72
748.942
756.896
764.107
769.949
773.753
774.924
773.031
767.836
759.269
747.454