/*--------------------------------*- C++ -*----------------------------------*\
  =========                 |
  \\      /  F ield         | OpenFOAM: The Open Source CFD Toolbox
   \\    /   O peration     | Website:  https://openfoam.org
    \\  /    A nd           | Version:  8
     \\/     M anipulation  |
\*---------------------------------------------------------------------------*/
FoamFile
{
    version     2.0;
    format      ascii;
    class       volScalarField;
    location    "140/fluid";
    object      rho;
}
// * * * * * * * * * * * * * * * * * * * * * * * * * * * * * * * * * * * * * //

dimensions      [1 -3 0 0 0 0 0];

internalField   nonuniform List<scalar> 
4000
(
0.658527
0.658503
0.658464
0.658399
0.65829
0.658112
0.657821
0.657351
0.656598
0.65541
0.653565
0.65075
0.646557
0.640478
0.631951
0.620441
0.605569
0.587261
0.565837
0.542003
0.516723
0.491021
0.465801
0.441737
0.419248
0.398533
0.379625
0.362453
0.346885
0.332767
0.319938
0.308246
0.297553
0.287736
0.27869
0.270325
0.262567
0.255351
0.248608
0.242269
0.236294
0.230647
0.225297
0.22022
0.215392
0.210793
0.206409
0.202224
0.198226
0.194406
0.190755
0.187266
0.183934
0.180754
0.177724
0.174841
0.172106
0.16952
0.167086
0.164809
0.162698
0.160764
0.159023
0.157501
0.156243
0.155255
0.154624
0.154445
0.154872
0.15999
0.169584
0.180857
0.194099
0.209689
0.228131
0.250083
0.276412
0.30826
0.34712
0.394993
0.454559
0.528616
0.619183
0.725628
0.8417
0.954049
1.04675
1.11081
1.14821
1.16737
1.17649
1.18063
1.18246
1.18324
1.18358
1.18372
1.18378
1.18381
1.18382
1.18382
0.658527
0.658503
0.658463
0.658396
0.658286
0.658104
0.657807
0.657325
0.656555
0.65534
0.653453
0.650582
0.646316
0.640149
0.631526
0.619924
0.60498
0.58663
0.5652
0.541392
0.516156
0.490505
0.465329
0.441299
0.418832
0.398127
0.379222
0.362048
0.346476
0.332354
0.319521
0.307826
0.29713
0.287313
0.278267
0.269905
0.262149
0.254937
0.248197
0.241862
0.23589
0.230247
0.224902
0.219829
0.215005
0.210412
0.206032
0.201853
0.197861
0.194047
0.190402
0.18692
0.183595
0.180422
0.1774
0.174526
0.171801
0.169226
0.166804
0.164542
0.162448
0.160533
0.158815
0.157319
0.156089
0.155118
0.154475
0.154218
0.154415
0.161388
0.171379
0.1831
0.196883
0.213154
0.232472
0.255573
0.283429
0.317326
0.358949
0.41061
0.47525
0.555675
0.65335
0.76588
0.883918
0.991566
1.07414
1.12732
1.15664
1.1713
1.17821
1.18136
1.18275
1.18336
1.18363
1.18374
1.18379
1.18381
1.18382
1.18382
0.658526
0.658502
0.658461
0.658393
0.65828
0.658093
0.657788
0.657294
0.656504
0.655259
0.653329
0.650398
0.646052
0.639786
0.631048
0.619324
0.604264
0.585818
0.564324
0.540488
0.515259
0.489635
0.4645
0.440512
0.418082
0.397407
0.378523
0.361363
0.345801
0.331682
0.318851
0.307157
0.296461
0.286642
0.277597
0.269235
0.261481
0.254271
0.247532
0.241197
0.235227
0.229586
0.224244
0.219175
0.214356
0.209768
0.205394
0.201221
0.197236
0.19343
0.189794
0.186321
0.183007
0.179846
0.176837
0.173978
0.17127
0.168714
0.166315
0.16408
0.162019
0.160147
0.158482
0.157067
0.155929
0.155098
0.154662
0.154704
0.155332
0.164115
0.174594
0.186949
0.201535
0.218819
0.239422
0.264163
0.294124
0.330729
0.375838
0.432004
0.502137
0.588567
0.691492
0.806208
0.921017
1.02012
1.09235
1.1372
1.16146
1.17352
1.1792
1.18179
1.18294
1.18344
1.18366
1.18375
1.18379
1.18381
1.18382
1.18382
0.658526
0.658502
0.65846
0.65839
0.658275
0.658084
0.657773
0.657269
0.656465
0.655197
0.653234
0.650257
0.645848
0.6395
0.630662
0.618822
0.60364
0.585077
0.563481
0.539567
0.514287
0.48864
0.463502
0.439524
0.417113
0.396461
0.377599
0.360459
0.344914
0.330809
0.317989
0.306302
0.295612
0.285798
0.276756
0.268397
0.260646
0.25344
0.246701
0.240367
0.234398
0.228759
0.223419
0.218353
0.213537
0.208954
0.204586
0.200419
0.196442
0.192645
0.189019
0.185558
0.182256
0.17911
0.176118
0.173277
0.17059
0.168059
0.165688
0.163487
0.161466
0.159644
0.158045
0.156729
0.155703
0.155065
0.154947
0.155571
0.158165
0.167552
0.178683
0.191843
0.207419
0.22593
0.248062
0.274725
0.307113
0.346785
0.395812
0.456927
0.532864
0.625322
0.732982
0.84872
0.95889
1.04858
1.11039
1.14709
1.16635
1.17579
1.18022
1.18223
1.18313
1.18352
1.18369
1.18377
1.1838
1.18381
1.18382
1.18382
0.658526
0.658501
0.658459
0.658388
0.65827
0.658076
0.657759
0.657246
0.656426
0.655136
0.653139
0.650113
0.645635
0.639197
0.630246
0.618274
0.60295
0.584247
0.562527
0.538516
0.513172
0.487491
0.462345
0.438378
0.415988
0.395362
0.376528
0.359414
0.343892
0.329808
0.317004
0.305331
0.294652
0.284847
0.275812
0.267459
0.259715
0.252514
0.245776
0.239444
0.233476
0.227838
0.2225
0.217437
0.212625
0.208046
0.203683
0.199524
0.195555
0.191767
0.188152
0.184704
0.181417
0.178287
0.175313
0.172494
0.169831
0.167327
0.164988
0.162823
0.160844
0.15907
0.15753
0.156273
0.155288
0.154651
0.154427
0.15468
0.161244
0.171364
0.183306
0.197405
0.214105
0.233984
0.257807
0.286575
0.321601
0.364583
0.417823
0.484096
0.565794
0.663697
0.774632
0.889121
0.992551
1.07221
1.12452
1.15449
1.16994
1.17745
1.18096
1.18256
1.18327
1.18358
1.18372
1.18378
1.1838
1.18381
1.18382
1.18382
0.658526
0.6585
0.658457
0.658385
0.658266
0.658069
0.657746
0.657224
0.656391
0.65508
0.653052
0.649979
0.645437
0.638911
0.629847
0.61774
0.602265
0.583408
0.561545
0.537417
0.511988
0.486257
0.461091
0.437128
0.414758
0.39416
0.375357
0.358275
0.342783
0.328725
0.315944
0.30429
0.293627
0.283835
0.274811
0.266469
0.258733
0.25154
0.244805
0.238475
0.23251
0.226875
0.22154
0.21648
0.211672
0.207098
0.202741
0.198589
0.194628
0.190851
0.187248
0.183813
0.180542
0.17743
0.174477
0.171681
0.169045
0.166572
0.164269
0.162147
0.160219
0.158508
0.157062
0.15591
0.155075
0.154668
0.154796
0.15563
0.16477
0.175583
0.188345
0.203423
0.221305
0.24263
0.268237
0.299226
0.337025
0.38349
0.441126
0.512605
0.599847
0.702473
0.815299
0.926835
1.02246
1.09231
1.1362
1.16052
1.17286
1.1788
1.18157
1.18283
1.18339
1.18363
1.18374
1.18379
1.18381
1.18382
1.18382
1.18382
0.658526
0.6585
0.658456
0.658383
0.658262
0.658061
0.657734
0.657204
0.656357
0.655025
0.652966
0.649847
0.645238
0.638622
0.629442
0.617194
0.601561
0.582542
0.560528
0.536275
0.510755
0.48497
0.459783
0.435823
0.413473
0.392905
0.374138
0.357091
0.341632
0.327605
0.314851
0.30322
0.292576
0.282801
0.273792
0.265462
0.257739
0.250554
0.243825
0.237499
0.231538
0.225906
0.220575
0.215519
0.210716
0.206148
0.201798
0.197653
0.193702
0.189936
0.186346
0.182926
0.179671
0.176579
0.173648
0.170878
0.168272
0.165833
0.16357
0.161495
0.159624
0.157983
0.156643
0.155592
0.154942
0.154828
0.155489
0.15893
0.168583
0.180055
0.193628
0.209697
0.228788
0.251598
0.279043
0.312318
0.352965
0.403031
0.465128
0.541708
0.634062
0.740433
0.853598
0.960615
1.04783
1.10856
1.14531
1.16514
1.17506
1.17982
1.18202
1.18303
1.18347
1.18367
1.18376
1.18379
1.18381
1.18382
1.18382
1.18382
0.658526
0.658499
0.658455
0.658381
0.658258
0.658054
0.657722
0.657184
0.656325
0.654973
0.652882
0.649718
0.645043
0.638337
0.629041
0.616651
0.600858
0.581672
0.559504
0.535121
0.509506
0.483665
0.458455
0.434498
0.41217
0.391634
0.372904
0.355896
0.340473
0.32648
0.313755
0.30215
0.291529
0.281774
0.272782
0.264467
0.256759
0.249584
0.242861
0.236541
0.230585
0.224959
0.219633
0.214582
0.209785
0.205224
0.200882
0.196746
0.192805
0.18905
0.185473
0.182069
0.178832
0.175761
0.172853
0.170109
0.167532
0.165128
0.162904
0.160874
0.159054
0.157472
0.156184
0.155155
0.154468
0.154169
0.154295
0.161827
0.172225
0.184475
0.198923
0.216015
0.236336
0.260649
0.289949
0.32553
0.369049
0.422749
0.489239
0.570664
0.667534
0.77657
0.888676
0.990139
1.069
1.12162
1.15245
1.1687
1.17676
1.1806
1.18237
1.18318
1.18354
1.1837
1.18377
1.1838
1.18381
1.18382
1.18382
1.18382
0.658526
0.658499
0.658454
0.658379
0.658254
0.658048
0.65771
0.657165
0.656293
0.654921
0.652801
0.649591
0.644852
0.638057
0.628644
0.616113
0.60016
0.580809
0.558486
0.533974
0.508266
0.482369
0.457137
0.433186
0.410881
0.390379
0.371688
0.354719
0.339335
0.325377
0.312684
0.301107
0.29051
0.280776
0.271803
0.263506
0.255813
0.248649
0.241934
0.235622
0.229672
0.224052
0.218733
0.213689
0.208898
0.204344
0.200011
0.195884
0.191955
0.188212
0.18465
0.181262
0.178044
0.174993
0.172109
0.169393
0.166849
0.164482
0.162303
0.160326
0.158574
0.157098
0.155928
0.155084
0.154685
0.154853
0.155819
0.165079
0.176039
0.188967
0.20423
0.222308
0.243831
0.269623
0.300757
0.338617
0.384994
0.442281
0.512994
0.598891
0.699569
0.810179
0.920045
1.01537
1.08632
1.13194
1.15796
1.17143
1.17805
1.18119
1.18264
1.1833
1.18359
1.18372
1.18378
1.1838
1.18381
1.18382
1.18382
1.18382
0.658526
0.658499
0.658453
0.658377
0.65825
0.658041
0.6577
0.657146
0.656263
0.654872
0.652722
0.649469
0.644666
0.637784
0.628259
0.615589
0.59948
0.579967
0.557493
0.532856
0.507059
0.481109
0.455857
0.431912
0.409631
0.389164
0.370513
0.353585
0.33824
0.324317
0.311657
0.300108
0.289537
0.279825
0.270872
0.262593
0.254917
0.247764
0.241059
0.234754
0.228813
0.2232
0.217887
0.212851
0.208068
0.203522
0.199198
0.195082
0.191163
0.187434
0.183886
0.180515
0.177315
0.174286
0.171427
0.168738
0.166225
0.163894
0.161758
0.159834
0.158146
0.156773
0.15569
0.155016
0.154885
0.155516
0.158624
0.168297
0.179778
0.193348
0.20939
0.228419
0.251107
0.278339
0.311259
0.351339
0.400516
0.461272
0.535954
0.625868
0.729602
0.840788
0.947551
1.0366
1.10037
1.14009
1.16221
1.17352
1.17903
1.18164
1.18284
1.18339
1.18363
1.18374
1.18379
1.18381
1.18382
1.18382
1.18382
1.18382
0.658526
0.658498
0.658452
0.658375
0.658247
0.658035
0.657689
0.657129
0.656234
0.654825
0.652647
0.649351
0.644488
0.637523
0.627888
0.615086
0.598826
0.579159
0.556542
0.531786
0.505904
0.479905
0.454636
0.430699
0.408443
0.388011
0.369399
0.352511
0.337204
0.323317
0.310689
0.299169
0.288623
0.278933
0.27
0.26174
0.254081
0.24694
0.240244
0.233949
0.228016
0.222411
0.217106
0.212077
0.207303
0.202766
0.198451
0.194345
0.190439
0.186722
0.183189
0.179834
0.176654
0.173645
0.170809
0.168147
0.165662
0.163363
0.16126
0.15937
0.157718
0.156374
0.155294
0.154576
0.154298
0.154566
0.160956
0.171174
0.183235
0.197459
0.214268
0.234216
0.258027
0.28664
0.321274
0.363484
0.415355
0.479386
0.557724
0.651152
0.757208
0.868129
0.971254
1.05421
1.11165
1.14648
1.16549
1.17512
1.17979
1.18199
1.183
1.18346
1.18366
1.18375
1.18379
1.18381
1.18382
1.18382
1.18382
1.18382
0.658526
0.658498
0.658451
0.658373
0.658244
0.65803
0.657679
0.657112
0.656206
0.65478
0.652576
0.649241
0.644321
0.637276
0.627539
0.614611
0.59821
0.578398
0.555646
0.53078
0.504819
0.478776
0.453493
0.429565
0.407334
0.386936
0.368362
0.351512
0.336243
0.32239
0.309793
0.298301
0.28778
0.278112
0.269199
0.260957
0.253314
0.246184
0.239499
0.233213
0.227288
0.221691
0.216394
0.211374
0.206608
0.20208
0.197774
0.19368
0.189785
0.186082
0.182564
0.179225
0.176063
0.173076
0.170264
0.167629
0.165176
0.162914
0.160854
0.159014
0.15742
0.156131
0.155112
0.154457
0.154234
0.154541
0.163206
0.173888
0.186472
0.201304
0.218833
0.239648
0.264517
0.294435
0.330687
0.374914
0.429325
0.496392
0.578026
0.674445
0.782146
0.892153
0.991398
1.0687
1.12067
1.15149
1.16804
1.17635
1.18037
1.18225
1.18312
1.18351
1.18369
1.18376
1.1838
1.18381
1.18382
1.18382
1.18382
1.18382
0.658525
0.658497
0.65845
0.658372
0.658241
0.658025
0.657671
0.657097
0.656181
0.654739
0.65251
0.649138
0.644165
0.637048
0.627215
0.614171
0.59764
0.577694
0.554819
0.529852
0.503821
0.477738
0.452444
0.428525
0.406318
0.385952
0.367414
0.350601
0.335367
0.321547
0.308979
0.297513
0.287015
0.277368
0.268473
0.260249
0.252622
0.245503
0.238827
0.23255
0.226634
0.221045
0.215757
0.210744
0.205986
0.201467
0.197171
0.193087
0.189203
0.185513
0.182009
0.178687
0.175543
0.172576
0.169788
0.167181
0.164761
0.162538
0.160528
0.15875
0.15726
0.156087
0.155244
0.154852
0.155038
0.15607
0.165436
0.176503
0.18954
0.204911
0.223089
0.244695
0.270536
0.301658
0.339405
0.385507
0.442266
0.512087
0.59663
0.695529
0.804289
0.912934
1.0083
1.0805
1.12786
1.15542
1.17002
1.17731
1.18081
1.18246
1.18321
1.18355
1.1837
1.18377
1.1838
1.18381
1.18382
1.18382
1.18382
1.18382
0.658525
0.658497
0.65845
0.65837
0.658238
0.65802
0.657662
0.657084
0.656158
0.654702
0.652451
0.649046
0.644024
0.636841
0.626921
0.613773
0.597124
0.577058
0.554072
0.529016
0.502922
0.476805
0.451501
0.427592
0.405408
0.385072
0.366567
0.349787
0.334585
0.320794
0.308253
0.296811
0.286334
0.276706
0.26783
0.259621
0.252008
0.2449
0.238234
0.231965
0.226057
0.220476
0.215195
0.21019
0.20544
0.20093
0.196643
0.192568
0.188695
0.185016
0.181525
0.178217
0.175089
0.17214
0.169372
0.166788
0.164396
0.162207
0.160237
0.158512
0.157112
0.156001
0.155293
0.155102
0.155598
0.157829
0.167471
0.178872
0.192311
0.208164
0.226926
0.249246
0.275967
0.30818
0.347282
0.395092
0.453972
0.526239
0.613293
0.714195
0.823547
0.930586
1.02229
1.09003
1.13355
1.15849
1.17156
1.17805
1.18116
1.18261
1.18328
1.18358
1.18372
1.18378
1.1838
1.18381
1.18382
1.18382
1.18382
1.18382
0.658525
0.658497
0.658449
0.658369
0.658236
0.658016
0.657655
0.657072
0.656138
0.654669
0.652399
0.648964
0.6439
0.636658
0.626663
0.613422
0.59667
0.576498
0.553416
0.528281
0.502133
0.475987
0.450676
0.426776
0.404612
0.384303
0.365827
0.349077
0.333903
0.320138
0.307621
0.2962
0.285743
0.276132
0.267272
0.259078
0.251477
0.244378
0.23772
0.23146
0.225559
0.219986
0.214712
0.209714
0.204971
0.200468
0.196189
0.192123
0.188259
0.18459
0.18111
0.177814
0.174699
0.171764
0.169011
0.166443
0.164068
0.161897
0.159946
0.158241
0.156861
0.155762
0.155056
0.154851
0.155301
0.159231
0.169162
0.180884
0.194691
0.210978
0.23026
0.253211
0.28071
0.313887
0.354186
0.40351
0.464257
0.538637
0.627805
0.730283
0.839886
0.945256
1.03365
1.09762
1.13801
1.16088
1.17275
1.17862
1.18142
1.18274
1.18334
1.18361
1.18373
1.18378
1.1838
1.18381
1.18382
1.18382
1.18382
1.18382
0.658525
0.658497
0.658449
0.658368
0.658234
0.658012
0.657649
0.657061
0.656122
0.654642
0.652354
0.648894
0.643794
0.636503
0.626442
0.613123
0.596283
0.576022
0.552858
0.527657
0.501464
0.475293
0.449976
0.426085
0.403938
0.383652
0.365201
0.348477
0.333327
0.319585
0.307088
0.295686
0.285244
0.275649
0.266802
0.258621
0.251031
0.24394
0.23729
0.231036
0.225142
0.219575
0.214307
0.209315
0.20458
0.200083
0.195811
0.191752
0.187897
0.184236
0.180765
0.177479
0.174374
0.171449
0.168707
0.166149
0.163783
0.161617
0.159666
0.157952
0.156547
0.155435
0.154648
0.154305
0.154516
0.160269
0.170495
0.182518
0.196657
0.213322
0.233053
0.256547
0.284711
0.318711
0.360033
0.41065
0.472975
0.549129
0.640031
0.743719
0.853349
0.957136
1.04269
1.10356
1.14146
1.16271
1.17366
1.17905
1.18163
1.18283
1.18338
1.18363
1.18374
1.18378
1.18381
1.18382
1.18382
1.18382
1.18382
1.18382
0.658525
0.658496
0.658448
0.658367
0.658232
0.658009
0.657644
0.657053
0.656108
0.654619
0.652318
0.648838
0.643709
0.636376
0.626263
0.61288
0.595968
0.575635
0.552404
0.52715
0.50092
0.47473
0.449409
0.425524
0.403392
0.383124
0.364694
0.347991
0.33286
0.319137
0.306657
0.29527
0.284842
0.275259
0.266423
0.258252
0.250671
0.243587
0.236943
0.230696
0.224807
0.219246
0.213983
0.208997
0.204266
0.199775
0.195509
0.191457
0.187608
0.183955
0.180491
0.177212
0.174116
0.1712
0.168466
0.165917
0.163558
0.161398
0.159451
0.157735
0.156315
0.155187
0.154362
0.153952
0.154066
0.161162
0.1716
0.183855
0.198255
0.215225
0.235319
0.259254
0.287961
0.322633
0.36479
0.416463
0.480071
0.557653
0.649921
0.75451
0.864045
0.966448
1.04967
1.10809
1.14408
1.16409
1.17435
1.17938
1.18178
1.1829
1.18341
1.18364
1.18374
1.18379
1.18381
1.18382
1.18382
1.18382
1.18382
1.18382
0.658525
0.658496
0.658448
0.658366
0.658231
0.658007
0.657641
0.657047
0.656097
0.654602
0.652291
0.648795
0.643643
0.63628
0.626127
0.612695
0.59573
0.575341
0.55206
0.526766
0.500508
0.474303
0.448979
0.425099
0.402978
0.382725
0.36431
0.347622
0.332507
0.318798
0.306331
0.294955
0.284538
0.274964
0.266137
0.257975
0.2504
0.243322
0.236683
0.23044
0.224556
0.218998
0.21374
0.208758
0.204032
0.199545
0.195284
0.191237
0.187393
0.183746
0.180288
0.177016
0.173927
0.171019
0.168293
0.165752
0.163402
0.161252
0.159315
0.157611
0.1562
0.155083
0.154269
0.15387
0.154001
0.161913
0.172497
0.184917
0.199508
0.216704
0.23707
0.261339
0.290456
0.325639
0.368436
0.420919
0.485508
0.564174
0.657466
0.762699
0.8721
0.973395
1.05483
1.11142
1.14599
1.16509
1.17484
1.17962
1.18189
1.18295
1.18343
1.18365
1.18375
1.18379
1.18381
1.18382
1.18382
1.18382
1.18382
1.18382
0.658525
0.658496
0.658448
0.658366
0.65823
0.658006
0.657638
0.657043
0.65609
0.654591
0.652273
0.648767
0.6436
0.636216
0.626036
0.612572
0.59557
0.575144
0.55183
0.526508
0.500231
0.474017
0.44869
0.424814
0.4027
0.382456
0.364052
0.347375
0.33227
0.31857
0.306112
0.294745
0.284335
0.274768
0.265947
0.257789
0.250219
0.243144
0.236508
0.230269
0.224388
0.218833
0.213578
0.208599
0.203876
0.199393
0.195135
0.191091
0.187252
0.183609
0.180157
0.17689
0.173806
0.170905
0.168186
0.165654
0.163313
0.161174
0.15925
0.157561
0.156174
0.155083
0.154306
0.153958
0.154161
0.162488
0.173159
0.185682
0.200396
0.217741
0.238288
0.262781
0.292176
0.327708
0.370942
0.423981
0.489242
0.568649
0.662635
0.768296
0.877583
0.9781
1.05832
1.11366
1.14728
1.16576
1.17517
1.17978
1.18197
1.18298
1.18345
1.18366
1.18375
1.18379
1.18381
1.18382
1.18382
1.18382
1.18382
1.18382
0.658525
0.658496
0.658447
0.658366
0.65823
0.658005
0.657637
0.657041
0.656087
0.654585
0.652264
0.648753
0.643579
0.636186
0.625993
0.612513
0.595494
0.57505
0.551719
0.526384
0.500098
0.473878
0.44855
0.424675
0.402564
0.382324
0.363925
0.347253
0.332153
0.318458
0.306004
0.294641
0.284236
0.274672
0.265854
0.257698
0.250129
0.243056
0.236422
0.230184
0.224304
0.218752
0.213498
0.20852
0.203799
0.199318
0.195062
0.19102
0.187183
0.183543
0.180093
0.176829
0.173749
0.170852
0.168138
0.165611
0.163276
0.161145
0.15923
0.157553
0.156186
0.155115
0.154366
0.154053
0.154301
0.162801
0.173518
0.186093
0.200868
0.218287
0.238925
0.263529
0.293064
0.328769
0.372223
0.425539
0.491132
0.570906
0.66523
0.771089
0.880303
0.980419
1.06002
1.11476
1.14791
1.16609
1.17534
1.17986
1.182
1.183
1.18346
1.18366
1.18375
1.18379
1.18381
1.18382
1.18382
1.18382
1.18382
1.18382
0.658525
0.658496
0.658447
0.658366
0.65823
0.658005
0.657637
0.657041
0.656087
0.654585
0.652264
0.648753
0.643579
0.636186
0.625993
0.612514
0.595494
0.575051
0.55172
0.526385
0.500099
0.47388
0.448551
0.424676
0.402565
0.382325
0.363926
0.347254
0.332154
0.318459
0.306005
0.294642
0.284236
0.274673
0.265854
0.257699
0.25013
0.243057
0.236422
0.230184
0.224305
0.218752
0.213498
0.20852
0.203799
0.199317
0.195062
0.19102
0.187183
0.183542
0.180092
0.176829
0.173749
0.170851
0.168137
0.165609
0.163275
0.161143
0.159228
0.157551
0.156184
0.155114
0.154366
0.154055
0.154303
0.162804
0.173523
0.186099
0.200875
0.218295
0.238934
0.263539
0.293076
0.328783
0.372238
0.425557
0.491155
0.570933
0.665262
0.771125
0.880338
0.98045
1.06005
1.11477
1.14792
1.16609
1.17534
1.17986
1.182
1.183
1.18346
1.18366
1.18375
1.18379
1.18381
1.18382
1.18382
1.18382
1.18382
1.18382
0.658525
0.658496
0.658448
0.658366
0.65823
0.658006
0.657638
0.657043
0.65609
0.654591
0.652273
0.648767
0.6436
0.636216
0.626037
0.612573
0.595571
0.575146
0.551832
0.526511
0.500235
0.474021
0.448694
0.424818
0.402704
0.38246
0.364055
0.347378
0.332273
0.318573
0.306114
0.294747
0.284337
0.27477
0.265949
0.257791
0.25022
0.243145
0.236509
0.23027
0.224388
0.218834
0.213578
0.208599
0.203876
0.199393
0.195135
0.191091
0.187251
0.183608
0.180155
0.176888
0.173805
0.170903
0.168184
0.16565
0.163309
0.16117
0.159245
0.157556
0.156171
0.155082
0.154308
0.153963
0.154166
0.162497
0.173172
0.185698
0.200415
0.217763
0.238314
0.26281
0.292211
0.327748
0.37099
0.424039
0.489312
0.568735
0.662736
0.768405
0.87769
0.97819
1.05838
1.1137
1.1473
1.16577
1.17518
1.17978
1.18197
1.18298
1.18345
1.18366
1.18375
1.18379
1.18381
1.18382
1.18382
1.18382
1.18382
1.18382
0.658525
0.658496
0.658448
0.658366
0.658231
0.658007
0.657641
0.657047
0.656097
0.654602
0.652291
0.648795
0.643643
0.63628
0.626128
0.612696
0.595731
0.575343
0.552063
0.52677
0.500513
0.474309
0.448985
0.425105
0.402984
0.38273
0.364316
0.347627
0.332512
0.318802
0.306335
0.294959
0.284541
0.274967
0.26614
0.257977
0.250402
0.243323
0.236684
0.230441
0.224557
0.218999
0.213741
0.208758
0.204032
0.199545
0.195284
0.191236
0.187392
0.183745
0.180287
0.177015
0.173925
0.171016
0.16829
0.165748
0.163398
0.161247
0.15931
0.157605
0.156196
0.155081
0.154271
0.153876
0.154005
0.161926
0.172516
0.184941
0.199537
0.216738
0.23711
0.261385
0.29051
0.325703
0.368512
0.421013
0.485623
0.564315
0.657632
0.762883
0.872281
0.973549
1.05495
1.11149
1.14603
1.16511
1.17485
1.17962
1.18189
1.18295
1.18343
1.18365
1.18375
1.18379
1.18381
1.18382
1.18382
1.18382
1.18382
1.18382
0.658525
0.658496
0.658448
0.658367
0.658232
0.658009
0.657644
0.657053
0.656108
0.654619
0.652318
0.648838
0.643708
0.636376
0.626263
0.612881
0.59597
0.575637
0.552408
0.527155
0.500926
0.474737
0.449416
0.425532
0.403399
0.383132
0.364701
0.347997
0.332867
0.319143
0.306662
0.295274
0.284846
0.275263
0.266426
0.258255
0.250674
0.24359
0.236945
0.230698
0.224809
0.219247
0.213984
0.208997
0.204267
0.199775
0.195509
0.191456
0.187607
0.183954
0.18049
0.177211
0.174114
0.171198
0.168463
0.165913
0.163554
0.161394
0.159447
0.157732
0.156314
0.155187
0.154363
0.153954
0.154062
0.16118
0.171624
0.183886
0.198291
0.215268
0.23537
0.259314
0.288031
0.322717
0.364893
0.416591
0.480229
0.557847
0.650152
0.754765
0.864298
0.966664
1.04983
1.10819
1.14413
1.16412
1.17436
1.17939
1.18178
1.1829
1.18341
1.18364
1.18374
1.18379
1.18381
1.18382
1.18382
1.18382
1.18382
1.18382
0.658525
0.658497
0.658449
0.658368
0.658234
0.658012
0.657649
0.657061
0.656121
0.654641
0.652354
0.648894
0.643794
0.636502
0.626442
0.613124
0.596284
0.576025
0.552862
0.527662
0.50147
0.475301
0.449985
0.426094
0.403947
0.38366
0.365209
0.348484
0.333334
0.319591
0.307094
0.295691
0.28525
0.275654
0.266806
0.258624
0.251034
0.243943
0.237292
0.231038
0.225144
0.219576
0.214308
0.209316
0.20458
0.200083
0.195811
0.191752
0.187896
0.184236
0.180764
0.177478
0.174373
0.171448
0.168705
0.166148
0.163781
0.161615
0.159665
0.15795
0.156545
0.155433
0.154646
0.1543
0.154506
0.160301
0.170531
0.18256
0.196703
0.213376
0.233115
0.256621
0.284799
0.318817
0.360163
0.410811
0.473177
0.549379
0.640327
0.744049
0.853678
0.957421
1.0429
1.10369
1.14154
1.16275
1.17368
1.17906
1.18163
1.18283
1.18338
1.18363
1.18374
1.18378
1.18381
1.18382
1.18382
1.18382
1.18382
1.18382
0.658525
0.658497
0.658449
0.658369
0.658236
0.658016
0.657655
0.657071
0.656138
0.654669
0.652398
0.648963
0.6439
0.636657
0.626662
0.613422
0.596671
0.5765
0.55342
0.528286
0.50214
0.475995
0.450685
0.426786
0.404621
0.384312
0.365836
0.349086
0.333911
0.320146
0.307628
0.296207
0.285748
0.276138
0.267276
0.259082
0.25148
0.244381
0.237723
0.231462
0.225561
0.219987
0.214713
0.209714
0.204972
0.200468
0.196189
0.192123
0.188259
0.18459
0.18111
0.177814
0.174699
0.171764
0.169012
0.166444
0.16407
0.161898
0.159947
0.158242
0.156858
0.155757
0.155052
0.154847
0.155301
0.159283
0.169215
0.18094
0.194752
0.211045
0.230336
0.253301
0.280816
0.314016
0.354343
0.403706
0.464503
0.538941
0.628169
0.730691
0.840298
0.945616
1.03392
1.09779
1.1381
1.16093
1.17277
1.17863
1.18143
1.18274
1.18334
1.18361
1.18373
1.18378
1.1838
1.18381
1.18382
1.18382
1.18382
1.18382
0.658525
0.658497
0.65845
0.65837
0.658238
0.65802
0.657662
0.657083
0.656158
0.654702
0.65245
0.649045
0.644023
0.63684
0.62692
0.613772
0.597124
0.577059
0.554075
0.52902
0.502928
0.476813
0.45151
0.427602
0.405418
0.385082
0.366576
0.349797
0.334594
0.320802
0.30826
0.296818
0.28634
0.276712
0.267835
0.259626
0.252012
0.244903
0.238236
0.231967
0.226059
0.220477
0.215196
0.210191
0.205441
0.20093
0.196643
0.192568
0.188695
0.185016
0.181525
0.178217
0.175089
0.172141
0.169373
0.166789
0.164398
0.162208
0.160239
0.158515
0.157115
0.156004
0.155296
0.155107
0.155616
0.157883
0.167525
0.17893
0.192375
0.208236
0.227011
0.249347
0.276088
0.308328
0.347465
0.395321
0.45426
0.526596
0.613722
0.714681
0.824045
0.931029
1.02262
1.09024
1.13366
1.15855
1.17159
1.17806
1.18116
1.18262
1.18328
1.18358
1.18372
1.18378
1.1838
1.18381
1.18382
1.18382
1.18382
1.18382
0.658525
0.658497
0.65845
0.658372
0.658241
0.658024
0.65767
0.657097
0.656181
0.654739
0.65251
0.649137
0.644164
0.637046
0.627213
0.61417
0.597639
0.577694
0.554821
0.529856
0.503826
0.477745
0.452453
0.428535
0.406328
0.385963
0.367424
0.350611
0.335376
0.321555
0.308987
0.29752
0.287021
0.277373
0.268478
0.260253
0.252625
0.245506
0.23883
0.232552
0.226635
0.221046
0.215757
0.210744
0.205986
0.201467
0.197171
0.193086
0.189203
0.185512
0.182008
0.178686
0.175542
0.172576
0.169787
0.16718
0.164761
0.162538
0.160528
0.158751
0.157264
0.156092
0.15525
0.154864
0.155063
0.15611
0.16548
0.17656
0.18961
0.204994
0.223188
0.244812
0.270676
0.301829
0.339614
0.385767
0.442592
0.512492
0.59712
0.696089
0.804872
0.913464
1.00871
1.08077
1.128
1.15549
1.17006
1.17732
1.18082
1.18246
1.18321
1.18355
1.1837
1.18377
1.1838
1.18381
1.18382
1.18382
1.18382
1.18382
0.658526
0.658498
0.658451
0.658373
0.658244
0.65803
0.657679
0.657112
0.656206
0.65478
0.652575
0.649239
0.644319
0.637274
0.627536
0.614608
0.598208
0.578397
0.555646
0.530782
0.504823
0.478782
0.453501
0.429574
0.407344
0.386946
0.368372
0.351523
0.336253
0.3224
0.309802
0.298309
0.287786
0.278118
0.269204
0.260961
0.253317
0.246187
0.239501
0.233214
0.227289
0.221692
0.216395
0.211373
0.206607
0.202079
0.197773
0.193678
0.189784
0.18608
0.182562
0.179224
0.176062
0.173075
0.170263
0.167628
0.165175
0.162913
0.160853
0.159014
0.157422
0.156136
0.155121
0.15447
0.154254
0.154563
0.163246
0.173941
0.186541
0.201389
0.218936
0.239773
0.264668
0.29462
0.330915
0.375197
0.429681
0.496836
0.578567
0.675072
0.782811
0.892774
0.99189
1.06902
1.12085
1.15158
1.16808
1.17637
1.18037
1.18225
1.18312
1.18351
1.18369
1.18376
1.1838
1.18381
1.18382
1.18382
1.18382
1.18382
0.658526
0.658498
0.658452
0.658375
0.658247
0.658035
0.657689
0.657129
0.656233
0.654824
0.652646
0.64935
0.644486
0.63752
0.627885
0.615082
0.598823
0.579156
0.55654
0.531786
0.505906
0.479909
0.454643
0.430707
0.408452
0.388021
0.369409
0.352521
0.337214
0.323327
0.310698
0.299177
0.28863
0.278939
0.270005
0.261744
0.254084
0.246943
0.240246
0.23395
0.228016
0.222411
0.217106
0.212076
0.207302
0.202764
0.198449
0.194343
0.190436
0.18672
0.183187
0.179832
0.176651
0.173642
0.170806
0.168143
0.165658
0.163359
0.161256
0.159365
0.157712
0.156366
0.155283
0.154562
0.154271
0.154505
0.160995
0.171234
0.183312
0.197554
0.214382
0.234353
0.258191
0.286839
0.321518
0.363786
0.415733
0.47986
0.558307
0.651838
0.757953
0.868845
0.97184
1.05461
1.11188
1.1466
1.16555
1.17514
1.1798
1.18199
1.183
1.18346
1.18366
1.18375
1.18379
1.18381
1.18382
1.18382
1.18382
1.18382
0.658526
0.658499
0.658453
0.658377
0.65825
0.658041
0.657699
0.657146
0.656262
0.654871
0.652721
0.649467
0.644664
0.637781
0.628254
0.615584
0.599474
0.579962
0.55749
0.532854
0.507059
0.481112
0.455862
0.431919
0.40964
0.389174
0.370523
0.353595
0.338249
0.324326
0.311665
0.300116
0.289544
0.279831
0.270876
0.262597
0.25492
0.247766
0.24106
0.234755
0.228813
0.2232
0.217887
0.212849
0.208066
0.20352
0.199195
0.195079
0.19116
0.187431
0.183883
0.180511
0.177311
0.174282
0.171422
0.168732
0.166218
0.163886
0.161748
0.159821
0.15813
0.156753
0.155668
0.154992
0.154864
0.155509
0.158699
0.168377
0.17987
0.193453
0.209513
0.228563
0.251279
0.278545
0.311511
0.35165
0.400907
0.461764
0.536565
0.626598
0.730415
0.841596
0.948239
1.03708
1.10065
1.14024
1.16228
1.17355
1.17905
1.18165
1.18285
1.18339
1.18363
1.18374
1.18379
1.18381
1.18382
1.18382
1.18382
1.18382
0.658526
0.658499
0.658454
0.658379
0.658254
0.658048
0.65771
0.657164
0.656292
0.65492
0.652799
0.649589
0.644849
0.638053
0.628639
0.616107
0.600153
0.580802
0.55848
0.53397
0.508264
0.48237
0.457141
0.433191
0.410888
0.390388
0.371697
0.354729
0.339345
0.325386
0.312692
0.301115
0.290517
0.280782
0.271807
0.263509
0.255816
0.248651
0.241935
0.235622
0.229672
0.224052
0.218731
0.213687
0.208896
0.204342
0.200008
0.195881
0.191951
0.188208
0.184646
0.181257
0.178039
0.174989
0.172105
0.169389
0.166844
0.164478
0.162299
0.160323
0.158572
0.157099
0.155931
0.15509
0.154698
0.154881
0.155865
0.165128
0.176103
0.189049
0.204333
0.222435
0.243989
0.269819
0.301002
0.338924
0.385383
0.442776
0.513617
0.59965
0.700436
0.811073
0.920839
1.01596
1.08669
1.13213
1.15805
1.17147
1.17807
1.1812
1.18264
1.1833
1.18359
1.18372
1.18378
1.1838
1.18381
1.18382
1.18382
1.18382
0.658526
0.658499
0.658455
0.658381
0.658258
0.658054
0.657722
0.657184
0.656324
0.654972
0.652881
0.649715
0.64504
0.638333
0.629035
0.616644
0.600849
0.581663
0.559495
0.535113
0.509502
0.483663
0.458456
0.434502
0.412176
0.391642
0.372913
0.355905
0.340483
0.326488
0.313763
0.302158
0.291536
0.281779
0.272786
0.264471
0.256761
0.249586
0.242862
0.236541
0.230584
0.224958
0.219631
0.21458
0.209782
0.20522
0.200878
0.196742
0.192801
0.189045
0.185469
0.182064
0.178827
0.175756
0.172848
0.170104
0.167527
0.165123
0.1629
0.16087
0.15905
0.157471
0.156184
0.155157
0.154471
0.154172
0.154287
0.161877
0.172297
0.184568
0.199036
0.216153
0.236502
0.260852
0.2902
0.325842
0.369442
0.423249
0.489872
0.571446
0.668449
0.777546
0.889583
0.990845
1.06945
1.12186
1.15256
1.16875
1.17678
1.1806
1.18238
1.18318
1.18354
1.1837
1.18377
1.1838
1.18381
1.18382
1.18382
1.18382
0.658526
0.6585
0.658456
0.658383
0.658262
0.658061
0.657733
0.657203
0.656357
0.655024
0.652964
0.649844
0.645234
0.638616
0.629435
0.617185
0.601551
0.58253
0.560517
0.536265
0.510747
0.484966
0.459782
0.435825
0.413477
0.392911
0.374145
0.3571
0.341641
0.327613
0.314859
0.303227
0.292582
0.282806
0.273796
0.265465
0.257741
0.250555
0.243825
0.237498
0.231536
0.225904
0.220572
0.215516
0.210712
0.206143
0.201793
0.197648
0.193697
0.18993
0.18634
0.18292
0.179665
0.176573
0.173642
0.170871
0.168264
0.165825
0.163561
0.161484
0.159611