/*--------------------------------*- C++ -*----------------------------------*\
  =========                 |
  \\      /  F ield         | OpenFOAM: The Open Source CFD Toolbox
   \\    /   O peration     | Website:  https://openfoam.org
    \\  /    A nd           | Version:  8
     \\/     M anipulation  |
\*---------------------------------------------------------------------------*/
FoamFile
{
    version     2.0;
    format      ascii;
    class       volScalarField;
    location    "140/fluid";
    object      T;
}
// * * * * * * * * * * * * * * * * * * * * * * * * * * * * * * * * * * * * * //

dimensions      [0 0 0 1 0 0 0];

internalField   nonuniform List<scalar> 
4000
(
293.003
293.015
293.035
293.067
293.121
293.21
293.356
293.591
293.968
294.564
295.496
296.928
299.088
302.276
306.864
313.286
321.999
333.428
347.901
365.595
386.508
410.473
437.199
466.333
497.508
530.388
564.685
600.164
636.647
673.996
712.11
750.91
790.335
830.334
870.856
911.85
953.259
995.021
1037.13
1079.62
1122.47
1165.62
1209.06
1252.72
1296.57
1340.56
1384.65
1428.78
1472.9
1516.94
1560.84
1604.51
1647.89
1690.88
1733.38
1775.28
1816.44
1856.73
1895.95
1933.92
1970.37
2005.02
2037.49
2067.25
2093.39
2115.9
2133.26
2144
2145.88
2084.51
1973.44
1856.67
1735.63
1611.63
1485.81
1359.31
1233.22
1108.7
987.004
869.359
757.022
652.193
557.716
476.561
411.292
363.148
331.162
312.16
302.043
297.108
294.816
293.787
293.337
293.142
293.06
293.025
293.01
293.004
293.001
293
293.004
293.015
293.035
293.068
293.124
293.214
293.363
293.603
293.989
294.6
295.552
297.014
299.212
302.449
307.095
313.578
322.351
333.831
348.343
366.063
386.993
410.972
437.717
466.881
498.105
531.054
565.441
601.03
637.638
675.128
713.393
752.353
791.946
832.115
872.81
913.978
955.559
997.489
1039.77
1082.43
1125.45
1168.77
1212.36
1256.17
1300.17
1344.31
1388.53
1432.79
1477.03
1521.18
1565.18
1608.95
1652.41
1695.47
1738.02
1779.95
1821.13
1861.41
1900.6
1938.48
1974.82
2009.29
2041.51
2070.94
2096.68
2118.95
2136.47
2148.3
2153.36
2067.66
1953.93
1835.02
1712.13
1586.4
1458.97
1330.95
1203.45
1077.71
955.08
836.806
724.49
620.777
528.812
451.703
391.775
349.486
322.762
307.612
299.851
296.118
294.388
293.608
293.263
293.113
293.048
293.02
293.008
293.003
293.001
293
293.004
293.016
293.036
293.07
293.126
293.22
293.372
293.619
294.014
294.64
295.615
297.107
299.348
302.64
307.354
313.918
322.779
334.353
348.957
366.763
387.772
411.824
438.642
467.884
499.199
532.255
566.77
602.511
639.296
676.984
715.47
754.669
794.518
834.958
875.933
917.389
959.262
1001.49
1044.07
1087.04
1130.36
1173.98
1217.86
1261.97
1306.25
1350.66
1395.14
1439.65
1484.12
1528.49
1572.69
1616.64
1660.26
1703.45
1746.11
1788.11
1829.33
1869.58
1908.69
1946.42
1982.49
2016.55
2048.17
2076.54
2101.11
2121.48
2136.09
2143.66
2142.6
2035.27
1919.79
1798.96
1674.2
1546.8
1417.95
1288.85
1160.73
1034.93
912.909
795.971
686.169
586.436
499.889
429.27
376.092
339.759
317.41
304.953
298.613
295.561
294.143
293.502
293.217
293.093
293.039
293.016
293.007
293.003
293.001
293
293.004
293.016
293.037
293.071
293.129
293.224
293.379
293.631
294.034
294.671
295.662
297.179
299.454
302.791
307.564
314.202
323.154
334.83
349.55
367.48
388.619
412.806
439.765
469.155
500.625
533.85
568.548
604.489
641.493
679.422
718.169
757.652
797.804
838.565
879.878
921.682
963.913
1006.5
1049.47
1092.82
1136.53
1180.54
1224.81
1269.29
1313.94
1358.71
1403.54
1448.38
1493.16
1537.82
1582.29
1626.49
1670.32
1713.69
1756.49
1798.59
1839.85
1880.08
1919.09
1956.63
1992.37
2025.94
2056.82
2083.82
2107
2124.65
2134.79
2134.27
2106.74
1995.88
1878.05
1755.1
1628.55
1499.78
1370.04
1240.59
1112.75
987.936
867.589
753.151
647.052
552.292
471.818
407.913
361.325
330.585
312.279
302.335
297.368
294.992
293.891
293.392
293.17
293.073
293.031
293.013
293.005
293.002
293.001
293
293.004
293.016
293.037
293.073
293.131
293.228
293.386
293.643
294.053
294.702
295.71
297.252
299.563
302.951
307.791
314.514
323.569
335.368
350.224
368.303
389.599
413.949
441.077
470.643
502.299
535.72
570.629
606.798
644.049
682.245
721.28
761.073
801.555
842.666
884.346
926.532
969.153
1012.14
1055.53
1099.32
1143.46
1187.9
1232.6
1277.52
1322.59
1367.77
1412.99
1458.21
1503.36
1548.35
1593.13
1637.6
1681.68
1725.25
1768.2
1810.4
1851.7
1891.9
1930.79
1968.1
2003.5
2036.6
2066.75
2092.98
2115.61
2133.23
2144.79
2149.28
2069.27
1954.02
1833.02
1707.75
1579.6
1449.84
1319.73
1190.56
1063.68
940.586
822.579
711.419
609.791
520.64
446.638
389.497
349.142
323.34
308.374
300.407
296.459
294.577
293.706
293.311
293.135
293.058
293.025
293.01
293.004
293.002
293.001
293
293.004
293.017
293.038
293.074
293.134
293.232
293.393
293.653
294.071
294.729
295.754
297.32
299.666
303.102
308.008
314.818
323.983
335.913
350.921
369.168
390.645
415.186
442.51
472.279
504.144
537.785
572.925
609.339
646.853
685.33
724.666
764.78
805.605
847.076
889.134
931.71
974.732
1018.14
1061.96
1106.2
1150.79
1195.68
1240.84
1286.2
1331.72
1377.32
1422.97
1468.59
1514.11
1559.45
1604.55
1649.31
1693.63
1737.4
1780.5
1822.78
1864.09
1904.22
1942.94
1979.96
2014.92
2047.35
2076.28
2101.15
2121.77
2136.14
2142.67
2138.88
2027.65
1909.53
1786.24
1659.28
1530.03
1399.78
1269.8
1141.4
1015.98
895
779.748
672.323
575.517
492.14
424.517
373.745
338.985
317.419
305.219
298.853
295.726
294.242
293.556
293.246
293.107
293.046
293.02
293.008
293.003
293.001
293
293
293.004
293.017
293.039
293.075
293.136
293.235
293.399
293.664
294.087
294.757
295.797
297.387
299.768
303.254
308.23
315.13
324.409
336.478
351.646
370.072
391.741
416.484
444.018
474.002
506.089
539.96
575.341
612.009
649.792
688.555
728.196
768.634
809.801
851.633
894.066
937.03
980.449
1024.27
1068.53
1113.21
1158.25
1203.6
1249.2
1295.01
1340.96
1387
1433.06
1479.07
1524.96
1570.65
1616.06
1661.09
1705.64
1749.59
1792.81
1835.15
1876.43
1916.44
1954.92
1991.56
2025.95
2057.58
2085.03
2108.7
2126.68
2136.89
2135.95
2097.27
1984.37
1864.46
1739.62
1611.54
1481.67
1351.35
1221.89
1094.61
970.968
852.297
740.049
636.607
544.75
467.107
405.598
360.681
330.821
312.79
302.803
297.676
295.174
293.99
293.443
293.196
293.085
293.037
293.016
293.007
293.003
293.001
293
293
293.004
293.017
293.039
293.076
293.138
293.239
293.405
293.673
294.104
294.783
295.839
297.453
299.869
303.405
308.449
315.441
324.836
337.047
352.38
370.991
392.859
417.811
445.56
475.766
508.08
542.184
577.808
614.731
652.782
691.828
731.77
772.526
814.027
856.209
899.006
942.347
986.149
1030.37
1075.05
1120.16
1165.63
1211.41
1257.45
1303.69
1350.07
1396.51
1442.97
1489.35
1535.59
1581.61
1627.31
1672.59
1717.34
1761.45
1804.76
1847.13
1888.35
1928.22
1966.44
2002.7
2036.57
2067.46
2094.21
2117.62
2136.09
2148.8
2155.08
2062.36
1944.81
1821.96
1695.28
1566.14
1435.87
1305.75
1177.04
1051.12
929.408
813.14
704.035
604.643
517.675
445.532
389.691
349.987
324.305
309.168
300.938
296.772
294.75
293.797
293.357
293.158
293.069
293.03
293.013
293.005
293.002
293.001
293
293
293.004
293.017
293.04
293.077
293.139
293.242
293.41
293.683
294.119
294.809
295.88
297.517
299.968
303.553
308.666
315.75
325.261
337.614
353.113
371.908
393.976
419.137
447.102
477.527
510.066
544.402
580.265
617.437
655.748
695.07
735.302
776.363
818.184
860.701
903.845
947.542
991.706
1036.31
1081.39
1126.9
1172.78
1218.97
1265.42
1312.06
1358.83
1405.66
1452.48
1499.21
1545.77
1592.08
1638.04
1683.54
1728.46
1772.69
1816.06
1858.41
1899.53
1939.19
1977.07
2012.81
2045.94
2075.41
2100.66
2121.51
2135.89
2141.98
2136.47
2024.09
1904.85
1780.62
1652.98
1523.36
1393.09
1263.45
1135.72
1011.3
891.566
777.742
671.822
576.428
494.167
427.181
376.487
341.339
319.16
306.362
299.512
296.084
294.429
293.65
293.291
293.129
293.056
293.024
293.01
293.004
293.002
293.001
293
293
293.004
293.018
293.04
293.078
293.141
293.245
293.416
293.692
294.134
294.833
295.92
297.58
300.064
303.698
308.878
316.051
325.677
338.169
353.83
372.807
395.071
420.436
448.611
479.251
512.008
546.567
582.66
620.07
658.632
698.215
738.722
780.072
822.196
865.027
908.496
952.524
997.024
1041.99
1087.44
1133.32
1179.58
1226.15
1272.98
1319.99
1367.12
1414.29
1461.44
1508.49
1555.34
1601.91
1648.09
1693.77
1738.84
1783.15
1826.54
1868.85
1909.84
1949.26
1986.79
2022.01
2054.38
2082.38
2106.63
2125.07
2135.64
2135.23
2101.02
1987.53
1867.17
1742.02
1613.8
1483.98
1353.91
1224.9
1098.25
975.376
857.567
746.156
643.366
551.816
473.987
411.736
365.624
334.387
315.109
304.184
298.422
295.561
294.184
293.538
293.241
293.107
293.047
293.02
293.009
293.004
293.002
293.001
293
293
293.004
293.018
293.041
293.079
293.143
293.248
293.421
293.701
294.149
294.857
295.958
297.639
300.156
303.837
309.081
316.341
326.077
338.703
354.521
373.672
396.123
421.685
450.061
480.905
513.87
548.64
584.95
622.586
661.382
701.211
741.974
783.593
825.997
869.12
912.888
957.221
1002.03
1047.33
1093.12
1139.34
1185.95
1232.86
1280.02
1327.37
1374.82
1422.31
1469.76
1517.08
1564.18
1610.97
1657.34
1703.18
1748.35
1792.72
1836.12
1878.37
1919.23
1958.46
1995.71
2030.61
2062.58
2090.2
2114.44
2133.46
2146
2150.47
2072.69
1956.03
1833.67
1707.3
1578.43
1448.44
1318.64
1190.3
1064.75
943.381
827.399
718.324
618.523
530.583
456.839
398.854
356.753
328.829
311.927
302.496
297.585
295.16
293.997
293.453
293.203
293.09
293.039
293.017
293.007
293.003
293.001
293
293
293
293.004
293.018
293.041
293.08
293.144
293.251
293.426
293.709
294.162
294.879
295.993
297.696
300.243
303.968
309.273
316.615
326.455
339.208
355.174
374.49
397.117
422.863
451.427
482.462
515.62
550.588
587.099
624.944
663.956
704.011
745.011
786.877
829.538
872.925
916.966
961.576
1006.67
1052.26
1098.36
1144.89
1191.81
1239.03
1286.5
1334.14
1381.88
1429.65
1477.35
1524.91
1572.23
1619.21
1665.74
1711.69
1756.93
1801.32
1844.68
1886.81
1927.48
1966.4
2003.23
2037.54
2068.76
2095.65
2119.05
2137.15
2148.84
2152.56
2045.9
1927.14
1803.32
1676.02
1546.68
1416.64
1287.17
1159.53
1035.06
915.125
800.872
694.019
597.024
512.418
442.381
388.183
349.546
324.397
309.428
301.186
296.939
294.852
293.854
293.387
293.173
293.077
293.033
293.014
293.006
293.003
293.001
293
293
293
293.004
293.018
293.041
293.081
293.146
293.254
293.43
293.716
294.175
294.899
296.026
297.748
300.323
304.089
309.452
316.869
326.806
339.677
355.779
375.246
398.037
423.952
452.689
483.899
517.234
552.382
589.078
627.112
666.321
706.581
747.795
789.883
832.774
876.4
920.684
965.542
1010.89
1056.75
1103.12
1149.93
1197.11
1244.61
1292.34
1340.25
1388.24
1436.25
1484.18
1531.94
1579.45
1626.58
1673.23
1719.28
1764.57
1808.96
1852.25
1894.24
1934.67
1973.24
2009.56
2043.15
2072.93
2098.29
2119.23
2133.6
2139.53
2133.19
2019.92
1900.04
1775.43
1647.67
1518.19
1388.31
1259.29
1132.41
1009
890.402
777.776
673.005
578.595
497.016
430.289
379.401
343.718
320.871
307.466
300.167
296.439
294.614
293.743
293.337
293.151
293.067
293.029
293.013
293.005
293.002
293.001
293
293
293
293.004
293.018
293.042
293.081
293.147
293.256
293.434
293.723
294.186
294.918
296.056
297.795
300.396
304.199
309.613
317.099
327.124
340.101
356.326
375.931
398.868
424.936
453.829
485.196
518.69
553.999
590.859
629.063
668.447
708.889
750.293
792.578
835.674
879.51
924.008
969.083
1014.65
1060.75
1107.36
1154.4
1201.83
1249.56
1297.53
1345.66
1393.87
1442.08
1490.2
1538.14
1585.8
1633.07
1679.83
1725.94
1771.27
1815.65
1858.89
1900.76
1940.99
1979.25
2015.13
2048.08
2076.49
2101.23
2120.25
2131.78
2133.37
2110.9
1996.73
1876.1
1750.96
1622.91
1493.38
1363.7
1235.14
1108.97
986.548
869.147
757.991
655.109
563.024
484.13
420.296
372.248
339.042
318.081
305.93
299.375
296.051
294.429
293.658
293.298
293.133
293.059
293.026
293.011
293.005
293.002
293.001
293
293
293
293.004
293.018
293.042
293.082
293.148
293.258
293.438
293.729
294.196
294.934
296.082
297.836
300.461
304.296
309.756
317.302
327.404
340.475
356.809
376.535
399.601
425.802
454.831
486.337
519.97
555.419
592.423
630.774
670.311
710.912
752.48
794.936
838.209
882.226
926.909
972.171
1017.93
1064.23
1111.04
1158.3
1205.92
1253.86
1302.02
1350.34
1398.74
1447.12
1495.41
1543.5
1591.28
1638.66
1685.51
1731.69
1777.06
1821.45
1864.66
1906.47
1946.61
1984.74
2020.45
2053.16
2081.32
2105.9
2124.88
2136.55
2138.7
2093.56
1977.9
1856.26
1730.46
1602.07
1472.47
1342.96
1214.79
1089.24
967.672
851.296
741.411
640.189
550.126
473.547
412.174
366.506
335.334
315.893
304.736
298.762
295.752
294.287
293.592
293.268
293.12
293.053
293.023
293.01
293.004
293.002
293.001
293
293
293
293.004
293.018
293.042
293.083
293.149
293.26
293.441
293.734
294.204
294.948
296.105
297.872
300.515
304.379
309.877
317.475
327.643
340.794
357.221
377.049
400.224
426.539
455.685
487.307
521.058
556.626
593.752
632.228
671.894
712.628
754.335
796.935
840.356
884.525
929.363
974.781
1020.7
1067.17
1114.15
1161.58
1209.37
1257.47
1305.8
1354.28
1402.82
1451.35
1499.77
1547.98
1595.87
1643.34
1690.26
1736.5
1781.9
1826.31
1869.52
1911.33
1951.47
1989.62
2025.4
2058.33
2086.91
2111.46
2131.58
2145.16
2150.55
2081
1963.35
1840.46
1713.91
1585.12
1455.4
1325.99
1198.14
1073.11
952.243
836.722
727.925
628.091
539.712
465.057
405.715
361.983
332.444
314.201
303.819
298.294
295.524
294.179
293.541
293.245
293.109
293.048
293.021
293.009
293.004
293.002
293.001
293
293
293
293.004
293.019
293.043
293.083
293.15
293.261
293.443
293.738
294.211
294.959
296.123
297.9
300.56
304.446
309.976
317.616
327.837
341.053
357.556
377.467
400.732
427.139
456.379
488.096
521.943
557.608
594.832
633.409
673.18
714.022
755.841
798.556
842.097
886.389
931.351
976.893
1022.94
1069.55
1116.67
1164.22
1212.16
1260.39
1308.85
1357.45
1406.11
1454.75
1503.27
1551.57
1599.55
1647.09
1694.06
1740.34
1785.77
1830.19
1873.4
1915.2
1955.31
1993.45
2029.24
2062.23
2091.06
2115.81
2136.45
2150.94
2157.6
2070.25
1951.41
1827.71
1700.66
1571.61
1441.82
1312.53
1184.94
1060.33
940.041
825.216
717.302
618.594
531.574
458.456
400.725
358.516
330.244
312.922
303.128
297.942
295.353
294.098
293.504
293.228
293.102
293.045
293.02
293.008
293.004
293.002
293.001
293
293
293
293.004
293.019
293.043
293.083
293.151
293.262
293.445
293.741
294.216
294.968
296.137
297.922
300.594
304.497
310.051
317.723
327.985
341.251
357.81
377.785
401.118
427.595
456.906
488.696
522.615
558.354
595.653
634.307
674.157
715.081
756.984
799.787
843.417
887.801
932.856
978.493
1024.64
1071.35
1118.57
1166.23
1214.26
1262.59
1311.14
1359.84
1408.59
1457.31
1505.9
1554.27
1602.3
1649.89
1696.9
1743.2
1788.63
1833.04
1876.24
1917.99
1958.05
1996.11
2031.79
2064.64
2093.37
2117.96
2138.43
2152.74
2159.07
2061.24
1941.79
1817.7
1690.4
1561.26
1431.5
1302.34
1175
1050.74
930.906
816.614
709.373
611.521
525.529
453.572
397.048
355.972
328.637
311.99
302.625
297.688
295.229
294.039
293.476
293.215
293.096
293.042
293.018
293.008
293.003
293.001
293.001
293
293
293
293.004
293.019
293.043
293.083
293.151
293.263
293.446
293.743
294.22
294.973
296.146
297.937
300.616
304.531
310.101
317.795
328.084
341.382
357.98
377.998
401.376
427.902
457.261
489.099
523.068
558.856
596.206
634.912
674.815
715.793
757.753
800.613
844.302
888.745
933.863
979.565
1025.78
1072.56
1119.84
1167.57
1215.67
1264.07
1312.68
1361.44
1410.24
1459.02
1507.66
1556.06
1604.13
1651.74
1698.76
1745.06
1790.49
1834.88
1878.03
1919.73
1959.7
1997.65
2033.18
2065.84
2094.23
2118.44
2138.38
2151.96
2157.22
2054.34
1934.73
1810.53
1683.2
1554.08
1424.4
1295.39
1168.24
1044.25
924.728
810.806
704.028
606.76
521.466
450.293
394.584
354.27
327.561
311.366
302.287
297.518
295.146
293.999
293.458
293.207
293.092
293.041
293.018
293.008
293.003
293.001
293.001
293
293
293
293.004
293.019
293.043
293.084
293.151
293.263
293.446
293.744
294.221
294.976
296.15
297.943
300.627
304.547
310.125
317.829
328.131
341.445
358.062
378.101
401.501
428.05
457.433
489.296
523.289
559.103
596.478
635.21
675.14
716.146
758.133
801.021
844.738
889.21
934.36
980.095
1026.35
1073.16
1120.48
1168.24
1216.37
1264.8
1313.45
1362.23
1411.07
1459.86
1508.53
1556.95
1605.03
1652.65
1699.67
1745.97
1791.39
1835.76
1878.87
1920.52
1960.43
1998.29
2033.71
2066.21
2094.31
2118.23
2137.79
2150.85
2155.46
2050.6
1930.91
1806.69
1679.39
1550.32
1420.72
1291.8
1164.79
1040.94
921.603
807.883
701.351
604.387
519.45
448.674
393.373
353.437
327.037
311.061
302.122
297.434
295.105
293.98
293.449
293.203
293.09
293.04
293.017
293.007
293.003
293.001
293.001
293
293
293
293.004
293.019
293.043
293.084
293.151
293.263
293.446
293.744
294.221
294.976
296.15
297.943
300.627
304.547
310.125
317.828
328.131
341.445
358.062
378.1
401.5
428.049
457.432
489.295
523.288
559.102
596.477
635.209
675.139
716.145
758.132
801.021
844.738
889.211
934.36
980.096
1026.35
1073.16
1120.48
1168.24
1216.38
1264.8
1313.45
1362.24
1411.07
1459.87
1508.53
1556.96
1605.04
1652.66
1699.68
1745.98
1791.4
1835.77
1878.89
1920.54
1960.45
1998.31
2033.73
2066.24
2094.32
2118.24
2137.78
2150.83
2155.43
2050.56
1930.86
1806.64
1679.33
1550.26
1420.67
1291.76
1164.74
1040.9
921.565
807.848
701.32
604.359
519.426
448.654
393.357
353.426
327.03
311.056
302.119
297.433
295.104
293.98
293.449
293.202
293.09
293.04
293.017
293.007
293.003
293.001
293.001
293
293
293
293.004
293.019
293.043
293.083
293.151
293.263
293.446
293.743
294.22
294.973
296.146
297.937
300.616
304.531
310.101
317.794
328.083
341.382
357.979
377.997
401.374
427.899
457.258
489.096
523.064
558.853
596.203
634.909
674.812
715.791
757.751
800.613
844.302
888.746
933.865
979.567
1025.78
1072.56
1119.85
1167.58
1215.68
1264.07
1312.69
1361.45
1410.26
1459.03
1507.67
1556.08
1604.15
1651.76
1698.79
1745.09
1790.52
1834.91
1878.07
1919.77
1959.75
1997.7
2033.24
2065.9
2094.27
2118.45
2138.36
2151.9
2157.15
2054.24
1934.6
1810.38
1683.05
1553.92
1424.25
1295.24
1168.11
1044.12
924.612
810.697
703.927
606.67
521.388
450.23
394.536
354.237
327.542
311.355
302.281
297.515
295.144
293.999
293.457
293.207
293.092
293.041
293.018
293.008
293.003
293.001
293.001
293
293
293
293.004
293.019
293.043
293.083
293.151
293.262
293.445
293.741
294.216
294.968
296.137
297.922
300.594
304.497
310.051
317.723
327.985
341.25
357.808
377.783
401.115
427.592
456.902
488.691
522.61
558.349
595.649
634.303
674.153
715.078
756.982
799.786
843.418
887.803
932.86
978.498
1024.65
1071.36
1118.58
1166.24
1214.27
1262.6
1311.16
1359.85
1408.61
1457.33
1505.93
1554.3
1602.33
1649.92
1696.93
1743.23
1788.68
1833.09
1876.29
1918.05
1958.12
1996.18
2031.88
2064.74
2093.44
2117.99
2138.42
2152.68
2159.02
2061.08
1941.6
1817.47
1690.17
1561.02
1431.26
1302.12
1174.79
1050.54
930.716
816.435
709.206
611.37
525.397
453.464
396.966
355.916
328.602
311.971
302.615
297.683
295.227
294.038
293.476
293.215
293.096
293.042
293.018
293.008
293.003
293.001
293.001
293
293
293
293.004
293.019
293.043
293.083
293.15
293.261
293.443
293.738
294.211
294.959
296.123
297.901
300.56
304.446
309.976
317.616
327.837
341.053
357.554
377.465
400.729
427.136
456.374
488.091
521.937
557.602
594.827
633.404
673.176
714.019
755.839
798.556
842.099
886.392
931.356
976.901
1022.95
1069.56
1116.68
1164.24
1212.17
1260.41
1308.87
1357.47
1406.14
1454.78
1503.3
1551.61
1599.59
1647.13
1694.11
1740.39
1785.82
1830.25
1873.47
1915.27
1955.39
1993.53
2029.32
2062.29
2091.08
2115.81
2136.46
2150.95
2157.66
2070.04
1951.16
1827.43
1700.36
1571.31
1441.52
1312.24
1184.66
1060.06
939.781
824.968
717.069
618.381
531.387
458.302
400.609
358.436
330.195
312.895
303.114
297.935
295.35
294.096
293.503
293.227
293.101
293.045
293.02
293.008
293.004
293.002
293.001
293
293
293
293.004
293.018
293.042
293.083
293.149
293.26
293.441
293.734
294.205
294.948
296.105
297.872
300.516
304.379
309.878
317.475
327.643
340.793
357.219
377.047
400.221
426.536
455.68
487.302
521.052
556.621
593.747
632.223
671.89
712.626
754.334
796.936
840.359
884.531
929.372
974.792
1020.72
1067.19
1114.17
1161.6
1209.4
1257.5
1305.83
1354.31
1402.86
1451.39
1499.81
1548.02
1595.91
1643.39
1690.31
1736.55
1781.95
1826.36
1869.58
1911.39
1951.53
1989.68
2025.45
2058.39
2086.97
2111.51
2131.64
2145.26
2150.72
2080.62
1962.96
1840.06
1713.52
1584.73
1455.02
1325.62
1197.78
1072.76
951.906
836.399
727.619
627.809
539.464
464.853
405.559
361.876
332.378
314.165
303.8
298.285
295.52
294.177
293.541
293.245
293.109
293.048
293.021
293.009
293.004
293.002
293.001
293
293
293
293.004
293.018
293.042
293.082
293.148
293.258
293.438
293.729
294.196
294.934
296.083
297.837
300.461
304.297
309.756
317.303
327.404
340.475
356.809
376.533
399.598
425.799
454.827
486.332
519.965
555.414
592.418
630.77
670.309
710.911
752.48
794.939
838.214
882.235
926.921
972.186
1017.95
1064.25
1111.07
1158.32
1205.96
1253.89
1302.06
1350.38
1398.78
1447.17
1495.45
1543.54
1591.33
1638.71
1685.56
1731.74
1777.11
1821.49
1864.7
1906.51
1946.64
1984.76
2020.47
2053.2
2081.42
2106.01
2124.95
2136.62
2138.72
2092.91
1977.31
1855.71
1729.95
1601.58
1472
1342.5
1214.34
1088.81
967.249
850.888
741.023
639.831
549.81
473.285
411.974
366.367
335.248
315.845
304.712
298.751
295.747
294.285
293.591
293.267
293.119
293.053
293.023
293.01
293.004
293.002
293.001
293
293
293
293.004
293.018
293.042
293.081
293.147
293.256
293.434
293.723
294.186
294.918
296.056
297.795
300.397
304.2
309.614
317.1
327.124
340.101
356.326
375.931
398.867
424.933
453.825
485.192
518.686
553.995
590.856
629.06
668.446
708.89
750.295
792.583
835.683
879.522
924.024
969.103
1014.68
1060.78
1107.39
1154.44
1201.87
1249.6
1297.57
1345.71
1393.92
1442.13
1490.26
1538.2
1585.86
1633.13
1679.89
1726
1771.33
1815.71
1858.94
1900.8
1941.03
1979.29
2015.15
2048.09
2076.49
2101.23
2120.24
2131.73
2133.16
2110.23
1996.12
1875.53
1750.4
1622.36
1492.84
1363.17
1234.61
1108.45
986.037
868.65
757.516
654.669
562.633
483.803
420.044
372.073
338.932
318.019
305.899
299.36
296.045
294.426
293.656
293.297
293.133
293.059
293.026
293.011
293.005
293.002
293.001
293
293
293
293.004
293.018
293.042
293.081
293.146
293.254
293.43
293.716
294.175
294.9
296.027
297.748
300.324
304.09
309.453
316.87
326.807
339.678
355.78
375.247
398.036
423.951
452.687
483.897
517.232
552.379
589.076
627.111
666.322
706.584
747.8
789.891
832.787
876.416
920.705
965.567
1010.92
1056.79
1103.16
1149.97
1197.16
1244.66
1292.4
1340.3
1388.3
1436.31
1484.24
1532.01
1579.52
1626.65
1673.31
1719.35
1764.64
1809.03
1852.32
1894.31
1934.74
1973.3
2009.62
2043.2
2072.93
2098.26
2119.19
2133.49
2139.24
2132.68
2019.41
1899.46
1774.81
1647.03
1517.55
1387.66
1258.65
1131.78
1008.39
889.811
777.21
672.478
578.125
496.619
429.979
379.183
343.58
320.793
307.427
300.148
296.43
294.61
293.742
293.336
293.15
293.066
293.029
293.013
293.005
293.002
293.001
293
293
293
293.004
293.018
293.041
293.08
293.144
293.251
293.426
293.709
294.163
294.879
295.994
297.696
300.244
303.969
309.275
316.617
326.458
339.211
355.176
374.492
397.119
422.863
451.427
482.462
515.62
550.587
587.1
624.945
663.96
704.017
745.02
786.889
829.554
872.946
916.992
961.607
1006.71
1052.31
1098.41
1144.95
1191.86
1239.09
1286.56
1334.21
1381.95
1429.72
1477.43
1524.99
1572.32
1619.29
1665.82
1711.77
1757.02
1801.41
1844.77
1886.89
1927.56
1966.48
2003.3
2037.61
2068.79
2095.65
2118.99
2137.03
2148.62
2152.28
2045.42
1926.58
1802.68
1675.34
1545.98
1415.93
1286.45
1158.82
1034.36
914.446
800.22
693.408
596.472
511.946
442.007
387.914
349.373
324.299
309.378
301.162
296.928
294.847
293.852
293.387
293.173
293.076
293.033
293.014
293.006
293.003
293.001
293
293
293
293.004
293.018
293.041
293.079
293.143
293.248
293.421
293.701
294.149
294.857
295.958
297.64
300.157
303.838
309.083
316.343
326.08
338.707
354.525
373.676
396.127
421.688
450.063
480.907
513.871
548.642
584.953
622.59
661.388
701.22
741.987
783.609
826.018
869.145
912.919
957.258
1002.08
1047.38
1093.17
1139.4
1186.01
1232.93
1280.1
1327.45
1374.91
1422.4
1469.85
1517.18
1564.28
1611.07
1657.45
1703.28
1748.46
1792.83
1836.23
1878.48
1919.34
1958.57
1995.83
2030.73
2062.71
2090.36
2114.63
2133.69
2146.42
2151.35
2072.22
1955.39
1832.93
1706.51
1577.62
1447.62
1317.82
1189.49
1063.96
942.612
826.657
717.623
617.884
530.03
456.393
398.528
356.539
328.705
311.862
302.466
297.572
295.154
293.995
293.452
293.202
293.089
293.039
293.017
293.007
293.003
293.001
293
293
293
293.004
293.018
293.04
293.078
293.141
293.245
293.416
293.692
294.135
294.834
295.92
297.581
300.065
303.7
308.88
316.054
325.681
338.174
353.836
372.813
395.076
420.441
448.616
479.256
512.013
546.572
582.666
620.078
658.642
698.228
738.739
780.093
822.221
865.058
908.533
952.567
997.074
1042.04
1087.5
1133.39
1179.66
1226.23
1273.06
1320.08
1367.21
1414.39
1461.55
1508.6
1555.45
1602.02
1648.2
1693.89
1738.96
1783.28
1826.68
1868.99
1910
1949.44
1986.99
2022.24
2054.65
2082.69
2106.97
2125.42
2135.95
2135.39
2100.1
1986.65
1866.27
1741.12
1612.89
1483.08
1353.02
1224.01
1097.38
974.528
856.744
745.371
642.642
551.179
473.464
411.343
365.36
334.231
315.026
304.144
298.405
295.553
294.181
293.537
293.24
293.106
293.046
293.02
293.009
293.004
293.001
293.001
293
293
293.004
293.017
293.04
293.077
293.139
293.242
293.411
293.683
294.12
294.809
295.881
297.518
299.97
303.556
308.669
315.754
325.267
337.62
353.12
371.916
393.984
419.145
447.11
477.535
510.074
544.411
580.274
617.448
655.762
695.087
735.323
776.388
818.215
860.738
903.888
947.591
991.762
1036.37
1081.46
1126.98
1172.86
1219.06
1265.52
1312.16
1358.94
1405.77
1452.6
1499.33
1545.9
1592.21
1638.17
1683.67
1728.6
1772.82
1816.2
1858.55
1899.67
1939.32
1977.2
2012.93
2046.04
2075.47
2100.69
2121.5
2135.79
2141.67
2135.89
2023.53
1904.19
1779.88
1652.18
1522.52
1392.22
1262.55
1134.82
1010.4
890.68
776.884
671.016
575.706
493.56
426.714
376.164
341.142
319.055
306.311
299.49
296.075
294.425
293.648
293.29
293.128
293.056
293.024
293.01
293.004
293.002
293.001
293
293
293.004
293.017
293.039
293.076
293.138
293.239
293.405
293.674
294.104
294.783
295.84
297.454
299.871
303.408
308.453
315.446
324.843
337.055
352.389
371.001
392.87
417.822
445.572
475.777
508.091
542.197
577.822
614.747
652.8
691.85
731.796
772.556
814.063
856.251
899.055
942.403
986.213
1030.44
1075.13
1120.24
1165.72
1211.51
1257.56
1303.81
1350.19
1396.64
1443.1
1489.49
1535.73
1581.75
1627.45
1672.73
1717.49
1761.59
1804.91
1847.28
1888.5
1928.36
1966.58
2002.83
2036.7
2067.55
2094.29
2117.67
2136.11
2148.81
2155.23
2061.74
1944.04
1821.09
1694.35
1565.18
1434.9
1304.76
1176.05
1050.13
928.436
812.193
703.136
603.824
516.972
444.977
389.296
349.739
324.168
309.101
300.908
296.759
294.745
293.794
293.356
293.157
293.069
293.03
293.013
293.005
293.002
293.001
293
293
293.004
293.017
293.039
293.075
293.136
293.236
293.399
293.664
294.088
294.757
295.798
297.389
299.771
303.258
308.234
315.136
324.417
336.487
351.657
370.085
391.755
416.498
444.032
474.017
506.105
539.976
575.359
612.029
649.815
688.581
728.227
768.67
809.842
851.681
894.121
937.094
980.521
1024.35
1068.62
1113.3
1158.35
1203.71
1249.32
1295.14
1341.1
1387.14
1433.2
1479.22
1525.11
1570.81
1616.22
1661.25
1705.8
1749.76
1792.98
1835.32
1876.61
1916.63
1955.12
1991.77
2026.18
2057.83
2085.3
2108.97
2126.93
2137.06
2135.99
2096.14
1983.29
1863.37
1738.53
1610.45
1480.58
1350.26
1220.8
1093.53
969.904
851.254
739.049
635.682
543.941
466.451
405.116
360.368
330.643
312.702
302.765
297.66
295.167
293.988
293.442
293.195
293.085
293.037
293.016
293.007
293.003
293.001
293
293
293.004
293.017
293.038
293.074
293.134
293.232
293.393
293.654
294.071
294.73
295.755
297.321
299.668
303.105
308.013
314.825
323.992
335.924
350.934
369.183
390.662
415.204
442.529
472.298
504.164
537.806
572.947
609.364
646.88
685.361
724.702
764.822
805.652
847.131
889.195
931.78
974.811
1018.22
1062.06
1106.3
1150.9
1195.81
1240.97
1286.34
1331.86
1377.48
1423.13
1468.75
1514.27
1559.63
1604.73
1649.49
1693.81
1737.58
1780.68
1822.96
1864.26
1904.39
1943.09
1980.1
2015.03
2047.44
2076.34
2101.16
2121.72
2135.99
2142.33
2138.27
2027.05
1908.81
1785.42
1658.38
1529.06
1398.75
1268.73
1140.3
1014.87
893.889
778.661
671.297
574.597
491.372
423.934
373.354
338.755
317.302
305.167
298.831
295.718
294.239
293.555
293.245
293.107
293.046
293.02
293.008
293.003
293.001
293
293
293.004
293.016
293.037
293.073
293.131
293.228
293.387
293.643
294.054
294.702
295.711
297.254
299.566
302.954
307.796
314.522
323.579
335.381
350.239
368.32
389.618
413.971
441.099
470.666
502.323
535.745
570.656
606.827
644.081
682.281
721.321
761.12
801.608
842.727
884.414
926.609
969.239
1012.24
1055.64
1099.43
1143.58
1188.03
1232.75
1277.67
1322.75
1367.93
1413.17
1458.39
1503.54
1548.55
1593.33
1637.8
1681.88
1725.46
1768.41
1810.62
1851.91
1892.11
1931
1968.3
2003.7
2036.79
2066.92
2093.14
2115.77
2133.42
2145.06
2149.85
2068.61
1953.15
1832.02
1706.69
1578.48
1448.69
1318.55
1189.36
1062.47
939.371
821.383
710.275
608.746
519.745
445.937
389.008
348.844
323.184
308.303
300.377
296.448
294.573
293.704
293.311
293.135
293.058
293.025
293.01
293.004
293.002
293.001
293
293.004
293.016
293.037
293.071
293.129
293.224
293.38
293.631
294.035
294.672
295.663
297.181
299.456
302.795
307.57
314.211
323.165
334.845
349.567
367.5
388.642
412.832
439.791
469.182
500.654
533.88
568.579
604.523
641.53
679.463
718.215
757.704
797.862
838.631
879.952
921.765
964.005
1006.6
1049.58
1092.95
1136.66
1180.68
1224.96
1269.45
1314.11
1358.89
1403.73
1448.58
1493.37
1538.04
1582.51
1626.71
1670.55
1713.93
1756.73
1798.83
1840.09
1880.33
1919.35
1956.9
1992.66
2026.24
2057.13
2084.12
2107.34
2124.96
2134.99
2134.19
2105.47
1994.66
1876.79
1753.82
1627.27
1498.48
1368.73
1239.27
1111.41
986.601
866.271
751.877
645.869
551.255
470.98
407.307
360.942
330.377
312.182
302.296
297.353
294.987
293.889
293.392
293.17
293.073
293.031
293.013
293.005
293.002
293.001
293
293.004
293.016
293.036
293.07
293.127
293.22
293.372
293.619
294.015
294.641
295.616
297.109
299.351
302.644
307.36
313.927
322.792
334.369
348.977
366.787
387.798
411.853
438.672
467.916
499.231
532.289
566.806
602.55
639.338
677.03
715.521
754.727
794.582
835.03
876.014
917.479
959.363
1001.6
1044.19
1087.18
1130.5
1174.14
1218.03
1262.15
1306.44
1350.86
1395.35
1439.87
1484.35
1528.73
1572.94
1616.89
1660.52
1703.72
1746.38
1788.38
1829.59