/*--------------------------------*- C++ -*----------------------------------*\
  =========                 |
  \\      /  F ield         | OpenFOAM: The Open Source CFD Toolbox
   \\    /   O peration     | Website:  https://openfoam.org
    \\  /    A nd           | Version:  8
     \\/     M anipulation  |
\*---------------------------------------------------------------------------*/
FoamFile
{
    version     2.0;
    format      ascii;
    class       volVectorField;
    location    "140/fluid";
    object      U;
}
// * * * * * * * * * * * * * * * * * * * * * * * * * * * * * * * * * * * * * //

dimensions      [0 1 -1 0 0 0 0];

internalField   nonuniform List<vector> 
4000
(
(0.0999525 -0.00681991 0)
(0.0996956 -0.0203647 0)
(0.0992811 -0.0338538 0)
(0.0987082 -0.0472957 0)
(0.0979693 -0.0606915 0)
(0.0970481 -0.0740539 0)
(0.0959261 -0.0874034 0)
(0.0945848 -0.100751 0)
(0.0930083 -0.114089 0)
(0.0911856 -0.127398 0)
(0.0891134 -0.140652 0)
(0.0867995 -0.153823 0)
(0.084267 -0.16688 0)
(0.081561 -0.17977 0)
(0.0787459 -0.192468 0)
(0.0758859 -0.204943 0)
(0.0730339 -0.217122 0)
(0.0702243 -0.228897 0)
(0.0674652 -0.240114 0)
(0.0647371 -0.250594 0)
(0.0619981 -0.260145 0)
(0.0591956 -0.268595 0)
(0.0562797 -0.275808 0)
(0.0532156 -0.281702 0)
(0.0499968 -0.28623 0)
(0.0466331 -0.289452 0)
(0.0431396 -0.291466 0)
(0.0395347 -0.292394 0)
(0.0358391 -0.292376 0)
(0.0320748 -0.291555 0)
(0.0282624 -0.29008 0)
(0.0244207 -0.288089 0)
(0.0205652 -0.285714 0)
(0.0167087 -0.283073 0)
(0.0128606 -0.280272 0)
(0.00902723 -0.277404 0)
(0.00521261 -0.274547 0)
(0.00141862 -0.271769 0)
(-0.00235311 -0.269128 0)
(-0.00610169 -0.266676 0)
(-0.00982913 -0.264457 0)
(-0.0135398 -0.262509 0)
(-0.0172392 -0.260865 0)
(-0.0209329 -0.25955 0)
(-0.0246275 -0.258587 0)
(-0.0283293 -0.257992 0)
(-0.0320453 -0.257781 0)
(-0.035782 -0.257966 0)
(-0.0395461 -0.258558 0)
(-0.0433439 -0.259567 0)
(-0.0471813 -0.261 0)
(-0.0510638 -0.262866 0)
(-0.0549961 -0.26517 0)
(-0.0589821 -0.267919 0)
(-0.0630247 -0.271118 0)
(-0.0671256 -0.274771 0)
(-0.0712853 -0.278884 0)
(-0.0755024 -0.283457 0)
(-0.079774 -0.288494 0)
(-0.0840945 -0.293993 0)
(-0.0884572 -0.299953 0)
(-0.0928511 -0.30637 0)
(-0.0972642 -0.313239 0)
(-0.101673 -0.320548 0)
(-0.106061 -0.328278 0)
(-0.110448 -0.336421 0)
(-0.114915 -0.345031 0)
(-0.119193 -0.354203 0)
(-0.121416 -0.36371 0)
(-0.122578 -0.37309 0)
(-0.12263 -0.382492 0)
(-0.120673 -0.390066 0)
(-0.118178 -0.395485 0)
(-0.115421 -0.398627 0)
(-0.112345 -0.399271 0)
(-0.10891 -0.397106 0)
(-0.10513 -0.391821 0)
(-0.101037 -0.383146 0)
(-0.0966679 -0.370901 0)
(-0.0920571 -0.355037 0)
(-0.0872781 -0.335691 0)
(-0.0825072 -0.313269 0)
(-0.0780437 -0.288524 0)
(-0.0742759 -0.262533 0)
(-0.0716767 -0.236998 0)
(-0.0707288 -0.213499 0)
(-0.0716352 -0.19285 0)
(-0.0741465 -0.174882 0)
(-0.0776826 -0.158796 0)
(-0.0816035 -0.143752 0)
(-0.0854162 -0.129187 0)
(-0.0888256 -0.11482 0)
(-0.0916961 -0.100592 0)
(-0.0940212 -0.086594 0)
(-0.0958583 -0.072828 0)
(-0.0972787 -0.0592356 0)
(-0.0983489 -0.0457517 0)
(-0.0991252 -0.0324193 0)
(-0.0996498 -0.0193428 0)
(-0.0999547 -0.00644725 0)
(0.100001 -0.00644292 0)
(0.0998262 -0.0193313 0)
(0.0994634 -0.0321864 0)
(0.0988904 -0.0449673 0)
(0.0981073 -0.0576439 0)
(0.0971094 -0.0702078 0)
(0.0958873 -0.0826634 0)
(0.0944321 -0.0950089 0)
(0.0927386 -0.10723 0)
(0.0908089 -0.119303 0)
(0.0886547 -0.131209 0)
(0.0862997 -0.142935 0)
(0.0837805 -0.154486 0)
(0.0811481 -0.165901 0)
(0.0784604 -0.177176 0)
(0.0757736 -0.188279 0)
(0.0731325 -0.199164 0)
(0.070561 -0.209759 0)
(0.0680554 -0.219951 0)
(0.0655836 -0.229595 0)
(0.0630913 -0.238526 0)
(0.060515 -0.246582 0)
(0.057795 -0.25363 0)
(0.054888 -0.259589 0)
(0.0517719 -0.26445 0)
(0.0484498 -0.268191 0)
(0.044938 -0.270839 0)
(0.0412614 -0.272469 0)
(0.0374504 -0.273187 0)
(0.0335362 -0.273116 0)
(0.0295485 -0.272385 0)
(0.0255135 -0.271124 0)
(0.0214532 -0.269454 0)
(0.0173848 -0.267489 0)
(0.0133214 -0.265329 0)
(0.00927193 -0.263062 0)
(0.00524203 -0.260766 0)
(0.00123472 -0.258508 0)
(-0.00274807 -0.256343 0)
(-0.00670569 -0.254323 0)
(-0.0106404 -0.252494 0)
(-0.014557 -0.250895 0)
(-0.0184611 -0.249558 0)
(-0.0223591 -0.24851 0)
(-0.0262582 -0.247774 0)
(-0.0301655 -0.247369 0)
(-0.0340887 -0.24731 0)
(-0.0380355 -0.247612 0)
(-0.0420134 -0.248286 0)
(-0.0460298 -0.249344 0)
(-0.0500918 -0.250794 0)
(-0.054206 -0.252645 0)
(-0.0583787 -0.254906 0)
(-0.0626153 -0.257584 0)
(-0.0669205 -0.260686 0)
(-0.0712981 -0.264218 0)
(-0.0757506 -0.268185 0)
(-0.0802794 -0.27259 0)
(-0.0848841 -0.277435 0)
(-0.0895634 -0.282718 0)
(-0.0943129 -0.288432 0)
(-0.0991289 -0.294564 0)
(-0.103999 -0.301091 0)
(-0.108906 -0.307978 0)
(-0.11384 -0.315176 0)
(-0.118859 -0.322628 0)
(-0.124074 -0.33024 0)
(-0.129156 -0.337825 0)
(-0.131558 -0.345226 0)
(-0.131781 -0.353765 0)
(-0.130521 -0.360912 0)
(-0.127986 -0.366432 0)
(-0.125095 -0.370132 0)
(-0.121994 -0.371659 0)
(-0.118577 -0.370617 0)
(-0.11479 -0.366635 0)
(-0.11062 -0.359387 0)
(-0.106072 -0.348615 0)
(-0.101145 -0.334176 0)
(-0.095837 -0.316119 0)
(-0.0902158 -0.294779 0)
(-0.08451 -0.27092 0)
(-0.0791332 -0.245845 0)
(-0.0746452 -0.2214 0)
(-0.0716622 -0.199037 0)
(-0.070625 -0.179674 0)
(-0.0715558 -0.163412 0)
(-0.0740409 -0.149553 0)
(-0.0774521 -0.137115 0)
(-0.0811977 -0.125303 0)
(-0.0848616 -0.113674 0)
(-0.0882083 -0.102073 0)
(-0.0911263 -0.0904345 0)
(-0.0935795 -0.0786505 0)
(-0.0955812 -0.0667302 0)
(-0.0971644 -0.0546692 0)
(-0.0983658 -0.0424617 0)
(-0.099215 -0.0302008 0)
(-0.0997388 -0.0180478 0)
(-0.0999938 -0.00600885 0)
(0.099982 -0.00620672 0)
(0.0997561 -0.0186108 0)
(0.0993119 -0.0309763 0)
(0.0986319 -0.0432602 0)
(0.0977179 -0.0554297 0)
(0.0965695 -0.0674752 0)
(0.095184 -0.0794028 0)
(0.0935615 -0.0912156 0)
(0.0917076 -0.102907 0)
(0.0896358 -0.114464 0)
(0.0873696 -0.125875 0)
(0.084944 -0.137131 0)
(0.0824044 -0.148227 0)
(0.0798018 -0.159159 0)
(0.0771888 -0.169922 0)
(0.0746178 -0.180504 0)
(0.0721316 -0.190872 0)
(0.0697517 -0.20096 0)
(0.0674698 -0.210668 0)
(0.0652471 -0.219862 0)
(0.0630213 -0.228387 0)
(0.0607199 -0.236092 0)
(0.0582744 -0.242852 0)
(0.05563 -0.248578 0)
(0.0527492 -0.253233 0)
(0.0496151 -0.256828 0)
(0.0462339 -0.25941 0)
(0.0426281 -0.261059 0)
(0.0388292 -0.261875 0)
(0.0348724 -0.26197 0)
(0.0307922 -0.26146 0)
(0.0266203 -0.260459 0)
(0.0223842 -0.259078 0)
(0.0181065 -0.257417 0)
(0.0138052 -0.255568 0)
(0.00949358 -0.253611 0)
(0.00518117 -0.251618 0)
(0.00087442 -0.249649 0)
(-0.00342188 -0.247758 0)
(-0.00770492 -0.245993 0)
(-0.0119753 -0.244399 0)
(-0.0162364 -0.243011 0)
(-0.0204929 -0.241863 0)
(-0.0247508 -0.240979 0)
(-0.0290168 -0.240383 0)
(-0.0332981 -0.240092 0)
(-0.0376025 -0.240123 0)
(-0.0419381 -0.24049 0)
(-0.0463128 -0.241205 0)
(-0.0507348 -0.242278 0)
(-0.055212 -0.24372 0)
(-0.0597521 -0.245539 0)
(-0.0643625 -0.247743 0)
(-0.0690499 -0.25034 0)
(-0.0738205 -0.253337 0)
(-0.0786795 -0.256738 0)
(-0.0836314 -0.260549 0)
(-0.0886785 -0.26477 0)
(-0.0938217 -0.269401 0)
(-0.0990583 -0.274436 0)
(-0.104384 -0.279864 0)
(-0.109784 -0.285666 0)
(-0.115236 -0.291811 0)
(-0.120704 -0.29825 0)
(-0.126146 -0.304925 0)
(-0.131478 -0.311753 0)
(-0.136642 -0.318581 0)
(-0.141825 -0.325095 0)
(-0.14713 -0.331001 0)
(-0.148826 -0.338007 0)
(-0.14522 -0.343581 0)
(-0.140851 -0.347538 0)
(-0.136615 -0.349713 0)
(-0.13228 -0.349766 0)
(-0.12765 -0.347324 0)
(-0.122654 -0.342057 0)
(-0.117263 -0.333704 0)
(-0.111452 -0.322105 0)
(-0.105201 -0.307248 0)
(-0.0985172 -0.289335 0)
(-0.0915384 -0.268859 0)
(-0.084609 -0.246666 0)
(-0.0782765 -0.223948 0)
(-0.0732325 -0.202093 0)
(-0.0701084 -0.182374 0)
(-0.0691849 -0.165498 0)
(-0.0702637 -0.151326 0)
(-0.0728021 -0.139092 0)
(-0.0761681 -0.127907 0)
(-0.0798312 -0.117111 0)
(-0.0834378 -0.106354 0)
(-0.0867951 -0.0955069 0)
(-0.0898121 -0.0845602 0)
(-0.0924432 -0.0735345 0)
(-0.0946676 -0.0624246 0)
(-0.0964868 -0.0511892 0)
(-0.0979123 -0.0397967 0)
(-0.098955 -0.0283262 0)
(-0.0996265 -0.0169344 0)
(-0.0999727 -0.00563869 0)
(0.0999861 -0.00590299 0)
(0.0997545 -0.0176996 0)
(0.099291 -0.0294496 0)
(0.0985775 -0.0411046 0)
(0.09762 -0.0526276 0)
(0.0964228 -0.0640052 0)
(0.0949887 -0.0752406 0)
(0.0933224 -0.086335 0)
(0.0914335 -0.0972815 0)
(0.0893382 -0.108069 0)
(0.087061 -0.118688 0)
(0.0846359 -0.129135 0)
(0.0821069 -0.139413 0)
(0.0795267 -0.149531 0)
(0.0769529 -0.159497 0)
(0.07444 -0.169309 0)
(0.0720296 -0.178947 0)
(0.0697396 -0.188359 0)
(0.0675567 -0.197458 0)
(0.0654363 -0.206123 0)
(0.0633102 -0.214212 0)
(0.0611002 -0.221584 0)
(0.0587323 -0.228116 0)
(0.0561486 -0.233721 0)
(0.0533126 -0.238356 0)
(0.0502096 -0.242021 0)
(0.046844 -0.244751 0)
(0.0432341 -0.246615 0)
(0.0394071 -0.2477 0)
(0.0353941 -0.248106 0)
(0.0312272 -0.247941 0)
(0.0269368 -0.247309 0)
(0.0225501 -0.24631 0)
(0.0180901 -0.245038 0)
(0.013576 -0.243577 0)
(0.00902274 -0.242001 0)
(0.00444168 -0.240376 0)
(-0.000158176 -0.238758 0)
(-0.00476976 -0.237198 0)
(-0.00938865 -0.235741 0)
(-0.0140138 -0.234429 0)
(-0.0186471 -0.233299 0)
(-0.0232919 -0.232379 0)
(-0.027953 -0.231695 0)
(-0.0326363 -0.231269 0)
(-0.0373485 -0.231118 0)
(-0.0420968 -0.231259 0)
(-0.046889 -0.231705 0)
(-0.0517332 -0.232468 0)
(-0.0566374 -0.233559 0)
(-0.0616099 -0.234988 0)
(-0.0666586 -0.236764 0)
(-0.0717915 -0.238893 0)
(-0.0770158 -0.241384 0)
(-0.0823384 -0.244242 0)
(-0.0877652 -0.247472 0)
(-0.0933012 -0.251077 0)
(-0.0989495 -0.255057 0)
(-0.104711 -0.25941 0)
(-0.110584 -0.26413 0)
(-0.116561 -0.269206 0)
(-0.122629 -0.274619 0)
(-0.128757 -0.280341 0)
(-0.134907 -0.286336 0)
(-0.141025 -0.292559 0)
(-0.147039 -0.298963 0)
(-0.152828 -0.305517 0)
(-0.158079 -0.311936 0)
(-0.162535 -0.31694 0)
(-0.1628 -0.321037 0)
(-0.158191 -0.32407 0)
(-0.152747 -0.325867 0)
(-0.147343 -0.326074 0)
(-0.14176 -0.324321 0)
(-0.135825 -0.32026 0)
(-0.12949 -0.31359 0)
(-0.122751 -0.304094 0)
(-0.11561 -0.291671 0)
(-0.108075 -0.276384 0)
(-0.100228 -0.258513 0)
(-0.0923207 -0.23864 0)
(-0.0848087 -0.217679 0)
(-0.0782971 -0.196841 0)
(-0.0734229 -0.177436 0)
(-0.070651 -0.160486 0)
(-0.0700677 -0.14633 0)
(-0.0713421 -0.134544 0)
(-0.0739029 -0.124293 0)
(-0.0771624 -0.114783 0)
(-0.0806551 -0.105481 0)
(-0.0840788 -0.0961209 0)
(-0.0872651 -0.0866109 0)
(-0.0901301 -0.0769407 0)
(-0.0926373 -0.0671202 0)
(-0.0947749 -0.0571445 0)
(-0.0965425 -0.0469783 0)
(-0.0979429 -0.0365983 0)
(-0.0989746 -0.0260892 0)
(-0.0996388 -0.0156112 0)
(-0.0999781 -0.0051985 0)
(0.0999832 -0.00559481 0)
(0.0997347 -0.016774 0)
(0.0992421 -0.0279053 0)
(0.098488 -0.0389403 0)
(0.0974809 -0.0498418 0)
(0.0962275 -0.0605966 0)
(0.0947332 -0.0712079 0)
(0.0930059 -0.0816779 0)
(0.0910584 -0.0920016 0)
(0.0889104 -0.10217 0)
(0.0865897 -0.112177 0)
(0.084134 -0.122019 0)
(0.0815906 -0.131701 0)
(0.0790147 -0.141231 0)
(0.0764653 -0.150615 0)
(0.0739967 -0.159854 0)
(0.071649 -0.168929 0)
(0.0694371 -0.177791 0)
(0.0673436 -0.186362 0)
(0.0653194 -0.19453 0)
(0.063291 -0.202165 0)
(0.0611744 -0.209138 0)
(0.0588905 -0.215337 0)
(0.0563762 -0.220682 0)
(0.0535909 -0.225134 0)
(0.0505171 -0.228691 0)
(0.0471568 -0.231387 0)
(0.0435265 -0.233284 0)
(0.0396522 -0.234464 0)
(0.0355643 -0.235018 0)
(0.0312942 -0.235043 0)
(0.0268718 -0.234636 0)
(0.0223242 -0.233887 0)
(0.017675 -0.232883 0)
(0.0129436 -0.231699 0)
(0.00814579 -0.230404 0)
(0.00329398 -0.229058 0)
(-0.00160111 -0.227711 0)
(-0.00653064 -0.22641 0)
(-0.0114892 -0.225199 0)
(-0.016475 -0.224117 0)
(-0.0214886 -0.223195 0)
(-0.0265324 -0.222462 0)
(-0.0316101 -0.22194 0)
(-0.0367266 -0.221651 0)
(-0.041888 -0.22161 0)
(-0.0471008 -0.221834 0)
(-0.0523723 -0.222334 0)
(-0.05771 -0.223122 0)
(-0.0631219 -0.224208 0)
(-0.0686159 -0.225601 0)
(-0.0741999 -0.227309 0)
(-0.0798817 -0.229339 0)
(-0.0856689 -0.231697 0)
(-0.0915685 -0.234386 0)
(-0.097587 -0.237411 0)
(-0.10373 -0.240771 0)
(-0.110001 -0.244465 0)
(-0.116404 -0.248486 0)
(-0.122938 -0.252823 0)
(-0.129601 -0.257456 0)
(-0.136383 -0.262357 0)
(-0.143259 -0.267482 0)
(-0.150205 -0.272776 0)
(-0.157256 -0.278174 0)
(-0.164562 -0.283563 0)
(-0.171736 -0.288822 0)
(-0.175155 -0.293842 0)
(-0.175059 -0.298707 0)
(-0.172389 -0.301499 0)
(-0.167491 -0.303071 0)
(-0.161848 -0.303454 0)
(-0.155801 -0.302333 0)
(-0.149302 -0.299358 0)
(-0.142311 -0.294234 0)
(-0.134847 -0.286727 0)
(-0.126946 -0.276686 0)
(-0.118646 -0.264085 0)
(-0.110004 -0.249056 0)
(-0.101183 -0.231955 0)
(-0.0925353 -0.21342 0)
(-0.0845895 -0.19437 0)
(-0.0779727 -0.17592 0)
(-0.0732685 -0.159148 0)
(-0.0708086 -0.144739 0)
(-0.0705175 -0.132725 0)
(-0.0719566 -0.122567 0)
(-0.0745343 -0.113519 0)
(-0.077704 -0.104957 0)
(-0.0810598 -0.0964917 0)
(-0.0843464 -0.0879409 0)
(-0.0874197 -0.079249 0)
(-0.0902029 -0.0704172 0)
(-0.092657 -0.0614555 0)
(-0.0947644 -0.0523519 0)
(-0.0965191 -0.0430647 0)
(-0.0979181 -0.0335662 0)
(-0.0989552 -0.0239346 0)
(-0.0996279 -0.0143212 0)
(-0.0999752 -0.0047657 0)
(0.0999835 -0.00526826 0)
(0.0997286 -0.0157953 0)
(0.0992223 -0.0262744 0)
(0.0984475 -0.0366565 0)
(0.0974142 -0.0469043 0)
(0.0961312 -0.057004 0)
(0.094606 -0.0669578 0)
(0.0928483 -0.0767677 0)
(0.0908729 -0.086429 0)
(0.0887009 -0.0959338 0)
(0.0863617 -0.105277 0)
(0.0838938 -0.114457 0)
(0.0813454 -0.123482 0)
(0.0787722 -0.132361 0)
(0.0762331 -0.141105 0)
(0.0737823 -0.14972 0)
(0.0714588 -0.158192 0)
(0.0692761 -0.166481 0)
(0.0672149 -0.174515 0)
(0.0652238 -0.182194 0)
(0.0632267 -0.189395 0)
(0.0611372 -0.195998 0)
(0.0588737 -0.201896 0)
(0.0563708 -0.207013 0)
(0.0535856 -0.211309 0)
(0.0504984 -0.21478 0)
(0.047109 -0.217457 0)
(0.0434321 -0.219395 0)
(0.0394916 -0.220668 0)
(0.0353163 -0.22136 0)
(0.0309362 -0.22156 0)
(0.0263804 -0.221357 0)
(0.0216751 -0.220834 0)
(0.0168435 -0.220069 0)
(0.0119049 -0.219133 0)
(0.00687503 -0.218089 0)
(0.00176719 -0.21699 0)
(-0.00340673 -0.215884 0)
(-0.00863686 -0.214815 0)
(-0.0139174 -0.213823 0)
(-0.019246 -0.212944 0)
(-0.0246224 -0.212208 0)
(-0.030048 -0.211639 0)
(-0.0355258 -0.211259 0)
(-0.0410597 -0.211087 0)
(-0.0466549 -0.211137 0)
(-0.0523173 -0.211425 0)
(-0.0580532 -0.211961 0)
(-0.0638697 -0.212755 0)
(-0.0697738 -0.213818 0)
(-0.0757728 -0.215155 0)
(-0.0818738 -0.216775 0)
(-0.0880837 -0.218682 0)
(-0.0944091 -0.220882 0)
(-0.100855 -0.223376 0)
(-0.107427 -0.226165 0)
(-0.114127 -0.229248 0)
(-0.120954 -0.232619 0)
(-0.127906 -0.236267 0)
(-0.134974 -0.240177 0)
(-0.142138 -0.244322 0)
(-0.149368 -0.248666 0)
(-0.156603 -0.253155 0)
(-0.163787 -0.257722 0)
(-0.170817 -0.262278 0)
(-0.17769 -0.266688 0)
(-0.184277 -0.270707 0)
(-0.189334 -0.273974 0)
(-0.189372 -0.277348 0)
(-0.183802 -0.27951 0)
(-0.177166 -0.280427 0)
(-0.17034 -0.280012 0)
(-0.163164 -0.278045 0)
(-0.155511 -0.274278 0)
(-0.147379 -0.268487 0)
(-0.138802 -0.260502 0)
(-0.129832 -0.250237 0)
(-0.12052 -0.237721 0)
(-0.110972 -0.223143 0)
(-0.101433 -0.20691 0)
(-0.0923396 -0.189685 0)
(-0.0842686 -0.172368 0)
(-0.0778394 -0.155979 0)
(-0.0735466 -0.141407 0)
(-0.0715625 -0.129094 0)
(-0.0716513 -0.118883 0)
(-0.0732901 -0.110181 0)
(-0.0758893 -0.102316 0)
(-0.0789521 -0.0947704 0)
(-0.0821323 -0.0872416 0)
(-0.0852207 -0.0795968 0)
(-0.0881015 -0.0718023 0)
(-0.0907125 -0.0638656 0)
(-0.0930217 -0.0557959 0)
(-0.0950127 -0.0475798 0)
(-0.0966777 -0.0391752 0)
(-0.0980106 -0.0305555 0)
(-0.0990016 -0.0217957 0)
(-0.099645 -0.0130397 0)
(-0.0999771 -0.00433488 0)
(0.0999827 -0.004935 0)
(0.0997208 -0.0147965 0)
(0.0992016 -0.0246117 0)
(0.0984079 -0.0343325 0)
(0.0973509 -0.043923 0)
(0.0960406 -0.0533695 0)
(0.0944856 -0.0626743 0)
(0.0926972 -0.0718394 0)
(0.0906912 -0.080861 0)
(0.0884906 -0.0897322 0)
(0.086126 -0.0984487 0)
(0.0836377 -0.107011 0)
(0.0810751 -0.115426 0)
(0.078495 -0.123704 0)
(0.075957 -0.131859 0)
(0.0735154 -0.139894 0)
(0.0712083 -0.147799 0)
(0.0690473 -0.155539 0)
(0.0670107 -0.163047 0)
(0.0650439 -0.170231 0)
(0.0630677 -0.176981 0)
(0.0609928 -0.183182 0)
(0.058735 -0.188739 0)
(0.0562268 -0.193579 0)
(0.0534236 -0.197666 0)
(0.0503043 -0.200995 0)
(0.0468674 -0.203594 0)
(0.0431266 -0.205513 0)
(0.0391046 -0.206818 0)
(0.0348294 -0.207588 0)
(0.0303302 -0.207903 0)
(0.0256352 -0.207844 0)
(0.0207703 -0.207489 0)
(0.015758 -0.206908 0)
(0.0106174 -0.206166 0)
(0.0053645 -0.205321 0)
(1.32585e-05 -0.20442 0)
(-0.00542346 -0.20351 0)
(-0.0109357 -0.202629 0)
(-0.0165177 -0.201816 0)
(-0.0221665 -0.201103 0)
(-0.0278813 -0.200517 0)
(-0.0336628 -0.200079 0)
(-0.0395131 -0.199811 0)
(-0.0454356 -0.199728 0)
(-0.0514344 -0.199844 0)
(-0.0575147 -0.200171 0)
(-0.0636819 -0.20072 0)
(-0.0699419 -0.2015 0)
(-0.0763009 -0.202518 0)
(-0.082765 -0.203781 0)
(-0.08934 -0.205295 0)
(-0.0960316 -0.207063 0)
(-0.102844 -0.209089 0)
(-0.109782 -0.211375 0)
(-0.116848 -0.21392 0)
(-0.12404 -0.216721 0)
(-0.131356 -0.219773 0)
(-0.138788 -0.223066 0)
(-0.146323 -0.226586 0)
(-0.153935 -0.230312 0)
(-0.161579 -0.234214 0)
(-0.169194 -0.238249 0)
(-0.176736 -0.242368 0)
(-0.184154 -0.246542 0)
(-0.191229 -0.250782 0)
(-0.196883 -0.254912 0)
(-0.200052 -0.257636 0)
(-0.198413 -0.258841 0)
(-0.191984 -0.259373 0)
(-0.184578 -0.259092 0)
(-0.176884 -0.25768 0)
(-0.168779 -0.254868 0)
(-0.160171 -0.250425 0)
(-0.151086 -0.244162 0)
(-0.141582 -0.235941 0)
(-0.131726 -0.225713 0)
(-0.121597 -0.213543 0)
(-0.111351 -0.199661 0)
(-0.101316 -0.184509 0)
(-0.0919851 -0.168756 0)
(-0.0839584 -0.153257 0)
(-0.0778187 -0.138908 0)
(-0.0739528 -0.12639 0)
(-0.0723842 -0.115915 0)
(-0.0727591 -0.107182 0)
(-0.0745157 -0.0996111 0)
(-0.0770904 -0.092633 0)
(-0.0800376 -0.0858473 0)
(-0.0830596 -0.0790338 0)
(-0.0859801 -0.0721037 0)
(-0.088701 -0.0650409 0)
(-0.0911691 -0.0578569 0)
(-0.0933555 -0.0505587 0)
(-0.0952445 -0.043129 0)
(-0.0968278 -0.0355232 0)
(-0.0980977 -0.0277136 0)
(-0.0990436 -0.0197683 0)
(-0.0996589 -0.011821 0)
(-0.0999775 -0.00392393 0)
(0.0999825 -0.0045939 0)
(0.0997161 -0.0137746 0)
(0.0991876 -0.0229111 0)
(0.0983802 -0.0319571 0)
(0.0973055 -0.0408778 0)
(0.0959747 -0.0496601 0)
(0.0943973 -0.0583059 0)
(0.0925852 -0.0668172 0)
(0.0905556 -0.0751904 0)
(0.0883321 -0.0834196 0)
(0.0859465 -0.091501 0)
(0.0834398 -0.099436 0)
(0.0808623 -0.107232 0)
(0.0782714 -0.114901 0)
(0.0757272 -0.122455 0)
(0.0732835 -0.129903 0)
(0.0709779 -0.137235 0)
(0.0688208 -0.144421 0)
(0.0667885 -0.151401 0)
(0.0648241 -0.158091 0)
(0.0628465 -0.164387 0)
(0.060764 -0.170187 0)
(0.0584907 -0.175398 0)
(0.0559575 -0.179955 0)
(0.0531187 -0.183822 0)
(0.0499518 -0.186995 0)
(0.0464546 -0.189498 0)
(0.0426394 -0.191374 0)
(0.0385284 -0.192687 0)
(0.0341486 -0.193506 0)
(0.0295286 -0.193905 0)
(0.0246959 -0.193959 0)
(0.0196758 -0.193737 0)
(0.0144906 -0.193306 0)
(0.00915906 -0.192724 0)
(0.00369709 -0.192042 0)
(-0.00188032 -0.191306 0)
(-0.00755952 -0.190557 0)
(-0.0133309 -0.189833 0)
(-0.0191887 -0.189168 0)
(-0.0251299 -0.188591 0)
(-0.0311529 -0.188126 0)
(-0.0372579 -0.187794 0)
(-0.0434463 -0.187611 0)
(-0.0497208 -0.187594 0)
(-0.0560848 -0.187753 0)
(-0.0625424 -0.1881 0)
(-0.0690982 -0.188643 0)
(-0.075757 -0.189391 0)
(-0.0825239 -0.19035 0)
(-0.0894038 -0.191524 0)
(-0.0964013 -0.192919 0)
(-0.103521 -0.194537 0)
(-0.110765 -0.19638 0)
(-0.118138 -0.198448 0)
(-0.125638 -0.200738 0)
(-0.133265 -0.203246 0)
(-0.141015 -0.205963 0)
(-0.148878 -0.208877 0)
(-0.156841 -0.211967 0)
(-0.164876 -0.215208 0)
(-0.172931 -0.218559 0)
(-0.18096 -0.22197 0)
(-0.189018 -0.225375 0)
(-0.197247 -0.228692 0)
(-0.205014 -0.231866 0)
(-0.20868 -0.234775 0)
(-0.207601 -0.237473 0)
(-0.203039 -0.238321 0)
(-0.19643 -0.238284 0)
(-0.188988 -0.237412 0)
(-0.180945 -0.235462 0)
(-0.172291 -0.232194 0)
(-0.163056 -0.227414 0)
(-0.153308 -0.22097 0)
(-0.143134 -0.212763 0)
(-0.132627 -0.202781 0)
(-0.121899 -0.191125 0)
(-0.111175 -0.178057 0)
(-0.100853 -0.164038 0)
(-0.091475 -0.149728 0)
(-0.083647 -0.13592 0)
(-0.0778995 -0.123383 0)
(-0.074505 -0.112617 0)
(-0.073351 -0.103667 0)
(-0.0739923 -0.0961623 0)
(-0.0758487 -0.089561 0)
(-0.0783892 -0.0833856 0)
(-0.0812172 -0.07732 0)
(-0.0840782 -0.0711998 0)
(-0.0868256 -0.0649643 0)
(-0.0893786 -0.0586089 0)
(-0.0916931 -0.0521472 0)
(-0.0937446 -0.0455845 0)
(-0.0955194 -0.0389015 0)
(-0.0970091 -0.0320534 0)
(-0.0982056 -0.0250123 0)
(-0.0990976 -0.0178405 0)
(-0.0996782 -0.0106614 0)
(-0.0999789 -0.00353248 0)
(0.0999822 -0.00424747 0)
(0.0997115 -0.0127366 0)
(0.0991747 -0.0211844 0)
(0.0983548 -0.0295466 0)
(0.0972642 -0.0377904 0)
(0.0959145 -0.0459032 0)
(0.094316 -0.0538868 0)
(0.0924812 -0.0617431 0)
(0.0904281 -0.0694691 0)
(0.0881811 -0.0770596 0)
(0.0857728 -0.0845112 0)
(0.0832453 -0.0918259 0)
(0.0806496 -0.099011 0)
(0.078044 -0.106079 0)
(0.0754888 -0.113042 0)
(0.073038 -0.119908 0)
(0.0707285 -0.126672 0)
(0.0685691 -0.133305 0)
(0.0665343 -0.139755 0)
(0.0645651 -0.145943 0)
(0.0625776 -0.151775 0)
(0.0604787 -0.157157 0)
(0.0581804 -0.162005 0)
(0.0556128 -0.166257 0)
(0.052729 -0.16988 0)
(0.0495059 -0.172869 0)
(0.0459407 -0.175246 0)
(0.0420452 -0.177051 0)
(0.0378411 -0.178339 0)
(0.0333548 -0.179175 0)
(0.0286143 -0.179625 0)
(0.023647 -0.179757 0)
(0.0184776 -0.179636 0)
(0.0131281 -0.179321 0)
(0.00761721 -0.178864 0)
(0.00196108 -0.178314 0)
(-0.00382443 -0.177711 0)
(-0.00972534 -0.177093 0)
(-0.0157324 -0.176496 0)
(-0.02184 -0.175951 0)
(-0.0280447 -0.175483 0)
(-0.0343446 -0.175114 0)
(-0.0407393 -0.174863 0)
(-0.0472298 -0.174744 0)
(-0.0538177 -0.174771 0)
(-0.0605058 -0.174954 0)
(-0.0672973 -0.175303 0)
(-0.0741956 -0.175826 0)
(-0.0812044 -0.176528 0)
(-0.0883274 -0.177415 0)
(-0.0955679 -0.17849 0)
(-0.102929 -0.179758 0)
(-0.110412 -0.18122 0)
(-0.118018 -0.182875 0)
(-0.125746 -0.184722 0)
(-0.133593 -0.186759 0)
(-0.141552 -0.188977 0)
(-0.149612 -0.191367 0)
(-0.157753 -0.193914 0)
(-0.165949 -0.196598 0)
(-0.174147 -0.199388 0)
(-0.182275 -0.202243 0)
(-0.190246 -0.205109 0)
(-0.197976 -0.207915 0)
(-0.205419 -0.210549 0)
(-0.212349 -0.212796 0)
(-0.217461 -0.214212 0)
(-0.216925 -0.216009 0)
(-0.210068 -0.216797 0)
(-0.201999 -0.216709 0)
(-0.19362 -0.215667 0)
(-0.184757 -0.213521 0)
(-0.175318 -0.2101 0)
(-0.165345 -0.20526 0)
(-0.154912 -0.198885 0)
(-0.144109 -0.190918 0)
(-0.133029 -0.181379 0)
(-0.121813 -0.170401 0)
(-0.110742 -0.158272 0)
(-0.100266 -0.14546 0)
(-0.0909562 -0.1326 0)
(-0.0834055 -0.120414 0)
(-0.0780766 -0.10954 0)
(-0.0751261 -0.100317 0)
(-0.0743266 -0.0926636 0)
(-0.0751721 -0.0861827 0)
(-0.0770853 -0.0803907 0)
(-0.0795734 -0.0748969 0)
(-0.0822841 -0.0694567 0)
(-0.084998 -0.0639498 0)
(-0.0875912 -0.0583374 0)
(-0.0899955 -0.0526226 0)
(-0.0921734 -0.0468197 0)
(-0.094104 -0.0409323 0)
(-0.095775 -0.0349392 0)
(-0.0971787 -0.0287951 0)
(-0.0983069 -0.022472 0)
(-0.0991484 -0.0160257 0)
(-0.0996963 -0.00956882 0)
(-0.0999801 -0.00316357 0)
(0.099982 -0.00389594 0)
(0.0997077 -0.0116833 0)
(0.0991636 -0.0194324 0)
(0.0983327 -0.0271015 0)
(0.0972278 -0.0346598 0)
(0.0958612 -0.0420957 0)
(0.0942435 -0.0494106 0)
(0.0923879 -0.0566063 0)
(0.0903128 -0.0636803 0)
(0.0880434 -0.0706278 0)
(0.085613 -0.0774461 0)
(0.0830644 -0.0841372 0)
(0.0804493 -0.0907087 0)
(0.0778267 -0.0971724 0)
(0.0752573 -0.103541 0)
(0.0727949 -0.109824 0)
(0.0704758 -0.116015 0)
(0.0683078 -0.122092 0)
(0.0662635 -0.128005 0)
(0.0642817 -0.133685 0)
(0.0622769 -0.139047 0)
(0.0601538 -0.144002 0)
(0.0578235 -0.148474 0)
(0.0552148 -0.152408 0)
(0.0522804 -0.155771 0)
(0.0489967 -0.15856 0)
(0.0453604 -0.160791 0)
(0.0413831 -0.162503 0)
(0.0370859 -0.163745 0)
(0.0324952 -0.164573 0)
(0.0276385 -0.16505 0)
(0.0225428 -0.165237 0)
(0.0172328 -0.16519 0)
(0.0117301 -0.164964 0)
(0.00605345 -0.164608 0)
(0.000219712 -0.164164 0)
(-0.00575455 -0.163669 0)
(-0.0118556 -0.163159 0)
(-0.0180745 -0.162666 0)
(-0.0244056 -0.162217 0)
(-0.0308451 -0.161837 0)
(-0.0373907 -0.161544 0)
(-0.0440417 -0.161354 0)
(-0.0507981 -0.16128 0)
(-0.0576613 -0.161336 0)
(-0.0646331 -0.161528 0)
(-0.0717155 -0.161867 0)
(-0.0789112 -0.162357 0)
(-0.0862225 -0.163005 0)
(-0.0936517 -0.163814 0)
(-0.101201 -0.164788 0)
(-0.10887 -0.165929 0)
(-0.116661 -0.167238 0)
(-0.124571 -0.168714 0)
(-0.132597 -0.170356 0)
(-0.140733 -0.17216 0)
(-0.14897 -0.174119 0)
(-0.157293 -0.176227 0)
(-0.165683 -0.17847 0)
(-0.174108 -0.180833 0)
(-0.182508 -0.183295 0)
(-0.190819 -0.185821 0)
(-0.198957 -0.188379 0)
(-0.206822 -0.190967 0)
(-0.214196 -0.193652 0)
(-0.220112 -0.196309 0)
(-0.223528 -0.197701 0)
(-0.2216 -0.197911 0)
(-0.21424 -0.19763 0)
(-0.205671 -0.19687 0)
(-0.196745 -0.195346 0)
(-0.187313 -0.192852 0)
(-0.177308 -0.189229 0)
(-0.166779 -0.184345 0)
(-0.155819 -0.178101 0)
(-0.144521 -0.170454 0)
(-0.132993 -0.161442 0)
(-0.121414 -0.151213 0)
(-0.110118 -0.140067 0)
(-0.0995986 -0.128463 0)
(-0.0904424 -0.116998 0)
(-0.0832186 -0.10631 0)
(-0.0783149 -0.0969158 0)
(-0.0757784 -0.0890206 0)
(-0.0752878 -0.082465 0)
(-0.0762986 -0.0768556 0)
(-0.0782466 -0.0717721 0)
(-0.0806762 -0.0668968 0)
(-0.0832745 -0.0620396 0)
(-0.0858523 -0.057112 0)
(-0.0883038 -0.0520898 0)
(-0.0905713 -0.046981 0)
(-0.0926233 -0.0417998 0)
(-0.0944418 -0.0365483 0)
(-0.0960162 -0.031204 0)
(-0.0973395 -0.0257224 0)
(-0.0984035 -0.0200757 0)
(-0.0991973 -0.0143135 0)
(-0.0997141 -0.00853832 0)
(-0.0999815 -0.00281599 0)
(0.0999818 -0.00353995 0)
(0.099704 -0.0106165 0)
(0.0991531 -0.0176581 0)
(0.098312 -0.0246258 0)
(0.0971938 -0.0314913 0)
(0.0958112 -0.0382438 0)
(0.0941752 -0.0448844 0)
(0.0922995 -0.051415 0)
(0.0902031 -0.0578333 0)
(0.0879116 -0.064135 0)
(0.085459 -0.0703179 0)
(0.0828888 -0.0763841 0)
(0.0802535 -0.082341 0)
(0.0776126 -0.0881999 0)
(0.0750271 -0.0939735 0)
(0.072551 -0.0996702 0)
(0.0702198 -0.105287 0)
(0.0680402 -0.110803 0)
(0.0659831 -0.116175 0)
(0.0639855 -0.12134 0)
(0.0619598 -0.12622 0)
(0.0598092 -0.130738 0)
(0.0574437 -0.134822 0)
(0.0547914 -0.138422 0)
(0.0518044 -0.14151 0)
(0.048459 -0.14408 0)
(0.0447517 -0.146148 0)
(0.0406939 -0.147747 0)
(0.0363065 -0.148921 0)
(0.0316157 -0.149722 0)
(0.0266489 -0.150204 0)
(0.021433 -0.150422 0)
(0.0159924 -0.150428 0)
(0.0103488 -0.150271 0)
(0.00452065 -0.149994 0)
(-0.00147401 -0.149634 0)
(-0.00761796 -0.149227 0)
(-0.013898 -0.148805 0)
(-0.0203055 -0.148397 0)
(-0.0268346 -0.148028 0)
(-0.0334814 -0.147717 0)
(-0.0402431 -0.147483 0)
(-0.0471186 -0.147339 0)
(-0.0541074 -0.147297 0)
(-0.0612101 -0.147368 0)
(-0.0684279 -0.147559 0)
(-0.075762 -0.147878 0)
(-0.0832139 -0.148328 0)
(-0.0907849 -0.148916 0)
(-0.0984759 -0.149645 0)
(-0.106287 -0.150516 0)
(-0.114219 -0.151532 0)
(-0.122268 -0.152693 0)
(-0.130432 -0.153997 0)
(-0.138706 -0.155443 0)
(-0.147081 -0.157025 0)
(-0.155546 -0.158737 0)
(-0.164086 -0.160567 0)
(-0.17268 -0.162501 0)
(-0.181297 -0.164517 0)
(-0.189877 -0.166584 0)
(-0.19838 -0.168663 0)
(-0.206838 -0.170709 0)
(-0.215357 -0.172725 0)
(-0.223453 -0.174792 0)
(-0.227658 -0.176924 0)
(-0.227516 -0.178624 0)
(-0.2233 -0.178615 0)
(-0.215941 -0.178048 0)
(-0.207488 -0.177029 0)
(-0.198404 -0.175317 0)
(-0.188674 -0.172717 0)
(-0.178318 -0.169091 0)
(-0.167421 -0.16433 0)
(-0.156093 -0.158358 0)
(-0.144441 -0.151154 0)
(-0.132592 -0.14277 0)
(-0.120769 -0.133369 0)
(-0.109357 -0.12325 0)
(-0.0988827 -0.112855 0)
(-0.089941 -0.102731 0)
(-0.0830684 -0.0934333 0)
(-0.078575 -0.0853632 0)
(-0.0764098 -0.0786241 0)
(-0.0761788 -0.0730102 0)
(-0.0773172 -0.0681529 0)
(-0.0792812 -0.0636949 0)
(-0.0816506 -0.0593803 0)
(-0.0841463 -0.0550622 0)
(-0.0866033 -0.0506757 0)
(-0.0889307 -0.0462073 0)
(-0.0910787 -0.0416676 0)
(-0.0930205 -0.0370701 0)
(-0.0947407 -0.0324155 0)
(-0.0962303 -0.0276806 0)
(-0.0974825 -0.0228221 0)
(-0.0984898 -0.0178129 0)
(-0.0992412 -0.0126967 0)
(-0.0997302 -0.00756587 0)
(-0.0999827 -0.00248873 0)
(0.0999816 -0.00317979 0)
(0.0997007 -0.00953701 0)
(0.0991435 -0.0158626 0)
(0.0982929 -0.022121 0)
(0.0971622 -0.0282864 0)
(0.0957646 -0.0343488 0)
(0.0941114 -0.0403091 0)
(0.0922168 -0.0461692 0)
(0.0900999 -0.0519271 0)
(0.0877871 -0.0575788 0)
(0.085313 -0.0631227 0)
(0.0827216 -0.0685608 0)
(0.0800661 -0.0739001 0)
(0.0774065 -0.0791514 0)
(0.0748043 -0.0843267 0)
(0.0723133 -0.0894342 0)
(0.0699686 -0.0944722 0)
(0.0677756 -0.0994227 0)
(0.0657038 -0.104248 0)
(0.0636883 -0.10889 0)
(0.0616399 -0.113282 0)
(0.0594605 -0.117351 0)
(0.0570588 -0.121037 0)
(0.0543626 -0.124292 0)
(0.0513237 -0.12709 0)
(0.0479181 -0.129428 0)
(0.0441423 -0.131317 0)
(0.0400076 -0.132787 0)
(0.0355351 -0.133877 0)
(0.0307507 -0.134632 0)
(0.0256818 -0.135102 0)
(0.0203552 -0.135335 0)
(0.0147955 -0.135377 0)
(0.00902384 -0.135271 0)
(0.00305891 -0.135055 0)
(-0.00307976 -0.134765 0)
(-0.00937431 -0.13443 0)
(-0.0158127 -0.13408 0)
(-0.0223865 -0.133742 0)
(-0.0290896 -0.133437 0)
(-0.0359176 -0.133183 0)
(-0.0428675 -0.132994 0)
(-0.0499378 -0.132885 0)
(-0.0571277 -0.132864 0)
(-0.064437 -0.132941 0)
(-0.0718661 -0.133122 0)
(-0.0794157 -0.133414 0)
(-0.0870861 -0.13382 0)
(-0.0948777 -0.134345 0)
(-0.10279 -0.134992 0)
(-0.110822 -0.135761 0)
(-0.118972 -0.136655 0)
(-0.127235 -0.137673 0)
(-0.135606 -0.138813 0)
(-0.144076 -0.140073 0)
(-0.152633 -0.141447 0)
(-0.16126 -0.142927 0)
(-0.169934 -0.144501 0)
(-0.178625 -0.146152 0)
(-0.18728 -0.147857 0)
(-0.195824 -0.14958 0)
(-0.204186 -0.151281 0)
(-0.212357 -0.152901 0)
(-0.220333 -0.154347 0)
(-0.227943 -0.155522 0)
(-0.233515 -0.156445 0)
(-0.233402 -0.15788 0)
(-0.22669 -0.158267 0)
(-0.218312 -0.157949 0)
(-0.209396 -0.157019 0)
(-0.199886 -0.155376 0)
(-0.189729 -0.15289 0)
(-0.17898 -0.149455 0)
(-0.167726 -0.144987 0)
(-0.156069 -0.139435 0)
(-0.144117 -0.132796 0)
(-0.132013 -0.12514 0)
(-0.120016 -0.116636 0)
(-0.108553 -0.10758 0)
(-0.098175 -0.0983848 0)
(-0.0894753 -0.0895437 0)
(-0.0829515 -0.0815279 0)
(-0.0788382 -0.0746421 0)
(-0.0769987 -0.0689141 0)
(-0.0769841 -0.0641202 0)
(-0.0782213 -0.059928 0)
(-0.0801896 -0.0560385 0)
(-0.0825011 -0.0522467 0)
(-0.0849052 -0.0484391 0)
(-0.0872566 -0.0445685 0)
(-0.089476 -0.0406281 0)
(-0.0915203 -0.03663 0)
(-0.0933665 -0.0325867 0)
(-0.0950013 -0.0284975 0)
(-0.0964171 -0.0243395 0)
(-0.0976076 -0.020071 0)
(-0.0985655 -0.0156663 0)