/*--------------------------------*- C++ -*----------------------------------*\
  =========                 |
  \\      /  F ield         | OpenFOAM: The Open Source CFD Toolbox
   \\    /   O peration     | Website:  https://openfoam.org
    \\  /    A nd           | Version:  8
     \\/     M anipulation  |
\*---------------------------------------------------------------------------*/
FoamFile
{
    version     2.0;
    format      ascii;
    class       volScalarField;
    location    "900/fluid";
    object      CH4;
}
// * * * * * * * * * * * * * * * * * * * * * * * * * * * * * * * * * * * * * //

dimensions      [0 0 0 0 0 0 0];

internalField   nonuniform List<scalar> 
4000
(
0.999997
0.999986
0.999968
0.999938
0.999888
0.999804
0.999667
0.999442
0.999078
0.998496
0.997579
0.996157
0.993994
0.990778
0.986123
0.97958
0.970683
0.959002
0.944211
0.926132
0.904762
0.880254
0.852888
0.82303
0.791094
0.757514
0.722717
0.687116
0.651092
0.614995
0.579134
0.543779
0.509158
0.475462
0.442839
0.41141
0.381266
0.352468
0.325054
0.29904
0.274424
0.251191
0.229312
0.20875
0.18946
0.171394
0.154497
0.138716
0.123994
0.110275
0.0975055
0.0856312
0.074602
0.0643703
0.0548922
0.0461282
0.0380435
0.0307107
0.0240764
0.0178671
0.0122706
0.00729868
0.00327744
0.00229861
0.00159157
0.00108599
0.00072882
0.000480052
0.00030964
0.000195175
0.000120104
7.23714e-05
4.33797e-05
2.73015e-05
1.98783e-05
1.52557e-05
1.13148e-05
7.95493e-06
5.24694e-06
3.22275e-06
1.83994e-06
9.81199e-07
4.93299e-07
2.37577e-07
1.11053e-07
5.06876e-08
2.26889e-08
9.99279e-09
4.34142e-09
1.86442e-09
7.92805e-10
3.34285e-10
1.39917e-10
5.81668e-11
2.40058e-11
9.80641e-12
3.92867e-12
1.50273e-12
5.02539e-13
8.81406e-14
0.999997
0.999986
0.999968
0.999938
0.999887
0.999804
0.999666
0.99944
0.999075
0.998492
0.997575
0.996158
0.994009
0.990826
0.986231
0.97979
0.971045
0.959574
0.945043
0.927263
0.906208
0.882008
0.854924
0.825302
0.793549
0.76009
0.725355
0.689759
0.653692
0.617508
0.581527
0.546026
0.511241
0.477367
0.444561
0.412947
0.382619
0.353644
0.32606
0.299886
0.275121
0.251749
0.229744
0.209068
0.189676
0.171519
0.154541
0.138689
0.123905
0.110133
0.0973169
0.0854037
0.0743418
0.064083
0.0545828
0.045801
0.0377025
0.0303634
0.0237255
0.0175112
0.0119127
0.00694853
0.00322602
0.00226043
0.00156276
0.00106417
0.000712381
0.000467831
0.000300736
0.000188862
0.000115796
6.96027e-05
4.1801e-05
2.66807e-05
1.9698e-05
1.50245e-05
1.10246e-05
7.66158e-06
4.99607e-06
3.03964e-06
1.72593e-06
9.20329e-07
4.65152e-07
2.25695e-07
1.06431e-07
4.90204e-08
2.213e-08
9.81906e-09
4.29164e-09
1.85141e-09
7.89718e-10
3.33588e-10
1.39724e-10
5.80767e-11
2.39493e-11
9.77158e-12
3.90949e-12
1.49353e-12
4.98981e-13
8.74689e-14
0.999997
0.999986
0.999968
0.999938
0.999887
0.999803
0.999664
0.999438
0.999072
0.998489
0.997573
0.996159
0.994022
0.990864
0.986314
0.979949
0.97132
0.960011
0.945692
0.928168
0.907402
0.883508
0.856727
0.827391
0.795887
0.76263
0.728045
0.692541
0.65651
0.620311
0.584266
0.54866
0.513735
0.479696
0.446705
0.414892
0.384358
0.355174
0.327383
0.301007
0.276049
0.252494
0.230318
0.209483
0.189946
0.171655
0.154558
0.1386
0.123722
0.109868
0.0969813
0.0850073
0.0738938
0.0635921
0.0540568
0.0452473
0.0371279
0.0297825
0.0231414
0.01693
0.0113496
0.00639509
0.00318546
0.00222007
0.00152688
0.00103433
0.000688738
0.000449834
0.000287545
0.000179571
0.000109558
6.5698e-05
3.96733e-05
2.59362e-05
1.94177e-05
1.46995e-05
1.06714e-05
7.33723e-06
4.73874e-06
2.86206e-06
1.61852e-06
8.62523e-07
4.36935e-07
2.12745e-07
1.00772e-07
4.66444e-08
2.11653e-08
9.43788e-09
4.1441e-09
1.79507e-09
7.68321e-10
3.25437e-10
1.36585e-10
5.68473e-11
2.34592e-11
9.57379e-12
3.82988e-12
1.46268e-12
4.88479e-13
8.5577e-14
0.999997
0.999986
0.999968
0.999938
0.999887
0.999803
0.999665
0.99944
0.999076
0.998497
0.997589
0.99619
0.994076
0.990956
0.986466
0.980187
0.971677
0.960523
0.946393
0.929088
0.908561
0.884916
0.858381
0.829275
0.797976
0.764894
0.730443
0.695032
0.659048
0.622852
0.586769
0.551087
0.516054
0.481877
0.448726
0.416736
0.386013
0.356633
0.328644
0.302071
0.276921
0.253181
0.230829
0.209829
0.190137
0.171705
0.154482
0.13841
0.123431
0.109488
0.0965231
0.0844826
0.0733131
0.062965
0.0533925
0.0445542
0.0364142
0.0290735
0.0224446
0.0162414
0.0106588
0.00572218
0.00314641
0.00217892
0.00148873
0.00100174
0.00066254
0.000429798
0.000272897
0.000169335
0.000102766
6.15113e-05
3.74457e-05
2.51884e-05
1.90257e-05
1.42785e-05
1.0253e-05
6.97035e-06
4.45365e-06
2.66571e-06
1.49809e-06
7.95904e-07
4.03128e-07
1.96651e-07
9.34295e-08
4.34033e-08
1.97723e-08
8.85226e-09
3.9024e-09
1.69676e-09
7.28778e-10
3.0965e-10
1.3031e-10
5.43587e-11
2.24734e-11
9.18461e-12
3.6781e-12
1.40573e-12
4.69636e-13
8.22595e-14
0.999997
0.999986
0.999968
0.999938
0.999888
0.999804
0.999667
0.999443
0.999082
0.998507
0.997607
0.996221
0.994129
0.991042
0.986603
0.980398
0.97199
0.960967
0.946998
0.929878
0.909553
0.886117
0.859788
0.830877
0.799752
0.766816
0.73248
0.697147
0.661206
0.625016
0.588903
0.553159
0.518033
0.48374
0.450451
0.418307
0.387418
0.357864
0.329697
0.302946
0.27762
0.253711
0.231196
0.210039
0.190204
0.171642
0.154298
0.138117
0.123042
0.109014
0.095977
0.0838747
0.0726541
0.0622647
0.0526599
0.0437973
0.0356511
0.0283377
0.0217079
0.0154956
0.00992796
0.00505119
0.00310623
0.0021314
0.00144374
0.000963679
0.000632584
0.000407482
0.000257034
0.000158559
9.58079e-05
5.73245e-05
3.52943e-05
2.45139e-05
1.8531e-05
1.37748e-05
9.79443e-06
6.59632e-06
4.1792e-06
2.48489e-06
1.39071e-06
7.37725e-07
3.73898e-07
1.8276e-07
8.70622e-08
4.05643e-08
1.85335e-08
8.32096e-09
3.67769e-09
1.60279e-09
6.89825e-10
2.93618e-10
1.23748e-10
5.1685e-11
2.13891e-11
8.74811e-12
3.50524e-12
1.34016e-12
4.47789e-13
7.8402e-14
0.999997
0.999986
0.999968
0.999939
0.999889
0.999806
0.999669
0.999447
0.999089
0.99852
0.997629
0.996257
0.994188
0.991136
0.986747
0.980612
0.972295
0.961387
0.947554
0.930588
0.910428
0.88716
0.860995
0.832237
0.801248
0.768425
0.734176
0.698902
0.662989
0.626798
0.590655
0.554853
0.519646
0.48525
0.451841
0.419563
0.388529
0.358823
0.330501
0.303593
0.278113
0.254052
0.231391
0.210101
0.190141
0.171463
0.154013
0.137737
0.122578
0.108477
0.0953782
0.0832251
0.0719642
0.0615448
0.0519196
0.0430506
0.034895
0.0275908
0.0209489
0.0147462
0.00919741
0.00438064
0.00299656
0.00203473
0.00136724
0.000906641
0.000591762
0.000379227
0.000238092
0.000146295
8.82117e-05
5.2931e-05
3.31008e-05
2.3651e-05
1.79359e-05
1.32434e-05
9.34347e-06
6.2439e-06
3.9279e-06
2.32205e-06
1.29446e-06
6.8525e-07
3.47134e-07
1.69834e-07
8.10287e-08
3.78243e-08
1.73173e-08
7.79149e-09
3.45094e-09
1.507e-09
6.49823e-10
2.77066e-10
1.1695e-10
4.89094e-11
2.02625e-11
8.29455e-12
3.32565e-12
1.27205e-12
4.25106e-13
7.43981e-14
0.999997
0.999986
0.999969
0.999939
0.999889
0.999807
0.999672
0.999452
0.999097
0.998533
0.997651
0.996293
0.994245
0.991224
0.986879
0.980804
0.972567
0.961758
0.948041
0.931204
0.911181
0.888051
0.862018
0.833381
0.802498
0.769761
0.735576
0.700341
0.664443
0.628242
0.592065
0.556208
0.520926
0.486437
0.452922
0.420526
0.389366
0.359528
0.331072
0.304031
0.278417
0.254225
0.231443
0.210037
0.189969
0.171191
0.153651
0.137295
0.122066
0.107906
0.0947574
0.0825652
0.071276
0.0608397
0.0512104
0.0423424
0.0341942
0.0269693
0.0201816
0.014039
0.00854195
0.00378482
0.00264481
0.00182146
0.00123548
0.000824334
0.000540136
0.000346895
0.000217951
0.000133825
8.05766e-05
4.83729e-05
3.05111e-05
2.23307e-05
1.71034e-05
1.26652e-05
8.92931e-06
5.94746e-06
3.72428e-06
2.19203e-06
1.21796e-06
6.43489e-07
3.25721e-07
1.59406e-07
7.61084e-08
3.55611e-08
1.62984e-08
7.34117e-09
3.2551e-09
1.42303e-09
6.14255e-10
2.62156e-10
1.10755e-10
4.63554e-11
1.92173e-11
7.87091e-12
3.15703e-12
1.20784e-12
4.03669e-13
7.06075e-14
0.999997
0.999986
0.999969
0.999939
0.99989
0.999809
0.999675
0.999456
0.999105
0.998546
0.997672
0.996327
0.994298
0.991305
0.987
0.980979
0.972811
0.962086
0.948467
0.931737
0.911825
0.888806
0.862879
0.834337
0.803534
0.770861
0.736719
0.701509
0.665614
0.629396
0.593183
0.557271
0.521919
0.487347
0.453737
0.421237
0.389967
0.360015
0.331442
0.304283
0.278555
0.254258
0.231374
0.209871
0.189713
0.170853
0.153239
0.136818
0.121532
0.107324
0.0941366
0.0819137
0.0706014
0.0601488
0.0505084
0.0416368
0.0335349
0.026339
0.0195802
0.0134974
0.00809585
0.00348842
0.0024336
0.00167609
0.00113779
0.000760039
0.000498783
0.000321079
0.000202536
0.000125296
7.64166e-05
4.67976e-05
3.04783e-05
2.24107e-05
1.69643e-05
1.24286e-05
8.68852e-06
5.7463e-06
3.57688e-06
2.09464e-06
1.15922e-06
6.10724e-07
3.08565e-07
1.50903e-07
7.20298e-08
3.36572e-08
1.543e-08
6.95304e-09
3.08467e-09
1.34935e-09
5.82831e-10
2.48908e-10
1.05225e-10
4.40668e-11
1.8278e-11
7.48926e-12
3.00483e-12
1.14982e-12
3.84278e-13
6.71739e-14
0.999997
0.999987
0.999969
0.99994
0.999891
0.99981
0.999677
0.999461
0.999112
0.998558
0.997691
0.996358
0.994346
0.991378
0.987108
0.981133
0.973024
0.96237
0.948833
0.932192
0.912372
0.889443
0.863599
0.83513
0.804388
0.77176
0.737647
0.702449
0.666549
0.630308
0.594057
0.558093
0.522676
0.488029
0.454334
0.421744
0.390378
0.360329
0.331657
0.3044
0.278579
0.254191
0.231219
0.209636
0.189403
0.170476
0.152803
0.13633
0.121
0.106755
0.0935391
0.0812951
0.0699695
0.0595116
0.0498748
0.0410175
0.032956
0.0257824
0.0190549
0.0130179
0.00768139
0.00330767
0.00230686
0.00158809
0.00107728
0.00071873
0.000470647
0.000301892
0.000189417
0.000116346
7.0495e-05
4.32583e-05
2.88088e-05
2.18611e-05
1.67025e-05
1.22535e-05
8.53947e-06
5.61852e-06
3.47782e-06
2.02593e-06
1.11626e-06
5.86094e-07
2.95383e-07
1.44255e-07
6.87919e-08
3.21248e-08
1.47223e-08
6.6331e-09
2.94275e-09
1.28744e-09
5.56214e-10
2.3761e-10
1.00481e-10
4.2094e-11
1.7465e-11
7.15794e-12
2.87237e-12
1.09924e-12
3.67363e-13
6.41672e-14
0.999997
0.999987
0.999969
0.99994
0.999892
0.999812
0.99968
0.999465
0.999119
0.998569
0.997709
0.996385
0.994388
0.991442
0.987202
0.981267
0.973208
0.962614
0.949145
0.932577
0.912832
0.889974
0.864196
0.835783
0.805086
0.772489
0.738394
0.703199
0.667287
0.631021
0.594732
0.558719
0.523242
0.488527
0.454758
0.422088
0.390639
0.360505
0.331749
0.304412
0.278513
0.254049
0.231006
0.209357
0.189065
0.170084
0.152364
0.13585
0.120486
0.106214
0.0929768
0.080718
0.0693836
0.0589225
0.0492877
0.0404369
0.0324026
0.0252499
0.0185355
0.0125082
0.00717114
0.0032243
0.00224557
0.00154474
0.00104802
0.000700082
0.00045964
0.00029607
0.000186842
0.000115568
7.05965e-05
4.36861e-05
2.93677e-05
2.22074e-05
1.68345e-05
1.22676e-05
8.50193e-06
5.5614e-06
3.4198e-06
1.98044e-06
1.08588e-06
5.67932e-07
2.85367e-07
1.39097e-07
6.62377e-08
3.08991e-08
1.41497e-08
6.37176e-09
2.82587e-09
1.2361e-09
5.34012e-10
2.28139e-10
9.64887e-11
4.04281e-11
1.67766e-11
6.8768e-12
2.75979e-12
1.05621e-12
3.52972e-13
6.1599e-14
0.999997
0.999987
0.99997
0.999941
0.999893
0.999813
0.999682
0.999468
0.999125
0.998579
0.997724
0.996409
0.994426
0.991498
0.987283
0.981382
0.973365
0.962821
0.949409
0.9329
0.913215
0.890415
0.864687
0.836317
0.805652
0.773077
0.738991
0.703792
0.667866
0.631573
0.595248
0.559188
0.523658
0.488882
0.455048
0.422309
0.39079
0.360584
0.331759
0.304354
0.278388
0.253862
0.230761
0.209059
0.188719
0.169695
0.151938
0.135393
0.120003
0.105712
0.0924596
0.0801912
0.0688519
0.0583902
0.0487584
0.0399145
0.0318971
0.0247577
0.0180579
0.0120473
0.00672956
0.00319056
0.00221891
0.00152404
0.00103209
0.000687968
0.000450591
0.000289517
0.000182354
0.000112802
6.91267e-05
4.32177e-05
2.96628e-05
2.26056e-05
1.70942e-05
1.23966e-05
8.53967e-06
5.55094e-06
3.39338e-06
1.95329e-06
1.06559e-06
5.55049e-07
2.77986e-07
1.35204e-07
6.42733e-08
2.99424e-08
1.36973e-08
6.16315e-09
2.73179e-09
1.19447e-09
5.15903e-10
2.20376e-10
9.3203e-11
3.90526e-11
1.62067e-11
6.64362e-12
2.66622e-12
1.02041e-12
3.40982e-13
5.94645e-14
0.999997
0.999987
0.99997
0.999941
0.999893
0.999814
0.999684
0.999471
0.99913
0.998587
0.997737
0.99643
0.994457
0.991545
0.987352
0.981479
0.973498
0.962995
0.949628
0.933169
0.913532
0.890776
0.865089
0.836751
0.806109
0.773547
0.739464
0.704258
0.668315
0.631996
0.595635
0.559534
0.523955
0.489126
0.455236
0.422438
0.390859
0.360594
0.331711
0.304249
0.278229
0.253651
0.230504
0.208759
0.18838
0.169323
0.151538
0.134969
0.119561
0.105255
0.091993
0.079719
0.0683779
0.0579187
0.0482953
0.0394643
0.0314597
0.0243319
0.017645
0.0116488
0.00634524
0.00316885
0.00220551
0.00151631
0.00102808
0.000686214
0.000450091
0.000289628
0.000182697
0.000113202
6.96024e-05
4.38311e-05
3.05134e-05
2.32731e-05
1.75133e-05
1.26273e-05
8.64369e-06
5.58118e-06
3.38987e-06
1.94068e-06
1.05329e-06
5.46382e-07
2.72742e-07
1.32347e-07
6.27985e-08
2.92118e-08
1.33472e-08
6.00003e-09
2.65758e-09
1.16141e-09
5.0144e-10
2.14147e-10
9.0556e-11
3.79413e-11
1.57452e-11
6.45445e-12
2.59022e-12
9.9126e-13
3.31205e-13
5.77257e-14
0.999997
0.999987
0.99997
0.999941
0.999894
0.999815
0.999685
0.999474
0.999134
0.998594
0.997749
0.996448
0.994484
0.991585
0.98741
0.98156
0.973608
0.963139
0.94981
0.93339
0.913791
0.891071
0.865414
0.8371
0.806474
0.773919
0.739836
0.70462
0.668659
0.632316
0.595924
0.559785
0.524164
0.48929
0.455351
0.422503
0.390874
0.36056
0.331627
0.304118
0.278053
0.253435
0.23025
0.208471
0.188063
0.16898
0.151173
0.134587
0.119165
0.104849
0.0915818
0.0793058
0.0679672
0.0575148
0.0478984
0.0390708
0.0310796
0.0239666
0.0172934
0.0113109
0.00602078
0.00315048
0.00219569
0.00151145
0.00102606
0.00068576
0.000450453
0.000290364
0.000183563
0.000114081
7.04721e-05
4.47479e-05
3.15852e-05
2.40727e-05
1.80237e-05
1.2921e-05
8.7907e-06
5.64035e-06
3.40478e-06
1.93847e-06
1.04746e-06
5.41181e-07
2.69262e-07
1.30362e-07
6.17419e-08
2.86766e-08
1.30864e-08
5.87688e-09
2.60096e-09
1.13597e-09
4.90227e-10
2.09289e-10
8.84819e-11
3.70672e-11
1.53812e-11
6.30492e-12
2.5301e-12
9.68153e-13
3.23457e-13
5.63434e-14
0.999997
0.999987
0.99997
0.999942
0.999894
0.999816
0.999687
0.999476
0.999138
0.9986
0.997758
0.996462
0.994507
0.991619
0.987458
0.981627
0.973698
0.963258
0.949959
0.933569
0.914001
0.891309
0.865674
0.837377
0.806762
0.774212
0.740125
0.704899
0.668922
0.632555
0.596135
0.559963
0.524306
0.489392
0.455413
0.422524
0.390853
0.360498
0.331525
0.303978
0.277877
0.253226
0.230011
0.208205
0.187774
0.168671
0.150848
0.134249
0.118818
0.104496
0.0912264
0.0789525
0.0676182
0.0571682
0.0475543
0.0387353
0.0307585
0.0236582
0.0169971
0.011027
0.00575008
0.0031352
0.00218957
0.00151037
0.00102745
0.000688148
0.000453023
0.000292716
0.000185551
0.000115703
7.18033e-05
4.59089e-05
3.27017e-05
2.49045e-05
1.85674e-05
1.32448e-05
8.96248e-06
5.71839e-06
3.43302e-06
1.94477e-06
1.0464e-06
5.38856e-07
2.6729e-07
1.29132e-07
6.10468e-08
2.83104e-08
1.29028e-08
5.78835e-09
2.55961e-09
1.11715e-09
4.81853e-10
2.05633e-10
8.69109e-11
3.64019e-11
1.5103e-11
6.19063e-12
2.48399e-12
9.50409e-13
3.17602e-13
5.52933e-14
0.999997
0.999987
0.99997
0.999942
0.999895
0.999816
0.999688
0.999478
0.999141
0.998605
0.997766
0.996474
0.994525
0.991646
0.987497
0.981682
0.973772
0.963353
0.950078
0.933713
0.914168
0.891497
0.86588
0.837596
0.806988
0.774439
0.740347
0.705112
0.669118
0.632732
0.596287
0.560088
0.5244
0.489454
0.45544
0.422517
0.390812
0.360423
0.331418
0.30384
0.277711
0.253034
0.229795
0.207969
0.18752
0.168403
0.150568
0.13396
0.118524
0.104201
0.0909315
0.0786567
0.0673213
0.0568748
0.0472682
0.0384575
0.0304932
0.0234031
0.0167512
0.0107891
0.00553237
0.00312266
0.00218605
0.00151162
0.00103088
0.000692232
0.000456949
0.000296108
0.000188299
0.000117848
7.34671e-05
4.72492e-05
3.38594e-05
2.57645e-05
1.91399e-05
1.3595e-05
9.15596e-06
5.81292e-06
3.47283e-06
1.95854e-06
1.04967e-06
5.38731e-07
2.66544e-07
1.28511e-07
6.06539e-08
2.80865e-08
1.27846e-08
5.7291e-09
2.53118e-09
1.104e-09
4.75903e-10
2.0301e-10
8.57716e-11
3.59185e-11
1.48983e-11
6.10946e-12
2.45017e-12
9.3791e-13
3.13369e-13
5.45319e-14
0.999997
0.999987
0.99997
0.999942
0.999895
0.999817
0.999689
0.99948
0.999143
0.998609
0.997772
0.996484
0.994539
0.991667
0.987528
0.981725
0.97383
0.963428
0.950172
0.933826
0.914299
0.891644
0.86604
0.837764
0.807161
0.774611
0.740515
0.70527
0.669264
0.63286
0.596395
0.560172
0.52446
0.489487
0.455446
0.422496
0.390763
0.360347
0.331316
0.303715
0.277564
0.252867
0.22961
0.207769
0.187306
0.168179
0.150336
0.133724
0.118284
0.103956
0.0906837
0.0784095
0.067078
0.0566368
0.0470368
0.0382336
0.03028
0.0231987
0.0165544
0.0105989
0.00535852
0.00311259
0.00218499
0.00151512
0.00103625
0.000697936
0.000462181
0.000300524
0.000191827
0.000120568
7.55328e-05
4.88432e-05
3.51459e-05
2.66959e-05
1.97589e-05
1.3977e-05
9.37179e-06
5.92292e-06
3.52291e-06
1.97874e-06
1.05673e-06
5.40694e-07
2.66806e-07
1.2837e-07
6.04812e-08
2.79701e-08
1.27156e-08
5.69421e-09
2.51301e-09
1.09557e-09
4.71935e-10
2.01265e-10
8.49902e-11
3.56107e-11
1.47559e-11
6.06408e-12
2.42839e-12
9.30734e-13
3.10766e-13
5.40519e-14
0.999997
0.999987
0.99997
0.999942
0.999895
0.999817
0.999689
0.999481
0.999145
0.998612
0.997777
0.996491
0.994551
0.991684
0.987552
0.981758
0.973874
0.963485
0.950243
0.933912
0.914399
0.891755
0.86616
0.83789
0.80729
0.774739
0.740639
0.705386
0.669368
0.632951
0.596469
0.560229
0.524497
0.489503
0.455442
0.42247
0.390717
0.36028
0.33123
0.30361
0.277443
0.252731
0.229461
0.207609
0.187137
0.168003
0.150153
0.133535
0.11809
0.103761
0.0904897
0.0782178
0.06689
0.0564534
0.046859
0.0380622
0.0301167
0.0230424
0.0164037
0.0104526
0.00522317
0.00310472
0.00218604
0.0015205
0.00104321
0.000704902
0.000468365
0.000305619
0.000195813
0.000123577
7.77701e-05
5.05301e-05
3.64724e-05
2.76566e-05
2.04029e-05
1.43786e-05
9.60221e-06
6.04339e-06
3.58005e-06
2.00338e-06
1.06639e-06
5.44093e-07
2.67828e-07
1.28616e-07
6.04977e-08
2.79414e-08
1.26891e-08
5.67652e-09
2.50417e-09
1.09092e-09
4.69757e-10
2.00383e-10
8.45448e-11
3.54807e-11
1.46813e-11
6.0449e-12
2.4173e-12
9.27523e-13
3.09474e-13
5.38045e-14
0.999997
0.999987
0.99997
0.999942
0.999895
0.999818
0.99969
0.999482
0.999146
0.998614
0.99778
0.996497
0.994559
0.991696
0.987569
0.981782
0.973906
0.963527
0.950295
0.933974
0.91447
0.891834
0.866246
0.83798
0.807381
0.77483
0.740725
0.705467
0.66944
0.633012
0.596519
0.560265
0.524518
0.48951
0.455433
0.422446
0.390677
0.360227
0.331164
0.303531
0.277352
0.252629
0.22935
0.207488
0.187009
0.167868
0.150014
0.133393
0.117947
0.103618
0.0903481
0.0780786
0.0667541
0.0563217
0.0467321
0.0379403
0.0300006
0.0229315
0.0162965
0.0103474
0.00512385
0.00309895
0.00218906
0.00152766
0.00105171
0.000713191
0.000475667
0.00031164
0.00020054
0.000127152
8.04035e-05
5.24524e-05
3.78865e-05
2.86413e-05
2.105e-05
1.47784e-05
9.8316e-06
6.16442e-06
3.63857e-06
2.02936e-06
1.07703e-06
5.48116e-07
2.69211e-07
1.29125e-07
6.0618e-08
2.80035e-08
1.26913e-08
5.68294e-09
2.50142e-09
1.09167e-09
4.68955e-10
2.00508e-10
8.44045e-11
3.5498e-11
1.46595e-11
6.04685e-12
2.41432e-12
9.27163e-13
3.09191e-13
5.37353e-14
0.999997
0.999987
0.99997
0.999942
0.999895
0.999818
0.99969
0.999482
0.999147
0.998615
0.997782
0.9965
0.994564
0.991704
0.98758
0.981797
0.973927
0.963553
0.950328
0.934013
0.914516
0.891885
0.866301
0.838038
0.807439
0.774887
0.74078
0.705517
0.669485
0.63305
0.596549
0.560286
0.52453
0.489511
0.455424
0.422427
0.390648
0.360188
0.331115
0.303474
0.277287
0.252557
0.229272
0.207406
0.186923
0.167778
0.149922
0.1333
0.117854
0.103526
0.0902573
0.0779899
0.0666682
0.0562391
0.0466531
0.0378652
0.0299292
0.0228634
0.0162304
0.010281
0.00505858
0.00309505
0.00219347
0.00153566
0.00106059
0.000721506
0.000482766
0.000317344
0.000204927
0.000130417
8.2782e-05
5.41699e-05
3.91308e-05
2.9502e-05
2.16115e-05
1.51226e-05
1.00279e-05
6.26786e-06
3.68878e-06
2.05184e-06
1.08634e-06
5.51693e-07
2.70311e-07
1.29917e-07
6.07551e-08
2.81554e-08
1.27135e-08
5.70924e-09
2.50465e-09
1.0957e-09
4.69365e-10
2.01092e-10
8.44558e-11
3.55831e-11
1.46673e-11
6.05883e-12
2.41577e-12
9.2825e-13
3.09416e-13
5.37581e-14
0.999997
0.999987
0.99997
0.999942
0.999895
0.999818
0.99969
0.999482
0.999148
0.998616
0.997783
0.996502
0.994567
0.991707
0.987586
0.981805
0.973937
0.963566
0.950344
0.934032
0.914537
0.89191
0.866327
0.838065
0.807467
0.774914
0.740806
0.705541
0.669507
0.633068
0.596563
0.560296
0.524535
0.489512
0.45542
0.422417
0.390634
0.360169
0.331092
0.303447
0.277256
0.252523
0.229235
0.207366
0.186881
0.167735
0.149878
0.133256
0.11781
0.103483
0.0902147
0.0779487
0.0666287
0.0562016
0.0466179
0.0378323
0.0298984
0.0228344
0.016202
0.0102512
0.00502638
0.00309326
0.00219848
0.0015433
0.00106864
0.000728881
0.000488999
0.000322328
0.000208741
0.000133229
8.47869e-05
5.55488e-05
4.00311e-05
3.00747e-05
2.19647e-05
1.53306e-05
1.01433e-05
6.32752e-06
3.71742e-06
2.06461e-06
1.09165e-06
5.53853e-07
2.70841e-07
1.3046e-07
6.08653e-08
2.82544e-08
1.27327e-08
5.7259e-09
2.50771e-09
1.09832e-09
4.69807e-10
2.01476e-10
8.45183e-11
3.56384e-11
1.46767e-11
6.06652e-12
2.41731e-12
9.29006e-13
3.09621e-13
5.37862e-14
0.999997
0.999987
0.99997
0.999942
0.999895
0.999818
0.99969
0.999482
0.999148
0.998616
0.997783
0.996502
0.994567
0.991707
0.987586
0.981805
0.973937
0.963566
0.950343
0.934032
0.914537
0.89191
0.866327
0.838065
0.807467
0.774914
0.740806
0.705541
0.669507
0.633068
0.596563
0.560295
0.524535
0.489511
0.455419
0.422417
0.390634
0.360169
0.331092
0.303447
0.277256
0.252523
0.229235
0.207366
0.186881
0.167735
0.149879
0.133256
0.11781
0.103483
0.0902148
0.0779487
0.0666287
0.0562016
0.0466179
0.0378323
0.0298984
0.0228345
0.016202
0.0102512
0.00502641
0.00309315
0.00219827
0.00154301
0.00106831
0.000728542
0.000488694
0.000322079
0.000208555
0.000133103
8.47096e-05
5.55081e-05
4.00151e-05
3.00695e-05
2.19632e-05
1.53303e-05
1.01432e-05
6.32751e-06
3.71742e-06
2.0646e-06
1.09165e-06
5.53886e-07
2.70846e-07
1.30434e-07
6.08708e-08
2.82431e-08
1.27324e-08
5.72307e-09
2.5074e-09
1.09776e-09
4.6973e-10
2.0137e-10
8.44995e-11
3.56184e-11
1.46726e-11
6.0631e-12
2.41654e-12
9.28536e-13
3.09503e-13
5.37672e-14
0.999997
0.999987
0.99997
0.999942
0.999895
0.999818
0.99969
0.999482
0.999147
0.998615
0.997782
0.9965
0.994564
0.991704
0.98758
0.981797
0.973927
0.963553
0.950328
0.934013
0.914516
0.891885
0.866301
0.838038
0.807439
0.774887
0.74078
0.705517
0.669485
0.63305
0.596549
0.560286
0.52453
0.489512
0.455424
0.422427
0.390648
0.360188
0.331115
0.303474
0.277287
0.252557
0.229272
0.207406
0.186923
0.167778
0.149922
0.1333
0.117854
0.103526
0.0902575
0.0779901
0.0666684
0.0562393
0.0466533
0.0378654
0.0299294
0.0228636
0.0162306
0.0102812
0.00505874
0.00309505
0.00219356
0.00153584
0.00106082
0.000721749
0.000482996
0.000317542
0.000205082
0.000130529
8.2854e-05
5.42099e-05
3.91469e-05
2.95073e-05
2.16131e-05
1.5123e-05
1.0028e-05
6.26791e-06
3.6888e-06
2.05184e-06
1.08634e-06
5.5175e-07
2.70307e-07
1.29874e-07
6.07725e-08
2.81284e-08
1.27132e-08
5.70224e-09
2.50402e-09
1.09429e-09
4.69194e-10
2.00818e-10
8.44115e-11
3.55316e-11
1.46573e-11
6.04993e-12
2.41387e-12
9.27017e-13
3.0912e-13
5.37106e-14
0.999997
0.999987
0.99997
0.999942
0.999895
0.999818
0.99969
0.999482
0.999146
0.998614
0.99778
0.996497
0.994559
0.991696
0.987569
0.981782
0.973906
0.963527
0.950294
0.933973
0.91447
0.891834
0.866245
0.83798
0.807381
0.774829
0.740725
0.705466
0.66944
0.633012
0.596519
0.560265
0.524518
0.48951
0.455433
0.422445
0.390677
0.360227
0.331163
0.303531
0.277352
0.252629
0.22935
0.207489
0.187009
0.167868
0.150014
0.133393
0.117947
0.103619
0.0903483
0.0780788
0.0667543
0.0563219
0.0467323
0.0379405
0.0300008
0.0229317
0.0162968
0.0103476
0.00512406
0.00309886
0.00218894
0.00152752
0.00105156
0.000713036
0.000475516
0.000311502
0.000200423
0.000127061
8.03396e-05
5.24137e-05
3.78693e-05
2.86352e-05
2.10481e-05
1.47779e-05
9.83151e-06
6.16442e-06
3.63858e-06
2.02937e-06
1.07704e-06
5.4814e-07
2.69201e-07
1.29107e-07
6.06304e-08
2.79839e-08
1.26909e-08
5.6777e-09
2.50097e-09
1.0905e-09
4.68844e-10
2.0024e-10
8.43661e-11
3.54438e-11
1.46498e-11
6.03685e-12
2.41233e-12
9.25682e-13
3.0888e-13
5.36849e-14
0.999997
0.999987
0.99997
0.999942
0.999895
0.999817
0.999689
0.999481
0.999145
0.998612
0.997777
0.996491
0.994551
0.991684
0.987552
0.981758
0.973874
0.963485
0.950243
0.933911
0.914398
0.891754
0.866159
0.83789
0.807289
0.774739
0.740638
0.705386
0.669368
0.63295
0.596469
0.560229
0.524497
0.489503
0.455442
0.42247
0.390717
0.36028
0.33123
0.30361
0.277443
0.252731
0.229461
0.207609
0.187138
0.168003
0.150154
0.133535
0.11809
0.103762
0.09049
0.0782181
0.0668903
0.0564537
0.0468594
0.0380625
0.030117
0.0230427
0.016404
0.0104529
0.00522344
0.00310471
0.00218605
0.00152053
0.00104325
0.000704962
0.000468433
0.00030569
0.00019588
0.000123635
7.78152e-05
5.05596e-05
3.64861e-05
2.76616e-05
2.04046e-05
1.43791e-05
9.60239e-06
6.04346e-06
3.58009e-06
2.00339e-06
1.0664e-06
5.44099e-07
2.67828e-07
1.28616e-07
6.04977e-08
2.79391e-08
1.26887e-08
5.67581e-09
2.50388e-09
1.09071e-09
4.69695e-10
2.00282e-10
8.45257e-11
3.54506e-11
1.46762e-11
6.03759e-12
2.41604e-12
9.26226e-13
3.09278e-13
5.37721e-14
0.999997
0.999987
0.99997
0.999942
0.999895
0.999817
0.999688
0.99948
0.999143
0.998609
0.997772
0.996484
0.994539
0.991667
0.987528
0.981725
0.973829
0.963428
0.950171
0.933826
0.914299
0.891643
0.866039
0.837764
0.80716
0.774611
0.740514
0.70527
0.669263
0.632859
0.596394
0.560172
0.52446
0.489487
0.455446
0.422496
0.390763
0.360347
0.331316
0.303715
0.277564
0.252867
0.22961
0.207769
0.187306
0.168179
0.150337
0.133724
0.118284
0.103957
0.0906842
0.07841
0.0670785
0.0566372
0.0470372
0.038234
0.0302803
0.023199
0.0165547
0.0105992
0.0053588
0.00311257
0.00218497
0.0015151
0.00103623
0.000697921
0.000462163
0.000300501
0.000191801
0.000120541
7.55088e-05
4.88252e-05
3.5136e-05
2.66918e-05
1.97576e-05
1.39767e-05
9.37176e-06
5.92296e-06
3.52294e-06
1.97876e-06
1.05674e-06
5.407e-07
2.6681e-07
1.28372e-07
6.04823e-08
2.79703e-08
1.27163e-08
5.69407e-09
2.51305e-09
1.09551e-09
4.7192e-10
2.0125e-10
8.49839e-11
3.56028e-11
1.47548e-11
6.06021e-12
2.42808e-12
9.29848e-13
3.10676e-13
5.40381e-14
0.999997
0.999987
0.99997
0.999942
0.999895
0.999816
0.999688
0.999478
0.999141
0.998605
0.997766
0.996474
0.994525
0.991646
0.987497
0.981682
0.973771
0.963352
0.950077
0.933713
0.914168
0.891496
0.865879
0.837595
0.806987
0.774438
0.740346
0.705111
0.669118
0.632731
0.596286
0.560087
0.5244
0.489453
0.45544
0.422517
0.390811
0.360422
0.331418
0.30384
0.277711
0.253034
0.229796
0.20797
0.18752
0.168403
0.150568
0.13396
0.118524
0.104201
0.0909315
0.0786568
0.0673213
0.0568749
0.0472684
0.0384578
0.0304934
0.0234034
0.0167515
0.0107894
0.00553264
0.00312267
0.00218606
0.00151161
0.00103087
0.000692223
0.000456939
0.000296101
0.000188295
0.000117848
7.3471e-05
4.72542e-05
3.38631e-05
2.57665e-05
1.91409e-05
1.35955e-05
9.15619e-06
5.81303e-06
3.47289e-06
1.95857e-06
1.04968e-06
5.38742e-07
2.66551e-07
1.28515e-07
6.06561e-08
2.80876e-08
1.27852e-08
5.72938e-09
2.53131e-09
1.10404e-09
4.75923e-10
2.03016e-10
8.57748e-11
3.59196e-11
1.48993e-11
6.1084e-12
2.45034e-12
9.37571e-13
3.13371e-13
5.45335e-14
0.999997
0.999987
0.99997
0.999942
0.999894
0.999816
0.999687
0.999476
0.999138
0.9986
0.997758
0.996462
0.994506
0.991618
0.987458
0.981627
0.973698
0.963257
0.949958
0.933569
0.914
0.891308
0.865673
0.837376
0.806761
0.774211
0.740124
0.704899
0.668921
0.632554
0.596134
0.559963
0.524306
0.489392
0.455413
0.422524
0.390853
0.360497
0.331524
0.303977
0.277877
0.253226
0.230011
0.208205
0.187774
0.168672
0.150848
0.13425
0.118818
0.104497
0.0912272
0.0789534
0.0676191
0.0571691
0.0475551
0.0387361
0.0307591
0.0236587
0.0169975
0.0110273
0.00575033
0.0031352
0.00218956
0.00151037
0.00102747
0.00068818
0.000453059
0.00029275
0.000185579
0.000115721
7.18131e-05
4.59124e-05
3.27018e-05
2.4904e-05
1.85672e-05
1.32449e-05
8.96257e-06
5.71847e-06
3.43307e-06
1.9448e-06
1.04642e-06
5.38869e-07
2.67299e-07
1.29137e-07
6.10497e-08
2.83119e-08
1.29036e-08
5.78873e-09
2.55978e-09
1.11723e-09
4.81888e-10
2.05648e-10
8.69178e-11
3.64048e-11
1.51043e-11
6.19105e-12
2.48424e-12
9.50437e-13
3.17638e-13
5.53011e-14
0.999997
0.999987
0.99997
0.999941
0.999894
0.999815
0.999685
0.999474
0.999134
0.998594
0.997748
0.996448
0.994484
0.991585
0.98741
0.98156
0.973607
0.963139
0.94981
0.933389
0.91379
0.89107
0.865413
0.837098
0.806473
0.773918
0.739834
0.704619
0.668658
0.632315
0.595923
0.559784
0.524164
0.489289
0.455351
0.422503
0.390874
0.360561
0.331628
0.304119
0.278054
0.253435
0.23025
0.208471
0.188063
0.16898
0.151173
0.134587
0.119165
0.104849
0.0915819
0.0793057
0.067967
0.0575146
0.047898
0.0390705
0.0310794
0.0239666
0.0172935
0.0113111
0.006021
0.00315054
0.00219578
0.00151155
0.00102612
0.000685774
0.000450437
0.000290333
0.000183533
0.00011406
7.04609e-05
4.47444e-05
3.15851e-05
2.40738e-05
1.80246e-05
1.29215e-05
8.79096e-06
5.64048e-06
3.40484e-06
1.93851e-06
1.04748e-06
5.41196e-07
2.69272e-07
1.30368e-07
6.17454e-08
2.86785e-08
1.30873e-08
5.87733e-09
2.60117e-09
1.13607e-09
4.90271e-10
2.09309e-10
8.84906e-11
3.7071e-11
1.53828e-11
6.30559e-12
2.53041e-12
9.68257e-13
3.23497e-13
5.63525e-14
0.999997
0.999987
0.99997
0.999941
0.999893
0.999814
0.999684
0.999471
0.99913
0.998587
0.997737
0.99643
0.994457
0.991545
0.987352
0.981479
0.973497
0.962995
0.949628
0.933168
0.913531
0.890775
0.865088
0.83675
0.806108
0.773546
0.739463
0.704257
0.668313
0.631995
0.595634
0.559533
0.523955
0.489125
0.455235
0.422437
0.390857
0.360593
0.33171
0.304248
0.278228
0.253651
0.230504
0.208759
0.188381
0.169324
0.151538
0.13497
0.119561
0.105255
0.0919936
0.0797197
0.0683788
0.0579197
0.0482965
0.0394656
0.0314609
0.0243328
0.0176457
0.0116492
0.00634542
0.00316878
0.00220528
0.00151599
0.00102776
0.000685952
0.000449907
0.000289513
0.000182635
0.000113167
6.9578e-05
4.38119e-05
3.04999e-05
2.32664e-05
1.75107e-05
1.26265e-05
8.64356e-06
5.58121e-06
3.38991e-06
1.94071e-06
1.05332e-06
5.46399e-07
2.72753e-07
1.32354e-07
6.28024e-08
2.92139e-08
1.33482e-08
6.00053e-09
2.65782e-09
1.16152e-09
5.01489e-10
2.14169e-10
9.05657e-11
3.79456e-11