/*--------------------------------*- C++ -*----------------------------------*\
  =========                 |
  \\      /  F ield         | OpenFOAM: The Open Source CFD Toolbox
   \\    /   O peration     | Website:  https://openfoam.org
    \\  /    A nd           | Version:  8
     \\/     M anipulation  |
\*---------------------------------------------------------------------------*/
FoamFile
{
    version     2.0;
    format      ascii;
    class       volScalarField;
    location    "900/fluid";
    object      CO2;
}
// * * * * * * * * * * * * * * * * * * * * * * * * * * * * * * * * * * * * * //

dimensions      [0 0 0 0 0 0 0];

internalField   nonuniform List<scalar> 
4000
(
4.73872e-07
2.07067e-06
4.75564e-06
9.25621e-06
1.6768e-05
2.92367e-05
4.97913e-05
8.33921e-05
0.000137769
0.000224722
0.000361817
0.00057441
0.000897713
0.0013783
0.00207414
0.00305205
0.00438188
0.00612778
0.00833867
0.0110409
0.0142353
0.0178988
0.0219895
0.0264529
0.0312269
0.0362469
0.0414488
0.0467713
0.052157
0.0575539
0.0629157
0.0682019
0.0733785
0.0784171
0.0832951
0.0879946
0.0925018
0.0968074
0.100905
0.104793
0.10847
0.111939
0.115203
0.118266
0.121134
0.123814
0.12631
0.128629
0.130775
0.132752
0.134563
0.136208
0.137683
0.138983
0.140095
0.141004
0.141684
0.142093
0.142192
0.141913
0.141162
0.139811
0.13707
0.126535
0.115825
0.10512
0.0945588
0.0842504
0.0742821
0.0647248
0.0556384
0.0470757
0.0390862
0.0317563
0.0250581
0.0190977
0.0139391
0.00964575
0.00626442
0.00378983
0.00213204
0.00112098
0.000556058
0.00026447
0.000122206
5.5191e-05
2.44665e-05
1.06808e-05
4.60302e-06
1.96231e-06
8.28898e-07
3.47414e-07
1.44634e-07
5.98419e-08
2.45947e-08
1.00114e-08
3.99917e-09
1.52632e-09
5.09693e-10
8.93469e-11
4.74327e-07
2.07314e-06
4.76343e-06
9.27713e-06
1.68176e-05
2.93422e-05
4.99942e-05
8.37438e-05
0.000138308
0.000225413
0.000362421
0.000574262
0.0008954
0.00137119
0.00205796
0.00302071
0.00432768
0.00604233
0.00821424
0.0108718
0.014019
0.0176363
0.0216849
0.0261128
0.0308596
0.0358614
0.0410541
0.0463756
0.0517678
0.0571775
0.0625572
0.0678652
0.0730664
0.0781314
0.0830368
0.087764
0.0922986
0.0966307
0.100754
0.104666
0.108365
0.111854
0.115136
0.118216
0.121099
0.123792
0.1263
0.128628
0.130783
0.132768
0.134584
0.136233
0.137712
0.139015
0.140129
0.141039
0.141719
0.142127
0.142223
0.141941
0.141183
0.139821
0.136237
0.125633
0.114868
0.104118
0.0935199
0.0831817
0.0731904
0.0636179
0.054525
0.0459667
0.0379952
0.0307021
0.0240621
0.0181881
0.0131461
0.00899764
0.00577902
0.00346406
0.00193898
0.00102015
0.000509247
0.000244309
0.000114033
5.20342e-05
2.32919e-05
1.02548e-05
4.45054e-06
1.90769e-06
8.09039e-07
3.39991e-07
1.41761e-07
5.8692e-08
2.41228e-08
9.81584e-09
3.91905e-09
1.49502e-09
4.99067e-10
8.74839e-11
4.75408e-07
2.07813e-06
4.77611e-06
9.30467e-06
1.68723e-05
2.9443e-05
5.01665e-05
8.40147e-05
0.00013869
0.000225866
0.000362765
0.000574
0.000893414
0.00136551
0.00204547
0.00299687
0.00428654
0.00597688
0.00811714
0.0107364
0.0138404
0.0174119
0.021415
0.0258002
0.0305097
0.0354811
0.0406514
0.045959
0.0513457
0.0567578
0.0621469
0.0674705
0.0726924
0.0777821
0.0827151
0.0874719
0.0920373
0.0964005
0.100555
0.104496
0.108224
0.11174
0.115048
0.118151
0.121055
0.123767
0.126291
0.128635
0.130802
0.132797
0.134623
0.136279
0.137763
0.139069
0.140186
0.141096
0.141775
0.142179
0.142269
0.141977
0.141204
0.139819
0.134765
0.124111
0.113301
0.102514
0.0918903
0.0815398
0.0715513
0.0619984
0.0529441
0.0444455
0.0365576
0.0293613
0.0228605
0.0171531
0.0122997
0.00835148
0.00532667
0.00317769
0.00177563
0.000935462
0.000468746
0.00022589
0.000105966
4.86045e-05
2.18682e-05
9.67463e-06
4.21726e-06
1.81466e-06
7.72057e-07
3.25276e-07
1.35881e-07
5.63289e-08
2.31686e-08
9.43061e-09
3.76539e-09
1.43625e-09
4.79361e-10
8.40081e-11
4.74849e-07
2.07566e-06
4.77026e-06
9.29244e-06
1.68469e-05
2.93884e-05
5.00463e-05
8.37495e-05
0.000138117
0.000224672
0.000360386
0.000569502
0.000885353
0.00135171
0.00202283
0.00296131
0.00423318
0.00590035
0.00801222
0.0105987
0.0136669
0.0172012
0.0211676
0.0255183
0.0301968
0.0351422
0.0402922
0.045586
0.0509654
0.0563768
0.0617715
0.0671064
0.0723445
0.0774547
0.0824115
0.0871947
0.0917882
0.0961805
0.100364
0.104335
0.108091
0.111635
0.114968
0.118095
0.121021
0.123753
0.126295
0.128654
0.130834
0.13284
0.134675
0.136338
0.137826
0.139135
0.140252
0.14116
0.141833
0.142229
0.142307
0.141998
0.141201
0.139783
0.132934
0.122262
0.111432
0.100631
0.0900048
0.0796676
0.0697107
0.0602096
0.051229
0.0428274
0.0350611
0.0279824
0.0216503
0.0161278
0.0114704
0.00772031
0.00488191
0.00289109
0.00160736
0.00084486
0.000423447
0.000204466
9.62002e-05
4.42798e-05
1.99974e-05
8.88108e-06
3.88609e-06
1.67825e-06
7.16433e-07
3.02759e-07
1.2681e-07
5.26871e-08
2.17108e-08
8.85025e-09
3.53765e-09
1.35046e-09
4.50937e-10
7.90337e-11
4.72926e-07
2.06715e-06
4.75029e-06
9.25224e-06
1.67706e-05
2.92471e-05
4.97874e-05
8.32784e-05
0.000137266
0.00022315
0.000357704
0.000564861
0.000877505
0.00133879
0.00200223
0.00292963
0.00418631
0.00583382
0.00792168
0.0104805
0.0135184
0.0170213
0.0209568
0.0252783
0.0299308
0.0348541
0.039987
0.0452688
0.0506418
0.0560523
0.0614513
0.0667954
0.0720472
0.0771747
0.082152
0.0869581
0.0915763
0.0959945
0.100204
0.104201
0.107984
0.111552
0.114909
0.118058
0.121005
0.123755
0.126313
0.128686
0.130878
0.132894
0.134735
0.136403
0.137893
0.139201
0.140314
0.141216
0.141878
0.142257
0.142317
0.141982
0.141149
0.139688
0.131007
0.120344
0.109509
0.0987067
0.0880904
0.0777796
0.0678686
0.0584338
0.0495402
0.0412457
0.0336183
0.0266788
0.0205177
0.0151802
0.0107139
0.00715296
0.00448824
0.00264108
0.00146221
0.000767157
0.000384576
0.000185976
8.769e-05
4.0462e-05
1.83194e-05
8.15586e-06
3.57698e-06
1.54801e-06
6.62084e-07
2.80255e-07
1.17552e-07
4.88993e-08
2.01699e-08
8.22855e-09
3.29108e-09
1.25684e-09
4.19753e-10
7.35609e-11
4.69937e-07
2.05397e-06
4.71944e-06
9.19055e-06
1.66549e-05
2.90371e-05
4.94129e-05
8.26194e-05
0.000136121
0.000221184
0.000354385
0.000559362
0.000868598
0.00132474
0.0019807
0.00289772
0.00414069
0.00577101
0.00783845
0.0103742
0.0133874
0.0168652
0.020776
0.0250745
0.0297066
0.0346129
0.0397326
0.0450055
0.0503742
0.0557847
0.0611881
0.0665407
0.0718045
0.0769472
0.0819424
0.0867684
0.0914081
0.0958488
0.100082
0.104102
0.107906
0.111497
0.114874
0.118043
0.121007
0.123772
0.126344
0.128729
0.13093
0.132953
0.134798
0.136467
0.137956
0.139258
0.140362
0.14125
0.141895
0.14225
0.142283
0.141916
0.141047
0.13956
0.12934
0.118631
0.10775
0.0969192
0.0862986
0.0760088
0.0661427
0.0567751
0.0479698
0.0397841
0.0322992
0.0255133
0.0195018
0.0143286
0.0100366
0.00664736
0.0041384
0.00241861
0.00133216
0.000696664
0.000348703
0.000168636
7.95809e-05
3.67702e-05
1.66761e-05
7.43814e-06
3.26857e-06
1.41728e-06
6.07303e-07
2.57514e-07
1.08184e-07
4.50646e-08
1.86101e-08
7.59947e-09
3.04168e-09
1.16217e-09
3.88225e-10
6.8028e-11
4.66493e-07
2.03884e-06
4.6843e-06
9.12106e-06
1.65264e-05
2.88075e-05
4.90112e-05
8.1927e-05
0.000134943
0.000219209
0.000351121
0.000554065
0.000860177
0.00131167
0.00196098
0.00286889
0.00409994
0.00571549
0.00776556
0.010282
0.0132747
0.0167318
0.0206227
0.024903
0.0295191
0.0344124
0.0395225
0.0447894
0.0501556
0.0555675
0.0609758
0.0663365
0.0716114
0.0767678
0.0817788
0.0866223
0.0912807
0.0957408
0.0999935
0.104033
0.107857
0.111466
0.114861
0.118045
0.121024
0.123802
0.126385
0.128778
0.130986
0.133013
0.134859
0.136526
0.138008
0.1393
0.140388
0.141253
0.141867
0.142181
0.142165
0.141736
0.140801
0.139267
0.128421
0.117361
0.106285
0.0953544
0.0846961
0.0744114
0.0645815
0.055272
0.0465446
0.0384575
0.0310872
0.0244334
0.0185743
0.0135639
0.0094385
0.00620696
0.00383654
0.00222809
0.00122137
0.000636756
0.000318194
0.000153837
7.26206e-05
3.35782e-05
1.52429e-05
6.80638e-06
2.99446e-06
1.29999e-06
5.57702e-07
2.36751e-07
9.95665e-08
4.15148e-08
1.71584e-08
7.01141e-09
2.80771e-09
1.07311e-09
3.58516e-10
6.28096e-11
4.62921e-07
2.02317e-06
4.64804e-06
9.04961e-06
1.63949e-05
2.85741e-05
4.86057e-05
8.12338e-05
0.000133775
0.00021727
0.000347954
0.000548988
0.000852213
0.00129948
0.00194284
0.00284271
0.00406343
0.00566635
0.0077018
0.0102022
0.0131781
0.0166184
0.0204935
0.0247596
0.0293636
0.0342473
0.0393506
0.0446137
0.0499793
0.0553936
0.0608071
0.0661758
0.071461
0.0766298
0.0816547
0.0865136
0.0911883
0.0956651
0.0999347
0.103991
0.107832
0.111456
0.114865
0.118062
0.121053
0.123841
0.126432
0.128832
0.131044
0.133072
0.134917
0.136579
0.138053
0.13933
0.140396
0.141229
0.141795
0.142044
0.141929
0.141353
0.140191
0.138309
0.127263
0.116056
0.104885
0.0939059
0.083238
0.0729772
0.063202
0.0539787
0.0453584
0.0373835
0.0301393
0.0235979
0.0178639
0.0129521
0.00894114
0.00583282
0.00357886
0.00206535
0.00112661
0.000585326
0.000291854
0.000140984
6.65386e-05
3.07723e-05
1.39762e-05
6.2452e-06
2.74991e-06
1.19493e-06
5.1313e-07
2.18039e-07
9.17822e-08
3.83018e-08
1.58422e-08
6.4775e-09
2.59504e-09
9.92097e-10
3.31477e-10
5.80582e-11
4.59463e-07
2.00803e-06
4.61307e-06
8.98097e-06
1.62692e-05
2.83519e-05
4.8222e-05
8.05823e-05
0.000132685
0.000215475
0.000345048
0.000544369
0.000845027
0.00128857
0.00192674
0.00281966
0.00403153
0.00562374
0.00764691
0.0101339
0.0130961
0.016523
0.0203855
0.0246405
0.0292353
0.034112
0.0392108
0.044472
0.0498383
0.0552557
0.0606747
0.0660511
0.0713458
0.0765257
0.0815631
0.0864353
0.091124
0.0956151
0.0998992
0.10397
0.107824
0.11146
0.114881
0.118089
0.121089
0.123885
0.126483
0.128887
0.131101
0.13313
0.134973
0.136629
0.138094
0.139359
0.140407
0.141215
0.141744
0.141947
0.141764
0.141088
0.139776
0.137262
0.126077
0.114781
0.103561
0.0925643
0.0819046
0.0716737
0.0619464
0.0527858
0.044247
0.0363786
0.0292428
0.0228334
0.0172006
0.0124177
0.00851208
0.00550926
0.00335797
0.00192686
0.00104625
0.00054177
0.000269531
0.00013007
6.1359e-05
2.83744e-05
1.28895e-05
5.76179e-06
2.53838e-06
1.10371e-06
4.7428e-07
2.01675e-07
8.49536e-08
3.54756e-08
1.46819e-08
6.00592e-09
2.40693e-09
9.20359e-10
3.07524e-10
5.38451e-11
4.56248e-07
1.99396e-06
4.58063e-06
8.91743e-06
1.61531e-05
2.81474e-05
4.787e-05
7.99871e-05
0.000131695
0.000213852
0.000342433
0.000540238
0.000838642
0.00127894
0.00191262
0.00279959
0.00400394
0.00558715
0.00760009
0.0100761
0.0130271
0.0164432
0.0202958
0.0245422
0.0291302
0.0340021
0.0390981
0.0443587
0.0497264
0.0551474
0.0605719
0.0659555
0.0712589
0.0764488
0.081497
0.0863809
0.0910816
0.095585
0.0998812
0.103963
0.107828
0.111475
0.114905
0.118122
0.121129
0.123931
0.126533
0.12894
0.131156
0.133184
0.135024
0.136677
0.138135
0.139391
0.140428
0.141223
0.141738
0.141928
0.141736
0.141065
0.139789
0.136124
0.124896
0.113576
0.102354
0.0913741
0.0807486
0.0705656
0.0608952
0.051794
0.0433289
0.0355334
0.0284465
0.0221067
0.0165905
0.0119397
0.00815815
0.00524575
0.00317115
0.0018091
0.000978047
0.000504833
0.000250593
0.0001208
5.69515e-05
2.63296e-05
1.19607e-05
5.34769e-06
2.35677e-06
1.02521e-06
4.40781e-07
1.87537e-07
7.90434e-08
3.30257e-08
1.36747e-08
5.59612e-09
2.24331e-09
8.57926e-10
2.86679e-10
5.0174e-11
4.53348e-07
1.98128e-06
4.55143e-06
8.86029e-06
1.60489e-05
2.79643e-05
4.75559e-05
7.94577e-05
0.000130817
0.000212419
0.000340136
0.000536625
0.000833084
0.00127061
0.00190045
0.00278238
0.00398041
0.00555609
0.00756057
0.0100276
0.0129695
0.0163769
0.0202218
0.0244617
0.0290447
0.0339132
0.0390077
0.0442685
0.0496384
0.055063
0.0604928
0.065883
0.0711943
0.076393
0.0814507
0.0863445
0.0910555
0.0955692
0.0998752
0.103967
0.107841
0.111496
0.114933
0.118157
0.121169
0.123975
0.12658
0.128989
0.131206
0.133232
0.135071
0.136719
0.138173
0.139422
0.140451
0.141238
0.141745
0.141927
0.141732
0.141061
0.139793
0.135008
0.123767
0.112445
0.101229
0.0902672
0.0796713
0.0695287
0.0599111
0.0508799
0.042471
0.0347331
0.0277159
0.0214687
0.016043
0.0114791
0.0078037
0.00501066
0.00301588
0.00170945
0.00092041
0.000473692
0.000234641
0.000112992
5.32367e-05
2.4604e-05
1.11757e-05
4.9971e-06
2.20274e-06
9.58507e-07
4.12265e-07
1.75481e-07
7.3996e-08
3.09306e-08
1.28123e-08
5.2449e-09
2.10297e-09
8.04341e-10
2.68776e-10
4.70272e-11
4.50791e-07
1.9701e-06
4.52571e-06
8.81005e-06
1.59574e-05
2.78039e-05
4.72813e-05
7.8996e-05
0.000130053
0.000211177
0.00033815
0.000533513
0.000828315
0.00126348
0.00189009
0.0027678
0.00396056
0.00553001
0.00752754
0.00998723
0.0129218
0.0163224
0.0201613
0.0243962
0.0289756
0.0338419
0.0389357
0.0441974
0.0495695
0.0549979
0.0604326
0.0658288
0.071147
0.0763533
0.0814192
0.0863214
0.091041
0.0955631
0.0998771
0.103976
0.107858
0.111519
0.114963
0.118191
0.121207
0.124016
0.126623
0.129032
0.131248
0.133274
0.135109
0.136754
0.138202
0.139445
0.140468
0.141247
0.141746
0.141923
0.141722
0.141051
0.139786
0.13401
0.122766
0.111455
0.100264
0.0893388
0.0787796
0.0686746
0.0590942
0.0500955
0.0417266
0.034047
0.0270976
0.020926
0.0155804
0.0110992
0.0075069
0.00479139
0.00288046
0.00162715
0.000871852
0.000447441
0.000221234
0.000106438
5.01199e-05
2.31562e-05
1.05167e-05
4.70253e-06
2.07318e-06
9.02339e-07
3.88223e-07
1.65304e-07
6.97302e-08
2.91581e-08
1.20821e-08
4.94727e-09
1.98397e-09
7.58875e-10
2.53566e-10
4.43596e-11
4.48582e-07
1.96045e-06
4.50351e-06
8.76672e-06
1.58786e-05
2.76659e-05
4.70455e-05
7.86004e-05
0.0001294
0.000210117
0.000336461
0.000530875
0.000824284
0.00125747
0.0018814
0.00275559
0.003944
0.00550835
0.00750021
0.00995398
0.0128828
0.0162779
0.0201121
0.0243434
0.0289201
0.0337852
0.0388788
0.0441417
0.0495161
0.054948
0.0603871
0.0657886
0.0711128
0.0763255
0.0813983
0.0863076
0.0910342
0.095563
0.0998836
0.103989
0.107876
0.111543
0.11499
0.118222
0.12124
0.124051
0.126659
0.129068
0.131283
0.133306
0.135138
0.136778
0.138221
0.139458
0.140474
0.141247
0.141738
0.141909
0.141704
0.141031
0.139771
0.133149
0.121893
0.110583
0.0994069
0.0884911
0.077953
0.0678782
0.0583364
0.0493856
0.0410767
0.0334574
0.0265704
0.0204655
0.0151897
0.0107805
0.00725966
0.00461108
0.00275714
0.0015572
0.000832526
0.000425754
0.000210096
0.000101004
4.75374e-05
2.19562e-05
9.97012e-06
4.45796e-06
1.96547e-06
8.55582e-07
3.68181e-07
1.56809e-07
6.61647e-08
2.76748e-08
1.14704e-08
4.69785e-09
1.88419e-09
7.20735e-10
2.40809e-10
4.21219e-11
4.4671e-07
1.95227e-06
4.48471e-06
8.73007e-06
1.5812e-05
2.75495e-05
4.68468e-05
7.82676e-05
0.000128852
0.000209229
0.000335049
0.000528674
0.00082093
0.00125249
0.0018742
0.00274552
0.00393039
0.00549059
0.00747788
0.00992692
0.0128511
0.016242
0.0200726
0.0243011
0.0288761
0.0337403
0.0388342
0.0440984
0.049475
0.0549099
0.060353
0.065759
0.0710882
0.0763064
0.0813849
0.0862999
0.091032
0.0955663
0.0998921
0.104002
0.107893
0.111564
0.115014
0.118248
0.121268
0.12408
0.126688
0.129096
0.131308
0.133328
0.135157
0.136792
0.138229
0.13946
0.140469
0.141235
0.14172
0.141884
0.141676
0.141003
0.13975
0.132419
0.121147
0.109839
0.0986648
0.0877675
0.0772544
0.0672105
0.0577051
0.0487957
0.0405329
0.0329631
0.0261287
0.02008
0.0148634
0.0105152
0.00705522
0.00446348
0.00265793
0.00149472
0.000799634
0.000408712
0.000201211
9.65941e-05
4.54311e-05
2.09753e-05
9.5223e-06
4.25714e-06
1.87687e-06
8.17056e-07
3.51643e-07
1.49791e-07
6.32155e-08
2.64468e-08
1.09637e-08
4.49118e-09
1.80153e-09
6.89119e-10
2.30285e-10
4.02744e-11
4.45157e-07
1.94549e-06
4.46913e-06
8.6997e-06
1.57569e-05
2.74532e-05
4.66827e-05
7.79931e-05
0.000128401
0.0002085
0.000333891
0.000526872
0.000818189
0.00124843
0.00186835
0.00273735
0.00391936
0.00547625
0.00745991
0.0099052
0.0128257
0.0162134
0.0200413
0.0242678
0.0288415
0.0337053
0.0387996
0.044065
0.0494436
0.0548812
0.0603275
0.0657373
0.0710707
0.0762932
0.0813761
0.0862956
0.0910322
0.0955707
0.0999004
0.104014
0.107908
0.111581
0.115034
0.118269
0.12129
0.124101
0.126708
0.129114
0.131324
0.133341
0.135165
0.136795
0.138227
0.139451
0.140454
0.141213
0.141691
0.141851
0.14164
0.140968
0.139726
0.131815
0.120523
0.109209
0.0980444
0.0871638
0.0766732
0.0666567
0.0571825
0.0483081
0.0400834
0.0325547
0.0257639
0.0197619
0.0145945
0.0102972
0.00688785
0.0043434
0.00257799
0.00144519
0.000770614
0.000394124
0.000194191
9.3129e-05
4.37445e-05
2.01807e-05
9.15825e-06
4.09351e-06
1.80462e-06
7.85617e-07
3.38133e-07
1.44054e-07
6.08027e-08
2.54428e-08
1.0549e-08
4.32325e-09
1.73432e-09
6.63576e-10
2.21755e-10
3.87776e-11
4.43903e-07
1.94001e-06
4.45655e-06
8.67519e-06
1.57124e-05
2.73756e-05
4.65506e-05
7.77724e-05
0.000128038
0.000207914
0.000332963
0.000525431
0.000816001
0.00124519
0.00186369
0.00273086
0.00391063
0.00546492
0.00744574
0.00988812
0.0128059
0.0161911
0.0200169
0.0242419
0.0288148
0.0336784
0.0387732
0.0440396
0.0494199
0.0548597
0.0603086
0.0657214
0.071058
0.0762839
0.0813703
0.0862931
0.0910329
0.0955745
0.0999071
0.104023
0.107919
0.111594
0.115048
0.118283
0.121304
0.124115
0.12672
0.129124
0.131331
0.133344
0.135163
0.136789
0.138215
0.139433
0.140429
0.141181
0.141654
0.141809
0.141597
0.140929
0.1397
0.131326
0.120017
0.108697
0.097538
0.0866708
0.076199
0.0662055
0.0567577
0.0479122
0.039719
0.0322239
0.0254687
0.0195047
0.0143774
0.0101214
0.0067533
0.00424722
0.0025143
0.00140603
0.000747939
0.000381426
0.000187714
9.01709e-05
4.23979e-05
1.95519e-05
8.86777e-06
3.96323e-06
1.74652e-06
7.60415e-07
3.2726e-07
1.39459e-07
5.8868e-08
2.46483e-08
1.02202e-08
4.19373e-09
1.68219e-09
6.44002e-10
2.1517e-10
3.76198e-11
4.42928e-07
1.93575e-06
4.44676e-06
8.65614e-06
1.56779e-05
2.73154e-05
4.64481e-05
7.76013e-05
0.000127757
0.000207462
0.000332246
0.000524318
0.000814314
0.0012427
0.00186011
0.00272589
0.00390394
0.00545625
0.00743493
0.00987512
0.0127908
0.0161742
0.0199985
0.0242224
0.0287947
0.0336582
0.0387535
0.0440208
0.0494024
0.0548439
0.0602948
0.0657098
0.0710487
0.0762771
0.0813658
0.086291
0.091033
0.0955767
0.099911
0.104029
0.107926
0.111601
0.115056
0.118291
0.121311
0.12412
0.126723
0.129125
0.131329
0.133338
0.135153
0.136773
0.138193
0.139405
0.140395
0.141142
0.141609
0.141762
0.14155
0.140888
0.139676
0.13094
0.119611
0.108288
0.0971337
0.0862781
0.0758225
0.0658483
0.0564221
0.0476003
0.0394325
0.0319642
0.0252373
0.0193035
0.0142078
0.00998445
0.00664872
0.00417269
0.00246513
0.001376
0.0007308
0.000372158
0.00018291
8.77339e-05
4.12366e-05
1.90401e-05
8.64347e-06
3.86348e-06
1.70387e-06
7.41793e-07
3.19419e-07
1.36158e-07
5.7493e-08
2.40927e-08
9.9893e-09
4.10255e-09
1.64524e-09
6.30113e-10
2.10462e-10
3.67898e-11
4.42213e-07
1.93263e-06
4.4396e-06
8.64219e-06
1.56526e-05
2.72713e-05
4.63731e-05
7.74763e-05
0.000127552
0.000207131
0.000331723
0.000523508
0.000813086
0.00124088
0.00185751
0.00272227
0.0038991
0.00544998
0.00742711
0.00986574
0.0127799
0.016162
0.0199853
0.0242085
0.0287804
0.0336439
0.0387394
0.0440074
0.04939
0.0548327
0.060285
0.0657015
0.071042
0.076272
0.0813622
0.0862887
0.0910321
0.0955769
0.0999123
0.104031
0.107929
0.111604
0.115058
0.118293
0.121312
0.12412
0.126721
0.12912
0.13132
0.133325
0.135136
0.136751
0.138166
0.139372
0.140356
0.141097
0.141561
0.141712
0.141503
0.140848
0.139656
0.130653
0.119306
0.107977
0.0968266
0.0859803
0.0755378
0.0655791
0.0561703
0.047367
0.0392188
0.0317712
0.0250658
0.0191546
0.0140826
0.00988366
0.00657199
0.00411818
0.00242926
0.00135411
0.000718332
0.000365452
0.000179465
8.60575e-05
4.04274e-05
1.86654e-05
8.47146e-06
3.7917e-06
1.67184e-06
7.29034e-07
3.13841e-07
1.33991e-07
5.65569e-08
2.37311e-08
9.83648e-09
4.04343e-09
1.62095e-09
6.21005e-10
2.07369e-10
3.62425e-11
4.41746e-07
1.93059e-06
4.43492e-06
8.63308e-06
1.56361e-05
2.72426e-05
4.63242e-05
7.73948e-05
0.000127419
0.000206916
0.000331383
0.000522981
0.000812289
0.00123971
0.00185583
0.00271993
0.00389596
0.00544592
0.00742206
0.00985968
0.0127729
0.0161541
0.0199768
0.0241995
0.0287712
0.0336347
0.0387304
0.0439988
0.0493821
0.0548255
0.0602787
0.0656961
0.0710375
0.0762683
0.0813593
0.0862864
0.0910303
0.0955756
0.0999114
0.10403
0.107928
0.111603
0.115057
0.118291
0.121308
0.124115
0.126714
0.12911
0.131308
0.133309
0.135116
0.136726
0.138136
0.139337
0.140316
0.141053
0.141513
0.141664
0.141457
0.140812
0.139641
0.130465
0.119098
0.107763
0.0966144
0.0857751
0.0753426
0.0653957
0.0559996
0.0472098
0.0390756
0.0316423
0.0249517
0.019056
0.014
0.00981743
0.00652181
0.00408271
0.00240601
0.00133994
0.000710234
0.000361078
0.000177191
8.50808e-05
3.99421e-05
1.84684e-05
8.37477e-06
3.75285e-06
1.65355e-06
7.21912e-07
3.10596e-07
1.32742e-07
5.60024e-08
2.35183e-08
9.74358e-09
4.00792e-09
1.60609e-09
6.15424e-10
2.05466e-10
3.59051e-11
4.41518e-07
1.9296e-06
4.43264e-06
8.62866e-06
1.56281e-05
2.72287e-05
4.63007e-05
7.73557e-05
0.000127355
0.000206813
0.000331221
0.000522731
0.000811911
0.00123915
0.00185503
0.00271883
0.00389447
0.005444
0.00741967
0.00985681
0.0127696
0.0161504
0.0199727
0.0241952
0.0287668
0.0336303
0.0387261
0.0439947
0.0493782
0.054822
0.0602756
0.0656934
0.0710352
0.0762664
0.0813576
0.086285
0.0910288
0.095574
0.0999098
0.104029
0.107926
0.111601
0.115054
0.118287
0.121304
0.124109
0.126707
0.129101
0.131297
0.133296
0.135099
0.136706
0.138113
0.13931
0.140285
0.141019
0.141476
0.141626
0.141422
0.140785
0.139632
0.130372
0.118988
0.107648
0.0965008
0.0856661
0.07524
0.0653004
0.0559119
0.0471299
0.0390035
0.0315782
0.0248955
0.0190079
0.0139601
0.00978563
0.00649791
0.00406596
0.00239514
0.00133336
0.000706476
0.00035904
0.000176139
8.46701e-05
3.9731e-05
1.83856e-05
8.33332e-06
3.73666e-06
1.64571e-06
7.18848e-07
3.09166e-07
1.32188e-07
5.57523e-08
2.34214e-08
9.70099e-09
3.99137e-09
1.59913e-09
6.12777e-10
2.04562e-10
3.57445e-11
4.41519e-07
1.9296e-06
4.43265e-06
8.62867e-06
1.56282e-05
2.72287e-05
4.63008e-05
7.73558e-05
0.000127355
0.000206814
0.000331222
0.000522732
0.000811912
0.00123915
0.00185503
0.00271883
0.00389448
0.00544401
0.00741967
0.00985682
0.0127696
0.0161504
0.0199727
0.0241952
0.0287668
0.0336303
0.0387262
0.0439948
0.0493783
0.054822
0.0602756
0.0656934
0.0710353
0.0762664
0.0813576
0.086285
0.0910288
0.0955741
0.0999098
0.104029
0.107926
0.111601
0.115054
0.118287
0.121304
0.124109
0.126707
0.129101
0.131297
0.133296
0.135099
0.136706
0.138113
0.13931
0.140285
0.141019
0.141476
0.141626
0.141422
0.140785
0.139632
0.130373
0.118989
0.107648
0.096501
0.0856664
0.0752402
0.0653006
0.0559121
0.0471301
0.0390036
0.0315782
0.0248956
0.0190079
0.0139601
0.00978566
0.00649793
0.00406598
0.00239515
0.00133337
0.000706481
0.000359045
0.000176145
8.4665e-05
3.97301e-05
1.83818e-05
8.33214e-06
3.7355e-06
1.64533e-06
7.18579e-07
3.09076e-07
1.32132e-07
5.57329e-08
2.34105e-08
9.6972e-09
3.98943e-09
1.59846e-09
6.12488e-10
2.04475e-10
3.57299e-11
4.41748e-07
1.9306e-06
4.43493e-06
8.63311e-06
1.56362e-05
2.72427e-05
4.63244e-05
7.73951e-05
0.000127419
0.000206917
0.000331384
0.000522983
0.000812292
0.00123971
0.00185583
0.00271994
0.00389597
0.00544594
0.00742208
0.0098597
0.0127729
0.0161542
0.0199768
0.0241995
0.0287712
0.0336347
0.0387305
0.0439989
0.0493821
0.0548255
0.0602787
0.0656961
0.0710376
0.0762683
0.0813593
0.0862865
0.0910304
0.0955757
0.0999114
0.10403
0.107928
0.111603
0.115057
0.118291
0.121308
0.124115
0.126714
0.12911
0.131308
0.133309
0.135116
0.136726
0.138136
0.139337
0.140316
0.141053
0.141513
0.141664
0.141457
0.140812
0.139641
0.130466
0.119098
0.107763
0.0966147
0.0857754
0.0753428
0.0653959
0.0559998
0.04721
0.0390757
0.0316425
0.0249519
0.0190562
0.0140002
0.00981753
0.00652188
0.00408276
0.00240605
0.00133996
0.000710249
0.00036109
0.000177204
8.50725e-05
3.99415e-05
1.84596e-05
8.37223e-06
3.7501e-06
1.65272e-06
7.21273e-07
3.10387e-07
1.32604e-07
5.59558e-08
2.3491e-08
9.73418e-09
4.00296e-09
1.60438e-09
6.14672e-10
2.05241e-10
3.58676e-11
4.42216e-07
1.93264e-06
4.43963e-06
8.64225e-06
1.56527e-05
2.72715e-05
4.63734e-05
7.74768e-05
0.000127553
0.000207132
0.000331725
0.000523511
0.000813091
0.00124089
0.00185752
0.00272229
0.00389911
0.00545
0.00742714
0.00986577
0.01278
0.016162
0.0199853
0.0242085
0.0287804
0.0336439
0.0387395
0.0440075
0.0493901
0.0548327
0.060285
0.0657015
0.0710421
0.076272
0.0813622
0.0862887
0.0910321
0.0955769
0.0999123
0.104031
0.107929
0.111604
0.115058
0.118293
0.121312
0.12412
0.126721
0.12912
0.13132
0.133325
0.135136
0.136751
0.138166
0.139372
0.140356
0.141097
0.141561
0.141712
0.141503
0.140848
0.139656
0.130654
0.119307
0.107978
0.0968272
0.0859808
0.0755383
0.0655796
0.0561707
0.0473674
0.0392192
0.0317715
0.025066
0.0191548
0.0140828
0.00988382
0.00657211
0.00411827
0.00242932
0.00135415
0.000718355
0.000365466
0.000179475
8.6055e-05
4.04277e-05
1.86591e-05
8.46961e-06
3.78984e-06
1.67147e-06
7.28544e-07
3.13694e-07
1.33859e-07
5.65135e-08
2.37018e-08
9.82601e-09
4.03762e-09
1.61892e-09
6.20072e-10
2.07104e-10
3.6198e-11
4.42932e-07
1.93577e-06
4.44681e-06
8.65622e-06
1.56781e-05
2.73156e-05
4.64485e-05
7.7602e-05
0.000127759
0.000207463
0.000332249
0.000524323
0.000814321
0.00124271
0.00186013
0.0027259
0.00390397
0.00545628
0.00743497
0.00987517
0.0127908
0.0161742
0.0199986
0.0242225
0.0287948
0.0336583
0.0387535
0.0440208
0.0494025
0.0548439
0.0602949
0.0657098
0.0710488
0.0762771
0.0813658
0.086291
0.091033
0.0955767
0.0999111
0.104029
0.107926
0.111601
0.115056
0.118291
0.121311
0.12412
0.126723
0.129125
0.131329
0.133338
0.135153
0.136773
0.138193
0.139405
0.140395
0.141142
0.141609
0.141763
0.14155
0.140888
0.139676
0.13094
0.119612
0.108288
0.0971343
0.0862787
0.075823
0.0658487
0.0564226
0.0476007
0.0394328
0.0319646
0.0252376
0.0193038
0.014208
0.00998466
0.00664888
0.0041728
0.0024652
0.00137604
0.000730827
0.000372172
0.000182917
8.77361e-05
4.12369e-05
1.90393e-05
8.64262e-06
3.86257e-06
1.70303e-06
7.41443e-07
3.19229e-07
1.36064e-07
5.74511e-08
2.40709e-08
9.98141e-09
4.09804e-09
1.64365e-09
6.29313e-10
2.10258e-10
3.67553e-11
4.43909e-07
1.94004e-06
4.4566e-06
8.67529e-06
1.57126e-05
2.73759e-05
4.65511e-05
7.77733e-05
0.00012804
0.000207917
0.000332967
0.000525436
0.000816009
0.0012452
0.00186371
0.00273089
0.00391066
0.00546496
0.00744579
0.00988818
0.0128059
0.0161912
0.020017
0.024242
0.0288148
0.0336785
0.0387733
0.0440397
0.04942
0.0548598
0.0603087
0.0657215
0.0710581
0.076284
0.0813703
0.0862931
0.0910329
0.0955746
0.0999071
0.104023
0.107919
0.111594
0.115048
0.118283
0.121304
0.124115
0.12672
0.129124
0.131331
0.133344
0.135164
0.136789
0.138215
0.139433
0.140429
0.141181
0.141654
0.141809
0.141597
0.140929
0.139701
0.131327
0.120018
0.108698
0.0975387
0.0866714
0.0761996
0.066206
0.0567581
0.0479126
0.0397194
0.0322243
0.025469
0.019505
0.0143776
0.0101216
0.00675348
0.00424735
0.00251439
0.00140608
0.000747971
0.000381442
0.000187722
9.01742e-05
4.23989e-05
1.95518e-05
8.86752e-06
3.96284e-06
1.7464e-06
7.60343e-07
3.27239e-07
1.39445e-07
5.88619e-08
2.46436e-08
1.02184e-08
4.19187e-09
1.68151e-09
6.43542e-10
2.15067e-10
3.76024e-11
4.45164e-07
1.94552e-06
4.46919e-06
8.69982e-06
1.57571e-05
2.74536e-05
4.66833e-05
7.79941e-05
0.000128402
0.000208502
0.000333895
0.000526878
0.000818198
0.00124844
0.00186837
0.00273738
0.0039194
0.00547629
0.00745996
0.00990526
0.0128258
0.0162135
0.0200414
0.0242679
0.0288416
0.0337054
0.0387997
0.0440651
0.0494437
0.0548813
0.0603276
0.0657374
0.0710707
0.0762933
0.0813762
0.0862957
0.0910322
0.0955707
0.0999005
0.104014
0.107908
0.111581
0.115034
0.118269
0.12129
0.124101
0.126708
0.129114
0.131324
0.133341
0.135165
0.136795
0.138227
0.139451
0.140454
0.141213
0.141691
0.141851
0.14164
0.140968
0.139726
0.131816
0.120524
0.10921
0.098045
0.0871643
0.0766737
0.0666571
0.057183
0.0483085
0.0400838
0.032555
0.0257642
0.0197622
0.0145948
0.0102974
0.00688804
0.00434354
0.00257809
0.00144525
0.000770649
0.000394142
0.0001942
9.31326e-05
4.37462e-05
2.01815e-05
9.15871e-06
4.09373e-06
1.8047e-06
7.85645e-07
3.38145e-07
1.44058e-07
6.08052e-08
2.54434e-08
1.05494e-08
4.32286e-09
1.73417e-09
6.63413e-10
2.21726e-10
3.87728e-11
4.46717e-07
1.9523e-06
4.48478e-06
8.73021e-06
1.58123e-05
2.75499e-05
4.68475e-05
7.82688e-05
0.000128854
0.000209233
0.000335054
0.000528681
0.000820941
0.00125251
0.00187423
0.00274556
0.00393043
0.00549064
0.00747795
0.00992699
0.0128512
0.0162421
0.0200727
0.0243013
0.0288762
0.0337404
0.0388344
0.0440985
0.0494752
0.0549101
0.0603531
0.0657591
0.0710883
0.0763065
0.0813849
0.0863
0.0910321
0.0955664
0.0998922
0.104003
0.107893
0.111564
0.115015
0.118248
0.121269
0.12408
0.126688
0.129096
0.131308
0.133328
0.135157
0.136792
0.138229
0.13946
0.140469
0.141235
0.14172
0.141884
0.141676
0.141003
0.13975
0.132419
0.121148
0.10984
0.0986653
0.0877679
0.0772547
0.0672108
0.0577052
0.0487958
0.040533
0.0329633
0.0261289
0.0200803
0.0148636
0.0105154
0.00705541
0.00446362
0.00265803
0.00149478
0.000799669
0.00040873
0.00020122
9.65993e-05
4.54338e-05
2.09765e-05
9.52287e-06
4.2574e-06
1.87699e-06
8.17105e-07
3.51664e-07
1.49799e-07
6.3219e-08
2.64482e-08
1.09642e-08
4.49134e-09
1.80158e-09
6.89124e-10
2.3029e-10
4.02751e-11
4.4859e-07
1.96049e-06
4.50359e-06
8.76688e-06
1.58789e-05
2.76664e-05
4.70463e-05
7.86018e-05
0.000129402
0.000210121
0.000336467
0.000530883
0.000824297
0.00125749
0.00188143
0.00275563
0.00394405
0.00550841
0.00750029
0.00995408
0.0128829
0.0162781
0.0201122
0.0243435
0.0289203
0.0337853
0.038879
0.0441418
0.0495163
0.0549481
0.0603872
0.0657887
0.0711129
0.0763257
0.0813984
0.0863077
0.0910343
0.0955631
0.0998837
0.103989
0.107876
0.111543
0.11499
0.118222
0.121241
0.124051
0.126659
0.129068
0.131283
0.133306
0.135138
0.136778
0.138221
0.139458
0.140474
0.141247
0.141738
0.141909
0.141704
0.141031
0.139771
0.13315
0.121893
0.110584
0.0994072
0.0884912
0.0779529
0.067878
0.058336
0.049385
0.0410764
0.0334573
0.0265705
0.0204656
0.0151899
0.0107806
0.00725982
0.00461121
0.00275724
0.00155726
0.000832564
0.000425776
0.000210108
0.00010101
4.75404e-05
2.19576e-05
9.97076e-06
4.45825e-06
1.9656e-06
8.55639e-07
3.68205e-07
1.56819e-07
6.61689e-08
2.76766e-08
1.14712e-08
4.69812e-09
1.8843e-09
7.20772e-10
2.40821e-10
4.21238e-11
4.508e-07
1.97014e-06
4.5258e-06
8.81023e-06
1.59577e-05
2.78044e-05
4.72822e-05
7.89975e-05
0.000130055
0.00021118
0.000338156
0.000533522
0.000828329
0.0012635
0.00189012
0.00276784