/*--------------------------------*- C++ -*----------------------------------*\
  =========                 |
  \\      /  F ield         | OpenFOAM: The Open Source CFD Toolbox
   \\    /   O peration     | Website:  https://openfoam.org
    \\  /    A nd           | Version:  8
     \\/     M anipulation  |
\*---------------------------------------------------------------------------*/
FoamFile
{
    version     2.0;
    format      ascii;
    class       volScalarField;
    location    "900/fluid";
    object      H2O;
}
// * * * * * * * * * * * * * * * * * * * * * * * * * * * * * * * * * * * * * //

dimensions      [0 0 0 0 0 0 0];

internalField   nonuniform List<scalar> 
4000
(
3.87955e-07
1.69524e-06
3.8934e-06
7.57798e-06
1.37278e-05
2.39359e-05
4.07637e-05
6.82724e-05
0.00011279
0.000183978
0.000296216
0.000470265
0.000734949
0.0011284
0.00169808
0.00249869
0.00358741
0.00501676
0.0068268
0.00903909
0.0116543
0.0146536
0.0180026
0.0216567
0.0255652
0.029675
0.0339338
0.0382912
0.0427005
0.0471189
0.0515085
0.0558363
0.0600743
0.0641994
0.0681929
0.0720404
0.0757304
0.0792553
0.0826103
0.0857932
0.0888037
0.0916435
0.0943155
0.0968233
0.0991716
0.101365
0.103409
0.105307
0.107064
0.108683
0.110166
0.111512
0.11272
0.113784
0.114695
0.115439
0.115996
0.11633
0.116411
0.116183
0.115568
0.114462
0.112218
0.103593
0.094825
0.0860609
0.0774144
0.0689751
0.0608141
0.0529896
0.0455507
0.0385404
0.0319996
0.0259986
0.0205149
0.0156351
0.0114118
0.00789689
0.00512862
0.0031027
0.00174548
0.000917739
0.00045524
0.000216519
0.000100049
4.51844e-05
2.00305e-05
8.74425e-06
3.76845e-06
1.60652e-06
6.78612e-07
2.84425e-07
1.1841e-07
4.8992e-08
2.01355e-08
8.19625e-09
3.27409e-09
1.24959e-09
4.17282e-10
7.31476e-11
3.88327e-07
1.69726e-06
3.89978e-06
7.59511e-06
1.37684e-05
2.40222e-05
4.09298e-05
6.85603e-05
0.000113232
0.000184544
0.000296711
0.000470144
0.000733056
0.00112258
0.00168484
0.00247302
0.00354303
0.0049468
0.00672492
0.00890068
0.0114773
0.0144387
0.0177533
0.0213783
0.0252645
0.0293594
0.0336106
0.0379673
0.0423819
0.0468107
0.051215
0.0555607
0.0598188
0.0639655
0.0679815
0.0718516
0.0755641
0.0791107
0.0824864
0.0856888
0.0887175
0.091574
0.0942611
0.0967826
0.099143
0.101347
0.1034
0.105307
0.107071
0.108696
0.110183
0.111533
0.112744
0.11381
0.114723
0.115467
0.116024
0.116358
0.116437
0.116206
0.115585
0.11447
0.111536
0.102854
0.0940414
0.0852406
0.0765639
0.0681001
0.0599204
0.0520834
0.0446392
0.0376325
0.0311063
0.0251355
0.0196994
0.0148904
0.0107626
0.00736629
0.00473123
0.00283599
0.00158743
0.000835185
0.000416916
0.000200014
9.33577e-05
4.25999e-05
1.90688e-05
8.39549e-06
3.64362e-06
1.56181e-06
6.62353e-07
2.78348e-07
1.16058e-07
4.80506e-08
1.97491e-08
8.03614e-09
3.20849e-09
1.22396e-09
4.08582e-10
7.16223e-11
3.89212e-07
1.70135e-06
3.91016e-06
7.61765e-06
1.38132e-05
2.41047e-05
4.10709e-05
6.87821e-05
0.000113545
0.000184914
0.000296993
0.000469929
0.00073143
0.00111793
0.00167461
0.00245351
0.00350935
0.00489322
0.00664543
0.00878983
0.011331
0.014255
0.0175323
0.0211224
0.024978
0.029048
0.0332809
0.0376262
0.0420363
0.0464671
0.0508791
0.0552375
0.0595126
0.0636795
0.0677181
0.0716125
0.0753501
0.0789222
0.0823232
0.0855501
0.0886022
0.0914809
0.0941886
0.0967291
0.0991068
0.101327
0.103394
0.105312
0.107087
0.10872
0.110214
0.11157
0.112785
0.113855
0.114769
0.115514
0.11607
0.1164
0.116475
0.116236
0.115603
0.114469
0.110331
0.101609
0.0927584
0.0839273
0.0752297
0.0667559
0.0585784
0.0507575
0.0433449
0.0363872
0.0299294
0.0240378
0.0187157
0.0140431
0.0100697
0.00683728
0.0043609
0.00260155
0.00145369
0.000765855
0.000383759
0.000184934
8.67531e-05
3.97921e-05
1.79033e-05
7.92054e-06
3.45264e-06
1.48564e-06
6.32076e-07
2.663e-07
1.11244e-07
4.6116e-08
1.8968e-08
7.72076e-09
3.08269e-09
1.17584e-09
3.92449e-10
6.87767e-11
3.88754e-07
1.69932e-06
3.90537e-06
7.60764e-06
1.37924e-05
2.406e-05
4.09725e-05
6.8565e-05
0.000113076
0.000183937
0.000295045
0.000466246
0.000724831
0.00110663
0.00165607
0.0024244
0.00346567
0.00483056
0.00655954
0.0086771
0.0111889
0.0140824
0.0173297
0.0208916
0.0247218
0.0287706
0.0329869
0.0373208
0.0417249
0.0461552
0.0505718
0.0549394
0.0592278
0.0634115
0.0674696
0.0713855
0.0751462
0.0787422
0.0821672
0.085418
0.0884934
0.0913943
0.094123
0.0966831
0.0990791
0.101315
0.103397
0.105328
0.107113
0.108755
0.110257
0.111618
0.112837
0.113908
0.114823
0.115566
0.116118
0.116441
0.116506
0.116253
0.1156
0.114439
0.108832
0.100095
0.0912282
0.0823856
0.0736862
0.0652232
0.0570715
0.049293
0.0419407
0.0350624
0.0287042
0.0229089
0.0177249
0.0132037
0.00939068
0.00632055
0.00399678
0.00236691
0.00131593
0.000691679
0.000346672
0.000167395
7.87583e-05
3.62515e-05
1.63717e-05
7.27086e-06
3.18151e-06
1.37397e-06
5.86538e-07
2.47866e-07
1.03818e-07
4.31344e-08
1.77745e-08
7.24562e-09
2.89624e-09
1.10561e-09
3.69178e-10
6.47042e-11
3.8718e-07
1.69236e-06
3.88902e-06
7.57473e-06
1.37299e-05
2.39443e-05
4.07605e-05
6.81793e-05
0.000112379
0.000182691
0.000292849
0.000462446
0.000718406
0.00109606
0.00163921
0.00239847
0.00342729
0.00477609
0.00648541
0.0085803
0.0110674
0.0139352
0.0171571
0.0206952
0.0245041
0.0285348
0.032737
0.0370612
0.04146
0.0458895
0.0503096
0.0546848
0.0589844
0.0631822
0.0672571
0.0711918
0.0749727
0.0785898
0.0820365
0.0853088
0.0884054
0.0913266
0.0940747
0.0966532
0.0990658
0.101317
0.103411
0.105354
0.107149
0.108799
0.110307
0.111672
0.112892
0.113963
0.114874
0.115612
0.116154
0.116465
0.116514
0.11624
0.115558
0.114362
0.107255
0.0985246
0.0896544
0.0808103
0.0721188
0.0636775
0.0555634
0.0478393
0.0405582
0.0337675
0.027523
0.0218417
0.0167977
0.0124279
0.00877138
0.00585607
0.00367448
0.00216223
0.00119709
0.000628065
0.000314849
0.000152257
7.1791e-05
3.31258e-05
1.4998e-05
6.67713e-06
2.92844e-06
1.26734e-06
5.42042e-07
2.29442e-07
9.62389e-08
4.00334e-08
1.65129e-08
6.73664e-09
2.69438e-09
1.02897e-09
3.43648e-10
6.02237e-11
3.84734e-07
1.68157e-06
3.86376e-06
7.52422e-06
1.36352e-05
2.37724e-05
4.04539e-05
6.76398e-05
0.000111441
0.000181082
0.000290132
0.000457945
0.000711113
0.00108455
0.00162158
0.00237234
0.00338995
0.00472468
0.00641727
0.0084933
0.0109602
0.0138074
0.0170091
0.0205283
0.0243205
0.0283373
0.0325287
0.0368456
0.0412409
0.0456704
0.0500942
0.0544763
0.0587857
0.062996
0.0670855
0.0710365
0.074835
0.0784705
0.081936
0.0852271
0.0883421
0.0912812
0.0940465
0.0966406
0.0990672
0.101331
0.103437
0.105389
0.107191
0.108847
0.110358
0.111724
0.112943
0.114009
0.114913
0.11564
0.116168
0.116459
0.116486
0.116185
0.115474
0.114257
0.10589
0.0971222
0.0882142
0.0793469
0.0706519
0.0622277
0.0541504
0.0464813
0.0392724
0.0325709
0.026443
0.0208875
0.015966
0.0117307
0.00821686
0.00544214
0.00338808
0.0019801
0.00109063
0.000570352
0.00028548
0.000138061
6.51522e-05
3.01035e-05
1.36525e-05
6.08954e-06
2.67595e-06
1.16032e-06
4.97194e-07
2.10824e-07
8.85691e-08
3.6894e-08
1.52359e-08
6.22162e-09
2.49019e-09
9.51457e-10
3.17836e-10
5.5694e-11
3.81914e-07
1.66918e-06
3.835e-06
7.46733e-06
1.353e-05
2.35844e-05
4.01251e-05
6.70729e-05
0.000110477
0.000179464
0.00028746
0.000453608
0.000704219
0.00107385
0.00160544
0.00234873
0.00335659
0.00467922
0.0063576
0.00841779
0.0108679
0.0136981
0.0168836
0.0203878
0.024167
0.0281731
0.0323567
0.0366687
0.041062
0.0454926
0.0499203
0.0543091
0.0586276
0.0628492
0.0669516
0.0709169
0.0747307
0.0783822
0.0818638
0.085171
0.0883018
0.0912564
0.0940358
0.0966428
0.0990813
0.101356
0.10347
0.10543
0.107237
0.108896
0.110408
0.111772
0.112986
0.114044
0.114934
0.115642
0.116145
0.116402
0.116389
0.116038
0.115272
0.114016
0.105137
0.0960822
0.0870147
0.0780658
0.0693399
0.06092
0.0528723
0.0452507
0.0381057
0.0314848
0.0254508
0.0200034
0.0152066
0.0111046
0.00772722
0.00508159
0.00314094
0.00182412
0.000999927
0.000521306
0.000260503
0.000125945
5.94539e-05
2.74902e-05
1.24793e-05
5.57232e-06
2.45154e-06
1.06429e-06
4.56586e-07
1.93826e-07
8.15142e-08
3.39878e-08
1.40474e-08
5.74018e-09
2.29864e-09
8.78548e-10
2.93514e-10
5.14217e-11
3.78989e-07
1.65635e-06
3.80531e-06
7.40884e-06
1.34224e-05
2.33933e-05
3.9793e-05
6.65054e-05
0.00010952
0.000177877
0.000284867
0.000449452
0.000697699
0.00106387
0.00159058
0.0023273
0.00332669
0.00463899
0.00630539
0.00835242
0.0107888
0.0136054
0.0167779
0.0202704
0.0240397
0.0280379
0.032216
0.0365249
0.0409176
0.0453502
0.0497823
0.0541776
0.0585045
0.0627361
0.06685
0.0708279
0.074655
0.0783202
0.0818157
0.0851367
0.0882811
0.091248
0.0940389
0.0966567
0.0991048
0.101388
0.103509
0.105474
0.107285
0.108945
0.110456
0.111816
0.113023
0.114068
0.114941
0.115623
0.116086
0.11629
0.116196
0.115724
0.114773
0.113232
0.104189
0.0950137
0.0858686
0.0768799
0.0681462
0.0597458
0.051743
0.0441919
0.0371345
0.0306056
0.0246748
0.0193194
0.0146251
0.0106037
0.00732003
0.00477528
0.00292999
0.00169088
0.000922343
0.000479201
0.000238938
0.000115423
5.44746e-05
2.5193e-05
1.14422e-05
5.11289e-06
2.25132e-06
9.78281e-07
4.20095e-07
1.78507e-07
7.51413e-08
3.13573e-08
1.29699e-08
5.30307e-09
2.12454e-09
8.12221e-10
2.71377e-10
4.75317e-11
3.76158e-07
1.64396e-06
3.77668e-06
7.35264e-06
1.33194e-05
2.32114e-05
3.94789e-05
6.5972e-05
0.000108628
0.000176408
0.000282488
0.00044567
0.000691816
0.00105494
0.0015774
0.00230843
0.00330058
0.00460411
0.00626046
0.00829657
0.0107217
0.0135272
0.0166894
0.0201729
0.0239347
0.0279272
0.0321016
0.0364089
0.0408022
0.0452373
0.0496739
0.0540754
0.0584102
0.0626509
0.066775
0.0707638
0.0746024
0.0782793
0.0817866
0.0851193
0.0882744
0.0912516
0.0940521
0.0966786
0.0991344
0.101424
0.10355
0.105518
0.107332
0.108992
0.110501
0.111857
0.113056
0.114092
0.11495
0.115611
0.116045
0.11621
0.116061
0.115507
0.114433
0.112375
0.103218
0.0939701
0.0847848
0.0757816
0.0670546
0.0586786
0.050715
0.0432153
0.0362246
0.0297828
0.0239408
0.0186935
0.014082
0.0101662
0.00696877
0.00451038
0.00274914
0.0015775
0.000856559
0.000443542
0.000220662
0.000106487
5.0234e-05
2.32298e-05
1.05525e-05
4.71713e-06
2.07815e-06
9.03595e-07
3.88289e-07
1.65109e-07
6.95507e-08
2.90436e-08
1.20199e-08
4.917e-09
1.97053e-09
7.5349e-10
2.51767e-10
4.40825e-11
3.73526e-07
1.63244e-06
3.75013e-06
7.30062e-06
1.32244e-05
2.3044e-05
3.91907e-05
6.54847e-05
0.000107817
0.000175079
0.000280347
0.000442288
0.000686589
0.00104706
0.00156584
0.002292
0.00327799
0.00457415
0.00622213
0.00824924
0.0106652
0.0134619
0.016616
0.0200925
0.0238486
0.0278372
0.0320092
0.036316
0.0407106
0.0451487
0.0495897
0.0539971
0.058339
0.0625879
0.0667209
0.0707193
0.0745677
0.0782546
0.0817719
0.0851139
0.0882779
0.0912636
0.0940719
0.0967053
0.099167
0.101461
0.103591
0.105562
0.107376
0.109036
0.110543
0.111896
0.11309
0.114118
0.114967
0.115618
0.11604
0.116195
0.116038
0.115488
0.114444
0.111444
0.102251
0.092984
0.0837965
0.0748072
0.0661081
0.0577714
0.0498544
0.0424033
0.035473
0.0290909
0.0232889
0.0180986
0.0135825
0.00977495
0.006679
0.00429465
0.0025962
0.0014811
0.000800719
0.000413302
0.000205158
9.88976e-05
4.66257e-05
2.15558e-05
9.79211e-06
4.3781e-06
1.92947e-06
8.39329e-07
3.60864e-07
1.53535e-07
6.47121e-08
2.70378e-08
1.11953e-08
4.58149e-09
1.83658e-09
7.02377e-10
2.34701e-10
4.1077e-11
3.71152e-07
1.62206e-06
3.72621e-06
7.25384e-06
1.31391e-05
2.28941e-05
3.89336e-05
6.50514e-05
0.000107098
0.000173906
0.000278466
0.00043933
0.000682038
0.00104023
0.00155588
0.00227791
0.00325873
0.00454872
0.00618977
0.00820951
0.010618
0.0134077
0.0165554
0.0200266
0.0237786
0.0277645
0.0319352
0.0362423
0.0406385
0.0450796
0.049525
0.0539379
0.0582862
0.0625422
0.066683
0.0706895
0.0745463
0.0782417
0.0817669
0.0851167
0.0882882
0.0912806
0.094095
0.0967337
0.0991999
0.101497
0.10363
0.105602
0.107417
0.109076
0.110581
0.111931
0.113121
0.114143
0.114986
0.115631
0.116045
0.116195
0.116034
0.115486
0.114448
0.11053
0.101327
0.0920576
0.0828755
0.073901
0.0652262
0.0569225
0.0490487
0.0416549
0.0347706
0.0284357
0.0226908
0.0175763
0.0131342
0.00939782
0.00638882
0.00410218
0.00246907
0.00139951
0.000753532
0.000387808
0.000192099
9.25053e-05
4.35844e-05
2.01431e-05
9.14946e-06
4.09109e-06
1.80336e-06
7.84721e-07
3.37518e-07
1.43665e-07
6.05799e-08
2.53226e-08
1.04893e-08
4.29396e-09
1.72169e-09
6.58507e-10
2.20044e-10
3.85007e-11
3.69059e-07
1.61291e-06
3.70516e-06
7.21271e-06
1.30642e-05
2.27628e-05
3.87087e-05
6.46733e-05
0.000106473
0.000172888
0.00027684
0.000436782
0.000678134
0.0010344
0.0015474
0.00226597
0.00324247
0.00452737
0.00616273
0.00817646
0.010579
0.013363
0.0165058
0.019973
0.023722
0.0277061
0.0318763
0.036184
0.0405821
0.0450263
0.0494757
0.0538935
0.0582474
0.0625098
0.0666572
0.0706706
0.0745345
0.0782366
0.0817685
0.0851246
0.088302
0.0912998
0.0941189
0.0967616
0.0992309
0.101531
0.103665
0.105638
0.107452
0.10911
0.110613
0.111959
0.113145
0.114162
0.115
0.115638
0.116046
0.116191
0.116027
0.115477
0.114442
0.109713
0.100507
0.0912471
0.0820854
0.0731409
0.0644962
0.0562233
0.0483799
0.0410128
0.0341612
0.027874
0.0221845
0.0171319
0.0127555
0.00908686
0.00614583
0.00392267
0.00235821
0.00133213
0.000713777
0.000366316
0.000181122
8.71395e-05
4.10328e-05
1.89577e-05
8.60993e-06
3.84992e-06
1.69729e-06
7.38737e-07
3.17835e-07
1.35333e-07
5.70875e-08
2.38715e-08
9.89149e-09
4.05029e-09
1.62426e-09
6.21284e-10
2.07593e-10
3.63168e-11
3.6725e-07
1.605e-06
3.68698e-06
7.17724e-06
1.29997e-05
2.26499e-05
3.85157e-05
6.43495e-05
0.000105939
0.000172021
0.000275458
0.000434623
0.000674834
0.00102948
0.00154029
0.00225598
0.00322892
0.00450964
0.00614036
0.00814924
0.010547
0.0133266
0.0164656
0.0199297
0.0236767
0.0276596
0.0318298
0.0361384
0.0405384
0.0449854
0.0494384
0.0538606
0.0582194
0.0624871
0.0666401
0.0706593
0.0745289
0.0782366
0.0817739
0.085135
0.088317
0.0913189
0.0941415
0.096787
0.0992585
0.10156
0.103695
0.105667
0.10748
0.109136
0.110636
0.111979
0.11316
0.114173
0.115005
0.115637
0.11604
0.116179
0.116012
0.115461
0.114429
0.109008
0.0997924
0.0905335
0.0813836
0.0724469
0.0638194
0.0555713
0.0477595
0.0404316
0.0336292
0.0273913
0.021753
0.0167549
0.0124357
0.00882586
0.00594342
0.00377505
0.00225724
0.00127487
0.000681582
0.000348561
0.000172004
8.2691e-05
3.89185e-05
1.79753e-05
8.16245e-06
3.64969e-06
1.60912e-06
7.00458e-07
3.01426e-07
1.28378e-07
5.41685e-08
2.26571e-08
9.39075e-09
3.84609e-09
1.54257e-09
5.90059e-10
1.97148e-10
3.44849e-11
3.65718e-07
1.59831e-06
3.67159e-06
7.14723e-06
1.29452e-05
2.25545e-05
3.8353e-05
6.4077e-05
0.00010549
0.000171294
0.000274302
0.000432821
0.000672088
0.0010254
0.00153439
0.00224774
0.00321777
0.0044951
0.00612207
0.00812708
0.0105211
0.0132972
0.0164333
0.0198951
0.0236406
0.0276229
0.0317933
0.0361029
0.0405048
0.0449543
0.0494105
0.0538363
0.0581993
0.0624714
0.0666291
0.070653
0.0745271
0.0782393
0.0817808
0.0851459
0.0883314
0.0913363
0.0941613
0.0968087
0.0992814
0.101583
0.103718
0.10569
0.107501
0.109155
0.110652
0.11199
0.113167
0.114175
0.115001
0.115628
0.116025
0.116159
0.115989
0.115438
0.114412
0.10841
0.099182
0.0899242
0.080776
0.0718545
0.0632475
0.0550247
0.0472426
0.0399486
0.0331839
0.0269866
0.0213913
0.0164393
0.0121685
0.0086087
0.00577605
0.00365421
0.00217602
0.00122371
0.000654653
0.000334609
0.00016473
7.90807e-05
3.7194e-05
1.71723e-05
7.79582e-06
3.48528e-06
1.53658e-06
6.68917e-07
2.87887e-07
1.22632e-07
5.17539e-08
2.16517e-08
8.97585e-09
3.67689e-09
1.4749e-09
5.64176e-10
1.88532e-10
3.29723e-11
3.64447e-07
1.59276e-06
3.65884e-06
7.12237e-06
1.29e-05
2.24757e-05
3.82187e-05
6.38523e-05
0.00010512
0.000170697
0.000273353
0.000431345
0.000669844
0.00102208
0.0015296
0.00224105
0.00320875
0.00448336
0.00610736
0.0081093
0.0105003
0.0132738
0.0164076
0.0198678
0.0236123
0.0275942
0.0317649
0.0360756
0.0404791
0.0449308
0.0493896
0.0538186
0.0581849
0.0624606
0.0666219
0.0706495
0.0745272
0.0782429
0.0817876
0.0851556
0.0883436
0.0913506
0.0941772
0.0968257
0.0992989
0.101601
0.103735
0.105705
0.107514
0.109165
0.110658
0.111993
0.113165
0.114168
0.114988
0.11561
0.116001
0.116132
0.115959
0.115409
0.114393
0.107916
0.0986714
0.0894087
0.0802681
0.0713602
0.0627717
0.0545712
0.0468148
0.0395494
0.032816
0.0266523
0.0210927
0.0161789
0.0119484
0.00843019
0.00563902
0.0035559
0.00211058
0.00118316
0.000630895
0.000322665
0.000158982
7.62439e-05
3.58132e-05
1.65218e-05
7.49777e-06
3.35132e-06
1.47743e-06
6.43178e-07
2.76827e-07
1.17936e-07
4.97786e-08
2.08298e-08
8.63634e-09
3.53941e-09
1.41988e-09
5.43264e-10
1.81549e-10
3.17469e-11
3.6342e-07
1.58827e-06
3.64854e-06
7.1023e-06
1.28636e-05
2.24122e-05
3.81105e-05
6.36716e-05
0.000104824
0.000170218
0.000272594
0.000430165
0.000668053
0.00101942
0.00152579
0.00223573
0.0032016
0.00447408
0.00609576
0.00809532
0.0104841
0.0132555
0.0163877
0.0198466
0.0235904
0.0275722
0.0317433
0.0360548
0.0404597
0.0449132
0.0493742
0.0538055
0.0581746
0.062453
0.0666171
0.0706474
0.0745278
0.078246
0.081793
0.085163
0.0883527
0.091361
0.0941885
0.0968373
0.0993105
0.101611
0.103744
0.105712
0.107519
0.109167
0.110657
0.111988
0.113155
0.114152
0.114968
0.115584
0.115971
0.116098
0.115924
0.115377
0.114372
0.107516
0.0982571
0.0889896
0.0798535
0.0709566
0.0623835
0.0542019
0.046467
0.0392253
0.0325176
0.0263814
0.020851
0.0159683
0.0117706
0.00828631
0.00552887
0.00347716
0.00205843
0.0011511
0.000612331
0.00031227
0.00015368
7.38221e-05
3.47108e-05
1.6007e-05
7.25996e-06
3.24466e-06
1.42986e-06
6.22545e-07
2.67925e-07
1.14173e-07
4.81947e-08
2.01793e-08
8.36722e-09
3.43337e-09
1.37719e-09
5.27239e-10
1.76158e-10
3.0799e-11
3.62621e-07
1.58478e-06
3.64053e-06
7.08671e-06
1.28354e-05
2.23629e-05
3.80266e-05
6.35315e-05
0.000104594
0.000169847
0.000272007
0.000429255
0.000666672
0.00101738
0.00152286
0.00223166
0.00319612
0.00446699
0.00608691
0.00808468
0.0104717
0.0132416
0.0163726
0.0198307
0.023574
0.0275557
0.0317271
0.0360394
0.0404453
0.0449002
0.0493628
0.053796
0.058167
0.0624474
0.0666135
0.0706457
0.0745279
0.0782478
0.0817963
0.0851675
0.0883582
0.0913671
0.0941949
0.0968436
0.0993161
0.101616
0.103747
0.105714
0.107518
0.109163
0.110649
0.111975
0.113138
0.11413
0.11494
0.115552
0.115934
0.11606
0.115886
0.115344
0.114352
0.107199
0.0979245
0.0886541
0.0795225
0.0706351
0.0620752
0.0539094
0.0461923
0.03897
0.032283
0.0261688
0.0206616
0.0158036
0.0116318
0.00817418
0.00544325
0.00341614
0.00201818
0.00112652
0.0005983
0.000304683
0.000149747
7.18269e-05
3.376e-05
1.5588e-05
7.07633e-06
3.163e-06
1.39494e-06
6.073e-07
2.61506e-07
1.11471e-07
4.7069e-08
1.97245e-08
8.17815e-09
3.35872e-09
1.34694e-09
5.15868e-10
1.72303e-10
3.01195e-11
3.62036e-07
1.58223e-06
3.63466e-06
7.07529e-06
1.28147e-05
2.23268e-05
3.79653e-05
6.34292e-05
0.000104426
0.000169576
0.000271579
0.000428591
0.000665667
0.0010159
0.00152073
0.0022287
0.00319216
0.00446185
0.00608051
0.00807699
0.0104628
0.0132317
0.0163618
0.0198193
0.0235622
0.0275439
0.0317156
0.0360285
0.0404352
0.044891
0.0493548
0.0537892
0.0581615
0.0624432
0.0666105
0.0706438
0.0745272
0.078248
0.0817973
0.0851692
0.0883603
0.0913694
0.094197
0.0968452
0.0993169
0.101616
0.103745
0.105709
0.107511
0.109152
0.110635
0.111957
0.113115
0.114103
0.114908
0.115515
0.115895
0.116019
0.115847
0.115311
0.114335
0.106965
0.0976746
0.0883998
0.0792711
0.0703913
0.0618421
0.053689
0.0459861
0.038779
0.0321081
0.0260108
0.0205211
0.0156817
0.0115293
0.00809166
0.00538043
0.00337152
0.00198881
0.0011086
0.000588092
0.000299192
0.000146926
7.04545e-05
3.30975e-05
1.52812e-05
6.93551e-06
3.10423e-06
1.36872e-06
5.96854e-07
2.56939e-07
1.09697e-07
4.63026e-08
1.94284e-08
8.05304e-09
3.31032e-09
1.32706e-09
5.08412e-10
1.69771e-10
2.96714e-11
3.61654e-07
1.58056e-06
3.63083e-06
7.06783e-06
1.28012e-05
2.23032e-05
3.79252e-05
6.33624e-05
0.000104317
0.0001694
0.000271301
0.00042816
0.000665014
0.00101494
0.00151935
0.00222679
0.00318959
0.00445853
0.00607637
0.00807203
0.0104571
0.0132252
0.0163548
0.0198119
0.0235547
0.0275364
0.0317083
0.0360215
0.0404287
0.0448851
0.0493496
0.0537848
0.0581578
0.0624402
0.0666081
0.070642
0.0745257
0.0782469
0.0817966
0.0851687
0.0883598
0.0913687
0.0941959
0.0968434
0.0993141
0.101611
0.103739
0.105701
0.1075
0.109139
0.110618
0.111936
0.113091
0.114074
0.114875
0.115479
0.115856
0.115979
0.115809
0.115282
0.114322
0.106811
0.0975045
0.0882245
0.0790974
0.0702233
0.0616823
0.0535389
0.0458464
0.0386503
0.0319908
0.0259053
0.0204277
0.015601
0.0114617
0.00803744
0.00533935
0.00334248
0.00196978
0.001097
0.000581463
0.000295611
0.000145065
6.96549e-05
3.27002e-05
1.51199e-05
6.85635e-06
3.07242e-06
1.35375e-06
5.91023e-07
2.54282e-07
1.08675e-07
4.58487e-08
1.92543e-08
7.97698e-09
3.28125e-09
1.31489e-09
5.03842e-10
1.68213e-10
2.93952e-11
3.61467e-07
1.57975e-06
3.62896e-06
7.06421e-06
1.27946e-05
2.22919e-05
3.7906e-05
6.33304e-05
0.000104264
0.000169316
0.000271168
0.000427955
0.000664704
0.00101448
0.0015187
0.00222588
0.00318837
0.00445696
0.00607442
0.00806968
0.0104543
0.0132222
0.0163515
0.0198084
0.0235511
0.0275328
0.0317048
0.0360181
0.0404255
0.0448823
0.0493471
0.0537826
0.0581559
0.0624386
0.0666068
0.0706407
0.0745245
0.0782456
0.0817952
0.0851672
0.0883582
0.0913668
0.0941937
0.0968406
0.0993106
0.101607
0.103734
0.105694
0.107491
0.109128
0.110605
0.11192
0.113072
0.114052
0.11485
0.115451
0.115826
0.115948
0.115781
0.11526
0.114316
0.106735
0.0974148
0.0881305
0.0790043
0.0701341
0.0615983
0.0534608
0.0457746
0.0385849
0.0319318
0.0258528
0.0203818
0.0155616
0.011429
0.00801141
0.00531978
0.00332877
0.00196088
0.00109161
0.000578385
0.000293943
0.000144204
6.93187e-05
3.25274e-05
1.50521e-05
6.82242e-06
3.05917e-06
1.34732e-06
5.88514e-07
2.53112e-07
1.08221e-07
4.56439e-08
1.91749e-08
7.94211e-09
3.2677e-09
1.30919e-09
5.01675e-10
1.67473e-10
2.92637e-11
3.61468e-07
1.57975e-06
3.62897e-06
7.06422e-06
1.27946e-05
2.22919e-05
3.79061e-05
6.33305e-05
0.000104265
0.000169317
0.000271168
0.000427956
0.000664705
0.00101448
0.0015187
0.00222588
0.00318837
0.00445696
0.00607442
0.00806969
0.0104543
0.0132222
0.0163515
0.0198084
0.0235511
0.0275328
0.0317048
0.0360181
0.0404255
0.0448823
0.0493471
0.0537826
0.0581559
0.0624386
0.0666068
0.0706407
0.0745245
0.0782456
0.0817952
0.0851673
0.0883582
0.0913668
0.0941937
0.0968406
0.0993106
0.101607
0.103734
0.105694
0.107491
0.109128
0.110605
0.11192
0.113072
0.114052
0.11485
0.115451
0.115826
0.115948
0.115781
0.11526
0.114316
0.106735
0.097415
0.0881307
0.0790045
0.0701343
0.0615985
0.053461
0.0457748
0.038585
0.0319319
0.0258528
0.0203818
0.0155616
0.011429
0.00801143
0.0053198
0.00332878
0.00196089
0.00109161
0.00057839
0.000293947
0.000144209
6.93145e-05
3.25267e-05
1.5049e-05
6.82145e-06
3.05822e-06
1.34701e-06
5.88295e-07
2.53038e-07
1.08175e-07
4.5628e-08
1.9166e-08
7.93901e-09
3.26611e-09
1.30864e-09
5.01439e-10
1.67402e-10
2.92518e-11
3.61655e-07
1.58057e-06
3.63084e-06
7.06786e-06
1.28012e-05
2.23033e-05
3.79254e-05
6.33627e-05
0.000104317
0.000169401
0.000271302
0.000428162
0.000665016
0.00101494
0.00151935
0.00222679
0.00318959
0.00445854
0.00607639
0.00807205
0.0104571
0.0132253
0.0163548
0.0198119
0.0235547
0.0275364
0.0317083
0.0360215
0.0404287
0.0448852
0.0493496
0.0537848
0.0581578
0.0624402
0.0666081
0.070642
0.0745257
0.078247
0.0817966
0.0851687
0.0883598
0.0913687
0.0941959
0.0968435
0.0993141
0.101611
0.103739
0.105701
0.1075
0.109139
0.110618
0.111936
0.113091
0.114074
0.114875
0.115479
0.115856
0.115979
0.115809
0.115282
0.114322
0.106811
0.0975049
0.0882248
0.0790976
0.0702236
0.0616825
0.053539
0.0458466
0.0386504
0.031991
0.0259054
0.0204279
0.0156011
0.0114618
0.00803752
0.00533941
0.00334252
0.00196981
0.00109702
0.000581475
0.000295621
0.000145075
6.96481e-05
3.26998e-05
1.51127e-05
6.85427e-06
3.07017e-06
1.35307e-06
5.905e-07
2.54112e-07
1.08562e-07
4.58105e-08
1.92319e-08
7.96929e-09
3.27719e-09
1.31349e-09
5.03226e-10
1.68029e-10
2.93645e-11
3.62038e-07
1.58224e-06
3.63469e-06
7.07534e-06
1.28148e-05
2.23269e-05
3.79655e-05
6.34296e-05
0.000104427
0.000169578
0.000271581
0.000428594
0.000665671
0.00101591
0.00152074
0.00222871
0.00319217
0.00446187
0.00608053
0.00807702
0.0104628
0.0132317
0.0163618
0.0198193
0.0235623
0.027544
0.0317157
0.0360285
0.0404352
0.0448911
0.0493548
0.0537893
0.0581615
0.0624432
0.0666105
0.0706438
0.0745272
0.078248
0.0817973
0.0851692
0.0883603
0.0913694
0.094197
0.0968452
0.0993169
0.101616
0.103745
0.105709
0.107511
0.109152
0.110635
0.111957
0.113115
0.114103
0.114908
0.115515
0.115895
0.116019
0.115847
0.115311
0.114335
0.106965
0.0976752
0.0884003
0.0792715
0.0703918
0.0618425
0.0536894
0.0459864
0.0387793
0.0321084
0.026011
0.0205213
0.0156819
0.0115295
0.00809179
0.00538053
0.00337159
0.00198886
0.00110863
0.000588111
0.000299204
0.000146935
7.04525e-05
3.30978e-05
1.5276e-05
6.934e-06
3.10271e-06
1.36842e-06
5.96453e-07
2.56818e-07
1.0959e-07
4.62671e-08
1.94045e-08
8.04447e-09
3.30556e-09
1.3254e-09
5.07648e-10
1.69554e-10
2.9635e-11
3.62624e-07
1.5848e-06
3.64056e-06
7.08677e-06
1.28355e-05
2.23631e-05
3.8027e-05
6.35321e-05
0.000104595
0.000169848
0.000272009
0.000429258
0.000666677
0.00101739
0.00152287
0.00223167
0.00319614
0.00446701
0.00608694
0.00808471
0.0104717
0.0132417
0.0163726
0.0198307
0.023574
0.0275558
0.0317272
0.0360395
0.0404454
0.0449003
0.0493629
0.0537961
0.058167
0.0624474
0.0666135
0.0706457
0.0745279
0.0782478
0.0817963
0.0851676
0.0883582
0.0913672
0.094195
0.0968436
0.0993162
0.101616
0.103747
0.105714
0.107518
0.109163
0.110649
0.111975
0.113138
0.11413
0.11494
0.115552
0.115934
0.11606
0.115886
0.115344
0.114352
0.1072
0.0979251
0.0886546
0.079523
0.0706356
0.0620756
0.0539098
0.0461927
0.0389703
0.0322833
0.0261691
0.0206618
0.0158038
0.011632
0.00817435
0.00544338
0.00341624
0.00201824
0.00112655
0.000598322
0.000304694
0.000149752
7.18288e-05
3.37603e-05
1.55873e-05
7.07564e-06
3.16225e-06
1.39426e-06
6.07013e-07
2.6135e-07
1.11394e-07
4.70347e-08
1.97067e-08
8.17169e-09
3.35503e-09
1.34564e-09
5.15213e-10
1.72137e-10
3.00913e-11
3.63424e-07
1.58829e-06
3.64858e-06
7.10239e-06
1.28638e-05
2.24124e-05
3.8111e-05
6.36723e-05
0.000104825
0.00017022
0.000272597
0.00043017
0.000668059
0.00101943
0.0015258
0.00223575
0.00320162
0.00447411
0.0060958
0.00809537
0.0104841
0.0132556
0.0163877
0.0198467
0.0235905
0.0275723
0.0317433
0.0360549
0.0404597
0.0449132
0.0493742
0.0538056
0.0581746
0.062453
0.0666172
0.0706474
0.0745279
0.078246
0.0817931
0.0851631
0.0883527
0.091361
0.0941886
0.0968374
0.0993105
0.101611
0.103744
0.105712
0.107519
0.109167
0.110657
0.111988
0.113155
0.114152
0.114968
0.115584
0.115971
0.116098
0.115924
0.115377
0.114372
0.107516
0.0982577
0.0889902
0.0798541
0.0709571
0.0623839
0.0542023
0.0464674
0.0392257
0.0325179
0.0263817
0.0208512
0.0159686
0.0117708
0.0082865
0.00552902
0.00347727
0.00205851
0.00115115
0.000612357
0.000312283
0.000153687
7.38248e-05
3.47116e-05
1.60069e-05
7.25976e-06
3.24434e-06
1.42976e-06
6.22486e-07
2.67908e-07
1.14162e-07
4.81897e-08
2.01755e-08
8.36569e-09
3.43185e-09
1.37664e-09
5.26862e-10
1.76073e-10
3.07847e-11
3.64452e-07
1.59278e-06
3.65889e-06
7.12246e-06
1.29002e-05
2.2476e-05
3.82192e-05
6.38531e-05
0.000105122
0.000170699
0.000273357
0.00043135
0.000669851
0.00102209
0.00152962
0.00224107
0.00320878
0.00448339
0.00610741
0.00810935
0.0105004
0.0132739
0.0164077
0.0198679
0.0236124
0.0275943
0.031765
0.0360757
0.0404792
0.0449308
0.0493897
0.0538186
0.058185
0.0624606
0.066622
0.0706495
0.0745273
0.0782429
0.0817876
0.0851556
0.0883436
0.0913506
0.0941773
0.0968257
0.0992989
0.101601
0.103735
0.105705
0.107514
0.109165
0.110658
0.111993
0.113165
0.114168
0.114988
0.11561
0.116001
0.116132
0.115959
0.115409
0.114393
0.107916
0.098672
0.0894092
0.0802686
0.0713607
0.0627721
0.0545716
0.0468152
0.0395497
0.0328162
0.0266525
0.0210929
0.0161792
0.0119486
0.00843039
0.00563918
0.00355602
0.00211066
0.00118321
0.000630923
0.00032268
0.000158989
7.62469e-05
3.58146e-05
1.65225e-05
7.49815e-06
3.3515e-06
1.47749e-06
6.43201e-07
2.76836e-07
1.17939e-07
4.97807e-08
2.08303e-08
8.63671e-09
3.53909e-09
1.41975e-09
5.4313e-10
1.81525e-10
3.17429e-11
3.65724e-07
1.59833e-06
3.67165e-06
7.14734e-06
1.29454e-05
2.25549e-05
3.83536e-05
6.4078e-05
0.000105492
0.000171297
0.000274306
0.000432827
0.000672097
0.00102542
0.00153441
0.00224776
0.00321781
0.00449514
0.00612213
0.00812714
0.0105211
0.0132973
0.0164334
0.0198952
0.0236407
0.027623
0.0317934
0.036103
0.0405049
0.0449544
0.0494105
0.0538364
0.0581994
0.0624715
0.0666291
0.070653
0.0745272
0.0782394
0.0817809
0.0851459
0.0883314
0.0913363
0.0941614
0.0968088
0.0992815
0.101583
0.103718
0.10569
0.107501
0.109155
0.110652
0.11199
0.113167
0.114175
0.115001
0.115628
0.116025
0.11616
0.115989
0.115438
0.114412
0.108411
0.0991825
0.0899247
0.0807764
0.0718548
0.0632477
0.0550249
0.0472428
0.0399487
0.033184
0.0269868
0.0213915
0.0164395
0.0121687
0.00860887
0.0057762
0.00365433
0.0021761
0.00122376
0.000654682
0.000334623
0.000164737
7.9085e-05
3.71962e-05
1.71733e-05
7.79629e-06
3.4855e-06
1.53667e-06
6.68956e-07
2.87904e-07
1.22639e-07
5.17568e-08
2.16529e-08
8.97629e-09
3.67702e-09
1.47494e-09
5.6418e-10
1.88536e-10
3.29729e-11
3.67257e-07
1.60503e-06
3.68705e-06
7.17737e-06
1.29999e-05
2.26503e-05
3.85164e-05
6.43506e-05
0.000105941
0.000172024
0.000275462
0.00043463
0.000674844
0.0010295
0.00154031
0.00225601
0.00322896
0.00450969
0.00614042
0.00814931
0.0105471
0.0133267
0.0164657
0.0199298
0.0236768
0.0276597
0.0318299
0.0361385
0.0405385
0.0449855
0.0494385
0.0538607
0.0582195
0.0624871
0.0666402
0.0706594
0.074529
0.0782367
0.0817739
0.0851351
0.0883171
0.091319
0.0941416
0.0967871
0.0992586
0.10156
0.103695
0.105667
0.10748
0.109136
0.110636
0.111979
0.11316
0.114173
0.115005
0.115637
0.11604
0.116179
0.116012
0.115461
0.114429
0.109009
0.0997928
0.0905341
0.0813838
0.072447
0.0638194
0.0555712
0.0477592
0.040431
0.0336289
0.0273912
0.021753
0.016755
0.0124358
0.008826
0.00594355
0.00377516
0.00225733
0.00127492
0.000681612
0.000348579
0.000172014
8.2696e-05
3.89209e-05
1.79765e-05
8.16298e-06
3.64993e-06
1.60922e-06
7.00504e-07
3.01446e-07
1.28387e-07
5.41719e-08
2.26586e-08
9.39134e-09
3.84631e-09