/*--------------------------------*- C++ -*----------------------------------*\
  =========                 |
  \\      /  F ield         | OpenFOAM: The Open Source CFD Toolbox
   \\    /   O peration     | Website:  https://openfoam.org
    \\  /    A nd           | Version:  8
     \\/     M anipulation  |
\*---------------------------------------------------------------------------*/
FoamFile
{
    version     2.0;
    format      ascii;
    class       volScalarField;
    location    "900/fluid";
    object      N2;
}
// * * * * * * * * * * * * * * * * * * * * * * * * * * * * * * * * * * * * * //

dimensions      [0 0 0 0 0 0 0];

internalField   nonuniform List<scalar> 
4000
(
2.30825e-06
1.00863e-05
2.31649e-05
4.50876e-05
8.16781e-05
0.000142414
0.000242538
0.00040621
0.000671086
0.00109464
0.00176245
0.00279801
0.00437285
0.00671381
0.0101033
0.0148667
0.0213442
0.0298483
0.0406172
0.0537791
0.0693378
0.0871811
0.107105
0.128843
0.152094
0.176542
0.201875
0.227794
0.254021
0.280301
0.306409
0.332149
0.357354
0.381886
0.405636
0.428517
0.450463
0.471429
0.491387
0.510327
0.528249
0.545165
0.561095
0.576068
0.590116
0.603275
0.615584
0.627085
0.637818
0.647826
0.65715
0.665832
0.67391
0.681423
0.688409
0.694902
0.700936
0.706467
0.711548
0.716407
0.720927
0.725135
0.729
0.732711
0.736262
0.739656
0.742895
0.74598
0.74891
0.75168
0.754289
0.756729
0.758994
0.761064
0.76295
0.764627
0.766078
0.767286
0.768237
0.768934
0.7694
0.769685
0.769843
0.769926
0.769966
0.769984
0.769993
0.769997
0.769999
0.769999
0.77
0.77
0.77
0.77
0.77
0.77
0.77
0.77
0.77
0.77
2.31047e-06
1.00984e-05
2.32029e-05
4.51895e-05
8.19197e-05
0.000142928
0.000243526
0.000407924
0.000673714
0.00109801
0.00176539
0.0027973
0.00436159
0.0066792
0.0100245
0.0147141
0.0210804
0.0294323
0.0400115
0.0529561
0.0682852
0.0859036
0.105623
0.127188
0.150307
0.174666
0.199955
0.22587
0.252128
0.278471
0.304667
0.330513
0.355838
0.380499
0.404383
0.427399
0.449478
0.470573
0.490655
0.509711
0.527742
0.544758
0.560781
0.575837
0.589959
0.603184
0.615553
0.627105
0.637884
0.647931
0.65729
0.666
0.674102
0.681636
0.688638
0.695144
0.701189
0.706725
0.711809
0.716673
0.721197
0.725402
0.729274
0.732994
0.736553
0.739954
0.7432
0.74629
0.749223
0.751996
0.754605
0.757043
0.759302
0.761361
0.76323
0.764882
0.766301
0.767468
0.768374
0.769025
0.769454
0.769713
0.769857
0.769931
0.769968
0.769985
0.769993
0.769997
0.769999
0.769999
0.77
0.77
0.77
0.77
0.77
0.77
0.77
0.77
0.77
0.77
2.31574e-06
1.01227e-05
2.32647e-05
4.53237e-05
8.21862e-05
0.000143419
0.000244366
0.000409244
0.000675576
0.00110022
0.00176707
0.00279603
0.00435194
0.0066516
0.00996373
0.0145981
0.0208801
0.0291138
0.0395389
0.0522972
0.0674159
0.0848117
0.104309
0.125668
0.148604
0.172816
0.197996
0.223844
0.250076
0.276431
0.302673
0.328596
0.354022
0.378804
0.402822
0.425983
0.448212
0.46946
0.489692
0.508895
0.527067
0.544217
0.560364
0.575536
0.589764
0.603087
0.615543
0.627172
0.63802
0.648127
0.657537
0.666292
0.674433
0.681998
0.689027
0.695554
0.701616
0.707158
0.712246
0.717111
0.721625
0.725828
0.729718
0.733452
0.73702
0.740427
0.743675
0.746764
0.749693
0.752458
0.755053
0.757473
0.759707
0.761737
0.763567
0.765173
0.766539
0.76765
0.768501
0.769106
0.7695
0.769737
0.769868
0.769936
0.76997
0.769986
0.769994
0.769997
0.769999
0.769999
0.77
0.77
0.77
0.77
0.77
0.77
0.77
0.77
0.77
0.77
2.31301e-06
1.01106e-05
2.32362e-05
4.52641e-05
8.20623e-05
0.000143153
0.00024378
0.000407953
0.000672787
0.00109441
0.00175549
0.00277413
0.00431269
0.00658439
0.0098535
0.014425
0.0206204
0.0287413
0.0390283
0.0516271
0.0665715
0.0837865
0.103106
0.124296
0.147083
0.171169
0.19625
0.222031
0.248229
0.274581
0.300851
0.326829
0.352334
0.377216
0.401351
0.42464
0.447008
0.468398
0.488775
0.508121
0.526433
0.543718
0.559993
0.575285
0.589626
0.603052
0.6156
0.627313
0.638235
0.648408
0.657875
0.66668
0.674862
0.682463
0.68952
0.69607
0.702149
0.70769
0.712772
0.717635
0.722157
0.726356
0.730262
0.734003
0.737574
0.740981
0.744224
0.747305
0.750221
0.752968
0.75554
0.75793
0.760128
0.762125
0.763907
0.765461
0.766772
0.767827
0.768626
0.769186
0.769548
0.769762
0.769881
0.769942
0.769973
0.769988
0.769994
0.769997
0.769999
0.77
0.77
0.77
0.77
0.77
0.77
0.77
0.77
0.77
0.77
0.77
2.30365e-06
1.00692e-05
2.3139e-05
4.50684e-05
8.16908e-05
0.000142465
0.00024252
0.00040566
0.000668644
0.001087
0.00174244
0.00275154
0.0042745
0.00652153
0.00975328
0.0142708
0.0203923
0.0284175
0.0385877
0.0510519
0.0658493
0.0829119
0.102081
0.12313
0.14579
0.169769
0.194768
0.220491
0.246658
0.273006
0.299297
0.325321
0.350893
0.37586
0.400095
0.423497
0.445985
0.467502
0.488009
0.507485
0.525924
0.543333
0.559727
0.575133
0.589579
0.6031
0.615737
0.627529
0.638522
0.648757
0.658279
0.667129
0.675351
0.682983
0.690066
0.696637
0.702724
0.708248
0.713336
0.718214
0.722734
0.726899
0.730834
0.734577
0.738148
0.74155
0.744785
0.747852
0.75075
0.753474
0.756019
0.758377
0.760535
0.762491
0.764225
0.765728
0.766984
0.767987
0.768737
0.769257
0.769588
0.769784
0.769892
0.769948
0.769975
0.769989
0.769995
0.769998
0.769999
0.77
0.77
0.77
0.77
0.77
0.77
0.77
0.77
0.77
0.77
0.77
2.2891e-06
1.0005e-05
2.29888e-05
4.4768e-05
8.11278e-05
0.000141443
0.000240697
0.000402452
0.000663067
0.00107743
0.00172628
0.00272478
0.00423114
0.00645311
0.00964848
0.0141155
0.0201703
0.028112
0.0381829
0.0505351
0.0652126
0.0821526
0.101202
0.12214
0.144701
0.168598
0.193533
0.219214
0.24536
0.271709
0.298023
0.324088
0.349719
0.374761
0.399084
0.422583
0.445177
0.466804
0.487424
0.507015
0.525567
0.543086
0.559586
0.57509
0.589627
0.603233
0.615947
0.62781
0.638865
0.649154
0.658722
0.667612
0.675864
0.683522
0.690623
0.697203
0.703301
0.708825
0.71393
0.718809
0.723326
0.727452
0.731386
0.735133
0.738701
0.742095
0.745319
0.748371
0.751249
0.753949
0.756465
0.75879
0.760907
0.762819
0.764511
0.765967
0.767175
0.768129
0.768835
0.769319
0.769625
0.769804
0.769902
0.769953
0.769978
0.76999
0.769995
0.769998
0.769999
0.77
0.77
0.77
0.77
0.77
0.77
0.77
0.77
0.77
0.77
0.77
2.27233e-06
9.93139e-06
2.28178e-05
4.44298e-05
8.05023e-05
0.000140326
0.000238742
0.000399082
0.000657335
0.00106782
0.0017104
0.002699
0.00419016
0.00638954
0.00955256
0.0139753
0.0199721
0.0278419
0.0378284
0.0500866
0.0646646
0.0815043
0.100457
0.121306
0.143791
0.167625
0.192514
0.218166
0.244301
0.270658
0.296996
0.323101
0.348788
0.373897
0.398297
0.421883
0.444568
0.466291
0.487009
0.506697
0.525346
0.54296
0.55955
0.575138
0.589755
0.603434
0.616214
0.628136
0.639243
0.649577
0.659183
0.668103
0.676379
0.684053
0.691162
0.697747
0.703849
0.709323
0.714554
0.719404
0.723899
0.727993
0.731915
0.735653
0.739213
0.742598
0.745808
0.748844
0.751702
0.75438
0.756871
0.759166
0.761249
0.763123
0.764772
0.766182
0.767343
0.768253
0.76892
0.769373
0.769656
0.769821
0.76991
0.769957
0.76998
0.769991
0.769996
0.769998
0.769999
0.77
0.77
0.77
0.77
0.77
0.77
0.77
0.77
0.77
0.77
0.77
2.25495e-06
9.85515e-06
2.26413e-05
4.40821e-05
7.98625e-05
0.00013919
0.000236768
0.000395708
0.000651652
0.00105838
0.00169499
0.0026743
0.00415141
0.00633022
0.00946428
0.0138479
0.0197945
0.027603
0.0375185
0.0496986
0.0641952
0.0809541
0.0998303
0.120611
0.143037
0.166825
0.191681
0.217316
0.243449
0.269818
0.296183
0.322328
0.348065
0.373235
0.397705
0.421366
0.444132
0.465938
0.486741
0.506515
0.525247
0.542938
0.559602
0.575261
0.589944
0.603684
0.616518
0.628489
0.639638
0.650008
0.659645
0.66859
0.676886
0.684576
0.6917
0.698297
0.704376
0.709847
0.715083
0.719929
0.724414
0.72849
0.732402
0.736131
0.739681
0.743054
0.746249
0.749266
0.752101
0.75475
0.757207
0.759469
0.761515
0.763357
0.764971
0.766354
0.767483
0.768358
0.768992
0.769418
0.769683
0.769835
0.769918
0.76996
0.769981
0.769991
0.769996
0.769998
0.769999
0.77
0.77
0.77
0.77
0.77
0.77
0.77
0.77
0.77
0.77
0.77
2.23812e-06
9.78146e-06
2.24711e-05
4.37481e-05
7.92506e-05
0.000138109
0.000234901
0.000392538
0.00064635
0.00104965
0.00168085
0.00265183
0.00411646
0.00627718
0.00938598
0.0137359
0.0196395
0.027396
0.0372518
0.0493673
0.0637973
0.0804909
0.0993065
0.120033
0.142415
0.16617
0.191006
0.216632
0.242769
0.269154
0.295546
0.32173
0.347515
0.37274
0.39727
0.420998
0.443833
0.46571
0.486585
0.50643
0.525231
0.542989
0.559717
0.575435
0.590172
0.603961
0.61684
0.628849
0.640032
0.65043
0.660089
0.669052
0.677361
0.685059
0.692185
0.698778
0.704836
0.710303
0.715534
0.720372
0.724849
0.728923
0.732833
0.736557
0.740099
0.743462
0.746645
0.749647
0.752464
0.755092
0.757524
0.759754
0.761768
0.763573
0.765158
0.766504
0.767603
0.768449
0.769054
0.769457
0.769705
0.769847
0.769924
0.769963
0.769983
0.769992
0.769996
0.769998
0.769999
0.77
0.77
0.77
0.77
0.77
0.77
0.77
0.77
0.77
0.77
0.77
2.22248e-06
9.71303e-06
2.23133e-05
4.34389e-05
7.86857e-05
0.000137114
0.000233189
0.000389643
0.000641531
0.00104175
0.00166813
0.00263174
0.00408541
0.00623037
0.00931735
0.0136383
0.0195055
0.0272182
0.0370245
0.0490868
0.0634626
0.0801041
0.098872
0.119558
0.141907
0.165639
0.190462
0.216087
0.242232
0.268635
0.295055
0.321275
0.347103
0.372378
0.396963
0.420748
0.443644
0.465584
0.48652
0.506423
0.525281
0.543094
0.559874
0.575641
0.590422
0.60425
0.617164
0.629204
0.640412
0.650832
0.660508
0.669483
0.677801
0.685503
0.692631
0.699222
0.705264
0.710718
0.715942
0.720771
0.725238
0.729306
0.733211
0.736928
0.74046
0.74381
0.746978
0.749962
0.752761
0.75537
0.757781
0.75999
0.761991
0.763776
0.765329
0.766638
0.767703
0.768523
0.769107
0.76949
0.769725
0.769858
0.769929
0.769966
0.769984
0.769993
0.769997
0.769998
0.769999
0.77
0.77
0.77
0.77
0.77
0.77
0.77
0.77
0.77
0.77
0.77
2.20838e-06
9.65134e-06
2.21713e-05
4.31611e-05
7.8179e-05
0.000136223
0.000231662
0.000387069
0.000637262
0.00103479
0.00165696
0.00261417
0.0040584
0.00618984
0.00925824
0.0135547
0.0193912
0.0270675
0.0368328
0.0488515
0.0631836
0.0797835
0.0985143
0.119169
0.141495
0.165212
0.190028
0.215655
0.241811
0.268234
0.294681
0.320934
0.346802
0.37212
0.396753
0.420588
0.443535
0.465527
0.486513
0.506467
0.525373
0.543232
0.560055
0.575861
0.590677
0.604537
0.617479
0.629542
0.64077
0.651205
0.660893
0.669877
0.6782
0.685904
0.693031
0.69962
0.705651
0.711097
0.71631
0.721127
0.725577
0.729645
0.733549
0.737262
0.740789
0.744131
0.747288
0.750259
0.753041
0.755629
0.758023
0.760216
0.762196
0.763955
0.765483
0.766767
0.767802
0.768589
0.769151
0.769518
0.769741
0.769867
0.769934
0.769968
0.769985
0.769993
0.769997
0.769999
0.769999
0.77
0.77
0.77
0.77
0.77
0.77
0.77
0.77
0.77
0.77
0.77
2.19595e-06
9.59701e-06
2.20462e-05
4.29168e-05
7.77343e-05
0.000135444
0.000230327
0.000384824
0.00063355
0.00102875
0.00164731
0.00259905
0.00403523
0.00615523
0.00920795
0.0134839
0.0192949
0.026941
0.0366727
0.048656
0.062953
0.0795201
0.0982221
0.118854
0.141163
0.16487
0.189684
0.215316
0.241485
0.267927
0.294399
0.320683
0.346586
0.371943
0.396617
0.420495
0.443486
0.465521
0.48655
0.506545
0.525491
0.543388
0.560245
0.576082
0.590927
0.604812
0.617775
0.629856
0.641098
0.651545
0.661242
0.670231
0.678557
0.686261
0.693384
0.699965
0.705988
0.711426
0.716631
0.721437
0.725875
0.729942
0.73384
0.737545
0.741062
0.744392
0.747538
0.750498
0.75327
0.755849
0.758232
0.760408
0.762369
0.764107
0.765612
0.766874
0.767886
0.76865
0.769189
0.769542
0.769754
0.769874
0.769938
0.76997
0.769986
0.769993
0.769997
0.769999
0.769999
0.77
0.77
0.77
0.77
0.77
0.77
0.77
0.77
0.77
0.77
0.77
2.18521e-06
9.55009e-06
2.19383e-05
4.27062e-05
7.73514e-05
0.000134773
0.000229181
0.000382902
0.000630378
0.0010236
0.00163911
0.00258624
0.00401566
0.00612608
0.00916576
0.0134248
0.0192146
0.0268361
0.0365404
0.0484952
0.0627643
0.0793056
0.0979856
0.1186
0.140897
0.164599
0.189414
0.215053
0.241234
0.267694
0.29419
0.320501
0.346434
0.371825
0.396534
0.420448
0.443476
0.465547
0.486613
0.506642
0.525621
0.543548
0.560433
0.576295
0.591162
0.605067
0.618046
0.630141
0.641394
0.651849
0.66155
0.670542
0.678867
0.686568
0.693687
0.700267
0.706282
0.711711
0.716907
0.721702
0.726129
0.730198
0.734093
0.737794
0.741305
0.744631
0.74777
0.750721
0.753482
0.756048
0.758414
0.760572
0.762516
0.764236
0.765721
0.766963
0.767955
0.768701
0.769223
0.769561
0.769765
0.76988
0.769941
0.769972
0.769987
0.769994
0.769997
0.769999
0.769999
0.77
0.77
0.77
0.77
0.77
0.77
0.77
0.77
0.77
0.77
0.77
2.17612e-06
9.51036e-06
2.1847e-05
4.25282e-05
7.70279e-05
0.000134208
0.000228216
0.000381286
0.000627716
0.00101929
0.00163226
0.00257556
0.00399939
0.00610191
0.00913087
0.013376
0.0191487
0.0267501
0.0364325
0.0483646
0.0626115
0.0791329
0.0977962
0.118398
0.140688
0.164386
0.189204
0.21485
0.241044
0.267521
0.294037
0.320372
0.346332
0.371751
0.39649
0.420435
0.443493
0.465594
0.486689
0.506747
0.525752
0.543703
0.56061
0.576492
0.591377
0.605296
0.618288
0.630393
0.641654
0.652114
0.661819
0.67081
0.679134
0.686835
0.693954
0.700529
0.706535
0.711956
0.717143
0.721929
0.726344
0.730415
0.734307
0.738004
0.741512
0.744832
0.747964
0.750907
0.753657
0.756212
0.758565
0.76071
0.762639
0.764343
0.765813
0.767037
0.768012
0.768742
0.769251
0.769579
0.769775
0.769885
0.769943
0.769973
0.769987
0.769994
0.769997
0.769999
0.769999
0.77
0.77
0.77
0.77
0.77
0.77
0.77
0.77
0.77
0.77
0.77
2.16858e-06
9.47744e-06
2.17714e-05
4.23807e-05
7.67603e-05
0.00013374
0.000227419
0.000379954
0.000625526
0.00101575
0.00162663
0.00256681
0.00398609
0.00608221
0.0091025
0.0133364
0.0190953
0.0266808
0.0363457
0.0482599
0.0624897
0.0789958
0.0976464
0.118239
0.140524
0.164222
0.189042
0.214696
0.240901
0.267393
0.293927
0.320282
0.346265
0.371707
0.396471
0.420441
0.443525
0.465651
0.486769
0.506849
0.525876
0.543846
0.56077
0.576668
0.591566
0.605497
0.618498
0.63061
0.641876
0.652338
0.662043
0.671037
0.679363
0.687063
0.694179
0.70075
0.706748
0.712162
0.717343
0.722122
0.726518
0.730594
0.734485
0.73818
0.741684
0.744998
0.748124
0.75106
0.753802
0.756347
0.75869
0.760824
0.762741
0.764432
0.765888
0.767098
0.768059
0.768776
0.769273
0.769593
0.769783
0.769889
0.769945
0.769974
0.769988
0.769994
0.769997
0.769999
0.769999
0.77
0.77
0.77
0.77
0.77
0.77
0.77
0.77
0.77
0.77
0.77
2.16249e-06
9.45086e-06
2.17103e-05
4.22618e-05
7.65447e-05
0.000133364
0.000226778
0.000378883
0.000623768
0.00101291
0.00162214
0.00255983
0.00397549
0.00606653
0.00907997
0.013305
0.0190532
0.0266262
0.0362775
0.0481778
0.0623945
0.078889
0.0975304
0.118117
0.140398
0.164096
0.18892
0.214581
0.240796
0.2673
0.293849
0.320221
0.346222
0.371684
0.396468
0.420459
0.443562
0.465708
0.486845
0.506943
0.525986
0.543971
0.560909
0.576819
0.591727
0.605666
0.618673
0.63079
0.642059
0.652526
0.662235
0.671229
0.679554
0.687252
0.694364
0.700931
0.706922
0.712331
0.717507
0.72228
0.726659
0.730739
0.734628
0.738321
0.741822
0.745132
0.748253
0.751183
0.753919
0.756457
0.758791
0.760916
0.762823
0.764503
0.765948
0.767147
0.768097
0.768803
0.769291
0.769604
0.769789
0.769892
0.769947
0.769975
0.769988
0.769994
0.769997
0.769999
0.77
0.77
0.77
0.77
0.77
0.77
0.77
0.77
0.77
0.77
0.77
0.77
2.15776e-06
9.4302e-06
2.16629e-05
4.21695e-05
7.63772e-05
0.000133072
0.000226282
0.000378054
0.000622407
0.00101072
0.00161866
0.00255445
0.00396733
0.00605447
0.00906267
0.013281
0.0190209
0.0265844
0.0362255
0.0481155
0.0623223
0.0788083
0.097443
0.118025
0.140304
0.164003
0.188831
0.214497
0.24072
0.267235
0.293795
0.320181
0.346196
0.371674
0.396473
0.420479
0.443598
0.465759
0.486911
0.507022
0.526077
0.544074
0.561022
0.57694
0.591855
0.6058
0.618813
0.630935
0.642208
0.652678
0.662387
0.671381
0.679705
0.687401
0.69451
0.701074
0.707061
0.712465
0.717636
0.722404
0.72677
0.730854
0.734741
0.738432
0.74193
0.745237
0.748354
0.751279
0.75401
0.756542
0.75887
0.760987
0.762887
0.764559
0.765995
0.767186
0.768126
0.768824
0.769305
0.769612
0.769794
0.769895
0.769948
0.769975
0.769988
0.769995
0.769998
0.769999
0.77
0.77
0.77
0.77
0.77
0.77
0.77
0.77
0.77
0.77
0.77
0.77
2.1543e-06
9.41508e-06
2.16282e-05
4.21019e-05
7.62548e-05
0.000132858
0.000225919
0.000377449
0.000621415
0.00100912
0.00161613
0.00255052
0.00396139
0.00604571
0.00905011
0.0132635
0.0189975
0.0265542
0.036188
0.0480706
0.0622705
0.0787505
0.0973807
0.11796
0.140238
0.163938
0.188768
0.214439
0.240668
0.267191
0.29376
0.320156
0.346182
0.37167
0.396481
0.420498
0.443629
0.4658
0.486962
0.507083
0.526147
0.544152
0.561107
0.577032
0.591953
0.605904
0.618921
0.631046
0.642321
0.652791
0.662501
0.671495
0.679817
0.687512
0.694619
0.70118
0.707164
0.712564
0.717732
0.722496
0.726853
0.730939
0.734824
0.738513
0.74201
0.745315
0.748429
0.75135
0.754077
0.756605
0.758928
0.76104
0.762934
0.7646
0.76603
0.767214
0.768147
0.768839
0.769315
0.769618
0.769797
0.769897
0.769949
0.769976
0.769989
0.769995
0.769998
0.769999
0.77
0.77
0.77
0.77
0.77
0.77
0.77
0.77
0.77
0.77
0.77
0.77
2.15204e-06
9.40521e-06
2.16055e-05
4.20578e-05
7.61749e-05
0.000132719
0.000225682
0.000377054
0.000620769
0.00100808
0.00161449
0.00254798
0.00395754
0.00604004
0.00904198
0.0132523
0.0189824
0.0265348
0.0361638
0.0480416
0.0622372
0.0787134
0.0973407
0.117918
0.140196
0.163896
0.188728
0.214402
0.240636
0.267163
0.293739
0.320141
0.346174
0.37167
0.396489
0.420514
0.443652
0.46583
0.486999
0.507127
0.526197
0.544207
0.561167
0.577096
0.592021
0.605974
0.618994
0.63112
0.642396
0.652867
0.662577
0.67157
0.679892
0.687585
0.694691
0.701251
0.707232
0.71263
0.717796
0.722557
0.726907
0.730995
0.734879
0.738567
0.742062
0.745366
0.748478
0.751397
0.754121
0.756646
0.758966
0.761075
0.762965
0.764627
0.766053
0.767232
0.768161
0.768849
0.769322
0.769622
0.7698
0.769898
0.76995
0.769976
0.769989
0.769995
0.769998
0.769999
0.77
0.77
0.77
0.77
0.77
0.77
0.77
0.77
0.77
0.77
0.77
0.77
2.15094e-06
9.40041e-06
2.15945e-05
4.20365e-05
7.61364e-05
0.000132652
0.000225569
0.000376866
0.00062046
0.00100758
0.00161371
0.00254677
0.00395572
0.00603735
0.00903814
0.013247
0.0189753
0.0265256
0.0361524
0.048028
0.0622214
0.0786959
0.0973218
0.117898
0.140176
0.163876
0.18871
0.214385
0.240621
0.267151
0.293729
0.320134
0.346171
0.37167
0.396492
0.420521
0.443663
0.465845
0.487017
0.507148
0.526221
0.544234
0.561197
0.577128
0.592054
0.606009
0.61903
0.631157
0.642433
0.652904
0.662614
0.671607
0.679929
0.687621
0.694727
0.701286
0.707266
0.712663
0.717827
0.722588
0.726934
0.731022
0.734906
0.738594
0.742088
0.745391
0.748502
0.75142
0.754143
0.756666
0.758985
0.761092
0.76298
0.76464
0.766064
0.767241
0.768168
0.768853
0.769325
0.769624
0.769801
0.769899
0.76995
0.769976
0.769989
0.769995
0.769998
0.769999
0.77
0.77
0.77
0.77
0.77
0.77
0.77
0.77
0.77
0.77
0.77
0.77
2.15094e-06
9.40044e-06
2.15946e-05
4.20366e-05
7.61366e-05
0.000132653
0.000225569
0.000376867
0.000620462
0.00100759
0.00161371
0.00254678
0.00395573
0.00603736
0.00903816
0.013247
0.0189753
0.0265256
0.0361524
0.048028
0.0622215
0.0786959
0.0973219
0.117898
0.140176
0.163876
0.18871
0.214385
0.240621
0.267151
0.293729
0.320134
0.346171
0.371671
0.396493
0.420522
0.443663
0.465845
0.487018
0.507148
0.526221
0.544234
0.561197
0.577128
0.592054
0.606009
0.619029
0.631157
0.642433
0.652904
0.662614
0.671607
0.679929
0.687621
0.694727
0.701286
0.707266
0.712663
0.717827
0.722588
0.726934
0.731022
0.734906
0.738594
0.742088
0.745391
0.748502
0.75142
0.754143
0.756666
0.758985
0.761092
0.76298
0.76464
0.766064
0.767241
0.768168
0.768853
0.769325
0.769624
0.769801
0.769899
0.76995
0.769976
0.769989
0.769995
0.769998
0.769999
0.77
0.77
0.77
0.77
0.77
0.77
0.77
0.77
0.77
0.77
0.77
0.77
2.15206e-06
9.40529e-06
2.16057e-05
4.20582e-05
7.61755e-05
0.00013272
0.000225684
0.000377057
0.000620773
0.00100809
0.0016145
0.002548
0.00395757
0.00604007
0.00904203
0.0132523
0.0189825
0.0265349
0.0361639
0.0480418
0.0622373
0.0787136
0.0973409
0.117918
0.140196
0.163896
0.188728
0.214402
0.240636
0.267163
0.293739
0.320141
0.346174
0.37167
0.396488
0.420513
0.443651
0.46583
0.486999
0.507126
0.526196
0.544207
0.561167
0.577096
0.592021
0.605974
0.618994
0.63112
0.642396
0.652867
0.662576
0.67157
0.679892
0.687585
0.694691
0.701251
0.707232
0.71263
0.717795
0.722557
0.726907
0.730994
0.734879
0.738567
0.742062
0.745366
0.748478
0.751397
0.754121
0.756646
0.758966
0.761075
0.762965
0.764627
0.766053
0.767232
0.768161
0.768849
0.769322
0.769622
0.7698
0.769898
0.76995
0.769976
0.769989
0.769995
0.769998
0.769999
0.77
0.77
0.77
0.77
0.77
0.77
0.77
0.77
0.77
0.77
0.77
0.77
2.15433e-06
9.41521e-06
2.16285e-05
4.21025e-05
7.62558e-05
0.00013286
0.000225922
0.000377453
0.000621422
0.00100913
0.00161615
0.00255055
0.00396143
0.00604577
0.00905019
0.0132636
0.0189977
0.0265544
0.0361882
0.0480708
0.0622707
0.0787508
0.097381
0.11796
0.140238
0.163938
0.188768
0.214439
0.240669
0.267191
0.29376
0.320156
0.346182
0.371671
0.396481
0.420499
0.443629
0.4658
0.486962
0.507083
0.526147
0.544152
0.561107
0.577032
0.591953
0.605904
0.618921
0.631046
0.642321
0.652791
0.662501
0.671495
0.679817
0.687511
0.694619
0.70118
0.707163
0.712564
0.717731
0.722496
0.726852
0.730938
0.734824
0.738513
0.742009
0.745315
0.748429
0.75135
0.754077
0.756604
0.758928
0.76104
0.762934
0.7646
0.76603
0.767214
0.768147
0.768839
0.769315
0.769618
0.769797
0.769897
0.769949
0.769976
0.769989
0.769995
0.769998
0.769999
0.77
0.77
0.77
0.77
0.77
0.77
0.77
0.77
0.77
0.77
0.77
0.77
2.1578e-06
9.43038e-06
2.16633e-05
4.21703e-05
7.63787e-05
0.000133074
0.000226286
0.000378061
0.000622418
0.00101073
0.00161869
0.00255448
0.00396738
0.00605455
0.00906277
0.0132811
0.0190211
0.0265846
0.0362258
0.0481158
0.0623227
0.0788087
0.0974434
0.118025
0.140305
0.164003
0.188831
0.214497
0.240721
0.267235
0.293796
0.320181
0.346196
0.371674
0.396473
0.420479
0.443598
0.465759
0.486911
0.507022
0.526077
0.544074
0.561022
0.57694
0.591855
0.6058
0.618813
0.630935
0.642208
0.652677
0.662387
0.671381
0.679705
0.6874
0.69451
0.701074
0.70706
0.712464
0.717635
0.722403
0.72677
0.730853
0.73474
0.738431
0.741929
0.745237
0.748354
0.751279
0.75401
0.756542
0.75887
0.760987
0.762886
0.764559
0.765995
0.767186
0.768126
0.768824
0.769305
0.769612
0.769794
0.769895
0.769948
0.769975
0.769988
0.769995
0.769998
0.769999
0.77
0.77
0.77
0.77
0.77
0.77
0.77
0.77
0.77
0.77
0.77
0.77
2.16255e-06
9.45109e-06
2.17109e-05
4.22629e-05
7.65465e-05
0.000133367
0.000226783
0.000378891
0.000623781
0.00101293
0.00162217
0.00255988
0.00397556
0.00606662
0.0090801
0.0133052
0.0190534
0.0266264
0.0362778
0.0481782
0.0623949
0.0788894
0.0975309
0.118117
0.140399
0.164097
0.188921
0.214581
0.240796
0.267301
0.293849
0.320221
0.346222
0.371685
0.396468
0.420459
0.443562
0.465708
0.486845
0.506943
0.525986
0.543971
0.560909
0.576819
0.591727
0.605666
0.618673
0.63079
0.642059
0.652525
0.662234
0.671229
0.679554
0.687251
0.694363
0.70093
0.706922
0.71233
0.717506
0.722279
0.726659
0.730739
0.734627
0.73832
0.741821
0.745132
0.748253
0.751183
0.753918
0.756456
0.758791
0.760916
0.762822
0.764503
0.765948
0.767147
0.768097
0.768803
0.769291
0.769604
0.769789
0.769892
0.769947
0.769975
0.769988
0.769994
0.769997
0.769999
0.77
0.77
0.77
0.77
0.77
0.77
0.77
0.77
0.77
0.77
0.77
0.77
2.16864e-06
9.47772e-06
2.1772e-05
4.2382e-05
7.67625e-05
0.000133744
0.000227425
0.000379964
0.000625541
0.00101577
0.00162667
0.00256687
0.00398617
0.00608232
0.00910266
0.0133366
0.0190956
0.0266812
0.0363461
0.0482604
0.0624902
0.0789963
0.097647
0.11824
0.140524
0.164222
0.189043
0.214696
0.240902
0.267393
0.293927
0.320282
0.346265
0.371708
0.396472
0.420442
0.443525
0.465651
0.486769
0.506849
0.525875
0.543846
0.56077
0.576668
0.591566
0.605497
0.618498
0.63061
0.641875
0.652338
0.662043
0.671037
0.679363
0.687063
0.694178
0.700749
0.706747
0.712161
0.717342
0.722122
0.726518
0.730594
0.734484
0.738179
0.741683
0.744998
0.748124
0.751059
0.753802
0.756347
0.75869
0.760824
0.76274
0.764432
0.765888
0.767098
0.768059
0.768776
0.769273
0.769593
0.769783
0.769889
0.769945
0.769974
0.769988
0.769994
0.769997
0.769999
0.769999
0.77
0.77
0.77
0.77
0.77
0.77
0.77
0.77
0.77
0.77
0.77
2.17619e-06
9.5107e-06
2.18478e-05
4.25296e-05
7.70305e-05
0.000134212
0.000228223
0.000381297
0.000627734
0.00101932
0.0016323
0.00257562
0.00399948
0.00610204
0.00913105
0.0133762
0.019149
0.0267505
0.0364329
0.0483651
0.0626121
0.0791336
0.0977968
0.118399
0.140688
0.164387
0.189204
0.214851
0.241044
0.267521
0.294037
0.320372
0.346332
0.371751
0.39649
0.420435
0.443493
0.465595
0.486689
0.506747
0.525752
0.543703
0.56061
0.576492
0.591376
0.605296
0.618288
0.630393
0.641653
0.652114
0.661818
0.670809
0.679133
0.686834
0.693953
0.700528
0.706534
0.711955
0.717143
0.721928
0.726343
0.730414
0.734306
0.738003
0.741512
0.744832
0.747964
0.750906
0.753657
0.756212
0.758565
0.76071
0.762639
0.764343
0.765812
0.767037
0.768012
0.768742
0.769251
0.769579
0.769775
0.769885
0.769943
0.769973
0.769987
0.769994
0.769997
0.769999
0.769999
0.77
0.77
0.77
0.77
0.77
0.77
0.77
0.77
0.77
0.77
0.77
2.1853e-06
9.55047e-06
2.19392e-05
4.27079e-05
7.73543e-05
0.000134778
0.000229189
0.000382916
0.000630399
0.00102363
0.00163916
0.00258631
0.00401577
0.00612623
0.00916597
0.013425
0.019215
0.0268365
0.0365409
0.0484958
0.0627649
0.0793064
0.0979864
0.118601
0.140898
0.1646
0.189415
0.215053
0.241235
0.267695
0.29419
0.320501
0.346435
0.371825
0.396534
0.420448
0.443476
0.465546
0.486612
0.506642
0.525621
0.543547
0.560432
0.576295
0.591162
0.605066
0.618046
0.63014
0.641393
0.651848
0.66155
0.670542
0.678867
0.686568
0.693687
0.700268
0.706282
0.711711
0.716907
0.721702
0.726129
0.730197
0.734092
0.737793
0.741304
0.74463
0.74777
0.750721
0.753482
0.756048
0.758414
0.760572
0.762516
0.764235
0.765721
0.766963
0.767955
0.768701
0.769223
0.769561
0.769765
0.76988
0.769941
0.769972
0.769987
0.769994
0.769997
0.769999
0.769999
0.77
0.77
0.77
0.77
0.77
0.77
0.77
0.77
0.77
0.77
0.77
2.19604e-06
9.59743e-06
2.20472e-05
4.29186e-05
7.77375e-05
0.000135449
0.000230336
0.000384839
0.000633573
0.00102878
0.00164737
0.00259913
0.00403535
0.00615539
0.00920818
0.0134842
0.0192953
0.0269415
0.0366733
0.0486567
0.0629538
0.0795209
0.098223
0.118855
0.141164
0.164871
0.189685
0.215317
0.241486
0.267928
0.2944
0.320683
0.346586
0.371943
0.396618
0.420496
0.443488
0.465522
0.486551
0.506546
0.525492
0.543388
0.560245
0.576082
0.590926
0.604812
0.617774
0.629856
0.641098
0.651545
0.661241
0.67023
0.678555
0.68626
0.693382
0.699963
0.705986
0.711425
0.71663
0.721436
0.725875
0.729942
0.73384
0.737546
0.741063
0.744392
0.747538
0.750498
0.75327
0.755851
0.758232
0.760408
0.762369
0.764107
0.765612
0.766874
0.767886
0.76865
0.769189
0.769542
0.769754
0.769874
0.769938
0.76997
0.769986
0.769993
0.769997
0.769999
0.769999
0.77
0.77
0.77
0.77
0.77
0.77
0.77
0.77
0.77
0.77
0.77
2.20848e-06
9.65182e-06
2.21723e-05
4.31631e-05
7.81826e-05
0.00013623
0.000231672
0.000387085
0.000637288
0.00103483
0.00165702
0.00261426
0.00405853
0.00619003
0.00925849
0.0135551
0.0193916
0.027068
0.0368334
0.0488522
0.0631844
0.0797845
0.0985153
0.11917
0.141496
0.165213
0.190029
0.215656
0.241812
0.268235
0.294681
0.320934
0.346802
0.37212
0.396752
0.420586
0.443533
0.465525
0.486512
0.506466
0.525373
0.543232
0.560054
0.57586
0.590677
0.604537
0.617478
0.629542
0.640769
0.651205
0.660892
0.669876
0.678199
0.685904
0.693031
0.69962
0.705651
0.711097
0.716311
0.721126
0.725577
0.729645
0.733548
0.737261
0.740787
0.744129
0.747285
0.750256
0.753037
0.755626
0.75802
0.760212
0.762195
0.763955
0.765483
0.766768
0.767802
0.768589
0.769151
0.769518
0.769741
0.769867
0.769934
0.769968
0.769985
0.769993
0.769997
0.769999
0.769999
0.77
0.77
0.77
0.77
0.77
0.77
0.77
0.77
0.77
0.77
0.77
2.2226e-06
9.71354e-06
2.23145e-05
4.34411e-05
7.86896e-05
0.00013712
0.0002332
0.000389661
0.000641559
0.0010418
0.0016682
0.00263183
0.00408556
0.00623057
0.00931763
0.0136387
0.0195059
0.0272188
0.0370252
0.0490876
0.0634635
0.0801051
0.0988731
0.119559
0.141909
0.165641
0.190464
0.216088
0.242233
0.268636
0.295056
0.321276
0.347104
0.372379
0.396965
0.42075
0.443646
0.465585
0.486521
0.506423
0.525281
0.543094
0.559874
0.57564
0.590421
0.60425
0.617164
0.629204
0.640411
0.650831
0.660507
0.669482
0.6778
0.685502
0.69263
0.699221
0.705263
0.710717
0.715941
0.72077
0.725238
0.729306
0.733212
0.73693
0.740464
0.743816
0.746987
0.749974
0.752774
0.755384
0.757796
0.760004
0.762
0.76378
0.765332
0.766643
0.767704
0.768523
0.769107
0.769491
0.769725
0.769858
0.769929
0.769966
0.769984
0.769993
0.769997
0.769998
0.769999
0.77
0.77
0.77
0.77
0.77
0.77
0.77
0.77
0.77
0.77
0.77
2.23825e-06
9.78202e-06
2.24724e-05
4.37505e-05
7.92549e-05
0.000138116
0.000234913
0.000392558
0.000646381
0.0010497
0.00168092
0.00265193
0.00411662
0.0062774
0.00938628
0.0137363
0.01964
0.0273966
0.0372526
0.0493682
0.0637983
0.0804921
0.0993077
0.120035
0.142417
0.166172
0.191007
0.216633
0.24277
0.269155
0.295547
0.32173
0.347515
0.37274
0.39727
0.420997
0.443833
0.46571
0.486585
0.50643
0.525231
0.542989
0.559717
0.575435
0.590172
0.603961
0.61684
0.628849
0.640031
0.65043
0.660089
0.669051
0.677361
0.685058
0.692184
0.698777
0.704836
0.710303
0.715534
0.720372
0.724849
0.728922
0.732832
0.736556
0.740098
0.74346
0.746641
0.749641
0.752457
0.755083
0.757515
0.759745
0.761762
0.763569
0.765151
0.766498
0.767601
0.768448
0.769054
0.769457
0.769705
0.769847
0.769924
0.769963
0.769983
0.769992
0.769996
0.769998
0.769999
0.77
0.77
0.77
0.77
0.77
0.77
0.77
0.77
0.77
0.77
0.77
2.25508e-06
9.85574e-06
2.26426e-05
4.40847e-05
7.98671e-05
0.000139197
0.000236781
0.000395729
0.000651684
0.00105843
0.00169506
0.00267441
0.00415158
0.00633046
0.0094646
0.0138483
0.0197951
0.0276037
0.0375193
0.0496996
0.0641964
0.0809554
0.0998317
0.120612
0.143038
0.166826
0.191683
0.217318
0.24345
0.269819
0.296184
0.322329
0.348066
0.373236
0.397706
0.421366
0.444132
0.465939
0.486741
0.506514
0.525246
0.542938
0.559602
0.575261
0.589944
0.603683
0.616518
0.628488
0.639637
0.650008
0.659644
0.668589
0.676886
0.684575
0.691699
0.698296
0.704375
0.709846
0.715082
0.719928
0.724413
0.728489
0.732401
0.73613
0.73968
0.743053
0.746249
0.749267
0.752105
0.754757
0.75722
0.759484
0.761534
0.763375
0.764989
0.766363
0.767487
0.768359
0.768993
0.769419