/*--------------------------------*- C++ -*----------------------------------*\
  =========                 |
  \\      /  F ield         | OpenFOAM: The Open Source CFD Toolbox
   \\    /   O peration     | Website:  https://openfoam.org
    \\  /    A nd           | Version:  8
     \\/     M anipulation  |
\*---------------------------------------------------------------------------*/
FoamFile
{
    version     2.0;
    format      ascii;
    class       volScalarField;
    location    "900/fluid";
    object      O2;
}
// * * * * * * * * * * * * * * * * * * * * * * * * * * * * * * * * * * * * * //

dimensions      [0 0 0 0 0 0 0];

internalField   nonuniform List<scalar> 
4000
(
4.58656e-10
2.00271e-09
4.5918e-09
8.91301e-09
1.60842e-08
2.79028e-08
4.72187e-08
7.84749e-08
1.2846e-07
2.07298e-07
3.29654e-07
5.16041e-07
7.94045e-07
1.19843e-06
1.76988e-06
2.55154e-06
3.58302e-06
4.89298e-06
6.49232e-06
8.37023e-06
1.04947e-05
1.28164e-05
1.52753e-05
1.78061e-05
2.03438e-05
2.2827e-05
2.52004e-05
2.74164e-05
2.94354e-05
3.12275e-05
3.27734e-05
3.4068e-05
3.51268e-05
3.59957e-05
3.6764e-05
3.75785e-05
3.86552e-05
4.02899e-05
4.28688e-05
4.68842e-05
5.29647e-05
6.19194e-05
7.47981e-05
9.29679e-05
0.000118215
0.000152876
0.000200022
0.00026364
0.000348946
0.000463087
0.000615224
0.000817402
0.00108544
0.00144008
0.00190852
0.00252646
0.00334074
0.00439839
0.00577278
0.00762908
0.0100717
0.0132935
0.0184336
0.0348623
0.0514965
0.0680772
0.0844027
0.100314
0.115684
0.13041
0.144402
0.157582
0.169877
0.181154
0.191457
0.200625
0.20856
0.215163
0.220364
0.224171
0.226721
0.228276
0.229145
0.229593
0.229812
0.229915
0.229962
0.229984
0.229993
0.229997
0.229999
0.229999
0.23
0.23
0.23
0.23
0.23
0.23
0.23
0.23
4.6572e-10
2.03497e-09
4.67151e-09
9.08253e-09
1.64208e-08
2.85424e-08
4.8392e-08
8.05589e-08
1.32043e-07
2.1324e-07
3.39085e-07
5.30067e-07
8.1477e-07
1.22821e-06
1.81141e-06
2.60788e-06
3.65791e-06
4.99116e-06
6.61982e-06
8.53454e-06
1.07045e-05
1.3081e-05
1.56037e-05
1.82065e-05
2.08227e-05
2.33888e-05
2.58473e-05
2.8148e-05
3.02493e-05
3.21191e-05
3.37367e-05
3.50958e-05
3.62116e-05
3.71309e-05
3.7946e-05
3.88093e-05
3.99459e-05
4.1664e-05
4.4364e-05
4.85546e-05
5.488e-05
6.41646e-05
7.74711e-05
9.61777e-05
0.000122079
0.000157523
0.000205534
0.000270045
0.000356699
0.000472302
0.000626049
0.000830008
0.00110001
0.00145681
0.00192766
0.00254831
0.00336575
0.00442669
0.0058053
0.00766878
0.0101221
0.0133594
0.0197265
0.0362586
0.0529752
0.0696233
0.0860043
0.101961
0.117366
0.132114
0.146115
0.159289
0.171555
0.182775
0.192989
0.202024
0.209779
0.21616
0.221111
0.224672
0.227018
0.228431
0.229217
0.229624
0.229825
0.22992
0.229964
0.229984
0.229993
0.229997
0.229999
0.229999
0.23
0.23
0.23
0.23
0.23
0.23
0.23
0.23
4.75056e-10
2.07578e-09
4.76579e-09
9.2677e-09
1.67594e-08
2.91366e-08
4.94053e-08
8.22497e-08
1.34823e-07
2.17795e-07
3.46668e-07
5.43306e-07
8.3534e-07
1.25851e-06
1.85465e-06
2.66832e-06
3.74109e-06
5.10417e-06
6.77159e-06
8.73577e-06
1.09673e-05
1.34186e-05
1.60292e-05
1.87322e-05
2.14593e-05
2.41448e-05
2.67285e-05
2.91572e-05
3.13863e-05
3.33808e-05
3.51172e-05
3.65874e-05
3.78056e-05
3.88195e-05
3.97253e-05
4.06838e-05
4.19336e-05
4.38017e-05
4.67114e-05
5.11966e-05
5.79278e-05
6.77546e-05
8.17628e-05
0.000101353
0.000128341
0.000165027
0.000214397
0.000280928
0.000369716
0.000487786
0.000644363
0.000851548
0.00112522
0.00148621
0.00196186
0.0025881
0.00341225
0.00448029
0.00586847
0.00774628
0.010219
0.0134892
0.0219999
0.0386081
0.0553938
0.0720973
0.0885161
0.10449
0.11989
0.134607
0.148548
0.161629
0.173767
0.184838
0.194837
0.203616
0.211081
0.217154
0.221807
0.225112
0.227269
0.228561
0.229279
0.229653
0.229837
0.229925
0.229966
0.229985
0.229994
0.229997
0.229999
0.229999
0.23
0.23
0.23
0.23
0.23
0.23
0.23
0.23
4.86139e-10
2.1248e-09
4.88062e-09
9.49632e-09
1.71823e-08
2.98851e-08
5.06879e-08
8.43849e-08
1.38276e-07
2.232e-07
3.54781e-07
5.54744e-07
8.51998e-07
1.283e-06
1.89061e-06
2.72078e-06
3.81687e-06
5.21228e-06
6.92332e-06
8.94462e-06
1.12484e-05
1.37879e-05
1.65026e-05
1.93244e-05
2.21834e-05
2.50114e-05
2.77451e-05
3.03285e-05
3.27136e-05
3.48623e-05
3.67482e-05
3.83607e-05
3.9713e-05
4.08541e-05
4.18851e-05
4.29773e-05
4.43864e-05
4.64629e-05
4.96589e-05
5.45402e-05
6.18107e-05
7.23527e-05
8.7284e-05
0.000108037
0.000136381
0.000174636
0.00022636
0.000295409
0.000387196
0.000508822
0.000669599
0.000881741
0.00116127
0.0015292
0.00201314
0.00264939
0.00348583
0.00456659
0.00597085
0.00787294
0.0103822
0.0136997
0.0248248
0.0414615
0.0582774
0.0750011
0.0914221
0.107374
0.122724
0.13736
0.151188
0.164119
0.176069
0.186959
0.196699
0.205193
0.212357
0.218125
0.222491
0.225553
0.227528
0.228701
0.229349
0.229686
0.229852
0.229932
0.229969
0.229986
0.229994
0.229997
0.229999
0.23
0.23
0.23
0.23
0.23
0.23
0.23
0.23
0.23
4.95966e-10
2.16773e-09
4.97924e-09
9.68817e-09
1.7529e-08
3.04864e-08
5.17025e-08
8.60623e-08
1.41002e-07
2.27564e-07
3.61671e-07
5.65491e-07
8.68579e-07
1.30828e-06
1.92868e-06
2.77734e-06
3.8996e-06
5.33124e-06
7.09102e-06
9.17587e-06
1.15598e-05
1.41969e-05
1.70267e-05
1.99802e-05
2.29857e-05
2.59724e-05
2.88744e-05
3.16322e-05
3.41945e-05
3.65196e-05
3.85783e-05
4.03573e-05
4.1869e-05
4.3164e-05
4.43501e-05
4.56112e-05
4.72237e-05
4.95661e-05
5.31246e-05
5.85027e-05
6.64443e-05
7.78727e-05
9.39441e-05
0.000116037
0.000146015
0.000186733
0.000241147
0.000313482
0.000409269
0.000535754
0.000702431
0.000921741
0.00120999
0.00158856
0.00208555
0.00273792
0.00359263
0.00469154
0.00612476
0.00806905
0.0106307
0.0139992
0.0277981
0.0444226
0.0612444
0.0779695
0.0943736
0.110283
0.125561
0.140094
0.153787
0.166553
0.178289
0.188964
0.198441
0.206651
0.21352
0.218998
0.223097
0.225938
0.227751
0.22882
0.229408
0.229714
0.229865
0.229938
0.229972
0.229987
0.229994
0.229998
0.229999
0.23
0.23
0.23
0.23
0.23
0.23
0.23
0.23
0.23
5.04494e-10
2.20489e-09
5.06419e-09
9.85261e-09
1.7825e-08
3.09993e-08
5.25702e-08
8.75065e-08
1.43375e-07
2.31422e-07
3.67881e-07
5.7539e-07
8.84202e-07
1.33267e-06
1.96629e-06
2.83447e-06
3.98491e-06
5.45602e-06
7.26933e-06
9.42418e-06
1.18964e-05
1.4641e-05
1.75974e-05
2.06958e-05
2.38623e-05
2.70239e-05
3.01114e-05
3.30622e-05
3.58212e-05
3.83435e-05
4.05963e-05
4.25641e-05
4.42583e-05
4.57323e-05
4.71021e-05
4.85667e-05
5.04269e-05
5.30937e-05
5.70919e-05
6.30671e-05
7.18068e-05
8.42738e-05
0.000101584
0.000125273
0.000157648
0.000201022
0.000258742
0.000335179
0.000436057
0.000568864
0.0007434
0.000972492
0.00127292
0.00166668
0.00218258
0.00285757
0.0037414
0.00487416
0.00635128
0.00834321
0.0109559
0.0143504
0.0303878
0.0470794
0.0639678
0.0807319
0.0971387
0.113013
0.12822
0.142648
0.156204
0.168802
0.180318
0.190757
0.200003
0.207961
0.214562
0.219776
0.223635
0.22628
0.227951
0.228928
0.229464
0.229741
0.229878
0.229943
0.229974
0.229989
0.229995
0.229998
0.229999
0.23
0.23
0.23
0.23
0.23
0.23
0.23
0.23
0.23
5.12357e-10
2.23919e-09
5.14281e-09
1.00054e-08
1.81017e-08
3.14821e-08
5.3395e-08
8.88949e-08
1.45686e-07
2.35231e-07
3.74101e-07
5.85445e-07
9.00281e-07
1.35807e-06
2.00584e-06
2.89505e-06
4.07593e-06
5.58977e-06
7.46105e-06
9.69179e-06
1.22598e-05
1.51211e-05
1.82152e-05
2.14711e-05
2.48132e-05
2.81659e-05
3.14569e-05
3.46199e-05
3.75963e-05
4.03373e-05
4.28066e-05
4.49862e-05
4.68869e-05
4.85656e-05
5.01484e-05
5.18525e-05
5.40064e-05
5.70577e-05
6.15748e-05
6.82511e-05
7.79035e-05
9.14575e-05
0.000110218
0.000136086
0.000170895
0.00021733
0.000278892
0.000360163
0.000467135
0.000607657
0.000792003
0.00103361
0.00135006
0.00176429
0.00230626
0.0030159
0.00394588
0.0051243
0.00671077
0.00878325
0.0114858
0.0149393
0.0318831
0.0490826
0.0662516
0.0831577
0.0996156
0.115478
0.130626
0.144963
0.158398
0.170843
0.182183
0.192418
0.20143
0.209137
0.215482
0.220453
0.224099
0.226573
0.228121
0.229021
0.229511
0.229763
0.229888
0.229948
0.229977
0.22999
0.229995
0.229998
0.229999
0.23
0.23
0.23
0.23
0.23
0.23
0.23
0.23
0.23
5.1988e-10
2.27204e-09
5.21822e-09
1.01523e-08
1.83685e-08
3.19498e-08
5.41979e-08
9.02548e-08
1.47966e-07
2.39019e-07
3.8034e-07
5.95625e-07
9.16715e-07
1.38427e-06
2.047e-06
2.95858e-06
4.172e-06
5.73168e-06
7.66531e-06
9.97778e-06
1.26491e-05
1.56365e-05
1.88795e-05
2.23063e-05
2.58395e-05
2.94007e-05
3.29145e-05
3.63109e-05
3.95274e-05
4.25111e-05
4.5222e-05
4.76392e-05
4.97732e-05
5.16853e-05
5.35131e-05
5.54951e-05
5.79893e-05
6.14824e-05
6.65854e-05
7.40214e-05
8.45914e-05
9.94208e-05
0.000120081
0.000148049
0.000185495
0.000235237
0.000300953
0.000387461
0.000501081
0.000650113
0.000845464
0.00110148
0.00143708
0.00187722
0.00245498
0.00321433
0.0042078
0.00547964
0.00721075
0.00949697
0.0125269
0.0164812
0.0337117
0.0511232
0.0684272
0.0854004
0.101868
0.11769
0.132751
0.146954
0.160224
0.172495
0.183641
0.193703
0.202523
0.210078
0.216247
0.221028
0.224495
0.226823
0.228267
0.2291
0.229551
0.229783
0.229898
0.229953
0.229979
0.22999
0.229996
0.229998
0.229999
0.23
0.23
0.23
0.23
0.23
0.23
0.23
0.23
0.23
5.2727e-10
2.30433e-09
5.29248e-09
1.02973e-08
1.86328e-08
3.24149e-08
5.5e-08
9.16206e-08
1.50269e-07
2.4287e-07
3.86724e-07
6.06108e-07
9.33739e-07
1.41156e-06
2.09007e-06
3.02534e-06
4.27328e-06
5.88169e-06
7.88174e-06
1.02815e-05
1.30633e-05
1.6186e-05
1.95894e-05
2.32009e-05
2.69413e-05
3.07299e-05
3.44878e-05
3.81413e-05
4.16237e-05
4.48778e-05
4.78596e-05
5.05452e-05
5.29446e-05
5.51243e-05
5.72359e-05
5.95413e-05
6.24315e-05
6.64361e-05
7.21906e-05
8.03895e-05
9.20356e-05
0.000108465
0.000130874
0.000161022
0.000201169
0.000254248
0.000324092
0.000415717
0.000535709
0.000692713
0.000898099
0.00116684
0.00151867
0.00197968
0.00258445
0.00337896
0.00441916
0.00575796
0.00758681
0.0100151
0.0132605
0.0181327
0.0355653
0.0531042
0.0704773
0.0874731
0.103925
0.119699
0.134685
0.148791
0.161934
0.174042
0.18502
0.194879
0.203543
0.2109
0.216907
0.221526
0.224835
0.227036
0.228391
0.229167
0.229585
0.2298
0.229906
0.229956
0.22998
0.229991
0.229996
0.229998
0.229999
0.23
0.23
0.23
0.23
0.23
0.23
0.23
0.23
0.23
5.34595e-10
2.33636e-09
5.36622e-09
1.04415e-08
1.88962e-08
3.28797e-08
5.58043e-08
9.29952e-08
1.52597e-07
2.46779e-07
3.93234e-07
6.16845e-07
9.51254e-07
1.43976e-06
2.13474e-06
3.09481e-06
4.37902e-06
6.03875e-06
8.10891e-06
1.0601e-05
1.35003e-05
1.67673e-05
2.03424e-05
2.41528e-05
2.81176e-05
3.21537e-05
3.61792e-05
4.01164e-05
4.38945e-05
4.74516e-05
5.07393e-05
5.37305e-05
5.6435e-05
5.89251e-05
6.13676e-05
6.40496e-05
6.73943e-05
7.19602e-05
7.83624e-05
8.74925e-05
0.000100513
0.000118414
0.000142637
0.000175001
0.000217837
0.000274173
0.000347951
0.000444327
0.000570048
0.000733955
0.000947642
0.00122633
0.00159001
0.00206501
0.00268604
0.00349894
0.0045554
0.00590937
0.00774867
0.0101677
0.0133573
0.0199014
0.0373962
0.0549668
0.072341
0.0893085
0.105706
0.121405
0.136303
0.150317
0.163346
0.175342
0.186244
0.195996
0.204481
0.211635
0.217452
0.221931
0.225122
0.227217
0.228496
0.229224
0.229615
0.229814
0.229912
0.22996
0.229982
0.229992
0.229996
0.229998
0.229999
0.23
0.23
0.23
0.23
0.23
0.23
0.23
0.23
0.23
5.41853e-10
2.36811e-09
5.43937e-09
1.05848e-08
1.91584e-08
3.33433e-08
5.66088e-08
9.43743e-08
1.5494e-07
2.50728e-07
3.99832e-07
6.27767e-07
9.69129e-07
1.46862e-06
2.18061e-06
3.16635e-06
4.48819e-06
6.20134e-06
8.34474e-06
1.09337e-05
1.39567e-05
1.73763e-05
2.11343e-05
2.51576e-05
2.93644e-05
3.36694e-05
3.79879e-05
4.22385e-05
4.6346e-05
5.02442e-05
5.38799e-05
5.72228e-05
6.02827e-05
6.31391e-05
6.5977e-05
6.91108e-05
7.29919e-05
7.8151e-05
8.5362e-05
9.56905e-05
0.000109979
0.000129435
0.000155538
0.000190157
0.000235685
0.000295218
0.000372781
0.00047362
0.000604581
0.000774607
0.000995385
0.0012822
0.00165509
0.0021403
0.00277234
0.00359643
0.00466217
0.0060235
0.00786555
0.0102792
0.0134522
0.0216266
0.0391384
0.0567117
0.0740745
0.0910133
0.107364
0.123001
0.137817
0.151723
0.164666
0.176572
0.187368
0.196977
0.205323
0.212343
0.217997
0.222293
0.225361
0.227371
0.228584
0.229271
0.229639
0.229826
0.229918
0.229962
0.229983
0.229992
0.229997
0.229999
0.229999
0.23
0.23
0.23
0.23
0.23
0.23
0.23
0.23
0.23
5.48977e-10
2.39928e-09
5.51125e-09
1.07258e-08
1.94167e-08
3.3801e-08
5.74048e-08
9.57422e-08
1.5727e-07
2.54665e-07
4.06431e-07
6.38721e-07
9.87111e-07
1.49774e-06
2.22702e-06
3.23893e-06
4.59927e-06
6.36727e-06
8.58617e-06
1.12755e-05
1.44272e-05
1.80068e-05
2.19577e-05
2.62072e-05
3.06733e-05
3.5269e-05
3.99072e-05
4.45034e-05
4.89783e-05
5.3261e-05
5.7294e-05
6.10437e-05
6.45208e-05
6.78139e-05
7.11295e-05
7.48125e-05
7.93034e-05
8.52551e-05
9.35114e-05
0.00010496
0.000120626
0.00014174
0.000169818
0.000206772
0.000255047
0.0003178
0.000399123
0.000504332
0.000640343
0.000816162
0.00104352
0.00133773
0.00171877
0.00221272
0.00285343
0.0036858
0.00475985
0.0061281
0.00797441
0.0103872
0.0135516
0.023166
0.0406819
0.0582365
0.0755599
0.0924418
0.108736
0.124314
0.139074
0.152929
0.165811
0.177628
0.188319
0.197812
0.206035
0.212927
0.218453
0.22263
0.225569
0.227497
0.228659
0.229312
0.22966
0.229836
0.229923
0.229964
0.229984
0.229993
0.229997
0.229999
0.229999
0.23
0.23
0.23
0.23
0.23
0.23
0.23
0.23
0.23
5.55864e-10
2.42943e-09
5.5808e-09
1.08623e-08
1.96672e-08
3.42456e-08
5.81793e-08
9.70761e-08
1.59548e-07
2.58524e-07
4.12914e-07
6.49513e-07
1.00487e-06
1.52658e-06
2.27312e-06
3.31124e-06
4.71027e-06
6.53364e-06
8.82911e-06
1.16207e-05
1.49046e-05
1.86495e-05
2.28013e-05
2.72886e-05
3.20297e-05
3.69371e-05
4.1922e-05
4.68972e-05
5.17801e-05
5.64957e-05
6.0982e-05
6.52023e-05
6.91682e-05
7.29786e-05
7.68629e-05
8.11691e-05
8.63633e-05
9.32016e-05
0.000102633
0.000115415
0.000132626
0.000155541
0.000185724
0.000225132
0.000276266
0.000342341
0.000427509
0.000537152
0.000678247
0.000859852
0.00109375
0.00139521
0.00178402
0.00228603
0.00293551
0.00377786
0.00485983
0.00623392
0.00808391
0.0104953
0.0136502
0.0244939
0.0420266
0.0595779
0.0768787
0.0937455
0.110007
0.125539
0.140239
0.154021
0.16681
0.178534
0.189129
0.19852
0.206635
0.213418
0.218833
0.222907
0.225759
0.227605
0.228719
0.229345
0.229677
0.229845
0.229927
0.229966
0.229985
0.229993
0.229997
0.229999
0.229999
0.23
0.23
0.23
0.23
0.23
0.23
0.23
0.23
0.23
5.6238e-10
2.45795e-09
5.64664e-09
1.09916e-08
1.99048e-08
3.46679e-08
5.89164e-08
9.83481e-08
1.61724e-07
2.62219e-07
4.19138e-07
6.59898e-07
1.02201e-06
1.55449e-06
2.31785e-06
3.38162e-06
4.81869e-06
6.69673e-06
9.06823e-06
1.19621e-05
1.53789e-05
1.92915e-05
2.36489e-05
2.8382e-05
3.34105e-05
3.86473e-05
4.40035e-05
4.93905e-05
5.47235e-05
5.99245e-05
6.49281e-05
6.9695e-05
7.4238e-05
7.8665e-05
8.3222e-05
8.82295e-05
9.44042e-05
0.000102466
0.000113122
0.000127334
0.000146207
0.000171051
0.000203469
0.000245467
0.000299599
0.000369137
0.000458294
0.000572512
0.000718833
0.000906323
0.00114667
0.00145502
0.00185138
0.00236228
0.00302153
0.00387272
0.00496215
0.006342
0.00819493
0.0106035
0.0137448
0.0256215
0.0431748
0.0607227
0.0780197
0.0948579
0.111081
0.126565
0.141209
0.154928
0.167646
0.179294
0.189808
0.199113
0.207137
0.213825
0.219148
0.223134
0.225912
0.227701
0.22877
0.229371
0.229691
0.229851
0.22993
0.229968
0.229985
0.229993
0.229997
0.229999
0.229999
0.23
0.23
0.23
0.23
0.23
0.23
0.23
0.23
0.23
5.68372e-10
2.48419e-09
5.70723e-09
1.11107e-08
2.01238e-08
3.50577e-08
5.95979e-08
9.9526e-08
1.63743e-07
2.65656e-07
4.24939e-07
6.69601e-07
1.03806e-06
1.5807e-06
2.35999e-06
3.44815e-06
4.92154e-06
6.85205e-06
9.29697e-06
1.22902e-05
1.58373e-05
1.99156e-05
2.44779e-05
2.94589e-05
3.47806e-05
4.03581e-05
4.61037e-05
5.19296e-05
5.77511e-05
6.34896e-05
6.90797e-05
7.44843e-05
7.97253e-05
8.4934e-05
9.03857e-05
9.6482e-05
0.000103808
0.000113
0.000124998
0.000140766
0.00016143
0.000188333
0.000223119
0.000267845
0.000325121
0.000398281
0.000491584
0.000610495
0.000762005
0.000955211
0.00120197
0.00151807
0.00192335
0.00244314
0.00311104
0.00397075
0.00506725
0.00645234
0.00830736
0.0107119
0.0138309
0.0265526
0.0441346
0.0616909
0.078973
0.0957853
0.111974
0.127416
0.142012
0.155677
0.168337
0.179922
0.190369
0.199602
0.20755
0.214161
0.219405
0.223319
0.226035
0.227777
0.228815
0.229394
0.229701
0.229857
0.229933
0.229969
0.229986
0.229994
0.229997
0.229999
0.229999
0.23
0.23
0.23
0.23
0.23
0.23
0.23
0.23
0.23
5.7368e-10
2.50743e-09
5.76093e-09
1.12164e-08
2.03183e-08
3.54042e-08
6.02044e-08
1.00576e-07
1.65547e-07
2.68731e-07
4.30141e-07
6.78323e-07
1.05253e-06
1.60439e-06
2.39819e-06
3.50865e-06
5.01542e-06
6.99441e-06
9.50757e-06
1.25938e-05
1.62638e-05
2.04997e-05
2.52593e-05
3.04811e-05
3.60914e-05
4.20089e-05
4.81489e-05
5.44266e-05
6.07596e-05
6.70713e-05
7.32981e-05
7.9406e-05
8.5425e-05
9.15029e-05
9.79185e-05
0.000105216
0.000113825
0.000124502
0.000138059
0.000155546
0.000178137
0.000207221
0.000244489
0.000292047
0.000352542
0.000429327
0.000526703
0.000650229
0.000807068
0.0010067
0.00126097
0.00158485
0.00199813
0.00252639
0.00320283
0.00407066
0.0051736
0.00656282
0.00841807
0.0108159
0.0139102
0.0273066
0.0449131
0.0624773
0.0797505
0.0965422
0.112702
0.128109
0.142665
0.156285
0.168897
0.18043
0.190823
0.199997
0.207884
0.214431
0.219612
0.223467
0.226132
0.227837
0.22885
0.229413
0.229711
0.229861
0.229935
0.22997
0.229986
0.229994
0.229997
0.229999
0.229999
0.23
0.23
0.23
0.23
0.23
0.23
0.23
0.23
0.23
5.78148e-10
2.527e-09
5.80615e-09
1.13054e-08
2.04823e-08
3.56967e-08
6.0717e-08
1.01465e-07
1.67076e-07
2.71342e-07
4.34568e-07
6.8576e-07
1.0649e-06
1.6247e-06
2.43103e-06
3.56083e-06
5.09667e-06
7.11811e-06
9.69137e-06
1.28601e-05
1.66399e-05
2.10181e-05
2.59572e-05
3.14011e-05
3.72808e-05
4.35201e-05
5.00396e-05
5.67599e-05
6.36043e-05
7.05023e-05
7.73977e-05
8.42666e-05
9.11566e-05
9.82448e-05
0.000105852
0.00011437
0.000124282
0.000136463
0.000151709
0.000171024
0.000195611
0.0002269
0.000266634
0.000316974
0.000380633
0.000461058
0.000562812
0.000691497
0.000854344
0.00106036
0.00132143
0.00165276
0.00207401
0.00261052
0.00329513
0.00417045
0.00527899
0.00667088
0.00852412
0.0109119
0.0139785
0.0279029
0.0455376
0.0631062
0.0803707
0.0971444
0.11328
0.128657
0.14318
0.156764
0.169337
0.180829
0.191178
0.200306
0.208145
0.214641
0.219773
0.223581
0.226208
0.227883
0.228876
0.229428
0.229719
0.229865
0.229937
0.229971
0.229987
0.229994
0.229997
0.229999
0.23
0.23
0.23
0.23
0.23
0.23
0.23
0.23
0.23
0.23
5.81631e-10
2.54226e-09
5.84143e-09
1.13748e-08
2.06103e-08
3.59253e-08
6.11181e-08
1.02161e-07
1.68275e-07
2.73394e-07
4.38052e-07
6.91626e-07
1.07467e-06
1.64078e-06
2.45711e-06
3.60239e-06
5.16161e-06
7.21736e-06
9.83945e-06
1.30756e-05
1.69459e-05
2.14422e-05
2.65319e-05
3.21638e-05
3.82745e-05
4.47937e-05
5.16485e-05
5.8767e-05
6.60811e-05
7.35305e-05
8.10715e-05
8.86974e-05
9.6481e-05
0.000104631
0.000113506
0.000123416
0.000134788
0.000148378
0.000165165
0.000186194
0.0002127
0.000246165
0.000288394
0.000341623
0.000408658
0.000493049
0.00059914
0.000732629
0.000900757
0.00111275
0.00138045
0.00171901
0.00214793
0.00269233
0.00338462
0.00426676
0.00538005
0.00677326
0.00862237
0.010997
0.0140329
0.0283441
0.0460062
0.0635823
0.0808411
0.0976005
0.113716
0.12907
0.143566
0.157122
0.169665
0.181126
0.191442
0.200535
0.208337
0.214796
0.219891
0.223665
0.226263
0.227917
0.228895
0.229438
0.229724
0.229868
0.229938
0.229971
0.229987
0.229994
0.229997
0.229999
0.23
0.23
0.23
0.23
0.23
0.23
0.23
0.23
0.23
0.23
5.84011e-10
2.55268e-09
5.86553e-09
1.14223e-08
2.06978e-08
3.60815e-08
6.13923e-08
1.02638e-07
1.69096e-07
2.748e-07
4.40441e-07
6.95653e-07
1.08139e-06
1.65186e-06
2.47512e-06
3.63116e-06
5.20669e-06
7.28646e-06
9.94294e-06
1.32268e-05
1.71616e-05
2.17426e-05
2.69413e-05
3.27107e-05
3.89919e-05
4.57202e-05
5.28291e-05
6.0254e-05
6.79362e-05
7.58268e-05
8.38973e-05
9.21628e-05
0.000100729
0.00010985
0.000119895
0.000131197
0.000144061
0.000159186
0.000177518
0.000200163
0.000228414
0.00026381
0.000308211
0.000363903
0.000433732
0.000521271
0.000631021
0.000768701
0.000941584
0.00115894
0.00143258
0.00177766
0.00221354
0.00276511
0.00346437
0.00435261
0.00547005
0.00686385
0.00870776
0.0110676
0.0140712
0.0286347
0.0463248
0.0639097
0.0811653
0.0979141
0.114014
0.129351
0.143828
0.157363
0.169885
0.181323
0.191617
0.200686
0.208464
0.214898
0.219968
0.22372
0.226299
0.227939
0.228907
0.229445
0.229727
0.229869
0.229939
0.229972
0.229987
0.229994
0.229997
0.229999
0.23
0.23
0.23
0.23
0.23
0.23
0.23
0.23
0.23
0.23
5.85201e-10
2.55788e-09
5.87753e-09
1.14459e-08
2.07411e-08
3.61587e-08
6.15272e-08
1.02871e-07
1.69498e-07
2.75486e-07
4.41607e-07
6.97615e-07
1.08466e-06
1.65726e-06
2.4839e-06
3.64522e-06
5.22876e-06
7.32042e-06
9.99399e-06
1.33018e-05
1.7269e-05
2.18931e-05
2.71475e-05
3.29878e-05
3.9358e-05
4.61965e-05
5.34407e-05
6.10313e-05
6.89155e-05
7.70527e-05
8.54254e-05
9.40638e-05
0.000103093
0.000112774
0.0001235
0.000135709
0.000149783
0.00016604
0.000185446
0.000209175
0.000238575
0.000275231
0.000321047
0.00037835
0.000450027
0.000539695
0.000651906
0.000792422
0.000968556
0.00118961
0.00146742
0.00181713
0.00225804
0.00281491
0.00351948
0.00441258
0.00553355
0.00692827
0.00876841
0.011116
0.0140913
0.0287779
0.0464921
0.0640845
0.0813383
0.0980801
0.114171
0.129496
0.143962
0.157486
0.169995
0.181422
0.191703
0.20076
0.208525
0.214947
0.220004
0.223745
0.226316
0.227949
0.228913
0.229448
0.229729
0.22987
0.229939
0.229972
0.229987
0.229994
0.229997
0.229999
0.23
0.23
0.23
0.23
0.23
0.23
0.23
0.23
0.23
0.23
5.85201e-10
2.55788e-09
5.87753e-09
1.14459e-08
2.07411e-08
3.61587e-08
6.15272e-08
1.02871e-07
1.69498e-07
2.75486e-07
4.41606e-07
6.97615e-07
1.08466e-06
1.65726e-06
2.4839e-06
3.64521e-06
5.22876e-06
7.32042e-06
9.99398e-06
1.33018e-05
1.7269e-05
2.18931e-05
2.71475e-05
3.29878e-05
3.9358e-05
4.61965e-05
5.34408e-05
6.10314e-05
6.89157e-05
7.70531e-05
8.54258e-05
9.40643e-05
0.000103094
0.000112774
0.0001235
0.000135708
0.000149782
0.000166039
0.000185445
0.000209174
0.000238575
0.000275231
0.000321046
0.00037835
0.000450028
0.000539695
0.000651906
0.000792423
0.000968557
0.00118961
0.00146743
0.00181713
0.00225804
0.00281491
0.00351949
0.00441258
0.00553356
0.00692828
0.00876843
0.011116
0.0140914
0.0287774
0.0464917
0.0640842
0.0813379
0.0980798
0.11417
0.129496
0.143961
0.157485
0.169995
0.181422
0.191703
0.20076
0.208525
0.214947
0.220004
0.223745
0.226316
0.227949
0.228913
0.229448
0.229729
0.22987
0.229939
0.229972
0.229987
0.229994
0.229997
0.229999
0.23
0.23
0.23
0.23
0.23
0.23
0.23
0.23
0.23
0.23
5.8401e-10
2.55268e-09
5.86552e-09
1.14223e-08
2.06978e-08
3.60815e-08
6.13922e-08
1.02637e-07
1.69096e-07
2.74799e-07
4.4044e-07
6.95652e-07
1.08139e-06
1.65186e-06
2.47511e-06
3.63116e-06
5.20668e-06
7.28645e-06
9.94292e-06
1.32268e-05
1.71615e-05
2.17426e-05
2.69412e-05
3.27106e-05
3.89918e-05
4.57201e-05
5.2829e-05
6.0254e-05
6.79364e-05
7.58274e-05
8.38985e-05
9.21648e-05
0.000100731
0.000109849
0.000119892
0.000131194
0.000144057
0.000159182
0.000177515
0.00020016
0.000228412
0.000263809
0.00030821
0.000363903
0.000433733
0.000521272
0.000631023
0.000768704
0.000941588
0.00115894
0.00143259
0.00177767
0.00221355
0.00276512
0.00346439
0.00435264
0.00547008
0.00686388
0.0087078
0.0110677
0.0140712
0.028634
0.0463242
0.0639092
0.0811649
0.0979138
0.114014
0.12935
0.143827
0.157363
0.169884
0.181323
0.191617
0.200686
0.208464
0.214898
0.219968
0.22372
0.226299
0.227939
0.228907
0.229445
0.229727
0.229869
0.229939
0.229972
0.229987
0.229994
0.229997
0.229999
0.23
0.23
0.23
0.23
0.23
0.23
0.23
0.23
0.23
0.23
5.8163e-10
2.54225e-09
5.84141e-09
1.13748e-08
2.06103e-08
3.59252e-08
6.11179e-08
1.02161e-07
1.68275e-07
2.73393e-07
4.3805e-07
6.91623e-07
1.07466e-06
1.64077e-06
2.4571e-06
3.60237e-06
5.16158e-06
7.21731e-06
9.83938e-06
1.30755e-05
1.69457e-05
2.1442e-05
2.65316e-05
3.21635e-05
3.8274e-05
4.4793e-05
5.16475e-05
5.87655e-05
6.60788e-05
7.35268e-05
8.10656e-05
8.86881e-05
9.64668e-05
0.000104612
0.000113495
0.000123409
0.000134784
0.000148375
0.000165163
0.000186192
0.000212699
0.000246164
0.000288393
0.000341622
0.000408658
0.00049305
0.000599142
0.000732633
0.000900764
0.00111276
0.00138046
0.00171902
0.00214795
0.00269236
0.00338465
0.00426679
0.00538009
0.00677331
0.00862243
0.0109971
0.014033
0.0283431
0.0460052
0.0635814
0.0808403
0.0975998
0.113715
0.129069
0.143566
0.157122
0.169664
0.181125
0.191441
0.200535
0.208337
0.214796
0.21989
0.223665
0.226263
0.227917
0.228895
0.229438
0.229724
0.229868
0.229938
0.229971
0.229987
0.229994
0.229997
0.229999
0.23
0.23
0.23
0.23
0.23
0.23
0.23
0.23
0.23
0.23
5.78146e-10
2.52699e-09
5.80613e-09
1.13053e-08
2.04822e-08
3.56966e-08
6.07167e-08
1.01465e-07
1.67075e-07
2.71341e-07
4.34566e-07
6.85757e-07
1.06489e-06
1.62469e-06
2.43101e-06
3.5608e-06
5.09663e-06
7.11805e-06
9.69129e-06
1.286e-05
1.66397e-05
2.10179e-05
2.59569e-05
3.14007e-05
3.72803e-05
4.35194e-05
5.00387e-05
5.67589e-05
6.36031e-05
7.05012e-05
7.7397e-05
8.42675e-05
9.11612e-05
9.82574e-05
0.000105855
0.000114368
0.000124277
0.000136455
0.000151702
0.000171019
0.000195606
0.000226896
0.000266631
0.000316971
0.00038063
0.000461059
0.000562814
0.000691502
0.000854351
0.00106037
0.00132144
0.00165278
0.00207403
0.00261055
0.00329516
0.0041705
0.00527904
0.00667094
0.00852419
0.010912
0.0139786
0.0279018
0.0455366
0.0631053
0.0803699
0.0971437
0.113279
0.128657
0.143179
0.156764
0.169336
0.180829
0.191178
0.200306
0.208144
0.214641
0.219772
0.223581
0.226208
0.227883
0.228876
0.229428
0.229719
0.229865
0.229937
0.229971
0.229987
0.229994
0.229997
0.229999
0.23
0.23
0.23
0.23
0.23
0.23
0.23
0.23
0.23
0.23
5.73678e-10
2.50742e-09
5.76091e-09
1.12163e-08
2.03182e-08
3.54041e-08
6.02041e-08
1.00576e-07
1.65546e-07
2.68729e-07
4.30139e-07
6.78318e-07
1.05252e-06
1.60438e-06
2.39818e-06
3.50862e-06
5.01538e-06
6.99435e-06
9.50748e-06
1.25937e-05
1.62636e-05
2.04995e-05
2.5259e-05
3.04808e-05
3.6091e-05
4.20084e-05
4.81483e-05
5.44259e-05
6.07589e-05
6.70706e-05
7.32975e-05
7.94055e-05
8.54243e-05
9.15014e-05
9.79157e-05
0.000105211
0.000113814
0.0001245
0.000138059
0.000155547
0.00017814
0.000207224
0.000244492
0.00029205
0.000352546
0.00042933
0.000526705
0.000650233
0.000807076
0.00100671
0.00126099
0.00158487
0.00199816
0.00252642
0.00320287
0.00407071
0.00517366
0.00656287
0.00841814
0.0108159
0.0139103
0.0273055
0.0449121
0.0624764
0.0797497
0.0965415
0.112701
0.128108
0.142664
0.156285
0.168896
0.18043
0.190822
0.199996
0.207884
0.214431
0.219612
0.223467
0.226132
0.227837
0.228849
0.229413
0.229711
0.229861
0.229935
0.22997
0.229986
0.229994
0.229997
0.229999
0.229999
0.23
0.23
0.23
0.23
0.23
0.23
0.23
0.23
0.23
5.68369e-10
2.48417e-09
5.7072e-09
1.11107e-08
2.01237e-08
3.50576e-08
5.95975e-08
9.95255e-08
1.63742e-07
2.65654e-07
4.24936e-07
6.69596e-07
1.03806e-06
1.58069e-06
2.35998e-06
3.44812e-06
4.9215e-06
6.85199e-06
9.29689e-06
1.22901e-05
1.58371e-05
1.99154e-05
2.44777e-05
2.94586e-05
3.47802e-05
4.03577e-05
4.61032e-05
5.19291e-05
5.77506e-05
6.34891e-05
6.90793e-05
7.44838e-05
7.97247e-05
8.49329e-05
9.0386e-05
9.64875e-05
0.00010382
0.000113008
0.000125002
0.000140769
0.000161433
0.000188336
0.000223122
0.000267849
0.000325127
0.000398289
0.000491592
0.000610505
0.000762015
0.000955222
0.00120199
0.00151809
0.00192337
0.00244318
0.00311108
0.0039708
0.00506731
0.0064524
0.00830742
0.010712
0.013831
0.0265516
0.0441337
0.0616901
0.0789723
0.0957847
0.111973
0.127416
0.142012
0.155677
0.168336
0.179921
0.190368
0.199601
0.20755
0.21416
0.219405
0.223319
0.226034
0.227777
0.228815
0.229394
0.229701
0.229857
0.229933
0.229969
0.229986
0.229994
0.229997
0.229999
0.229999
0.23
0.23
0.23
0.23
0.23
0.23
0.23
0.23
0.23
5.62377e-10
2.45794e-09
5.64661e-09
1.09916e-08
1.99047e-08
3.46677e-08
5.89161e-08
9.83475e-08
1.61723e-07
2.62218e-07
4.19136e-07
6.59894e-07
1.022e-06
1.55448e-06
2.31783e-06
3.38159e-06
4.81865e-06
6.69667e-06
9.06816e-06
1.1962e-05
1.53788e-05
1.92914e-05
2.36487e-05
2.83818e-05
3.34102e-05
3.86471e-05
4.40032e-05
4.93903e-05
5.47234e-05
5.99245e-05
6.49284e-05
6.96958e-05
7.42398e-05
7.86685e-05
8.32287e-05
8.82349e-05
9.44092e-05
0.00010247
0.000113125
0.000127337
0.00014621
0.000171054
0.000203472
0.000245471
0.000299604
0.000369143
0.000458302
0.000572522
0.000718846
0.000906338
0.00114668
0.00145504
0.0018514
0.00236231
0.00302156
0.00387276
0.00496219
0.00634204
0.00819497
0.0106035
0.0137448
0.0256206
0.043174
0.060722
0.0780192
0.0948575
0.111081
0.126565
0.141209
0.154928
0.167646
0.179294
0.189808
0.199112
0.207137
0.213825
0.219147
0.223134
0.225911
0.227701
0.22877
0.229371
0.22969
0.229851
0.22993
0.229968
0.229985
0.229993
0.229997
0.229999
0.229999
0.23
0.23
0.23
0.23
0.23
0.23
0.23
0.23
0.23
5.55862e-10
2.42942e-09
5.58077e-09
1.08622e-08
1.96671e-08
3.42454e-08
5.8179e-08
9.70756e-08
1.59547e-07
2.58523e-07
4.12912e-07
6.49509e-07
1.00487e-06
1.52658e-06
2.27311e-06
3.31122e-06
4.71024e-06
6.53359e-06
8.82905e-06
1.16206e-05
1.49045e-05
1.86494e-05
2.28011e-05
2.72885e-05
3.20296e-05
3.69369e-05
4.19218e-05
4.68971e-05
5.178e-05
5.64956e-05
6.09821e-05
6.52024e-05
6.91685e-05
7.29789e-05
7.68633e-05
8.1172e-05
8.63645e-05
9.32025e-05
0.000102634
0.000115416
0.000132627
0.000155543
0.000185726
0.000225135
0.00027627
0.000342346
0.000427516
0.00053716
0.000678258
0.000859867
0.00109376
0.00139523
0.00178405
0.00228606
0.00293556
0.00377792
0.0048599
0.006234
0.008084
0.0104954
0.0136502
0.0244933
0.0420261
0.0595771
0.0768785
0.0937455
0.110008
0.125539
0.14024
0.154022
0.16681
0.178534
0.189129
0.19852
0.206635
0.213417
0.218833
0.222907
0.225759
0.227605
0.228719
0.229345
0.229677
0.229845
0.229927
0.229966
0.229985
0.229993
0.229997
0.229999
0.229999
0.23
0.23
0.23
0.23
0.23
0.23
0.23
0.23
0.23
5.48975e-10
2.39927e-09
5.51123e-09
1.07257e-08
1.94166e-08
3.38009e-08
5.74045e-08
9.57417e-08
1.57269e-07
2.54664e-07
4.06429e-07
6.38718e-07
9.87107e-07
1.49773e-06
2.22701e-06
3.23892e-06
4.59925e-06
6.36724e-06
8.58613e-06
1.12754e-05
1.44271e-05
1.80067e-05
2.19576e-05
2.62071e-05
3.06732e-05
3.52689e-05
3.99072e-05
4.45033e-05
4.89782e-05
5.32608e-05
5.72937e-05
6.1043e-05
6.45194e-05
6.78109e-05
7.11232e-05
7.47994e-05
7.92912e-05
8.52514e-05
9.35106e-05