/*--------------------------------*- C++ -*----------------------------------*\
  =========                 |
  \\      /  F ield         | OpenFOAM: The Open Source CFD Toolbox
   \\    /   O peration     | Website:  https://openfoam.org
    \\  /    A nd           | Version:  8
     \\/     M anipulation  |
\*---------------------------------------------------------------------------*/
FoamFile
{
    version     2.0;
    format      ascii;
    class       surfaceScalarField;
    location    "900/fluid";
    object      phi;
}
// * * * * * * * * * * * * * * * * * * * * * * * * * * * * * * * * * * * * * //

dimensions      [1 0 -1 0 0 0 0];

internalField   nonuniform List<scalar> 
7860
(
6.57258e-07
-1.77865e-08
6.54564e-07
-5.33467e-08
6.50729e-07
-8.87274e-08
6.45643e-07
-1.23832e-07
6.39172e-07
-1.58659e-07
6.3115e-07
-1.9316e-07
6.21392e-07
-2.27253e-07
6.09698e-07
-2.60814e-07
5.95862e-07
-2.93675e-07
5.79689e-07
-3.25615e-07
5.61007e-07
-3.56344e-07
5.39695e-07
-3.85495e-07
5.15729e-07
-4.1261e-07
4.89287e-07
-4.37146e-07
4.60651e-07
-4.58462e-07
4.30189e-07
-4.75893e-07
3.98374e-07
-4.88885e-07
3.65751e-07
-4.97144e-07
3.32886e-07
-5.0076e-07
3.00286e-07
-5.00223e-07
2.6836e-07
-4.9632e-07
2.3739e-07
-4.89962e-07
2.07557e-07
-4.82006e-07
1.78994e-07
-4.73149e-07
1.51746e-07
-4.63872e-07
1.25775e-07
-4.54474e-07
1.01013e-07
-4.45114e-07
7.73836e-08
-4.35861e-07
5.48163e-08
-4.26723e-07
3.32491e-08
-4.17684e-07
1.26295e-08
-4.08712e-07
-7.08239e-09
-3.99783e-07
-2.59151e-08
-3.90875e-07
-4.38979e-08
-3.8198e-07
-6.10616e-08
-3.73101e-07
-7.74295e-08
-3.64227e-07
-9.30212e-08
-3.55319e-07
-1.07855e-07
-3.46391e-07
-1.21951e-07
-3.37463e-07
-1.35327e-07
-3.28557e-07
-1.48002e-07
-3.19698e-07
-1.59994e-07
-3.10913e-07
-1.71325e-07
-3.02228e-07
-1.82012e-07
-2.93671e-07
-1.92077e-07
-2.85269e-07
-2.0154e-07
-2.7705e-07
-2.10422e-07
-2.69041e-07
-2.18744e-07
-2.61268e-07
-2.26527e-07
-2.53757e-07
-2.33793e-07
-2.46535e-07
-2.40563e-07
-2.39628e-07
-2.46861e-07
-2.33063e-07
-2.52711e-07
-2.2687e-07
-2.58138e-07
-2.21081e-07
-2.63172e-07
-2.15734e-07
-2.67847e-07
-2.10874e-07
-2.72207e-07
-2.06552e-07
-2.76305e-07
-2.02863e-07
-2.802e-07
-1.99876e-07
-2.83966e-07
-1.97652e-07
-2.87737e-07
-1.96431e-07
-2.91953e-07
-1.96384e-07
-2.96855e-07
-1.98662e-07
-3.03713e-07
-2.09797e-07
-3.11618e-07
-2.22246e-07
-3.20382e-07
-2.35985e-07
-3.30054e-07
-2.51197e-07
-3.40754e-07
-2.6812e-07
-3.52643e-07
-2.87027e-07
-3.65937e-07
-3.08244e-07
-3.80932e-07
-3.32166e-07
-3.98022e-07
-3.59256e-07
-4.17735e-07
-3.9005e-07
-4.40757e-07
-4.25269e-07
-4.67948e-07
-4.65571e-07
-5.00281e-07
-5.1098e-07
-5.38648e-07
-5.60436e-07
-5.83328e-07
-6.11022e-07
-6.34079e-07
-6.57273e-07
-6.89709e-07
-6.92092e-07
-7.47868e-07
-7.0983e-07
-8.05633e-07
-7.0937e-07
-8.60499e-07
-6.93923e-07
-9.10911e-07
-6.68163e-07
-9.56212e-07
-6.36126e-07
-9.96219e-07
-6.00434e-07
-1.03082e-06
-5.62533e-07
-1.06034e-06
-5.23118e-07
-1.08535e-06
-4.82625e-07
-1.10636e-06
-4.41387e-07
-1.12387e-06
-3.99655e-07
-1.13834e-06
-3.57623e-07
-1.15016e-06
-3.15442e-07
-1.1597e-06
-2.73222e-07
-1.16728e-06
-2.31038e-07
-1.17318e-06
-1.88924e-07
-1.17763e-06
-1.46887e-07
-1.18082e-06
-1.04921e-07
-1.18292e-06
-6.29837e-08
-2.10269e-08
6.57905e-07
-1.71582e-08
6.55761e-07
-5.12025e-08
6.52023e-07
-8.49888e-08
6.46688e-07
-1.18497e-07
6.39689e-07
-1.5166e-07
6.30926e-07
-1.84397e-07
6.20283e-07
-2.1661e-07
6.07646e-07
-2.48176e-07
5.9291e-07
-2.78939e-07
5.75992e-07
-3.08698e-07
5.56848e-07
-3.37201e-07
5.35481e-07
-3.64129e-07
5.1196e-07
-3.89089e-07
4.86448e-07
-4.11635e-07
4.59178e-07
-4.31192e-07
4.30446e-07
-4.47162e-07
4.00623e-07
-4.59063e-07
3.70128e-07
-4.6665e-07
3.39389e-07
-4.70021e-07
3.0879e-07
-4.69625e-07
2.7864e-07
-4.66172e-07
2.49161e-07
-4.60484e-07
2.20494e-07
-4.5334e-07
1.92736e-07
-4.45391e-07
1.65938e-07
-4.37076e-07
1.40112e-07
-4.28648e-07
1.15247e-07
-4.2025e-07
9.13243e-08
-4.11938e-07
6.83226e-08
-4.03722e-07
4.6221e-08
-3.95582e-07
2.49995e-08
-3.87491e-07
4.63881e-09
-3.79422e-07
-1.48794e-08
-3.71357e-07
-3.35717e-08
-3.63288e-07
-5.14559e-08
-3.55217e-07
-6.85458e-08
-3.47138e-07
-8.48549e-08
-3.3901e-07
-1.00399e-07
-3.30848e-07
-1.15193e-07
-3.22668e-07
-1.29256e-07
-3.14495e-07
-1.42604e-07
-3.0635e-07
-1.55257e-07
-2.9826e-07
-1.67234e-07
-2.9025e-07
-1.78558e-07
-2.82347e-07
-1.89248e-07
-2.74578e-07
-1.99329e-07
-2.6697e-07
-2.08822e-07
-2.59548e-07
-2.17751e-07
-2.52338e-07
-2.26142e-07
-2.45367e-07
-2.34019e-07
-2.38658e-07
-2.4141e-07
-2.32236e-07
-2.48344e-07
-2.26129e-07
-2.54854e-07
-2.20361e-07
-2.60973e-07
-2.14961e-07
-2.66745e-07
-2.09963e-07
-2.72218e-07
-2.054e-07
-2.77455e-07
-2.01315e-07
-2.82531e-07
-1.97787e-07
-2.87549e-07
-1.94857e-07
-2.92655e-07
-1.92547e-07
-2.98076e-07
-1.91009e-07
-3.04093e-07
-1.90365e-07
-3.0983e-07
-1.92904e-07
-3.16856e-07
-2.02768e-07
-3.25111e-07
-2.13988e-07
-3.34495e-07
-2.26598e-07
-3.45e-07
-2.40688e-07
-3.56702e-07
-2.56414e-07
-3.69733e-07
-2.73992e-07
-3.84277e-07
-2.93697e-07
-4.00567e-07
-3.1587e-07
-4.18899e-07
-3.40919e-07
-4.39616e-07
-3.69327e-07
-4.631e-07
-4.01777e-07
-4.89827e-07
-4.38836e-07
-5.20328e-07
-4.8047e-07
-5.55112e-07
-5.25641e-07
-5.94497e-07
-5.71627e-07
-6.38556e-07
-6.13205e-07
-6.86707e-07
-6.43932e-07
-7.37414e-07
-6.59118e-07
-7.88545e-07
-6.58235e-07
-8.38154e-07
-6.44312e-07
-8.84927e-07
-6.21389e-07
-9.2822e-07
-5.92833e-07
-9.67775e-07
-5.60879e-07
-1.00344e-06
-5.26872e-07
-1.03519e-06
-4.91361e-07
-1.06315e-06
-4.54668e-07
-1.08748e-06
-4.17058e-07
-1.1084e-06
-3.78733e-07
-1.12616e-06
-3.39858e-07
-1.14104e-06
-3.00566e-07
-1.15329e-06
-2.60968e-07
-1.16318e-06
-2.2115e-07
-1.17093e-06
-1.81173e-07
-1.17674e-06
-1.41076e-07
-1.18077e-06
-1.00896e-07
-1.18309e-06
-6.0662e-08
-2.02965e-08
6.57606e-07
-1.62303e-08
6.54922e-07
-4.85183e-08
6.50493e-07
-8.05598e-08
6.44284e-07
-1.12289e-07
6.36253e-07
-1.43629e-07
6.26352e-07
-1.74496e-07
6.14533e-07
-2.04791e-07
6.00759e-07
-2.34403e-07
5.85012e-07
-2.63192e-07
5.67301e-07
-2.90987e-07
5.47668e-07
-3.17567e-07
5.26191e-07
-3.42652e-07
5.02982e-07
-3.65881e-07
4.78158e-07
-3.86812e-07
4.51901e-07
-4.04936e-07
4.24476e-07
-4.19738e-07
3.9621e-07
-4.30797e-07
3.67457e-07
-4.37899e-07
3.38567e-07
-4.41133e-07
3.09849e-07
-4.40907e-07
2.81542e-07
-4.37866e-07
2.53815e-07
-4.32758e-07
2.26765e-07
-4.26292e-07
2.00421e-07
-4.19049e-07
1.74788e-07
-4.11444e-07
1.49875e-07
-4.03736e-07
1.25691e-07
-3.96067e-07
1.02243e-07
-3.88491e-07
7.95355e-08
-3.81015e-07
5.75719e-08
-3.73619e-07
3.63539e-08
-3.66274e-07
1.58813e-08
-3.5895e-07
-3.84751e-09
-3.51629e-07
-2.28367e-08
-3.44299e-07
-4.10928e-08
-3.36962e-07
-5.862e-08
-3.29611e-07
-7.54234e-08
-3.22207e-07
-9.15114e-08
-3.1476e-07
-1.06894e-07
-3.07286e-07
-1.21584e-07
-2.99806e-07
-1.35594e-07
-2.9234e-07
-1.48941e-07
-2.84914e-07
-1.61641e-07
-2.7755e-07
-1.73715e-07
-2.70274e-07
-1.85182e-07
-2.63112e-07
-1.96066e-07
-2.56086e-07
-2.0639e-07
-2.49224e-07
-2.16181e-07
-2.42548e-07
-2.25465e-07
-2.36082e-07
-2.34275e-07
-2.29849e-07
-2.42642e-07
-2.2387e-07
-2.50602e-07
-2.18168e-07
-2.58198e-07
-2.12765e-07
-2.65475e-07
-2.07685e-07
-2.72485e-07
-2.02952e-07
-2.79292e-07
-1.98594e-07
-2.85967e-07
-1.9464e-07
-2.92594e-07
-1.9116e-07
-2.99278e-07
-1.88173e-07
-3.06138e-07
-1.85685e-07
-3.13315e-07
-1.83831e-07
-3.20965e-07
-1.8271e-07
-3.27688e-07
-1.8616e-07
-3.35462e-07
-1.94991e-07
-3.44313e-07
-2.05133e-07
-3.54265e-07
-2.16641e-07
-3.65366e-07
-2.29583e-07
-3.77692e-07
-2.44084e-07
-3.91345e-07
-2.60334e-07
-4.06451e-07
-2.78585e-07
-4.23155e-07
-2.99159e-07
-4.4162e-07
-3.22448e-07
-4.61999e-07
-3.4894e-07
-4.84445e-07
-3.79322e-07
-5.09188e-07
-4.14084e-07
-5.36557e-07
-4.53092e-07
-5.67052e-07
-4.95135e-07
-6.01453e-07
-5.37215e-07
-6.40311e-07
-5.74337e-07
-6.83408e-07
-6.00827e-07
-7.2948e-07
-6.1304e-07
-7.76616e-07
-6.11096e-07
-8.23e-07
-5.97926e-07
-8.67342e-07
-5.77046e-07
-9.08921e-07
-5.51254e-07
-9.47431e-07
-5.22369e-07
-9.82874e-07
-4.91429e-07
-1.01522e-06
-4.59015e-07
-1.04443e-06
-4.2546e-07
-1.07051e-06
-3.90973e-07
-1.09354e-06
-3.55707e-07
-1.11361e-06
-3.19787e-07
-1.13085e-06
-2.83322e-07
-1.14541e-06
-2.46408e-07
-1.15744e-06
-2.09125e-07
-1.16707e-06
-1.71541e-07
-1.17444e-06
-1.3371e-07
-1.17964e-06
-9.56911e-08
-1.18276e-06
-5.75395e-08
-1.92397e-08
6.57625e-07
-1.5322e-08
6.54877e-07
-4.57699e-08
6.50283e-07
-7.59658e-08
6.4384e-07
-1.05846e-07
6.35539e-07
-1.35328e-07
6.25368e-07
-1.64325e-07
6.13319e-07
-1.92742e-07
5.99389e-07
-2.20473e-07
5.83586e-07
-2.47389e-07
5.65932e-07
-2.73332e-07
5.46469e-07
-2.98105e-07
5.25266e-07
-3.2145e-07
5.02427e-07
-3.43042e-07
4.781e-07
-3.62484e-07
4.52482e-07
-3.79319e-07
4.25827e-07
-3.93083e-07
3.98424e-07
-4.03395e-07
3.70583e-07
-4.10059e-07
3.42604e-07
-4.13156e-07
3.1475e-07
-4.13055e-07
2.87229e-07
-4.10347e-07
2.6019e-07
-4.05721e-07
2.33728e-07
-3.99832e-07
2.07897e-07
-3.93219e-07
1.82721e-07
-3.86269e-07
1.58209e-07
-3.79226e-07
1.34363e-07
-3.72222e-07
1.11182e-07
-3.65311e-07
8.86661e-08
-3.585e-07
6.68142e-08
-3.51768e-07
4.56276e-08
-3.45088e-07
2.51071e-08
-3.38431e-07
5.25335e-09
-3.31775e-07
-1.39346e-08
-3.25111e-07
-3.24591e-08
-3.18438e-07
-5.03211e-08
-3.11749e-07
-6.75218e-08
-3.05007e-07
-8.40657e-08
-2.98216e-07
-9.99592e-08
-2.91393e-07
-1.15211e-07
-2.84554e-07
-1.29832e-07
-2.7772e-07
-1.43836e-07
-2.7091e-07
-1.57238e-07
-2.64149e-07
-1.70055e-07
-2.57457e-07
-1.82308e-07
-2.50859e-07
-1.94018e-07
-2.44377e-07
-2.05209e-07
-2.38034e-07
-2.15908e-07
-2.3185e-07
-2.26143e-07
-2.25847e-07
-2.35948e-07
-2.20045e-07
-2.45356e-07
-2.14462e-07
-2.54406e-07
-2.09118e-07
-2.63141e-07
-2.0403e-07
-2.71608e-07
-1.99218e-07
-2.79861e-07
-1.94699e-07
-2.87959e-07
-1.90495e-07
-2.95968e-07
-1.8663e-07
-3.03962e-07
-1.83166e-07
-3.12028e-07
-1.80107e-07
-3.20255e-07
-1.77457e-07
-3.2874e-07
-1.75345e-07
-3.37563e-07
-1.73878e-07
-3.45283e-07
-1.78423e-07
-3.53878e-07
-1.86392e-07
-3.63393e-07
-1.95613e-07
-3.73892e-07
-2.06138e-07
-3.85442e-07
-2.18027e-07
-3.98124e-07
-2.31396e-07
-4.12026e-07
-2.46426e-07
-4.27246e-07
-2.63358e-07
-4.43896e-07
-2.82502e-07
-4.621e-07
-3.04235e-07
-4.81976e-07
-3.29054e-07
-5.03681e-07
-3.57607e-07
-5.27485e-07
-3.90268e-07
-5.53784e-07
-4.26781e-07
-5.83112e-07
-4.65794e-07
-6.16072e-07
-5.04244e-07
-6.53032e-07
-5.37366e-07
-6.93704e-07
-5.60148e-07
-7.36957e-07
-5.69781e-07
-7.81194e-07
-5.66856e-07
-8.24923e-07
-5.54196e-07
-8.6706e-07
-5.34908e-07
-9.06942e-07
-5.11371e-07
-9.44212e-07
-4.85099e-07
-9.78705e-07
-4.56936e-07
-1.01037e-06
-4.27352e-07
-1.0392e-06
-3.96626e-07
-1.06523e-06
-3.64942e-07
-1.0885e-06
-3.32438e-07
-1.10906e-06
-2.99226e-07
-1.12698e-06
-2.65407e-07
-1.14232e-06
-2.31068e-07
-1.15515e-06
-1.96292e-07
-1.16555e-06
-1.61143e-07
-1.17357e-06
-1.25686e-07
-1.17927e-06
-8.99907e-08
-1.18268e-06
-5.41276e-08
-1.81022e-08
6.57563e-07
-1.4351e-08
6.54676e-07
-4.28833e-08
6.49887e-07
-7.11765e-08
6.432e-07
-9.9159e-08
6.34622e-07
-1.2675e-07
6.2416e-07
-1.53864e-07
6.11829e-07
-1.80411e-07
5.9765e-07
-2.06293e-07
5.81654e-07
-2.31393e-07
5.63888e-07
-2.55566e-07
5.44417e-07
-2.78635e-07
5.23333e-07
-3.00366e-07
5.00754e-07
-3.20464e-07
4.76835e-07
-3.38566e-07
4.5177e-07
-3.54254e-07
4.25789e-07
-3.67104e-07
3.99155e-07
-3.76762e-07
3.7214e-07
-3.83047e-07
3.45007e-07
-3.86025e-07
3.17984e-07
-3.86033e-07
2.9125e-07
-3.83615e-07
2.64933e-07
-3.79406e-07
2.39116e-07
-3.74017e-07
2.13845e-07
-3.67951e-07
1.89146e-07
-3.61572e-07
1.65029e-07
-3.5511e-07
1.41499e-07
-3.48693e-07
1.18558e-07
-3.42371e-07
9.62078e-08
-3.36151e-07
7.44504e-08
-3.30012e-07
5.32886e-08
-3.23927e-07
3.27251e-08
-3.17868e-07
1.27623e-08
-3.11813e-07
-6.59856e-09
-3.05751e-07
-2.53578e-08
-2.99679e-07
-4.35154e-08
-2.93592e-07
-6.10706e-08
-2.87452e-07
-7.80256e-08
-2.81262e-07
-9.43847e-08
-2.75034e-07
-1.10155e-07
-2.68785e-07
-1.25344e-07
-2.62531e-07
-1.39965e-07
-2.5629e-07
-1.54031e-07
-2.50084e-07
-1.67557e-07
-2.43932e-07
-1.80562e-07
-2.37855e-07
-1.93066e-07
-2.31873e-07
-2.05093e-07
-2.26007e-07
-2.16668e-07
-2.20276e-07
-2.27818e-07
-2.14697e-07
-2.38576e-07
-2.09288e-07
-2.48972e-07
-2.04066e-07
-2.59045e-07
-1.99046e-07
-2.68832e-07
-1.94243e-07
-2.78377e-07
-1.89673e-07
-2.87727e-07
-1.8535e-07
-2.96931e-07
-1.81291e-07
-3.06046e-07
-1.77515e-07
-3.15127e-07
-1.74084e-07
-3.24249e-07
-1.70985e-07
-3.33478e-07
-1.68227e-07
-3.4289e-07
-1.65932e-07
-3.52539e-07
-1.64216e-07
-3.61241e-07
-1.69709e-07
-3.70646e-07
-1.76983e-07
-3.80811e-07
-1.85443e-07
-3.91823e-07
-1.95121e-07
-4.03769e-07
-2.06075e-07
-4.16734e-07
-2.18425e-07
-4.30805e-07
-2.32348e-07
-4.46073e-07
-2.48082e-07
-4.62637e-07
-2.6593e-07
-4.80603e-07
-2.86259e-07
-5.00072e-07
-3.09575e-07
-5.21191e-07
-3.36476e-07
-5.44219e-07
-3.67228e-07
-5.69521e-07
-4.01467e-07
-5.97591e-07
-4.37712e-07
-6.28968e-07
-4.72855e-07
-6.63971e-07
-5.02353e-07
-7.02318e-07
-5.21794e-07
-7.43008e-07
-5.29086e-07
-7.84668e-07
-5.25193e-07
-8.26032e-07
-5.1283e-07
-8.66179e-07
-4.9476e-07
-9.04525e-07
-4.73025e-07
-9.40723e-07
-4.489e-07
-9.7457e-07
-4.23089e-07
-1.00594e-06
-3.9598e-07
-1.03477e-06
-3.678e-07
-1.06101e-06
-3.38701e-07
-1.08465e-06
-3.08795e-07
-1.1057e-06
-2.78175e-07
-1.12418e-06
-2.4693e-07
-1.14011e-06
-2.15139e-07
-1.15352e-06
-1.82878e-07
-1.16445e-06
-1.50214e-07
-1.17293e-06
-1.17211e-07
-1.17897e-06
-8.39457e-08
-1.1826e-06
-5.04956e-08
-1.6885e-08
6.5756e-07
-1.33775e-08
6.54648e-07
-3.99706e-08
6.49808e-07
-6.63372e-08
6.43058e-07
-9.24085e-08
6.34413e-07
-1.18106e-07
6.23897e-07
-1.43347e-07
6.11534e-07
-1.68049e-07
5.9736e-07
-1.92119e-07
5.81415e-07
-2.15448e-07
5.63756e-07
-2.37907e-07
5.44452e-07
-2.59331e-07
5.23596e-07
-2.79509e-07
5.01303e-07
-2.98172e-07
4.77725e-07
-3.14988e-07
4.53046e-07
-3.29576e-07
4.27487e-07
-3.41546e-07
4.01297e-07
-3.50574e-07
3.74736e-07
-3.56487e-07
3.48053e-07
-3.59344e-07
3.21465e-07
-3.59448e-07
2.95144e-07
-3.57297e-07
2.69214e-07
-3.53478e-07
2.43751e-07
-3.48556e-07
2.188e-07
-3.43002e-07
1.94383e-07
-3.37156e-07
1.70507e-07
-3.31237e-07
1.47175e-07
-3.25363e-07
1.24386e-07
-3.19583e-07
1.02138e-07
-3.13904e-07
8.0432e-08
-3.08307e-07
5.92694e-08
-3.02765e-07
3.8652e-08
-2.97251e-07
1.85818e-08
-2.91744e-07
-9.39823e-10
-2.8623e-07
-1.9913e-08
-2.80707e-07
-3.83371e-08
-2.75169e-07
-5.62104e-08
-2.6958e-07
-7.35342e-08
-2.63939e-07
-9.03113e-08
-2.58258e-07
-1.06547e-07
-2.5255e-07
-1.22248e-07
-2.4683e-07
-1.37425e-07
-2.41114e-07
-1.52089e-07
-2.3542e-07
-1.66255e-07
-2.29767e-07
-1.79938e-07
-2.24173e-07
-1.93157e-07
-2.18655e-07
-2.05933e-07
-2.13231e-07
-2.1829e-07
-2.07919e-07
-2.30252e-07
-2.02735e-07
-2.41848e-07
-1.97694e-07
-2.53105e-07
-1.92809e-07
-2.64055e-07
-1.88096e-07
-2.74732e-07
-1.83567e-07
-2.8517e-07
-1.79235e-07
-2.95406e-07
-1.75114e-07
-3.05478e-07
-1.71219e-07
-3.15427e-07
-1.67566e-07
-3.25292e-07
-1.64219e-07
-3.35141e-07
-1.61135e-07
-3.45004e-07
-1.58363e-07
-3.54964e-07
-1.55971e-07
-3.65083e-07
-1.54077e-07
-3.74811e-07
-1.59978e-07
-3.84949e-07
-1.6684e-07
-3.95676e-07
-1.74711e-07
-4.07125e-07
-1.83665e-07
-4.194e-07
-1.93793e-07
-4.32592e-07
-2.05224e-07
-4.46792e-07
-2.18138e-07
-4.62092e-07
-2.32772e-07
-4.7859e-07
-2.49422e-07
-4.96395e-07
-2.68443e-07
-5.15621e-07
-2.90341e-07
-5.36442e-07
-3.15646e-07
-5.59135e-07
-3.44523e-07
-5.84085e-07
-3.76502e-07
-6.11781e-07
-4.10003e-07
-6.42703e-07
-4.41921e-07
-6.77048e-07
-4.67999e-07
-7.14412e-07
-4.84423e-07
-7.53771e-07
-4.89722e-07
-7.9385e-07
-4.85111e-07
-8.33536e-07
-4.73143e-07
-8.72041e-07
-4.56254e-07
-9.08871e-07
-4.36195e-07
-9.43735e-07
-4.14036e-07
-9.76457e-07
-3.90366e-07
-1.00693e-06
-3.65511e-07
-1.03507e-06
-3.3966e-07
-1.06083e-06
-3.1294e-07
-1.08417e-06
-2.85449e-07
-1.10508e-06
-2.5727e-07
-1.12353e-06
-2.28478e-07
-1.13952e-06
-1.99148e-07
-1.15305e-06
-1.69349e-07
-1.16412e-06
-1.39145e-07
-1.17273e-06
-1.08601e-07
-1.17889e-06
-7.77912e-08
-1.18258e-06
-4.67966e-08
-1.5648e-08
6.57551e-07
-1.23947e-08
6.54618e-07
-3.70375e-08
6.49751e-07
-6.14702e-08
6.42968e-07
-8.56263e-08
6.34294e-07
-1.09431e-07
6.23756e-07
-1.32809e-07
6.11388e-07
-1.55681e-07
5.97231e-07
-1.77962e-07
5.81336e-07
-1.99553e-07
5.63764e-07
-2.20336e-07
5.44592e-07
-2.4016e-07
5.23916e-07
-2.58834e-07
5.01855e-07
-2.76112e-07
4.78558e-07
-2.91691e-07
4.54203e-07
-3.05223e-07
4.29003e-07
-3.16348e-07
4.03193e-07
-3.24766e-07
3.77019e-07
-3.30314e-07
3.50714e-07
-3.33041e-07
3.24485e-07
-3.33222e-07
2.98497e-07
-3.31311e-07
2.72866e-07
-3.27849e-07
2.47669e-07
-3.23362e-07
2.22949e-07
-3.18285e-07
1.98727e-07
-3.12937e-07
1.75011e-07
-3.07523e-07
1.51802e-07
-3.02155e-07
1.29097e-07
-2.9688e-07
1.06894e-07
-2.91703e-07
8.5193e-08
-2.86607e-07
6.39932e-08
-2.81567e-07
4.3296e-08
-2.76555e-07
2.31028e-08
-2.71552e-07
3.41479e-09
-2.66543e-07
-1.57676e-08
-2.61525e-07
-3.44444e-08
-2.56493e-07
-5.26137e-08
-2.51411e-07
-7.02757e-08
-2.46278e-07
-8.74323e-08
-2.41102e-07
-1.04087e-07
-2.35896e-07
-1.20247e-07
-2.30671e-07
-1.35919e-07
-2.25443e-07
-1.51113e-07
-2.20227e-07
-1.65841e-07
-2.1504e-07
-1.80118e-07
-2.09896e-07
-1.9396e-07
-2.04814e-07
-2.07385e-07
-1.99807e-07
-2.20414e-07
-1.94892e-07
-2.33068e-07
-1.90082e-07
-2.45371e-07
-1.85391e-07
-2.57348e-07
-1.80833e-07
-2.69026e-07
-1.76419e-07
-2.80432e-07
-1.72162e-07
-2.91593e-07
-1.68074e-07
-3.02539e-07
-1.64169e-07
-3.13297e-07
-1.60462e-07
-3.23889e-07
-1.56973e-07
-3.3434e-07
-1.53767e-07
-3.44691e-07
-1.50784e-07
-3.54941e-07
-1.48111e-07
-3.65113e-07
-1.45797e-07
-3.75202e-07
-1.43952e-07
-3.85573e-07
-1.49603e-07
-3.96332e-07
-1.56077e-07
-4.07606e-07
-1.63433e-07
-4.19514e-07
-1.71752e-07
-4.32163e-07
-1.81138e-07
-4.4565e-07
-1.91729e-07
-4.6007e-07
-2.0371e-07
-4.75519e-07
-2.17311e-07
-4.92105e-07
-2.3282e-07
-5.09944e-07
-2.50583e-07
-5.29164e-07
-2.71095e-07
-5.49972e-07
-2.94817e-07
-5.72649e-07
-3.21828e-07
-5.97564e-07
-3.51574e-07
-6.25148e-07
-3.82407e-07
-6.55777e-07
-4.11281e-07
-6.89522e-07
-4.34244e-07
-7.2591e-07
-4.48028e-07
-7.63968e-07
-4.51659e-07
-8.0257e-07
-4.46506e-07
-8.40759e-07
-4.34953e-07
-8.77859e-07
-4.19153e-07
-9.13438e-07
-4.00616e-07
-9.47224e-07
-3.8025e-07
-9.79044e-07
-3.58547e-07
-1.00878e-06
-3.35779e-07
-1.03633e-06
-3.12105e-07
-1.06164e-06
-2.8763e-07
-1.08465e-06
-2.62437e-07
-1.10533e-06
-2.36597e-07
-1.12363e-06
-2.10176e-07
-1.13953e-06
-1.83242e-07
-1.15302e-06
-1.55859e-07
-1.16408e-06
-1.28085e-07
-1.1727e-06
-9.99818e-08
-1.17887e-06
-7.1623e-08
-1.18258e-06
-4.30864e-08
-1.44064e-08
6.57554e-07
-1.14151e-08
6.54627e-07
-3.41107e-08
6.4977e-07
-5.6613e-08
6.43004e-07
-7.886e-08
6.34355e-07
-1.00782e-07
6.23855e-07
-1.22309e-07
6.11543e-07
-1.43369e-07
5.97463e-07
-1.63882e-07
5.8167e-07
-1.83759e-07
5.64226e-07
-2.02893e-07
5.45212e-07
-2.21145e-07
5.2472e-07
-2.38343e-07
5.02869e-07
-2.54262e-07
4.79803e-07
-2.68626e-07
4.55696e-07
-2.81117e-07
4.30753e-07
-2.91406e-07
4.052e-07
-2.99215e-07
3.79277e-07
-3.04393e-07
3.53211e-07
-3.06978e-07
3.27204e-07
-3.07218e-07
3.01418e-07
-3.05528e-07
2.7597e-07
-3.02404e-07
2.50934e-07
-2.98329e-07
2.26353e-07
-2.93707e-07
2.02247e-07
-2.88834e-07
1.78622e-07
-2.83901e-07
1.55477e-07
-2.79013e-07
1.32809e-07
-2.74213e-07
1.10612e-07
-2.69508e-07
8.88856e-08
-2.64882e-07
6.76273e-08
-2.6031e-07
4.68375e-08
-2.55767e-07
2.65169e-08
-2.51232e-07
6.66634e-09
-2.46694e-07
-1.27141e-08
-2.42145e-07
-3.16242e-08
-2.37584e-07
-5.00622e-08
-2.32974e-07
-6.80274e-08
-2.28314e-07
-8.55207e-08
-2.2361e-07
-1.02545e-07
-2.18872e-07
-1.19104e-07
-2.14112e-07
-1.35205e-07
-2.09343e-07
-1.50856e-07
-2.04578e-07
-1.66066e-07
-1.9983e-07
-1.80848e-07
-1.95115e-07
-1.95216e-07
-1.90447e-07
-2.09185e-07
-1.85839e-07
-2.22772e-07
-1.81305e-07
-2.35997e-07
-1.76858e-07
-2.48879e-07
-1.7251e-07
-2.6144e-07
-1.68272e-07
-2.73703e-07
-1.64157e-07
-2.85691e-07
-1.60174e-07
-2.97427e-07
-1.56337e-07
-3.08938e-07
-1.52659e-07
-3.20246e-07
-1.49154e-07
-3.31367e-07
-1.45851e-07
-3.42332e-07
-1.42802e-07
-3.53149e-07
-1.39965e-07
-3.63815e-07
-1.37442e-07
-3.74299e-07
-1.35309e-07
-3.8438e-07
-1.33813e-07
-3.94927e-07
-1.39048e-07
-4.0596e-07
-1.45037e-07
-4.17548e-07
-1.51836e-07
-4.2977e-07
-1.59521e-07
-4.4271e-07
-1.6819e-07
-4.56454e-07
-1.77978e-07
-4.71096e-07
-1.89065e-07
-4.86735e-07
-2.01672e-07
-5.03483e-07
-2.16075e-07
-5.21464e-07
-2.32605e-07
-5.40829e-07
-2.51734e-07
-5.6179e-07
-2.7385e-07
-5.84646e-07
-2.98963e-07
-6.09753e-07
-3.26453e-07
-6.37499e-07
-3.54646e-07
-6.68167e-07
-3.80601e-07
-7.01704e-07
-4.00697e-07
-7.37553e-07
-4.12172e-07
-7.74755e-07
-4.14452e-07
-8.12279e-07
-4.0898e-07
-8.49283e-07
-3.97947e-07
-8.85188e-07
-3.83248e-07
-9.19621e-07
-3.66183e-07
-9.52349e-07
-3.47521e-07
-9.83219e-07
-3.27678e-07
-1.01212e-06
-3.06882e-07
-1.03895e-06
-2.85268e-07
-1.06366e-06
-2.62925e-07
-1.08617e-06
-2.39925e-07
-1.10644e-06
-2.16328e-07
-1.12442e-06
-1.92195e-07
-1.14008e-06
-1.67585e-07
-1.15338e-06
-1.42556e-07
-1.1643e-06
-1.17163e-07
-1.17282e-06
-9.14611e-08
-1.17892e-06
-6.55207e-08
-1.18259e-06
-3.94152e-08
-1.31786e-08
6.57558e-07
-1.04392e-08
6.54643e-07
-3.11955e-08
6.49805e-07
-5.17759e-08
6.43069e-07
-7.21231e-08
6.3446e-07
-9.21734e-08
6.24013e-07
-1.11862e-07
6.11767e-07
-1.31123e-07
5.97771e-07
-1.49886e-07
5.82079e-07
-1.68067e-07
5.64756e-07
-1.8557e-07
5.45882e-07
-2.02271e-07
5.2555e-07
-2.18011e-07
5.03877e-07
-2.32589e-07
4.81003e-07
-2.45753e-07
4.57099e-07
-2.57213e-07
4.32362e-07
-2.6667e-07
4.07013e-07
-2.73868e-07
3.81284e-07
-2.78666e-07
3.55399e-07
-2.81095e-07
3.29555e-07
-2.81377e-07
3.03913e-07
-2.79889e-07
2.78588e-07
-2.77082e-07
2.53655e-07
-2.73399e-07
2.29158e-07
-2.69213e-07
2.05116e-07
-2.64795e-07
1.81535e-07
-2.60322e-07
1.58412e-07
-2.55892e-07
1.35744e-07
-2.51547e-07
1.13523e-07
-2.4729e-07
9.1748e-08
-2.43108e-07
7.04148e-08
-2.38978e-07
4.95231e-08
-2.34876e-07
2.90729e-08
-2.30783e-07
9.0647e-09
-2.26686e-07
-1.05015e-08
-2.2258e-07
-2.96256e-08
-2.1846e-07
-4.83054e-08
-2.14295e-07
-6.65397e-08
-2.1008e-07
-8.43285e-08
-2.05822e-07
-1.01673e-07
-2.01529e-07
-1.18577e-07
-1.9721e-07
-1.35044e-07
-1.92877e-07
-1.5108e-07
-1.88542e-07
-1.66695e-07
-1.84216e-07
-1.81898e-07
-1.79914e-07
-1.967e-07
-1.75646e-07
-2.11114e-07
-1.71426e-07
-2.25154e-07
-1.67266e-07
-2.38836e-07
-1.63177e-07
-2.52176e-07
-1.5917e-07
-2.65194e-07
-1.55255e-07
-2.77908e-07
-1.51444e-07
-2.90337e-07
-1.47746e-07
-3.02503e-07
-1.44172e-07
-3.14426e-07
-1.40736e-07
-3.26128e-07
-1.37452e-07
-3.37627e-07
-1.34352e-07
-3.48953e-07
-1.31477e-07
-3.60121e-07
-1.28797e-07
-3.71139e-07
-1.26424e-07
-3.81995e-07
-1.24451e-07
-3.92173e-07
-1.23569e-07
-4.02883e-07
-1.28331e-07
-4.14119e-07
-1.33793e-07
-4.2593e-07
-1.40014e-07
-4.38382e-07
-1.47055e-07
-4.51548e-07
-1.55006e-07
-4.65509e-07
-1.63995e-07
-4.80356e-07
-1.74191e-07
-4.96192e-07
-1.85807e-07
-5.13137e-07
-1.99101e-07
-5.31325e-07
-2.1439e-07
-5.50925e-07
-2.32112e-07
-5.72166e-07
-2.52592e-07
-5.95335e-07
-2.75778e-07
-6.20769e-07
-3.01005e-07
-6.48792e-07
-3.26611e-07
-6.79582e-07
-3.49799e-07
-7.12976e-07
-3.67295e-07
-7.4836e-07
-3.76783e-07
-7.84812e-07
-3.77996e-07
-8.21401e-07
-3.72389e-07
-8.57389e-07
-3.61958e-07
-8.92272e-07
-3.48364e-07
-9.25727e-07
-3.32728e-07
-9.57546e-07
-3.15702e-07
-9.87583e-07
-2.9764e-07
-1.01573e-06
-2.78734e-07
-1.0419e-06
-2.59097e-07
-1.06602e-06
-2.38805e-07
-1.08803e-06
-2.17919e-07
-1.10786e-06
-1.96492e-07
-1.12548e-06
-1.74578e-07
-1.14084e-06
-1.5223e-07
-1.1539e-06
-1.29498e-07
-1.16463e-06
-1.06433e-07
-1.173e-06
-8.30854e-08
-1.179e-06
-5.952e-08
-1.18261e-06
-3.58046e-08
-1.19709e-08
6.57564e-07
-9.46912e-09
6.54665e-07
-2.82973e-08
6.49856e-07
-4.69665e-08
6.43158e-07
-6.54251e-08
6.346e-07
-8.36152e-08
6.24216e-07
-1.01478e-07
6.12046e-07
-1.18954e-07
5.9814e-07
-1.35979e-07
5.82551e-07
-1.52479e-07
5.65346e-07
-1.68365e-07
5.46602e-07
-1.83527e-07
5.26413e-07
-1.97822e-07
5.04891e-07
-2.11068e-07
4.82175e-07
-2.23038e-07
4.58431e-07
-2.3347e-07
4.33851e-07
-2.42092e-07
4.08653e-07
-2.48672e-07
3.83062e-07
-2.53078e-07
3.573e-07
-2.55336e-07
3.31564e-07
-2.55644e-07
3.06012e-07
-2.5434e-07
2.80761e-07
-2.51834e-07
2.55886e-07
-2.48528e-07
2.31432e-07
-2.44762e-07
2.07418e-07
-2.40783e-07
1.83849e-07
-2.36756e-07
1.60722e-07
-2.32768e-07
1.38031e-07
-2.28858e-07
1.1577e-07
-2.25031e-07
9.3934e-08
-2.21274e-07
7.25193e-08
-2.17565e-07
5.15245e-08
-2.13883e-07
3.09493e-08
-2.10209e-07
1.07939e-08
-2.06532e-07
-8.94174e-09
-2.02845e-07
-2.82574e-08
-1.99146e-07
-4.71506e-08
-1.95403e-07
-6.56195e-08
-1.91612e-07
-8.3663e-08
-1.87779e-07
-1.01281e-07
-1.83911e-07
-1.18476e-07
-1.80016e-07
-1.35251e-07
-1.76103e-07
-1.5161e-07
-1.72184e-07
-1.6756e-07
-1.68268e-07
-1.83108e-07
-1.64367e-07
-1.98262e-07
-1.60492e-07
-2.13035e-07
-1.56655e-07
-2.27436e-07
-1.52865e-07
-2.4148e-07
-1.49134e-07
-2.55179e-07
-1.45471e-07
-2.68549e-07
-1.41886e-07
-2.81606e-07
-1.38388e-07
-2.94366e-07
-1.34986e-07
-3.06846e-07
-1.31692e-07
-3.19065e-07
-1.28517e-07
-3.31042e-07
-1.25475e-07
-3.42796e-07
-1.22597e-07
-3.54352e-07
-1.19919e-07
-3.65732e-07
-1.17416e-07
-3.76966e-07
-1.15187e-07
-3.88101e-07
-1.13312e-07
-3.98511e-07
-1.13106e-07
-4.0943e-07
-1.17407e-07
-4.2087e-07
-1.2235e-07
-4.3289e-07
-1.27995e-07
-4.45552e-07
-1.34395e-07
-4.58929e-07
-1.41634e-07
-4.73101e-07
-1.4983e-07
-4.88158e-07
-1.5914e-07
-5.04206e-07
-1.69763e-07
-5.21374e-07
-1.81935e-07
-5.39804e-07
-1.95957e-07
-5.59677e-07
-2.12231e-07
-5.81235e-07
-2.31021e-07
-6.04767e-07
-2.52232e-07
-6.30582e-07
-2.75177e-07
-6.58942e-07
-2.98237e-07
-6.89931e-07
-3.18799e-07
-7.23285e-07
-3.33932e-07
-7.58343e-07
-3.41719e-07
-7.94214e-07
-3.42121e-07
-8.30047e-07
-3.36554e-07
-8.6519e-07
-3.26814e-07
-8.99202e-07
-3.14351e-07
-9.31801e-07
-3.00129e-07
-9.62801e-07
-2.84702e-07
-9.92073e-07
-2.68369e-07
-1.01951e-06
-2.51292e-07
-1.04504e-06
-2.33568e-07
-1.06859e-06
-2.15261e-07
-1.09008e-06
-1.96425e-07
-1.10947e-06
-1.77106e-07
-1.1267e-06
-1.5735e-07
-1.14172e-06
-1.37204e-07
-1.15451e-06
-1.16713e-07
-1.16501e-06
-9.59234e-08
-1.17322e-06
-7.48796e-08
-1.1791e-06
-5.36401e-08
-1.18264e-06
-3.22666e-08
-1.07878e-08
6.5757e-07
-8.50487e-09
6.54688e-07
-2.54162e-08
6.49908e-07
-4.21856e-08
6.43249e-07
-5.87667e-08
6.34742e-07
-7.51076e-08
6.24419e-07
-9.11558e-08
6.12323e-07
-1.06858e-07
5.985e-07
-1.22156e-07
5.83006e-07
-1.36985e-07
5.65905e-07
-1.51265e-07
5.47275e-07
-1.64897e-07
5.27207e-07
-1.77755e-07
5.05812e-07
-1.89674e-07
4.83226e-07
-2.00452e-07
4.5961e-07
-2.09855e-07
4.35154e-07
-2.17638e-07
4.10071e-07
-2.23591e-07
3.84584e-07
-2.27594e-07
3.58911e-07
-2.29666e-07
3.33248e-07
-2.29984e-07
3.07754e-07
-2.2885e-07
2.82547e-07
-2.2663e-07
2.57703e-07
-2.23688e-07
2.33267e-07
-2.20328e-07
2.09257e-07
-2.16777e-07
1.8568e-07
-2.13181e-07
1.62531e-07
-2.09621e-07
1.39805e-07
-2.06133e-07
1.17493e-07
-2.02721e-07
9.559e-08
-1.99373e-07
7.40924e-08
-1.96069e-07
5.29978e-08
-1.92789e-07
3.23055e-08
-1.89518e-07
1.20156e-08
-1.86243e-07
-7.87176e-09
-1.82959e-07
-2.73563e-08
-1.79662e-07
-4.64353e-08
-1.76325e-07
-6.51059e-08
-1.72942e-07
-8.33663e-08
-1.6952e-07
-1.01216e-07
-1.66063e-07
-1.18655e-07
-1.62578e-07
-1.35686e-07
-1.59074e-07
-1.5231e-07
-1.5556e-07
-1.68534e-07
-1.52045e-07
-1.84362e-07
-1.4854e-07
-1.99802e-07
-1.45053e-07
-2.14862e-07
-1.41596e-07
-2.29551e-07
-1.38177e-07
-2.4388e-07
-1.34806e-07
-2.5786e-07
-1.31492e-07
-2.71504e-07
-1.28243e-07
-2.84826e-07
-1.25068e-07
-2.97839e-07
-1.21975e-07
-3.10558e-07
-1.18974e-07
-3.23e-07
-1.16076e-07
-3.35183e-07
-1.13294e-07
-3.47125e-07
-1.10656e-07
-3.58852e-07
-1.08193e-07
-3.70387e-07
-1.05882e-07
-3.81764e-07
-1.03809e-07
-3.9301e-07
-1.02058e-07
-4.03652e-07
-1.02403e-07
-4.14793e-07
-1.06257e-07
-4.26438e-07
-1.10693e-07
-4.38653e-07
-1.15767e-07
-4.51505e-07
-1.21527e-07
-4.65071e-07
-1.28052e-07
-4.79433e-07
-1.35451e-07
-4.94689e-07
-1.43869e-07
-5.10949e-07
-1.53486e-07
-5.28348e-07
-1.64521e-07
-5.47037e-07
-1.77252e-07
-5.67213e-07
-1.92041e-07
-5.89121e-07
-2.09099e-07
-6.13043e-07
-2.28296e-07
-6.39256e-07
-2.48949e-07
-6.67964e-07
-2.69517e-07
-6.99162e-07
-2.87591e-07
-7.32501e-07
-3.00585e-07
-7.67287e-07
-3.06928e-07
-8.02667e-07
-3.06738e-07
-8.37861e-07
-3.01358e-07
-8.72287e-07
-2.92386e-07
-9.05558e-07
-2.81079e-07
-9.37423e-07
-2.68264e-07
-9.67715e-07
-2.5441e-07
-9.96315e-07
-2.39768e-07
-1.02313e-06
-2.24478e-07
-1.04808e-06
-2.08619e-07
-1.07109e-06
-1.92249e-07
-1.0921e-06
-1.75411e-07
-1.11106e-06
-1.58148e-07
-1.12792e-06
-1.40498e-07
-1.14262e-06
-1.22502e-07
-1.15513e-06
-1.04203e-07
-1.16541e-06
-8.56376e-08
-1.17344e-06
-6.68475e-08
-1.1792e-06
-4.78844e-08
-1.18266e-06
-2.88035e-08
-9.62986e-09
6.57575e-07
-7.54628e-09
6.54711e-07
-2.25519e-08
6.49957e-07
-3.74321e-08
6.43336e-07
-5.2146e-08
6.34877e-07
-6.66479e-08
6.24612e-07
-8.08911e-08
6.12583e-07
-9.48285e-08
5.98836e-07
-1.08409e-07
5.83426e-07
-1.21575e-07
5.66417e-07
-1.34256e-07
5.47884e-07
-1.46365e-07
5.27919e-07
-1.57789e-07
5.06629e-07
-1.68385e-07
4.84147e-07
-1.77972e-07
4.60634e-07
-1.86343e-07
4.36274e-07
-1.9328e-07
4.11277e-07
-1.98596e-07
3.85865e-07
-2.02184e-07
3.60254e-07
-2.04058e-07
3.34639e-07
-2.04373e-07
3.09181e-07
-2.03394e-07
2.83996e-07
-2.01449e-07
2.59164e-07
-1.98859e-07
2.34728e-07
-1.95896e-07
2.10709e-07
-1.92761e-07
1.87112e-07
-1.89586e-07
1.63933e-07
-1.86444e-07
1.41164e-07
-1.83367e-07
1.18798e-07
-1.80357e-07
9.68286e-08
-1.77405e-07
7.52515e-08
-1.74493e-07
5.40641e-08
-1.71603e-07
3.32656e-08
-1.6872e-07
1.28559e-08
-1.65834e-07
-7.16463e-09
-1.62939e-07
-2.67955e-08
-1.60032e-07
-4.60335e-08
-1.57087e-07
-6.48752e-08
-1.54102e-07
-8.33182e-08
-1.51078e-07
-1.01361e-07
-1.48021e-07
-1.19002e-07
-1.44937e-07
-1.36243e-07
-1.41834e-07
-1.53085e-07
-1.38719e-07
-1.69531e-07
-1.356e-07
-1.85586e-07
-1.32486e-07
-2.01254e-07
-1.29386e-07
-2.16542e-07
-1.26309e-07
-2.31459e-07
-1.23262e-07
-2.46012e-07
-1.20254e-07
-2.60211e-07
-1.17294e-07
-2.74068e-07
-1.14387e-07
-2.87593e-07
-1.11543e-07
-3.00799e-07
-1.08769e-07
-3.137e-07
-1.06073e-07
-3.26309e-07
-1.03466e-07
-3.38644e-07
-1.00959e-07
-3.50723e-07
-9.85763e-08
-3.62569e-07