/*--------------------------------*- C++ -*----------------------------------*\
  =========                 |
  \\      /  F ield         | OpenFOAM: The Open Source CFD Toolbox
   \\    /   O peration     | Website:  https://openfoam.org
    \\  /    A nd           | Version:  8
     \\/     M anipulation  |
\*---------------------------------------------------------------------------*/
FoamFile
{
    version     2.0;
    format      ascii;
    class       volScalarField;
    location    "900/fluid";
    object      Qdot;
}
// * * * * * * * * * * * * * * * * * * * * * * * * * * * * * * * * * * * * * //

dimensions      [1 -1 -3 0 0 0 0];

internalField   nonuniform List<scalar> 
4000
(
-4.88088e-18
-2.79292e-07
-2.92159e-07
-7.53101e-12
0
3.27392e-07
3.37852e-07
0
3.56279e-07
-3.64477e-07
5.011e-19
1.01879e-18
-6.05869e-10
0
-1.00944e-09
-4.5494e-09
-2.53621e-09
-5.13038e-09
2.40161e-08
3.2368e-07
4.35837e-06
5.74023e-05
0.000679343
0.00668185
0.0536337
0.350737
1.88568
8.45644
32.1561
105.371
301.957
766.357
1741.81
3581.2
6721.15
11641.8
18859.5
28962.9
42754.7
61417.2
86640.3
120673
166437
227794
309874
419586
566111
761449
1.02127e+06
1.36697e+06
1.82594e+06
2.4341e+06
3.23866e+06
4.30164e+06
5.70476e+06
7.55597e+06
9.99864e+06
1.31812e+07
1.73373e+07
2.29874e+07
3.04993e+07
7.15954e+07
3.76567e+08
2.95276e+07
2.12556e+07
1.5115e+07
1.05977e+07
7.31226e+06
4.95516e+06
3.29198e+06
2.14279e+06
1.37124e+06
876777
562810
149667
11220.9
309.355
4.37948
0.0416261
0.000426063
8.02202e-06
3.78763e-07
4.28935e-08
8.99642e-09
2.89522e-09
1.15755e-09
4.32035e-10
1.86404e-10
8.49496e-11
3.10274e-11
1.36162e-11
5.86035e-12
2.46149e-12
1.11058e-12
4.42064e-13
1.00922e-12
-7.43784e-13
-7.68785e-13
9.6022e-15
1.65588e-15
2.65562e-07
2.78704e-07
2.91167e-07
0
0
0
7.84007e-16
1.15422e-19
0
3.56483e-07
0
0
3.72648e-07
-2.0275e-18
-2.85348e-14
2.42575e-09
5.79679e-14
3.91645e-07
-3.73179e-07
2.76494e-07
3.73374e-06
5.15991e-05
0.000611682
0.00607059
0.0493236
0.327111
1.78458
8.11882
31.2944
103.842
300.993
771.669
1768.57
3660.66
6906.2
12001.9
19471.7
29898
44065
63127.2
88744.3
123130
169201
230826
313169
423170
569891
765190
1.02604e+06
1.37295e+06
1.83357e+06
2.44425e+06
3.25282e+06
4.32227e+06
5.73587e+06
7.60401e+06
1.00738e+07
1.32977e+07
1.75192e+07
2.32779e+07
3.096e+07
1.12012e+08
3.4101e+08
2.93829e+07
2.10754e+07
1.49368e+07
1.04373e+07
7.17515e+06
4.84247e+06
3.20268e+06
2.07491e+06
1.32263e+06
845655
518004
112413
6759.58
161.412
2.06345
0.0192348
0.000216136
4.85151e-06
2.74836e-07
3.65781e-08
8.35415e-09
2.63665e-09
9.87614e-10
4.08256e-10
1.56456e-10
6.71939e-11
3.41658e-11
1.32637e-11
6.63169e-12
2.41768e-12
9.86644e-13
4.13544e-13
1.76608e-13
6.63738e-14
2.65028e-14
8.10113e-15
1.47565e-15
0
-2.77533e-07
-2.89094e-07
-1.7622e-16
0
2.93978e-12
0
1.57196e-15
0
2.48513e-10
-2.26011e-10
0
1.02924e-09
1.95303e-18
-3.6605e-07
-3.18108e-17
-2.89189e-16
-2.94889e-15
1.74917e-08
2.65746e-07
3.46621e-06
4.7818e-05
0.000566074
0.00564032
0.0462057
0.309791
1.71125
7.88816
30.8103
103.567
303.937
788.361
1825.3
3808.14
7233.11
12627
20532.5
31531.1
46388.9
66232.5
92694.9
127963
174968
237622
321168
432449
580463
778682
1.04263e+06
1.39366e+06
1.85993e+06
2.47852e+06
3.29841e+06
4.38442e+06
5.82256e+06
7.72739e+06
1.02523e+07
1.35548e+07
1.78943e+07
2.38322e+07
3.17662e+07
1.81894e+08
2.74994e+08
2.94599e+07
2.09871e+07
1.47726e+07
1.02512e+07
6.99737e+06
4.68804e+06
3.0775e+06
1.97972e+06
1.2557e+06
804688
442927
74842.9
3628.26
76.9606
0.930613
0.0090137
0.000115834
3.11115e-06
2.05634e-07
2.93454e-08
7.13085e-09
2.30684e-09
9.51256e-10
3.67733e-10
1.70375e-10
7.23048e-11
3.37303e-11
1.2929e-11
6.48543e-12
2.27533e-12
1.03032e-12
4.08541e-13
1.7765e-13
-5.43575e-12
8.15651e-13
8.83637e-15
1.47731e-15
2.6484e-07
0
0
0
0
1.26621e-11
3.18514e-11
0
2.25389e-19
1.34038e-10
4.62541e-19
0
1.00163e-09
0
-9.12101e-10
5.36605e-14
-2.28073e-09
-2.86158e-15
2.53788e-08
4.43463e-07
3.24755e-06
4.46068e-05
0.000531245
0.00532998
0.0440844
0.298925
1.67153
7.8025
30.8608
105.02
311.884
818.157
1913.79
4024.93
7689.62
13481.6
21964.9
33722
49501.9
70410.6
98060.2
134643
183142
247560
333043
446541
598703
801378
1.07115e+06
1.42988e+06
1.90641e+06
2.53885e+06
3.37769e+06
4.48985e+06
5.96443e+06
7.92035e+06
1.05171e+07
1.39122e+07
1.83808e+07
2.451e+07
3.27171e+07
2.65761e+08
1.93646e+08
2.94486e+07
2.08183e+07
1.45355e+07
1.00025e+07
6.76944e+06
4.49629e+06
2.92671e+06
1.86862e+06
1.18024e+06
759997
354844
46360.2
1859.15
35.2959
0.406043
0.00410177
6.0252e-05
1.93064e-06
1.49862e-07
2.47907e-08
6.28947e-09
2.25624e-09
8.79104e-10
4.16123e-10
1.38574e-10
7.60384e-11
3.02889e-11
1.34991e-11
5.52539e-12
2.34286e-12
9.61556e-13
3.76679e-13
1.7396e-13
-7.41753e-13
2.80447e-14
8.10021e-15
-7.42336e-13
0
2.753e-07
0
0
-2.5539e-20
1.24815e-11
1.06839e-19
-6.37574e-11
1.05279e-10
-1.06547e-10
3.34337e-07
0
4.36595e-10
-2.56485e-14
1.0861e-09
-3.4938e-07
-2.78284e-16
-2.80268e-15
8.16901e-09
2.48073e-07
3.28323e-06
4.27724e-05
0.000509213
0.00514521
0.0429446
0.294284
1.66431
7.85972
31.4504
108.254
325.056
861.709
2035.26
4312.32
8274.65
14556.1
23739.7
36405.6
53283.7
75466.1
104554
142779
193216
259751
347838
465878
623012
832193
1.11051e+06
1.48051e+06
1.97197e+06
2.62433e+06
3.48981e+06
4.63779e+06
6.16068e+06
8.18192e+06
1.08617e+07
1.43545e+07
1.89733e+07
2.53206e+07
3.38073e+07
3.47684e+08
1.10907e+08
2.91971e+07
2.04484e+07
1.41461e+07
9.64646e+06
6.47018e+06
4.25993e+06
2.74983e+06
1.7434e+06
1.09779e+06
709950
254978
27725.4
950.699
16.4454
0.183645
0.00196918
3.32546e-05
1.26198e-06
1.11754e-07
2.04905e-08
5.52505e-09
1.98566e-09
7.98223e-10
4.06495e-10
1.44679e-10
6.63825e-11
3.16352e-11
1.7438e-11
5.44766e-12
2.1989e-12
9.52136e-13
3.73882e-13
1.56027e-13
6.55154e-14
8.05181e-13
8.11e-15
5.0565e-12
0
0
-5.97687e-21
-2.91772e-07
0
-1.23117e-11
0
1.48806e-15
0
-2.32411e-10
-2.10188e-10
0
5.2246e-10
1.78993e-18
8.57957e-10
-3.61663e-17
3.87332e-09
-2.76305e-15
-3.35917e-07
5.6928e-08
2.99345e-06
4.11736e-05
0.000497148
0.0050589
0.0426144
0.295032
1.6866
8.0523
32.5712
113.303
343.702
919.965
2191.94
4673.82
8995.52
15857.9
25857.4
39564.5
57686.3
81308.9
112045
152176
204666
273822
366295
489197
652739
870384
1.1599e+06
1.54474e+06
2.05594e+06
2.73455e+06
3.63496e+06
4.82938e+06
6.41382e+06
8.51356e+06
1.12994e+07
1.49234e+07
1.97171e+07
2.62668e+07
3.49771e+07
4.20024e+08
4.00884e+07
2.80892e+07
1.95146e+07
1.34072e+07
9.08588e+06
6.05875e+06
3.9669e+06
2.54747e+06
1.60849e+06
1.0118e+06
648552
191738
16277.9
492.331
7.89362
0.0867764
0.000994343
1.92112e-05
8.50218e-07
8.73606e-08
1.63931e-08
5.01336e-09
1.85526e-09
6.77113e-10
3.57413e-10
1.48306e-10
5.78926e-11
2.77921e-11
1.23464e-11
5.62116e-12
2.08379e-12
1.66997e-12
3.7148e-13
1.4154e-13
5.58102e-14
2.49577e-14
7.68182e-13
1.31139e-15
0
-2.00544e-17
8.27065e-17
0
0
1.21433e-11
-5.50348e-11
-1.46155e-15
3.14322e-07
-1.02013e-10
0
0
0
1.02002e-09
-1.02328e-09
-3.50488e-17
-4.93905e-14
-2.74957e-15
1.52543e-08
2.31245e-07
2.96458e-06
4.0888e-05
0.000493077
0.00505664
0.0429848
0.300552
1.73583
8.37295
34.2132
120.195
368.077
993.982
2386.92
5119.35
9873.81
17393.9
28314.1
43168.6
62632.7
87789.4
120243
162211
217084
290081
386792
515298
686277
913826
1.21657e+06
1.61917e+06
2.15427e+06
2.86509e+06
3.80894e+06
5.06175e+06
6.72405e+06
8.93158e+06
1.18662e+07
1.56463e+07
2.08014e+07
2.76359e+07
3.666e+07
4.51633e+08
3.53998e+07
2.51585e+07
1.76346e+07
1.21788e+07
8.27557e+06
5.52416e+06
3.61779e+06
2.32473e+06
1.47259e+06
936259
591268
144502
9926.27
268.681
4.02606
0.043958
0.000540341
1.1876e-05
6.06785e-07
6.94055e-08
1.49725e-08
4.5152e-09
1.70239e-09
6.65082e-10
2.98473e-10
1.32613e-10
6.06553e-11
2.4083e-11
1.05335e-11
4.07833e-12
2.06341e-12
8.34811e-13
3.44011e-13
1.23e-13
5.56766e-14
2.19379e-14
7.39672e-15
-7.40307e-13
0
2.71849e-07
0
0
1.71863e-16
-2.66996e-11
0
-1.03051e-19
2.07918e-19
0
3.11829e-07
4.94244e-10
-3.13234e-07
1.69068e-18
-6.77379e-18
-1.62026e-09
-2.00022e-09
-3.2758e-09
-3.05821e-07
3.99633e-07
2.96899e-06
4.08651e-05
0.000496285
0.00512885
0.0439891
0.310519
1.81097
8.82081
36.3892
129.029
398.645
1085.38
2624.65
5655.96
10914.9
19173.5
31107.6
47189
68060.8
94757.3
128783
172756
230731
307081
408184
542488
721150
958941
1.27543e+06
1.69663e+06
2.25713e+06
3.00304e+06
3.99596e+06
5.31837e+06
7.08109e+06
9.43362e+06
1.25601e+07
1.66318e+07
2.22477e+07
2.97782e+07
3.98786e+07
4.4064e+08
3.25161e+07
2.31142e+07
1.62163e+07
1.12083e+07
7.61734e+06
5.08028e+06
3.31935e+06
2.12439e+06
1.33864e+06
848512
502838
104115
6125.52
152.808
2.18075
0.0239228
0.000315903
7.82609e-06
4.53694e-07
5.66329e-08
1.31531e-08
4.14853e-09
1.57612e-09
6.58483e-10
2.96191e-10
1.30535e-10
5.32638e-11
2.37623e-11
1.20399e-11
4.44923e-12
1.84197e-12
7.28011e-13
3.41854e-13
1.3478e-13
4.94742e-14
-5.21722e-12
6.67359e-15
1.2308e-15
6.93142e-22
1.9886e-17
0
-2.83796e-07
2.59357e-11
0
2.97145e-07
-2.99955e-07
-1.41984e-15
0
0
-8.2163e-19
0
1.64233e-18
7.83536e-10
-4.27487e-17
1.57344e-09
-3.16256e-09
2.12948e-08
3.84836e-07
3.16377e-06
4.12883e-05
0.000505643
0.00526795
0.045579
0.324714
1.91154
9.39754
39.123
139.951
436.027
1196.26
2910.78
6294.29
12130
21204
34226.5
51575.3
73823.8
101873
137569
183988
244486
324055
429306
568977
754605
1.00146e+06
1.32981e+06
1.76659e+06
2.3477e+06
3.12103e+06
4.15066e+06
5.5225e+06
7.35207e+06
9.79526e+06
1.30475e+07
1.73084e+07
2.32098e+07
3.11713e+07
6.15312e+07
4.17575e+08
3.06519e+07
2.17687e+07
1.52647e+07
1.05526e+07
7.18105e+06
4.80358e+06
3.15571e+06
2.03759e+06
1.30077e+06
838361
466926
79922.4
4051.37
93.179
1.2711
0.0140486
0.00019866
5.48303e-06
3.54081e-07
4.89001e-08
1.13776e-08
3.77514e-09
1.39306e-09
6.1445e-10
2.7724e-10
1.15746e-10
5.7957e-11
1.95464e-11
1.02778e-11
4.40047e-12
1.8245e-12
7.22374e-13
3.15018e-13
1.21966e-13
5.53584e-14
1.89242e-14
6.68028e-15
1.14487e-15
-2.62541e-07
-2.84266e-21
-2.75785e-07
0
0
0
9.86811e-20
-2.94584e-07
0
-1.17426e-10
0
2.96568e-07
4.6853e-10
-1.59441e-18
9.33253e-10
-4.13566e-17
1.5197e-09
-2.82538e-15
2.05048e-08
3.83801e-07
3.06732e-06
4.23451e-05
0.000520949
0.00546924
0.0477252
0.343044
2.03772
10.108
42.4516
153.156
481.032
1329.3
3252.43
7048.2
13534.6
23491.5
37662.2
56281.7
79771.1
109240
146887
195222
258079
340595
449551
593869
785311
1.03943e+06
1.37681e+06
1.8248e+06
2.41976e+06
3.2101e+06
4.26039e+06
5.65689e+06
7.51503e+06
9.98969e+06
1.32632e+07
1.75369e+07
2.34262e+07
3.13018e+07
1.22501e+08
3.65336e+08
2.95891e+07
2.09734e+07
1.46717e+07
1.01112e+07
6.85269e+06
4.56014e+06
2.97748e+06
1.91121e+06
1.21679e+06
790309
406081
61382.2
2792.76
60.132
0.790787
0.00884921
0.00013354
4.06179e-06
2.87849e-07
4.20918e-08
1.0416e-08
3.50728e-09
1.42665e-09
5.8157e-10
2.47706e-10
1.13086e-10
5.16899e-11
2.22481e-11
9.71326e-12
-1.28328e-12
1.60984e-12
7.43491e-13
2.88562e-13
1.33444e-13
4.91866e-14
-7.43994e-13
4.36959e-12
1.14784e-15
-3.67506e-13
0
8.04816e-17
1.63707e-16
-2.82443e-07
2.56137e-11
0
0
0
-9.34209e-11
-5.44787e-15
0
3.70502e-10
9.06926e-10
-6.1637e-18
-3.68923e-17
-4.31114e-14
-2.88704e-15
1.97137e-08
3.91872e-07
3.17899e-06
4.35856e-05
0.000541411
0.00572818
0.0504019
0.365435
2.18983
10.9576
46.4171
168.867
534.592
1487.66
3657.88
7932.63
15140.3
26026.8
41372.1
61180.7
85946
117047
156234
206379
271436
356647
468896
617207
813449
1.07327e+06
1.41737e+06
1.87314e+06
2.47692e+06
3.27697e+06
4.33747e+06
5.74385e+06
7.61012e+06
1.00881e+07
1.33528e+07
1.76036e+07
2.34404e+07
3.1219e+07
1.77144e+08
3.13567e+08
2.89337e+07
2.04991e+07
1.43426e+07
9.89285e+06
6.71518e+06
4.47827e+06
2.93121e+06
1.88586e+06
1.20373e+06
784920
371355
48936.4
2025.86
41.136
0.52471
0.00594939
9.5375e-05
3.15858e-06
2.44454e-07
3.8393e-08
9.63654e-09
3.43677e-09
1.29835e-09
5.75695e-10
2.67533e-10
9.97232e-11
4.64174e-11
2.27832e-11
9.6673e-12
3.91089e-12
6.93397e-12
6.88563e-13
3.10675e-13
8.94954e-13
4.7675e-14
1.82056e-14
5.10626e-12
1.15014e-15
-3.66978e-13
-2.67315e-07
0
0
-1.38091e-11
1.13304e-11
-2.83121e-07
0
0
0
-2.82534e-07
-7.58808e-19
0
0
-8.942e-18
2.74806e-07
-3.07845e-16
-2.96533e-15
1.89205e-08
2.53159e-07
3.30732e-06
4.55289e-05
0.000566682
0.00603979
0.0535798
0.391777
2.36793
11.9511
51.0586
187.308
597.675
1674.64
4135.65
8960.96
16948.1
28784.6
45283.2
66341.1
92483.1
124869
165524
217409
284564
372299
487558
639414
839771
1.10429e+06
1.45362e+06
1.91506e+06
2.52472e+06
3.33042e+06
4.39563e+06
5.80441e+06
7.66787e+06
1.01353e+07
1.3381e+07
1.75985e+07
2.33754e+07
3.10553e+07
2.24869e+08
2.68319e+08
2.83574e+07
2.00886e+07
1.40507e+07
9.68757e+06
6.57298e+06
4.38243e+06
2.86959e+06
1.84934e+06
1.18515e+06
778524
335412
40129
1537.25
29.684
0.369342
0.00424822
7.18668e-05
2.5624e-06
2.10758e-07
3.47405e-08
9.26766e-09
3.36262e-09
1.32242e-09
5.59158e-10
2.38707e-10
1.09997e-10
4.70264e-11
1.56847e-11
9.11406e-12
3.48034e-12
1.7691e-12
6.8236e-13
2.84418e-13
1.20014e-13
4.58519e-14
1.73585e-14
-4.33219e-12
4.28294e-12
-6.89158e-22
-2.66197e-07
-5.69875e-21
-1.22657e-11
5.55177e-12
2.77539e-07
0
1.88047e-19
0
2.7702e-07
0
0
0
2.02162e-14
-2.68182e-07
-4.00448e-17
3.02787e-09
-3.06789e-15
1.81246e-08
1.22409e-07
3.45899e-06
4.75265e-05
0.000595727
0.00639788
0.0572125
0.421826
2.57124
13.0887
56.3986
208.648
671.11
1893.13
4692.22
10135
18913.4
31610.4
49166.9
71327.9
98721
132424
174555
228173
297383
387552
505654
660782
864837
1.13344e+06
1.48715e+06
1.95307e+06
2.56701e+06
3.37617e+06
4.44275e+06
5.84924e+06
7.70647e+06
1.01632e+07
1.33832e+07
1.75571e+07
2.32629e+07
3.08303e+07
2.65288e+08
2.30596e+08
2.78016e+07
1.97241e+07
1.38146e+07
9.5366e+06
6.47837e+06
4.32469e+06
2.83585e+06
1.83141e+06
1.17804e+06
778272
300042
33884.8
1216.38
22.4958
0.274311
0.003201
5.68224e-05
2.16465e-06
1.88233e-07
3.25531e-08
8.34561e-09
3.10619e-09
1.33377e-09
5.47372e-10
2.3399e-10
1.07975e-10
4.62289e-11
2.0594e-11
8.9859e-12
3.81544e-12
1.65454e-12
1.46348e-12
2.58487e-13
8.8161e-13
8.03844e-13
1.73122e-14
5.59055e-15
-7.36222e-13
0
-2.65084e-07
0
-1.59183e-16
5.48598e-12
2.7359e-07
-2.73815e-07
0
0
0
0
7.17086e-19
0
2.59939e-07
-8.33377e-18
-4.40484e-17
-3.22604e-16
-7.90015e-14
1.73258e-08
3.96909e-07
3.62685e-06
4.97158e-05
0.000627997
0.00679319
0.0612223
0.455082
2.7973
14.3617
62.4227
232.937
755.427
2145.45
5332.65
11448.9
20963.6
34328
52917.8
76235
104680
139581
183122
238435
309658
402189
523012
681222
888682
1.16095e+06
1.51845e+06
1.98797e+06
2.60463e+06
3.4147e+06
4.48e+06
5.88369e+06
7.73399e+06
1.01731e+07
1.3361e+07
1.74853e+07
2.31105e+07
3.05524e+07
2.9905e+08
1.9944e+08
2.72373e+07
1.93594e+07
1.35835e+07
9.39382e+06
6.39302e+06
4.27597e+06
2.81001e+06
1.81963e+06
1.17496e+06
779303
278927
29339.3
998.767
17.8185
0.213861
0.0025308
4.68623e-05
1.8833e-06
1.72912e-07
3.10543e-08
8.82228e-09
3.20415e-09
1.21375e-09
5.35235e-10
2.41733e-10
9.93828e-11
4.54081e-11
2.02596e-11
9.59675e-12
3.01107e-12
1.54164e-12
-3.7563e-12
2.79825e-13
9.50457e-14
4.8339e-14
1.72583e-14
7.49539e-13
7.37498e-13
0
1.48019e-12
1.12422e-20
1.5767e-16
1.20821e-11
0
-4.83007e-11
4.31546e-11
2.6628e-07
0
0
2.57894e-07
9.57188e-15
0
1.42307e-09
-4.76179e-17
-3.35413e-16
-5.53421e-09
1.40533e-08
3.99591e-07
3.69049e-06
5.20654e-05
0.000662077
0.00721158
0.0654832
0.49062
3.04071
15.7452
69.0388
259.926
850.19
2431.31
6055.31
12878.9
22991.1
36888.4
56372
80464.6
109812
145808
190705
247662
320841
415642
539055
700160
910745
1.1862e+06
1.54655e+06
2.01824e+06
2.63623e+06
3.44759e+06
4.51302e+06
5.91162e+06
7.74935e+06
1.01665e+07
1.33175e+07
1.73859e+07
2.29223e+07
3.02291e+07
3.26524e+08
1.74679e+08
2.66741e+07
1.90025e+07
1.33632e+07
9.26246e+06
6.31827e+06
4.23633e+06
2.79146e+06
1.81333e+06
1.17556e+06
781522
266695
26074.5
850.008
14.719
0.174465
0.00209117
4.01401e-05
1.69059e-06
1.61702e-07
3.01998e-08
8.24822e-09
2.95025e-09
1.23124e-09
5.22715e-10
2.46512e-10
1.00635e-10
4.58545e-11
1.99171e-11
9.44996e-12
3.71373e-12
1.52305e-12
6.36553e-13
2.77366e-13
5.2194e-12
4.80779e-14
1.7198e-14
5.575e-15
9.75587e-16
0
1.93104e-17
0
1.121e-20
1.19362e-11
3.12268e-16
6.21825e-16
-1.77343e-19
0
-2.57377e-07
-4.77474e-15
6.75294e-19
-7.0675e-10
-2.61527e-18
-7.72305e-18
-3.54003e-14
2.34793e-07
-2.91089e-09
2.096e-08
2.86535e-07
3.86484e-06
5.44852e-05
0.000696155
0.00763324
0.0698023
0.526927
3.29171
17.1872
76.0183
288.753
952.521
2741.17
6824.13
14278.8
24553.5
38432.4
58418.3
83163.9
113303
150307
196482
254990
329996
426879
552585
716073
929023
1.20675e+06
1.56931e+06
2.04356e+06
2.664e+06
3.47523e+06
4.53682e+06
5.92709e+06
7.74944e+06
1.01406e+07
1.32495e+07
1.72552e+07
2.2693e+07
2.98517e+07
3.48433e+08
1.55188e+08
2.61095e+07
1.86487e+07
1.31484e+07
9.1374e+06
6.24954e+06
4.20178e+06
2.77678e+06
1.80961e+06
1.17755e+06
784677
257559
23784.4
748.859
12.6553
0.148523
0.00179972
3.5587e-05
1.55385e-06
1.5307e-07
2.90105e-08
8.33335e-09
2.94249e-09
1.23688e-09
5.52921e-10
2.4091e-10
1.03943e-10
4.49674e-11
1.95665e-11
7.85881e-12
3.66087e-12
2.24244e-12
6.2965e-13
-4.92464e-13
8.56089e-13
-5.02357e-12
4.3276e-12
5.56366e-15
7.3627e-13
-2.59927e-07
0
0
0
-1.54461e-16
-3.07631e-16
-6.11047e-16
0
-1.19616e-15
0
0
-6.54353e-19
-3.06328e-10
-2.51916e-18
7.24813e-10
-4.85891e-17
2.24101e-07
5.02356e-09
2.48555e-08
3.0057e-07
4.03931e-06
5.6565e-05
0.000728209
0.00803155
0.0739148
0.561813
3.53549
18.6051
82.9759
317.908
1057.33
3059.35
7588.54
15473.7
25236.6
38348
58373.1
83375.7
114054
151864
199081
258840
335270
433718
561096
726371
941481
1.22163e+06
1.58675e+06
2.06235e+06
2.68238e+06
3.49119e+06
4.54703e+06
5.92638e+06
7.73001e+06
1.00908e+07
1.31523e+07
1.70881e+07
2.24173e+07
2.94149e+07
3.65708e+08
1.40296e+08
2.55446e+07
1.82979e+07
1.29386e+07
9.01824e+06
6.18707e+06
4.17335e+06
2.76769e+06
1.81062e+06
1.18307e+06
789935
251884
22276.5
682.218
11.3044
0.13161
0.00160839
3.25446e-05
1.46108e-06
1.48085e-07
2.8358e-08
8.07612e-09
2.94504e-09
1.20286e-09
5.38782e-10
2.24487e-10
1.01791e-10
4.55877e-11
1.9207e-11
7.72814e-12
3.60676e-12
1.52463e-12
6.47596e-13
2.49301e-13
1.06975e-13
4.17751e-14
1.56277e-14
5.55031e-15
9.74953e-16
-3.63855e-13
0
0
-1.16931e-11
0
0
-8.61557e-20
4.99035e-11
-2.48491e-07
1.75311e-10
0
4.41159e-15
2.29488e-07
-2.42284e-18
5.65325e-10
-4.64213e-17
-1.33578e-09
2.13864e-09
2.09149e-08
3.03955e-07
4.07936e-06
5.85768e-05
0.00075562
0.00837476
0.0774859
0.592394
3.75155
19.8776
89.3069
344.807
1154.91
3352.22
8231.69
16073.3
24201.3
35751.8
55507.6
80343.5
111092
149237
197023
257558
334951
434547
563275
730126
946512
1.2275e+06
1.59268e+06
2.06751e+06
2.68527e+06
3.48944e+06
4.53693e+06
5.90234e+06
7.68363e+06
1.00097e+07
1.30188e+07
1.6878e+07
2.20897e+07
2.89147e+07
3.78619e+08
1.2968e+08
2.49777e+07
1.79456e+07
1.27271e+07
8.89691e+06
6.12174e+06
4.14155e+06
2.75502e+06
1.80816e+06
1.18546e+06
792927
248452
21347
640.545
10.4566
0.120992
0.00148768
3.06111e-05
1.40444e-06
1.44706e-07
2.8258e-08
7.81241e-09
3.01093e-09
1.24823e-09
5.10417e-10
2.29341e-10
1.04805e-10
4.73435e-11
1.80831e-11
8.291e-12
3.55155e-12
2.27307e-12
6.60192e-13
5.21649e-12
1.06101e-13
4.43503e-14
1.55567e-14
5.5354e-15
9.7413e-16
0
0
0
0
-6.3399e-12
-2.53842e-07
0
3.975e-11
0
-3.20826e-19
-1.83944e-10
2.26836e-07
-2.2112e-07
-2.32631e-18
-4.53448e-18
-4.8673e-17
2.97762e-14
2.00877e-07
2.41431e-08
3.13934e-07
4.20465e-06
5.98025e-05
0.00077569
0.00862767
0.0801383
0.615307
3.91509
20.8521
94.2163
365.898
1231.4
3570.38
8581.37
15533.4
23626.2
31290.2
48871.6
73273.4
103744
141749
189493
250026
327397
426883
555317
721535
936967
1.21645e+06
1.57927e+06
2.05049e+06
2.66278e+06
3.45874e+06
4.49398e+06
5.84122e+06
7.59569e+06
9.88229e+06
1.28343e+07
1.66119e+07
2.17e+07
2.83451e+07
3.87409e+08
1.23083e+08
2.44071e+07
1.75893e+07
1.25122e+07
8.77333e+06
6.05546e+06
4.10981e+06
2.74294e+06
1.80624e+06
1.18779e+06
795700
247297
20892.3
617.985
9.98093
0.114966
0.00141886
2.95032e-05
1.37221e-06
1.43156e-07
2.75517e-08
8.29849e-09
3.06636e-09
1.20623e-09
5.09798e-10
2.43789e-10
1.02867e-10
4.77767e-11
1.84716e-11
8.83544e-12
3.4955e-12
1.53094e-12
6.52237e-13
2.56537e-13
5.05617e-12
4.12255e-14
7.48746e-13
5.87455e-15
9.73223e-16
0
1.89867e-17
7.56281e-17
0
5.09302e-12
0
-2.46078e-07
-2.4161e-07
-3.80906e-11
-2.31102e-07
-6.07964e-19
2.19035e-07
0
6.53669e-10
6.34575e-10
-4.62767e-17
-1.90885e-07
1.90768e-09
2.07998e-08
2.25088e-07
4.18084e-06
6.06474e-05
0.000785856
0.00875801
0.0815146
0.627294
4.0014
21.3711
96.8509
377.174
1270.13
3649.15
8386.34
15888.1
24618.3
32625.5
39299
61177.7
90521.6
127323
173733
232721
308244
405469
531105
693836
904908
1.17891e+06
1.53478e+06
1.99714e+06
2.59804e+06
3.3792e+06
4.39504e+06
5.7166e+06
7.43668e+06
9.67675e+06
1.25659e+07
1.62582e+07
2.12219e+07
2.76899e+07
3.92102e+08
1.20169e+08
2.38165e+07
1.72014e+07
1.22598e+07
8.61129e+06
5.95321e+06
4.04673e+06
2.70509e+06
1.78414e+06
1.17489e+06
788178
245972
20732.3
609.114
9.78291
0.112409
0.00138957
2.90397e-05
1.35699e-06
1.42782e-07
2.76029e-08
8.12852e-09
2.96293e-09
1.21378e-09
5.33818e-10
2.32972e-10
1.04924e-10
4.67075e-11
1.94237e-11
7.99224e-12
2.74621e-12
1.509e-12
-3.47519e-12
-4.53015e-13
1.04314e-13
4.24991e-14
1.54088e-14
5.85789e-15
9.7226e-16
3.62823e-13
0
5.7728e-12
1.14648e-11
2.53076e-07
-2.49893e-07
0
2.4161e-07
4.68157e-11
-9.14576e-11
-3.23278e-10
0
-2.73985e-10
-2.22956e-18
-1.15087e-09
-5.04836e-17
1.20103e-09
1.90768e-09
2.49598e-08
3.16056e-07
4.27573e-06
6.05623e-05
0.000785941
0.00875795
0.0815147
0.627294
4.0014
21.3711
96.8504
377.171
1270.12
3649.11
8386.25
15888
24618.2
32625.5
39299
61177.3
90521.1
127322
173732
232721
308243
405468
531104
693835
904907
1.17891e+06
1.53478e+06
1.99714e+06
2.59804e+06
3.3792e+06
4.39504e+06
5.7166e+06
7.43668e+06
9.67675e+06
1.25659e+07
1.62582e+07
2.12219e+07
2.76899e+07
3.92088e+08
1.20187e+08
2.38183e+07
1.72045e+07
1.22638e+07
8.61545e+06
5.95708e+06
4.04999e+06
2.70758e+06
1.78588e+06
1.17599e+06
788766
246075
20736.5
609.177
9.78354
0.112415
0.00138962
2.90374e-05
1.35797e-06
1.42784e-07
2.76028e-08
8.12457e-09
2.96287e-09
1.24779e-09
5.11756e-10
2.41728e-10
1.02634e-10
4.64415e-11
1.86912e-11
7.99246e-12
3.61019e-12
1.54803e-12
6.44245e-13
2.4161e-13
1.074e-13
4.37627e-14
1.54092e-14
5.504e-15
1.06084e-15
-3.63339e-13
0
0
0
0
2.27739e-11
0
0
-8.70435e-11
0
0
2.27128e-07
2.21404e-07
-5.54939e-10
-2.09962e-07
-4.86729e-17
2.30057e-09
5.5506e-14
2.21552e-08
3.13932e-07
4.20078e-06
6.00823e-05
0.000775703
0.00862777
0.0801388
0.61531
3.91509
20.852
94.2156
365.892
1231.38
3570.26
8581.07
15533.2
23626.2
31290.2
48871.1
73272.9
103744
141748
189491
250024
327394
426880
555313
721531
936963
1.21645e+06
1.57926e+06
2.05048e+06
2.66278e+06
3.45873e+06
4.49398e+06
5.84122e+06
7.59569e+06
9.88229e+06
1.28343e+07
1.66119e+07
2.17e+07
2.83451e+07
3.87381e+08
1.2311e+08
2.44051e+07
1.75866e+07
1.2509e+07
8.76994e+06
6.05222e+06
4.10699e+06
2.74068e+06
1.80458e+06
1.18669e+06
795078
247199
20890
618.003
9.98182
0.114978
0.001419
2.95076e-05
1.36993e-06
1.43154e-07
2.7552e-08
8.13496e-09
2.98247e-09
1.21049e-09
5.31802e-10
2.3817e-10
1.05206e-10
4.48478e-11
1.90784e-11
7.44945e-12
3.59145e-12
2.24212e-12
6.52251e-13
2.44217e-13
1.08325e-13
4.40597e-14
1.69026e-14
5.52009e-15
4.98949e-12
0
6.55715e-13
0
1.53189e-16
0
2.31277e-11
8.61557e-20
0
4.00059e-11
9.66638e-11
-2.39594e-07
0
-2.29487e-07
-2.2495e-07
-2.20029e-07
-4.64212e-17
-2.42257e-09
2.12327e-07
2.35071e-08
3.03954e-07
4.07935e-06
5.8478e-05
0.000755617
0.00837475
0.0774865
0.592397
3.75157
19.8778
89.3081
344.815
1154.96
3352.47
8232.59
16075.4
24201.8
35750.9
55505.2
80339.8
111088
149232
197017
257553
334945
434541
563268
730119
946506
1.2275e+06
1.59267e+06
2.06751e+06
2.68527e+06
3.48944e+06
4.53692e+06
5.90233e+06
7.68362e+06
1.00097e+07
1.30188e+07
1.6878e+07
2.20896e+07
2.89146e+07
3.7858e+08
1.29719e+08
2.49783e+07
1.79468e+07
1.27286e+07
8.89863e+06
6.12356e+06
4.14332e+06
2.75661e+06
1.80945e+06
1.18641e+06
793521
248581
21354.5
640.716
10.459
0.121018
0.00148795
3.06144e-05
1.40443e-06
1.44585e-07
2.82579e-08
8.11841e-09
2.9246e-09
1.24828e-09
5.24387e-10
2.24668e-10
1.02411e-10
4.58504e-11
1.88421e-11
8.29192e-12
3.55166e-12
1.55302e-12
6.35412e-13
2.46799e-13
1.09236e-13
5.04679e-12
1.55576e-14
5.53587e-15
4.99374e-12
0
0
-1.10877e-20
2.63224e-07
0
2.61733e-07
0
0
0
0
-4.64068e-15
-6.54352e-19
-2.38521e-07
7.3859e-10
-4.94442e-18
-2.27568e-07
2.5443e-09
5.02355e-09
2.75963e-08
2.95642e-07
3.92315e-06
5.66798e-05
0.000728225
0.00803169
0.0739157
0.561817
3.5355
18.6051
82.9752
317.902
1057.29
3059.14
7587.61
15470.5
25233.4
38344.2
58367.6
83367.6
114046
151856
199073
258832
335261
433707
561085
726361
941472
1.22162e+06
1.58674e+06
2.06234e+06
2.68237e+06
3.49119e+06
4.54702e+06
5.92638e+06
7.73e+06
1.00908e+07
1.31523e+07
1.7088e+07
2.24172e+07
2.94148e+07
3.65667e+08
1.40333e+08
2.5544e+07
1.82972e+07
1.29377e+07
9.01727e+06
6.18599e+06
4.17224e+06
2.76662e+06
1.80968e+06
1.18233e+06
789442
251804
22276.1
682.315
11.3068
0.131642
0.00160875
3.25516e-05
1.46352e-06
1.4808e-07
2.8358e-08
8.24648e-09
3.03386e-09
1.2398e-09
5.38781e-10
2.2448e-10
1.01791e-10
4.55894e-11
1.8434e-11
7.72837e-12
3.60675e-12
1.52472e-12
6.67995e-13
2.72154e-13
1.0441e-13
4.17808e-14
-5.01446e-12
5.90744e-15
4.26356e-12
0
0
0
0
0
0
-8.9276e-20
-2.62772e-07
-1.22404e-15
8.28705e-11
-2.53934e-07
0
7.06749e-10
2.42192e-07
-1.36888e-09
1.21067e-09
-1.46981e-09
-3.3657e-15
1.80707e-08
4.02286e-07
3.86482e-06
5.44953e-05
0.000696058
0.00763345
0.069804
0.526935
3.29174
17.1873
76.018
288.75
952.499
2741.07
6823.77
14277.8
24551.6
38428.7
58410.3
83161.2
113302
150306
196482
254990
329996
426879
552582
716066
929012
1.20673e+06
1.5693e+06
2.04355e+06
2.66399e+06
3.47523e+06
4.53682e+06
5.92709e+06
7.74943e+06
1.01406e+07
1.32494e+07
1.72551e+07
2.26929e+07
2.98516e+07
3.48394e+08
1.55225e+08
2.61095e+07
1.86488e+07
1.31485e+07
9.13748e+06
6.24969e+06
4.20202e+06
2.77712e+06
1.81e+06
1.17792e+06
784975
257659
23793.4
749.123
12.6597
0.148571
0.00180023
3.55941e-05
1.55523e-06
1.52367e-07
2.99371e-08
8.33333e-09
3.03385e-09
1.19032e-09
5.09882e-10
2.29957e-10
1.04777e-10
4.65215e-11
1.96466e-11
8.57963e-12
3.29754e-12
8.15831e-13
-4.41831e-12
2.51772e-13
1.05227e-13
4.20384e-14
1.71312e-14
5.56389e-15
9.75487e-16
0
1.93916e-17
0
-1.2036e-11
-1.20822e-11
-2.69626e-07
0
0
0
0
0
-6.96203e-19
-2.54493e-07
1.44164e-09
-1.86486e-14
3.68096e-14
-2.42668e-07
-7.57607e-14
2.20323e-08
3.9959e-07
3.6784e-06
5.19513e-05
0.000661978
0.00721202
0.0654854
0.490636
3.04079
15.7456
69.0405
259.933
850.215
2431.41
6055.67
12880.1
22994
36893.1
56382
80471
109816
145810
190706
247663
320841
415642
539056
700161
910746
1.1862e+06
1.54654e+06
2.01823e+06
2.63623e+06
3.44759e+06
4.51303e+06
5.91162e+06
7.74936e+06
1.01665e+07
1.33175e+07
1.73859e+07
2.29222e+07
3.0229e+07
3.2649e+08
1.74712e+08
2.66741e+07
1.90026e+07
1.33633e+07
9.26262e+06
6.31842e+06
4.23645e+06
2.79153e+06
1.81333e+06
1.17551e+06
781451
266698
26079.1
850.236
14.7238
0.174525
0.00209184
4.01527e-05
1.69174e-06
1.60393e-07
2.99038e-08
8.39841e-09
3.02654e-09
1.22234e-09
5.22714e-10
2.46511e-10
1.03762e-10
4.45663e-11
1.99166e-11
8.71817e-12
3.7136e-12
1.52305e-12
4.98916e-12
2.77365e-13
1.11816e-13
4.22825e-14
1.7198e-14
5.575e-15
9.75617e-16
-2.61038e-07
0
0
2.70867e-07
5.48598e-12
0
0
0
0
1.94126e-10
0
0
0
2.59939e-07
-5.55584e-18
-4.40483e-17
-3.28071e-16
-3.16781e-15
-2.34128e-07
2.65491e-07
3.76402e-06
4.97157e-05
0.000628162
0.00679346
0.0612255
0.455103
2.79743
14.3623
62.4252
232.947
755.457
2145.53
5332.82
11449.1
20963.2
34328.9
52920.1
76237.6
104683
139583
183123
238435
309658
402189
523012
681222
888683
1.16095e+06
1.51846e+06
1.98798e+06
2.60463e+06
3.4147e+06
4.48001e+06
5.8837e+06
7.73401e+06
1.01731e+07
1.33611e+07
1.74853e+07
2.31105e+07
3.05523e+07
2.99022e+08
1.99471e+08
2.72376e+07
1.93595e+07
1.35833e+07
9.39345e+06
6.39254e+06
4.27551e+06
2.80964e+06
1.81939e+06
1.17484e+06
779272
278964
29348.1
999.133
17.8256
0.213945
0.00253169
4.68754e-05
1.88598e-06
1.73651e-07
3.14283e-08
8.47857e-09
3.20414e-09
1.16413e-09
5.15015e-10
2.5198e-10
9.93807e-11
4.03876e-11
1.95149e-11
8.85377e-12
4.51946e-12
1.44793e-12
5.96313e-13
2.79818e-13
5.24172e-12
-7.11112e-13
1.72587e-14
7.49378e-13
9.75283e-16
4.80012e-18
1.49265e-12
-5.69875e-21
0
-5.55177e-12
0
9.39618e-20
-5.51335e-11
-1.10068e-10
0
0
-5.1407e-15
-7.78296e-10
1.54335e-09
-8.63813e-18
-4.57655e-17
-3.18879e-16
-3.06788e-15
1.81246e-08
1.22409e-07
3.45899e-06
4.75385e-05
0.000595786
0.00639836
0.0572161
0.421852
2.57139
13.0894
56.4015
208.658
671.142
1893.21
4692.43
10135.4
18914.2
31611
49168.7
71330.1
98723
132426
174556
228173
297383
387551
505653
660782
864837
1.13344e+06
1.48715e+06
1.95308e+06
2.56702e+06
3.37619e+06
4.44276e+06
5.84925e+06
7.7065e+06
1.01633e+07
1.33832e+07
1.75571e+07
2.32629e+07
3.08303e+07
2.65266e+08
2.30622e+08
2.78008e+07
1.97233e+07
1.38142e+07
9.53665e+06
6.47876e+06
4.32523e+06
2.83637e+06
1.83179e+06
1.17824e+06
778345
300108
33892.8
1216.76
22.504
0.274418
0.00320218
5.68382e-05
2.16461e-06
1.89622e-07
3.25524e-08
8.50383e-09
3.18636e-09
1.33377e-09
5.5157e-10
2.33989e-10
1.07973e-10
4.62278e-11
2.05934e-11
1.3412e-11
3.81531e-12
6.81416e-12
6.97161e-13
1.04723e-12
1.13965e-13
4.27132e-14
-5.10262e-12
5.95113e-15
9.74577e-16
0
0
2.72056e-07
0
1.12355e-11
0
0
0
2.03886e-10
2.03527e-10
1.81947e-10
-3.62026e-10
0
0
-2.07728e-14
3.1558e-09
-3.07844e-16
-2.95941e-15
1.89204e-08
2.50319e-07
3.3003e-06
4.55288e-05
0.000566732
0.00604034
0.0535841
0.391807
2.3681
11.9519
51.0619
187.319
597.711
1674.74
4135.92
8961.63
16949.8
28789
45290.5
66344.7
92484.9
124869
165524
217408
284563
372297
487556
639412
839769
1.10429e+06
1.45362e+06
1.91507e+06
2.52473e+06
3.33045e+06
4.39566e+06
5.80446e+06
7.66793e+06
1.01354e+07
1.33811e+07
1.75986e+07
2.33757e+07
3.10556e+07
2.24853e+08
2.68346e+08
2.836e+07
2.00922e+07
1.40544e+07
9.6906e+06
6.57514e+06
4.38379e+06
2.87036e+06
1.84982e+06
1.18554e+06
778868
335617
40151.7
1538.03
29.6979
0.369505
0.0042499
7.18946e-05
2.56524e-06
2.12183e-07
3.54569e-08
9.42982e-09
3.28038e-09
1.36407e-09
5.59142e-10
2.38707e-10
1.09995e-10
5.0054e-11