/*--------------------------------*- C++ -*----------------------------------*\
  =========                 |
  \\      /  F ield         | OpenFOAM: The Open Source CFD Toolbox
   \\    /   O peration     | Website:  https://openfoam.org
    \\  /    A nd           | Version:  8
     \\/     M anipulation  |
\*---------------------------------------------------------------------------*/
FoamFile
{
    version     2.0;
    format      ascii;
    class       volScalarField;
    location    "900/fluid";
    object      rDeltaT;
}
// * * * * * * * * * * * * * * * * * * * * * * * * * * * * * * * * * * * * * //

dimensions      [0 0 -1 0 0 0 0];

internalField   nonuniform List<scalar> 
4000
(
513.504
539.552
564.411
588.225
610.928
632.418
652.566
671.231
688.281
703.613
717.189
729.064
739.417
748.58
757.049
765.323
773.792
782.636
791.752
800.753
809.031
815.895
820.688
822.89
822.183
818.378
811.369
801.127
787.689
771.142
751.609
741.75
764.722
809.346
853.144
896.003
937.841
978.585
1018.18
1056.59
1093.78
1129.74
1164.45
1197.92
1230.16
1261.15
1290.93
1319.5
1346.87
1373.06
1398.08
1421.94
1444.65
1466.22
1486.65
1505.94
1524.1
1540.97
1556.56
1571.12
1584.54
2831.06
15085.1
1574.05
1537.5
1496.06
1450.21
1400.47
1347.25
1290.94
1231.95
1170.74
1107.9
1043.94
979.599
916.321
856.109
801.377
755.088
719.881
696.746
684.24
679.114
677.845
677.612
676.647
673.965
669.212
662.416
653.764
643.489
631.826
618.995
605.189
590.573
575.278
559.404
543.023
526.191
508.862
513.027
538.416
562.482
585.156
606.406
626.155
644.309
660.779
675.499
688.453
699.699
709.4
717.842
725.454
732.719
740.109
748.009
756.604
765.804
775.223
784.236
792.098
798.08
801.581
802.15
799.481
793.417
783.918
771.034
754.876
735.594
713.365
715.607
752.708
797.718
841.988
885.413
927.904
969.388
1009.81
1049.13
1087.32
1124.37
1160.25
1194.98
1228.54
1260.96
1292.23
1322.38
1351.42
1379.36
1406.22
1432.02
1456.78
1480.51
1503.23
1524.95
1545.53
1565.02
1583.73
1601.55
4432.54
13677.8
1584.7
1543.43
1498.53
1449.9
1397.63
1341.9
1282.94
1221.02
1156.52
1089.92
1021.64
952.603
884.681
820.5
763.315
716.382
682.04
660.516
649.632
645.869
645.822
646.954
647.705
647.255
645.145
641.223
635.512
628.118
619.184
608.863
597.311
584.668
571.058
556.577
541.301
525.282
508.554
512.323
536.151
558.481
579.28
598.481
616.022
631.85
645.929
658.261
668.907
678.003
685.782
692.577
698.809
704.926
711.385
718.569
726.677
735.638
745.086
754.417
762.893
769.771
774.387
776.196
774.811
770.021
761.751
750.027
734.942
716.638
695.283
678.077
694.647
739.952
784.82
829.131
872.78
915.683
957.771
998.991
1039.3
1078.68
1117.09
1154.55
1191.03
1226.54
1261.1
1294.71
1327.39
1359.17
1390.06
1420.1
1449.32
1477.72
1505.34
1532.17
1558.01
1582.84
1606.79
1629.3
7206.8
11053
1603.74
1557.75
1508.03
1454.64
1397.68
1337.28
1273.64
1207.02
1137.81
1066.54
993.764
920.767
849.843
783.991
726.701
681.06
648.756
629.277
620.05
617.558
618.577
620.754
622.638
623.514
623.014
620.967
617.326
612.116
605.405
597.279
587.834
577.165
565.359
552.492
538.628
523.826
508.108
511.633
534.079
554.959
574.228
591.839
607.752
621.941
634.403
645.168
654.318
662.002
668.453
673.995
679.041
684.064
689.542
695.863
703.226
711.562
720.513
729.476
737.716
744.481
749.103
751.048
749.942
745.558
737.791
726.636
712.157
694.468
673.712
650.058
649.976
685.372
730.557
775.47
820.002
864.064
907.58
950.49
992.747
1034.31
1075.17
1115.29
1154.67
1193.3
1231.19
1268.33
1304.76
1340.47
1375.48
1409.81
1443.46
1476.42
1508.68
1540.15
1570.51
1599.64
1627.55
1653.45
10546.7
7803.42
1616.08
1566.24
1512.13
1454.05
1392.26
1327.02
1258.64
1187.51
1114.17
1039.29
963.639
888.853
817.447
752.441
697.03
653.868
624.11
606.788
599.144
597.756
599.626
602.597
605.326
607.094
607.555
606.567
604.096
600.159
594.8
588.076
580.048
570.779
560.326
548.739
536.065
522.352
507.628
510.896
531.84
551.17
568.849
584.836
599.104
611.645
622.473
631.642
639.253
645.476
650.56
654.843
658.743
662.736
667.29
672.785
679.417
687.118
695.536
704.079
712.017
718.6
723.15
725.124
724.135
719.94
712.422
701.557
687.396
670.035
649.603
626.251
612.561
633.735
679.094
724.449
769.692
814.729
859.484
903.893
947.903
991.474
1034.57
1077.18
1119.26
1160.82
1201.84
1242.32
1282.25
1321.64
1360.46
1398.7
1436.34
1473.31
1509.53
1544.82
1578.76
1611.18
1641.94
1670.02
13821.8
4480.82
1619.87
1567.11
1509.41
1447.34
1381.41
1312.06
1239.75
1165.02
1088.58
1011.14
933.668
858.035
786.828
723.02
669.597
628.823
601.371
585.892
579.512
578.947
581.42
584.972
588.381
590.973
592.403
592.508
591.225
588.547
584.492
579.092
572.389
564.427
555.248
544.888
533.386
520.785
507.115
510.157
529.627
547.474
563.662
578.16
590.953
602.041
611.454
619.256
625.557
630.535
634.44
637.608
640.452
643.438
647.029
651.598
657.341
664.199
671.83
679.659
686.971
693.024
697.143
698.786
697.557
693.204
685.597
674.699
660.544
643.214
622.825
599.511
575.173
585.285
630.733
676.418
722.233
768.087
813.9
859.607
905.15
950.486
995.573
1040.38
1084.87
1129.03
1172.83
1216.25
1259.26
1301.84
1343.95
1385.52
1426.49
1466.75
1506.12
1544.4
1581.01
1615.75
1648.36
1677.67
16726.4
1663.74
1615.7
1560.54
1499.79
1434.4
1365.09
1292.48
1217.17
1139.84
1061.28
982.291
903.982
828.4
758.158
696.152
645.138
607.012
582.02
568.496
563.481
563.802
566.871
570.893
574.765
577.878
579.919
580.736
580.265
578.484
575.399
571.026
565.389
558.516
550.434
541.169
530.751
519.216
506.593
509.411
527.393
543.755
558.467
571.502
582.852
592.526
600.562
607.03
612.051
615.805
618.547
620.612
622.41
624.4
627.036
630.685
635.54
641.54
648.353
655.413
662.013
667.418
670.96
672.095
670.424
665.69
657.756
646.577
632.177
614.628
594.033
570.516
544.215
545.923
584.744
630.678
676.958
723.493
770.204
817.019
863.882
910.738
957.538
1004.24
1050.81
1097.21
1143.4
1189.33
1234.97
1280.25
1325.1
1369.45
1413.15
1456.06
1497.96
1538.55
1577.05
1613.66
1647.29
1676.91
18017.5
1657.15
1605.47
1547.33
1483.83
1415.84
1344.09
1269.24
1191.97
1113.03
1033.31
953.615
875.222
800.266
731.354
671.287
622.617
586.916
564.083
552.221
548.348
549.418
553.017
557.492
561.83
565.47
568.117
569.622
569.915
568.967
566.772
563.338
558.676
552.807
545.748
537.518
528.14
517.649
506.07
508.668
525.173
540.075
553.343
564.959
574.918
583.237
589.958
595.158
598.96
601.547
603.172
604.168
604.936
605.928
607.588
610.277
614.183
619.249
625.149
631.327
637.087
641.702
644.509
644.965
642.671
637.368
628.912
617.253
602.408
584.441
563.445
539.536
512.843
508.186
540.668
586.765
633.401
680.481
727.925
775.663
823.626
871.757
920.001
968.309
1016.63
1064.91
1113.09
1161.13
1208.94
1256.45
1303.57
1350.17
1396.1
1441.16
1485.09
1527.45
1567.5
1605.24
1639.34
1668.4
17612.7
1643.13
1588.82
1528.43
1462.92
1393.1
1319.7
1243.42
1164.99
1085.21
1005.01
925.217
847.237
773.286
705.954
647.95
601.63
568.286
547.518
537.248
534.48
536.288
540.406
545.304
550.054
554.144
557.301
559.386
560.33
560.099
558.682
556.079
552.294
547.34
541.228
533.97
525.587
516.105
505.552
507.927
522.963
536.413
548.253
558.467
567.057
574.043
579.471
583.422
586.022
587.454
587.971
587.899
587.637
587.625
588.3
590.014
592.952
597.055
602.002
607.244
612.094
615.831
617.798
617.455
614.405
608.389
599.259
586.964
571.515
552.97
531.418
506.967
479.739
470.233
497.979
544.159
591.043
638.54
686.567
735.046
783.907
833.087
882.524
932.155
981.92
1031.75
1081.59
1131.34
1180.94
1230.26
1279.2
1327.61
1375.3
1422.03
1467.52
1511.25
1552.54
1591.26
1626.05
2433.3
16719.9
1623.86
1567.57
1505.53
1438.6
1367.57
1293.15
1216.06
1137.07
1057.02
976.833
897.382
820.172
747.462
681.819
625.862
581.775
550.602
531.702
522.857
521.089
523.584
528.208
533.536
538.711
543.257
546.921
549.572
551.139
551.59
550.909
549.089
546.132
542.045
536.835
530.511
523.088
514.591
505.043
507.191
520.767
532.779
543.204
552.034
559.271
564.942
569.095
571.814
573.226
573.513
572.927
571.791
570.493
569.468
569.142
569.86
571.8
574.904
578.853
583.104
586.976
589.758
590.797
589.558
585.647
578.803
568.883
555.83
539.656
520.414
498.189
473.085
445.217
432.042
456.29
502.469
549.501
597.292
645.756
694.813
744.39
794.415
844.818
895.529
946.476
997.582
1048.76
1099.93
1150.97
1201.78
1252.2
1302.08
1351.2
1399.31
1446.09
1491.02
1533.42
1573.23
1609.2
4847.1
14653.8
1599.53
1542.26
1479.35
1411.67
1340.01
1265.11
1187.73
1108.64
1028.72
948.91
870.099
793.891
722.567
658.664
604.719
562.759
533.614
516.441
508.918
508.092
511.253
516.385
522.151
527.754
532.754
536.914
540.111
542.278
543.379
543.398
542.326
540.161
536.904
532.562
527.139
520.647
513.108
504.544
506.459
518.585
529.166
538.187
545.64
551.534
555.897
558.782
560.274
560.5
559.643
557.952
555.744
553.403
551.354
550.015
549.72
550.643
552.723
555.642
558.862
561.71
563.479
563.523
561.313
556.459
548.702
537.899
523.997
507.004
486.973
463.988
438.148
409.566
393.611
415.282
461.38
508.463
556.436
605.208
654.699
704.828
755.519
806.695
858.277
910.184
962.328
1014.62
1066.94
1119.18
1171.21
1222.87
1273.98
1324.31
1373.6
1421.51
1467.49
1510.9
1551.67
1588.55
7015.5
12596.1
1571.67
1514.08
1450.86
1382.92
1311.1
1236.15
1158.86
1080.03
1000.56
921.39
843.437
768.377
698.508
636.34
584.331
544.367
517.093
501.497
495.187
495.242
499.049
504.693
510.914
516.965
522.435
527.104
530.851
533.615
535.36
536.067
535.725
534.331
531.885
528.387
523.843
518.26
511.658
504.056
505.732
516.415
525.574
533.196
539.28
543.836
546.896
548.516
548.781
547.82
545.817
543.015
539.729
536.336
533.252
530.886
529.563
529.451
530.484
532.346
534.502
536.284
536.994
535.99
532.75
526.888
518.151
506.398
491.576
473.695
452.809
429
402.367
373.018
354.945
374.716
420.659
467.705
515.757
564.723
614.519
665.059
716.262
768.045
820.321
873.003
925.992
979.184
1032.46
1085.7
1138.75
1191.45
1243.59
1294.94
1345.23
1394.1
1441.01
1485.3
1526.89
1564.51
8912.7
10793.8
1541.54
1483.99
1420.81
1352.97
1281.31
1206.63
1129.73
1051.42
972.644
894.294
817.341
743.525
675.148
614.688
564.53
526.435
500.89
486.745
481.557
482.447
486.888
493.054
499.748
506.268
512.227
517.417
521.725
525.09
527.478
528.868
529.249
528.615
526.964
524.297
520.614
515.922
510.238
503.578
505.008
514.255
521.998
528.228
532.945
536.166
537.924
538.277
537.314
535.163
532.007
528.088
523.716
519.261
515.132
511.727
509.363
508.2
508.169
508.952
510.018
510.704
510.316
508.224
503.908
496.99
487.221
474.465
458.671
439.852
418.063
393.386
365.918
335.769
316.061
334.416
380.135
427.063
475.104
524.163
574.151
624.98
676.564
728.814
781.638
834.939
888.613
942.546
996.616
1050.68
1104.59
1158.15
1211.18
1263.41
1314.56
1364.29
1412.01
1457.07
1499.39
1537.68
10522.6
9286.84
1509.86
1452.56
1389.67
1322.19
1250.96
1176.8
1100.51
1022.93
944.999
867.614
791.769
719.262
652.387
593.592
545.193
508.841
484.888
472.078
467.932
469.617
474.683
481.381
488.57
495.583
502.054
507.785
512.669
516.646
519.683
521.759
522.862
522.985
522.123
520.275
517.442
513.627
508.846
503.11
504.288
512.105
518.436
523.276
526.63
528.516
528.972
528.057
525.862
522.516
518.201
513.158
507.691
502.166
496.981
492.527
489.111
486.885
485.774
485.461
485.415
484.978
483.465
480.251
474.824
466.813
455.974
442.176
425.372
405.579
382.852
357.276
328.949
297.979
276.979
294.254
339.685
386.425
434.374
483.437
533.521
584.535
636.388
688.987
742.234
796.027
850.254
904.795
959.519
1014.28
1068.91
1123.22
1177
1230
1281.92
1332.4
1380.86
1426.63
1469.65
1508.61
11869.3
8040.18
1477.1
1420.21
1357.81
1290.88
1220.26
1146.8
1071.29
994.587
917.645
841.333
766.68
695.52
630.139
572.956
526.223
491.495
469.009
457.427
454.254
456.699
462.386
469.63
477.334
484.865
491.871
498.164
503.642
508.246
511.942
514.712
516.54
517.419
517.343
516.31
514.318
511.37
507.477
502.65
503.57
509.963
514.886
518.338
520.329
520.88
520.032
517.846
514.415
509.869
504.389
498.214
491.645
485.04
478.792
473.279
468.802
465.502
463.3
461.876
460.701
459.122
456.461
452.1
445.535
436.402
424.464
409.596
391.755
370.962
347.276
320.782
291.581
259.78
237.725
254.14
299.228
345.716
393.503
442.493
492.589
543.699
595.727
648.575
702.143
756.32
810.992
866.031
921.299
976.642
1031.89
1086.85
1141.3
1194.98
1247.59
1298.75
1347.89
1394.35
1438.04
1477.69
12966.5
7047.54
1443.6
1387.25
1325.46
1259.21
1189.36
1116.73
1042.14
966.439
890.584
815.429
742.024
672.231
608.329
552.703
507.549
474.335
453.204
442.75
440.479
443.656
449.962
457.765
466.008
474.08
481.645
488.523
494.612
499.859
504.228
507.7
510.26
511.899
512.61
512.389
511.233
509.143
506.129
502.198
502.855
507.827
511.344
513.41
514.038
513.253
511.098
507.638
502.967
497.215
490.564
483.251
475.572
467.881
460.561
453.983
448.436
444.054
440.751
438.204
435.887
433.151
429.324
423.796
416.073
405.797
392.74
376.781
357.885
336.076
311.417
283.995
253.912
221.279
198.323
214.017
258.71
304.889
352.453
401.303
451.34
502.469
554.591
607.605
661.405
715.879
770.904
826.351
882.074
937.916
993.7
1049.23
1104.27
1158.56
1211.8
1263.61
1313.39
1360.51
1404.89
1445.23
13842.6
6265.14
1409.56
1353.83
1292.77
1227.32
1158.35
1086.67
1013.1
938.5
863.807
789.868
717.75
649.334
586.886
532.763
489.111
457.323
437.457
428.042
426.581
430.462
437.389
445.767
454.57
463.207
471.355
478.837
485.559
491.464
496.52
500.705
504.005
506.409
507.909
508.5
508.178
506.941
504.797
501.751
502.141
505.695
507.808
508.489
507.754
505.631
502.167
497.429
491.513
484.551
476.723
468.265
459.471
450.686
442.289
434.639
428.016
422.544
418.133
414.455
410.985
407.079
402.073
395.364
386.467
375.034
360.842
343.78
323.817
300.982
275.342
246.988
216.024
182.561
158.799
173.846
218.1
263.921
311.208
359.859
409.774
460.856
513.004
566.112
620.071
674.766
730.071
785.851
841.957
898.226
954.477
1010.5
1066.08
1120.93
1174.75
1227.16
1277.57
1325.34
1370.4
1411.47
14534
5666.66
1375.13
1320.11
1259.85
1195.31
1127.31
1056.68
984.214
910.775
837.301
764.622
693.815
626.77
565.74
513.053
470.814
440.363
421.714
413.322
412.595
417.146
424.685
433.644
443.02
452.239
460.987
469.094
476.464
483.044
488.8
493.711
497.76
500.936
503.23
504.634
505.145
504.758
503.478
501.309
501.429
503.566
504.277
503.572
501.472
498.01
493.235
487.215
480.05
471.872
462.862
453.254
443.338
433.455
423.974
415.247
407.543
400.977
395.45
390.634
386.003
380.919
374.722
366.822
356.741
344.139
328.803
310.629
289.593
265.728
239.106
209.821
177.98
143.696
119.181
133.611
177.385
222.805
269.766
318.167
367.906
418.884
470.996
524.136
578.192
633.044
688.564
744.612
801.037
857.672
914.331
970.806
1026.86
1082.23
1136.6
1189.59
1240.6
1289.01
1334.75
1376.56
15051.1
5239.75
1340.41
1286.17
1226.8
1163.24
1096.3
1026.78
955.489
883.273
811.064
739.678
670.197
604.511
544.858
493.536
452.612
423.381
405.854
398.483
398.501
403.709
411.85
421.39
431.347
441.162
450.527
459.274
467.31
474.58
481.051
486.699
491.508
495.465
498.559
500.781
502.126
502.588
502.169
500.871
500.717
501.439
500.747
498.656
495.191
490.387
484.297
476.992
468.573
459.175
448.979
438.215
427.172
416.186
405.617
395.809
387.019
379.354
372.707
366.747
360.949
354.679
347.285
338.185
326.912
313.135
296.649
277.359
255.246
230.351
202.75
172.539
139.829
104.735
100
100
136.568
181.546
228.139
276.244
325.759
376.581
428.605
481.722
535.817
590.769
646.445
702.705
759.393
816.34
873.356
930.232
986.731
1042.58
1097.46
1151
1202.6
1251.64
1298.07
1340.62
15403.2
4974.37
1305.46
1252.07
1193.67
1131.15
1065.33
997
926.939
855.994
785.088
715.023
646.88
582.542
524.226
474.201
434.495
406.368
389.832
383.401
384.235
390.102
398.844
408.97
419.52
429.947
439.947
449.353
458.073
466.051
473.252
479.653
485.234
489.982
493.884
496.93
499.112
500.425
500.866
500.435
500.006
499.313
497.218
493.74
488.907
482.759
475.35
466.757
457.08
446.457
435.068
423.145
410.971
398.876
387.216
376.322
366.443
357.675
349.905
342.797
335.827
328.365
319.769
309.463
296.992
282.035
264.398
243.989
220.801
194.879
166.303
135.175
101.608
100
100
100
100
140.161
186.347
234.115
283.361
333.981
385.868
438.911
492.993
547.991
603.772
660.191
717.091
774.301
831.629
888.864
945.765
1002.06
1057.43
1111.5
1163.68
1213.34
1260.43
1303.71
15591.1
4857.17
1270.3
1217.84
1160.48
1099.09
1034.45
967.349
898.563
828.926
759.353
690.634
623.84
560.839
503.828
455.045
416.486
389.375
373.688
367.999
369.664
376.214
385.579
396.316
407.487
418.551
429.211
439.3
448.725
457.432
465.382
472.552
478.921
484.472
489.193
493.071
496.097
498.264
499.565
500
500.006
499.313
497.218
493.74
488.907
482.759
475.35
466.756
457.08
446.457
435.068
423.144
410.97
398.876
387.215
376.321
366.442
357.674
349.905
342.796
335.826
328.364
319.768
309.462
296.991
282.034
264.397
243.988
220.8
194.878
166.302
135.174
101.607
100
100
100
100
140.16
186.346
234.114
283.36
333.98
385.867
438.91
492.993
547.991
603.771
660.191
717.091
774.301
831.629
888.864
945.765
1002.06
1057.43
1111.5
1163.68
1213.34
1260.43
1303.71
15590.5
4857.9
1270.31
1217.85
1160.49
1099.09
1034.45
967.352
898.565
828.928
759.354
690.635
623.841
560.84
503.828
455.045
416.485
389.374
373.687
367.999
369.664
376.213
385.579
396.316
407.486
418.551
429.21
439.299
448.725
457.431
465.382
472.552
478.921
484.472
489.193
493.071
496.097
498.263
499.565
500
500.717
501.439
500.747
498.656
495.191
490.387
484.296
476.992
468.573
459.175
448.978
438.214
427.171
416.185
405.616
395.808
387.018
379.353
372.706
366.746
360.948
354.677
347.284
338.183
326.91
313.133
296.647
277.357
255.244
230.349
202.747
172.537
139.827
104.733
100
100
136.566
181.544
228.137
276.242
325.757
376.58
428.604
481.721
535.816
590.767
646.444
702.704
759.392
816.339
873.356
930.232
986.73
1042.58
1097.46
1151
1202.6
1251.64
1298.07
1340.62
15401.9
4975.67
1305.47
1252.08
1193.68
1131.16
1065.34
997.006
926.944
855.997
785.091
715.026
646.882
582.543
524.227
474.201
434.496
406.368
389.831
383.4
384.234
390.101
398.842
408.969
419.519
429.946
439.946
449.352
458.072
466.05
473.252
479.653
485.234
489.982
493.884
496.93
499.112
500.425
500.866
500.435
501.429
503.566
504.277
503.572
501.472
498.01
493.234
487.215
480.049
471.872
462.862
453.253
443.337
433.454
423.974
415.246
407.542
400.976
395.449
390.632
386.002
380.917
374.721
366.82
356.739
344.137
328.801
310.627
289.591
265.726
239.104
209.819
177.978
143.694
119.178
133.609
177.383
222.803
269.764
318.165
367.905
418.882
470.995
524.135
578.191
633.043
688.562
744.611
801.036
857.67
914.329
970.804
1026.86
1082.23
1136.6
1189.59
1240.6
1289.01
1334.75
1376.55
15049.4
5241.39
1340.43
1286.18
1226.82
1163.25
1096.3
1026.79
955.496
883.279
811.069
739.683
670.201
604.515
544.861
493.538
452.613
423.381
405.854
398.483
398.5
403.707
411.849
421.389
431.346
441.161
450.526
459.273
467.309
474.579
481.05
486.699
491.508
495.465
498.558
500.781
502.125
502.588
502.169
500.871
502.141
505.695
507.808
508.489
507.753
505.631
502.167
497.429
491.512
484.55
476.723
468.264
459.47
450.685
442.288
434.638
428.015
422.543
418.131
414.453
410.983
407.078
402.071
395.362
386.466
375.032
360.84
343.778
323.815
300.98
275.34
246.986
216.022
182.559
158.797
173.844
218.098
263.919
311.206
359.857
409.773
460.855
513.002
566.11
620.069
674.764
730.069
785.849
841.955
898.224
954.475
1010.5
1066.08
1120.93
1174.75
1227.16
1277.57
1325.34
1370.39
1411.46
14532.3
5668.32
1375.15
1320.12
1259.87
1195.32
1127.32
1056.69
984.222
910.782
837.308
764.628
693.82
626.774
565.743
513.055
470.816
440.364
421.714
413.322
412.594
417.145
424.684
433.643
443.018
452.238
460.986
469.093
476.463
483.043
488.8
493.71
497.76
500.936
503.229
504.634
505.144
504.758
503.478
501.309
502.855
507.827
511.344
513.41
514.038
513.253
511.098
507.638
502.966
497.215
490.564
483.25
475.571
467.88
460.56
453.982
448.435
444.053
440.75
438.203
435.886
433.15
429.323
423.794
416.072
405.796
392.738
376.779
357.883
336.074
311.415
283.993
253.91
221.277
198.321
214.015
258.708
304.887
352.451
401.301
451.338
502.467
554.589
607.603
661.404
715.877
770.903
826.349
882.072
937.914
993.698
1049.22
1104.27
1158.56
1211.79
1263.6
1313.38
1360.5
1404.88
1445.23
13841
6266.71
1409.57
1353.84
1292.78
1227.33
1158.36
1086.68
1013.11
938.508
863.814
789.875
717.756
649.339
586.89
532.766
489.113
457.324
437.457
428.041
426.58
430.461
437.388
445.766
454.569
463.206
471.354
478.836
485.558
491.463
496.519
500.705
504.005
506.409
507.909
508.5
508.177
506.941
504.797
501.751
503.57
509.963
514.886
518.338
520.329
520.88
520.031
517.845
514.414
509.868
504.388
498.213
491.644
485.039
478.791
473.278
468.801
465.501
463.299
461.874
460.7
459.121
456.46
452.098
445.534
436.4
424.462
409.594
391.753
370.96
347.274
320.78
291.579
259.778
237.723
254.139
299.226
345.714
393.502
442.491
492.588
543.697
595.725
648.574
702.141
756.318
810.99
866.029
921.297
976.639
1031.89
1086.84
1141.29
1194.98
1247.58
1298.75
1347.88
1394.34
1438.04
1477.69
12965.1
7048.95
1443.61
1387.26
1325.47
1259.22
1189.37
1116.74
1042.15
966.448
890.591
815.436
742.03
672.237
608.334
552.707
507.552
474.337
453.204
442.749
440.478
443.655
449.961
457.764
466.007
474.079
481.644
488.522
494.612
499.858
504.228
507.7
510.26
511.898
512.609
512.388
511.232
509.143
506.128
502.197
504.288
512.105
518.436
523.276
526.63
528.516
528.971
528.057
525.861
522.516
518.201
513.157
507.69
502.165
496.98
492.526
489.11
486.884
485.773
485.46
485.414
484.977
483.464
480.249
474.823
466.811
455.972
442.174
425.37
405.576
382.85
357.274
328.947
297.977
276.977
294.252
339.684
386.424
434.373
483.436
533.52
584.534
636.387
688.986
742.233
796.025
850.253
904.794
959.518
1014.28
1068.91
1123.22
1177
1230
1281.92
1332.4
1380.85
1426.63
1469.65
1508.6
11868.1
8041.43
1477.1
1420.22
1357.82
1290.88
1220.27
1146.8
1071.29
994.594
917.652
841.341
766.686
695.525
630.144
572.96
526.226
491.497
469.01
457.427
454.253
456.698
462.385
469.629
477.333
484.864
491.87
498.164
503.641
508.245
511.942
514.711
516.54
517.418
517.343
516.31
514.318
511.37
507.477
502.65
505.008
514.255
521.998
528.228
532.945
536.166
537.924
538.277
537.314
535.163
532.007
528.088
523.715
519.26
515.131
511.726
509.362
508.199
508.168
508.951
510.017
510.702
510.315
508.222
503.907
496.989
487.22
474.463
458.669
439.85
418.061
393.383
365.916
335.766
316.059
334.415
380.133
427.062
475.103
524.162
574.15
624.979
676.563
728.813
781.637
834.938
888.612
942.546
996.615
1050.68
1104.59
1158.15
1211.17
1263.41
1314.56
1364.29
1412.01
1457.07
1499.39
1537.68
10521.7
9287.97
1509.86
1452.56
1389.68
1322.2
1250.97
1176.81
1100.51
1022.93
945.007
867.621
791.776
719.269
652.393
593.596
545.196
508.843
484.888
472.077
467.932
469.616
474.682
481.38
488.568
495.582
502.053
507.784
512.668
516.646
519.683
521.759
522.862
522.984
522.123
520.275
517.442
513.627
508.846
503.11
505.732
516.415
525.574
533.196
539.28
543.836
546.896
548.515
548.78
547.82
545.816
543.014
539.728
536.335
533.251
530.885
529.562
529.45
530.483
532.345
534.501
536.283
536.992
535.989
532.749
526.887
518.149
506.396
491.573
473.693
452.807
428.998
402.364
373.015
354.943
374.715
420.658
467.704
515.756
564.723
614.518
665.058
716.261
768.044
820.321
873.002
925.991
979.184
1032.46
1085.7
1138.75
1191.45
1243.59
1294.94
1345.23
1394.1
1441.01
1485.3
1526.89
1564.51
8911.96
10794.7
1541.55
1483.99
1420.82
1352.97
1281.31
1206.64
1129.73
1051.43
972.652
894.302
817.348
743.531
675.153
614.692
564.533
526.437
500.89
486.745
481.557
482.446
486.887
493.053
499.747
506.267
512.226
517.416
521.725
525.09
527.477
528.867
529.249
528.615
526.964
524.296
520.613
515.922
510.238
503.578
506.459
518.585
529.166
538.187
545.64
551.534
555.897
558.782
560.273
560.499
559.642
557.951
555.743
553.402
551.353
550.014
549.719
550.642
552.722
555.641
558.861
561.709
563.478
563.522
561.312
556.457
548.7
537.897
523.995
507.001
486.971
463.985
438.145
409.563
393.609
415.281
461.38
508.463
556.435
605.208
654.699
704.828
755.519
806.694
858.277
910.184
962.328
1014.62
1066.94
1119.18
1171.21
1222.87
1273.98
1324.31
1373.6
1421.51
1467.49
1510.91
1551.68
1588.56
7014.86
12597.1
1571.68
1514.09
1450.87
1382.93
1311.11
1236.16
1158.87
1080.03
1000.57
921.397
843.443
768.383
698.514
636.344
584.334
544.37
517.094
501.497
495.186
495.241
499.048
504.692
510.913
516.964
522.434
527.103
530.851
533.614
535.359
536.066
535.725
534.331
531.884
528.387
523.842
518.26
511.658
504.056
507.191
520.767
532.779
543.204
552.033
559.271
564.941
569.095
571.813
573.225
573.513
572.927
571.79
570.492
569.467
569.141
569.859
571.799
574.903
578.852
583.103
586.975
589.757
590.796
589.556
585.645
578.802
568.881
555.828
539.653
520.411
498.186
473.082
445.214
432.04
456.29
502.469
549.501
597.292
645.756
694.814
744.39
794.415
844.818
895.529
946.477
997.583
1048.76
1099.93
1150.98
1201.78
1252.2
1302.08
1351.2
1399.32
1446.1
1491.02
1533.43
1573.23
1609.2
4847.25
14653.7
1599.53
1542.27
1479.35
1411.67
1340.01
1265.12
1187.73
1108.64
1028.73
948.914
870.107
793.901
722.574
658.669
604.723
562.762
533.615
516.441
508.917
508.091
511.252
516.384
522.15
527.753
532.753
536.914
540.11
542.277
543.379
543.398
542.326
540.16
536.904
532.562
527.139
520.647
513.108
504.544
507.927
522.963
536.413
548.253
558.467
567.057
574.042
579.471
583.422
586.022
587.454
587.97
587.898
587.636
587.624
588.299
590.014
592.951
597.054
602.001
607.244
612.093
615.83
617.796
617.453
614.404
608.387
599.257
586.961
571.512
552.967
531.415
506.964
479.735
470.231
497.98
544.159
591.044
638.541
686.568
735.047
783.908
833.088
882.524
932.156
981.921
1031.76
1081.59
1131.34
1180.94
1230.26
1279.2
1327.61
1375.3
1422.04
1467.52
1511.25
1552.54
1591.26
1626.05
2432.49
16721.2
1623.87
1567.59
1505.55
1438.62
1367.58
1293.16
1216.08
1137.08
1057.02
976.833
897.377
820.166
747.46
681.82
625.864
581.777
550.603
531.702
522.857
521.089
523.583
528.207
533.535
538.71
543.256
546.921
549.571
551.139
551.59
550.908
549.089
546.132
542.045
536.835
530.511
523.088
514.591
505.043
508.668
525.173
540.074
553.343
564.958
574.917
583.236
589.957
595.157
598.959
601.546
603.172
604.167
604.936
605.928
607.588
610.276
614.182
619.248
625.148
631.326
637.086
641.701
644.508
644.963
642.669
637.366
628.91
617.251
602.405
584.438
563.442
539.533
512.839
508.185
540.669
586.767
633.402
680.482
727.927
775.664
823.628
871.758
920.003
968.31
1016.63
1064.91
1113.1
1161.13
1208.94
1256.46
1303.57
1350.17
1396.1
1441.17
1485.09
1527.45
1567.51
1605.24
1639.35
1668.41
17613.2
1643.14
1588.83
1528.44
1462.92
1393.1
1319.71
1243.43
1165
1085.22
1005.02
925.228
847.25
773.298
705.963
647.956
601.635
568.288
547.519
537.248
534.48
536.287
540.405
545.303
550.053
554.143
557.301
559.386
560.329
560.099
558.682
556.079
552.294
547.34
541.228
533.97
525.587
516.105
505.552
509.411
527.393
543.755
558.467
571.502
582.852
592.526
600.561
607.029
612.05
615.804
618.546
620.611
622.409
624.399
627.035
630.685
635.539
641.539
648.352
655.412
662.012
667.417
670.959
672.093
670.422
665.688
657.754
646.574
632.174
614.625
594.029
570.512
544.21
545.922
584.746
630.68
676.96
723.495
770.205
817.021
863.884
910.74
957.54
1004.24
1050.81
1097.21
1143.4
1189.33
1234.97
1280.25
1325.11
1369.45
1413.15
1456.06
1497.96
1538.55
1577.05
1613.67
1647.29
1676.91
18017.4
1657.16
1605.48
1547.34
1483.84
1415.85
1344.1
1269.25
1191.98
1113.05
1033.32
953.629
875.23
800.269
731.356
671.291
622.621
586.919
564.085
552.222
548.348
549.418
553.017
557.492
561.83
565.47
568.117
569.621
569.914
568.967
566.772
563.338
558.676
552.807
545.748
537.518
528.14
517.649
506.07
510.157
529.627
547.474
563.662
578.16
590.953
602.041
611.454
619.255
625.557
630.534
634.439
637.607
640.451
643.438
647.028
651.597
657.341
664.198
671.829
679.658
686.97
693.023
697.142
698.784
697.555
693.202
685.594
674.696
660.54
643.211
622.821
599.507
575.172
585.287
630.736
676.421
722.236
768.09
813.903
859.609
905.153
950.488
995.575
1040.38
1084.87
1129.03
1172.83
1216.25
1259.26
1301.84
1343.95
1385.52
1426.5
1466.75
1506.13
1544.4
1581.01
1615.75
1648.36
1677.67
16725.6
1663.75
1615.7
1560.55
1499.8
1434.41
1365.1
1292.49
1217.18
1139.85
1061.29
982.299
903.992
828.41
758.168
696.159
645.143
607.016
582.022
568.497
563.481
563.802
566.871
570.893
574.764
577.877
579.919
580.736
580.264
578.484
575.399
571.026
565.389
558.516
550.434
541.169
530.751
519.216
506.593
510.896
531.84
551.17
568.849
584.836
599.104
611.645
622.473
631.642
639.253
645.476
650.56
654.842
658.743
662.735
667.289
672.784
679.417
687.118
695.535
704.078
712.016
718.599
723.148
725.123
724.133
719.938
712.419
701.554
687.392
670.03
649.598
626.247
612.56
633.738
679.098
724.453
769.695
814.733
859.488
903.896
947.906
991.477
1034.58
1077.18
1119.27
1160.82
1201.84
1242.32
1282.26
1321.64
1360.46
1398.7
1436.34
1473.31
1509.53
1544.82
1578.76
1611.18
1641.94
1670.02
13820.4
4482.04
1619.88
1567.12
1509.42
1447.35
1381.42
1312.07
1239.76
1165.03
1088.59
1011.15
933.677
858.044
786.837
723.028
669.603
628.827
601.374
585.893
579.513
578.947
581.42
584.972
588.381
590.973
592.402
592.507
591.225
588.547
584.492
579.092
572.389
564.427
555.248
544.888
533.386
520.786
507.115
511.633
534.079
554.959
574.228
591.839
607.752
621.941
634.402
645.168
654.318
662.002
668.453
673.994
679.04
684.064
689.541
695.862
703.225
711.562
720.512
729.475
737.715
744.48
749.101
751.047
749.94
745.555
737.788
726.632
712.153
694.463
673.707
650.053
649.975
685.376
730.561
775.474
820.007
864.068
907.584
950.494
992.751
1034.32
1075.17
1115.29
1154.67
1193.3
1231.19
1268.34
1304.76
1340.47
1375.48
1409.81
1443.46
1476.42
1508.68
1540.15
1570.51
1599.65
1627.55
1653.45
10545.3
7804.69
1616.09
1566.25
1512.14
1454.06
1392.27
1327.03
1258.65
1187.52
1114.18
1039.3
963.649
888.862
817.456
752.449
697.037
653.872
624.113
606.79
599.144
597.756
599.626
602.596
605.326
607.094
607.555
606.567
604.096
600.159
594.801
588.076
580.048
570.779
560.326
548.739
536.065
522.352
507.628
512.323
536.151
558.482
579.28
598.481
616.023
631.85
645.929
658.261
668.907
678.003
685.782
692.576
698.808
704.925
711.384
718.568
726.677
735.638
745.086
754.416
762.892
769.77
774.386