/*--------------------------------*- C++ -*----------------------------------*\
  =========                 |
  \\      /  F ield         | OpenFOAM: The Open Source CFD Toolbox
   \\    /   O peration     | Website:  https://openfoam.org
    \\  /    A nd           | Version:  8
     \\/     M anipulation  |
\*---------------------------------------------------------------------------*/
FoamFile
{
    version     2.0;
    format      ascii;
    class       volScalarField;
    location    "900/fluid";
    object      rho;
}
// * * * * * * * * * * * * * * * * * * * * * * * * * * * * * * * * * * * * * //

dimensions      [1 -3 0 0 0 0 0];

internalField   nonuniform List<scalar> 
4000
(
0.658526
0.658499
0.658454
0.658379
0.658254
0.658047
0.657705
0.657147
0.656246
0.654811
0.652564
0.649115
0.64395
0.636449
0.625944
0.611857
0.593872
0.572112
0.547207
0.5202
0.492319
0.464716
0.438287
0.413606
0.39095
0.370378
0.351806
0.335074
0.319992
0.306365
0.294011
0.28277
0.272503
0.263093
0.254442
0.246453
0.239022
0.232088
0.2256
0.219514
0.213795
0.20841
0.203332
0.19854
0.194014
0.189739
0.1857
0.181888
0.178293
0.174908
0.171729
0.168754
0.165982
0.163417
0.161066
0.158941
0.15706
0.155473
0.154207
0.153269
0.152775
0.152843
0.154236
0.163116
0.173612
0.185941
0.200399
0.217379
0.237394
0.261115
0.289414
0.323412
0.364549
0.414778
0.476468
0.55179
0.641887
0.745161
0.855071
0.959707
1.04604
1.10703
1.14441
1.16473
1.17492
1.17978
1.18203
1.18304
1.18348
1.18368
1.18376
1.1838
1.18381
1.18382
1.18382
1.18382
1.18382
1.18382
1.18382
1.18382
0.658526
0.658499
0.658454
0.658379
0.658253
0.658045
0.657701
0.657141
0.656237
0.6548
0.652554
0.649117
0.643987
0.636558
0.626184
0.612297
0.59458
0.573132
0.548538
0.521792
0.494085
0.466559
0.440119
0.415357
0.392577
0.371858
0.353133
0.336251
0.321029
0.307274
0.294806
0.283463
0.273104
0.263613
0.25489
0.246839
0.239353
0.23237
0.225838
0.219713
0.213959
0.208542
0.203436
0.198618
0.194069
0.189772
0.185715
0.181886
0.178276
0.174878
0.171687
0.168702
0.165921
0.163348
0.160991
0.15886
0.156975
0.155386
0.154118
0.15318
0.152688
0.152763
0.154904
0.163949
0.174641
0.187211
0.201972
0.219338
0.239852
0.264223
0.293372
0.328487
0.371096
0.423272
0.487424
0.565614
0.658577
0.763833
0.873642
0.975452
1.05712
1.1135
1.14761
1.16616
1.17551
1.18001
1.18211
1.18307
1.18349
1.18368
1.18376
1.1838
1.18381
1.18382
1.18382
1.18382
1.18382
1.18382
1.18382
1.18382
0.658526
0.658499
0.658454
0.658379
0.658253
0.658043
0.657698
0.657136
0.656231
0.654792
0.652549
0.649122
0.644019
0.636646
0.626369
0.612632
0.595119
0.573917
0.549582
0.523075
0.495557
0.468151
0.441759
0.416984
0.394144
0.373334
0.354499
0.337502
0.322163
0.308295
0.29572
0.284278
0.273828
0.264251
0.25545
0.247329
0.23978
0.232738
0.226152
0.219978
0.214177
0.208718
0.203573
0.198719
0.194137
0.189811
0.185726
0.181872
0.178239
0.174821
0.171612
0.168611
0.165816
0.163232
0.160864
0.158726
0.156835
0.155244
0.153977
0.153042
0.152561
0.15265
0.156111
0.165379
0.176357
0.189287
0.204498
0.22243
0.243656
0.268926
0.299211
0.335758
0.380167
0.434588
0.501353
0.582244
0.677409
0.783432
0.891711
0.98974
1.06669
1.119
1.15041
1.16747
1.1761
1.18027
1.18222
1.18311
1.18351
1.18369
1.18376
1.1838
1.18381
1.18382
1.18382
1.18382
1.18382
1.18382
1.18382
1.18382
0.658526
0.658499
0.658454
0.658379
0.658253
0.658044
0.6577
0.657141
0.65624
0.654812
0.652588
0.649194
0.644146
0.636859
0.626705
0.613133
0.59582
0.574837
0.550716
0.524389
0.496998
0.469659
0.443277
0.418467
0.39556
0.374662
0.35573
0.338631
0.323192
0.309228
0.296563
0.285034
0.274504
0.264852
0.25598
0.247795
0.240187
0.23309
0.226453
0.22023
0.214384
0.208882
0.203697
0.198806
0.19419
0.189831
0.185716
0.181835
0.178178
0.174738
0.17151
0.168491
0.165682
0.163086
0.160709
0.158564
0.15667
0.155083
0.153823
0.152899
0.152432
0.152547
0.157637
0.167153
0.178454
0.191791
0.207511
0.226077
0.248092
0.274343
0.305847
0.343901
0.390181
0.44689
0.516253
0.599766
0.696993
0.803621
0.910257
1.00449
1.07674
1.12495
1.15355
1.16901
1.1768
1.18058
1.18236
1.18317
1.18354
1.1837
1.18377
1.1838
1.18381
1.18382
1.18382
1.18382
1.18382
1.18382
1.18382
1.18382
0.658526
0.658499
0.658455
0.658379
0.658254
0.658046
0.657705
0.657149
0.656254
0.654837
0.652631
0.649269
0.644271
0.637058
0.627011
0.61358
0.596438
0.57564
0.551699
0.525524
0.49824
0.470956
0.444582
0.41974
0.396774
0.3758
0.356784
0.339599
0.324074
0.310028
0.297285
0.285684
0.275084
0.265368
0.256435
0.248194
0.240534
0.233388
0.226705
0.220438
0.214551
0.20901
0.203788
0.198862
0.194213
0.189824
0.185682
0.181776
0.178095
0.174635
0.171389
0.168355
0.165534
0.162928
0.160546
0.158398
0.156507
0.154933
0.153685
0.152776
0.152338
0.152508
0.159269
0.169034
0.180667
0.194427
0.210676
0.229894
0.252714
0.279957
0.312682
0.352231
0.400362
0.459299
0.531123
0.617024
0.715952
0.822742
0.927374
1.01775
1.08558
1.13012
1.15627
1.17033
1.17742
1.18086
1.18248
1.18322
1.18356
1.18371
1.18377
1.1838
1.18381
1.18382
1.18382
1.18382
1.18382
1.18382
1.18382
1.18382
0.658526
0.658499
0.658455
0.658381
0.658256
0.65805
0.657711
0.657159
0.656273
0.65487
0.652686
0.649358
0.644412
0.637275
0.627332
0.614031
0.59704
0.576401
0.552606
0.526549
0.499342
0.47209
0.445709
0.42083
0.397805
0.376761
0.357669
0.340407
0.324809
0.310692
0.297882
0.286218
0.27556
0.265788
0.256803
0.248514
0.24081
0.233622
0.226898
0.220594
0.21467
0.209095
0.203841
0.198885
0.194207
0.189792
0.185625
0.181697
0.177996
0.174519
0.171258
0.168213
0.165384
0.162775
0.160392
0.15825
0.156366
0.154807
0.153572
0.152685
0.152273
0.15248
0.160717
0.170758
0.182751
0.196956
0.213745
0.233616
0.25723
0.285442
0.319349
0.360338
0.410248
0.471297
0.545424
0.633501
0.73388
0.840612
0.943177
1.02988
1.09366
1.13486
1.15879
1.17158
1.17801
1.18113
1.1826
1.18328
1.18358
1.18372
1.18378
1.1838
1.18381
1.18382
1.18382
1.18382
1.18382
1.18382
1.18382
1.18382
0.658526
0.6585
0.658456
0.658382
0.658258
0.658054
0.657718
0.657171
0.656293
0.654902
0.652739
0.649444
0.644546
0.637477
0.627625
0.614439
0.597579
0.577076
0.553404
0.527443
0.500295
0.473065
0.446671
0.421753
0.398673
0.377565
0.358405
0.341075
0.325411
0.311233
0.298365
0.286647
0.275939
0.26612
0.257091
0.248761
0.241019
0.233796
0.227038
0.220701
0.214747
0.209142
0.20386
0.198878
0.194176
0.189739
0.185552
0.181604
0.177888
0.174397
0.171126
0.168074
0.165243
0.162635
0.16026
0.158131
0.156268
0.154751
0.153522
0.152689
0.152335
0.152595
0.161473
0.172038
0.184522
0.199235
0.216584
0.237105
0.261487
0.290625
0.325654
0.368009
0.419599
0.482626
0.558878
0.648905
0.750473
0.856917
0.957347
1.04057
1.10066
1.13894
1.16095
1.17265
1.17852
1.18137
1.18271
1.18332
1.1836
1.18373
1.18378
1.1838
1.18381
1.18382
1.18382
1.18382
1.18382
1.18382
1.18382
1.18382
0.658526
0.6585
0.658456
0.658383
0.658261
0.658058
0.657724
0.657183
0.656312
0.654934
0.652791
0.649526
0.644672
0.637666
0.627896
0.61481
0.598064
0.577674
0.554105
0.52822
0.501117
0.473897
0.447486
0.422529
0.399397
0.37823
0.35901
0.34162
0.325899
0.311668
0.29875
0.286986
0.276235
0.266376
0.25731
0.248945
0.241171
0.233917
0.227131
0.220766
0.214786
0.209157
0.203852
0.198849
0.194127
0.18967
0.185466
0.181504
0.177776
0.174274
0.170997
0.167941
0.165109
0.162507
0.160143
0.158034
0.156211
0.154744
0.153592
0.15288
0.152721
0.153299
0.162487
0.173397
0.186264
0.20141
0.21926
0.240372
0.265463
0.295459
0.331531
0.375158
0.428314
0.493158
0.571337
0.663083
0.76561
0.871611
0.969941
1.04994
1.10676
1.14247
1.16283
1.17359
1.17897
1.18157
1.1828
1.18336
1.18362
1.18373
1.18378
1.18381
1.18381
1.18382
1.18382
1.18382
1.18382
1.18382
1.18382
1.18382
0.658526
0.6585
0.658457
0.658384
0.658263
0.658061
0.657731
0.657193
0.65633
0.654964
0.652838
0.6496
0.644786
0.637834
0.628136
0.615137
0.598488
0.578195
0.55471
0.528887
0.501816
0.474602
0.44817
0.423177
0.399997
0.378778
0.359503
0.342062
0.326291
0.312013
0.299053
0.28725
0.276463
0.26657
0.257472
0.249078
0.241277
0.233997
0.227187
0.220799
0.214798
0.209149
0.203825
0.198803
0.194065
0.189593
0.185376
0.181402
0.177664
0.174155
0.170872
0.167815
0.164985
0.162387
0.160034
0.157943
0.156151
0.15472
0.153623
0.152994
0.152963
0.154111
0.163566
0.174764
0.187955
0.203475
0.221766
0.243404
0.269132
0.299903
0.336923
0.381718
0.43631
0.502817
0.582733
0.675985
0.779263
0.884705
0.981002
1.05807
1.11198
1.14548
1.16442
1.17438
1.17935
1.18175
1.18288
1.1834
1.18364
1.18374
1.18379
1.18381
1.18382
1.18382
1.18382
1.18382
1.18382
1.18382
1.18382
1.18382
0.658526
0.658501
0.658457
0.658385
0.658265
0.658065
0.657737
0.657203
0.656346
0.65499
0.652881
0.649667
0.644887
0.637984
0.628347
0.615423
0.598855
0.578643
0.555227
0.529453
0.502407
0.475193
0.448741
0.423713
0.400491
0.379224
0.359903
0.342416
0.326603
0.312286
0.299289
0.287453
0.276634
0.266713
0.257589
0.249171
0.241347
0.234046
0.227215
0.220809
0.21479
0.209124
0.203785
0.198749
0.193997
0.189513
0.185285
0.181302
0.177556
0.174042
0.170755
0.167696
0.164866
0.162272
0.159924
0.15784
0.156061
0.154641
0.153549
0.152916
0.152855
0.155038
0.164687
0.176113
0.189574
0.205415
0.224092
0.246198
0.272497
0.303966
0.341841
0.387695
0.443584
0.511579
0.59304
0.687592
0.791445
0.896256
0.990638
1.06506
1.11644
1.14803
1.16577
1.17505
1.17967
1.1819
1.18295
1.18343
1.18365
1.18375
1.18379
1.18381
1.18382
1.18382
1.18382
1.18382
1.18382
1.18382
1.18382
1.18382
0.658526
0.658501
0.658458
0.658386
0.658266
0.658068
0.657742
0.657212
0.656361
0.655014
0.652919
0.649725
0.644976
0.638113
0.628529
0.615667
0.599169
0.579023
0.555664
0.52993
0.502902
0.475685
0.449213
0.424154
0.400894
0.379587
0.360225
0.342699
0.326849
0.312499
0.299471
0.287607
0.276762
0.266818
0.257671
0.249232
0.24139
0.234071
0.227224
0.220803
0.214769
0.209089
0.203737
0.19869
0.193927
0.189434
0.185198
0.181208
0.177457
0.173938
0.170649
0.167588
0.164759
0.162167
0.159822
0.157742
0.155969
0.154553
0.153465
0.152831
0.152764
0.15596
0.165765
0.177381
0.191069
0.207185
0.226198
0.248715
0.275519
0.307611
0.34625
0.393056
0.450112
0.519439
0.602262
0.697928
0.802211
0.906357
0.998962
1.07103
1.12021
1.15018
1.16691
1.17561
1.17994
1.18202
1.183
1.18346
1.18366
1.18375
1.18379
1.18381
1.18382
1.18382
1.18382
1.18382
1.18382
1.18382
1.18382
1.18382
0.658526
0.658501
0.658458
0.658387
0.658268
0.658071
0.657747
0.65722
0.656374
0.655034
0.652951
0.649776
0.645052
0.638223
0.628684
0.615875
0.599434
0.579344
0.556031
0.530327
0.503312
0.476091
0.449601
0.424514
0.40122
0.379878
0.360481
0.342922
0.327042
0.312663
0.29961
0.287722
0.276856
0.266892
0.257727
0.249271
0.241414
0.234081
0.22722
0.220786
0.214741
0.20905
0.203688
0.198632
0.193861
0.189361
0.185118
0.181123
0.177367
0.173846
0.170555
0.167494
0.164666
0.162076
0.159735
0.15766
0.155893
0.154481
0.153396
0.152764
0.152696
0.156796
0.166744
0.178527
0.192417
0.208777
0.228085
0.250963
0.278211
0.31085
0.350164
0.397815
0.455908
0.526409
0.610419
0.707027
0.811623
0.915108
1.0061
1.0761
1.12339
1.15198
1.16786
1.17608
1.18017
1.18213
1.18305
1.18348
1.18367
1.18376
1.18379
1.18381
1.18382
1.18382
1.18382
1.18382
1.18382
1.18382
1.18382
1.18382
0.658526
0.658501
0.658459
0.658388
0.658269
0.658073
0.65775
0.657226
0.656384
0.655052
0.652979
0.649818
0.645116
0.638316
0.628814
0.616049
0.599655
0.57961
0.556335
0.530655
0.50365
0.476423
0.449916
0.424805
0.401483
0.380111
0.360685
0.343098
0.327192
0.31279
0.299716
0.287808
0.276925
0.266944
0.257764
0.249295
0.241425
0.23408
0.227209
0.220765
0.21471
0.209011
0.203641
0.198577
0.1938
0.189295
0.185048
0.181049
0.177291
0.173768
0.170477
0.167417
0.164591
0.162004
0.159667
0.157595
0.155833
0.154426
0.153345
0.152715
0.152644
0.157519
0.167597
0.17953
0.193596
0.210167
0.229732
0.252924
0.28056
0.31368
0.353587
0.401982
0.460984
0.532507
0.61754
0.71494
0.819755
0.922605
1.01215
1.08036
1.12604
1.15348
1.16864
1.17648
1.18035
1.18222
1.18309
1.1835
1.18368
1.18376
1.18379
1.18381
1.18382
1.18382
1.18382
1.18382
1.18382
1.18382
1.18382
1.18382
0.658526
0.658501
0.658459
0.658388
0.65827
0.658075
0.657754
0.657232
0.656394
0.655067
0.653002
0.649854
0.645169
0.638394
0.628922
0.616193
0.599837
0.579829
0.556583
0.530923
0.503924
0.476691
0.45017
0.425038
0.401692
0.380295
0.360845
0.343235
0.327308
0.312886
0.299795
0.287871
0.276974
0.26698
0.257788
0.249308
0.241428
0.234074
0.227194
0.220742
0.21468
0.208975
0.203599
0.198529
0.193748
0.189238
0.184988
0.180987
0.177228
0.173705
0.170414
0.167356
0.164533
0.161949
0.159615
0.157548
0.155791
0.154389
0.153311
0.152681
0.152607
0.158133
0.168326
0.180391
0.19461
0.211364
0.231151
0.254614
0.282585
0.316117
0.356536
0.405573
0.465358
0.537759
0.623663
0.721721
0.826686
0.928948
1.01724
1.08392
1.12824
1.15472
1.16929
1.1768
1.18051
1.18229
1.18313
1.18351
1.18368
1.18376
1.1838
1.18381
1.18382
1.18382
1.18382
1.18382
1.18382
1.18382
1.18382
1.18382
0.658526
0.658501
0.658459
0.658389
0.658271
0.658076
0.657757
0.657236
0.656401
0.655079
0.653021
0.649883
0.645213
0.638457
0.62901
0.61631
0.599984
0.580006
0.556783
0.531138
0.504143
0.476906
0.450372
0.425222
0.401856
0.380439
0.360969
0.343341
0.327397
0.31296
0.299854
0.287918
0.277009
0.267005
0.257803
0.249315
0.241427
0.234066
0.227179
0.220722
0.214654
0.208943
0.203563
0.19849
0.193705
0.189193
0.184941
0.180939
0.17718
0.173657
0.170368
0.167312
0.164491
0.16191
0.159581
0.157518
0.155766
0.154368
0.153291
0.15266
0.152582
0.158639
0.168936
0.181115
0.195467
0.212377
0.232351
0.256044
0.284296
0.318178
0.359029
0.408611
0.469057
0.542199
0.628832
0.727428
0.832493
0.93423
1.02144
1.08684
1.13004
1.15573
1.16982
1.17706
1.18063
1.18235
1.18315
1.18352
1.18369
1.18376
1.1838
1.18381
1.18382
1.18382
1.18382
1.18382
1.18382
1.18382
1.18382
1.18382
0.658526
0.658501
0.65846
0.658389
0.658272
0.658078
0.657759
0.65724
0.656407
0.655088
0.653036
0.649906
0.645248
0.638507
0.62908
0.616402
0.600101
0.580146
0.556942
0.531307
0.504315
0.477073
0.450529
0.425366
0.401984
0.38055
0.361064
0.343421
0.327464
0.313015
0.299898
0.287952
0.277034
0.267022
0.257814
0.249319
0.241425
0.234059
0.227167
0.220705
0.214633
0.208919
0.203535
0.19846
0.193673
0.189159
0.184907
0.180905
0.177146
0.173624
0.170337
0.167283
0.164465
0.161888
0.159563
0.157505
0.155757
0.154362
0.153286
0.152653
0.152569
0.159052
0.169438
0.181714
0.196176
0.213215
0.233344
0.257226
0.285711
0.319881
0.361088
0.411118
0.472109
0.545859
0.633087
0.732115
0.837244
0.93853
1.02485
1.08919
1.13149
1.15654
1.17024
1.17727
1.18073
1.18239
1.18317
1.18353
1.18369
1.18377
1.1838
1.18381
1.18382
1.18382
1.18382
1.18382
1.18382
1.18382
1.18382
1.18382
0.658526
0.658502
0.65846
0.65839
0.658273
0.658079
0.65776
0.657243
0.656412
0.655096
0.653048
0.649925
0.645274
0.638546
0.629133
0.616473
0.600191
0.580253
0.557062
0.531436
0.504446
0.477201
0.450649
0.425474
0.40208
0.380633
0.361135
0.343481
0.327514
0.313055
0.299931
0.287978
0.277053
0.267035
0.257822
0.249322
0.241424
0.234054
0.227159
0.220693
0.214619
0.208902
0.203517
0.19844
0.193652
0.189138
0.184885
0.180883
0.177125
0.173605
0.17032
0.167269
0.164454
0.161882
0.15956
0.157506
0.155762
0.154369
0.153293
0.152655
0.152562
0.159377
0.169838
0.182195
0.196746
0.213888
0.234141
0.258173
0.286842
0.321239
0.362729
0.413114
0.474537
0.548767
0.636461
0.73582
0.840987
0.941905
1.02751
1.09103
1.13261
1.15717
1.17057
1.17743
1.18081
1.18243
1.18319
1.18354
1.1837
1.18377
1.1838
1.18381
1.18382
1.18382
1.18382
1.18382
1.18382
1.18382
1.18382
1.18382
0.658526
0.658502
0.65846
0.65839
0.658273
0.658079
0.657762
0.657245
0.656415
0.655101
0.653056
0.649938
0.645294
0.638574
0.629172
0.616525
0.600256
0.58033
0.55715
0.531529
0.504541
0.477292
0.450734
0.425551
0.402148
0.380693
0.361186
0.343524
0.327549
0.313084
0.299954
0.287996
0.277067
0.267045
0.257828
0.249326
0.241425
0.234052
0.227155
0.220688
0.214611
0.208893
0.203507
0.198429
0.19364
0.189126
0.184873
0.180873
0.177116
0.173598
0.170316
0.167268
0.164457
0.161888
0.159571
0.15752
0.155779
0.154387
0.15331
0.152665
0.152559
0.159618
0.170142
0.182562
0.197182
0.214404
0.234749
0.258893
0.287699
0.322265
0.363965
0.414615
0.476358
0.550943
0.638978
0.738577
0.84376
0.944395
1.02947
1.09237
1.13344
1.15763
1.17081
1.17755
1.18087
1.18246
1.1832
1.18354
1.1837
1.18377
1.1838
1.18381
1.18382
1.18382
1.18382
1.18382
1.18382
1.18382
1.18382
1.18382
0.658526
0.658502
0.65846
0.65839
0.658273
0.65808
0.657762
0.657246
0.656417
0.655105
0.653062
0.649946
0.645307
0.638592
0.629198
0.616559
0.600298
0.58038
0.557206
0.531589
0.504602
0.477351
0.450789
0.425601
0.402192
0.380731
0.361219
0.343551
0.327572
0.313103
0.299969
0.288007
0.277076
0.267052
0.257833
0.249329
0.241427
0.234053
0.227155
0.220686
0.214609
0.20889
0.203503
0.198425
0.193636
0.189123
0.184871
0.180872
0.177117
0.173601
0.170321
0.167277
0.164469
0.161904
0.15959
0.157542
0.155804
0.154413
0.153332
0.15268
0.152559
0.159777
0.17035
0.182817
0.197486
0.214762
0.235169
0.259387
0.288284
0.322962
0.3648
0.415625
0.477578
0.552396
0.640653
0.740401
0.845586
0.946024
1.03074
1.09325
1.13398
1.15793
1.17097
1.17763
1.1809
1.18247
1.18321
1.18355
1.1837
1.18377
1.1838
1.18381
1.18382
1.18382
1.18382
1.18382
1.18382
1.18382
1.18382
1.18382
0.658526
0.658502
0.65846
0.65839
0.658273
0.65808
0.657763
0.657247
0.656418
0.655106
0.653065
0.64995
0.645313
0.638601
0.62921
0.616575
0.600318
0.580404
0.557233
0.531618
0.504631
0.477379
0.450816
0.425625
0.402213
0.380749
0.361234
0.343564
0.327583
0.313112
0.299976
0.288013
0.277081
0.267055
0.257836
0.249332
0.241429
0.234055
0.227156
0.220687
0.214609
0.208891
0.203504
0.198425
0.193637
0.189124
0.184874
0.180875
0.177122
0.173607
0.17033
0.167287
0.164482
0.161919
0.159608
0.157563
0.155827
0.154436
0.153354
0.152695
0.152559
0.159856
0.170461
0.182956
0.197651
0.214953
0.235391
0.259645
0.288586
0.323318
0.365222
0.41613
0.478182
0.553108
0.641467
0.741281
0.846459
0.946795
1.03134
1.09366
1.13423
1.15807
1.17104
1.17766
1.18092
1.18248
1.18321
1.18355
1.1837
1.18377
1.1838
1.18381
1.18382
1.18382
1.18382
1.18382
1.18382
1.18382
1.18382
1.18382
0.658526
0.658502
0.65846
0.65839
0.658273
0.65808
0.657763
0.657247
0.656418
0.655106
0.653065
0.64995
0.645313
0.638601
0.62921
0.616574
0.600318
0.580404
0.557233
0.531618
0.504631
0.477379
0.450815
0.425625
0.402213
0.380749
0.361234
0.343564
0.327582
0.313112
0.299976
0.288013
0.277081
0.267055
0.257836
0.249332
0.241429
0.234055
0.227156
0.220687
0.214609
0.208891
0.203503
0.198425
0.193637
0.189124
0.184873
0.180875
0.177122
0.173607
0.17033
0.167287
0.164482
0.161919
0.159608
0.157563
0.155827
0.154436
0.153354
0.152695
0.152559
0.159856
0.170461
0.182955
0.19765
0.214953
0.235391
0.259645
0.288585
0.323317
0.365222
0.416129
0.478181
0.553107
0.641466
0.74128
0.846458
0.946795
1.03134
1.09366
1.13423
1.15807
1.17104
1.17766
1.18092
1.18248
1.18321
1.18355
1.1837
1.18377
1.1838
1.18381
1.18382
1.18382
1.18382
1.18382
1.18382
1.18382
1.18382
1.18382
0.658526
0.658502
0.65846
0.65839
0.658273
0.65808
0.657762
0.657246
0.656417
0.655105
0.653062
0.649946
0.645307
0.638592
0.629198
0.616559
0.600298
0.58038
0.557206
0.531589
0.504601
0.477351
0.450789
0.425601
0.402192
0.380731
0.361218
0.343551
0.327571
0.313103
0.299969
0.288007
0.277076
0.267052
0.257833
0.249329
0.241427
0.234053
0.227155
0.220686
0.214609
0.20889
0.203503
0.198425
0.193636
0.189123
0.184871
0.180872
0.177117
0.173601
0.170321
0.167276
0.164469
0.161903
0.15959
0.157542
0.155804
0.154413
0.153332
0.15268
0.152559
0.159777
0.17035
0.182817
0.197486
0.214761
0.235169
0.259386
0.288283
0.322961
0.364799
0.415623
0.477576
0.552393
0.64065
0.740398
0.845583
0.946022
1.03074
1.09325
1.13398
1.15793
1.17097
1.17763
1.1809
1.18247
1.18321
1.18355
1.1837
1.18377
1.1838
1.18381
1.18382
1.18382
1.18382
1.18382
1.18382
1.18382
1.18382
1.18382
0.658526
0.658502
0.65846
0.65839
0.658273
0.658079
0.657762
0.657245
0.656415
0.655101
0.653056
0.649938
0.645294
0.638574
0.629172
0.616525
0.600256
0.58033
0.557149
0.531529
0.50454
0.477292
0.450734
0.425551
0.402148
0.380693
0.361186
0.343524
0.327549
0.313084
0.299953
0.287995
0.277067
0.267045
0.257828
0.249326
0.241425
0.234052
0.227155
0.220687
0.214611
0.208893
0.203506
0.198428
0.19364
0.189126
0.184873
0.180873
0.177116
0.173598
0.170316
0.167268
0.164457
0.161888
0.159571
0.15752
0.155779
0.154387
0.15331
0.152665
0.152559
0.159617
0.170141
0.182561
0.197181
0.214403
0.234748
0.258891
0.287697
0.322263
0.363962
0.414612
0.476354
0.550939
0.638974
0.738572
0.843756
0.944391
1.02946
1.09237
1.13344
1.15763
1.17081
1.17755
1.18087
1.18246
1.1832
1.18354
1.1837
1.18377
1.1838
1.18381
1.18382
1.18382
1.18382
1.18382
1.18382
1.18382
1.18382
1.18382
0.658526
0.658502
0.65846
0.65839
0.658273
0.658079
0.65776
0.657243
0.656412
0.655096
0.653048
0.649924
0.645274
0.638546
0.629133
0.616473
0.600191
0.580252
0.557062
0.531436
0.504446
0.4772
0.450648
0.425473
0.402079
0.380633
0.361135
0.343481
0.327513
0.313055
0.29993
0.287977
0.277053
0.267035
0.257821
0.249322
0.241424
0.234054
0.227159
0.220693
0.214619
0.208902
0.203517
0.198439
0.193652
0.189137
0.184885
0.180883
0.177125
0.173605
0.17032
0.167269
0.164454
0.161881
0.15956
0.157506
0.155762
0.154369
0.153293
0.152655
0.152562
0.159376
0.169837
0.182194
0.196744
0.213887
0.23414
0.258171
0.28684
0.321237
0.362726
0.413111
0.474533
0.548762
0.636455
0.735814
0.840981
0.941899
1.0275
1.09102
1.13261
1.15717
1.17057
1.17743
1.18081
1.18243
1.18319
1.18354
1.1837
1.18377
1.1838
1.18381
1.18382
1.18382
1.18382
1.18382
1.18382
1.18382
1.18382
1.18382
0.658526
0.658501
0.65846
0.658389
0.658272
0.658078
0.657759
0.65724
0.656407
0.655088
0.653036
0.649906
0.645247
0.638507
0.629079
0.616402
0.600101
0.580145
0.556941
0.531306
0.504315
0.477073
0.450529
0.425365
0.401983
0.38055
0.361064
0.343421
0.327463
0.313014
0.299898
0.287952
0.277034
0.267022
0.257813
0.249319
0.241425
0.234059
0.227167
0.220705
0.214633
0.208919
0.203535
0.198459
0.193673
0.189159
0.184906
0.180904
0.177146
0.173624
0.170337
0.167283
0.164465
0.161888
0.159563
0.157504
0.155757
0.154362
0.153286
0.152652
0.152569
0.159051
0.169437
0.181713
0.196174
0.213213
0.233342
0.257224
0.285709
0.319877
0.361084
0.411114
0.472104
0.545853
0.63308
0.732107
0.837237
0.938523
1.02484
1.08919
1.13149
1.15654
1.17024
1.17727
1.18073
1.18239
1.18317
1.18353
1.18369
1.18377
1.1838
1.18381
1.18382
1.18382
1.18382
1.18382
1.18382
1.18382
1.18382
1.18382
0.658526
0.658501
0.658459
0.658389
0.658271
0.658076
0.657757
0.657236
0.656401
0.655079
0.653021
0.649883
0.645213
0.638457
0.629009
0.616309
0.599984
0.580005
0.556783
0.531137
0.504142
0.476905
0.450371
0.425222
0.401856
0.380438
0.360968
0.34334
0.327396
0.312959
0.299854
0.287918
0.277009
0.267004
0.257803
0.249315
0.241427
0.234066
0.227179
0.220721
0.214653
0.208943
0.203563
0.198489
0.193705
0.189193
0.184941
0.180939
0.177179
0.173657
0.170368
0.167312
0.16449
0.16191
0.15958
0.157518
0.155766
0.154367
0.153291
0.15266
0.152582
0.158638
0.168935
0.181114
0.195465
0.212375
0.232349
0.256041
0.284294
0.318175
0.359025
0.408606
0.469052
0.542192
0.628824
0.727419
0.832485
0.934222
1.02143
1.08683
1.13004
1.15573
1.16982
1.17706
1.18063
1.18235
1.18315
1.18352
1.18369
1.18376
1.1838
1.18381
1.18382
1.18382
1.18382
1.18382
1.18382
1.18382
1.18382
1.18382
0.658526
0.658501
0.658459
0.658388
0.65827
0.658075
0.657754
0.657232
0.656393
0.655067
0.653002
0.649854
0.645169
0.638394
0.628922
0.616193
0.599836
0.579828
0.556582
0.530922
0.503923
0.47669
0.450169
0.425037
0.401691
0.380294
0.360844
0.343234
0.327307
0.312886
0.299794
0.287871
0.276973
0.266979
0.257787
0.249308
0.241427
0.234074
0.227194
0.220742
0.21468
0.208974
0.203598
0.198529
0.193747
0.189238
0.184988
0.180987
0.177228
0.173704
0.170414
0.167356
0.164532
0.161949
0.159615
0.157548
0.155791
0.154389
0.15331
0.15268
0.152606
0.158131
0.168325
0.18039
0.194609
0.211363
0.231149
0.254612
0.282582
0.316114
0.356532
0.405568
0.465352
0.537751
0.623655
0.721711
0.826677
0.928939
1.01723
1.08391
1.12824
1.15472
1.16929
1.1768
1.18051
1.18229
1.18313
1.18351
1.18368
1.18376
1.1838
1.18381
1.18382
1.18382
1.18382
1.18382
1.18382
1.18382
1.18382
1.18382
0.658526
0.658501
0.658459
0.658388
0.658269
0.658073
0.65775
0.657226
0.656384
0.655052
0.652979
0.649818
0.645116
0.638316
0.628814
0.616049
0.599654
0.579609
0.556334
0.530654
0.503649
0.476422
0.449915
0.424804
0.401482
0.38011
0.360684
0.343097
0.327192
0.312789
0.299715
0.287807
0.276924
0.266943
0.257763
0.249294
0.241424
0.23408
0.227208
0.220764
0.214709
0.209011
0.203641
0.198577
0.1938
0.189294
0.185047
0.181048
0.17729
0.173767
0.170476
0.167416
0.16459
0.162003
0.159666
0.157595
0.155832
0.154426
0.153344
0.152714
0.152644
0.157518
0.167595
0.179528
0.193594
0.210165
0.22973
0.252922
0.280557
0.313676
0.353583
0.401977
0.460978
0.532499
0.617531
0.71493
0.819745
0.922596
1.01215
1.08036
1.12604
1.15348
1.16864
1.17647
1.18035
1.18222
1.18309
1.1835
1.18368
1.18376
1.18379
1.18381
1.18382
1.18382
1.18382
1.18382
1.18382
1.18382
1.18382
1.18382
0.658526
0.658501
0.658458
0.658387
0.658268
0.658071
0.657747
0.65722
0.656374
0.655034
0.652951
0.649776
0.645051
0.638223
0.628684
0.615875
0.599433
0.579343
0.55603
0.530326
0.503311
0.476089
0.4496
0.424513
0.401219
0.379877
0.36048
0.342922
0.327041
0.312662
0.29961
0.287721
0.276856
0.266891
0.257726
0.249271
0.241413
0.23408
0.22722
0.220786
0.21474
0.20905
0.203688
0.198631
0.19386
0.18936
0.185118
0.181122
0.177367
0.173845
0.170555
0.167494
0.164666
0.162076
0.159735
0.15766
0.155892
0.154481
0.153395
0.152763
0.152695
0.156795
0.166742
0.178525
0.192415
0.208774
0.228082
0.25096
0.278207
0.310846
0.35016
0.39781
0.455902
0.526401
0.61041
0.707017
0.811612
0.915098
1.00609
1.07609
1.12338
1.15198
1.16785
1.17608
1.18017
1.18213
1.18305
1.18348
1.18367
1.18376
1.18379
1.18381
1.18382
1.18382
1.18382
1.18382
1.18382
1.18382
1.18382
1.18382
0.658526
0.658501
0.658458
0.658386
0.658266
0.658068
0.657742
0.657212
0.656361
0.655014
0.652919
0.649725
0.644976
0.638112
0.628529
0.615667
0.599168
0.579023
0.555663
0.529929
0.502901
0.475683
0.449212
0.424153
0.400892
0.379586
0.360224
0.342698
0.326848
0.312498
0.299471
0.287606
0.276762
0.266817
0.25767
0.249232
0.241389
0.234071
0.227223
0.220802
0.214768
0.209089
0.203737
0.198689
0.193927
0.189434
0.185198
0.181208
0.177456
0.173937
0.170648
0.167588
0.164758
0.162166
0.159821
0.157741
0.155968
0.154553
0.153464
0.15283
0.152763
0.155959
0.165764
0.177379
0.191068
0.207184
0.226197
0.248713
0.275517
0.307608
0.346247
0.393051
0.450106
0.519431
0.602253
0.697917
0.8022
0.906347
0.998954
1.07103
1.12021
1.15018
1.16691
1.17561
1.17994
1.18202
1.183
1.18346
1.18366
1.18375
1.18379
1.18381
1.18382
1.18382
1.18382
1.18382
1.18382
1.18382
1.18382
1.18382
0.658526
0.658501
0.658457
0.658385
0.658265
0.658065
0.657737
0.657203
0.656346
0.65499
0.652881
0.649667
0.644887
0.637983
0.628347
0.615422
0.598854
0.578642
0.555226
0.529452
0.502406
0.475191
0.448739
0.423712
0.400489
0.379223
0.359902
0.342415
0.326602
0.312285
0.299288
0.287452
0.276634
0.266713
0.257588
0.24917
0.241346
0.234045
0.227214
0.220808
0.214789
0.209123
0.203784
0.198748
0.193996
0.189513
0.185285
0.181302
0.177556
0.174041
0.170755
0.167696
0.164866
0.162272
0.159924
0.15784
0.156061
0.15464
0.153549
0.152915
0.152854
0.155037
0.164685
0.176111
0.189571
0.20541
0.224086
0.24619
0.272488
0.303956
0.34183
0.387684
0.443574
0.51157
0.59303
0.687582
0.791434
0.896246
0.99063
1.06505
1.11643
1.14803
1.16577
1.17505
1.17967
1.1819
1.18295
1.18343
1.18365
1.18375
1.18379
1.18381
1.18382
1.18382
1.18382
1.18382
1.18382
1.18382
1.18382
1.18382
0.658526
0.6585
0.658457
0.658384
0.658263
0.658061
0.657731
0.657193
0.65633
0.654964
0.652838
0.6496
0.644786
0.637834
0.628136
0.615136
0.598487
0.578194
0.554708
0.528885
0.501815
0.4746
0.448169
0.423175
0.399996
0.378776
0.359502
0.342061
0.32629
0.312012
0.299052
0.287249
0.276462
0.266569
0.257471
0.249077
0.241276
0.233997
0.227186
0.220799
0.214797
0.209148
0.203824
0.198803
0.194064
0.189593
0.185375
0.181402
0.177663
0.174155
0.170872
0.167814
0.164984
0.162387
0.160034
0.157942
0.156151
0.15472
0.153622
0.152993
0.152962
0.15411
0.163564
0.174763
0.187954
0.203474
0.221766
0.243404
0.269133
0.299905
0.336925
0.381719
0.436308
0.50281
0.582725
0.675975
0.779252
0.884694
0.980993
1.05806
1.11198
1.14548
1.16442
1.17438
1.17935
1.18175
1.18288
1.1834
1.18364
1.18374
1.18379
1.18381
1.18382
1.18382
1.18382
1.18382
1.18382
1.18382
1.18382
1.18382
0.658526
0.6585
0.658456
0.658383
0.658261
0.658058
0.657724
0.657182
0.656312
0.654934
0.652791
0.649525
0.644672
0.637665
0.627895
0.614809
0.598063
0.577673
0.554103
0.528218
0.501115
0.473896
0.447484
0.422527
0.399395
0.378229
0.359008
0.341619
0.325898
0.311666
0.298749
0.286985
0.276234
0.266375
0.257309
0.248944
0.24117
0.233916
0.22713
0.220766
0.214785
0.209156
0.203852
0.198848
0.194126
0.18967
0.185466
0.181504
0.177775
0.174274
0.170996
0.167941
0.165109
0.162506
0.160142
0.158033
0.15621
0.154743
0.153591
0.15288
0.15272
0.153298
0.162486
0.173396
0.186263
0.201408
0.219258
0.240368
0.265458
0.295451
0.33152
0.375145
0.428299
0.493144
0.571324
0.663072
0.765599
0.871601
0.969932
1.04994
1.10675
1.14247
1.16283
1.17359
1.17897
1.18157
1.1828
1.18336
1.18362
1.18373
1.18378
1.18381
1.18381
1.18382
1.18382
1.18382
1.18382
1.18382
1.18382
1.18382
0.658526
0.6585
0.658456
0.658382
0.658258
0.658054
0.657718
0.657171
0.656293
0.654902
0.652739
0.649443
0.644545
0.637477
0.627625
0.614438
0.597578
0.577074
0.553403
0.527441
0.500293
0.473063
0.446669
0.421751
0.398671
0.377563
0.358403
0.341074
0.32541
0.311231
0.298364
0.286646
0.275938
0.266119
0.25709
0.24876
0.241018
0.233795
0.227037
0.2207
0.214746
0.209141
0.203859
0.198877
0.194176
0.189738
0.185551
0.181603
0.177887
0.174396
0.171126
0.168074
0.165242
0.162634
0.16026
0.158131
0.156268
0.15475
0.153522
0.152688
0.152334
0.152594
0.161472
0.172036
0.18452
0.199233
0.216582
0.237102
0.261485
0.290622
0.325652
0.368007
0.419597