/*--------------------------------*- C++ -*----------------------------------*\
  =========                 |
  \\      /  F ield         | OpenFOAM: The Open Source CFD Toolbox
   \\    /   O peration     | Website:  https://openfoam.org
    \\  /    A nd           | Version:  8
     \\/     M anipulation  |
\*---------------------------------------------------------------------------*/
FoamFile
{
    version     2.0;
    format      ascii;
    class       volScalarField;
    location    "900/fluid";
    object      T;
}
// * * * * * * * * * * * * * * * * * * * * * * * * * * * * * * * * * * * * * //

dimensions      [0 0 0 1 0 0 0];

internalField   nonuniform List<scalar> 
4000
(
293.004
293.017
293.039
293.076
293.138
293.241
293.41
293.687
294.135
294.852
295.981
297.731
300.392
304.345
310.06
318.077
328.948
343.162
361.06
382.778
408.233
437.163
469.196
503.923
540.954
579.956
620.659
662.855
706.388
751.134
796.995
843.879
891.691
940.327
989.663
1039.63
1090.27
1141.47
1193.13
1245.17
1297.46
1349.91
1402.39
1454.78
1506.98
1558.85
1610.26
1661.08
1711.14
1760.31
1808.4
1855.22
1900.56
1944.15
1985.69
2024.8
2061
2093.24
2120.9
2144.05
2160.56
2168.6
2157.28
2047.38
1930.44
1808.58
1683.58
1556.91
1429.88
1303.64
1179.3
1057.96
940.752
828.585
722.704
625.13
538.189
464.178
404.911
361.024
331.388
313.223
303.042
297.779
295.209
293.998
293.442
293.193
293.083
293.035
293.015
293.006
293.003
293.001
293
293
293
293
293
293
293.004
293.017
293.039
293.076
293.139
293.242
293.412
293.69
294.14
294.857
295.986
297.73
300.373
304.286
309.927
317.82
328.506
342.468
360.056
381.424
406.517
435.099
466.819
501.282
538.105
576.954
617.554
659.693
703.208
747.971
793.879
840.838
888.751
937.51
986.992
1037.12
1087.92
1139.31
1191.17
1243.42
1295.93
1348.59
1401.3
1453.93
1506.35
1558.45
1610.09
1661.12
1711.41
1760.78
1809.07
1856.09
1901.6
1945.36
1987.05
2026.3
2062.62
2094.94
2122.66
2145.86
2162.38
2170.32
2148.55
2037.56
1919.62
1796.85
1670.97
1543.48
1415.67
1288.72
1163.76
1041.95
924.447
812.205
706.662
610.012
524.67
452.917
396.36
355.23
327.933
311.411
302.2
297.416
295.061
293.941
293.421
293.185
293.08
293.034
293.015
293.006
293.003
293.001
293
293
293
293
293
293
293.004
293.017
293.039
293.077
293.139
293.243
293.413
293.692
294.143
294.861
295.989
297.728
300.357
304.24
309.825
317.625
328.17
341.936
359.272
380.339
405.098
433.333
464.711
498.854
535.391
573.993
614.39
656.369
699.765
744.451
790.322
837.283
885.237
934.076
983.675
1033.95
1084.92
1136.5
1188.6
1241.09
1293.88
1346.84
1399.86
1452.81
1505.56
1558
1609.98
1661.36
1711.97
1761.67
1810.28
1857.6
1903.4
1947.42
1989.36
2028.81
2065.31
2097.73
2125.51
2148.71
2165.09
2172.83
2132.89
2020.86
1901.83
1777.99
1651.13
1522.76
1394.24
1266.78
1141.57
1019.83
902.762
791.362
687.268
592.766
510.21
441.669
388.379
350.131
325.007
309.888
301.47
297.083
294.916
293.879
293.395
293.175
293.076
293.033
293.014
293.006
293.002
293.001
293
293
293
293
293
293
293.004
293.017
293.039
293.077
293.139
293.242
293.412
293.69
294.138
294.851
295.969
297.691
300.291
304.126
309.639
317.334
327.734
341.314
358.424
379.235
403.719
431.673
462.778
496.663
532.964
571.356
611.57
653.396
696.669
741.264
787.077
834.014
881.979
930.868
980.555
1030.94
1082.07
1133.84
1186.15
1238.89
1291.96
1345.22
1398.56
1451.86
1504.98
1557.79
1610.15
1661.9
1712.9
1762.97
1811.93
1859.59
1905.71
1950.03
1992.22
2031.89
2068.56
2101
2128.73
2151.83
2168.06
2175.44
2113.38
2000.51
1880.53
1755.76
1628.05
1499.02
1370.04
1242.41
1117.36
996.15
879.974
769.884
667.666
575.619
495.994
430.652
380.515
345.018
321.988
308.257
300.652
296.696
294.739
293.8
293.361
293.16
293.07
293.03
293.013
293.005
293.002
293.001
293
293
293
293
293
293
293.004
293.017
293.039
293.076
293.138
293.241
293.41
293.686
294.131
294.839
295.947
297.653
300.226
304.02
309.47
317.074
327.352
340.773
357.693
378.287
402.539
430.256
461.13
494.799
530.901
569.116
609.176
650.871
694.039
738.555
784.315
831.229
879.203
928.133
977.897
1028.39
1079.65
1131.59
1184.1
1237.08
1290.41
1343.96
1397.62
1451.26
1504.74
1557.91
1610.64
1662.77
1714.14
1764.58
1813.89
1861.88
1908.3
1952.88
1995.29
2035.13
2071.87
2104.17
2131.83
2154.79
2170.63
2177.18
2092.92
1979.39
1858.57
1732.94
1604.51
1474.94
1345.71
1218.12
1093.47
973.036
857.955
749.366
649.186
559.673
482.965
420.713
373.535
340.548
319.378
306.855
299.949
296.361
294.585
293.731
293.331
293.147
293.065
293.028
293.012
293.005
293.002
293.001
293
293
293
293
293
293
293.004
293.017
293.039
293.076
293.137
293.239
293.407
293.681
294.122
294.822
295.92
297.608
300.153
303.904
309.293
316.813
326.979
340.263
357.02
377.435
401.498
429.026
459.717
493.215
529.162
567.24
607.182
648.778
691.867
736.325
782.05
828.953
876.943
925.917
975.756
1026.35
1077.74
1129.83
1182.54
1235.73
1289.31
1343.13
1397.09
1451.04
1504.84
1558.36
1611.44
1663.91
1715.63
1766.4
1816.02
1864.29
1910.95
1955.72
1998.26
2038.15
2074.89
2107.07
2134.63
2157.34
2172.82
2178.77
2075.2
1960.49
1838.39
1711.63
1582.33
1452.21
1322.75
1195.3
1071.13
951.547
837.6
730.535
632.351
545.251
471.26
411.83
367.314
336.559
317.033
305.579
299.299
296.046
294.437
293.664
293.301
293.134
293.059
293.026
293.011
293.005
293.002
293.001
293
293
293
293
293
293
293.004
293.017
293.039
293.075
293.136
293.237
293.404
293.675
294.112
294.806
295.893
297.564
300.083
303.797
309.131
316.577
326.646
339.811
356.431
376.695
400.601
427.974
458.518
491.881
527.708
565.682
605.536
647.061
690.096
734.518
780.226
827.133
875.149
924.174
974.09
1024.78
1076.29
1128.54
1181.42
1234.82
1288.61
1342.69
1396.92
1451.15
1505.25
1559.07
1612.46
1665.25
1717.27
1768.32
1818.2
1866.69
1913.52
1958.39
2000.94
2040.75
2077.29
2108.86
2136.63
2158.55
2173.18
2178.29
2066.58
1946.92
1821.68
1692.91
1562.35
1431.53
1301.82
1174.5
1050.83
932.073
819.221
713.61
617.294
532.426
460.92
404.045
361.909
333.121
315.025
304.491
298.744
295.777
294.311
293.606
293.275
293.123
293.054
293.023
293.01
293.004
293.002
293.001
293
293
293
293
293
293
293.004
293.017
293.038
293.075
293.135
293.235
293.401
293.669
294.102
294.79
295.867
297.522
300.018
303.697
308.982
316.362
326.348
339.411
355.915
376.054
399.832
427.08
457.508
490.766
526.502
564.398
604.19
645.667
688.669
733.073
778.78
825.704
873.755
922.837
972.83
1023.62
1075.25
1127.64
1180.68
1234.27
1288.27
1342.57
1397.03
1451.52
1505.88
1559.98
1613.64
1666.7
1718.97
1770.26
1820.36
1869.02
1915.98
1960.91
2003.44
2043.09
2079.12
2110.03
2136.77
2156.96
2168.79
2169.36
2054.68
1932.58
1805.49
1675.4
1543.97
1412.68
1282.84
1155.72
1032.56
914.594
802.772
698.539
603.957
521.134
451.872
397.277
357.236
330.161
313.299
303.553
298.264
295.543
294.2
293.555
293.252
293.113
293.05
293.022
293.009
293.004
293.002
293.001
293
293
293
293
293
293
293.004
293.017
293.038
293.074
293.134
293.234
293.397
293.664
294.093
294.775
295.843
297.484
299.959
303.607
308.85
316.173
326.087
339.065
355.471
375.507
399.18
426.327
456.663
489.84
525.507
563.348
603.096
644.543
687.528
731.929
777.647
824.596
872.69
921.831
971.903
1022.79
1074.53
1127.05
1180.24
1234
1288.19
1342.68
1397.36
1452.07
1506.66
1560.99
1614.89
1668.18
1720.67
1772.16
1822.43
1871.24
1918.29
1963.25
2005.73
2045.22
2080.84
2111.29
2137.28
2156.3
2166.29
2158.85
2042
1918.28
1790
1659.08
1527.14
1395.62
1265.82
1138.99
1016.36
899.139
788.263
685.272
592.259
511.267
444.01
391.434
353.231
327.64
311.835
302.76
297.857
295.345
294.106
293.511
293.232
293.104
293.046
293.02
293.009
293.004
293.002
293.001
293
293
293
293
293
293
293.004
293.016
293.038
293.073
293.133
293.232
293.394
293.659
294.085
294.762
295.821
297.45
299.906
303.528
308.734
316.009
325.862
338.767
355.093
375.042
398.63
425.697
455.961
489.076
524.692
562.494
602.214
643.645
686.625
731.031
776.768
823.749
871.889
921.091
971.239
1022.22
1074.06
1126.7
1180.03
1233.94
1288.29
1342.96
1397.82
1452.72
1507.52
1562.05
1616.15
1669.63
1722.31
1773.97
1824.39
1873.32
1920.46
1965.48
2007.97
2047.42
2082.91
2113.23
2139.16
2158.25
2168.66
2146.76
2028.87
1904.3
1775.36
1643.99
1511.8
1380.22
1250.57
1124.08
1002
885.493
775.516
673.676
582.068
502.706
437.221
386.418
349.814
325.501
310.596
302.09
297.514
295.177
294.026
293.475
293.216
293.096
293.042
293.018
293.008
293.003
293.001
293.001
293
293
293
293
293
293
293.004
293.016
293.038
293.073
293.132
293.23
293.392
293.655
294.078
294.75
295.802
297.42
299.86
303.459
308.634
315.868
325.67
338.514
354.773
374.653
398.172
425.175
455.382
488.45
524.029
561.804
601.508
642.931
685.914
730.334
776.094
823.11
871.297
920.557
970.777
1021.84
1073.78
1126.53
1179.98
1234.01
1288.51
1343.34
1398.36
1453.43
1508.4
1563.1
1617.37
1671.01
1723.84
1775.64
1826.19
1875.22
1922.44
1967.51
2010.03
2049.49
2084.92
2115.21
2141.12
2160.21
2170.67
2134.79
2016.34
1891.32
1762.05
1630.46
1498.19
1366.66
1237.2
1111.06
989.486
873.617
764.429
663.604
573.246
495.327
431.398
382.138
346.915
323.695
309.555
301.528
297.227
295.036
293.959
293.443
293.201
293.09
293.04
293.017
293.007
293.003
293.001
293.001
293
293
293
293
293
293
293.004
293.016
293.037
293.073
293.132
293.229
293.39
293.651
294.072
294.74
295.786
297.395
299.821
303.4
308.549
315.748
325.507
338.302
354.506
374.328
397.792
424.745
454.908
487.941
523.494
561.251
600.946
642.369
685.36
729.796
775.583
822.634
870.865
920.182
970.468
1021.61
1073.63
1126.48
1180.04
1234.19
1288.8
1343.76
1398.92
1454.13
1509.24
1564.09
1618.49
1672.27
1725.23
1777.14
1827.78
1876.89
1924.17
1969.28
2011.8
2051.23
2086.63
2116.88
2142.75
2161.81
2172.29
2124.04
2005.1
1879.71
1750.19
1618.47
1486.17
1354.75
1225.52
1099.73
978.635
863.334
754.845
654.92
565.662
489.006
426.432
378.508
344.469
322.178
308.684
301.059
296.986
294.918
293.903
293.417
293.19
293.085
293.037
293.016
293.007
293.003
293.001
293.001
293
293
293
293
293
293
293.004
293.016
293.037
293.072
293.131
293.228
293.388
293.648
294.066
294.731
295.772
297.373
299.788
303.351
308.477
315.648
325.372
338.126
354.285
374.061
397.481
424.394
454.523
487.53
523.064
560.81
600.502
641.929
684.931
729.386
775.198
822.283
870.556
919.923
970.268
1021.48
1073.58
1126.51
1180.15
1234.4
1289.13
1344.2
1399.47
1454.8
1510.03
1564.99
1619.5
1673.39
1726.44
1778.44
1829.15
1878.31
1925.62
1970.73
2013.25
2052.68
2088.03
2118.22
2144.04
2163.08
2173.57
2114.83
1995.4
1869.68
1739.95
1608.14
1475.86
1344.55
1215.52
1090.03
969.342
854.53
746.646
647.506
559.202
483.638
422.232
375.452
342.419
320.912
307.959
300.669
296.787
294.821
293.857
293.396
293.18
293.08
293.035
293.015
293.007
293.003
293.001
293
293
293
293
293
293
293
293.004
293.016
293.037
293.072
293.13
293.227
293.386
293.645
294.062
294.724
295.76
297.355
299.76
303.31
308.418
315.566
325.261
337.981
354.104
373.844
397.229
424.11
454.214
487.202
522.723
560.463
600.154
641.587
684.601
729.074
774.911
822.027
870.338
919.749
970.146
1021.41
1073.58
1126.58
1180.3
1234.63
1289.45
1344.61
1399.97
1455.4
1510.72
1565.77
1620.38
1674.34
1727.46
1779.52
1830.28
1879.47
1926.79
1971.9
2014.42
2053.81
2089.1
2119.24
2145.02
2164.04
2174.56
2107.08
1987.17
1861.14
1731.24
1599.36
1467.09
1335.88
1207.02
1081.8
961.474
847.084
739.722
641.253
553.764
479.131
418.716
372.904
340.718
319.866
307.362
300.348
296.624
294.741
293.819
293.378
293.172
293.077
293.034
293.015
293.006
293.003
293.001
293
293
293
293
293
293
293
293.004
293.016
293.037
293.072
293.13
293.226
293.385
293.643
294.058
294.718
295.751
297.34
299.738
303.277
308.37
315.499
325.171
337.865
353.958
373.67
397.027
423.885
453.969
486.942
522.456
560.192
599.885
641.325
684.35
728.84
774.698
821.841
870.185
919.634
970.074
1021.39
1073.61
1126.67
1180.46
1234.85
1289.74
1344.97
1400.41
1455.91
1511.3
1566.43
1621.09
1675.12
1728.28
1780.38
1831.16
1880.36
1927.69
1972.8
2015.28
2054.64
2089.86
2119.96
2145.71
2164.75
2175.29
2100.73
1980.35
1854.02
1723.96
1592
1459.75
1328.63
1199.93
1074.94
954.919
840.885
733.965
636.06
549.255
475.402
415.816
370.809
339.324
319.011
306.875
300.087
296.49
294.676
293.788
293.364
293.165
293.074
293.033
293.014
293.006
293.003
293.001
293
293
293
293
293
293
293
293.004
293.016
293.037
293.071
293.129
293.226
293.384
293.641
294.055
294.713
295.743
297.328
299.72
303.25
308.332
315.445
325.099
337.772
353.844
373.532
396.869
423.708
453.779
486.741
522.249
559.984
599.68
641.126
684.162
728.666
774.543
821.708
870.078
919.558
970.032
1021.38
1073.65
1126.75
1180.59
1235.04
1289.98
1345.27
1400.76
1456.32
1511.77
1566.94
1621.65
1675.71
1728.9
1781.02
1831.82
1881.03
1928.35
1973.43
2015.87
2055.18
2090.34
2120.39
2146.12
2165.19
2175.78
2095.58
1974.76
1848.17
1717.97
1585.96
1453.73
1322.68
1194.13
1069.34
949.573
835.835
729.281
631.841
545.597
472.382
413.472
369.12
338.203
318.326
306.485
299.879
296.384
294.624
293.763
293.352
293.16
293.071
293.031
293.014
293.006
293.003
293.001
293
293
293
293
293
293
293
293.004
293.016
293.037
293.071
293.129
293.225
293.383
293.639
294.053
294.709
295.737
297.319
299.706
303.23
308.303
315.405
325.045
337.702
353.756
373.428
396.749
423.575
453.635
486.59
522.094
559.828
599.527
640.979
684.023
728.539
774.43
821.613
870.003
919.507
970.007
1021.39
1073.68
1126.82
1180.7
1235.18
1290.16
1345.49
1401.03
1456.62
1512.1
1567.3
1622.04
1676.13
1729.34
1781.47
1832.26
1881.45
1928.74
1973.79
2016.18
2055.44
2090.55
2120.56
2146.3
2165.42
2176.13
2091.54
1970.33
1843.51
1713.18
1581.13
1448.93
1317.96
1189.54
1064.91
945.354
831.857
725.598
628.53
542.732
470.022
411.645
367.805
337.331
317.793
306.182
299.717
296.301
294.583
293.744
293.343
293.156
293.07
293.031
293.013
293.006
293.002
293.001
293
293
293
293
293
293
293
293.004
293.016
293.037
293.071
293.129
293.225
293.382
293.638
294.051
294.707
295.733
297.312
299.696
303.215
308.281
315.375
325.005
337.651
353.693
373.352
396.662
423.479
453.531
486.482
521.983
559.717
599.418
640.875
683.926
728.45
774.352
821.547
869.952
919.471
969.988
1021.39
1073.7
1126.87
1180.76
1235.28
1290.28
1345.63
1401.2
1456.81
1512.32
1567.55
1622.3
1676.39
1729.61
1781.73
1832.5
1881.67
1928.92
1973.92
2016.26
2055.47
2090.53
2120.52
2146.27
2165.47
2176.34
2088.56
1966.98
1839.95
1709.52
1577.45
1445.28
1314.39
1186.07
1061.59
942.199
828.891
722.86
626.074
540.612
468.281
410.301
366.841
336.693
317.403
305.96
299.597
296.241
294.553
293.73
293.336
293.153
293.068
293.03
293.013
293.006
293.002
293.001
293
293
293
293
293
293
293
293.004
293.016
293.037
293.071
293.129
293.224
293.382
293.638
294.05
294.705
295.73
297.308
299.689
303.205
308.267
315.356
324.979
337.618
353.652
373.304
396.606
423.417
453.465
486.412
521.912
559.646
599.349
640.808
683.864
728.393
774.301
821.504
869.918
919.447
969.975
1021.39
1073.71
1126.89
1180.8
1235.33
1290.35
1345.72
1401.29
1456.92
1512.44
1567.67
1622.43
1676.51
1729.72
1781.82
1832.57
1881.7
1928.92
1973.87
2016.16
2055.32
2090.34
2120.31
2146.09
2165.39
2176.47
2086.59
1964.68
1837.48
1706.98
1574.91
1442.78
1311.95
1183.72
1059.34
940.078
826.907
721.035
624.445
539.212
467.136
409.421
366.213
336.279
317.15
305.815
299.52
296.201
294.534
293.72
293.332
293.151
293.067
293.03
293.013
293.006
293.002
293.001
293
293
293
293
293
293
293
293.004
293.016
293.037
293.071
293.129
293.224
293.382
293.637
294.049
294.704
295.729
297.306
299.686
303.2
308.261
315.347
324.967
337.602
353.633
373.281
396.58
423.387
453.433
486.379
521.878
559.613
599.316
640.776
683.834
728.366
774.277
821.484
869.901
919.434
969.967
1021.38
1073.71
1126.89
1180.81
1235.35
1290.37
1345.74
1401.33
1456.96
1512.48
1567.7
1622.46
1676.54
1729.73
1781.82
1832.55
1881.65
1928.83
1973.75
2016
2055.11
2090.1
2120.06
2145.85
2165.25
2176.52
2085.62
1963.46
1836.14
1705.6
1573.54
1441.45
1310.68
1182.51
1058.2
939.01
825.917
720.136
623.649
538.534
466.586
409.001
365.917
336.085
317.032
305.748
299.484
296.182
294.525
293.716
293.33
293.15
293.067
293.03
293.013
293.006
293.002
293.001
293
293
293
293
293
293
293
293.004
293.016
293.037
293.071
293.129
293.224
293.382
293.637
294.049
294.704
295.729
297.306
299.686
303.2
308.261
315.347
324.967
337.602
353.633
373.281
396.58
423.387
453.433
486.379
521.878
559.613
599.316
640.776
683.834
728.366
774.277
821.484
869.902
919.435
969.967
1021.38
1073.71
1126.89
1180.81
1235.35
1290.37
1345.75
1401.33
1456.96
1512.48
1567.7
1622.46
1676.54
1729.73
1781.82
1832.55
1881.65
1928.83
1973.75
2016
2055.11
2090.1
2120.06
2145.85
2165.25
2176.52
2085.62
1963.46
1836.14
1705.61
1573.55
1441.45
1310.68
1182.51
1058.2
939.011
825.919
720.138
623.65
538.535
466.587
409.002
365.917
336.086
317.032
305.748
299.484
296.182
294.525
293.716
293.33
293.15
293.067
293.03
293.013
293.006
293.002
293.001
293
293
293
293
293
293
293
293.004
293.016
293.037
293.071
293.129
293.225
293.382
293.638
294.05
294.705
295.73
297.308
299.689
303.205
308.267
315.356
324.979
337.618
353.652
373.304
396.606
423.417
453.465
486.413
521.912
559.647
599.349
640.808
683.864
728.394
774.302
821.505
869.918
919.447
969.975
1021.39
1073.71
1126.89
1180.8
1235.33
1290.35
1345.72
1401.3
1456.92
1512.44
1567.67
1622.43
1676.51
1729.72
1781.82
1832.57
1881.7
1928.92
1973.87
2016.16
2055.32
2090.34
2120.31
2146.09
2165.39
2176.47
2086.6
1964.69
1837.48
1706.98
1574.91
1442.78
1311.95
1183.72
1059.35
940.081
826.91
721.038
624.447
539.214
467.138
409.422
366.214
336.28
317.15
305.815
299.52
296.201
294.534
293.72
293.332
293.151
293.067
293.03
293.013
293.006
293.002
293.001
293
293
293
293
293
293
293
293.004
293.016
293.037
293.071
293.129
293.225
293.382
293.638
294.051
294.707
295.733
297.312
299.696
303.215
308.281
315.375
325.005
337.651
353.693
373.353
396.662
423.479
453.532
486.482
521.984
559.718
599.419
640.875
683.926
728.451
774.352
821.547
869.952
919.471
969.989
1021.39
1073.7
1126.87
1180.76
1235.28
1290.28
1345.64
1401.2
1456.82
1512.32
1567.55
1622.3
1676.39
1729.61
1781.73
1832.5
1881.67
1928.92
1973.92
2016.26
2055.47
2090.53
2120.52
2146.27
2165.48
2176.34
2088.57
1966.99
1839.96
1709.53
1577.46
1445.29
1314.4
1186.08
1061.6
942.205
828.897
722.865
626.078
540.616
468.285
410.303
366.843
336.694
317.403
305.96
299.597
296.241
294.553
293.73
293.337
293.153
293.068
293.03
293.013
293.006
293.002
293.001
293
293
293
293
293
293
293
293.004
293.016
293.037
293.071
293.129
293.225
293.383
293.639
294.053
294.709
295.737
297.319
299.706
303.23
308.303
315.405
325.045
337.702
353.757
373.428
396.749
423.575
453.635
486.591
522.094
559.829
599.527
640.98
684.024
728.54
774.431
821.614
870.004
919.507
970.008
1021.39
1073.68
1126.82
1180.7
1235.19
1290.16
1345.49
1401.03
1456.62
1512.1
1567.3
1622.05
1676.13
1729.34
1781.47
1832.26
1881.46
1928.75
1973.79
2016.18
2055.44
2090.55
2120.57
2146.3
2165.42
2176.13
2091.56
1970.34
1843.52
1713.19
1581.14
1448.94
1317.97
1189.54
1064.92
945.361
831.864
725.604
628.535
542.737
470.026
411.648
367.808
337.333
317.794
306.183
299.717
296.302
294.583
293.744
293.343
293.156
293.07
293.031
293.013
293.006
293.002
293.001
293
293
293
293
293
293
293
293.004
293.016
293.037
293.071
293.129
293.226
293.384
293.641
294.055
294.713
295.743
297.328
299.72
303.25
308.332
315.446
325.099
337.773
353.844
373.533
396.869
423.709
453.779
486.742
522.25
559.985
599.681
641.127
684.163
728.667
774.544
821.709
870.079
919.559
970.034
1021.39
1073.65
1126.75
1180.59
1235.04
1289.98
1345.27
1400.77
1456.32
1511.77
1566.94
1621.65
1675.71
1728.91
1781.02
1831.82
1881.03
1928.35
1973.43
2015.87
2055.18
2090.34
2120.39
2146.13
2165.19
2175.79
2095.59
1974.78
1848.19
1717.98
1585.97
1453.74
1322.7
1194.14
1069.35
949.582
835.844
729.289
631.848
545.603
472.387
413.476
369.123
338.204
318.327
306.486
299.879
296.384
294.624
293.763
293.352
293.16
293.071
293.031
293.014
293.006
293.003
293.001
293
293
293
293
293
293
293
293.004
293.016
293.037
293.072
293.13
293.226
293.385
293.643
294.058
294.718
295.751
297.34
299.738
303.277
308.37
315.499
325.171
337.865
353.959
373.67
397.028
423.885
453.97
486.943
522.457
560.193
599.886
641.326
684.352
728.842
774.7
821.843
870.187
919.636
970.076
1021.39
1073.61
1126.67
1180.46
1234.85
1289.74
1344.97
1400.41
1455.91
1511.31
1566.43
1621.1
1675.12
1728.29
1780.38
1831.16
1880.37
1927.7
1972.81
2015.29
2054.64
2089.87
2119.96
2145.72
2164.75
2175.3
2100.74
1980.36
1854.04
1723.97
1592.02
1459.77
1328.64
1199.95
1074.95
954.929
840.895
733.974
636.068
549.262
475.408
415.82
370.812
339.326
319.012
306.875
300.087
296.491
294.676
293.788
293.364
293.165
293.074
293.033
293.014
293.006
293.003
293.001
293
293
293
293
293
293
293
293.004
293.016
293.037
293.072
293.13
293.227
293.386
293.645
294.062
294.724
295.76
297.355
299.76
303.31
308.419
315.566
325.261
337.982
354.104
373.845
397.229
424.111
454.216
487.203
522.725
560.464
600.156
641.589
684.603
729.076
774.912
822.028
870.34
919.751
970.148
1021.41
1073.58
1126.58
1180.31
1234.64
1289.45
1344.61
1399.97
1455.4
1510.72
1565.77
1620.38
1674.34
1727.47
1779.53
1830.28
1879.47
1926.79
1971.91
2014.42
2053.82
2089.1
2119.24
2145.03
2164.05
2174.57
2107.09
1987.19
1861.15
1731.26
1599.37
1467.11
1335.89
1207.04
1081.81
961.486
847.095
739.732
641.262
553.771
479.137
418.721
372.908
340.72
319.867
307.362
300.348
296.624
294.741
293.819
293.378
293.172
293.077
293.034
293.015
293.006
293.003
293.001
293
293
293
293
293
293
293
293.004
293.016
293.037
293.072
293.131
293.228
293.388
293.648
294.066
294.731
295.772
297.373
299.788
303.351
308.478
315.648
325.372
338.126
354.285
374.062
397.482
424.395
454.525
487.531
523.066
560.812
600.504
641.931
684.933
729.388
775.2
822.285
870.558
919.925
970.27
1021.48
1073.58
1126.51
1180.16
1234.4
1289.13
1344.2
1399.47
1454.8
1510.03
1564.99
1619.51
1673.39
1726.44
1778.44
1829.16
1878.32
1925.63
1970.74
2013.25
2052.69
2088.04
2118.23
2144.05
2163.08
2173.57
2114.84
1995.41
1869.69
1739.97
1608.16
1475.88
1344.56
1215.53
1090.04
969.354
854.542
746.656
647.516
559.21
483.645
422.237
375.456
342.422
320.914
307.96
300.669
296.788
294.821
293.857
293.396
293.18
293.08
293.035
293.015
293.007
293.003
293.001
293
293
293
293
293
293
293
293.004
293.016
293.037
293.073
293.132
293.229
293.39
293.651
294.072
294.74
295.786
297.395
299.821
303.401
308.549
315.748
325.508
338.303
354.506
374.329
397.793
424.746
454.909
487.942
523.496
561.253
600.948
642.371
685.362
729.799
775.585
822.636
870.868
920.185
970.471
1021.61
1073.64
1126.49
1180.04
1234.19
1288.81
1343.77
1398.92
1454.14
1509.25
1564.09
1618.5
1672.28
1725.23
1777.15
1827.79
1876.9
1924.18
1969.28
2011.8
2051.23
2086.63
2116.89
2142.76
2161.82
2172.3
2124.05
2005.12
1879.73
1750.21
1618.48
1486.19
1354.77
1225.53
1099.74
978.648
863.346
754.856
654.93
565.67
489.013
426.438
378.512
344.471
322.179
308.685
301.059
296.987
294.919
293.904
293.417
293.19
293.085
293.037
293.016
293.007
293.003
293.001
293.001
293
293
293
293
293
293
293.004
293.016
293.038
293.073
293.132
293.23
293.392
293.655
294.078
294.75
295.802
297.42
299.861
303.459
308.634
315.868
325.67
338.515
354.774
374.654
398.173
425.176
455.383
488.452
524.031
561.806
601.51
642.934
685.916
730.336
776.097
823.113
871.299
920.56
970.78
1021.84
1073.78
1126.53
1179.98
1234.02
1288.51
1343.34
1398.36
1453.43
1508.4
1563.11
1617.37
1671.02
1723.85
1775.65
1826.2
1875.23
1922.45
1967.52
2010.04
2049.5
2084.93
2115.22
2141.13
2160.22
2170.69
2134.81
2016.36
1891.33
1762.06
1630.47
1498.19
1366.67
1237.21
1111.06
989.491
873.624
764.439
663.614
573.255
495.335
431.404
382.142
346.918
323.696
309.556
301.529
297.227
295.036
293.959
293.443
293.201
293.09
293.04
293.017
293.007
293.003
293.001
293.001
293
293
293
293
293
293
293.004
293.016
293.038
293.073
293.133
293.232
293.394
293.659
294.085
294.762
295.821
297.45
299.906
303.528
308.734
316.009
325.862
338.768
355.094
375.044
398.632
425.699
455.963
489.078
524.695
562.496
602.217
643.647
686.627
731.034
776.771
823.753
871.893
921.095
971.243
1022.22
1074.07
1126.71
1180.04
1233.94
1288.29
1342.96
1397.82
1452.73
1507.53
1562.06
1616.16
1669.64
1722.32
1773.98
1824.4
1873.33
1920.47
1965.49
2007.97
2047.43
2082.92
2113.24
2139.17
2158.26
2168.67
2146.78
2028.89
1904.32
1775.4
1644.03
1511.85
1380.28
1250.63
1124.13
1002.05
885.53
775.54
673.691
582.08
502.716
437.228
386.423
349.817
325.502
310.597
302.091
297.515
295.177
294.026
293.475
293.216
293.096
293.042
293.018
293.008
293.003
293.001
293.001
293
293
293
293
293
293
293.004
293.017
293.038
293.074
293.134
293.234
293.397
293.664
294.093
294.775
295.843
297.484
299.959
303.607
308.85
316.174
326.088
339.066
355.472
375.508
399.181
426.329
456.665
489.842
525.509
563.35
603.099
644.546
687.531
731.932
777.65
824.599
872.693
921.835
971.907
1022.8
1074.53
1127.05
1180.25
1234
1288.19
1342.69
1397.36
1452.07
1506.67
1561
1614.9
1668.18
1720.68
1772.17
1822.44
1871.24
1918.3
1963.26
2005.74
2045.23
2080.86
2111.3
2137.29
2156.31
2166.3
2158.87
2042.02
1918.29
1790.01
1659.08
1527.13
1395.61
1265.8
1138.97
1016.34
899.129
788.264
685.278
592.263
511.271
444.016
391.438
353.234
327.642
311.836
302.761
297.858
295.345
294.106
293.512
293.232
293.104
293.046
293.02
293.009
293.004
293.002
293.001
293
293
293
293
293
293
293.004
293.017
293.038
293.075
293.135
293.235
293.401
293.669
294.102
294.79
295.867
297.522
300.018
303.697
308.982
316.363
326.348
339.412
355.916
376.056
399.834
427.082
457.51
490.768
526.505
564.401
604.193
645.67
688.672
733.076
778.784
825.707
873.759
922.841
972.835
1023.63
1075.25
1127.64
1180.69
1234.27
1288.28
1342.58
1397.04
1451.52
1505.89
1559.98
1613.65
1666.7
1718.98
1770.27
1820.36
1869.03
1915.98
1960.92
2003.44
2043.1
2079.13
2110.04
2136.78
2156.97
2168.8
2169.37
2054.69
1932.59
1805.51
1675.41
1543.99
1412.7
1282.87
1155.76
1032.6
914.64
802.815
698.571
603.981
521.148
451.881
397.282
357.24
330.163
313.3
303.554
298.264
295.543
294.2
293.555
293.252
293.113
293.05
293.022
293.009
293.004
293.002
293.001
293
293
293
293
293
293
293.004
293.017
293.039
293.075
293.136
293.237
293.404
293.675
294.112
294.806
295.893
297.564
300.084
303.797
309.131
316.577
326.647
339.812
356.432
376.697
400.603
427.976
458.52
491.883
527.711
565.685
605.539
647.064
690.1
734.522
780.23
827.137
875.154
924.179
974.094
1024.79
1076.3
1128.55
1181.42
1234.82
1288.62
1342.7
1396.92
1451.16
1505.26
1559.08
1612.47
1665.26
1717.27
1768.32
1818.21
1866.69
1913.52
1958.4
2000.95
2040.76
2077.3
2108.87
2136.64
2158.56
2173.19
2178.3
2066.59
1946.93
1821.7
1692.93
1562.37
1431.54
1301.83
1174.5
1050.83
932.07
819.215
713.611
617.3
532.433
460.927
404.051
361.912
333.123
315.026
304.492
298.744
295.777
294.311
293.606
293.275
293.123
293.054
293.023
293.01
293.004
293.002
293.001
293
293
293
293
293
293
293.004
293.017
293.039
293.076
293.137
293.239
293.407
293.681
294.122
294.823
295.92
297.608
300.153
303.905
309.293
316.813
326.98
340.264
357.021
377.437
401.5
429.028
459.719
493.218
529.165
567.243
607.186
648.782
691.871
736.329
782.055
828.958
876.947
925.922
975.761
1026.36
1077.74
1129.84
1182.54
1235.74
1289.31
1343.14
1397.09
1451.05
1504.85
1558.37
1611.44
1663.92
1715.63
1766.4
1816.03
1864.29
1910.95
1955.73
1998.27
2038.16
2074.9
2107.08
2134.64
2157.34
2172.83
2178.77
2075.21
1960.5
1838.4
1711.64
1582.34
1452.22
1322.76
1195.31
1071.14
951.555
837.609
730.546
632.36
545.259
471.266
411.835
367.318
336.561
317.035
305.58
299.299
296.046
294.438
293.664
293.301
293.134
293.059
293.026
293.011
293.005
293.002
293.001
293
293
293
293
293
293
293.004
293.017
293.039
293.076
293.138
293.241
293.41
293.686
294.131
294.839
295.947
297.653
300.226
304.02
309.47
317.075
327.352
340.774
357.694
378.289
402.541
430.259
461.133
494.802
530.904
569.119
609.18
650.876
694.044
738.559
784.32
831.234
879.208
928.138
977.902
1028.4
1079.65
1131.59
1184.11
1237.09
1290.41
1343.97
1397.63
1451.26
1504.74
1557.92
1610.65
1662.78
1714.15
1764.58
1813.9
1861.89
1908.3
1952.88
1995.3
2035.14
2071.87
2104.18
2131.83
2154.79
2170.64
2177.18
2092.93
1979.4
1858.58
1732.95
1604.52
1474.96
1345.72
1218.13
1093.48
973.046
857.963
749.372
649.193
559.681
482.972
420.718
373.539
340.551
319.38
306.856
299.949
296.361
294.585
293.731
293.331
293.147
293.065
293.028
293.012
293.005
293.002
293.001
293
293
293
293
293
293
293.004
293.017
293.039
293.077
293.139
293.242
293.412
293.69
294.138
294.851
295.969
297.691
300.291
304.126
309.639
317.335
327.735
341.315
358.426
379.238
403.722
431.676
462.781
496.667
532.968
571.36
611.575
653.4
696.674
741.269
787.082
834.019
881.985
930.874
980.561
1030.95
1082.07
1133.84
1186.16
1238.9
1291.96
1345.22
1398.57
1451.86
1504.99
1557.8
1610.15
1661.91
1712.9
1762.98
1811.94
1859.6
1905.72
1950.03
1992.22
2031.9
2068.57
2101.01
2128.73
2151.83
2168.06
2175.44
2113.4
2000.52
1880.55
1755.77
1628.07
1499.03
1370.06
1242.42
1117.37
996.162
879.985
769.894
667.676
575.628
496.002
430.658
380.52
345.022
321.99
308.258
300.652
296.696
294.739
293.8
293.361
293.161
293.07
293.03
293.013
293.005
293.002
293.001
293
293
293
293
293
293
293.004
293.017
293.039
293.077
293.139
293.243
293.413
293.692
294.143
294.861
295.989
297.728
300.357
304.24
309.825
317.626
328.171
341.937
359.273
380.341
405.101
433.336
464.714
498.858
535.395
573.997
614.394
656.373
699.77
744.456
790.328
837.289
885.243
934.082
983.682
1033.95
1084.92
1136.51
1188.61
1241.1
1293.89
1346.85
1399.86
1452.81
1505.57
1558.01
1609.99
1661.36
1711.98
1761.68
1810.29
1857.6
1903.41
1947.43
1989.36
2028.82
2065.32
2097.74
2125.52
2148.72
2165.09
2172.84
2132.9
2020.87
1901.85
1778
1651.14
1522.78
1394.25
1266.79
1141.59
1019.84
902.775
791.373
687.28
592.776
510.218
441.676
388.385
350.135
325.009
309.89
301.47
297.083
294.916
293.879
293.395
293.175
293.076
293.033
293.014
293.006
293.002
293.001
293
293
293
293
293
293
293.004
293.017
293.039
293.076
293.139
293.242
293.412
293.69
294.14
294.857
295.986
297.73
300.374
304.287
309.928
317.821
328.507
342.469
360.058
381.426
406.52
435.102
466.823
501.286
538.109
576.958
617.559
659.698
703.213
747.977
793.885
840.844
888.757
937.517
986.999
1037.13
1087.93