/*--------------------------------*- C++ -*----------------------------------*\
  =========                 |
  \\      /  F ield         | OpenFOAM: The Open Source CFD Toolbox
   \\    /   O peration     | Website:  https://openfoam.org
    \\  /    A nd           | Version:  8
     \\/     M anipulation  |
\*---------------------------------------------------------------------------*/
FoamFile
{
    version     2.0;
    format      ascii;
    class       volVectorField;
    location    "900/fluid";
    object      U;
}
// * * * * * * * * * * * * * * * * * * * * * * * * * * * * * * * * * * * * * //

dimensions      [0 1 -1 0 0 0 0];

internalField   nonuniform List<vector> 
4000
(
(0.0999453 -0.00706507 0)
(0.0996476 -0.0210175 0)
(0.0991672 -0.0348541 0)
(0.0985037 -0.0486163 0)
(0.0976488 -0.0623213 0)
(0.0965849 -0.0759699 0)
(0.095291 -0.0895513 0)
(0.0937478 -0.103045 0)
(0.0919396 -0.116425 0)
(0.0898578 -0.12966 0)
(0.087504 -0.142725 0)
(0.084894 -0.155599 0)
(0.0820618 -0.168272 0)
(0.0790667 -0.18073 0)
(0.0759873 -0.19302 0)
(0.0728961 -0.205212 0)
(0.0698438 -0.217366 0)
(0.0668475 -0.229524 0)
(0.0638833 -0.241698 0)
(0.0608867 -0.253862 0)
(0.0577654 -0.265951 0)
(0.0544184 -0.277874 0)
(0.0507562 -0.289524 0)
(0.0467224 -0.300771 0)
(0.0422924 -0.311521 0)
(0.0374587 -0.32171 0)
(0.0322279 -0.331273 0)
(0.0266177 -0.340154 0)
(0.0206545 -0.348306 0)
(0.0143698 -0.355693 0)
(0.00779773 -0.362292 0)
(0.000974268 -0.368091 0)
(-0.00606326 -0.373086 0)
(-0.0132785 -0.377283 0)
(-0.0206383 -0.380695 0)
(-0.0281128 -0.383341 0)
(-0.0356743 -0.385247 0)
(-0.0432969 -0.386444 0)
(-0.0509556 -0.386968 0)
(-0.0586271 -0.386857 0)
(-0.0662893 -0.386153 0)
(-0.0739214 -0.384902 0)
(-0.0815035 -0.383148 0)
(-0.0890165 -0.380941 0)
(-0.0964419 -0.378328 0)
(-0.103762 -0.375361 0)
(-0.110958 -0.372088 0)
(-0.118013 -0.368562 0)
(-0.12491 -0.364835 0)
(-0.131629 -0.360959 0)
(-0.138152 -0.356989 0)
(-0.144459 -0.352982 0)
(-0.15053 -0.348994 0)
(-0.156342 -0.345089 0)
(-0.161871 -0.341332 0)
(-0.167089 -0.337798 0)
(-0.171954 -0.334569 0)
(-0.176416 -0.331732 0)
(-0.180449 -0.329385 0)
(-0.18409 -0.327685 0)
(-0.187406 -0.326907 0)
(-0.18978 -0.327405 0)
(-0.189108 -0.329023 0)
(-0.184217 -0.330031 0)
(-0.17717 -0.329319 0)
(-0.169692 -0.327013 0)
(-0.161982 -0.323405 0)
(-0.153977 -0.318637 0)
(-0.145699 -0.312771 0)
(-0.137218 -0.30584 0)
(-0.128613 -0.297875 0)
(-0.11997 -0.28891 0)
(-0.111375 -0.278985 0)
(-0.102923 -0.268146 0)
(-0.0947606 -0.256452 0)
(-0.0871295 -0.244014 0)
(-0.0803575 -0.231031 0)
(-0.0748134 -0.21778 0)
(-0.0708732 -0.204828 0)
(-0.0688337 -0.192682 0)
(-0.0687304 -0.181591 0)
(-0.0702659 -0.171467 0)
(-0.0729265 -0.162004 0)
(-0.0761745 -0.152867 0)
(-0.0795816 -0.143817 0)
(-0.0828657 -0.134706 0)
(-0.0858542 -0.125438 0)
(-0.0884794 -0.116057 0)
(-0.090739 -0.106611 0)
(-0.0926577 -0.0971325 0)
(-0.0942689 -0.0876528 0)
(-0.095608 -0.0781988 0)
(-0.0967091 -0.0687915 0)
(-0.0976038 -0.0594455 0)
(-0.0983205 -0.0501677 0)
(-0.0988847 -0.040957 0)
(-0.0993181 -0.0318059 0)
(-0.0996378 -0.022704 0)
(-0.0998558 -0.0136343 0)
(-0.0999821 -0.00456038 0)
(0.0999999 -0.00662525 0)
(0.0997932 -0.0198122 0)
(0.0993658 -0.0329124 0)
(0.0986937 -0.0459104 0)
(0.0977783 -0.0587866 0)
(0.0966152 -0.0715168 0)
(0.095195 -0.0840728 0)
(0.0935096 -0.0964228 0)
(0.091557 -0.108534 0)
(0.0893444 -0.120377 0)
(0.0868913 -0.131932 0)
(0.0842321 -0.143197 0)
(0.0814176 -0.154203 0)
(0.0785146 -0.165034 0)
(0.0755962 -0.17575 0)
(0.072729 -0.18641 0)
(0.0699591 -0.197089 0)
(0.0672985 -0.207855 0)
(0.0647164 -0.218748 0)
(0.0621395 -0.229766 0)
(0.0594638 -0.240863 0)
(0.056574 -0.251958 0)
(0.0533639 -0.262959 0)
(0.0497517 -0.273783 0)
(0.0456896 -0.284312 0)
(0.0411595 -0.294414 0)
(0.0361643 -0.303985 0)
(0.0307242 -0.312948 0)
(0.0248707 -0.321244 0)
(0.0186423 -0.328833 0)
(0.01208 -0.335687 0)
(0.00522547 -0.341791 0)
(-0.00188044 -0.347141 0)
(-0.00919817 -0.35174 0)
(-0.0166903 -0.3556 0)
(-0.0243223 -0.358741 0)
(-0.0320624 -0.361186 0)
(-0.039882 -0.362962 0)
(-0.0477543 -0.364102 0)
(-0.0556541 -0.364641 0)
(-0.063558 -0.364618 0)
(-0.0714442 -0.364072 0)
(-0.0792921 -0.363046 0)
(-0.087082 -0.361584 0)
(-0.0947954 -0.359732 0)
(-0.102414 -0.357537 0)
(-0.109921 -0.355044 0)
(-0.1173 -0.352303 0)
(-0.124532 -0.349363 0)
(-0.131603 -0.346271 0)
(-0.138494 -0.34308 0)
(-0.14519 -0.33984 0)
(-0.151672 -0.336603 0)
(-0.157924 -0.333422 0)
(-0.163927 -0.330353 0)
(-0.169662 -0.327452 0)
(-0.175094 -0.324775 0)
(-0.180182 -0.322375 0)
(-0.184927 -0.320302 0)
(-0.189429 -0.318612 0)
(-0.193797 -0.317352 0)
(-0.197071 -0.316511 0)
(-0.196612 -0.315593 0)
(-0.191283 -0.314011 0)
(-0.183729 -0.311543 0)
(-0.175874 -0.308086 0)
(-0.167879 -0.303592 0)
(-0.159615 -0.298036 0)
(-0.151067 -0.291404 0)
(-0.142285 -0.283687 0)
(-0.133329 -0.274884 0)
(-0.124266 -0.265011 0)
(-0.115158 -0.254108 0)
(-0.106076 -0.242254 0)
(-0.0971707 -0.229603 0)
(-0.0887184 -0.216437 0)
(-0.0811123 -0.203209 0)
(-0.0748138 -0.19055 0)
(-0.0702797 -0.178879 0)
(-0.0678027 -0.168466 0)
(-0.0673575 -0.159328 0)
(-0.0685884 -0.151194 0)
(-0.0709658 -0.143657 0)
(-0.0739726 -0.136354 0)
(-0.0772106 -0.129048 0)
(-0.0804202 -0.121634 0)
(-0.0834586 -0.114103 0)
(-0.0862401 -0.106369 0)
(-0.0887291 -0.0984059 0)
(-0.0909197 -0.0902444 0)
(-0.0928198 -0.081924 0)
(-0.0944456 -0.0734829 0)
(-0.0958174 -0.0649545 0)
(-0.0969572 -0.0563668 0)
(-0.0978872 -0.0477408 0)
(-0.0986281 -0.0390906 0)
(-0.0991976 -0.0304246 0)
(-0.0996077 -0.0217492 0)
(-0.0998663 -0.0130671 0)
(-0.0999951 -0.00436641 0)
(0.0999786 -0.0063454 0)
(0.0997135 -0.0189627 0)
(0.0991941 -0.0314907 0)
(0.0984016 -0.0439113 0)
(0.0973398 -0.0562013 0)
(0.0960098 -0.0683357 0)
(0.0944108 -0.0802896 0)
(0.092546 -0.0920378 0)
(0.0904256 -0.103557 0)
(0.0880698 -0.114829 0)
(0.085511 -0.125842 0)
(0.0827952 -0.136597 0)
(0.079981 -0.14711 0)
(0.077133 -0.157414 0)
(0.0743169 -0.167562 0)
(0.0715946 -0.17763 0)
(0.0690111 -0.187697 0)
(0.066579 -0.197833 0)
(0.0642679 -0.208085 0)
(0.0620046 -0.218459 0)
(0.0596843 -0.228918 0)
(0.0571887 -0.239393 0)
(0.0544047 -0.24979 0)
(0.0512363 -0.260006 0)
(0.0476136 -0.269941 0)
(0.0434991 -0.279503 0)
(0.0388849 -0.28861 0)
(0.0337851 -0.297192 0)
(0.0282277 -0.305193 0)
(0.0222493 -0.312569 0)
(0.0158905 -0.319288 0)
(0.00919342 -0.325331 0)
(0.00219962 -0.330686 0)
(-0.00505014 -0.335352 0)
(-0.0125172 -0.339337 0)
(-0.0201657 -0.342652 0)
(-0.0279625 -0.345318 0)
(-0.0358773 -0.347357 0)
(-0.0438824 -0.348798 0)
(-0.0519514 -0.349671 0)
(-0.0600602 -0.35001 0)
(-0.0681862 -0.349852 0)
(-0.076308 -0.349235 0)
(-0.084406 -0.3482 0)
(-0.0924615 -0.346789 0)
(-0.100457 -0.345042 0)
(-0.108376 -0.343005 0)
(-0.116202 -0.340721 0)
(-0.12392 -0.338233 0)
(-0.131517 -0.335588 0)
(-0.138978 -0.332828 0)
(-0.146292 -0.33 0)
(-0.153445 -0.327146 0)
(-0.160426 -0.32431 0)
(-0.167224 -0.321534 0)
(-0.173825 -0.318857 0)
(-0.180198 -0.316314 0)
(-0.186306 -0.313932 0)
(-0.192164 -0.311729 0)
(-0.197886 -0.309721 0)
(-0.203458 -0.307911 0)
(-0.207354 -0.306236 0)
(-0.206618 -0.304066 0)
(-0.200681 -0.301127 0)
(-0.192626 -0.297497 0)
(-0.184217 -0.293097 0)
(-0.175599 -0.287827 0)
(-0.16667 -0.281626 0)
(-0.157427 -0.274465 0)
(-0.147915 -0.266337 0)
(-0.138188 -0.257262 0)
(-0.128305 -0.24729 0)
(-0.118325 -0.236506 0)
(-0.108335 -0.225046 0)
(-0.0985268 -0.213111 0)
(-0.0892418 -0.20099 0)
(-0.0809424 -0.189047 0)
(-0.0741565 -0.177689 0)
(-0.0693481 -0.167283 0)
(-0.0667398 -0.15804 0)
(-0.0662097 -0.149907 0)
(-0.0673412 -0.1426 0)
(-0.0695937 -0.135749 0)
(-0.072468 -0.129036 0)
(-0.0755876 -0.122254 0)
(-0.0787112 -0.1153 0)
(-0.0817076 -0.108142 0)
(-0.0845104 -0.10079 0)
(-0.0870817 -0.0932625 0)
(-0.0894032 -0.0855792 0)
(-0.0914699 -0.0777608 0)
(-0.0932851 -0.0698281 0)
(-0.0948571 -0.0618011 0)
(-0.0961967 -0.0536982 0)
(-0.0973163 -0.0455353 0)
(-0.0982286 -0.0373242 0)
(-0.0989447 -0.0290747 0)
(-0.099471 -0.0207969 0)
(-0.0998118 -0.0124994 0)
(-0.0999872 -0.00417776 0)
(0.0999835 -0.0059902 0)
(0.0997141 -0.0179011 0)
(0.0991775 -0.029718 0)
(0.0983542 -0.0414163 0)
(0.0972527 -0.052968 0)
(0.0958801 -0.0643448 0)
(0.0942415 -0.0755199 0)
(0.0923456 -0.0864677 0)
(0.0902072 -0.0971659 0)
(0.0878492 -0.107598 0)
(0.0853047 -0.117755 0)
(0.0826181 -0.127645 0)
(0.0798457 -0.137288 0)
(0.0770539 -0.146729 0)
(0.0743131 -0.156029 0)
(0.0716882 -0.165266 0)
(0.0692246 -0.174522 0)
(0.0669337 -0.183872 0)
(0.0647841 -0.193364 0)
(0.0627009 -0.203011 0)
(0.0605767 -0.212784 0)
(0.0582896 -0.222621 0)
(0.0557229 -0.232437 0)
(0.0527796 -0.242134 0)
(0.0493906 -0.251614 0)
(0.0455161 -0.260785 0)
(0.0411421 -0.269564 0)
(0.0362754 -0.277881 0)
(0.0309371 -0.285681 0)
(0.0251575 -0.292918 0)
(0.0189726 -0.299562 0)
(0.0124201 -0.30559 0)
(0.00553867 -0.31099 0)
(-0.00163353 -0.315757 0)
(-0.00905947 -0.319896 0)
(-0.0167043 -0.323416 0)
(-0.0245356 -0.326333 0)
(-0.032524 -0.328666 0)
(-0.0406418 -0.330439 0)
(-0.0488635 -0.331679 0)
(-0.0571651 -0.332415 0)
(-0.0655243 -0.332679 0)
(-0.0739203 -0.332505 0)
(-0.0823338 -0.331929 0)
(-0.0907468 -0.330988 0)
(-0.0991422 -0.329718 0)
(-0.107504 -0.328158 0)
(-0.115817 -0.326345 0)
(-0.124068 -0.324319 0)
(-0.132243 -0.322117 0)
(-0.140331 -0.319775 0)
(-0.148319 -0.317331 0)
(-0.156198 -0.314817 0)
(-0.163955 -0.312265 0)
(-0.171578 -0.309704 0)
(-0.179052 -0.307156 0)
(-0.186335 -0.304639 0)
(-0.193379 -0.302158 0)
(-0.200208 -0.299713 0)
(-0.20694 -0.297305 0)
(-0.213401 -0.294926 0)
(-0.217421 -0.292516 0)
(-0.215968 -0.289357 0)
(-0.209325 -0.285393 0)
(-0.200826 -0.280814 0)
(-0.191889 -0.275577 0)
(-0.182606 -0.269591 0)
(-0.172925 -0.262795 0)
(-0.162878 -0.255164 0)
(-0.152531 -0.246701 0)
(-0.141956 -0.237435 0)
(-0.131231 -0.227428 0)
(-0.120439 -0.21678 0)
(-0.109707 -0.205634 0)
(-0.0992875 -0.1942 0)
(-0.089573 -0.182759 0)
(-0.0810488 -0.171661 0)
(-0.0742137 -0.161281 0)
(-0.0694593 -0.15193 0)
(-0.0669245 -0.143742 0)
(-0.0664232 -0.13661 0)
(-0.0675155 -0.130235 0)
(-0.0696746 -0.124262 0)
(-0.0724311 -0.118399 0)
(-0.075436 -0.112459 0)
(-0.0784624 -0.106345 0)
(-0.0813793 -0.100017 0)
(-0.0841184 -0.0934664 0)
(-0.0866475 -0.0867043 0)
(-0.0889522 -0.0797489 0)
(-0.0910282 -0.072622 0)
(-0.0928758 -0.0653459 0)
(-0.0944985 -0.0579419 0)
(-0.095901 -0.0504298 0)
(-0.0970893 -0.0428274 0)
(-0.0980697 -0.0351494 0)
(-0.098847 -0.0274088 0)
(-0.0994225 -0.0196205 0)
(-0.0997958 -0.0117984 0)
(-0.0999874 -0.00394444 0)
(0.0999805 -0.00563433 0)
(0.099696 -0.016836 0)
(0.0991342 -0.0279466 0)
(0.0982769 -0.0389412 0)
(0.0971351 -0.0497919 0)
(0.0957183 -0.0604714 0)
(0.0940351 -0.0709545 0)
(0.0920973 -0.081218 0)
(0.0899231 -0.0912425 0)
(0.087539 -0.101014 0)
(0.0849811 -0.110527 0)
(0.0822967 -0.119787 0)
(0.0795449 -0.128816 0)
(0.0767933 -0.137651 0)
(0.0741133 -0.146349 0)
(0.0715694 -0.154981 0)
(0.0692063 -0.163623 0)
(0.0670354 -0.172345 0)
(0.065025 -0.181195 0)
(0.0631003 -0.190188 0)
(0.0611532 -0.199305 0)
(0.0590597 -0.208492 0)
(0.0566994 -0.217676 0)
(0.0539709 -0.226769 0)
(0.0508002 -0.235683 0)
(0.0471423 -0.244335 0)
(0.0429787 -0.252647 0)
(0.0383115 -0.260557 0)
(0.0331578 -0.268009 0)
(0.0275444 -0.274961 0)
(0.0215038 -0.281382 0)
(0.015071 -0.287248 0)
(0.00828194 -0.292545 0)
(0.0011724 -0.297268 0)
(-0.00622249 -0.301417 0)
(-0.0138695 -0.305 0)
(-0.0217379 -0.308027 0)
(-0.0297995 -0.310515 0)
(-0.038028 -0.312483 0)
(-0.0463987 -0.313955 0)
(-0.0548888 -0.314955 0)
(-0.0634768 -0.31551 0)
(-0.0721428 -0.315651 0)
(-0.0808681 -0.315407 0)
(-0.089635 -0.31481 0)
(-0.0984268 -0.313893 0)
(-0.107228 -0.312686 0)
(-0.116024 -0.311223 0)
(-0.1248 -0.309535 0)
(-0.133545 -0.307654 0)
(-0.142243 -0.305609 0)
(-0.150883 -0.303428 0)
(-0.159451 -0.301137 0)
(-0.167931 -0.298756 0)
(-0.176307 -0.296306 0)
(-0.184551 -0.293797 0)
(-0.192609 -0.291236 0)
(-0.200422 -0.288617 0)
(-0.20802 -0.285933 0)
(-0.215526 -0.283181 0)
(-0.222579 -0.280346 0)
(-0.226362 -0.277385 0)
(-0.22398 -0.273556 0)
(-0.216658 -0.268969 0)
(-0.207779 -0.263823 0)
(-0.198366 -0.258088 0)
(-0.188463 -0.251693 0)
(-0.178074 -0.244599 0)
(-0.167277 -0.236798 0)
(-0.156166 -0.228309 0)
(-0.144834 -0.219175 0)
(-0.133382 -0.209471 0)
(-0.121913 -0.199303 0)
(-0.11059 -0.188818 0)
(-0.0997083 -0.17822 0)
(-0.0896874 -0.16777 0)
(-0.0810162 -0.157771 0)
(-0.0741687 -0.148527 0)
(-0.069482 -0.14026 0)
(-0.0670261 -0.133027 0)
(-0.0665594 -0.126679 0)
(-0.067622 -0.12093 0)
(-0.0696991 -0.115477 0)
(-0.0723481 -0.110081 0)
(-0.0752463 -0.104592 0)
(-0.0781847 -0.0989355 0)
(-0.0810408 -0.0930799 0)
(-0.0837468 -0.0870213 0)
(-0.0862668 -0.0807681 0)
(-0.0885822 -0.0743347 0)
(-0.0906843 -0.0677376 0)
(-0.0925695 -0.0609942 0)
(-0.0942374 -0.0541218 0)
(-0.0956894 -0.0471374 0)
(-0.096928 -0.0400566 0)
(-0.097956 -0.0328934 0)
(-0.0987756 -0.0256611 0)
(-0.099385 -0.0183753 0)
(-0.0997818 -0.0110518 0)
(-0.0999861 -0.00369517 0)
(0.0999811 -0.00526362 0)
(0.0996943 -0.0157286 0)
(0.0991266 -0.0261065 0)
(0.0982604 -0.0363716 0)
(0.0971081 -0.0464962 0)
(0.0956814 -0.0564532 0)
(0.0939906 -0.0662182 0)
(0.0920497 -0.0757693 0)
(0.0898783 -0.0850882 0)
(0.0875042 -0.0941623 0)
(0.0849642 -0.102987 0)
(0.0823059 -0.11157 0)
(0.0795879 -0.119932 0)
(0.0768777 -0.128111 0)
(0.0742459 -0.136163 0)
(0.0717571 -0.144155 0)
(0.0694566 -0.152162 0)
(0.0673567 -0.160253 0)
(0.0654276 -0.168475 0)
(0.0635963 -0.176844 0)
(0.0617559 -0.185345 0)
(0.0597827 -0.19393 0)
(0.0575554 -0.20253 0)
(0.05497 -0.211066 0)
(0.0519492 -0.219455 0)
(0.0484444 -0.22762 0)
(0.0444326 -0.235489 0)
(0.0399118 -0.243002 0)
(0.034895 -0.250107 0)
(0.0294054 -0.256764 0)
(0.0234721 -0.262943 0)
(0.0171271 -0.268619 0)
(0.0104035 -0.273779 0)
(0.00333437 -0.278416 0)
(-0.00404681 -0.282528 0)
(-0.0117087 -0.286119 0)
(-0.0196228 -0.2892 0)
(-0.0277621 -0.291783 0)
(-0.0361017 -0.293884 0)
(-0.0446183 -0.295522 0)
(-0.05329 -0.296719 0)
(-0.0620962 -0.297497 0)
(-0.0710178 -0.297882 0)
(-0.0800364 -0.297899 0)
(-0.0891345 -0.297574 0)
(-0.0982957 -0.296936 0)
(-0.107504 -0.29601 0)
(-0.116745 -0.294824 0)
(-0.126003 -0.293403 0)
(-0.135262 -0.291774 0)
(-0.144508 -0.289958 0)
(-0.153723 -0.287978 0)
(-0.16289 -0.285853 0)
(-0.171987 -0.283598 0)
(-0.180988 -0.281224 0)
(-0.189854 -0.278738 0)
(-0.198517 -0.276139 0)
(-0.206904 -0.273417 0)
(-0.215055 -0.270563 0)
(-0.223086 -0.267564 0)
(-0.230465 -0.264391 0)
(-0.233821 -0.261029 0)
(-0.230514 -0.256835 0)
(-0.222603 -0.251952 0)
(-0.213349 -0.246504 0)
(-0.203468 -0.24049 0)
(-0.192986 -0.233881 0)
(-0.181963 -0.226669 0)
(-0.170511 -0.218863 0)
(-0.158749 -0.210492 0)
(-0.146791 -0.20161 0)
(-0.134754 -0.192291 0)
(-0.122763 -0.18264 0)
(-0.111014 -0.172795 0)
(-0.0998364 -0.162944 0)
(-0.089669 -0.153323 0)
(-0.0809978 -0.144199 0)
(-0.0742674 -0.13583 0)
(-0.0697587 -0.128395 0)
(-0.0674743 -0.121916 0)
(-0.0671209 -0.116235 0)
(-0.0682195 -0.111082 0)
(-0.070265 -0.106177 0)
(-0.0728375 -0.101309 0)
(-0.0756375 -0.0963452 0)
(-0.0784737 -0.0912165 0)
(-0.0812349 -0.085895 0)
(-0.0838597 -0.0803758 0)
(-0.0863149 -0.0746656 0)
(-0.0885825 -0.0687766 0)
(-0.0906527 -0.0627238 0)
(-0.09252 -0.0565228 0)
(-0.0941816 -0.0501898 0)
(-0.0956359 -0.0437408 0)
(-0.0968826 -0.0371912 0)
(-0.097922 -0.0305548 0)
(-0.0987537 -0.0238455 0)
(-0.0993737 -0.0170796 0)
(-0.099778 -0.0102741 0)
(-0.0999861 -0.00343538 0)
(0.0999807 -0.00489217 0)
(0.0996915 -0.0146187 0)
(0.0991201 -0.0242637 0)
(0.0982491 -0.0338028 0)
(0.0970918 -0.0432093 0)
(0.0956606 -0.0524579 0)
(0.0939671 -0.0615258 0)
(0.0920261 -0.0703926 0)
(0.0898585 -0.079042 0)
(0.0874928 -0.0874626 0)
(0.0849668 -0.095651 0)
(0.0823285 -0.103614 0)
(0.079637 -0.111371 0)
(0.0769598 -0.118959 0)
(0.0743676 -0.126426 0)
(0.0719252 -0.133838 0)
(0.0696779 -0.141263 0)
(0.0676389 -0.148765 0)
(0.0657792 -0.156389 0)
(0.0640266 -0.164153 0)
(0.0622748 -0.172044 0)
(0.0603997 -0.180023 0)
(0.0582787 -0.188027 0)
(0.055806 -0.195985 0)
(0.0529015 -0.203822 0)
(0.0495136 -0.211467 0)
(0.0456161 -0.218853 0)
(0.0412039 -0.225925 0)
(0.036287 -0.232635 0)
(0.0308857 -0.238944 0)
(0.0250264 -0.244822 0)
(0.0187388 -0.250247 0)
(0.0120536 -0.255205 0)
(0.00500219 -0.259687 0)
(-0.00238448 -0.263691 0)
(-0.0100767 -0.267219 0)
(-0.018047 -0.270278 0)
(-0.0262701 -0.272878 0)
(-0.0347223 -0.275033 0)
(-0.0433815 -0.276759 0)
(-0.0522266 -0.278072 0)
(-0.0612378 -0.278992 0)
(-0.0703962 -0.279541 0)
(-0.0796835 -0.279739 0)
(-0.0890825 -0.279609 0)
(-0.0985766 -0.279173 0)
(-0.108149 -0.278454 0)
(-0.117783 -0.277473 0)
(-0.127463 -0.276252 0)
(-0.137169 -0.274811 0)
(-0.146885 -0.273169 0)
(-0.156589 -0.271342 0)
(-0.166256 -0.269345 0)
(-0.175861 -0.26719 0)
(-0.185368 -0.264885 0)
(-0.194727 -0.262433 0)
(-0.20385 -0.259832 0)
(-0.212662 -0.257071 0)
(-0.221195 -0.254141 0)
(-0.229528 -0.251017 0)
(-0.237011 -0.247652 0)
(-0.239992 -0.244037 0)
(-0.235946 -0.239679 0)
(-0.227386 -0.234696 0)
(-0.217606 -0.229145 0)
(-0.207234 -0.223052 0)
(-0.196251 -0.216428 0)
(-0.184716 -0.209285 0)
(-0.172752 -0.201647 0)
(-0.160491 -0.193552 0)
(-0.148061 -0.185056 0)
(-0.135592 -0.176235 0)
(-0.123226 -0.167189 0)
(-0.111189 -0.158046 0)
(-0.0998347 -0.148981 0)
(-0.089614 -0.140204 0)
(-0.0810029 -0.13195 0)
(-0.0744151 -0.124435 0)
(-0.0700809 -0.117789 0)
(-0.0679477 -0.111998 0)
(-0.0676849 -0.106894 0)
(-0.0688052 -0.102226 0)
(-0.0708173 -0.0977508 0)
(-0.0733228 -0.093288 0)
(-0.0760413 -0.0887282 0)
(-0.0787953 -0.0840149 0)
(-0.081481 -0.0791254 0)
(-0.0840406 -0.0740553 0)
(-0.086442 -0.0688102 0)
(-0.0886669 -0.0634001 0)
(-0.0907047 -0.0578374 0)
(-0.0925487 -0.0521353 0)
(-0.0941945 -0.0463079 0)
(-0.0956392 -0.0403694 0)
(-0.096881 -0.0343336 0)
(-0.0979187 -0.0282134 0)
(-0.0987506 -0.022022 0)
(-0.0993718 -0.0157754 0)
(-0.0997772 -0.00949017 0)
(-0.099986 -0.00317336 0)
(0.0999808 -0.00451931 0)
(0.0996923 -0.0135048 0)
(0.099122 -0.0224149 0)
(0.0982528 -0.0312265 0)
(0.0970983 -0.0399144 0)
(0.0956716 -0.048455 0)
(0.0939847 -0.0568268 0)
(0.0920531 -0.0650111 0)
(0.089898 -0.0729929 0)
(0.0875483 -0.0807618 0)
(0.0850418 -0.0883149 0)
(0.0824266 -0.0956589 0)
(0.0797613 -0.102813 0)
(0.0771132 -0.109809 0)
(0.0745528 -0.116695 0)
(0.0721447 -0.12353 0)
(0.069935 -0.13038 0)
(0.0679375 -0.137303 0)
(0.0661248 -0.144343 0)
(0.0644258 -0.151518 0)
(0.0627352 -0.158818 0)
(0.0609291 -0.166206 0)
(0.058884 -0.173629 0)
(0.0564925 -0.181019 0)
(0.0536725 -0.18831 0)
(0.0503694 -0.195434 0)
(0.0465547 -0.202331 0)
(0.0422204 -0.20895 0)
(0.037374 -0.215246 0)
(0.0320334 -0.221183 0)
(0.0262227 -0.226732 0)
(0.0199695 -0.231872 0)
(0.0133029 -0.236588 0)
(0.00625205 -0.240873 0)
(-0.00115349 -0.244721 0)
(-0.00888549 -0.248135 0)
(-0.0169177 -0.25112 0)
(-0.025226 -0.253683 0)
(-0.0337878 -0.255834 0)
(-0.0425817 -0.257588 0)
(-0.0515872 -0.258958 0)
(-0.0607849 -0.259961 0)
(-0.070156 -0.260613 0)
(-0.0796825 -0.260933 0)
(-0.0893467 -0.260938 0)
(-0.0991312 -0.260649 0)
(-0.109018 -0.260082 0)
(-0.11899 -0.259255 0)
(-0.129027 -0.258187 0)
(-0.13911 -0.256893 0)
(-0.149216 -0.255388 0)
(-0.159322 -0.253685 0)
(-0.169399 -0.251795 0)
(-0.179414 -0.249728 0)
(-0.189325 -0.247489 0)
(-0.19907 -0.245081 0)
(-0.208549 -0.2425 0)
(-0.217677 -0.23974 0)
(-0.226465 -0.236791 0)
(-0.23494 -0.233637 0)
(-0.242319 -0.230238 0)
(-0.244864 -0.226528 0)
(-0.240173 -0.222103 0)
(-0.231059 -0.217114 0)
(-0.220804 -0.211613 0)
(-0.209993 -0.205625 0)
(-0.198584 -0.199165 0)
(-0.18663 -0.192258 0)
(-0.174259 -0.184932 0)
(-0.161609 -0.177231 0)
(-0.148822 -0.169211 0)
(-0.136033 -0.160947 0)
(-0.123401 -0.15253 0)
(-0.111174 -0.144082 0)
(-0.0997274 -0.135761 0)
(-0.0895177 -0.127757 0)
(-0.0810125 -0.120276 0)
(-0.0745971 -0.113501 0)
(-0.0704563 -0.107532 0)
(-0.0684888 -0.102335 0)
(-0.0683318 -0.0977415 0)
(-0.0694908 -0.0935211 0)
(-0.0714861 -0.0894574 0)
(-0.073938 -0.0853937 0)
(-0.0765834 -0.0812355 0)
(-0.0792577 -0.0769345 0)
(-0.0818652 -0.0724711 0)
(-0.0843527 -0.0678415 0)
(-0.0866902 -0.0630503 0)
(-0.0888601 -0.0581062 0)
(-0.0908517 -0.05302 0)
(-0.0926578 -0.0478035 0)
(-0.0942732 -0.0424692 0)
(-0.0956941 -0.0370301 0)
(-0.0969177 -0.0314989 0)
(-0.0979419 -0.0258876 0)
(-0.098764 -0.0202087 0)
(-0.0993784 -0.0144773 0)
(-0.0997795 -0.00870959 0)
(-0.0999862 -0.00291239 0)
(0.0999809 -0.00414805 0)
(0.0996935 -0.0123956 0)
(0.0991254 -0.0205742 0)
(0.0982598 -0.0286624 0)
(0.0971104 -0.036637 0)
(0.0956905 -0.0444761 0)
(0.0940123 -0.0521601 0)
(0.0920914 -0.059672 0)
(0.0899494 -0.0669978 0)
(0.0876152 -0.0741283 0)
(0.0851267 -0.0810611 0)
(0.0825317 -0.0878023 0)
(0.0798888 -0.0943691 0)
(0.077265 -0.100792 0)
(0.0747307 -0.107114 0)
(0.0723506 -0.11339 0)
(0.0701709 -0.119679 0)
(0.0682066 -0.126037 0)
(0.0664309 -0.132504 0)
(0.0647738 -0.139098 0)
(0.0631305 -0.145811 0)
(0.0613772 -0.152611 0)
(0.0593895 -0.15945 0)
(0.0570588 -0.166267 0)
(0.0543011 -0.173001 0)
(0.05106 -0.179592 0)
(0.0473046 -0.185984 0)
(0.0430248 -0.192129 0)
(0.0382262 -0.197986 0)
(0.0329247 -0.203522 0)
(0.0271427 -0.208709 0)
(0.0209061 -0.213529 0)
(0.0142425 -0.217965 0)
(0.00717962 -0.222011 0)
(-0.000254285 -0.225661 0)
(-0.00803211 -0.228915 0)
(-0.0161286 -0.231777 0)
(-0.0245205 -0.234253 0)
(-0.033186 -0.236351 0)
(-0.0421041 -0.238082 0)
(-0.0512548 -0.239458 0)
(-0.0606187 -0.240492 0)
(-0.0701772 -0.241197 0)
(-0.079912 -0.24159 0)
(-0.0898046 -0.241685 0)
(-0.0998366 -0.241497 0)
(-0.109989 -0.241041 0)
(-0.120242 -0.240332 0)
(-0.130575 -0.239384 0)
(-0.140965 -0.238209 0)
(-0.151387 -0.236821 0)
(-0.161813 -0.235228 0)
(-0.17221 -0.233439 0)
(-0.18254 -0.231462 0)
(-0.192756 -0.229301 0)
(-0.202784 -0.226957 0)
(-0.212519 -0.224427 0)
(-0.221877 -0.221709 0)
(-0.230865 -0.218804 0)
(-0.239481 -0.215718 0)
(-0.2467 -0.212443 0)
(-0.248733 -0.20877 0)
(-0.243404 -0.204367 0)
(-0.233835 -0.199464 0)
(-0.223199 -0.194122 0)
(-0.212023 -0.188356 0)
(-0.20026 -0.182181 0)
(-0.187965 -0.17562 0)
(-0.175269 -0.168707 0)
(-0.162317 -0.161485 0)
(-0.149255 -0.154009 0)
(-0.136228 -0.146349 0)
(-0.123405 -0.13859 0)
(-0.111057 -0.130846 0)
(-0.0995737 -0.12326 0)
(-0.089414 -0.116002 0)
(-0.0810347 -0.109255 0)
(-0.0747939 -0.103174 0)
(-0.0708357 -0.0978304 0)
(-0.0690183 -0.0931748 0)
(-0.0689542 -0.0890439 0)
(-0.0701464 -0.0852267 0)
(-0.0721271 -0.0815337 0)
(-0.0745332 -0.0778306 0)
(-0.0771164 -0.0740375 0)
(-0.0797223 -0.070114 0)
(-0.082262 -0.0660437 0)
(-0.0846855 -0.0618237 0)
(-0.0869646 -0.0574579 0)
(-0.0890824 -0.0529538 0)
(-0.0910283 -0.0483208 0)
(-0.092795 -0.0435691 0)
(-0.094377 -0.0387097 0)
(-0.09577 -0.0337542 0)
(-0.0969707 -0.0287139 0)
(-0.0979766 -0.0235997 0)
(-0.0987845 -0.0184232 0)
(-0.0993886 -0.0131984 0)
(-0.0997831 -0.00794018 0)
(-0.0999864 -0.00265513 0)
(0.099981 -0.0037786 0)
(0.0996953 -0.0112919 0)
(0.0991305 -0.0187425 0)
(0.0982698 -0.026111 0)
(0.0971271 -0.0333763 0)
(0.0957155 -0.0405182 0)
(0.0940475 -0.0475189 0)
(0.0921387 -0.054363 0)
(0.0900106 -0.0610377 0)
(0.0876921 -0.067535 0)
(0.0852208 -0.0738524 0)
(0.0826445 -0.0799956 0)
(0.0800213 -0.0859805 0)
(0.0774179 -0.0918347 0)
(0.0749046 -0.0975977 0)
(0.0725461 -0.103319 0)
(0.0703891 -0.109054 0)
(0.0684492 -0.114852 0)
(0.0667004 -0.120752 0)
(0.0650739 -0.126771 0)
(0.0634651 -0.132903 0)
(0.0617503 -0.139119 0)
(0.0598046 -0.145375 0)
(0.0575183 -0.151618 0)
(0.0548058 -0.157792 0)
(0.0516089 -0.163841 0)
(0.047895 -0.169717 0)
(0.0436524 -0.175374 0)
(0.0388849 -0.180775 0)
(0.033607 -0.185889 0)
(0.0278396 -0.190691 0)
(0.0216074 -0.195163 0)
(0.0149366 -0.199291 0)
(0.00785397 -0.203066 0)
(0.00038669 -0.206483 0)
(-0.00743897 -0.209541 0)
(-0.0155985 -0.212243 0)
(-0.0240693 -0.214594 0)
(-0.0328299 -0.216599 0)
(-0.0418599 -0.218268 0)
(-0.0511392 -0.219609 0)
(-0.0606486 -0.220635 0)
(-0.0703691 -0.221356 0)
(-0.080282 -0.221785 0)
(-0.0903682 -0.221934 0)
(-0.100608 -0.221817 0)
(-0.110981 -0.221444 0)
(-0.121466 -0.220828 0)
(-0.13204 -0.219981 0)
(-0.142678 -0.218913 0)
(-0.153353 -0.217634 0)
(-0.164031 -0.216152 0)
(-0.174678 -0.214475 0)
(-0.185252 -0.212607 0)
(-0.1957 -0.210554 0)
(-0.205943 -0.208317 0)
(-0.215872 -0.205895 0)
(-0.225417 -0.203289 0)
(-0.234611 -0.200507 0)
(-0.243412 -0.197569 0)
(-0.250362 -0.194485 0)
(-0.251668 -0.190862 0)
(-0.245653 -0.186573 0)
(-0.235774 -0.181846 0)
(-0.224891 -0.176751 0)
(-0.213451 -0.171292 0)
(-0.201417 -0.165481 0)
(-0.188858 -0.159341 0)
(-0.175914 -0.152905 0)
(-0.162732 -0.146214 0)
(-0.149465 -0.13932 0)
(-0.136263 -0.132288 0)
(-0.123306 -0.125197 0)
(-0.110883 -0.118149 0)
(-0.0993951 -0.111274 0)
(-0.0893054 -0.104726 0)
(-0.0810593 -0.0986653 0)
(-0.0749897 -0.093222 0)
(-0.0712049 -0.0884495 0)
(-0.0695281 -0.0842887 0)
(-0.0695519 -0.0805846 0)
(-0.0707777 -0.0771467 0)
(-0.0727488 -0.0738086 0)
(-0.0751165 -0.0704547 0)
(-0.0776454 -0.0670167 0)
(-0.0801903 -0.0634606 0)
(-0.0826679 -0.0597725 0)
(-0.0850316 -0.0559503 0)
(-0.0872548 -0.0519973 0)
(-0.0893216 -0.0479202 0)
(-0.0912217 -0.043727 0)
(-0.0929479 -0.039427 0)
(-0.0944946 -0.0350296 0)
(-0.0958573 -0.0305453 0)
(-0.0970326 -0.0259843 0)
(-0.0980176 -0.0213563 0)
(-0.098809 -0.0166717 0)
(-0.0994009 -0.0119434 0)
(-0.0997875 -0.00718513 0)
(-0.0999867 -0.00240265 0)
(0.0999811 -0.00341145 0)
(0.0996971 -0.0101948 0)
(0.0991356 -0.016922 0)
(0.09828 -0.0235754 0)
(0.0971441 -0.0301358 0)
(0.0957409 -0.0365853 0)
(0.0940828 -0.0429077 0)
(0.0921855 -0.0490892 0)
(0.0900703 -0.0551183 0)
(0.087766 -0.0609877 0)
(0.0853099 -0.0666954 0)
(0.0827497 -0.0722464 0)
(0.080143 -0.0776551 0)
(0.0775565 -0.0829463 0)
(0.0750601 -0.0881557 0)
(0.0727187 -0.0933283 0)
(0.0705794 -0.0985134 0)
(0.0686582 -0.103757 0)
(0.0669299 -0.109094 0)
(0.0653264 -0.114541 0)
(0.0637435 -0.120092 0)
(0.0620574 -0.125723 0)
(0.0601428 -0.131395 0)
(0.0578889 -0.137059 0)
(0.0552089 -0.142666 0)
(0.0520432 -0.148166 0)
(0.0483578 -0.153513 0)
(0.0441397 -0.158668 0)
(0.0393912 -0.163596 0)
(0.0341257 -0.16827 0)
(0.0283631 -0.172666 0)
(0.0221269 -0.176767 0)
(0.0154425 -0.18056 0)
(0.0083358 -0.184037 0)
(0.00083321 -0.187192 0)
(-0.00703963 -0.190025 0)
(-0.0152588 -0.192537 0)
(-0.0238019 -0.19473 0)
(-0.0326481 -0.196611 0)
(-0.0417768 -0.198185 0)
(-0.0511683 -0.199461 0)
(-0.060803 -0.200449 0)
(-0.0706618 -0.201156 0)
(-0.0807253 -0.201594 0)
(-0.0909735 -0.201772 0)
(-0.101386 -0.201702 0)
(-0.111941 -0.201393 0)
(-0.122616 -0.200855 0)
(-0.133386 -0.200097 0)
(-0.144224 -0.199129 0)
(-0.1551 -0.197959 0)
(-0.16598 -0.196593 0)
(-0.176825 -0.195038 0)
(-0.18759 -0.193298 0)
(-0.19822 -0.191378 0)
(-0.208631 -0.18928 0)
(-0.218714 -0.187004 0)
(-0.22841 -0.184552 0)
(-0.237773 -0.181932 0)
(-0.246694 -0.179159 0)
(-0.253272 -0.176257 0)
(-0.253802 -0.172785 0)
(-0.247208 -0.168714 0)
(-0.237124 -0.164265 0)
(-0.22608 -0.1595 0)
(-0.214447 -0.154423 0)
(-0.202206 -0.149043 0)
(-0.189443 -0.143382 0)
(-0.176305 -0.137472 0)
(-0.162948 -0.131351 0)
(-0.149526 -0.125068 0)
(-0.136194 -0.118681 0)
(-0.123144 -0.112262 0)
(-0.110678 -0.105904 0)
(-0.0992092 -0.0997253 0)
(-0.0892 -0.0938622 0)
(-0.0810854 -0.0884549 0)
(-0.0751761 -0.0836138 0)
(-0.0715486 -0.0793756 0)
(-0.0699969 -0.0756769 0)
(-0.070098 -0.0723731 0)
(-0.0713534 -0.069294 0)
(-0.0733168 -0.0662947 0)
(-0.075652 -0.063276 0)
(-0.0781344 -0.0601803 0)
(-0.0806266 -0.0569789 0)
(-0.08305 -0.0536603 0)
(-0.0853608 -0.0502229 0)
(-0.0875338 -0.0466698 0)
(-0.0895541 -0.0430066 0)
(-0.0914117 -0.0392406 0)
(-0.0930997 -0.0353796 0)
(-0.0946124 -0.0314321 0)
(-0.0959456 -0.0274071 0)
(-0.0970955 -0.0233138 0)
(-0.0980595 -0.0191608 0)
(-0.0988342 -0.0149573 0)
(-0.0994136 -0.0107149 0)
(-0.099792 -0.0064459 0)
(-0.0999869 -0.00215545 0)
(0.0999812 -0.00304648 0)
(0.0996988 -0.00910431 0)
(0.0991406 -0.0151122 0)
(0.0982899 -0.0210544 0)
(0.0971603 -0.0269141 0)
(0.0957651 -0.0326751 0)
(0.0941162 -0.0383231 0)
(0.0922294 -0.0438457 0)
(0.0901258 -0.0492328 0)
(0.087834 -0.0544778 0)
(0.0853912 -0.0595789 0)
(0.0828446 -0.0645408 0)
(0.0802518 -0.0693761 0)
(0.077679 -0.0741069 0)
(0.0751962 -0.0787653 0)
(0.0728682 -0.0833914 0)
(0.0707423 -0.0880292 0)
(0.068835 -0.0927204 0)
(0.067122 -0.0974963 0)
(0.0655354 -0.102372 0)
(0.0639715 -0.107343 0)
(0.0623065 -0.112389 0)
(0.0604146 -0.117474 0)
(0.0581841 -0.122556 0)
(0.0555271 -0.12759 0)
(0.0523831 -0.132532 0)
(0.0487167 -0.137342 0)
(0.0445138 -0.141983 0)
(0.0397759 -0.146425 0)
(0.0345153 -0.150643 0)
(0.0287511 -0.154615 0)
(0.0225059 -0.158326 0)
(0.0158045 -0.161765 0)
(0.00867218 -0.164922 0)
(0.00113475 -0.167793 0)
(-0.00678258 -0.170376 0)
(-0.0150562 -0.172672 0)
(-0.0236642 -0.174684 0)
(-0.0325856 -0.176415 0)
(-0.0418001 -0.17787 0)
(-0.0512878 -0.179057 0)
(-0.0610291 -0.179982 0)
(-0.0710044 -0.180654 0)
(-0.0811936 -0.18108 0)
(-0.0915762 -0.181269 0)
(-0.102131 -0.18123 0)
(-0.112835 -0.180971 0)
(-0.123664 -0.1805 0)
(-0.134592 -0.179825 0)
(-0.14559 -0.178954 0)
(-0.156627 -0.177893 0)
(-0.167665 -0.176649 0)
(-0.178665 -0.175225 0)
(-0.189579 -0.173628 0)
(-0.200348 -0.171859 0)
(-0.210887 -0.169922 0)
(-0.221085 -0.167817 0)
(-0.230894 -0.165545 0)
(-0.240382 -0.163113 0)
(-0.249374 -0.160534 0)
(-0.255562 -0.157855 0)
(-0.255383 -0.154615 0)
(-0.248304 -0.150849 0)
(-0.238066 -0.146752 0)
(-0.226905 -0.14238 0)
(-0.215126 -0.137736 0)
(-0.202727 -0.132833 0)
(-0.189809 -0.127692 0)
(-0.176524 -0.122341 0)
(-0.163034 -0.116818 0)
(-0.149495 -0.111164 0)
(-0.136066 -0.105432 0)
(-0.12295 -0.0996878 0)
(-0.110463 -0.0940141 0)
(-0.0990256 -0.0885162 0)
(-0.089099 -0.0833153 0)
(-0.0811091 -0.0785333 0)
(-0.0753462 -0.0742627 0)
(-0.0718597 -0.0705281 0)
(-0.0704189 -0.0672654 0)
(-0.0705881 -0.0643425 0)
(-0.0718702 -0.0616089 0)
(-0.0738277 -0.0589393 0)
(-0.0761355 -0.056249 0)
(-0.0785781 -0.0534892 0)
(-0.0810247 -0.050636 0)
(-0.0834007 -0.0476798 0)
(-0.0856649 -0.0446195 0)
(-0.0877932 -0.0414577 0)
(-0.0897716 -0.0381996 0)
(-0.0915906 -0.0348511 0)
(-0.0932433 -0.0314194 0)
(-0.0947245 -0.0279117 0)
(-0.0960299 -0.0243359 0)
(-0.097156 -0.0207001 0)
(-0.0980999 -0.0170119 0)