/*--------------------------------*- C++ -*----------------------------------*\
  =========                 |
  \\      /  F ield         | OpenFOAM: The Open Source CFD Toolbox
   \\    /   O peration     | Website:  https://openfoam.org
    \\  /    A nd           | Version:  8
     \\/     M anipulation  |
\*---------------------------------------------------------------------------*/
FoamFile
{
    version     2.0;
    format      ascii;
    class       volScalarField;
    location    "880/fluid";
    object      CH4;
}
// * * * * * * * * * * * * * * * * * * * * * * * * * * * * * * * * * * * * * //

dimensions      [0 0 0 0 0 0 0];

internalField   nonuniform List<scalar> 
4000
(
0.999997
0.999986
0.999968
0.999938
0.999888
0.999804
0.999667
0.999442
0.999078
0.998496
0.997579
0.996156
0.993993
0.990777
0.986121
0.979577
0.970679
0.958998
0.944206
0.926128
0.904757
0.880249
0.852883
0.823025
0.79109
0.75751
0.722714
0.687114
0.651091
0.614994
0.579133
0.543778
0.509158
0.475462
0.442839
0.41141
0.381266
0.352468
0.325053
0.299039
0.274423
0.251189
0.229309
0.208747
0.189457
0.17139
0.154494
0.138712
0.12399
0.110271
0.0975007
0.0856262
0.0745969
0.0643651
0.054887
0.0461229
0.0380383
0.0307055
0.0240712
0.0178621
0.0122658
0.00729402
0.00327648
0.00229802
0.00159121
0.00108578
0.000728692
0.000479976
0.000309596
0.000195151
0.000120092
7.23675e-05
4.33804e-05
2.73058e-05
1.98831e-05
1.52586e-05
1.13161e-05
7.9551e-06
5.24653e-06
3.22215e-06
1.8394e-06
9.80806e-07
4.93059e-07
2.37448e-07
1.10988e-07
5.06564e-08
2.26744e-08
9.98629e-09
4.33855e-09
1.86317e-09
7.92269e-10
3.34058e-10
1.39821e-10
5.81264e-11
2.39891e-11
9.79955e-12
3.92595e-12
1.50167e-12
5.02159e-13
8.80509e-14
0.999997
0.999986
0.999968
0.999938
0.999887
0.999804
0.999665
0.999439
0.999074
0.998491
0.997574
0.996157
0.994007
0.990823
0.986228
0.979785
0.97104
0.959567
0.945035
0.927254
0.906197
0.881997
0.854912
0.825291
0.793537
0.760078
0.725344
0.689748
0.653681
0.617499
0.581518
0.546018
0.511233
0.47736
0.444554
0.41294
0.382613
0.353638
0.326054
0.29988
0.275115
0.251743
0.229738
0.209062
0.18967
0.171513
0.154535
0.138683
0.123898
0.110126
0.0973103
0.085397
0.0743352
0.0640764
0.0545763
0.0457946
0.0376963
0.0303573
0.0237195
0.0175054
0.0119072
0.00694335
0.00322552
0.00226007
0.00156252
0.001064
0.00071226
0.000467743
0.00030067
0.000188814
0.000115763
6.95818e-05
4.17906e-05
2.66789e-05
1.97004e-05
1.50262e-05
1.1025e-05
7.66101e-06
4.99509e-06
3.03866e-06
1.72516e-06
9.19826e-07
4.6486e-07
2.25543e-07
1.06356e-07
4.89852e-08
2.2114e-08
9.81195e-09
4.28855e-09
1.85008e-09
7.89158e-10
3.33353e-10
1.39626e-10
5.80361e-11
2.39326e-11
9.76489e-12
3.90691e-12
1.49254e-12
4.98594e-13
8.7341e-14
0.999997
0.999986
0.999968
0.999938
0.999887
0.999803
0.999664
0.999438
0.999072
0.998488
0.997572
0.996158
0.99402
0.990861
0.98631
0.979943
0.971313
0.960002
0.94568
0.928154
0.907386
0.883491
0.856709
0.827371
0.795866
0.762609
0.728024
0.69252
0.656489
0.62029
0.584246
0.54864
0.513717
0.479678
0.446688
0.414876
0.384343
0.355159
0.327369
0.300993
0.276035
0.252481
0.230305
0.209471
0.189934
0.171643
0.154547
0.138589
0.123712
0.109858
0.0969715
0.0849978
0.0738847
0.0635832
0.0540483
0.045239
0.03712
0.029775
0.0231341
0.0169234
0.0113434
0.0063893
0.00318514
0.00221982
0.00152669
0.00103419
0.000688631
0.000449755
0.000287487
0.000179529
0.000109528
6.56775e-05
3.9662e-05
2.59338e-05
1.94175e-05
1.46987e-05
1.067e-05
7.33551e-06
4.73704e-06
2.86068e-06
1.61757e-06
8.61938e-07
4.36612e-07
2.12581e-07
1.00693e-07
4.66076e-08
2.11487e-08
9.43054e-09
4.14093e-09
1.79371e-09
7.67752e-10
3.252e-10
1.36487e-10
5.68071e-11
2.34428e-11
9.56735e-12
3.82749e-12
1.46175e-12
4.88081e-13
8.54088e-14
0.999997
0.999986
0.999968
0.999938
0.999887
0.999803
0.999665
0.999439
0.999075
0.998496
0.997588
0.996188
0.994074
0.990952
0.986461
0.98018
0.971668
0.960511
0.946378
0.92907
0.908541
0.884893
0.858355
0.829247
0.797947
0.764863
0.730412
0.695
0.659016
0.622821
0.586738
0.551057
0.516024
0.481848
0.448698
0.416709
0.385988
0.356609
0.328621
0.302049
0.276899
0.253161
0.230809
0.209811
0.190119
0.171688
0.154466
0.138394
0.123416
0.109473
0.0965096
0.0844696
0.0733008
0.0629533
0.0533814
0.0445437
0.0364043
0.0290645
0.0224365
0.0162337
0.0106516
0.00571558
0.00314601
0.00217856
0.00148841
0.00100149
0.00066236
0.00042968
0.000272828
0.000169302
0.000102756
6.15145e-05
3.74563e-05
2.52028e-05
1.90338e-05
1.42801e-05
1.02514e-05
6.9679e-06
4.45136e-06
2.66399e-06
1.49697e-06
7.95256e-07
4.02782e-07
1.9648e-07
9.33484e-08
4.3366e-08
1.97555e-08
8.84488e-09
3.89921e-09
1.69541e-09
7.28207e-10
3.09412e-10
1.30212e-10
5.43187e-11
2.24572e-11
9.17835e-12
3.67585e-12
1.40482e-12
4.69144e-13
8.21051e-14
0.999997
0.999986
0.999968
0.999938
0.999888
0.999804
0.999667
0.999442
0.999081
0.998506
0.997605
0.996219
0.994126
0.991038
0.986597
0.98039
0.971979
0.960953
0.94698
0.929857
0.909528
0.886089
0.859756
0.830842
0.799715
0.766777
0.732439
0.697106
0.661164
0.624974
0.588861
0.553117
0.517992
0.4837
0.450412
0.41827
0.387382
0.357829
0.329664
0.302915
0.27759
0.253681
0.231168
0.210013
0.190179
0.171618
0.154276
0.138096
0.123022
0.108995
0.0959592
0.083858
0.0726384
0.06225
0.0526461
0.0437844
0.0356393
0.0283271
0.021698
0.0154864
0.00991939
0.0050437
0.00310573
0.00213063
0.00144298
0.000963022
0.000632051
0.000407066
0.000256723
0.000158338
9.56611e-05
5.72389e-05
3.52587e-05
2.45253e-05
1.85541e-05
1.37906e-05
9.80129e-06
6.59759e-06
4.17822e-06
2.48354e-06
1.38968e-06
7.37092e-07
3.73554e-07
1.82589e-07
8.69811e-08
4.05269e-08
1.85167e-08
8.31355e-09
3.67448e-09
1.60141e-09
6.89247e-10
2.93377e-10
1.23649e-10
5.16444e-11
2.13728e-11
8.74187e-12
3.50304e-12
1.33921e-12
4.47185e-13
7.82505e-14
0.999997
0.999986
0.999968
0.999938
0.999888
0.999806
0.999669
0.999447
0.999089
0.998519
0.997627
0.996255
0.994185
0.991132
0.986741
0.980602
0.972283
0.961371
0.947534
0.930563
0.910399
0.887126
0.860958
0.832195
0.801203
0.768378
0.734126
0.698851
0.662937
0.626745
0.590602
0.554801
0.519595
0.4852
0.451792
0.419516
0.388483
0.358779
0.330459
0.303553
0.278075
0.254017
0.231357
0.210068
0.19011
0.171433
0.153985
0.137711
0.122553
0.108454
0.0953563
0.0832046
0.0719451
0.061527
0.0519033
0.0430355
0.0348809
0.0275785
0.0209375
0.0147358
0.00918802
0.00437214
0.00299158
0.00203181
0.00136557
0.000905734
0.00059131
0.000379029
0.000238021
0.000146271
8.8184e-05
5.28661e-05
3.29941e-05
2.35239e-05
1.78597e-05
1.32102e-05
9.33066e-06
6.23872e-06
3.92523e-06
2.32036e-06
1.29339e-06
6.84626e-07
3.468e-07
1.69668e-07
8.09493e-08
3.77875e-08
1.73006e-08
7.7841e-09
3.44771e-09
1.50561e-09
6.49236e-10
2.7682e-10
1.16848e-10
4.88677e-11
2.02458e-11
8.28818e-12
3.32343e-12
1.27103e-12
4.24406e-13
7.42373e-14
0.999997
0.999986
0.999969
0.999939
0.999889
0.999807
0.999672
0.999451
0.999096
0.998532
0.997649
0.99629
0.994241
0.991218
0.986872
0.980794
0.972553
0.96174
0.948018
0.931176
0.911147
0.888012
0.861975
0.833334
0.802447
0.769707
0.735518
0.700282
0.664383
0.62818
0.592003
0.556146
0.520865
0.486377
0.452864
0.420469
0.389311
0.359475
0.33102
0.30398
0.278368
0.25418
0.2314
0.209997
0.189931
0.171155
0.153618
0.137264
0.122036
0.107878
0.0947313
0.0825408
0.0712533
0.0608185
0.0511907
0.0423243
0.0341778
0.0269546
0.0201686
0.0140278
0.00853287
0.00377836
0.00264027
0.00181823
0.00123317
0.000822706
0.000539049
0.000346256
0.000217697
0.000133915
8.09107e-05
4.88281e-05
3.10418e-05
2.26371e-05
1.72301e-05
1.27059e-05
8.93653e-06
5.94516e-06
3.7213e-06
2.18996e-06
1.21674e-06
6.42827e-07
3.2538e-07
1.5924e-07
7.60295e-08
3.55244e-08
1.62817e-08
7.3337e-09
3.25182e-09
1.42161e-09
6.13649e-10
2.61902e-10
1.10649e-10
4.63119e-11
1.91998e-11
7.86426e-12
3.15465e-12
1.20655e-12
4.03144e-13
7.04708e-14
0.999997
0.999986
0.999969
0.999939
0.99989
0.999809
0.999675
0.999456
0.999104
0.998545
0.99767
0.996324
0.994294
0.991299
0.986992
0.980968
0.972796
0.962066
0.948442
0.931706
0.911789
0.888764
0.862831
0.834284
0.803477
0.770799
0.736655
0.701442
0.665545
0.629326
0.593112
0.557201
0.521849
0.487278
0.45367
0.421172
0.389903
0.359954
0.331383
0.304228
0.278502
0.254207
0.231325
0.209825
0.189669
0.170811
0.1532
0.136781
0.121498
0.107292
0.0941067
0.0818857
0.0705753
0.0601245
0.0504858
0.0416159
0.0335164
0.0263223
0.0195656
0.0134853
0.00808684
0.00348365
0.0024305
0.00167414
0.00113652
0.00075909
0.000497896
0.000320119
0.000201451
0.000124096
7.52195e-05
4.5783e-05
2.97238e-05
2.20992e-05
1.68444e-05
1.23833e-05
8.67011e-06
5.73855e-06
3.57298e-06
2.09245e-06
1.158e-06
6.1007e-07
3.08229e-07
1.50738e-07
7.1951e-08
3.36203e-08
1.5413e-08
6.94539e-09
3.08128e-09
1.34788e-09
5.82198e-10
2.48641e-10
1.05114e-10
4.40209e-11
1.82595e-11
7.48222e-12
3.00225e-12
1.14822e-12
3.83951e-13
6.70666e-14
0.999997
0.999987
0.999969
0.99994
0.999891
0.99981
0.999677
0.99946
0.999111
0.998557
0.997689
0.996355
0.994342
0.991372
0.987099
0.981121
0.973008
0.962349
0.948806
0.932159
0.912332
0.889396
0.863547
0.835072
0.804325
0.771692
0.737576
0.702375
0.666472
0.63023
0.593979
0.558015
0.522598
0.487952
0.454259
0.42167
0.390306
0.360259
0.331589
0.304335
0.278517
0.254132
0.231164
0.209584
0.189354
0.17043
0.152759
0.136289
0.120961
0.106719
0.0935056
0.0812638
0.0699403
0.0594843
0.0498494
0.0409938
0.0329344
0.0257622
0.0190361
0.0130008
0.00766566
0.00330404
0.00230431
0.00158653
0.00107666
0.000718933
0.000471497
0.000303159
0.000190854
0.00011772
7.16179e-05
4.40088e-05
2.91711e-05
2.19672e-05
1.67271e-05
1.22548e-05
8.53714e-06
5.6156e-06
3.47523e-06
2.02413e-06
1.11515e-06
5.85471e-07
2.95053e-07
1.44089e-07
6.87116e-08
3.20867e-08
1.47047e-08
6.62511e-09
2.9392e-09
1.28588e-09
5.55545e-10
2.37327e-10
1.00363e-10
4.20452e-11
1.74453e-11
7.15041e-12
2.86956e-12
1.09732e-12
3.67202e-13
6.4099e-14
0.999997
0.999987
0.999969
0.99994
0.999892
0.999811
0.999679
0.999464
0.999118
0.998568
0.997707
0.996382
0.994384
0.991436
0.987193
0.981254
0.973191
0.962592
0.949116
0.932542
0.912789
0.889925
0.86414
0.835721
0.805018
0.772416
0.738317
0.703118
0.667204
0.630937
0.594647
0.558633
0.523157
0.488443
0.454675
0.422007
0.390561
0.36043
0.331676
0.304343
0.278446
0.253985
0.230946
0.2093
0.189011
0.170033
0.152316
0.135805
0.120444
0.106175
0.0929403
0.080684
0.069352
0.0588933
0.0492609
0.0404126
0.0323812
0.0252312
0.0185177
0.0124913
0.00715547
0.00322265
0.00224395
0.00154295
0.00104595
0.000697824
0.000457361
0.000293966
0.000185089
0.000114292
6.97756e-05
4.32664e-05
2.92153e-05
2.21615e-05
1.68197e-05
1.22612e-05
8.49756e-06
5.55793e-06
3.41718e-06
1.97866e-06
1.08477e-06
5.67294e-07
2.85024e-07
1.38924e-07
6.61531e-08
3.08589e-08
1.4131e-08
6.36326e-09
2.82208e-09
1.23444e-09
5.33297e-10
2.27836e-10
9.63619e-11
4.03756e-11
1.67554e-11
6.86865e-12
2.75665e-12
1.05407e-12
3.52974e-13
6.15722e-14
0.999997
0.999987
0.99997
0.999941
0.999893
0.999813
0.999682
0.999468
0.999124
0.998577
0.997722
0.996406
0.994421
0.991491
0.987274
0.981368
0.973347
0.962798
0.949378
0.932863
0.91317
0.890362
0.864628
0.836251
0.80558
0.772999
0.738909
0.703707
0.667777
0.631483
0.595156
0.559096
0.523566
0.488791
0.454959
0.422222
0.390706
0.360503
0.331681
0.304279
0.278316
0.253793
0.230696
0.208997
0.18866
0.16964
0.151886
0.135345
0.119958
0.105669
0.0924201
0.0801543
0.0688174
0.058358
0.0487283
0.0398863
0.0318707
0.0247329
0.0180364
0.0120283
0.00671276
0.00318956
0.00221839
0.00152407
0.00103254
0.000688621
0.000451281
0.000290115
0.000182785
0.000113039
6.92387e-05
4.32599e-05
2.96829e-05
2.26128e-05
1.70949e-05
1.23947e-05
8.53662e-06
5.54779e-06
3.39073e-06
1.9514e-06
1.0644e-06
5.54364e-07
2.77617e-07
1.35017e-07
6.41819e-08
2.98989e-08
1.36771e-08
6.15396e-09
2.72768e-09
1.19268e-09
5.1513e-10
2.20049e-10
9.30658e-11
3.89959e-11
1.61839e-11
6.63471e-12
2.66272e-12
1.01811e-12
3.41155e-13
5.94654e-14
0.999997
0.999987
0.99997
0.999941
0.999893
0.999814
0.999683
0.999471
0.999129
0.998586
0.997735
0.996427
0.994453
0.991539
0.987342
0.981465
0.973479
0.96297
0.949597
0.93313
0.913485
0.890721
0.865026
0.836681
0.806033
0.773465
0.739377
0.704168
0.668221
0.6319
0.595539
0.559437
0.523859
0.489031
0.455142
0.422347
0.39077
0.360508
0.331628
0.304169
0.278152
0.253579
0.230435
0.208693
0.188318
0.169265
0.151483
0.134918
0.119513
0.10521
0.0919515
0.0796805
0.0683425
0.0578861
0.0482656
0.0394373
0.0314353
0.0243092
0.017624
0.0116294
0.00632763
0.00316766
0.00220433
0.00151517
0.00102708
0.00068541
0.000449492
0.000289216
0.00018244
0.000113054
6.95236e-05
4.37978e-05
3.05129e-05
2.32761e-05
1.75136e-05
1.26252e-05
8.6404e-06
5.57773e-06
3.38696e-06
1.93856e-06
1.05196e-06
5.45621e-07
2.72334e-07
1.32141e-07
6.26981e-08
2.91642e-08
1.33251e-08
5.99002e-09
2.65313e-09
1.15946e-09
5.00602e-10
2.13792e-10
9.04073e-11
3.78798e-11
1.57204e-11
6.44473e-12
2.58639e-12
9.88841e-13
3.31549e-13
5.77461e-14
0.999997
0.999987
0.99997
0.999941
0.999894
0.999815
0.999685
0.999474
0.999133
0.998593
0.997746
0.996444
0.994479
0.991578
0.9874
0.981546
0.973588
0.963114
0.949777
0.933349
0.913742
0.891014
0.865349
0.837027
0.806394
0.773834
0.739745
0.704526
0.668562
0.632216
0.595823
0.559683
0.524063
0.489189
0.455252
0.422407
0.39078
0.360469
0.331539
0.304034
0.277973
0.253358
0.230177
0.208402
0.187998
0.168919
0.151115
0.134533
0.119114
0.104802
0.0915375
0.0792644
0.0679287
0.0574791
0.0478653
0.0390404
0.0310522
0.0239415
0.0172705
0.0112903
0.00600231
0.0031493
0.00219485
0.00151087
0.00102564
0.000685443
0.000450213
0.000290184
0.000183433
0.000113994
7.04212e-05
4.47276e-05
3.15922e-05
2.40774e-05
1.80236e-05
1.29179e-05
8.78635e-06
5.63607e-06
3.40133e-06
1.93607e-06
1.04595e-06
5.40322e-07
2.68808e-07
1.30134e-07
6.16313e-08
2.86244e-08
1.30623e-08
5.86597e-09
2.59612e-09
1.13385e-09
4.89319e-10
2.08904e-10
8.83207e-11
3.70003e-11
1.53541e-11
6.29427e-12
2.5259e-12
9.65596e-13
3.23943e-13
5.63772e-14
0.999997
0.999987
0.99997
0.999942
0.999894
0.999815
0.999686
0.999476
0.999137
0.998599
0.997756
0.996459
0.994502
0.991611
0.987448
0.981613
0.973678
0.963231
0.949924
0.933527
0.91395
0.891249
0.865607
0.837302
0.80668
0.774124
0.740031
0.704802
0.668821
0.632452
0.59603
0.559858
0.524201
0.489288
0.45531
0.422424
0.390756
0.360403
0.331434
0.30389
0.277794
0.253146
0.229935
0.208134
0.187706
0.168608
0.150788
0.134193
0.118765
0.104447
0.0911811
0.0789104
0.0675792
0.0571321
0.0475209
0.0387044
0.0307304
0.0236323
0.0169734
0.0110053
0.00573154
0.00313391
0.00218855
0.00150959
0.00102688
0.000687728
0.000452719
0.0002925
0.000185401
0.000115602
7.17406e-05
4.58763e-05
3.26932e-05
2.49001e-05
1.85618e-05
1.32384e-05
8.95608e-06
5.71287e-06
3.42886e-06
1.94198e-06
1.04471e-06
5.37902e-07
2.66788e-07
1.2888e-07
6.09253e-08
2.82533e-08
1.28765e-08
5.7765e-09
2.55434e-09
1.11485e-09
4.80864e-10
2.05212e-10
8.67345e-11
3.63282e-11
1.50728e-11
6.17867e-12
2.47925e-12
9.47663e-13
3.18103e-13
5.53199e-14
0.999997
0.999987
0.99997
0.999942
0.999894
0.999816
0.999687
0.999478
0.99914
0.998603
0.997764
0.996471
0.99452
0.991638
0.987486
0.981667
0.973751
0.963325
0.950043
0.93367
0.914117
0.891437
0.865811
0.837519
0.806904
0.774348
0.740251
0.705011
0.669014
0.632625
0.596179
0.559979
0.524292
0.489346
0.455334
0.422414
0.390711
0.360325
0.331324
0.30375
0.277625
0.252952
0.229717
0.207896
0.18745
0.168337
0.150506
0.133902
0.11847
0.10415
0.0908841
0.0786126
0.0672803
0.0568368
0.0472331
0.0384251
0.030464
0.0233763
0.0167266
0.0107669
0.0055136
0.00312137
0.00218505
0.00151086
0.00103032
0.00069183
0.000456664
0.000295912
0.000188171
0.000117769
7.34247e-05
4.72325e-05
3.38598e-05
2.57629e-05
1.91343e-05
1.35875e-05
9.14847e-06
5.80657e-06
3.46813e-06
1.95544e-06
1.04781e-06
5.37699e-07
2.66002e-07
1.28242e-07
6.05237e-08
2.80249e-08
1.27559e-08
5.71624e-09
2.52546e-09
1.10145e-09
4.74808e-10
2.02536e-10
8.55734e-11
3.58325e-11
1.48642e-11
6.0928e-12
2.44443e-12
9.34244e-13
3.13758e-13
5.45267e-14
0.999997
0.999987
0.99997
0.999942
0.999895
0.999817
0.999688
0.999479
0.999142
0.998607
0.99777
0.996481
0.994534
0.99166
0.987517
0.981709
0.973809
0.9634
0.950136
0.933782
0.914246
0.891582
0.865969
0.837686
0.807075
0.774519
0.740417
0.705168
0.669157
0.632751
0.596284
0.560061
0.524349
0.489377
0.455338
0.42239
0.39066
0.360247
0.33122
0.303622
0.277476
0.252782
0.22953
0.207693
0.187235
0.168112
0.150273
0.133665
0.118229
0.103905
0.0906358
0.0783649
0.0670366
0.0565984
0.0470012
0.0382007
0.0302503
0.0231714
0.0165294
0.0105763
0.00533947
0.00311121
0.00218392
0.00151431
0.00103565
0.000697498
0.000461856
0.000300282
0.000191648
0.000120439
7.54463e-05
4.87943e-05
3.51292e-05
2.66868e-05
1.97502e-05
1.39681e-05
9.3634e-06
5.91596e-06
3.51781e-06
1.9754e-06
1.05473e-06
5.39584e-07
2.66225e-07
1.2808e-07
6.034e-08
2.79024e-08
1.26857e-08
5.67895e-09
2.50682e-09
1.09252e-09
4.70685e-10
2.00683e-10
8.476e-11
3.5482e-11
1.47155e-11
6.03185e-12
2.41953e-12
9.2462e-13
3.10646e-13
5.39546e-14
0.999997
0.999987
0.99997
0.999942
0.999895
0.999817
0.999689
0.99948
0.999144
0.99861
0.997774
0.996488
0.994545
0.991676
0.987541
0.981742
0.973853
0.963457
0.950207
0.933867
0.914345
0.891692
0.866088
0.837811
0.807202
0.774645
0.740539
0.705282
0.66926
0.63284
0.596357
0.560116
0.524384
0.489392
0.455332
0.422362
0.390612
0.360179
0.331132
0.303517
0.277353
0.252645
0.22938
0.207532
0.187065
0.167935
0.150089
0.133475
0.118034
0.103709
0.0904408
0.0781723
0.0668477
0.0564142
0.0468228
0.0380287
0.0300865
0.0230146
0.0163783
0.0104295
0.00520367
0.00310313
0.00218487
0.00151968
0.00104265
0.000704552
0.000468156
0.000305507
0.000195763
0.000123563
7.77758e-05
5.05454e-05
3.64892e-05
2.76615e-05
2.03993e-05
1.43712e-05
9.59405e-06
6.03627e-06
3.57474e-06
1.99987e-06
1.06429e-06
5.42925e-07
2.67214e-07
1.28303e-07
6.03444e-08
2.7864e-08
1.2653e-08
5.65896e-09
2.49604e-09
1.08711e-09
4.68104e-10
1.99494e-10
8.42304e-11
3.52497e-11
1.46188e-11
5.99119e-12
2.40289e-12
9.18166e-13
3.08564e-13
5.35682e-14
0.999997
0.999987
0.99997
0.999942
0.999895
0.999817
0.999689
0.999481
0.999146
0.998612
0.997778
0.996493
0.994554
0.991688
0.987558
0.981766
0.973885
0.963498
0.950258
0.933929
0.914416
0.891771
0.866173
0.8379
0.807293
0.774735
0.740624
0.705361
0.669331
0.6329
0.596405
0.560151
0.524404
0.489397
0.455321
0.422337
0.390571
0.360124
0.331064
0.303436
0.277261
0.252542
0.229267
0.207411
0.186936
0.167799
0.149949
0.133332
0.11789
0.103565
0.0902987
0.0780326
0.0667114
0.0562821
0.0466953
0.0379063
0.0299699
0.0229031
0.0162704
0.0103235
0.00510352
0.0030969
0.00218765
0.0015267
0.00105103
0.0007127
0.000475294
0.000311353
0.000200323
0.000126996
8.03023e-05
5.2401e-05
3.7875e-05
2.86375e-05
2.10446e-05
1.47709e-05
9.8235e-06
6.15726e-06
3.63317e-06
2.02577e-06
1.07488e-06
5.46922e-07
2.68591e-07
1.28743e-07
6.04649e-08
2.7884e-08
1.26496e-08
5.65229e-09
2.4916e-09
1.08446e-09
4.66833e-10
1.98852e-10
8.39528e-11
3.51196e-11
1.45644e-11
5.96778e-12
2.39312e-12
9.14328e-13
3.07324e-13
5.33343e-14
0.999997
0.999987
0.99997
0.999942
0.999895
0.999818
0.99969
0.999482
0.999146
0.998614
0.99778
0.996497
0.994559
0.991696
0.987569
0.981782
0.973905
0.963525
0.950291
0.933968
0.914461
0.891822
0.866228
0.837957
0.80735
0.774791
0.740678
0.705411
0.669375
0.632937
0.596434
0.560171
0.524415
0.489397
0.455312
0.422317
0.390542
0.360085
0.331016
0.303379
0.277196
0.25247
0.229189
0.207328
0.186849
0.167709
0.149857
0.133239
0.117797
0.103473
0.0902077
0.0779437
0.0666253
0.0561992
0.0466162
0.037831
0.0298982
0.0228347
0.0162037
0.0102563
0.00503715
0.00309243
0.00219218
0.00153509
0.00106039
0.000721492
0.000482833
0.000317435
0.000205012
0.000130486
8.28331e-05
5.42092e-05
3.91613e-05
2.9515e-05
2.16126e-05
1.51175e-05
1.00207e-05
6.26095e-06
3.68343e-06
2.04826e-06
1.0842e-06
5.50534e-07
2.69896e-07
1.2919e-07
6.06327e-08
2.79291e-08
1.26645e-08
5.65385e-09
2.49157e-09
1.08374e-09
4.66437e-10
1.98594e-10
8.38347e-11
3.50589e-11
1.45385e-11
5.95632e-12
2.38818e-12
9.12354e-13
3.0669e-13
5.32108e-14
0.999997
0.999987
0.99997
0.999942
0.999895
0.999818
0.99969
0.999482
0.999147
0.998615
0.997781
0.996498
0.994561
0.9917
0.987574
0.981789
0.973915
0.963537
0.950307
0.933987
0.914483
0.891846
0.866254
0.837984
0.807378
0.774818
0.740704
0.705434
0.669396
0.632955
0.596448
0.56018
0.524419
0.489397
0.455307
0.422307
0.390527
0.360065
0.330992
0.303351
0.277164
0.252435
0.229152
0.207288
0.186807
0.167666
0.149813
0.133195
0.117753
0.103429
0.090165
0.0779025
0.0665858
0.0561618
0.0465809
0.037798
0.0298675
0.0228057
0.0161752
0.0102263
0.00500469
0.00309427
0.002199
0.00154353
0.00106868
0.000728814
0.000488883
0.000322202
0.000208631
0.000133147
8.4737e-05
5.55312e-05
4.004e-05
3.00819e-05
2.19648e-05
1.53258e-05
1.01364e-05
6.3208e-06
3.71217e-06
2.06109e-06
1.08954e-06
5.52619e-07
2.70661e-07
1.29463e-07
6.07378e-08
2.79609e-08
1.26758e-08
5.65639e-09
2.49228e-09
1.08369e-09
4.66365e-10
1.98518e-10
8.37956e-11
3.5037e-11
1.45288e-11
5.95195e-12
2.38623e-12
9.11559e-13
3.06437e-13
5.31604e-14
0.999997
0.999987
0.99997
0.999942
0.999895
0.999818
0.99969
0.999482
0.999147
0.998615
0.997781
0.996498
0.994561
0.9917
0.987574
0.981789
0.973915
0.963537
0.950307
0.933987
0.914483
0.891846
0.866254
0.837983
0.807378
0.774818
0.740704
0.705434
0.669396
0.632955
0.596448
0.56018
0.524419
0.489397
0.455307
0.422307
0.390527
0.360065
0.330992
0.303351
0.277164
0.252435
0.229152
0.207288
0.186807
0.167666
0.149813
0.133195
0.117753
0.103429
0.0901653
0.0779028
0.0665861
0.0561622
0.0465814
0.0377986
0.0298683
0.0228066
0.0161763
0.0102276
0.00500649
0.00309511
0.00219944
0.00154377
0.00106883
0.000728899
0.000488933
0.000322231
0.000208646
0.000133154
8.474e-05
5.55321e-05
4.004e-05
3.00817e-05
2.19647e-05
1.53258e-05
1.01364e-05
6.32085e-06
3.71221e-06
2.06112e-06
1.08956e-06
5.52627e-07
2.70666e-07
1.29466e-07
6.07378e-08
2.79614e-08
1.26757e-08
5.65646e-09
2.49225e-09
1.0837e-09
4.66355e-10
1.98519e-10
8.37929e-11
3.5037e-11
1.45283e-11
5.95199e-12
2.38624e-12
9.11569e-13
3.06433e-13
5.31608e-14
0.999997
0.999987
0.99997
0.999942
0.999895
0.999817
0.99969
0.999482
0.999146
0.998614
0.99778
0.996497
0.994559
0.991696
0.987569
0.981781
0.973905
0.963525
0.950291
0.933968
0.914461
0.891821
0.866228
0.837956
0.80735
0.774791
0.740678
0.70541
0.669375
0.632937
0.596434
0.560171
0.524415
0.489397
0.455312
0.422317
0.390541
0.360085
0.331016
0.303379
0.277196
0.25247
0.22919
0.207328
0.186849
0.167709
0.149857
0.133239
0.117797
0.103473
0.0902082
0.0779443
0.0666259
0.0562
0.0466171
0.037832
0.0298996
0.0228362
0.0162055
0.0102583
0.00503929
0.00309366
0.00219283
0.00153541
0.00106054
0.000721555
0.000482852
0.000317434
0.000205005
0.000130478
8.28266e-05
5.42047e-05
3.91586e-05
2.95136e-05
2.1612e-05
1.51174e-05
1.00208e-05
6.26112e-06
3.68356e-06
2.04834e-06
1.08425e-06
5.50557e-07
2.69909e-07
1.29199e-07
6.06331e-08
2.79305e-08
1.26643e-08
5.65404e-09
2.49149e-09
1.08377e-09
4.66412e-10
1.98598e-10
8.38277e-11
3.50595e-11
1.45375e-11
5.95649e-12
2.38821e-12
9.12384e-13
3.06679e-13
5.32123e-14
0.999997
0.999987
0.99997
0.999942
0.999895
0.999817
0.999689
0.999481
0.999146
0.998612
0.997778
0.996493
0.994553
0.991688
0.987558
0.981766
0.973884
0.963498
0.950258
0.933928
0.914415
0.891771
0.866173
0.837899
0.807292
0.774734
0.740624
0.70536
0.669331
0.6329
0.596405
0.56015
0.524404
0.489396
0.455321
0.422336
0.390571
0.360124
0.331064
0.303436
0.277261
0.252542
0.229267
0.207411
0.186936
0.167799
0.149949
0.133332
0.117891
0.103566
0.0902993
0.0780333
0.0667122
0.056283
0.0466963
0.0379074
0.0299712
0.0229045
0.0162719
0.0103249
0.00510483
0.00309779
0.00218822
0.00152705
0.00105125
0.000712833
0.000475371
0.000311396
0.000200345
0.000127006
8.03067e-05
5.2402e-05
3.78743e-05
2.86367e-05
2.10441e-05
1.47709e-05
9.82368e-06
6.15748e-06
3.63334e-06
2.02588e-06
1.07494e-06
5.46954e-07
2.68608e-07
1.28751e-07
6.04681e-08
2.78858e-08
1.26501e-08
5.65261e-09
2.49166e-09
1.08452e-09
4.66823e-10
1.9886e-10
8.39473e-11
3.51199e-11
1.45633e-11
5.96802e-12
2.39317e-12
9.14379e-13
3.07308e-13
5.33363e-14
0.999997
0.999987
0.99997
0.999942
0.999895
0.999817
0.999689
0.99948
0.999144
0.99861
0.997774
0.996488
0.994545
0.991676
0.987541
0.981742
0.973852
0.963457
0.950207
0.933867
0.914344
0.891692
0.866088
0.83781
0.807202
0.774645
0.740538
0.705281
0.66926
0.632839
0.596357
0.560115
0.524384
0.489391
0.455331
0.422362
0.390612
0.360179
0.331132
0.303516
0.277353
0.252645
0.22938
0.207532
0.187065
0.167935
0.15009
0.133475
0.118034
0.103709
0.0904412
0.0781728
0.0668483
0.0564149
0.0468235
0.0380294
0.0300873
0.0230154
0.0163791
0.0104302
0.0052043
0.00310361
0.00218519
0.00151988
0.00104278
0.000704618
0.000468187
0.000305517
0.000195762
0.000123559
7.77704e-05
5.05408e-05
3.64861e-05
2.76599e-05
2.03987e-05
1.43712e-05
9.59434e-06
6.03657e-06
3.57496e-06
2.00001e-06
1.06437e-06
5.42964e-07
2.67233e-07
1.28312e-07
6.03488e-08
2.7866e-08
1.26539e-08
5.65931e-09
2.49618e-09
1.08716e-09
4.68124e-10
1.99502e-10
8.4233e-11
3.52507e-11
1.46186e-11
5.99152e-12
2.40296e-12
9.18234e-13
3.08543e-13
5.3572e-14
0.999997
0.999987
0.99997
0.999942
0.999895
0.999817
0.999688
0.999479
0.999142
0.998607
0.99777
0.99648
0.994534
0.99166
0.987517
0.981709
0.973808
0.9634
0.950135
0.933781
0.914246
0.891581
0.865968
0.837685
0.807074
0.774518
0.740416
0.705167
0.669157
0.63275
0.596284
0.560061
0.524348
0.489377
0.455338
0.422389
0.39066
0.360247
0.33122
0.303622
0.277475
0.252782
0.22953
0.207693
0.187235
0.168112
0.150273
0.133665
0.118229
0.103905
0.0906361
0.0783652
0.067037
0.0565987
0.0470016
0.0382012
0.0302507
0.0231718
0.0165298
0.0105767
0.00533973
0.00311142
0.00218407
0.00151441
0.00103571
0.000697533
0.000461874
0.00030029
0.000191651
0.000120439
7.54455e-05
4.87932e-05
3.51282e-05
2.66864e-05
1.97503e-05
1.39685e-05
9.36385e-06
5.91633e-06
3.51806e-06
1.97555e-06
1.05481e-06
5.39626e-07
2.66246e-07
1.2809e-07
6.03448e-08
2.79046e-08
1.26867e-08
5.67935e-09
2.50698e-09
1.09259e-09
4.70711e-10
2.00694e-10
8.4764e-11
3.54834e-11
1.47162e-11
6.03209e-12
2.4196e-12
9.24699e-13
3.1062e-13
5.39601e-14
0.999997
0.999987
0.99997
0.999942
0.999894
0.999816
0.999687
0.999478
0.99914
0.998603
0.997763
0.996471
0.99452
0.991638
0.987486
0.981666
0.97375
0.963325
0.950042
0.933669
0.914116
0.891436
0.86581
0.837518
0.806902
0.774347
0.74025
0.70501
0.669013
0.632624
0.596178
0.559978
0.524291
0.489346
0.455334
0.422413
0.390711
0.360325
0.331323
0.30375
0.277625
0.252952
0.229717
0.207896
0.18745
0.168337
0.150506
0.133902
0.11847
0.10415
0.0908843
0.0786128
0.0672805
0.056837
0.0472333
0.0384254
0.0304642
0.0233765
0.0167268
0.010767
0.00551371
0.00312146
0.00218511
0.0015109
0.00103034
0.00069184
0.000456667
0.000295912
0.000188169
0.000117767
7.34226e-05
4.72309e-05
3.38586e-05
2.57625e-05
1.91346e-05
1.3588e-05
9.14898e-06
5.80696e-06
3.46838e-06
1.95559e-06
1.04789e-06
5.37741e-07
2.66023e-07
1.28252e-07
6.05286e-08
2.80271e-08
1.27569e-08
5.71666e-09
2.52563e-09
1.10152e-09
4.74836e-10
2.02547e-10
8.55781e-11
3.58343e-11
1.4865e-11
6.0931e-12
2.44451e-12
9.34337e-13
3.13732e-13
5.45329e-14
0.999997
0.999987
0.99997
0.999942
0.999894
0.999815
0.999686
0.999476
0.999137
0.998599
0.997756
0.996459
0.994501
0.991611
0.987447
0.981612
0.973678
0.96323
0.949924
0.933526
0.913949
0.891248
0.865606
0.837301
0.806679
0.774122
0.74003
0.7048
0.668819
0.63245
0.596029
0.559857
0.5242
0.489288
0.45531
0.422423
0.390755
0.360402
0.331433
0.30389
0.277793
0.253146
0.229935
0.208134
0.187706
0.168608
0.150788
0.134193
0.118765
0.104447
0.0911812
0.0789106
0.0675794
0.0571322
0.047521
0.0387045
0.0307305
0.0236324
0.0169734
0.0110053
0.0057316
0.00313394
0.00218857
0.0015096
0.00102688
0.000687727
0.000452717
0.000292497
0.000185399
0.0001156
7.17391e-05
4.58753e-05
3.26926e-05
2.49002e-05
1.85623e-05
1.3239e-05
8.95659e-06
5.71324e-06
3.42909e-06
1.94212e-06
1.04479e-06
5.37943e-07
2.66809e-07
1.2889e-07
6.09301e-08
2.82555e-08
1.28775e-08
5.77692e-09
2.55452e-09
1.11493e-09
4.80896e-10
2.05226e-10
8.67399e-11
3.63304e-11
1.50738e-11
6.17911e-12
2.47936e-12
9.47777e-13
3.18082e-13
5.53271e-14
0.999997
0.999987
0.99997
0.999941
0.999894
0.999815
0.999685
0.999474
0.999133
0.998593
0.997746
0.996444
0.994479
0.991578
0.9874
0.981545
0.973587
0.963113
0.949776
0.933348
0.913741
0.891013
0.865347
0.837025
0.806393
0.773833
0.739744
0.704525
0.66856
0.632215
0.595821
0.559682
0.524062
0.489188
0.455251
0.422406
0.390779
0.360468
0.331539
0.304033
0.277973
0.253358
0.230177
0.208402
0.187997
0.168919
0.151115
0.134533
0.119114
0.104802
0.0915375
0.0792644
0.0679287
0.057479
0.0478652
0.0390402
0.0310519
0.0239414
0.0172704
0.0112903
0.00600234
0.00314932
0.00219486
0.00151088
0.00102564
0.000685448
0.000450216
0.000290185
0.000183434
0.000113994
7.04209e-05
4.47273e-05
3.15917e-05
2.40775e-05
1.8024e-05
1.29183e-05
8.78677e-06
5.63638e-06
3.40153e-06
1.93619e-06
1.04602e-06
5.4036e-07
2.68828e-07
1.30144e-07
6.16359e-08
2.86265e-08
1.30632e-08
5.8664e-09
2.59631e-09
1.13394e-09
4.89354e-10
2.08919e-10
8.8327e-11
3.70029e-11
1.53552e-11
6.29476e-12
2.52607e-12
9.65724e-13
3.23925e-13
5.63846e-14
0.999997
0.999987
0.99997
0.999941
0.999893
0.999814
0.999683
0.999471
0.999129
0.998586
0.997735
0.996427
0.994452
0.991538
0.987342
0.981465
0.973478
0.962969
0.949596
0.933128
0.913483
0.89072
0.865025
0.836679
0.806031
0.773463
0.739376
0.704166
0.66822
0.631899
0.595537
0.559436
0.523858
0.48903
0.455141
0.422346
0.390769
0.360508
0.331627
0.304168
0.278152
0.253578
0.230434
0.208693
0.188318
0.169265
0.151483
0.134918
0.119513
0.10521
0.0919515
0.0796804
0.0683422
0.0578858
0.0482651
0.0394366
0.0314345
0.0243085
0.0176233
0.011629
0.00632745
0.00316757
0.00220428
0.00151515
0.00102707
0.000685406
0.000449493
0.000289219
0.000182442
0.000113056
6.95256e-05
4.3799e-05
3.05132e-05
2.32764e-05
1.7514e-05
1.26256e-05
8.64074e-06
5.57798e-06
3.38713e-06
1.93866e-06
1.05202e-06
5.45656e-07
2.72352e-07
1.3215e-07
6.27025e-08
2.91663e-08
1.33261e-08
5.99045e-09
2.65332e-09
1.15955e-09
5.0064e-10
2.13808e-10
9.04143e-11