/*--------------------------------*- C++ -*----------------------------------*\
  =========                 |
  \\      /  F ield         | OpenFOAM: The Open Source CFD Toolbox
   \\    /   O peration     | Website:  https://openfoam.org
    \\  /    A nd           | Version:  8
     \\/     M anipulation  |
\*---------------------------------------------------------------------------*/
FoamFile
{
    version     2.0;
    format      ascii;
    class       volScalarField;
    location    "880/fluid";
    object      CO2;
}
// * * * * * * * * * * * * * * * * * * * * * * * * * * * * * * * * * * * * * //

dimensions      [0 0 0 0 0 0 0];

internalField   nonuniform List<scalar> 
4000
(
4.74035e-07
2.07138e-06
4.75725e-06
9.25929e-06
1.67734e-05
2.92459e-05
4.98063e-05
8.34158e-05
0.000137806
0.000224778
0.0003619
0.000574531
0.000897883
0.00137853
0.00207445
0.00305245
0.00438237
0.00612835
0.00833931
0.0110416
0.014236
0.0178995
0.0219902
0.0264535
0.0312274
0.0362474
0.0414492
0.0467716
0.0521572
0.0575541
0.0629158
0.068202
0.0733785
0.0784171
0.0832951
0.0879946
0.0925019
0.0968074
0.100905
0.104793
0.108471
0.111939
0.115203
0.118266
0.121135
0.123814
0.12631
0.128629
0.130775
0.132753
0.134564
0.136208
0.137683
0.138983
0.140096
0.141005
0.141684
0.142093
0.142192
0.141914
0.141163
0.139811
0.137061
0.126526
0.115816
0.105111
0.0945495
0.0842415
0.0742735
0.0647167
0.0556307
0.0470684
0.0390795
0.0317502
0.0250525
0.0190927
0.0139348
0.00964217
0.00626165
0.00378786
0.00213077
0.00112023
0.000555651
0.000264265
0.000122106
5.51444e-05
2.44452e-05
1.06712e-05
4.59877e-06
1.96045e-06
8.28096e-07
3.4707e-07
1.44487e-07
5.978e-08
2.45688e-08
1.00007e-08
3.99488e-09
1.52464e-09
5.09077e-10
8.92119e-11
4.74508e-07
2.07393e-06
4.76524e-06
9.28062e-06
1.68238e-05
2.93529e-05
5.00119e-05
8.37724e-05
0.000138354
0.000225484
0.000362528
0.000574421
0.000895631
0.00137152
0.00205841
0.0030213
0.00432844
0.00604327
0.00821535
0.0108731
0.0140204
0.0176378
0.0216865
0.0261144
0.0308612
0.035863
0.0410556
0.046377
0.0517692
0.0571788
0.0625583
0.0678663
0.0730674
0.0781324
0.0830377
0.0877649
0.0922995
0.0966315
0.100755
0.104666
0.108366
0.111855
0.115137
0.118217
0.1211
0.123793
0.1263
0.128629
0.130784
0.132768
0.134585
0.136234
0.137713
0.139015
0.14013
0.141039
0.141719
0.142127
0.142223
0.141941
0.141183
0.139821
0.136226
0.125622
0.114857
0.104108
0.0935098
0.083172
0.0731813
0.0636093
0.054517
0.0459592
0.0379883
0.0306956
0.0240562
0.0181829
0.0131415
0.00899387
0.00577611
0.003462
0.00193766
0.00101937
0.000508827
0.000244097
0.00011393
5.19857e-05
2.32696e-05
1.02447e-05
4.44609e-06
1.90575e-06
8.082e-07
3.39632e-07
1.41609e-07
5.86279e-08
2.40962e-08
9.805e-09
3.91474e-09
1.49333e-09
4.98385e-10
8.72954e-11
4.75612e-07
2.07902e-06
4.77814e-06
9.30859e-06
1.68793e-05
2.9455e-05
5.01864e-05
8.40471e-05
0.000138742
0.000225947
0.000362891
0.000574193
0.0008937
0.00136593
0.00204605
0.00299764
0.00428756
0.00597816
0.0081187
0.0107383
0.0138425
0.0174142
0.0214175
0.0258029
0.0305124
0.0354838
0.0406541
0.0459617
0.0513484
0.0567604
0.0621494
0.067473
0.0726948
0.0777844
0.0827173
0.087474
0.0920393
0.0964024
0.100556
0.104498
0.108226
0.111742
0.115049
0.118152
0.121057
0.123768
0.126293
0.128636
0.130803
0.132798
0.134624
0.13628
0.137764
0.13907
0.140186
0.141097
0.141775
0.142179
0.14227
0.141978
0.141204
0.139819
0.134752
0.124098
0.113288
0.102502
0.0918789
0.0815291
0.0715414
0.0619892
0.0529358
0.0444381
0.036551
0.0293551
0.0228549
0.017148
0.0122952
0.00834766
0.0053237
0.00317559
0.00177428
0.000934674
0.000468318
0.000225673
0.00010586
4.85546e-05
2.18452e-05
9.66425e-06
4.21266e-06
1.81264e-06
7.71187e-07
3.24904e-07
1.35724e-07
5.6263e-08
2.31414e-08
9.4196e-09
3.76107e-09
1.43453e-09
4.78573e-10
8.37844e-11
4.75083e-07
2.07668e-06
4.77261e-06
9.29699e-06
1.6855e-05
2.94025e-05
5.00698e-05
8.3788e-05
0.000138179
0.000224769
0.000360538
0.000569731
0.000885694
0.0013522
0.00202352
0.00296227
0.00423444
0.00590196
0.00801421
0.0106011
0.0136696
0.0172043
0.021171
0.0255219
0.0302006
0.0351461
0.0402963
0.0455901
0.0509695
0.0563809
0.0617755
0.0671103
0.0723484
0.0774584
0.0824151
0.0871981
0.0917915
0.0961837
0.100367
0.104338
0.108094
0.111637
0.11497
0.118097
0.121023
0.123755
0.126297
0.128656
0.130836
0.132842
0.134676
0.136339
0.137827
0.139136
0.140253
0.14116
0.141834
0.142229
0.142307
0.141998
0.141201
0.139783
0.132919
0.122247
0.111418
0.100617
0.0899923
0.0796561
0.0697003
0.0602004
0.0512213
0.0428212
0.0350564
0.0279788
0.0216467
0.0161239
0.0114663
0.00771664
0.00487894
0.00288896
0.00160598
0.000844056
0.00042301
0.000204245
9.60925e-05
4.42288e-05
1.99739e-05
8.87044e-06
3.88137e-06
1.67618e-06
7.15541e-07
3.02377e-07
1.26649e-07
5.26196e-08
2.1683e-08
8.83912e-09
3.53331e-09
1.34869e-09
4.49991e-10
7.88119e-11
4.73189e-07
2.0683e-06
4.75293e-06
9.25735e-06
1.67797e-05
2.92629e-05
4.9814e-05
8.33219e-05
0.000137336
0.000223261
0.000357876
0.000565123
0.000877897
0.00133936
0.00200304
0.00293075
0.00418779
0.00583573
0.00792407
0.0104834
0.0135217
0.0170252
0.020961
0.0252829
0.0299357
0.0348592
0.0399923
0.0452742
0.0506473
0.0560577
0.0614567
0.0668008
0.0720524
0.0771798
0.0821569
0.0869629
0.0915809
0.0959989
0.100209
0.104205
0.107988
0.111556
0.114912
0.118061
0.121008
0.123757
0.126316
0.128688
0.13088
0.132896
0.134737
0.136404
0.137895
0.139202
0.140315
0.141216
0.141878
0.142257
0.142317
0.141981
0.141148
0.139687
0.130989
0.120327
0.109494
0.0986922
0.0880769
0.0777676
0.0678583
0.0584256
0.0495345
0.041243
0.0336194
0.0266867
0.0205205
0.0151785
0.0107104
0.0071492
0.00448507
0.00263879
0.00146075
0.000766312
0.000384121
0.000185747
8.75787e-05
4.04095e-05
1.82952e-05
8.14492e-06
3.57212e-06
1.54589e-06
6.61166e-07
2.79863e-07
1.17387e-07
4.88302e-08
2.01415e-08
8.21727e-09
3.2867e-09
1.25499e-09
4.18643e-10
7.33468e-11
4.70226e-07
2.05523e-06
4.72233e-06
9.19616e-06
1.6665e-05
2.90545e-05
4.94421e-05
8.26674e-05
0.000136198
0.000221307
0.000354577
0.000559655
0.000869036
0.00132538
0.00198161
0.00289898
0.00414238
0.0057732
0.0078412
0.0103776
0.0133914
0.0168696
0.020781
0.02508
0.0297125
0.0346191
0.039739
0.0450121
0.0503809
0.0557914
0.0611948
0.0665474
0.071811
0.0769536
0.0819486
0.0867744
0.091414
0.0958544
0.100087
0.104107
0.107911
0.111501
0.114879
0.118047
0.121011
0.123776
0.126347
0.128732
0.130933
0.132955
0.1348
0.136469
0.137957
0.139259
0.140363
0.14125
0.141895
0.14225
0.142282
0.141914
0.141045
0.139558
0.12933
0.118618
0.107735
0.0969041
0.0862844
0.0759962
0.0661326
0.0567682
0.0479661
0.0397825
0.0322976
0.0255048
0.019496
0.0143239
0.0100316
0.00664267
0.00413466
0.00241601
0.00133055
0.000695755
0.000348224
0.000168398
7.94664e-05
3.67165e-05
1.66514e-05
7.42701e-06
3.26363e-06
1.41513e-06
6.06371e-07
2.57116e-07
1.08016e-07
4.49944e-08
1.85814e-08
7.58809e-09
3.03725e-09
1.16022e-09
3.86997e-10
6.78313e-11
4.66806e-07
2.04021e-06
4.68744e-06
9.12713e-06
1.65373e-05
2.88263e-05
4.90429e-05
8.19791e-05
0.000135027
0.000219343
0.00035133
0.000554385
0.000860658
0.00131238
0.00196199
0.00287029
0.00410182
0.00571793
0.00776864
0.0102857
0.0132791
0.0167368
0.0206284
0.0249092
0.0295258
0.0344196
0.0395299
0.0447971
0.0501635
0.0555754
0.0609837
0.0663444
0.0716192
0.0767755
0.0817862
0.0866295
0.0912877
0.0957476
0.0999999
0.104039
0.107863
0.111472
0.114866
0.11805
0.121029
0.123806
0.126389
0.128782
0.13099
0.133016
0.134862
0.136528
0.13801
0.139301
0.140389
0.141253
0.141866
0.142179
0.142161
0.14173
0.140792
0.139254
0.128405
0.117343
0.106267
0.0953367
0.0846796
0.0743975
0.0645723
0.0552715
0.0465532
0.0384693
0.0311009
0.0244322
0.0185703
0.013559
0.00943232
0.00620033
0.00383165
0.00222499
0.00121957
0.000635783
0.000317695
0.000153593
7.25045e-05
3.3524e-05
1.52181e-05
6.79518e-06
2.98949e-06
1.29781e-06
5.56763e-07
2.3635e-07
9.9397e-08
4.14441e-08
1.71295e-08
6.99996e-09
2.80321e-09
1.07103e-09
3.57301e-10
6.26549e-11
4.63255e-07
2.02463e-06
4.65138e-06
9.0561e-06
1.64066e-05
2.85942e-05
4.86395e-05
8.12895e-05
0.000133865
0.000217413
0.000348179
0.000549333
0.000852731
0.00130024
0.00194393
0.00284422
0.00406547
0.00566902
0.00770517
0.0102063
0.013183
0.0166241
0.0204999
0.0247666
0.0293711
0.0342553
0.039359
0.0446224
0.0499883
0.0554026
0.0608162
0.0661849
0.07147
0.0766386
0.0816633
0.0865219
0.0911963
0.0956729
0.0999421
0.103998
0.107839
0.111462
0.114871
0.118068
0.121058
0.123846
0.126437
0.128836
0.131048
0.133076
0.134921
0.136582
0.138055
0.139332
0.140397
0.14123
0.141794
0.142042
0.141926
0.141346
0.140178
0.138288
0.127241
0.116032
0.104862
0.0938834
0.0832158
0.0729542
0.0631751
0.0539419
0.0453091
0.0373254
0.03007
0.02354
0.0178055
0.0129167
0.00892001
0.00582204
0.00357313
0.00206214
0.00112483
0.000584382
0.000291371
0.000140747
6.64252e-05
3.07191e-05
1.39517e-05
6.23412e-06
2.74497e-06
1.19277e-06
5.12194e-07
2.17639e-07
9.1613e-08
3.82311e-08
1.58133e-08
6.46603e-09
2.59042e-09
9.90058e-10
3.30307e-10
5.79476e-11
4.59816e-07
2.00957e-06
4.61661e-06
8.98782e-06
1.62815e-05
2.83732e-05
4.82578e-05
8.06413e-05
0.000132781
0.000215628
0.000345287
0.000544736
0.00084558
0.00128939
0.0019279
0.00282129
0.00403373
0.00562662
0.00765056
0.0101384
0.0131014
0.0165291
0.0203924
0.0246481
0.0292435
0.0341209
0.0392201
0.0444817
0.0498482
0.0552657
0.0606848
0.0660611
0.0713558
0.0765355
0.0815727
0.0864446
0.091133
0.0956239
0.0999076
0.103978
0.107831
0.111468
0.114888
0.118096
0.121095
0.123891
0.126488
0.128891
0.131106
0.133134
0.134976
0.136632
0.138097
0.139361
0.140409
0.141216
0.141745
0.141947
0.141764
0.141088
0.139776
0.137234
0.126049
0.114754
0.103535
0.0925407
0.0818836
0.0716548
0.0619284
0.0527666
0.0442246
0.036356
0.0292375
0.0228301
0.0172126
0.0124297
0.00851196
0.00550592
0.00335458
0.00192439
0.00104473
0.000540914
0.000269079
0.000129844
6.12491e-05
2.83223e-05
1.28654e-05
5.75084e-06
2.5335e-06
1.10156e-06
4.73351e-07
2.01277e-07
8.47854e-08
3.54053e-08
1.46531e-08
5.99447e-09
2.40217e-09
9.18445e-10
3.06409e-10
5.37761e-11
4.56618e-07
1.99558e-06
4.58434e-06
8.92461e-06
1.6166e-05
2.81697e-05
4.79076e-05
8.0049e-05
0.000131795
0.000214012
0.000342684
0.000540625
0.000839225
0.0012798
0.00191385
0.00280131
0.00400628
0.00559021
0.00760397
0.0100809
0.0130328
0.0164497
0.0203032
0.0245504
0.0291391
0.0340116
0.0391081
0.0443691
0.0497371
0.0551583
0.0605829
0.0659664
0.0712698
0.0764595
0.0815076
0.0863911
0.0910915
0.0955946
0.0998904
0.103972
0.107836
0.111483
0.114913
0.118129
0.121135
0.123937
0.126539
0.128945
0.131161
0.133188
0.135029
0.13668
0.138139
0.139394
0.140431
0.141226
0.14174
0.141929
0.141737
0.141065
0.139789
0.136088
0.124859
0.113537
0.102311
0.091325
0.0806933
0.0705049
0.0608322
0.0517358
0.0432702
0.0354809
0.028399
0.0220762
0.0165653
0.0119102
0.0081435
0.00523742
0.00316624
0.00180626
0.000976422
0.000503948
0.000250132
0.000120571
5.6841e-05
2.62774e-05
1.19366e-05
5.33676e-06
2.3519e-06
1.02307e-06
4.39857e-07
1.87142e-07
7.88765e-08
3.2956e-08
1.36461e-08
5.58469e-09
2.23851e-09
8.56136e-10
2.8561e-10
5.01458e-11
4.53733e-07
1.98296e-06
4.55528e-06
8.86777e-06
1.60623e-05
2.79875e-05
4.7595e-05
7.95223e-05
0.000130921
0.000212586
0.000340398
0.000537029
0.000833693
0.0012715
0.00190174
0.00278419
0.00398287
0.00555931
0.00756466
0.0100326
0.0129755
0.0163839
0.0202297
0.0244704
0.0290542
0.0339234
0.0390184
0.0442797
0.0496498
0.0550747
0.0605046
0.0658948
0.0712061
0.0764045
0.0814621
0.0863556
0.0910662
0.0955796
0.0998851
0.103976
0.10785
0.111504
0.114942
0.118164
0.121176
0.123982
0.126586
0.128995
0.131211
0.133237
0.135075
0.136723
0.138176
0.139425
0.140454
0.141241
0.141747
0.141929
0.141733
0.141062
0.139794
0.134969
0.123731
0.112413
0.1012
0.0902409
0.0796487
0.0695109
0.0598988
0.0508725
0.0424669
0.0347303
0.0277035
0.021454
0.0160288
0.0114666
0.00779399
0.00500356
0.00301103
0.00170658
0.00091879
0.000472802
0.000234178
0.000112762
5.31256e-05
2.45517e-05
1.11516e-05
4.98617e-06
2.19788e-06
9.56378e-07
4.11346e-07
1.75089e-07
7.38303e-08
3.08614e-08
1.27839e-08
5.23348e-09
2.09825e-09
8.02703e-10
2.67765e-10
4.70313e-11
4.5119e-07
1.97184e-06
4.52969e-06
8.81777e-06
1.59713e-05
2.78279e-05
4.73217e-05
7.90627e-05
0.000130161
0.000211349
0.000338421
0.000533932
0.000828947
0.00126441
0.00189144
0.00276968
0.00396311
0.00553337
0.00753181
0.0099925
0.0129281
0.0163297
0.0201695
0.0244054
0.0289856
0.0338526
0.038947
0.0442092
0.0495817
0.0550102
0.0604451
0.0658413
0.0711595
0.0763656
0.0814312
0.0863332
0.0910524
0.095574
0.0998876
0.103987
0.107867
0.111528
0.114971
0.118199
0.121214
0.124023
0.12663
0.129039
0.131254
0.133279
0.135114
0.136758
0.138206
0.139449
0.140471
0.14125
0.141749
0.141925
0.141724
0.141051
0.139787
0.133969
0.122725
0.111415
0.100227
0.0893052
0.0787481
0.0686442
0.0590634
0.0500613
0.0417005
0.0340254
0.0270785
0.0209091
0.0155657
0.0110871
0.00749732
0.00478433
0.00287561
0.00162401
0.000870122
0.000446529
0.000220762
0.000106205
5.00079e-05
2.31035e-05
1.04925e-05
4.6916e-06
2.06833e-06
9.0022e-07
3.87309e-07
1.64915e-07
6.95659e-08
2.90894e-08
1.20539e-08
4.93594e-09
1.97932e-09
7.57407e-10
2.52627e-10
4.43894e-11
4.48992e-07
1.96224e-06
4.5076e-06
8.77466e-06
1.58929e-05
2.76906e-05
4.70871e-05
7.8669e-05
0.000129512
0.000210295
0.000336741
0.000531306
0.000824936
0.00125844
0.00188279
0.00275754
0.00394665
0.00551183
0.00750465
0.00995945
0.0128893
0.0162855
0.0201207
0.024353
0.0289306
0.0337963
0.0388906
0.044154
0.0495288
0.0549609
0.0604002
0.0658017
0.0711258
0.0763384
0.081411
0.08632
0.0910461
0.0955745
0.0998947
0.104
0.107886
0.111552
0.114999
0.11823
0.121248
0.124059
0.126666
0.129075
0.131289
0.133311
0.135143
0.136783
0.138225
0.139462
0.140477
0.141249
0.141741
0.14191
0.141705
0.141031
0.139771
0.133106
0.12185
0.110543
0.0993677
0.0884534
0.0779173
0.0678447
0.0583049
0.0493563
0.0410502
0.0334337
0.0265495
0.0204473
0.0151742
0.0107678
0.00724982
0.0046039
0.00275228
0.00155414
0.000830696
0.000424806
0.000209618
0.000100768
4.74247e-05
2.19035e-05
9.94594e-06
4.44707e-06
1.96065e-06
8.53481e-07
3.67276e-07
1.56424e-07
6.60023e-08
2.76069e-08
1.14425e-08
4.68657e-09
1.87957e-09
7.19409e-10
2.39923e-10
4.21728e-11
4.47129e-07
1.9541e-06
4.4889e-06
8.73819e-06
1.58266e-05
2.75747e-05
4.68893e-05
7.83378e-05
0.000128966
0.000209411
0.000335335
0.000529116
0.000821598
0.00125348
0.00187563
0.00274752
0.00393311
0.00549417
0.00748245
0.00993255
0.0128578
0.0162499
0.0200815
0.024311
0.0288869
0.0337519
0.0388465
0.0441111
0.0494882
0.0549234
0.0603666
0.0657727
0.0711018
0.0763198
0.081398
0.0863127
0.0910445
0.0955783
0.0999036
0.104013
0.107904
0.111574
0.115024
0.118257
0.121277
0.124088
0.126695
0.129102
0.131314
0.133334
0.135162
0.136796
0.138233
0.139464
0.140472
0.141238
0.141722
0.141886
0.141677
0.141003
0.139749
0.132373
0.121103
0.109797
0.0986246
0.0877291
0.077218
0.0671764
0.0576732
0.0487662
0.040506
0.0329388
0.026107
0.0200612
0.0148474
0.0105022
0.00704517
0.00445621
0.00265306
0.00149169
0.000797867
0.00040772
0.000200709
9.63555e-05
4.53188e-05
2.09228e-05
9.49832e-06
4.24638e-06
1.87211e-06
8.1498e-07
3.50749e-07
1.4941e-07
6.30549e-08
2.63794e-08
1.09359e-08
4.47977e-09
1.79683e-09
6.87879e-10
2.29379e-10
4.03336e-11
4.45584e-07
1.94735e-06
4.47339e-06
8.70796e-06
1.57718e-05
2.74789e-05
4.67259e-05
7.80645e-05
0.000128517
0.000208685
0.000334182
0.000527322
0.00081887
0.00124943
0.0018698
0.00273939
0.00392214
0.00547991
0.00746458
0.00991097
0.0128326
0.0162215
0.0200505
0.024278
0.0288526
0.0337172
0.0388122
0.0440781
0.0494572
0.0548951
0.0603416
0.0657514
0.0710847
0.0763071
0.0813897
0.0863089
0.091045
0.0955831
0.0999123
0.104026
0.107919
0.111591
0.115043
0.118278
0.121298
0.124109
0.126715
0.129121
0.13133
0.133346
0.13517
0.1368
0.138231
0.139455
0.140457
0.141215
0.141693
0.141852
0.14164
0.140967
0.139725
0.131768
0.120479
0.109166
0.0980033
0.0871247
0.0766362
0.0666219
0.0571501
0.0482781
0.0400559
0.0325298
0.0257417
0.0197426
0.0145782
0.0102839
0.00687761
0.00433603
0.00257309
0.00144217
0.000768885
0.000393185
0.000193704
9.28853e-05
4.36283e-05
2.01282e-05
9.13454e-06
4.08301e-06
1.79993e-06
7.83556e-07
3.37246e-07
1.43674e-07
6.06426e-08
2.53741e-08
1.05209e-08
4.31031e-09
1.72903e-09
6.6205e-10
2.20739e-10
3.88273e-11
4.44336e-07
1.9419e-06
4.46087e-06
8.68357e-06
1.57275e-05
2.74017e-05
4.65944e-05
7.78448e-05
0.000128156
0.000208102
0.000333259
0.000525887
0.000816692
0.00124621
0.00186517
0.00273294
0.00391346
0.00546865
0.0074505
0.00989401
0.0128129
0.0161993
0.0200263
0.0242523
0.0288261
0.0336906
0.0387861
0.0440531
0.0494339
0.0548739
0.0603231
0.0657359
0.0710724
0.0762981
0.0813842
0.0863067
0.0910461
0.0955872
0.0999192
0.104035
0.10793
0.111604
0.115057
0.118292
0.121312
0.124122
0.126727
0.12913
0.131337
0.133349
0.135169
0.136793
0.138219
0.139436
0.140432
0.141184
0.141655
0.141811
0.141597
0.140928
0.139699
0.131278
0.119971
0.108653
0.097496
0.0866308
0.0761612
0.06617
0.0567245
0.0478815
0.0396909
0.0321984
0.025446
0.0194849
0.0143606
0.0101078
0.00674285
0.00423973
0.00250933
0.00140299
0.000746206
0.000380492
0.000187234
8.99315e-05
4.22804e-05
1.94948e-05
8.84177e-06
3.95104e-06
1.74157e-06
7.5817e-07
3.26344e-07
1.39046e-07
5.8698e-08
2.45644e-08
1.0187e-08
4.174e-09
1.67456e-09
6.41309e-10
2.13804e-10
3.76182e-11
4.43365e-07
1.93766e-06
4.45113e-06
8.66461e-06
1.56931e-05
2.73417e-05
4.64924e-05
7.76745e-05
0.000127876
0.000207652
0.000332545
0.00052478
0.000815014
0.00124373
0.00186161
0.00272799
0.00390681
0.00546004
0.00743976
0.0098811
0.0127979
0.0161825
0.020008
0.024233
0.0288063
0.0336707
0.0387666
0.0440345
0.0494166
0.0548584
0.0603095
0.0657245
0.0710634
0.0762916
0.08138
0.0863048
0.0910464
0.0955896
0.0999234
0.104041
0.107937
0.111612
0.115065
0.1183
0.121319
0.124128
0.126731
0.129132
0.131335
0.133344
0.135158
0.136778
0.138197
0.139409
0.140398
0.141144
0.141611
0.141764
0.141551
0.140887
0.139674
0.130891
0.119564
0.108243
0.0970907
0.0862373
0.0757839
0.065812
0.0563882
0.0475689
0.0394037
0.0319382
0.0252141
0.0192832
0.0141906
0.00997056
0.00663806
0.00416506
0.00246009
0.00137292
0.00072905
0.000371217
0.000182425
8.74893e-05
4.11145e-05
1.89781e-05
8.6106e-06
3.84766e-06
1.69594e-06
7.38325e-07
3.17831e-07
1.35438e-07
5.71838e-08
2.39362e-08
9.92829e-09
4.06858e-09
1.63245e-09
6.25288e-10
2.08449e-10
3.66844e-11
4.42653e-07
1.93455e-06
4.444e-06
8.65072e-06
1.5668e-05
2.72978e-05
4.64177e-05
7.75499e-05
0.000127672
0.000207322
0.000332024
0.000523973
0.000813791
0.00124193
0.00185902
0.0027244
0.00390199
0.0054538
0.00743199
0.00987178
0.0127872
0.0161704
0.0199949
0.0242192
0.0287921
0.0336565
0.0387528
0.0440214
0.0494044
0.0548474
0.0602999
0.0657165
0.071057
0.0762867
0.0813766
0.0863028
0.0910457
0.09559
0.0999248
0.104043
0.10794
0.111615
0.115068
0.118302
0.12132
0.124128
0.126728
0.129126
0.131326
0.133331
0.135141
0.136755
0.13817
0.139375
0.140359
0.1411
0.141563
0.141714
0.141503
0.140848
0.139654
0.130604
0.119258
0.107931
0.0967828
0.0859387
0.0754984
0.0655421
0.0561357
0.047335
0.0391895
0.0317446
0.025042
0.0191339
0.0140651
0.00986948
0.00656113
0.00411042
0.00242415
0.001351
0.000716566
0.000364507
0.000178982
8.57915e-05
4.02972e-05
1.85902e-05
8.43821e-06
3.77254e-06
1.66322e-06
7.24194e-07
3.11771e-07
1.32881e-07
5.61063e-08
2.34896e-08
9.74347e-09
3.99317e-09
1.60228e-09
6.13777e-10
2.04595e-10
3.60121e-11
4.42188e-07
1.93252e-06
4.43934e-06
8.64164e-06
1.56515e-05
2.72691e-05
4.6369e-05
7.74687e-05
0.000127539
0.000207108
0.000331685
0.000523448
0.000812996
0.00124076
0.00185734
0.00272207
0.00389887
0.00544977
0.00742698
0.00986577
0.0127802
0.0161627
0.0199865
0.0242103
0.028783
0.0336474
0.0387439
0.0440129
0.0493966
0.0548404
0.0602937
0.0657112
0.0710526
0.0762832
0.0813739
0.0863007
0.0910441
0.0955889
0.0999241
0.104042
0.107939
0.111614
0.115067
0.1183
0.121317
0.124123
0.126721
0.129117
0.131314
0.133315
0.135121
0.13673
0.13814
0.13934
0.140319
0.141055
0.141515
0.141665
0.141458
0.140813
0.13964
0.130417
0.11905
0.107716
0.0965698
0.0857327
0.0753024
0.0653579
0.0559644
0.0471772
0.0390457
0.0316153
0.0249276
0.019035
0.0139823
0.00980304
0.00651079
0.00407485
0.00240085
0.00133681
0.000708471
0.000360152
0.000176747
8.47151e-05
3.97802e-05
1.8351e-05
8.32555e-06
3.7223e-06
1.64126e-06
7.14894e-07
3.07795e-07
1.31216e-07
5.54067e-08
2.32009e-08
9.62425e-09
3.94463e-09
1.58289e-09
6.06378e-10
2.02116e-10
3.55796e-11
4.41961e-07
1.93153e-06
4.43707e-06
8.63724e-06
1.56436e-05
2.72553e-05
4.63456e-05
7.74297e-05
0.000127475
0.000207006
0.000331524
0.000523199
0.00081262
0.0012402
0.00185655
0.00272097
0.00389739
0.00544786
0.0074246
0.00986292
0.0127769
0.016159
0.0199825
0.0242061
0.0287787
0.0336431
0.0387397
0.0440089
0.0493929
0.054837
0.0602908
0.0657086
0.0710504
0.0762814
0.0813723
0.0862993
0.0910426
0.0955873
0.0999225
0.104041
0.107938
0.111612
0.115064
0.118297
0.121313
0.124117
0.126714
0.129108
0.131303
0.133301
0.135104
0.136711
0.138117
0.139314
0.140289
0.141021
0.141479
0.141628
0.141424
0.140787
0.139634
0.130314
0.118935
0.107599
0.0964544
0.0856226
0.0751991
0.0652621
0.0558763
0.047097
0.0389733
0.0315508
0.0248712
0.0189867
0.0139421
0.00977111
0.00648681
0.00405806
0.00238995
0.00133023
0.000704728
0.000358138
0.000175711
8.42196e-05
3.95423e-05
1.82417e-05
8.27478e-06
3.69953e-06
1.63092e-06
7.10401e-07
3.05856e-07
1.30402e-07
5.50646e-08
2.30597e-08
9.56608e-09
3.92094e-09
1.57344e-09
6.02773e-10
2.00908e-10
3.53687e-11
4.41962e-07
1.93154e-06
4.43708e-06
8.63725e-06
1.56436e-05
2.72554e-05
4.63456e-05
7.74298e-05
0.000127475
0.000207006
0.000331524
0.000523199
0.000812621
0.0012402
0.00185655
0.00272097
0.0038974
0.00544787
0.00742461
0.00986293
0.0127769
0.016159
0.0199825
0.0242061
0.0287787
0.0336431
0.0387397
0.0440089
0.0493929
0.054837
0.0602908
0.0657086
0.0710504
0.0762814
0.0813723
0.0862993
0.0910426
0.0955874
0.0999225
0.104041
0.107938
0.111612
0.115064
0.118297
0.121313
0.124117
0.126714
0.129108
0.131303
0.133301
0.135104
0.136711
0.138117
0.139314
0.140288
0.141021
0.141479
0.141628
0.141423
0.140786
0.139633
0.130315
0.118935
0.107599
0.0964544
0.0856226
0.0751991
0.0652621
0.0558763
0.047097
0.0389733
0.0315508
0.0248712
0.0189867
0.0139421
0.00977111
0.00648681
0.00405806
0.00238996
0.00133023
0.00070473
0.000358139
0.000175712
8.42195e-05
3.95426e-05
1.82416e-05
8.27475e-06
3.69949e-06
1.63091e-06
7.10389e-07
3.05852e-07
1.30399e-07
5.50636e-08
2.3059e-08
9.566e-09
3.92087e-09
1.57343e-09
6.02769e-10
2.00907e-10
3.53682e-11
4.4219e-07
1.93253e-06
4.43936e-06
8.64168e-06
1.56516e-05
2.72693e-05
4.63692e-05
7.7469e-05
0.000127539
0.000207109
0.000331687
0.00052345
0.000813
0.00124076
0.00185735
0.00272208
0.00389888
0.00544978
0.00742699
0.00986579
0.0127802
0.0161627
0.0199865
0.0242104
0.028783
0.0336474
0.0387439
0.044013
0.0493967
0.0548404
0.0602938
0.0657112
0.0710526
0.0762832
0.0813739
0.0863007
0.0910441
0.0955889
0.0999241
0.104042
0.107939
0.111614
0.115067
0.1183
0.121317
0.124123
0.126721
0.129117
0.131314
0.133314
0.13512
0.13673
0.13814
0.13934
0.140319
0.141055
0.141515
0.141665
0.141458
0.140812
0.13964
0.130417
0.11905
0.107717
0.09657
0.0857328
0.0753025
0.065358
0.0559644
0.0471772
0.0390457
0.0316153
0.0249276
0.019035
0.0139823
0.00980305
0.0065108
0.00407487
0.00240086
0.00133682
0.000708476
0.000360155
0.000176749
8.47154e-05
3.97807e-05
1.83508e-05
8.32551e-06
3.72221e-06
1.64123e-06
7.14866e-07
3.07786e-07
1.31208e-07
5.54053e-08
2.31993e-08
9.62415e-09
3.94449e-09
1.58288e-09
6.06368e-10
2.02116e-10
3.55783e-11
4.42657e-07
1.93457e-06
4.44404e-06
8.65079e-06
1.56681e-05
2.7298e-05
4.64181e-05
7.75505e-05
0.000127673
0.000207324
0.000332027
0.000523977
0.000813796
0.00124194
0.00185903
0.00272441
0.00390201
0.00545383
0.00743203
0.00987182
0.0127872
0.0161705
0.0199949
0.0242193
0.0287921
0.0336565
0.0387528
0.0440214
0.0494045
0.0548475
0.0603
0.0657165
0.071057
0.0762868
0.0813767
0.0863028
0.0910457
0.09559
0.0999248
0.104043
0.10794
0.111615
0.115068
0.118302
0.12132
0.124128
0.126728
0.129126
0.131326
0.133331
0.135141
0.136755
0.138169
0.139375
0.140359
0.1411
0.141563
0.141714
0.141503
0.140848
0.139654
0.130604
0.119259
0.107932
0.0967831
0.0859389
0.0754985
0.0655422
0.0561358
0.0473351
0.0391895
0.0317447
0.0250421
0.019134
0.0140652
0.00986954
0.00656117
0.00411046
0.00242417
0.00135102
0.000716577
0.000364513
0.000178986
8.57932e-05
4.0298e-05
1.85905e-05
8.43832e-06
3.77255e-06
1.66322e-06
7.24184e-07
3.11766e-07
1.32875e-07
5.61049e-08
2.34883e-08
9.74343e-09
3.99304e-09
1.60228e-09
6.13767e-10
2.04596e-10
3.60103e-11
4.4337e-07
1.93768e-06
4.45119e-06
8.66471e-06
1.56933e-05
2.7342e-05
4.64929e-05
7.76753e-05
0.000127878
0.000207654
0.000332548
0.000524785
0.000815021
0.00124374
0.00186163
0.00272801
0.00390684
0.00546007
0.00743981
0.00988115
0.012798
0.0161826
0.0200081
0.0242331
0.0288063
0.0336707
0.0387667
0.0440346
0.0494167
0.0548585
0.0603096
0.0657246
0.0710635
0.0762917
0.0813801
0.0863049
0.0910465
0.0955896
0.0999234
0.104041
0.107937
0.111612
0.115065
0.1183
0.121319
0.124128
0.126731
0.129132
0.131335
0.133344
0.135158
0.136778
0.138197
0.139409
0.140398
0.141144
0.141611
0.141764
0.141551
0.140887
0.139674
0.130891
0.119564
0.108243
0.0970909
0.0862375
0.075784
0.0658121
0.0563883
0.047569
0.0394038
0.0319383
0.0252142
0.0192833
0.0141907
0.00997064
0.00663813
0.00416512
0.00246013
0.00137294
0.000729064
0.000371225
0.000182429
8.74915e-05
4.11156e-05
1.89786e-05
8.61075e-06
3.84774e-06
1.69598e-06
7.38341e-07
3.17835e-07
1.3544e-07
5.71842e-08
2.39361e-08
9.92844e-09
4.06861e-09
1.63249e-09
6.25285e-10
2.08453e-10
3.66823e-11
4.44343e-07
1.94193e-06
4.46094e-06
8.6837e-06
1.57277e-05
2.74021e-05
4.65951e-05
7.78459e-05
0.000128157
0.000208105
0.000333263
0.000525894
0.000816702
0.00124623
0.00186519
0.00273297
0.0039135
0.0054687
0.00745056
0.00989408
0.012813
0.0161994
0.0200264
0.0242524
0.0288262
0.0336907
0.0387862
0.0440532
0.049434
0.054874
0.0603231
0.0657359
0.0710725
0.0762982
0.0813843
0.0863068
0.0910461
0.0955873
0.0999193
0.104035
0.10793
0.111604
0.115057
0.118292
0.121312
0.124122
0.126727
0.12913
0.131337
0.133349
0.135169
0.136793
0.138219
0.139436
0.140432
0.141184
0.141655
0.141811
0.141597
0.140928
0.139699
0.131278
0.119972
0.108654
0.0974962
0.086631
0.0761614
0.0661702
0.0567247
0.0478817
0.039691
0.0321986
0.0254461
0.0194851
0.0143608
0.0101079
0.00674295
0.0042398
0.00250938
0.00140302
0.000746225
0.000380503
0.000187239
8.99343e-05
4.22818e-05
1.94954e-05
8.84212e-06
3.95118e-06
1.74164e-06
7.58199e-07
3.26358e-07
1.39051e-07
5.87e-08
2.45652e-08
1.01873e-08
4.17412e-09
1.67463e-09
6.41312e-10
2.13812e-10
3.76156e-11
4.45592e-07
1.94739e-06
4.47347e-06
8.70811e-06
1.5772e-05
2.74794e-05
4.67267e-05
7.80658e-05
0.000128519
0.000208688
0.000334187
0.000527329
0.000818881
0.00124945
0.00186983
0.00273943
0.00392219
0.00547997
0.00746465
0.00991105
0.0128327
0.0162216
0.0200506
0.0242781
0.0288527
0.0337173
0.0388124
0.0440783
0.0494573
0.0548952
0.0603417
0.0657515
0.0710848
0.0763072
0.0813898
0.0863089
0.0910451
0.0955831
0.0999124
0.104026
0.107919
0.111591
0.115044
0.118278
0.121298
0.124109
0.126715
0.129121
0.13133
0.133346
0.13517
0.1368
0.138231
0.139455
0.140457
0.141215
0.141693
0.141852
0.14164
0.140968
0.139725
0.131769
0.120479
0.109166
0.0980035
0.0871248
0.0766364
0.0666221
0.0571503
0.0482783
0.0400562
0.0325301
0.0257419
0.0197428
0.0145783
0.010284
0.00687773
0.00433612
0.00257315
0.00144222
0.000768909
0.000393198
0.000193711
9.28888e-05
4.363e-05
2.0129e-05
9.13493e-06
4.08319e-06
1.80001e-06
7.8359e-07
3.37261e-07
1.4368e-07
6.06452e-08
2.53753e-08
1.05214e-08
4.31049e-09
1.72913e-09
6.62059e-10
2.2075e-10
3.88248e-11
4.47138e-07
1.95414e-06
4.48899e-06
8.73836e-06
1.58269e-05
2.75753e-05
4.68902e-05
7.83392e-05
0.000128968
0.000209415
0.000335341
0.000529125
0.000821611
0.0012535
0.00187566
0.00274756
0.00393316
0.00549424
0.00748253
0.00993265
0.0128579
0.01625
0.0200817
0.0243112
0.028887
0.033752
0.0388466
0.0441113
0.0494884
0.0549235
0.0603667
0.0657728
0.0711019
0.07632
0.0813981
0.0863128
0.0910446
0.0955784
0.0999037
0.104014
0.107904
0.111574
0.115024
0.118257
0.121277
0.124088
0.126695
0.129102
0.131315
0.133334
0.135162
0.136796
0.138233
0.139464
0.140473
0.141238
0.141722
0.141886
0.141677
0.141003
0.139749
0.132374
0.121104
0.109797
0.0986248
0.0877293
0.0772182
0.0671766
0.0576734
0.0487665
0.0405062
0.0329391
0.0261073
0.0200614
0.0148476
0.0105024
0.00704532
0.00445633
0.00265314
0.00149175
0.000797897
0.000407737
0.000200718
9.63598e-05
4.53209e-05
2.09238e-05
9.49878e-06
4.24659e-06
1.87221e-06
8.15021e-07
3.50767e-07
1.49417e-07
6.30581e-08
2.63808e-08
1.09365e-08
4.48001e-09
1.79696e-09
6.87898e-10
2.29393e-10
4.03314e-11
4.49002e-07
1.96228e-06
4.50771e-06
8.77486e-06
1.58932e-05
2.76912e-05
4.70881e-05
7.86707e-05
0.000129514
0.000210299
0.000336747
0.000531316
0.000824951
0.00125846
0.00188282
0.00275759
0.00394671
0.00551191
0.00750474
0.00995956
0.0128894
0.0162857
0.0201209
0.0243531
0.0289307
0.0337965
0.0388908
0.0441542
0.049529
0.0549611
0.0604004
0.0658019
0.071126
0.0763386
0.0814111
0.0863201
0.0910462
0.0955746
0.0998948
0.104
0.107886
0.111552
0.114999
0.11823
0.121248
0.124059
0.126666
0.129075
0.131289
0.133311
0.135143
0.136783
0.138225
0.139462
0.140477
0.141249
0.141741
0.141911
0.141705
0.141031
0.139771
0.133106
0.121851
0.110543
0.0993679
0.0884537
0.0779176
0.0678449
0.0583052
0.0493565
0.0410505
0.033434
0.0265498
0.0204476
0.0151745
0.010768
0.00724999
0.00460404
0.00275238
0.0015542
0.000830735
0.000424825
0.000209627
0.000100773
4.74271e-05
2.19046e-05
9.94647e-06
4.44731e-06
1.96076e-06
8.53529e-07
3.67297e-07
1.56433e-07
6.60062e-08
2.76086e-08
1.14433e-08
4.68688e-09
1.87972e-09
7.19438e-10
2.3994e-10
4.21709e-11
4.51201e-07
1.97189e-06
4.52981e-06
8.81799e-06
1.59717e-05
2.78286e-05
4.73228e-05
7.90645e-05
0.000130164
0.000211354
0.000338428
0.000533943
0.000828964
0.00126444
0.00189148
0.00276973
0.00396318