/*--------------------------------*- C++ -*----------------------------------*\
  =========                 |
  \\      /  F ield         | OpenFOAM: The Open Source CFD Toolbox
   \\    /   O peration     | Website:  https://openfoam.org
    \\  /    A nd           | Version:  8
     \\/     M anipulation  |
\*---------------------------------------------------------------------------*/
FoamFile
{
    version     2.0;
    format      ascii;
    class       volScalarField;
    location    "880/fluid";
    object      H2O;
}
// * * * * * * * * * * * * * * * * * * * * * * * * * * * * * * * * * * * * * //

dimensions      [0 0 0 0 0 0 0];

internalField   nonuniform List<scalar> 
4000
(
3.88088e-07
1.69582e-06
3.89472e-06
7.5805e-06
1.37323e-05
2.39433e-05
4.07759e-05
6.82918e-05
0.00011282
0.000184024
0.000296285
0.000470363
0.000735089
0.00112859
0.00169833
0.00249901
0.0035878
0.00501722
0.00682732
0.00903965
0.0116549
0.0146541
0.0180032
0.0216572
0.0255656
0.0296754
0.0339341
0.0382915
0.0427007
0.047119
0.0515086
0.0558364
0.0600744
0.0641994
0.068193
0.0720404
0.0757305
0.0792554
0.0826104
0.0857933
0.0888039
0.0916437
0.0943157
0.0968235
0.0991718
0.101365
0.103409
0.105307
0.107065
0.108683
0.110166
0.111512
0.11272
0.113784
0.114695
0.115439
0.115996
0.116331
0.116411
0.116183
0.115569
0.114462
0.112211
0.103585
0.0948172
0.0860531
0.0774068
0.0689677
0.0608071
0.052983
0.0455444
0.0385345
0.0319941
0.0259936
0.0205103
0.015631
0.0114083
0.00789396
0.00512635
0.00310109
0.00174444
0.000917125
0.000454906
0.000216351
9.99674e-05
4.51462e-05
2.00131e-05
8.7364e-06
3.76498e-06
1.605e-06
6.77955e-07
2.84143e-07
1.1829e-07
4.89414e-08
2.01143e-08
8.18753e-09
3.27058e-09
1.24821e-09
4.16776e-10
7.3037e-11
3.88476e-07
1.69791e-06
3.90126e-06
7.59796e-06
1.37735e-05
2.40309e-05
4.09443e-05
6.85838e-05
0.000113269
0.000184602
0.000296799
0.000470274
0.000733245
0.00112285
0.0016852
0.00247351
0.00354366
0.00494757
0.00672584
0.00890172
0.0114784
0.0144399
0.0177545
0.0213796
0.0252658
0.0293607
0.0336118
0.0379685
0.042383
0.0468118
0.051216
0.0555616
0.0598197
0.0639663
0.0679823
0.0718523
0.0755648
0.0791113
0.082487
0.0856894
0.0887181
0.0915746
0.0942617
0.0967832
0.0991436
0.101348
0.103401
0.105308
0.107072
0.108696
0.110184
0.111534
0.112744
0.11381
0.114723
0.115468
0.116024
0.116358
0.116437
0.116206
0.115586
0.11447
0.111527
0.102845
0.0940326
0.085232
0.0765556
0.0680922
0.0599129
0.0520763
0.0446326
0.0376264
0.0311007
0.0251302
0.0196946
0.0148861
0.0107589
0.0073632
0.00472885
0.00283431
0.00158635
0.000834552
0.000416572
0.00019984
9.32734e-05
4.25602e-05
1.90506e-05
8.38726e-06
3.63998e-06
1.56022e-06
6.61666e-07
2.78054e-07
1.15934e-07
4.79982e-08
1.97273e-08
8.02727e-09
3.20496e-09
1.22258e-09
4.08024e-10
7.1468e-11
3.89379e-07
1.70208e-06
3.91182e-06
7.62086e-06
1.38189e-05
2.41145e-05
4.10872e-05
6.88086e-05
0.000113587
0.000184981
0.000297096
0.000470087
0.000731664
0.00111827
0.00167508
0.00245414
0.00351019
0.00489427
0.00664671
0.00879134
0.0113327
0.0142569
0.0175343
0.0211246
0.0249802
0.0290503
0.0332832
0.0376285
0.0420385
0.0464692
0.0508812
0.0552396
0.0595146
0.0636814
0.0677199
0.0716142
0.0753518
0.0789238
0.0823247
0.0855515
0.0886036
0.0914822
0.0941898
0.0967303
0.0991079
0.101328
0.103395
0.105313
0.107087
0.108721
0.110215
0.111571
0.112786
0.113855
0.114769
0.115515
0.11607
0.116401
0.116475
0.116236
0.115603
0.114469
0.11032
0.101598
0.0927482
0.0839175
0.0752204
0.0667471
0.0585703
0.05075
0.0433381
0.0363811
0.0299239
0.0240328
0.0187111
0.0140389
0.0100659
0.00683415
0.00435847
0.00259983
0.00145259
0.000765209
0.000383408
0.000184757
8.66668e-05
3.97513e-05
1.78845e-05
7.91204e-06
3.44887e-06
1.48399e-06
6.31364e-07
2.65996e-07
1.11116e-07
4.6062e-08
1.89456e-08
7.71174e-09
3.07915e-09
1.17444e-09
3.91804e-10
6.85936e-11
3.88946e-07
1.70016e-06
3.90729e-06
7.61136e-06
1.37991e-05
2.40715e-05
4.09917e-05
6.85965e-05
0.000113126
0.000184017
0.000295169
0.000466434
0.00072511
0.00110704
0.00165664
0.00242518
0.0034667
0.00483188
0.00656117
0.00867904
0.0111912
0.014085
0.0173325
0.0208946
0.024725
0.0287738
0.0329902
0.0373242
0.0417283
0.0461585
0.050575
0.0549426
0.059231
0.0634145
0.0674725
0.0713883
0.0751489
0.0787447
0.0821697
0.0854203
0.0884956
0.0913964
0.094125
0.096685
0.0990808
0.101317
0.103398
0.105329
0.107114
0.108757
0.110258
0.111619
0.112838
0.113909
0.114823
0.115567
0.116118
0.116442
0.116506
0.116253
0.1156
0.114439
0.108819
0.100083
0.0912165
0.0823746
0.0736759
0.0652137
0.057063
0.0492856
0.0419344
0.0350573
0.0287004
0.022906
0.0177219
0.0132005
0.00938738
0.00631754
0.00399435
0.00236516
0.0013148
0.000691021
0.000346315
0.000167214
7.86701e-05
3.62098e-05
1.63524e-05
7.26215e-06
3.17764e-06
1.37227e-06
5.85807e-07
2.47554e-07
1.03686e-07
4.30792e-08
1.77517e-08
7.23651e-09
2.89269e-09
1.10416e-09
3.68404e-10
6.45226e-11
3.87395e-07
1.6933e-06
3.89118e-06
7.57891e-06
1.37374e-05
2.39573e-05
4.07822e-05
6.82149e-05
0.000112436
0.000182782
0.00029299
0.000462662
0.000718727
0.00109653
0.00163987
0.00239938
0.00342851
0.00477766
0.00648736
0.00858265
0.0110701
0.0139383
0.0171606
0.0206989
0.0245081
0.028539
0.0327413
0.0370656
0.0414645
0.045894
0.050314
0.0546892
0.0589887
0.0631864
0.0672612
0.0711957
0.0749765
0.0785934
0.0820399
0.0853121
0.0884084
0.0913295
0.0940775
0.0966558
0.0990683
0.101319
0.103413
0.105356
0.107151
0.108801
0.110308
0.111673
0.112893
0.113963
0.114875
0.115612
0.116155
0.116465
0.116514
0.116239
0.115557
0.114361
0.10724
0.098511
0.0896417
0.0807984
0.0721078
0.0636676
0.055555
0.0478325
0.0405534
0.0337653
0.0275239
0.0218482
0.0168
0.0124265
0.00876849
0.00585298
0.00367189
0.00216036
0.0011959
0.000627373
0.000314476
0.000152069
7.16999e-05
3.30829e-05
1.49781e-05
6.66818e-06
2.92447e-06
1.2656e-06
5.41291e-07
2.29122e-07
9.61034e-08
3.99768e-08
1.64897e-08
6.72741e-09
2.69079e-09
1.02745e-09
3.42739e-10
6.00484e-11
3.8497e-07
1.6826e-06
3.86613e-06
7.52882e-06
1.36435e-05
2.37866e-05
4.04779e-05
6.76791e-05
0.000111504
0.000181182
0.000290289
0.000458185
0.000711472
0.00108507
0.00162233
0.00237337
0.00339133
0.00472647
0.00641952
0.00849603
0.0109634
0.013811
0.0170132
0.0205328
0.0243253
0.0283423
0.032534
0.0368511
0.0412464
0.045676
0.0500997
0.0544817
0.0587911
0.0630013
0.0670906
0.0710415
0.0748398
0.0784751
0.0819403
0.0852313
0.088346
0.0912849
0.0940501
0.0966439
0.0990703
0.101334
0.10344
0.105391
0.107194
0.108849
0.11036
0.111726
0.112944
0.11401
0.114914
0.11564
0.116168
0.116459
0.116485
0.116184
0.115472
0.114255
0.105881
0.0971112
0.0882019
0.0793345
0.0706402
0.0622174
0.0541422
0.0464756
0.0392694
0.0325696
0.0264417
0.0208806
0.0159612
0.0117268
0.00821281
0.0054383
0.00338501
0.00197797
0.00108931
0.000569609
0.000285088
0.000137866
6.50584e-05
3.00595e-05
1.36323e-05
6.08043e-06
2.6719e-06
1.15855e-06
4.96431e-07
2.10499e-07
8.84315e-08
3.68365e-08
1.52124e-08
6.21231e-09
2.48657e-09
9.49864e-10
3.16831e-10
5.55329e-11
3.8217e-07
1.6703e-06
3.83756e-06
7.4723e-06
1.35389e-05
2.35999e-05
4.0151e-05
6.71156e-05
0.000110546
0.000179574
0.000287631
0.00045387
0.000704613
0.00107443
0.00160626
0.00234988
0.00335813
0.00468122
0.00636012
0.00842085
0.0108715
0.0137023
0.0168883
0.020393
0.0241725
0.028179
0.0323628
0.036675
0.0410684
0.0454991
0.0499268
0.0543156
0.058634
0.0628554
0.0669577
0.0709228
0.0747365
0.0783877
0.0818691
0.0851761
0.0883067
0.091261
0.0940401
0.0966468
0.0990851
0.101359
0.103474
0.105433
0.10724
0.108899
0.11041
0.111774
0.112988
0.114045
0.114935
0.115642
0.116144
0.116401
0.116386
0.116033
0.115265
0.114006
0.105124
0.0960679
0.087
0.0780513
0.0693265
0.0609086
0.0528647
0.0452503
0.0381127
0.0314945
0.025462
0.0200024
0.0152034
0.0111006
0.00772216
0.00507616
0.00313694
0.00182158
0.000998454
0.00052051
0.000260094
0.000125745
5.93588e-05
2.74458e-05
1.24589e-05
5.56316e-06
2.44747e-06
1.06251e-06
4.55817e-07
1.93497e-07
8.13755e-08
3.39299e-08
1.40237e-08
5.73081e-09
2.29497e-09
8.76843e-10
2.92519e-10
5.12951e-11
3.79263e-07
1.65755e-06
3.80805e-06
7.41415e-06
1.34319e-05
2.34098e-05
3.98207e-05
6.6551e-05
0.000109594
0.000177994
0.000285051
0.000449734
0.000698123
0.0010645
0.00159148
0.00232854
0.00332837
0.00464118
0.00630816
0.0083558
0.0107928
0.01361
0.0167831
0.0202762
0.0240459
0.0280445
0.0322228
0.036532
0.0409249
0.0453576
0.0497897
0.054185
0.0585119
0.0627433
0.0668571
0.0708347
0.0746616
0.0783265
0.0818217
0.0851425
0.0882866
0.0912532
0.0940439
0.0966613
0.0991092
0.101392
0.103513
0.105477
0.107288
0.108948
0.110458
0.111818
0.113024
0.11407
0.114942
0.115623
0.116086
0.116289
0.116193
0.115719
0.114763
0.113215
0.104171
0.0949947
0.0858498
0.0768615
0.0681281
0.059727
0.0517209
0.0441618
0.0370942
0.030558
0.0246181
0.019272
0.0145772
0.0105748
0.00730274
0.00476646
0.00292529
0.00168826
0.000920892
0.000478428
0.000238543
0.000115229
5.43817e-05
2.51495e-05
1.14222e-05
5.10382e-06
2.24729e-06
9.7651e-07
4.19328e-07
1.78179e-07
7.50028e-08
3.12994e-08
1.29462e-08
5.29368e-09
2.12076e-09
8.10552e-10
2.70419e-10
4.74412e-11
3.76447e-07
1.64522e-06
3.77958e-06
7.35825e-06
1.33295e-05
2.32289e-05
3.95082e-05
6.60203e-05
0.000108707
0.000176532
0.000282683
0.000445971
0.000692269
0.00105561
0.00157836
0.00230976
0.00330238
0.00460646
0.00626344
0.00830022
0.010726
0.0135322
0.0166951
0.0201792
0.0239414
0.0279344
0.0321091
0.0364167
0.0408102
0.0452455
0.0496821
0.0540837
0.0584184
0.062659
0.0667828
0.0707715
0.0746098
0.0782864
0.0817934
0.0851259
0.0882807
0.0912575
0.0940577
0.0966838
0.0991393
0.101428
0.103554
0.105522
0.107335
0.108995
0.110504
0.11186
0.113059
0.114094
0.114951
0.115613
0.116046
0.116211
0.116061
0.115507
0.114433
0.112352
0.103195
0.0939477
0.0847636
0.0757623
0.0670374
0.0586632
0.0507002
0.0431996
0.0362063
0.0297643
0.0239365
0.0186908
0.0140918
0.0101761
0.00696866
0.00450765
0.00274637
0.00157548
0.000855313
0.000442841
0.000220292
0.000106302
5.01441e-05
2.31872e-05
1.05328e-05
4.70816e-06
2.07415e-06
9.01838e-07
3.87528e-07
1.64784e-07
6.9413e-08
2.8986e-08
1.19964e-08
4.90762e-09
1.96664e-09
7.51923e-10
2.50854e-10
4.4026e-11
3.73829e-07
1.63376e-06
3.75316e-06
7.3065e-06
1.32349e-05
2.30623e-05
3.92215e-05
6.55354e-05
0.000107899
0.00017521
0.000280553
0.000442605
0.000687066
0.00104776
0.00156685
0.00229341
0.0032799
0.00457665
0.00622531
0.00825314
0.0106698
0.0134673
0.0166221
0.0200992
0.0238559
0.027845
0.0320175
0.0363246
0.0407194
0.0451576
0.0495987
0.0540061
0.058348
0.0625967
0.0667295
0.0707276
0.0745758
0.0782624
0.0817794
0.0851211
0.0882848
0.0912701
0.094078
0.096711
0.0991724
0.101466
0.103596
0.105566
0.10738
0.10904
0.110547
0.111899
0.113093
0.114121
0.11497
0.11562
0.116041
0.116196
0.116039
0.115489
0.114444
0.111414
0.102221
0.092952
0.083761
0.074767
0.0660629
0.0577218
0.0498028
0.0423556
0.0354249
0.0290479
0.02325
0.0180736
0.0135619
0.00975074
0.00666701
0.00428783
0.00259217
0.00147877
0.000799389
0.000412578
0.000204781
9.87106e-05
4.65353e-05
2.15131e-05
9.77238e-06
4.36916e-06
1.92548e-06
8.37581e-07
3.60107e-07
1.53211e-07
6.45755e-08
2.69808e-08
1.1172e-08
4.57214e-09
1.83265e-09
7.00911e-10
2.33827e-10
4.10539e-11
3.71467e-07
1.62343e-06
3.72937e-06
7.25996e-06
1.31501e-05
2.29132e-05
3.89656e-05
6.51042e-05
0.000107184
0.000174042
0.000278681
0.000439661
0.000682537
0.00104097
0.00155694
0.00227939
0.00326074
0.00455136
0.00619312
0.00821363
0.0106229
0.0134134
0.0165619
0.0200337
0.0237864
0.0277728
0.031944
0.0362514
0.0406479
0.0450892
0.0495346
0.0539475
0.0582958
0.0625517
0.0666923
0.0706985
0.0745551
0.0782501
0.081775
0.0851244
0.0882955
0.0912876
0.0941016
0.0967399
0.0992057
0.101503
0.103635
0.105607
0.107421
0.10908
0.110585
0.111934
0.113124
0.114146
0.114989
0.115633
0.116047
0.116196
0.116036
0.115486
0.114448
0.110498
0.101298
0.0920312
0.0828519
0.0738794
0.0652077
0.056908
0.0490386
0.0416489
0.0347673
0.0284334
0.0226806
0.0175642
0.0131226
0.00938762
0.00638087
0.00409637
0.0024651
0.00139716
0.000752205
0.000387079
0.000191719
9.23169e-05
4.34935e-05
2.01003e-05
9.12969e-06
4.08214e-06
1.79938e-06
7.82978e-07
3.36765e-07
1.43344e-07
6.04442e-08
2.5266e-08
1.04661e-08
4.2846e-09
1.71782e-09
6.57166e-10
2.19217e-10
3.85041e-11
3.69385e-07
1.61433e-06
3.70842e-06
7.21903e-06
1.30756e-05
2.27825e-05
3.87418e-05
6.47279e-05
0.000106562
0.00017303
0.000277062
0.000437125
0.000678652
0.00103516
0.00154851
0.00226751
0.00324457
0.00453012
0.00616623
0.00818077
0.0105841
0.013369
0.0165126
0.0199805
0.0237302
0.0277149
0.0318856
0.0361937
0.0405921
0.0450364
0.0494859
0.0539037
0.0582576
0.0625198
0.066667
0.0706802
0.0745438
0.0782456
0.0817771
0.0851329
0.0883098
0.0913072
0.0941259
0.0967682
0.0992371
0.101537
0.10367
0.105643
0.107457
0.109114
0.110617
0.111962
0.113148
0.114165
0.115002
0.11564
0.116048
0.116192
0.116028
0.115478
0.114442
0.109679
0.100474
0.0912144
0.0820549
0.0731134
0.0644704
0.0561984
0.0483546
0.0409847
0.0341398
0.0278563
0.0221689
0.0171181
0.0127435
0.00907689
0.00613799
0.00391689
0.00235423
0.00132956
0.000712361
0.000365569
0.000180736
8.69487e-05
4.0941e-05
1.89147e-05
8.59011e-06
3.84097e-06
1.69332e-06
7.37002e-07
3.17086e-07
1.35014e-07
5.6953e-08
2.38153e-08
9.86843e-09
4.04101e-09
1.62045e-09
6.20083e-10
2.06824e-10
3.63412e-11
3.67586e-07
1.60647e-06
3.69034e-06
7.18374e-06
1.30114e-05
2.26701e-05
3.85498e-05
6.44056e-05
0.00010603
0.000172167
0.000275687
0.000434976
0.000675368
0.00103027
0.00154142
0.00225758
0.00323109
0.00451249
0.00614399
0.00815371
0.0105523
0.0133328
0.0164727
0.0199375
0.0236852
0.0276688
0.0318394
0.0361485
0.0405488
0.044996
0.0494491
0.0538713
0.0582301
0.0624976
0.0666504
0.0706694
0.0745387
0.078246
0.0817829
0.0851437
0.0883253
0.0913267
0.0941489
0.0967939
0.099265
0.101566
0.1037
0.105672
0.107485
0.109141
0.11064
0.111983
0.113164
0.114176
0.115007
0.11564
0.116042
0.116181
0.116013
0.115461
0.114429
0.108972
0.0997579
0.0905005
0.0813515
0.0724161
0.0637902
0.0555438
0.0477337
0.0404075
0.0336075
0.0273719
0.0217358
0.01674
0.012423
0.0088155
0.00593536
0.00376918
0.00225327
0.00127236
0.000680084
0.000347785
0.000171612
8.24982e-05
3.88262e-05
1.79322e-05
8.14266e-06
3.64078e-06
1.60517e-06
6.98737e-07
3.00686e-07
1.28063e-07
5.40355e-08
2.26015e-08
9.3679e-09
3.83686e-09
1.53879e-09
5.88974e-10
1.96423e-10
3.45265e-11
3.66061e-07
1.59981e-06
3.67502e-06
7.15388e-06
1.29571e-05
2.25752e-05
3.83878e-05
6.41344e-05
0.000105583
0.000171443
0.000274536
0.000433182
0.000672635
0.00102621
0.00153556
0.00224937
0.00322
0.00449803
0.00612581
0.00813169
0.0105266
0.0133036
0.0164406
0.0199032
0.0236494
0.0276324
0.0318033
0.0361134
0.0405156
0.0449653
0.0494216
0.0538475
0.0582104
0.0624824
0.0666398
0.0706635
0.0745373
0.0782491
0.0817902
0.0851549
0.0883399
0.0913444
0.094169
0.0968159
0.0992881
0.101589
0.103724
0.105695
0.107506
0.109159
0.110656
0.111994
0.11317
0.114178
0.115004
0.11563
0.116026
0.116161
0.11599
0.115438
0.114411
0.108373
0.0991464
0.08989
0.0807431
0.071823
0.0632177
0.0549967
0.0472165
0.0399245
0.0331619
0.0269667
0.0213736
0.0164239
0.0121555
0.00859805
0.00576782
0.00364826
0.00217204
0.00122124
0.000653207
0.000333796
0.000164319
7.88854e-05
3.71021e-05
1.71294e-05
7.77619e-06
3.47648e-06
1.53268e-06
6.67217e-07
2.87155e-07
1.22321e-07
5.16225e-08
2.15966e-08
8.95313e-09
3.66755e-09
1.47105e-09
5.63161e-10
1.8779e-10
3.30208e-11
3.64796e-07
1.59428e-06
3.66233e-06
7.12913e-06
1.29122e-05
2.24967e-05
3.82541e-05
6.39107e-05
0.000105215
0.000170849
0.000273592
0.000431714
0.000670402
0.0010229
0.00153079
0.00224272
0.00321103
0.00448636
0.00611119
0.00811403
0.010506
0.0132804
0.0164151
0.0198762
0.0236214
0.027604
0.0317752
0.0360864
0.0404902
0.0449421
0.0494011
0.0538301
0.0581964
0.0624719
0.0666331
0.0706603
0.0745377
0.078253
0.0817973
0.0851648
0.0883524
0.0913589
0.0941851
0.096833
0.0993058
0.101607
0.103741
0.10571
0.107519
0.10917
0.110662
0.111997
0.113169
0.114171
0.114991
0.115612
0.116003
0.116133
0.11596
0.115409
0.114391
0.107878
0.0986347
0.0893735
0.0802344
0.0713282
0.0627414
0.0545427
0.0467883
0.0395248
0.0327935
0.0266319
0.0210745
0.0161631
0.011935
0.00841931
0.00563064
0.00354987
0.00210657
0.0011807
0.000629479
0.000321897
0.000158584
7.60444e-05
3.57181e-05
1.64788e-05
7.47837e-06
3.34273e-06
1.47359e-06
6.4149e-07
2.761e-07
1.17624e-07
4.96476e-08
2.07736e-08
8.61338e-09
3.52882e-09
1.41555e-09
5.42015e-10
1.80717e-10
3.17876e-11
3.63774e-07
1.58982e-06
3.65208e-06
7.10917e-06
1.2876e-05
2.24335e-05
3.81465e-05
6.37309e-05
0.00010492
0.000170372
0.000272836
0.000430539
0.000668619
0.00102026
0.001527
0.00223744
0.00320392
0.00447714
0.00609966
0.00810014
0.0104898
0.0132622
0.0163953
0.0198552
0.0235997
0.0275822
0.0317538
0.0360659
0.0404711
0.0449248
0.049386
0.0538174
0.0581863
0.0624646
0.0666286
0.0706585
0.0745386
0.0782564
0.081803
0.0851725
0.0883617
0.0913695
0.0941965
0.0968448
0.0993174
0.101618
0.10375
0.105718
0.107524
0.109172
0.110661
0.111991
0.113158
0.114155
0.11497
0.115586
0.115972
0.116099
0.115924
0.115376
0.11437
0.107476
0.0982195
0.0889535
0.0798191
0.0709239
0.0623525
0.0541728
0.0464399
0.0392002
0.0324946
0.0263606
0.0208324
0.0159522
0.0117569
0.00827518
0.00552031
0.00347103
0.00205437
0.00114862
0.000610913
0.000311506
0.000153287
7.36261e-05
3.46146e-05
1.59602e-05
7.23868e-06
3.23468e-06
1.42581e-06
6.20707e-07
2.67175e-07
1.13836e-07
4.80556e-08
2.01106e-08
8.34001e-09
3.41722e-09
1.37095e-09
5.25034e-10
1.7504e-10
3.07977e-11
3.62979e-07
1.58635e-06
3.64411e-06
7.09364e-06
1.28478e-05
2.23844e-05
3.80629e-05
6.35914e-05
0.000104691
0.000170003
0.000272252
0.000429633
0.000667244
0.00101823
0.00152408
0.00223338
0.00319847
0.00447008
0.00609087
0.00808957
0.0104776
0.0132485
0.0163804
0.0198394
0.0235834
0.0275659
0.0317379
0.0360507
0.040457
0.0449121
0.0493749
0.0538081
0.058179
0.0624593
0.0666251
0.070657
0.0745389
0.0782584
0.0818064
0.0851772
0.0883674
0.0913758
0.094203
0.0968512
0.0993232
0.101623
0.103753
0.105719
0.107523
0.109167
0.110653
0.111979
0.113141
0.114133
0.114943
0.115554
0.115936
0.116061
0.115886
0.115343
0.11435
0.107159
0.0978861
0.0886172
0.0794873
0.0706017
0.0620436
0.0538797
0.0461645
0.0389443
0.0322595
0.0261475
0.0206425
0.015787
0.0116178
0.00816281
0.00543452
0.0034099
0.00201405
0.001124
0.000596867
0.000303912
0.000149349
7.16267e-05
3.36601e-05
1.55372e-05
7.04942e-06
3.15005e-06
1.38845e-06
6.0446e-07
2.60205e-07
1.10882e-07
4.68159e-08
1.95963e-08
8.12821e-09
3.33091e-09
1.33647e-09
5.11917e-10
1.70655e-10
3.00332e-11
3.62396e-07
1.5838e-06
3.63826e-06
7.08227e-06
1.28272e-05
2.23485e-05
3.80018e-05
6.34894e-05
0.000104524
0.000169733
0.000271825
0.000428972
0.000666243
0.00101675
0.00152197
0.00223044
0.00319452
0.00446498
0.00608451
0.00808194
0.0104687
0.0132386
0.0163696
0.019828
0.0235718
0.0275543
0.0317266
0.0360399
0.040447
0.0449031
0.049367
0.0538015
0.0581737
0.0624553
0.0666223
0.0706554
0.0745383
0.0782587
0.0818076
0.085179
0.0883695
0.0913781
0.0942052
0.0968529
0.099324
0.101622
0.103751
0.105715
0.107516
0.109157
0.110639
0.11196
0.113118
0.114105
0.114911
0.115517
0.115896
0.11602
0.115847
0.115311
0.114333
0.106924
0.0976356
0.0883623
0.0792352
0.0703573
0.0618099
0.0536588
0.0459578
0.0387528
0.0320841
0.025989
0.0205017
0.0156648
0.011515
0.00808006
0.00537154
0.00336517
0.00198463
0.00110605
0.000586646
0.000298418
0.000146531
7.02368e-05
3.2991e-05
1.52196e-05
6.90829e-06
3.08854e-06
1.36167e-06
5.92892e-07
2.55244e-07
1.08788e-07
4.59337e-08
1.92307e-08
7.97689e-09
3.26918e-09
1.31177e-09
5.02494e-10
1.675e-10
2.94828e-11
3.62016e-07
1.58214e-06
3.63445e-06
7.07483e-06
1.28138e-05
2.2325e-05
3.79619e-05
6.34229e-05
0.000104415
0.000169557
0.000271548
0.000428542
0.000665593
0.0010158
0.00152059
0.00222853
0.00319197
0.00446168
0.0060804
0.00807702
0.010463
0.0132322
0.0163627
0.0198208
0.0235644
0.0275468
0.0317193
0.036033
0.0404406
0.0448973
0.049362
0.0537972
0.0581702
0.0624524
0.0666201
0.0706536
0.074537
0.0782578
0.0818069
0.0851785
0.0883691
0.0913775
0.0942042
0.0968511
0.0993212
0.101618
0.103745
0.105707
0.107505
0.109143
0.110622
0.11194
0.113094
0.114077
0.114878
0.115481
0.115857
0.11598
0.11581
0.115282
0.114322
0.106771
0.0974653
0.0881864
0.0790609
0.0701886
0.0616494
0.053508
0.0458176
0.0386236
0.0319664
0.0258831
0.020408
0.0155838
0.0114472
0.00802566
0.00533033
0.00333605
0.00196555
0.00109443
0.000580019
0.000294853
0.000144701
6.93555e-05
3.25677e-05
1.50238e-05
6.81606e-06
3.04741e-06
1.34369e-06
5.85278e-07
2.51989e-07
1.07426e-07
4.5361e-08
1.89944e-08
7.87929e-09
3.22943e-09
1.2959e-09
4.96436e-10
1.65471e-10
2.91287e-11
3.6183e-07
1.58133e-06
3.63259e-06
7.07123e-06
1.28072e-05
2.23137e-05
3.79427e-05
6.3391e-05
0.000104363
0.000169474
0.000271416
0.000428338
0.000665285
0.00101534
0.00151994
0.00222763
0.00319076
0.00446012
0.00607846
0.00807469
0.0104603
0.0132292
0.0163595
0.0198173
0.0235608
0.0275433
0.0317159
0.0360297
0.0404375
0.0448946
0.0493595
0.0537951
0.0581683
0.0624509
0.0666188
0.0706524
0.0745358
0.0782565
0.0818057
0.0851771
0.0883676
0.0913757
0.0942019
0.0968483
0.0993177
0.101614
0.10374
0.105699
0.107496
0.109132
0.110609
0.111924
0.113075
0.114055
0.114853
0.115453
0.115828
0.11595
0.115782
0.115261
0.114317
0.106687
0.0973713
0.08809
0.0789664
0.0700984
0.0615649
0.0534295
0.0457455
0.0385579
0.0319071
0.0258304
0.0203618
0.0155442
0.0114143
0.00799952
0.00531069
0.00332229
0.00195663
0.00108904
0.000576955
0.000293205
0.000143853
6.89498e-05
3.23729e-05
1.49343e-05
6.77449e-06
3.02878e-06
1.33522e-06
5.81599e-07
2.50402e-07
1.06759e-07
4.50809e-08
1.88788e-08
7.83166e-09
3.21004e-09
1.28816e-09
4.93485e-10
1.64481e-10
2.8956e-11
3.61831e-07
1.58133e-06
3.6326e-06
7.07124e-06
1.28073e-05
2.23137e-05
3.79428e-05
6.33911e-05
0.000104363
0.000169474
0.000271416
0.000428339
0.000665286
0.00101534
0.00151994
0.00222763
0.00319076
0.00446012
0.00607846
0.00807469
0.0104604
0.0132292
0.0163595
0.0198173
0.0235608
0.0275433
0.0317159
0.0360297
0.0404375
0.0448946
0.0493595
0.0537951
0.0581684
0.0624509
0.0666188
0.0706524
0.0745358
0.0782565
0.0818057
0.0851771
0.0883676
0.0913756
0.0942019
0.0968483
0.0993177
0.101613
0.10374
0.105699
0.107496
0.109132
0.110609
0.111924
0.113075
0.114055
0.114853
0.115453
0.115827
0.11595
0.115782
0.115261
0.114316
0.106687
0.0973714
0.08809
0.0789664
0.0700985
0.0615649
0.0534295
0.0457455
0.0385579
0.0319071
0.0258304
0.0203618
0.0155442
0.0114143
0.00799953
0.00531069
0.0033223
0.00195664
0.00108905
0.000576957
0.000293206
0.000143854
6.89498e-05
3.23732e-05
1.49343e-05
6.77446e-06
3.02874e-06
1.33521e-06
5.81589e-07
2.50398e-07
1.06757e-07
4.50801e-08
1.88782e-08
7.8316e-09
3.20999e-09
1.28815e-09
4.93481e-10
1.64481e-10
2.89556e-11
3.62017e-07
1.58215e-06
3.63446e-06
7.07487e-06
1.28138e-05
2.23251e-05
3.79621e-05
6.34232e-05
0.000104415
0.000169558
0.000271549
0.000428544
0.000665596
0.0010158
0.0015206
0.00222854
0.00319198
0.00446169
0.00608042
0.00807703
0.0104631
0.0132323
0.0163628
0.0198208
0.0235644
0.0275468
0.0317193
0.036033
0.0404406
0.0448974
0.049362
0.0537972
0.0581702
0.0624524
0.0666201
0.0706536
0.074537
0.0782578
0.081807
0.0851785
0.0883691
0.0913775
0.0942041
0.0968511
0.0993212
0.101618
0.103745
0.105707
0.107505
0.109143
0.110622
0.11194
0.113094
0.114077
0.114878
0.115481
0.115857
0.11598
0.11581
0.115282
0.114322
0.106771
0.0974655
0.0881866
0.079061
0.0701887
0.0616495
0.053508
0.0458176
0.0386236
0.0319663
0.0258831
0.020408
0.0155838
0.0114472
0.00802567
0.00533034
0.00333606
0.00196556
0.00109444
0.000580023
0.000294856
0.000144703
6.93557e-05
3.25681e-05
1.50237e-05
6.81602e-06
3.04734e-06
1.34366e-06
5.85254e-07
2.51982e-07
1.07419e-07
4.53598e-08
1.89931e-08
7.87921e-09
3.22932e-09
1.29589e-09
4.96428e-10
1.65471e-10
2.91277e-11
3.624e-07
1.58382e-06
3.63829e-06
7.08232e-06
1.28273e-05
2.23487e-05
3.80021e-05
6.34899e-05
0.000104525
0.000169734
0.000271827
0.000428975
0.000666248
0.00101676
0.00152197
0.00223045
0.00319454
0.004465
0.00608454
0.00808197
0.0104688
0.0132386
0.0163697
0.0198281
0.0235719
0.0275543
0.0317266
0.0360399
0.040447
0.0449031
0.0493671
0.0538015
0.0581737
0.0624553
0.0666224
0.0706554
0.0745383
0.0782587
0.0818076
0.085179
0.0883695
0.0913781
0.0942052
0.0968528
0.099324
0.101622
0.103751
0.105715
0.107516
0.109157
0.110639
0.11196
0.113118
0.114105
0.114911
0.115517
0.115896
0.11602
0.115847
0.115311
0.114333
0.106925
0.097636
0.0883626
0.0792355
0.0703574
0.06181
0.0536588
0.0459579
0.0387528
0.0320841
0.0259891
0.0205017
0.0156648
0.011515
0.0080801
0.00537157
0.0033652
0.00198465
0.00110607
0.000586655
0.000298423
0.000146534
7.02381e-05
3.29916e-05
1.52199e-05
6.90838e-06
3.08855e-06
1.36166e-06
5.92883e-07
2.5524e-07
1.08784e-07
4.59326e-08
1.92296e-08
7.97686e-09
3.26907e-09
1.31178e-09
5.02486e-10
1.67501e-10
2.94813e-11
3.62983e-07
1.58636e-06
3.64415e-06
7.09372e-06
1.2848e-05
2.23847e-05
3.80633e-05
6.35921e-05
0.000104692
0.000170004
0.000272254
0.000429637
0.000667251
0.00101824
0.0015241
0.0022334
0.0031985
0.00447011
0.0060909
0.00808961
0.0104776
0.0132485
0.0163804
0.0198394
0.0235835
0.0275659
0.0317379
0.0360507
0.040457
0.0449121
0.0493749
0.0538082
0.0581791
0.0624593
0.0666252
0.070657
0.0745389
0.0782584
0.0818064
0.0851772
0.0883674
0.0913758
0.094203
0.0968512
0.0993232
0.101623
0.103753
0.105719
0.107523
0.109167
0.110653
0.111979
0.113141
0.114133
0.114943
0.115553
0.115936
0.116061
0.115886
0.115343
0.11435
0.107159
0.0978863
0.0886175
0.0794875
0.0706018
0.0620437
0.0538798
0.0461646
0.0389443
0.0322595
0.0261476
0.0206426
0.0157871
0.0116178
0.00816288
0.00543458
0.00340994
0.00201408
0.00112402
0.000596879
0.000303919
0.000149353
7.16285e-05
3.3661e-05
1.55376e-05
7.04954e-06
3.15011e-06
1.38848e-06
6.04473e-07
2.60209e-07
1.10884e-07
4.68162e-08
1.95963e-08
8.12832e-09
3.33093e-09
1.33651e-09
5.11916e-10
1.70659e-10
3.00315e-11
3.63779e-07
1.58984e-06
3.65213e-06
7.10927e-06
1.28762e-05
2.24338e-05
3.8147e-05
6.37317e-05
0.000104921
0.000170374
0.000272839
0.000430545
0.000668627
0.00102027
0.00152702
0.00223746
0.00320395
0.00447717
0.00609971
0.0081002
0.0104899
0.0132623
0.0163954
0.0198552
0.0235998
0.0275823
0.0317539
0.036066
0.0404712
0.0449249
0.049386
0.0538174
0.0581864
0.0624647
0.0666286
0.0706586
0.0745387
0.0782564
0.081803
0.0851726
0.0883618
0.0913695
0.0941966
0.0968449
0.0993174
0.101618
0.10375
0.105718
0.107524
0.109172
0.110661
0.111991
0.113158
0.114155
0.11497
0.115586
0.115972
0.116099
0.115924
0.115376
0.11437
0.107477
0.0982197
0.0889537
0.0798193
0.070924
0.0623527
0.0541729
0.04644
0.0392003
0.0324947
0.0263607
0.0208325
0.0159523
0.011757
0.00827528
0.00552039
0.00347109
0.00205441
0.00114864
0.000610928
0.000311514
0.000153291
7.36284e-05
3.46157e-05
1.59607e-05
7.23896e-06
3.2348e-06
1.42587e-06
6.20731e-07
2.67186e-07
1.1384e-07
4.80572e-08
2.01113e-08
8.34024e-09
3.41732e-09
1.371e-09
5.25036e-10
1.75046e-10
3.07956e-11
3.64802e-07
1.59431e-06
3.66239e-06
7.12925e-06
1.29124e-05
2.24971e-05
3.82547e-05
6.39118e-05
0.000105217
0.000170851
0.000273596
0.00043172
0.000670411
0.00102291
0.00153081
0.00224275
0.00321106
0.0044864
0.00611125
0.00811409
0.0105061
0.0132805
0.0164152
0.0198763
0.0236215
0.0276041
0.0317753
0.0360865
0.0404903
0.0449422
0.0494012
0.0538302
0.0581965
0.062472
0.0666331
0.0706604
0.0745378
0.0782531
0.0817974
0.0851649
0.0883524
0.0913589
0.0941851
0.0968331
0.0993058
0.101607
0.103741
0.10571
0.107519
0.10917
0.110662
0.111997
0.113169
0.114171
0.114991
0.115612
0.116003
0.116133
0.11596
0.115409
0.114392
0.107878
0.098635
0.0893736
0.0802346
0.0713283
0.0627415
0.0545429
0.0467884
0.039525
0.0327936
0.0266321
0.0210747
0.0161633
0.0119351
0.00841943
0.00563074
0.00354995
0.00210662
0.00118073
0.000629499
0.000321908
0.00015859
7.60472e-05
3.57195e-05
1.64795e-05
7.47869e-06
3.34287e-06
1.47365e-06
6.41518e-07
2.76112e-07
1.17629e-07
4.96497e-08
2.07745e-08
8.61374e-09
3.52896e-09
1.41562e-09
5.42022e-10
1.80726e-10
3.17855e-11
3.66068e-07
1.59984e-06
3.6751e-06
7.15402e-06
1.29574e-05
2.25756e-05
3.83886e-05
6.41356e-05
0.000105585
0.000171446
0.000274541
0.00043319
0.000672646
0.00102623
0.00153558
0.00224941
0.00322004
0.00449808
0.00612588
0.00813177
0.0105267
0.0133037
0.0164407
0.0199034
0.0236496
0.0276325
0.0318034
0.0361135
0.0405157
0.0449654
0.0494217
0.0538476
0.0582105
0.0624825
0.0666399
0.0706636
0.0745374
0.0782492
0.0817903
0.085155
0.08834
0.0913444
0.094169
0.0968159
0.0992882
0.10159
0.103724
0.105695
0.107506
0.109159
0.110656
0.111994
0.113171
0.114178
0.115004
0.11563
0.116026
0.116161
0.11599
0.115438
0.114411
0.108373
0.0991464
0.08989
0.0807432
0.0718232
0.0632179
0.0549969
0.0472167
0.0399247
0.0331621
0.0269669
0.0213738
0.0164241
0.0121556
0.0085982
0.00576794
0.00364836
0.0021721
0.00122128
0.000653232
0.000333811
0.000164326
7.88889e-05
3.71038e-05
1.71301e-05
7.77656e-06
3.47664e-06
1.53276e-06
6.6725e-07
2.8717e-07
1.22327e-07
5.16251e-08
2.15977e-08
8.95361e-09
3.66774e-09
1.47116e-09
5.63176e-10
1.87802e-10
3.30189e-11
3.67594e-07
1.6065e-06
3.69042e-06
7.1839e-06
1.30117e-05
2.26706e-05
3.85506e-05
6.4407e-05
0.000106032
0.00017217
0.000275692
0.000434984
0.00067538
0.00103029
0.00154145
0.00225761
0.00323114
0.00451255
0.00614406
0.00815381
0.0105525
0.013333
0.0164728
0.0199377
0.0236853
0.0276689
0.0318396
0.0361486
0.040549
0.0449961
0.0494492
0.0538714
0.0582302
0.0624977
0.0666505
0.0706695
0.0745388
0.0782461
0.081783
0.0851438
0.0883254
0.0913268
0.094149
0.096794
0.0992651
0.101566
0.1037
0.105672
0.107485
0.109141
0.11064
0.111983
0.113164
0.114176
0.115008
0.11564
0.116042
0.116181
0.116013
0.115461
0.114429
0.108972
0.099758
0.0905006
0.0813517
0.0724162
0.0637904
0.0555441
0.047734
0.0404078
0.0336077
0.0273721
0.0217361
0.0167402
0.0124232
0.00881567
0.00593551
0.00376929
0.00225335
0.00127241
0.000680116
0.000347801
0.00017162
8.25022e-05
3.88281e-05
1.79331e-05
8.14309e-06
3.64098e-06
1.60526e-06
6.98777e-07
3.00703e-07
1.28071e-07
5.40387e-08
2.26029e-08
9.3685e-09
3.8371e-09