/*--------------------------------*- C++ -*----------------------------------*\
  =========                 |
  \\      /  F ield         | OpenFOAM: The Open Source CFD Toolbox
   \\    /   O peration     | Website:  https://openfoam.org
    \\  /    A nd           | Version:  8
     \\/     M anipulation  |
\*---------------------------------------------------------------------------*/
FoamFile
{
    version     2.0;
    format      ascii;
    class       volScalarField;
    location    "880/fluid";
    object      N2;
}
// * * * * * * * * * * * * * * * * * * * * * * * * * * * * * * * * * * * * * //

dimensions      [0 0 0 0 0 0 0];

internalField   nonuniform List<scalar> 
4000
(
2.30907e-06
1.00899e-05
2.31731e-05
4.51031e-05
8.17056e-05
0.000142461
0.000242614
0.000406332
0.000671275
0.00109493
0.00176288
0.00279864
0.00437373
0.00671502
0.0101049
0.0148688
0.0213468
0.0298513
0.0406206
0.0537828
0.0693416
0.0871849
0.107109
0.128846
0.152097
0.176544
0.201877
0.227796
0.254022
0.280302
0.30641
0.332149
0.357354
0.381886
0.405636
0.428517
0.450463
0.471429
0.491388
0.510328
0.52825
0.545166
0.561097
0.57607
0.590118
0.603277
0.615587
0.627088
0.637822
0.64783
0.657154
0.665836
0.673914
0.681428
0.688413
0.694906
0.700941
0.706472
0.711552
0.716411
0.720931
0.725139
0.729004
0.732715
0.736265
0.739659
0.742898
0.745983
0.748912
0.751683
0.754291
0.756731
0.758996
0.761066
0.762952
0.764628
0.766079
0.767287
0.768238
0.768934
0.7694
0.769685
0.769844
0.769926
0.769966
0.769984
0.769993
0.769997
0.769999
0.769999
0.77
0.77
0.77
0.77
0.77
0.77
0.77
0.77
0.77
0.77
2.3114e-06
1.01024e-05
2.32122e-05
4.52074e-05
8.19518e-05
0.000142983
0.000243618
0.000408073
0.000673952
0.00109838
0.00176596
0.00279814
0.00436282
0.00668094
0.0100269
0.0147173
0.0210845
0.0294374
0.0400176
0.0529631
0.068293
0.085912
0.105631
0.127197
0.150316
0.174675
0.199963
0.225878
0.252136
0.278479
0.304674
0.330519
0.355844
0.380505
0.404388
0.427404
0.449483
0.470578
0.49066
0.509716
0.527747
0.544763
0.560786
0.575842
0.589964
0.603189
0.615558
0.627111
0.637889
0.647937
0.657295
0.666005
0.674108
0.681641
0.688643
0.695149
0.701194
0.706731
0.711814
0.716678
0.721201
0.725406
0.729277
0.732997
0.736556
0.739957
0.743202
0.746292
0.749225
0.751998
0.754607
0.757045
0.759304
0.761362
0.763232
0.764884
0.766302
0.767469
0.768375
0.769026
0.769455
0.769713
0.769857
0.769931
0.769968
0.769985
0.769993
0.769997
0.769999
0.769999
0.77
0.77
0.77
0.77
0.77
0.77
0.77
0.77
0.77
0.77
2.31679e-06
1.01273e-05
2.32753e-05
4.53441e-05
8.22227e-05
0.000143482
0.00024447
0.000409415
0.00067585
0.00110065
0.00176775
0.00279706
0.00435347
0.00665382
0.00996685
0.0146023
0.0208857
0.0291208
0.0395475
0.0523074
0.0674277
0.0848248
0.104323
0.125683
0.14862
0.172832
0.198012
0.22386
0.250092
0.276447
0.302688
0.328611
0.354036
0.378817
0.402835
0.425995
0.448224
0.469471
0.489703
0.508906
0.527077
0.544227
0.560374
0.575545
0.589773
0.603096
0.615551
0.627181
0.638028
0.648135
0.657545
0.6663
0.67444
0.682006
0.689034
0.695561
0.701622
0.707164
0.712252
0.717116
0.72163
0.725833
0.729722
0.733456
0.737024
0.740431
0.743678
0.746767
0.749696
0.75246
0.755055
0.757475
0.759709
0.761739
0.763569
0.765175
0.76654
0.767651
0.768502
0.769106
0.769501
0.769737
0.769868
0.769936
0.76997
0.769986
0.769994
0.769997
0.769999
0.769999
0.77
0.77
0.77
0.77
0.77
0.77
0.77
0.77
0.77
0.77
2.31424e-06
1.0116e-05
2.32486e-05
4.5288e-05
8.21054e-05
0.000143228
0.000243905
0.000408158
0.000673118
0.00109493
0.00175631
0.00277537
0.00431454
0.00658707
0.0098573
0.0144302
0.0206273
0.0287502
0.0390394
0.0516404
0.0665871
0.0838041
0.103125
0.124317
0.147105
0.171192
0.196274
0.222056
0.248253
0.274605
0.300875
0.326852
0.352357
0.377238
0.401372
0.424661
0.447028
0.468417
0.488793
0.508139
0.526449
0.543733
0.560008
0.575299
0.58964
0.603065
0.615613
0.627326
0.638247
0.648419
0.657886
0.66669
0.674872
0.682472
0.689529
0.696079
0.702157
0.707697
0.712779
0.717641
0.722163
0.726362
0.730267
0.734007
0.737578
0.740985
0.744228
0.747309
0.750224
0.75297
0.755542
0.757932
0.76013
0.762126
0.763908
0.765462
0.766773
0.767828
0.768627
0.769187
0.769548
0.769762
0.769881
0.769943
0.769973
0.769988
0.769994
0.769998
0.769999
0.77
0.77
0.77
0.77
0.77
0.77
0.77
0.77
0.77
0.77
0.77
2.30505e-06
1.00753e-05
2.3153e-05
4.50956e-05
8.17398e-05
0.00014255
0.000242662
0.000405894
0.000669021
0.0010876
0.00174337
0.00275297
0.00427663
0.00652465
0.00975772
0.014277
0.0204005
0.0284282
0.0386011
0.051068
0.0658683
0.0829336
0.102105
0.123156
0.145818
0.169799
0.194799
0.220523
0.24669
0.273038
0.29933
0.325353
0.350925
0.375891
0.400125
0.423526
0.446013
0.467529
0.488034
0.507509
0.525948
0.543355
0.559749
0.575154
0.589599
0.603119
0.615754
0.627546
0.638538
0.648772
0.658293
0.667143
0.675363
0.682995
0.690077
0.696648
0.702733
0.708257
0.713345
0.718222
0.722742
0.726906
0.730839
0.734583
0.738153
0.741555
0.744789
0.747856
0.750753
0.753477
0.756021
0.758378
0.760535
0.762489
0.764225
0.765728
0.766986
0.767988
0.768738
0.769257
0.769589
0.769784
0.769892
0.769948
0.769975
0.769989
0.769995
0.769998
0.769999
0.77
0.77
0.77
0.77
0.77
0.77
0.77
0.77
0.77
0.77
0.77
2.29065e-06
1.00118e-05
2.30043e-05
4.47982e-05
8.11821e-05
0.000141537
0.000240855
0.000402711
0.000663487
0.0010781
0.00172732
0.00272637
0.00423354
0.00645663
0.00965351
0.0141225
0.0201797
0.0281242
0.0381983
0.0505539
0.0652348
0.0821782
0.101231
0.122171
0.144735
0.168634
0.19357
0.219253
0.245399
0.271749
0.298063
0.324128
0.349759
0.3748
0.399121
0.42262
0.445212
0.466838
0.487457
0.507046
0.525596
0.543113
0.559613
0.575115
0.589651
0.603256
0.615969
0.627831
0.638884
0.649173
0.65874
0.667628
0.67588
0.683536
0.690636
0.697215
0.703313
0.708836
0.71394
0.718818
0.723334
0.727459
0.731393
0.735139
0.738706
0.7421
0.745323
0.748375
0.751252
0.753951
0.756467
0.758791
0.760908
0.762822
0.764513
0.765969
0.767177
0.76813
0.768836
0.76932
0.769625
0.769804
0.769902
0.769953
0.769978
0.76999
0.769995
0.769998
0.769999
0.77
0.77
0.77
0.77
0.77
0.77
0.77
0.77
0.77
0.77
0.77
2.27402e-06
9.93876e-06
2.28347e-05
4.44626e-05
8.05613e-05
0.000140428
0.000238914
0.000399365
0.000657794
0.00106855
0.00171154
0.00270075
0.0041928
0.00639342
0.00955812
0.013983
0.0199826
0.0278556
0.0378457
0.0501078
0.0646898
0.0815334
0.10049
0.121342
0.14383
0.167667
0.192558
0.218211
0.244348
0.270705
0.297043
0.323149
0.348835
0.373943
0.398342
0.421927
0.444611
0.466333
0.487049
0.506736
0.525384
0.542996
0.559584
0.57517
0.589784
0.603462
0.616241
0.628161
0.639266
0.649599
0.659204
0.668122
0.676398
0.68407
0.691178
0.697762
0.703862
0.709336
0.714566
0.719415
0.723909
0.728002
0.731923
0.735661
0.73922
0.742604
0.745814
0.748849
0.751705
0.754381
0.756869
0.759163
0.761245
0.763123
0.764773
0.766184
0.767345
0.768255
0.768921
0.769374
0.769657
0.769821
0.769911
0.769957
0.76998
0.769991
0.769996
0.769998
0.769999
0.77
0.77
0.77
0.77
0.77
0.77
0.77
0.77
0.77
0.77
0.77
2.25676e-06
9.86306e-06
2.26594e-05
4.41173e-05
7.99259e-05
0.000139299
0.000236953
0.000396012
0.000652145
0.00105917
0.00169622
0.00267619
0.00415427
0.00633443
0.00947032
0.0138563
0.019806
0.027618
0.0375375
0.049722
0.064223
0.0809864
0.0998668
0.120651
0.14308
0.166871
0.191731
0.217367
0.243502
0.269872
0.296237
0.322382
0.348119
0.373288
0.397756
0.421416
0.444181
0.465985
0.486786
0.506557
0.525288
0.542978
0.55964
0.575297
0.589978
0.603716
0.616549
0.628517
0.639665
0.650034
0.659668
0.668612
0.676907
0.684596
0.691718
0.698314
0.704392
0.709861
0.715096
0.719941
0.724425
0.7285
0.732411
0.73614
0.739689
0.743061
0.746256
0.749274
0.75211
0.754761
0.757222
0.759486
0.761535
0.763374
0.764988
0.766364
0.767489
0.768361
0.768994
0.769419
0.769683
0.769835
0.769918
0.76996
0.769981
0.769991
0.769996
0.769998
0.769999
0.77
0.77
0.77
0.77
0.77
0.77
0.77
0.77
0.77
0.77
0.77
2.24005e-06
9.78987e-06
2.24904e-05
4.37854e-05
7.93179e-05
0.000138225
0.000235097
0.000392862
0.000646875
0.00105049
0.00168216
0.00265385
0.00411951
0.00628168
0.00939246
0.0137449
0.0196518
0.0274121
0.0372724
0.0493926
0.0638275
0.080526
0.0993463
0.120078
0.142463
0.166222
0.19106
0.216689
0.242827
0.269214
0.295607
0.32179
0.347575
0.372799
0.397329
0.421054
0.443889
0.465764
0.486638
0.50648
0.525278
0.543034
0.55976
0.575476
0.59021
0.603997
0.616874
0.628881
0.640062
0.650459
0.660116
0.669077
0.677384
0.68508
0.692205
0.698797
0.704854
0.710319
0.71555
0.720386
0.724862
0.728934
0.732843
0.736566
0.740107
0.743469
0.746651
0.749651
0.752468
0.755096
0.757529
0.75976
0.761769
0.763574
0.765155
0.766501
0.767604
0.76845
0.769055
0.769458
0.769706
0.769848
0.769924
0.769963
0.769983
0.769992
0.769996
0.769998
0.769999
0.77
0.77
0.77
0.77
0.77
0.77
0.77
0.77
0.77
0.77
0.77
2.22451e-06
9.72187e-06
2.23336e-05
4.34782e-05
7.87565e-05
0.000137236
0.000233395
0.000389983
0.000642083
0.00104264
0.00166952
0.00263387
0.00408864
0.00623514
0.00932422
0.0136479
0.0195185
0.0272354
0.0370464
0.0491138
0.0634949
0.0801417
0.0989147
0.119606
0.141959
0.165695
0.190521
0.216148
0.242295
0.2687
0.295121
0.32134
0.347168
0.372442
0.397026
0.42081
0.443704
0.465641
0.486576
0.506477
0.525332
0.543143
0.559921
0.575685
0.590464
0.60429
0.617202
0.629239
0.640445
0.650863
0.660536
0.66951
0.677826
0.685526
0.692652
0.699242
0.705281
0.710733
0.715956
0.720785
0.725251
0.729318
0.733223
0.736941
0.740474
0.743826
0.746995
0.749981
0.75278
0.755388
0.757799
0.760006
0.762005
0.763785
0.765336
0.766647
0.767707
0.768525
0.769108
0.769491
0.769725
0.769858
0.76993
0.769966
0.769984
0.769993
0.769997
0.769998
0.769999
0.77
0.77
0.77
0.77
0.77
0.77
0.77
0.77
0.77
0.77
0.77
2.21049e-06
9.66058e-06
2.21924e-05
4.32021e-05
7.82529e-05
0.000136351
0.000231877
0.000387424
0.000637839
0.00103571
0.00165841
0.00261641
0.00406178
0.00619484
0.00926544
0.0135648
0.0194049
0.0270856
0.0368559
0.04888
0.0632177
0.0798233
0.0985596
0.11922
0.14155
0.165271
0.190091
0.21572
0.241879
0.268303
0.294751
0.321004
0.346872
0.372189
0.396821
0.420655
0.4436
0.46559
0.486574
0.506525
0.525429
0.543285
0.560105
0.575908
0.590722
0.60458
0.617519
0.62958
0.640805
0.651239
0.660924
0.669906
0.678227
0.68593
0.693055
0.699643
0.705672
0.711117
0.716328
0.721142
0.725591
0.729657
0.733559
0.737271
0.740796
0.744137
0.747293
0.750263
0.753044
0.755631
0.758025
0.760216
0.762199
0.763959
0.765487
0.766771
0.767805
0.768591
0.769152
0.769519
0.769741
0.769867
0.769934
0.769968
0.769985
0.769993
0.769997
0.769999
0.769999
0.77
0.77
0.77
0.77
0.77
0.77
0.77
0.77
0.77
0.77
0.77
2.19814e-06
9.60659e-06
2.20682e-05
4.29594e-05
7.78109e-05
0.000135576
0.00023055
0.000385193
0.000634148
0.0010297
0.00164881
0.00260137
0.00403874
0.00616042
0.00921545
0.0134945
0.0193092
0.0269599
0.0366968
0.0486858
0.0629888
0.0795619
0.0982697
0.118907
0.141221
0.164932
0.18975
0.215385
0.241556
0.268
0.294473
0.320757
0.34666
0.372016
0.396689
0.420565
0.443555
0.465587
0.486614
0.506607
0.52555
0.543444
0.560298
0.576133
0.590975
0.604857
0.617818
0.629896
0.641136
0.651581
0.661274
0.670261
0.678585
0.686287
0.693407
0.699986
0.706007
0.711444
0.716648
0.721452
0.725889
0.729955
0.733853
0.737558
0.741074
0.744402
0.747547
0.750507
0.753279
0.755859
0.758239
0.760414
0.762374
0.764112
0.765616
0.766878
0.767888
0.768652
0.76919
0.769543
0.769755
0.769874
0.769938
0.76997
0.769986
0.769993
0.769997
0.769999
0.769999
0.77
0.77
0.77
0.77
0.77
0.77
0.77
0.77
0.77
0.77
0.77
2.18747e-06
9.55997e-06
2.1961e-05
4.27501e-05
7.74304e-05
0.00013491
0.000229411
0.000383282
0.000630995
0.00102459
0.00164066
0.00258863
0.00401929
0.00613145
0.00917351
0.0134356
0.0192294
0.0268556
0.0365654
0.0485262
0.0628014
0.079349
0.0980351
0.118655
0.140958
0.164664
0.189483
0.215125
0.241309
0.267771
0.294267
0.320578
0.346512
0.371902
0.39661
0.420523
0.443549
0.465617
0.48668
0.506707
0.525683
0.543607
0.560489
0.576349
0.591213
0.605114
0.618091
0.630183
0.641433
0.651886
0.661585
0.670575
0.678898
0.686597
0.693714
0.700292
0.706304
0.711732
0.716925
0.721719
0.726144
0.730211
0.734105
0.737806
0.741316
0.744642
0.74778
0.750731
0.753491
0.756056
0.758421
0.760579
0.762522
0.764241
0.765726
0.766967
0.767958
0.768703
0.769225
0.769562
0.769766
0.76988
0.769941
0.769972
0.769987
0.769994
0.769997
0.769999
0.769999
0.77
0.77
0.77
0.77
0.77
0.77
0.77
0.77
0.77
0.77
0.77
2.17844e-06
9.5205e-06
2.18702e-05
4.25732e-05
7.71089e-05
0.000134348
0.000228452
0.000381676
0.000628349
0.0010203
0.00163385
0.00257801
0.00400311
0.00610742
0.00913883
0.0133871
0.0191639
0.0267703
0.0364582
0.0483964
0.0626498
0.0791777
0.0978472
0.118455
0.14075
0.164453
0.189275
0.214924
0.241121
0.2676
0.294117
0.320452
0.346412
0.371831
0.396568
0.420512
0.443568
0.465667
0.486759
0.506814
0.525816
0.543765
0.560669
0.576548
0.591429
0.605346
0.618335
0.630437
0.641695
0.652153
0.661855
0.670844
0.679165
0.686864
0.693981
0.700554
0.706558
0.711977
0.717162
0.721947
0.726359
0.730429
0.73432
0.738016
0.741524
0.744843
0.747975
0.750917
0.753667
0.756221
0.758573
0.760717
0.762645
0.764349
0.765817
0.767041
0.768015
0.768744
0.769252
0.76958
0.769775
0.769885
0.769943
0.769973
0.769987
0.769994
0.769997
0.769999
0.769999
0.77
0.77
0.77
0.77
0.77
0.77
0.77
0.77
0.77
0.77
0.77
2.17095e-06
9.48779e-06
2.17951e-05
4.24267e-05
7.6843e-05
0.000133883
0.00022766
0.000380351
0.000626171
0.00101678
0.00162826
0.00256932
0.00398989
0.00608784
0.00911064
0.0133478
0.0191109
0.0267014
0.0363721
0.0482926
0.062529
0.0790417
0.0976988
0.118298
0.140588
0.16429
0.189115
0.214772
0.24098
0.267474
0.294009
0.320365
0.346347
0.37179
0.396552
0.420521
0.443602
0.465726
0.486842
0.506919
0.525942
0.54391
0.560831
0.576726
0.591621
0.605548
0.618547
0.630656
0.641919
0.652379
0.662081
0.671072
0.679396
0.687094
0.694207
0.700776
0.706771
0.712184
0.717363
0.72214
0.726534
0.730609
0.734498
0.738193
0.741696
0.74501
0.748135
0.75107
0.753812
0.756356
0.758698
0.760831
0.762747
0.764438
0.765893
0.767102
0.768062
0.768778
0.769275
0.769594
0.769783
0.769889
0.769945
0.769974
0.769988
0.769994
0.769997
0.769999
0.769999
0.77
0.77
0.77
0.77
0.77
0.77
0.77
0.77
0.77
0.77
0.77
2.1649e-06
9.46139e-06
2.17344e-05
4.23085e-05
7.66287e-05
0.000133509
0.000227023
0.000379287
0.000624424
0.00101396
0.00162379
0.00256238
0.00397936
0.00607225
0.00908824
0.0133166
0.019069
0.0266471
0.0363043
0.0482111
0.0624345
0.0789358
0.0975838
0.118176
0.140463
0.164166
0.188995
0.214659
0.240877
0.267383
0.293933
0.320306
0.346307
0.371768
0.396551
0.42054
0.443642
0.465785
0.48692
0.507015
0.526054
0.544037
0.560971
0.576878
0.591783
0.605719
0.618723
0.630837
0.642103
0.652567
0.662273
0.671265
0.679588
0.687283
0.694393
0.700958
0.706947
0.712354
0.717527
0.722299
0.726676
0.730754
0.734642
0.738334
0.741834
0.745145
0.748265
0.751194
0.753929
0.756466
0.7588
0.760923
0.762829
0.764509
0.765953
0.767152
0.7681
0.768805
0.769293
0.769605
0.76979
0.769893
0.769947
0.769975
0.769988
0.769995
0.769998
0.769999
0.77
0.77
0.77
0.77
0.77
0.77
0.77
0.77
0.77
0.77
0.77
0.77
2.1602e-06
9.44086e-06
2.16873e-05
4.22168e-05
7.64624e-05
0.000133219
0.000226529
0.000378463
0.000623071
0.00101178
0.00162033
0.00255703
0.00397124
0.00606027
0.00907105
0.0132928
0.019037
0.0266057
0.0362527
0.0481492
0.0623629
0.0788558
0.0974972
0.118086
0.140371
0.164075
0.188907
0.214576
0.240803
0.267319
0.293881
0.320267
0.346282
0.371759
0.396557
0.420562
0.443678
0.465837
0.486986
0.507095
0.526147
0.54414
0.561085
0.577
0.591912
0.605854
0.618864
0.630982
0.642253
0.65272
0.662426
0.671418
0.679739
0.687433
0.69454
0.701102
0.707086
0.712488
0.717657
0.722424
0.726788
0.73087
0.734756
0.738446
0.741943
0.74525
0.748366
0.75129
0.75402
0.756551
0.758879
0.760995
0.762894
0.764565
0.766001
0.76719
0.768129
0.768826
0.769307
0.769613
0.769795
0.769895
0.769949
0.769975
0.769988
0.769995
0.769998
0.769999
0.77
0.77
0.77
0.77
0.77
0.77
0.77
0.77
0.77
0.77
0.77
0.77
2.15677e-06
9.42585e-06
2.16528e-05
4.21496e-05
7.63407e-05
0.000133007
0.000226168
0.000377861
0.000622085
0.00101019
0.00161782
0.00255313
0.00396534
0.00605156
0.00905857
0.0132754
0.0190138
0.0265757
0.0362155
0.0481046
0.0623115
0.0787985
0.0974354
0.118021
0.140305
0.16401
0.188845
0.214519
0.240751
0.267276
0.293847
0.320243
0.346269
0.371757
0.396566
0.420582
0.44371
0.465879
0.487038
0.507156
0.526217
0.544219
0.561171
0.577093
0.592011
0.605958
0.618973
0.631094
0.642367
0.652834
0.662541
0.671532
0.679853
0.687544
0.69465
0.701209
0.707189
0.712588
0.717754
0.722517
0.726871
0.730956
0.73484
0.738528
0.742023
0.745328
0.748441
0.751362
0.754088
0.756614
0.758937
0.761048
0.762941
0.764607
0.766035
0.767218
0.768151
0.768841
0.769317
0.769619
0.769798
0.769897
0.76995
0.769976
0.769989
0.769995
0.769998
0.769999
0.77
0.77
0.77
0.77
0.77
0.77
0.77
0.77
0.77
0.77
0.77
0.77
2.15452e-06
9.41605e-06
2.16303e-05
4.21059e-05
7.62613e-05
0.000132868
0.000225933
0.000377469
0.000621443
0.00100916
0.00161619
0.0025506
0.00396151
0.00604592
0.00905049
0.0132642
0.0189988
0.0265564
0.0361914
0.0480759
0.0622784
0.0787617
0.0973958
0.11798
0.140263
0.163969
0.188805
0.214483
0.24072
0.267249
0.293826
0.320229
0.346262
0.371757
0.396574
0.420598
0.443733
0.46591
0.487076
0.5072
0.526267
0.544274
0.561231
0.577157
0.592079
0.606029
0.619045
0.631169
0.642442
0.65291
0.662617
0.671608
0.679927
0.687618
0.694722
0.70128
0.707258
0.712655
0.717819
0.722579
0.726927
0.731012
0.734895
0.738582
0.742076
0.745379
0.74849
0.751409
0.754132
0.756656
0.758975
0.761083
0.762972
0.764634
0.766058
0.767236
0.768165
0.768851
0.769323
0.769623
0.7698
0.769898
0.76995
0.769976
0.769989
0.769995
0.769998
0.769999
0.77
0.77
0.77
0.77
0.77
0.77
0.77
0.77
0.77
0.77
0.77
0.77
2.15343e-06
9.41129e-06
2.16194e-05
4.20847e-05
7.62231e-05
0.000132802
0.000225821
0.000377282
0.000621136
0.00100866
0.00161541
0.0025494
0.0039597
0.00604325
0.00904667
0.0132589
0.0189917
0.0265472
0.0361801
0.0480624
0.0622628
0.0787443
0.0973771
0.11796
0.140243
0.163949
0.188787
0.214466
0.240705
0.267237
0.293816
0.320222
0.346259
0.371758
0.396579
0.420606
0.443745
0.465925
0.487095
0.507222
0.526292
0.544302
0.561261
0.577189
0.592112
0.606064
0.619081
0.631206
0.642479
0.652947
0.662655
0.671645
0.679964
0.687655
0.694758
0.701315
0.707292
0.712688
0.717851
0.72261
0.726954
0.73104
0.734923
0.738609
0.742103
0.745404
0.748515
0.751432
0.754154
0.756677
0.758994
0.7611
0.762987
0.764647
0.766069
0.767245
0.768171
0.768856
0.769326
0.769625
0.769801
0.769899
0.76995
0.769976
0.769989
0.769995
0.769998
0.769999
0.77
0.77
0.77
0.77
0.77
0.77
0.77
0.77
0.77
0.77
0.77
0.77
2.15344e-06
9.41132e-06
2.16195e-05
4.20848e-05
7.62234e-05
0.000132802
0.000225822
0.000377283
0.000621139
0.00100867
0.00161541
0.00254941
0.00395971
0.00604327
0.00904669
0.013259
0.0189917
0.0265473
0.0361802
0.0480624
0.0622629
0.0787444
0.0973772
0.11796
0.140244
0.163949
0.188787
0.214466
0.240705
0.267237
0.293817
0.320222
0.346259
0.371758
0.396579
0.420606
0.443745
0.465925
0.487095
0.507222
0.526292
0.544302
0.561261
0.577189
0.592112
0.606064
0.619081
0.631206
0.642479
0.652947
0.662654
0.671645
0.679964
0.687654
0.694758
0.701314
0.707292
0.712687
0.717849
0.722608
0.726952
0.731039
0.734922
0.738609
0.742102
0.745404
0.748515
0.751432
0.754154
0.756677
0.758994
0.7611
0.762987
0.764647
0.766069
0.767245
0.768171
0.768856
0.769326
0.769625
0.769801
0.769899
0.76995
0.769976
0.769989
0.769995
0.769998
0.769999
0.77
0.77
0.77
0.77
0.77
0.77
0.77
0.77
0.77
0.77
0.77
0.77
2.15455e-06
9.41615e-06
2.16306e-05
4.21063e-05
7.62622e-05
0.00013287
0.000225936
0.000377473
0.000621449
0.00100917
0.0016162
0.00255062
0.00396154
0.00604596
0.00905055
0.0132643
0.0189989
0.0265565
0.0361916
0.0480761
0.0622786
0.0787619
0.0973961
0.11798
0.140263
0.163969
0.188806
0.214483
0.24072
0.267249
0.293826
0.320229
0.346262
0.371757
0.396574
0.420598
0.443733
0.46591
0.487076
0.5072
0.526267
0.544274
0.561231
0.577157
0.592079
0.606029
0.619045
0.631169
0.642442
0.65291
0.662617
0.671608
0.679927
0.687618
0.694721
0.701279
0.707257
0.712654
0.717817
0.722577
0.726925
0.731011
0.734895
0.738582
0.742076
0.745379
0.74849
0.751409
0.754132
0.756656
0.758975
0.761083
0.762972
0.764634
0.766058
0.767236
0.768165
0.768851
0.769323
0.769623
0.7698
0.769898
0.76995
0.769976
0.769989
0.769995
0.769998
0.769999
0.77
0.77
0.77
0.77
0.77
0.77
0.77
0.77
0.77
0.77
0.77
0.77
2.15681e-06
9.42602e-06
2.16532e-05
4.21504e-05
7.63421e-05
0.000133009
0.000226173
0.000377868
0.000622095
0.00101021
0.00161785
0.00255317
0.0039654
0.00605164
0.00905868
0.0132756
0.019014
0.026576
0.0362158
0.048105
0.0623119
0.0787989
0.0974359
0.118021
0.140306
0.16401
0.188845
0.214519
0.240752
0.267276
0.293847
0.320243
0.346269
0.371757
0.396566
0.420582
0.44371
0.465879
0.487038
0.507156
0.526217
0.544219
0.561171
0.577093
0.592011
0.605958
0.618973
0.631094
0.642366
0.652834
0.662541
0.671532
0.679852
0.687544
0.694649
0.701208
0.707188
0.712587
0.717753
0.722515
0.72687
0.730955
0.734839
0.738528
0.742023
0.745327
0.748441
0.751362
0.754087
0.756614
0.758937
0.761048
0.762941
0.764606
0.766035
0.767218
0.76815
0.768841
0.769317
0.769619
0.769798
0.769897
0.76995
0.769976
0.769989
0.769995
0.769998
0.769999
0.77
0.77
0.77
0.77
0.77
0.77
0.77
0.77
0.77
0.77
0.77
0.77
2.16026e-06
9.44111e-06
2.16879e-05
4.22179e-05
7.64643e-05
0.000133222
0.000226535
0.000378472
0.000623086
0.0010118
0.00162037
0.00255708
0.00397132
0.00606038
0.0090712
0.013293
0.0190372
0.026606
0.0362531
0.0481497
0.0623634
0.0788563
0.0974978
0.118086
0.140371
0.164075
0.188907
0.214577
0.240803
0.26732
0.293882
0.320268
0.346283
0.37176
0.396557
0.420562
0.443679
0.465837
0.486986
0.507095
0.526147
0.54414
0.561085
0.577
0.591911
0.605853
0.618863
0.630982
0.642253
0.652719
0.662426
0.671418
0.679739
0.687432
0.694539
0.701101
0.707085
0.712487
0.717656
0.722423
0.726787
0.730869
0.734755
0.738445
0.741943
0.74525
0.748366
0.75129
0.75402
0.756551
0.758878
0.760995
0.762893
0.764565
0.766
0.76719
0.768129
0.768826
0.769307
0.769613
0.769794
0.769895
0.769949
0.769975
0.769988
0.769995
0.769998
0.769999
0.77
0.77
0.77
0.77
0.77
0.77
0.77
0.77
0.77
0.77
0.77
0.77
2.16497e-06
9.46169e-06
2.17351e-05
4.23099e-05
7.66312e-05
0.000133513
0.00022703
0.000379299
0.000624442
0.00101399
0.00162383
0.00256245
0.00397945
0.00607239
0.00908843
0.0133169
0.0190694
0.0266475
0.0363048
0.0482117
0.0624351
0.0789365
0.0975845
0.118177
0.140464
0.164167
0.188996
0.21466
0.240878
0.267384
0.293934
0.320306
0.346307
0.371769
0.396551
0.42054
0.443642
0.465785
0.48692
0.507015
0.526054
0.544037
0.560971
0.576878
0.591783
0.605718
0.618723
0.630836
0.642103
0.652566
0.662273
0.671265
0.679587
0.687282
0.694392
0.700957
0.706946
0.712353
0.717527
0.722298
0.726675
0.730754
0.734642
0.738334
0.741834
0.745144
0.748264
0.751193
0.753928
0.756465
0.758799
0.760923
0.762829
0.764509
0.765953
0.767151
0.7681
0.768805
0.769293
0.769605
0.76979
0.769893
0.769947
0.769975
0.769988
0.769995
0.769998
0.769999
0.77
0.77
0.77
0.77
0.77
0.77
0.77
0.77
0.77
0.77
0.77
0.77
2.17103e-06
9.48816e-06
2.17959e-05
4.24283e-05
7.68459e-05
0.000133888
0.000227668
0.000380365
0.000626193
0.00101682
0.00162831
0.0025694
0.00399001
0.006088
0.00911086
0.0133481
0.0191113
0.0267019
0.0363727
0.0482933
0.0625297
0.0790425
0.0976997
0.118299
0.140589
0.164291
0.189116
0.214773
0.240981
0.267475
0.29401
0.320366
0.346348
0.37179
0.396553
0.420521
0.443603
0.465726
0.486842
0.506919
0.525942
0.54391
0.560831
0.576726
0.59162
0.605548
0.618547
0.630656
0.641918
0.652378
0.662081
0.671072
0.679396
0.687093
0.694207
0.700775
0.706771
0.712183
0.717363
0.72214
0.726533
0.730608
0.734498
0.738192
0.741696
0.74501
0.748135
0.75107
0.753811
0.756356
0.758698
0.760831
0.762747
0.764437
0.765892
0.767102
0.768062
0.768778
0.769275
0.769594
0.769783
0.769889
0.769945
0.769974
0.769988
0.769994
0.769997
0.769999
0.769999
0.77
0.77
0.77
0.77
0.77
0.77
0.77
0.77
0.77
0.77
0.77
2.17854e-06
9.52093e-06
2.18712e-05
4.25751e-05
7.71123e-05
0.000134353
0.000228461
0.000381691
0.000628374
0.00102034
0.00163391
0.0025781
0.00400324
0.00610761
0.00913909
0.0133875
0.0191644
0.0267708
0.0364589
0.0483972
0.0626507
0.0791787
0.0978482
0.118456
0.140751
0.164455
0.189276
0.214925
0.241122
0.267601
0.294118
0.320453
0.346413
0.371831
0.396569
0.420512
0.443568
0.465667
0.48676
0.506814
0.525817
0.543765
0.560669
0.576548
0.591429
0.605346
0.618335
0.630437
0.641695
0.652153
0.661854
0.670843
0.679165
0.686863
0.69398
0.700554
0.706557
0.711976
0.717162
0.721946
0.726359
0.730429
0.73432
0.738016
0.741524
0.744843
0.747974
0.750916
0.753666
0.75622
0.758573
0.760717
0.762645
0.764349
0.765817
0.767041
0.768015
0.768744
0.769252
0.76958
0.769775
0.769885
0.769943
0.769973
0.769987
0.769994
0.769997
0.769999
0.769999
0.77
0.77
0.77
0.77
0.77
0.77
0.77
0.77
0.77
0.77
0.77
2.18758e-06
9.56045e-06
2.19621e-05
4.27522e-05
7.74341e-05
0.000134916
0.000229422
0.0003833
0.000631024
0.00102463
0.00164073
0.00258874
0.00401944
0.00613166
0.00917381
0.013436
0.01923
0.0268563
0.0365662
0.0485271
0.0628024
0.0793501
0.0980362
0.118656
0.140959
0.164665
0.189484
0.215126
0.24131
0.267772
0.294268
0.320579
0.346513
0.371903
0.39661
0.420523
0.443549
0.465618
0.486681
0.506707
0.525683
0.543607
0.560489
0.576349
0.591213
0.605114
0.618091
0.630183
0.641433
0.651886
0.661585
0.670575
0.678898
0.686597
0.693714
0.700292
0.706304
0.711731
0.716925
0.721719
0.726144
0.730211
0.734105
0.737806
0.741316
0.744641
0.74778
0.75073
0.75349
0.756056
0.758421
0.760579
0.762522
0.764241
0.765726
0.766967
0.767958
0.768703
0.769225
0.769562
0.769766
0.76988
0.769941
0.769972
0.769987
0.769994
0.769997
0.769999
0.769999
0.77
0.77
0.77
0.77
0.77
0.77
0.77
0.77
0.77
0.77
0.77
2.19826e-06
9.60712e-06
2.20694e-05
4.29617e-05
7.78151e-05
0.000135583
0.000230562
0.000385212
0.000634179
0.00102975
0.00164889
0.00260148
0.00403891
0.00616066
0.00921577
0.0134949
0.0193097
0.0269606
0.0366976
0.0486868
0.0629899
0.0795631
0.098271
0.118908
0.141222
0.164934
0.189752
0.215386
0.241557
0.268001
0.294474
0.320758
0.34666
0.372017
0.396689
0.420566
0.443555
0.465587
0.486615
0.506607
0.525551
0.543444
0.560299
0.576133
0.590975
0.604857
0.617817
0.629896
0.641136
0.65158
0.661274
0.670261
0.678584
0.686287
0.693407
0.699986
0.706007
0.711445
0.716648
0.721452
0.725889
0.729955
0.733852
0.737557
0.741073
0.744402
0.747547
0.750507
0.753278
0.755859
0.758239
0.760414
0.762374
0.764112
0.765616
0.766877
0.767888
0.768652
0.76919
0.769543
0.769755
0.769874
0.769938
0.76997
0.769986
0.769993
0.769997
0.769999
0.769999
0.77
0.77
0.77
0.77
0.77
0.77
0.77
0.77
0.77
0.77
0.77
2.21062e-06
9.66116e-06
2.21937e-05
4.32047e-05
7.82575e-05
0.000136359
0.00023189
0.000387446
0.000637873
0.00103576
0.00165849
0.00261653
0.00406196
0.00619509
0.00926579
0.0135653
0.0194055
0.0270864
0.0368568
0.0488811
0.063219
0.0798247
0.098561
0.119221
0.141552
0.165272
0.190092
0.215722
0.24188
0.268304
0.294752
0.321005
0.346873
0.37219
0.396822
0.420655
0.443601
0.46559
0.486574
0.506525
0.525429
0.543286
0.560105
0.575908
0.590722
0.60458
0.617519
0.62958
0.640805
0.651238
0.660924
0.669906
0.678227
0.685929
0.693055
0.699642
0.705671
0.711115
0.716327
0.721141
0.72559
0.729657
0.733559
0.737271
0.740796
0.744137
0.747293
0.750263
0.753043
0.755631
0.758024
0.760216
0.762199
0.763959
0.765487
0.766771
0.767805
0.768591
0.769152
0.769519
0.769741
0.769867
0.769934
0.769968
0.769985
0.769993
0.769997
0.769999
0.769999
0.77
0.77
0.77
0.77
0.77
0.77
0.77
0.77
0.77
0.77
0.77
2.22465e-06
9.72249e-06
2.2335e-05
4.3481e-05
7.87614e-05
0.000137244
0.000233409
0.000390006
0.00064212
0.00104269
0.0016696
0.002634
0.00408883
0.00623541
0.0093246
0.0136484
0.0195192
0.0272362
0.0370474
0.0491149
0.0634962
0.0801431
0.0989163
0.119607
0.141961
0.165697
0.190523
0.216149
0.242297
0.268701
0.295122
0.321342
0.34717
0.372443
0.397027
0.420811
0.443705
0.465642
0.486576
0.506477
0.525333
0.543144
0.559921
0.575685
0.590464
0.60429
0.617202
0.629239
0.640445
0.650863
0.660536
0.669509
0.677825
0.685526
0.692652
0.699242
0.705282
0.710734
0.715957
0.720785
0.725251
0.729317
0.733223
0.73694
0.740474
0.743826
0.746995
0.749981
0.75278
0.755388
0.757799
0.760006
0.762004
0.763785
0.765336
0.766647
0.767707
0.768525
0.769108
0.769491
0.769725
0.769858
0.76993
0.769966
0.769984
0.769993
0.769997
0.769998
0.769999
0.77
0.77
0.77
0.77
0.77
0.77
0.77
0.77
0.77
0.77
0.77
2.2402e-06
9.79053e-06
2.24919e-05
4.37883e-05
7.93231e-05
0.000138234
0.000235112
0.000392886
0.000646914
0.00105055
0.00168226
0.00265399
0.00411972
0.00628198
0.00939287
0.0137455
0.0196525
0.027413
0.0372734
0.0493938
0.0638289
0.0805276
0.0993479
0.120079
0.142465
0.166224
0.191062
0.216691
0.242829
0.269215
0.295608
0.321791
0.347576
0.3728
0.39733
0.421055
0.443889
0.465765
0.486638
0.506481
0.525279
0.543034
0.55976
0.575476
0.59021
0.603997
0.616874
0.628881
0.640062
0.650458
0.660115
0.669076
0.677384
0.68508
0.692204
0.698795
0.704852
0.710318
0.715548
0.720385
0.724861
0.728933
0.732842
0.736565
0.740107
0.743468
0.74665
0.749651
0.752468
0.755096
0.757529
0.759759
0.761769
0.763573
0.765155
0.766501
0.767604
0.76845
0.769055
0.769458
0.769706
0.769848
0.769924
0.769963
0.769983
0.769992
0.769996
0.769998
0.769999
0.77
0.77
0.77
0.77
0.77
0.77
0.77
0.77
0.77
0.77
0.77
2.25692e-06
9.86376e-06
2.2661e-05
4.41203e-05
7.99314e-05
0.000139308
0.000236968
0.000396038
0.000652185
0.00105923
0.00169632
0.00267634
0.00415449
0.00633474
0.00947075
0.0138569
0.0198067
0.0276189
0.0375386
0.0497233
0.0642245
0.080988
0.0998686
0.120653
0.143082
0.166873
0.191733
0.217369
0.243504
0.269873
0.296238
0.322383
0.34812
0.373289
0.397758
0.421417
0.444182
0.465986
0.486787
0.506558
0.525288
0.542978
0.55964
0.575297
0.589978
0.603716
0.616549
0.628517
0.639664
0.650034
0.659668
0.668612
0.676907
0.684595
0.691718
0.698313
0.704391
0.70986
0.715096
0.71994
0.724424
0.728499
0.732411
0.736139
0.739688
0.743061
0.746256
0.749273
0.75211
0.754761
0.757222
0.759486
0.761535
0.763374
0.764988
0.766364
0.767489