/*--------------------------------*- C++ -*----------------------------------*\
  =========                 |
  \\      /  F ield         | OpenFOAM: The Open Source CFD Toolbox
   \\    /   O peration     | Website:  https://openfoam.org
    \\  /    A nd           | Version:  8
     \\/     M anipulation  |
\*---------------------------------------------------------------------------*/
FoamFile
{
    version     2.0;
    format      ascii;
    class       volScalarField;
    location    "880/fluid";
    object      O2;
}
// * * * * * * * * * * * * * * * * * * * * * * * * * * * * * * * * * * * * * //

dimensions      [0 0 0 0 0 0 0];

internalField   nonuniform List<scalar> 
4000
(
4.58528e-10
2.00215e-09
4.5905e-09
8.91045e-09
1.60795e-08
2.78944e-08
4.72041e-08
7.84501e-08
1.28418e-07
2.07229e-07
3.29541e-07
5.15861e-07
7.93763e-07
1.198e-06
1.76925e-06
2.55063e-06
3.58175e-06
4.89129e-06
6.49015e-06
8.36755e-06
1.04915e-05
1.28128e-05
1.52714e-05
1.7802e-05
2.03398e-05
2.28232e-05
2.51971e-05
2.74137e-05
2.94337e-05
3.1227e-05
3.27741e-05
3.40702e-05
3.51306e-05
3.60011e-05
3.67712e-05
3.75874e-05
3.8666e-05
4.03029e-05
4.28843e-05
4.6903e-05
5.29878e-05
6.19482e-05
7.48344e-05
9.30142e-05
0.000118274
0.000152953
0.000200122
0.000263747
0.000349068
0.00046323
0.000615391
0.000817597
0.00108566
0.00144033
0.00190881
0.00252677
0.00334106
0.00439872
0.00577309
0.00762932
0.0100718
0.0132934
0.0184471
0.0348766
0.0515111
0.0680918
0.0844169
0.100328
0.115698
0.130422
0.144414
0.157593
0.169887
0.181163
0.191466
0.200633
0.208566
0.215169
0.220369
0.224174
0.226723
0.228277
0.229145
0.229594
0.229812
0.229915
0.229962
0.229984
0.229993
0.229997
0.229999
0.229999
0.23
0.23
0.23
0.23
0.23
0.23
0.23
0.23
4.65601e-10
2.03445e-09
4.67031e-09
9.08015e-09
1.64164e-08
2.85346e-08
4.83785e-08
8.05358e-08
1.32004e-07
2.13176e-07
3.3898e-07
5.29899e-07
8.14507e-07
1.22781e-06
1.81081e-06
2.60702e-06
3.65671e-06
4.98954e-06
6.61772e-06
8.53192e-06
1.07013e-05
1.30774e-05
1.55997e-05
1.82023e-05
2.08184e-05
2.33847e-05
2.58436e-05
2.81449e-05
3.02471e-05
3.21181e-05
3.37369e-05
3.50975e-05
3.62149e-05
3.7136e-05
3.79529e-05
3.88182e-05
3.99569e-05
4.16774e-05
4.43803e-05
4.85744e-05
5.49045e-05
6.4195e-05
7.7509e-05
9.62251e-05
0.000122139
0.000157596
0.00020561
0.000270148
0.000356828
0.000472461
0.000626241
0.000830234
0.00110027
0.00145712
0.00192801
0.00254869
0.00336616
0.00442712
0.00580573
0.00766915
0.0101223
0.0133594
0.0197435
0.0362755
0.0529919
0.0696395
0.0860199
0.101976
0.11738
0.132127
0.146128
0.1593
0.171566
0.182785
0.192998
0.202032
0.209786
0.216166
0.221115
0.224675
0.22702
0.228432
0.229217
0.229625
0.229825
0.22992
0.229964
0.229984
0.229993
0.229997
0.229999
0.229999
0.23
0.23
0.23
0.23
0.23
0.23
0.23
0.23
4.74947e-10
2.0753e-09
4.76468e-09
9.26551e-09
1.67553e-08
2.91293e-08
4.93927e-08
8.22281e-08
1.34786e-07
2.17735e-07
3.4657e-07
5.4315e-07
8.35096e-07
1.25813e-06
1.85409e-06
2.66751e-06
3.73994e-06
5.10262e-06
6.76954e-06
8.73319e-06
1.09642e-05
1.34149e-05
1.60251e-05
1.87277e-05
2.14547e-05
2.41403e-05
2.67242e-05
2.91535e-05
3.13833e-05
3.33789e-05
3.51166e-05
3.65883e-05
3.78082e-05
3.88239e-05
3.97317e-05
4.06924e-05
4.19447e-05
4.38156e-05
4.67287e-05
5.12183e-05
5.7955e-05
6.77888e-05
8.1806e-05
0.000101407
0.000128408
0.000165102
0.000214496
0.000281055
0.000369875
0.000487984
0.000644604
0.00085184
0.00112557
0.00148662
0.00196234
0.00258865
0.00341287
0.00448097
0.0058692
0.00774697
0.0102196
0.0134897
0.0220206
0.0386281
0.0554131
0.0721157
0.0885337
0.104507
0.119905
0.134621
0.148561
0.161641
0.173777
0.184847
0.194846
0.203624
0.211088
0.21716
0.221811
0.225115
0.227271
0.228562
0.22928
0.229653
0.229837
0.229925
0.229966
0.229985
0.229994
0.229997
0.229999
0.23
0.23
0.23
0.23
0.23
0.23
0.23
0.23
0.23
4.86045e-10
2.12439e-09
4.87967e-09
9.49443e-09
1.71788e-08
2.98789e-08
5.06769e-08
8.43661e-08
1.38244e-07
2.23147e-07
3.54693e-07
5.54603e-07
8.51776e-07
1.28266e-06
1.89009e-06
2.72002e-06
3.81579e-06
5.21079e-06
6.92134e-06
8.94207e-06
1.12453e-05
1.37841e-05
1.64982e-05
1.93197e-05
2.21783e-05
2.50062e-05
2.77401e-05
3.03239e-05
3.27097e-05
3.48593e-05
3.67464e-05
3.83604e-05
3.97145e-05
4.08575e-05
4.18908e-05
4.29855e-05
4.43975e-05
4.64774e-05
4.96776e-05
5.45642e-05
6.18415e-05
7.23923e-05
8.73353e-05
0.000108104
0.000136455
0.000174732
0.000226484
0.000295568
0.000387398
0.000509075
0.000669915
0.000882133
0.00116175
0.00152979
0.00201385
0.00265024
0.00348683
0.00456769
0.00597206
0.00787427
0.0103836
0.0137011
0.0248491
0.0414846
0.0582993
0.0750218
0.0914414
0.107392
0.12274
0.137375
0.1512
0.164128
0.176076
0.186964
0.196704
0.205199
0.212363
0.218131
0.222495
0.225556
0.22753
0.228702
0.229349
0.229686
0.229852
0.229932
0.229969
0.229986
0.229994
0.229997
0.229999
0.23
0.23
0.23
0.23
0.23
0.23
0.23
0.23
0.23
4.95888e-10
2.16739e-09
4.97845e-09
9.68659e-09
1.7526e-08
3.04811e-08
5.16931e-08
8.60461e-08
1.40974e-07
2.27517e-07
3.61594e-07
5.65366e-07
8.6838e-07
1.30797e-06
1.92821e-06
2.77663e-06
3.89858e-06
5.3298e-06
7.08908e-06
9.17333e-06
1.15566e-05
1.4193e-05
1.70221e-05
1.99751e-05
2.298e-05
2.59665e-05
2.88685e-05
3.16265e-05
3.41892e-05
3.65152e-05
3.8575e-05
4.03555e-05
4.18688e-05
4.31659e-05
4.43545e-05
4.56184e-05
4.72343e-05
4.95808e-05
5.31445e-05
5.85292e-05
6.64789e-05
7.79168e-05
9.39991e-05
0.000116099
0.000146101
0.000186847
0.000241296
0.000313676
0.000409519
0.000536076
0.000702844
0.000922268
0.00121066
0.00158941
0.00208662
0.00273925
0.00359423
0.00469343
0.00612701
0.00807169
0.0106338
0.0140023
0.027826
0.0444481
0.0612683
0.0779919
0.0943943
0.110302
0.125577
0.140107
0.153796
0.166557
0.178287
0.188951
0.198436
0.206653
0.213526
0.219003
0.223101
0.225941
0.227753
0.228821
0.229409
0.229714
0.229865
0.229938
0.229972
0.229987
0.229995
0.229998
0.229999
0.23
0.23
0.23
0.23
0.23
0.23
0.23
0.23
0.23
5.04432e-10
2.20462e-09
5.06356e-09
9.85134e-09
1.78226e-08
3.09949e-08
5.25625e-08
8.7493e-08
1.43352e-07
2.31382e-07
3.67814e-07
5.7528e-07
8.84024e-07
1.33239e-06
1.96585e-06
2.83381e-06
3.98394e-06
5.45464e-06
7.26742e-06
9.42164e-06
1.18931e-05
1.4637e-05
1.75926e-05
2.06902e-05
2.3856e-05
2.70171e-05
3.01044e-05
3.30551e-05
3.58144e-05
3.83373e-05
4.05911e-05
4.25602e-05
4.4256e-05
4.57321e-05
4.71044e-05
4.85721e-05
5.04361e-05
5.31078e-05
5.71125e-05
6.30967e-05
7.18499e-05
8.43279e-05
0.00010164
0.000125345
0.000157745
0.000201151
0.000258912
0.000335404
0.000436353
0.000569253
0.000743913
0.000973164
0.0012738
0.00166783
0.00218408
0.00285955
0.00374399
0.00487739
0.00635536
0.00834819
0.0109616
0.014356
0.0304039
0.0471006
0.063991
0.0807552
0.0971607
0.113033
0.128235
0.142659
0.15621
0.168804
0.18032
0.190769
0.200012
0.207968
0.21457
0.219782
0.22364
0.226284
0.227953
0.22893
0.229464
0.229741
0.229878
0.229944
0.229974
0.229989
0.229995
0.229998
0.229999
0.23
0.23
0.23
0.23
0.23
0.23
0.23
0.23
0.23
5.12311e-10
2.23899e-09
5.14234e-09
1.00044e-08
1.80998e-08
3.14787e-08
5.33889e-08
8.8884e-08
1.45667e-07
2.35198e-07
3.74044e-07
5.8535e-07
9.00125e-07
1.35782e-06
2.00544e-06
2.89444e-06
4.07502e-06
5.58843e-06
7.45917e-06
9.68924e-06
1.22565e-05
1.51169e-05
1.821e-05
2.1465e-05
2.48063e-05
2.81583e-05
3.14487e-05
3.46114e-05
3.75878e-05
4.03291e-05
4.2799e-05
4.49797e-05
4.68818e-05
4.85625e-05
5.01477e-05
5.1855e-05
5.40127e-05
5.70688e-05
6.1591e-05
6.8272e-05
7.79282e-05
9.14852e-05
0.000110267
0.000136157
0.000170993
0.000217462
0.000279071
0.000360401
0.000467454
0.000608085
0.000792579
0.00103439
0.00135112
0.00176575
0.00230827
0.00301863
0.00394966
0.00512954
0.00671813
0.00879361
0.0115004
0.0149593
0.0319078
0.0491098
0.0662796
0.083185
0.0996409
0.115499
0.13064
0.144964
0.158384
0.170825
0.182161
0.192419
0.201436
0.209144
0.215492
0.220463
0.224106
0.226578
0.228124
0.229022
0.229511
0.229764
0.229888
0.229948
0.229977
0.22999
0.229995
0.229998
0.229999
0.23
0.23
0.23
0.23
0.23
0.23
0.23
0.23
0.23
5.1985e-10
2.27191e-09
5.2179e-09
1.01516e-08
1.83672e-08
3.19474e-08
5.41934e-08
9.02464e-08
1.47951e-07
2.38992e-07
3.80293e-07
5.95545e-07
9.1658e-07
1.38405e-06
2.04664e-06
2.95802e-06
4.17114e-06
5.7304e-06
7.66346e-06
9.97523e-06
1.26457e-05
1.56321e-05
1.88741e-05
2.22998e-05
2.58319e-05
2.93921e-05
3.29051e-05
3.63009e-05
3.9517e-05
4.25005e-05
4.52116e-05
4.76295e-05
4.97646e-05
5.16783e-05
5.35086e-05
5.5494e-05
5.79931e-05
6.14934e-05
6.66075e-05
7.40506e-05
8.46143e-05
9.94537e-05
0.000120128
0.000148116
0.000185587
0.000235362
0.00030112
0.000387684
0.00050138
0.000650513
0.000846003
0.00110222
0.00143808
0.00187861
0.00245691
0.00321705
0.00421164
0.00548519
0.00721904
0.0095097
0.0125471
0.0165141
0.0337468
0.0511591
0.0684627
0.0854349
0.101902
0.117725
0.132792
0.147011
0.160299
0.172585
0.183747
0.193792
0.202612
0.210132
0.21628
0.221045
0.224504
0.226828
0.22827
0.229101
0.229552
0.229784
0.229898
0.229953
0.229979
0.22999
0.229996
0.229998
0.229999
0.23
0.23
0.23
0.23
0.23
0.23
0.23
0.23
0.23
5.27255e-10
2.30427e-09
5.29232e-09
1.02969e-08
1.8632e-08
3.24133e-08
5.49969e-08
9.16146e-08
1.50258e-07
2.42849e-07
3.86686e-07
6.06041e-07
9.33623e-07
1.41137e-06
2.08975e-06
3.02482e-06
4.27247e-06
5.88046e-06
7.87993e-06
1.02789e-05
1.30599e-05
1.61815e-05
1.95837e-05
2.3194e-05
2.69332e-05
3.07205e-05
3.44773e-05
3.81298e-05
4.16114e-05
4.48649e-05
4.78463e-05
5.05319e-05
5.29317e-05
5.51123e-05
5.72253e-05
5.9533e-05
6.24262e-05
6.64338e-05
7.21896e-05
8.0384e-05
9.20453e-05
0.000108489
0.000130913
0.00016108
0.000201248
0.000254355
0.000324233
0.000415904
0.000535953
0.000693033
0.000898518
0.00116738
0.00151938
0.00198062
0.00258567
0.00338054
0.00442112
0.00576042
0.00758976
0.0100182
0.0132629
0.0181757
0.0356085
0.0531463
0.0705171
0.0875094
0.103957
0.119728
0.134713
0.14882
0.161968
0.174076
0.185028
0.194884
0.203524
0.210881
0.216907
0.221531
0.22484
0.22704
0.228393
0.229168
0.229586
0.2298
0.229906
0.229956
0.22998
0.229991
0.229996
0.229998
0.229999
0.23
0.23
0.23
0.23
0.23
0.23
0.23
0.23
0.23
5.34594e-10
2.33636e-09
5.36619e-09
1.04414e-08
1.88959e-08
3.28789e-08
5.58026e-08
9.29914e-08
1.52589e-07
2.46764e-07
3.93204e-07
6.16791e-07
9.51157e-07
1.43959e-06
2.13445e-06
3.09433e-06
4.37825e-06
6.03757e-06
8.10715e-06
1.05985e-05
1.34969e-05
1.67627e-05
2.03366e-05
2.41456e-05
2.81091e-05
3.21438e-05
3.61679e-05
4.01038e-05
4.38807e-05
4.74367e-05
5.07234e-05
5.37137e-05
5.64176e-05
5.89074e-05
6.13505e-05
6.40345e-05
6.7384e-05
7.19513e-05
7.83447e-05
8.74851e-05
0.000100517
0.000118431
0.000142669
0.000175048
0.000217904
0.000274262
0.000348067
0.000444477
0.000570241
0.000734201
0.000947955
0.00122672
0.00159051
0.00206564
0.00268682
0.00349989
0.00455652
0.00591078
0.00775042
0.0101698
0.0133599
0.0199568
0.0374529
0.0550271
0.0724078
0.089384
0.105791
0.121498
0.1364
0.150406
0.163436
0.175422
0.186317
0.196043
0.20452
0.21168
0.217474
0.221944
0.22513
0.227222
0.228498
0.229225
0.229615
0.229815
0.229913
0.22996
0.229982
0.229992
0.229996
0.229998
0.229999
0.23
0.23
0.23
0.23
0.23
0.23
0.23
0.23
0.23
5.41865e-10
2.36816e-09
5.43947e-09
1.0585e-08
1.91585e-08
3.33433e-08
5.66084e-08
9.43726e-08
1.54935e-07
2.50718e-07
3.9981e-07
6.27725e-07
9.6905e-07
1.46848e-06
2.18036e-06
3.16592e-06
4.48748e-06
6.20022e-06
8.34303e-06
1.09312e-05
1.39532e-05
1.73717e-05
2.11284e-05
2.51503e-05
2.93556e-05
3.36592e-05
3.79762e-05
4.22254e-05
4.63316e-05
5.02283e-05
5.38625e-05
5.72036e-05
6.02614e-05
6.31151e-05
6.59496e-05
6.90796e-05
7.2954e-05
7.80995e-05
8.53267e-05
9.56717e-05
0.000109976
0.000129446
0.000155564
0.000190198
0.000235743
0.000295295
0.00037288
0.000473747
0.000604743
0.000774811
0.00099564
0.00128252
0.00165549
0.00214079
0.00277296
0.00359722
0.00466315
0.00602466
0.00786698
0.010281
0.0134544
0.0216855
0.0391935
0.0567613
0.0741187
0.0910537
0.107399
0.123028
0.137836
0.151734
0.164672
0.176577
0.187387
0.197
0.205345
0.212362
0.218011
0.222304
0.225368
0.227375
0.228587
0.229273
0.22964
0.229827
0.229918
0.229962
0.229983
0.229992
0.229997
0.229999
0.229999
0.23
0.23
0.23
0.23
0.23
0.23
0.23
0.23
0.23
5.49001e-10
2.39939e-09
5.51147e-09
1.07261e-08
1.94172e-08
3.38017e-08
5.74054e-08
9.57423e-08
1.57268e-07
2.5466e-07
4.06417e-07
6.3869e-07
9.87047e-07
1.49762e-06
2.2268e-06
3.23854e-06
4.59861e-06
6.3662e-06
8.58451e-06
1.1273e-05
1.44238e-05
1.80022e-05
2.19517e-05
2.61998e-05
3.06644e-05
3.52587e-05
3.98956e-05
4.44905e-05
4.89642e-05
5.32459e-05
5.72777e-05
6.1026e-05
6.45008e-05
6.779e-05
7.10984e-05
7.47674e-05
7.92217e-05
8.51233e-05
9.3447e-05
0.000104932
0.00012062
0.00014175
0.000169842
0.00020681
0.000255101
0.000317873
0.000399218
0.000504454
0.0006405
0.000816361
0.00104377
0.00133805
0.00171917
0.00221323
0.00285409
0.00368663
0.00476086
0.00612939
0.00797609
0.0103894
0.0135546
0.0232297
0.0407439
0.0582978
0.0756173
0.0924935
0.108785
0.124361
0.139121
0.152982
0.165851
0.177661
0.188348
0.197838
0.206057
0.212946
0.218468
0.222641
0.225577
0.227502
0.228662
0.229313
0.22966
0.229837
0.229923
0.229964
0.229984
0.229993
0.229997
0.229999
0.229999
0.23
0.23
0.23
0.23
0.23
0.23
0.23
0.23
0.23
5.55899e-10
2.42958e-09
5.58112e-09
1.08628e-08
1.96681e-08
3.42469e-08
5.8181e-08
9.7078e-08
1.59549e-07
2.58523e-07
4.12907e-07
6.49491e-07
1.00482e-06
1.52648e-06
2.27292e-06
3.31087e-06
4.70965e-06
6.5326e-06
8.82748e-06
1.16183e-05
1.49012e-05
1.86449e-05
2.27952e-05
2.72811e-05
3.20207e-05
3.69267e-05
4.19103e-05
4.68845e-05
5.17668e-05
5.64823e-05
6.09692e-05
6.51909e-05
6.91597e-05
7.29752e-05
7.6868e-05
8.11827e-05
8.64111e-05
9.33148e-05
0.00010269
0.000115447
0.00013265
0.000155566
0.000185754
0.000225173
0.000276321
0.000342413
0.000427604
0.000537275
0.000678407
0.000860058
0.00109401
0.00139555
0.00178446
0.00228661
0.00293627
0.00377885
0.00486109
0.00623557
0.00808612
0.0104983
0.013654
0.0245614
0.0420914
0.0596398
0.076939
0.0938035
0.110062
0.125591
0.140287
0.154066
0.16685
0.17857
0.189161
0.198548
0.206659
0.213437
0.218848
0.222918
0.225766
0.227609
0.228722
0.229347
0.229678
0.229845
0.229927
0.229966
0.229985
0.229993
0.229997
0.229999
0.229999
0.23
0.23
0.23
0.23
0.23
0.23
0.23
0.23
0.23
5.62424e-10
2.45814e-09
5.64706e-09
1.09924e-08
1.9906e-08
3.46698e-08
5.8919e-08
9.83513e-08
1.61727e-07
2.62222e-07
4.19136e-07
6.59885e-07
1.02197e-06
1.55441e-06
2.31768e-06
3.38129e-06
4.8181e-06
6.69573e-06
9.06663e-06
1.19597e-05
1.53755e-05
1.92868e-05
2.36426e-05
2.83742e-05
3.3401e-05
3.86363e-05
4.3991e-05
4.93768e-05
5.4709e-05
5.99097e-05
6.49135e-05
6.96815e-05
7.42271e-05
7.86591e-05
8.32256e-05
8.82289e-05
9.44061e-05
0.000102474
0.000113131
0.000127344
0.00014622
0.00017107
0.000203496
0.000245506
0.000299653
0.00036921
0.000458392
0.000572642
0.000719004
0.000906546
0.00114696
0.00145541
0.00185188
0.00236294
0.00302241
0.0038739
0.00496367
0.00634405
0.00819772
0.0106073
0.0137493
0.0256906
0.0432415
0.060787
0.0780815
0.0949168
0.111137
0.126618
0.141258
0.154973
0.167687
0.179331
0.189841
0.199141
0.207161
0.213845
0.219163
0.223145
0.225919
0.227705
0.228773
0.229373
0.229691
0.229852
0.22993
0.229968
0.229985
0.229993
0.229997
0.229999
0.229999
0.23
0.23
0.23
0.23
0.23
0.23
0.23
0.23
0.23
5.68424e-10
2.48441e-09
5.70772e-09
1.11116e-08
2.01253e-08
3.506e-08
5.96012e-08
9.95305e-08
1.63749e-07
2.65661e-07
4.24941e-07
6.69595e-07
1.03804e-06
1.58063e-06
2.35984e-06
3.44784e-06
4.92098e-06
6.85109e-06
9.2954e-06
1.22878e-05
1.58338e-05
1.99107e-05
2.44715e-05
2.94507e-05
3.47706e-05
4.03463e-05
4.60901e-05
5.19144e-05
5.77344e-05
6.34716e-05
6.90603e-05
7.44631e-05
7.97014e-05
8.4905e-05
9.03416e-05
9.64396e-05
0.000103756
0.00011297
0.00012498
0.000140757
0.00016143
0.000188342
0.000223138
0.000267878
0.000325171
0.000398352
0.00049168
0.000610624
0.000762174
0.000955436
0.00120227
0.00151847
0.00192389
0.00244388
0.00311203
0.0039721
0.00506901
0.00645474
0.00831065
0.0107164
0.0138364
0.0266239
0.0442032
0.0617568
0.0790361
0.0958453
0.112031
0.12747
0.142062
0.155723
0.168379
0.17996
0.190403
0.199631
0.207575
0.214181
0.219421
0.22333
0.226042
0.227782
0.228817
0.229395
0.229702
0.229857
0.229933
0.229969
0.229986
0.229994
0.229997
0.229999
0.229999
0.23
0.23
0.23
0.23
0.23
0.23
0.23
0.23
0.23
5.73738e-10
2.50768e-09
5.76149e-09
1.12174e-08
2.032e-08
3.54069e-08
6.02083e-08
1.00582e-07
1.65554e-07
2.68739e-07
4.30148e-07
6.78323e-07
1.05251e-06
1.60434e-06
2.39806e-06
3.50837e-06
5.01489e-06
6.99348e-06
9.50602e-06
1.25914e-05
1.62602e-05
2.04948e-05
2.52526e-05
3.04726e-05
3.60809e-05
4.19964e-05
4.81344e-05
5.44103e-05
6.07417e-05
6.70521e-05
7.32782e-05
7.9386e-05
8.5406e-05
9.14865e-05
9.79031e-05
0.000105208
0.000113831
0.000124489
0.000138043
0.000155534
0.000178131
0.000207223
0.000244501
0.000292072
0.000352583
0.000429387
0.000526786
0.000650345
0.000807229
0.00100692
0.00126127
0.00158525
0.00199868
0.00252713
0.00320384
0.00407206
0.00517545
0.00656536
0.00842162
0.0108208
0.0139163
0.0273796
0.0449832
0.0625445
0.0798147
0.0966033
0.11276
0.128163
0.142715
0.156332
0.16894
0.180469
0.190857
0.200027
0.207909
0.214451
0.219628
0.223478
0.22614
0.227842
0.228852
0.229415
0.229712
0.229862
0.229935
0.22997
0.229986
0.229994
0.229997
0.229999
0.229999
0.23
0.23
0.23
0.23
0.23
0.23
0.23
0.23
0.23
5.78211e-10
2.52727e-09
5.80675e-09
1.13065e-08
2.04841e-08
3.56996e-08
6.07214e-08
1.01471e-07
1.67084e-07
2.71352e-07
4.34578e-07
6.85766e-07
1.06489e-06
1.62465e-06
2.43091e-06
3.56057e-06
5.09616e-06
7.11721e-06
9.68985e-06
1.28577e-05
1.66363e-05
2.10131e-05
2.59505e-05
3.13924e-05
3.72699e-05
4.3507e-05
5.00242e-05
5.67424e-05
6.35848e-05
7.04811e-05
7.73752e-05
8.42439e-05
9.11356e-05
9.82287e-05
0.000105833
0.000114352
0.000124268
0.000136455
0.0001517
0.000171016
0.000195605
0.000226899
0.000266642
0.000316992
0.000380664
0.000461108
0.000562884
0.000691598
0.000854483
0.00106055
0.00132168
0.00165312
0.00207449
0.00261119
0.00329605
0.00417175
0.00528072
0.00667332
0.00852759
0.0109168
0.0139847
0.0279773
0.045609
0.0631747
0.0804361
0.0972066
0.113338
0.128713
0.143231
0.156812
0.169381
0.180869
0.191213
0.200337
0.208171
0.214662
0.219789
0.223593
0.226216
0.227888
0.228879
0.229429
0.229719
0.229865
0.229937
0.229971
0.229987
0.229994
0.229997
0.229999
0.23
0.23
0.23
0.23
0.23
0.23
0.23
0.23
0.23
0.23
5.81698e-10
2.54254e-09
5.84206e-09
1.1376e-08
2.06123e-08
3.59284e-08
6.11228e-08
1.02168e-07
1.68285e-07
2.73406e-07
4.38065e-07
6.91636e-07
1.07467e-06
1.64075e-06
2.45701e-06
3.60216e-06
5.16114e-06
7.21649e-06
9.83797e-06
1.30732e-05
1.69423e-05
2.14371e-05
2.65251e-05
3.2155e-05
3.82634e-05
4.47802e-05
5.16325e-05
5.87483e-05
6.60597e-05
7.3506e-05
8.10433e-05
8.86647e-05
9.64425e-05
0.000104585
0.000113468
0.000123382
0.000134758
0.000148351
0.000165141
0.000186173
0.000212685
0.000246156
0.000288393
0.000341632
0.000408679
0.000493085
0.000599195
0.000732707
0.000900864
0.0011129
0.00138064
0.00171927
0.00214829
0.00269283
0.00338532
0.00426774
0.00538139
0.00677519
0.00862521
0.0110012
0.0140382
0.0284192
0.0460784
0.0636516
0.0809074
0.0976637
0.113776
0.129126
0.143619
0.157171
0.169709
0.181166
0.191477
0.200566
0.208363
0.214818
0.219907
0.223677
0.226271
0.227922
0.228898
0.229439
0.229725
0.229868
0.229938
0.229971
0.229987
0.229994
0.229997
0.229999
0.23
0.23
0.23
0.23
0.23
0.23
0.23
0.23
0.23
0.23
5.84079e-10
2.55297e-09
5.86618e-09
1.14235e-08
2.06999e-08
3.60848e-08
6.13972e-08
1.02645e-07
1.69106e-07
2.74812e-07
4.40455e-07
6.95665e-07
1.08139e-06
1.65183e-06
2.47502e-06
3.63094e-06
5.20623e-06
7.28562e-06
9.9415e-06
1.32245e-05
1.71581e-05
2.17376e-05
2.69345e-05
3.27018e-05
3.89808e-05
4.57066e-05
5.2813e-05
6.02354e-05
6.79152e-05
7.58035e-05
8.38719e-05
9.21355e-05
0.0001007
0.000109818
0.000119862
0.000131163
0.000144025
0.00015915
0.000177483
0.000200131
0.000228388
0.000263791
0.0003082
0.000363902
0.000433743
0.000521295
0.00063106
0.000768756
0.000941658
0.00115903
0.00143271
0.00177782
0.00221374
0.00276538
0.00346473
0.00435311
0.00547071
0.00686479
0.00870916
0.0110697
0.0140735
0.0287076
0.0463969
0.0639798
0.0812326
0.0979783
0.114075
0.129408
0.143881
0.157412
0.16993
0.181364
0.191653
0.200718
0.208491
0.21492
0.219984
0.223732
0.226307
0.227944
0.22891
0.229446
0.229728
0.22987
0.229939
0.229972
0.229987
0.229994
0.229997
0.229999
0.23
0.23
0.23
0.23
0.23
0.23
0.23
0.23
0.23
0.23
5.8527e-10
2.55818e-09
5.8782e-09
1.14471e-08
2.07432e-08
3.6162e-08
6.15323e-08
1.02879e-07
1.69509e-07
2.755e-07
4.41622e-07
6.9763e-07
1.08467e-06
1.65724e-06
2.48381e-06
3.64501e-06
5.22833e-06
7.31961e-06
9.99258e-06
1.32995e-05
1.72656e-05
2.18882e-05
2.71408e-05
3.2979e-05
3.93469e-05
4.61829e-05
5.34247e-05
6.10128e-05
6.88946e-05
7.70295e-05
8.54001e-05
9.40366e-05
0.000103065
0.000112743
0.000123469
0.000135677
0.000149749
0.000166003
0.00018541
0.000209142
0.000238547
0.00027521
0.000321034
0.000378348
0.000450038
0.000539718
0.000651942
0.000792473
0.000968622
0.00118969
0.00146752
0.00181723
0.00225816
0.00281504
0.00351963
0.00441275
0.0055337
0.00692839
0.00876849
0.0111159
0.01409
0.0288644
0.0465718
0.0641588
0.081408
0.0981458
0.114232
0.129554
0.144015
0.157535
0.17004
0.181463
0.19174
0.200792
0.208552
0.214969
0.220021
0.223757
0.226323
0.227954
0.228916
0.229449
0.22973
0.22987
0.229939
0.229972
0.229987
0.229994
0.229997
0.229999
0.23
0.23
0.23
0.23
0.23
0.23
0.23
0.23
0.23
0.23
5.85271e-10
2.55818e-09
5.8782e-09
1.14471e-08
2.07432e-08
3.6162e-08
6.15323e-08
1.02879e-07
1.69509e-07
2.755e-07
4.41622e-07
6.9763e-07
1.08467e-06
1.65724e-06
2.48381e-06
3.64501e-06
5.22833e-06
7.3196e-06
9.99257e-06
1.32995e-05
1.72655e-05
2.18881e-05
2.71408e-05
3.2979e-05
3.93468e-05
4.61829e-05
5.34246e-05
6.10127e-05
6.88944e-05
7.70293e-05
8.53998e-05
9.40362e-05
0.000103064
0.000112743
0.000123469
0.000135676
0.000149749
0.000166003
0.00018541
0.000209143
0.000238549
0.000275213
0.000321039
0.000378354
0.000450046
0.000539729
0.000651957
0.000792492
0.000968646
0.00118972
0.00146756
0.00181728
0.00225822
0.00281512
0.00351974
0.0044129
0.0055339
0.00692873
0.00876908
0.011117
0.0140921
0.0288643
0.0465717
0.0641588
0.0814081
0.0981458
0.114232
0.129554
0.144015
0.157535
0.17004
0.181463
0.19174
0.200792
0.208552
0.214969
0.220021
0.223757
0.226323
0.227954
0.228916
0.229449
0.22973
0.22987
0.229939
0.229972
0.229987
0.229994
0.229997
0.229999
0.23
0.23
0.23
0.23
0.23
0.23
0.23
0.23
0.23
0.23
5.8408e-10
2.55297e-09
5.86618e-09
1.14235e-08
2.06999e-08
3.60848e-08
6.13972e-08
1.02645e-07
1.69106e-07
2.74812e-07
4.40455e-07
6.95665e-07
1.08139e-06
1.65183e-06
2.47502e-06
3.63094e-06
5.20623e-06
7.28561e-06
9.94147e-06
1.32245e-05
1.7158e-05
2.17376e-05
2.69344e-05
3.27017e-05
3.89806e-05
4.57064e-05
5.28127e-05
6.0235e-05
6.79147e-05
7.58029e-05
8.38712e-05
9.21347e-05
0.000100699
0.000109817
0.00011986
0.000131162
0.000144024
0.000159149
0.000177484
0.000200133
0.000228392
0.000263798
0.00030821
0.000363917
0.000433765
0.000521324
0.000631098
0.000768806
0.000941722
0.00115911
0.00143281
0.00177794
0.00221389
0.00276555
0.00346494
0.00435336
0.00547098
0.00686511
0.00870956
0.0110702
0.0140744
0.028707
0.0463965
0.0639795
0.0812325
0.0979782
0.114075
0.129408
0.143881
0.157413
0.16993
0.181364
0.191653
0.200718
0.208491
0.21492
0.219984
0.223732
0.226307
0.227944
0.22891
0.229446
0.229728
0.22987
0.229939
0.229972
0.229987
0.229994
0.229997
0.229999
0.23
0.23
0.23
0.23
0.23
0.23
0.23
0.23
0.23
0.23
5.81697e-10
2.54254e-09
5.84206e-09
1.1376e-08
2.06123e-08
3.59284e-08
6.11227e-08
1.02168e-07
1.68284e-07
2.73405e-07
4.38063e-07
6.91633e-07
1.07466e-06
1.64074e-06
2.45699e-06
3.60213e-06
5.1611e-06
7.21643e-06
9.83788e-06
1.30731e-05
1.69422e-05
2.14369e-05
2.65248e-05
3.21546e-05
3.82629e-05
4.47796e-05
5.16317e-05
5.87474e-05
6.60584e-05
7.35044e-05
8.10414e-05
8.86625e-05
9.64399e-05
0.000104582
0.000113465
0.000123379
0.000134755
0.000148348
0.00016514
0.000186174
0.000212688
0.000246163
0.000288404
0.000341649
0.000408704
0.00049312
0.000599241
0.000732768
0.000900941
0.00111299
0.00138076
0.00171941
0.00214845
0.00269301
0.00338552
0.00426796
0.00538159
0.00677536
0.0086253
0.0110012
0.014038
0.0284184
0.0460778
0.0636512
0.0809071
0.0976635
0.113775
0.129126
0.143619
0.157171
0.169709
0.181166
0.191477
0.200566
0.208363
0.214818
0.219907
0.223677
0.226271
0.227922
0.228898
0.229439
0.229725
0.229868
0.229938
0.229971
0.229987
0.229994
0.229997
0.229999
0.23
0.23
0.23
0.23
0.23
0.23
0.23
0.23
0.23
0.23
5.78211e-10
2.52727e-09
5.80675e-09
1.13065e-08
2.04841e-08
3.56996e-08
6.07213e-08
1.01471e-07
1.67084e-07
2.71351e-07
4.34576e-07
6.85762e-07
1.06488e-06
1.62464e-06
2.43089e-06
3.56054e-06
5.09611e-06
7.11714e-06
9.68975e-06
1.28575e-05
1.66361e-05
2.10128e-05
2.59502e-05
3.1392e-05
3.72694e-05
4.35063e-05
5.00234e-05
5.67414e-05
6.35836e-05
7.04796e-05
7.73735e-05
8.42419e-05
9.11333e-05
9.82264e-05
0.00010583
0.000114348
0.000124263
0.000136448
0.000151694
0.000171012
0.000195604
0.000226902
0.000266648
0.000317003
0.000380683
0.000461138
0.000562927
0.000691656
0.000854557
0.00106064
0.00132179
0.00165325
0.00207464
0.00261135
0.00329623
0.00417193
0.0052809
0.00667346
0.00852768
0.0109168
0.0139846
0.027977
0.0456087
0.0631745
0.080436
0.0972065
0.113338
0.128713
0.143231
0.156812
0.169381
0.180869
0.191213
0.200337
0.208171
0.214662
0.219789
0.223593
0.226216
0.227888
0.228879
0.229429
0.229719
0.229865
0.229937
0.229971
0.229987
0.229994
0.229997
0.229999
0.23
0.23
0.23
0.23
0.23
0.23
0.23
0.23
0.23
0.23
5.73739e-10
2.50768e-09
5.76149e-09
1.12174e-08
2.032e-08
3.54069e-08
6.02082e-08
1.00581e-07
1.65554e-07
2.68738e-07
4.30146e-07
6.78319e-07
1.05251e-06
1.60432e-06
2.39804e-06
3.50834e-06
5.01483e-06
6.9934e-06
9.5059e-06
1.25912e-05
1.626e-05
2.04945e-05
2.52523e-05
3.04722e-05
3.60804e-05
4.19958e-05
4.81337e-05
5.44094e-05
6.07407e-05
6.70509e-05
7.32767e-05
7.93843e-05
8.54041e-05
9.14844e-05
9.79011e-05
0.000105206
0.000113828
0.000124492
0.000138048
0.000155541
0.00017814
0.000207235
0.000244518
0.000292093
0.000352608
0.000429414
0.000526819
0.000650387
0.000807287
0.00100699
0.00126136
0.00158536
0.0019988
0.00252727
0.00320399
0.00407221
0.0051756
0.0065655
0.00842173
0.0108209
0.0139163
0.0273796
0.0449832
0.0625445
0.0798147
0.0966033
0.11276
0.128163
0.142715
0.156332
0.168939
0.180469
0.190857
0.200027
0.207909
0.214451
0.219628
0.223478
0.22614
0.227842
0.228852
0.229415
0.229712
0.229862
0.229935
0.22997
0.229986
0.229994
0.229997
0.229999
0.229999
0.23
0.23
0.23
0.23
0.23
0.23
0.23
0.23
0.23
5.68424e-10
2.48441e-09
5.70773e-09
1.11116e-08
2.01253e-08
3.506e-08
5.96011e-08
9.95303e-08
1.63748e-07
2.6566e-07
4.2494e-07
6.69591e-07
1.03803e-06
1.58062e-06
2.35982e-06
3.44781e-06
4.92092e-06
6.851e-06
9.29528e-06
1.22876e-05
1.58335e-05
1.99104e-05
2.44711e-05
2.94503e-05
3.47701e-05
4.03458e-05
4.60895e-05
5.19137e-05
5.77337e-05
6.34709e-05
6.90596e-05
7.44626e-05
7.97011e-05
8.49053e-05
9.03437e-05
9.64432e-05
0.000103762
0.000112975
0.000124985
0.000140763
0.000161438
0.000188352
0.000223152
0.000267897
0.000325196
0.000398384
0.000491721
0.000610672
0.000762223
0.000955491
0.00120234
0.00151856
0.00192399
0.00244398
0.00311215
0.00397223
0.00506915
0.00645487
0.00831078
0.0107165
0.0138365
0.0266239
0.0442031
0.0617567
0.0790361
0.0958453
0.112031
0.12747
0.142062
0.155723
0.168379
0.17996
0.190402
0.199631
0.207575
0.214181
0.21942
0.22333
0.226042
0.227782
0.228817
0.229395
0.229702
0.229857
0.229933
0.229969
0.229986
0.229994
0.229997
0.229999
0.229999
0.23
0.23
0.23
0.23
0.23
0.23
0.23
0.23
0.23
5.62425e-10
2.45814e-09
5.64707e-09
1.09924e-08
1.9906e-08
3.46698e-08
5.8919e-08
9.83513e-08
1.61727e-07
2.62221e-07
4.19135e-07
6.59882e-07
1.02197e-06
1.55439e-06
2.31766e-06
3.38125e-06
4.81805e-06
6.69564e-06
9.06651e-06
1.19595e-05
1.53752e-05
1.92865e-05
2.36423e-05
2.83738e-05
3.34006e-05
3.86358e-05
4.39905e-05
4.93763e-05
5.47085e-05
5.99092e-05
6.49131e-05
6.96812e-05
7.42268e-05
7.8659e-05
8.32257e-05
8.82301e-05
9.44085e-05
0.000102477
0.000113134
0.000127348
0.000146226
0.000171078
0.000203506
0.00024552
0.000299672
0.000369234
0.000458422
0.000572679
0.000719051
0.0009066
0.00114701
0.00145546
0.00185195
0.00236303
0.00302251
0.00387402
0.0049638
0.00634418
0.00819787
0.0106074
0.0137494
0.0256908
0.0432418
0.0607871
0.0780816
0.0949168
0.111137
0.126618
0.141258
0.154973
0.167687
0.179331
0.189841
0.199141
0.207161
0.213845
0.219163
0.223145
0.225919
0.227705
0.228773
0.229373
0.229691
0.229852
0.22993
0.229968
0.229985
0.229993
0.229997
0.229999
0.229999
0.23
0.23
0.23
0.23
0.23
0.23
0.23
0.23
0.23
5.55901e-10
2.42958e-09
5.58114e-09
1.08629e-08
1.96681e-08
3.4247e-08
5.81811e-08
9.70781e-08
1.59549e-07
2.58523e-07
4.12906e-07
6.49489e-07
1.00482e-06
1.52647e-06
2.2729e-06
3.31084e-06
4.7096e-06
6.53253e-06
8.82737e-06
1.16181e-05
1.4901e-05
1.86446e-05
2.27949e-05
2.72807e-05
3.20203e-05
3.69262e-05
4.19098e-05
4.6884e-05
5.17664e-05
5.64819e-05
6.09689e-05
6.51908e-05
6.91598e-05
7.29754e-05
7.68685e-05
8.11839e-05
8.64128e-05
9.33169e-05
0.000102692
0.000115451
0.000132654
0.000155572
0.000185763
0.000225184
0.000276335
0.000342432
0.000427628
0.000537305
0.000678444
0.000860104
0.00109407
0.00139562
0.00178453
0.00228667
0.00293635
0.00377895
0.00486121
0.00623571
0.00808628
0.0104985
0.0136542
0.0245615
0.0420916
0.0596399
0.076939
0.0938034
0.110062
0.12559
0.140287
0.154066
0.16685
0.17857
0.189161
0.198547
0.206659
0.213437
0.218848
0.222918
0.225766
0.227609
0.228722
0.229347
0.229678
0.229845
0.229927
0.229966
0.229985
0.229993
0.229997
0.229999
0.229999
0.23
0.23
0.23
0.23
0.23
0.23
0.23
0.23
0.23
5.49004e-10
2.3994e-09
5.5115e-09
1.07262e-08
1.94173e-08
3.38019e-08
5.74056e-08
9.57426e-08
1.57269e-07
2.5466e-07
4.06417e-07
6.38689e-07
9.87045e-07
1.49761e-06
2.22679e-06
3.23851e-06
4.59857e-06
6.36613e-06
8.58441e-06
1.12729e-05
1.44236e-05
1.80019e-05
2.19514e-05
2.61995e-05
3.0664e-05
3.52583e-05
3.98951e-05
4.449e-05
4.89638e-05
5.32455e-05
5.72774e-05
6.10258e-05
6.45008e-05
6.77902e-05
7.10988e-05
7.47681e-05
7.9223e-05
8.51251e-05
9.34494e-05
0.000104935
0.000120624