/*--------------------------------*- C++ -*----------------------------------*\
  =========                 |
  \\      /  F ield         | OpenFOAM: The Open Source CFD Toolbox
   \\    /   O peration     | Website:  https://openfoam.org
    \\  /    A nd           | Version:  8
     \\/     M anipulation  |
\*---------------------------------------------------------------------------*/
FoamFile
{
    version     2.0;
    format      ascii;
    class       surfaceScalarField;
    location    "880/fluid";
    object      phi;
}
// * * * * * * * * * * * * * * * * * * * * * * * * * * * * * * * * * * * * * //

dimensions      [1 0 -1 0 0 0 0];

internalField   nonuniform List<scalar> 
7860
(
6.57258e-07
-1.77956e-08
6.54565e-07
-5.33745e-08
6.50731e-07
-8.87603e-08
6.45646e-07
-1.2386e-07
6.39176e-07
-1.58683e-07
6.31157e-07
-1.93182e-07
6.21402e-07
-2.27274e-07
6.0971e-07
-2.60834e-07
5.95879e-07
-2.93695e-07
5.7971e-07
-3.25635e-07
5.61034e-07
-3.56364e-07
5.39727e-07
-3.85515e-07
5.15767e-07
-4.12631e-07
4.89333e-07
-4.37167e-07
4.60704e-07
-4.58483e-07
4.3025e-07
-4.75914e-07
3.98441e-07
-4.88906e-07
3.65826e-07
-4.97164e-07
3.32967e-07
-5.0078e-07
3.00375e-07
-5.00243e-07
2.68454e-07
-4.9634e-07
2.37491e-07
-4.89981e-07
2.07663e-07
-4.82025e-07
1.79105e-07
-4.73168e-07
1.51861e-07
-4.63891e-07
1.25894e-07
-4.54492e-07
1.01136e-07
-4.45132e-07
7.75099e-08
-4.35878e-07
5.49455e-08
-4.2674e-07
3.33809e-08
-4.177e-07
1.27634e-08
-4.08728e-07
-6.94688e-09
-3.99798e-07
-2.57784e-08
-3.9089e-07
-4.37605e-08
-3.81994e-07
-6.09239e-08
-3.73116e-07
-7.72919e-08
-3.64242e-07
-9.28841e-08
-3.55334e-07
-1.07719e-07
-3.46405e-07
-1.21816e-07
-3.37477e-07
-1.35194e-07
-3.28572e-07
-1.47871e-07
-3.19713e-07
-1.59866e-07
-3.10928e-07
-1.71199e-07
-3.02243e-07
-1.81889e-07
-2.93686e-07
-1.91957e-07
-2.85284e-07
-2.01424e-07
-2.77065e-07
-2.10309e-07
-2.69056e-07
-2.18634e-07
-2.61282e-07
-2.26421e-07
-2.53771e-07
-2.3369e-07
-2.46549e-07
-2.40464e-07
-2.39641e-07
-2.46766e-07
-2.33075e-07
-2.52619e-07
-2.26882e-07
-2.58049e-07
-2.21092e-07
-2.63086e-07
-2.15745e-07
-2.67764e-07
-2.10883e-07
-2.72128e-07
-2.06561e-07
-2.76229e-07
-2.02871e-07
-2.80126e-07
-1.99883e-07
-2.83894e-07
-1.97658e-07
-2.87668e-07
-1.96436e-07
-2.91887e-07
-1.96387e-07
-2.96797e-07
-1.98678e-07
-3.03656e-07
-2.09812e-07
-3.11562e-07
-2.22262e-07
-3.20326e-07
-2.36003e-07
-3.29999e-07
-2.51216e-07
-3.407e-07
-2.68141e-07
-3.5259e-07
-2.8705e-07
-3.65886e-07
-3.08271e-07
-3.80882e-07
-3.32196e-07
-3.97974e-07
-3.59292e-07
-4.17689e-07
-3.90092e-07
-4.40713e-07
-4.2532e-07
-4.67907e-07
-4.65633e-07
-5.00243e-07
-5.11055e-07
-5.38615e-07
-5.60522e-07
-5.83301e-07
-6.11118e-07
-6.34058e-07
-6.57373e-07
-6.89693e-07
-6.92187e-07
-7.47857e-07
-7.09916e-07
-8.05625e-07
-7.09446e-07
-8.60492e-07
-6.93991e-07
-9.10906e-07
-6.68227e-07
-9.56208e-07
-6.36187e-07
-9.96216e-07
-6.00492e-07
-1.03081e-06
-5.62587e-07
-1.06034e-06
-5.23168e-07
-1.08534e-06
-4.82672e-07
-1.10635e-06
-4.41433e-07
-1.12387e-06
-3.99703e-07
-1.13833e-06
-3.57678e-07
-1.15015e-06
-3.15507e-07
-1.15969e-06
-2.73298e-07
-1.16727e-06
-2.31124e-07
-1.17317e-06
-1.89022e-07
-1.17763e-06
-1.47013e-07
-1.18082e-06
-1.05081e-07
-1.18292e-06
-6.31239e-08
-2.10686e-08
6.57906e-07
-1.71675e-08
6.55761e-07
-5.12304e-08
6.52023e-07
-8.50219e-08
6.46689e-07
-1.18526e-07
6.39692e-07
-1.51685e-07
6.3093e-07
-1.84421e-07
6.20291e-07
-2.16634e-07
6.07657e-07
-2.482e-07
5.92923e-07
-2.78962e-07
5.7601e-07
-3.08721e-07
5.56871e-07
-3.37225e-07
5.35509e-07
-3.64154e-07
5.11994e-07
-3.89115e-07
4.86488e-07
-4.11662e-07
4.59224e-07
-4.31219e-07
4.30498e-07
-4.47189e-07
4.00681e-07
-4.59089e-07
3.70193e-07
-4.66677e-07
3.39459e-07
-4.70047e-07
3.08865e-07
-4.6965e-07
2.7872e-07
-4.66196e-07
2.49246e-07
-4.60508e-07
2.20583e-07
-4.53364e-07
1.92829e-07
-4.45414e-07
1.66036e-07
-4.37098e-07
1.40214e-07
-4.2867e-07
1.15353e-07
-4.20271e-07
9.14332e-08
-4.11959e-07
6.84347e-08
-4.03742e-07
4.6336e-08
-3.95601e-07
2.5117e-08
-3.87509e-07
4.75848e-09
-3.7944e-07
-1.47579e-08
-3.71374e-07
-3.3449e-08
-3.63304e-07
-5.13322e-08
-3.55233e-07
-6.84216e-08
-3.47152e-07
-8.47308e-08
-3.39025e-07
-1.00275e-07
-3.30861e-07
-1.1507e-07
-3.22682e-07
-1.29134e-07
-3.14508e-07
-1.42484e-07
-3.06363e-07
-1.55139e-07
-2.98273e-07
-1.67119e-07
-2.90263e-07
-1.78444e-07
-2.8236e-07
-1.89138e-07
-2.74591e-07
-1.99221e-07
-2.66982e-07
-2.08717e-07
-2.5956e-07
-2.1765e-07
-2.5235e-07
-2.26044e-07
-2.45378e-07
-2.33925e-07
-2.38668e-07
-2.41319e-07
-2.32246e-07
-2.48257e-07
-2.26138e-07
-2.5477e-07
-2.20369e-07
-2.60892e-07
-2.1497e-07
-2.66667e-07
-2.0997e-07
-2.72144e-07
-2.05407e-07
-2.77383e-07
-2.01321e-07
-2.82462e-07
-1.97792e-07
-2.87484e-07
-1.94862e-07
-2.92592e-07
-1.9255e-07
-2.98017e-07
-1.91011e-07
-3.04038e-07
-1.90366e-07
-3.09781e-07
-1.92919e-07
-3.16808e-07
-2.02783e-07
-3.25064e-07
-2.14004e-07
-3.34449e-07
-2.26615e-07
-3.44956e-07
-2.40707e-07
-3.56658e-07
-2.56434e-07
-3.69691e-07
-2.74014e-07
-3.84235e-07
-2.93722e-07
-4.00526e-07
-3.159e-07
-4.18859e-07
-3.40954e-07
-4.39576e-07
-3.69369e-07
-4.63062e-07
-4.01828e-07
-4.89789e-07
-4.38898e-07
-5.20291e-07
-4.80545e-07
-5.55076e-07
-5.25728e-07
-5.94463e-07
-5.71723e-07
-6.38524e-07
-6.13304e-07
-6.86679e-07
-6.44025e-07
-7.37389e-07
-6.59201e-07
-7.88523e-07
-6.58309e-07
-8.38134e-07
-6.44378e-07
-8.84909e-07
-6.21451e-07
-9.28204e-07
-5.92891e-07
-9.67761e-07
-5.60934e-07
-1.00342e-06
-5.26925e-07
-1.03518e-06
-4.9141e-07
-1.06314e-06
-4.54715e-07
-1.08747e-06
-4.17104e-07
-1.10839e-06
-3.78782e-07
-1.12615e-06
-3.39913e-07
-1.14103e-06
-3.0063e-07
-1.15328e-06
-2.61043e-07
-1.16317e-06
-2.21235e-07
-1.17093e-06
-1.81269e-07
-1.17674e-06
-1.41199e-07
-1.18077e-06
-1.01053e-07
-1.18309e-06
-6.08002e-08
-2.03382e-08
6.57606e-07
-1.62396e-08
6.54922e-07
-4.85463e-08
6.50493e-07
-8.05933e-08
6.44285e-07
-1.12319e-07
6.36256e-07
-1.43656e-07
6.26356e-07
-1.74522e-07
6.1454e-07
-2.04817e-07
6.00769e-07
-2.34429e-07
5.85026e-07
-2.63219e-07
5.67318e-07
-2.91014e-07
5.47689e-07
-3.17596e-07
5.26217e-07
-3.42682e-07
5.03012e-07
-3.65912e-07
4.78193e-07
-3.86843e-07
4.51941e-07
-4.04968e-07
4.24521e-07
-4.1977e-07
3.96259e-07
-4.30828e-07
3.67511e-07
-4.3793e-07
3.38626e-07
-4.41163e-07
3.09911e-07
-4.40936e-07
2.81608e-07
-4.37894e-07
2.53884e-07
-4.32785e-07
2.26838e-07
-4.26318e-07
2.00497e-07
-4.19075e-07
1.74868e-07
-4.11469e-07
1.49958e-07
-4.03761e-07
1.25777e-07
-3.9609e-07
1.02332e-07
-3.88514e-07
7.96268e-08
-3.81037e-07
5.76658e-08
-3.7364e-07
3.64502e-08
-3.66294e-07
1.59797e-08
-3.58969e-07
-3.74729e-09
-3.51647e-07
-2.2735e-08
-3.44316e-07
-4.099e-08
-3.36978e-07
-5.85164e-08
-3.29626e-07
-7.53195e-08
-3.22222e-07
-9.14075e-08
-3.14774e-07
-1.06791e-07
-3.07299e-07
-1.21481e-07
-2.99818e-07
-1.35493e-07
-2.92352e-07
-1.48841e-07
-2.84925e-07
-1.61543e-07
-2.77561e-07
-1.73618e-07
-2.70285e-07
-1.85088e-07
-2.63121e-07
-1.95974e-07
-2.56096e-07
-2.06301e-07
-2.49233e-07
-2.16094e-07
-2.42557e-07
-2.25382e-07
-2.3609e-07
-2.34194e-07
-2.29856e-07
-2.42564e-07
-2.23877e-07
-2.50528e-07
-2.18174e-07
-2.58127e-07
-2.12771e-07
-2.65407e-07
-2.0769e-07
-2.7242e-07
-2.02956e-07
-2.7923e-07
-1.98597e-07
-2.85907e-07
-1.94644e-07
-2.92537e-07
-1.91162e-07
-2.99223e-07
-1.88175e-07
-3.06087e-07
-1.85686e-07
-3.13267e-07
-1.83831e-07
-3.20923e-07
-1.82709e-07
-3.27651e-07
-1.86174e-07
-3.35426e-07
-1.95005e-07
-3.44278e-07
-2.05149e-07
-3.54232e-07
-2.16658e-07
-3.65334e-07
-2.29601e-07
-3.77661e-07
-2.44103e-07
-3.91315e-07
-2.60356e-07
-4.06421e-07
-2.78611e-07
-4.23125e-07
-2.99189e-07
-4.41589e-07
-3.22483e-07
-4.61968e-07
-3.48983e-07
-4.84413e-07
-3.79374e-07
-5.09154e-07
-4.14147e-07
-5.3652e-07
-4.53168e-07
-5.67013e-07
-4.95223e-07
-6.01414e-07
-5.37311e-07
-6.40273e-07
-5.74434e-07
-6.83371e-07
-6.00918e-07
-7.29446e-07
-6.1312e-07
-7.76585e-07
-6.11166e-07
-8.22972e-07
-5.97989e-07
-8.67316e-07
-5.77105e-07
-9.08897e-07
-5.5131e-07
-9.47409e-07
-5.22422e-07
-9.82854e-07
-4.9148e-07
-1.0152e-06
-4.59063e-07
-1.04441e-06
-4.25505e-07
-1.0705e-06
-3.91018e-07
-1.09353e-06
-3.55755e-07
-1.1136e-06
-3.19841e-07
-1.13084e-06
-2.83386e-07
-1.1454e-06
-2.46482e-07
-1.15743e-06
-2.09209e-07
-1.16706e-06
-1.71636e-07
-1.17443e-06
-1.3383e-07
-1.17964e-06
-9.58448e-08
-1.18276e-06
-5.7675e-08
-1.92807e-08
6.57625e-07
-1.53313e-08
6.54877e-07
-4.57978e-08
6.50283e-07
-7.59994e-08
6.43841e-07
-1.05876e-07
6.35541e-07
-1.35356e-07
6.25372e-07
-1.64352e-07
6.13324e-07
-1.9277e-07
5.99397e-07
-2.20501e-07
5.83596e-07
-2.47418e-07
5.65945e-07
-2.73363e-07
5.46485e-07
-2.98137e-07
5.25286e-07
-3.21483e-07
5.02451e-07
-3.43077e-07
4.78127e-07
-3.6252e-07
4.52514e-07
-3.79355e-07
4.25862e-07
-3.9312e-07
3.98463e-07
-4.0343e-07
3.70626e-07
-4.10094e-07
3.4265e-07
-4.13189e-07
3.14799e-07
-4.13086e-07
2.87281e-07
-4.10378e-07
2.60244e-07
-4.0575e-07
2.33786e-07
-3.99861e-07
2.07957e-07
-3.93247e-07
1.82783e-07
-3.86296e-07
1.58274e-07
-3.79252e-07
1.3443e-07
-3.72248e-07
1.11251e-07
-3.65336e-07
8.87374e-08
-3.58524e-07
6.68876e-08
-3.51791e-07
4.57029e-08
-3.4511e-07
2.51842e-08
-3.38451e-07
5.33196e-09
-3.31795e-07
-1.38547e-08
-3.2513e-07
-3.23781e-08
-3.18455e-07
-5.02394e-08
-3.11765e-07
-6.74397e-08
-3.05022e-07
-8.39834e-08
-2.9823e-07
-9.98771e-08
-2.91406e-07
-1.1513e-07
-2.84566e-07
-1.29752e-07
-2.7773e-07
-1.43757e-07
-2.70921e-07
-1.5716e-07
-2.64158e-07
-1.69979e-07
-2.57466e-07
-1.82233e-07
-2.50867e-07
-1.93945e-07
-2.44384e-07
-2.05138e-07
-2.3804e-07
-2.1584e-07
-2.31856e-07
-2.26078e-07
-2.25852e-07
-2.35885e-07
-2.20049e-07
-2.45295e-07
-2.14466e-07
-2.54348e-07
-2.09122e-07
-2.63085e-07
-2.04033e-07
-2.71555e-07
-1.9922e-07
-2.7981e-07
-1.94701e-07
-2.87911e-07
-1.90497e-07
-2.95923e-07
-1.86631e-07
-3.03919e-07
-1.83167e-07
-3.11987e-07
-1.80107e-07
-3.20216e-07
-1.77456e-07
-3.28704e-07
-1.75343e-07
-3.37535e-07
-1.73875e-07
-3.45259e-07
-1.78436e-07
-3.53855e-07
-1.86405e-07
-3.63373e-07
-1.95628e-07
-3.73872e-07
-2.06154e-07
-3.85423e-07
-2.18045e-07
-3.98105e-07
-2.31416e-07
-4.12007e-07
-2.46448e-07
-4.27227e-07
-2.63384e-07
-4.43877e-07
-2.82533e-07
-4.62079e-07
-3.04272e-07
-4.81953e-07
-3.29099e-07
-5.03655e-07
-3.57662e-07
-5.27455e-07
-3.90334e-07
-5.5375e-07
-4.2686e-07
-5.83074e-07
-4.65885e-07
-6.16031e-07
-5.04341e-07
-6.52991e-07
-5.37463e-07
-6.93663e-07
-5.60237e-07
-7.36919e-07
-5.69858e-07
-7.81159e-07
-5.66923e-07
-8.2489e-07
-5.54256e-07
-8.67029e-07
-5.34964e-07
-9.06913e-07
-5.11425e-07
-9.44185e-07
-4.8515e-07
-9.7868e-07
-4.56984e-07
-1.01035e-06
-4.27398e-07
-1.03918e-06
-3.9667e-07
-1.06521e-06
-3.64986e-07
-1.08848e-06
-3.32485e-07
-1.10904e-06
-2.99279e-07
-1.12696e-06
-2.65469e-07
-1.1423e-06
-2.31141e-07
-1.15514e-06
-1.96373e-07
-1.16554e-06
-1.61236e-07
-1.17356e-06
-1.25804e-07
-1.17927e-06
-9.01407e-08
-1.18268e-06
-5.42599e-08
-1.81425e-08
6.57563e-07
-1.43601e-08
6.54676e-07
-4.29109e-08
6.49886e-07
-7.121e-08
6.432e-07
-9.91899e-08
6.34622e-07
-1.26778e-07
6.24162e-07
-1.53892e-07
6.11833e-07
-1.80441e-07
5.97655e-07
-2.06324e-07
5.81661e-07
-2.31424e-07
5.63897e-07
-2.55599e-07
5.4443e-07
-2.78669e-07
5.23348e-07
-3.00402e-07
5.00772e-07
-3.20501e-07
4.76856e-07
-3.38604e-07
4.51793e-07
-3.54293e-07
4.25816e-07
-3.67143e-07
3.99184e-07
-3.768e-07
3.72172e-07
-3.83083e-07
3.45042e-07
-3.8606e-07
3.1802e-07
-3.86067e-07
2.91288e-07
-3.83647e-07
2.64973e-07
-3.79437e-07
2.39158e-07
-3.74047e-07
2.13889e-07
-3.6798e-07
1.89192e-07
-3.616e-07
1.65076e-07
-3.55138e-07
1.41548e-07
-3.4872e-07
1.18608e-07
-3.42398e-07
9.62598e-08
-3.36176e-07
7.45039e-08
-3.30036e-07
5.33435e-08
-3.2395e-07
3.27814e-08
-3.1789e-07
1.28198e-08
-3.11834e-07
-6.5401e-09
-3.0577e-07
-2.52985e-08
-2.99697e-07
-4.34556e-08
-2.93609e-07
-6.10103e-08
-2.87467e-07
-7.79652e-08
-2.81276e-07
-9.43244e-08
-2.75047e-07
-1.10095e-07
-2.68796e-07
-1.25285e-07
-2.62541e-07
-1.39907e-07
-2.56299e-07
-1.53973e-07
-2.50092e-07
-1.67501e-07
-2.43939e-07
-1.80507e-07
-2.37861e-07
-1.93013e-07
-2.31879e-07
-2.05042e-07
-2.26012e-07
-2.16618e-07
-2.20279e-07
-2.27771e-07
-2.147e-07
-2.3853e-07
-2.0929e-07
-2.48929e-07
-2.04068e-07
-2.59003e-07
-1.99047e-07
-2.68793e-07
-1.94244e-07
-2.7834e-07
-1.89673e-07
-2.87692e-07
-1.8535e-07
-2.96898e-07
-1.81291e-07
-3.06014e-07
-1.77515e-07
-3.15098e-07
-1.74083e-07
-3.2422e-07
-1.70984e-07
-3.3345e-07
-1.68226e-07
-3.42864e-07
-1.65929e-07
-3.52522e-07
-1.64213e-07
-3.61232e-07
-1.69717e-07
-3.70638e-07
-1.76995e-07
-3.80804e-07
-1.85458e-07
-3.91817e-07
-1.95137e-07
-4.03763e-07
-2.06093e-07
-4.16728e-07
-2.18445e-07
-4.30798e-07
-2.32371e-07
-4.46065e-07
-2.48109e-07
-4.62627e-07
-2.65962e-07
-4.80591e-07
-2.86297e-07
-5.00057e-07
-3.09622e-07
-5.21172e-07
-3.36533e-07
-5.44195e-07
-3.67297e-07
-5.69491e-07
-4.01549e-07
-5.97554e-07
-4.37805e-07
-6.28927e-07
-4.72953e-07
-6.63928e-07
-5.02449e-07
-7.02275e-07
-5.2188e-07
-7.42967e-07
-5.2916e-07
-7.84629e-07
-5.25257e-07
-8.25995e-07
-5.12888e-07
-8.66144e-07
-4.94814e-07
-9.04492e-07
-4.73077e-07
-9.40692e-07
-4.48949e-07
-9.74542e-07
-4.23135e-07
-1.00592e-06
-3.96023e-07
-1.03474e-06
-3.67843e-07
-1.06099e-06
-3.38744e-07
-1.08463e-06
-3.0884e-07
-1.10568e-06
-2.78227e-07
-1.12416e-06
-2.4699e-07
-1.14009e-06
-2.1521e-07
-1.15351e-06
-1.82958e-07
-1.16444e-06
-1.50304e-07
-1.17292e-06
-1.17326e-07
-1.17897e-06
-8.40914e-08
-1.1826e-06
-5.06242e-08
-1.69243e-08
6.5756e-07
-1.33864e-08
6.54647e-07
-3.99976e-08
6.49807e-07
-6.63703e-08
6.43057e-07
-9.24393e-08
6.34413e-07
-1.18135e-07
6.23897e-07
-1.43376e-07
6.11535e-07
-1.68079e-07
5.97362e-07
-1.9215e-07
5.81419e-07
-2.15481e-07
5.63761e-07
-2.37942e-07
5.44459e-07
-2.59368e-07
5.23605e-07
-2.79547e-07
5.01314e-07
-2.98212e-07
4.77738e-07
-3.15029e-07
4.53061e-07
-3.29617e-07
4.27504e-07
-3.41587e-07
4.01316e-07
-3.50614e-07
3.74757e-07
-3.56526e-07
3.48075e-07
-3.5938e-07
3.21489e-07
-3.59483e-07
2.95169e-07
-3.5733e-07
2.6924e-07
-3.5351e-07
2.43778e-07
-3.48587e-07
2.18828e-07
-3.43032e-07
1.94412e-07
-3.37186e-07
1.70538e-07
-3.31266e-07
1.47207e-07
-3.25391e-07
1.24418e-07
-3.1961e-07
1.02172e-07
-3.1393e-07
8.04669e-08
-3.08332e-07
5.93052e-08
-3.02789e-07
3.86887e-08
-2.97274e-07
1.86193e-08
-2.91765e-07
-9.0165e-10
-2.8625e-07
-1.98743e-08
-2.80725e-07
-3.8298e-08
-2.75185e-07
-5.61711e-08
-2.69595e-07
-7.34948e-08
-2.63953e-07
-9.0272e-08
-2.5827e-07
-1.06508e-07
-2.52561e-07
-1.2221e-07
-2.46839e-07
-1.37387e-07
-2.41122e-07
-1.52052e-07
-2.35427e-07
-1.66219e-07
-2.29773e-07
-1.79903e-07
-2.24177e-07
-1.93123e-07
-2.18659e-07
-2.05901e-07
-2.13234e-07
-2.18259e-07
-2.07921e-07
-2.30223e-07
-2.02736e-07
-2.4182e-07
-1.97694e-07
-2.53079e-07
-1.92809e-07
-2.64031e-07
-1.88095e-07
-2.7471e-07
-1.83565e-07
-2.85149e-07
-1.79233e-07
-2.95387e-07
-1.75112e-07
-3.0546e-07
-1.71217e-07
-3.15411e-07
-1.67564e-07
-3.25276e-07
-1.64217e-07
-3.35126e-07
-1.61134e-07
-3.44989e-07
-1.58362e-07
-3.54946e-07
-1.55971e-07
-3.65072e-07
-1.54078e-07
-3.74804e-07
-1.59983e-07
-3.84945e-07
-1.6685e-07
-3.95674e-07
-1.74725e-07
-4.07125e-07
-1.83681e-07
-4.194e-07
-1.93811e-07
-4.32593e-07
-2.05245e-07
-4.46793e-07
-2.18163e-07
-4.62092e-07
-2.32801e-07
-4.78588e-07
-2.49455e-07
-4.96392e-07
-2.68482e-07
-5.15612e-07
-2.90388e-07
-5.36427e-07
-3.15703e-07
-5.59114e-07
-3.44593e-07
-5.84058e-07
-3.76587e-07
-6.11747e-07
-4.10097e-07
-6.42664e-07
-4.4202e-07
-6.77005e-07
-4.68093e-07
-7.14368e-07
-4.84506e-07
-7.53727e-07
-4.89793e-07
-7.93808e-07
-4.85172e-07
-8.33495e-07
-4.73198e-07
-8.72002e-07
-4.56306e-07
-9.08834e-07
-4.36244e-07
-9.437e-07
-4.14083e-07
-9.76425e-07
-3.90411e-07
-1.0069e-06
-3.65552e-07
-1.03504e-06
-3.397e-07
-1.0608e-06
-3.12981e-07
-1.08415e-06
-2.85493e-07
-1.10506e-06
-2.57319e-07
-1.12351e-06
-2.28537e-07
-1.1395e-06
-1.99216e-07
-1.15303e-06
-1.69426e-07
-1.16411e-06
-1.39233e-07
-1.17272e-06
-1.08712e-07
-1.17888e-06
-7.79319e-08
-1.18258e-06
-4.6921e-08
-1.56862e-08
6.57551e-07
-1.24034e-08
6.54617e-07
-3.70637e-08
6.49749e-07
-6.15025e-08
6.42966e-07
-8.56568e-08
6.34292e-07
-1.0946e-07
6.23754e-07
-1.32838e-07
6.11386e-07
-1.55712e-07
5.9723e-07
-1.77994e-07
5.81336e-07
-1.99587e-07
5.63765e-07
-2.20371e-07
5.44594e-07
-2.40197e-07
5.23919e-07
-2.58873e-07
5.0186e-07
-2.76152e-07
4.78563e-07
-2.91733e-07
4.5421e-07
-3.05265e-07
4.29011e-07
-3.1639e-07
4.03202e-07
-3.24806e-07
3.77028e-07
-3.30353e-07
3.50725e-07
-3.33079e-07
3.24497e-07
-3.33257e-07
2.98509e-07
-3.31344e-07
2.72879e-07
-3.27882e-07
2.47682e-07
-3.23393e-07
2.22963e-07
-3.18315e-07
1.98742e-07
-3.12967e-07
1.75027e-07
-3.07552e-07
1.51818e-07
-3.02183e-07
1.29113e-07
-2.96907e-07
1.06911e-07
-2.91729e-07
8.52105e-08
-2.86632e-07
6.40113e-08
-2.81591e-07
4.33145e-08
-2.76578e-07
2.31217e-08
-2.71573e-07
3.43403e-09
-2.66563e-07
-1.57482e-08
-2.61543e-07
-3.44248e-08
-2.56509e-07
-5.2594e-08
-2.51426e-07
-7.02561e-08
-2.46291e-07
-8.74128e-08
-2.41114e-07
-1.04068e-07
-2.35906e-07
-1.20228e-07
-2.3068e-07
-1.359e-07
-2.2545e-07
-1.51095e-07
-2.20233e-07
-1.65824e-07
-2.15044e-07
-1.80101e-07
-2.099e-07
-1.93944e-07
-2.04816e-07
-2.07371e-07
-1.99808e-07
-2.204e-07
-1.94892e-07
-2.33056e-07
-1.90081e-07
-2.4536e-07
-1.8539e-07
-2.57338e-07
-1.80831e-07
-2.69017e-07
-1.76416e-07
-2.80424e-07
-1.72158e-07
-2.91588e-07
-1.6807e-07
-3.02535e-07
-1.64165e-07
-3.13294e-07
-1.60457e-07
-3.23889e-07
-1.56969e-07
-3.34341e-07
-1.53764e-07
-3.44694e-07
-1.50781e-07
-3.54945e-07
-1.48109e-07
-3.65117e-07
-1.45797e-07
-3.75211e-07
-1.43958e-07
-3.85581e-07
-1.4961e-07
-3.96341e-07
-1.56087e-07
-4.07614e-07
-1.63445e-07
-4.19523e-07
-1.71766e-07
-4.32171e-07
-1.81155e-07
-4.45658e-07
-1.9175e-07
-4.60076e-07
-2.03735e-07
-4.75525e-07
-2.17341e-07
-4.9211e-07
-2.32857e-07
-5.09948e-07
-2.50629e-07
-5.29168e-07
-2.71151e-07
-5.4997e-07
-2.94884e-07
-5.72637e-07
-3.21907e-07
-5.9754e-07
-3.51663e-07
-6.25114e-07
-3.82504e-07
-6.55736e-07
-4.1138e-07
-6.89477e-07
-4.34337e-07
-7.25864e-07
-4.48109e-07
-7.63922e-07
-4.51727e-07
-8.02525e-07
-4.46565e-07
-8.40715e-07
-4.35006e-07
-8.77818e-07
-4.19202e-07
-9.13398e-07
-4.00663e-07
-9.47186e-07
-3.80294e-07
-9.79008e-07
-3.58589e-07
-1.00874e-06
-3.35819e-07
-1.0363e-06
-3.12143e-07
-1.06161e-06
-2.87669e-07
-1.08462e-06
-2.62479e-07
-1.1053e-06
-2.36644e-07
-1.1236e-06
-2.10233e-07
-1.13951e-06
-1.83309e-07
-1.153e-06
-1.55933e-07
-1.16407e-06
-1.28169e-07
-1.17269e-06
-1.00088e-07
-1.17886e-06
-7.17581e-08
-1.18258e-06
-4.3206e-08
-1.44435e-08
6.57554e-07
-1.14235e-08
6.54626e-07
-3.41359e-08
6.49768e-07
-5.66443e-08
6.43001e-07
-7.88898e-08
6.34352e-07
-1.00811e-07
6.23852e-07
-1.22339e-07
6.11539e-07
-1.43399e-07
5.9746e-07
-1.63914e-07
5.81666e-07
-1.83793e-07
5.64223e-07
-2.02928e-07
5.45209e-07
-2.21183e-07
5.24717e-07
-2.38382e-07
5.02867e-07
-2.54302e-07
4.79801e-07
-2.68668e-07
4.55695e-07
-2.81159e-07
4.30751e-07
-2.91448e-07
4.05199e-07
-2.99256e-07
3.79276e-07
-3.04432e-07
3.5321e-07
-3.07015e-07
3.27204e-07
-3.07253e-07
3.01418e-07
-3.05561e-07
2.7597e-07
-3.02436e-07
2.50935e-07
-2.9836e-07
2.26354e-07
-2.93737e-07
2.02248e-07
-2.88863e-07
1.78623e-07
-2.83929e-07
1.55479e-07
-2.7904e-07
1.3281e-07
-2.7424e-07
1.10614e-07
-2.69534e-07
8.88872e-08
-2.64907e-07
6.7629e-08
-2.60333e-07
4.68393e-08
-2.55789e-07
2.65188e-08
-2.51253e-07
6.66823e-09
-2.46713e-07
-1.27122e-08
-2.42163e-07
-3.16225e-08
-2.376e-07
-5.00605e-08
-2.32988e-07
-6.80259e-08
-2.28326e-07
-8.55194e-08
-2.23621e-07
-1.02544e-07
-2.18882e-07
-1.19104e-07
-2.1412e-07
-1.35205e-07
-2.0935e-07
-1.50856e-07
-2.04583e-07
-1.66066e-07
-1.99834e-07
-1.80849e-07
-1.95118e-07
-1.95217e-07
-1.90448e-07
-2.09187e-07
-1.85839e-07
-2.22775e-07
-1.81304e-07
-2.36e-07
-1.76856e-07
-2.48883e-07
-1.72507e-07
-2.61445e-07
-1.68269e-07
-2.73708e-07
-1.64153e-07
-2.85697e-07
-1.6017e-07
-2.97434e-07
-1.56332e-07
-3.08946e-07
-1.52653e-07
-3.20254e-07
-1.49148e-07
-3.31377e-07
-1.45846e-07
-3.42344e-07
-1.42797e-07
-3.53163e-07
-1.3996e-07
-3.63832e-07
-1.37439e-07
-3.74318e-07
-1.35308e-07
-3.84412e-07
-1.33826e-07
-3.94955e-07
-1.39062e-07
-4.05986e-07
-1.45051e-07
-4.17572e-07
-1.51852e-07
-4.29793e-07
-1.59538e-07
-4.42732e-07
-1.68208e-07
-4.56476e-07
-1.77998e-07
-4.71114e-07
-1.89086e-07
-4.86747e-07
-2.01696e-07
-5.03488e-07
-2.16103e-07
-5.21462e-07
-2.3264e-07
-5.40817e-07
-2.51779e-07
-5.61773e-07
-2.73909e-07
-5.84622e-07
-2.99036e-07
-6.09723e-07
-3.2654e-07
-6.37463e-07
-3.54742e-07
-6.68125e-07
-3.80698e-07
-7.01658e-07
-4.00788e-07
-7.37505e-07
-4.12251e-07
-7.74707e-07
-4.14518e-07
-8.12232e-07
-4.09036e-07
-8.49237e-07
-3.97998e-07
-8.85143e-07
-3.83295e-07
-9.19578e-07
-3.66228e-07
-9.52308e-07
-3.47563e-07
-9.8318e-07
-3.27718e-07
-1.01208e-06
-3.0692e-07
-1.03892e-06
-2.85305e-07
-1.06362e-06
-2.62963e-07
-1.08614e-06
-2.39965e-07
-1.10641e-06
-2.16374e-07
-1.12439e-06
-1.9225e-07
-1.14005e-06
-1.67649e-07
-1.15336e-06
-1.42628e-07
-1.16428e-06
-1.17243e-07
-1.17281e-06
-9.15629e-08
-1.17892e-06
-6.56495e-08
-1.18259e-06
-3.95294e-08
-1.32142e-08
6.57557e-07
-1.04472e-08
6.54641e-07
-3.12196e-08
6.49803e-07
-5.18058e-08
6.43065e-07
-7.21518e-08
6.34455e-07
-9.22013e-08
6.24007e-07
-1.11891e-07
6.11761e-07
-1.31154e-07
5.97764e-07
-1.49917e-07
5.82072e-07
-1.68101e-07
5.64749e-07
-1.85605e-07
5.45874e-07
-2.02308e-07
5.25542e-07
-2.1805e-07
5.03868e-07
-2.32629e-07
4.80994e-07
-2.45794e-07
4.57089e-07
-2.57255e-07
4.32351e-07
-2.66711e-07
4.07003e-07
-2.73909e-07
3.81274e-07
-2.78705e-07
3.55388e-07
-2.81132e-07
3.29544e-07
-2.81411e-07
3.03901e-07
-2.79921e-07
2.78576e-07
-2.77113e-07
2.53643e-07
-2.73429e-07
2.29146e-07
-2.69241e-07
2.05104e-07
-2.64823e-07
1.81522e-07
-2.60349e-07
1.584e-07
-2.55919e-07
1.35731e-07
-2.51573e-07
1.13511e-07
-2.47315e-07
9.1735e-08
-2.43132e-07
7.04016e-08
-2.39001e-07
4.95097e-08
-2.34898e-07
2.90592e-08
-2.30803e-07
9.05075e-09
-2.26705e-07
-1.05157e-08
-2.22597e-07
-2.96401e-08
-2.18476e-07
-4.83202e-08
-2.14309e-07
-6.65547e-08
-2.10092e-07
-8.43437e-08
-2.05832e-07
-1.01689e-07
-2.01537e-07
-1.18592e-07
-1.97217e-07
-1.3506e-07
-1.92883e-07
-1.51097e-07
-1.88546e-07
-1.66712e-07
-1.84219e-07
-1.81915e-07
-1.79915e-07
-1.96717e-07
-1.75647e-07
-2.11131e-07
-1.71426e-07
-2.25171e-07
-1.67264e-07
-2.38853e-07
-1.63174e-07
-2.52194e-07
-1.59167e-07
-2.65212e-07
-1.55251e-07
-2.77926e-07
-1.51439e-07
-2.90355e-07
-1.47741e-07
-3.02521e-07
-1.44166e-07
-3.14444e-07
-1.4073e-07
-3.26145e-07
-1.37446e-07
-3.37644e-07
-1.34346e-07
-3.4897e-07
-1.31471e-07
-3.60138e-07
-1.28791e-07
-3.71157e-07
-1.26419e-07
-3.82017e-07
-1.24448e-07
-3.92212e-07
-1.23587e-07
-4.02919e-07
-1.28349e-07
-4.14152e-07
-1.33812e-07
-4.25962e-07
-1.40035e-07
-4.38413e-07
-1.47078e-07
-4.51579e-07
-1.55032e-07
-4.65541e-07
-1.64025e-07
-4.80389e-07
-1.74225e-07
-4.96224e-07
-1.85847e-07
-5.13166e-07
-1.99145e-07
-5.31348e-07
-2.1444e-07
-5.50938e-07
-2.3217e-07
-5.72165e-07
-2.5266e-07
-5.95322e-07
-2.75856e-07
-6.20743e-07
-3.01094e-07
-6.48756e-07
-3.26706e-07
-6.79539e-07
-3.49895e-07
-7.12928e-07
-3.67382e-07
-7.48309e-07
-3.76857e-07
-7.84761e-07
-3.78059e-07
-8.2135e-07
-3.72443e-07
-8.57339e-07
-3.62007e-07
-8.92224e-07
-3.48409e-07
-9.25681e-07
-3.32771e-07
-9.57501e-07
-3.15743e-07
-9.8754e-07
-2.97679e-07
-1.01569e-06
-2.7877e-07
-1.04186e-06
-2.59132e-07
-1.06599e-06
-2.3884e-07
-1.08799e-06
-2.17957e-07
-1.10783e-06
-1.96536e-07
-1.12545e-06
-1.7463e-07
-1.14081e-06
-1.5229e-07
-1.15387e-06
-1.29565e-07
-1.16461e-06
-1.06509e-07
-1.17299e-06
-8.31817e-08
-1.179e-06
-5.96419e-08
-1.18261e-06
-3.59128e-08
-1.2005e-08
6.57563e-07
-9.47667e-09
6.54664e-07
-2.83199e-08
6.49852e-07
-4.69947e-08
6.43153e-07
-6.54524e-08
6.34594e-07
-8.36418e-08
6.24208e-07
-1.01506e-07
6.12038e-07
-1.18983e-07
5.9813e-07
-1.3601e-07
5.82541e-07
-1.52511e-07
5.65334e-07
-1.684e-07
5.46589e-07
-1.83563e-07
5.26399e-07
-1.9786e-07
5.04876e-07
-2.11107e-07
4.82159e-07
-2.23078e-07
4.58414e-07
-2.3351e-07
4.33833e-07
-2.42132e-07
4.08633e-07
-2.48711e-07
3.83042e-07
-2.53115e-07
3.57279e-07
-2.55371e-07
3.31542e-07
-2.55677e-07
3.0599e-07
-2.54371e-07
2.80738e-07
-2.51863e-07
2.55863e-07
-2.48557e-07
2.31409e-07
-2.44789e-07
2.07394e-07
-2.4081e-07
1.83825e-07
-2.36782e-07
1.60698e-07
-2.32793e-07
1.38006e-07
-2.28883e-07
1.15745e-07
-2.25055e-07
9.39078e-08
-2.21297e-07
7.24926e-08
-2.17587e-07
5.14973e-08
-2.13903e-07
3.09216e-08
-2.10228e-07
1.07656e-08
-2.06549e-07
-8.97046e-09
-2.02861e-07
-2.82866e-08
-1.9916e-07
-4.71802e-08
-1.95416e-07
-6.56494e-08
-1.91624e-07
-8.36932e-08
-1.87789e-07
-1.01312e-07
-1.83919e-07
-1.18507e-07
-1.80023e-07
-1.35282e-07
-1.76109e-07
-1.51641e-07
-1.72188e-07
-1.67591e-07
-1.6827e-07
-1.83139e-07
-1.64368e-07
-1.98294e-07
-1.60492e-07
-2.13066e-07
-1.56654e-07
-2.27467e-07
-1.52863e-07
-2.41511e-07
-1.49131e-07
-2.5521e-07
-1.45468e-07
-2.6858e-07
-1.41882e-07
-2.81636e-07
-1.38383e-07
-2.94396e-07
-1.34981e-07
-3.06876e-07
-1.31686e-07
-3.19095e-07
-1.28511e-07
-3.31072e-07
-1.25469e-07
-3.42826e-07
-1.22591e-07
-3.54384e-07
-1.19913e-07
-3.65765e-07
-1.1741e-07
-3.77002e-07
-1.1518e-07
-3.8814e-07
-1.13304e-07
-3.98547e-07
-1.13121e-07
-4.09468e-07
-1.17421e-07
-4.20907e-07
-1.22364e-07
-4.32925e-07
-1.28009e-07
-4.45584e-07
-1.3441e-07
-4.58956e-07
-1.41649e-07
-4.73123e-07
-1.49847e-07
-4.88175e-07
-1.5916e-07
-5.04219e-07
-1.69787e-07
-5.21382e-07
-1.81966e-07
-5.39806e-07
-1.95997e-07
-5.59674e-07
-2.12282e-07
-5.81226e-07
-2.31084e-07
-6.0475e-07
-2.52307e-07
-6.30555e-07
-2.75263e-07
-6.58905e-07
-2.98331e-07
-6.89887e-07
-3.18891e-07
-7.23236e-07
-3.34016e-07
-7.5829e-07
-3.41791e-07
-7.9416e-07
-3.42181e-07
-8.29993e-07
-3.36606e-07
-8.65137e-07
-3.26861e-07
-8.99151e-07
-3.14394e-07
-9.31751e-07
-3.0017e-07
-9.62753e-07
-2.84741e-07
-9.92026e-07
-2.68405e-07
-1.01947e-06
-2.51326e-07
-1.045e-06
-2.33601e-07
-1.06855e-06
-2.15295e-07
-1.09004e-06
-1.96462e-07
-1.10943e-06
-1.77147e-07
-1.12666e-06
-1.57398e-07
-1.14169e-06
-1.3726e-07
-1.15448e-06
-1.16777e-07
-1.16499e-06
-9.59952e-08
-1.1732e-06
-7.49699e-08
-1.17909e-06
-5.37542e-08
-1.18264e-06
-3.23681e-08
-1.08201e-08
6.57569e-07
-8.51187e-09
6.54686e-07
-2.54372e-08
6.49903e-07
-4.22119e-08
6.43243e-07
-5.87923e-08
6.34734e-07
-7.51327e-08
6.2441e-07
-9.11819e-08
6.12313e-07
-1.06885e-07
5.98488e-07
-1.22185e-07
5.82992e-07
-1.37016e-07
5.6589e-07
-1.51298e-07
5.47258e-07
-1.64932e-07
5.27188e-07
-1.77791e-07
5.05792e-07
-1.89711e-07
4.83204e-07
-2.00491e-07
4.59586e-07
-2.09894e-07
4.35128e-07
-2.17676e-07
4.10044e-07
-2.23627e-07
3.84555e-07
-2.27628e-07
3.58881e-07
-2.29699e-07
3.33217e-07
-2.30015e-07
3.07722e-07
-2.28879e-07
2.82514e-07
-2.26658e-07
2.5767e-07
-2.23714e-07
2.33233e-07
-2.20354e-07
2.09223e-07
-2.16802e-07
1.85645e-07
-2.13205e-07
1.62495e-07
-2.09645e-07
1.39768e-07
-2.06156e-07
1.17455e-07
-2.02743e-07
9.55519e-08
-1.99394e-07
7.40536e-08
-1.96089e-07
5.29582e-08
-1.92808e-07
3.22652e-08
-1.89536e-07
1.19746e-08
-1.86259e-07
-7.91344e-09
-1.82974e-07
-2.73986e-08
-1.79676e-07
-4.64781e-08
-1.76337e-07
-6.51491e-08
-1.72953e-07
-8.34099e-08
-1.69529e-07
-1.0126e-07
-1.6607e-07
-1.18699e-07
-1.62584e-07
-1.3573e-07
-1.59079e-07
-1.52355e-07
-1.55563e-07
-1.68578e-07
-1.52047e-07
-1.84406e-07
-1.4854e-07
-1.99846e-07
-1.45053e-07
-2.14906e-07
-1.41595e-07
-2.29594e-07
-1.38175e-07
-2.43923e-07
-1.34803e-07
-2.57903e-07
-1.31488e-07
-2.71546e-07
-1.28238e-07
-2.84867e-07
-1.25062e-07
-2.97879e-07
-1.21969e-07
-3.10598e-07
-1.18967e-07
-3.2304e-07
-1.16069e-07
-3.35221e-07
-1.13287e-07
-3.47163e-07
-1.10648e-07
-3.5889e-07
-1.08185e-07
-3.70425e-07
-1.05873e-07
-3.81804e-07
-1.038e-07
-3.93049e-07
-1.0205e-07
-4.03695e-07
-1.02417e-07
-4.14836e-07
-1.06272e-07
-4.26482e-07
-1.10709e-07
-4.38697e-07
-1.15784e-07
-4.5155e-07
-1.21546e-07
-4.65115e-07
-1.28072e-07
-4.79475e-07
-1.35474e-07
-4.94726e-07
-1.43894e-07
-5.10981e-07
-1.53516e-07
-5.28373e-07
-1.64556e-07
-5.47054e-07
-1.77295e-07
-5.67219e-07
-1.92093e-07
-5.89116e-07
-2.09161e-07
-6.13026e-07
-2.2837e-07
-6.39228e-07
-2.49034e-07
-6.67926e-07
-2.69607e-07
-6.99115e-07
-2.8768e-07
-7.32448e-07
-3.00666e-07
-7.67231e-07
-3.06996e-07
-8.02609e-07
-3.06796e-07
-8.37802e-07
-3.01408e-07
-8.7223e-07
-2.92431e-07
-9.05502e-07
-2.81121e-07
-9.37368e-07
-2.68303e-07
-9.67662e-07
-2.54447e-07
-9.96264e-07
-2.39803e-07
-1.02308e-06
-2.2451e-07
-1.04803e-06
-2.08651e-07
-1.07105e-06
-1.92281e-07
-1.09206e-06
-1.75446e-07
-1.11102e-06
-1.58186e-07
-1.12788e-06
-1.40543e-07
-1.14258e-06
-1.22556e-07
-1.1551e-06
-1.04262e-07
-1.16539e-06
-8.57043e-08
-1.17343e-06
-6.69313e-08
-1.17919e-06
-4.79901e-08
-1.18266e-06
-2.88977e-08
-9.66004e-09
6.57575e-07
-7.55268e-09
6.54708e-07
-2.2571e-08
6.49953e-07
-3.74561e-08
6.4333e-07
-5.21695e-08
6.34868e-07
-6.6671e-08
6.24602e-07
-8.09153e-08
6.1257e-07
-9.48542e-08
5.98821e-07
-1.08436e-07
5.83409e-07
-1.21604e-07
5.66398e-07
-1.34287e-07
5.47864e-07
-1.46397e-07
5.27895e-07
-1.57823e-07
5.06603e-07
-1.68419e-07
4.84119e-07
-1.78007e-07
4.60603e-07
-1.86378e-07
4.36241e-07
-1.93315e-07
4.11242e-07
-1.9863e-07
3.85828e-07
-2.02216e-07
3.60215e-07
-2.04089e-07
3.346e-07
-2.04401e-07
3.0914e-07
-2.03421e-07
2.83955e-07
-2.01475e-07
2.59121e-07
-1.98883e-07
2.34685e-07
-1.95919e-07
2.10665e-07
-1.92784e-07
1.87067e-07
-1.89609e-07
1.63887e-07
-1.86466e-07
1.41117e-07
-1.83388e-07
1.1875e-07
-1.80378e-07
9.67799e-08
-1.77425e-07
7.52019e-08
-1.74512e-07
5.40136e-08
-1.71621e-07
3.32141e-08
-1.68737e-07
1.28035e-08
-1.65849e-07
-7.21779e-09
-1.62953e-07
-2.68494e-08
-1.60044e-07
-4.6088e-08
-1.57099e-07
-6.49302e-08
-1.54111e-07
-8.33735e-08
-1.51086e-07
-1.01416e-07
-1.48028e-07
-1.19058e-07
-1.44943e-07
-1.36299e-07
-1.41838e-07
-1.53141e-07
-1.38722e-07
-1.69587e-07
-1.35602e-07
-1.85641e-07
-1.32487e-07
-2.01309e-07
-1.29386e-07
-2.16597e-07
-1.26307e-07
-2.31512e-07
-1.2326e-07
-2.46065e-07
-1.20251e-07
-2.60263e-07
-1.1729e-07
-2.74119e-07
-1.14383e-07
-2.87643e-07
-1.11538e-07
-3.00848e-07
-1.08763e-07
-3.13748e-07
-1.06067e-07
-3.26357e-07
-1.0346e-07
-3.38691e-07
-1.00952e-07
-3.50769e-07
-9.85695e-08
-3.62614e-07
-9.63385e-08