/*--------------------------------*- C++ -*----------------------------------*\
  =========                 |
  \\      /  F ield         | OpenFOAM: The Open Source CFD Toolbox
   \\    /   O peration     | Website:  https://openfoam.org
    \\  /    A nd           | Version:  8
     \\/     M anipulation  |
\*---------------------------------------------------------------------------*/
FoamFile
{
    version     2.0;
    format      ascii;
    class       volScalarField;
    location    "880/fluid";
    object      Qdot;
}
// * * * * * * * * * * * * * * * * * * * * * * * * * * * * * * * * * * * * * //

dimensions      [1 -1 -3 0 0 0 0];

internalField   nonuniform List<scalar> 
4000
(
0
2.79307e-07
0
0
1.27287e-11
3.27373e-07
0
0
0
-1.17279e-10
-2.93849e-10
0
1.09892e-09
-2.09228e-18
-3.93148e-07
-5.96359e-14
-2.06375e-09
-3.14133e-15
1.88283e-08
5.31001e-07
4.16021e-06
5.71811e-05
0.000678687
0.00667989
0.0536206
0.350659
1.88533
8.45527
32.1535
105.37
301.977
766.47
1742.21
3582.31
6723.78
11647.2
18869.3
28979.1
42779.8
61453.5
86690.4
120739
166523
227904
310015
419765
566344
761677
1.0215e+06
1.36723e+06
1.82621e+06
2.43439e+06
3.23894e+06
4.30189e+06
5.70492e+06
7.55598e+06
9.9984e+06
1.31806e+07
1.73361e+07
2.29854e+07
3.0496e+07
7.20482e+07
3.76177e+08
2.95172e+07
2.12488e+07
1.51105e+07
1.05947e+07
7.31022e+06
4.9538e+06
3.29107e+06
2.14219e+06
1.37087e+06
876580
562579
149443
11189.8
308.257
4.36129
0.0414424
0.000424288
7.99721e-06
3.80667e-07
4.44689e-08
9.22363e-09
2.76342e-09
1.03772e-09
3.97564e-10
2.00363e-10
6.95726e-11
3.31222e-11
1.17494e-11
5.86085e-12
2.46174e-12
1.25378e-13
6.27581e-12
1.66292e-13
4.82935e-12
2.52034e-14
8.85823e-15
1.65623e-15
-4.87719e-18
-2.93915e-21
-2.91174e-07
0
2.64819e-20
-2.90801e-11
0
-5.50695e-11
3.4979e-07
1.14753e-10
4.88904e-19
3.67232e-07
-1.06685e-09
0
-9.77057e-10
-3.72358e-17
-2.92706e-16
-3.01148e-15
-3.74163e-07
2.84804e-07
3.93732e-06
5.16076e-05
0.000611772
0.00607154
0.0493296
0.327145
1.78476
8.1197
31.2986
103.86
301.06
771.889
1769.18
3662.15
6909.48
12008.3
19483.1
29916.5
44093
63167.2
88798.8
123202
169292
230938
313306
423335
570048
765408
1.02631e+06
1.37327e+06
1.83394e+06
2.44467e+06
3.25326e+06
4.32272e+06
5.73629e+06
7.60436e+06
1.0074e+07
1.32976e+07
1.75186e+07
2.32766e+07
3.09575e+07
1.12581e+08
3.40465e+08
2.93759e+07
2.10705e+07
1.49335e+07
1.0435e+07
7.17364e+06
4.84154e+06
3.20216e+06
2.07465e+06
1.32254e+06
845672
517756
112199
6736.74
160.716
2.05313
0.0191345
0.00021511
4.83162e-06
2.72968e-07
3.45728e-08
8.35523e-09
2.63695e-09
1.04172e-09
4.40496e-10
1.62901e-10
6.72005e-11
3.21349e-11
1.32658e-11
4.6869e-13
3.31017e-12
9.86796e-13
4.37385e-13
5.85776e-12
6.92142e-14
2.81995e-14
8.84734e-15
-7.43938e-13
2.65205e-07
0
2.90903e-12
7.41695e-12
0
-2.86096e-11
0
0
0
-1.11492e-10
-4.73747e-19
3.55008e-07
-5.6753e-10
0
-9.4003e-10
-3.18141e-17
-2.81187e-16
-2.96551e-15
2.14182e-08
4.66604e-07
3.46675e-06
4.76729e-05
0.000566467
0.00564375
0.0462304
0.309939
1.712
7.89138
30.8225
103.608
304.066
788.724
1826.22
3810.2
7237.38
12635
20546.4
31553.1
46421.9
66279.4
92758.8
128047
175076
237758
321340
432634
580701
778984
1.043e+06
1.39412e+06
1.86048e+06
2.47917e+06
3.29917e+06
4.38529e+06
5.82351e+06
7.7284e+06
1.02533e+07
1.35557e+07
1.7895e+07
2.38323e+07
3.17654e+07
1.82555e+08
2.7434e+08
2.94546e+07
2.0983e+07
1.47692e+07
1.02485e+07
6.99532e+06
4.68653e+06
3.07645e+06
1.97905e+06
1.25533e+06
804553
442382
74640.5
3612.96
76.5567
0.925069
0.00895917
0.00011521
3.09347e-06
2.07525e-07
3.0269e-08
7.1318e-09
2.31424e-09
9.51348e-10
3.67778e-10
1.86346e-10
7.95205e-11
3.28276e-11
1.37273e-11
6.00143e-12
2.46998e-12
9.71633e-13
4.08579e-13
1.63531e-13
6.87893e-14
2.50458e-14
-5.21348e-12
-7.43101e-13
0
0
-2.87284e-07
0
0
-2.82255e-11
0
-1.10819e-19
0
0
4.91931e-10
0
-5.52316e-10
0
2.03337e-09
-3.46919e-17
-1.85593e-09
-2.86981e-15
-3.47663e-07
2.49332e-07
3.62571e-06
4.446e-05
0.000531904
0.00533558
0.0441257
0.299178
1.67281
7.80799
30.8812
105.087
312.081
818.68
1915.06
4027.7
7695.05
13491.5
21981.7
33748.5
49541.3
70466.5
98136.6
134744
183272
247725
333229
446785
599021
801787
1.07167e+06
1.43053e+06
1.90722e+06
2.53986e+06
3.37892e+06
4.49134e+06
5.9662e+06
7.92243e+06
1.05195e+07
1.39147e+07
1.83833e+07
2.45125e+07
3.27192e+07
2.66491e+08
1.92906e+08
2.94428e+07
2.08134e+07
1.45312e+07
9.99895e+06
6.76647e+06
4.49389e+06
2.92483e+06
1.86722e+06
1.17927e+06
759395
354045
46171.7
1849.06
35.07
0.403196
0.00407345
5.98893e-05
1.92211e-06
1.50696e-07
2.43959e-08
6.09053e-09
2.47439e-09
8.17223e-10
3.90849e-10
1.54148e-10
7.40457e-11
2.87184e-11
1.35001e-11
5.52578e-12
2.22549e-12
9.61627e-13
3.76731e-13
1.62581e-13
6.23105e-14
2.19701e-14
8.84245e-15
1.48189e-15
6.97214e-22
-2.90325e-21
6.39949e-12
-2.94468e-07
0
1.24824e-11
0
-3.22229e-07
3.26976e-07
3.11158e-15
-4.5102e-19
0
-1.83029e-18
3.42097e-07
-7.40953e-18
-4.10329e-17
-3.99972e-09
3.62417e-09
-3.41716e-14
6.0645e-08
3.10147e-06
4.28377e-05
0.000510075
0.00515267
0.0430009
0.294633
1.6661
7.86742
31.4788
108.346
325.321
862.398
2036.89
4315.77
8281.28
14568
23759.5
36436.5
53329.6
75531.7
104646
142905
193376
259928
348071
466186
623416
832721
1.1112e+06
1.48139e+06
1.97312e+06
2.62579e+06
3.49167e+06
4.64016e+06
6.16366e+06
8.18564e+06
1.08661e+07
1.43597e+07
1.89794e+07
2.53276e+07
3.38149e+07
3.48472e+08
1.09972e+08
2.91879e+07
2.04401e+07
1.41399e+07
9.64239e+06
6.46788e+06
4.25887e+06
2.74953e+06
1.74351e+06
1.09807e+06
710216
254542
27587
944.3
16.3173
0.18213
0.00195375
3.30394e-05
1.25548e-06
1.13506e-07
2.04885e-08
5.52006e-09
2.20321e-09
7.98263e-10
3.51643e-10
1.44693e-10
6.17263e-11
2.42045e-11
1.16518e-11
1.04262e-11
2.31494e-12
8.48397e-13
3.73932e-13
9.62744e-13
6.82957e-14
2.33148e-14
-4.41991e-12
1.30699e-15
6.96205e-22
-2.74169e-07
0
2.91783e-07
1.48052e-11
1.51328e-11
0
0
1.26858e-10
-1.0427e-10
0
0
3.31019e-07
-2.494e-14
8.58033e-10
-3.25529e-17
-3.87375e-09
-2.77809e-15
7.89755e-09
4.97685e-08
3.0028e-06
4.14395e-05
0.000498013
0.005068
0.0426851
0.295475
1.68889
8.06219
32.6078
113.421
344.037
920.821
2193.92
4677.95
9003.3
15871.6
25879.8
39599.1
57736.8
81379.6
112139
152293
204802
274016
366560
489555
653217
871019
1.16074e+06
1.54586e+06
2.05742e+06
2.7365e+06
3.63754e+06
4.83277e+06
6.41824e+06
8.51941e+06
1.13071e+07
1.49331e+07
1.97293e+07
2.62817e+07
3.49939e+07
4.20413e+08
4.00209e+07
2.80457e+07
1.94848e+07
1.3386e+07
9.07047e+06
6.04767e+06
3.95925e+06
2.54263e+06
1.60603e+06
1.01152e+06
649951
192214
16263.2
490.301
7.84096
0.0860785
0.000986396
1.90856e-05
8.45291e-07
8.57123e-08
1.60213e-08
5.01398e-09
1.95064e-09
7.83952e-10
3.06541e-10
1.42274e-10
6.16194e-11
2.62827e-11
1.23476e-11
4.7356e-12
2.08404e-12
8.41595e-13
3.7152e-13
1.48442e-13
5.58178e-14
2.19525e-14
7.38753e-15
1.3122e-15
0
2.87896e-21
0
0
0
0
2.46907e-11
-3.10885e-07
0
-1.25386e-10
-2.52311e-10
0
0
1.02009e-09
8.32617e-10
-1.67233e-09
3.74945e-09
9.62344e-14
1.18341e-08
2.31275e-07
2.97199e-06
4.09884e-05
0.000494146
0.00506745
0.0430696
0.301089
1.73862
8.38509
34.2581
120.338
368.482
995.006
2389.25
5124.13
9882.68
17409.1
28338.8
43206.6
62689.3
87872.5
120350
162324
217239
290293
387079
515686
686799
914527
1.21752e+06
1.62045e+06
2.15599e+06
2.86743e+06
3.81213e+06
5.06614e+06
6.73011e+06
8.93991e+06
1.18778e+07
1.56625e+07
2.08245e+07
2.76688e+07
3.67065e+07
4.51592e+08
3.53477e+07
2.51263e+07
1.7616e+07
1.21688e+07
8.27035e+06
5.52102e+06
3.61495e+06
2.32104e+06
1.46734e+06
929011
581360
141925
9774.93
265.233
3.98028
0.0434989
0.000535383
1.17917e-05
6.02829e-07
7.01551e-08
1.45305e-08
4.51579e-09
1.70729e-09
6.65181e-10
3.12987e-10
1.32626e-10
6.43082e-11
2.40863e-11
1.05346e-11
4.72475e-12
2.06364e-12
9.36234e-13
3.44048e-13
5.56892e-12
4.63251e-12
-5.24232e-12
-4.39464e-12
5.04608e-12
-2.63312e-07
2.71861e-07
-2.79574e-07
-2.86441e-07
0
-3.49798e-16
0
3.05444e-07
0
0
0
-8.42919e-19
0
0
-1.80106e-09
-4.07576e-17
2.00046e-09
-2.76046e-15
2.20891e-08
3.99683e-07
2.96938e-06
4.13284e-05
0.000497552
0.00514144
0.0440885
0.311155
1.8143
8.83534
36.443
129.201
399.125
1086.57
2627.31
5661.27
10924.4
19189.5
31132.8
47226.2
68112.7
94822
128851
172862
230884
307293
408473
542876
721672
959640
1.27637e+06
1.69789e+06
2.25883e+06
3.00534e+06
3.9991e+06
5.32269e+06
7.0871e+06
9.44209e+06
1.2572e+07
1.66491e+07
2.22738e+07
2.98189e+07
3.99438e+07
4.40275e+08
3.24677e+07
2.30767e+07
1.61889e+07
1.11907e+07
7.60924e+06
5.08077e+06
3.32698e+06
2.13713e+06
1.35401e+06
863655
513957
104963
6113.37
151.735
2.15961
0.023673
0.000312895
7.76194e-06
4.49958e-07
5.70807e-08
1.23584e-08
4.23916e-09
1.57626e-09
6.30963e-10
2.93569e-10
1.30547e-10
5.32677e-11
2.37648e-11
1.04071e-11
4.44965e-12
1.84212e-12
-3.8679e-12
3.17074e-13
1.34798e-13
5.55354e-14
2.04329e-14
6.67483e-15
1.23162e-15
0
0
3.43405e-12
1.19712e-20
0
0
0
0
0
-2.85245e-15
0
0
-4.81756e-10
9.63088e-10
-6.56964e-18
-4.27521e-17
-3.5076e-09
-2.78434e-15
1.73828e-08
2.36211e-07
3.00696e-06
4.14098e-05
0.000506939
0.00528251
0.0456943
0.325458
1.91546
9.41475
39.1867
140.154
436.59
1197.63
2913.76
6300
12139.8
21220.3
34252.2
51615.5
73877.4
101923
137643
184096
244637
324262
429585
569349
755098
1.00211e+06
1.33067e+06
1.76772e+06
2.34917e+06
3.12295e+06
4.15316e+06
5.52575e+06
7.35627e+06
9.80064e+06
1.30542e+07
1.73166e+07
2.32196e+07
3.11818e+07
6.29903e+07
4.16271e+08
3.06236e+07
2.17472e+07
1.52439e+07
1.05296e+07
7.15474e+06
4.77438e+06
3.12531e+06
2.00857e+06
1.27614e+06
821014
458772
78952.1
4007.39
92.1466
1.2562
0.013887
0.000196663
5.44177e-06
3.52664e-07
4.89126e-08
1.13806e-08
3.96665e-09
1.50331e-09
6.15557e-10
2.8858e-10
1.15757e-10
5.24855e-11
2.34424e-11
1.02787e-11
4.40086e-12
1.82471e-12
-3.82224e-12
3.15067e-13
1.21978e-13
5.53651e-14
2.04115e-14
7.60781e-13
1.14575e-15
-3.6804e-13
2.69579e-07
8.10399e-17
-2.81191e-07
1.67936e-16
3.40276e-16
-6.87452e-16
4.74282e-11
0
0
0
0
0
-1.5945e-18
2.95729e-07
-3.8178e-17
-2.96523e-07
-2.83841e-15
3.18126e-07
3.90723e-07
3.23244e-06
4.2511e-05
0.000522495
0.00548575
0.0478579
0.343908
2.04232
10.1283
42.5272
153.396
481.694
1330.89
3255.74
7054.1
13543.9
23505.4
37681.5
56304.6
79788.6
109281
146957
195327
258227
340799
449823
594228
785782
1.04004e+06
1.3776e+06
1.82582e+06
2.42106e+06
3.21176e+06
4.26249e+06
5.65952e+06
7.51831e+06
9.99372e+06
1.3268e+07
1.75427e+07
2.34331e+07
3.13096e+07
1.24223e+08
3.63611e+08
2.95761e+07
2.09688e+07
1.46768e+07
1.01245e+07
6.87153e+06
4.5811e+06
2.99721e+06
1.92703e+06
1.22767e+06
796243
406754
61073.5
2768.2
59.4783
0.781291
0.00874432
0.000132162
4.02412e-06
2.86449e-07
4.28589e-08
1.0418e-08
3.50779e-09
1.42161e-09
6.3064e-10
2.47734e-10
1.26354e-10
4.54246e-11
2.69491e-11
1.01493e-11
3.95701e-12
8.1538e-13
7.92577e-13
2.886e-13
1.33464e-13
4.32167e-14
1.89039e-14
6.68393e-15
1.05932e-15
0
0
0
-5.60636e-12
0
0
2.31634e-11
-2.89357e-07
1.36334e-15
0
-2.8993e-07
3.71992e-10
-4.55398e-10
2.86474e-07
-7.35211e-10
1.80285e-09
-3.01146e-16
-2.90573e-15
3.08796e-07
3.88943e-07
3.19257e-06
4.3916e-05
0.000543316
0.00574675
0.0505539
0.366435
2.19522
10.9817
46.5077
169.158
535.394
1489.56
3661.71
7938.9
15148.8
26037.8
41380
61171.8
85954
117082
156302
206486
271589
356855
469173
617570
813921
1.07388e+06
1.41815e+06
1.87412e+06
2.47817e+06
3.27854e+06
4.33943e+06
5.74628e+06
7.61312e+06
1.00919e+07
1.33574e+07
1.76091e+07
2.34473e+07
3.12277e+07
1.79007e+08
3.11689e+08
2.89184e+07
2.04806e+07
1.43219e+07
9.87223e+06
6.69646e+06
4.46289e+06
2.92005e+06
1.87902e+06
1.20018e+06
783379
369800
48568.4
2005.44
40.6507
0.518014
0.0058754
9.43499e-05
3.13056e-06
2.42418e-07
3.84034e-08
9.84292e-09
3.24982e-09
1.29856e-09
5.69833e-10
2.67559e-10
1.06722e-10
5.08876e-11
2.12365e-11
8.45534e-12
4.08599e-12
1.78836e-12
6.6194e-13
4.82005e-12
1.20734e-13
-5.17294e-12
1.96789e-14
5.95771e-15
-5.02373e-12
0
2.81899e-21
2.72064e-07
1.23813e-11
-2.79157e-07
-2.52567e-11
0
2.83937e-07
0
0
0
-2.81454e-07
4.42271e-10
2.78515e-07
-8.94235e-18
3.15595e-09
2.77284e-07
-2.97736e-15
1.54441e-08
2.59506e-07
3.32027e-06
4.55847e-05
0.000568552
0.00606074
0.0537527
0.39293
2.37423
11.9797
51.1682
187.667
598.689
1677.1
4140.65
8968.78
16956.5
28787.1
45254.1
66247.8
92462.2
124901
165601
217529
284732
372524
487855
639802
840274
1.10494e+06
1.45445e+06
1.91613e+06
2.52608e+06
3.33215e+06
4.39781e+06
5.80716e+06
7.67134e+06
1.01396e+07
1.33862e+07
1.76048e+07
2.33833e+07
3.1065e+07
2.26817e+08
2.66356e+08
2.83505e+07
2.00852e+07
1.40494e+07
9.68708e+06
6.57269e+06
4.38203e+06
2.86901e+06
1.84874e+06
1.18473e+06
778335
333837
39816.8
1520.95
29.3139
0.364378
0.00419302
7.10687e-05
2.54204e-06
2.10844e-07
3.475e-08
9.26889e-09
3.17996e-09
1.36423e-09
5.64264e-10
2.38732e-10
9.79955e-11
4.70312e-11
2.0152e-11
9.11539e-12
3.86455e-12
1.57726e-12
6.56018e-13
2.84461e-13
1.08138e-13
4.29087e-14
1.73624e-14
5.95566e-15
1.06347e-15
0
-1.4927e-12
2.70218e-07
0
0
0
-2.78454e-07
1.8805e-19
1.30746e-15
2.60483e-15
2.75568e-07
5.14005e-15
2.711e-07
2.02167e-14
-1.15178e-17
-4.57671e-17
-3.18892e-16
-3.07371e-15
1.81255e-08
1.28467e-07
3.48344e-06
4.77477e-05
0.000598135
0.00642149
0.0574072
0.423141
2.57852
13.1223
56.5299
209.091
672.416
1896.52
4700
10150.4
18941.7
31659.2
49259.5
71510.9
98864.7
132554
174691
228332
297582
387805
505981
661206
865383
1.13414e+06
1.48805e+06
1.95423e+06
2.56848e+06
3.37804e+06
4.44512e+06
5.85223e+06
7.71025e+06
1.0168e+07
1.33891e+07
1.75645e+07
2.32724e+07
3.08422e+07
2.67309e+08
2.28547e+08
2.77899e+07
1.97141e+07
1.38064e+07
9.53027e+06
6.47373e+06
4.32149e+06
2.83374e+06
1.83009e+06
1.1773e+06
777919
297997
33597.5
1202.59
22.1976
0.270418
0.00315742
5.61684e-05
2.14348e-06
1.88312e-07
3.32603e-08
8.70029e-09
3.10674e-09
1.2432e-09
5.94197e-10
2.34027e-10
1.07989e-10
4.62343e-11
2.49892e-11
8.98715e-12
8.63813e-12
1.55989e-12
6.97267e-13
-4.92241e-12
1.19279e-13
-5.11242e-12
1.73165e-14
5.95049e-15
9.75567e-16
0
0
0
0
-5.48605e-12
0
0
0
0
8.70906e-11
0
-2.65631e-07
2.62802e-07
-2.80693e-18
-5.55593e-18
-4.40493e-17
-3.84138e-14
-3.16791e-15
2.31019e-08
3.96924e-07
3.6437e-06
4.99365e-05
0.000630402
0.00681925
0.0614393
0.456557
2.80554
14.4
62.5734
233.448
756.934
2149.34
5341.3
11464.8
20990.4
34370.4
52977
76314.3
104775
139692
183257
238603
309873
402466
523372
681688
889286
1.16173e+06
1.51946e+06
1.98926e+06
2.60626e+06
3.41678e+06
4.48266e+06
5.88707e+06
7.7383e+06
1.01786e+07
1.33679e+07
1.7494e+07
2.31218e+07
3.05669e+07
3.01068e+08
1.97396e+08
2.7227e+07
1.93513e+07
1.35769e+07
9.38872e+06
6.38921e+06
4.27327e+06
2.80819e+06
1.8185e+06
1.17434e+06
778946
277794
29067.3
986.646
17.5675
0.210657
0.0024947
4.62946e-05
1.8654e-06
1.72238e-07
3.03847e-08
8.63466e-09
3.2047e-09
1.21395e-09
5.35314e-10
2.29165e-10
1.04363e-10
4.5416e-11
2.02628e-11
8.85496e-12
3.76578e-12
1.54189e-12
6.43362e-13
2.79863e-13
5.25346e-12
-7.11116e-13
1.87128e-14
-7.38059e-13
9.76327e-16
0
0
0
1.20362e-11
0
0
0
-9.61969e-11
0
-1.89429e-10
-1.68137e-10
4.84987e-15
0
0
-8.02876e-18
-4.23272e-17
-2.78678e-09
2.48282e-09
2.20327e-08
2.82517e-07
3.69546e-06
5.23158e-05
0.000664749
0.0072401
0.0657219
0.492255
3.04989
15.788
69.2079
260.497
851.856
2435.47
6063.88
12891.7
23004.8
36916.5
56404.1
80519.4
109890
145911
190839
247837
321069
415940
539446
700668
911404
1.18705e+06
1.54763e+06
2.01963e+06
2.63802e+06
3.44989e+06
4.51597e+06
5.91538e+06
7.75416e+06
1.01726e+07
1.33252e+07
1.73958e+07
2.2935e+07
3.02454e+07
3.28535e+08
1.72613e+08
2.66634e+07
1.89939e+07
1.33563e+07
9.25709e+06
6.31422e+06
4.23337e+06
2.78935e+06
1.81187e+06
1.17461e+06
780862
265409
25811.7
839.021
14.4999
0.171724
0.00206009
3.96429e-05
1.6732e-06
1.59155e-07
3.02084e-08
8.58444e-09
3.02711e-09
1.27029e-09
5.22803e-10
2.46543e-10
1.03778e-10
4.52985e-11
1.99201e-11
9.45834e-12
3.71421e-12
1.52335e-12
6.83095e-13
3.00672e-13
1.17644e-13
7.94297e-13
-7.28856e-13
5.05101e-12
1.0166e-15
-3.64894e-13
0
0
0
0
0
-4.74715e-11
1.2354e-15
0
0
-2.53931e-07
2.50144e-07
-1.32911e-18
-2.61523e-18
-1.79383e-14
1.48797e-09
-3.45905e-16
-3.37561e-15
1.80707e-08
1.75456e-07
3.89018e-06
5.47417e-05
0.000699189
0.00766421
0.0700631
0.528722
3.30186
17.2349
76.2079
289.399
954.417
2745.94
6834.01
14293.6
24574.6
38478.1
58485.5
83236.5
113391
150418
196624
255176
330239
427197
552998
716608
929716
1.20765e+06
1.57048e+06
2.04507e+06
2.66594e+06
3.47772e+06
4.54001e+06
5.93117e+06
7.75464e+06
1.01472e+07
1.32578e+07
1.72658e+07
2.27067e+07
2.98694e+07
3.5045e+08
1.53102e+08
2.60986e+07
1.86402e+07
1.31418e+07
9.1324e+06
6.24603e+06
4.1995e+06
2.77545e+06
1.80896e+06
1.17734e+06
784513
256360
23539.3
738.84
12.4595
0.146098
0.001772
3.51309e-05
1.53839e-06
1.53134e-07
2.8667e-08
8.33518e-09
3.03437e-09
1.19919e-09
5.29278e-10
2.25092e-10
1.01594e-10
4.49762e-11
1.95698e-11
7.86084e-12
3.66157e-12
1.5957e-12
6.29771e-13
2.51867e-13
5.17401e-12
4.49385e-14
1.71378e-14
5.56304e-15
-7.34248e-13
2.59928e-07
-1.92268e-17
-2.62862e-07
-1.18073e-11
0
-1.05344e-11
-8.77153e-20
0
0
0
6.66157e-19
-4.55758e-15
0
-7.3857e-10
2.28938e-07
-1.42454e-09
-3.58856e-16
5.02343e-09
2.26248e-08
3.00562e-07
3.95235e-06
5.69485e-05
0.00073137
0.00806463
0.0741958
0.563762
3.54658
18.6576
83.1856
318.624
1059.42
3064.49
7598.24
15484
25252.8
38394.6
58436.2
83457.6
114154
151987
199236
259039
335528
434052
561533
726943
942227
1.2226e+06
1.588e+06
2.06396e+06
2.68445e+06
3.49384e+06
4.55039e+06
5.93067e+06
7.73545e+06
1.00977e+07
1.3161e+07
1.70991e+07
2.24315e+07
2.94332e+07
3.67735e+08
1.38189e+08
2.5532e+07
1.82882e+07
1.2931e+07
9.01233e+06
6.18248e+06
4.16982e+06
2.76502e+06
1.80867e+06
1.18177e+06
788898
250465
22029.3
672.628
11.1221
0.129382
0.00158283
3.21157e-05
1.44968e-06
1.48145e-07
2.83662e-08
7.90401e-09
2.94555e-09
1.20309e-09
5.38881e-10
2.35232e-10
1.04816e-10
4.71237e-11
1.9212e-11
8.04855e-12
2.70515e-12
1.57504e-12
6.22704e-13
2.49476e-13
1.10156e-13
4.18091e-14
4.30759e-12
5.71064e-15
9.76358e-16
3.63857e-13
1.46162e-12
0
0
0
1.27518e-11
4.58117e-11
1.18568e-15
-4.0005e-11
7.86467e-11
-6.46782e-19
0
0
-2.24362e-07
-7.10921e-18
-1.36096e-09
-3.59908e-16
2.62838e-09
2.13971e-08
3.02333e-07
4.10665e-06
5.88622e-05
0.000758987
0.0084096
0.0777848
0.59448
3.7635
19.9346
89.5364
345.598
1157.25
3357.97
8242.07
16081
24213.7
35804.2
55574.2
80426.4
111195
149366
197186
257768
335223
434902
563740
730734
947304
1.22853e+06
1.59401e+06
2.06922e+06
2.68745e+06
3.49221e+06
4.54043e+06
5.90674e+06
7.68916e+06
1.00166e+07
1.30274e+07
1.68888e+07
2.21034e+07
2.89322e+07
3.80671e+08
1.27558e+08
2.49627e+07
1.79357e+07
1.27206e+07
8.89298e+06
6.11965e+06
4.14071e+06
2.75494e+06
1.80846e+06
1.1859e+06
792966
247226
21112
631.39
10.2837
0.118889
0.00146344
3.01977e-05
1.39106e-06
1.44113e-07
2.79968e-08
7.95148e-09
2.94054e-09
1.16839e-09
5.06098e-10
2.34113e-10
1.02433e-10
4.46484e-11
1.95431e-11
7.59729e-12
3.72934e-12
1.55392e-12
6.15481e-13
2.47024e-13
1.09276e-13
4.15504e-14
1.69945e-14
5.01133e-12
-4.99177e-12
-2.5919e-07
0
2.60817e-12
0
1.50638e-16
1.25566e-11
2.48017e-11
-4.8855e-11
0
2.37771e-07
0
0
2.21392e-07
-6.82011e-10
5.40798e-10
-4.42453e-17
-1.03203e-09
4.50976e-09
2.65844e-08
3.09549e-07
4.12417e-06
6.01081e-05
0.000779228
0.008664
0.0804506
0.617495
3.92768
20.9123
94.4597
366.737
1233.86
3576.21
8590.37
15532.9
23633.4
31291.2
48948.4
73366.3
103857
141888
189667
250247
327683
427255
555803
722170
937795
1.21753e+06
1.58066e+06
2.05227e+06
2.66506e+06
3.46163e+06
4.49761e+06
5.84576e+06
7.60132e+06
9.88924e+06
1.28427e+07
1.66221e+07
2.17125e+07
2.83603e+07
3.89526e+08
1.21068e+08
2.43898e+07
1.75792e+07
1.25055e+07
8.76835e+06
6.05156e+06
4.10674e+06
2.7406e+06
1.80457e+06
1.18675e+06
794810
245874
20650.3
608.871
9.8118
0.112923
0.00139528
2.90987e-05
1.35706e-06
1.42069e-07
2.81387e-08
8.13733e-09
2.91436e-09
1.21101e-09
5.31872e-10
2.2914e-10
1.05231e-10
4.36835e-11
1.98301e-11
7.84089e-12
3.49691e-12
1.5325e-12
6.28057e-13
2.44512e-13
1.02743e-13
5.01924e-12
1.54995e-14
5.87705e-15
9.75114e-16
4.75325e-18
0
5.77276e-12
-1.14647e-11
2.53076e-07
2.499e-07
-1.98066e-11
-2.41601e-07
-4.68149e-11
-7.44093e-11
-2.2534e-07
0
0
-2.22939e-18
5.1627e-10
-4.62728e-17
-9.77112e-10
2.34443e-09
2.30913e-08
3.13776e-07
4.29477e-06
6.08695e-05
0.000789566
0.00879506
0.0818344
0.629541
4.01437
21.4334
97.1035
378.048
1272.68
3654.94
8392.68
15899.4
24625.5
32626.2
39294
61278.3
90640.7
127467
173912
232947
308534
405847
531599
694483
905755
1.18001e+06
1.53622e+06
1.99899e+06
2.60041e+06
3.38221e+06
4.39885e+06
5.72137e+06
7.44263e+06
9.68413e+06
1.25747e+07
1.62691e+07
2.12354e+07
2.77064e+07
3.94863e+08
1.17424e+08
2.38196e+07
1.72041e+07
1.22622e+07
8.61341e+06
5.95507e+06
4.0483e+06
2.70632e+06
1.78505e+06
1.17555e+06
788315
244717
20495.8
600.102
9.61573
0.110393
0.00136628
2.86389e-05
1.34244e-06
1.41735e-07
2.76083e-08
8.12816e-09
2.96269e-09
1.24861e-09
5.33241e-10
2.27469e-10
1.07757e-10
4.531e-11
1.94294e-11
8.00066e-12
3.51726e-12
1.51082e-12
-1.092e-13
2.41975e-13
1.07464e-13
4.10154e-14
-4.94985e-12
4.98558e-12
9.74261e-16
2.58821e-07
2.58462e-07
0
-2.55574e-07
6.25948e-12
2.24189e-11
-5.78398e-16
-4.78063e-11
-4.68149e-11
-7.44093e-11
-2.25194e-07
4.11886e-15
-2.73974e-10
-2.22939e-18
1.50698e-14
1.23334e-09
2.8162e-14
-3.62232e-15
2.72508e-08
4.06563e-07
4.38608e-06
6.08781e-05
0.000789565
0.00879513
0.0818348
0.629544
4.01439
21.4335
97.1035
378.047
1272.67
3654.91
8392.6
15899.2
24625.2
32625.7
39293.4
61276.9
90638.9
127465
173909
232944
308531
405844
531598
694485
905764
1.18003e+06
1.53625e+06
1.99905e+06
2.6005e+06
3.38236e+06
4.39906e+06
5.72168e+06
7.44307e+06
9.68477e+06
1.25756e+07
1.62706e+07
2.1238e+07
2.77114e+07
3.94786e+08
1.17508e+08
2.38253e+07
1.72075e+07
1.22642e+07
8.61464e+06
5.9558e+06
4.04872e+06
2.70655e+06
1.78516e+06
1.17561e+06
788336
244720
20496
600.113
9.61601
0.110398
0.00136634
2.86369e-05
1.34464e-06
1.41133e-07
2.81677e-08
8.12811e-09
2.88543e-09
1.20688e-09
5.33869e-10
2.33157e-10
1.02656e-10
4.5311e-11
1.94294e-11
8.30388e-12
3.53488e-12
2.26044e-12
6.24895e-13
2.54215e-13
8.29925e-13
4.10155e-14
-4.22118e-12
5.50679e-15
9.34523e-16
0
0
-2.59204e-07
0
-2.16241e-20
0
-5.89288e-16
-8.86051e-11
-4.79924e-11
0
2.32547e-07
0
0
0
1.2055e-09
-4.42453e-17
2.30045e-09
4.50976e-09
2.65843e-08
3.11504e-07
4.22616e-06
6.02044e-05
0.000779141
0.00866411
0.080452
0.617505
3.92773
20.9125
94.4602
366.737
1233.86
3576.17
8590.19
15532.4
23632.5
31289.9
48945.5
73361.9
103851
141880
189657
250236
327671
427245
555796
722172
937814
1.21757e+06
1.58074e+06
2.05243e+06
2.66531e+06
3.46201e+06
4.49818e+06
5.8466e+06
7.60253e+06
9.89097e+06
1.2845e+07
1.66255e+07
2.17175e+07
2.83677e+07
3.8956e+08
1.21155e+08
2.43971e+07
1.75831e+07
1.25074e+07
8.76924e+06
6.05189e+06
4.1068e+06
2.74055e+06
1.80449e+06
1.18668e+06
794762
245865
20650.5
608.899
9.81261
0.112936
0.00139546
2.91004e-05
1.35708e-06
1.42071e-07
2.7883e-08
8.13734e-09
3.06637e-09
1.21102e-09
5.27774e-10
2.33718e-10
1.00013e-10
4.63445e-11
1.98302e-11
8.52794e-12
2.69819e-12
1.53253e-12
6.52564e-13
-3.95478e-12
1.08378e-13
4.12858e-14
1.6918e-14
-7.28392e-13
1.06374e-15
6.84277e-22
-8.05916e-13
1.10106e-20
0
0
0
6.00168e-16
0
-4.0005e-11
-7.86443e-11
1.54289e-10
-6.33352e-19
-2.29841e-07
1.68748e-14
1.65009e-14
-4.64191e-17
-1.08675e-09
2.62838e-09
2.5615e-08
3.01855e-07
4.10664e-06
5.88712e-05
0.000758999
0.00840999
0.0777862
0.594487
3.76353
19.9347
89.536
345.593
1157.22
3357.85
8241.68
16080.2
24212.1
35801.2
55569.3
80419.1
111185
149352
197170
257749
335202
434881
563722
730725
947313
1.22857e+06
1.59409e+06
2.06938e+06
2.68772e+06
3.49262e+06
4.54104e+06
5.90761e+06
7.69036e+06
1.00182e+07
1.30294e+07
1.68913e+07
2.21066e+07
2.89361e+07
3.80709e+08
1.27607e+08
2.49692e+07
1.79399e+07
1.27233e+07
8.89466e+06
6.12068e+06
4.14132e+06
2.75528e+06
1.80863e+06
1.18598e+06
792999
247234
21113.3
631.454
10.2852
0.118911
0.00146372
3.0204e-05
1.38871e-06
1.44113e-07
2.79969e-08
7.81433e-09
3.01209e-09
1.20435e-09
5.24485e-10
2.3519e-10
1.02434e-10
4.46496e-11
1.81521e-11
8.29566e-12
3.65014e-12
1.55396e-12
6.15498e-13
2.47025e-13
1.0673e-13
-4.22507e-12
1.55695e-14
5.89279e-15
9.75824e-16
0
-1.46782e-12
0
0
1.17902e-11
0
0
0
-2.54421e-07
0
-4.64058e-15
0
0
2.33885e-07
2.29663e-07
-1.42454e-09
-1.40284e-09
2.76982e-09
2.48549e-08
4.10037e-07
4.05871e-06
5.69581e-05
0.000731402
0.00806494
0.0741981
0.563776
3.54666
18.6579
83.1865
318.625
1059.42
3064.45
7598.05
15483.4
25251.1
38390.8
58429.2
83445.5
114139
151969
199213
259012
335496
434017
561497
726917
942215
1.22261e+06
1.58805e+06
2.06407e+06
2.68464e+06
3.49414e+06
4.55084e+06
5.9313e+06
7.7363e+06
1.00988e+07
1.31623e+07
1.71007e+07
2.24333e+07
2.94351e+07
3.67752e+08
1.38209e+08
2.5536e+07
1.82908e+07
1.29326e+07
9.01322e+06
6.18292e+06
4.16998e+06
2.76503e+06
1.80862e+06
1.1817e+06
788843
250461
22030.8
672.722
11.1244
0.129413
0.00158323
3.21248e-05
1.44724e-06
1.48145e-07
2.86448e-08
8.078e-09
2.94564e-09
1.2031e-09
5.38887e-10
2.35234e-10
1.01812e-10
4.5599e-11
1.92121e-11
8.43995e-12
3.60768e-12
-3.43632e-12
6.68142e-13
-4.87887e-13
1.04433e-13
4.46729e-14
1.56374e-14
5.5506e-15
9.76389e-16
0
0
0
0
2.66086e-07
0
0
-9.43e-11
-1.7571e-19
1.84724e-10
3.6451e-10
0
0
0
-7.72294e-18
2.36206e-07
2.33595e-07
-3.37561e-15
1.572e-08
1.75992e-07
3.89018e-06
5.48641e-05
0.000699219
0.00766437
0.070066
0.528743
3.30198
17.2355
76.2099
289.405
954.43
2745.95
6833.93
14293.2
24573.6
38475.7
58480.8
83234.2
113387
150412
196616
255164
330224
427179
552976
716579
929687
1.20763e+06
1.57049e+06
2.04511e+06
2.66604e+06
3.47789e+06
4.54027e+06
5.93153e+06
7.75513e+06
1.01479e+07
1.32585e+07
1.72666e+07
2.27076e+07
2.98702e+07
3.50455e+08
1.53108e+08
2.61005e+07
1.86415e+07
1.31426e+07
9.1329e+06
6.24631e+06
4.19964e+06
2.77551e+06
1.80898e+06
1.17734e+06
784510
256374
23542.8
738.998
12.4629
0.146142
0.00177254
3.51425e-05
1.5384e-06
1.53831e-07
2.83137e-08
8.33529e-09
2.96006e-09
1.23709e-09
5.09969e-10
2.25087e-10
1.01595e-10
4.58182e-11
1.893e-11
7.86065e-12
4.39523e-12
1.59571e-12
-1.12241e-13
2.5186e-13
8.56099e-13
4.49376e-14
1.85748e-14
5.03769e-12
-5.00067e-12
-2.6067e-07
-2.63981e-07
0
1.20362e-11
-5.42039e-12
0
0
9.61969e-11
1.91119e-10
3.56245e-19
0
-4.84987e-15
7.30633e-10
-2.5172e-07
-8.02876e-18
-4.76181e-17
-3.35416e-16
-3.26812e-15
1.65245e-08
2.83081e-07
3.57622e-06
5.23218e-05
0.00066491
0.00724055
0.0657256
0.49228
3.05003
15.7887
69.2109
260.508
851.891
2435.57
6064.12
12892.3
23006.1
36918.4
56407.8
80521
109889
145908
190834
247829
321059
415930
539436
700660
911400
1.18705e+06
1.54764e+06
2.01964e+06
2.63807e+06
3.44997e+06
4.51611e+06
5.91558e+06
7.75443e+06
1.0173e+07
1.33255e+07
1.73962e+07
2.29354e+07
3.02457e+07
3.28536e+08
1.72614e+08
2.66643e+07
1.89945e+07
1.33567e+07
9.25726e+06
6.31429e+06
4.23338e+06
2.78934e+06
1.81184e+06
1.17458e+06
780845
265425
25816.4
839.242
14.5046
0.171785
0.00206081
3.96534e-05
1.6732e-06
1.60462e-07
3.02086e-08
8.24946e-09
2.85703e-09
1.2703e-09
5.22807e-10
2.47251e-10
1.03778e-10
4.0931e-11
2.07201e-11
8.71958e-12
3.71423e-12
2.27101e-12
5.90236e-13
2.77425e-13
1.11833e-13
4.51908e-14
1.72029e-14
5.21543e-15
1.06566e-15
-2.61042e-07
-2.65091e-07
-2.68368e-07
-1.21509e-11
-6.74266e-12
-2.73607e-07
-4.91322e-11
0
1.83711e-19
0
0
7.62612e-10
1.41891e-18
-1.49256e-09
-1.47715e-09
2.54954e-07
-2.54492e-07
-3.16791e-15
1.73265e-08
3.96924e-07
3.65007e-06
4.9811e-05
0.000630573
0.00681977
0.0614433
0.456585
2.8057
14.4008
62.5767
233.46
756.971
2149.44
5341.55
11465.3
20990.9
34371.4
52978.4
76315.4
104775
139692
183255
238600
309869
402462
523368
681686
889287
1.16173e+06
1.51947e+06
1.98929e+06
2.6063e+06
3.41684e+06
4.48274e+06
5.88719e+06
7.73846e+06
1.01788e+07
1.33681e+07
1.74942e+07
2.31219e+07
3.0567e+07
3.01066e+08
1.97398e+08
2.72273e+07
1.93514e+07
1.3577e+07
9.38872e+06
6.38918e+06
4.27323e+06
2.80816e+06
1.81847e+06
1.17432e+06
778937
277818
29073.9
986.956
17.574
0.210742
0.00249566
4.63164e-05
1.86811e-06
1.72984e-07
3.06891e-08
8.82417e-09
3.19999e-09
1.16507e-09
5.35318e-10
2.52009e-10
1.0013e-10
4.54153e-11
1.87877e-11
8.85525e-12
3.76579e-12
7.85032e-13
5.96433e-13
2.56402e-13
-5.03994e-12
4.54309e-14
-7.33518e-13
7.49586e-13
9.76327e-16
-3.66459e-13
0
-6.06066e-12
-5.50258e-12
-1.23754e-11
0
0
0
1.87713e-19
1.9883e-10
0
0
-3.49167e-10
-2.90253e-18
1.53112e-09
-4.57671e-17
-3.18892e-16
-3.07371e-15
2.41674e-08
2.66252e-07
3.48344e-06
4.77477e-05
0.000598208
0.00642207
0.0574118
0.423171
2.57869
13.1231
56.5332
209.102
672.451
1896.62
4700.22
10150.8
18942.5
31660.4
49261
71512.5
98866.2
132555
174692
228333
297583
387808
505985
661213
865395
1.13416e+06
1.48808e+06
1.95426e+06
2.56853e+06
3.37812e+06
4.4452e+06
5.85233e+06
7.71037e+06
1.01681e+07
1.33892e+07
1.75646e+07
2.32724e+07
3.08422e+07
2.67305e+08
2.28547e+08
2.779e+07
1.97142e+07
1.38065e+07
9.53034e+06
6.47377e+06
4.32151e+06
2.83375e+06
1.8301e+06
1.1773e+06
777917
298055
33606
1203.01
22.2066
0.270535
0.00315874
5.61879e-05
2.14345e-06
1.88311e-07
3.25621e-08
8.70024e-09
3.1067e-09
1.29253e-09
5.4746e-10
2.34021e-10
1.07987e-10
4.62345e-11
2.05964e-11
8.98719e-12
3.81587e-12
1.65474e-12
6.49817e-13
2.58536e-13
1.19275e-13
4.27211e-14
1.73165e-14
5.9505e-15
9.75538e-16
0
0
-2.72064e-07
-2.76009e-07
2.79157e-07
2.81515e-07
0
0
-1.33556e-15
0
7.62742e-19
0
8.02117e-10
-2.08847e-14
-8.94235e-18
-4.1546e-17
-2.74136e-07
6.29494e-09
1.89218e-08
3.97297e-07
3.47133e-06
4.57363e-05
0.000568755
0.00606138
0.0537574
0.392962
2.37441
11.9806
51.1715
187.678
598.722
1677.19
4140.86
8969.19
16957.2
28788.1
45255.7
66249.7
92464.4
124904
165604
217532
284736
372529
487862
639811
840285
1.10495e+06
1.45447e+06
1.91615e+06
2.5261e+06
3.33217e+06
4.39783e+06
5.80717e+06
7.67131e+06
1.01395e+07
1.33862e+07
1.76049e+07
2.33834e+07
3.10652e+07
2.26812e+08
2.6635e+08
2.83498e+07
2.00848e+07
1.40492e+07
9.68701e+06
6.57269e+06
4.38206e+06
2.86905e+06
1.84878e+06
1.18476e+06
778359
333898
39828.1
1521.53
29.3267
0.364548
0.00419489
7.11029e-05
2.54648e-06
2.1084e-07
3.475e-08
9.46889e-09
3.28092e-09
1.27141e-09
5.5922e-10
2.38733e-10
1.15166e-10
5.00599e-11
1.93974e-11