/*--------------------------------*- C++ -*----------------------------------*\
  =========                 |
  \\      /  F ield         | OpenFOAM: The Open Source CFD Toolbox
   \\    /   O peration     | Website:  https://openfoam.org
    \\  /    A nd           | Version:  8
     \\/     M anipulation  |
\*---------------------------------------------------------------------------*/
FoamFile
{
    version     2.0;
    format      ascii;
    class       volScalarField;
    location    "880/fluid";
    object      rDeltaT;
}
// * * * * * * * * * * * * * * * * * * * * * * * * * * * * * * * * * * * * * //

dimensions      [0 0 -1 0 0 0 0];

internalField   nonuniform List<scalar> 
4000
(
513.52
539.581
564.438
588.247
610.948
632.439
652.589
671.256
688.307
703.642
717.223
729.103
739.462
748.632
757.109
765.392
773.87
782.723
791.85
800.861
809.152
816.028
820.834
823.049
822.355
818.565
811.57
801.341
787.917
771.384
751.865
741.778
764.501
809.116
852.905
895.757
937.588
978.328
1017.92
1056.33
1093.52
1129.47
1164.19
1197.66
1229.9
1260.9
1290.68
1319.25
1346.63
1372.82
1397.85
1421.71
1444.43
1466.01
1486.44
1505.74
1523.9
1540.78
1556.38
1570.94
1584.37
2849.19
15070.3
1573.84
1537.3
1495.86
1450.02
1400.28
1347.08
1290.77
1231.79
1170.59
1107.76
1043.81
979.482
916.218
856.021
801.306
755.036
719.849
696.732
684.241
679.125
677.863
677.633
676.67
673.988
669.233
662.435
653.783
643.508
631.847
619.019
605.219
590.607
575.315
559.448
543.087
526.267
508.904
513.043
538.445
562.508
585.178
606.427
626.176
644.332
660.804
675.527
688.484
699.735
709.441
717.889
725.508
732.781
740.18
748.089
756.693
765.904
775.332
784.355
792.229
798.221
801.734
802.313
799.656
793.604
784.117
771.245
755.099
735.829
713.612
715.643
752.515
797.516
841.777
885.195
927.68
969.159
1009.58
1048.9
1087.09
1124.13
1160.02
1194.74
1228.31
1260.73
1292.01
1322.16
1351.2
1379.15
1406.01
1431.82
1456.59
1480.32
1503.05
1524.78
1545.36
1564.86
1583.57
1601.4
4455.46
13656.5
1584.49
1543.23
1498.34
1449.71
1397.45
1341.72
1282.76
1220.85
1156.36
1089.77
1021.49
952.467
884.557
820.391
763.225
716.312
681.993
660.489
649.622
645.871
645.831
646.968
647.722
647.272
645.162
641.238
635.527
628.133
619.201
608.884
597.337
584.699
571.092
556.619
541.362
525.356
508.595
512.338
536.179
558.508
579.302
598.503
616.045
631.874
645.955
658.29
668.94
678.041
685.825
692.626
698.865
704.99
711.457
718.65
726.767
735.738
745.195
754.535
763.02
769.907
774.532
776.349
774.973
770.192
761.932
750.217
735.141
716.846
695.501
678.123
694.505
739.802
784.662
828.965
872.608
915.506
957.589
998.806
1039.12
1078.49
1116.91
1154.36
1190.84
1226.36
1260.92
1294.53
1327.22
1359
1389.9
1419.94
1449.16
1477.57
1505.2
1532.03
1557.87
1582.71
1606.66
1629.18
7233.63
11027.3
1603.53
1557.55
1507.84
1454.45
1397.49
1337.09
1273.46
1206.84
1137.63
1066.37
993.596
920.608
849.696
783.861
726.593
680.976
648.698
629.242
620.032
617.553
618.58
620.762
622.648
623.525
623.025
620.978
617.337
612.129
605.42
597.298
587.858
577.194
565.392
552.532
538.686
523.898
508.148
511.649
534.107
554.986
574.25
591.86
607.775
621.966
634.429
645.197
654.351
662.04
668.496
674.043
679.096
684.127
689.613
695.942
703.314
711.659
720.618
729.59
737.837
744.61
749.238
751.191
750.092
745.713
737.953
726.805
712.332
694.649
673.9
650.252
650.03
685.275
730.453
775.359
819.886
863.943
907.454
950.361
992.616
1034.18
1075.03
1115.15
1154.54
1193.17
1231.06
1268.21
1304.63
1340.35
1375.36
1409.7
1443.35
1476.32
1508.57
1540.05
1570.41
1599.55
1627.45
1653.35
10576.6
7774.05
1615.89
1566.05
1511.94
1453.86
1392.07
1326.83
1258.45
1187.31
1113.98
1039.1
963.45
888.672
817.281
752.294
696.908
653.773
624.043
606.747
599.121
597.747
599.624
602.6
605.332
607.101
607.562
606.575
604.104
600.168
594.812
588.092
580.07
570.806
560.357
548.777
536.121
522.422
507.667
510.911
531.867
551.196
568.871
584.857
599.127
611.67
622.5
631.671
639.286
645.513
650.602
654.89
658.797
662.796
667.358
672.861
679.502
687.211
695.636
704.186
712.131
718.72
723.275
725.255
724.27
720.08
712.565
701.705
687.547
670.189
649.76
626.412
612.622
633.688
679.043
724.393
769.631
814.664
859.416
903.822
947.83
991.399
1034.5
1077.1
1119.19
1160.75
1201.77
1242.25
1282.18
1321.57
1360.39
1398.64
1436.28
1473.25
1509.47
1544.77
1578.7
1611.11
1641.87
1669.94
13854.3
4443.23
1619.69
1566.93
1509.22
1447.15
1381.21
1311.85
1239.54
1164.81
1088.36
1010.93
933.458
857.835
786.644
722.858
669.463
628.72
601.299
585.845
579.485
578.933
581.415
584.972
588.383
590.976
592.406
592.512
591.23
588.554
584.501
579.106
572.409
564.452
555.276
544.924
533.44
520.853
507.153
510.172
529.653
547.499
563.684
578.182
590.975
602.065
611.48
619.284
625.588
630.57
634.479
637.652
640.502
643.495
647.092
651.669
657.421
664.285
671.924
679.76
687.077
693.134
697.258
698.904
697.677
693.326
685.72
674.824
660.67
643.342
622.953
599.64
575.24
585.286
630.731
676.412
722.225
768.076
813.887
859.591
905.133
950.468
995.554
1040.36
1084.85
1129.01
1172.81
1216.23
1259.25
1301.83
1343.93
1385.51
1426.48
1466.74
1506.11
1544.39
1580.99
1615.73
1648.32
1677.62
16743.4
1663.63
1615.55
1560.37
1499.6
1434.19
1364.87
1292.26
1216.94
1139.6
1061.04
982.052
903.751
828.182
757.959
695.977
644.994
606.902
581.942
568.445
563.451
563.785
566.862
570.89
574.764
577.878
579.919
580.737
580.267
578.488
575.406
571.037
565.406
558.538
550.46
541.203
530.803
519.281
506.63
509.425
527.418
543.78
558.488
571.523
582.873
592.549
600.586
607.056
612.08
615.837
618.583
620.653
622.456
624.452
627.095
630.751
635.613
641.62
648.439
655.505
662.109
667.518
671.062
672.198
670.528
665.795
657.861
646.681
632.28
614.729
594.132
570.613
544.31
545.992
584.786
630.718
676.997
723.531
770.24
817.055
863.918
910.773
957.573
1004.28
1050.85
1097.25
1143.44
1189.37
1235.01
1280.29
1325.14
1369.49
1413.19
1456.1
1497.99
1538.58
1577.08
1613.68
1647.29
1676.88
18017.3
1657.03
1605.32
1547.15
1483.63
1415.62
1343.85
1268.99
1191.71
1112.77
1033.05
953.359
874.969
800.024
731.133
671.098
622.464
586.8
564.002
552.168
548.315
549.398
553.006
557.486
561.826
565.467
568.115
569.62
569.914
568.968
566.777
563.346
558.691
552.827
545.772
537.549
528.189
517.711
506.105
508.681
525.198
540.098
553.363
564.978
574.938
583.258
589.98
595.182
598.986
601.576
603.205
604.205
604.978
605.975
607.641
610.336
614.249
619.321
625.227
631.41
637.173
641.791
644.598
645.054
642.759
637.455
628.997
617.335
602.487
584.516
563.516
539.603
512.905
508.257
540.75
586.848
633.483
680.564
728.009
775.746
823.71
871.841
920.086
968.394
1016.71
1064.99
1113.18
1161.22
1209.03
1256.54
1303.66
1350.26
1396.19
1441.25
1485.17
1527.52
1567.57
1605.3
1639.38
1668.4
17601.1
1643
1588.66
1528.23
1462.69
1392.85
1319.44
1243.15
1164.71
1084.93
1004.73
924.938
846.968
773.033
705.725
647.752
601.471
568.165
547.434
537.192
534.445
536.266
540.392
545.294
550.047
554.138
557.296
559.382
560.327
560.098
558.684
556.085
552.306
547.357
541.249
533.999
525.632
516.164
505.585
507.94
522.986
536.435
548.271
558.485
567.075
574.062
579.491
583.444
586.046
587.48
587.999
587.931
587.673
587.666
588.347
590.067
593.01
597.119
602.071
607.317
612.169
615.907
617.873
617.529
614.477
608.457
599.324
587.024
571.57
553.02
531.462
507.005
479.77
470.304
498.096
544.278
591.164
638.663
686.691
735.172
784.035
833.216
882.654
932.287
982.053
1031.89
1081.72
1131.48
1181.07
1230.4
1279.33
1327.74
1375.42
1422.16
1467.63
1511.36
1552.64
1591.36
1626.15
2491.05
16671.5
1623.7
1567.38
1505.32
1438.36
1367.31
1292.87
1215.78
1136.77
1056.71
976.521
897.069
819.871
747.184
681.572
625.653
581.608
550.478
531.615
522.8
521.053
523.56
528.192
533.525
538.701
543.249
546.914
549.565
551.134
551.587
550.908
549.092
546.141
542.06
536.854
530.537
523.13
514.645
505.074
507.203
520.789
532.799
543.221
552.05
559.287
564.959
569.112
571.832
573.246
573.535
572.952
571.818
570.524
569.503
569.182
569.905
571.85
574.959
578.912
583.166
587.04
589.822
590.859
589.617
585.702
578.854
568.928
555.869
539.688
520.439
498.206
473.094
445.218
432.112
456.438
502.62
549.655
597.45
645.917
694.978
744.557
794.584
844.989
895.703
946.652
997.759
1048.94
1100.11
1151.15
1201.96
1252.38
1302.26
1351.37
1399.48
1446.26
1491.18
1533.58
1573.38
1609.34
4915.74
14585.6
1599.32
1542.03
1479.1
1411.4
1339.72
1264.81
1187.42
1108.32
1028.4
948.582
869.778
793.583
722.28
658.408
604.503
562.588
533.488
516.353
508.859
508.054
511.227
516.367
522.137
527.742
532.743
536.904
540.102
542.269
543.373
543.395
542.327
540.167
536.916
532.577
527.161
520.685
513.159
504.574
506.47
518.604
529.184
538.202
545.654
551.548
555.912
558.797
560.289
560.516
559.661
557.971
555.765
553.428
551.382
550.047
549.757
550.684
552.768
555.691
558.913
561.761
563.529
563.571
561.357
556.497
548.734
537.925
524.015
507.013
486.974
463.98
438.131
409.538
393.678
415.455
461.559
508.647
556.625
605.402
654.897
705.03
755.724
806.903
858.488
910.398
962.544
1014.83
1067.16
1119.4
1171.43
1223.09
1274.19
1324.52
1373.81
1421.71
1467.69
1511.1
1551.86
1588.73
7090.11
12522.9
1571.44
1513.84
1450.59
1382.64
1310.79
1235.83
1158.53
1079.68
1000.22
921.043
843.097
768.052
698.208
636.075
584.108
544.192
516.964
501.407
495.126
495.202
499.021
504.673
510.897
516.951
522.422
527.091
530.839
533.604
535.351
536.061
535.723
534.335
531.893
528.4
523.862
518.294
511.705
504.083
505.742
516.432
525.59
533.209
539.292
543.848
546.908
548.527
548.792
547.832
545.829
543.029
539.745
536.354
533.274
530.91
529.592
529.483
530.52
532.385
534.542
536.324
537.031
536.024
532.779
526.91
518.166
506.404
491.573
473.683
452.787
428.968
402.323
372.963
355.009
374.912
420.862
467.915
515.973
564.945
614.746
665.291
716.499
768.286
820.567
873.251
926.243
979.437
1032.72
1085.96
1139.01
1191.7
1243.84
1295.19
1345.47
1394.33
1441.24
1485.51
1527.09
1564.69
8991.43
10716.3
1541.29
1483.72
1420.52
1352.66
1280.99
1206.3
1129.38
1051.06
972.281
893.932
816.986
743.187
674.836
614.413
564.301
526.255
500.757
486.653
481.495
482.405
486.858
493.031
499.729
506.251
512.212
517.402
521.711
525.077
527.466
528.859
529.244
528.615
526.969
524.306
520.629
515.952
510.28
503.603
505.017
514.271
522.012
528.239
532.955
536.175
537.933
538.286
537.322
535.171
532.015
528.097
523.726
519.273
515.146
511.744
509.384
508.224
508.196
508.981
510.047
510.731
510.341
508.243
503.922
496.996
487.219
474.453
458.649
439.819
418.019
393.33
365.85
335.689
316.12
334.631
380.358
427.295
475.343
524.409
574.404
625.239
676.829
729.084
781.912
835.217
888.895
942.831
996.902
1050.97
1104.87
1158.44
1211.46
1263.68
1314.83
1364.55
1412.26
1457.31
1499.61
1537.88
10604.6
9206.17
1509.6
1452.28
1389.38
1321.87
1250.63
1176.45
1100.14
1022.55
944.619
867.235
791.399
718.91
652.064
593.308
544.956
508.656
484.751
471.982
467.867
469.571
474.65
481.355
488.547
495.563
502.035
507.767
512.651
516.63
519.669
521.748
522.854
522.982
522.125
520.281
517.454
513.653
508.883
503.132
504.295
512.119
518.448
523.285
526.637
528.522
528.977
528.062
525.866
522.52
518.205
513.162
507.695
502.171
496.988
492.536
489.123
486.9
485.791
485.479
485.433
484.994
483.477
480.257
474.823
466.803
455.954
442.145
425.331
405.525
382.787
357.198
328.858
297.875
277.033
294.484
339.925
386.675
434.633
483.704
533.796
584.818
636.678
689.283
742.536
796.333
850.565
905.109
959.835
1014.6
1069.22
1123.53
1177.31
1230.3
1282.22
1332.69
1381.13
1426.89
1469.89
1508.82
11951.7
7959.37
1476.84
1419.93
1357.51
1290.55
1219.91
1146.43
1070.9
994.193
917.248
840.938
766.293
695.153
629.803
572.661
525.978
491.303
468.868
457.327
454.184
456.65
462.349
469.6
477.309
484.841
491.849
498.143
503.621
508.227
511.925
514.697
516.529
517.412
517.341
516.312
514.326
511.39
507.509
502.67
503.577
509.974
514.895
518.345
520.333
520.883
520.034
517.847
514.415
509.868
504.388
498.212
491.643
485.039
478.792
473.281
468.806
465.508
463.308
461.884
460.708
459.126
456.46
452.092
445.519
436.377
424.428
409.548
391.696
370.89
347.191
320.684
291.468
259.654
237.773
254.382
299.481
345.98
393.777
442.777
492.883
544.001
596.037
648.894
702.468
756.651
811.328
866.372
921.643
976.987
1032.23
1087.19
1141.64
1195.31
1247.91
1299.07
1348.19
1394.63
1438.3
1477.92
13049.3
6965.65
1443.34
1386.96
1325.14
1258.86
1188.99
1116.34
1041.74
966.027
890.168
815.015
741.62
671.848
607.979
552.396
507.294
474.135
453.055
442.644
440.404
443.602
449.921
457.731
465.978
474.053
481.62
488.498
494.589
499.837
504.208
507.683
510.246
511.889
512.604
512.387
511.237
509.159
506.155
502.214
502.86
507.835
511.351
513.414
514.04
513.254
511.097
507.636
502.963
497.21
490.558
483.244
475.565
467.874
460.555
453.978
448.433
444.052
440.749
438.202
435.883
433.144
429.311
423.776
416.044
405.758
392.689
376.718
357.809
335.986
311.313
283.877
253.78
221.131
198.363
214.267
258.972
305.164
352.74
401.6
451.649
502.788
554.919
607.943
661.751
716.233
771.265
826.717
882.445
938.29
994.076
1049.6
1104.64
1158.93
1212.16
1263.96
1313.72
1360.82
1405.18
1445.49
13926.3
6182.36
1409.29
1353.53
1292.43
1226.96
1157.96
1086.27
1012.68
938.065
863.368
789.432
717.325
648.931
586.518
532.441
488.843
457.112
437.3
427.929
426.5
430.403
437.343
445.729
454.536
463.176
471.326
478.81
485.532
491.439
496.497
500.685
503.988
506.396
507.9
508.495
508.178
506.951
504.817
501.764
502.145
505.701
507.812
508.49
507.753
505.629
502.163
497.423
491.505
484.541
476.712
468.253
459.457
450.673
442.276
434.626
428.004
422.534
418.122
414.443
410.971
407.061
402.048
395.331
386.425
374.98
360.777
343.701
323.725
300.876
275.221
246.852
215.873
182.395
158.832
174.101
218.369
264.204
311.503
360.166
410.094
461.188
513.346
566.465
620.435
675.139
730.453
786.24
842.353
898.628
954.882
1010.91
1066.49
1121.34
1175.15
1227.55
1277.95
1325.7
1370.73
1411.76
14619.3
5583.24
1374.84
1319.79
1259.49
1194.91
1126.89
1056.24
983.759
910.31
836.834
764.159
693.365
626.345
565.353
512.715
470.534
440.142
421.548
413.202
412.508
417.082
424.635
433.602
442.982
452.205
460.955
469.063
476.435
483.016
488.774
493.687
497.74
500.919
503.217
504.626
505.141
504.763
503.492
501.319
501.431
503.57
504.278
503.571
501.469
498.005
493.227
487.205
480.038
471.858
462.847
453.237
443.319
433.436
423.955
415.228
407.524
400.958
395.431
390.613
385.979
380.89
374.687
366.778
356.686
344.073
328.725
310.537
289.486
265.607
238.97
209.669
177.813
143.512
119.206
133.868
177.657
223.091
270.066
318.481
368.234
419.224
471.349
524.502
578.569
633.433
688.963
745.021
801.456
858.098
914.764
971.245
1027.31
1082.68
1137.04
1190.03
1241.03
1289.43
1335.15
1376.91
15139.7
5156.26
1340.08
1285.79
1226.39
1162.79
1095.83
1026.3
954.993
882.771
810.564
739.185
669.721
604.064
544.452
493.183
452.32
423.151
405.681
398.357
398.409
403.64
411.795
421.343
431.306
441.124
450.492
459.24
467.278
474.55
481.023
486.673
491.485
495.445
498.543
500.769
502.118
502.588
502.177
500.877
500.718
501.44
500.746
498.652
495.185
490.379
484.286
476.979
468.558
459.157
448.958
438.193
427.148
416.161
405.592
395.783
386.993
379.328
372.68
366.718
360.917
354.641
347.24
338.13
326.846
313.057
296.559
277.254
255.127
230.217
202.6
172.373
139.648
104.537
100
100
136.839
181.832
228.44
276.56
326.089
376.925
428.963
482.093
536.202
591.166
646.855
703.128
759.828
816.786
873.813
930.7
987.208
1043.06
1097.95
1151.5
1203.1
1252.14
1298.56
1341.08
15498.8
4896.12
1305.01
1251.58
1193.16
1130.63
1064.8
996.457
926.393
855.449
784.551
714.5
646.378
582.074
523.803
473.835
434.194
406.132
389.654
383.27
384.139
390.029
398.785
408.92
419.476
429.907
439.909
449.317
458.039
466.018
473.222
479.625
485.209
489.959
493.865
496.914
499.101
500.42
500.868
500.438
500.006
499.312
497.214
493.734
488.898
482.747
475.336
466.74
457.061
446.435
435.044
423.118
410.942
398.846
387.185
376.29
366.411
357.642
349.871
342.76
335.786
328.318
319.714
309.399
296.917
281.947
264.296
243.874
220.671
194.733
166.142
134.998
101.415
100
100
100
100
140.443
186.645
234.428
283.689
334.323
386.225
439.282
493.378
548.39
604.184
660.616
717.53
774.752
832.093
889.34
946.255
1002.56
1057.95
1112.04
1164.23
1213.9
1261.01
1304.3
15715.7
4743.25
1269.66
1217.22
1159.88
1098.49
1033.87
966.77
897.991
828.362
758.801
690.099
623.329
560.364
503.4
454.674
416.18
389.135
373.507
367.866
369.566
376.139
385.519
396.265
407.441
418.509
429.171
439.263
448.69
457.398
465.351
472.522
478.893
484.447
489.171
493.052
496.082
498.254
499.562
500
500.006
499.312
497.215
493.734
488.898
482.747
475.336
466.74
457.061
446.435
435.044
423.118
410.942
398.846
387.184
376.29
366.41
357.642
349.871
342.76
335.786
328.318
319.713
309.398
296.916
281.947
264.296
243.873
220.67
194.733
166.141
134.998
101.414
100
100
100
100
140.442
186.644
234.427
283.688
334.322
386.224
439.281
493.378
548.39
604.184
660.616
717.529
774.751
832.091
889.337
946.249
1002.55
1057.93
1112.01
1164.19
1213.86
1260.97
1304.26
15706.8
4745.33
1269.71
1217.27
1159.92
1098.52
1033.89
966.785
898.002
828.372
758.81
690.107
623.336
560.371
503.406
454.68
416.185
389.139
373.511
367.869
369.569
376.141
385.521
396.267
407.442
418.511
429.173
439.264
448.691
457.399
465.352
472.523
478.894
484.448
489.172
493.053
496.083
498.255
499.563
500
500.718
501.441
500.746
498.653
495.185
490.379
484.286
476.979
468.557
459.157
448.958
438.193
427.148
416.161
405.591
395.782
386.993
379.327
372.68
366.718
360.916
354.64
347.239
338.129
326.845
313.056
296.558
277.253
255.126
230.216
202.599
172.373
139.647
104.536
100
100
136.836
181.83
228.438
276.557
326.087
376.923
428.961
482.091
536.199
591.164
646.853
703.125
759.825
816.782
873.81
930.696
987.204
1043.06
1097.95
1151.5
1203.1
1252.15
1298.56
1341.09
15494.4
4897.65
1305
1251.59
1193.17
1130.64
1064.81
996.474
926.411
855.467
784.569
714.517
646.395
582.089
523.818
473.848
434.206
406.142
389.662
383.278
384.146
390.035
398.79
408.925
419.48
429.91
439.912
449.32
458.041
466.021
473.224
479.627
485.211
489.961
493.866
496.916
499.102
500.422
500.87
500.439
501.431
503.57
504.278
503.571
501.469
498.005
493.227
487.205
480.038
471.858
462.846
453.237
443.319
433.436
423.955
415.228
407.524
400.958
395.431
390.613
385.979
380.89
374.686
366.777
356.686
344.072
328.724
310.536
289.485
265.606
238.969
209.669
177.812
143.512
119.204
133.865
177.654
223.088
270.063
318.477
368.23
419.22
471.345
524.498
578.565
633.428
688.959
745.017
801.452
858.095
914.761
971.243
1027.31
1082.68
1137.04
1190.03
1241.04
1289.44
1335.16
1376.93
15138.9
5156.75
1340.08
1285.8
1226.4
1162.8
1095.84
1026.31
955.006
882.785
810.579
739.202
669.738
604.081
544.468
493.198
452.334
423.163
405.691
398.366
398.417
403.647
411.801
421.349
431.311
441.129
450.495
459.244
467.281
474.553
481.025
486.676
491.488
495.447
498.545
500.771
502.12
502.59
502.179
500.878
502.145
505.701
507.813
508.49
507.753
505.629
502.163
497.423
491.505
484.541
476.712
468.253
459.457
450.673
442.275
434.626
428.004
422.534
418.122
414.443
410.971
407.06
402.048
395.331
386.424
374.98
360.776
343.701
323.724
300.875
275.221
246.852
215.873
182.395
158.831
174.097
218.365
264.2
311.499
360.162
410.09
461.183
513.341
566.46
620.429
675.134
730.447
786.235
842.348
898.623
954.878
1010.91
1066.48
1121.33
1175.15
1227.55
1277.95
1325.7
1370.74
1411.76
14618.9
5583.21
1374.86
1319.8
1259.5
1194.92
1126.9
1056.25
983.772
910.324
836.849
764.175
693.382
626.361
565.369
512.73
470.548
440.154
421.559
413.211
412.517
417.089
424.641
433.607
442.987
452.209
460.959
469.067
476.438
483.019
488.777
493.69
497.742
500.922
503.219
504.627
505.142
504.765
503.494
501.32
502.86
507.836
511.351
513.414
514.04
513.254
511.097
507.636
502.963
497.21
490.558
483.244
475.565
467.874
460.554
453.978
448.432
444.052
440.749
438.202
435.883
433.143
429.311
423.775
416.043
405.757
392.688
376.717
357.808
335.986
311.313
283.877
253.779
221.131
198.362
214.263
258.968
305.16
352.735
401.595
451.643
502.782
554.914
607.937
661.745
716.226
771.259
826.711
882.439
938.284
994.071
1049.6
1104.64
1158.93
1212.15
1263.95
1313.72
1360.82
1405.17
1445.48
13926.1
6182.2
1409.31
1353.55
1292.45
1226.97
1157.97
1086.28
1012.69
938.079
863.383
789.447
717.341
648.947
586.533
532.455
488.856
457.124
437.31
427.938
426.508
430.41
437.349
445.735
454.541
463.181
471.33
478.813
485.536
491.442
496.5
500.688
503.991
506.398
507.902
508.497
508.179
506.953
504.818
501.765
503.577
509.974
514.895
518.345
520.334
520.884
520.034
517.847
514.415
509.868
504.388
498.212
491.643
485.039
478.792
473.281
468.806
465.508
463.308
461.884
460.708
459.126
456.46
452.092
445.519
436.376
424.428
409.548
391.695
370.889
347.19
320.683
291.468
259.653
237.771
254.378
299.476
345.975
393.773
442.772
492.878
543.996
596.032
648.888
702.462
756.645
811.322
866.365
921.636
976.981
1032.23
1087.19
1141.63
1195.31
1247.91
1299.06
1348.18
1394.62
1438.3
1477.91
13049.2
6965.54
1443.35
1386.97
1325.15
1258.88
1189
1116.36
1041.75
966.042
890.182
815.029
741.634
671.863
607.993
552.409
507.306
474.146
453.064
442.652
440.411
443.608
449.926
457.736
465.983
474.057
481.624
488.502
494.592
499.84
504.211
507.685
510.248
511.891
512.606
512.389
511.238
509.16
506.156
502.214
504.295
512.119
518.448
523.285
526.637
528.522
528.977
528.062
525.866
522.52
518.205
513.161
507.695
502.171
496.988
492.536
489.123
486.9
485.791
485.479
485.433
484.994
483.477
480.256
474.823
466.803
455.954
442.145
425.33
405.525
382.786
357.198
328.858
297.875
277.031
294.48
339.921
386.67
434.628
483.699
533.791
584.812
636.672
689.277
742.53
796.327
850.559
905.103
959.829
1014.59
1069.22
1123.53
1177.3
1230.3
1282.21
1332.68
1381.12
1426.89
1469.88
1508.81
11951.6
7959.4
1476.85
1419.94
1357.52
1290.56
1219.92
1146.44
1070.91
994.207
917.261
840.952
766.307
695.166
629.816
572.673
525.989
491.312
468.876
457.334
454.19
456.655
462.354
469.604
477.313
484.845
491.852
498.146
503.624
508.229
511.928
514.699
516.531
517.414
517.343
516.314
514.327
511.391
507.509
502.67
505.017
514.271
522.012
528.239
532.955
536.175
537.933
538.286
537.322
535.171
532.015
528.097
523.726
519.273
515.146
511.744
509.384
508.224
508.196
508.981
510.047
510.731
510.341
508.243
503.921
496.996
487.218
474.452
458.648
439.818
418.018
393.329
365.849
335.688
316.118
334.627
380.354
427.291
475.339
524.405
574.399
625.235
676.824
729.079
781.907
835.212
888.889
942.826
996.896
1050.96
1104.87
1158.43
1211.45
1263.68
1314.82
1364.54
1412.25
1457.3
1499.61
1537.87
10604.4
9206.18
1509.61
1452.29
1389.39
1321.89
1250.64
1176.46
1100.15
1022.56
944.632
867.248
791.412
718.923
652.076
593.319
544.966
508.664
484.758
471.988
467.871
469.575
474.653
481.358
488.551
495.566
502.038
507.769
512.654
516.632
519.671
521.75
522.856
522.983
522.126
520.282
517.455
513.653
508.883
503.133
505.742
516.432
525.59
533.209
539.292
543.848
546.908
548.527
548.792
547.832
545.829
543.029
539.745
536.354
533.273
530.91
529.592
529.483
530.52
532.385
534.542
536.324
537.031
536.023
532.778
526.91
518.165
506.403
491.572
473.682
452.786
428.967
402.322
372.962
355.007
374.909
420.859
467.911
515.969
564.941
614.742
665.287
716.495
768.281
820.562
873.246
926.238
979.432
1032.71
1085.95
1139
1191.69
1243.83
1295.18
1345.46
1394.33
1441.23
1485.51
1527.09
1564.69
8991.15
10716.4
1541.3
1483.73
1420.53
1352.67
1281
1206.31
1129.39
1051.08
972.293
893.944
816.998
743.199
674.848
614.424
564.31
526.263
500.763
486.657
481.499
482.408
486.86
493.033
499.731
506.253
512.214
517.404
521.713
525.079
527.468
528.861
529.245
528.616
526.971
524.307
520.63
515.952
510.28
503.603
506.47
518.604
529.184
538.202
545.654
551.548
555.912
558.797
560.289
560.516
559.66
557.971
555.765
553.427
551.382
550.047
549.757
550.684
552.768
555.691
558.913
561.761
563.529
563.571
561.357
556.496
548.733
537.924
524.014
507.012
486.973
463.978
438.129
409.537
393.676
415.452
461.556
508.644
556.621
605.399
654.893
705.026
755.721
806.899
858.485
910.394
962.54
1014.83
1067.15
1119.4
1171.43
1223.09
1274.19
1324.52
1373.8
1421.7
1467.68
1511.09
1551.85
1588.72
7090.11
12522.2
1571.45
1513.84
1450.6
1382.65
1310.8
1235.84
1158.54
1079.69
1000.23
921.055
843.109
768.064
698.219
636.084
584.117
544.199
516.969
501.411
495.129
495.204
499.023
504.674
510.899
516.952
522.424
527.092
530.841
533.606
535.352
536.062
535.724
534.335
531.894
528.4
523.862
518.294
511.705
504.083
507.203
520.789
532.798
543.221
552.05
559.287
564.959
569.112
571.832
573.245
573.535
572.951
571.817
570.523
569.503
569.182
569.905
571.85
574.959
578.912
583.166
587.04
589.821
590.858
589.616
585.701
578.853
568.927
555.868
539.686
520.437
498.204
473.092
445.216
432.11
456.435
502.618
549.653
597.448
645.915
694.975
744.554
794.581
844.986
895.7
946.649
997.756
1048.94
1100.11
1151.15
1201.96
1252.38
1302.25
1351.37
1399.48
1446.26
1491.18
1533.58
1573.38
1609.35
4915.96
14587.4
1599.31
1542.03
1479.1
1411.4
1339.72
1264.82
1187.42
1108.33
1028.41
948.593
869.79
793.595
722.291
658.418
604.511
562.594
533.492
516.356
508.862
508.055
511.229
516.368
522.138
527.743
532.744
536.905
540.103
542.27
543.374
543.396
542.328
540.167
536.916
532.578
527.162
520.685
513.159
504.573
507.94
522.986
536.435
548.271
558.485
567.075
574.062
579.491
583.444
586.045
587.48
587.999
587.931
587.673
587.666
588.346
590.066
593.01
597.118
602.071
607.317
612.169
615.907
617.873
617.528
614.476
608.456
599.322
587.022
571.568
553.017
531.459
507.002
479.767
470.301
498.094
544.276
591.162
638.661
686.689
735.17
784.033
833.214
882.652
932.285
982.051
1031.89
1081.72
1131.48
1181.07
1230.39
1279.33
1327.74
1375.42
1422.16
1467.64
1511.36
1552.64
1591.36
1626.16
2492.9
16670.5
1623.7
1567.39
1505.32
1438.37
1367.32
1292.88
1215.78
1136.78
1056.72
976.531
897.079
819.882
747.194
681.581
625.661
581.614
550.482
531.618
522.802
521.054
523.56
528.193
533.525
538.702
543.249
546.914
549.565
551.134
551.587
550.908
549.093
546.142
542.06
536.854
530.537
523.129
514.645
505.074
508.681
525.198
540.097
553.363
564.978
574.938
583.258
589.98
595.182
598.986
601.576
603.205
604.204
604.977
605.975
607.641
610.336
614.248
619.321
625.227
631.41
637.173
641.79
644.597
645.053
642.758
637.453
628.995
617.333
602.484
584.513
563.513
539.6
512.902
508.255
540.749
586.847
633.482
680.563
728.008
775.745
823.709
871.84
920.085
968.392
1016.71
1064.99
1113.18
1161.21
1209.03
1256.54
1303.66
1350.26
1396.19
1441.25
1485.17
1527.52
1567.57
1605.3
1639.39
1668.4
17600.8
1643.01
1588.66
1528.24
1462.7
1392.86
1319.45
1243.16
1164.72
1084.94
1004.74
924.949
846.979
773.043
705.734
647.76
601.477
568.17
547.437
537.194
534.446
536.266
540.392
545.294
550.047
554.138
557.296
559.382
560.327
560.098
558.684
556.085
552.306
547.357
541.249
533.999
525.632
516.163
505.585
509.425
527.418
543.779
558.488
571.523
582.873
592.549
600.586
607.056
612.079
615.837
618.583
620.652
622.456
624.452
627.094
630.751
635.612
641.62
648.439
655.504
662.109
667.517
671.061
672.197
670.527
665.793
657.858
646.678
632.277
614.726
594.128
570.609
544.305
545.99
584.786
630.719
676.997
723.531
770.24
817.055
863.917
910.772
957.572
1004.28
1050.85
1097.25
1143.43
1189.37
1235.01
1280.29
1325.14
1369.48
1413.19
1456.1
1497.99
1538.58
1577.08
1613.68
1647.29
1676.88
18017.4
1657.04
1605.32
1547.16
1483.63
1415.62
1343.86
1269
1191.72
1112.78
1033.06
953.37
874.979
800.034
731.142
671.105
622.469
586.804
564.004
552.169
548.315
549.398
553.005
557.485
561.826
565.467
568.114
569.62
569.914
568.968
566.776
563.346
558.691
552.826
545.771
537.549
528.188
517.71
506.104
510.172
529.653
547.499
563.683
578.181
590.975
602.065
611.48
619.283
625.588
630.569
634.479
637.652
640.502
643.495
647.092
651.669
657.42
664.285
671.923
679.759
687.077
693.133
697.257
698.902
697.675
693.324
685.718
674.821
660.667
643.338
622.949
599.635
575.238
585.287
630.732
676.414
722.226
768.077
813.888
859.592
905.134
950.468
995.555
1040.36
1084.85
1129.01
1172.81
1216.23
1259.25
1301.83
1343.93
1385.51
1426.48
1466.74
1506.11
1544.39
1580.99
1615.73
1648.33
1677.62
16743.5
1663.63
1615.55
1560.38
1499.6
1434.2
1364.88
1292.26
1216.95
1139.61
1061.05
982.062
903.761
828.191
757.967
695.984
645
606.906
581.944
568.446
563.451
563.785
566.861
570.889
574.763
577.877
579.919
580.737
580.266
578.488
575.405
571.037
565.405
558.537
550.46
541.203
530.802
519.28
506.629
510.911
531.867
551.196
568.871
584.857
599.127
611.669
622.5
631.671
639.286
645.513
650.601
654.89
658.796
662.796
667.357
672.861
679.501
687.21
695.636
704.186
712.131
718.719
723.274
725.253
724.268
720.077
712.562
701.701
687.543
670.184
649.755
626.407
612.621
633.691
679.045
724.395
769.633
814.666
859.418
903.824
947.832
991.4
1034.5
1077.1
1119.19
1160.75
1201.77
1242.25
1282.19
1321.57
1360.39
1398.64
1436.28
1473.25
1509.47
1544.77
1578.7
1611.11
1641.87
1669.95
13854.3
4443.21
1619.69
1566.94
1509.23
1447.16
1381.22
1311.86
1239.54
1164.82
1088.37
1010.94
933.467
857.844
786.652
722.866
669.469
628.724
601.301
585.846
579.485
578.932
581.414
584.971
588.382
590.975
592.406
592.511
591.23
588.553
584.5
579.105
572.408
564.452
555.276
544.924
533.439
520.852
507.152
511.649
534.107
554.985
574.25
591.86
607.775
621.965
634.429
645.197
654.351
662.04
668.495
674.043
679.095
684.126
689.612
695.941
703.313
711.659
720.617
729.589
737.836
744.609
749.237
751.189
750.089
745.71
737.95
726.801
712.328
694.644
673.894
650.245
650.028
685.279
730.457
775.363
819.889
863.946
907.458
950.364
992.619
1034.18
1075.04
1115.16
1154.54
1193.17
1231.06
1268.21
1304.64
1340.35
1375.37
1409.7
1443.35
1476.32
1508.57
1540.05
1570.41
1599.55
1627.45
1653.35
10576.3
7774.44
1615.89
1566.05
1511.95
1453.87
1392.07
1326.83
1258.45
1187.32
1113.99
1039.11
963.459
888.681
817.289
752.301
696.914
653.777
624.045
606.747
599.12
597.746
599.623
602.599
605.331
607.1
607.561
606.574
604.103
600.168
594.812
588.092
580.07
570.805
560.356
548.776
536.12
522.421
507.667
512.338
536.179
558.508
579.302
598.503
616.045
631.874
645.955
658.29
668.94
678.041
685.825
692.626
698.864
704.989
711.456
718.649