/*--------------------------------*- C++ -*----------------------------------*\
  =========                 |
  \\      /  F ield         | OpenFOAM: The Open Source CFD Toolbox
   \\    /   O peration     | Website:  https://openfoam.org
    \\  /    A nd           | Version:  8
     \\/     M anipulation  |
\*---------------------------------------------------------------------------*/
FoamFile
{
    version     2.0;
    format      ascii;
    class       volScalarField;
    location    "880/fluid";
    object      rho;
}
// * * * * * * * * * * * * * * * * * * * * * * * * * * * * * * * * * * * * * //

dimensions      [1 -3 0 0 0 0 0];

internalField   nonuniform List<scalar> 
4000
(
0.658526
0.658499
0.658454
0.658379
0.658254
0.658046
0.657704
0.657146
0.656245
0.65481
0.652563
0.649113
0.643948
0.636445
0.62594
0.611852
0.593866
0.572106
0.547201
0.520195
0.492314
0.464712
0.438284
0.413603
0.390948
0.370377
0.351805
0.335074
0.319991
0.306364
0.294011
0.28277
0.272503
0.263092
0.254442
0.246453
0.239021
0.232087
0.225599
0.219514
0.213794
0.208409
0.203331
0.198539
0.194013
0.189738
0.185699
0.181887
0.178291
0.174907
0.171728
0.168752
0.16598
0.163415
0.161064
0.158939
0.157058
0.155471
0.154205
0.153267
0.152774
0.152841
0.154242
0.163124
0.173622
0.185954
0.200414
0.217396
0.237415
0.26114
0.289444
0.323448
0.364594
0.414834
0.476537
0.551873
0.641986
0.745272
0.855184
0.959809
1.04611
1.10708
1.14444
1.16475
1.17493
1.17979
1.18203
1.18304
1.18348
1.18368
1.18376
1.1838
1.18381
1.18382
1.18382
1.18382
1.18382
1.18382
1.18382
1.18382
0.658526
0.658499
0.658454
0.658379
0.658253
0.658045
0.657701
0.65714
0.656236
0.654799
0.652553
0.649115
0.643984
0.636554
0.626178
0.612289
0.594571
0.573122
0.548527
0.52178
0.494074
0.466549
0.44011
0.415349
0.39257
0.371852
0.353128
0.336247
0.321025
0.307271
0.294803
0.28346
0.273102
0.263611
0.254888
0.246837
0.239351
0.232368
0.225836
0.219712
0.213957
0.20854
0.203434
0.198616
0.194067
0.189771
0.185713
0.181884
0.178274
0.174876
0.171685
0.1687
0.165919
0.163347
0.160989
0.158859
0.156974
0.155384
0.154117
0.153178
0.152686
0.152761
0.154913
0.163959
0.174653
0.187226
0.201989
0.219358
0.239876
0.264252
0.293406
0.328529
0.371148
0.423337
0.487505
0.565712
0.658694
0.763962
0.873772
0.975567
1.0572
1.11356
1.14764
1.16618
1.17552
1.18002
1.18212
1.18307
1.1835
1.18368
1.18376
1.1838
1.18381
1.18382
1.18382
1.18382
1.18382
1.18382
1.18382
1.18382
0.658526
0.658499
0.658454
0.658379
0.658252
0.658043
0.657698
0.657136
0.65623
0.654791
0.652547
0.649119
0.644014
0.63664
0.626361
0.612622
0.595107
0.573902
0.549566
0.523058
0.495541
0.468135
0.441744
0.416971
0.394132
0.373323
0.35449
0.337493
0.322155
0.308288
0.295714
0.284273
0.273823
0.264247
0.255446
0.247325
0.239776
0.232735
0.226149
0.219975
0.214174
0.208715
0.20357
0.198716
0.194135
0.189808
0.185723
0.181869
0.178236
0.174818
0.17161
0.168608
0.165814
0.163229
0.160862
0.158724
0.156833
0.155242
0.153975
0.153041
0.152559
0.152649
0.156122
0.165392
0.176372
0.189304
0.204519
0.222454
0.243684
0.26896
0.299253
0.33581
0.380231
0.434667
0.50145
0.582362
0.677547
0.783582
0.891857
0.989865
1.06678
1.11906
1.15044
1.16749
1.1761
1.18027
1.18222
1.18311
1.18351
1.18369
1.18376
1.1838
1.18381
1.18382
1.18382
1.18382
1.18382
1.18382
1.18382
1.18382
0.658526
0.658499
0.658454
0.658379
0.658253
0.658044
0.6577
0.65714
0.656239
0.654811
0.652585
0.649191
0.644141
0.636851
0.626695
0.61312
0.595804
0.574818
0.550695
0.524367
0.496976
0.469637
0.443257
0.418448
0.395542
0.374646
0.355716
0.338618
0.323181
0.309218
0.296553
0.285026
0.274496
0.264845
0.255974
0.247789
0.240181
0.233085
0.226447
0.220225
0.214379
0.208877
0.203693
0.198802
0.194185
0.189826
0.185712
0.181831
0.178174
0.174734
0.171506
0.168488
0.165679
0.163083
0.160706
0.158562
0.156668
0.155081
0.153822
0.152898
0.152431
0.152547
0.157651
0.167169
0.178472
0.191812
0.207536
0.226106
0.248126
0.274385
0.305898
0.343963
0.390258
0.446985
0.51637
0.599906
0.697153
0.803792
0.91042
1.00463
1.07684
1.12501
1.15358
1.16902
1.17681
1.18059
1.18236
1.18317
1.18354
1.1837
1.18377
1.1838
1.18381
1.18382
1.18382
1.18382
1.18382
1.18382
1.18382
1.18382
0.658526
0.658499
0.658454
0.658379
0.658254
0.658046
0.657704
0.657148
0.656253
0.654835
0.652629
0.649265
0.644265
0.63705
0.627
0.613564
0.596419
0.575618
0.551673
0.525496
0.498212
0.470929
0.444556
0.419716
0.396751
0.37578
0.356766
0.339582
0.324059
0.310014
0.297272
0.285672
0.275073
0.265358
0.256426
0.248185
0.240526
0.233381
0.226697
0.220431
0.214544
0.209003
0.203782
0.198856
0.194207
0.189819
0.185677
0.181771
0.178091
0.17463
0.171384
0.168351
0.16553
0.162925
0.160543
0.158395
0.156505
0.154931
0.153683
0.152775
0.152337
0.152508
0.159285
0.169052
0.180687
0.194452
0.210705
0.229929
0.252755
0.280007
0.312743
0.352305
0.400454
0.459412
0.531261
0.617187
0.716136
0.822934
0.927552
1.01789
1.08569
1.13018
1.1563
1.17035
1.17743
1.18087
1.18248
1.18322
1.18356
1.18371
1.18377
1.1838
1.18381
1.18382
1.18382
1.18382
1.18382
1.18382
1.18382
1.18382
0.658526
0.658499
0.658455
0.65838
0.658256
0.65805
0.657711
0.657159
0.656272
0.654868
0.652683
0.649353
0.644405
0.637266
0.627318
0.614013
0.597018
0.576375
0.552577
0.526517
0.499309
0.472058
0.445678
0.4208
0.397778
0.376736
0.357646
0.340387
0.324789
0.310674
0.297866
0.286203
0.275546
0.265775
0.256791
0.248503
0.2408
0.233612
0.226889
0.220585
0.214662
0.209087
0.203833
0.198877
0.1942
0.189785
0.185619
0.181691
0.177991
0.174513
0.171253
0.168209
0.16538
0.162771
0.160389
0.158247
0.156364
0.154806
0.153571
0.152685
0.152274
0.152481
0.160726
0.170773
0.182772
0.196983
0.213778
0.233656
0.257279
0.285501
0.319421
0.360426
0.410355
0.471429
0.545583
0.633688
0.734088
0.840824
0.94337
1.03003
1.09376
1.13492
1.15883
1.1716
1.17802
1.18114
1.1826
1.18328
1.18358
1.18372
1.18378
1.1838
1.18381
1.18382
1.18382
1.18382
1.18382
1.18382
1.18382
1.18382
0.658526
0.6585
0.658456
0.658382
0.658258
0.658054
0.657717
0.65717
0.656291
0.6549
0.652736
0.649439
0.644538
0.637466
0.627611
0.614419
0.597555
0.577046
0.553371
0.527407
0.500258
0.473028
0.446635
0.421719
0.398641
0.377536
0.358378
0.341051
0.325389
0.311212
0.298346
0.28663
0.275923
0.266105
0.257077
0.248748
0.241007
0.233784
0.227027
0.22069
0.214736
0.209132
0.203851
0.198869
0.194168
0.189731
0.185544
0.181597
0.177881
0.174391
0.17112
0.168069
0.165238
0.162631
0.160256
0.158128
0.156266
0.15475
0.153523
0.152692
0.152341
0.152605
0.161487
0.172058
0.184547
0.199266
0.216623
0.237151
0.261544
0.290694
0.325739
0.368112
0.419726
0.482778
0.559059
0.649115
0.750704
0.857149
0.957553
1.04073
1.10077
1.139
1.16099
1.17267
1.17853
1.18137
1.18271
1.18332
1.1836
1.18373
1.18378
1.1838
1.18381
1.18382
1.18382
1.18382
1.18382
1.18382
1.18382
1.18382
0.658526
0.6585
0.658456
0.658383
0.65826
0.658057
0.657724
0.657182
0.656311
0.654932
0.652787
0.64952
0.644664
0.637654
0.62788
0.614789
0.598037
0.577642
0.554068
0.52818
0.501075
0.473856
0.447445
0.422491
0.399361
0.378197
0.358979
0.341592
0.325874
0.311644
0.298728
0.286966
0.276216
0.266359
0.257294
0.24893
0.241157
0.233904
0.227118
0.220754
0.214774
0.209146
0.203842
0.198839
0.194117
0.189661
0.185458
0.181496
0.177768
0.174267
0.17099
0.167935
0.165104
0.162502
0.160138
0.15803
0.156208
0.154743
0.153592
0.152884
0.152729
0.153316
0.162508
0.173423
0.186296
0.201448
0.219306
0.240425
0.265527
0.295534
0.331621
0.375267
0.428447
0.493324
0.571538
0.663317
0.765864
0.871862
0.970158
1.05011
1.10687
1.14253
1.16287
1.17361
1.17898
1.18158
1.1828
1.18337
1.18362
1.18373
1.18378
1.18381
1.18381
1.18382
1.18382
1.18382
1.18382
1.18382
1.18382
1.18382
0.658526
0.6585
0.658457
0.658384
0.658262
0.658061
0.65773
0.657192
0.656328
0.654961
0.652835
0.649594
0.644777
0.637822
0.628119
0.615114
0.598459
0.57816
0.554669
0.528843
0.501771
0.474556
0.448126
0.423134
0.399958
0.378741
0.35947
0.342031
0.326263
0.311987
0.299029
0.287228
0.276442
0.266551
0.257454
0.249061
0.241261
0.233982
0.227172
0.220786
0.214784
0.209136
0.203813
0.198792
0.194054
0.189583
0.185366
0.181393
0.177655
0.174147
0.170865
0.167808
0.164978
0.162381
0.160029
0.157938
0.156147
0.154717
0.15362
0.152991
0.152961
0.154134
0.163593
0.174797
0.187994
0.20352
0.22182
0.243468
0.269208
0.299994
0.337032
0.38185
0.43647
0.503008
0.58296
0.676243
0.779539
0.884971
0.981229
1.05823
1.11209
1.14554
1.16446
1.1744
1.17936
1.18175
1.18288
1.1834
1.18364
1.18374
1.18379
1.18381
1.18382
1.18382
1.18382
1.18382
1.18382
1.18382
1.18382
1.18382
0.658526
0.6585
0.658457
0.658385
0.658264
0.658064
0.657736
0.657202
0.656345
0.654988
0.652877
0.649661
0.644878
0.63797
0.628329
0.615398
0.598824
0.578605
0.555184
0.529406
0.502358
0.475143
0.448693
0.423667
0.400448
0.379185
0.359866
0.342382
0.326572
0.312257
0.299263
0.287428
0.276612
0.266692
0.257569
0.249152
0.241329
0.234029
0.227199
0.220794
0.214775
0.20911
0.203772
0.198736
0.193985
0.189502
0.185275
0.181292
0.177547
0.174033
0.170747
0.167688
0.164859
0.162265
0.159918
0.157835
0.156056
0.154637
0.153545
0.152912
0.152852
0.155067
0.164719
0.17615
0.189615
0.205462
0.224147
0.246262
0.272573
0.304059
0.341954
0.387833
0.443754
0.511786
0.593286
0.687871
0.79174
0.896538
0.990874
1.06523
1.11655
1.14809
1.16581
1.17507
1.17968
1.1819
1.18295
1.18343
1.18365
1.18375
1.18379
1.18381
1.18382
1.18382
1.18382
1.18382
1.18382
1.18382
1.18382
1.18382
0.658526
0.658501
0.658458
0.658386
0.658266
0.658068
0.657741
0.657211
0.656359
0.655011
0.652914
0.649719
0.644966
0.638099
0.62851
0.615642
0.599136
0.578984
0.555619
0.52988
0.50285
0.475632
0.449162
0.424105
0.400848
0.379544
0.360185
0.342663
0.326816
0.312468
0.299443
0.28758
0.276738
0.266795
0.257649
0.249212
0.241371
0.234053
0.227207
0.220786
0.214753
0.209075
0.203723
0.198676
0.193915
0.189422
0.185187
0.181197
0.177446
0.173928
0.170639
0.16758
0.164751
0.162159
0.159815
0.157735
0.155963
0.154548
0.15346
0.152827
0.152761
0.155993
0.165802
0.177423
0.191117
0.207242
0.226264
0.248792
0.275609
0.307719
0.34638
0.393211
0.4503
0.519665
0.602528
0.698226
0.802523
0.906651
0.999206
1.07121
1.12032
1.15024
1.16694
1.17563
1.17995
1.18203
1.18301
1.18346
1.18366
1.18375
1.18379
1.18381
1.18382
1.18382
1.18382
1.18382
1.18382
1.18382
1.18382
1.18382
0.658526
0.658501
0.658458
0.658387
0.658268
0.65807
0.657746
0.657219
0.656372
0.655032
0.652947
0.649769
0.645042
0.638209
0.628664
0.615848
0.599399
0.579302
0.555983
0.530275
0.503257
0.476035
0.449547
0.424462
0.401171
0.379833
0.360439
0.342884
0.327007
0.31263
0.29958
0.287694
0.27683
0.266867
0.257704
0.24925
0.241393
0.234061
0.227202
0.220769
0.214724
0.209035
0.203673
0.198617
0.193847
0.189348
0.185106
0.181111
0.177356
0.173835
0.170545
0.167485
0.164657
0.162068
0.159728
0.157654
0.155887
0.154476
0.153391
0.15276
0.152692
0.156831
0.166783
0.178571
0.192467
0.208835
0.228153
0.251043
0.278305
0.310963
0.3503
0.39798
0.456108
0.526649
0.610701
0.707343
0.81195
0.915413
1.00635
1.07628
1.1235
1.15205
1.16789
1.1761
1.18017
1.18213
1.18305
1.18348
1.18367
1.18376
1.18379
1.18381
1.18382
1.18382
1.18382
1.18382
1.18382
1.18382
1.18382
1.18382
0.658526
0.658501
0.658459
0.658388
0.658269
0.658072
0.65775
0.657225
0.656383
0.655049
0.652974
0.649811
0.645105
0.638302
0.628793
0.616021
0.599619
0.579567
0.556285
0.530601
0.503592
0.476365
0.449859
0.42475
0.401432
0.380063
0.360641
0.343058
0.327155
0.312755
0.299684
0.287778
0.276897
0.266918
0.25774
0.249272
0.241403
0.23406
0.22719
0.220747
0.214692
0.208994
0.203625
0.198562
0.193786
0.189281
0.185035
0.181037
0.177279
0.173757
0.170466
0.167407
0.164581
0.161995
0.159659
0.157588
0.155826
0.154421
0.15334
0.15271
0.152641
0.157556
0.167638
0.179577
0.19365
0.210229
0.229804
0.253009
0.280661
0.313799
0.353731
0.402156
0.461196
0.532761
0.617837
0.715271
0.820096
0.92292
1.01241
1.08054
1.12616
1.15355
1.16868
1.17649
1.18036
1.18222
1.18309
1.1835
1.18368
1.18376
1.18379
1.18381
1.18382
1.18382
1.18382
1.18382
1.18382
1.18382
1.18382
1.18382
0.658526
0.658501
0.658459
0.658388
0.65827
0.658074
0.657753
0.657231
0.656392
0.655064
0.652997
0.649847
0.645158
0.638378
0.628901
0.616164
0.5998
0.579784
0.556532
0.530866
0.503864
0.476631
0.450111
0.424981
0.401639
0.380245
0.360799
0.343193
0.327269
0.31285
0.299761
0.28784
0.276945
0.266953
0.257763
0.249284
0.241405
0.234053
0.227174
0.220723
0.214662
0.208957
0.203582
0.198514
0.193733
0.189224
0.184975
0.180974
0.177216
0.173693
0.170403
0.167346
0.164523
0.16194
0.159607
0.157541
0.155784
0.154383
0.153305
0.152677
0.152604
0.158171
0.168369
0.18044
0.194666
0.211429
0.231226
0.254703
0.28269
0.316243
0.356687
0.405756
0.465581
0.538026
0.623974
0.722066
0.82704
0.929273
1.0175
1.0841
1.12836
1.15479
1.16933
1.17681
1.18051
1.18229
1.18313
1.18351
1.18368
1.18376
1.1838
1.18381
1.18382
1.18382
1.18382
1.18382
1.18382
1.18382
1.18382
1.18382
0.658526
0.658501
0.658459
0.658389
0.658271
0.658076
0.657756
0.657235
0.656399
0.655076
0.653016
0.649876
0.645202
0.638441
0.628988
0.61628
0.599947
0.57996
0.55673
0.531079
0.504082
0.476843
0.450311
0.425164
0.401801
0.380388
0.360922
0.343297
0.327356
0.312922
0.29982
0.287886
0.276979
0.266977
0.257777
0.249291
0.241404
0.234044
0.227159
0.220702
0.214635
0.208925
0.203546
0.198474
0.19369
0.189178
0.184927
0.180926
0.177167
0.173645
0.170357
0.167302
0.164481
0.161901
0.159572
0.15751
0.15576
0.154362
0.153286
0.152656
0.15258
0.158678
0.168981
0.181166
0.195525
0.212444
0.232429
0.256136
0.284406
0.318309
0.359187
0.408802
0.46929
0.542477
0.629156
0.727787
0.83286
0.934564
1.02171
1.08702
1.13016
1.15579
1.16985
1.17707
1.18064
1.18235
1.18315
1.18352
1.18369
1.18376
1.1838
1.18381
1.18382
1.18382
1.18382
1.18382
1.18382
1.18382
1.18382
1.18382
0.658526
0.658501
0.658459
0.658389
0.658272
0.658077
0.657758
0.657239
0.656405
0.655085
0.653031
0.649899
0.645237
0.638491
0.629057
0.616372
0.600063
0.580099
0.556887
0.531247
0.504252
0.47701
0.450467
0.425306
0.401927
0.380498
0.361015
0.343376
0.327422
0.312976
0.299863
0.287919
0.277004
0.266994
0.257787
0.249294
0.241401
0.234036
0.227146
0.220685
0.214614
0.208901
0.203518
0.198443
0.193657
0.189144
0.184893
0.180891
0.177133
0.173612
0.170326
0.167272
0.164455
0.161879
0.159555
0.157497
0.155751
0.154356
0.153282
0.152649
0.152567
0.159092
0.169484
0.181766
0.196236
0.213284
0.233425
0.257322
0.285825
0.320016
0.361252
0.411317
0.472351
0.546149
0.633424
0.732487
0.837622
0.938873
1.02512
1.08938
1.1316
1.1566
1.17027
1.17728
1.18074
1.1824
1.18318
1.18353
1.18369
1.18377
1.1838
1.18381
1.18382
1.18382
1.18382
1.18382
1.18382
1.18382
1.18382
1.18382
0.658526
0.658502
0.65846
0.658389
0.658272
0.658078
0.65776
0.657242
0.65641
0.655093
0.653043
0.649917
0.645263
0.63853
0.629111
0.616443
0.600152
0.580205
0.557007
0.531375
0.504382
0.477136
0.450585
0.425413
0.402022
0.38058
0.361086
0.343435
0.327471
0.313016
0.299894
0.287944
0.277022
0.267006
0.257794
0.249297
0.2414
0.234031
0.227137
0.220673
0.214599
0.208884
0.203499
0.198423
0.193636
0.189123
0.184871
0.18087
0.177112
0.173593
0.170309
0.167258
0.164445
0.161873
0.159552
0.157499
0.155756
0.154364
0.153289
0.152652
0.15256
0.159418
0.169885
0.182248
0.196807
0.21396
0.234225
0.258272
0.286959
0.321379
0.362898
0.41332
0.474787
0.549067
0.636809
0.736204
0.841377
0.942257
1.02779
1.09122
1.13273
1.15723
1.1706
1.17745
1.18082
1.18243
1.18319
1.18354
1.1837
1.18377
1.1838
1.18381
1.18382
1.18382
1.18382
1.18382
1.18382
1.18382
1.18382
1.18382
0.658526
0.658502
0.65846
0.65839
0.658273
0.658079
0.657761
0.657244
0.656413
0.655098
0.653051
0.64993
0.645283
0.638558
0.629149
0.616494
0.600217
0.580282
0.557094
0.531467
0.504476
0.477226
0.450669
0.425489
0.40209
0.380638
0.361135
0.343477
0.327506
0.313044
0.299917
0.287961
0.277035
0.267015
0.2578
0.2493
0.2414
0.234029
0.227133
0.220667
0.214591
0.208874
0.203489
0.198412
0.193624
0.189111
0.184859
0.180859
0.177103
0.173586
0.170305
0.167258
0.164447
0.161879
0.159562
0.157512
0.155773
0.154382
0.153305
0.152661
0.152557
0.15966
0.170189
0.182617
0.197245
0.214477
0.234835
0.258994
0.287819
0.322409
0.364139
0.414826
0.476615
0.551251
0.639337
0.738971
0.84416
0.944755
1.02975
1.09257
1.13356
1.1577
1.17085
1.17757
1.18088
1.18246
1.1832
1.18355
1.1837
1.18377
1.1838
1.18381
1.18382
1.18382
1.18382
1.18382
1.18382
1.18382
1.18382
1.18382
0.658526
0.658502
0.65846
0.65839
0.658273
0.65808
0.657762
0.657245
0.656415
0.655102
0.653057
0.649939
0.645295
0.638576
0.629175
0.616528
0.600258
0.580332
0.55715
0.531527
0.504536
0.477285
0.450724
0.425539
0.402133
0.380676
0.361167
0.343504
0.327528
0.313062
0.299931
0.287973
0.277044
0.267022
0.257805
0.249303
0.241402
0.23403
0.227133
0.220665
0.214589
0.208871
0.203485
0.198408
0.19362
0.189108
0.184857
0.180858
0.177104
0.173589
0.17031
0.167266
0.164459
0.161894
0.159581
0.157535
0.155797
0.154406
0.153327
0.152676
0.152555
0.159818
0.170398
0.182873
0.197551
0.214836
0.235257
0.25949
0.288407
0.323109
0.364978
0.415841
0.477841
0.552711
0.641019
0.740805
0.845993
0.946391
1.03103
1.09345
1.1341
1.158
1.171
1.17764
1.18091
1.18248
1.18321
1.18355
1.1837
1.18377
1.1838
1.18381
1.18382
1.18382
1.18382
1.18382
1.18382
1.18382
1.18382
1.18382
0.658526
0.658502
0.65846
0.65839
0.658273
0.65808
0.657762
0.657246
0.656416
0.655103
0.65306
0.649943
0.645301
0.638585
0.629186
0.616543
0.600278
0.580355
0.557176
0.531555
0.504565
0.477312
0.45075
0.425562
0.402154
0.380694
0.361183
0.343517
0.327539
0.313071
0.299938
0.287978
0.277048
0.267025
0.257808
0.249305
0.241404
0.234031
0.227134
0.220666
0.214589
0.208872
0.203486
0.198408
0.193621
0.189109
0.184859
0.180862
0.177109
0.173595
0.170318
0.167277
0.164472
0.16191
0.1596
0.157556
0.15582
0.15443
0.153348
0.15269
0.152554
0.159906
0.170515
0.183015
0.197717
0.21503
0.23548
0.25975
0.28871
0.323466
0.365402
0.416349
0.478448
0.553427
0.641837
0.741689
0.84687
0.947165
1.03163
1.09386
1.13435
1.15814
1.17108
1.17768
1.18093
1.18249
1.18322
1.18355
1.1837
1.18377
1.1838
1.18381
1.18382
1.18382
1.18382
1.18382
1.18382
1.18382
1.18382
1.18382
0.658526
0.658502
0.65846
0.65839
0.658273
0.65808
0.657762
0.657246
0.656416
0.655103
0.65306
0.649943
0.645301
0.638584
0.629186
0.616543
0.600278
0.580355
0.557176
0.531555
0.504564
0.477312
0.45075
0.425562
0.402154
0.380694
0.361183
0.343517
0.327539
0.313071
0.299938
0.287978
0.277048
0.267025
0.257807
0.249305
0.241404
0.234031
0.227134
0.220666
0.214589
0.208872
0.203485
0.198408
0.193621
0.189109
0.184859
0.180862
0.177109
0.173595
0.170318
0.167277
0.164472
0.16191
0.1596
0.157556
0.15582
0.15443
0.153349
0.15269
0.152556
0.159906
0.170515
0.183015
0.197717
0.21503
0.23548
0.25975
0.28871
0.323466
0.365402
0.416348
0.478448
0.553427
0.641837
0.741688
0.84687
0.947165
1.03163
1.09386
1.13435
1.15814
1.17108
1.17768
1.18093
1.18249
1.18322
1.18355
1.1837
1.18377
1.1838
1.18381
1.18382
1.18382
1.18382
1.18382
1.18382
1.18382
1.18382
1.18382
0.658526
0.658502
0.65846
0.65839
0.658273
0.65808
0.657762
0.657245
0.656415
0.655102
0.653057
0.649939
0.645295
0.638576
0.629174
0.616527
0.600258
0.580331
0.557149
0.531527
0.504536
0.477284
0.450724
0.425538
0.402133
0.380676
0.361167
0.343504
0.327528
0.313062
0.299931
0.287973
0.277043
0.267022
0.257805
0.249303
0.241402
0.23403
0.227132
0.220665
0.214589
0.208871
0.203485
0.198408
0.19362
0.189107
0.184857
0.180858
0.177104
0.173589
0.17031
0.167266
0.164459
0.161894
0.159581
0.157535
0.155797
0.154407
0.153327
0.152676
0.152556
0.159818
0.170398
0.182873
0.19755
0.214836
0.235256
0.25949
0.288406
0.323109
0.364978
0.415841
0.477841
0.55271
0.641019
0.740804
0.845993
0.94639
1.03103
1.09345
1.1341
1.158
1.171
1.17764
1.18091
1.18248
1.18321
1.18355
1.1837
1.18377
1.1838
1.18381
1.18382
1.18382
1.18382
1.18382
1.18382
1.18382
1.18382
1.18382
0.658526
0.658502
0.65846
0.65839
0.658273
0.658079
0.657761
0.657244
0.656413
0.655098
0.653051
0.64993
0.645283
0.638558
0.629149
0.616494
0.600216
0.580281
0.557093
0.531467
0.504475
0.477226
0.450669
0.425489
0.402089
0.380638
0.361135
0.343477
0.327505
0.313044
0.299916
0.287961
0.277035
0.267015
0.2578
0.249299
0.2414
0.234029
0.227133
0.220666
0.214591
0.208874
0.203489
0.198411
0.193624
0.189111
0.184859
0.180859
0.177103
0.173586
0.170304
0.167258
0.164447
0.161879
0.159562
0.157513
0.155773
0.154382
0.153305
0.152661
0.152557
0.159659
0.170189
0.182616
0.197244
0.214476
0.234834
0.258993
0.287818
0.322408
0.364138
0.414825
0.476614
0.55125
0.639335
0.73897
0.844158
0.944753
1.02975
1.09257
1.13356
1.1577
1.17084
1.17757
1.18088
1.18246
1.1832
1.18355
1.1837
1.18377
1.1838
1.18381
1.18382
1.18382
1.18382
1.18382
1.18382
1.18382
1.18382
1.18382
0.658526
0.658502
0.65846
0.658389
0.658272
0.658078
0.65776
0.657242
0.65641
0.655093
0.653043
0.649917
0.645263
0.63853
0.62911
0.616443
0.600152
0.580204
0.557006
0.531375
0.504381
0.477135
0.450584
0.425412
0.402021
0.380579
0.361085
0.343435
0.327471
0.313016
0.299894
0.287943
0.277021
0.267005
0.257794
0.249296
0.2414
0.234031
0.227137
0.220673
0.214599
0.208883
0.203499
0.198423
0.193636
0.189122
0.18487
0.180869
0.177112
0.173593
0.170308
0.167258
0.164444
0.161872
0.159552
0.157498
0.155756
0.154363
0.153288
0.152651
0.15256
0.159417
0.169885
0.182248
0.196806
0.213959
0.234224
0.258271
0.286958
0.321378
0.362897
0.413318
0.474785
0.549064
0.636806
0.736201
0.841373
0.942254
1.02778
1.09122
1.13273
1.15723
1.1706
1.17745
1.18082
1.18243
1.18319
1.18354
1.1837
1.18377
1.1838
1.18381
1.18382
1.18382
1.18382
1.18382
1.18382
1.18382
1.18382
1.18382
0.658526
0.658501
0.658459
0.658389
0.658272
0.658077
0.657758
0.657239
0.656405
0.655085
0.653031
0.649899
0.645236
0.638491
0.629057
0.616372
0.600062
0.580098
0.556887
0.531246
0.504251
0.477009
0.450466
0.425305
0.401927
0.380497
0.361015
0.343376
0.327422
0.312976
0.299862
0.287919
0.277003
0.266993
0.257786
0.249293
0.241401
0.234036
0.227145
0.220684
0.214613
0.2089
0.203518
0.198443
0.193657
0.189144
0.184892
0.180891
0.177133
0.173612
0.170325
0.167272
0.164455
0.161879
0.159554
0.157497
0.15575
0.154356
0.153281
0.152649
0.152567
0.159092
0.169483
0.181766
0.196235
0.213283
0.233424
0.25732
0.285823
0.320015
0.36125
0.411314
0.472348
0.546145
0.63342
0.732482
0.837618
0.938869
1.02511
1.08938
1.1316
1.1566
1.17027
1.17728
1.18074
1.1824
1.18318
1.18353
1.18369
1.18377
1.1838
1.18381
1.18382
1.18382
1.18382
1.18382
1.18382
1.18382
1.18382
1.18382
0.658526
0.658501
0.658459
0.658389
0.658271
0.658076
0.657756
0.657235
0.656399
0.655076
0.653016
0.649876
0.645202
0.638441
0.628987
0.61628
0.599946
0.579959
0.55673
0.531078
0.504081
0.476842
0.45031
0.425163
0.401801
0.380387
0.360921
0.343296
0.327356
0.312922
0.299819
0.287885
0.276978
0.266976
0.257777
0.24929
0.241403
0.234044
0.227158
0.220701
0.214634
0.208925
0.203545
0.198473
0.193689
0.189178
0.184926
0.180925
0.177167
0.173645
0.170357
0.167301
0.16448
0.161901
0.159572
0.15751
0.155759
0.154361
0.153286
0.152656
0.152579
0.158678
0.16898
0.181165
0.195524
0.212443
0.232428
0.256135
0.284404
0.318307
0.359184
0.408799
0.469286
0.542473
0.629151
0.727781
0.832854
0.934558
1.0217
1.08702
1.13016
1.15579
1.16985
1.17707
1.18064
1.18235
1.18315
1.18352
1.18369
1.18376
1.1838
1.18381
1.18382
1.18382
1.18382
1.18382
1.18382
1.18382
1.18382
1.18382
0.658526
0.658501
0.658459
0.658388
0.65827
0.658074
0.657753
0.657231
0.656392
0.655064
0.652997
0.649847
0.645158
0.638378
0.6289
0.616164
0.599799
0.579783
0.556531
0.530865
0.503863
0.47663
0.45011
0.42498
0.401638
0.380244
0.360798
0.343192
0.327268
0.31285
0.299761
0.28784
0.276944
0.266952
0.257762
0.249284
0.241405
0.234052
0.227173
0.220722
0.214661
0.208957
0.203581
0.198513
0.193732
0.189223
0.184974
0.180974
0.177215
0.173692
0.170403
0.167345
0.164522
0.161939
0.159606
0.15754
0.155784
0.154382
0.153305
0.152676
0.152603
0.15817
0.168368
0.180439
0.194665
0.211428
0.231225
0.254701
0.282688
0.31624
0.356684
0.405752
0.465576
0.53802
0.623968
0.722059
0.827033
0.929266
1.01749
1.0841
1.12836
1.15478
1.16932
1.17681
1.18051
1.18229
1.18313
1.18351
1.18368
1.18376
1.1838
1.18381
1.18382
1.18382
1.18382
1.18382
1.18382
1.18382
1.18382
1.18382
0.658526
0.658501
0.658459
0.658388
0.658269
0.658072
0.65775
0.657225
0.656383
0.655049
0.652974
0.649811
0.645105
0.638301
0.628793
0.616021
0.599618
0.579566
0.556284
0.530599
0.503591
0.476363
0.449858
0.424749
0.40143
0.380062
0.36064
0.343057
0.327154
0.312754
0.299683
0.287777
0.276896
0.266917
0.257739
0.249271
0.241402
0.234059
0.227189
0.220746
0.214692
0.208994
0.203625
0.198561
0.193785
0.18928
0.185034
0.181036
0.177278
0.173756
0.170465
0.167406
0.16458
0.161994
0.159658
0.157587
0.155825
0.15442
0.153339
0.15271
0.15264
0.157555
0.167637
0.179576
0.193649
0.210228
0.229802
0.253007
0.280658
0.313796
0.353727
0.402152
0.461191
0.532755
0.61783
0.715263
0.820088
0.922912
1.0124
1.08054
1.12615
1.15355
1.16868
1.17649
1.18036
1.18222
1.18309
1.1835
1.18368
1.18376
1.18379
1.18381
1.18382
1.18382
1.18382
1.18382
1.18382
1.18382
1.18382
1.18382
0.658526
0.658501
0.658458
0.658387
0.658268
0.65807
0.657746
0.657219
0.656372
0.655032
0.652947
0.649769
0.645041
0.638209
0.628663
0.615848
0.599398
0.579301
0.555982
0.530273
0.503256
0.476033
0.449545
0.42446
0.40117
0.379831
0.360438
0.342883
0.327006
0.312629
0.299579
0.287693
0.276829
0.266866
0.257703
0.249249
0.241392
0.234061
0.227201
0.220768
0.214723
0.209034
0.203672
0.198616
0.193846
0.189347
0.185105
0.18111
0.177355
0.173834
0.170544
0.167484
0.164656
0.162067
0.159727
0.157653
0.155885
0.154475
0.15339
0.152759
0.152691
0.15683
0.166782
0.17857
0.192466
0.208834
0.228151
0.25104
0.278302
0.310959
0.350296
0.397975
0.456102
0.526642
0.610692
0.707333
0.81194
0.915404
1.00634
1.07627
1.1235
1.15205
1.16789
1.1761
1.18017
1.18213
1.18305
1.18348
1.18367
1.18376
1.18379
1.18381
1.18382
1.18382
1.18382
1.18382
1.18382
1.18382
1.18382
1.18382
0.658526
0.658501
0.658458
0.658386
0.658266
0.658068
0.657741
0.657211
0.656359
0.655011
0.652914
0.649719
0.644966
0.638099
0.628509
0.615641
0.599135
0.578983
0.555617
0.529878
0.502848
0.47563
0.44916
0.424103
0.400846
0.379542
0.360184
0.342661
0.326815
0.312466
0.299442
0.287579
0.276737
0.266793
0.257648
0.249211
0.24137
0.234052
0.227206
0.220785
0.214752
0.209074
0.203722
0.198675
0.193914
0.189421
0.185186
0.181196
0.177445
0.173927
0.170638
0.167578
0.16475
0.162158
0.159814
0.157734
0.155962
0.154547
0.153459
0.152826
0.15276
0.155992
0.165801
0.177421
0.191116
0.20724
0.226261
0.248789
0.275606
0.307715
0.346375
0.393206
0.450293
0.519657
0.602518
0.698215
0.802512
0.906641
0.999197
1.0712
1.12032
1.15024
1.16694
1.17563
1.17995
1.18203
1.18301
1.18346
1.18366
1.18375
1.18379
1.18381
1.18382
1.18382
1.18382
1.18382
1.18382
1.18382
1.18382
1.18382
0.658526
0.6585
0.658457
0.658385
0.658264
0.658064
0.657736
0.657202
0.656345
0.654988
0.652877
0.649661
0.644878
0.63797
0.628328
0.615397
0.598823
0.578604
0.555182
0.529404
0.502356
0.475141
0.448691
0.423665
0.400446
0.379183
0.359865
0.342381
0.326571
0.312256
0.299262
0.287427
0.27661
0.266691
0.257567
0.249151
0.241328
0.234028
0.227198
0.220793
0.214774
0.209109
0.20377
0.198735
0.193984
0.189501
0.185273
0.181291
0.177546
0.174032
0.170746
0.167687
0.164858
0.162264
0.159917
0.157833
0.156055
0.154635
0.153544
0.152911
0.15285
0.155066
0.164718
0.176148
0.189613
0.20546
0.224144
0.246259
0.27257
0.304054
0.341949
0.387827
0.443747
0.511778
0.593276
0.68786
0.791728
0.896527
0.990865
1.06522
1.11654
1.14809
1.16581
1.17507
1.17968
1.1819
1.18295
1.18343
1.18365
1.18375
1.18379
1.18381
1.18382
1.18382
1.18382
1.18382
1.18382
1.18382
1.18382
1.18382
0.658526
0.6585
0.658457
0.658384
0.658262
0.658061
0.65773
0.657192
0.656328
0.654961
0.652834
0.649594
0.644777
0.637822
0.628118
0.615113
0.598457
0.578158
0.554668
0.528841
0.501768
0.474554
0.448123
0.423132
0.399956
0.378739
0.359468
0.342029
0.326261
0.311986
0.299028
0.287226
0.27644
0.266549
0.257452
0.24906
0.24126
0.233981
0.227171
0.220784
0.214783
0.209135
0.203812
0.198791
0.194053
0.189582
0.185365
0.181392
0.177654
0.174146
0.170864
0.167806
0.164977
0.16238
0.160028
0.157937
0.156146
0.154715
0.153618
0.15299
0.152959
0.154132
0.163591
0.174795
0.187992
0.203518
0.221817
0.243465
0.269205
0.29999
0.337027
0.381844
0.436463
0.502999
0.58295
0.676231
0.779526
0.884959
0.981219
1.05823
1.11208
1.14554
1.16446
1.1744
1.17936
1.18175
1.18288
1.1834
1.18364
1.18374
1.18379
1.18381
1.18382
1.18382
1.18382
1.18382
1.18382
1.18382
1.18382
1.18382
0.658526
0.6585
0.658456
0.658383
0.65826
0.658057
0.657724
0.657182
0.65631
0.654932
0.652787
0.64952
0.644663
0.637654
0.627879
0.614788
0.598035
0.57764
0.554066
0.528178
0.501073
0.473853
0.447443
0.422488
0.399359
0.378195
0.358977
0.341591
0.325872
0.311642
0.298727
0.286965
0.276215
0.266358
0.257292
0.248929
0.241156
0.233902
0.227116
0.220753
0.214773
0.209144
0.20384
0.198837
0.194116
0.18966
0.185457
0.181495
0.177767
0.174266
0.170989
0.167934
0.165102
0.1625
0.160137
0.158029
0.156207
0.154741
0.153591
0.152882
0.152728
0.153314
0.162507
0.173422
0.186294
0.201446
0.219303
0.240422
0.265523
0.29553
0.331615
0.375261
0.42844
0.493315
0.571527
0.663305
0.765851
0.871849
0.970147
1.0501
1.10686
1.14253
1.16286
1.1736
1.17898
1.18158
1.1828
1.18337
1.18362
1.18373
1.18378
1.18381
1.18381
1.18382
1.18382
1.18382
1.18382
1.18382
1.18382
1.18382
0.658526
0.6585
0.658456
0.658382
0.658258
0.658054
0.657717
0.65717
0.656291
0.6549
0.652736
0.649438
0.644538
0.637466
0.62761
0.614418
0.597553
0.577044
0.553369
0.527404
0.500255
0.473025
0.446632
0.421717
0.398639
0.377533
0.358376
0.341049
0.325387
0.31121
0.298344
0.286628
0.275921
0.266104
0.257076
0.248747
0.241005
0.233782
0.227025
0.220689
0.214735
0.209131
0.20385
0.198868
0.194167
0.189729
0.185543
0.181596
0.17788
0.174389
0.171119
0.168068
0.165236
0.162629
0.160255
0.158127
0.156265
0.154748
0.153521
0.15269
0.152339
0.152603
0.161486
0.172056
0.184546
0.199264
0.21662
0.237148
0.26154
0.29069
0.325734
0.368106
0.419718
0.482769
0.559048
0.649102
0.75069
0.857135