/*--------------------------------*- C++ -*----------------------------------*\
  =========                 |
  \\      /  F ield         | OpenFOAM: The Open Source CFD Toolbox
   \\    /   O peration     | Website:  https://openfoam.org
    \\  /    A nd           | Version:  8
     \\/     M anipulation  |
\*---------------------------------------------------------------------------*/
FoamFile
{
    version     2.0;
    format      ascii;
    class       volScalarField;
    location    "880/fluid";
    object      T;
}
// * * * * * * * * * * * * * * * * * * * * * * * * * * * * * * * * * * * * * //

dimensions      [0 0 0 1 0 0 0];

internalField   nonuniform List<scalar> 
4000
(
293.004
293.017
293.039
293.076
293.138
293.241
293.41
293.687
294.136
294.852
295.982
297.732
300.394
304.346
310.062
318.08
328.952
343.166
361.065
382.783
408.238
437.168
469.201
503.927
540.958
579.959
620.662
662.858
706.39
751.136
796.997
843.88
891.693
940.328
989.665
1039.64
1090.27
1141.47
1193.14
1245.17
1297.47
1349.91
1402.39
1454.8
1506.99
1558.87
1610.28
1661.09
1711.16
1760.33
1808.42
1855.25
1900.59
1944.18
1985.72
2024.83
2061.03
2093.27
2120.93
2144.08
2160.6
2168.63
2157.19
2047.29
1930.33
1808.47
1683.46
1556.79
1429.76
1303.52
1179.18
1057.84
940.638
828.475
722.601
625.036
538.106
464.109
404.858
360.986
331.364
313.208
303.034
297.775
295.207
293.997
293.442
293.193
293.083
293.035
293.015
293.006
293.003
293.001
293
293
293
293
293
293
293.004
293.017
293.039
293.076
293.139
293.242
293.412
293.69
294.14
294.858
295.987
297.732
300.375
304.289
309.931
317.825
328.512
342.475
360.064
381.434
406.528
435.11
466.831
501.294
538.117
576.966
617.566
659.705
703.219
747.982
793.89
840.849
888.762
937.522
987.004
1037.13
1087.93
1139.32
1191.19
1243.43
1295.94
1348.61
1401.32
1453.95
1506.37
1558.47
1610.11
1661.15
1711.43
1760.81
1809.1
1856.12
1901.63
1945.39
1987.09
2026.33
2062.65
2094.97
2122.69
2145.89
2162.41
2170.35
2148.43
2037.44
1919.5
1796.72
1670.84
1543.35
1415.53
1288.58
1163.63
1041.82
924.319
812.082
706.546
609.906
524.578
452.84
396.301
355.189
327.907
311.396
302.191
297.411
295.059
293.94
293.421
293.185
293.08
293.034
293.015
293.006
293.003
293.001
293
293
293
293
293
293
293.004
293.017
293.039
293.077
293.139
293.243
293.414
293.693
294.143
294.862
295.99
297.73
300.359
304.243
309.829
317.631
328.178
341.946
359.284
380.354
405.115
433.351
464.73
498.875
535.412
574.015
614.413
656.392
699.788
744.475
790.346
837.308
885.262
934.101
983.701
1033.97
1084.95
1136.53
1188.63
1241.12
1293.91
1346.87
1399.89
1452.84
1505.6
1558.04
1610.02
1661.39
1712.01
1761.71
1810.32
1857.64
1903.44
1947.46
1989.4
2028.85
2065.35
2097.77
2125.55
2148.74
2165.12
2172.86
2132.74
2020.71
1901.68
1777.83
1650.97
1522.6
1394.08
1266.62
1141.42
1019.68
902.614
791.22
687.136
592.646
510.107
441.585
388.316
350.087
324.979
309.872
301.461
297.079
294.914
293.878
293.395
293.175
293.076
293.033
293.014
293.006
293.002
293.001
293
293
293
293
293
293
293.004
293.017
293.039
293.077
293.139
293.242
293.413
293.69
294.139
294.852
295.97
297.693
300.293
304.13
309.644
317.341
327.744
341.327
358.44
379.254
403.741
431.698
462.805
496.692
532.995
571.388
611.604
653.43
696.705
741.301
787.114
834.052
882.019
930.908
980.597
1030.99
1082.11
1133.88
1186.19
1238.94
1292
1345.27
1398.61
1451.91
1505.03
1557.84
1610.2
1661.95
1712.95
1763.02
1811.99
1859.64
1905.76
1950.08
1992.27
2031.94
2068.6
2101.04
2128.76
2151.86
2168.08
2175.46
2113.21
2000.33
1880.35
1755.57
1627.87
1498.83
1369.86
1242.22
1117.18
995.972
879.803
769.721
667.516
575.485
495.88
430.561
380.448
344.972
321.959
308.24
300.643
296.691
294.737
293.799
293.361
293.16
293.07
293.03
293.013
293.005
293.002
293.001
293
293
293
293
293
293
293.004
293.017
293.039
293.076
293.138
293.241
293.41
293.687
294.132
294.84
295.948
297.655
300.229
304.024
309.476
317.083
327.363
340.789
357.712
378.31
402.566
430.287
461.164
494.835
530.94
569.157
609.22
650.917
694.087
738.604
784.366
831.281
879.256
928.188
977.953
1028.45
1079.71
1131.65
1184.16
1237.14
1290.47
1344.03
1397.69
1451.32
1504.8
1557.98
1610.71
1662.84
1714.21
1764.64
1813.96
1861.94
1908.36
1952.94
1995.35
2035.19
2071.91
2104.22
2131.86
2154.82
2170.66
2177.19
2092.71
1979.18
1858.36
1732.73
1604.29
1474.73
1345.49
1217.91
1093.26
972.832
857.758
749.179
649.017
559.525
482.841
420.615
373.463
340.5
319.349
306.838
299.94
296.356
294.583
293.73
293.331
293.147
293.065
293.028
293.012
293.005
293.002
293.001
293
293
293
293
293
293
293.004
293.017
293.039
293.076
293.137
293.239
293.407
293.681
294.122
294.823
295.921
297.61
300.156
303.909
309.3
316.823
326.993
340.28
357.042
377.462
401.529
429.062
459.757
493.258
529.209
567.29
607.235
648.834
691.926
736.386
782.113
829.018
877.01
925.986
975.827
1026.42
1077.81
1129.91
1182.62
1235.81
1289.39
1343.21
1397.17
1451.12
1504.93
1558.44
1611.52
1664
1715.71
1766.48
1816.1
1864.36
1911.02
1955.79
1998.33
2038.21
2074.94
2107.11
2134.66
2157.35
2172.83
2178.77
2075.09
1960.33
1838.19
1711.4
1582.09
1451.96
1322.51
1195.05
1070.89
951.317
837.382
730.333
632.167
545.091
471.127
411.726
367.239
336.509
317.003
305.562
299.29
296.042
294.435
293.663
293.301
293.134
293.059
293.026
293.011
293.005
293.002
293.001
293
293
293
293
293
293
293.004
293.017
293.039
293.075
293.136
293.238
293.404
293.676
294.113
294.807
295.894
297.567
300.087
303.803
309.139
316.588
326.661
339.831
356.456
376.725
400.637
428.015
458.564
491.931
527.763
565.74
605.598
647.126
690.164
734.589
780.3
827.21
875.229
924.257
974.174
1024.87
1076.38
1128.63
1181.51
1234.91
1288.71
1342.79
1397.02
1451.25
1505.35
1559.18
1612.56
1665.35
1717.36
1768.41
1818.3
1866.78
1913.6
1958.47
2001.02
2040.82
2077.35
2108.9
2136.64
2158.53
2173.12
2178.17
2066.4
1946.71
1821.44
1692.65
1562.08
1431.26
1301.54
1174.22
1050.55
931.808
818.97
713.385
617.095
532.254
460.779
403.937
361.831
333.07
314.995
304.474
298.735
295.772
294.309
293.605
293.275
293.123
293.054
293.023
293.01
293.004
293.002
293.001
293
293
293
293
293
293
293.004
293.017
293.038
293.075
293.135
293.236
293.401
293.67
294.103
294.791
295.868
297.525
300.022
303.703
308.991
316.374
326.365
339.433
355.943
376.088
399.872
427.126
457.559
490.822
526.563
564.464
604.26
645.741
688.746
733.154
778.865
825.792
873.847
922.931
972.928
1023.72
1075.35
1127.74
1180.79
1234.38
1288.38
1342.68
1397.15
1451.63
1506
1560.1
1613.76
1666.81
1719.08
1770.37
1820.47
1869.13
1916.08
1961.01
2003.53
2043.17
2079.19
2110.07
2136.79
2156.93
2168.7
2169.14
2054.42
1932.3
1805.2
1675.09
1543.66
1412.37
1282.54
1155.44
1032.29
914.344
802.538
698.315
603.755
520.955
451.725
397.164
357.157
330.11
313.268
303.536
298.255
295.538
294.198
293.554
293.252
293.112
293.049
293.022
293.009
293.004
293.002
293.001
293
293
293
293
293
293
293.004
293.017
293.038
293.074
293.134
293.234
293.398
293.665
294.094
294.777
295.845
297.487
299.963
303.614
308.859
316.187
326.105
339.088
355.501
375.543
399.223
426.377
456.719
489.901
525.574
563.42
603.173
644.625
687.614
732.018
777.741
824.694
872.792
921.937
972.012
1022.9
1074.65
1127.17
1180.37
1234.12
1288.31
1342.81
1397.49
1452.2
1506.8
1561.13
1615.02
1668.31
1720.8
1772.29
1822.56
1871.36
1918.41
1963.36
2005.84
2045.32
2080.94
2111.37
2137.36
2156.36
2166.35
2158.56
2041.68
1917.94
1789.65
1658.72
1526.78
1395.26
1265.46
1138.64
1016.04
898.834
787.976
685.011
592.026
511.07
443.854
391.316
353.15
327.588
311.804
302.743
297.849
295.34
294.104
293.511
293.232
293.104
293.046
293.02
293.009
293.004
293.002
293.001
293
293
293
293
293
293
293.004
293.016
293.038
293.074
293.133
293.232
293.395
293.66
294.086
294.763
295.823
297.453
299.911
303.535
308.744
316.023
325.881
338.792
355.125
375.081
398.677
425.751
456.021
489.142
524.765
562.572
602.298
643.733
686.718
731.129
776.871
823.856
872
921.206
971.358
1022.34
1074.19
1126.83
1180.17
1234.07
1288.42
1343.1
1397.96
1452.87
1507.67
1562.2
1616.3
1669.78
1722.45
1774.11
1824.53
1873.45
1920.59
1965.6
2008.08
2047.53
2083.01
2113.32
2139.24
2158.32
2168.73
2146.38
2028.49
1903.92
1775
1643.63
1511.45
1379.89
1250.24
1123.76
1001.69
885.191
775.23
673.409
581.832
502.506
437.06
386.298
349.731
325.448
310.566
302.073
297.506
295.172
294.024
293.474
293.215
293.096
293.042
293.018
293.008
293.003
293.001
293.001
293
293
293
293
293
293
293.004
293.016
293.038
293.073
293.132
293.231
293.392
293.655
294.079
294.752
295.804
297.424
299.865
303.467
308.645
315.883
325.69
338.541
354.807
374.694
398.221
425.232
455.446
488.521
524.107
561.887
601.597
643.026
686.014
730.439
776.204
823.225
871.416
920.681
970.905
1021.97
1073.92
1126.67
1180.13
1234.16
1288.66
1343.49
1398.51
1453.58
1508.55
1563.26
1617.52
1671.17
1724
1775.8
1826.34
1875.36
1922.58
1967.65
2010.16
2049.61
2085.04
2115.33
2141.22
2160.29
2170.75
2134.37
2015.91
1890.89
1761.62
1630.03
1497.76
1366.25
1236.8
1110.67
989.118
873.272
764.113
663.319
572.996
495.117
431.231
382.015
346.831
323.642
309.525
301.511
297.218
295.032
293.957
293.442
293.201
293.09
293.04
293.017
293.007
293.003
293.001
293.001
293
293
293
293
293
293
293.004
293.016
293.037
293.073
293.132
293.229
293.39
293.652
294.073
294.741
295.788
297.398
299.826
303.408
308.56
315.764
325.528
338.33
354.541
374.372
397.844
424.805
454.976
488.016
523.576
561.339
601.04
642.469
685.466
729.908
775.699
822.756
870.992
920.313
970.604
1021.75
1073.78
1126.63
1180.19
1234.34
1288.96
1343.92
1399.08
1454.3
1509.41
1564.26
1618.66
1672.44
1725.39
1777.3
1827.94
1877.05
1924.32
1969.42
2011.93
2051.36
2086.75
2116.99
2142.85
2161.9
2172.36
2123.59
2004.65
1879.26
1749.75
1618.03
1485.74
1354.33
1225.11
1099.34
978.263
862.982
754.518
654.624
565.403
488.79
426.261
378.383
344.384
322.125
308.653
301.042
296.978
294.914
293.901
293.416
293.189
293.085
293.037
293.016
293.007
293.003
293.001
293.001
293
293
293
293
293
293
293.004
293.016
293.037
293.072
293.131
293.228
293.388
293.648
294.067
294.733
295.774
297.377
299.793
303.359
308.489
315.664
325.394
338.155
354.321
374.107
397.535
424.456
454.594
487.608
523.15
560.903
600.601
642.034
685.042
729.502
775.32
822.411
870.69
920.062
970.411
1021.62
1073.73
1126.66
1180.32
1234.57
1289.29
1344.36
1399.64
1454.97
1510.2
1565.16
1619.68
1673.56
1726.61
1778.61
1829.32
1878.48
1925.78
1970.89
2013.39
2052.82
2088.16
2118.34
2144.15
2163.17
2173.64
2114.36
1994.93
1869.21
1739.49
1607.69
1475.42
1344.11
1215.09
1089.62
968.955
854.165
746.307
647.2
558.935
483.416
422.057
375.324
342.333
320.859
307.929
300.652
296.779
294.817
293.855
293.395
293.179
293.08
293.035
293.015
293.007
293.003
293.001
293
293
293
293
293
293
293
293.004
293.016
293.037
293.072
293.13
293.227
293.386
293.646
294.063
294.725
295.763
297.358
299.766
303.318
308.43
315.582
325.283
338.011
354.142
373.891
397.284
424.175
454.288
487.283
522.812
560.559
600.257
641.696
684.716
729.196
775.038
822.16
870.477
919.893
970.295
1021.56
1073.74
1126.74
1180.47
1234.8
1289.62
1344.78
1400.15
1455.58
1510.9
1565.95
1620.56
1674.52
1727.64
1779.7
1830.45
1879.63
1926.95
1972.06
2014.57
2053.96
2089.23
2119.36
2145.13
2164.13
2174.64
2106.6
1986.69
1860.66
1730.77
1598.89
1466.63
1335.42
1206.59
1081.38
961.075
846.708
739.373
640.939
553.49
478.904
418.539
372.775
340.631
319.812
307.331
300.332
296.615
294.737
293.817
293.377
293.171
293.077
293.034
293.015
293.006
293.003
293.001
293
293
293
293
293
293
293
293.004
293.016
293.037
293.072
293.13
293.226
293.385
293.643
294.059
294.719
295.753
297.344
299.744
303.285
308.382
315.516
325.194
337.895
353.997
373.718
397.084
423.951
454.045
487.026
522.547
560.291
599.991
641.437
684.469
728.966
774.83
821.979
870.328
919.783
970.228
1021.55
1073.77
1126.84
1180.63
1235.03
1289.91
1345.15
1400.59
1456.09
1511.49
1566.61
1621.28
1675.3
1728.47
1780.56
1831.33
1880.54
1927.86
1972.97
2015.44
2054.79
2090
2120.08
2145.82
2164.84
2175.36
2100.23
1979.85
1853.53
1723.47
1591.52
1459.28
1328.16
1199.48
1074.51
954.507
840.497
733.606
635.737
548.974
475.169
415.634
370.677
339.236
318.957
306.844
300.07
296.482
294.671
293.786
293.363
293.165
293.074
293.032
293.014
293.006
293.003
293.001
293
293
293
293
293
293
293
293.004
293.016
293.037
293.072
293.13
293.226
293.384
293.641
294.056
294.715
295.746
297.332
299.726
303.259
308.344
315.463
325.123
337.804
353.884
373.581
396.927
423.776
453.856
486.827
522.343
560.085
599.788
641.241
684.284
728.795
774.678
821.849
870.225
919.711
970.19
1021.55
1073.81
1126.93
1180.77
1235.22
1290.16
1345.45
1400.95
1456.51
1511.96
1567.13
1621.84
1675.89
1729.09
1781.21
1832
1881.2
1928.52
1973.59
2016.02
2055.32
2090.47
2120.51
2146.23
2165.27
2175.84
2095.07
1974.26
1847.67
1717.46
1585.46
1453.24
1322.21
1193.67
1068.9
949.15
835.437
728.913
631.51
545.309
472.144
413.287
368.986
338.113
318.271
306.454
299.862
296.376
294.619
293.761
293.351
293.159
293.071
293.031
293.014
293.006
293.003
293.001
293
293
293
293
293
293
293
293.004
293.016
293.037
293.071
293.129
293.225
293.383
293.64
294.054
294.711
295.74
297.323
299.712
303.238
308.315
315.422
325.069
337.734
353.797
373.478
396.808
423.644
453.713
486.678
522.189
559.931
599.637
641.096
684.148
728.67
774.568
821.757
870.154
919.662
970.168
1021.55
1073.85
1127
1180.88
1235.37
1290.35
1345.68
1401.22
1456.81
1512.29
1567.5
1622.24
1676.32
1729.53
1781.66
1832.45
1881.63
1928.92
1973.95
2016.34
2055.59
2090.69
2120.69
2146.41
2165.5
2176.18
2091.03
1969.82
1842.99
1712.66
1580.62
1448.43
1317.47
1189.06
1064.46
944.921
831.449
725.22
628.19
542.437
469.779
411.455
367.669
337.24
317.737
306.151
299.7
296.293
294.579
293.742
293.342
293.155
293.069
293.031
293.013
293.006
293.002
293.001
293
293
293
293
293
293
293
293.004
293.016
293.037
293.071
293.129
293.225
293.383
293.639
294.052
294.708
295.735
297.316
299.702
303.223
308.294
315.393
325.029
337.683
353.734
373.403
396.722
423.549
453.611
486.571
522.08
559.822
599.531
640.994
684.052
728.583
774.491
821.693
870.104
919.629
970.152
1021.56
1073.88
1127.04
1180.95
1235.46
1290.47
1345.83
1401.39
1457.01
1512.52
1567.74
1622.49
1676.58
1729.8
1781.91
1832.68
1881.84
1929.09
1974.08
2016.42
2055.62
2090.67
2120.65
2146.38
2165.56
2176.4
2088.05
1966.46
1839.42
1709
1576.94
1444.77
1313.89
1185.59
1061.13
941.757
828.475
722.474
625.727
540.312
468.033
410.108
366.703
336.601
317.346
305.928
299.58
296.232
294.549
293.728
293.336
293.152
293.068
293.03
293.013
293.006
293.002
293.001
293
293
293
293
293
293
293
293.004
293.016
293.037
293.071
293.129
293.225
293.382
293.638
294.051
294.706
295.733
297.312
299.695
303.214
308.28
315.374
325.004
337.65
353.694
373.355
396.667
423.488
453.545
486.502
522.01
559.752
599.462
640.929
683.991
728.528
774.443
821.652
870.072
919.606
970.14
1021.56
1073.89
1127.07
1180.99
1235.52
1290.54
1345.91
1401.49
1457.12
1512.64
1567.87
1622.62
1676.71
1729.91
1782.01
1832.75
1881.88
1929.09
1974.03
2016.32
2055.47
2090.48
2120.44
2146.21
2165.5
2176.54
2086.09
1964.16
1836.94
1706.44
1574.38
1442.25
1311.44
1183.23
1058.87
939.628
826.483
720.644
624.092
538.906
466.884
409.225
366.072
336.186
317.093
305.783
299.502
296.192
294.53
293.718
293.331
293.15
293.067
293.03
293.013
293.006
293.002
293.001
293
293
293
293
293
293
293
293.004
293.016
293.037
293.071
293.129
293.225
293.382
293.638
294.05
294.706
295.731
297.31
299.692
303.209
308.274
315.365
324.992
337.635
353.674
373.332
396.641
423.459
453.514
486.469
521.977
559.719
599.43
640.898
683.962
728.502
774.419
821.632
870.056
919.595
970.133
1021.55
1073.89
1127.07
1181
1235.53
1290.56
1345.94
1401.52
1457.16
1512.67
1567.9
1622.65
1676.73
1729.92
1782
1832.73
1881.83
1929
1973.91
2016.16
2055.26
2090.24
2120.19
2145.97
2165.36
2176.62
2085
1962.87
1835.57
1705.05
1573
1440.92
1310.16
1182.01
1057.72
938.556
825.49
719.741
623.293
538.226
466.332
408.804
365.775
335.991
316.975
305.716
299.466
296.174
294.521
293.714
293.329
293.149
293.067
293.029
293.013
293.006
293.002
293.001
293
293
293
293
293
293
293
293.004
293.016
293.037
293.071
293.129
293.225
293.382
293.638
294.05
294.706
295.731
297.31
299.692
303.209
308.274
315.365
324.992
337.635
353.674
373.332
396.641
423.459
453.514
486.469
521.977
559.719
599.43
640.898
683.963
728.502
774.42
821.633
870.056
919.595
970.133
1021.55
1073.89
1127.07
1181
1235.54
1290.56
1345.94
1401.52
1457.16
1512.67
1567.9
1622.65
1676.73
1729.92
1782
1832.73
1881.83
1929
1973.91
2016.15
2055.26
2090.24
2120.18
2145.97
2165.35
2176.6
2085
1962.87
1835.57
1705.05
1573
1440.92
1310.16
1182.01
1057.72
938.556
825.49
719.741
623.293
538.226
466.332
408.804
365.775
335.991
316.975
305.716
299.466
296.174
294.521
293.714
293.329
293.149
293.067
293.029
293.013
293.006
293.002
293.001
293
293
293
293
293
293
293
293.004
293.016
293.037
293.071
293.129
293.225
293.382
293.638
294.051
294.706
295.733
297.312
299.695
303.214
308.28
315.374
325.004
337.65
353.694
373.355
396.667
423.488
453.545
486.502
522.01
559.753
599.463
640.929
683.992
728.528
774.443
821.653
870.072
919.607
970.14
1021.56
1073.89
1127.07
1180.99
1235.52
1290.54
1345.91
1401.49
1457.12
1512.64
1567.87
1622.62
1676.71
1729.91
1782.01
1832.75
1881.88
1929.09
1974.03
2016.32
2055.47
2090.48
2120.43
2146.2
2165.49
2176.53
2086.09
1964.16
1836.95
1706.45
1574.38
1442.26
1311.44
1183.23
1058.87
939.629
826.484
720.644
624.093
538.907
466.884
409.225
366.073
336.186
317.093
305.783
299.502
296.192
294.53
293.718
293.331
293.15
293.067
293.03
293.013
293.006
293.002
293.001
293
293
293
293
293
293
293
293.004
293.016
293.037
293.071
293.129
293.225
293.383
293.639
294.052
294.708
295.735
297.316
299.702
303.223
308.294
315.393
325.029
337.683
353.734
373.403
396.723
423.549
453.611
486.571
522.081
559.823
599.531
640.995
684.053
728.584
774.492
821.694
870.105
919.63
970.153
1021.56
1073.88
1127.05
1180.95
1235.47
1290.47
1345.83
1401.39
1457.01
1512.52
1567.74
1622.5
1676.58
1729.8
1781.91
1832.68
1881.84
1929.09
1974.08
2016.42
2055.62
2090.67
2120.64
2146.38
2165.56
2176.4
2088.05
1966.47
1839.43
1709
1576.94
1444.78
1313.9
1185.59
1061.13
941.759
828.477
722.476
625.729
540.313
468.034
410.109
366.703
336.601
317.347
305.928
299.58
296.232
294.549
293.728
293.336
293.152
293.068
293.03
293.013
293.006
293.002
293.001
293
293
293
293
293
293
293
293.004
293.016
293.037
293.071
293.129
293.225
293.383
293.64
294.054
294.711
295.74
297.323
299.712
303.238
308.315
315.422
325.069
337.734
353.797
373.478
396.809
423.645
453.714
486.678
522.19
559.932
599.638
641.098
684.149
728.672
774.569
821.758
870.155
919.664
970.169
1021.55
1073.85
1127
1180.88
1235.37
1290.35
1345.68
1401.22
1456.81
1512.3
1567.5
1622.24
1676.32
1729.54
1781.66
1832.45
1881.63
1928.92
1973.95
2016.34
2055.59
2090.69
2120.69
2146.41
2165.51
2176.18
2091.04
1969.82
1843
1712.67
1580.63
1448.43
1317.48
1189.07
1064.46
944.924
831.452
725.223
628.193
542.439
469.781
411.457
367.67
337.241
317.738
306.151
299.7
296.293
294.579
293.742
293.342
293.155
293.069
293.031
293.013
293.006
293.002
293.001
293
293
293
293
293
293
293
293.004
293.016
293.037
293.072
293.13
293.226
293.384
293.641
294.056
294.715
295.746
297.332
299.726
303.259
308.345
315.463
325.123
337.804
353.884
373.582
396.928
423.777
453.857
486.828
522.344
560.086
599.789
641.243
684.286
728.796
774.679
821.851
870.227
919.713
970.193
1021.55
1073.82
1126.93
1180.77
1235.22
1290.16
1345.46
1400.96
1456.51
1511.96
1567.13
1621.84
1675.9
1729.09
1781.21
1832.01
1881.21
1928.52
1973.6
2016.03
2055.33
2090.48
2120.51
2146.24
2165.28
2175.85
2095.08
1974.27
1847.68
1717.47
1585.47
1453.25
1322.21
1193.68
1068.9
949.155
835.442
728.917
631.514
545.313
472.147
413.289
368.988
338.114
318.272
306.454
299.862
296.376
294.62
293.761
293.351
293.159
293.071
293.031
293.014
293.006
293.003
293.001
293
293
293
293
293
293
293
293.004
293.016
293.037
293.072
293.13
293.226
293.385
293.643
294.059
294.72
295.753
297.344
299.744
303.285
308.383
315.516
325.194
337.896
353.998
373.718
397.085
423.952
454.046
487.027
522.548
560.292
599.993
641.439
684.471
728.968
774.832
821.981
870.331
919.786
970.231
1021.55
1073.77
1126.84
1180.63
1235.03
1289.92
1345.15
1400.6
1456.1
1511.5
1566.62
1621.29
1675.31
1728.47
1780.56
1831.34
1880.54
1927.87
1972.97
2015.45
2054.79
2090.01
2120.09
2145.83
2164.85
2175.37
2100.24
1979.86
1853.54
1723.48
1591.53
1459.28
1328.17
1199.49
1074.52
954.514
840.504
733.612
635.742
548.979
475.173
415.637
370.679
339.237
318.958
306.844
300.071
296.482
294.672
293.786
293.363
293.165
293.074
293.032
293.014
293.006
293.003
293.001
293
293
293
293
293
293
293
293.004
293.016
293.037
293.072
293.13
293.227
293.386
293.646
294.063
294.725
295.763
297.359
299.766
303.319
308.43
315.583
325.284
338.012
354.143
373.892
397.286
424.176
454.289
487.284
522.814
560.561
600.259
641.698
684.719
729.198
775.04
822.162
870.479
919.896
970.298
1021.57
1073.74
1126.75
1180.47
1234.81
1289.62
1344.79
1400.16
1455.58
1510.91
1565.96
1620.56
1674.53
1727.65
1779.71
1830.46
1879.64
1926.96
1972.07
2014.57
2053.97
2089.24
2119.37
2145.14
2164.15
2174.65
2106.61
1986.7
1860.67
1730.78
1598.9
1466.64
1335.43
1206.6
1081.39
961.083
846.716
739.38
640.945
553.496
478.908
418.542
372.777
340.633
319.814
307.331
300.332
296.615
294.737
293.817
293.377
293.171
293.077
293.034
293.015
293.006
293.003
293.001
293
293
293
293
293
293
293
293.004
293.016
293.037
293.072
293.131
293.228
293.388
293.648
294.067
294.733
295.774
297.377
299.794
303.359
308.489
315.665
325.395
338.156
354.322
374.108
397.536
424.458
454.596
487.61
523.152
560.905
600.603
642.036
685.044
729.505
775.323
822.414
870.693
920.065
970.415
1021.63
1073.73
1126.67
1180.32
1234.57
1289.3
1344.37
1399.65
1454.98
1510.21
1565.17
1619.69
1673.57
1726.62
1778.62
1829.33
1878.49
1925.79
1970.9
2013.41
2052.83
2088.17
2118.35
2144.16
2163.18
2173.66
2114.37
1994.94
1869.22
1739.5
1607.7
1475.43
1344.12
1215.1
1089.63
968.965
854.175
746.316
647.208
558.942
483.422
422.062
375.328
342.335
320.861
307.929
300.653
296.779
294.817
293.855
293.395
293.179
293.08
293.035
293.015
293.007
293.003
293.001
293
293
293
293
293
293
293
293.004
293.016
293.037
293.073
293.132
293.229
293.39
293.652
294.073
294.741
295.788
297.398
299.827
303.408
308.56
315.764
325.529
338.331
354.542
374.373
397.845
424.806
454.978
488.018
523.578
561.341
601.043
642.472
685.468
729.911
775.702
822.759
870.996
920.317
970.608
1021.75
1073.78
1126.63
1180.19
1234.35
1288.97
1343.93
1399.09
1454.3
1509.42
1564.26
1618.67
1672.45
1725.4
1777.31
1827.95
1877.06
1924.33
1969.43
2011.95
2051.37
2086.76
2117.01
2142.87
2161.92
2172.38
2123.6
2004.66
1879.28
1749.76
1618.04
1485.76
1354.34
1225.12
1099.35
978.274
862.993
754.528
654.633
565.411
488.796
426.267
378.386
344.386
322.126
308.654
301.043
296.978
294.914
293.901
293.417
293.189
293.085
293.037
293.016
293.007
293.003
293.001
293.001
293
293
293
293
293
293
293.004
293.016
293.038
293.073
293.132
293.231
293.392
293.655
294.079
294.752
295.804
297.424
299.866
303.467
308.645
315.883
325.69
338.542
354.808
374.695
398.223
425.234
455.448
488.523
524.11
561.89
601.6
643.029
686.017
730.442
776.208
823.229
871.42
920.686
970.91
1021.98
1073.92
1126.68
1180.13
1234.17
1288.66
1343.49
1398.52
1453.59
1508.56
1563.27
1617.53
1671.18
1724.01
1775.81
1826.35
1875.38
1922.59
1967.66
2010.17
2049.63
2085.06
2115.33
2141.23
2160.31
2170.76
2134.38
2015.93
1890.9
1761.63
1630.05
1497.78
1366.26
1236.81
1110.68
989.131
873.284
764.124
663.329
573.005
495.125
431.237
382.019
346.834
323.644
309.526
301.512
297.218
295.032
293.957
293.443
293.201
293.09
293.04
293.017
293.007
293.003
293.001
293.001
293
293
293
293
293
293
293.004
293.016
293.038
293.074
293.133
293.232
293.395
293.66
294.086
294.763
295.823
297.453
299.911
303.535
308.744
316.023
325.882
338.793
355.126
375.083
398.679
425.753
456.024
489.145
524.768
562.575
602.301
643.737
686.721
731.133
776.875
823.861
872.005
921.211
971.363
1022.35
1074.19
1126.84
1180.17
1234.08
1288.43
1343.11
1397.97
1452.88
1507.68
1562.21
1616.31
1669.79
1722.46
1774.12
1824.54
1873.47
1920.6
1965.62
2008.1
2047.55
2083.03
2113.35
2139.27
2158.34
2168.75
2146.41
2028.51
1903.94
1775.02
1643.65
1511.47
1379.9
1250.26
1123.77
1001.7
885.205
775.242
673.42
581.841
502.514
437.067
386.303
349.735
325.45
310.567
302.074
297.506
295.173
294.024
293.474
293.215
293.096
293.042
293.018
293.008
293.003
293.001
293.001
293
293
293
293
293
293
293.004
293.017
293.038
293.074
293.134
293.234
293.398
293.665
294.094
294.777
295.845
297.487
299.963
303.614
308.86
316.187
326.106
339.09
355.503
375.545
399.225
426.379
456.721
489.904
525.577
563.423
603.177
644.629
687.618
732.023
777.745
824.699
872.797
921.942
972.018
1022.91
1074.65
1127.18
1180.37
1234.13
1288.32
1342.82
1397.49
1452.21
1506.81
1561.14
1615.03
1668.32
1720.81
1772.3
1822.57
1871.37
1918.42
1963.38
2005.85
2045.33
2080.95
2111.39
2137.37
2156.38
2166.38
2158.58
2041.7
1917.96
1789.67
1658.74
1526.79
1395.27
1265.48
1138.66
1016.05
898.848
787.989
685.024
592.037
511.079
443.861
391.322
353.153
327.591
311.805
302.744
297.849
295.34
294.104
293.511
293.232
293.104
293.046
293.02
293.009
293.004
293.002
293.001
293
293
293
293
293
293
293.004
293.017
293.038
293.075
293.135
293.236
293.401
293.67
294.103
294.791
295.869
297.525
300.022
303.703
308.991
316.375
326.365
339.434
355.944
376.09
399.874
427.128
457.562
490.825
526.567
564.468
604.264
645.745
688.751
733.158
778.87
825.797
873.852
922.937
972.934
1023.73
1075.36
1127.75
1180.8
1234.38
1288.39
1342.69
1397.16
1451.64
1506.01
1560.11
1613.77
1666.82
1719.1
1770.39
1820.48
1869.14
1916.09
1961.02
2003.54
2043.19
2079.2
2110.09
2136.8
2156.95
2168.72
2169.16
2054.44
1932.32
1805.22
1675.11
1543.68
1412.39
1282.56
1155.45
1032.31
914.36
802.553
698.329
603.766
520.965
451.733
397.17
357.161
330.113
313.27
303.537
298.255
295.539
294.198
293.554
293.252
293.112
293.049
293.022
293.009
293.004
293.002
293.001
293
293
293
293
293
293
293.004
293.017
293.039
293.075
293.136
293.238
293.404
293.676
294.113
294.807
295.895
297.567
300.088
303.803
309.14
316.589
326.662
339.832
356.457
376.727
400.639
428.018
458.567
491.934
527.766
565.744
605.602
647.131
690.169
734.594
780.306
827.216
875.235
924.263
974.181
1024.88
1076.39
1128.64
1181.52
1234.92
1288.72
1342.8
1397.03
1451.26
1505.36
1559.19
1612.57
1665.36
1717.38
1768.43
1818.31
1866.79
1913.62
1958.49
2001.03
2040.83
2077.37
2108.91
2136.66
2158.55
2173.14
2178.19
2066.42
1946.73
1821.46
1692.67
1562.1
1431.27
1301.56
1174.23
1050.57
931.823
818.984
713.399
617.107
532.265
460.787
403.943
361.836
333.073
314.996
304.475
298.735
295.773
294.309
293.605
293.275
293.123
293.054
293.023
293.01
293.004
293.002
293.001
293
293
293
293
293
293
293.004
293.017
293.039
293.076
293.137
293.239
293.407
293.681
294.122
294.824
295.921
297.61
300.157
303.91
309.301
316.824
326.994
340.282
357.044
377.464
401.532
429.065
459.76
493.262
529.213
567.295
607.24
648.839
691.931
736.391
782.119
829.024
877.016
925.993
975.834
1026.43
1077.82
1129.92
1182.62
1235.82
1289.39
1343.22
1397.18
1451.13
1504.94
1558.45
1611.53
1664.01
1715.72
1766.49
1816.11
1864.38
1911.04
1955.8
1998.34
2038.23
2074.96
2107.13
2134.68
2157.37
2172.85
2178.78
2075.11
1960.35
1838.2
1711.42
1582.11
1451.98
1322.52
1195.07
1070.91
951.332
837.397
730.347
632.18
545.102
471.136
411.733
367.244
336.513
317.005
305.564
299.29
296.042
294.435
293.663
293.301
293.134
293.059
293.026
293.011
293.005
293.002
293.001
293
293
293
293
293
293
293.004
293.017
293.039
293.076
293.138
293.241
293.411
293.687
294.132
294.84
295.948
297.655
300.229
304.025
309.477
317.084
327.365
340.79
357.714
378.313
402.569
430.29
461.168
494.839
530.944
569.162
609.225
650.922
694.092
738.609
784.372
831.287
879.263
928.195
977.961
1028.46
1079.72
1131.66
1184.17
1237.15
1290.48
1344.04
1397.7
1451.34
1504.82
1557.99
1610.72
1662.85
1714.22
1764.66
1813.97
1861.96
1908.37
1952.95
1995.36
2035.2
2071.93
2104.23
2131.88
2154.83
2170.67
2177.21
2092.73
1979.2
1858.38
1732.75
1604.31
1474.75
1345.51
1217.93
1093.28
972.848
857.773
749.194
649.03
559.537
482.851
420.623
373.469
340.504
319.351
306.839
299.941
296.357
294.583
293.73
293.331
293.147
293.065
293.028
293.012
293.005
293.002
293.001
293
293
293
293
293
293
293.004
293.017
293.039
293.077
293.139
293.242
293.413
293.69
294.139
294.852
295.97
297.693
300.294
304.13
309.645
317.342
327.746
341.329
358.442
379.257
403.744
431.701
462.809
496.696
532.999
571.393
611.609
653.436
696.711
741.307
787.121
834.059
882.026
930.916
980.604
1030.99
1082.12
1133.89
1186.2
1238.95
1292.01
1345.28
1398.62
1451.92
1505.04
1557.85
1610.21
1661.96
1712.96
1763.03
1812
1859.65
1905.77
1950.09
1992.28
2031.95
2068.62
2101.06
2128.78
2151.87
2168.1
2175.47
2113.22
2000.34
1880.37
1755.59
1627.89
1498.85
1369.87
1242.24
1117.19
995.988
879.818
769.735
667.53
575.497
495.89
430.569
380.454
344.976
321.962
308.242
300.644
296.692
294.737
293.799
293.361
293.16
293.07
293.03
293.013
293.005
293.002
293.001
293
293
293
293
293
293
293.004
293.017
293.039
293.077
293.139
293.243
293.414
293.693
294.143
294.862
295.99
297.73
300.36
304.243
309.83
317.632
328.179
341.948
359.286
380.356
405.118
433.354
464.734
498.879
535.417
574.02
614.418
656.398
699.795
744.482
790.353
837.315
885.269
934.109
983.709
1033.98
1084.95
1136.54
1188.64
1241.13
1293.92
1346.88
1399.9
1452.85
1505.61
1558.05
1610.03
1661.4
1712.02
1761.73
1810.33
1857.65
1903.45
1947.47
1989.41
2028.86
2065.36
2097.78
2125.56
2148.76
2165.13
2172.88
2132.76
2020.72
1901.69
1777.85
1650.98
1522.62
1394.09
1266.64
1141.43
1019.69
902.629
791.234
687.15
592.659
510.117
441.593
388.322
350.091
324.982
309.874
301.462
297.079
294.914
293.878
293.395
293.175
293.076
293.033
293.014
293.006
293.002
293.001
293
293
293
293
293
293
293.004
293.017
293.039
293.076
293.139
293.242
293.412
293.69
294.14
294.858
295.987
297.732
300.375
304.289
309.931
317.826
328.513
342.477
360.067
381.437
406.531
435.114
466.835
501.299
538.122
576.971
617.572
659.711
703.226
747.989