/*--------------------------------*- C++ -*----------------------------------*\
  =========                 |
  \\      /  F ield         | OpenFOAM: The Open Source CFD Toolbox
   \\    /   O peration     | Website:  https://openfoam.org
    \\  /    A nd           | Version:  8
     \\/     M anipulation  |
\*---------------------------------------------------------------------------*/
FoamFile
{
    version     2.0;
    format      ascii;
    class       volVectorField;
    location    "880/fluid";
    object      U;
}
// * * * * * * * * * * * * * * * * * * * * * * * * * * * * * * * * * * * * * //

dimensions      [0 1 -1 0 0 0 0];

internalField   nonuniform List<vector> 
4000
(
(0.0999453 -0.00706842 0)
(0.0996477 -0.0210279 0)
(0.0991674 -0.0348665 0)
(0.098504 -0.0486267 0)
(0.0976494 -0.0623299 0)
(0.0965857 -0.0759776 0)
(0.0952922 -0.0895585 0)
(0.0937494 -0.103052 0)
(0.0919418 -0.116431 0)
(0.0898607 -0.129667 0)
(0.0875078 -0.142731 0)
(0.0848987 -0.155605 0)
(0.0820676 -0.168278 0)
(0.0790737 -0.180737 0)
(0.0759956 -0.193027 0)
(0.0729059 -0.205219 0)
(0.0698552 -0.217374 0)
(0.0668607 -0.229533 0)
(0.0638983 -0.241708 0)
(0.0609037 -0.253871 0)
(0.0577846 -0.265961 0)
(0.0544399 -0.277884 0)
(0.0507801 -0.289535 0)
(0.0467489 -0.300782 0)
(0.0423215 -0.311532 0)
(0.0374906 -0.321721 0)
(0.0322625 -0.331284 0)
(0.026655 -0.340165 0)
(0.0206945 -0.348317 0)
(0.0144124 -0.355705 0)
(0.00784294 -0.362305 0)
(0.00102192 -0.368104 0)
(-0.00601331 -0.373099 0)
(-0.0132264 -0.377297 0)
(-0.0205843 -0.380709 0)
(-0.028057 -0.383356 0)
(-0.0356169 -0.385263 0)
(-0.0432381 -0.386461 0)
(-0.0508957 -0.386986 0)
(-0.0585663 -0.386876 0)
(-0.0662278 -0.386174 0)
(-0.0738594 -0.384923 0)
(-0.0814413 -0.383171 0)
(-0.0889542 -0.380965 0)
(-0.0963798 -0.378353 0)
(-0.1037 -0.375386 0)
(-0.110897 -0.372114 0)
(-0.117953 -0.368589 0)
(-0.12485 -0.364862 0)
(-0.13157 -0.360986 0)
(-0.138094 -0.357016 0)
(-0.144403 -0.353008 0)
(-0.150475 -0.34902 0)
(-0.156289 -0.345114 0)
(-0.161819 -0.341356 0)
(-0.167038 -0.337821 0)
(-0.171905 -0.334591 0)
(-0.176368 -0.331752 0)
(-0.180402 -0.329404 0)
(-0.184045 -0.327702 0)
(-0.187363 -0.326922 0)
(-0.189736 -0.327418 0)
(-0.189063 -0.329036 0)
(-0.184172 -0.330039 0)
(-0.177127 -0.329324 0)
(-0.16965 -0.327016 0)
(-0.161942 -0.323406 0)
(-0.15394 -0.318637 0)
(-0.145664 -0.312769 0)
(-0.137185 -0.305837 0)
(-0.128583 -0.297871 0)
(-0.119941 -0.288906 0)
(-0.111349 -0.27898 0)
(-0.102899 -0.268142 0)
(-0.094738 -0.256449 0)
(-0.0871091 -0.244012 0)
(-0.0803397 -0.23103 0)
(-0.0747983 -0.217781 0)
(-0.0708611 -0.204831 0)
(-0.0688246 -0.192688 0)
(-0.068724 -0.181599 0)
(-0.0702617 -0.171477 0)
(-0.0729239 -0.162015 0)
(-0.076173 -0.152879 0)
(-0.0795807 -0.143829 0)
(-0.0828652 -0.134718 0)
(-0.0858539 -0.125449 0)
(-0.0884791 -0.116067 0)
(-0.0907388 -0.10662 0)
(-0.0926574 -0.0971421 0)
(-0.0942686 -0.087663 0)
(-0.0956077 -0.0782102 0)
(-0.0967088 -0.0688051 0)
(-0.0976034 -0.0594616 0)
(-0.0983202 -0.0501859 0)
(-0.0988844 -0.0409778 0)
(-0.0993178 -0.0318328 0)
(-0.0996377 -0.0227384 0)
(-0.0998558 -0.0136641 0)
(-0.0999822 -0.00456909 0)
(0.0999999 -0.00662876 0)
(0.0997932 -0.0198228 0)
(0.0993659 -0.0329249 0)
(0.0986939 -0.0459212 0)
(0.0977786 -0.058796 0)
(0.0966158 -0.0715257 0)
(0.0951959 -0.0840814 0)
(0.093511 -0.0964313 0)
(0.0915589 -0.108543 0)
(0.089347 -0.120386 0)
(0.0868946 -0.131941 0)
(0.0842364 -0.143207 0)
(0.0814228 -0.154214 0)
(0.0785209 -0.165045 0)
(0.0756037 -0.175762 0)
(0.0727379 -0.186423 0)
(0.0699695 -0.197103 0)
(0.0673105 -0.20787 0)
(0.06473 -0.218764 0)
(0.0621547 -0.229782 0)
(0.0594808 -0.24088 0)
(0.0565929 -0.251976 0)
(0.0533848 -0.262977 0)
(0.0497747 -0.273802 0)
(0.0457148 -0.284331 0)
(0.0411869 -0.294433 0)
(0.0361941 -0.304004 0)
(0.0307564 -0.312967 0)
(0.0249054 -0.321263 0)
(0.0186794 -0.328851 0)
(0.0121196 -0.335705 0)
(0.00526736 -0.341809 0)
(-0.0018363 -0.347158 0)
(-0.00915191 -0.351757 0)
(-0.0166421 -0.355618 0)
(-0.0242722 -0.358759 0)
(-0.0320107 -0.361203 0)
(-0.039829 -0.36298 0)
(-0.0477 -0.36412 0)
(-0.0555988 -0.36466 0)
(-0.063502 -0.364636 0)
(-0.0713877 -0.364091 0)
(-0.0792352 -0.363066 0)
(-0.0870251 -0.361604 0)
(-0.0947386 -0.359753 0)
(-0.102358 -0.357558 0)
(-0.109866 -0.355065 0)
(-0.117245 -0.352324 0)
(-0.124478 -0.349384 0)
(-0.131549 -0.346292 0)
(-0.138442 -0.3431 0)
(-0.145138 -0.33986 0)
(-0.151622 -0.336622 0)
(-0.157875 -0.33344 0)
(-0.16388 -0.330371 0)
(-0.169616 -0.327468 0)
(-0.17505 -0.32479 0)
(-0.180139 -0.322388 0)
(-0.184885 -0.320315 0)
(-0.18939 -0.318623 0)
(-0.19376 -0.317361 0)
(-0.197033 -0.316518 0)
(-0.196571 -0.315599 0)
(-0.191241 -0.314014 0)
(-0.183689 -0.311545 0)
(-0.175836 -0.308085 0)
(-0.167843 -0.303589 0)
(-0.15958 -0.298032 0)
(-0.151034 -0.291399 0)
(-0.142253 -0.28368 0)
(-0.1333 -0.274877 0)
(-0.124238 -0.265003 0)
(-0.115131 -0.2541 0)
(-0.106051 -0.242246 0)
(-0.0971467 -0.229596 0)
(-0.0886963 -0.216431 0)
(-0.0810924 -0.203205 0)
(-0.0747966 -0.190549 0)
(-0.0702656 -0.17888 0)
(-0.0677919 -0.168471 0)
(-0.0673496 -0.159335 0)
(-0.0685829 -0.151204 0)
(-0.0709619 -0.143668 0)
(-0.0739699 -0.136365 0)
(-0.0772087 -0.12906 0)
(-0.0804187 -0.121646 0)
(-0.0834574 -0.114115 0)
(-0.0862391 -0.106379 0)
(-0.0887282 -0.0984161 0)
(-0.0909188 -0.0902545 0)
(-0.092819 -0.0819345 0)
(-0.0944448 -0.0734946 0)
(-0.0958166 -0.0649682 0)
(-0.0969564 -0.0563828 0)
(-0.0978864 -0.0477588 0)
(-0.0986274 -0.039111 0)
(-0.0991971 -0.0304507 0)
(-0.0996073 -0.0217825 0)
(-0.0998662 -0.0130964 0)
(-0.0999951 -0.00437527 0)
(0.0999787 -0.00634893 0)
(0.0997135 -0.0189734 0)
(0.0991941 -0.0315034 0)
(0.0984017 -0.0439226 0)
(0.0973401 -0.0562112 0)
(0.0960104 -0.0683453 0)
(0.0944118 -0.080299 0)
(0.0925474 -0.0920472 0)
(0.0904275 -0.103567 0)
(0.0880723 -0.114839 0)
(0.0855142 -0.125852 0)
(0.0827991 -0.136608 0)
(0.0799858 -0.147122 0)
(0.0771388 -0.157426 0)
(0.0743239 -0.167576 0)
(0.0716028 -0.177645 0)
(0.0690206 -0.187713 0)
(0.0665898 -0.197851 0)
(0.0642801 -0.208104 0)
(0.0620182 -0.218479 0)
(0.0596994 -0.228939 0)
(0.0572052 -0.239415 0)
(0.0544227 -0.249812 0)
(0.0512558 -0.260029 0)
(0.0476348 -0.269964 0)
(0.043522 -0.279526 0)
(0.0389097 -0.288633 0)
(0.0338118 -0.297215 0)
(0.0282563 -0.305216 0)
(0.0222798 -0.312592 0)
(0.015923 -0.319311 0)
(0.00922786 -0.325353 0)
(0.00223594 -0.330708 0)
(-0.00501202 -0.335374 0)
(-0.0124774 -0.339358 0)
(-0.0201243 -0.342673 0)
(-0.0279196 -0.345339 0)
(-0.0358332 -0.347378 0)
(-0.0438371 -0.348818 0)
(-0.0519053 -0.349691 0)
(-0.0600134 -0.35003 0)
(-0.0681388 -0.349872 0)
(-0.0762604 -0.349255 0)
(-0.0843582 -0.34822 0)
(-0.0924138 -0.346808 0)
(-0.10041 -0.345062 0)
(-0.108329 -0.343024 0)
(-0.116156 -0.34074 0)
(-0.123875 -0.338252 0)
(-0.131472 -0.335606 0)
(-0.138935 -0.332846 0)
(-0.146249 -0.330016 0)
(-0.153403 -0.327161 0)
(-0.160386 -0.324324 0)
(-0.167185 -0.321547 0)
(-0.173787 -0.31887 0)
(-0.180162 -0.316326 0)
(-0.186271 -0.313943 0)
(-0.192131 -0.311738 0)
(-0.197854 -0.309728 0)
(-0.203428 -0.307915 0)
(-0.207322 -0.306239 0)
(-0.206581 -0.304067 0)
(-0.200643 -0.301126 0)
(-0.192589 -0.297494 0)
(-0.184182 -0.293092 0)
(-0.175565 -0.287821 0)
(-0.166637 -0.281618 0)
(-0.157396 -0.274455 0)
(-0.147885 -0.266326 0)
(-0.138158 -0.257251 0)
(-0.128276 -0.247278 0)
(-0.118297 -0.236495 0)
(-0.108308 -0.225035 0)
(-0.098501 -0.213101 0)
(-0.0892176 -0.200981 0)
(-0.0809205 -0.189041 0)
(-0.0741375 -0.177686 0)
(-0.0693325 -0.167284 0)
(-0.0667277 -0.158044 0)
(-0.0662008 -0.149913 0)
(-0.0673348 -0.142609 0)
(-0.0695891 -0.135759 0)
(-0.0724646 -0.129047 0)
(-0.0755849 -0.122265 0)
(-0.078709 -0.115311 0)
(-0.0817057 -0.108153 0)
(-0.0845087 -0.1008 0)
(-0.0870803 -0.0932722 0)
(-0.0894019 -0.0855888 0)
(-0.0914686 -0.077771 0)
(-0.0932839 -0.0698396 0)
(-0.0948559 -0.0618146 0)
(-0.0961956 -0.0537141 0)
(-0.0973154 -0.0455531 0)
(-0.0982278 -0.0373445 0)
(-0.098944 -0.0291006 0)
(-0.0994706 -0.0208297 0)
(-0.0998116 -0.0125284 0)
(-0.0999872 -0.00418651 0)
(0.0999835 -0.00599372 0)
(0.0997141 -0.0179117 0)
(0.0991775 -0.0297307 0)
(0.0983542 -0.0414278 0)
(0.0972529 -0.0529784 0)
(0.0958804 -0.064355 0)
(0.0942422 -0.0755302 0)
(0.0923466 -0.0864783 0)
(0.0902087 -0.0971768 0)
(0.0878512 -0.107609 0)
(0.0853073 -0.117768 0)
(0.0826213 -0.127658 0)
(0.0798498 -0.137302 0)
(0.0770588 -0.146744 0)
(0.074319 -0.156045 0)
(0.0716952 -0.165283 0)
(0.0692327 -0.174541 0)
(0.0669431 -0.183892 0)
(0.0647947 -0.193386 0)
(0.0627127 -0.203034 0)
(0.0605896 -0.212809 0)
(0.0583037 -0.222647 0)
(0.0557381 -0.232463 0)
(0.052796 -0.242161 0)
(0.0494082 -0.251642 0)
(0.0455348 -0.260813 0)
(0.0411622 -0.269592 0)
(0.0362968 -0.277909 0)
(0.0309599 -0.285709 0)
(0.0251818 -0.292946 0)
(0.0189982 -0.29959 0)
(0.0124472 -0.305617 0)
(0.0055672 -0.311016 0)
(-0.00160364 -0.315783 0)
(-0.00902828 -0.319921 0)
(-0.0166719 -0.323441 0)
(-0.0245021 -0.326357 0)
(-0.0324895 -0.328689 0)
(-0.0406064 -0.330461 0)
(-0.0488274 -0.3317 0)
(-0.0571285 -0.332436 0)
(-0.0654873 -0.332699 0)
(-0.0738831 -0.332525 0)
(-0.0822966 -0.331949 0)
(-0.0907097 -0.331006 0)
(-0.0991054 -0.329736 0)
(-0.107468 -0.328175 0)
(-0.115781 -0.326362 0)
(-0.124032 -0.324335 0)
(-0.132209 -0.322132 0)
(-0.140297 -0.319789 0)
(-0.148287 -0.317344 0)
(-0.156166 -0.314829 0)
(-0.163924 -0.312276 0)
(-0.171549 -0.309713 0)
(-0.179023 -0.307165 0)
(-0.186307 -0.304647 0)
(-0.193353 -0.302165 0)
(-0.200182 -0.299718 0)
(-0.206916 -0.297307 0)
(-0.213378 -0.294925 0)
(-0.217396 -0.292514 0)
(-0.215937 -0.289353 0)
(-0.209291 -0.285386 0)
(-0.200793 -0.280806 0)
(-0.191858 -0.275568 0)
(-0.182576 -0.26958 0)
(-0.172895 -0.262782 0)
(-0.162848 -0.25515 0)
(-0.152501 -0.246686 0)
(-0.141926 -0.237419 0)
(-0.131201 -0.227413 0)
(-0.120409 -0.216765 0)
(-0.109678 -0.20562 0)
(-0.0992596 -0.194187 0)
(-0.0895468 -0.182748 0)
(-0.081025 -0.171653 0)
(-0.0741932 -0.161277 0)
(-0.0694425 -0.151929 0)
(-0.0669116 -0.143745 0)
(-0.0664137 -0.136616 0)
(-0.0675086 -0.130244 0)
(-0.0696695 -0.124272 0)
(-0.0724273 -0.11841 0)
(-0.0754329 -0.11247 0)
(-0.0784598 -0.106356 0)
(-0.081377 -0.100027 0)
(-0.0841164 -0.0934762 0)
(-0.0866456 -0.0867137 0)
(-0.0889505 -0.0797583 0)
(-0.0910265 -0.072632 0)
(-0.0928743 -0.0653572 0)
(-0.0944971 -0.0579552 0)
(-0.0958997 -0.0504454 0)
(-0.0970882 -0.0428449 0)
(-0.0980687 -0.0351692 0)
(-0.0988462 -0.0274341 0)
(-0.099422 -0.0196526 0)
(-0.0997957 -0.0118267 0)
(-0.0999874 -0.00395303 0)
(0.0999805 -0.00563782 0)
(0.0996959 -0.0168465 0)
(0.0991341 -0.0279594 0)
(0.0982769 -0.0389529 0)
(0.0971351 -0.0498027 0)
(0.0957186 -0.0604822 0)
(0.0940355 -0.0709655 0)
(0.092098 -0.0812293 0)
(0.0899242 -0.0912543 0)
(0.0875405 -0.101026 0)
(0.0849831 -0.11054 0)
(0.0822993 -0.119801 0)
(0.0795481 -0.128831 0)
(0.0767974 -0.137668 0)
(0.0741182 -0.146367 0)
(0.0715753 -0.155 0)
(0.0692133 -0.163644 0)
(0.0670434 -0.172368 0)
(0.065034 -0.181219 0)
(0.0631103 -0.190214 0)
(0.0611641 -0.199332 0)
(0.0590714 -0.208521 0)
(0.056712 -0.217705 0)
(0.0539842 -0.2268 0)
(0.0508142 -0.235715 0)
(0.0471572 -0.244366 0)
(0.0429944 -0.252679 0)
(0.038328 -0.260589 0)
(0.0331751 -0.268041 0)
(0.0275626 -0.274993 0)
(0.0215229 -0.281413 0)
(0.0150911 -0.287278 0)
(0.00830294 -0.292575 0)
(0.00119429 -0.297297 0)
(-0.00619976 -0.301446 0)
(-0.013846 -0.305027 0)
(-0.0217137 -0.308053 0)
(-0.0297746 -0.31054 0)
(-0.0380026 -0.312507 0)
(-0.0463729 -0.313978 0)
(-0.0548628 -0.314977 0)
(-0.0634506 -0.315531 0)
(-0.0721165 -0.315671 0)
(-0.0808419 -0.315426 0)
(-0.089609 -0.314829 0)
(-0.0984011 -0.31391 0)
(-0.107203 -0.312702 0)
(-0.115999 -0.311238 0)
(-0.124777 -0.309549 0)
(-0.133522 -0.307667 0)
(-0.142221 -0.305621 0)
(-0.150862 -0.303438 0)
(-0.15943 -0.301146 0)
(-0.167911 -0.298764 0)
(-0.176288 -0.296312 0)
(-0.184533 -0.293802 0)
(-0.192591 -0.29124 0)
(-0.200404 -0.28862 0)
(-0.208004 -0.285935 0)
(-0.21551 -0.283181 0)
(-0.222562 -0.280342 0)
(-0.226342 -0.277379 0)
(-0.223953 -0.273548 0)
(-0.216629 -0.268961 0)
(-0.20775 -0.263814 0)
(-0.198338 -0.258077 0)
(-0.188434 -0.25168 0)
(-0.178045 -0.244584 0)
(-0.167247 -0.236782 0)
(-0.156135 -0.228292 0)
(-0.144803 -0.219157 0)
(-0.133351 -0.209453 0)
(-0.121881 -0.199285 0)
(-0.110559 -0.188802 0)
(-0.0996783 -0.178205 0)
(-0.0896592 -0.167758 0)
(-0.0809908 -0.157762 0)
(-0.0741469 -0.148522 0)
(-0.0694643 -0.140259 0)
(-0.0670125 -0.133029 0)
(-0.0665494 -0.126684 0)
(-0.0676147 -0.120938 0)
(-0.0696937 -0.115486 0)
(-0.0723439 -0.110091 0)
(-0.0752428 -0.104603 0)
(-0.0781818 -0.0989458 0)
(-0.0810381 -0.0930897 0)
(-0.0837444 -0.0870306 0)
(-0.0862646 -0.0807772 0)
(-0.0885802 -0.0743438 0)
(-0.0906823 -0.0677473 0)
(-0.0925677 -0.0610052 0)
(-0.0942357 -0.0541348 0)
(-0.0956879 -0.0471526 0)
(-0.0969266 -0.0400737 0)
(-0.0979549 -0.0329128 0)
(-0.0987746 -0.0256857 0)
(-0.0993844 -0.0184066 0)
(-0.0997816 -0.0110794 0)
(-0.0999861 -0.00370357 0)
(0.0999811 -0.00526706 0)
(0.0996942 -0.015739 0)
(0.0991265 -0.0261191 0)
(0.0982602 -0.0363834 0)
(0.097108 -0.0465072 0)
(0.0956814 -0.0564643 0)
(0.0939908 -0.0662297 0)
(0.09205 -0.0757812 0)
(0.0898789 -0.0851006 0)
(0.0875051 -0.0941756 0)
(0.0849655 -0.103002 0)
(0.0823077 -0.111586 0)
(0.0795903 -0.119949 0)
(0.0768808 -0.128129 0)
(0.0742497 -0.136182 0)
(0.0717618 -0.144175 0)
(0.0694621 -0.152184 0)
(0.0673632 -0.160277 0)
(0.065435 -0.1685 0)
(0.0636045 -0.176871 0)
(0.0617648 -0.185374 0)
(0.0597923 -0.19396 0)
(0.0575654 -0.202561 0)
(0.0549804 -0.211098 0)
(0.0519601 -0.219489 0)
(0.0484556 -0.227654 0)
(0.0444442 -0.235523 0)
(0.0399237 -0.243036 0)
(0.0349073 -0.250142 0)
(0.0294182 -0.256799 0)
(0.0234852 -0.262977 0)
(0.0171406 -0.268652 0)
(0.0104175 -0.273812 0)
(0.00334875 -0.278447 0)
(-0.00403204 -0.282558 0)
(-0.0116936 -0.286149 0)
(-0.0196073 -0.289228 0)
(-0.0277464 -0.29181 0)
(-0.0360858 -0.29391 0)
(-0.0446023 -0.295546 0)
(-0.053274 -0.296742 0)
(-0.0620803 -0.297519 0)
(-0.0710021 -0.297902 0)
(-0.080021 -0.297918 0)
(-0.0891194 -0.297592 0)
(-0.098281 -0.296952 0)
(-0.10749 -0.296025 0)
(-0.116731 -0.294837 0)
(-0.12599 -0.293416 0)
(-0.13525 -0.291784 0)
(-0.144496 -0.289968 0)
(-0.153713 -0.287986 0)
(-0.16288 -0.28586 0)
(-0.171977 -0.283603 0)
(-0.180979 -0.281228 0)
(-0.189846 -0.278741 0)
(-0.198508 -0.276141 0)
(-0.206896 -0.273418 0)
(-0.215047 -0.270562 0)
(-0.223077 -0.267562 0)
(-0.230453 -0.264386 0)
(-0.233806 -0.261022 0)
(-0.230496 -0.256826 0)
(-0.22258 -0.251943 0)
(-0.213323 -0.246494 0)
(-0.20344 -0.240477 0)
(-0.192957 -0.233866 0)
(-0.181932 -0.226652 0)
(-0.170479 -0.218844 0)
(-0.158716 -0.210473 0)
(-0.146758 -0.201589 0)
(-0.13472 -0.192271 0)
(-0.122729 -0.18262 0)
(-0.11098 -0.172777 0)
(-0.0998038 -0.162929 0)
(-0.0896387 -0.153311 0)
(-0.0809708 -0.14419 0)
(-0.0742444 -0.135825 0)
(-0.0697403 -0.128394 0)
(-0.0674603 -0.121919 0)
(-0.0671106 -0.116241 0)
(-0.0682119 -0.111089 0)
(-0.0702593 -0.106186 0)
(-0.0728331 -0.101319 0)
(-0.0756338 -0.0963552 0)
(-0.0784705 -0.0912263 0)
(-0.081232 -0.0859044 0)
(-0.083857 -0.0803848 0)
(-0.0863124 -0.0746743 0)
(-0.0885801 -0.0687854 0)
(-0.0906505 -0.0627332 0)
(-0.0925179 -0.0565335 0)
(-0.0941796 -0.0502024 0)
(-0.0956341 -0.0437556 0)
(-0.096881 -0.0372077 0)
(-0.0979207 -0.0305736 0)
(-0.0987526 -0.0238693 0)
(-0.099373 -0.0171099 0)
(-0.0997777 -0.0103008 0)
(-0.0999861 -0.00344357 0)
(0.0999807 -0.00489553 0)
(0.0996914 -0.0146288 0)
(0.0991199 -0.0242761 0)
(0.0982488 -0.0338145 0)
(0.0970915 -0.0432204 0)
(0.0956604 -0.0524692 0)
(0.0939669 -0.0615375 0)
(0.092026 -0.0704049 0)
(0.0898586 -0.0790549 0)
(0.0874932 -0.0874763 0)
(0.0849675 -0.0956656 0)
(0.0823296 -0.10363 0)
(0.0796385 -0.111388 0)
(0.0769619 -0.118977 0)
(0.0743704 -0.126446 0)
(0.0719286 -0.133859 0)
(0.0696822 -0.141286 0)
(0.067644 -0.148789 0)
(0.065785 -0.156415 0)
(0.0640331 -0.164181 0)
(0.0622818 -0.172074 0)
(0.0604071 -0.180054 0)
(0.0582863 -0.188059 0)
(0.0558137 -0.196019 0)
(0.0529093 -0.203857 0)
(0.0495214 -0.211502 0)
(0.0456239 -0.218889 0)
(0.0412116 -0.225962 0)
(0.0362946 -0.232671 0)
(0.0308933 -0.23898 0)
(0.025034 -0.244858 0)
(0.0187463 -0.250282 0)
(0.0120611 -0.255239 0)
(0.00500965 -0.25972 0)
(-0.00237708 -0.263723 0)
(-0.0100693 -0.26725 0)
(-0.0180398 -0.270307 0)
(-0.026263 -0.272907 0)
(-0.0347154 -0.27506 0)
(-0.0433748 -0.276784 0)
(-0.0522202 -0.278096 0)
(-0.0612318 -0.279015 0)
(-0.0703905 -0.279562 0)
(-0.0796782 -0.279758 0)
(-0.0890778 -0.279626 0)
(-0.0985724 -0.279189 0)
(-0.108145 -0.278468 0)
(-0.11778 -0.277486 0)
(-0.12746 -0.276263 0)
(-0.137168 -0.274821 0)
(-0.146884 -0.273177 0)
(-0.156588 -0.271348 0)
(-0.166257 -0.26935 0)
(-0.175862 -0.267193 0)
(-0.18537 -0.264886 0)
(-0.194729 -0.262433 0)
(-0.203852 -0.259831 0)
(-0.212664 -0.257069 0)
(-0.221195 -0.254138 0)
(-0.229527 -0.251012 0)
(-0.237005 -0.247644 0)
(-0.239981 -0.244027 0)
(-0.23593 -0.239666 0)
(-0.227365 -0.234683 0)
(-0.217581 -0.229131 0)
(-0.207205 -0.223036 0)
(-0.19622 -0.21641 0)
(-0.184683 -0.209265 0)
(-0.172718 -0.201627 0)
(-0.160455 -0.193532 0)
(-0.148024 -0.185036 0)
(-0.135555 -0.176216 0)
(-0.12319 -0.16717 0)
(-0.111154 -0.158029 0)
(-0.099801 -0.148966 0)
(-0.0895822 -0.140192 0)
(-0.0809744 -0.131942 0)
(-0.0743909 -0.12443 0)
(-0.0700616 -0.117788 0)
(-0.0679331 -0.112001 0)
(-0.0676742 -0.1069 0)
(-0.0687973 -0.102234 0)
(-0.0708114 -0.0977595 0)
(-0.0733181 -0.0932973 0)
(-0.0760373 -0.0887377 0)
(-0.0787918 -0.0840243 0)
(-0.0814778 -0.0791344 0)
(-0.0840376 -0.0740639 0)
(-0.0864392 -0.0688185 0)
(-0.0886643 -0.0634086 0)
(-0.0907022 -0.0578464 0)
(-0.0925463 -0.0521456 0)
(-0.0941923 -0.0463201 0)
(-0.0956372 -0.0403836 0)
(-0.0968792 -0.0343496 0)
(-0.0979172 -0.0282315 0)
(-0.0987494 -0.022045 0)
(-0.099371 -0.0158045 0)
(-0.0997769 -0.00951595 0)
(-0.099986 -0.00318131 0)
(0.0999808 -0.00452257 0)
(0.0996922 -0.0135146 0)
(0.0991218 -0.022427 0)
(0.0982524 -0.031238 0)
(0.0970978 -0.0399254 0)
(0.0956711 -0.0484663 0)
(0.0939843 -0.0568386 0)
(0.0920526 -0.0650236 0)
(0.0898976 -0.073006 0)
(0.0875481 -0.0807757 0)
(0.0850418 -0.0883298 0)
(0.0824268 -0.0956749 0)
(0.0797619 -0.10283 0)
(0.0771142 -0.109827 0)
(0.0745544 -0.116715 0)
(0.072147 -0.123552 0)
(0.0699379 -0.130403 0)
(0.0679412 -0.137327 0)
(0.0661291 -0.144369 0)
(0.0644307 -0.151546 0)
(0.0627404 -0.158848 0)
(0.0609345 -0.166238 0)
(0.0588894 -0.173662 0)
(0.0564978 -0.181054 0)
(0.0536775 -0.188345 0)
(0.0503741 -0.19547 0)
(0.046559 -0.202368 0)
(0.0422242 -0.208987 0)
(0.0373774 -0.215283 0)
(0.0320363 -0.22122 0)
(0.0262252 -0.226768 0)
(0.0199716 -0.231908 0)
(0.0133044 -0.236623 0)
(0.00625316 -0.240907 0)
(-0.00115284 -0.244754 0)
(-0.0088853 -0.248167 0)
(-0.016918 -0.25115 0)
(-0.0252268 -0.253711 0)
(-0.0337891 -0.255862 0)
(-0.0425835 -0.257614 0)
(-0.0515896 -0.258982 0)
(-0.0607879 -0.259983 0)
(-0.0701596 -0.260633 0)
(-0.0796867 -0.260951 0)
(-0.0893516 -0.260955 0)
(-0.0991367 -0.260664 0)
(-0.109024 -0.260095 0)
(-0.118996 -0.259267 0)
(-0.129034 -0.258197 0)
(-0.139118 -0.256901 0)
(-0.149225 -0.255394 0)
(-0.159331 -0.253689 0)
(-0.169408 -0.251798 0)
(-0.179423 -0.249729 0)
(-0.189335 -0.247489 0)
(-0.19908 -0.245079 0)
(-0.208558 -0.242497 0)
(-0.217686 -0.239735 0)
(-0.226472 -0.236785 0)
(-0.234947 -0.233629 0)
(-0.242316 -0.23023 0)
(-0.244856 -0.226519 0)
(-0.240161 -0.222089 0)
(-0.231039 -0.217099 0)
(-0.22078 -0.211597 0)
(-0.209965 -0.205606 0)
(-0.198553 -0.199144 0)
(-0.186597 -0.192235 0)
(-0.174224 -0.184909 0)
(-0.161573 -0.177208 0)
(-0.148784 -0.169189 0)
(-0.135994 -0.160925 0)
(-0.123361 -0.15251 0)
(-0.111134 -0.144065 0)
(-0.0996886 -0.135746 0)
(-0.0894821 -0.127745 0)
(-0.0809815 -0.120268 0)
(-0.0745715 -0.113496 0)
(-0.0704362 -0.107532 0)
(-0.0684738 -0.102338 0)
(-0.0683208 -0.0977471 0)
(-0.0694827 -0.0935285 0)
(-0.0714799 -0.0894658 0)
(-0.073933 -0.0854027 0)
(-0.0765791 -0.0812447 0)
(-0.0792539 -0.0769435 0)
(-0.0818617 -0.0724797 0)
(-0.0843495 -0.0678496 0)
(-0.0866871 -0.0630582 0)
(-0.0888571 -0.0581142 0)
(-0.0908489 -0.0530286 0)
(-0.0926551 -0.0478134 0)
(-0.0942708 -0.0424809 0)
(-0.0956919 -0.0370438 0)
(-0.0969158 -0.0315143 0)
(-0.0979402 -0.025905 0)
(-0.0987627 -0.0202307 0)
(-0.0993775 -0.0145052 0)
(-0.0997792 -0.00873429 0)
(-0.0999862 -0.00292007 0)
(0.0999809 -0.00415117 0)
(0.0996933 -0.012405 0)
(0.0991251 -0.0205859 0)
(0.0982593 -0.0286736 0)
(0.0971098 -0.0366478 0)
(0.0956898 -0.0444872 0)
(0.0940115 -0.0521719 0)
(0.0920906 -0.0596843 0)
(0.0899486 -0.0670108 0)
(0.0876145 -0.0741422 0)
(0.085126 -0.081076 0)
(0.0825312 -0.0878182 0)
(0.0798886 -0.0943862 0)
(0.0772651 -0.10081 0)
(0.0747313 -0.107134 0)
(0.0723516 -0.113411 0)
(0.0701726 -0.119702 0)
(0.0682089 -0.126061 0)
(0.0664337 -0.13253 0)
(0.0647771 -0.139126 0)
(0.063134 -0.145841 0)
(0.0613807 -0.152643 0)
(0.0593928 -0.159483 0)
(0.0570618 -0.166301 0)
(0.0543035 -0.173036 0)
(0.0510618 -0.179628 0)
(0.0473056 -0.18602 0)
(0.0430251 -0.192166 0)
(0.0382256 -0.198023 0)
(0.0329233 -0.203558 0)
(0.0271405 -0.208746 0)
(0.0209031 -0.213564 0)
(0.0142386 -0.218 0)
(0.00717496 -0.222045 0)
(-0.000259778 -0.225694 0)
(-0.00803843 -0.228947 0)
(-0.0161358 -0.231807 0)
(-0.0245285 -0.234282 0)
(-0.0331947 -0.236378 0)
(-0.0421137 -0.238108 0)
(-0.0512652 -0.239482 0)
(-0.06063 -0.240513 0)
(-0.0701893 -0.241217 0)
(-0.0799248 -0.241608 0)
(-0.0898182 -0.241701 0)
(-0.099851 -0.241511 0)
(-0.110004 -0.241053 0)
(-0.120258 -0.240343 0)
(-0.130591 -0.239393 0)
(-0.140982 -0.238217 0)
(-0.151404 -0.236826 0)
(-0.161831 -0.235231 0)
(-0.172228 -0.233441 0)
(-0.182558 -0.231462 0)
(-0.192774 -0.2293 0)
(-0.202802 -0.226954 0)
(-0.212536 -0.224424 0)
(-0.221894 -0.221705 0)
(-0.230883 -0.218799 0)
(-0.239498 -0.215714 0)
(-0.246707 -0.21244 0)
(-0.248726 -0.208764 0)
(-0.243386 -0.204357 0)
(-0.233811 -0.199451 0)
(-0.22317 -0.194108 0)
(-0.211991 -0.18834 0)
(-0.200225 -0.182162 0)
(-0.187928 -0.1756 0)
(-0.17523 -0.168686 0)
(-0.162278 -0.161463 0)
(-0.149215 -0.153987 0)
(-0.136187 -0.146327 0)
(-0.123364 -0.13857 0)
(-0.111016 -0.130828 0)
(-0.0995336 -0.123244 0)
(-0.0893771 -0.11599 0)
(-0.0810024 -0.109247 0)
(-0.0747672 -0.10317 0)
(-0.0708149 -0.0978303 0)
(-0.0690028 -0.093178 0)
(-0.0689429 -0.0890495 0)
(-0.070138 -0.0852339 0)
(-0.0721207 -0.0815419 0)
(-0.0745279 -0.0778393 0)
(-0.0771118 -0.0740463 0)
(-0.0797182 -0.0701226 0)
(-0.0822582 -0.0660519 0)
(-0.084682 -0.0618315 0)
(-0.0869612 -0.0574655 0)
(-0.0890791 -0.0529615 0)
(-0.0910252 -0.0483291 0)
(-0.0927921 -0.0435785 0)
(-0.0943743 -0.0387209 0)
(-0.0957676 -0.0337672 0)
(-0.0969685 -0.0287285 0)
(-0.0979747 -0.0236163 0)
(-0.0987831 -0.0184441 0)
(-0.0993876 -0.0132248 0)
(-0.0997828 -0.00796369 0)
(-0.0999864 -0.00266249 0)
(0.099981 -0.00378156 0)
(0.0996951 -0.0113007 0)
(0.0991301 -0.0187536 0)
(0.0982692 -0.0261217 0)
(0.0971263 -0.0333867 0)
(0.0957146 -0.040529 0)
(0.0940464 -0.0475303 0)
(0.0921375 -0.054375 0)
(0.0900094 -0.0610505 0)
(0.0876908 -0.0675486 0)
(0.0852195 -0.0738669 0)
(0.0826433 -0.0800112 0)
(0.0800202 -0.0859972 0)
(0.0774171 -0.0918526 0)
(0.0749041 -0.0976169 0)
(0.0725461 -0.10334 0)
(0.0703896 -0.109076 0)
(0.0684502 -0.114876 0)
(0.0667019 -0.120778 0)
(0.0650757 -0.126799 0)
(0.063467 -0.132932 0)
(0.061752 -0.139149 0)
(0.059806 -0.145407 0)
(0.0575191 -0.151651 0)
(0.0548058 -0.157826 0)
(0.051608 -0.163876 0)
(0.0478931 -0.169752 0)
(0.0436494 -0.17541 0)
(0.0388808 -0.180811 0)
(0.0336018 -0.185925 0)
(0.0278332 -0.190727 0)
(0.0215999 -0.195198 0)
(0.0149279 -0.199325 0)
(0.00784411 -0.203099 0)
(0.000375667 -0.206515 0)
(-0.00745115 -0.209572 0)
(-0.0156118 -0.212273 0)
(-0.0240837 -0.214622 0)
(-0.0328455 -0.216625 0)
(-0.0418765 -0.218292 0)
(-0.0511568 -0.219632 0)
(-0.0606673 -0.220656 0)
(-0.0703889 -0.221375 0)
(-0.0803027 -0.221802 0)
(-0.0903898 -0.22195 0)
(-0.10063 -0.22183 0)
(-0.111004 -0.221456 0)
(-0.12149 -0.220838 0)
(-0.132065 -0.219989 0)
(-0.142704 -0.21892 0)
(-0.153378 -0.217639 0)
(-0.164057 -0.216155 0)
(-0.174705 -0.214476 0)
(-0.185278 -0.212607 0)
(-0.195726 -0.210553 0)
(-0.205969 -0.208315 0)
(-0.215898 -0.205892 0)
(-0.225443 -0.203286 0)
(-0.23464 -0.200504 0)
(-0.243442 -0.197565 0)
(-0.250378 -0.19448 0)
(-0.251657 -0.190854 0)
(-0.245626 -0.18656 0)
(-0.235744 -0.181831 0)
(-0.224859 -0.176734 0)
(-0.213417 -0.171274 0)
(-0.20138 -0.165462 0)
(-0.188819 -0.159321 0)
(-0.175871 -0.152885 0)
(-0.162687 -0.146194 0)
(-0.149419 -0.1393 0)
(-0.136215 -0.132269 0)
(-0.123259 -0.125179 0)
(-0.110836 -0.118132 0)
(-0.0993516 -0.11126 0)
(-0.0892661 -0.104716 0)
(-0.0810254 -0.0986582 0)
(-0.074962 -0.0932189 0)
(-0.0711835 -0.08845 0)
(-0.0695122 -0.0842923 0)
(-0.0695403 -0.0805904 0)
(-0.070769 -0.0771539 0)
(-0.072742 -0.0738167 0)
(-0.075111 -0.0704631 0)
(-0.0776405 -0.0670252 0)
(-0.0801859 -0.0634688 0)
(-0.0826638 -0.0597803 0)
(-0.0850277 -0.0559577 0)
(-0.0872511 -0.0520045 0)
(-0.089318 -0.0479275 0)
(-0.0912183 -0.0437349 0)
(-0.0929447 -0.0394359 0)
(-0.0944916 -0.0350402 0)
(-0.0958546 -0.0305577 0)
(-0.0970301 -0.0259982 0)
(-0.0980155 -0.021372 0)
(-0.0988074 -0.0166915 0)
(-0.0993998 -0.0119684 0)
(-0.0997871 -0.0072073 0)
(-0.0999867 -0.00240965 0)
(0.0999811 -0.00341421 0)
(0.0996969 -0.0102031 0)
(0.0991352 -0.0169324 0)
(0.0982793 -0.0235854 0)
(0.0971431 -0.0301457 0)
(0.0957397 -0.0365955 0)
(0.0940815 -0.0429186 0)
(0.0921839 -0.0491007 0)
(0.0900686 -0.0551305 0)
(0.0877642 -0.0610007 0)
(0.085308 -0.0667093 0)
(0.0827477 -0.0722613 0)
(0.0801412 -0.0776711 0)
(0.0775548 -0.0829634 0)
(0.0750587 -0.0881741 0)
(0.0727177 -0.0933481 0)
(0.0705788 -0.0985345 0)
(0.068658 -0.10378 0)
(0.0669301 -0.109118 0)
(0.0653268 -0.114567 0)
(0.0637439 -0.12012 0)
(0.0620575 -0.125752 0)
(0.0601424 -0.131425 0)
(0.0578877 -0.137091 0)
(0.0552067 -0.142699 0)
(0.0520399 -0.148199 0)
(0.0483533 -0.153547 0)
(0.0441338 -0.158702 0)
(0.0393839 -0.163631 0)
(0.034117 -0.168304 0)
(0.028353 -0.1727 0)
(0.0221153 -0.176801 0)
(0.0154294 -0.180593 0)
(0.00832129 -0.184069 0)
(0.000817236 -0.187223 0)
(-0.00705706 -0.190055 0)
(-0.0152776 -0.192565 0)
(-0.0238221 -0.194757 0)
(-0.0326697 -0.196636 0)
(-0.0417997 -0.198209 0)
(-0.0511924 -0.199483 0)
(-0.0608284 -0.200469 0)
(-0.0706884 -0.201174 0)
(-0.0807529 -0.20161 0)
(-0.0910022 -0.201787 0)
(-0.101416 -0.201715 0)
(-0.111972 -0.201404 0)
(-0.122648 -0.200864 0)
(-0.133418 -0.200105 0)
(-0.144257 -0.199135 0)
(-0.155133 -0.197963 0)
(-0.166013 -0.196595 0)
(-0.176858 -0.195038 0)
(-0.187624 -0.193297 0)
(-0.198253 -0.191376 0)
(-0.208665 -0.189277 0)
(-0.218747 -0.187 0)
(-0.228443 -0.184547 0)
(-0.237808 -0.181925 0)
(-0.246728 -0.17915 0)
(-0.253288 -0.176247 0)
(-0.253788 -0.172772 0)
(-0.247178 -0.168698 0)
(-0.23709 -0.164248 0)
(-0.226045 -0.159482 0)
(-0.21441 -0.154402 0)
(-0.202166 -0.149021 0)
(-0.189401 -0.143359 0)
(-0.176261 -0.137449 0)
(-0.162902 -0.131328 0)
(-0.149478 -0.125046 0)
(-0.136145 -0.118661 0)
(-0.123094 -0.112244 0)
(-0.11063 -0.105889 0)
(-0.0991638 -0.0997125 0)
(-0.0891589 -0.0938527 0)
(-0.0810501 -0.088449 0)
(-0.0751474 -0.0836116 0)
(-0.0715264 -0.0793768 0)
(-0.0699805 -0.0756809 0)
(-0.0700859 -0.0723791 0)
(-0.0713444 -0.0693012 0)
(-0.0733097 -0.0663026 0)
(-0.075646 -0.0632842 0)
(-0.0781291 -0.0601885 0)
(-0.0806217 -0.0569867 0)
(-0.0830455 -0.0536677 0)
(-0.0853565 -0.0502299 0)
(-0.0875297 -0.0466766 0)
(-0.0895502 -0.0430136 0)
(-0.091408 -0.039248 0)
(-0.0930961 -0.035388 0)
(-0.0946091 -0.031442 0)
(-0.0959425 -0.0274187 0)
(-0.0970929 -0.0233268 0)
(-0.0980573 -0.0191754 0)
(-0.0988324 -0.0149757 0)
(-0.0994124 -0.0107381 0)
(-0.0997916 -0.00646659 0)
(-0.099987 -0.00216205 0)
(0.0999812 -0.00304903 0)
(0.0996986 -0.00911193 0)
(0.0991401 -0.0151217 0)
(0.0982891 -0.0210638 0)
(0.0971592 -0.0269233 0)
(0.0957637 -0.0326847 0)
(0.0941146 -0.0383333 0)
(0.0922275 -0.0438565 0)
(0.0901237 -0.0492443 0)
(0.0878317 -0.0544901 0)
(0.0853888 -0.059592 0)
(0.0828421 -0.0645548 0)
(0.0802493 -0.0693911 0)
(0.0776766 -0.0741231 0)
(0.075194 -0.0787826 0)
(0.0728662 -0.0834099 0)
(0.0707406 -0.0880491 0)
(0.0688337 -0.0927417 0)
(0.067121 -0.0975191 0)
(0.0655345 -0.102396 0)
(0.0639706 -0.107369 0)
(0.0623052 -0.112416 0)
(0.0604126 -0.117503 0)
(0.0581811 -0.122586 0)
(0.055523 -0.127621 0)
(0.0523776 -0.132564 0)
(0.0487098 -0.137374 0)
(0.0445053 -0.142015 0)
(0.0397658 -0.146458 0)
(0.0345035 -0.150675 0)
(0.0287376 -0.154647 0)
(0.0224907 -0.158358 0)
(0.0157876 -0.161795 0)
(0.00865353 -0.164952 0)
(0.00111438 -0.167822 0)
(-0.00680466 -0.170404 0)
(-0.0150799 -0.172699 0)
(-0.0236895 -0.174709 0)
(-0.0326125 -0.176439 0)
(-0.0418285 -0.177893 0)
(-0.0513177 -0.179078 0)
(-0.0610604 -0.180001 0)
(-0.071037 -0.180671 0)
(-0.0812274 -0.181095 0)
(-0.0916112 -0.181283 0)
(-0.102167 -0.181242 0)
(-0.112872 -0.180981 0)
(-0.123702 -0.180508 0)
(-0.134631 -0.179832 0)
(-0.145629 -0.178959 0)
(-0.156666 -0.177897 0)
(-0.167704 -0.17665 0)
(-0.178704 -0.175225 0)
(-0.189618 -0.173626 0)
(-0.200387 -0.171856 0)
(-0.210926 -0.169918 0)
(-0.221123 -0.167811 0)
(-0.230932 -0.165538 0)
(-0.240421 -0.163105 0)
(-0.249412 -0.160523 0)
(-0.25558 -0.157844 0)
(-0.255369 -0.154602 0)
(-0.248272 -0.150834 0)
(-0.238031 -0.146736 0)
(-0.226868 -0.142363 0)
(-0.215087 -0.137718 0)
(-0.202685 -0.132814 0)
(-0.189764 -0.127672 0)
(-0.176478 -0.122322 0)
(-0.162985 -0.116798 0)
(-0.149445 -0.111145 0)
(-0.136015 -0.105415 0)
(-0.122899 -0.0996722 0)
(-0.110413 -0.0940007 0)
(-0.0989781 -0.0885054 0)
(-0.0890561 -0.0833075 0)
(-0.0810723 -0.0785288 0)
(-0.0753164 -0.0742616 0)
(-0.0718367 -0.0705301 0)
(-0.0704018 -0.0672698 0)
(-0.0705755 -0.0643486 0)
(-0.0718607 -0.0616161 0)
(-0.0738201 -0.058947 0)
(-0.0761291 -0.0562569 0)
(-0.0785724 -0.053497 0)
(-0.0810194 -0.0506434 0)
(-0.0833958 -0.0476868 0)
(-0.0856601 -0.0446261 0)
(-0.0877887 -0.0414641 0)
(-0.0897673 -0.038206 0)
(-0.0915864 -0.0348581 0)
(-0.0932394 -0.0314272 0)
(-0.0947209 -0.0279209 0)
(-0.0960266 -0.0243467 0)
(-0.097153 -0.0207122 0)
(-0.0980974 -0.0170254 0)