/*--------------------------------*- C++ -*----------------------------------*\
  =========                 |
  \\      /  F ield         | OpenFOAM: The Open Source CFD Toolbox
   \\    /   O peration     | Website:  https://openfoam.org
    \\  /    A nd           | Version:  10
     \\/     M anipulation  |
\*---------------------------------------------------------------------------*/
FoamFile
{
    format      ascii;
    class       volScalarField;
    location    "12000/solid";
    object      T;
}
// * * * * * * * * * * * * * * * * * * * * * * * * * * * * * * * * * * * * * //

dimensions      [0 0 0 1 0 0 0];

internalField   nonuniform List<scalar> 
1952
(
313.452
313.461
313.465
313.466
313.87
313.879
313.883
313.884
314.293
314.302
314.306
314.307
314.721
314.73
314.734
314.734
315.153
315.163
315.167
315.166
315.591
315.601
315.605
315.604
316.034
316.044
316.048
316.047
316.483
316.493
316.497
316.496
316.938
316.949
316.953
316.951
317.399
317.41
317.414
317.412
317.867
317.878
317.882
317.88
318.342
318.353
318.357
318.355
318.824
318.835
318.839
318.836
319.313
319.325
319.328
319.326
319.81
319.822
319.826
319.822
320.315
320.327
320.331
320.327
320.828
320.841
320.844
320.841
321.35
321.363
321.367
321.363
321.881
321.894
321.898
321.893
322.422
322.435
322.438
322.434
322.972
322.985
322.989
322.984
323.532
323.546
323.549
323.543
324.102
324.116
324.12
324.114
324.683
324.698
324.701
324.695
325.275
325.29
325.293
325.287
325.879
325.894
325.897
325.89
326.494
326.51
326.513
326.506
327.122
327.138
327.141
327.134
327.762
327.779
327.782
327.774
328.416
328.433
328.436
328.427
329.083
329.1
329.103
329.094
329.763
329.781
329.784
329.775
330.458
330.477
330.48
330.471
331.167
331.186
331.191
331.181
331.889
331.911
331.917
331.908
332.625
332.65
332.66
332.653
333.37
333.403
333.421
333.418
334.116
334.169
334.205
334.206
334.843
334.946
335.021
335.025
335.498
335.734
335.905
335.877
312.227
312.239
312.261
312.294
312.596
312.608
312.631
312.664
312.958
312.971
312.994
313.028
313.315
313.327
313.351
313.385
313.665
313.678
313.702
313.737
314.01
314.023
314.047
314.082
314.349
314.362
314.387
314.422
314.682
314.696
314.72
314.756
315.01
315.024
315.049
315.084
315.332
315.346
315.372
315.408
315.65
315.664
315.689
315.726
315.962
315.976
316.002
316.039
316.269
316.284
316.31
316.346
316.572
316.587
316.613
316.65
316.869
316.885
316.911
316.948
317.162
317.178
317.205
317.242
317.451
317.467
317.494
317.531
317.735
317.751
317.778
317.816
318.015
318.032
318.059
318.097
318.291
318.308
318.335
318.373
318.563
318.58
318.608
318.646
318.831
318.848
318.876
318.915
319.095
319.113
319.141
319.18
319.356
319.373
319.402
319.441
319.612
319.63
319.659
319.698
319.866
319.884
319.913
319.952
320.115
320.134
320.163
320.202
320.362
320.38
320.41
320.449
320.605
320.624
320.653
320.693
320.845
320.864
320.893
320.934
321.082
321.101
321.131
321.171
321.315
321.335
321.365
321.405
321.546
321.565
321.596
321.637
321.774
321.793
321.824
321.865
321.999
322.018
322.049
322.09
322.221
322.241
322.272
322.313
322.44
322.46
322.492
322.533
322.657
322.677
322.709
322.75
322.871
322.892
322.923
322.965
323.082
323.103
323.135
323.177
302.092
302.019
301.951
301.889
302.151
302.076
302.007
301.943
302.205
302.13
302.06
301.994
302.255
302.18
302.108
302.041
302.302
302.226
302.154
302.086
302.346
302.269
302.196
302.127
302.387
302.309
302.236
302.166
302.425
302.347
302.273
302.202
302.461
302.382
302.307
302.235
302.494
302.415
302.34
302.267
302.526
302.447
302.37
302.297
302.556
302.476
302.399
302.325
302.584
302.503
302.426
302.351
302.61
302.53
302.452
302.376
302.635
302.554
302.476
302.4
302.659
302.578
302.499
302.422
302.682
302.6
302.52
302.443
302.703
302.621
302.541
302.463
302.724
302.641
302.561
302.482
302.743
302.66
302.579
302.501
302.762
302.679
302.597
302.518
302.78
302.696
302.615
302.535
302.797
302.713
302.631
302.551
302.813
302.729
302.647
302.566
302.829
302.745
302.662
302.581
302.845
302.76
302.677
302.595
302.859
302.774
302.691
302.609
302.874
302.788
302.704
302.622
302.887
302.802
302.717
302.635
302.901
302.815
302.73
302.647
302.914
302.827
302.743
302.659
302.926
302.84
302.755
302.671
302.939
302.852
302.766
302.682
302.951
302.863
302.778
302.693
302.962
302.875
302.789
302.704
302.974
302.886
302.8
302.715
302.985
302.897
302.81
302.725
302.996
302.908
302.821
302.735
303.007
302.918
302.831
302.745
303.017
302.928
302.841
302.755
323.291
323.312
323.344
323.387
323.501
323.523
323.555
323.597
323.712
323.734
323.766
323.809
323.921
323.943
323.975
324.018
324.127
324.149
324.182
324.225
324.332
324.354
324.387
324.43
324.533
324.556
324.589
324.632
324.733
324.756
324.789
324.833
324.931
324.953
324.987
325.031
325.126
325.149
325.183
325.227
325.319
325.342
325.376
325.421
325.51
325.534
325.568
325.612
325.7
325.723
325.757
325.802
325.887
325.91
325.945
325.99
326.072
326.096
326.131
326.176
326.255
326.279
326.314
326.359
326.436
326.461
326.496
326.541
326.616
326.64
326.675
326.721
326.793
326.818
326.853
326.899
326.969
326.994
327.029
327.075
327.143
327.168
327.203
327.25
327.314
327.34
327.376
327.422
327.485
327.51
327.546
327.593
327.653
327.678
327.715
327.761
327.819
327.845
327.882
327.928
327.984
328.01
328.047
328.094
328.147
328.173
328.21
328.257
328.308
328.334
328.372
328.419
328.468
328.494
328.531
328.579
328.625
328.652
328.689
328.737
328.781
328.808
328.846
328.894
328.936
328.963
329
329.048
329.088
329.115
329.153
329.201
329.239
329.266
329.304
329.353
329.388
329.416
329.454
329.502
329.536
329.563
329.601
329.65
329.681
329.709
329.748
329.796
329.825
329.853
329.892
329.941
329.968
329.996
330.034
330.084
330.108
330.137
330.175
330.225
330.248
330.276
330.315
330.364
330.385
330.413
330.452
330.502
330.521
330.549
330.588
330.638
330.655
330.684
330.723
330.772
330.788
330.816
330.856
330.905
330.919
330.947
330.987
331.037
331.048
331.077
331.117
331.166
331.176
331.205
331.245
331.295
331.303
331.332
331.372
331.422
331.428
331.457
331.497
331.547
331.552
331.581
331.621
331.671
331.674
331.703
331.743
331.793
331.794
331.824
331.864
331.914
331.914
331.943
331.983
332.033
332.031
332.061
332.101
332.151
332.148
332.177
332.218
332.268
332.263
332.292
332.333
332.383
332.376
332.406
332.446
332.497
332.489
332.518
332.559
332.609
332.599
332.629
332.67
332.72
332.709
332.739
332.779
332.83
332.817
332.847
332.888
332.938
332.928
332.958
332.998
333.049
333.041
333.071
333.112
333.162
333.153
333.183
333.223
333.274
333.263
333.293
333.334
333.385
333.372
333.402
333.443
333.494
333.48
333.51
333.551
333.602
333.586
333.617
333.658
333.709
333.691
333.722
333.763
333.814
333.795
333.826
333.867
333.918
333.898
333.928
333.969
334.02
333.999
334.029
334.07
334.121
334.098
334.129
334.17
334.221
334.197
334.227
334.269
334.32
334.294
334.325
334.366
334.417
334.39
334.42
334.461
334.513
334.484
334.515
334.556
334.607
334.577
334.608
334.649
334.7
334.669
334.7
334.741
334.792
334.759
334.79
334.831
334.882
334.848
334.879
334.92
334.971
334.936
334.967
335.008
335.059
335.023
335.053
335.094
335.146
335.108
335.138
335.179
335.231
335.191
335.222
335.263
335.314
335.273
335.304
335.345
335.396
335.354
335.385
335.426
335.477
335.434
335.465
335.506
335.557
335.512
335.543
335.584
335.635
335.589
335.62
335.661
335.712
335.664
335.695
335.736
335.787
335.739
335.769
335.81
335.861
335.811
335.842
335.883
335.934
335.883
335.913
335.954
336.005
335.953
335.983
336.024
336.075
336.021
336.052
336.092
336.143
336.088
336.119
336.159
336.21
336.154
336.185
336.225
336.276
336.219
336.249
336.29
336.34
336.282
336.312
336.353
336.403
336.344
336.374
336.414
336.465
336.405
336.435
336.475
336.525
336.464
336.494
336.534
336.584
336.522
336.552
336.592
336.642
336.578
336.608
336.648
336.698
336.634
336.663
336.703
336.753
336.688
336.717
336.757
336.807
336.741
336.77
336.81
336.859
336.792
336.822
336.861
336.911
336.843
336.872
336.911
336.961
336.892
336.921
336.96
337.01
336.94
336.969
337.008
337.057
336.987
337.016
337.055
337.104
337.033
337.061
337.101
337.15
337.077
337.106
337.145
337.194
337.119
337.149
337.189
337.239
337.159
337.191
337.233
337.283
337.196
337.231
337.276
337.329
337.223
337.27
337.322
337.378
303.028
302.939
302.851
302.765
303.038
302.949
302.861
302.774
303.049
302.959
302.871
302.784
303.059
302.969
302.881
302.793
303.069
302.979
302.89
302.803
303.079
302.989
302.9
302.812
303.089
302.999
302.91
302.822
303.1
303.009
302.919
302.831
303.11
303.019
302.929
302.84
303.12
303.028
302.938
302.849
303.13
303.038
302.948
302.859
303.14
303.048
302.957
302.868
303.15
303.058
302.967
302.877
303.16
303.067
302.976
302.886
303.17
303.077
302.986
302.896
303.18
303.087
302.995
302.905
303.19
303.097
303.005
302.914
303.2
303.107
303.015
302.924
303.211
303.117
303.024
302.933
303.221
303.127
303.034
302.943
303.232
303.137
303.044
302.952
303.242
303.147
303.054
302.962
303.253
303.158
303.064
302.972
303.263
303.168
303.074
302.981
303.274
303.179
303.084
302.991
303.285
303.189
303.095
303.001
303.296
303.2
303.105
303.012
303.308
303.211
303.116
303.022
303.319
303.222
303.127
303.032
303.33
303.233
303.138
303.043
303.342
303.245
303.149
303.054
303.354
303.256
303.16
303.065
303.366
303.268
303.171
303.076
303.378
303.28
303.183
303.087
303.391
303.292
303.195
303.098
303.404
303.305
303.207
303.11
303.417
303.317
303.219
303.122
303.43
303.33
303.232
303.134
303.443
303.343
303.245
303.147
303.457
303.357
303.258
303.16
303.471
303.371
303.271
303.173
303.486
303.385
303.285
303.186
303.501
303.4
303.299
303.2
303.516
303.415
303.314
303.214
303.532
303.43
303.329
303.229
303.548
303.446
303.345
303.244
303.565
303.463
303.361
303.26
303.583
303.48
303.377
303.276
303.601
303.497
303.394
303.292
303.62
303.516
303.412
303.31
303.639
303.535
303.43
303.327
303.66
303.554
303.449
303.346
303.68
303.574
303.469
303.364
303.701
303.594
303.488
303.383
303.723
303.615
303.509
303.403
303.745
303.636
303.529
303.423
303.767
303.658
303.55
303.443
303.79
303.68
303.571
303.464
303.813
303.702
303.593
303.484
303.836
303.725
303.615
303.506
303.86
303.747
303.637
303.527
303.883
303.77
303.659
303.548
303.907
303.794
303.681
303.57
303.932
303.817
303.704
303.592
303.956
303.841
303.727
303.615
303.981
303.865
303.75
303.637
304.006
303.889
303.774
303.66
304.03
303.913
303.797
303.682
304.056
303.937
303.821
303.705
304.081
303.962
303.844
303.728
304.106
303.986
303.868
303.752
304.132
304.011
303.892
303.775
304.157
304.036
303.917
303.798
304.183
304.061
303.941
303.822
304.209
304.086
303.965
303.846
304.235
304.112
303.99
303.87
304.261
304.137
304.015
303.894
304.288
304.163
304.04
303.918
304.314
304.189
304.065
303.942
304.341
304.215
304.091
303.967
304.368
304.242
304.116
303.992
304.396
304.268
304.142
304.018
304.424
304.296
304.169
304.043
304.452
304.323
304.196
304.069
304.481
304.351
304.223
304.096
304.51
304.38
304.251
304.123
304.54
304.409
304.279
304.15
304.57
304.438
304.308
304.178
304.601
304.468
304.337
304.207
304.632
304.499
304.367
304.236
304.665
304.531
304.398
304.266
304.698
304.564
304.43
304.297
304.732
304.597
304.462
304.329
304.768
304.632
304.496
304.361
304.804
304.667
304.531
304.395
304.842
304.704
304.566
304.429
304.881
304.742
304.603
304.465
304.921
304.781
304.641
304.502
304.962
304.821
304.68
304.54
305.005
304.863
304.721
304.58
305.049
304.906
304.763
304.62
305.095
304.95
304.806
304.662
305.142
304.997
304.851
304.706
305.191
305.044
304.897
304.751
305.242
305.094
304.945
304.797
305.294
305.145
304.995
304.846
305.349
305.197
305.046
304.895
305.405
305.251
305.099
304.946
305.462
305.307
305.153
304.999
305.522
305.365
305.209
305.053
305.583
305.425
305.267
305.109
305.646
305.486
305.326
305.166
305.71
305.548
305.386
305.225
305.777
305.612
305.449
305.285
305.845
305.678
305.512
305.347
305.914
305.745
305.577
305.41
305.985
305.814
305.644
305.474
306.057
305.884
305.711
305.539
306.131
305.954
305.779
305.606
306.205
306.026
305.849
305.673
306.281
306.099
305.919
305.74
306.356
306.172
305.989
305.809
306.433
306.245
306.06
305.877
306.509
306.319
306.131
305.945
306.586
306.392
306.201
306.014
306.662
306.465
306.271
306.081
306.737
306.537
306.341
306.148
306.811
306.608
306.409
306.214
306.884
306.677
306.475
306.278
306.954
306.744
306.539
306.339
307.022
306.809
306.601
306.399
307.087
306.871
306.66
306.455
307.149
306.929
306.715
306.509
307.206
306.982
306.766
306.558
307.258
307.031
306.813
306.602
307.305
307.075
306.854
306.641
307.346
307.113
306.889
306.675
307.379
307.143
306.918
306.702
307.405
307.167
306.939
306.723
307.423
307.182
306.953
306.735
307.431
307.189
306.959
306.74
307.43
307.186
306.955
306.736
307.418
307.173
306.942
306.723
307.396
307.15
306.919
306.7
307.361
307.116
306.885
306.667
307.315
307.071
306.841
306.625
307.257
307.015
306.787
306.572
307.187
306.947
306.721
306.509
307.104
306.868
306.646
306.436
307.01
306.778
306.56
306.354
306.904
306.679
306.465
306.263
306.788
306.57
306.362
306.164
306.663
306.453
306.253
306.059
306.53
306.331
306.138
305.95
306.392
306.205
306.02
305.838
306.252
306.078
305.902
305.726
306.118
305.955
305.787
305.616
305.995
305.84
305.677
305.51
305.887
305.735
305.573
305.408
305.802
305.643
305.475
305.308
329.205
329.211
329.222
329.24
328.41
328.414
328.424
328.44
327.603
327.608
327.617
327.63
326.788
326.792
326.8
326.813
329.262
329.289
329.32
329.354
328.459
328.483
328.509
328.537
327.648
327.668
327.692
327.716
326.829
326.848
326.869
326.892
329.389
329.425
329.46
329.491
329.517
329.533
329.536
329.518
329.473
329.411
329.341
329.265
329.18
329.081
328.969
328.841
328.696
328.533
328.353
328.154
327.937
327.702
327.447
327.175
326.884
326.575
326.248
325.904
325.543
325.165
324.77
324.366
328.567
328.596
328.622
328.644
328.66
328.666
328.66
328.637
328.596
328.54
328.473
328.397
328.31
328.21
328.097
327.969
327.825
327.665
327.487
327.292
327.08
326.85
326.603
326.337
326.055
325.755
325.438
325.104
324.755
324.39
324.011
323.62
327.741
327.765
327.786
327.803
327.812
327.813
327.801
327.776
327.737
327.684
327.619
327.544
327.457
327.358
327.245
327.119
326.977
326.82
326.646
326.456
326.249
326.025
325.784
325.526
325.252
324.961
324.653
324.33
323.992
323.64
323.274
322.896
326.914
326.935
326.954
326.967
326.973
326.971
326.958
326.932
326.894
326.843
326.78
326.706
326.621
326.524
326.414
326.29
326.151
325.998
325.829
325.644
325.442
325.225
324.991
324.741
324.474
324.192
323.894
323.581
323.254
322.913
322.559
322.193
323.951
323.523
323.086
322.638
323.218
322.806
322.383
321.951
322.507
322.108
321.699
321.281
321.816
321.43
321.034
320.63
322.183
321.719
321.25
320.777
320.299
319.817
319.33
318.841
318.352
317.863
317.376
316.891
316.411
315.935
315.464
315
314.542
314.09
313.646
313.209
312.781
312.359
311.946
311.541
311.144
310.754
310.372
309.998
309.63
309.269
308.915
308.567
308.225
307.89
307.563
307.244
306.931
306.624
306.325
306.038
321.511
321.064
320.61
320.153
319.69
319.224
318.755
318.283
317.811
317.339
316.869
316.401
315.937
315.477
315.022
314.573
314.129
313.692
313.262
312.839
312.423
312.014
311.613
311.22
310.834
310.456
310.085
309.721
309.364
309.013
308.669
308.332
308.001
307.677
307.361
307.053
306.753
306.461
306.181
305.915
320.856
320.424
319.986
319.543
319.095
318.644
318.191
317.735
317.279
316.823
316.369
315.916
315.467
315.022
314.582
314.147
313.718
313.294
312.877
312.467
312.064
311.668
311.279
310.898
310.523
310.156
309.796
309.442
309.096
308.756
308.422
308.095
307.775
307.462
307.156
306.859
306.57
306.291
306.025
305.774
320.218
319.799
319.375
318.946
318.513
318.077
317.637
317.197
316.755
316.314
315.874
315.437
315.002
314.571
314.145
313.723
313.307
312.897
312.493
312.096
311.705
311.321
310.944
310.574
310.211
309.854
309.505
309.162
308.826
308.496
308.173
307.856
307.546
307.242
306.947
306.659
306.381
306.112
305.857
305.616
305.767
305.561
305.378
305.208
305.67
305.458
305.27
305.099
305.542
305.334
305.147
304.978
305.394
305.192
305.009
304.844
)
;

boundaryField
{
    external
    {
        type            externalWallHeatFluxTemperature;
        h               uniform 1000;
        Ta
        {
            type            uniform;
            value           300;
        }
        refValue        uniform 300;
        refGradient     uniform 0;
        valueFraction   nonuniform List<scalar> 
304
(
0.0153846
0.0153846
0.0153846
0.0153846
0.0153846
0.0153846
0.0153846
0.0153846
0.0153846
0.0153846
0.0153846
0.0153846
0.0153558
0.0153558
0.0153558
0.0153558
0.0153558
0.0153558
0.0153558
0.0153558
0.0153558
0.0153558
0.0153558
0.0153558
0.0153558
0.0153558
0.0153558
0.0153558
0.0153558
0.0153558
0.0153558
0.0153558
0.0153558
0.0153558
0.0153558
0.0153558
0.0153558
0.0153558
0.0153558
0.0153558
0.0153558
0.0153558
0.0153558
0.0153558
0.0153558
0.0153558
0.0153558
0.0153558
0.0153558
0.0153558
0.0153558
0.0153558
0.0153558
0.0153558
0.0153558
0.0153558
0.0153558
0.0153558
0.0153558
0.0153558
0.0153558
0.0153558
0.0153558
0.0153558
0.0153558
0.0153558
0.0153558
0.0153558
0.0153558
0.0153558
0.0153558
0.0153558
0.0153558
0.0153558
0.0153558
0.0153558
0.0153558
0.0153558
0.0153558
0.0153558
0.0153558
0.0153558
0.0153558
0.0153558
0.0153558
0.0153558
0.0153558
0.0153558
0.0153558
0.0153558
0.0153558
0.0153558
0.0153558
0.0153558
0.0153558
0.0153558
0.0153558
0.0153558
0.0153558
0.0153558
0.0153558
0.0153558
0.0153558
0.0153558
0.0153558
0.0153558
0.0153558
0.0153558
0.0153558
0.0153558
0.0153558
0.0153558
0.0153558
0.0153558
0.0153558
0.0153558
0.0153558
0.0153558
0.0153558
0.0153558
0.0153558
0.0153558
0.0153558
0.0153558
0.0153558
0.0153558
0.0153558
0.0153558
0.0153558
0.0153558
0.0153558
0.0153558
0.0153558
0.0153558
0.0153558
0.0153558
0.0153558
0.0153558
0.0153558
0.0153558
0.0153558
0.0153558
0.0153558
0.0153558
0.0153558
0.0153558
0.0153558
0.0153558
0.0153558
0.0153558
0.0153558
0.0153558
0.0153558
0.0153558
0.0153558
0.0153558
0.0153558
0.0153558
0.0153558
0.0153558
0.0153558
0.0153558
0.0153558
0.0153558
0.0153558
0.0153558
0.0153558
0.0153558
0.0153558
0.0153558
0.0153558
0.0153558
0.0153558
0.0153558
0.0153558
0.0153558
0.0153558
0.0153558
0.0153558
0.0153558
0.0153558
0.0153558
0.0153558
0.0153558
0.0153558
0.0153558
0.0153558
0.0153558
0.0153558
0.0153558
0.0153558
0.0153558
0.0153558
0.0153558
0.0153558
0.0153558
0.0153558
0.0153558
0.0153558
0.0153558
0.0153558
0.0153558
0.0153558
0.0153558
0.0153558
0.0153558
0.0153558
0.0153558
0.0153558
0.0153558
0.0153558
0.0153558
0.0153558
0.0153558
0.0153558
0.0153558
0.0153846
0.0153846
0.0153846
0.0153846
0.0153846
0.0153846
0.0153846
0.0153846
0.0153846
0.0153846
0.0153846
0.0153846
0.0153846
0.0153846
0.0153846
0.0153846
0.0153846
0.0153846
0.0153846
0.0153846
0.0153846
0.0153846
0.0153846
0.0153846
0.0153846
0.0153846
0.0153846
0.0153846
0.0153846
0.0153846
0.0153846
0.0153846
0.0153846
0.0153846
0.0153846
0.0153846
0.0153846
0.0153846
0.0153846
0.0153846
0.0153846
0.0153846
0.0153846
0.0153846
0.0153846
0.0153846
0.0153846
0.0153846
0.0153846
0.0153846
0.0153846
0.0153846
0.0153846
0.0153846
0.0153846
0.0153846
0.0153846
0.0153846
0.0153846
0.0153846
0.0153846
0.0153846
0.0153846
0.0153846
0.0153846
0.0153846
0.0153846
0.0153846
0.0153846
0.0153846
0.0153846
0.0153846
0.0153846
0.0153846
0.0153846
0.0153846
0.0153846
0.0153846
0.0153846
0.0153846
0.0153846
0.0153846
0.0153846
0.0153846
0.0153846
0.0153846
0.0153846
0.0153846
)
;
        value           nonuniform List<scalar> 
304
(
313.245
313.254
313.258
313.258
312.039
312.05
312.072
312.105
302.06
301.988
301.921
301.86
301.86
301.913
301.963
302.01
302.054
302.094
302.132
302.168
302.201
302.232
302.262
302.289
302.315
302.34
302.363
302.385
302.406
302.425
302.444
302.462
302.479
302.496
302.512
302.527
302.541
302.555
302.569
302.582
302.594
302.607
302.618
302.63
302.641
302.652
302.663
302.673
302.683
302.693
302.703
302.713
302.722
302.732
302.741
302.751
302.76
302.769
302.778
302.787
302.797
302.806
302.815
302.824
302.833
302.842
302.851
302.86
302.869
302.879
302.888
302.897
302.907
302.916
302.926
302.936
302.945
302.955
302.965
302.975
302.986
302.996
303.007
303.018
303.028
303.04
303.051
303.062
303.074
303.086
303.099
303.111
303.124
303.137
303.151
303.165
303.179
303.194
303.21
303.225
303.242
303.259
303.276
303.294
303.313
303.331
303.351
303.37
303.39
303.41
303.431
303.452
303.473
303.494
303.515
303.537
303.559
303.581
303.604
303.626
303.648
303.671
303.694
303.717
303.74
303.763
303.787
303.81
303.834
303.858
303.882
303.906
303.931
303.956
303.981
304.007
304.033
304.059
304.086
304.114
304.142
304.171
304.201
304.231
304.262
304.294
304.327
304.361
304.397
304.433
304.47
304.509
304.549
304.591
304.634
304.678
304.724
304.771
304.82
304.87
304.922
304.976
305.031
305.087
305.145
305.204
305.265
305.327
305.39
305.454
305.52
305.586
305.652
305.719
305.787
305.854
305.921
305.988
306.054
306.118
306.181
306.242
306.301
306.356
306.409
306.457
306.501
306.539
306.573
306.599
306.619
306.632
306.636
306.632
306.62
306.597
306.565
306.523
306.471
306.409
306.337
306.256
306.167
306.07
305.966
305.859
305.749
305.638
305.53
305.425
305.325
305.227
305.128
305.021
304.902
304.769
326.376
326.38
326.388
326.4
326.416
326.435
326.456
326.478
326.5
326.521
326.539
326.552
326.558
326.556
326.543
326.518
326.48
326.43
326.368
326.296
326.212
326.116
326.007
325.885
325.749
325.598
325.431
325.249
325.051
324.837
324.606
324.36
324.098
323.82
323.527
323.218
322.896
322.56
322.212
321.852
321.481
321.1
320.71
320.312
319.907
319.495
319.077
318.655
318.228
317.799
317.366
316.932
316.497
316.063
315.63
315.199
314.771
314.347
313.927
313.512
313.102
312.699
312.301
311.909
311.525
311.147
310.775
310.411
310.054
309.703
309.359
309.021
308.69
308.365
308.047
307.735
307.429
307.131
306.84
306.557
306.282
306.018
305.767
305.53
305.311
305.112
304.932
304.769
)
;
    }
    wedgeNeg
    {
        type            wedge;
    }
    wedgePos
    {
        type            wedge;
    }
    solid_to_gas
    {
        type            compressible::turbulentTemperatureRadCoupledMixed;
        refValue        nonuniform List<scalar> 
692
(
300.066
300.38
300.686
300.987
301.273
301.548
301.789
302.069
302.334
302.603
302.844
303.113
303.374
303.643
303.921
304.194
304.447
304.708
304.964
305.261
305.55
305.841
306.119
306.42
306.724
307.027
307.337
307.641
307.971
308.304
308.647
308.974
309.341
309.686
310.054
310.43
310.812
311.201
311.597
312.077
300.028
300.139
300.26
300.367
300.472
300.57
300.664
300.752
300.837
300.918
300.998
301.075
301.151
301.226
301.301
301.375
301.449
301.524
301.6
301.676
301.753
301.832
301.912
301.994
302.077
302.163
302.251
302.341
302.435
302.531
302.634
302.741
302.854
302.973
303.099
303.234
303.38
303.576
304.286
668.651
1126.58
1526.19
311.764
1409.23
300.028
300.157
300.285
300.396
300.534
300.654
300.765
300.886
300.991
301.101
301.206
301.305
301.401
301.492
301.58
301.662
301.74
301.815
301.886
301.955
302.021
302.084
302.146
302.205
302.264
302.321
302.376
302.431
302.486
302.54
302.593
302.646
302.699
302.751
302.803
302.855
302.907
302.959
303.01
303.061
363.214
364.096
364.899
365.71
366.506
367.287
368.053
368.804
369.542
370.268
370.985
371.69
372.384
373.07
373.746
374.414
375.075
375.729
376.375
377.016
377.65
378.279
378.903
379.521
380.135
380.744
381.348
381.948
382.544
383.136
383.724
384.308
384.889
385.466
386.04
386.61
387.177
387.741
388.302
388.859
401.153
401.797
402.114
402.62
403.031
403.502
403.947
404.41
404.866
405.328
405.788
406.249
406.71
407.17
407.63
408.089
408.546
409.002
409.456
409.909
410.358
410.806
411.25
411.691
412.129
412.563
412.991
413.415
413.832
414.244
414.649
415.046
415.436
415.818
416.195
416.567
416.93
417.274
417.601
417.965
303.111
303.162
303.213
303.263
303.313
303.364
303.413
303.464
303.513
303.563
303.611
303.662
303.71
303.759
303.808
303.857
303.905
303.954
304.002
304.05
304.099
304.147
304.196
304.245
304.293
304.343
304.392
304.442
304.492
304.543
304.595
304.647
304.7
304.753
304.808
304.864
304.92
304.978
305.037
305.098
305.159
305.223
305.288
305.354
305.422
305.492
305.564
305.638
305.713
305.791
305.871
305.953
306.037
306.124
306.212
306.304
306.397
306.494
306.59
306.693
306.794
306.902
307.008
307.119
307.232
307.347
307.466
307.587
307.71
307.836
307.964
308.095
308.229
308.365
308.503
308.644
308.787
308.932
309.08
309.23
309.383
309.537
309.694
309.853
310.014
310.177
310.343
310.51
310.68
310.851
311.025
311.2
311.378
311.556
311.738
311.92
312.106
312.291
312.482
312.67
312.865
313.055
313.256
313.449
313.655
313.85
314.062
314.259
314.478
314.676
314.904
315.104
315.345
315.543
315.801
316.002
316.282
316.491
316.818
317.069
389.414
389.965
390.514
391.06
391.603
392.143
392.68
393.214
393.746
394.274
394.801
395.324
395.858
396.389
396.914
397.433
397.948
398.459
398.966
399.469
399.968
400.464
400.956
401.444
401.929
402.411
402.889
403.364
403.834
404.301
404.764
405.223
405.676
406.125
406.567
407
407.423
407.829
408.211
408.554
408.844
409.11
409.398
409.672
409.956
410.236
410.495
410.769
411.044
411.299
411.562
411.826
412.079
412.322
412.555
412.804
413.048
413.279
413.517
413.745
413.948
414.172
414.371
414.593
414.799
415.011
415.219
415.437
415.638
415.824
416.003
416.193
416.38
416.547
416.726
416.914
417.079
417.234
417.398
417.552
417.677
417.828
417.947
418.091
418.195
418.328
418.427
418.551
418.642
418.722
418.803
418.838
418.897
418.947
418.988
419.032
419.034
419.057
419.043
419.036
419.022
418.975
418.95
418.886
418.811
418.724
418.618
418.517
418.388
418.26
418.099
417.952
417.783
417.634
417.427
417.165
417.052
416.795
416.75
351.119
390.582
405.455
416.776
413.759
418.333
418.692
419.07
419.438
419.795
420.167
420.521
420.897
421.29
421.657
422.027
422.421
422.817
423.191
423.597
423.98
424.396
424.78
425.19
425.608
426.003
426.417
426.848
427.277
427.691
428.114
428.557
428.974
429.44
429.855
430.33
430.749
431.231
431.646
432.121
432.571
433.048
433.499
433.961
434.444
434.903
435.378
435.855
436.335
436.814
437.318
437.808
438.288
438.791
439.365
439.9
440.475
441.03
441.612
442.185
442.778
443.367
443.972
444.577
445.195
445.817
446.451
447.091
447.735
448.394
449.057
449.733
450.416
451.11
451.81
452.521
453.239
453.968
454.708
455.461
456.226
457.001
457.782
458.568
459.36
460.163
460.98
461.816
462.674
463.55
464.436
465.325
466.215
467.105
467.983
468.823
469.55
470.258
471.98
472.638
473.652
474.808
475.644
476.859
477.767
478.958
479.939
481.121
482.155
483.376
484.525
485.81
486.932
488.209
489.472
490.717
492.073
493.358
494.767
496.12
497.589
499.033
500.568
502.077
503.657
1296.4
1297.44
1300.06
1303.31
1308.81
1314.95
1322.8
1332.04
1342.84
1355.67
1369.49
1385.94
1404.27
1425.5
1447.14
1468.4
1452.36
1434.21
1418.24
1404.75
1390.84
1374.66
1358.38
1341.96
1324.72
1303.86
1284.17
1264.33
1244.15
1223.65
1202.93
1182.08
1161.18
1140.27
1119.37
1098.5
1077.52
1057.37
1028.63
1013.7
995.651
977.514
959.921
942.817
505.251
506.893
508.566
510.28
512.037
513.825
515.662
517.533
519.451
521.403
523.399
525.426
527.492
529.582
531.7
533.829
535.967
538.095
540.2
542.257
544.242
546.115
547.859
549.438
550.805
551.903
552.57
552.838
552.827
551.928
550.418
548.061
544.555
539.515
532.355
522.286
508.346
494.865
476.568
926.409
909.7
893.034
880.113
868.046
853.578
838.079
823.135
808.766
794.987
781.799
769.197
757.165
745.686
734.736
724.292
714.322
704.803
695.694
686.98
678.604
670.564
662.776
655.313
648.104
641.115
634.276
627.562
620.894
614.264
607.497
600.499
593.054
585.081
575.322
562.813
544.995
519.271
486.88
451.491
451.491
)
;
        refGradient     nonuniform List<scalar> 
692
(
2.54665
2.47376
2.39981
2.32476
2.24856
2.17115
2.09249
2.0125
1.93112
1.84829
1.76394
1.67799
1.59038
1.50103
1.40986
1.31679
1.22175
1.12465
1.02539
0.923869
0.820012
0.713716
0.604882
0.493396
0.379153
0.26204
0.141938
0.0187295
-0.10772
-0.237535
-0.370845
-0.507772
-0.648445
-0.792932
-0.94125
-1.09322
-1.24822
-1.40458
-1.55795
-1.69674
2.56067
2.4877
2.41365
2.33848
2.26213
2.18453
2.10564
2.02539
1.94371
1.86056
1.77584
1.68951
1.60149
1.5117
1.42007
1.32651
1.23096
1.13332
1.03351
0.931437
0.827007
0.720124
0.610688
0.498595
0.383738
0.266005
0.145279
0.0214405
-0.105637
-0.236087
-0.370048
-0.507671
-0.649125
-0.794609
-0.944382
-1.09882
-1.25851
-1.42441
-1.59795
-1.74682
-1.83882
-1.90331
-1.78036
-1.87347
2.77516
2.71168
2.64901
2.5872
2.52622
2.46609
2.40676
2.34824
2.29051
2.23355
2.17735
2.12189
2.06716
2.01314
1.95981
1.90717
1.85519
1.80387
1.75318
1.70312
1.65367
1.60482
1.55655
1.50885
1.46171
1.41512
1.36906
1.32352
1.2785
1.23398
1.18994
1.14639
1.1033
1.06068
1.01851
0.976781
0.935486
0.894618
0.85417
0.814137
2.85857
2.79408
2.73044
2.66763
2.60564
2.54446
2.48408
2.42448
2.36565
2.30758
2.25025
2.19365
2.13776
2.08258
2.02809
1.97428
1.92112
1.86862
1.81674
1.76549
1.71485
1.66481
1.61534
1.56645
1.51811
1.47033
1.42307
1.37634
1.33013
1.28441
1.23919
1.19445
1.15019
1.10638
1.06303
1.02013
0.977667
0.935632
0.89402
0.852824
4.53729
4.52719
4.51776
4.50891
4.5006
4.49278
4.48542
4.47846
4.47189
4.46567
4.45977
4.45417
4.44884
4.44376
4.43892
4.43429
4.42985
4.4256
4.42152
4.41759
4.4138
4.41015
4.40662
4.40321
4.3999
4.39669
4.39358
4.39055
4.3876
4.38472
4.38192
4.37918
4.3765
4.37387
4.3713
4.36878
4.3663
4.36387
4.36147
4.3591
0.77452
0.734546
0.694353
0.654543
0.615101
0.576023
0.537305
0.498941
0.460926
0.423257
0.385928
0.348935
0.312275
0.275944
0.239939
0.204256
0.168893
0.133848
0.0991175
0.0647
0.0305934
-0.00320427
-0.0366945
-0.0698788
-0.102758
-0.135334
-0.167607
-0.199579
-0.231248
-0.262617
-0.293684
-0.32445
-0.354916
-0.38508
-0.414943
-0.444505
-0.473764
-0.502722
-0.53138
-0.559737
-0.587797
-0.615561
-0.643033
-0.670216
-0.697112
-0.723725
-0.750058
-0.776111
-0.801889
-0.827394
-0.852626
-0.877588
-0.902282
-0.926709
-0.950871
-0.974768
-0.998401
-1.02177
-1.04488
-1.06773
-1.09031
-1.11261
-1.13557