/*--------------------------------*- C++ -*----------------------------------*\
  =========                 |
  \\      /  F ield         | OpenFOAM: The Open Source CFD Toolbox
   \\    /   O peration     | Website:  https://openfoam.org
    \\  /    A nd           | Version:  8
     \\/     M anipulation  |
\*---------------------------------------------------------------------------*/
FoamFile
{
    version     2.0;
    format      ascii;
    class       volScalarField;
    location    "740/fluid";
    object      CH4;
}
// * * * * * * * * * * * * * * * * * * * * * * * * * * * * * * * * * * * * * //

dimensions      [0 0 0 0 0 0 0];

internalField   nonuniform List<scalar> 
4000
(
0.999997
0.999986
0.999968
0.999938
0.999888
0.999804
0.999667
0.999442
0.999079
0.998497
0.997581
0.99616
0.994001
0.990791
0.986143
0.979612
0.970732
0.959073
0.944307
0.926259
0.904922
0.880448
0.853117
0.823292
0.791388
0.757836
0.723065
0.687484
0.651476
0.61539
0.579535
0.544182
0.50956
0.475857
0.443226
0.411784
0.381625
0.35281
0.325377
0.299343
0.274706
0.251451
0.229551
0.208967
0.189656
0.17157
0.154654
0.138854
0.124115
0.11038
0.097595
0.0857069
0.0746651
0.064422
0.0549337
0.0461606
0.038068
0.0307281
0.0240874
0.0178734
0.0122731
0.00729819
0.00327576
0.00229789
0.00159135
0.00108601
0.000728936
0.000480184
0.000309756
0.000195266
0.000120172
7.2424e-05
4.34258e-05
2.73521e-05
1.99294e-05
1.52903e-05
1.13335e-05
7.96216e-06
5.24723e-06
3.21995e-06
1.83662e-06
9.78577e-07
4.91605e-07
2.36641e-07
1.1057e-07
5.04507e-08
2.25767e-08
9.94115e-09
4.31817e-09
1.85414e-09
7.88326e-10
3.32358e-10
1.39097e-10
5.78207e-11
2.38613e-11
9.74679e-12
3.90458e-12
1.49343e-12
4.99408e-13
8.76056e-14
0.999997
0.999986
0.999968
0.999938
0.999887
0.999803
0.999665
0.999439
0.999074
0.998491
0.997575
0.996157
0.99401
0.990828
0.986237
0.979801
0.971064
0.959604
0.945088
0.927327
0.906294
0.882119
0.85506
0.825465
0.793737
0.760303
0.72559
0.690015
0.653964
0.617794
0.581822
0.546327
0.511544
0.477669
0.444859
0.413237
0.3829
0.353913
0.326315
0.300126
0.275344
0.251956
0.229934
0.20924
0.189831
0.171657
0.154662
0.138795
0.123996
0.110211
0.0973825
0.0854578
0.0743853
0.0641169
0.0546081
0.0458187
0.0377136
0.0303684
0.0237251
0.0175068
0.0119053
0.00693871
0.00322405
0.00225938
0.00156222
0.00106389
0.000712231
0.00046774
0.000300673
0.000188816
0.000115765
6.95887e-05
4.18087e-05
2.67156e-05
1.97378e-05
1.50473e-05
1.10322e-05
7.65945e-06
4.98934e-06
3.0322e-06
1.71991e-06
9.16294e-07
4.62774e-07
2.24446e-07
1.0581e-07
4.87234e-08
2.19924e-08
9.75678e-09
4.26402e-09
1.83935e-09
7.84525e-10
3.31376e-10
1.38792e-10
5.76873e-11
2.3788e-11
9.70561e-12
3.88298e-12
1.48331e-12
4.95524e-13
8.69012e-14
0.999997
0.999986
0.999968
0.999938
0.999887
0.999803
0.999664
0.999437
0.999071
0.998487
0.99757
0.996156
0.994017
0.990857
0.986307
0.979941
0.971312
0.960005
0.94569
0.928172
0.907415
0.883533
0.856766
0.827444
0.795956
0.762717
0.728147
0.692659
0.656642
0.620454
0.58442
0.548821
0.513902
0.479866
0.446875
0.415061
0.384523
0.355333
0.327535
0.30115
0.276182
0.252617
0.23043
0.209585
0.190035
0.171731
0.154624
0.138655
0.123767
0.109903
0.0970076
0.0850254
0.0739045
0.0635961
0.054055
0.0452402
0.0371164
0.0297671
0.0231222
0.0169097
0.011328
0.00637236
0.00318327
0.00221856
0.0015258
0.00103353
0.000688137
0.000449386
0.000287216
0.000179336
0.000109399
6.5602e-05
3.96343e-05
2.59524e-05
1.94366e-05
1.47021e-05
1.06627e-05
7.32338e-06
4.72445e-06
2.85031e-06
1.61032e-06
8.57479e-07
4.34123e-07
2.11314e-07
1.00076e-07
4.63165e-08
2.10148e-08
9.37015e-09
4.11416e-09
1.78202e-09
7.62706e-10
3.23047e-10
1.35578e-10
5.64266e-11
2.32851e-11
9.50257e-12
3.80125e-12
1.45159e-12
4.84698e-13
8.49774e-14
0.999997
0.999986
0.999968
0.999938
0.999887
0.999803
0.999664
0.999438
0.999074
0.998493
0.997584
0.996182
0.994065
0.990941
0.986445
0.980159
0.971643
0.960481
0.946345
0.929035
0.908505
0.884859
0.858325
0.829222
0.79793
0.764855
0.730412
0.69501
0.659036
0.622849
0.586775
0.551101
0.516074
0.481903
0.448756
0.416769
0.386048
0.356668
0.328677
0.302102
0.276948
0.253204
0.230846
0.20984
0.190142
0.171707
0.154479
0.138401
0.123417
0.109469
0.0965006
0.0844562
0.0732832
0.0629321
0.0533571
0.0445167
0.0363751
0.029035
0.0224064
0.0162028
0.0106203
0.00568418
0.00314333
0.0021762
0.00148637
0.000999817
0.000661047
0.000428697
0.000272122
0.000168814
0.000102435
6.13178e-05
3.73543e-05
2.51776e-05
1.90173e-05
1.42568e-05
1.02258e-05
6.94417e-06
4.43215e-06
2.65022e-06
1.48817e-06
7.90148e-07
4.00039e-07
1.95116e-07
9.26933e-08
4.30598e-08
1.96154e-08
8.78186e-09
3.8713e-09
1.6832e-09
7.22935e-10
3.07159e-10
1.29258e-10
5.39186e-11
2.2291e-11
9.10987e-12
3.64797e-12
1.394e-12
4.65599e-13
8.16401e-14
0.999997
0.999986
0.999968
0.999938
0.999887
0.999804
0.999666
0.999441
0.999079
0.998502
0.997599
0.996209
0.994112
0.991019
0.98657
0.980354
0.971932
0.960893
0.946908
0.929772
0.909432
0.885983
0.859644
0.830725
0.799596
0.766658
0.732322
0.696992
0.661055
0.62487
0.588764
0.553026
0.517909
0.483622
0.45034
0.418203
0.38732
0.357771
0.329608
0.302862
0.27754
0.253633
0.231116
0.20996
0.190127
0.171565
0.154222
0.138041
0.122966
0.108938
0.0959015
0.0837998
0.07258
0.0621918
0.0525884
0.0437274
0.0355836
0.0282746
0.0216464
0.0154358
0.00987003
0.00499805
0.003102
0.00212533
0.0014381
0.000959131
0.000629177
0.000405047
0.000255359
0.00015745
9.51065e-05
5.69108e-05
3.50864e-05
2.44522e-05
1.8504e-05
1.37453e-05
9.76188e-06
6.5659e-06
4.15491e-06
2.46794e-06
1.38016e-06
7.31739e-07
3.70735e-07
1.812e-07
8.63172e-08
4.02169e-08
1.83746e-08
8.24953e-09
3.64604e-09
1.58894e-09
6.83841e-10
2.91059e-10
1.22665e-10
5.12308e-11
2.12006e-11
8.67073e-12
3.47396e-12
1.32791e-12
4.43539e-13
7.77709e-14
0.999997
0.999986
0.999968
0.999938
0.999888
0.999805
0.999668
0.999445
0.999085
0.998514
0.997619
0.996243
0.994167
0.991105
0.986703
0.980551
0.972214
0.961283
0.947425
0.930432
0.910247
0.886955
0.860769
0.831992
0.800989
0.768155
0.733899
0.698621
0.662707
0.626517
0.590378
0.554582
0.519382
0.484994
0.451595
0.419326
0.388301
0.358604
0.33029
0.30339
0.277916
0.253863
0.231211
0.209931
0.189978
0.171306
0.153862
0.137592
0.122438
0.108343
0.0952487
0.0831006
0.071845
0.0614312
0.0518123
0.0429467
0.0347959
0.027503
0.0208656
0.0146682
0.0091243
0.00431222
0.00295592
0.00200995
0.0013519
0.000897088
0.000585814
0.000375539
0.000235819
0.000144898
8.73412e-05
5.23608e-05
3.27007e-05
2.33639e-05
1.77562e-05
1.31394e-05
9.28025e-06
6.20281e-06
3.90059e-06
2.3045e-06
1.28392e-06
6.79361e-07
3.44039e-07
1.68306e-07
8.02958e-08
3.74808e-08
1.71593e-08
7.72003e-09
3.41909e-09
1.493e-09
6.43746e-10
2.74458e-10
1.15842e-10
4.84438e-11
2.00689e-11
8.21493e-12
3.29339e-12
1.25934e-12
4.20663e-13
7.37593e-14
0.999997
0.999986
0.999968
0.999939
0.999889
0.999806
0.99967
0.999449
0.999092
0.998526
0.997639
0.996275
0.994218
0.991185
0.986824
0.980728
0.972465
0.961626
0.947875
0.931003
0.910944
0.88778
0.861716
0.833051
0.802144
0.769388
0.735188
0.699943
0.664039
0.627836
0.59166
0.555807
0.520532
0.486052
0.452548
0.420164
0.389017
0.359193
0.330752
0.303724
0.27812
0.253942
0.231174
0.20978
0.189724
0.170957
0.153429
0.137083
0.121864
0.107714
0.0945748
0.0823917
0.0711109
0.0606822
0.0510595
0.0422007
0.0340665
0.0268541
0.0200792
0.0139507
0.00847049
0.00373505
0.00261
0.00179766
0.00121947
0.000813747
0.000533295
0.000342637
0.000215483
0.000132615
8.02019e-05
4.84943e-05
3.09607e-05
2.26269e-05
1.72022e-05
1.26663e-05
8.89811e-06
5.91403e-06
3.69878e-06
2.17512e-06
1.20776e-06
6.37788e-07
3.22713e-07
1.57912e-07
7.53863e-08
3.522e-08
1.61404e-08
7.26924e-09
3.22288e-09
1.4088e-09
6.08055e-10
2.59487e-10
1.09619e-10
4.58771e-11
1.90182e-11
7.78892e-12
3.12374e-12
1.19467e-12
3.9903e-13
6.99602e-14
0.999997
0.999986
0.999969
0.999939
0.99989
0.999808
0.999673
0.999453
0.9991
0.998538
0.997659
0.996306
0.994267
0.99126
0.986936
0.980889
0.97269
0.961928
0.948268
0.931494
0.911537
0.888475
0.862507
0.833928
0.803093
0.770393
0.73623
0.701004
0.665098
0.628874
0.59266
0.556751
0.521405
0.486842
0.453243
0.420757
0.389501
0.359565
0.331008
0.303867
0.27816
0.253883
0.231016
0.209531
0.18939
0.170546
0.152949
0.136543
0.121272
0.107079
0.0939052
0.0816957
0.0703967
0.0599571
0.05033
0.0414724
0.0333864
0.0262016
0.0194573
0.0133924
0.00801474
0.003442
0.00240265
0.0016554
0.00112389
0.00075058
0.000492163
0.00031626
0.00019886
0.000122371
7.40976e-05
4.51034e-05
2.9378e-05
2.19541e-05
1.67654e-05
1.23314e-05
8.63221e-06
5.70994e-06
3.5522e-06
2.0785e-06
1.14942e-06
6.05183e-07
3.05614e-07
1.49422e-07
7.13082e-08
3.33139e-08
1.527e-08
6.87985e-09
3.05175e-09
1.33477e-09
5.76462e-10
2.46162e-10
1.04055e-10
4.35735e-11
1.80724e-11
7.4046e-12
2.97041e-12
1.13614e-12
3.79433e-13
6.65167e-14
0.999997
0.999986
0.999969
0.999939
0.99989
0.999809
0.999675
0.999457
0.999106
0.998549
0.997676
0.996335
0.994311
0.991327
0.987035
0.981031
0.972886
0.962189
0.948604
0.931911
0.912038
0.889056
0.863163
0.834649
0.803867
0.771206
0.737065
0.701846
0.665931
0.62968
0.593426
0.557464
0.522052
0.487414
0.453733
0.421159
0.389811
0.35978
0.331127
0.303894
0.278095
0.25373
0.23078
0.209219
0.189009
0.170102
0.15245
0.135997
0.120686
0.10646
0.0932616
0.0810348
0.0697259
0.0592843
0.0496637
0.0408228
0.032781
0.0256164
0.0188993
0.0128722
0.00754154
0.00328021
0.00228733
0.00157473
0.00106867
0.000713668
0.000468151
0.000301128
0.000189695
0.000117111
7.13319e-05
4.38925e-05
2.91589e-05
2.19626e-05
1.67037e-05
1.2225e-05
8.50821e-06
5.59041e-06
3.45572e-06
2.01058e-06
1.10667e-06
5.80584e-07
2.92417e-07
1.42754e-07
6.8056e-08
3.1773e-08
1.45578e-08
6.55769e-09
2.90878e-09
1.27237e-09
5.49627e-10
2.34768e-10
9.92694e-11
4.15831e-11
1.72521e-11
7.07023e-12
2.8367e-12
1.08501e-12
3.62296e-13
6.35001e-14
0.999997
0.999987
0.999969
0.99994
0.999891
0.99981
0.999677
0.999461
0.999112
0.998559
0.997692
0.99636
0.99435
0.991386
0.987121
0.981154
0.973054
0.962412
0.948888
0.932262
0.912456
0.889538
0.863703
0.835238
0.804494
0.771857
0.737729
0.702507
0.666577
0.630298
0.594004
0.55799
0.522519
0.487813
0.454058
0.421404
0.389975
0.359863
0.331133
0.303822
0.277948
0.253511
0.230494
0.208872
0.188605
0.169649
0.151954
0.135464
0.120123
0.105873
0.0926567
0.0804181
0.0691029
0.05866
0.0490423
0.0402072
0.0321889
0.0250516
0.0183545
0.0123422
0.00702057
0.00321103
0.00223411
0.00153498
0.00103969
0.000693041
0.000453811
0.000291414
0.000183325
0.000113139
6.90816e-05
4.2924e-05
2.91259e-05
2.2144e-05
1.68015e-05
1.22374e-05
8.47129e-06
5.53346e-06
3.39759e-06
1.96494e-06
1.07608e-06
5.62266e-07
2.82304e-07
1.37543e-07
6.54741e-08
3.05336e-08
1.39786e-08
6.29325e-09
2.79049e-09
1.22041e-09
5.27154e-10
2.25181e-10
9.52283e-11
3.98971e-11
1.65555e-11
6.78575e-12
2.72276e-12
1.04139e-12
3.4768e-13
6.09193e-14
0.999997
0.999987
0.999969
0.99994
0.999892
0.999811
0.999679
0.999464
0.999118
0.998567
0.997706
0.996382
0.994384
0.991437
0.987195
0.981258
0.973197
0.9626
0.949127
0.932554
0.912801
0.889934
0.864143
0.835714
0.804996
0.772375
0.738251
0.703022
0.667073
0.630765
0.594432
0.558371
0.522846
0.48808
0.454261
0.421541
0.390043
0.359863
0.331065
0.303688
0.277751
0.253255
0.230184
0.208511
0.1882
0.169206
0.151477
0.134959
0.119596
0.105329
0.0921014
0.079856
0.0685386
0.0580978
0.048486
0.0396611
0.0316659
0.0245466
0.0178625
0.0118679
0.00656608
0.00318195
0.00221183
0.00151876
0.00102843
0.000685547
0.000449038
0.000288518
0.000181675
0.000112296
6.87829e-05
4.30408e-05
2.96723e-05
2.263e-05
1.70929e-05
1.23777e-05
8.51242e-06
5.52315e-06
3.37011e-06
1.93681e-06
1.05522e-06
5.49061e-07
2.74756e-07
1.33566e-07
6.34691e-08
2.95579e-08
1.35175e-08
6.08081e-09
2.69473e-09
1.17806e-09
5.08742e-10
2.17292e-10
9.18899e-11
3.85002e-11
1.59771e-11
6.54912e-12
2.6279e-12
1.0051e-12
3.35536e-13
5.87909e-14
0.999997
0.999987
0.999969
0.999941
0.999892
0.999812
0.999681
0.999467
0.999122
0.998575
0.997719
0.996401
0.994413
0.99148
0.987258
0.981346
0.973317
0.962757
0.949325
0.932795
0.913085
0.890256
0.864499
0.836096
0.805396
0.772783
0.738657
0.703417
0.667448
0.631112
0.594742
0.558639
0.523064
0.488246
0.45437
0.421593
0.390038
0.359801
0.330947
0.303515
0.277527
0.252983
0.229868
0.208157
0.187811
0.168786
0.151032
0.134494
0.119115
0.104837
0.0916021
0.079354
0.0680377
0.0576018
0.0480001
0.0391897
0.0312113
0.0241031
0.0174352
0.0114571
0.0061715
0.00315992
0.00219781
0.00150985
0.00102286
0.000682176
0.000447091
0.000287492
0.00018125
0.000112276
6.90653e-05
4.35986e-05
3.05433e-05
2.33092e-05
1.7516e-05
1.26073e-05
8.6134e-06
5.55035e-06
3.36449e-06
1.92258e-06
1.04201e-06
5.39947e-07
2.69294e-07
1.30606e-07
6.19472e-08
2.88062e-08
1.31582e-08
5.91368e-09
2.61882e-09
1.14429e-09
4.93978e-10
2.10938e-10
8.91918e-11
3.73679e-11
1.55072e-11
6.35665e-12
2.55071e-12
9.75606e-13
3.2567e-13
5.70682e-14
0.999997
0.999987
0.99997
0.999941
0.999893
0.999813
0.999682
0.999469
0.999126
0.998581
0.997729
0.996417
0.994438
0.991516
0.98731
0.98142
0.973416
0.962887
0.949488
0.932992
0.913315
0.890517
0.864784
0.8364
0.805711
0.773101
0.738971
0.703718
0.667729
0.631366
0.594963
0.558821
0.523205
0.488341
0.454418
0.421592
0.389989
0.359703
0.330802
0.303326
0.277296
0.252713
0.229564
0.207821
0.187448
0.1684
0.150627
0.134074
0.118685
0.1044
0.0911617
0.0789137
0.0676016
0.0571752
0.0475844
0.0387818
0.0308167
0.023724
0.0170713
0.0111093
0.0058399
0.00314147
0.00218835
0.00150563
0.00102152
0.00068229
0.00044786
0.000288478
0.000182242
0.000113205
6.9947e-05
4.45103e-05
3.15938e-05
2.40865e-05
1.80078e-05
1.28868e-05
8.75021e-06
5.60286e-06
3.37548e-06
1.91848e-06
1.0351e-06
5.34204e-07
2.65572e-07
1.28512e-07
6.0842e-08
2.82499e-08
1.28883e-08
5.7867e-09
2.5606e-09
1.11817e-09
4.82489e-10
2.05966e-10
8.7071e-11
3.64747e-11
1.51354e-11
6.20407e-12
2.4894e-12
9.52185e-13
3.17814e-13
5.57012e-14
0.999997
0.999987
0.99997
0.999941
0.999893
0.999814
0.999684
0.999471
0.99913
0.998587
0.997737
0.99643
0.994458
0.991546
0.987353
0.98148
0.973497
0.962992
0.94962
0.933151
0.913499
0.890724
0.86501
0.836638
0.805956
0.773347
0.73921
0.703944
0.667936
0.631548
0.595116
0.55894
0.523287
0.488384
0.454422
0.421555
0.389911
0.359586
0.330647
0.303135
0.277072
0.252458
0.229281
0.207514
0.187121
0.168056
0.150269
0.133705
0.118308
0.10402
0.090781
0.0785371
0.0672319
0.0568099
0.0472224
0.0384285
0.0304813
0.0234027
0.0167629
0.0108134
0.00556818
0.00312608
0.00218198
0.00150426
0.00102267
0.000684495
0.0004503
0.000290742
0.000184167
0.000114777
7.12346e-05
4.56247e-05
3.26372e-05
2.48703e-05
1.85206e-05
1.31908e-05
8.90957e-06
5.67347e-06
3.39958e-06
1.92262e-06
1.0331e-06
5.3142e-07
2.63386e-07
1.27183e-07
6.01042e-08
2.78655e-08
1.2697e-08
5.69492e-09
2.51787e-09
1.09878e-09
4.73873e-10
2.02209e-10
8.5458e-11
3.5792e-11
1.48499e-11
6.08674e-12
2.44199e-12
9.3422e-13
3.11733e-13
5.46494e-14
0.999997
0.999987
0.99997
0.999941
0.999894
0.999814
0.999685
0.999473
0.999132
0.998591
0.997744
0.996441
0.994474
0.991571
0.987388
0.981529
0.973563
0.963077
0.949725
0.933277
0.913645
0.890887
0.865186
0.836824
0.806145
0.773534
0.73939
0.704112
0.668086
0.631677
0.595219
0.559015
0.523332
0.488396
0.4544
0.4215
0.389823
0.359466
0.330496
0.302955
0.276865
0.252228
0.22903
0.207244
0.186835
0.167757
0.14996
0.13339
0.117989
0.103699
0.0904632
0.0782214
0.0669171
0.0564996
0.0469207
0.0381365
0.0302045
0.0231376
0.0165087
0.0105694
0.0053473
0.00311356
0.00217845
0.00150547
0.00102604
0.000688523
0.000454176
0.000294095
0.000186888
0.000116906
7.28896e-05
4.69593e-05
3.37869e-05
2.57158e-05
1.90792e-05
1.35297e-05
9.09493e-06
5.76276e-06
3.43633e-06
1.93475e-06
1.03555e-06
5.30949e-07
2.62484e-07
1.26499e-07
5.96823e-08
2.76282e-08
1.25725e-08
5.63298e-09
2.48827e-09
1.08507e-09
4.67695e-10
1.99483e-10
8.42768e-11
3.52893e-11
1.4638e-11
6.00012e-12
2.40634e-12
9.21044e-13
3.0722e-13
5.38717e-14
0.999997
0.999987
0.99997
0.999941
0.999894
0.999815
0.999685
0.999474
0.999135
0.998595
0.99775
0.99645
0.994487
0.99159
0.987416
0.981567
0.973614
0.963143
0.949807
0.933375
0.913759
0.891013
0.865322
0.836965
0.806288
0.773674
0.739523
0.704234
0.668193
0.631765
0.595286
0.559059
0.52335
0.488389
0.454367
0.421439
0.389736
0.359353
0.330359
0.302796
0.276685
0.252029
0.228814
0.207015
0.186594
0.167507
0.149705
0.133131
0.117729
0.103439
0.0902018
0.0779602
0.0666602
0.056249
0.0466776
0.0379018
0.0299824
0.0229254
0.0163054
0.0103741
0.00517047
0.00310347
0.00217734
0.0015089
0.00103133
0.00069414
0.000459316
0.000298417
0.000190326
0.000119546
7.48931e-05
4.85153e-05
3.50503e-05
2.66305e-05
1.96865e-05
1.39032e-05
9.3048e-06
5.86887e-06
3.48409e-06
1.9537e-06
1.04197e-06
5.32596e-07
2.62604e-07
1.26293e-07
5.94808e-08
2.7497e-08
1.24986e-08
5.59414e-09
2.46902e-09
1.07592e-09
4.63485e-10
1.97599e-10
8.34502e-11
3.49366e-11
1.44866e-11
5.9403e-12
2.38105e-12
9.11824e-13
3.04032e-13
5.33264e-14
0.999997
0.999987
0.99997
0.999941
0.999894
0.999815
0.999686
0.999475
0.999136
0.998597
0.997754
0.996456
0.994497
0.991605
0.987437
0.981596
0.973653
0.963193
0.94987
0.93345
0.913844
0.891108
0.865423
0.83707
0.806393
0.773776
0.739619
0.70432
0.668267
0.631825
0.595329
0.559083
0.523355
0.488373
0.45433
0.421382
0.389657
0.359255
0.330242
0.302662
0.276536
0.251867
0.228641
0.206832
0.186403
0.167311
0.149504
0.132927
0.117522
0.10323
0.0899941
0.0777562
0.0664609
0.0560553
0.0464904
0.0377216
0.0298109
0.0227617
0.0161487
0.010224
0.00503457
0.00309597
0.00217857
0.00151438
0.00103835
0.000701156
0.000465558
0.000303581
0.000194386
0.000122628
7.71923e-05
5.02486e-05
3.63982e-05
2.7594e-05
2.03266e-05
1.42996e-05
9.53079e-06
5.98623e-06
3.53934e-06
1.9773e-06
1.05111e-06
5.35745e-07
2.63509e-07
1.26479e-07
5.94704e-08
2.7454e-08
1.24645e-08
5.57378e-09
2.4582e-09
1.07045e-09
4.60894e-10
1.9641e-10
8.29156e-11
3.4712e-11
1.43884e-11
5.90173e-12
2.36463e-12
9.05893e-13
3.01946e-13
5.29716e-14
0.999997
0.999987
0.99997
0.999942
0.999894
0.999816
0.999686
0.999476
0.999137
0.998599
0.997757
0.996461
0.994505
0.991615
0.987453
0.981617
0.973681
0.96323
0.949914
0.933503
0.913905
0.891175
0.865495
0.837144
0.806467
0.773848
0.739685
0.704379
0.668317
0.631863
0.595355
0.559096
0.523353
0.488356
0.454297
0.421335
0.389596
0.35918
0.330154
0.302562
0.276425
0.251746
0.228512
0.206696
0.186261
0.167164
0.149352
0.132772
0.117366
0.103076
0.0898424
0.0776078
0.0663166
0.0559159
0.0463563
0.0375931
0.0296842
0.0226396
0.0160282
0.0101005
0.00491012
0.00309035
0.00218168
0.00152153
0.00104676
0.000709289
0.000472662
0.00030939
0.000198913
0.000126033
7.96969e-05
5.20874e-05
3.77712e-05
2.85584e-05
2.09627e-05
1.46927e-05
9.75574e-06
6.10447e-06
3.59624e-06
2.00242e-06
1.06133e-06
5.3958e-07
2.64818e-07
1.26891e-07
5.95811e-08
2.74705e-08
1.24599e-08
5.56682e-09
2.45352e-09
1.06783e-09
4.59545e-10
1.95797e-10
8.26203e-11
3.45928e-11
1.43334e-11
5.88041e-12
2.35526e-12
9.02547e-13
3.00744e-13
5.27664e-14
0.999997
0.999987
0.99997
0.999942
0.999894
0.999816
0.999687
0.999477
0.999138
0.998601
0.997759
0.996464
0.994509
0.991622
0.987462
0.981631
0.9737
0.963253
0.949943
0.933537
0.913944
0.891218
0.86554
0.837191
0.806514
0.773892
0.739727
0.704416
0.668347
0.631886
0.59537
0.559101
0.523349
0.488342
0.454273
0.421301
0.389554
0.359128
0.330094
0.302494
0.27635
0.251665
0.228425
0.206603
0.186165
0.167065
0.149252
0.132671
0.117266
0.102977
0.089745
0.077513
0.066225
0.0558278
0.0462722
0.0375129
0.029607
0.0225659
0.0159564
0.0100292
0.0048421
0.00308681
0.00218634
0.00152977
0.00105588
0.000717857
0.000480017
0.000315332
0.000203502
0.000129453
8.21822e-05
5.38666e-05
3.90391e-05
2.94227e-05
2.15215e-05
1.5033e-05
9.94893e-06
6.20582e-06
3.64525e-06
2.02429e-06
1.07037e-06
5.43073e-07
2.66084e-07
1.27304e-07
5.97509e-08
2.75125e-08
1.24764e-08
5.56828e-09
2.45399e-09
1.06718e-09
4.59217e-10
1.95594e-10
8.24985e-11
3.45447e-11
1.43082e-11
5.87097e-12
2.35075e-12
9.01008e-13
3.00155e-13
5.2667e-14
0.999997
0.999987
0.99997
0.999942
0.999894
0.999816
0.999687
0.999477
0.999139
0.998601
0.99776
0.996466
0.994512
0.991626
0.987467
0.981637
0.973708
0.963264
0.949957
0.933553
0.913962
0.891238
0.865562
0.837213
0.806536
0.773913
0.739746
0.704433
0.668361
0.631897
0.595376
0.559103
0.523346
0.488334
0.454261
0.421284
0.389532
0.359102
0.330064
0.30246
0.276313
0.251624
0.228381
0.206558
0.186118
0.167017
0.149203
0.132623
0.117218
0.102929
0.089699
0.0774686
0.0661825
0.0557876
0.0462342
0.0374773
0.0295738
0.0225345
0.0159258
0.00999763
0.00480871
0.00308504
0.00219126
0.00153721
0.00106364
0.000724895
0.000485911
0.00032001
0.000207067
0.000132081
8.40645e-05
5.51748e-05
3.99071e-05
2.99817e-05
2.18682e-05
1.52376e-05
1.00623e-05
6.26428e-06
3.67325e-06
2.03676e-06
1.07554e-06
5.45068e-07
2.66864e-07
1.27559e-07
5.98621e-08
2.75436e-08
1.24896e-08
5.57104e-09
2.45513e-09
1.06722e-09
4.59203e-10
1.95553e-10
8.24615e-11
3.45306e-11
1.42996e-11
5.86775e-12
2.34908e-12
9.0045e-13
2.99932e-13
5.2629e-14
0.999997
0.999987
0.99997
0.999942
0.999894
0.999816
0.999687
0.999477
0.999139
0.998601
0.99776
0.996466
0.994512
0.991626
0.987467
0.981637
0.973708
0.963264
0.949957
0.933553
0.913962
0.891238
0.865562
0.837213
0.806535
0.773913
0.739746
0.704433
0.668361
0.631896
0.595376
0.559103
0.523346
0.488334
0.454261
0.421284
0.389532
0.359102
0.330064
0.30246
0.276312
0.251624
0.228381
0.206558
0.186118
0.167017
0.149203
0.132623
0.117218
0.102929
0.0896989
0.0774686
0.0661825
0.0557875
0.0462342
0.0374773
0.0295738
0.0225345
0.0159258
0.00999764
0.00480871
0.00308504
0.00219126
0.00153721
0.00106365
0.000724898
0.000485914
0.000320014
0.00020707
0.000132084
8.40665e-05
5.5176e-05
3.99076e-05
2.99819e-05
2.18683e-05
1.52376e-05
1.00623e-05
6.26429e-06
3.67326e-06
2.03676e-06
1.07555e-06
5.45068e-07
2.66866e-07
1.27561e-07
5.98608e-08
2.75436e-08
1.24892e-08
5.571e-09
2.45502e-09
1.06721e-09
4.59154e-10
1.95558e-10
8.24605e-11
3.453e-11
1.42994e-11
5.86762e-12
2.34906e-12
9.00411e-13
2.9993e-13
5.26262e-14
0.999997
0.999987
0.99997
0.999942
0.999894
0.999816
0.999687
0.999477
0.999138
0.998601
0.997759
0.996464
0.994509
0.991622
0.987462
0.981631
0.973699
0.963253
0.949943
0.933537
0.913943
0.891217
0.86554
0.83719
0.806513
0.773892
0.739726
0.704415
0.668347
0.631886
0.595369
0.559101
0.523348
0.488341
0.454273
0.421301
0.389553
0.359128
0.330094
0.302494
0.27635
0.251664
0.228424
0.206603
0.186165
0.167064
0.149252
0.132671
0.117266
0.102977
0.0897449
0.0775129
0.0662249
0.0558278
0.0462721
0.0375129
0.029607
0.0225659
0.0159565
0.0100293
0.00484212
0.00308681
0.00218634
0.00152976
0.00105588
0.000717855
0.000480014
0.000315329
0.000203499
0.000129452
8.21808e-05
5.38658e-05
3.90388e-05
2.94227e-05
2.15215e-05
1.50331e-05
9.94897e-06
6.20585e-06
3.64527e-06
2.0243e-06
1.07038e-06
5.43075e-07
2.66091e-07
1.27307e-07
5.97482e-08
2.75129e-08
1.24756e-08
5.56825e-09
2.45375e-09
1.06718e-09
4.59093e-10
1.956e-10
8.24971e-11
3.45438e-11
1.43082e-11
5.87066e-12
2.35071e-12
9.00892e-13
3.00153e-13
5.26591e-14
0.999997
0.999987
0.99997
0.999942
0.999894
0.999816
0.999686
0.999476
0.999137
0.998599
0.997757
0.996461
0.994505
0.991615
0.987452
0.981617
0.973681
0.963229
0.949914
0.933502
0.913904
0.891174
0.865494
0.837143
0.806466
0.773847
0.739684
0.704378
0.668316
0.631862
0.595354
0.559095
0.523352
0.488355
0.454297
0.421334
0.389596
0.359179
0.330153
0.302562
0.276425
0.251746
0.228511
0.206695
0.186261
0.167163
0.149352
0.132772
0.117366
0.103076
0.0898422
0.0776077
0.0663165
0.0559158
0.0463563
0.0375931
0.0296842
0.0226396
0.0160282
0.0101005
0.00491015
0.00309035
0.00218168
0.00152153
0.00104676
0.00070929
0.000472664
0.000309391
0.000198915
0.000126034
7.9698e-05
5.2088e-05
3.77716e-05
2.85585e-05
2.09628e-05
1.46927e-05
9.75579e-06
6.10451e-06
3.59627e-06
2.00244e-06
1.06134e-06
5.39587e-07
2.64824e-07
1.26893e-07
5.95812e-08
2.7471e-08
1.24598e-08
5.56689e-09
2.4534e-09
1.06787e-09
4.59518e-10
1.95803e-10
8.26217e-11
3.45923e-11
1.43336e-11
5.88008e-12
2.35525e-12
9.02396e-13
3.00745e-13
5.2756e-14
0.999997
0.999987
0.99997
0.999941
0.999894
0.999815
0.999686
0.999475
0.999136
0.998597
0.997754
0.996456
0.994497
0.991605
0.987437
0.981596
0.973653
0.963193
0.949869
0.933449
0.913843
0.891106
0.865422
0.837069
0.806392
0.773775
0.739618
0.704319
0.668266
0.631824
0.595328
0.559082
0.523354
0.488372
0.454329
0.421381
0.389657
0.359254
0.330241
0.302662
0.276536
0.251866
0.22864
0.206831
0.186403
0.167311
0.149504
0.132927
0.117521
0.10323
0.0899939
0.0777561
0.0664608
0.0560552
0.0464903
0.0377215
0.0298108
0.0227617
0.0161487
0.010224
0.00503461
0.00309595
0.00217856
0.00151438
0.00103835
0.000701155
0.000465557
0.00030358
0.000194386
0.000122628
7.71924e-05
5.02486e-05
3.63982e-05
2.7594e-05
2.03267e-05
1.42997e-05
9.53085e-06
5.98628e-06
3.53938e-06
1.97733e-06
1.05112e-06
5.35755e-07
2.63514e-07
1.26482e-07
5.94717e-08
2.74547e-08
1.24649e-08
5.57387e-09
2.45826e-09
1.07047e-09
4.60896e-10
1.96416e-10
8.29177e-11
3.47121e-11
1.43888e-11
5.90147e-12
2.36467e-12
9.0573e-13
3.01951e-13
5.29605e-14
0.999997
0.999987
0.99997
0.999941
0.999894
0.999815
0.999685
0.999474
0.999135
0.998595
0.99775
0.99645
0.994487
0.99159
0.987416
0.981567
0.973613
0.963142
0.949806
0.933374
0.913757
0.891012
0.865321
0.836964
0.806286
0.773672
0.739521
0.704232
0.668191
0.631764
0.595285
0.559058
0.523349
0.488387
0.454365
0.421438
0.389734
0.359352
0.330357
0.302795
0.276684
0.252028
0.228814
0.207014
0.186594
0.167507
0.149704
0.133131
0.117728
0.103439
0.090202
0.0779605
0.0666606
0.0562492
0.0466778
0.0379019
0.0299825
0.0229255
0.0163054
0.0103741
0.00517051
0.00310344
0.00217733
0.00150889
0.00103133
0.000694136
0.000459313
0.000298415
0.000190325
0.000119546
7.48929e-05
4.85153e-05
3.50504e-05
2.66306e-05
1.96866e-05
1.39033e-05
9.30488e-06
5.86893e-06
3.48414e-06
1.95373e-06
1.04199e-06
5.32608e-07
2.62611e-07
1.26296e-07
5.94825e-08
2.7498e-08
1.24989e-08
5.59436e-09
2.46909e-09
1.07596e-09
4.63501e-10
1.97607e-10
8.34533e-11
3.49379e-11
1.44873e-11
5.94014e-12
2.38125e-12
9.11679e-13
3.04043e-13
5.33176e-14
0.999997
0.999987
0.99997
0.999941
0.999894
0.999814
0.999685
0.999473
0.999132
0.998591
0.997744
0.996441
0.994474
0.99157
0.987388
0.981528
0.973562
0.963076
0.949724
0.933276
0.913644
0.890886
0.865185
0.836822
0.806143
0.773532
0.739388
0.70411
0.668084
0.631675
0.595217
0.559013
0.52333
0.488394
0.454399
0.421499
0.389822
0.359465
0.330494
0.302954
0.276864
0.252227
0.229029
0.207243
0.186834
0.167756
0.14996
0.133389
0.117988
0.103699
0.0904634
0.0782222
0.066919
0.0565006
0.0469212
0.0381367
0.0302046
0.0231377
0.0165088
0.0105694
0.00534734
0.00311352
0.00217842
0.00150545
0.00102603
0.000688518
0.000454175
0.000294094
0.000186888
0.000116906
7.28897e-05
4.69592e-05
3.37866e-05
2.57156e-05
1.90791e-05
1.35297e-05
9.09499e-06
5.76283e-06
3.43638e-06
1.93479e-06
1.03557e-06
5.30964e-07
2.62492e-07
1.26503e-07
5.96845e-08
2.76292e-08
1.25731e-08
5.63323e-09
2.48838e-09
1.08513e-09
4.67717e-10
1.99493e-10
8.42812e-11
3.52911e-11
1.46389e-11
6.00018e-12
2.40666e-12
9.20921e-13
3.0724e-13
5.38653e-14
0.999997
0.999987
0.99997
0.999941
0.999893
0.999814
0.999684
0.999471
0.99913
0.998587
0.997737
0.99643
0.994458
0.991546
0.987353
0.981479
0.973497
0.962991
0.949619
0.933149
0.913498
0.890722
0.865008
0.836636
0.805954
0.773344
0.739207
0.703942
0.667933
0.631546
0.595113
0.558938
0.523285
0.488382
0.45442
0.421553
0.38991
0.359585
0.330645
0.303134
0.27707
0.252457
0.22928
0.207513
0.18712
0.168055
0.150268
0.133705
0.118308
0.104019
0.0907801
0.0785357
0.0672297
0.0568088
0.0472219
0.0384283
0.0304812
0.0234027
0.0167629
0.0108134
0.00556819
0.00312602
0.00218195
0.00150424
0.00102266
0.000684488
0.000450297
0.000290741
0.000184168
0.00011478
7.12377e-05
4.56278e-05
3.26393e-05
2.48714e-05
1.85212e-05
1.31911e-05
8.90972e-06
5.67357e-06
3.39964e-06
1.92266e-06
1.03313e-06
5.31436e-07
2.63395e-07
1.27188e-07
6.01068e-08
2.78668e-08
1.26977e-08
5.69522e-09
2.518e-09
1.09884e-09
4.73901e-10
2.02221e-10
8.54635e-11
3.57944e-11
1.4851e-11
6.0871e-12
2.44225e-12
9.34179e-13
3.11767e-13
5.46465e-14
0.999997
0.999987
0.99997
0.999941
0.999893
0.999813
0.999682
0.999469
0.999126
0.998581
0.997729
0.996417
0.994437
0.991516
0.98731
0.981419
0.973415
0.962886
0.949487
0.93299
0.913313
0.890514
0.864782
0.836397
0.805708
0.773098
0.738968
0.703715
0.667726
0.631363
0.59496
0.558818
0.523202
0.488338
0.454415
0.42159
0.389986
0.359701
0.3308
0.303324
0.277294
0.252712
0.229563
0.20782
0.187447
0.168399
0.150627
0.134074
0.118684
0.104399
0.0911611
0.078913
0.0676009
0.0571745
0.0475839
0.0387814
0.0308165
0.0237239
0.0170712
0.0111092
0.00583988
0.00314139
0.00218828
0.00150557
0.00102148
0.000682261
0.000447837
0.000288458
0.000182222
0.000113184
6.99289e-05
4.44962e-05
3.15855e-05
2.40827e-05
1.80064e-05
1.28864e-05
8.75018e-06
5.60292e-06
3.37554e-06
1.91853e-06
1.03513e-06
5.34222e-07
2.65583e-07
1.28518e-07
6.0845e-08
2.82513e-08
1.2889e-08
5.78705e-09
2.56076e-09
1.11825e-09
4.82523e-10
2.05981e-10
8.70775e-11
3.64775e-11
1.51366e-11
6.20457e-12
2.48962e-12
9.52254e-13
3.17852e-13
5.57024e-14
0.999997
0.999987
0.999969
0.999941
0.999892
0.999812
0.999681
0.999467
0.999122
0.998575
0.997718
0.996401
0.994413
0.99148
0.987257
0.981346
0.973316
0.962756
0.949324
0.932793
0.913083
0.890254
0.864496
0.836093
0.805393
0.77278
0.738654
0.703414
0.667445
0.631109
0.594739
0.558636
0.523062
0.488243
0.454368
0.42159
0.390036
0.359799
0.330945
0.303514
0.277525
0.252981
0.229867
0.208155
0.18781
0.168785
0.151031
0.134493
0.119114
0.104836
0.0916017
0.0793536
0.0680374
0.0576016
0.048
0.0391896
0.0312112
0.0241031
0.0174351
0.0114571
0.00617148
0.0031599
0.00219786
0.00150994
0.00102298
0.000682297
0.000447207
0.000287601
0.000181351
0.000112362
6.9134e-05
4.3644e-05
3.05673e-05
2.33194e-05
1.75197e-05
1.26086e-05
8.61383e-06
5.55053e-06
3.36459e-06
1.92263e-06
1.04205e-06
5.39969e-07
2.69306e-07
1.30613e-07
6.19504e-08
2.88078e-08
1.3159e-08
5.91405e-09
2.619e-09
1.14437e-09
4.94015e-10
2.10954e-10