/*--------------------------------*- C++ -*----------------------------------*\
  =========                 |
  \\      /  F ield         | OpenFOAM: The Open Source CFD Toolbox
   \\    /   O peration     | Website:  https://openfoam.org
    \\  /    A nd           | Version:  8
     \\/     M anipulation  |
\*---------------------------------------------------------------------------*/
FoamFile
{
    version     2.0;
    format      ascii;
    class       volScalarField;
    location    "740/fluid";
    object      CO2;
}
// * * * * * * * * * * * * * * * * * * * * * * * * * * * * * * * * * * * * * //

dimensions      [0 0 0 0 0 0 0];

internalField   nonuniform List<scalar> 
4000
(
4.74076e-07
2.07152e-06
4.75736e-06
9.25889e-06
1.67712e-05
2.92386e-05
4.97871e-05
8.3371e-05
0.000137709
0.000224579
0.000361514
0.000573811
0.000896604
0.00137636
0.00207093
0.003047
0.0043743
0.00611693
0.00832385
0.0110215
0.0142109
0.0178692
0.0219548
0.0264131
0.0311824
0.0361983
0.0413967
0.0467161
0.0520996
0.0574949
0.0628557
0.0681417
0.0733186
0.0783581
0.0832376
0.087939
0.0924485
0.0967566
0.100857
0.104748
0.108428
0.1119
0.115167
0.118234
0.121105
0.123787
0.126286
0.128607
0.130756
0.132736
0.134548
0.136195
0.137671
0.138972
0.140086
0.140996
0.141676
0.142085
0.142184
0.141905
0.141154
0.139801
0.137057
0.126511
0.115793
0.105082
0.0945155
0.0842034
0.0742323
0.0646732
0.0555859
0.0470231
0.0390346
0.0317064
0.025011
0.0190545
0.013901
0.00961373
0.00623925
0.00377164
0.00212008
0.00111381
0.000552094
0.000262445
0.000121211
5.47171e-05
2.42462e-05
1.05804e-05
4.55806e-06
1.94247e-06
8.20251e-07
3.43687e-07
1.43043e-07
5.91691e-08
2.43129e-08
9.89486e-09
3.952e-09
1.50813e-09
5.03567e-10
8.82756e-11
4.74815e-07
2.07527e-06
4.76824e-06
9.28618e-06
1.68331e-05
2.9367e-05
5.00316e-05
8.37969e-05
0.000138378
0.000225495
0.000362494
0.000574272
0.000895249
0.00137074
0.002057
0.00301892
0.00432465
0.00603755
0.00820716
0.0108619
0.0140058
0.0176194
0.0216642
0.0260882
0.0308312
0.0358293
0.0410187
0.0463374
0.0517272
0.057135
0.0625133
0.0678205
0.0730214
0.0780866
0.0829927
0.087721
0.0922571
0.0965909
0.100716
0.10463
0.108332
0.111823
0.115108
0.11819
0.121076
0.123771
0.126281
0.128612
0.130769
0.132755
0.134573
0.136224
0.137703
0.139007
0.140122
0.141033
0.141713
0.142121
0.142217
0.141935
0.141177
0.139815
0.136204
0.12559
0.114818
0.104063
0.0934604
0.083119
0.0731256
0.0635518
0.0544587
0.045901
0.0379312
0.03064
0.024004
0.0181353
0.0130999
0.00895928
0.00574931
0.00344293
0.00192531
0.00101205
0.000504799
0.000242041
0.000112919
5.15036e-05
2.30452e-05
1.01424e-05
4.40032e-06
1.88559e-06
7.99441e-07
3.35873e-07
1.40012e-07
5.79568e-08
2.38168e-08
9.69005e-09
3.86842e-09
1.47555e-09
4.92509e-10
8.63453e-11
4.76237e-07
2.08174e-06
4.78429e-06
9.32022e-06
1.68994e-05
2.9488e-05
5.02383e-05
8.41255e-05
0.000138857
0.00022611
0.000363116
0.000574504
0.000894116
0.00136642
0.00204654
0.00299801
0.00428761
0.00597763
0.00811727
0.0107356
0.0138382
0.017408
0.0214091
0.0257921
0.0304991
0.0354681
0.040636
0.0459414
0.0513261
0.0567364
0.0621241
0.0674467
0.0726678
0.0777571
0.0826901
0.0874472
0.0920132
0.0963772
0.100532
0.104475
0.108205
0.111722
0.115031
0.118136
0.121042
0.123755
0.126281
0.128626
0.130794
0.132791
0.134617
0.136274
0.137759
0.139065
0.140182
0.141092
0.141771
0.142175
0.142265
0.141973
0.1412
0.139815
0.134699
0.124038
0.113222
0.102431
0.0918047
0.0814523
0.071463
0.0619102
0.0528572
0.0443611
0.0364768
0.0292836
0.0227891
0.0170893
0.0122449
0.00830683
0.00529284
0.00315417
0.00176069
0.00092674
0.000464003
0.000223481
0.000104786
4.80425e-05
2.16068e-05
9.55553e-06
4.16395e-06
1.79116e-06
7.61847e-07
3.20893e-07
1.3402e-07
5.55468e-08
2.28434e-08
9.29708e-09
3.71171e-09
1.4156e-09
4.72382e-10
8.2803e-11
4.76147e-07
2.08134e-06
4.7833e-06
9.31769e-06
1.68921e-05
2.94657e-05
5.01744e-05
8.39565e-05
0.000138444
0.000225177
0.00036115
0.000570629
0.000886974
0.00135397
0.00202589
0.00296531
0.0042382
0.0059064
0.00801923
0.0106065
0.0136751
0.0172096
0.0211758
0.025526
0.0302037
0.035148
0.0402968
0.0455893
0.0509674
0.0563775
0.0617709
0.0671047
0.0723419
0.0774512
0.0824075
0.0871903
0.0917836
0.0961759
0.10036
0.104331
0.108088
0.111631
0.114965
0.118093
0.12102
0.123752
0.126295
0.128654
0.130835
0.132841
0.134676
0.136339
0.137827
0.139135
0.140252
0.141159
0.141832
0.142226
0.142303
0.141993
0.141196
0.139777
0.132828
0.122152
0.111319
0.100516
0.0898887
0.0795512
0.0695951
0.0600961
0.0511189
0.0427221
0.0349621
0.0278909
0.0215668
0.0160538
0.0114074
0.00766991
0.00484444
0.00286554
0.00159141
0.00083568
0.000418503
0.000201969
9.49802e-05
4.36998e-05
1.97279e-05
8.75831e-06
3.83113e-06
1.65402e-06
7.05897e-07
2.98233e-07
1.24888e-07
5.18787e-08
2.13746e-08
8.71219e-09
3.48213e-09
1.32908e-09
4.43678e-10
7.77859e-11
4.74676e-07
2.07481e-06
4.76788e-06
9.28636e-06
1.68319e-05
2.93526e-05
4.99635e-05
8.35657e-05
0.000137725
0.00022387
0.00035881
0.000566526
0.000879957
0.00134231
0.00200714
0.00293628
0.00419501
0.00584481
0.0079351
0.0104963
0.0135364
0.0170413
0.0209783
0.025301
0.0299542
0.0348779
0.0400107
0.0452922
0.0506646
0.0560743
0.0614724
0.0668155
0.0720662
0.0771927
0.082169
0.0869742
0.0915916
0.096009
0.100218
0.104215
0.107996
0.111564
0.114921
0.11807
0.121016
0.123766
0.126324
0.128696
0.130888
0.132903
0.134744
0.13641
0.137899
0.139206
0.140317
0.141216
0.141877
0.142253
0.14231
0.141973
0.141137
0.139675
0.13086
0.120201
0.109365
0.0985611
0.087944
0.0776341
0.0677255
0.0582949
0.0494072
0.0411206
0.0335046
0.0265804
0.0204256
0.015097
0.0106434
0.00709726
0.00444756
0.00261384
0.00144547
0.000757639
0.000379493
0.000183419
8.64442e-05
3.98706e-05
1.80449e-05
8.03085e-06
3.52103e-06
1.52335e-06
6.51359e-07
2.75648e-07
1.15595e-07
4.80766e-08
1.98277e-08
8.08808e-09
3.23458e-09
1.23505e-09
4.12327e-10
7.22898e-11
4.72105e-07
2.06345e-06
4.74121e-06
9.23281e-06
1.6731e-05
2.91683e-05
4.9633e-05
8.29803e-05
0.000136701
0.000222102
0.000355809
0.000561529
0.000871823
0.00132942
0.00198733
0.00290683
0.0041528
0.00578659
0.00785781
0.0103975
0.0134145
0.0168959
0.0208099
0.0251112
0.0297454
0.0346534
0.0397742
0.0450478
0.0504166
0.0558269
0.0612298
0.0665816
0.0718443
0.0769859
0.0819797
0.0868044
0.0914427
0.0958819
0.100113
0.104132
0.107936
0.111525
0.114901
0.118068
0.121031
0.123795
0.126366
0.128749
0.130949
0.13297
0.134814
0.136481
0.137967
0.139266
0.140367
0.141251
0.141891
0.142241
0.142267
0.141893
0.141019
0.139533
0.129242
0.118494
0.107592
0.0967498
0.0861249
0.0758355
0.0659733
0.0566126
0.0478156
0.039638
0.0321589
0.0253745
0.0193846
0.0142331
0.00995882
0.00658712
0.00409515
0.00239011
0.00131489
0.000686947
0.000343556
0.000166058
7.83281e-05
3.61765e-05
1.64007e-05
7.3128e-06
3.21247e-06
1.39256e-06
5.9655e-07
2.52894e-07
1.0622e-07
4.4239e-08
1.82666e-08
7.45847e-09
2.98494e-09
1.14025e-09
3.80725e-10
6.67498e-11
4.69045e-07
2.05e-06
4.70992e-06
9.17081e-06
1.6616e-05
2.89624e-05
4.92717e-05
8.23558e-05
0.000135636
0.00022031
0.000352839
0.000556693
0.000864116
0.00131744
0.0019692
0.00288026
0.0041152
0.00573528
0.00779039
0.0103121
0.0133102
0.0167723
0.0206679
0.0249524
0.0295721
0.0344684
0.0395806
0.0448491
0.0502163
0.0556285
0.0610366
0.0663968
0.0716707
0.0768258
0.0818352
0.086677
0.0913335
0.0957916
0.100042
0.10408
0.107902
0.111509
0.114902
0.118084
0.12106
0.123836
0.126417
0.128809
0.131014
0.133039
0.134883
0.136546
0.138025
0.139313
0.140396
0.141254
0.141859
0.142162
0.142129
0.141678
0.14071
0.139131
0.128254
0.117172
0.106084
0.0951466
0.0844875
0.0742069
0.0643863
0.0550931
0.0463856
0.0383175
0.0309784
0.0243355
0.0184809
0.0134741
0.0093588
0.00614314
0.00379102
0.00219854
0.00120371
0.000626922
0.000313022
0.000151255
7.13688e-05
3.29858e-05
1.49684e-05
6.68148e-06
2.93858e-06
1.27536e-06
5.46993e-07
2.3215e-07
9.76116e-08
4.06927e-08
1.68164e-08
6.87101e-09
2.7512e-09
1.05124e-09
3.51005e-10
6.15347e-11
4.65825e-07
2.03587e-06
4.67719e-06
9.10623e-06
1.6497e-05
2.87508e-05
4.89033e-05
8.17249e-05
0.000134571
0.000218538
0.000349941
0.00055204
0.000856805
0.00130623
0.0019525
0.00285615
0.00408156
0.00568999
0.00773162
0.0102386
0.0132212
0.0166681
0.0205493
0.0248208
0.0294296
0.0343174
0.0394239
0.0446895
0.0500567
0.0554719
0.0608857
0.066254
0.0715383
0.0767057
0.0817289
0.0865857
0.0912581
0.0957325
0.0999996
0.104054
0.107891
0.111512
0.114918
0.118113
0.121101
0.123886
0.126475
0.128872
0.131081
0.133106
0.134948
0.136606
0.138076
0.139349
0.14041
0.141236
0.141792
0.142029
0.141895
0.141289
0.140079
0.138116
0.12704
0.115815
0.104637
0.0936559
0.0829898
0.0727325
0.0629602
0.053736
0.045115
0.0371473
0.029907
0.0233913
0.0176769
0.0128116
0.00883794
0.00576128
0.00353104
0.00203515
0.00110881
0.000575492
0.000286705
0.000138419
6.52964e-05
3.01849e-05
1.37041e-05
6.12147e-06
2.69457e-06
1.17055e-06
5.02529e-07
2.13486e-07
8.98476e-08
3.74882e-08
1.55038e-08
6.33857e-09
2.53911e-09
9.7041e-10
3.23997e-10
5.67937e-11
4.62688e-07
2.02213e-06
4.64543e-06
9.04384e-06
1.63826e-05
2.85484e-05
4.85534e-05
8.113e-05
0.000133575
0.000216896
0.000347279
0.000547806
0.000850213
0.00129622
0.00193772
0.00283499
0.00405227
0.00565089
0.00768129
0.0101761
0.0131462
0.0165808
0.0204507
0.0247124
0.0293132
0.034195
0.039298
0.0445624
0.0499309
0.0553497
0.0607694
0.0661455
0.0714394
0.0766179
0.0816534
0.0865233
0.0912093
0.0956977
0.0999789
0.104046
0.107896
0.111529
0.114947
0.118151
0.121148
0.12394
0.126535
0.128935
0.131147
0.133171
0.135011
0.136664
0.138125
0.139386
0.140429
0.141233
0.141757
0.141955
0.141767
0.141089
0.139781
0.136978
0.125787
0.11449
0.103275
0.0922864
0.0816389
0.0714233
0.0617129
0.0525692
0.0440447
0.0361859
0.0290676
0.0226752
0.0170797
0.0123206
0.00842675
0.00544285
0.00331152
0.00189698
0.00102858
0.000532006
0.000264425
0.000127528
6.01286e-05
2.77929e-05
1.26204e-05
5.63953e-06
2.48374e-06
1.07965e-06
4.63826e-07
1.97186e-07
8.30463e-08
3.46736e-08
1.43483e-08
5.86898e-09
2.35177e-09
8.9893e-10
3.00102e-10
5.25952e-11
4.59763e-07
2.00932e-06
4.6159e-06
8.98595e-06
1.62767e-05
2.83617e-05
4.82319e-05
8.0586e-05
0.000132669
0.00021541
0.000344884
0.000544022
0.000844363
0.0012874
0.00192479
0.00281662
0.00402704
0.00561746
0.00763857
0.0101234
0.0130834
0.0165085
0.0203696
0.0246239
0.0292188
0.0340967
0.0391977
0.0444622
0.0498328
0.0552556
0.0606811
0.0660646
0.0713673
0.0765557
0.081602
0.0864832
0.0911811
0.0956814
0.0999737
0.104052
0.107913
0.111556
0.114982
0.118194
0.121197
0.123995
0.126593
0.128997
0.131209
0.133233
0.13507
0.136718
0.138173
0.139425
0.140458
0.141249
0.141759
0.141945
0.141749
0.141073
0.139793
0.13576
0.124536
0.113221
0.102002
0.0910247
0.0804039
0.0702284
0.0605706
0.0514917
0.0430447
0.0352791
0.0282201
0.0219177
0.0164284
0.0117965
0.00805407
0.00517142
0.00312185
0.00177856
0.000960166
0.000495025
0.000245491
0.000118269
5.57303e-05
2.57538e-05
1.16947e-05
5.22698e-06
2.30288e-06
1.0015e-06
4.30485e-07
1.83118e-07
7.7167e-08
3.22369e-08
1.33466e-08
5.46145e-09
2.18904e-09
8.36802e-10
2.79332e-10
4.89438e-11
4.57122e-07
1.99778e-06
4.58929e-06
8.93388e-06
1.61817e-05
2.81947e-05
4.79452e-05
8.01024e-05
0.000131866
0.000214101
0.000342784
0.000540719
0.000839284
0.00127978
0.00191369
0.00280093
0.00400562
0.00558924
0.00760272
0.0100795
0.0130315
0.0164489
0.0203033
0.024552
0.0291429
0.0340183
0.0391185
0.0443839
0.0497571
0.055184
0.060615
0.0660054
0.071316
0.0765131
0.0815687
0.0864598
0.0911677
0.0956775
0.0999793
0.104067
0.107936
0.111587
0.11502
0.118238
0.121246
0.124048
0.126649
0.129053
0.131265
0.133288
0.135122
0.136766
0.138215
0.13946
0.140486
0.141268
0.141769
0.141947
0.141746
0.141069
0.139794
0.134594
0.123367
0.112061
0.100862
0.0899165
0.0793394
0.0692177
0.059622
0.0506122
0.0422258
0.0345102
0.0275065
0.0212816
0.0158819
0.011346
0.0076998
0.00493457
0.00296375
0.00167781
0.000902256
0.000463821
0.000229541
0.000110472
5.20248e-05
2.40341e-05
1.09129e-05
4.87806e-06
2.14966e-06
9.35177e-07
4.02142e-07
1.71139e-07
7.21528e-08
3.0156e-08
1.24903e-08
5.11272e-09
2.04971e-09
7.8361e-10
2.61577e-10
4.58296e-11
4.54796e-07
1.9876e-06
4.56588e-06
8.88812e-06
1.60984e-05
2.80485e-05
4.76947e-05
7.96812e-05
0.00013117
0.000212967
0.000340972
0.000537882
0.000834939
0.00127329
0.00190427
0.0027877
0.00398763
0.00556566
0.00757294
0.0100432
0.0129888
0.0164003
0.0202495
0.0244942
0.0290823
0.0339562
0.0390564
0.0443232
0.0496992
0.0551301
0.0605663
0.0659628
0.0712804
0.0764851
0.0815488
0.0864482
0.0911641
0.095682
0.0999917
0.104086
0.107963
0.111619
0.115058
0.118281
0.121292
0.124096
0.126698
0.129103
0.131314
0.133334
0.135165
0.136805
0.138249
0.139487
0.140505
0.141279
0.141772
0.141943
0.141735
0.141055
0.139781
0.133562
0.122331
0.111033
0.0998585
0.0889504
0.0784148
0.0683313
0.0587708
0.0497895
0.0414497
0.0337969
0.0268736
0.0207299
0.0154135
0.0109627
0.00740095
0.00471434
0.00282834
0.00159421
0.000853431
0.000437598
0.000216172
0.000103944
4.89233e-05
2.25944e-05
1.02581e-05
4.5855e-06
2.02104e-06
8.7944e-07
3.78292e-07
1.61046e-07
6.7923e-08
2.83987e-08
1.17664e-08
4.81776e-09
1.93184e-09
7.3864e-10
2.46571e-10
4.32021e-11
4.52789e-07
1.97883e-06
4.5457e-06
8.84873e-06
1.60267e-05
2.7923e-05
4.74801e-05
7.93212e-05
0.000130576
0.000212003
0.000339437
0.000535484
0.00083128
0.00126785
0.0018964
0.00277667
0.00397271
0.0055462
0.00754847
0.0100135
0.0129541
0.0163609
0.0202064
0.0244481
0.0290343
0.0339075
0.0390082
0.0442766
0.0496553
0.05509
0.0605308
0.0659328
0.0712564
0.0764676
0.0815381
0.0864442
0.0911668
0.0956914
0.100007
0.104108
0.107989
0.111651
0.115093
0.118319
0.121332
0.124138
0.12674
0.129144
0.131353
0.133371
0.135198
0.136833
0.138271
0.139503
0.140513
0.141279
0.141764
0.141928
0.141715
0.141032
0.13976
0.132675
0.121435
0.110144
0.0989868
0.0880935
0.0775726
0.0675182
0.0579987
0.0490718
0.0407888
0.0331966
0.0263378
0.0202628
0.0150182
0.0106411
0.00715234
0.00453377
0.00270551
0.00152518
0.000813913
0.000415908
0.000205085
9.85418e-05
4.63584e-05
2.14037e-05
9.71606e-06
4.34311e-06
1.91435e-06
8.3314e-07
3.58451e-07
1.52638e-07
6.43949e-08
2.69311e-08
1.11612e-08
4.57099e-09
1.83318e-09
7.00993e-10
2.34004e-10
4.10031e-11
4.51091e-07
1.97141e-06
4.52865e-06
8.81546e-06
1.59663e-05
2.78172e-05
4.72997e-05
7.9019e-05
0.000130078
0.000211198
0.000338157
0.000533491
0.000828245
0.00126335
0.00188992
0.00276762
0.00396051
0.00553033
0.00752859
0.00998956
0.0129261
0.0163295
0.020172
0.0244116
0.0289966
0.0338696
0.038971
0.0442411
0.0496224
0.0550605
0.0605053
0.065912
0.0712406
0.0764573
0.0815332
0.0864448
0.091173
0.0957027
0.100024
0.104129
0.108014
0.111679
0.115124
0.118351
0.121366
0.124172
0.126774
0.129176
0.131383
0.133398
0.13522
0.13685
0.138282
0.139507
0.14051
0.141268
0.141745
0.141902
0.141683
0.140998
0.139733
0.131927
0.120671
0.109381
0.0982257
0.0873489
0.0768573
0.0668364
0.0573553
0.0484716
0.040236
0.0326947
0.02589
0.0198727
0.0146887
0.0103739
0.00694702
0.0043861
0.00260669
0.0014633
0.000781598
0.000398887
0.000196215
9.41669e-05
4.4274e-05
2.04333e-05
9.27325e-06
4.14463e-06
1.82681e-06
7.95085e-07
3.4212e-07
1.45708e-07
6.14832e-08
2.57188e-08
1.06608e-08
4.36685e-09
1.75148e-09
6.69868e-10
2.23604e-10
3.91849e-11
4.49685e-07
1.96527e-06
4.51454e-06
8.78795e-06
1.59163e-05
2.773e-05
4.7151e-05
7.87704e-05
0.000129669
0.000210537
0.000337109
0.000531863
0.000825774
0.00125969
0.00188466
0.0027603
0.00395067
0.00551758
0.0075127
0.00997045
0.012904
0.0163046
0.020145
0.0243832
0.0289674
0.0338405
0.0389427
0.0442144
0.0495979
0.0550389
0.0604872
0.0658976
0.0712305
0.0764515
0.0815317
0.0864477
0.0911801
0.0957139
0.100038
0.104147
0.108035
0.111702
0.115148
0.118377
0.121392
0.124197
0.126798
0.129199
0.131403
0.133413
0.135232
0.136856
0.138282
0.1395
0.140496
0.141247
0.141716
0.141867
0.141644
0.140958
0.139701
0.131303
0.120029
0.108734
0.0975899
0.086731
0.0762635
0.0662714
0.0568231
0.0479757
0.0397794
0.0322804
0.0255205
0.0195511
0.0144174
0.0101545
0.00677909
0.00426603
0.00252708
0.0014142
0.000753007
0.000384666
0.000189343
9.0739e-05
4.2602e-05
1.96479e-05
8.91378e-06
3.98331e-06
1.75558e-06
7.6409e-07
3.28806e-07
1.40055e-07
5.91065e-08
2.47288e-08
1.0252e-08
4.20029e-09
1.68473e-09
6.44556e-10
2.15137e-10
3.77052e-11
4.48552e-07
1.96032e-06
4.50317e-06
8.7658e-06
1.58762e-05
2.76599e-05
4.70316e-05
7.8571e-05
0.000129342
0.000210009
0.000336273
0.000530566
0.000823808
0.00125679
0.0018805
0.00275452
0.00394292
0.00550757
0.00750024
0.00995553
0.0128867
0.0162854
0.0201242
0.0243613
0.0289451
0.0338184
0.0389214
0.0441945
0.0495799
0.0550232
0.0604743
0.0658878
0.0712239
0.0764481
0.0815318
0.0864511
0.0911866
0.0957233
0.100051
0.104161
0.108051
0.111719
0.115167
0.118396
0.12141
0.124215
0.126813
0.129211
0.131412
0.133419
0.135233
0.136852
0.138272
0.139483
0.140472
0.141217
0.14168
0.141825
0.1416
0.140915
0.139669
0.130796
0.119508
0.108209
0.0970713
0.0862271
0.0757797
0.0658117
0.0563907
0.0475734
0.0394096
0.0319451
0.0252218
0.0192913
0.0141985
0.00997775
0.00664419
0.00416992
0.00246365
0.00137534
0.000730584
0.000372155
0.000182979
8.78308e-05
4.12539e-05
1.90188e-05
8.62497e-06
3.8534e-06
1.69824e-06
7.39166e-07
3.18111e-07
1.35517e-07
5.71994e-08
2.39356e-08
9.92434e-09
4.06775e-09
1.63154e-09
6.24417e-10
2.084e-10
3.65286e-11
4.47672e-07
1.95648e-06
4.49434e-06
8.74861e-06
1.5845e-05
2.76055e-05
4.69391e-05
7.84167e-05
0.000129089
0.000209602
0.000335628
0.000529567
0.000822297
0.00125456
0.00187731
0.0027501
0.003937
0.00549994
0.00749077
0.00994422
0.0128737
0.0162709
0.0201086
0.024345
0.0289286
0.0338021
0.0389057
0.0441799
0.0495669
0.055012
0.0604652
0.0658809
0.0712194
0.0764461
0.0815321
0.0864537
0.0911913
0.09573
0.100059
0.104171
0.108062
0.111731
0.115178
0.118407
0.121421
0.124223
0.12682
0.129215
0.131413
0.133416
0.135225
0.136839
0.138253
0.139459
0.140442
0.141181
0.14164
0.141783
0.141558
0.140877
0.139641
0.130397
0.11909
0.107789
0.0966577
0.0858263
0.0753959
0.0654482
0.0560497
0.0472569
0.0391192
0.0316823
0.024988
0.0190883
0.0140277
0.00984017
0.00653944
0.00409551
0.00241472
0.00134554
0.000713636
0.000363024
0.000178272
8.54716e-05
4.01712e-05
1.85316e-05
8.40397e-06
3.75404e-06
1.65421e-06
7.19915e-07
3.0984e-07
1.32007e-07
5.57248e-08
2.33255e-08
9.67291e-09
3.96617e-09
1.59084e-09
6.09018e-10
2.03245e-10
3.56287e-11
4.47028e-07
1.95367e-06
4.48788e-06
8.73604e-06
1.58222e-05
2.75658e-05
4.68716e-05
7.8304e-05
0.000128904
0.000209304
0.000335159
0.000528841
0.000821198
0.00125294
0.00187499
0.0027469
0.00393273
0.00549444
0.00748395
0.00993609
0.0128643
0.0162605
0.0200974
0.0243334
0.0289168
0.0337905
0.0388947
0.0441697
0.0495578
0.0550042
0.0604588
0.0658762
0.0712162
0.0764444
0.0815319
0.0864548
0.0911937
0.0957335
0.100063
0.104176
0.108067
0.111736
0.115183
0.118411
0.121424
0.124225
0.12682
0.129212
0.131407
0.133406
0.13521
0.136819
0.138229
0.139429
0.140408
0.141143
0.141601
0.141747
0.141533
0.140876
0.139688
0.130101
0.118776
0.107471
0.0963445
0.0855231
0.0751065
0.0651749
0.0557943
0.0470205
0.038903
0.0314872
0.0248148
0.0189382
0.0139019
0.00973903
0.00646267
0.00404114
0.00237907
0.00132386
0.000701309
0.000356406
0.000174875
8.37862e-05
3.93433e-05
1.81446e-05
8.23384e-06
3.68014e-06
1.6222e-06
7.06163e-07
3.03948e-07
1.29522e-07
5.46803e-08
2.28945e-08
9.4946e-09
3.894e-09
1.56188e-09
5.98039e-10
1.99567e-10
3.49855e-11
4.46608e-07
1.95183e-06
4.48366e-06
8.72783e-06
1.58073e-05
2.75399e-05
4.68275e-05
7.82306e-05
0.000128784
0.000209111
0.000334853
0.000528369
0.000820486
0.0012519
0.0018735
0.00274483
0.00392996
0.00549088
0.00747955
0.00993085
0.0128583
0.0162539
0.0200903
0.024326
0.0289093
0.0337832
0.0388877
0.0441633
0.049552
0.0549993
0.0604548
0.065873
0.071214
0.0764431
0.0815313
0.0864548
0.0911942
0.0957343
0.100064
0.104177
0.108069
0.111737
0.115184
0.118411
0.121422
0.124222
0.126814
0.129204
0.131396
0.133391
0.135192
0.136796
0.138201
0.139397
0.140371
0.141102
0.141558
0.141704
0.141492
0.140843
0.13967
0.129911
0.118566
0.107254
0.0961293
0.085315
0.0749086
0.064989
0.0556214
0.0468614
0.0387581
0.031357
0.0246998
0.0188389
0.0138189
0.00967264
0.00641251
0.00400581
0.002356
0.00130984
0.000693331
0.000352122
0.000172683
8.2712e-05
3.88422e-05
1.79072e-05
8.12512e-06
3.63065e-06
1.60104e-06
6.97033e-07
3.00116e-07
1.27911e-07
5.40037e-08
2.26169e-08
9.37989e-09
3.84776e-09
1.54332e-09
5.91024e-10
1.97213e-10
3.4574e-11
4.46403e-07
1.95094e-06
4.48162e-06
8.72386e-06
1.58002e-05
2.75274e-05
4.68064e-05
7.81955e-05
0.000128727
0.000209019
0.000334708
0.000528145
0.000820148
0.0012514
0.00187279
0.00274385
0.00392866
0.0054892
0.00747748
0.00992837
0.0128555
0.0162507
0.0200869
0.0243224
0.0289058
0.0337797
0.0388844
0.0441602
0.0495492
0.0549969
0.0604528
0.0658715
0.0712129
0.0764423
0.0815308
0.0864544
0.0911937
0.0957338
0.100064
0.104176
0.108068
0.111736
0.115182
0.118408
0.121419
0.124217
0.126808
0.129196
0.131385
0.133378
0.135176
0.136778
0.138179
0.139371
0.140341
0.14107
0.141523
0.141668
0.141458
0.140816
0.139661
0.129817
0.118456
0.107138
0.0960146
0.0852049
0.0748049
0.0648927
0.0555329
0.0467807
0.0386854
0.0312923
0.0246432
0.0187905
0.0137787
0.00964079
0.00638865
0.00398915
0.00234522
0.00130334
0.000689642
0.000350135
0.000171683
8.22203e-05
3.86158e-05
1.78e-05
8.07694e-06
3.60854e-06
1.59127e-06
6.92692e-07
2.98264e-07
1.27127e-07
5.36735e-08
2.24817e-08
9.32398e-09
3.82523e-09
1.53428e-09
5.87607e-10
1.96066e-10
3.43734e-11
4.46404e-07
1.95094e-06
4.48163e-06
8.72389e-06
1.58002e-05
2.75275e-05
4.68065e-05
7.81957e-05
0.000128727
0.000209019
0.000334709
0.000528146
0.00082015
0.0012514
0.00187279
0.00274385
0.00392866
0.00548921
0.00747749
0.00992839
0.0128555
0.0162507
0.0200869
0.0243225
0.0289058
0.0337797
0.0388844
0.0441602
0.0495492
0.0549969
0.0604528
0.0658715
0.0712129
0.0764423
0.0815308
0.0864544
0.0911937
0.0957338
0.100064
0.104176
0.108068
0.111736
0.115182
0.118408
0.121419
0.124217
0.126808
0.129196
0.131385
0.133378
0.135176
0.136778
0.138179
0.139371
0.140341
0.14107
0.141523
0.141668
0.141458
0.140816
0.139661
0.129817
0.118456
0.107138
0.0960146
0.0852049
0.074805
0.0648927
0.0555329
0.0467808
0.0386854
0.0312923
0.0246432
0.0187905
0.0137788
0.0096408
0.00638865
0.00398916
0.00234522
0.00130335
0.000689643
0.000350136
0.000171684
8.22207e-05
3.86155e-05
1.77999e-05
8.07677e-06
3.60847e-06
1.59122e-06
6.92671e-07
2.98242e-07
1.27124e-07
5.36727e-08
2.24813e-08
9.32384e-09
3.82515e-09
1.53425e-09
5.87588e-10
1.96061e-10
3.4372e-11
4.46612e-07
1.95185e-06
4.48371e-06
8.72791e-06
1.58075e-05
2.75401e-05
4.6828e-05
7.82313e-05
0.000128785
0.000209113
0.000334856
0.000528373
0.000820492
0.00125191
0.00187351
0.00274485
0.00392999
0.00549091
0.00747959
0.0099309
0.0128584
0.0162539
0.0200904
0.024326
0.0289094
0.0337833
0.0388878
0.0441633
0.0495521
0.0549993
0.0604548
0.0658731
0.0712141
0.0764431
0.0815314
0.0864548
0.0911942
0.0957344
0.100064
0.104177
0.108069
0.111737
0.115184
0.118411
0.121422
0.124222
0.126814
0.129204
0.131396
0.133391
0.135192
0.136796
0.138201
0.139397
0.140371
0.141102
0.141558
0.141704
0.141492
0.140843
0.13967
0.129911
0.118566
0.107254
0.0961294
0.0853151
0.0749086
0.064989
0.0556215
0.0468615
0.0387582
0.0313571
0.0246998
0.018839
0.0138189
0.00967268
0.00641254
0.00400583
0.00235601
0.00130985
0.000693337
0.000352125
0.000172685
8.27131e-05
3.88416e-05
1.7907e-05
8.12479e-06
3.63053e-06
1.60092e-06
6.96989e-07
3.00063e-07
1.27906e-07
5.40022e-08
2.26163e-08
9.37963e-09
3.84757e-09
1.54325e-09
5.90968e-10
1.972e-10
3.457e-11
4.47035e-07
1.9537e-06
4.48795e-06
8.73618e-06
1.58225e-05
2.75662e-05
4.68723e-05
7.83052e-05
0.000128906
0.000209307
0.000335164
0.000528848
0.00082121
0.00125296
0.00187502
0.00274693
0.00393277
0.00549449
0.00748402
0.00993617
0.0128644
0.0162606
0.0200976
0.0243335
0.028917
0.0337907
0.0388949
0.0441699
0.0495579
0.0550044
0.060459
0.0658763
0.0712163
0.0764446
0.081532
0.0864549
0.0911938
0.0957336
0.100063
0.104176
0.108067
0.111736
0.115184
0.118412
0.121424
0.124225
0.12682
0.129212
0.131407
0.133406
0.13521
0.136819
0.138229
0.139429
0.140408
0.141143
0.141601
0.141747
0.141533
0.140876
0.139688
0.130101
0.118777
0.107471
0.0963446
0.0855232
0.0751066
0.065175
0.0557944
0.0470206
0.038903
0.0314873
0.0248149
0.0189383
0.0139019
0.00973909
0.00646271
0.00404118
0.00237909
0.00132387
0.000701318
0.000356411
0.000174877
8.37876e-05
3.93437e-05
1.81447e-05
8.23384e-06
3.68011e-06
1.62212e-06
7.06141e-07
3.03936e-07
1.2952e-07
5.46793e-08
2.28937e-08
9.49429e-09
3.89375e-09
1.56178e-09
5.97961e-10
1.9955e-10
3.49799e-11
4.47682e-07
1.95652e-06
4.49444e-06
8.7488e-06
1.58453e-05
2.76061e-05
4.69401e-05
7.84183e-05
0.000129092
0.000209606
0.000335635
0.000529577
0.000822312
0.00125458
0.00187734
0.00275014
0.00393706
0.00550001
0.00749086
0.00994433
0.0128738
0.016271
0.0201087
0.0243452
0.0289288
0.0338023
0.0389059
0.0441801
0.049567
0.0550122
0.0604654
0.0658811
0.0712196
0.0764463
0.0815323
0.0864538
0.0911915
0.0957301
0.100059
0.104171
0.108062
0.111731
0.115178
0.118407
0.121421
0.124223
0.12682
0.129216
0.131413
0.133416
0.135225
0.136839
0.138253
0.139459
0.140442
0.141181
0.14164
0.141783
0.141558
0.140877
0.139641
0.130397
0.11909
0.107789
0.0966579
0.0858264
0.075396
0.0654483
0.0560499
0.047257
0.0391193
0.0316824
0.0249881
0.0190884
0.0140278
0.00984026
0.00653951
0.00409556
0.00241476
0.00134557
0.00071365
0.000363032
0.000178276
8.54736e-05
4.01721e-05
1.8532e-05
8.40412e-06
3.75406e-06
1.65423e-06
7.1992e-07
3.09841e-07
1.32009e-07
5.57256e-08
2.33255e-08
9.67289e-09
3.96602e-09
1.59078e-09
6.08941e-10
2.0323e-10
3.5623e-11
4.48565e-07
1.96038e-06
4.50329e-06
8.76605e-06
1.58766e-05
2.76606e-05
4.70329e-05
7.8573e-05
0.000129345
0.000210015
0.000336281
0.000530579
0.000823827
0.00125682
0.00188054
0.00275458
0.00394299
0.00550766
0.00750035
0.00995567
0.0128869
0.0162856
0.0201244
0.0243615
0.0289454
0.0338186
0.0389216
0.0441947
0.0495801
0.0550235
0.0604745
0.065888
0.0712241
0.0764483
0.081532
0.0864513
0.0911868
0.0957235
0.100051
0.104161
0.108051
0.11172
0.115167
0.118396
0.12141
0.124215
0.126814
0.129211
0.131412
0.133419
0.135233
0.136852
0.138272
0.139483
0.140472
0.141217
0.14168
0.141825
0.1416
0.140915
0.139669
0.130797
0.119508
0.108209
0.0970713
0.0862271
0.0757797
0.0658118
0.0563908
0.0475735
0.0394097
0.0319453
0.0252219
0.0192914
0.0141986
0.00997786
0.00664428
0.00416999
0.0024637
0.00137537
0.000730602
0.000372165
0.000182984
8.78334e-05
4.1255e-05
1.90195e-05
8.6252e-06
3.85356e-06
1.69831e-06
7.39203e-07
3.18124e-07
1.35522e-07
5.72016e-08
2.39365e-08
9.92465e-09
4.0677e-09
1.63156e-09
6.24358e-10
2.08389e-10
3.65241e-11
4.497e-07
1.96534e-06
4.51469e-06
8.78824e-06
1.59169e-05
2.77309e-05
4.71525e-05
7.87729e-05
0.000129673
0.000210544
0.000337119
0.000531878
0.000825797
0.00125973
0.00188471
0.00276037
0.00395076
0.0055177
0.00751284
0.00997062
0.0129042
0.0163049
0.0201453
0.0243834
0.0289677
0.0338408
0.038943
0.0442147
0.0495982
0.0550392
0.0604875
0.0658979
0.0712307
0.0764517
0.081532
0.086448
0.0911804
0.0957142
0.100039
0.104147
0.108035
0.111702
0.115149
0.118377
0.121392
0.124198
0.126798
0.129199
0.131403
0.133413
0.135232
0.136856
0.138282
0.1395
0.140496
0.141247
0.141716
0.141867
0.141644
0.140958
0.139701
0.131303
0.120029
0.108734
0.0975897
0.0867308
0.0762633
0.0662712
0.0568229
0.0479756
0.0397794
0.0322804
0.0255206
0.0195512
0.0144175
0.0101546
0.00677919
0.00426612
0.00252714
0.00141423
0.00075303
0.000384679
0.00018935
9.07425e-05
4.26039e-05
1.96488e-05
8.91424e-06
3.98351e-06
1.75567e-06
7.64131e-07
3.28824e-07
1.40062e-07
5.91096e-08
2.47301e-08
1.02525e-08
4.2004e-09
1.68483e-09
6.44515e-10
2.15133e-10
3.77021e-11
4.51108e-07
1.97149e-06
4.52882e-06
8.8158e-06
1.59669e-05
2.78183e-05
4.73014e-05
7.90219e-05
0.000130083
0.000211205
0.000338168
0.000533508
0.000828272
0.00126339
0.00188997
0.00276769
0.00396061
0.00553046
0.00752876
0.00998976
0.0129264
0.0163297
0.0201723
0.0244119
0.028997
0.03387
0.0389714
0.0442415
0.0496228
0.0550608
0.0605057
0.0659123
0.071241
0.0764576
0.0815335
0.0864451
0.0911732
0.095703
0.100024
0.104129
0.108014
0.111679
0.115124
0.118352
0.121366
0.124172
0.126774
0.129176
0.131383
0.133398
0.13522
0.13685
0.138282
0.139507
0.14051
0.141268
0.141745
0.141902
0.141683
0.140998
0.139733
0.131927
0.120671
0.10938
0.0982246
0.0873475
0.076856
0.0668353
0.0573544
0.0484709
0.0402354
0.0326943
0.0258897
0.0198726
0.0146887
0.010374
0.00694712
0.00438619
0.00260676
0.00146334
0.000781627
0.000398902
0.000196224
9.41714e-05
4.42762e-05
2.04344e-05
9.27378e-06
4.14488e-06
1.82692e-06
7.95135e-07
3.42141e-07
1.45718e-07
6.14872e-08
2.57204e-08
1.06615e-08
4.3671e-09
1.75161e-09
6.69867e-10
2.23612e-10
3.9184e-11
4.52809e-07
1.97892e-06
4.5459e-06
8.84911e-06
1.60274e-05
2.79242e-05
4.74821e-05
7.93245e-05
0.000130581
0.000212012
0.00033945
0.000535504
0.00083131
0.00126789
0.00189646
0.00277676
0.00397283
0.00554635
0.00754865
0.0100138
0.0129543
0.0163612
0.0202067
0.0244484
0.0290347
0.0339079
0.0390086
0.044277
0.0496557
0.0550904
0.0605313
0.0659332
0.0712568
0.076468
0.0815384
0.0864445
0.0911672
0.0956917
0.100008
0.104108
0.10799
0.111651
0.115093
0.118319
0.121332
0.124138
0.12674
0.129144
0.131353
0.133371
0.135198
0.136833
0.138271
0.139503
0.140513
0.141279
0.141764
0.141928
0.141715
0.141032
0.13976
0.132674
0.121434
0.110142
0.0989831
0.0880863
0.0775684
0.0675154
0.0579967
0.0490704
0.0407876
0.0331956
0.0263371
0.0202624
0.0150181
0.0106411
0.00715239
0.00453384
0.00270557
0.00152523
0.000813944
0.000415926
0.000205095
9.85474e-05
4.63613e-05
2.14051e-05
9.71672e-06
4.34341e-06
1.91449e-06
8.33201e-07
3.58478e-07
1.5265e-07
6.43998e-08
2.69332e-08
1.11621e-08
4.57133e-09
1.83331e-09
7.01038e-10
2.34021e-10
4.10047e-11
4.54818e-07
1.9877e-06
4.5661e-06
8.88855e-06
1.60992e-05
2.80498e-05
4.76969e-05
7.96849e-05
0.000131176
0.000212977
0.000340987
0.000537904
0.000834973
0.00127334
0.00190434
0.00278779
0.00398776
0.00556583