/*--------------------------------*- C++ -*----------------------------------*\
  =========                 |
  \\      /  F ield         | OpenFOAM: The Open Source CFD Toolbox
   \\    /   O peration     | Website:  https://openfoam.org
    \\  /    A nd           | Version:  8
     \\/     M anipulation  |
\*---------------------------------------------------------------------------*/
FoamFile
{
    version     2.0;
    format      ascii;
    class       volScalarField;
    location    "740/fluid";
    object      H2O;
}
// * * * * * * * * * * * * * * * * * * * * * * * * * * * * * * * * * * * * * //

dimensions      [0 0 0 0 0 0 0];

internalField   nonuniform List<scalar> 
4000
(
3.88122e-07
1.69593e-06
3.89481e-06
7.58017e-06
1.37304e-05
2.39374e-05
4.07603e-05
6.82551e-05
0.000112741
0.000183861
0.000295968
0.000469774
0.000734042
0.00112682
0.00169545
0.00249455
0.0035812
0.00500788
0.00681466
0.00902322
0.0116343
0.0146294
0.0179742
0.0216242
0.0255288
0.0296352
0.0338911
0.0382461
0.0426535
0.0470705
0.0514594
0.055787
0.0600253
0.0641511
0.0681459
0.0719948
0.0756868
0.0792138
0.0825711
0.0857563
0.0887694
0.0916118
0.0942863
0.0967967
0.0991475
0.101343
0.103389
0.10529
0.107049
0.10867
0.110154
0.111501
0.11271
0.113775
0.114687
0.115432
0.115989
0.116324
0.116405
0.116177
0.115561
0.114454
0.112207
0.103573
0.0947988
0.0860295
0.077379
0.0689366
0.0607734
0.0529474
0.0455077
0.0384974
0.0319573
0.0259578
0.0204763
0.0155998
0.0113806
0.00787068
0.00510802
0.00308781
0.00173569
0.00091187
0.000451994
0.000214861
9.92343e-05
4.47964e-05
1.98501e-05
8.66207e-06
3.73165e-06
1.59028e-06
6.71532e-07
2.81374e-07
1.17108e-07
4.84412e-08
1.99047e-08
8.10083e-09
3.23547e-09
1.23469e-09
4.12266e-10
7.22705e-11
3.88727e-07
1.699e-06
3.90372e-06
7.60251e-06
1.37811e-05
2.40425e-05
4.09604e-05
6.86038e-05
0.000113289
0.000184611
0.000296771
0.000470151
0.000732932
0.00112222
0.00168405
0.00247156
0.00354055
0.00494289
0.00671913
0.00889257
0.0114664
0.0144249
0.0177363
0.0213582
0.0252412
0.0293332
0.0335817
0.037936
0.0423486
0.0467759
0.0511791
0.0555241
0.059782
0.0639288
0.0679454
0.0718164
0.0755301
0.0790781
0.0824555
0.0856597
0.0886903
0.0915488
0.094238
0.0967615
0.099124
0.10133
0.103385
0.105293
0.107059
0.108685
0.110174
0.111525
0.112737
0.113804
0.114717
0.115462
0.116019
0.116353
0.116432
0.116201
0.11558
0.114465
0.111509
0.10282
0.0940008
0.0851954
0.0765152
0.0680488
0.0598673
0.0520293
0.0445848
0.0375788
0.031054
0.0250847
0.0196519
0.0148473
0.0107248
0.00733488
0.00470691
0.0028187
0.00157623
0.000828553
0.000413274
0.000198157
9.2446e-05
4.21655e-05
1.88669e-05
8.30353e-06
3.6025e-06
1.54371e-06
6.54495e-07
2.74976e-07
1.14627e-07
4.74487e-08
1.94986e-08
7.93316e-09
3.16704e-09
1.20802e-09
4.03213e-10
7.06902e-11
3.89891e-07
1.7043e-06
3.91686e-06
7.63038e-06
1.38354e-05
2.41416e-05
4.11296e-05
6.88728e-05
0.000113681
0.000185114
0.00029728
0.000470342
0.000732005
0.00111867
0.00167548
0.00245445
0.00351023
0.00489383
0.00664553
0.00878913
0.0113292
0.0142517
0.0175274
0.0211157
0.0249693
0.0290374
0.0332683
0.0376118
0.0420202
0.0464496
0.0508605
0.055218
0.0594925
0.0636591
0.0676977
0.0715922
0.0753304
0.0789031
0.082305
0.0855329
0.0885862
0.0914661
0.094175
0.0967168
0.0990958
0.101317
0.103385
0.105305
0.10708
0.108714
0.11021
0.111566
0.112782
0.113851
0.114766
0.115511
0.116066
0.116397
0.116471
0.116232
0.115599
0.114465
0.110277
0.101549
0.0926942
0.0838597
0.0751597
0.0666843
0.0585061
0.0506853
0.0432737
0.0363181
0.0298633
0.0239742
0.0186572
0.0139908
0.0100248
0.00680073
0.0043332
0.00258229
0.00144146
0.000758714
0.000379875
0.000182962
8.5787e-05
3.9332e-05
1.76893e-05
7.82303e-06
3.40899e-06
1.46641e-06
6.23718e-07
2.62712e-07
1.09721e-07
4.54757e-08
1.87017e-08
7.61144e-09
3.03875e-09
1.15894e-09
3.86735e-10
6.77901e-11
3.89817e-07
1.70398e-06
3.91605e-06
7.62831e-06
1.38294e-05
2.41233e-05
4.10773e-05
6.87344e-05
0.000113343
0.00018435
0.00029567
0.000467169
0.000726157
0.00110848
0.00165858
0.00242767
0.00346978
0.00483552
0.00656528
0.00868346
0.0111957
0.0140893
0.0173364
0.0208979
0.0247275
0.0287754
0.0329907
0.0373235
0.0417265
0.0461557
0.0505713
0.054938
0.0592257
0.0634087
0.0674663
0.0713819
0.0751424
0.0787384
0.0821635
0.0854146
0.0884903
0.0913916
0.0941209
0.0966816
0.0990783
0.101315
0.103396
0.105328
0.107113
0.108756
0.110258
0.111619
0.112838
0.113909
0.114823
0.115566
0.116116
0.116439
0.116502
0.116249
0.115596
0.114434
0.108745
0.100005
0.091136
0.0822917
0.0735911
0.0651279
0.0569769
0.0492001
0.0418506
0.0349762
0.0286232
0.022834
0.0176566
0.0131431
0.00933918
0.00627929
0.0039661
0.00234599
0.00130288
0.000684163
0.000342625
0.00016535
7.77595e-05
3.57766e-05
1.61511e-05
7.17035e-06
3.13651e-06
1.35413e-06
5.77912e-07
2.44161e-07
1.02244e-07
4.24726e-08
1.74992e-08
7.13259e-09
2.85079e-09
1.08811e-09
3.63235e-10
6.36826e-11
3.88613e-07
1.69863e-06
3.90342e-06
7.60266e-06
1.37801e-05
2.40307e-05
4.09047e-05
6.84145e-05
0.000112755
0.00018328
0.000293755
0.00046381
0.000720413
0.00109894
0.00164323
0.00240391
0.00343442
0.00478509
0.00649639
0.00859324
0.0110821
0.0139516
0.0171748
0.0207137
0.0245232
0.0285542
0.0327564
0.0370803
0.0414787
0.0459075
0.0503269
0.0547013
0.059
0.063197
0.0672711
0.071205
0.0749852
0.0786017
0.0820478
0.0853196
0.0884157
0.0913366
0.0940848
0.0966631
0.0990751
0.101326
0.10342
0.105362
0.107157
0.108806
0.110313
0.111678
0.112897
0.113966
0.114876
0.115613
0.116153
0.116461
0.116508
0.116232
0.115548
0.114351
0.107134
0.0984074
0.0895366
0.0806911
0.071999
0.0635583
0.0554463
0.0477255
0.0404493
0.0336651
0.0274299
0.0217611
0.0167223
0.0123598
0.0087137
0.00581046
0.00364118
0.00213993
0.0011834
0.000620273
0.000310688
0.000150164
7.07711e-05
3.26417e-05
1.47732e-05
6.57479e-06
2.88263e-06
1.24715e-06
5.33262e-07
2.25671e-07
9.46369e-08
3.93599e-08
1.62328e-08
6.62164e-09
2.64813e-09
1.01112e-09
3.37568e-10
5.9183e-11
3.86508e-07
1.68933e-06
3.88158e-06
7.55882e-06
1.36975e-05
2.38798e-05
4.06341e-05
6.79353e-05
0.000111916
0.000181833
0.000291298
0.000459719
0.000713754
0.00108839
0.00162701
0.0023798
0.00339986
0.00473743
0.00643312
0.00851235
0.0109824
0.0138325
0.0170369
0.0205583
0.0243523
0.0283704
0.0325628
0.0368802
0.0412756
0.045705
0.0501283
0.0545097
0.0588183
0.0630277
0.0671161
0.071066
0.0748633
0.0784977
0.081962
0.085252
0.088366
0.0913044
0.0940686
0.0966614
0.0990869
0.10135
0.103455
0.105406
0.107207
0.108861
0.110371
0.111735
0.112952
0.114016
0.114917
0.115641
0.116165
0.116451
0.116473
0.116167
0.115451
0.114234
0.105809
0.0970103
0.0880846
0.0792082
0.0705097
0.0620858
0.0540118
0.0463482
0.0391462
0.0324513
0.0263282
0.0207739
0.01587
0.0116525
0.0081532
0.00539282
0.00335266
0.00195676
0.00107649
0.000562398
0.000281267
0.00013595
6.41266e-05
2.96174e-05
1.34271e-05
5.98693e-06
2.63002e-06
1.14007e-06
4.8839e-07
2.07042e-07
8.69618e-08
3.62181e-08
1.49547e-08
6.10618e-09
2.44375e-09
9.3351e-10
3.11696e-10
5.46475e-11
3.84003e-07
1.67831e-06
3.85597e-06
7.50806e-06
1.36034e-05
2.37113e-05
4.03383e-05
6.7424e-05
0.000111044
0.000180366
0.000288866
0.00045576
0.000707444
0.00107857
0.00161217
0.00235805
0.00336908
0.00469542
0.00637792
0.00844245
0.0108969
0.0137314
0.0169207
0.0204283
0.0242104
0.0282189
0.0324043
0.0367175
0.0411116
0.0455426
0.0499702
0.0543585
0.0586762
0.0628966
0.0669978
0.0709617
0.074774
0.0784238
0.0819036
0.0852093
0.0883388
0.0912915
0.0940689
0.0966742
0.0991111
0.101384
0.103497
0.105454
0.10726
0.108918
0.110427
0.111789
0.113
0.114054
0.114941
0.115643
0.116139
0.116387
0.11636
0.11599
0.115198
0.113906
0.105
0.0959279
0.0868497
0.0778957
0.0691692
0.0607526
0.0527125
0.0451042
0.0379755
0.0313702
0.0253617
0.0199233
0.0151302
0.0110312
0.00766196
0.00502933
0.00310367
0.00179992
0.000985469
0.000513255
0.000256268
0.000123831
5.8429e-05
2.70052e-05
1.22545e-05
5.47007e-06
2.40579e-06
1.04413e-06
4.47818e-07
1.90059e-07
7.99138e-08
3.33148e-08
1.37674e-08
5.62524e-09
2.25239e-09
8.60645e-10
2.87365e-10
5.03779e-11
3.81367e-07
1.66675e-06
3.82917e-06
7.45519e-06
1.3506e-05
2.3538e-05
4.00367e-05
6.69074e-05
0.000110172
0.000178915
0.000286493
0.000451951
0.000701459
0.0010694
0.0015985
0.00233831
0.00334153
0.00465835
0.00632981
0.00838223
0.0108241
0.013646
0.0168235
0.0203206
0.0240938
0.0280953
0.032276
0.0365869
0.040981
0.0454143
0.0498466
0.0542416
0.0585678
0.0627983
0.0669107
0.0708869
0.0747122
0.0783753
0.0818688
0.0851879
0.0883297
0.0912941
0.0940827
0.0966982
0.0991441
0.101425
0.103544
0.105506
0.107315
0.108973
0.110481
0.111839
0.113042
0.114084
0.114952
0.115629
0.116084
0.116278
0.116168
0.115672
0.114681
0.113074
0.104007
0.094817
0.0856655
0.0766753
0.067943
0.0595455
0.0515449
0.0439932
0.0369352
0.0304122
0.0244846
0.0191503
0.0144719
0.0104887
0.00723555
0.00471671
0.00289083
0.00166616
0.000907773
0.00047115
0.000234723
0.000113323
5.34576e-05
2.47121e-05
1.12194e-05
5.01159e-06
2.20602e-06
9.58319e-07
4.11416e-07
1.74779e-07
7.35575e-08
3.06913e-08
1.26928e-08
5.18933e-09
2.07875e-09
7.94466e-10
2.65253e-10
4.64965e-11
3.78798e-07
1.6555e-06
3.80317e-06
7.40412e-06
1.34123e-05
2.33723e-05
3.97502e-05
6.64204e-05
0.000109357
0.000177571
0.000284314
0.000448484
0.000696062
0.0010612
0.0015864
0.00232098
0.00331756
0.00462634
0.0062886
0.00833105
0.0107626
0.0135746
0.0167428
0.0202319
0.0239985
0.0279952
0.0321729
0.0364828
0.040878
0.0453143
0.0497513
0.0541528
0.0584868
0.0627264
0.0668489
0.0708358
0.0746722
0.0783469
0.0818518
0.0851816
0.0883338
0.0913081
0.0941059
0.0967295
0.0991825
0.101469
0.103593
0.105558
0.107369
0.109026
0.110532
0.111886
0.113082
0.114114
0.114968
0.115626
0.116055
0.116217
0.116063
0.115508
0.114438
0.112143
0.102981
0.0937319
0.0845501
0.075554
0.0668371
0.0584736
0.0505238
0.0430379
0.036059
0.0296251
0.0237974
0.018564
0.013983
0.0100868
0.00689891
0.00445602
0.00271112
0.00155304
0.000842088
0.000435548
0.000216483
0.000104406
4.92267e-05
2.27538e-05
1.03322e-05
4.61703e-06
2.03342e-06
8.83897e-07
3.7973e-07
1.61434e-07
6.79893e-08
2.8387e-08
1.17468e-08
4.80488e-09
1.92537e-09
7.35946e-10
2.45691e-10
4.30592e-11
3.76404e-07
1.64502e-06
3.779e-06
7.35672e-06
1.33256e-05
2.32195e-05
3.9487e-05
6.59751e-05
0.000108615
0.000176355
0.000282354
0.000445386
0.000691273
0.00105398
0.00157581
0.00230594
0.0032969
0.00459897
0.00625363
0.00828794
0.0107113
0.0135153
0.0166764
0.0201593
0.0239212
0.0279147
0.0320908
0.0364008
0.0407977
0.0452373
0.0496791
0.0540865
0.0584278
0.0626755
0.0668068
0.0708031
0.0746492
0.0783335
0.0818476
0.0851864
0.0883472
0.0913296
0.0941346
0.0967647
0.0992231
0.101514
0.103641
0.105608
0.107419
0.109076
0.11058
0.11193
0.113121
0.114146
0.114992
0.115639
0.116057
0.116209
0.116048
0.115495
0.114447
0.111146
0.101957
0.092693
0.0835079
0.0745211
0.065826
0.0574954
0.0495887
0.0421558
0.0352403
0.0288827
0.0231035
0.0179438
0.0134498
0.00965767
0.00659379
0.0042338
0.00255583
0.00145609
0.00078608
0.000405273
0.000200981
9.68259e-05
4.56259e-05
2.10844e-05
9.57433e-06
4.27929e-06
1.88535e-06
8.19918e-07
3.52435e-07
1.49917e-07
6.3176e-08
2.63921e-08
1.09268e-08
4.47124e-09
1.79215e-09
6.85083e-10
2.28687e-10
4.00699e-11
3.74242e-07
1.63556e-06
3.75721e-06
7.31409e-06
1.32478e-05
2.30828e-05
3.92523e-05
6.55792e-05
0.000107958
0.000175282
0.000280634
0.000442682
0.000687114
0.00104775
0.00156672
0.0022931
0.00327936
0.00457586
0.00622428
0.00825199
0.0106687
0.0134665
0.0166221
0.0201005
0.023859
0.0278505
0.0320259
0.0363367
0.0407357
0.0451787
0.049625
0.054038
0.0583858
0.0626406
0.0667796
0.0707839
0.0746382
0.0783303
0.0818522
0.0851985
0.0883663
0.0913551
0.0941658
0.0968007
0.0992631
0.101557
0.103686
0.105655
0.107466
0.109122
0.110623
0.111969
0.113156
0.114175
0.115014
0.115655
0.116065
0.116211
0.116046
0.115492
0.114448
0.110191
0.101
0.0917433
0.0825751
0.0736138
0.0649545
0.0566679
0.048812
0.0414357
0.0345699
0.0282532
0.0225193
0.0174231
0.0130024
0.00928886
0.00630376
0.00403989
0.00242639
0.00137361
0.000738669
0.000379726
0.000187923
9.04427e-05
4.25923e-05
1.96765e-05
8.93433e-06
3.99363e-06
1.75991e-06
7.65622e-07
3.2923e-07
1.4011e-07
5.90709e-08
2.46885e-08
1.02257e-08
4.18574e-09
1.67808e-09
6.41535e-10
2.14151e-10
3.75203e-11
3.72337e-07
1.62723e-06
3.73804e-06
7.27663e-06
1.31796e-05
2.29631e-05
3.90472e-05
6.52343e-05
0.000107388
0.000174354
0.000279151
0.000440359
0.000683557
0.00104244
0.00155901
0.00228226
0.00326464
0.00455656
0.0061999
0.00822229
0.0106338
0.0134267
0.0165781
0.0200532
0.0238094
0.0277997
0.0319751
0.036287
0.0406883
0.0451345
0.0495851
0.0540032
0.0583566
0.0626177
0.0667633
0.0707744
0.0746353
0.078334
0.0818623
0.0852146
0.088388
0.0913818
0.0941968
0.0968353
0.0993005
0.101596
0.103727
0.105695
0.107505
0.10916
0.110659
0.112001
0.113183
0.114197
0.11503
0.115664
0.116068
0.116207
0.116038
0.115481
0.114438
0.109346
0.100151
0.0909021
0.0817533
0.0728229
0.0641975
0.0559422
0.0481151
0.0407622
0.0339345
0.0276692
0.0220012
0.0169714
0.0126189
0.0089751
0.00605909
0.00385959
0.00231554
0.00130517
0.000698697
0.000358257
0.000176978
8.50983e-05
4.00531e-05
1.84979e-05
8.39819e-06
3.75411e-06
1.65461e-06
7.1999e-07
3.09704e-07
1.31847e-07
5.56079e-08
2.32497e-08
9.63301e-09
3.94425e-09
1.58158e-09
6.04718e-10
2.01865e-10
3.53692e-11
3.70694e-07
1.62005e-06
3.72152e-06
7.24437e-06
1.31209e-05
2.28603e-05
3.88716e-05
6.49396e-05
0.000106901
0.000173565
0.000277894
0.000438396
0.000680562
0.00103798
0.00155257
0.00227324
0.00325243
0.00454062
0.00617986
0.008198
0.0106054
0.0133946
0.0165428
0.0200154
0.0237701
0.0277598
0.0319356
0.0362489
0.0406524
0.0451017
0.0495561
0.0539786
0.058337
0.0626033
0.0667545
0.0707711
0.0746375
0.0783417
0.0818751
0.0852322
0.0884099
0.0914074
0.0942256
0.0968666
0.0993336
0.10163
0.103761
0.105729
0.107538
0.10919
0.110686
0.112024
0.113201
0.114209
0.115037
0.115664
0.116061
0.116195
0.116021
0.115461
0.11442
0.108619
0.0994176
0.0901737
0.0810396
0.0721214
0.063508
0.0552766
0.0474831
0.0401747
0.0333934
0.0271777
0.0215625
0.016589
0.0122953
0.00871179
0.00585556
0.00371176
0.00221497
0.00124865
0.000666344
0.0003405
0.000167901
8.06753e-05
3.79532e-05
1.7523e-05
7.95445e-06
3.55567e-06
1.56726e-06
6.82085e-07
2.93461e-07
1.24964e-07
5.27196e-08
2.20483e-08
9.13759e-09
3.74223e-09
1.50081e-09
5.73897e-10
1.91577e-10
3.35689e-11
3.69304e-07
1.61398e-06
3.70756e-06
7.21714e-06
1.30714e-05
2.27737e-05
3.87238e-05
6.46922e-05
0.000106494
0.000172906
0.000276846
0.000436764
0.000678077
0.00103429
0.00154726
0.00226582
0.00324243
0.00452763
0.00616359
0.00817837
0.0105825
0.0133688
0.0165146
0.0199856
0.0237393
0.0277288
0.0319052
0.0362198
0.0406254
0.0450775
0.0495352
0.0539615
0.0583241
0.0625949
0.0667505
0.0707716
0.0746425
0.078351
0.0818884
0.0852492
0.0884301
0.0914303
0.0942507
0.0968932
0.0993612
0.101658
0.103788
0.105755
0.107562
0.109211
0.110704
0.112038
0.11321
0.114213
0.115034
0.115655
0.116046
0.116174
0.115995
0.115434
0.114398
0.108007
0.0987924
0.0895491
0.0804165
0.0715118
0.0629224
0.0547184
0.0469563
0.0396833
0.0329408
0.0267668
0.0211959
0.0162696
0.0120255
0.00849302
0.00568747
0.00359086
0.00213407
0.00119799
0.000639888
0.000326565
0.00016064
7.70936e-05
3.62467e-05
1.67286e-05
7.59192e-06
3.39317e-06
1.49559e-06
6.50929e-07
2.8009e-07
1.1929e-07
5.03358e-08
2.10557e-08
8.72791e-09
3.5751e-09
1.43392e-09
5.48415e-10
1.83062e-10
3.20803e-11
3.68153e-07
1.60895e-06
3.69601e-06
7.19462e-06
1.30306e-05
2.27023e-05
3.86021e-05
6.44886e-05
0.000106159
0.000172365
0.000275988
0.000435432
0.000676054
0.0010313
0.00154295
0.00225984
0.00323438
0.0045172
0.00615058
0.00816272
0.0105644
0.0133485
0.0164925
0.0199623
0.0237154
0.0277049
0.031882
0.0361979
0.0406054
0.0450598
0.0495203
0.0539498
0.0583158
0.0625901
0.0667493
0.070774
0.0746484
0.0783602
0.0819006
0.085264
0.0884473
0.0914494
0.094271
0.0969144
0.0993826
0.101679
0.103808
0.105774
0.107578
0.109224
0.110713
0.112043
0.11321
0.114207
0.115022
0.115638
0.116022
0.116145
0.115963
0.115401
0.114372
0.107497
0.098267
0.0890199
0.079896
0.0710059
0.0624363
0.0542558
0.0465205
0.0392773
0.0325671
0.0264277
0.0208934
0.0160063
0.0118034
0.00831337
0.00554998
0.00349256
0.0020689
0.00115779
0.00061648
0.000314922
0.000155014
7.42872e-05
3.48779e-05
1.60856e-05
7.29763e-06
3.2611e-06
1.43728e-06
6.25554e-07
2.69191e-07
1.14662e-07
4.839e-08
2.02453e-08
8.39321e-09
3.43874e-09
1.37928e-09
5.27692e-10
1.76131e-10
3.08689e-11
3.67226e-07
1.6049e-06
3.6867e-06
7.17649e-06
1.29977e-05
2.26449e-05
3.85044e-05
6.43254e-05
0.000105891
0.000171933
0.000275304
0.00043437
0.000674445
0.00102892
0.00153955
0.0022551
0.00322803
0.004509
0.00614038
0.0081505
0.0105502
0.0133327
0.0164755
0.0199444
0.0236971
0.0276868
0.0318646
0.0361816
0.0405906
0.045047
0.0495098
0.0539417
0.0583103
0.0625874
0.0667494
0.0707768
0.0746537
0.0783679
0.0819105
0.0852757
0.0884605
0.0914637
0.094286
0.0969296
0.0993975
0.101693
0.103821
0.105784
0.107586
0.109229
0.110714
0.112039
0.113202
0.114194
0.115003
0.115613
0.115992
0.116111
0.115926
0.115366
0.114346
0.107082
0.0978399
0.0885895
0.0794714
0.0705933
0.0620401
0.0538795
0.0461666
0.0389479
0.0322643
0.0261532
0.0206489
0.0157936
0.0116242
0.0081687
0.00543954
0.00341388
0.00201697
0.00112597
0.000598123
0.00030468
0.000149803
7.19063e-05
3.37742e-05
1.55706e-05
7.06119e-06
3.15474e-06
1.39034e-06
6.05149e-07
2.60435e-07
1.10946e-07
4.68286e-08
1.95959e-08
8.12497e-09
3.33023e-09
1.33573e-09
5.11204e-10
1.70615e-10
2.99057e-11
3.66505e-07
1.60175e-06
3.67948e-06
7.16241e-06
1.29722e-05
2.26004e-05
3.84287e-05
6.4199e-05
0.000105684
0.000171599
0.000274776
0.000433552
0.000673207
0.0010271
0.00153693
0.00225148
0.00322319
0.00450275
0.00613263
0.00814124
0.0105396
0.0133208
0.0164627
0.019931
0.0236836
0.0276735
0.0318518
0.0361697
0.0405799
0.0450379
0.0495023
0.0539362
0.0583067
0.0625857
0.0667496
0.0707789
0.0746576
0.0783733
0.0819173
0.0852837
0.0884693
0.091473
0.0942955
0.0969388
0.0994059
0.101701
0.103827
0.105788
0.107587
0.109227
0.110708
0.112029
0.113187
0.114174
0.114979
0.115584
0.115959
0.116076
0.115892
0.115334
0.114322
0.106755
0.0974979
0.0882455
0.0791328
0.0702652
0.061726
0.0535819
0.0458874
0.0386888
0.0320265
0.025938
0.0204574
0.0156274
0.0114844
0.00805606
0.00535378
0.00335295
0.00197691
0.00110158
0.000584248
0.000297205
0.000145949
6.99748e-05
3.28878e-05
1.51717e-05
6.88026e-06
3.0734e-06
1.35429e-06
5.89388e-07
2.53663e-07
1.08073e-07
4.56214e-08
1.90964e-08
7.91912e-09
3.24707e-09
1.30241e-09
4.98597e-10
1.66395e-10
2.91689e-11
3.65978e-07
1.59945e-06
3.67419e-06
7.15212e-06
1.29535e-05
2.25679e-05
3.83733e-05
6.41068e-05
0.000105533
0.000171356
0.000274391
0.000432957
0.000672308
0.00102577
0.00153504
0.00224886
0.00321969
0.00449825
0.00612705
0.00813459
0.0105319
0.0133123
0.0164536
0.0199215
0.023674
0.027664
0.0318428
0.0361614
0.0405725
0.0450315
0.0494971
0.0539322
0.0583041
0.0625844
0.0667494
0.0707798
0.0746595
0.0783762
0.0819209
0.0852878
0.0884737
0.0914775
0.0942997
0.0969424
0.0994086
0.101702
0.103826
0.105785
0.107581
0.109218
0.110696
0.112013
0.113166
0.114149
0.11495
0.115553
0.115928
0.116047
0.115872
0.115334
0.114361
0.106512
0.0972413
0.0879855
0.0788764
0.070017
0.061489
0.0533581
0.0456783
0.0384953
0.0318495
0.0257783
0.0203156
0.0155046
0.0113813
0.00797326
0.00529093
0.00330845
0.00194772
0.00108383
0.000574155
0.000291786
0.000143168
6.8595e-05
3.221e-05
1.48548e-05
6.74097e-06
3.0129e-06
1.32808e-06
5.78129e-07
2.48839e-07
1.06039e-07
4.47663e-08
1.87435e-08
7.77314e-09
3.18798e-09
1.2787e-09
4.8961e-10
1.63384e-10
2.86423e-11
3.65634e-07
1.59795e-06
3.67074e-06
7.1454e-06
1.29413e-05
2.25467e-05
3.83373e-05
6.40467e-05
0.000105434
0.000171197
0.000274142
0.000432571
0.000671724
0.00102492
0.00153381
0.00224717
0.00321743
0.00449534
0.00612345
0.0081303
0.010527
0.0133069
0.0164477
0.0199155
0.0236678
0.027658
0.031837
0.0361561
0.0405678
0.0450274
0.0494938
0.0539297
0.0583023
0.0625833
0.0667489
0.0707798
0.0746599
0.0783769
0.0819218
0.0852889
0.0884748
0.0914783
0.0943001
0.096942
0.0994072
0.101699
0.103822
0.105778
0.107572
0.109206
0.11068
0.111994
0.113144
0.114123
0.11492
0.115519
0.115892
0.116012
0.115839
0.115307
0.114347
0.106357
0.0970689
0.0878078
0.0787002
0.0698466
0.061327
0.0532059
0.0455368
0.038365
0.0317309
0.0256717
0.0202215
0.0154233
0.0113134
0.00791891
0.00524987
0.00327952
0.00192883
0.00107236
0.000567624
0.000288279
0.000141374
6.77156e-05
3.17997e-05
1.46604e-05
6.65196e-06
2.97238e-06
1.31076e-06
5.70655e-07
2.45702e-07
1.04719e-07
4.42124e-08
1.85163e-08
7.67924e-09
3.15012e-09
1.2635e-09
4.83866e-10
1.61456e-10
2.83054e-11
3.65466e-07
1.59722e-06
3.66906e-06
7.14215e-06
1.29354e-05
2.25364e-05
3.832e-05
6.4018e-05
0.000105387
0.000171122
0.000274023
0.000432387
0.000671448
0.00102451
0.00153323
0.00224636
0.00321636
0.00449396
0.00612174
0.00812827
0.0105247
0.0133043
0.016445
0.0199126
0.0236649
0.0276551
0.0318343
0.0361535
0.0405655
0.0450255
0.0494922
0.0539284
0.0583013
0.0625826
0.0667485
0.0707795
0.0746595
0.0783764
0.0819213
0.0852883
0.088474
0.0914772
0.0942985
0.0969399
0.0994043
0.101695
0.103817
0.105772
0.107564
0.109196
0.110668
0.111979
0.113126
0.114102
0.114896
0.115493
0.115863
0.115982
0.115811
0.115285
0.114339
0.10628
0.0969786
0.0877129
0.0786063
0.0697565
0.0612421
0.0531271
0.0454643
0.038299
0.0316714
0.0256188
0.0201751
0.0153836
0.0112805
0.00789283
0.00523033
0.00326588
0.00192001
0.00106704
0.000564603
0.000286652
0.000140555
6.7313e-05
3.16144e-05
1.45727e-05
6.61252e-06
2.95428e-06
1.30276e-06
5.67101e-07
2.44186e-07
1.04077e-07
4.3942e-08
1.84055e-08
7.63346e-09
3.13168e-09
1.2561e-09
4.81069e-10
1.60517e-10
2.81412e-11
3.65467e-07
1.59722e-06
3.66907e-06
7.14217e-06
1.29355e-05
2.25365e-05
3.83201e-05
6.40181e-05
0.000105388
0.000171122
0.000274024
0.000432389
0.00067145
0.00102451
0.00153324
0.00224637
0.00321636
0.00449397
0.00612176
0.00812829
0.0105247
0.0133043
0.016445
0.0199126
0.0236649
0.0276551
0.0318343
0.0361536
0.0405655
0.0450255
0.0494922
0.0539284
0.0583014
0.0625827
0.0667486
0.0707795
0.0746595
0.0783764
0.0819214
0.0852883
0.088474
0.0914772
0.0942986
0.09694
0.0994043
0.101695
0.103817
0.105772
0.107564
0.109196
0.110668
0.111979
0.113126
0.114102
0.114896
0.115493
0.115863
0.115982
0.115811
0.115285
0.114339
0.10628
0.0969786
0.0877129
0.0786063
0.0697565
0.0612422
0.0531271
0.0454643
0.038299
0.0316714
0.0256188
0.0201752
0.0153837
0.0112806
0.00789284
0.00523034
0.00326589
0.00192001
0.00106704
0.000564605
0.000286653
0.000140556
6.73133e-05
3.16141e-05
1.45726e-05
6.61238e-06
2.95422e-06
1.30272e-06
5.67084e-07
2.44168e-07
1.04076e-07
4.39413e-08
1.84052e-08
7.63335e-09
3.13162e-09
1.25608e-09
4.81053e-10
1.60514e-10
2.81401e-11
3.65637e-07
1.59796e-06
3.67077e-06
7.14547e-06
1.29414e-05
2.25469e-05
3.83377e-05
6.40473e-05
0.000105435
0.000171199
0.000274144
0.000432574
0.00067173
0.00102492
0.00153383
0.00224718
0.00321745
0.00449536
0.00612348
0.00813034
0.0105271
0.0133069
0.0164478
0.0199155
0.0236679
0.0276581
0.0318371
0.0361561
0.0405678
0.0450275
0.0494939
0.0539297
0.0583023
0.0625833
0.066749
0.0707798
0.0746599
0.0783769
0.0819219
0.085289
0.0884748
0.0914783
0.0943001
0.0969421
0.0994072
0.101699
0.103822
0.105778
0.107572
0.109206
0.11068
0.111994
0.113144
0.114123
0.11492
0.115519
0.115892
0.116012
0.115839
0.115307
0.114347
0.106357
0.097069
0.0878078
0.0787003
0.0698467
0.061327
0.053206
0.0455368
0.0383651
0.031731
0.0256718
0.0202215
0.0154233
0.0113134
0.00791893
0.00524989
0.00327954
0.00192885
0.00107236
0.000567629
0.000288282
0.000141376
6.77165e-05
3.17993e-05
1.46603e-05
6.65169e-06
2.97228e-06
1.31066e-06
5.70619e-07
2.45659e-07
1.04716e-07
4.42111e-08
1.85157e-08
7.67902e-09
3.14997e-09
1.26344e-09
4.8382e-10
1.61446e-10
2.83022e-11
3.65984e-07
1.59948e-06
3.67425e-06
7.15223e-06
1.29537e-05
2.25682e-05
3.83739e-05
6.41078e-05
0.000105534
0.000171358
0.000274395
0.000432963
0.000672317
0.00102579
0.00153506
0.00224889
0.00321972
0.00449829
0.0061271
0.00813465
0.010532
0.0133124
0.0164537
0.0199216
0.0236741
0.0276641
0.0318429
0.0361615
0.0405726
0.0450316
0.0494972
0.0539323
0.0583042
0.0625845
0.0667495
0.0707799
0.0746596
0.0783762
0.081921
0.0852879
0.0884738
0.0914775
0.0942997
0.0969425
0.0994087
0.101702
0.103826
0.105785
0.107582
0.109218
0.110696
0.112013
0.113166
0.114149
0.11495
0.115553
0.115928
0.116047
0.115872
0.115334
0.114361
0.106513
0.0972414
0.0879856
0.0788765
0.0700171
0.0614891
0.0533582
0.0456784
0.0384953
0.0318496
0.0257784
0.0203157
0.0155046
0.0113814
0.00797331
0.00529097
0.00330848
0.00194774
0.00108384
0.000574163
0.000291791
0.000143171
6.85961e-05
3.22104e-05
1.48549e-05
6.74097e-06
3.01287e-06
1.32802e-06
5.78111e-07
2.4883e-07
1.06037e-07
4.47655e-08
1.87429e-08
7.77289e-09
3.18778e-09
1.27862e-09
4.89546e-10
1.6337e-10
2.86377e-11
3.66513e-07
1.60179e-06
3.67956e-06
7.16257e-06
1.29724e-05
2.26009e-05
3.84295e-05
6.42004e-05
0.000105686
0.000171602
0.000274781
0.00043356
0.00067322
0.00102712
0.00153696
0.00225152
0.00322324
0.00450281
0.0061327
0.00814133
0.0105397
0.013321
0.0164628
0.0199312
0.0236837
0.0276736
0.0318519
0.0361699
0.0405801
0.045038
0.0495025
0.0539363
0.0583069
0.0625859
0.0667497
0.070779
0.0746577
0.0783734
0.0819174
0.0852838
0.0884694
0.0914731
0.0942955
0.0969388
0.099406
0.101701
0.103827
0.105788
0.107587
0.109227
0.110708
0.112029
0.113187
0.114174
0.114979
0.115584
0.115959
0.116076
0.115892
0.115334
0.114323
0.106755
0.097498
0.0882457
0.0791329
0.0702653
0.0617261
0.0535819
0.0458875
0.0386889
0.0320266
0.0259381
0.0204575
0.0156275
0.0114845
0.00805613
0.00535384
0.003353
0.00197694
0.0011016
0.000584259
0.000297211
0.000145953
6.99765e-05
3.28885e-05
1.5172e-05
6.88038e-06
3.07341e-06
1.35431e-06
5.89393e-07
2.53664e-07
1.08075e-07
4.56221e-08
1.90964e-08
7.91911e-09
3.24694e-09
1.30236e-09
4.98535e-10
1.66383e-10
2.91642e-11
3.67236e-07
1.60494e-06
3.68681e-06
7.17669e-06
1.2998e-05
2.26455e-05
3.85054e-05
6.4327e-05
0.000105894
0.000171937
0.000275311
0.00043438
0.00067446
0.00102895
0.00153958
0.00225515
0.00322809
0.00450907
0.00614047
0.00815062
0.0105504
0.0133329
0.0164757
0.0199446
0.0236973
0.027687
0.0318648
0.0361818
0.0405908
0.0450472
0.04951
0.0539419
0.0583105
0.0625876
0.0667495
0.0707769
0.0746539
0.078368
0.0819106
0.0852759
0.0884606
0.0914638
0.0942861
0.0969297
0.0993976
0.101693
0.103821
0.105784
0.107586
0.109229
0.110714
0.11204
0.113202
0.114194
0.115003
0.115613
0.115992
0.116111
0.115926
0.115366
0.114346
0.107082
0.09784
0.0885896
0.0794715
0.0705934
0.0620402
0.0538795
0.0461667
0.038948
0.0322644
0.0261533
0.020649
0.0157937
0.0116243
0.00816878
0.00543961
0.00341393
0.00201701
0.001126
0.000598138
0.000304689
0.000149808
7.19085e-05
3.37751e-05
1.55711e-05
7.06138e-06
3.15487e-06
1.39039e-06
6.05179e-07
2.60446e-07
1.10951e-07
4.68305e-08
1.95966e-08
8.12522e-09
3.33019e-09
1.33574e-09
5.11156e-10
1.70606e-10
2.9902e-11
3.68166e-07
1.60901e-06
3.69613e-06
7.19486e-06
1.3031e-05
2.27031e-05
3.86034e-05
6.44907e-05
0.000106162
0.00017237
0.000275997
0.000435444
0.000676073
0.00103133
0.00154299
0.00225989
0.00323445
0.00451729
0.00615069
0.00816286
0.0105645
0.0133486
0.0164927
0.0199625
0.0237156
0.0277052
0.0318823
0.0361982
0.0406056
0.0450601
0.0495206
0.0539501
0.058316
0.0625904
0.0667495
0.0707742
0.0746486
0.0783603
0.0819008
0.0852642
0.0884474
0.0914495
0.0942712
0.0969145
0.0993827
0.101679
0.103809
0.105774
0.107578
0.109224
0.110713
0.112043
0.11321
0.114207
0.115022
0.115638
0.116022
0.116145
0.115963
0.115401
0.114372
0.107497
0.098267
0.0890198
0.0798959
0.0710058
0.0624361
0.0542557
0.0465204
0.0392772
0.032567
0.0264277
0.0208935
0.0160064
0.0118035
0.00831346
0.00555006
0.00349263
0.00206895
0.00115782
0.000616499
0.000314933
0.000155019
7.42901e-05
3.48794e-05
1.60863e-05
7.29801e-06
3.26127e-06
1.43735e-06
6.25587e-07
2.69205e-07
1.14668e-07
4.83925e-08
2.02463e-08
8.39367e-09
3.43883e-09
1.37936e-09
5.27659e-10
1.76128e-10
3.08664e-11
3.69319e-07
1.61404e-06
3.70771e-06
7.21741e-06
1.30719e-05
2.27746e-05
3.87253e-05
6.46945e-05
0.000106498
0.000172912
0.000276855
0.000436779
0.000678099
0.00103433
0.0015473
0.00226589
0.00324251
0.00452774
0.00616373
0.00817853
0.0105827
0.013369
0.0165149
0.0199858
0.0237396
0.0277291
0.0319055
0.0362201
0.0406257
0.0450778
0.0495355
0.0539618
0.0583244
0.0625951
0.0667508
0.0707719
0.0746427
0.0783512
0.0818886
0.0852494
0.0884303
0.0914305
0.0942508
0.0968934
0.0993613
0.101658
0.103788
0.105755
0.107562
0.109211
0.110704
0.112038
0.11321
0.114213
0.115034
0.115655
0.116046
0.116174
0.115995
0.115434
0.114398
0.108007
0.0987921
0.0895485
0.0804156
0.0715106
0.0629214
0.0547175
0.0469555
0.0396827
0.0329404
0.0267665
0.0211957
0.0162695
0.0120255
0.00849308
0.00568754
0.00359093
0.00213413
0.00119803
0.000639911
0.000326578
0.000160647
7.70973e-05
3.62486e-05
1.67295e-05
7.59237e-06
3.39338e-06
1.49569e-06
6.5097e-07
2.80108e-07
1.19298e-07
5.0339e-08
2.10571e-08
8.72848e-09
3.57531e-09
1.43402e-09
5.48415e-10
1.83069e-10
3.20796e-11
3.7071e-07
1.62012e-06
3.72169e-06
7.24469e-06
1.31215e-05
2.28613e-05
3.88732e-05
6.49423e-05
0.000106905
0.000173572
0.000277905
0.000438413
0.000680586
0.00103801
0.00155262
0.00227331
0.00325252
0.00454074
0.00618002
0.00819819
0.0106056
0.0133948
0.016543
0.0200157
0.0237704
0.0277601
0.031936
0.0362492
0.0406527
0.0451021
0.0495564
0.053979
0.0583373
0.0626037
0.0667548
0.0707714
0.0746378
0.0783419
0.0818753
0.0852324
0.0884101
0.0914076
0.0942257
0.0968667
0.0993337
0.101631
0.103761
0.105729
0.107538
0.10919
0.110686
0.112024
0.113201
0.11421
0.115037
0.115664
0.116061
0.116195
0.11602
0.115461
0.11442
0.108619
0.0994168
0.090172
0.0810366
0.0721155
0.0635046
0.0552743
0.0474814
0.0401735
0.0333925
0.027177
0.021562
0.0165887
0.0122952
0.00871177
0.0058556
0.00371182
0.00221503
0.00124869
0.000666369
0.000340515
0.00016791
8.06799e-05
3.79556e-05
1.75241e-05
7.95499e-06
3.55591e-06
1.56737e-06
6.82135e-07
2.93483e-07
1.24973e-07