/*--------------------------------*- C++ -*----------------------------------*\
  =========                 |
  \\      /  F ield         | OpenFOAM: The Open Source CFD Toolbox
   \\    /   O peration     | Website:  https://openfoam.org
    \\  /    A nd           | Version:  8
     \\/     M anipulation  |
\*---------------------------------------------------------------------------*/
FoamFile
{
    version     2.0;
    format      ascii;
    class       volScalarField;
    location    "740/fluid";
    object      N2;
}
// * * * * * * * * * * * * * * * * * * * * * * * * * * * * * * * * * * * * * //

dimensions      [0 0 0 0 0 0 0];

internalField   nonuniform List<scalar> 
4000
(
2.30958e-06
1.00919e-05
2.31766e-05
4.51068e-05
8.17046e-05
0.000142442
0.000242549
0.00040616
0.000670877
0.00109408
0.00176118
0.00279542
0.00436793
0.00670509
0.0100886
0.0148434
0.0213091
0.0297977
0.0405476
0.0536876
0.0692223
0.0870404
0.106939
0.128652
0.15188
0.176307
0.201623
0.227527
0.253742
0.280014
0.306117
0.331855
0.357061
0.381597
0.405354
0.428244
0.450201
0.471179
0.491151
0.510105
0.528043
0.544974
0.560921
0.575909
0.589972
0.603146
0.61547
0.626984
0.63773
0.64775
0.657086
0.665777
0.673865
0.681387
0.68838
0.69488
0.70092
0.706457
0.711543
0.716406
0.720929
0.725139
0.729007
0.73272
0.736272
0.739668
0.742909
0.745995
0.748925
0.751696
0.754305
0.756745
0.75901
0.761079
0.762964
0.76464
0.766089
0.767295
0.768245
0.768939
0.769403
0.769687
0.769845
0.769926
0.769966
0.769985
0.769993
0.769997
0.769999
0.769999
0.77
0.77
0.77
0.77
0.77
0.77
0.77
0.77
0.77
0.77
2.31309e-06
1.01098e-05
2.32288e-05
4.52381e-05
8.2003e-05
0.000143062
0.00024373
0.000408218
0.000674112
0.0010985
0.00176589
0.00279756
0.0043612
0.00667753
0.0100206
0.0147063
0.0210668
0.0294106
0.0399788
0.05291
0.0682232
0.0858239
0.105524
0.127071
0.15017
0.174511
0.199783
0.225684
0.25193
0.278263
0.304452
0.330293
0.355616
0.380278
0.404165
0.427186
0.449273
0.470377
0.490469
0.509536
0.527578
0.544607
0.560642
0.575711
0.589846
0.603084
0.615465
0.627028
0.637818
0.647875
0.657242
0.665961
0.674071
0.681612
0.688621
0.695133
0.701183
0.706724
0.711812
0.71668
0.721206
0.725412
0.729286
0.733008
0.736568
0.739971
0.743218
0.746309
0.749242
0.752016
0.754625
0.757062
0.759321
0.761379
0.763247
0.764898
0.766314
0.767479
0.768382
0.769031
0.769458
0.769715
0.769858
0.769932
0.769968
0.769986
0.769994
0.769997
0.769999
0.769999
0.77
0.77
0.77
0.77
0.77
0.77
0.77
0.77
0.77
0.77
2.31993e-06
1.0141e-05
2.33061e-05
4.54023e-05
8.23237e-05
0.000143647
0.00024473
0.000409808
0.000676426
0.00110147
0.00176888
0.00279864
0.00435558
0.00665631
0.00996939
0.0146043
0.0208862
0.0291185
0.0395407
0.0522944
0.0674067
0.0847941
0.104282
0.125629
0.148554
0.172754
0.197922
0.223758
0.24998
0.276326
0.302561
0.328478
0.3539
0.378679
0.402697
0.425859
0.448091
0.469343
0.489581
0.50879
0.526969
0.544126
0.560282
0.575461
0.589698
0.603031
0.615494
0.627132
0.637987
0.648102
0.657519
0.66628
0.674426
0.681997
0.68903
0.695562
0.701626
0.707172
0.712263
0.717129
0.721644
0.725848
0.72974
0.733475
0.737044
0.740452
0.743701
0.746791
0.749719
0.752484
0.755079
0.757497
0.759731
0.76176
0.763588
0.765192
0.766555
0.767663
0.768511
0.769112
0.769505
0.769739
0.769869
0.769937
0.769971
0.769986
0.769994
0.769997
0.769999
0.769999
0.77
0.77
0.77
0.77
0.77
0.77
0.77
0.77
0.77
0.77
2.31939e-06
1.01385e-05
2.33002e-05
4.5388e-05
8.2284e-05
0.000143533
0.000244409
0.000408969
0.000674393
0.00109689
0.00175925
0.00277969
0.0043207
0.00659558
0.00986866
0.0144448
0.0206453
0.0287714
0.0390631
0.0516658
0.0666126
0.0838283
0.103147
0.124334
0.147117
0.171197
0.196273
0.222047
0.248237
0.274583
0.300846
0.326818
0.352319
0.377196
0.401328
0.424616
0.446982
0.468372
0.48875
0.508098
0.526412
0.543701
0.55998
0.575277
0.589622
0.60305
0.615602
0.627319
0.638245
0.648421
0.657892
0.6667
0.674885
0.682488
0.689548
0.6961
0.70218
0.707721
0.712804
0.717667
0.72219
0.726389
0.730296
0.734037
0.737609
0.741016
0.74426
0.74734
0.750255
0.753001
0.755572
0.757961
0.760157
0.762152
0.763932
0.765483
0.76679
0.767842
0.768637
0.769194
0.769552
0.769765
0.769882
0.769943
0.769973
0.769988
0.769994
0.769998
0.769999
0.77
0.77
0.77
0.77
0.77
0.77
0.77
0.77
0.77
0.77
0.77
2.31212e-06
1.01063e-05
2.32242e-05
4.52336e-05
8.19879e-05
0.000142977
0.000243374
0.000407054
0.000670874
0.0010905
0.00174782
0.00275965
0.00428645
0.0065387
0.00977727
0.0143033
0.0204349
0.0284713
0.0386534
0.0511292
0.0659375
0.0830095
0.102186
0.12324
0.145904
0.169884
0.194882
0.220604
0.246767
0.273111
0.299398
0.325416
0.350983
0.375945
0.400175
0.423572
0.446056
0.467569
0.488072
0.507545
0.525981
0.543388
0.559783
0.57519
0.589635
0.603156
0.615792
0.627585
0.638578
0.648813
0.658335
0.667185
0.675406
0.683038
0.690121
0.696692
0.702777
0.708299
0.713387
0.718264
0.722784
0.726946
0.73088
0.734624
0.738194
0.741596
0.74483
0.747897
0.750793
0.753516
0.756058
0.758414
0.760568
0.76252
0.764252
0.765752
0.767005
0.768003
0.768748
0.769264
0.769593
0.769787
0.769893
0.769948
0.769976
0.769989
0.769995
0.769998
0.769999
0.77
0.77
0.77
0.77
0.77
0.77
0.77
0.77
0.77
0.77
0.77
2.29952e-06
1.00506e-05
2.30935e-05
4.49714e-05
8.1494e-05
0.000142075
0.000241758
0.000404193
0.000665873
0.00108187
0.00173318
0.00273528
0.00424679
0.00647587
0.00968071
0.0141598
0.0202293
0.0281878
0.0382771
0.0506484
0.0653445
0.082302
0.101367
0.122318
0.144889
0.168794
0.193734
0.219418
0.245565
0.271913
0.298223
0.324284
0.349911
0.374946
0.399263
0.422755
0.445343
0.466963
0.487578
0.507163
0.52571
0.543223
0.559717
0.575213
0.589745
0.603347
0.616057
0.627916
0.638967
0.649253
0.658818
0.667704
0.675953
0.683607
0.690705
0.697283
0.703379
0.708897
0.714
0.718877
0.723391
0.727514
0.731446
0.735192
0.738758
0.742152
0.745374
0.748424
0.7513
0.753997
0.756511
0.758833
0.760948
0.762859
0.764545
0.765995
0.767197
0.768146
0.768847
0.769327
0.76963
0.769807
0.769903
0.769953
0.769978
0.76999
0.769995
0.769998
0.769999
0.77
0.77
0.77
0.77
0.77
0.77
0.77
0.77
0.77
0.77
0.77
2.28456e-06
9.98484e-06
2.29405e-05
4.46683e-05
8.09324e-05
0.00014107
0.000239994
0.000401145
0.000660674
0.00107312
0.00171869
0.0027117
0.00420923
0.00641746
0.0095924
0.0140305
0.0200462
0.0279381
0.0379491
0.050233
0.0648369
0.0817015
0.100677
0.121547
0.144048
0.167896
0.192796
0.218455
0.244595
0.270953
0.29729
0.323393
0.349074
0.374176
0.398569
0.422146
0.444822
0.466534
0.487241
0.506919
0.525561
0.543166
0.559745
0.575325
0.589933
0.603604
0.616376
0.628291
0.63939
0.649718
0.659317
0.668231
0.676502
0.684171
0.691276
0.697856
0.70395
0.709418
0.714644
0.71949
0.723981
0.728071
0.73199
0.735726
0.739284
0.742666
0.745874
0.748906
0.751761
0.754433
0.756918
0.759207
0.76128
0.763152
0.764799
0.766208
0.767366
0.768271
0.768933
0.769381
0.769661
0.769824
0.769912
0.769957
0.76998
0.769991
0.769996
0.769998
0.769999
0.77
0.77
0.77
0.77
0.77
0.77
0.77
0.77
0.77
0.77
0.77
2.26882e-06
9.91583e-06
2.27806e-05
4.4353e-05
8.03515e-05
0.000140037
0.000238196
0.000398067
0.00065548
0.00106449
0.00170457
0.00268903
0.00417361
0.00636289
0.0095111
0.0139131
0.0198825
0.0277178
0.0376633
0.0498755
0.0644046
0.0811952
0.100101
0.120908
0.143357
0.167165
0.192037
0.217684
0.243824
0.270198
0.296563
0.322706
0.348439
0.373602
0.398063
0.421715
0.44447
0.466266
0.487057
0.506817
0.525534
0.543211
0.559862
0.575509
0.590179
0.603906
0.61673
0.628689
0.639827
0.650188
0.659814
0.66875
0.677038
0.684719
0.691834
0.698422
0.704492
0.709958
0.715189
0.720029
0.724509
0.728581
0.73249
0.736216
0.739763
0.743133
0.746326
0.749341
0.752174
0.754822
0.757279
0.759538
0.761582
0.763417
0.765025
0.766394
0.767512
0.768378
0.769006
0.769427
0.769688
0.769838
0.769919
0.769961
0.769982
0.769992
0.769996
0.769998
0.769999
0.77
0.77
0.77
0.77
0.77
0.77
0.77
0.77
0.77
0.77
0.77
2.25351e-06
9.84875e-06
2.26257e-05
4.40486e-05
7.97933e-05
0.00013905
0.00023649
0.000395168
0.000650627
0.00105649
0.0016916
0.00266841
0.00414152
0.00631416
0.00943916
0.0138101
0.0197401
0.0275277
0.0374187
0.0495718
0.0640404
0.080772
0.0996234
0.120383
0.142794
0.166573
0.191429
0.217071
0.243219
0.269611
0.296005
0.322188
0.347968
0.373186
0.397707
0.421423
0.444245
0.466109
0.48697
0.506798
0.525582
0.543324
0.560036
0.575738
0.590459
0.604233
0.617097
0.629092
0.640261
0.650646
0.660292
0.669243
0.67754
0.685227
0.692341
0.698923
0.704968
0.71043
0.715654
0.720485
0.724957
0.729025
0.732931
0.73665
0.740188
0.743546
0.746724
0.74972
0.752531
0.755154
0.757582
0.759809
0.761818
0.763618
0.765193
0.766532
0.767628
0.768468
0.769068
0.769466
0.76971
0.76985
0.769926
0.769964
0.769983
0.769992
0.769996
0.769998
0.769999
0.77
0.77
0.77
0.77
0.77
0.77
0.77
0.77
0.77
0.77
0.77
2.23925e-06
9.78631e-06
2.24816e-05
4.37663e-05
7.92771e-05
0.00013814
0.000234924
0.000392517
0.000646212
0.00104925
0.00167994
0.00264999
0.00411305
0.00627125
0.00937627
0.0137208
0.0196174
0.0273653
0.0372113
0.0493163
0.0637362
0.0804213
0.0992307
0.119955
0.142338
0.166099
0.190947
0.21659
0.242749
0.269161
0.295585
0.321805
0.34763
0.372897
0.397472
0.421245
0.444127
0.46605
0.486968
0.506852
0.525691
0.543485
0.560246
0.575994
0.590756
0.604566
0.617463
0.629485
0.640677
0.651081
0.660742
0.669702
0.678007
0.685696
0.692812
0.699393
0.705424
0.710867
0.716079
0.720898
0.725355
0.72942
0.733323
0.737037
0.740568
0.743916
0.747081
0.750063
0.752857
0.755459
0.757864
0.760064
0.762056
0.763831
0.765376
0.766679
0.767733
0.768544
0.769121
0.769499
0.76973
0.769861
0.769931
0.769967
0.769984
0.769993
0.769997
0.769999
0.769999
0.77
0.77
0.77
0.77
0.77
0.77
0.77
0.77
0.77
0.77
0.77
2.22638e-06
9.73002e-06
2.2352e-05
4.35125e-05
7.88143e-05
0.000137326
0.000233527
0.000390163
0.000642307
0.00104288
0.00166972
0.00263392
0.00408835
0.00623422
0.00932231
0.0136446
0.0195134
0.0272283
0.0370374
0.0491035
0.0634846
0.0801331
0.0989104
0.119608
0.141973
0.165723
0.190567
0.216216
0.242388
0.268822
0.295274
0.321528
0.347392
0.372703
0.397324
0.421146
0.444079
0.466051
0.487018
0.506951
0.525836
0.543674
0.560475
0.576259
0.591054
0.604893
0.617814
0.629858
0.641067
0.651484
0.661155
0.670122
0.678429
0.686119
0.693232
0.699808
0.705823
0.711255
0.716458
0.721264
0.725705
0.72977
0.733668
0.737375
0.740896
0.744233
0.747384
0.750348
0.753124
0.755707
0.758094
0.76028
0.762256
0.764009
0.765529
0.766806
0.767832
0.768611
0.769165
0.769528
0.769746
0.769869
0.769935
0.769969
0.769985
0.769993
0.769997
0.769999
0.769999
0.77
0.77
0.77
0.77
0.77
0.77
0.77
0.77
0.77
0.77
0.77
2.21505e-06
9.68049e-06
2.2238e-05
4.32898e-05
7.84085e-05
0.000136615
0.000232309
0.000388114
0.000638918
0.00103737
0.00166092
0.00262013
0.00406724
0.00620271
0.0092766
0.0135804
0.0194262
0.027114
0.0368932
0.048928
0.0632783
0.0798985
0.0986515
0.11933
0.141682
0.165426
0.190271
0.215928
0.242115
0.26857
0.295049
0.321334
0.347234
0.372584
0.397247
0.42111
0.444083
0.466098
0.487106
0.507079
0.526001
0.543874
0.560707
0.57652
0.591341
0.605203
0.618143
0.630202
0.641424
0.65185
0.661527
0.670497
0.678806
0.686494
0.693601
0.700168
0.706173
0.711598
0.71679
0.721584
0.726012
0.730077
0.73397
0.737671
0.741182
0.744506
0.747645
0.750598
0.753363
0.755938
0.758312
0.76048
0.762433
0.764163
0.76566
0.766913
0.767916
0.768672
0.769203
0.769551
0.76976
0.769877
0.769939
0.769971
0.769986
0.769994
0.769997
0.769999
0.769999
0.77
0.77
0.77
0.77
0.77
0.77
0.77
0.77
0.77
0.77
0.77
2.20528e-06
9.6378e-06
2.21398e-05
4.30981e-05
7.806e-05
0.000136004
0.000231265
0.000386364
0.000636031
0.00103268
0.00165346
0.00260849
0.00404948
0.00617629
0.00923843
0.0135269
0.0193539
0.0270198
0.0367748
0.0487847
0.0631109
0.0797093
0.0984441
0.11911
0.141453
0.165195
0.190044
0.215709
0.241912
0.268386
0.294889
0.321202
0.347133
0.372515
0.397213
0.421112
0.444121
0.466171
0.487213
0.507219
0.526172
0.544073
0.560932
0.576768
0.591609
0.605488
0.618443
0.630514
0.641744
0.652176
0.661857
0.670829
0.679135
0.686818
0.693919
0.700482
0.706479
0.711894
0.717076
0.721859
0.726273
0.73034
0.734228
0.737924
0.741428
0.744747
0.747881
0.750825
0.753579
0.756138
0.758497
0.760647
0.762583
0.764294
0.76577
0.767003
0.767986
0.768723
0.769238
0.76957
0.769771
0.769883
0.769942
0.769972
0.769987
0.769994
0.769997
0.769999
0.769999
0.77
0.77
0.77
0.77
0.77
0.77
0.77
0.77
0.77
0.77
0.77
2.19702e-06
9.60174e-06
2.20569e-05
4.29364e-05
7.77662e-05
0.000135491
0.000230389
0.000384896
0.000633615
0.00102877
0.00164725
0.00259882
0.00403476
0.00615448
0.00920701
0.0134831
0.0192949
0.0269431
0.0366789
0.0486692
0.0629766
0.0795585
0.0982799
0.118936
0.141275
0.165016
0.18987
0.215545
0.241762
0.268254
0.294779
0.321117
0.347074
0.372485
0.397212
0.42114
0.444179
0.466258
0.487328
0.50736
0.526338
0.544261
0.561141
0.576995
0.591852
0.605744
0.61871
0.630789
0.642025
0.652462
0.662144
0.671114
0.679417
0.687098
0.694199
0.700757
0.706742
0.712149
0.717322
0.722096
0.72649
0.730561
0.734448
0.738139
0.741641
0.744954
0.748079
0.751015
0.753758
0.756306
0.758651
0.760787
0.762707
0.764402
0.765863
0.767078
0.768043
0.768764
0.769266
0.769588
0.76978
0.769888
0.769945
0.769973
0.769988
0.769994
0.769997
0.769999
0.769999
0.77
0.77
0.77
0.77
0.77
0.77
0.77
0.77
0.77
0.77
0.77
2.1902e-06
9.57193e-06
2.19884e-05
4.28029e-05
7.75239e-05
0.000135067
0.000229668
0.000383691
0.000631633
0.00102557
0.00164217
0.00259094
0.0040228
0.00613678
0.00918159
0.0134478
0.0192474
0.0268817
0.0366024
0.0485774
0.0628705
0.0794398
0.0981515
0.118801
0.141137
0.16488
0.189739
0.215424
0.241653
0.268161
0.294705
0.321063
0.347043
0.372478
0.397229
0.421182
0.444245
0.466347
0.48744
0.507493
0.526491
0.544432
0.561328
0.577196
0.592065
0.605967
0.61894
0.631026
0.642266
0.652704
0.662385
0.671355
0.679659
0.687339
0.694435
0.700988
0.706963
0.712363
0.717529
0.722295
0.726669
0.730746
0.734631
0.738319
0.741817
0.745124
0.748243
0.751171
0.753906
0.756443
0.758778
0.760903
0.76281
0.764492
0.765938
0.767139
0.76809
0.768798
0.769288
0.769602
0.769788
0.769892
0.769947
0.769974
0.769988
0.769994
0.769997
0.769999
0.77
0.77
0.77
0.77
0.77
0.77
0.77
0.77
0.77
0.77
0.77
0.77
2.1847e-06
9.54793e-06
2.19333e-05
4.26955e-05
7.73291e-05
0.000134727
0.000229089
0.000382725
0.000630048
0.00102302
0.00163812
0.00258466
0.00401329
0.00612276
0.00916149
0.0134199
0.01921
0.0268335
0.0365426
0.0485059
0.0627881
0.0793483
0.0980531
0.118699
0.141034
0.164779
0.189643
0.215336
0.241576
0.268098
0.294656
0.321032
0.34703
0.372484
0.397255
0.421228
0.44431
0.466432
0.487543
0.507612
0.526626
0.544581
0.561488
0.577367
0.592245
0.606154
0.619133
0.631222
0.642463
0.652903
0.662586
0.671558
0.67986
0.687536
0.694628
0.701177
0.707145
0.712538
0.717698
0.722457
0.726814
0.730896
0.734778
0.738464
0.741958
0.745262
0.748375
0.751297
0.754024
0.756554
0.75888
0.760996
0.762893
0.764564
0.765999
0.767188
0.768128
0.768825
0.769306
0.769612
0.769794
0.769895
0.769948
0.769975
0.769988
0.769995
0.769998
0.769999
0.77
0.77
0.77
0.77
0.77
0.77
0.77
0.77
0.77
0.77
0.77
0.77
2.18044e-06
9.52931e-06
2.18905e-05
4.26123e-05
7.71783e-05
0.000134464
0.000228642
0.000381978
0.000628825
0.00102105
0.00163501
0.00257984
0.004006
0.00611201
0.00914611
0.0133986
0.0191816
0.0267969
0.0364973
0.0484519
0.0627262
0.0792797
0.0979797
0.118623
0.140957
0.164705
0.189574
0.215273
0.241522
0.268055
0.294626
0.321015
0.347028
0.372497
0.397283
0.421272
0.444369
0.466505
0.48763
0.507712
0.526737
0.544702
0.561619
0.577505
0.592389
0.606303
0.619285
0.631377
0.642622
0.653065
0.662748
0.671718
0.680019
0.687692
0.694781
0.701325
0.707288
0.712675
0.717831
0.722584
0.726926
0.731014
0.734894
0.738578
0.742069
0.745369
0.748478
0.751395
0.754117
0.75664
0.75896
0.761068
0.762958
0.764621
0.766047
0.767227
0.768157
0.768846
0.769319
0.769621
0.769799
0.769898
0.76995
0.769976
0.769989
0.769995
0.769998
0.769999
0.77
0.77
0.77
0.77
0.77
0.77
0.77
0.77
0.77
0.77
0.77
0.77
2.17733e-06
9.51572e-06
2.18593e-05
4.25516e-05
7.70682e-05
0.000134273
0.000228316
0.000381435
0.000627934
0.00101961
0.00163274
0.00257634
0.00400071
0.00610423
0.00913499
0.0133832
0.0191611
0.0267706
0.0364647
0.0484133
0.062682
0.0792309
0.0979277
0.118569
0.140904
0.164653
0.189526
0.215231
0.241487
0.268028
0.294608
0.321007
0.347031
0.372511
0.397308
0.421307
0.444416
0.466562
0.487697
0.507788
0.526821
0.544794
0.561717
0.577609
0.592498
0.606416
0.619403
0.631498
0.642744
0.653186
0.662869
0.671838
0.680137
0.687808
0.694894
0.701435
0.707396
0.712779
0.71793
0.722679
0.727009
0.731101
0.73498
0.738661
0.74215
0.745447
0.748554
0.751467
0.754185
0.756704
0.759018
0.761121
0.763005
0.764662
0.766082
0.767255
0.768178
0.768861
0.769329
0.769627
0.769802
0.7699
0.769951
0.769976
0.769989
0.769995
0.769998
0.769999
0.77
0.77
0.77
0.77
0.77
0.77
0.77
0.77
0.77
0.77
0.77
0.77
2.1753e-06
9.50687e-06
2.1839e-05
4.2512e-05
7.69966e-05
0.000134148
0.000228104
0.000381082
0.000627356
0.00101868
0.00163128
0.00257407
0.00399728
0.0060992
0.00912782
0.0133733
0.0191479
0.0267536
0.0364438
0.0483885
0.0626537
0.0791998
0.0978946
0.118535
0.14087
0.164621
0.189496
0.215205
0.241465
0.268011
0.294598
0.321004
0.347035
0.372522
0.397327
0.421333
0.444449
0.466602
0.487743
0.50784
0.526878
0.544856
0.561784
0.57768
0.592572
0.606493
0.619482
0.631577
0.642824
0.653267
0.662949
0.671918
0.680215
0.687885
0.694969
0.701508
0.707468
0.712848
0.717997
0.722743
0.727066
0.731157
0.735035
0.738716
0.742203
0.745499
0.748603
0.751515
0.75423
0.756746
0.759057
0.761156
0.763037
0.764689
0.766104
0.767273
0.768192
0.768871
0.769336
0.769631
0.769805
0.769901
0.769951
0.769977
0.769989
0.769995
0.769998
0.769999
0.77
0.77
0.77
0.77
0.77
0.77
0.77
0.77
0.77
0.77
0.77
0.77
2.17432e-06
9.50258e-06
2.18292e-05
4.24929e-05
7.69621e-05
0.000134088
0.000228002
0.000380913
0.000627081
0.00101824
0.00163058
0.002573
0.00399567
0.00609682
0.00912443
0.0133686
0.0191417
0.0267457
0.036434
0.0483768
0.0626403
0.0791851
0.097879
0.118519
0.140854
0.164606
0.189482
0.215193
0.241455
0.268004
0.294594
0.321003
0.347037
0.372528
0.397337
0.421347
0.444466
0.466622
0.487766
0.507867
0.526908
0.544888
0.561818
0.577716
0.592609
0.606532
0.619521
0.631617
0.642864
0.653307
0.662989
0.671957
0.680254
0.687923
0.695007
0.701545
0.707503
0.712883
0.71803
0.722775
0.727095
0.731185
0.735062
0.738743
0.74223
0.745525
0.748628
0.751538
0.754252
0.756767
0.759076
0.761174
0.763052
0.764702
0.766115
0.767282
0.768199
0.768875
0.769339
0.769633
0.769806
0.769901
0.769952
0.769977
0.769989
0.769995
0.769998
0.769999
0.77
0.77
0.77
0.77
0.77
0.77
0.77
0.77
0.77
0.77
0.77
0.77
2.17433e-06
9.50263e-06
2.18293e-05
4.24931e-05
7.69625e-05
0.000134089
0.000228003
0.000380915
0.000627084
0.00101825
0.00163059
0.00257301
0.00399568
0.00609684
0.00912446
0.0133687
0.0191417
0.0267457
0.0364341
0.0483769
0.0626404
0.0791852
0.0978791
0.118519
0.140854
0.164606
0.189482
0.215193
0.241455
0.268004
0.294594
0.321003
0.347037
0.372528
0.397337
0.421347
0.444466
0.466622
0.487766
0.507867
0.526908
0.544888
0.561818
0.577716
0.592609
0.606532
0.619521
0.631617
0.642864
0.653307
0.662989
0.671957
0.680254
0.687923
0.695007
0.701545
0.707503
0.712883
0.71803
0.722775
0.727095
0.731185
0.735062
0.738743
0.74223
0.745525
0.748628
0.751538
0.754252
0.756767
0.759076
0.761174
0.763052
0.764702
0.766115
0.767282
0.768199
0.768875
0.769339
0.769633
0.769806
0.769901
0.769952
0.769977
0.769989
0.769995
0.769998
0.769999
0.77
0.77
0.77
0.77
0.77
0.77
0.77
0.77
0.77
0.77
0.77
0.77
2.17533e-06
9.50701e-06
2.18393e-05
4.25126e-05
7.69977e-05
0.00013415
0.000228107
0.000381087
0.000627364
0.0010187
0.0016313
0.0025741
0.00399733
0.00609926
0.0091279
0.0133734
0.019148
0.0267538
0.0364441
0.0483887
0.062654
0.0792001
0.097895
0.118535
0.140871
0.164621
0.189496
0.215205
0.241466
0.268012
0.294599
0.321005
0.347035
0.372523
0.397327
0.421334
0.444449
0.466602
0.487743
0.50784
0.526879
0.544857
0.561784
0.57768
0.592572
0.606494
0.619482
0.631578
0.642824
0.653267
0.66295
0.671918
0.680215
0.687885
0.694969
0.701508
0.707468
0.712848
0.717997
0.722743
0.727066
0.731157
0.735035
0.738716
0.742203
0.745499
0.748603
0.751515
0.75423
0.756746
0.759057
0.761156
0.763037
0.764689
0.766104
0.767273
0.768192
0.768871
0.769336
0.769631
0.769805
0.769901
0.769951
0.769977
0.769989
0.769995
0.769998
0.769999
0.77
0.77
0.77
0.77
0.77
0.77
0.77
0.77
0.77
0.77
0.77
0.77
2.17738e-06
9.51595e-06
2.18598e-05
4.25526e-05
7.707e-05
0.000134276
0.000228321
0.000381443
0.000627947
0.00101963
0.00163278
0.00257639
0.00400078
0.00610433
0.00913514
0.0133834
0.0191613
0.0267709
0.0364651
0.0484137
0.0626825
0.0792315
0.0979283
0.11857
0.140905
0.164654
0.189527
0.215232
0.241487
0.268028
0.294609
0.321008
0.347031
0.372512
0.397309
0.421308
0.444416
0.466563
0.487697
0.507789
0.526821
0.544794
0.561717
0.577609
0.592498
0.606417
0.619403
0.631498
0.642744
0.653186
0.662869
0.671838
0.680137
0.687808
0.694894
0.701435
0.707396
0.712779
0.71793
0.722679
0.727009
0.731101
0.73498
0.738661
0.74215
0.745447
0.748554
0.751467
0.754185
0.756704
0.759018
0.761121
0.763005
0.764662
0.766081
0.767255
0.768178
0.768861
0.769329
0.769627
0.769802
0.7699
0.769951
0.769976
0.769989
0.769995
0.769998
0.769999
0.77
0.77
0.77
0.77
0.77
0.77
0.77
0.77
0.77
0.77
0.77
0.77
2.18051e-06
9.52963e-06
2.18912e-05
4.26137e-05
7.71808e-05
0.000134469
0.000228649
0.00038199
0.000628843
0.00102107
0.00163505
0.00257991
0.00400609
0.00611215
0.00914631
0.0133988
0.0191819
0.0267973
0.0364978
0.0484525
0.0627269
0.0792805
0.0979806
0.118624
0.140958
0.164706
0.189575
0.215274
0.241523
0.268056
0.294627
0.321016
0.347029
0.372498
0.397284
0.421272
0.44437
0.466506
0.487631
0.507713
0.526737
0.544703
0.561619
0.577506
0.592389
0.606303
0.619286
0.631378
0.642623
0.653065
0.662748
0.671718
0.680019
0.687692
0.694781
0.701326
0.707288
0.712675
0.717831
0.722584
0.726926
0.731014
0.734894
0.738578
0.742069
0.745369
0.748478
0.751395
0.754117
0.75664
0.75896
0.761068
0.762958
0.764621
0.766047
0.767227
0.768157
0.768846
0.769319
0.769621
0.769799
0.769898
0.76995
0.769976
0.769989
0.769995
0.769998
0.769999
0.77
0.77
0.77
0.77
0.77
0.77
0.77
0.77
0.77
0.77
0.77
0.77
2.18479e-06
9.54832e-06
2.19342e-05
4.26973e-05
7.73322e-05
0.000134733
0.000229098
0.000382739
0.000630071
0.00102305
0.00163818
0.00258475
0.00401341
0.00612293
0.00916173
0.0134202
0.0192105
0.0268341
0.0365433
0.0485067
0.062789
0.0793493
0.0980542
0.1187
0.141035
0.16478
0.189644
0.215337
0.241577
0.268099
0.294658
0.321033
0.347031
0.372485
0.397256
0.421229
0.444311
0.466433
0.487543
0.507613
0.526626
0.544581
0.561489
0.577368
0.592245
0.606155
0.619133
0.631222
0.642463
0.652903
0.662586
0.671557
0.67986
0.687536
0.694628
0.701177
0.707145
0.712537
0.717698
0.722457
0.726814
0.730896
0.734778
0.738464
0.741958
0.745262
0.748375
0.751297
0.754024
0.756554
0.75888
0.760995
0.762893
0.764564
0.765999
0.767188
0.768128
0.768825
0.769306
0.769612
0.769794
0.769895
0.769948
0.769975
0.769988
0.769995
0.769998
0.769999
0.77
0.77
0.77
0.77
0.77
0.77
0.77
0.77
0.77
0.77
0.77
0.77
2.19031e-06
9.5724e-06
2.19895e-05
4.2805e-05
7.75276e-05
0.000135074
0.000229678
0.000383708
0.000631661
0.00102562
0.00164224
0.00259104
0.00402294
0.00613699
0.00918188
0.0134481
0.0192479
0.0268823
0.0366032
0.0485783
0.0628716
0.079441
0.0981529
0.118803
0.141139
0.164882
0.189741
0.215426
0.241655
0.268163
0.294706
0.321064
0.347044
0.372479
0.39723
0.421183
0.444246
0.466348
0.487441
0.507494
0.526492
0.544433
0.561328
0.577196
0.592065
0.605967
0.618941
0.631026
0.642266
0.652704
0.662385
0.671354
0.679658
0.687338
0.694434
0.700987
0.706963
0.712362
0.717529
0.722295
0.726669
0.730746
0.734631
0.738319
0.741817
0.745124
0.748243
0.751171
0.753906
0.756443
0.758778
0.760903
0.76281
0.764492
0.765938
0.767139
0.76809
0.768798
0.769288
0.769602
0.769788
0.769892
0.769947
0.769974
0.769988
0.769994
0.769997
0.769999
0.77
0.77
0.77
0.77
0.77
0.77
0.77
0.77
0.77
0.77
0.77
0.77
2.19715e-06
9.60229e-06
2.20581e-05
4.29388e-05
7.77705e-05
0.000135498
0.000230401
0.000384916
0.000633647
0.00102882
0.00164732
0.00259894
0.00403493
0.00615472
0.00920735
0.0134836
0.0192955
0.0269439
0.0366799
0.0486703
0.0629779
0.0795599
0.0982815
0.118938
0.141276
0.165018
0.189872
0.215547
0.241763
0.268256
0.294781
0.321118
0.347075
0.372487
0.397213
0.421141
0.44418
0.466259
0.487329
0.507361
0.526339
0.544262
0.561141
0.576996
0.591852
0.605745
0.61871
0.630789
0.642025
0.652462
0.662144
0.671115
0.679419
0.687099
0.694199
0.700757
0.706742
0.712149
0.717322
0.722096
0.72649
0.730561
0.734448
0.738139
0.741641
0.744955
0.74808
0.751015
0.753759
0.756306
0.758651
0.760787
0.762707
0.764402
0.765863
0.767078
0.768043
0.768764
0.769266
0.769588
0.76978
0.769888
0.769945
0.769973
0.769988
0.769994
0.769997
0.769999
0.769999
0.77
0.77
0.77
0.77
0.77
0.77
0.77
0.77
0.77
0.77
0.77
2.20542e-06
9.63842e-06
2.21412e-05
4.31008e-05
7.80648e-05
0.000136012
0.000231279
0.000386386
0.000636067
0.00103274
0.00165354
0.00260862
0.00404967
0.00617657
0.00923881
0.0135275
0.0193546
0.0270207
0.0367759
0.048786
0.0631124
0.079711
0.0984459
0.119112
0.141455
0.165197
0.190046
0.215711
0.241914
0.268388
0.294891
0.321204
0.347135
0.372518
0.397215
0.421114
0.444123
0.466172
0.487215
0.50722
0.526173
0.544074
0.560933
0.576769
0.59161
0.605489
0.618443
0.630514
0.641744
0.652177
0.661857
0.670829
0.679136
0.686818
0.693919
0.700482
0.706479
0.711894
0.717076
0.721859
0.726273
0.73034
0.734229
0.737924
0.741429
0.744749
0.747882
0.750826
0.75358
0.756139
0.758497
0.760648
0.762583
0.764294
0.76577
0.767003
0.767986
0.768723
0.769238
0.76957
0.769771
0.769883
0.769942
0.769972
0.769987
0.769994
0.769997
0.769999
0.769999
0.77
0.77
0.77
0.77
0.77
0.77
0.77
0.77
0.77
0.77
0.77
2.2152e-06
9.68118e-06
2.22395e-05
4.32927e-05
7.84139e-05
0.000136624
0.000232324
0.000388139
0.000638957
0.00103743
0.00166101
0.00262028
0.00406745
0.00620301
0.00927703
0.0135809
0.0194269
0.027115
0.0368944
0.0489294
0.0632799
0.0799004
0.0986535
0.119333
0.141684
0.165428
0.190274
0.21593
0.242118
0.268572
0.295051
0.321337
0.347236
0.372585
0.397248
0.421112
0.444085
0.466099
0.487107
0.50708
0.526003
0.543875
0.560708
0.576521
0.591342
0.605204
0.618144
0.630203
0.641424
0.65185
0.661527
0.670498
0.678806
0.686494
0.693601
0.700168
0.706173
0.711598
0.71679
0.721584
0.726012
0.730077
0.73397
0.73767
0.741182
0.744505
0.747645
0.750599
0.753364
0.755937
0.758312
0.76048
0.762433
0.764163
0.76566
0.766913
0.767916
0.768672
0.769203
0.769551
0.76976
0.769877
0.769939
0.769971
0.769986
0.769994
0.769997
0.769999
0.769999
0.77
0.77
0.77
0.77
0.77
0.77
0.77
0.77
0.77
0.77
0.77
2.22655e-06
9.73077e-06
2.23537e-05
4.35158e-05
7.88201e-05
0.000137336
0.000233544
0.00039019
0.00064235
0.00104295
0.00166983
0.00263408
0.00408858
0.00623455
0.00932278
0.0136452
0.0195142
0.0272294
0.0370387
0.0491051
0.0634864
0.0801352
0.0989126
0.119611
0.141975
0.165725
0.19057
0.216218
0.242391
0.268825
0.295277
0.321531
0.347395
0.372706
0.397328
0.421149
0.444081
0.466053
0.48702
0.506953
0.525838
0.543675
0.560476
0.57626
0.591055
0.604894
0.617815
0.629859
0.641067
0.651484
0.661155
0.670122
0.678429
0.686119
0.693232
0.699808
0.705823
0.711255
0.716458
0.721264
0.725705
0.72977
0.733668
0.737376
0.740898
0.744235
0.747387
0.750353
0.75313
0.755714
0.758098
0.760284
0.762258
0.764009
0.765529
0.766806
0.767832
0.768611
0.769165
0.769528
0.769746
0.769869
0.769935
0.769969
0.769985
0.769993
0.769997
0.769999
0.769999
0.77
0.77
0.77
0.77
0.77
0.77
0.77
0.77
0.77
0.77
0.77
2.23943e-06
9.78711e-06
2.24835e-05
4.37697e-05
7.92834e-05
0.00013815
0.000234941
0.000392546
0.000646259
0.00104933
0.00168005
0.00265016
0.0041133
0.00627161
0.00937678
0.0137215
0.0196183
0.0273664
0.0372127
0.049318
0.0637382
0.0804235
0.0992331
0.119958
0.142341
0.166102
0.19095
0.216593
0.242752
0.269164
0.295588
0.321808
0.347632
0.372899
0.397474
0.421246
0.444128
0.466052
0.486969
0.506854
0.525693
0.543487
0.560247
0.575995
0.590757
0.604567
0.617464
0.629486
0.640677
0.651081
0.660742
0.669703
0.678007
0.685696
0.692812
0.699393
0.705424
0.710867
0.716079
0.720898
0.725355
0.72942
0.733322
0.737035
0.740564
0.74391
0.747074
0.750053
0.752846
0.755448
0.757855
0.760057
0.76205
0.763829
0.765375
0.766679
0.767733
0.768544
0.769121
0.769499
0.76973
0.769861
0.769931
0.769967
0.769984
0.769993
0.769997
0.769999
0.769999
0.77
0.77
0.77
0.77
0.77
0.77
0.77
0.77
0.77
0.77
0.77
2.25371e-06
9.8496e-06
2.26276e-05
4.40523e-05
7.97999e-05
0.000139061
0.000236509
0.000395198
0.000650676
0.00105657
0.00169172
0.00266859
0.00414178
0.00631455
0.0094397
0.0138109
0.019741
0.0275289
0.0374202
0.0495737
0.0640425
0.0807744
0.0996261
0.120386
0.142797
0.166577
0.191433
0.217074
0.243222
0.269614
0.296009
0.322191
0.347972
0.373189
0.397711
0.421426
0.444249
0.466113
0.486974
0.506801
0.525584
0.543326
0.560037
0.575739
0.59046
0.604234
0.617098
0.629093
0.640261
0.650647
0.660293
0.669243
0.677541
0.685227
0.692342
0.698924
0.704968
0.71043
0.715654
0.720486
0.724957
0.729025
0.732932
0.736652
0.740191
0.743549
0.746728
0.749725
0.752538
0.755162
0.757591
0.759816
0.761826
0.763619
0.765192
0.766532
0.767628
0.768468
0.769068
0.769466
0.76971
0.76985
0.769926
0.769964
0.769983
0.769992
0.769996
0.769998
0.769999
0.77
0.77
0.77
0.77
0.77
0.77
0.77
0.77
0.77
0.77
0.77
2.26903e-06
9.91672e-06
2.27827e-05
4.43569e-05
8.03584e-05
0.000140048
0.000238216
0.0003981
0.000655532
0.00106457
0.00170469
0.00268922
0.00417389
0.0063633
0.00951168
0.0139139
0.0198835
0.0277191
0.0376649
0.0498775
0.0644069
0.0811978
0.100104
0.120911
0.143361
0.167168
0.192041
0.217687
0.243828
0.270201
0.296567
0.32271
0.348443
0.373605
0.398066
0.421717
0.444471
0.466265
0.487056
0.506817
0.525535
0.543212
0.559864
0.57551
0.59018
0.603908
0.616731
0.62869
0.639828
0.650189
0.659815
0.668751
0.677038
0.684719
0.691834
0.698422
0.704492
0.709958
0.715189
0.720029
0.724509
0.728581
0.73249
0.736216
0.739762
0.743132
0.746325
0.749339
0.752172
0.754819
0.757274
0.759531
0.761572
0.763408