/*--------------------------------*- C++ -*----------------------------------*\
  =========                 |
  \\      /  F ield         | OpenFOAM: The Open Source CFD Toolbox
   \\    /   O peration     | Website:  https://openfoam.org
    \\  /    A nd           | Version:  8
     \\/     M anipulation  |
\*---------------------------------------------------------------------------*/
FoamFile
{
    version     2.0;
    format      ascii;
    class       volScalarField;
    location    "740/fluid";
    object      O2;
}
// * * * * * * * * * * * * * * * * * * * * * * * * * * * * * * * * * * * * * //

dimensions      [0 0 0 0 0 0 0];

internalField   nonuniform List<scalar> 
4000
(
4.57485e-10
1.99757e-09
4.57986e-09
8.8894e-09
1.60406e-08
2.78255e-08
4.70851e-08
7.82493e-08
1.28088e-07
2.067e-07
3.2871e-07
5.14553e-07
7.91558e-07
1.19448e-06
1.76396e-06
2.54309e-06
3.57153e-06
4.87809e-06
6.47391e-06
8.34858e-06
1.04705e-05
1.27908e-05
1.52498e-05
1.77826e-05
2.03243e-05
2.28137e-05
2.51956e-05
2.74223e-05
2.94542e-05
3.12612e-05
3.28236e-05
3.41362e-05
3.52141e-05
3.61027e-05
3.68912e-05
3.77262e-05
3.88244e-05
4.04829e-05
4.30897e-05
4.71402e-05
5.32663e-05
6.22808e-05
7.52371e-05
9.35059e-05
0.000118875
0.000153685
0.000201003
0.000264721
0.000350324
0.000464789
0.000617296
0.000819903
0.00108844
0.00144365
0.00191276
0.00253147
0.00334663
0.00440534
0.00578103
0.00763876
0.0100832
0.0133073
0.0184537
0.034898
0.0515445
0.0681348
0.0844678
0.100385
0.11576
0.130488
0.144481
0.157662
0.169955
0.181229
0.191529
0.200691
0.208618
0.215212
0.220403
0.224199
0.226739
0.228287
0.229151
0.229596
0.229814
0.229916
0.229963
0.229984
0.229993
0.229997
0.229999
0.229999
0.23
0.23
0.23
0.23
0.23
0.23
0.23
0.23
4.64716e-10
2.03057e-09
4.6613e-09
9.0623e-09
1.63832e-08
2.8475e-08
4.82742e-08
8.03576e-08
1.31711e-07
2.12725e-07
3.38377e-07
5.2939e-07
8.1287e-07
1.22496e-06
1.80649e-06
2.6009e-06
3.64841e-06
4.97875e-06
6.60433e-06
8.51608e-06
1.06835e-05
1.30584e-05
1.55809e-05
1.8185e-05
2.08043e-05
2.33757e-05
2.58416e-05
2.8152e-05
3.02652e-05
3.2149e-05
3.37823e-05
3.51589e-05
3.62935e-05
3.72327e-05
3.80685e-05
3.89537e-05
4.01139e-05
4.18588e-05
4.45912e-05
4.88228e-05
5.5202e-05
6.45575e-05
7.79572e-05
9.6785e-05
0.000122842
0.000158489
0.000206626
0.000271444
0.000358323
0.00047424
0.000628378
0.000832802
0.00110334
0.00146077
0.00193232
0.00255373
0.003372
0.00443386
0.00581345
0.00767778
0.0101318
0.0133695
0.0197769
0.0363229
0.0530504
0.0697069
0.0860944
0.102056
0.117464
0.132214
0.146216
0.159388
0.171652
0.18287
0.193077
0.202105
0.20985
0.216219
0.221156
0.224704
0.227039
0.228443
0.229224
0.229628
0.229826
0.229921
0.229965
0.229984
0.229993
0.229997
0.229999
0.229999
0.23
0.23
0.23
0.23
0.23
0.23
0.23
0.23
4.74294e-10
2.07242e-09
4.75791e-09
9.25186e-09
1.67293e-08
2.90811e-08
4.9304e-08
8.20655e-08
1.34487e-07
2.17175e-07
3.45495e-07
5.40998e-07
8.32841e-07
1.25541e-06
1.85052e-06
2.66269e-06
3.73347e-06
5.09417e-06
6.75891e-06
8.7204e-06
1.09496e-05
1.3399e-05
1.60089e-05
1.87124e-05
2.14417e-05
2.41314e-05
2.67212e-05
2.91581e-05
3.13976e-05
3.34047e-05
3.51557e-05
3.66423e-05
3.78787e-05
3.89123e-05
3.98394e-05
4.08211e-05
4.20972e-05
4.39961e-05
4.6944e-05
5.14781e-05
5.82735e-05
6.81847e-05
8.23041e-05
0.00010204
0.000129186
0.000165941
0.000215576
0.000282418
0.000371565
0.000490062
0.000647145
0.000854925
0.00112929
0.00149106
0.00196758
0.00259478
0.00341992
0.00448898
0.00587819
0.00775656
0.0102296
0.0134997
0.0221008
0.0387196
0.0555134
0.072223
0.0886464
0.104623
0.120024
0.134741
0.148681
0.161758
0.17389
0.184956
0.194946
0.203713
0.211165
0.217223
0.221859
0.225148
0.227292
0.228574
0.229286
0.229656
0.229839
0.229926
0.229967
0.229985
0.229994
0.229997
0.229999
0.23
0.23
0.23
0.23
0.23
0.23
0.23
0.23
0.23
4.85764e-10
2.12316e-09
4.87682e-09
9.48872e-09
1.71679e-08
2.98587e-08
5.06399e-08
8.42991e-08
1.38125e-07
2.2294e-07
3.54343e-07
5.54031e-07
8.50881e-07
1.28128e-06
1.888e-06
2.71695e-06
3.81143e-06
5.20484e-06
6.91357e-06
8.93239e-06
1.12338e-05
1.37713e-05
1.64846e-05
1.93062e-05
2.21663e-05
2.4997e-05
2.77354e-05
3.03254e-05
3.27192e-05
3.48787e-05
3.67774e-05
3.8405e-05
3.97742e-05
4.09343e-05
4.19868e-05
4.31033e-05
4.4541e-05
4.66524e-05
4.98927e-05
5.48316e-05
6.21773e-05
7.28167e-05
8.78734e-05
0.000108754
0.000137176
0.000175698
0.000227744
0.000297182
0.00038944
0.00051164
0.000673112
0.000886091
0.00116661
0.00153571
0.00202099
0.00265876
0.00349685
0.00457902
0.00598471
0.00788812
0.0103983
0.013716
0.0249877
0.0416295
0.0584496
0.0751765
0.0915994
0.107552
0.1229
0.137534
0.151356
0.16428
0.17622
0.187098
0.196826
0.205306
0.212453
0.218202
0.222548
0.225592
0.227552
0.228715
0.229356
0.229689
0.229854
0.229933
0.22997
0.229987
0.229994
0.229997
0.229999
0.23
0.23
0.23
0.23
0.23
0.23
0.23
0.23
0.23
4.95975e-10
2.16777e-09
4.97931e-09
9.68814e-09
1.75284e-08
3.0484e-08
5.16957e-08
8.60454e-08
1.40964e-07
2.27485e-07
3.61517e-07
5.65205e-07
8.68071e-07
1.30741e-06
1.92725e-06
2.77507e-06
3.89616e-06
5.32623e-06
7.08407e-06
9.16668e-06
1.15482e-05
1.4183e-05
1.7011e-05
1.99634e-05
2.29688e-05
2.59568e-05
2.88617e-05
3.16242e-05
3.41932e-05
3.65271e-05
3.85966e-05
4.03887e-05
4.19155e-05
4.32283e-05
4.44352e-05
4.57208e-05
4.73633e-05
4.97437e-05
5.33519e-05
5.87969e-05
6.68306e-05
7.83757e-05
9.45328e-05
0.000116707
0.000146942
0.000187976
0.000242783
0.000315609
0.000412013
0.000539276
0.000706932
0.000927465
0.00121723
0.00159767
0.00209692
0.00275201
0.00360975
0.00471161
0.00614842
0.00809637
0.0106613
0.0140305
0.0280239
0.0446426
0.0614655
0.0781928
0.0945978
0.110506
0.12578
0.140307
0.15399
0.166744
0.178462
0.189114
0.198581
0.206778
0.213628
0.219083
0.223159
0.225979
0.227777
0.228835
0.229416
0.229718
0.229867
0.229939
0.229972
0.229988
0.229995
0.229998
0.229999
0.23
0.23
0.23
0.23
0.23
0.23
0.23
0.23
0.23
5.04863e-10
2.2065e-09
5.06786e-09
9.85956e-09
1.7837e-08
3.10188e-08
5.26003e-08
8.75507e-08
1.43436e-07
2.31501e-07
3.67974e-07
5.75482e-07
8.84256e-07
1.33262e-06
1.96599e-06
2.83373e-06
3.98344e-06
5.45341e-06
7.26514e-06
9.41796e-06
1.18878e-05
1.46298e-05
1.75838e-05
2.06801e-05
2.38452e-05
2.70066e-05
3.00952e-05
3.30486e-05
3.58121e-05
3.83409e-05
4.06022e-05
4.25807e-05
4.42879e-05
4.57778e-05
4.71669e-05
4.86552e-05
5.05451e-05
5.32493e-05
5.7295e-05
6.33295e-05
7.21469e-05
8.46656e-05
0.000102082
0.00012601
0.000158676
0.000202414
0.000260594
0.000337627
0.000439278
0.000573095
0.000748951
0.000979765
0.00128243
0.00167906
0.0021986
0.00287884
0.0037689
0.00490816
0.00639391
0.00839488
0.0110145
0.0144074
0.0305461
0.0472939
0.0642131
0.0809929
0.0974056
0.113279
0.128479
0.142897
0.15644
0.169025
0.180532
0.190969
0.200183
0.208107
0.214681
0.219868
0.223701
0.226324
0.227977
0.228943
0.229472
0.229745
0.22988
0.229944
0.229975
0.229989
0.229995
0.229998
0.229999
0.23
0.23
0.23
0.23
0.23
0.23
0.23
0.23
0.23
5.13066e-10
2.24229e-09
5.14988e-09
1.00189e-08
1.81256e-08
3.15223e-08
5.34601e-08
8.89972e-08
1.45842e-07
2.35463e-07
3.74433e-07
5.85902e-07
9.00882e-07
1.35881e-06
2.00666e-06
2.89581e-06
4.07638e-06
5.5895e-06
7.45955e-06
9.68846e-06
1.22541e-05
1.51125e-05
1.82035e-05
2.14563e-05
2.47958e-05
2.81465e-05
3.14366e-05
3.46001e-05
3.75786e-05
4.03235e-05
4.27987e-05
4.49865e-05
4.68979e-05
4.85906e-05
5.01913e-05
5.19189e-05
5.41036e-05
5.71962e-05
6.17692e-05
6.84885e-05
7.81068e-05
9.16681e-05
0.0001107
0.000136839
0.000171958
0.000218777
0.000280835
0.000362755
0.000470594
0.000612282
0.000798212
0.001042
0.00136146
0.00177993
0.00232796
0.00304559
0.00398566
0.00517877
0.00678733
0.0088918
0.0116406
0.0151576
0.0321459
0.0493761
0.0665634
0.0834779
0.0999361
0.115791
0.130925
0.145237
0.158641
0.171057
0.182348
0.192567
0.201573
0.209274
0.215604
0.220551
0.224169
0.226618
0.228148
0.229036
0.229519
0.229767
0.22989
0.229949
0.229977
0.22999
0.229995
0.229998
0.229999
0.23
0.23
0.23
0.23
0.23
0.23
0.23
0.23
0.23
5.20915e-10
2.27656e-09
5.22855e-09
1.01722e-08
1.84039e-08
3.201e-08
5.42968e-08
9.04133e-08
1.48214e-07
2.39398e-07
3.80903e-07
5.96437e-07
9.17847e-07
1.38578e-06
2.0489e-06
2.9608e-06
4.17432e-06
5.7337e-06
7.66644e-06
9.97727e-06
1.26461e-05
1.56303e-05
1.88695e-05
2.22922e-05
2.58213e-05
2.93788e-05
3.28896e-05
3.62841e-05
3.95e-05
4.24849e-05
4.51989e-05
4.76217e-05
4.97641e-05
5.16881e-05
5.35326e-05
5.55373e-05
5.80614e-05
6.15924e-05
6.67249e-05
7.4132e-05
8.47576e-05
9.98846e-05
0.000120674
0.000148836
0.000186545
0.000236632
0.000302803
0.000389912
0.00050433
0.000654429
0.000851215
0.00110918
0.00144743
0.00189124
0.00247407
0.00324054
0.00424533
0.00553388
0.00729091
0.00961825
0.0127163
0.0167866
0.0340604
0.0514957
0.0688101
0.0857851
0.102249
0.118065
0.133122
0.147326
0.160596
0.172857
0.183997
0.194019
0.202809
0.210293
0.216405
0.221138
0.224569
0.22687
0.228294
0.229115
0.229559
0.229787
0.2299
0.229954
0.229979
0.229991
0.229996
0.229998
0.229999
0.23
0.23
0.23
0.23
0.23
0.23
0.23
0.23
0.23
5.28615e-10
2.31021e-09
5.30593e-09
1.03233e-08
1.86791e-08
3.24941e-08
5.51313e-08
9.18328e-08
1.50605e-07
2.4339e-07
3.87508e-07
6.07261e-07
9.35382e-07
1.41381e-06
2.09301e-06
3.02896e-06
4.27742e-06
5.88594e-06
7.88542e-06
1.02837e-05
1.3063e-05
1.61821e-05
1.9581e-05
2.31872e-05
2.69221e-05
3.0705e-05
3.44576e-05
3.81066e-05
4.15856e-05
4.48378e-05
4.78195e-05
5.05075e-05
5.29126e-05
5.51023e-05
5.72301e-05
5.95606e-05
6.24882e-05
6.65078e-05
7.22003e-05
8.04458e-05
9.23539e-05
0.00010888
0.000131422
0.000161747
0.000202124
0.000255503
0.000325732
0.000417857
0.000538494
0.000696334
0.0009028
0.00117293
0.00152653
0.00198979
0.00259734
0.00339518
0.00443859
0.00578268
0.00761603
0.0100453
0.0132823
0.0185742
0.0360144
0.0535529
0.0709184
0.0879001
0.104332
0.120082
0.135042
0.149122
0.162243
0.174336
0.185288
0.195121
0.203728
0.211048
0.217038
0.221628
0.224906
0.227082
0.228418
0.229182
0.229593
0.229804
0.229908
0.229957
0.229981
0.229991
0.229996
0.229998
0.229999
0.23
0.23
0.23
0.23
0.23
0.23
0.23
0.23
0.23
5.36235e-10
2.34353e-09
5.38262e-09
1.04732e-08
1.8953e-08
3.2977e-08
5.59663e-08
9.32586e-08
1.53016e-07
2.47433e-07
3.9423e-07
6.18325e-07
9.53387e-07
1.44272e-06
2.13869e-06
3.09979e-06
4.3849e-06
6.04513e-06
8.11505e-06
1.06059e-05
1.35026e-05
1.67656e-05
2.03355e-05
2.41394e-05
2.8097e-05
3.21254e-05
3.61432e-05
4.0073e-05
4.38445e-05
4.73962e-05
5.06802e-05
5.367e-05
5.63762e-05
5.88724e-05
6.13272e-05
6.40287e-05
6.73781e-05
7.18757e-05
7.83162e-05
8.7676e-05
0.00010077
0.00011877
0.000143121
0.000175648
0.000218692
0.00027529
0.000349401
0.000446198
0.000572454
0.000737038
0.000951581
0.00123134
0.00159638
0.00207307
0.00269621
0.00351174
0.00457115
0.00592791
0.00776977
0.0101918
0.0133849
0.0204628
0.0379497
0.0555136
0.0728828
0.0898451
0.106235
0.121922
0.136801
0.15078
0.163782
0.175731
0.186591
0.196286
0.20473
0.211854
0.217611
0.222045
0.225198
0.227264
0.228523
0.229239
0.229622
0.229818
0.229914
0.22996
0.229982
0.229992
0.229996
0.229998
0.229999
0.23
0.23
0.23
0.23
0.23
0.23
0.23
0.23
0.23
5.43769e-10
2.37648e-09
5.45854e-09
1.06219e-08
1.92249e-08
3.34577e-08
5.67998e-08
9.4686e-08
1.55438e-07
2.51509e-07
4.01028e-07
6.29555e-07
9.71727e-07
1.47227e-06
2.18552e-06
3.17263e-06
4.49576e-06
6.20978e-06
8.35325e-06
1.09411e-05
1.39614e-05
1.73767e-05
2.11286e-05
2.51443e-05
2.93422e-05
3.36374e-05
3.79456e-05
4.21858e-05
4.62833e-05
5.01722e-05
5.37999e-05
5.71369e-05
6.01943e-05
6.30539e-05
6.59044e-05
6.90326e-05
7.28208e-05
7.7987e-05
8.54121e-05
9.58056e-05
0.000110178
0.000129737
0.000155968
0.000190746
0.000236472
0.000296253
0.000374127
0.000475358
0.000606814
0.000777464
0.000999027
0.00128683
0.00166096
0.00214772
0.00278168
0.00360817
0.00467628
0.00604053
0.00788755
0.0103073
0.0134882
0.0222635
0.0397532
0.0573017
0.074638
0.0915515
0.107873
0.123477
0.13826
0.152133
0.165041
0.176914
0.187689
0.197264
0.20557
0.212547
0.218156
0.222409
0.225441
0.227419
0.228612
0.229287
0.229647
0.22983
0.22992
0.229963
0.229983
0.229992
0.229997
0.229999
0.229999
0.23
0.23
0.23
0.23
0.23
0.23
0.23
0.23
0.23
5.51151e-10
2.40878e-09
5.533e-09
1.07679e-08
1.94923e-08
3.39312e-08
5.76226e-08
9.60987e-08
1.57842e-07
2.55565e-07
4.07815e-07
6.408e-07
9.90145e-07
1.50203e-06
2.23283e-06
3.24644e-06
4.60843e-06
6.37767e-06
8.59693e-06
1.12853e-05
1.44342e-05
1.80091e-05
2.19531e-05
2.61939e-05
3.06494e-05
3.52332e-05
3.98586e-05
4.44413e-05
4.89027e-05
5.31721e-05
5.71926e-05
6.09307e-05
6.43976e-05
6.76822e-05
7.09834e-05
7.45678e-05
7.90094e-05
8.50989e-05
9.34667e-05
0.000105011
0.000120775
0.000142
0.00017021
0.000207326
0.000255804
0.00031881
0.000400453
0.000506068
0.000642595
0.000819072
0.00104727
0.00134256
0.00172498
0.00222075
0.00286392
0.00369945
0.00477627
0.00614899
0.00800154
0.0104226
0.013598
0.0238563
0.0413505
0.058884
0.0761831
0.0930381
0.109296
0.124841
0.139569
0.153398
0.166235
0.178011
0.188662
0.198112
0.20629
0.213137
0.218615
0.222748
0.225649
0.227548
0.228687
0.229327
0.229667
0.22984
0.229925
0.229965
0.229984
0.229993
0.229997
0.229999
0.229999
0.23
0.23
0.23
0.23
0.23
0.23
0.23
0.23
0.23
5.58274e-10
2.43995e-09
5.6049e-09
1.0909e-08
1.97511e-08
3.43903e-08
5.84219e-08
9.7474e-08
1.60187e-07
2.59533e-07
4.14471e-07
6.51859e-07
1.00831e-06
1.53146e-06
2.27977e-06
3.31989e-06
4.72092e-06
6.54586e-06
8.84199e-06
1.16328e-05
1.49138e-05
1.86536e-05
2.27977e-05
2.72751e-05
3.20039e-05
3.68973e-05
4.18667e-05
4.68257e-05
5.16921e-05
5.63915e-05
6.0863e-05
6.50705e-05
6.90269e-05
7.28317e-05
7.66464e-05
8.08841e-05
8.62206e-05
9.32045e-05
0.000102647
0.000115475
0.00013276
0.000155776
0.000186089
0.000225665
0.000277012
0.000343357
0.000428873
0.000538961
0.000680628
0.000862972
0.00109781
0.00140054
0.00179105
0.00229516
0.00294722
0.00379287
0.00487914
0.00625927
0.00811729
0.010539
0.0137071
0.0252248
0.0427307
0.0602534
0.0775241
0.094356
0.110591
0.126091
0.140757
0.154502
0.167251
0.178934
0.189486
0.198831
0.206898
0.213631
0.218998
0.223026
0.225838
0.227654
0.228748
0.22936
0.229685
0.229848
0.229929
0.229967
0.229985
0.229993
0.229997
0.229999
0.229999
0.23
0.23
0.23
0.23
0.23
0.23
0.23
0.23
0.23
5.65001e-10
2.46939e-09
5.67287e-09
1.10424e-08
1.99962e-08
3.48257e-08
5.91813e-08
9.87831e-08
1.62425e-07
2.63327e-07
4.20851e-07
6.62487e-07
1.02582e-06
1.55991e-06
2.32527e-06
3.39133e-06
4.83071e-06
6.71065e-06
9.08307e-06
1.19762e-05
1.53902e-05
1.92972e-05
2.36461e-05
2.8368e-05
3.33825e-05
3.86031e-05
4.3941e-05
4.93085e-05
5.46214e-05
5.9803e-05
6.47895e-05
6.95447e-05
7.40869e-05
7.85116e-05
8.3059e-05
8.81753e-05
9.43926e-05
0.000102418
0.000113083
0.000127339
0.000146286
0.000171232
0.000203784
0.000245957
0.000300315
0.000370145
0.000459683
0.000574398
0.000721361
0.000909725
0.00115127
0.00146115
0.0018594
0.00237284
0.00303546
0.00389113
0.00498559
0.00637301
0.00823626
0.0106584
0.0138107
0.0263784
0.0439067
0.0614271
0.0786945
0.0955007
0.111691
0.127139
0.141746
0.155425
0.168101
0.179706
0.190174
0.19943
0.207405
0.214042
0.219314
0.223253
0.22599
0.227749
0.228798
0.229386
0.229698
0.229855
0.229932
0.229969
0.229986
0.229994
0.229997
0.229999
0.229999
0.23
0.23
0.23
0.23
0.23
0.23
0.23
0.23
0.23
5.71178e-10
2.49644e-09
5.73532e-09
1.11652e-08
2.02218e-08
3.5227e-08
5.98823e-08
9.99938e-08
1.64498e-07
2.6685e-07
4.2679e-07
6.72405e-07
1.0422e-06
1.5866e-06
2.3681e-06
3.4588e-06
4.9348e-06
6.86752e-06
9.31361e-06
1.23063e-05
1.58504e-05
1.99228e-05
2.4476e-05
2.94445e-05
3.47505e-05
4.03092e-05
4.60332e-05
5.18351e-05
5.76304e-05
6.33407e-05
6.89007e-05
7.42729e-05
7.94779e-05
8.45927e-05
9.00568e-05
9.61795e-05
0.000103498
0.000112756
0.000124814
0.000140652
0.000161402
0.000188413
0.000223337
0.00026824
0.000325742
0.000399197
0.00049291
0.000612393
0.000764731
0.00095899
0.00120711
0.00152465
0.00193202
0.0024547
0.00312651
0.0039915
0.00509396
0.00648812
0.00835564
0.0107767
0.0139103
0.0273407
0.0448946
0.0624211
0.0796715
0.0964501
0.112603
0.128008
0.142564
0.156187
0.168803
0.180342
0.190742
0.199925
0.207822
0.214379
0.219572
0.223438
0.226113
0.227825
0.228842
0.229408
0.229709
0.22986
0.229934
0.22997
0.229986
0.229994
0.229997
0.229999
0.229999
0.23
0.23
0.23
0.23
0.23
0.23
0.23
0.23
0.23
5.76644e-10
2.52037e-09
5.7906e-09
1.12739e-08
2.04219e-08
3.55833e-08
6.05054e-08
1.01072e-07
1.66348e-07
2.7e-07
4.32111e-07
6.81311e-07
1.05694e-06
1.61071e-06
2.4069e-06
3.52012e-06
5.02976e-06
7.01123e-06
9.5258e-06
1.26116e-05
1.62786e-05
2.05084e-05
2.52583e-05
3.04668e-05
3.606e-05
4.19569e-05
4.80731e-05
5.43241e-05
6.0628e-05
6.6909e-05
7.31048e-05
7.9184e-05
8.51794e-05
9.12421e-05
9.76933e-05
0.000104959
0.00011353
0.000124171
0.00013776
0.000155305
0.000177973
0.000207158
0.000244558
0.00029229
0.000353025
0.000430155
0.000527992
0.000652079
0.000809616
0.00100992
0.00126517
0.0015908
0.00200634
0.00253763
0.0032182
0.00409168
0.00520111
0.00660051
0.00847021
0.0108876
0.0140004
0.0281224
0.0456972
0.0632289
0.080468
0.0972239
0.113346
0.128714
0.143228
0.156805
0.169371
0.180858
0.191201
0.200324
0.208158
0.214651
0.219779
0.223585
0.22621
0.227884
0.228876
0.229428
0.229719
0.229865
0.229937
0.229971
0.229987
0.229994
0.229997
0.229999
0.23
0.23
0.23
0.23
0.23
0.23
0.23
0.23
0.23
0.23
5.81239e-10
2.5405e-09
5.8371e-09
1.13654e-08
2.05904e-08
3.58836e-08
6.10315e-08
1.01983e-07
1.67914e-07
2.72672e-07
4.36634e-07
6.88899e-07
1.06954e-06
1.63135e-06
2.44022e-06
3.57298e-06
5.11191e-06
7.13607e-06
9.71096e-06
1.28794e-05
1.66563e-05
2.10282e-05
2.59572e-05
3.1387e-05
3.72485e-05
4.34656e-05
4.9959e-05
5.66495e-05
6.34603e-05
7.03208e-05
7.71745e-05
8.39968e-05
9.08256e-05
9.7922e-05
0.00010554
0.000114169
0.000124167
0.000136323
0.000151545
0.000170871
0.000195507
0.000226882
0.000266742
0.000317241
0.0003811
0.000461778
0.000563687
0.000692654
0.000855891
0.00106271
0.00132478
0.00165748
0.00208057
0.00261959
0.00330767
0.00418783
0.00530201
0.00670341
0.0085712
0.0109812
0.014076
0.0287384
0.0463396
0.0638738
0.0811024
0.0978387
0.113935
0.129272
0.143751
0.157291
0.169817
0.181261
0.191561
0.200636
0.208421
0.214863
0.21994
0.2237
0.226285
0.22793
0.228902
0.229442
0.229726
0.229869
0.229938
0.229971
0.229987
0.229994
0.229997
0.229999
0.23
0.23
0.23
0.23
0.23
0.23
0.23
0.23
0.23
0.23
5.84819e-10
2.55618e-09
5.87334e-09
1.14367e-08
2.07219e-08
3.61182e-08
6.14428e-08
1.02697e-07
1.69142e-07
2.74769e-07
4.40192e-07
6.9488e-07
1.07949e-06
1.6477e-06
2.46669e-06
3.61508e-06
5.17756e-06
7.23622e-06
9.86012e-06
1.30961e-05
1.69635e-05
2.14534e-05
2.65329e-05
3.21503e-05
3.82423e-05
4.47386e-05
5.15666e-05
5.86546e-05
6.59348e-05
7.33472e-05
8.08487e-05
8.84336e-05
9.61827e-05
0.000104314
0.000113166
0.000123059
0.0001345
0.00014819
0.000165038
0.000186108
0.000212643
0.000246125
0.000288358
0.000341577
0.00040865
0.000493101
0.000599428
0.000733192
0.000901673
0.00111415
0.00138247
0.00172185
0.00215183
0.00269758
0.00339154
0.00427569
0.00539069
0.00678611
0.00863694
0.0110111
0.0140322
0.0291951
0.0468209
0.0643607
0.0815823
0.0983031
0.114378
0.129691
0.144143
0.157654
0.170149
0.181561
0.191827
0.200867
0.208614
0.215018
0.220058
0.223783
0.22634
0.227963
0.228921
0.229452
0.229731
0.229871
0.229939
0.229972
0.229987
0.229994
0.229998
0.229999
0.23
0.23
0.23
0.23
0.23
0.23
0.23
0.23
0.23
0.23
5.87263e-10
2.56688e-09
5.89808e-09
1.14855e-08
2.08116e-08
3.62784e-08
6.17237e-08
1.03184e-07
1.69981e-07
2.76205e-07
4.42629e-07
6.98982e-07
1.08632e-06
1.65895e-06
2.48494e-06
3.64419e-06
5.2231e-06
7.30591e-06
9.96432e-06
1.32482e-05
1.71801e-05
2.17547e-05
2.69429e-05
3.26975e-05
3.89596e-05
4.56644e-05
5.27457e-05
6.01394e-05
6.77869e-05
7.56401e-05
8.36715e-05
9.18987e-05
0.000100436
0.000109529
0.000119515
0.000130757
0.000143547
0.000158633
0.000176947
0.000199587
0.000227848
0.000263269
0.00030772
0.000363505
0.000433418
0.000521051
0.000630928
0.000768772
0.000941866
0.00115949
0.00143349
0.00177901
0.00221546
0.00276772
0.00346782
0.00435707
0.00547517
0.00687019
0.00871559
0.0110771
0.0140745
0.0294883
0.0471436
0.0646927
0.0819111
0.0986212
0.114681
0.129975
0.144408
0.157898
0.170372
0.181761
0.192003
0.201019
0.208742
0.21512
0.220135
0.223838
0.226376
0.227985
0.228933
0.229458
0.229734
0.229873
0.22994
0.229972
0.229988
0.229994
0.229998
0.229999
0.23
0.23
0.23
0.23
0.23
0.23
0.23
0.23
0.23
0.23
5.88485e-10
2.57222e-09
5.91041e-09
1.15097e-08
2.08561e-08
3.63575e-08
6.1862e-08
1.03423e-07
1.70392e-07
2.76907e-07
4.43818e-07
7.00982e-07
1.08965e-06
1.66443e-06
2.49385e-06
3.65842e-06
5.24542e-06
7.34018e-06
1.00158e-05
1.33236e-05
1.7288e-05
2.19056e-05
2.71496e-05
3.2975e-05
3.93258e-05
4.61405e-05
5.33569e-05
6.09156e-05
6.87645e-05
7.68632e-05
8.51948e-05
9.3791e-05
0.000102779
0.000112417
0.0001231
0.000135264
0.000149287
0.000165488
0.000184861
0.000208575
0.000237975
0.000274646
0.00032049
0.000377835
0.000449565
0.000539297
0.000651589
0.000792209
0.000968477
0.0011897
0.00146774
0.00181773
0.00225901
0.00281635
0.00352155
0.00441546
0.00553701
0.00693313
0.00877537
0.0111259
0.0140972
0.0296323
0.0473123
0.0648692
0.0820858
0.098789
0.114839
0.130122
0.144543
0.158021
0.170483
0.18186
0.19209
0.201094
0.208803
0.215169
0.220172
0.223863
0.226392
0.227995
0.228939
0.229461
0.229736
0.229874
0.229941
0.229973
0.229988
0.229994
0.229998
0.229999
0.23
0.23
0.23
0.23
0.23
0.23
0.23
0.23
0.23
0.23
5.88486e-10
2.57223e-09
5.91042e-09
1.15097e-08
2.08561e-08
3.63575e-08
6.18621e-08
1.03424e-07
1.70393e-07
2.76907e-07
4.43819e-07
7.00983e-07
1.08966e-06
1.66444e-06
2.49385e-06
3.65843e-06
5.24543e-06
7.34019e-06
1.00158e-05
1.33236e-05
1.7288e-05
2.19057e-05
2.71496e-05
3.2975e-05
3.93258e-05
4.61405e-05
5.33568e-05
6.09155e-05
6.87642e-05
7.68628e-05
8.51943e-05
9.37903e-05
0.000102778
0.000112416
0.0001231
0.000135263
0.000149286
0.000165488
0.000184861
0.000208575
0.000237976
0.000274647
0.000320491
0.000377836
0.000449566
0.000539298
0.00065159
0.000792211
0.000968479
0.0011897
0.00146774
0.00181773
0.00225901
0.00281636
0.00352155
0.00441547
0.00553702
0.00693313
0.00877536
0.0111259
0.0140971
0.0296323
0.0473122
0.0648691
0.0820858
0.0987889
0.114839
0.130122
0.144543
0.158021
0.170483
0.18186
0.19209
0.201094
0.208803
0.215169
0.220172
0.223863
0.226392
0.227995
0.228939
0.229461
0.229736
0.229874
0.229941
0.229973
0.229988
0.229994
0.229998
0.229999
0.23
0.23
0.23
0.23
0.23
0.23
0.23
0.23
0.23
0.23
5.87266e-10
2.56689e-09
5.89811e-09
1.14855e-08
2.08117e-08
3.62786e-08
6.17241e-08
1.03185e-07
1.69982e-07
2.76207e-07
4.42631e-07
6.98986e-07
1.08633e-06
1.65896e-06
2.48495e-06
3.64421e-06
5.22313e-06
7.30595e-06
9.96438e-06
1.32483e-05
1.71801e-05
2.17548e-05
2.6943e-05
3.26975e-05
3.89596e-05
4.56643e-05
5.27455e-05
6.0139e-05
6.77863e-05
7.56394e-05
8.36708e-05
9.1898e-05
0.000100435
0.000109527
0.000119513
0.000130756
0.000143545
0.000158632
0.000176946
0.000199587
0.000227848
0.00026327
0.000307721
0.000363507
0.000433421
0.000521054
0.000630932
0.000768776
0.000941871
0.0011595
0.0014335
0.00177902
0.00221546
0.00276772
0.00346783
0.00435707
0.00547517
0.0068702
0.00871558
0.0110771
0.0140745
0.0294882
0.0471435
0.0646926
0.081911
0.0986211
0.114681
0.129975
0.144408
0.157898
0.170372
0.181761
0.192003
0.201019
0.208742
0.21512
0.220135
0.223838
0.226376
0.227985
0.228933
0.229458
0.229734
0.229873
0.22994
0.229972
0.229988
0.229994
0.229998
0.229999
0.23
0.23
0.23
0.23
0.23
0.23
0.23
0.23
0.23
0.23
5.84823e-10
2.55619e-09
5.87338e-09
1.14368e-08
2.0722e-08
3.61184e-08
6.14431e-08
1.02697e-07
1.69142e-07
2.74771e-07
4.40193e-07
6.94882e-07
1.07949e-06
1.6477e-06
2.46669e-06
3.61508e-06
5.17757e-06
7.23621e-06
9.8601e-06
1.30961e-05
1.69634e-05
2.14533e-05
2.65326e-05
3.21499e-05
3.82416e-05
4.47376e-05
5.15651e-05
5.86526e-05
6.59321e-05
7.33438e-05
8.08449e-05
8.843e-05
9.61775e-05
0.000104308
0.00011316
0.000123052
0.000134494
0.000148185
0.000165035
0.000186106
0.000212642
0.000246125
0.000288359
0.000341578
0.000408652
0.000493104
0.000599431
0.000733195
0.000901677
0.00111415
0.00138248
0.00172186
0.00215184
0.00269758
0.00339155
0.0042757
0.00539069
0.00678612
0.00863694
0.011011
0.0140322
0.0291949
0.0468208
0.0643605
0.0815821
0.098303
0.114378
0.12969
0.144143
0.157654
0.170149
0.181561
0.191826
0.200867
0.208614
0.215018
0.220058
0.223783
0.22634
0.227963
0.228921
0.229452
0.229731
0.229871
0.229939
0.229972
0.229987
0.229994
0.229998
0.229999
0.23
0.23
0.23
0.23
0.23
0.23
0.23
0.23
0.23
0.23
5.81244e-10
2.54052e-09
5.83715e-09
1.13655e-08
2.05906e-08
3.58839e-08
6.1032e-08
1.01984e-07
1.67915e-07
2.72674e-07
4.36637e-07
6.88904e-07
1.06955e-06
1.63136e-06
2.44024e-06
3.57299e-06
5.11192e-06
7.13608e-06
9.71095e-06
1.28794e-05
1.66562e-05
2.1028e-05
2.59569e-05
3.13865e-05
3.72477e-05
4.34644e-05
4.99573e-05
5.66471e-05
6.34571e-05
7.03164e-05
7.71685e-05
8.39884e-05
9.08182e-05
9.79148e-05
0.000105534
0.000114163
0.000124164
0.000136322
0.000151545
0.000170872
0.000195508
0.000226884
0.000266744
0.000317242
0.000381102
0.00046178
0.000563687
0.000692654
0.000855888
0.0010627
0.00132478
0.00165748
0.00208056
0.00261959
0.00330767
0.00418784
0.00530202
0.00670341
0.0085712
0.0109812
0.0140759
0.0287382
0.0463394
0.0638736
0.0811023
0.0978385
0.113935
0.129271
0.143751
0.157291
0.169817
0.181261
0.19156
0.200636
0.208421
0.214863
0.21994
0.2237
0.226285
0.22793
0.228902
0.229442
0.229726
0.229869
0.229938
0.229971
0.229987
0.229994
0.229997
0.229999
0.23
0.23
0.23
0.23
0.23
0.23
0.23
0.23
0.23
0.23
5.76651e-10
2.5204e-09
5.79067e-09
1.1274e-08
2.04221e-08
3.55836e-08
6.05061e-08
1.01073e-07
1.66349e-07
2.70002e-07
4.32115e-07
6.81317e-07
1.05695e-06
1.61072e-06
2.40691e-06
3.52014e-06
5.02978e-06
7.01125e-06
9.5258e-06
1.26116e-05
1.62785e-05
2.05083e-05
2.5258e-05
3.04663e-05
3.60593e-05
4.19559e-05
4.80717e-05
5.43223e-05
6.06257e-05
6.69062e-05
7.31017e-05
7.91814e-05
8.51778e-05
9.12384e-05
9.76888e-05
0.000104956
0.000113527
0.000124169
0.000137759
0.000155305
0.000177974
0.00020716
0.00024456
0.000292291
0.000353025
0.000430154
0.000527988
0.00065207
0.0008096
0.00100989
0.00126513
0.00159074
0.00200627
0.00253758
0.00321817
0.00409167
0.00520111
0.00660053
0.00847023
0.0108876
0.0140004
0.0281221
0.045697
0.0632287
0.0804679
0.0972238
0.113346
0.128714
0.143228
0.156805
0.169371
0.180857
0.191201
0.200324
0.208158
0.214651
0.219779
0.223585
0.22621
0.227884
0.228876
0.229427
0.229719
0.229865
0.229937
0.229971
0.229987
0.229994
0.229997
0.229999
0.23
0.23
0.23
0.23
0.23
0.23
0.23
0.23
0.23
0.23
5.71187e-10
2.49648e-09
5.7354e-09
1.11653e-08
2.02221e-08
3.52275e-08
5.98831e-08
9.99951e-08
1.645e-07
2.66853e-07
4.26796e-07
6.72412e-07
1.04221e-06
1.58662e-06
2.36812e-06
3.45883e-06
4.93483e-06
6.86754e-06
9.31363e-06
1.23062e-05
1.58503e-05
1.99227e-05
2.44759e-05
2.94443e-05
3.47502e-05
4.03089e-05
4.60328e-05
5.18347e-05
5.76301e-05
6.33407e-05
6.89009e-05
7.42731e-05
7.94774e-05
8.45943e-05
9.0059e-05
9.61807e-05
0.000103499
0.000112757
0.000124815
0.000140652
0.000161403
0.000188415
0.000223339
0.000268242
0.000325744
0.000399198
0.000492908
0.000612385
0.00076471
0.000958945
0.00120701
0.00152445
0.00193163
0.00245453
0.00312644
0.00399148
0.00509397
0.00648815
0.00835568
0.0107768
0.0139103
0.0273405
0.0448946
0.0624213
0.0796718
0.0964504
0.112603
0.128008
0.142564
0.156187
0.168803
0.180342
0.190742
0.199925
0.207822
0.214379
0.219572
0.223437
0.226113
0.227824
0.228842
0.229408
0.229709
0.22986
0.229934
0.22997
0.229986
0.229994
0.229997
0.229999
0.229999
0.23
0.23
0.23
0.23
0.23
0.23
0.23
0.23
0.23
5.65011e-10
2.46944e-09
5.67297e-09
1.10426e-08
1.99966e-08
3.48263e-08
5.91822e-08
9.87847e-08
1.62427e-07
2.63331e-07
4.20858e-07
6.62496e-07
1.02583e-06
1.55993e-06
2.3253e-06
3.39136e-06
4.83075e-06
6.7107e-06
9.08312e-06
1.19762e-05
1.53902e-05
1.92972e-05
2.36461e-05
2.83679e-05
3.33824e-05
3.8603e-05
4.3941e-05
4.93086e-05
5.46219e-05
5.98038e-05
6.47909e-05
6.95466e-05
7.40895e-05
7.85162e-05
8.30625e-05
8.81781e-05
9.43946e-05
0.000102419
0.000113085
0.000127341
0.000146288
0.000171235
0.000203788
0.000245962
0.000300322
0.000370155
0.000459699
0.000574422
0.000721401
0.000909793
0.00115139
0.00146137
0.00185982
0.00237305
0.00303558
0.00389122
0.00498568
0.00637311
0.0082364
0.0106586
0.0138109
0.0263785
0.0439074
0.0614282
0.0786961
0.0955029
0.111693
0.127141
0.141747
0.155426
0.168102
0.179706
0.190174
0.19943
0.207405
0.214042
0.219313
0.223253
0.22599
0.227749
0.228798
0.229386
0.229698
0.229855
0.229932
0.229969
0.229986
0.229994
0.229997
0.229999
0.229999
0.23
0.23
0.23
0.23
0.23
0.23
0.23
0.23
0.23
5.58286e-10
2.44e-09
5.60502e-09
1.09092e-08
1.97515e-08
3.4391e-08
5.8423e-08
9.74758e-08
1.6019e-07
2.59537e-07
4.14478e-07
6.5187e-07
1.00833e-06
1.53148e-06
2.2798e-06
3.31993e-06
4.72097e-06
6.54592e-06
8.84205e-06
1.16328e-05
1.49139e-05
1.86536e-05
2.27977e-05
2.7275e-05
3.20038e-05
3.68972e-05
4.18666e-05
4.68256e-05
5.16922e-05
5.63918e-05
6.08634e-05
6.50707e-05
6.9026e-05
7.28279e-05
7.6645e-05
8.08858e-05
8.62235e-05
9.32076e-05
0.00010265
0.000115478
0.000132763
0.00015578
0.000186094
0.000225671
0.00027702
0.000343369
0.00042889
0.000538986
0.000680664
0.000863023
0.00109788
0.00140063
0.00179116
0.00229526
0.00294732
0.00379296
0.00487924
0.0062594
0.00811746
0.0105393
0.0137074
0.0252253
0.0427323
0.0602566
0.0775298
0.0943671
0.110597
0.126096
0.14076
0.154504
0.167253
0.178935
0.189487
0.198831
0.206898
0.213631
0.218998
0.223026
0.225838
0.227654
0.228748
0.22936
0.229685
0.229848
0.229929
0.229967
0.229985
0.229993
0.229997
0.229999
0.229999
0.23
0.23
0.23
0.23
0.23
0.23
0.23
0.23
0.23
5.51165e-10
2.40884e-09
5.53314e-09
1.07681e-08
1.94928e-08
3.3932e-08
5.76239e-08
9.61008e-08
1.57845e-07
2.5557e-07
4.07823e-07
6.40812e-07
9.90164e-07
1.50205e-06
2.23287e-06
3.24649e-06
4.60849e-06
6.37774e-06
8.59701e-06
1.12853e-05
1.44343e-05
1.80091e-05
2.19531e-05
2.61938e-05
3.06492e-05
3.5233e-05
3.98583e-05
4.44411e-05
4.89025e-05
5.31722e-05
5.71931e-05
6.09322e-05
6.44011e-05
6.76896e-05
7.09935e-05
7.45732e-05
7.9013e-05
8.51016e-05
9.3469e-05
0.000105013
0.000120777
0.000142002
0.000170212