/*--------------------------------*- C++ -*----------------------------------*\
  =========                 |
  \\      /  F ield         | OpenFOAM: The Open Source CFD Toolbox
   \\    /   O peration     | Website:  https://openfoam.org
    \\  /    A nd           | Version:  8
     \\/     M anipulation  |
\*---------------------------------------------------------------------------*/
FoamFile
{
    version     2.0;
    format      ascii;
    class       surfaceScalarField;
    location    "740/fluid";
    object      phi;
}
// * * * * * * * * * * * * * * * * * * * * * * * * * * * * * * * * * * * * * //

dimensions      [1 0 -1 0 0 0 0];

internalField   nonuniform List<scalar> 
7860
(
6.57264e-07
-1.77693e-08
6.54583e-07
-5.33085e-08
6.50767e-07
-8.86703e-08
6.45706e-07
-1.23752e-07
6.39266e-07
-1.58554e-07
6.31283e-07
-1.93032e-07
6.21574e-07
-2.27102e-07
6.09938e-07
-2.60643e-07
5.96171e-07
-2.93487e-07
5.80079e-07
-3.25411e-07
5.61489e-07
-3.56129e-07
5.40281e-07
-3.85274e-07
5.16429e-07
-4.12388e-07
4.90105e-07
-4.36928e-07
4.61592e-07
-4.58255e-07
4.31252e-07
-4.75705e-07
3.99557e-07
-4.88721e-07
3.67049e-07
-4.97009e-07
3.3429e-07
-5.00655e-07
3.01789e-07
-5.00147e-07
2.69952e-07
-4.96269e-07
2.39066e-07
-4.8993e-07
2.09308e-07
-4.81987e-07
1.80811e-07
-4.73137e-07
1.53624e-07
-4.63865e-07
1.27708e-07
-4.54469e-07
1.02996e-07
-4.45111e-07
7.94111e-08
-4.35859e-07
5.6883e-08
-4.26725e-07
3.53492e-08
-4.17691e-07
1.47572e-08
-4.08727e-07
-4.93478e-09
-3.99807e-07
-2.37549e-08
-3.90912e-07
-4.17312e-08
-3.82031e-07
-5.8895e-08
-3.73169e-07
-7.52697e-08
-3.64314e-07
-9.08747e-08
-3.55428e-07
-1.05729e-07
-3.46522e-07
-1.19851e-07
-3.37617e-07
-1.33259e-07
-3.28735e-07
-1.45971e-07
-3.199e-07
-1.58006e-07
-3.11138e-07
-1.69384e-07
-3.02475e-07
-1.80122e-07
-2.93939e-07
-1.90242e-07
-2.85556e-07
-1.99763e-07
-2.77354e-07
-2.08705e-07
-2.69359e-07
-2.17089e-07
-2.61598e-07
-2.24936e-07
-2.54096e-07
-2.32266e-07
-2.4688e-07
-2.39101e-07
-2.39976e-07
-2.45463e-07
-2.33411e-07
-2.51376e-07
-2.27214e-07
-2.56866e-07
-2.2142e-07
-2.61961e-07
-2.16065e-07
-2.66695e-07
-2.11193e-07
-2.71112e-07
-2.06858e-07
-2.75264e-07
-2.03154e-07
-2.7921e-07
-2.0015e-07
-2.83024e-07
-1.97908e-07
-2.86839e-07
-1.96669e-07
-2.91091e-07
-1.96604e-07
-2.96047e-07
-1.98883e-07
-3.02925e-07
-2.10009e-07
-3.1085e-07
-2.2245e-07
-3.19632e-07
-2.36181e-07
-3.29322e-07
-2.51384e-07
-3.40039e-07
-2.68299e-07
-3.51944e-07
-2.87198e-07
-3.65254e-07
-3.08409e-07
-3.80263e-07
-3.32327e-07
-3.97366e-07
-3.59418e-07
-4.17094e-07
-3.90219e-07
-4.40131e-07
-4.25453e-07
-4.6734e-07
-4.65777e-07
-4.99697e-07
-5.11209e-07
-5.38097e-07
-5.60676e-07
-5.82821e-07
-6.11243e-07
-6.33625e-07
-6.57424e-07
-6.89314e-07
-6.92113e-07
-7.47532e-07
-7.09693e-07
-8.05349e-07
-7.09092e-07
-8.6026e-07
-6.93552e-07
-9.10712e-07
-6.67748e-07
-9.56047e-07
-6.35702e-07
-9.96084e-07
-6.00019e-07
-1.0307e-06
-5.62139e-07
-1.06025e-06
-5.22748e-07
-1.08527e-06
-4.82282e-07
-1.1063e-06
-4.41071e-07
-1.12383e-06
-3.99367e-07
-1.1383e-06
-3.57363e-07
-1.15013e-06
-3.1521e-07
-1.15968e-06
-2.73018e-07
-1.16727e-06
-2.30862e-07
-1.17317e-06
-1.88782e-07
-1.17762e-06
-1.46787e-07
-1.18082e-06
-1.04855e-07
-1.18292e-06
-6.29237e-08
-2.09814e-08
6.57908e-07
-1.71436e-08
6.55773e-07
-5.11733e-08
6.5205e-07
-8.49475e-08
6.46738e-07
-1.1844e-07
6.3977e-07
-1.51585e-07
6.31045e-07
-1.84307e-07
6.20449e-07
-2.16507e-07
6.07868e-07
-2.48062e-07
5.93197e-07
-2.78815e-07
5.76354e-07
-3.08568e-07
5.57294e-07
-3.37069e-07
5.36019e-07
-3.63999e-07
5.12597e-07
-3.88965e-07
4.87188e-07
-4.11518e-07
4.60022e-07
-4.31088e-07
4.31395e-07
-4.47075e-07
4.01673e-07
-4.58996e-07
3.71273e-07
-4.66606e-07
3.40622e-07
-4.69999e-07
3.10103e-07
-4.69624e-07
2.80028e-07
-4.66189e-07
2.50618e-07
-4.60514e-07
2.22016e-07
-4.5338e-07
1.9432e-07
-4.45436e-07
1.67582e-07
-4.37121e-07
1.41811e-07
-4.28694e-07
1.16999e-07
-4.20294e-07
9.31252e-08
-4.11982e-07
7.01682e-08
-4.03765e-07
4.81064e-08
-3.95626e-07
2.69193e-08
-3.87537e-07
6.587e-09
-3.79472e-07
-1.29091e-08
-3.71413e-07
-3.1586e-08
-3.63352e-07
-4.94613e-08
-3.55291e-07
-6.65493e-08
-3.47224e-07
-8.28636e-08
-3.39111e-07
-9.84195e-08
-3.30963e-07
-1.13233e-07
-3.22801e-07
-1.2732e-07
-3.14645e-07
-1.407e-07
-3.06518e-07
-1.5339e-07
-2.98445e-07
-1.6541e-07
-2.90453e-07
-1.7678e-07
-2.82566e-07
-1.87522e-07
-2.74812e-07
-1.97657e-07
-2.67217e-07
-2.07207e-07
-2.59806e-07
-2.16197e-07
-2.52606e-07
-2.24649e-07
-2.45642e-07
-2.32589e-07
-2.38938e-07
-2.40044e-07
-2.32519e-07
-2.47043e-07
-2.26411e-07
-2.53616e-07
-2.2064e-07
-2.59798e-07
-2.15236e-07
-2.65631e-07
-2.1023e-07
-2.71164e-07
-2.05659e-07
-2.76459e-07
-2.01563e-07
-2.8159e-07
-1.98022e-07
-2.86661e-07
-1.95078e-07
-2.91816e-07
-1.92752e-07
-2.97285e-07
-1.912e-07
-3.03345e-07
-1.90541e-07
-3.09131e-07
-1.93112e-07
-3.16174e-07
-2.02968e-07
-3.24447e-07
-2.14179e-07
-3.33848e-07
-2.26781e-07
-3.44371e-07
-2.40863e-07
-3.56089e-07
-2.56581e-07
-3.69135e-07
-2.74152e-07
-3.83692e-07
-2.93852e-07
-3.99995e-07
-3.16024e-07
-4.18336e-07
-3.41076e-07
-4.3906e-07
-3.69494e-07
-4.62549e-07
-4.01962e-07
-4.89276e-07
-4.39046e-07
-5.19778e-07
-4.80703e-07
-5.54566e-07
-5.25881e-07
-5.93964e-07
-5.71838e-07
-6.3805e-07
-6.13329e-07
-6.86246e-07
-6.4391e-07
-7.37008e-07
-6.58926e-07
-7.88196e-07
-6.57901e-07
-8.37857e-07
-6.43888e-07
-8.84679e-07
-6.20925e-07
-9.28014e-07
-5.92365e-07
-9.67607e-07
-5.60427e-07
-1.0033e-06
-5.26446e-07
-1.03508e-06
-4.90964e-07
-1.06306e-06
-4.54303e-07
-1.08741e-06
-4.16724e-07
-1.10835e-06
-3.7843e-07
-1.12613e-06
-3.39585e-07
-1.14101e-06
-3.00323e-07
-1.15327e-06
-2.60755e-07
-1.16317e-06
-2.20968e-07
-1.17093e-06
-1.81025e-07
-1.17674e-06
-1.40971e-07
-1.18077e-06
-1.00827e-07
-1.18309e-06
-6.06012e-08
-2.02511e-08
6.5761e-07
-1.62194e-08
6.54936e-07
-4.84998e-08
6.50525e-07
-8.0536e-08
6.4434e-07
-1.12256e-07
6.36342e-07
-1.43587e-07
6.2648e-07
-1.74445e-07
6.14708e-07
-2.04735e-07
6.00989e-07
-2.34343e-07
5.85305e-07
-2.6313e-07
5.67662e-07
-2.90926e-07
5.48104e-07
-3.17511e-07
5.26707e-07
-3.42601e-07
5.03581e-07
-3.65839e-07
4.78844e-07
-3.86781e-07
4.52675e-07
-4.04918e-07
4.25337e-07
-4.19735e-07
3.97152e-07
-4.30809e-07
3.68475e-07
-4.37927e-07
3.39654e-07
-4.41176e-07
3.10997e-07
-4.40964e-07
2.82746e-07
-4.37934e-07
2.5507e-07
-4.32835e-07
2.28069e-07
-4.26375e-07
2.01773e-07
-4.19136e-07
1.76187e-07
-4.11531e-07
1.5132e-07
-4.03823e-07
1.2718e-07
-3.96151e-07
1.03775e-07
-3.88573e-07
8.11073e-08
-3.81095e-07
5.91806e-08
-3.73696e-07
3.79955e-08
-3.66349e-07
1.75514e-08
-3.59026e-07
-2.15406e-09
-3.51706e-07
-2.11253e-08
-3.44379e-07
-3.93689e-08
-3.37046e-07
-5.68895e-08
-3.29701e-07
-7.36926e-08
-3.22306e-07
-8.97866e-08
-3.14868e-07
-1.05182e-07
-3.07404e-07
-1.19889e-07
-2.99935e-07
-1.33924e-07
-2.92482e-07
-1.473e-07
-2.85067e-07
-1.60036e-07
-2.77716e-07
-1.72149e-07
-2.70451e-07
-1.83661e-07
-2.63299e-07
-1.94593e-07
-2.56284e-07
-2.04968e-07
-2.4943e-07
-2.14813e-07
-2.42761e-07
-2.24154e-07
-2.363e-07
-2.33021e-07
-2.30069e-07
-2.41447e-07
-2.24092e-07
-2.49467e-07
-2.18389e-07
-2.57122e-07
-2.12984e-07
-2.64458e-07
-2.079e-07
-2.71527e-07
-2.03161e-07
-2.7839e-07
-1.98795e-07
-2.85119e-07
-1.94832e-07
-2.91799e-07
-1.91341e-07
-2.98533e-07
-1.88343e-07
-3.05442e-07
-1.85842e-07
-3.12666e-07
-1.83975e-07
-3.20364e-07
-1.82841e-07
-3.27126e-07
-1.86359e-07
-3.34916e-07
-1.95179e-07
-3.43784e-07
-2.05312e-07
-3.53753e-07
-2.16812e-07
-3.6487e-07
-2.29746e-07
-3.77211e-07
-2.44241e-07
-3.90876e-07
-2.60486e-07
-4.05992e-07
-2.78735e-07
-4.22704e-07
-2.9931e-07
-4.41173e-07
-3.22605e-07
-4.61551e-07
-3.49111e-07
-4.83991e-07
-3.79517e-07
-5.08721e-07
-4.14308e-07
-5.36073e-07
-4.53342e-07
-5.66555e-07
-4.95389e-07
-6.00953e-07
-5.37429e-07
-6.3983e-07
-5.74442e-07
-6.82966e-07
-6.00764e-07
-7.2909e-07
-6.12795e-07
-7.76278e-07
-6.10708e-07
-8.2271e-07
-5.97453e-07
-8.67094e-07
-5.76539e-07
-9.08711e-07
-5.50748e-07
-9.47254e-07
-5.21883e-07
-9.82727e-07
-4.90973e-07
-1.0151e-06
-4.58592e-07
-1.04433e-06
-4.25071e-07
-1.07044e-06
-3.90618e-07
-1.09348e-06
-3.55386e-07
-1.11357e-06
-3.195e-07
-1.13082e-06
-2.83068e-07
-1.14539e-06
-2.46185e-07
-1.15742e-06
-2.08935e-07
-1.16706e-06
-1.71387e-07
-1.17443e-06
-1.336e-07
-1.17964e-06
-9.56187e-08
-1.18276e-06
-5.74772e-08
-1.91945e-08
6.57629e-07
-1.53143e-08
6.5489e-07
-4.57608e-08
6.50311e-07
-7.59577e-08
6.43891e-07
-1.05835e-07
6.35618e-07
-1.35314e-07
6.25483e-07
-1.6431e-07
6.13476e-07
-1.92728e-07
5.99594e-07
-2.20461e-07
5.83845e-07
-2.47381e-07
5.66251e-07
-2.73332e-07
5.46853e-07
-2.98112e-07
5.25719e-07
-3.21468e-07
5.02953e-07
-3.43072e-07
4.78698e-07
-3.62526e-07
4.53154e-07
-3.79373e-07
4.26569e-07
-3.9315e-07
3.99232e-07
-4.03472e-07
3.71453e-07
-4.10146e-07
3.43529e-07
-4.13251e-07
3.15724e-07
-4.13157e-07
2.88248e-07
-4.10456e-07
2.6125e-07
-4.05835e-07
2.34827e-07
-3.9995e-07
2.09033e-07
-3.93339e-07
1.83893e-07
-3.86389e-07
1.59416e-07
-3.79345e-07
1.35605e-07
-3.72338e-07
1.12458e-07
-3.65424e-07
8.99744e-08
-3.58609e-07
6.81528e-08
-3.51873e-07
4.69937e-08
-3.45189e-07
2.64976e-08
-3.38528e-07
6.6644e-09
-3.31871e-07
-1.2507e-08
-3.25206e-07
-3.10194e-08
-3.18532e-07
-4.88741e-08
-3.11845e-07
-6.60727e-08
-3.05106e-07
-8.26198e-08
-2.98319e-07
-9.85221e-08
-2.91501e-07
-1.13788e-07
-2.84668e-07
-1.28429e-07
-2.7784e-07
-1.42457e-07
-2.71038e-07
-1.55888e-07
-2.64283e-07
-1.68739e-07
-2.57598e-07
-1.8103e-07
-2.51006e-07
-1.92782e-07
-2.44531e-07
-2.04018e-07
-2.38192e-07
-2.14765e-07
-2.32013e-07
-2.25051e-07
-2.26012e-07
-2.34907e-07
-2.20212e-07
-2.44369e-07
-2.14629e-07
-2.53473e-07
-2.09284e-07
-2.62262e-07
-2.04194e-07
-2.70783e-07
-1.99378e-07
-2.79089e-07
-1.94854e-07
-2.87238e-07
-1.90644e-07
-2.95298e-07
-1.86772e-07
-3.03339e-07
-1.833e-07
-3.1145e-07
-1.80232e-07
-3.19721e-07
-1.77571e-07
-3.28249e-07
-1.75446e-07
-3.37121e-07
-1.73965e-07
-3.44873e-07
-1.78608e-07
-3.53487e-07
-1.86564e-07
-3.63021e-07
-1.95778e-07
-3.73534e-07
-2.06298e-07
-3.85097e-07
-2.18181e-07
-3.9779e-07
-2.31546e-07
-4.117e-07
-2.46573e-07
-4.26925e-07
-2.63505e-07
-4.43577e-07
-2.82654e-07
-4.61778e-07
-3.04398e-07
-4.81645e-07
-3.29237e-07
-5.03333e-07
-3.5782e-07
-5.27116e-07
-3.90514e-07
-5.5339e-07
-4.27054e-07
-5.82699e-07
-4.66066e-07
-6.15653e-07
-5.0446e-07
-6.52628e-07
-5.37452e-07
-6.93333e-07
-5.60048e-07
-7.3663e-07
-5.69491e-07
-7.8091e-07
-5.66423e-07
-8.24677e-07
-5.53683e-07
-8.66849e-07
-5.34366e-07
-9.06761e-07
-5.10835e-07
-9.44058e-07
-4.84586e-07
-9.78576e-07
-4.56455e-07
-1.01026e-06
-4.26907e-07
-1.03911e-06
-3.96218e-07
-1.06516e-06
-3.6457e-07
-1.08845e-06
-3.32102e-07
-1.10902e-06
-2.98926e-07
-1.12695e-06
-2.65141e-07
-1.14229e-06
-2.30837e-07
-1.15514e-06
-1.96094e-07
-1.16554e-06
-1.60984e-07
-1.17357e-06
-1.25572e-07
-1.17927e-06
-8.99149e-08
-1.18268e-06
-5.40639e-08
-1.80573e-08
6.57566e-07
-1.43464e-08
6.54688e-07
-4.2883e-08
6.49913e-07
-7.11828e-08
6.43246e-07
-9.91685e-08
6.34694e-07
-1.26762e-07
6.24264e-07
-1.5388e-07
6.1197e-07
-1.80434e-07
5.97833e-07
-2.06324e-07
5.81884e-07
-2.31432e-07
5.64169e-07
-2.55617e-07
5.44754e-07
-2.78697e-07
5.23728e-07
-3.00441e-07
5.01209e-07
-3.20553e-07
4.7735e-07
-3.38667e-07
4.52343e-07
-3.54367e-07
4.26419e-07
-3.67225e-07
3.99837e-07
-3.7689e-07
3.7287e-07
-3.83178e-07
3.45779e-07
-3.8616e-07
3.18793e-07
-3.8617e-07
2.92092e-07
-3.83754e-07
2.65805e-07
-3.79547e-07
2.40016e-07
-3.7416e-07
2.14772e-07
-3.68095e-07
1.90099e-07
-3.61715e-07
1.66008e-07
-3.55253e-07
1.42504e-07
-3.48833e-07
1.19589e-07
-3.42508e-07
9.72628e-08
-3.36282e-07
7.55286e-08
-3.30138e-07
5.43881e-08
-3.24048e-07
3.38438e-08
-3.17983e-07
1.38972e-08
-3.11924e-07
-5.45097e-09
-3.05857e-07
-2.42e-08
-2.99783e-07
-4.23515e-08
-2.93693e-07
-5.99048e-08
-2.87552e-07
-7.68623e-08
-2.81361e-07
-9.32283e-08
-2.75134e-07
-1.0901e-07
-2.68886e-07
-1.24216e-07
-2.62634e-07
-1.38857e-07
-2.56396e-07
-1.52948e-07
-2.50192e-07
-1.66503e-07
-2.44043e-07
-1.79541e-07
-2.37969e-07
-1.92081e-07
-2.3199e-07
-2.04147e-07
-2.26126e-07
-2.15764e-07
-2.20395e-07
-2.26958e-07
-2.14817e-07
-2.37762e-07
-2.09408e-07
-2.48206e-07
-2.04185e-07
-2.58326e-07
-1.99163e-07
-2.68162e-07
-1.94358e-07
-2.77756e-07
-1.89784e-07
-2.87152e-07
-1.85457e-07
-2.96402e-07
-1.81394e-07
-3.0556e-07
-1.77614e-07
-3.14681e-07
-1.74179e-07
-3.23837e-07
-1.71074e-07
-3.33098e-07
-1.6831e-07
-3.42541e-07
-1.66003e-07
-3.52233e-07
-1.64269e-07
-3.60992e-07
-1.69846e-07
-3.70422e-07
-1.77133e-07
-3.80601e-07
-1.85596e-07
-3.91624e-07
-1.95273e-07
-4.03578e-07
-2.06224e-07
-4.16548e-07
-2.18572e-07
-4.30622e-07
-2.32494e-07
-4.4589e-07
-2.48231e-07
-4.62449e-07
-2.66087e-07
-4.80407e-07
-2.86431e-07
-4.9986e-07
-3.09773e-07
-5.20957e-07
-3.36709e-07
-5.43956e-07
-3.67499e-07
-5.69228e-07
-4.01765e-07
-5.97273e-07
-4.38002e-07
-6.28641e-07
-4.73073e-07
-6.63656e-07
-5.02421e-07
-7.02031e-07
-5.21659e-07
-7.42756e-07
-5.28757e-07
-7.8445e-07
-5.24724e-07
-8.25844e-07
-5.12286e-07
-8.66017e-07
-4.94191e-07
-9.04385e-07
-4.72466e-07
-9.40604e-07
-4.48367e-07
-9.74469e-07
-4.22589e-07
-1.00586e-06
-3.95517e-07
-1.0347e-06
-3.67377e-07
-1.06095e-06
-3.38316e-07
-1.08461e-06
-3.08447e-07
-1.10567e-06
-2.77865e-07
-1.12415e-06
-2.46656e-07
-1.14009e-06
-2.14901e-07
-1.15351e-06
-1.82675e-07
-1.16444e-06
-1.5005e-07
-1.17292e-06
-1.17093e-07
-1.17897e-06
-8.3867e-08
-1.1826e-06
-5.04308e-08
-1.68406e-08
6.57563e-07
-1.33755e-08
6.54658e-07
-3.99777e-08
6.4983e-07
-6.63557e-08
6.43097e-07
-9.2435e-08
6.34475e-07
-1.18139e-07
6.23985e-07
-1.4339e-07
6.11653e-07
-1.68103e-07
5.97514e-07
-1.92184e-07
5.81608e-07
-2.15527e-07
5.63991e-07
-2.38e-07
5.44732e-07
-2.59439e-07
5.23922e-07
-2.79632e-07
5.01678e-07
-2.98309e-07
4.78147e-07
-3.15137e-07
4.53515e-07
-3.29735e-07
4.28001e-07
-3.41711e-07
4.01851e-07
-3.50741e-07
3.75327e-07
-3.56654e-07
3.48675e-07
-3.59508e-07
3.22114e-07
-3.5961e-07
2.95818e-07
-3.57457e-07
2.69908e-07
-3.53637e-07
2.44464e-07
-3.48716e-07
2.19532e-07
-3.43162e-07
1.95132e-07
-3.37316e-07
1.71275e-07
-3.31395e-07
1.47961e-07
-3.25519e-07
1.25189e-07
-3.19735e-07
1.02958e-07
-3.14051e-07
8.12683e-08
-3.08448e-07
6.01208e-08
-3.029e-07
3.9517e-08
-2.97379e-07
1.94587e-08
-2.91865e-07
-5.28713e-11
-2.86345e-07
-1.90204e-08
-2.80815e-07
-3.74412e-08
-2.75272e-07
-5.53143e-08
-2.69678e-07
-7.26412e-08
-2.64034e-07
-8.9425e-08
-2.5835e-07
-1.05671e-07
-2.52639e-07
-1.21386e-07
-2.46917e-07
-1.36581e-07
-2.412e-07
-1.51266e-07
-2.35506e-07
-1.65456e-07
-2.29852e-07
-1.79167e-07
-2.24258e-07
-1.92417e-07
-2.18739e-07
-2.05228e-07
-2.13315e-07
-2.17621e-07
-2.08002e-07
-2.29622e-07
-2.02816e-07
-2.41257e-07
-1.97773e-07
-2.52556e-07
-1.92886e-07
-2.63549e-07
-1.8817e-07
-2.7427e-07
-1.83637e-07
-2.84752e-07
-1.79302e-07
-2.95031e-07
-1.75178e-07
-3.05145e-07
-1.7128e-07
-3.15133e-07
-1.67626e-07
-3.25032e-07
-1.64279e-07
-3.34908e-07
-1.61197e-07
-3.44787e-07
-1.5843e-07
-3.54746e-07
-1.56043e-07
-3.6486e-07
-1.54151e-07
-3.74626e-07
-1.60079e-07
-3.84796e-07
-1.6696e-07
-3.95548e-07
-1.74841e-07
-4.07017e-07
-1.838e-07
-4.19306e-07
-1.9393e-07
-4.32509e-07
-2.05362e-07
-4.46716e-07
-2.1828e-07
-4.62017e-07
-2.32921e-07
-4.78513e-07
-2.49581e-07
-4.9631e-07
-2.68621e-07
-5.15517e-07
-2.9055e-07
-5.36313e-07
-3.15895e-07
-5.58978e-07
-3.44814e-07
-5.839e-07
-3.76821e-07
-6.11574e-07
-4.10306e-07
-6.42489e-07
-4.42136e-07
-6.76845e-07
-4.68046e-07
-7.14232e-07
-4.84258e-07
-7.53618e-07
-4.89362e-07
-7.93721e-07
-4.84615e-07
-8.33425e-07
-4.72578e-07
-8.71944e-07
-4.5567e-07
-9.08787e-07
-4.35622e-07
-9.43663e-07
-4.13491e-07
-9.76396e-07
-3.89856e-07
-1.00687e-06
-3.65039e-07
-1.03502e-06
-3.39227e-07
-1.06079e-06
-3.12547e-07
-1.08415e-06
-2.85095e-07
-1.10506e-06
-2.56953e-07
-1.12352e-06
-2.28198e-07
-1.13951e-06
-1.98905e-07
-1.15304e-06
-1.69142e-07
-1.16412e-06
-1.38978e-07
-1.17273e-06
-1.0848e-07
-1.17889e-06
-7.77103e-08
-1.18259e-06
-4.67313e-08
-1.56044e-08
6.57553e-07
-1.2395e-08
6.54626e-07
-3.70507e-08
6.49769e-07
-6.14986e-08
6.43001e-07
-8.56667e-08
6.34344e-07
-1.09483e-07
6.23828e-07
-1.32873e-07
6.11484e-07
-1.5576e-07
5.97356e-07
-1.78056e-07
5.81491e-07
-1.99663e-07
5.63953e-07
-2.20462e-07
5.44816e-07
-2.40302e-07
5.24177e-07
-2.58992e-07
5.02153e-07
-2.76285e-07
4.78891e-07
-2.91876e-07
4.54572e-07
-3.05416e-07
4.29405e-07
-3.16545e-07
4.03624e-07
-3.24962e-07
3.77476e-07
-3.30506e-07
3.51193e-07
-3.33227e-07
3.24983e-07
-3.33401e-07
2.9901e-07
-3.31486e-07
2.73392e-07
-3.28021e-07
2.48207e-07
-3.23532e-07
2.23498e-07
-3.18455e-07
1.99287e-07
-3.13106e-07
1.75582e-07
-3.07691e-07
1.52383e-07
-3.02321e-07
1.29689e-07
-2.97042e-07
1.07496e-07
-2.9186e-07
8.5805e-08
-2.86757e-07
6.46145e-08
-2.8171e-07
4.39254e-08
-2.7669e-07
2.37389e-08
-2.71679e-07
4.05572e-09
-2.66662e-07
-1.51229e-08
-2.61637e-07
-3.37984e-08
-2.56597e-07
-5.19689e-08
-2.51508e-07
-6.96347e-08
-2.46368e-07
-8.67981e-08
-2.41187e-07
-1.03463e-07
-2.35975e-07
-1.19635e-07
-2.30746e-07
-1.35322e-07
-2.25514e-07
-1.50534e-07
-2.20294e-07
-1.65284e-07
-2.15104e-07
-1.79584e-07
-2.09957e-07
-1.93453e-07
-2.04871e-07
-2.06907e-07
-1.99861e-07
-2.19966e-07
-1.94943e-07
-2.32653e-07
-1.90129e-07
-2.44991e-07
-1.85435e-07
-2.57004e-07
-1.80873e-07
-2.6872e-07
-1.76454e-07
-2.80164e-07
-1.72193e-07
-2.91366e-07
-1.681e-07
-3.02353e-07
-1.64191e-07
-3.13153e-07
-1.60481e-07
-3.23788e-07
-1.56991e-07
-3.34281e-07
-1.53785e-07
-3.44671e-07
-1.50807e-07
-3.54953e-07
-1.48147e-07
-3.65138e-07
-1.45858e-07
-3.75214e-07
-1.44051e-07
-3.85576e-07
-1.49714e-07
-3.96336e-07
-1.56195e-07
-4.07617e-07
-1.63555e-07
-4.19534e-07
-1.71877e-07
-4.32191e-07
-1.81265e-07
-4.45685e-07
-1.9186e-07
-4.60109e-07
-2.03847e-07
-4.75559e-07
-2.17459e-07
-4.92143e-07
-2.32986e-07
-5.09975e-07
-2.50777e-07
-5.29186e-07
-2.71328e-07
-5.49972e-07
-2.95094e-07
-5.72618e-07
-3.22147e-07
-5.97501e-07
-3.51913e-07
-6.25061e-07
-3.82718e-07
-6.55684e-07
-4.11489e-07
-6.89438e-07
-4.34271e-07
-7.25844e-07
-4.47837e-07
-7.63919e-07
-4.51276e-07
-8.02534e-07
-4.45995e-07
-8.4073e-07
-4.34379e-07
-8.77835e-07
-4.18563e-07
-9.13417e-07
-4.0004e-07
-9.47206e-07
-3.79701e-07
-9.79028e-07
-3.58034e-07
-1.00876e-06
-3.35305e-07
-1.03632e-06
-3.1167e-07
-1.06163e-06
-2.87235e-07
-1.08465e-06
-2.6208e-07
-1.10532e-06
-2.36278e-07
-1.12362e-06
-2.09895e-07
-1.13953e-06
-1.82998e-07
-1.15302e-06
-1.55651e-07
-1.16408e-06
-1.27917e-07
-1.1727e-06
-9.98598e-08
-1.17887e-06
-7.15411e-08
-1.18258e-06
-4.30213e-08
-1.43641e-08
6.57556e-07
-1.14172e-08
6.54634e-07
-3.41287e-08
6.49785e-07
-5.66491e-08
6.43029e-07
-7.89111e-08
6.34394e-07
-1.00848e-07
6.2391e-07
-1.2239e-07
6.11617e-07
-1.43466e-07
5.97558e-07
-1.63997e-07
5.81788e-07
-1.83892e-07
5.64369e-07
-2.03043e-07
5.4538e-07
-2.21313e-07
5.24915e-07
-2.38527e-07
5.03091e-07
-2.54461e-07
4.8005e-07
-2.68836e-07
4.55968e-07
-2.81334e-07
4.31047e-07
-2.91625e-07
4.05514e-07
-2.99431e-07
3.79607e-07
-3.04601e-07
3.53555e-07
-3.07177e-07
3.27559e-07
-3.07408e-07
3.01782e-07
-3.05711e-07
2.7634e-07
-3.02582e-07
2.5131e-07
-2.98504e-07
2.26734e-07
-2.9388e-07
2.02632e-07
-2.89007e-07
1.79012e-07
-2.84072e-07
1.55871e-07
-2.79182e-07
1.33207e-07
-2.74379e-07
1.11015e-07
-2.69669e-07
8.92932e-08
-2.65036e-07
6.8039e-08
-2.60456e-07
4.72526e-08
-2.55905e-07
2.69345e-08
-2.51362e-07
7.08546e-09
-2.46814e-07
-1.22947e-08
-2.42257e-07
-3.12061e-08
-2.37686e-07
-4.96471e-08
-2.33068e-07
-6.76171e-08
-2.28399e-07
-8.51175e-08
-2.23687e-07
-1.02151e-07
-2.18942e-07
-1.18721e-07
-2.14175e-07
-1.34836e-07
-2.094e-07
-1.50502e-07
-2.04629e-07
-1.6573e-07
-1.99876e-07
-1.80532e-07
-1.95156e-07
-1.94921e-07
-1.90482e-07
-2.08914e-07
-1.85869e-07
-2.22527e-07
-1.81331e-07
-2.35778e-07
-1.76879e-07
-2.48688e-07
-1.72525e-07
-2.61279e-07
-1.68283e-07
-2.73572e-07
-1.64162e-07
-2.85591e-07
-1.60174e-07
-2.9736e-07
-1.56332e-07
-3.08903e-07
-1.52648e-07
-3.20245e-07
-1.49139e-07
-3.31402e-07
-1.45833e-07
-3.42406e-07
-1.42782e-07
-3.53268e-07
-1.39945e-07
-3.63984e-07
-1.37431e-07
-3.74514e-07
-1.35325e-07
-3.84573e-07
-1.33958e-07
-3.95099e-07
-1.39184e-07
-4.06122e-07
-1.45166e-07
-4.17708e-07
-1.51962e-07
-4.29931e-07
-1.59644e-07
-4.42874e-07
-1.68312e-07
-4.5662e-07
-1.78101e-07
-4.71261e-07
-1.89191e-07
-4.86894e-07
-2.01808e-07
-5.03631e-07
-2.16227e-07
-5.21597e-07
-2.32785e-07
-5.40939e-07
-2.51956e-07
-5.6188e-07
-2.74124e-07
-5.84714e-07
-2.99284e-07
-6.09803e-07
-3.26796e-07
-6.37538e-07
-3.54956e-07
-6.68203e-07
-3.80797e-07
-7.01748e-07
-4.00705e-07
-7.37607e-07
-4.11962e-07
-7.74817e-07
-4.14056e-07
-8.12342e-07
-4.08464e-07
-8.49342e-07
-3.97375e-07
-8.8524e-07
-3.82663e-07
-9.19666e-07
-3.65613e-07
-9.52388e-07
-3.46979e-07
-9.83251e-07
-3.27171e-07
-1.01214e-06
-3.06413e-07
-1.03897e-06
-2.84838e-07
-1.06368e-06
-2.62534e-07
-1.08618e-06
-2.39572e-07
-1.10645e-06
-2.16013e-07
-1.12443e-06
-1.91917e-07
-1.14008e-06
-1.67343e-07
-1.15338e-06
-1.4235e-07
-1.1643e-06
-1.16996e-07
-1.17282e-06
-9.134e-08
-1.17893e-06
-6.54391e-08
-1.1826e-06
-3.93512e-08
-1.31377e-08
6.57559e-07
-1.04427e-08
6.54647e-07
-3.1217e-08
6.49816e-07
-5.18174e-08
6.43086e-07
-7.21817e-08
6.34487e-07
-9.22485e-08
6.24052e-07
-1.11955e-07
6.11819e-07
-1.31234e-07
5.97838e-07
-1.50015e-07
5.82161e-07
-1.68216e-07
5.64855e-07
-1.85737e-07
5.45998e-07
-2.02456e-07
5.25683e-07
-2.18213e-07
5.04026e-07
-2.32805e-07
4.81169e-07
-2.45979e-07
4.57279e-07
-2.57445e-07
4.32555e-07
-2.66902e-07
4.07217e-07
-2.74095e-07
3.81497e-07
-2.78883e-07
3.55618e-07
-2.813e-07
3.29778e-07
-2.81571e-07
3.04138e-07
-2.80073e-07
2.78814e-07
-2.7726e-07
2.53881e-07
-2.73574e-07
2.29383e-07
-2.69385e-07
2.05341e-07
-2.64966e-07
1.81759e-07
-2.60493e-07
1.58636e-07
-2.56061e-07
1.35967e-07
-2.51712e-07
1.13746e-07
-2.4745e-07
9.19704e-08
-2.43262e-07
7.06368e-08
-2.39124e-07
4.97444e-08
-2.35014e-07
2.92931e-08
-2.30911e-07
9.28315e-09
-2.26805e-07
-1.02855e-08
-2.22689e-07
-2.9413e-08
-2.18559e-07
-4.80974e-08
-2.14384e-07
-6.63377e-08
-2.10159e-07
-8.41338e-08
-2.05892e-07
-1.01487e-07
-2.0159e-07
-1.18401e-07
-1.97263e-07
-1.34879e-07
-1.92922e-07
-1.5093e-07
-1.88579e-07
-1.66559e-07
-1.84247e-07
-1.81778e-07
-1.79938e-07
-1.96598e-07
-1.75664e-07
-2.11031e-07
-1.71438e-07
-2.2509e-07
-1.67272e-07
-2.38793e-07
-1.63177e-07
-2.52156e-07
-1.59164e-07
-2.65195e-07
-1.55244e-07
-2.77932e-07
-1.51427e-07
-2.90384e-07
-1.47723e-07
-3.02572e-07
-1.44144e-07
-3.14518e-07
-1.40703e-07
-3.26243e-07
-1.37415e-07
-3.37766e-07
-1.34311e-07
-3.49115e-07
-1.31433e-07
-3.60309e-07
-1.28752e-07
-3.71361e-07
-1.2638e-07
-3.82281e-07
-1.24407e-07
-3.92465e-07
-1.23732e-07
-4.03165e-07
-1.2848e-07
-4.14395e-07
-1.33931e-07
-4.26206e-07
-1.40147e-07
-4.38661e-07
-1.47185e-07
-4.51831e-07
-1.55136e-07
-4.65798e-07
-1.64129e-07
-4.80649e-07
-1.74334e-07
-4.96485e-07
-1.85963e-07
-5.13426e-07
-1.99276e-07
-5.31602e-07
-2.14594e-07
-5.5118e-07
-2.32358e-07
-5.72394e-07
-2.52884e-07
-5.95538e-07
-2.76111e-07
-6.2095e-07
-3.01352e-07
-6.4896e-07
-3.26915e-07
-6.79748e-07
-3.49981e-07
-7.13146e-07
-3.67284e-07
-7.48532e-07
-3.76559e-07
-7.84982e-07
-3.77596e-07
-8.2156e-07
-3.71879e-07
-8.57534e-07
-3.61398e-07
-8.92401e-07
-3.47794e-07
-9.2584e-07
-3.32173e-07
-9.57642e-07
-3.15176e-07
-9.87665e-07
-2.97148e-07
-1.0158e-06
-2.78278e-07
-1.04196e-06
-2.58678e-07
-1.06607e-06
-2.38424e-07
-1.08807e-06
-2.17574e-07
-1.1079e-06
-1.96185e-07
-1.12551e-06
-1.74307e-07
-1.14086e-06
-1.51993e-07
-1.15391e-06
-1.29297e-07
-1.16463e-06
-1.0627e-07
-1.17301e-06
-8.29669e-08
-1.17901e-06
-5.944e-08
-1.18262e-06
-3.57425e-08
-1.19321e-08
6.57565e-07
-9.47359e-09
6.54669e-07
-2.83209e-08
6.49863e-07
-4.70112e-08
6.43169e-07
-6.54882e-08
6.34616e-07
-8.3696e-08
6.24239e-07
-1.01577e-07
6.12078e-07
-1.19073e-07
5.98179e-07
-1.36117e-07
5.82599e-07
-1.52636e-07
5.65403e-07
-1.68541e-07
5.46668e-07
-1.83721e-07
5.26487e-07
-1.98033e-07
5.04974e-07
-2.11292e-07
4.82265e-07
-2.23271e-07
4.58526e-07
-2.33708e-07
4.33951e-07
-2.42329e-07
4.08755e-07
-2.48902e-07
3.83166e-07
-2.53297e-07
3.57404e-07
-2.55541e-07
3.31666e-07
-2.55836e-07
3.06111e-07
-2.54522e-07
2.80855e-07
-2.52008e-07
2.55977e-07
-2.48698e-07
2.31518e-07
-2.44929e-07
2.07498e-07
-2.4095e-07
1.83924e-07
-2.36921e-07
1.60792e-07
-2.32931e-07
1.38096e-07
-2.29018e-07
1.15831e-07
-2.25186e-07
9.39903e-08
-2.21423e-07
7.25713e-08
-2.17707e-07
5.15723e-08
-2.14016e-07
3.09928e-08
-2.10333e-07
1.08329e-08
-2.06646e-07
-8.90759e-09
-2.02949e-07
-2.82285e-08
-1.99239e-07
-4.71277e-08
-1.95486e-07
-6.56033e-08
-1.91685e-07
-8.36541e-08
-1.87842e-07
-1.01281e-07
-1.83964e-07
-1.18485e-07
-1.80059e-07
-1.3527e-07
-1.76138e-07
-1.51641e-07
-1.7221e-07
-1.67603e-07
-1.68286e-07
-1.83164e-07
-1.64378e-07
-1.98333e-07
-1.60496e-07
-2.1312e-07
-1.56651e-07
-2.27537e-07
-1.52855e-07
-2.41597e-07
-1.49118e-07
-2.55313e-07
-1.45449e-07
-2.68701e-07
-1.41858e-07
-2.81775e-07
-1.38354e-07
-2.94552e-07
-1.34947e-07
-3.07051e-07
-1.31647e-07
-3.19288e-07
-1.28467e-07
-3.31284e-07
-1.2542e-07
-3.43058e-07
-1.22538e-07
-3.54636e-07
-1.19856e-07
-3.6604e-07
-1.17349e-07
-3.77304e-07
-1.15116e-07
-3.88476e-07
-1.13239e-07
-3.98881e-07
-1.13263e-07
-4.09805e-07
-1.17547e-07
-4.21248e-07
-1.22477e-07
-4.33268e-07
-1.28113e-07
-4.4593e-07
-1.34507e-07
-4.59305e-07
-1.41742e-07
-4.73474e-07
-1.4994e-07
-4.88528e-07
-1.59258e-07
-5.04573e-07
-1.69895e-07
-5.21734e-07
-1.82089e-07
-5.40155e-07
-1.96146e-07
-5.60016e-07
-2.12467e-07
-5.81563e-07
-2.31308e-07
-6.05082e-07
-2.52559e-07
-6.30884e-07
-2.75516e-07
-6.59237e-07
-2.98529e-07
-6.90224e-07
-3.18965e-07
-7.23578e-07
-3.33907e-07
-7.5863e-07
-3.4149e-07
-7.94487e-07
-3.41728e-07
-8.303e-07
-3.36061e-07
-8.65418e-07
-3.26276e-07
-8.99404e-07
-3.13806e-07
-9.31977e-07
-2.996e-07
-9.62953e-07
-2.842e-07
-9.92203e-07
-2.67899e-07
-1.01962e-06
-2.50856e-07
-1.04514e-06
-2.33168e-07
-1.06866e-06
-2.14897e-07
-1.09014e-06
-1.96095e-07
-1.10951e-06
-1.76811e-07
-1.12673e-06
-1.57089e-07
-1.14175e-06
-1.36977e-07
-1.15452e-06
-1.16521e-07
-1.16503e-06
-9.57677e-08
-1.17323e-06
-7.47656e-08
-1.17911e-06
-5.35629e-08
-1.18264e-06
-3.22072e-08
-1.07512e-08
6.5757e-07
-8.50996e-09
6.5469e-07
-2.54409e-08
6.49911e-07
-4.22316e-08
6.43254e-07
-5.88316e-08
6.34749e-07
-7.51906e-08
6.24429e-07
-9.12575e-08
6.12335e-07
-1.06979e-07
5.98515e-07
-1.22297e-07
5.83023e-07
-1.37144e-07
5.65924e-07
-1.51443e-07
5.47296e-07
-1.65093e-07
5.27228e-07
-1.77966e-07
5.05833e-07
-1.89898e-07
4.83246e-07
-2.00685e-07
4.59628e-07
-2.10091e-07
4.35169e-07
-2.17872e-07
4.10081e-07
-2.23816e-07
3.84589e-07
-2.27807e-07
3.5891e-07
-2.29866e-07
3.3324e-07
-2.3017e-07
3.07739e-07
-2.29024e-07
2.82523e-07
-2.26797e-07
2.57671e-07
-2.2385e-07
2.33226e-07
-2.20488e-07
2.09207e-07
-2.16935e-07
1.85621e-07
-2.13338e-07
1.62464e-07
-2.09777e-07
1.39729e-07
-2.06286e-07
1.17409e-07
-2.02869e-07
9.54985e-08
-1.99514e-07
7.39934e-08
-1.96203e-07
5.28917e-08
-1.92916e-07
3.21925e-08
-1.89635e-07
1.18958e-08
-1.8635e-07
-7.99836e-09
-1.83056e-07
-2.74897e-08
-1.79749e-07
-4.65757e-08
-1.76401e-07
-6.52535e-08
-1.73008e-07
-8.35214e-08
-1.69575e-07
-1.01379e-07
-1.66108e-07
-1.18827e-07
-1.62613e-07
-1.35866e-07
-1.591e-07
-1.525e-07
-1.55577e-07
-1.68734e-07
-1.52054e-07
-1.84573e-07
-1.4854e-07
-2.00024e-07
-1.45046e-07
-2.15095e-07
-1.41582e-07
-2.29796e-07
-1.38156e-07
-2.44137e-07
-1.34778e-07
-2.5813e-07
-1.31457e-07
-2.71787e-07
-1.28202e-07
-2.85122e-07
-1.25021e-07
-2.98148e-07
-1.21922e-07
-3.1088e-07
-1.18916e-07
-3.23336e-07
-1.16013e-07
-3.35532e-07
-1.13226e-07
-3.47488e-07
-1.10583e-07
-3.5923e-07
-1.08115e-07
-3.7078e-07
-1.058e-07
-3.82174e-07
-1.03723e-07
-3.93445e-07
-1.01972e-07
-4.04102e-07
-1.02548e-07
-4.15252e-07
-1.06389e-07
-4.26905e-07
-1.10815e-07
-4.39126e-07
-1.15882e-07
-4.51984e-07
-1.21638e-07
-4.65553e-07
-1.28162e-07
-4.79916e-07
-1.35563e-07
-4.95169e-07
-1.43989e-07
-5.11426e-07
-1.5362e-07
-5.28816e-07
-1.64677e-07
-5.47497e-07
-1.77442e-07
-5.67659e-07
-1.92276e-07
-5.89555e-07
-2.0938e-07
-6.13466e-07
-2.28614e-07
-6.39671e-07
-2.49275e-07
-6.68376e-07
-2.69791e-07
-6.99571e-07
-2.87739e-07
-7.32905e-07
-3.00549e-07
-7.67679e-07
-3.067e-07
-8.03035e-07
-3.06362e-07
-8.38199e-07
-3.00891e-07
-8.72591e-07
-2.91881e-07
-9.05827e-07
-2.80569e-07
-9.37658e-07
-2.67768e-07
-9.67919e-07
-2.53939e-07
-9.9649e-07
-2.39327e-07
-1.02328e-06
-2.24069e-07
-1.0482e-06
-2.08243e-07
-1.07119e-06
-1.91906e-07
-1.09219e-06
-1.75101e-07
-1.11113e-06
-1.5787e-07
-1.12797e-06
-1.40252e-07
-1.14265e-06
-1.22289e-07
-1.15515e-06
-1.04021e-07
-1.16543e-06
-8.54909e-08
-1.17346e-06
-6.67399e-08
-1.17921e-06
-4.78113e-08
-1.18267e-06
-2.87477e-08
-9.59591e-09
6.57575e-07
-7.55165e-09
6.54711e-07
-2.25765e-08
6.49957e-07
-3.74776e-08
6.43335e-07
-5.22101e-08
6.34875e-07
-6.67298e-08
6.24609e-07
-8.09914e-08
6.12577e-07
-9.49476e-08
5.98828e-07
-1.08547e-07
5.83415e-07
-1.21731e-07
5.66401e-07
-1.3443e-07
5.47864e-07
-1.46556e-07
5.27892e-07
-1.57994e-07
5.06595e-07
-1.68601e-07
4.84105e-07
-1.78196e-07
4.60582e-07
-1.8657e-07
4.36212e-07
-1.93504e-07
4.11205e-07
-1.98812e-07
3.85781e-07
-2.02387e-07
3.60159e-07
-2.04247e-07
3.34533e-07
-2.04548e-07
3.09063e-07
-2.03558e-07
2.83867e-07
-2.01605e-07
2.59023e-07
-1.9901e-07
2.34575e-07
-1.96044e-07
2.10544e-07
-1.92908e-07
1.86935e-07
-1.89732e-07
1.63744e-07
-1.86589e-07
1.40964e-07
-1.83508e-07
1.18587e-07
-1.80494e-07
9.66071e-08
-1.77537e-07
7.50199e-08
-1.74618e-07
5.3823e-08
-1.7172e-07
3.30154e-08
-1.68829e-07
1.2597e-08
-1.65933e-07
-7.43177e-09
-1.63029e-07
-2.70706e-08
-1.60111e-07
-4.63164e-08
-1.57156e-07
-6.51657e-08
-1.5416e-07
-8.36162e-08
-1.51126e-07
-1.01666e-07
-1.48059e-07
-1.19315e-07
-1.44965e-07
-1.36564e-07
-1.41853e-07
-1.53414e-07
-1.38728e-07
-1.69868e-07
-1.35601e-07
-1.8593e-07
-1.32479e-07
-2.01607e-07
-1.29371e-07
-2.16903e-07
-1.26286e-07
-2.31828e-07
-1.23233e-07
-2.4639e-07
-1.20218e-07
-2.60598e-07
-1.17251e-07
-2.74463e-07
-1.14339e-07
-2.87997e-07
-1.11489e-07
-3.01211e-07
-1.08709e-07
-3.1412e-07
-1.06008e-07
-3.26738e-07
-1.03396e-07
-3.39081e-07
-1.00884e-07
-3.51169e-07
-9.84977e-08