/*--------------------------------*- C++ -*----------------------------------*\
  =========                 |
  \\      /  F ield         | OpenFOAM: The Open Source CFD Toolbox
   \\    /   O peration     | Website:  https://openfoam.org
    \\  /    A nd           | Version:  8
     \\/     M anipulation  |
\*---------------------------------------------------------------------------*/
FoamFile
{
    version     2.0;
    format      ascii;
    class       volScalarField;
    location    "740/fluid";
    object      Qdot;
}
// * * * * * * * * * * * * * * * * * * * * * * * * * * * * * * * * * * * * * //

dimensions      [1 -1 -3 0 0 0 0];

internalField   nonuniform List<scalar> 
4000
(
-3.72608e-13
-3.13208e-12
6.16157e-21
0
-3.16226e-07
1.31752e-11
-3.37823e-07
-3.47462e-07
3.56303e-07
3.64377e-07
0
0
1.44011e-14
2.09312e-18
-1.01003e-09
-3.98479e-07
2.06518e-09
-9.31344e-09
2.82702e-08
3.05025e-07
4.04998e-06
5.63086e-05
0.000665514
0.00655437
0.0526843
0.34509
1.85856
8.34985
31.8089
104.425
299.802
762.283
1735.59
3574.63
6719.87
11656.6
18906.8
29063.4
42930.8
61690.4
87030
121194
167103
228617
310866
420754
567448
762641
1.02279e+06
1.36876e+06
1.82796e+06
2.43631e+06
3.24099e+06
4.30399e+06
5.70697e+06
7.5578e+06
9.99975e+06
1.31813e+07
1.73361e+07
2.29837e+07
3.04923e+07
7.16805e+07
3.76902e+08
2.94855e+07
2.12303e+07
1.51002e+07
1.05892e+07
7.30755e+06
4.95264e+06
3.2907e+06
2.14222e+06
1.37112e+06
877026
562247
148304
11005.3
301.272
4.23988
0.0401715
0.000411778
7.80514e-06
3.69918e-07
4.14612e-08
9.22566e-09
2.61831e-09
1.03206e-09
4.60189e-10
1.69316e-10
6.95875e-11
3.10374e-11
1.36205e-11
5.86245e-12
3.36936e-12
8.91444e-13
3.8869e-13
1.7806e-13
6.95933e-14
2.65957e-14
9.60753e-15
1.47651e-15
0
2.78699e-07
6.14057e-21
7.49171e-12
-3.6891e-16
-1.30459e-11
0
1.22757e-10
-3.49845e-07
-3.56691e-07
0
0
1.06728e-09
-1.18953e-09
-1.20161e-09
-2.89818e-17
-2.84579e-16
-2.98049e-15
2.73465e-08
2.7687e-07
3.68337e-06
5.08369e-05
0.000603726
0.0059927
0.0487259
0.32345
1.76655
8.04651
31.0559
103.192
299.536
769.087
1765.26
3658.74
6912.21
12027.4
19534.2
30019.2
44268.9
63438.1
89185.8
123725
169973
231806
314406
424736
571492
767263
1.02823e+06
1.37538e+06
1.83631e+06
2.44733e+06
3.2562e+06
4.32588e+06
5.73955e+06
7.6075e+06
1.00767e+07
1.32996e+07
1.75194e+07
2.32746e+07
3.09512e+07
1.13318e+08
3.4019e+08
2.93419e+07
2.10496e+07
1.49206e+07
1.04271e+07
7.16882e+06
4.83857e+06
3.20033e+06
2.07358e+06
1.32202e+06
845665
516004
110773
6579.42
155.745
1.97707
0.0183744
0.000207103
4.69036e-06
2.67473e-07
3.51179e-08
8.40718e-09
2.63745e-09
9.87909e-10
4.41507e-10
1.79456e-10
8.21032e-11
3.17634e-11
1.32697e-11
5.73563e-12
2.41877e-12
9.87164e-13
1.29417e-12
1.65087e-13
4.80154e-12
2.51427e-14
8.85139e-15
1.4767e-15
0
0
-6.09707e-21
1.76222e-16
3.09805e-07
1.28348e-11
0
0
1.34875e-10
-3.46597e-07
-6.60246e-15
0
-1.34914e-14
0
-3.66126e-07
-3.58202e-17
-2.81453e-16
-3.80483e-07
3.50299e-08
2.66135e-07
3.83688e-06
4.73122e-05
0.000562963
0.00560754
0.0459416
0.308117
1.70283
7.85416
30.7
103.283
303.39
787.768
1825.88
3813.04
7250.06
12668.9
20618.1
31683.9
46635.5
66601.3
93215.1
128665
175886
238796
322631
433880
582336
781054
1.04555e+06
1.39722e+06
1.86421e+06
2.48362e+06
3.30441e+06
4.39134e+06
5.83037e+06
7.73594e+06
1.02613e+07
1.35637e+07
1.79025e+07
2.38372e+07
3.17661e+07
1.84839e+08
2.72501e+08
2.94194e+07
2.09582e+07
1.47516e+07
1.02358e+07
6.98617e+06
4.67997e+06
3.07183e+06
1.97592e+06
1.25341e+06
803699
438204
73095.3
3494.84
73.3958
0.881097
0.00852021
0.000110112
2.98905e-06
2.00423e-07
2.93738e-08
7.38838e-09
2.53927e-09
1.01e-09
3.93845e-10
1.75727e-10
7.95379e-11
3.28384e-11
1.29349e-11
6.09383e-12
2.35145e-12
5.96963e-12
6.18488e-12
1.89255e-13
7.228e-14
2.81129e-14
5.23007e-12
1.47851e-15
-2.6484e-07
-2.03089e-17
0
1.74689e-16
-2.74871e-11
2.82271e-11
0
0
-1.32197e-10
-2.49884e-11
3.43088e-07
0
0
-1.89915e-18
2.66511e-14
1.84066e-09
-2.88149e-16
1.06785e-13
2.5414e-08
5.34481e-08
3.44199e-06
4.46683e-05
0.000532029
0.00533555
0.0441135
0.299054
1.6721
7.80566
30.8795
105.119
312.322
819.788
1918.99
4038.59
7719.43
13542.6
22077.1
33910.1
49795.1
70841.9
98667.2
135473
184262
248902
334419
448430
601217
804652
1.07535e+06
1.43522e+06
1.91315e+06
2.54729e+06
3.38814e+06
4.50267e+06
5.97994e+06
7.93883e+06
1.05387e+07
1.39359e+07
1.84061e+07
2.45359e+07
3.27415e+07
2.7045e+08
1.89297e+08
2.93996e+07
2.07775e+07
1.45021e+07
9.97606e+06
6.74906e+06
4.48107e+06
2.91572e+06
1.86101e+06
1.17532e+06
757169
348670
44742.5
1768.31
33.215
0.379521
0.00383559
5.68366e-05
1.84561e-06
1.46561e-07
2.35293e-08
6.53314e-09
2.26324e-09
8.17457e-10
4.16248e-10
1.4787e-10
7.09092e-11
3.06638e-11
1.36842e-11
5.52835e-12
2.4399e-12
9.04096e-13
3.76932e-13
1.62666e-13
6.23478e-14
2.19855e-14
8.84721e-15
5.06161e-12
0
0
8.38378e-17
-1.73045e-16
0
-1.24835e-11
-2.54908e-11
-1.08755e-19
0
-1.06583e-10
4.51196e-19
0
0
0
8.8444e-10
-3.73365e-17
-2.20766e-09
-2.82908e-15
1.26911e-08
2.48454e-07
3.13968e-06
4.31707e-05
0.000513706
0.00518471
0.0432374
0.29607
1.67339
7.89894
31.5978
108.745
326.53
865.739
2045.36
4334.81
8318.52
14637.5
23878.8
36627.4
53617.4
75945.6
105215
143669
194272
260958
349590
468309
626300
836578
1.11631e+06
1.48813e+06
1.98195e+06
2.63731e+06
3.5066e+06
4.65937e+06
6.18819e+06
8.21666e+06
1.09045e+07
1.44053e+07
1.90338e+07
2.53905e+07
3.38844e+07
3.53918e+08
1.03959e+08
2.91111e+07
2.03686e+07
1.40813e+07
9.59753e+06
6.43503e+06
4.23561e+06
2.73355e+06
1.73289e+06
1.09133e+06
705773
249260
26408.5
891.799
15.2587
0.169449
0.00182286
3.116e-05
1.19955e-06
1.10253e-07
1.96545e-08
5.52841e-09
1.88921e-09
7.98559e-10
3.5262e-10
1.36298e-10
6.26234e-11
2.82175e-11
1.25199e-11
6.30691e-12
2.22181e-12
9.52741e-13
3.74147e-13
1.42258e-13
6.21563e-14
2.49982e-14
8.11689e-15
1.30767e-15
0
2.014e-17
2.85172e-12
1.7147e-16
0
0
0
0
-1.26892e-10
-1.28195e-10
0
9.43364e-10
-4.25368e-10
1.7913e-18
-2.50837e-14
-3.6203e-17
1.73967e-09
-2.80339e-15
7.90769e-09
4.30135e-07
3.23208e-06
4.20697e-05
0.000504551
0.00512923
0.0431532
0.298398
1.70396
8.12745
32.8497
114.203
346.278
926.59
2207.39
4705.98
9054.45
15960.2
26022.4
39815.7
58054.1
81838.4
112751
152952
205604
275261
368370
492091
656710
875785
1.16722e+06
1.55464e+06
2.0693e+06
2.75254e+06
3.65914e+06
4.86171e+06
6.45671e+06
8.57204e+06
1.13769e+07
1.50212e+07
1.98422e+07
2.64208e+07
3.51524e+07
4.24044e+08
3.95362e+07
2.77412e+07
1.92892e+07
1.32586e+07
8.98709e+06
5.99323e+06
3.92408e+06
2.52032e+06
1.59234e+06
1.00364e+06
644138
186786
15415.1
458.056
7.25005
0.0792735
0.000913286
1.79145e-05
8.05637e-07
8.2522e-08
1.68775e-08
4.82841e-09
1.73946e-09
7.84217e-10
3.06671e-10
1.34911e-10
6.16436e-11
2.78074e-11
1.32788e-11
5.19869e-12
1.87803e-12
-3.22097e-14
3.71741e-13
1.41658e-13
5.58594e-14
2.49781e-14
5.1823e-12
1.22316e-15
-1.65834e-13
0
8.2712e-17
0
1.73875e-16
-2.70725e-11
0
1.04931e-19
0
0
5.99736e-15
0
-9.2289e-10
-3.22425e-07
-3.24328e-07
-3.85922e-17
-2.82342e-16
-2.80285e-15
1.10643e-08
2.47035e-07
3.20173e-06
4.17011e-05
0.000503625
0.00515682
0.0437626
0.30548
1.76153
8.48499
34.6288
121.529
371.845
1003.46
2408.34
5163
9952.11
17518.4
28503.7
43437.3
62989.2
88216.9
120623
162602
218035
291617
389025
518427
690600
919772
1.22475e+06
1.63045e+06
2.16986e+06
2.88677e+06
3.83929e+06
5.10457e+06
6.78507e+06
9.01726e+06
1.19837e+07
1.58112e+07
2.10388e+07
2.79799e+07
3.71588e+07
4.50634e+08
3.49473e+07
2.48448e+07
1.74212e+07
1.20354e+07
8.17976e+06
5.4599e+06
3.57397e+06
2.29367e+06
1.44902e+06
916865
570709
135884
9141.33
244.769
3.63922
0.0396924
0.000492561
1.10294e-05
5.742e-07
6.7029e-08
1.41762e-08
4.74549e-09
1.82234e-09
6.94285e-10
2.9865e-10
1.33525e-10
6.06886e-11
2.41009e-11
1.05415e-11
4.91208e-12
2.06491e-12
6.40351e-12
3.33044e-13
1.35497e-13
5.57273e-14
2.04617e-14
7.07537e-15
1.22809e-15
2.63309e-07
2.71861e-07
5.89653e-21
-1.28501e-11
-1.17719e-11
2.97664e-07
0
-1.03078e-19
0
0
0
0
0
-9.92101e-10
-8.086e-10
-4.07936e-17
-2.00242e-09
-2.82544e-15
3.43098e-07
7.61454e-08
3.05559e-06
4.18012e-05
0.000509551
0.00525807
0.0450068
0.317041
1.84532
8.97167
36.9511
130.835
403.723
1098.03
2652.76
5711.77
11012.3
19326
31337.2
47520.6
68476.8
95110.2
129199
173756
232000
308772
410472
545597
725382
964706
1.2833e+06
1.70739e+06
2.27187e+06
3.02332e+06
4.02399e+06
5.3573e+06
7.13549e+06
9.51017e+06
1.26724e+07
1.67981e+07
2.24992e+07
3.01674e+07
4.04976e+07
4.38543e+08
3.21141e+07
2.28348e+07
1.60247e+07
1.10806e+07
7.53685e+06
5.03451e+06
3.2987e+06
2.12108e+06
1.34628e+06
861204
508823
100363
5688.06
138.986
1.95826
0.0214449
0.00028645
7.24404e-06
4.27434e-07
5.51708e-08
1.29518e-08
4.35307e-09
1.53185e-09
6.77155e-10
2.8299e-10
1.30617e-10
5.88762e-11
2.37807e-11
9.60142e-12
3.63441e-12
1.8435e-12
1.5931e-12
3.17327e-13
1.34909e-13
4.9529e-14
5.25944e-12
-5.13793e-12
7.41964e-13
4.82863e-18
-2.85478e-21
0
0
-1.69912e-16
0
2.97209e-07
-3.00033e-07
1.42028e-15
0
0
0
0
-3.04392e-07
-7.84164e-10
-4.27881e-17
1.93588e-09
-2.86036e-15
1.81341e-08
2.43686e-07
3.11236e-06
4.27887e-05
0.000522018
0.00542714
0.0468439
0.332902
1.95505
9.59004
39.8438
142.273
442.553
1212.42
2946.25
6363.02
12246.2
21379.4
34475.7
51879.6
74063.3
102186
138342
184954
245730
325692
431482
571886
758498
1.00667e+06
1.33678e+06
1.7759e+06
2.3601e+06
3.13752e+06
4.17251e+06
5.55129e+06
7.38972e+06
9.84385e+06
1.31074e+07
1.73866e+07
2.33053e+07
3.12751e+07
7.67268e+07
4.04306e+08
3.04106e+07
2.15855e+07
1.51222e+07
1.04385e+07
7.08692e+06
4.72438e+06
3.08902e+06
1.98298e+06
1.25915e+06
811332
444907
74606.8
3692.21
83.6029
1.12911
0.0124934
0.000179265
5.0665e-06
3.3364e-07
4.74681e-08
1.13966e-08
3.77393e-09
1.40047e-09
5.92725e-10
2.52229e-10
1.28538e-10
5.25205e-11
2.27417e-11
1.02864e-11
4.00455e-12
1.82623e-12
7.23087e-13
3.15337e-13
1.22099e-13
4.9399e-14
2.04299e-14
5.9593e-15
-5.03319e-12
0
-3.02326e-12
-8.10435e-17
-1.65263e-16
1.67954e-16
-1.43231e-11
-9.87016e-20
0
1.39199e-15
-2.96824e-07
0
3.82148e-10
0
-1.59543e-18
-2.2197e-14
-4.13923e-17
-2.99714e-16
-2.91173e-15
2.05302e-08
2.44281e-07
3.05175e-06
4.39892e-05
0.000540189
0.00565929
0.0492496
0.353002
2.09108
10.3457
43.3469
156.05
489.17
1349.4
3296.07
7130.95
13671.1
23695.5
37916.6
56471.7
80000.1
109823
147609
196141
259272
342166
451629
596622
788958
1.04424e+06
1.38316e+06
1.83316e+06
2.43072e+06
3.22442e+06
4.27904e+06
5.6811e+06
7.54637e+06
1.00302e+07
1.33144e+07
1.7599e+07
2.34995e+07
3.1389e+07
1.4009e+08
3.4791e+08
2.94792e+07
2.08898e+07
1.46164e+07
1.00805e+07
6.84067e+06
4.56013e+06
2.9833e+06
1.91793e+06
1.22198e+06
792994
396790
57314.4
2531.84
53.5394
0.697011
0.00782109
0.000120039
3.74047e-06
2.73836e-07
4.14463e-08
1.0434e-08
3.51089e-09
1.41763e-09
5.87376e-10
2.47167e-10
1.26444e-10
5.17357e-11
2.15623e-11
9.36912e-12
5.15109e-12
1.80844e-12
7.17254e-13
2.88891e-13
1.09433e-13
4.92459e-14
1.8923e-14
5.96483e-15
1.06038e-15
0
2.83089e-21
-2.73937e-07
2.78614e-07
-1.66008e-16
0
0
0
0
9.345e-11
2.29371e-10
0
4.55606e-10
1.54755e-18
-9.25183e-18
-4.30752e-17
-3.07553e-16
-3.61337e-09
-2.66704e-07
1.10997e-07
3.17742e-06
4.56385e-05
0.000563999
0.0059505
0.0522015
0.377292
2.25387
11.2451
47.5058
172.401
544.543
1512.14
3710.39
8029.25
15292.2
26229.4
41536.9
61348.8
86382.9
117589
156925
207277
272618
358211
470970
619953
817078
1.07805e+06
1.42365e+06
1.88137e+06
2.48767e+06
3.29098e+06
4.35567e+06
5.76743e+06
7.64055e+06
1.01273e+07
1.34015e+07
1.76642e+07
2.35203e+07
3.13231e+07
1.96684e+08
2.9391e+08
2.88581e+07
2.04223e+07
1.42698e+07
9.82848e+06
6.66149e+06
4.43625e+06
2.90082e+06
1.86609e+06
1.19233e+06
779491
356973
45273.4
1822.04
36.3357
0.459151
0.00522936
8.54382e-05
2.90852e-06
2.30057e-07
3.70246e-08
9.32225e-09
3.44142e-09
1.39482e-09
5.719e-10
2.63351e-10
1.076e-10
4.78536e-11
2.12571e-11
1.3808e-11
3.52662e-12
-3.54933e-12
7.11149e-13
2.86906e-13
1.20859e-13
4.90674e-14
1.8889e-14
5.96652e-15
1.15212e-15
-3.66984e-13
0
-5.73822e-21
0
-2.35526e-20
-2.81551e-07
0
-1.33516e-15
-1.33585e-15
0
-7.62965e-19
0
0
-2.99944e-18
2.76198e-07
-4.15738e-17
-3.14026e-16
-3.09257e-15
1.26271e-08
3.91392e-07
3.33828e-06
4.75809e-05
0.000592329
0.00629615
0.0556723
0.405677
2.44361
12.2932
52.3628
191.562
609.688
1704.15
4198.36
9073.53
17112.5
28933.1
45396
66582.1
92858
125384
166211
218321
285779
373920
489719
642290
843588
1.10934e+06
1.46029e+06
1.92385e+06
2.53627e+06
3.34559e+06
4.41552e+06
5.83061e+06
7.70266e+06
1.01813e+07
1.3438e+07
1.76724e+07
2.34728e+07
3.11832e+07
2.45492e+08
2.47542e+08
2.83e+07
2.00389e+07
1.40092e+07
9.65349e+06
6.54565e+06
4.36104e+06
2.8534e+06
1.83785e+06
1.17802e+06
775003
317407
36885.5
1373.2
26.0317
0.321076
0.00371586
6.42002e-05
2.35789e-06
2.0163e-07
3.34075e-08
9.28648e-09
3.18455e-09
1.36579e-09
5.59086e-10
2.39011e-10
1.10126e-10
3.88571e-11
1.94201e-11
9.12543e-12
3.8688e-12
1.53605e-12
7.0473e-13
2.84787e-13
5.34603e-12
8.11667e-13
7.73332e-13
5.96473e-15
9.7539e-16
0
-1.49272e-12
5.69915e-21
-5.50313e-12
0
0
0
0
-1.30789e-15
0
-2.75459e-07
-2.74227e-07
-7.78581e-10
-2.90373e-18
-8.64266e-18
-4.00699e-17
2.6386e-07
-3.18992e-15
2.81442e-07
2.72573e-07
3.52491e-06
4.99049e-05
0.00062476
0.0066898
0.0596145
0.437911
2.65951
13.4907
57.942
213.713
685.473
1928.38
4766.06
10261
19066.6
31774.7
49465.1
71800.7
99235.5
133025
175300
229138
298663
389262
507947
663854
868940
1.13891e+06
1.49441e+06
1.9627e+06
2.57974e+06
3.39308e+06
4.46532e+06
5.87899e+06
7.74528e+06
1.02138e+07
1.34493e+07
1.76448e+07
2.33796e+07
3.09842e+07
2.86571e+08
2.08995e+08
2.77399e+07
1.96678e+07
1.3766e+07
9.4965e+06
6.44658e+06
4.30048e+06
2.81818e+06
1.81924e+06
1.17055e+06
773965
282963
30912.3
1078.76
19.5878
0.236985
0.00278722
5.06214e-05
1.98724e-06
1.77942e-07
3.12576e-08
8.71807e-09
3.11167e-09
1.15418e-09
5.021e-10
2.57629e-10
1.02223e-10
4.62924e-11
1.91215e-11
9.75927e-12
3.82041e-12
1.56186e-12
6.50638e-13
2.8256e-13
1.07621e-13
4.57124e-14
1.73379e-14
5.59949e-15
1.06583e-15
6.88185e-22
0
0
0
0
0
0
0
2.72248e-07
1.94163e-10
-5.0455e-15
0
-2.62876e-07
-2.80789e-18
-5.55825e-18
-4.40717e-17
2.53343e-07
-3.30091e-15
-2.3114e-07
2.77291e-07
3.71258e-06
5.23812e-05
0.000660381
0.00712206
0.0639472
0.473469
2.89897
14.8283
64.2264
238.899
772.456
2187.63
5422.21
11599
21164.9
34676.3
53372.5
76707.5
105196
140185
183877
239420
310974
403962
525409
684458
893047
1.16682e+06
1.52631e+06
1.99855e+06
2.61897e+06
3.43393e+06
4.50547e+06
5.91756e+06
7.77913e+06
1.02333e+07
1.34391e+07
1.75894e+07
2.32505e+07
3.07394e+07
3.20476e+08
1.77738e+08
2.71794e+07
1.93067e+07
1.35376e+07
9.35554e+06
6.36231e+06
4.25228e+06
2.7925e+06
1.80742e+06
1.16727e+06
773623
266471
26576.2
879.934
15.4178
0.183779
0.00219539
4.16576e-05
1.72405e-06
1.62902e-07
3.04754e-08
8.49928e-09
3.03549e-09
1.2158e-09
5.36065e-10
2.30214e-10
1.00267e-10
4.54764e-11
2.46095e-11
8.11628e-12
3.39719e-12
1.54394e-12
1.40233e-12
2.80219e-13
8.63412e-13
-4.32751e-12
1.72848e-14
-5.053e-12
9.77498e-16
4.7872e-18
-2.63985e-07
1.12428e-20
0
0
-2.41922e-11
-6.32754e-16
0
-1.25186e-15
0
0
0
7.3078e-10
0
-8.03146e-18
1.55189e-09
-1.25086e-09
-3.41594e-15
1.65362e-08
4.16395e-07
3.91774e-06
5.50438e-05
0.00069791
0.00757747
0.0685377
0.511384
3.15634
16.2792
71.1138
266.793
869.662
2478.17
6146.81
12993.5
23123.3
37124.3
56646.4
80816
110247
146357
191422
248620
322139
417408
541456
703413
915192
1.19231e+06
1.55506e+06
2.02988e+06
2.65202e+06
3.46811e+06
4.54029e+06
5.94819e+06
7.79862e+06
1.0233e+07
1.34044e+07
1.75031e+07
2.30814e+07
3.04435e+07
3.48063e+08
1.52593e+08
2.66178e+07
1.89506e+07
1.33177e+07
9.22429e+06
6.28748e+06
4.2124e+06
2.77359e+06
1.80068e+06
1.16739e+06
775376
253583
23496.3
745.149
12.6751
0.14933
0.00180919
3.56329e-05
1.54637e-06
1.51991e-07
2.83217e-08
7.93503e-09
2.95645e-09
1.22458e-09
5.23606e-10
2.37559e-10
1.07188e-10
4.62205e-11
1.91481e-11
8.73159e-12
3.71939e-12
1.61804e-12
6.37549e-13
2.77783e-13
1.06177e-13
4.23521e-14
-7.3024e-13
5.05074e-12
9.7783e-16
-2.60298e-07
1.47404e-12
-5.93698e-12
0
2.66106e-07
0
0
0
0
-1.84741e-10
0
0
7.06839e-10
7.66902e-10
2.39828e-07
-4.56909e-17
1.47041e-09
-3.52635e-15
2.33247e-08
3.04701e-07
4.00241e-06
5.77444e-05
0.000735218
0.00803527
0.0731841
0.550092
3.42177
17.7933
78.3978
296.73
975.547
2798.11
6940.02
14454.6
24806.2
38782.2
58786.3
83531.1
113724
150826
197156
255895
331232
428579
554939
719371
933613
1.21299e+06
1.57769e+06
2.05428e+06
2.67801e+06
3.49457e+06
4.56323e+06
5.96308e+06
7.79853e+06
1.02077e+07
1.33383e+07
1.7377e+07
2.28618e+07
3.00841e+07
3.70087e+08
1.32751e+08
2.60558e+07
1.85987e+07
1.31042e+07
9.10019e+06
6.21953e+06
4.17857e+06
2.75964e+06
1.79769e+06
1.17009e+06
777883
244219
21359.9
654.194
10.8607
0.126766
0.00155419
3.15605e-05
1.42312e-06
1.46203e-07
2.81187e-08
8.03014e-09
2.87469e-09
1.23921e-09
5.10845e-10
2.30362e-10
1.01051e-10
4.37792e-11
1.95986e-11
7.87304e-12
3.48515e-12
1.50649e-12
6.30694e-13
-4.8105e-12
1.05401e-13
4.21157e-14
1.57241e-14
5.21554e-15
9.77817e-16
-3.64375e-13
1.46782e-12
-1.1088e-20
0
1.17905e-11
-2.61765e-07
2.59947e-07
2.57493e-07
0
9.92623e-11
0
0
-8.94583e-15
-1.75527e-14
-1.72291e-14
2.2503e-07
-3.73327e-16
5.02545e-09
2.7098e-08
3.20441e-07
4.30537e-06
5.99802e-05
0.000770286
0.00846698
0.0776017
0.587241
3.67927
19.2799
85.6411
326.873
1083.08
3121.24
7702.88
15621.7
25417.2
38752.6
58907.9
83966.3
114692
152588
199955
259948
336719
435627
563615
729691
945566
1.22684e+06
1.59346e+06
2.07158e+06
2.69489e+06
3.50814e+06
4.56996e+06
5.95747e+06
7.77232e+06
1.01488e+07
1.32293e+07
1.71955e+07
2.2571e+07
2.96383e+07
3.86617e+08
1.1772e+08
2.54953e+07
1.82503e+07
1.28955e+07
8.98118e+06
6.15644e+06
4.14899e+06
2.74913e+06
1.79726e+06
1.17438e+06
781715
238053
19941.7
594.237
9.67537
0.112096
0.00138722
2.88497e-05
1.34075e-06
1.3968e-07
2.72205e-08
7.95714e-09
2.95187e-09
1.20535e-09
5.16624e-10
2.35619e-10
1.0498e-10
4.29024e-11
1.92422e-11
7.74312e-12
3.61307e-12
7.98145e-13
6.44033e-13
2.49841e-13
8.44008e-13
4.18675e-14
-7.23943e-13
5.20394e-15
8.88647e-16
0
-1.91459e-17
0
0
-1.5253e-16
0
0
2.52194e-07
0
-2.44325e-07
-2.3958e-07
2.34606e-07
0
1.28829e-09
1.64996e-14
2.17433e-07
1.33599e-09
4.76829e-09
2.14046e-08
2.17337e-07
4.36537e-06
6.21177e-05
0.000800354
0.00883872
0.081436
0.61981
3.90766
20.6161
92.2515
354.823
1184.05
3422.9
8361.79
16205.9
24343.8
36141.5
56000.1
80968.1
111845
150126
198066
258780
336378
436210
565303
732634
949884
1.23196e+06
1.59854e+06
2.07525e+06
2.69545e+06
3.5028e+06
4.5544e+06
5.92506e+06
7.713e+06
1.00473e+07
1.30648e+07
1.69344e+07
2.21564e+07
2.89863e+07
4.05166e+08
1.03959e+08
2.49307e+07
1.79007e+07
1.26869e+07
8.86287e+06
6.0942e+06
4.12021e+06
2.73922e+06
1.79712e+06
1.17851e+06
785824
234613
19079.5
556.943
8.934
0.10291
0.0012821
2.7129e-05
1.28615e-06
1.36492e-07
2.68929e-08
7.83584e-09
2.86146e-09
1.17078e-09
5.25444e-10
2.2513e-10
1.0193e-10
4.47228e-11
1.94968e-11
8.30883e-12
3.65566e-12
1.4671e-12
6.16433e-13
2.47391e-13
1.09438e-13
4.16082e-14
7.53444e-13
5.19101e-15
8.88136e-16
-4.76003e-18
2.59566e-07
0
0
-1.14984e-11
0
0
1.16075e-15
-1.14007e-15
-7.65242e-11
4.36941e-15
4.26522e-15
-3.49978e-10
-2.32602e-18
6.6467e-10
-1.29726e-09
-3.85075e-16
2.00897e-07
2.41468e-08
3.27073e-07
4.49331e-06
6.35181e-05
0.000822104
0.00911234
0.0842804
0.64418
4.08026
21.6373
97.3629
376.642
1262.61
3644.44
8704.38
15591.9
23699.5
31269.7
49316.3
73759.4
104278
142350
190192
250875
328470
428298
557144
723886
940008
1.22038e+06
1.58434e+06
2.05703e+06
2.67119e+06
3.46952e+06
4.50775e+06
5.85872e+06
7.61781e+06
9.91006e+06
1.28677e+07
1.6653e+07
2.17506e+07
2.84063e+07
4.13431e+08
9.719e+07
2.43626e+07
1.75452e+07
1.24712e+07
8.73724e+06
6.02511e+06
4.0854e+06
2.72423e+06
1.79276e+06
1.17902e+06
787390
233103
18641.6
536.539
8.51696
0.0976961
0.00122221
2.61448e-05
1.25636e-06
1.3475e-07
2.64979e-08
7.86341e-09
2.84138e-09
1.21358e-09
5.33488e-10
2.28511e-10
1.05404e-10
4.37613e-11
1.85088e-11
8.16279e-12
3.50254e-12
1.44678e-12
6.53538e-13
2.67289e-13
1.02906e-13
-6.89996e-13
4.27058e-12
5.17719e-15
9.76138e-16
0
0
2.57376e-07
0
0
1.00573e-11
-5.78366e-16
0
1.59658e-19
-2.17266e-15
-1.45e-10
0
-3.36674e-10
-1.5528e-14
-1.5083e-14
-5.04754e-17
9.77121e-10
2.34454e-09
2.06082e-07
3.34189e-07
4.47613e-06
6.44676e-05
0.000833411
0.00925326
0.0857574
0.656941
4.17146
22.182
100.11
388.323
1302.34
3722.55
8482.33
16018.5
24692.8
32611.7
39206.6
61751.7
91144.7
128014
174525
233660
309391
406901
532911
696127
907823
1.18262e+06
1.53951e+06
2.00316e+06
2.60568e+06
3.3889e+06
4.40733e+06
5.73215e+06
7.45636e+06
9.70166e+06
1.25962e+07
1.62967e+07
2.12715e+07
2.77534e+07
4.18123e+08
9.42234e+07
2.37754e+07
1.71617e+07
1.2224e+07
8.58055e+06
5.92798e+06
4.02682e+06
2.69e+06
1.77333e+06
1.16789e+06
780766
231995
18494.3
528.572
8.34373
0.095487
0.00119675
2.57314e-05
1.24302e-06
1.34732e-07
2.65915e-08
7.86507e-09
2.82239e-09
1.17556e-09
5.34871e-10
2.27912e-10
1.00745e-10
4.53909e-11
1.81337e-11
8.01476e-12
4.48149e-12
1.42626e-12
6.01629e-13
2.64533e-13
1.0763e-13
4.38835e-14
1.6862e-14
5.16269e-15
9.7529e-16
-4.75325e-18
-6.50157e-13
-5.77274e-12
-1.50195e-16
0
-2.24183e-11
0
0
-1.11221e-15
-2.17234e-15
0
-4.1182e-15
3.36673e-10
-2.22904e-18
-1.50852e-14
-2.93522e-14
-3.85032e-16
4.25211e-09
2.30933e-08
3.36434e-07
4.4761e-06
6.43857e-05
0.000833416
0.00925345
0.085759
0.656954
4.17155
22.1826
100.113
388.337
1302.39
3722.74
8482.72
16019.4
24694.3
32613.6
39208.2
61752.2
91144.9
128014
174525
233660
309391
406901
532911
696127
907824
1.18262e+06
1.53951e+06
2.00316e+06
2.60569e+06
3.3889e+06
4.40733e+06
5.73215e+06
7.45636e+06
9.70166e+06
1.25962e+07
1.62967e+07
2.12715e+07
2.77534e+07
4.18122e+08
9.42243e+07
2.37754e+07
1.71617e+07
1.22239e+07
8.58051e+06
5.92793e+06
4.02676e+06
2.68995e+06
1.77329e+06
1.16786e+06
780748
231992
18494.2
528.574
8.34379
0.0954878
0.00119676
2.57313e-05
1.24399e-06
1.34127e-07
2.68996e-08
7.86506e-09
2.82239e-09
1.25191e-09
5.13429e-10
2.23439e-10
1.00546e-10
4.06904e-11
2.32904e-11
8.01453e-12
3.61759e-12
1.51314e-12
6.45575e-13
2.42354e-13
-6.20459e-13
4.10702e-14
4.25215e-12
5.16293e-15
9.7529e-16
0
2.59565e-07
0
5.19456e-12
0
-2.53857e-07
0
0
-2.42528e-07
-2.37735e-07
1.49646e-10
0
0
-5.54866e-10
6.64666e-10
-5.30953e-17
-3.85071e-16
2.02349e-09
2.4602e-08
4.26367e-07
4.48467e-06
6.36213e-05
0.000822151
0.00911273
0.0842843
0.64421
4.08046
21.6385
97.3691
376.673
1262.75
3644.96
8705.4
15593.7
23704.4
31279.6
49321.7
73762.3
104279
142350
190192
250874
328470
428298
557145
723888
940012
1.22039e+06
1.58435e+06
2.05704e+06
2.6712e+06
3.46953e+06
4.50776e+06
5.85873e+06
7.61782e+06
9.91007e+06
1.28677e+07
1.6653e+07
2.17506e+07
2.84063e+07
4.13428e+08
9.71934e+07
2.43626e+07
1.75452e+07
1.24712e+07
8.73727e+06
6.02514e+06
4.08544e+06
2.72427e+06
1.79279e+06
1.17905e+06
787407
233108
18642
536.551
8.51718
0.0976988
0.00122223
2.6146e-05
1.25533e-06
1.34749e-07
2.70778e-08
7.86349e-09
2.76916e-09
1.21358e-09
5.10833e-10
2.28515e-10
1.03063e-10
4.25673e-11
1.85092e-11
8.16278e-12
3.5985e-12
1.44681e-12
6.33584e-13
9.90975e-13
1.05433e-13
4.1342e-14
1.63043e-14
-7.28376e-13
9.76108e-16
0
0
-2.61036e-07
-2.60671e-07
1.52552e-16
-4.34949e-20
-4.58119e-11
-2.52244e-07
0
1.75303e-10
1.8962e-10
4.41193e-15
0
0
-9.4795e-18
-3.23868e-14
1.33595e-09
4.76825e-09
2.35143e-08
3.25201e-07
4.46114e-06
6.21251e-05
0.000800384
0.0088392
0.0814385
0.619819
3.90765
20.6157
92.2469
354.792
1183.88
3422.19
8360.02
16201.7
24335.8
36125.8
55987.8
80959
111839
150122
198063
258779
336379
436214
565309
732643
949896
1.23198e+06
1.59856e+06
2.07527e+06
2.69548e+06
3.50283e+06
4.55443e+06
5.92509e+06
7.71302e+06
1.00473e+07
1.30648e+07
1.69344e+07
2.21564e+07
2.89863e+07
4.05161e+08
1.03964e+08
2.49307e+07
1.79007e+07
1.26869e+07
8.86285e+06
6.09418e+06
4.12019e+06
2.7392e+06
1.7971e+06
1.17849e+06
785817
234614
19079.9
556.96
8.93436
0.102915
0.00128216
2.71288e-05
1.28615e-06
1.36491e-07
2.68926e-08
7.83573e-09
3.01379e-09
1.20676e-09
5.25443e-10
2.2513e-10
1.07938e-10
4.20097e-11
1.81833e-11
8.30883e-12
3.55829e-12
1.41791e-12
4.82934e-12
2.47391e-13
1.0376e-13
5.04683e-12
1.55926e-14
5.54697e-15
9.76899e-16
-3.64375e-13
2.61772e-07
0
-1.18077e-11
0
3.0764e-16
0
1.7378e-19
0
0
0
0
-3.76497e-10
-2.51933e-18
-2.29698e-07
2.25028e-07
-3.37054e-14
-3.61969e-15
2.76088e-08
3.1772e-07
4.30533e-06
6.0199e-05
0.000770343
0.00846757
0.0776045
0.587251
3.67925
19.2792
85.6351
326.836
1082.9
3120.57
7700.35
15615.3
25406.5
38740.3
58896.9
83957.8
114687
152585
199955
259950
336723
435633
563625
729704
945584
1.22687e+06
1.59349e+06
2.07162e+06
2.69494e+06
3.50819e+06
4.57001e+06
5.95752e+06
7.77237e+06
1.01488e+07
1.32293e+07
1.71955e+07
2.2571e+07
2.96383e+07
3.8661e+08
1.17729e+08
2.54952e+07
1.82503e+07
1.28955e+07
8.98117e+06
6.15643e+06
4.14899e+06
2.74913e+06
1.79727e+06
1.17438e+06
781720
238058
19942.5
594.266
9.67592
0.112103
0.0013873
2.88509e-05
1.34074e-06
1.39006e-07
2.66002e-08
7.95702e-09
2.95181e-09
1.20974e-09
5.39787e-10
2.2491e-10
1.0498e-10
4.41432e-11
1.92417e-11
9.16899e-12
3.61307e-12
1.57728e-12
1.35766e-12
2.49848e-13
-4.92557e-12
4.18675e-14
1.56598e-14
5.20394e-15
9.28489e-16
-3.64894e-13
-2.62877e-07
0
0
1.19368e-11
0
-2.64579e-07
0
0
0
-3.64543e-10
0
-1.32929e-18
-2.6157e-18
-7.54947e-10
-1.48845e-09
-2.66677e-09
-2.91235e-09
2.62154e-08
3.05234e-07
4.00237e-06
5.76419e-05
0.000735174
0.00803579
0.0731881
0.550112
3.42182
17.7931
78.3935
296.696
975.337
2797.05
6935.99
14440.9
24769.3
38757.1
58768.9
83519.9
113717
150823
197156
255898
331236
428586
554948
719384
933629
1.21301e+06
1.57772e+06
2.05431e+06
2.67805e+06
3.49463e+06
4.56329e+06
5.96315e+06
7.79861e+06
1.02078e+07
1.33384e+07
1.73771e+07
2.28619e+07
3.00842e+07
3.70077e+08
1.32763e+08
2.60556e+07
1.85985e+07
1.31042e+07
9.10015e+06
6.21951e+06
4.17857e+06
2.75964e+06
1.7977e+06
1.17009e+06
777887
244224
21360.8
654.233
10.8614
0.126776
0.00155431
3.15642e-05
1.42311e-06
1.462e-07
2.81186e-08
8.20921e-09
3.04031e-09
1.23921e-09
5.30147e-10
2.30361e-10
1.01754e-10
4.37792e-11
2.03187e-11
7.87303e-12
3.6668e-12
1.50646e-12
6.30694e-13
2.29195e-13
1.11168e-13
4.21166e-14
1.71606e-14
5.21566e-15
9.77817e-16
-2.60669e-07
0
0
-2.68328e-07
-1.20832e-11
-2.41921e-11
4.83059e-11
9.62052e-11
2.66309e-07
0
-7.04932e-19
0
9.57385e-15
-1.44201e-09
-2.4856e-07
-4.23448e-17
3.61763e-14
-3.41591e-15
1.65361e-08
1.68594e-07
3.79345e-06
5.49292e-05
0.000698001
0.00757829
0.0685435
0.511422
3.15655
16.2803
71.1189
266.82
869.807
2478.91
6150.2
13005.1
23158.2
37147.5
56661.1
80824.8
110253
146361
191425
248624
322144
417415
541464
703424
915207
1.19233e+06
1.55508e+06
2.02992e+06
2.65206e+06
3.46817e+06
4.54037e+06
5.94829e+06
7.79874e+06
1.02331e+07
1.34045e+07
1.75032e+07
2.30816e+07
3.04437e+07
3.48054e+08
1.52606e+08
2.66175e+07
1.89503e+07
1.33176e+07
9.2242e+06
6.28741e+06
4.21235e+06
2.77357e+06
1.80066e+06
1.16739e+06
775380
253592
23497.8
745.21
12.6763
0.149345
0.00180935
3.56379e-05
1.54635e-06
1.51989e-07
2.83216e-08
7.93501e-09
2.95639e-09
1.18571e-09
4.79572e-10
2.24516e-10
1.03926e-10
4.46373e-11
1.9948e-11
8.73158e-12
3.71939e-12
-3.56058e-12
6.37549e-13
2.54544e-13
1.06179e-13
7.91424e-13
1.57823e-14
-7.36031e-13
9.77859e-16
-3.65935e-13
0
-6.01953e-12
-1.14263e-20
0
-2.45474e-11
0
0
-1.27996e-15
0
5.04548e-15
-2.65692e-07
1.4193e-18
2.60853e-07
-5.55822e-18
-4.40714e-17
-1.60414e-09
-2.59876e-09
1.99335e-08
2.79881e-07
3.71892e-06
5.23986e-05
0.0006605
0.00712282
0.0639547
0.47352
2.89927
14.8298
64.2341
238.934
772.601
2188.15
5423.72
11603.3
21174.3
34687.4
53383.1
76716.3
105203
140190
183881
239424
310978
403967
525414
684464
893054
1.16683e+06
1.52632e+06
1.99857e+06
2.61899e+06
3.43396e+06
4.50552e+06
5.91763e+06
7.77923e+06
1.02335e+07
1.34393e+07
1.75897e+07
2.32507e+07
3.07397e+07
3.20469e+08
1.77753e+08
2.71789e+07
1.93063e+07
1.35374e+07
9.35543e+06
6.36225e+06
4.25224e+06
2.79246e+06
1.80738e+06
1.16722e+06
773578
266464
26577
879.994
15.4192
0.183799
0.00219562
4.1664e-05
1.72674e-06
1.61554e-07
3.0101e-08
8.15554e-09
3.03549e-09
1.21583e-09
5.11945e-10
2.52327e-10
1.06048e-10
4.54754e-11
2.53546e-11
8.86635e-12
3.77065e-12
1.54394e-12
1.40233e-12
2.80219e-13
-6.61283e-13
4.549e-14
7.68018e-13
5.59304e-15
9.77468e-16
-3.66458e-13
2.6621e-07
-5.69915e-21
-1.15346e-20
1.62142e-16
2.77575e-07
0
5.51431e-11
0
0
0
5.14227e-15
0
2.68904e-07
-5.76174e-18
-3.99219e-14
-3.24811e-16
-3.18989e-15
1.81418e-08
2.72571e-07
3.52488e-06
4.99166e-05
0.000624875
0.00669102
0.0596222
0.437961
2.65977
13.4919
57.9467
213.732
685.544
1928.66
4767.07
10264.5
19072.3
31780.6
49470.8
71805.9
99239.9
133028
175303
229141
298666
389266
507950
663858
868946
1.13891e+06
1.49443e+06
1.96272e+06
2.57976e+06
3.39312e+06
4.46537e+06
5.87908e+06
7.74541e+06
1.0214e+07
1.34495e+07
1.76451e+07
2.338e+07
3.09847e+07
2.86568e+08
2.09009e+08
2.77397e+07
1.96678e+07
1.37661e+07
9.49666e+06
6.44678e+06
4.3007e+06
2.81843e+06
1.81952e+06
1.17082e+06
774197
283045
30919.8
1078.97
19.591
0.237021
0.0027876
5.06266e-05
1.98567e-06
1.77941e-07
3.19546e-08
8.91247e-09
2.93279e-09
1.2449e-09
5.02099e-10
2.34316e-10
1.02221e-10
4.62914e-11
2.06209e-11
8.99762e-12
3.82041e-12
1.56183e-12
6.50622e-13
2.58882e-13
5.28165e-12
4.57115e-14
5.13714e-12
7.51556e-13
9.76704e-16
3.66984e-13
6.72499e-13
0
0
1.64048e-16
-2.81551e-07
-5.08054e-11
0
0
0
0
0
2.79503e-07
-7.15489e-10
-5.96491e-18
-2.75e-07
-3.14024e-16
-3.09255e-15
1.89405e-08
2.59786e-07
3.35098e-06
4.7745e-05
0.000592445
0.00629708
0.0556807
0.40573
2.44388
12.2944
52.3667
191.573
609.71
1704.16
4198.17
9072.17
17109.2
28932.1
45396.5
66583.5
92859.9
125386
166213
218323
285782
373923
489723
642295
843594
1.10935e+06
1.4603e+06
1.92386e+06
2.53629e+06
3.34562e+06
4.41557e+06
5.83068e+06
7.70275e+06
1.01814e+07
1.34383e+07
1.76727e+07
2.34733e+07
3.1184e+07
2.45494e+08
2.4755e+08
2.82986e+07
2.00371e+07
1.40073e+07
9.65165e+06
6.54389e+06
4.35936e+06
2.85177e+06
1.83648e+06
1.17691e+06
774239
317199
36874.5
1373.12
26.0335
0.321117
0.00371637
6.42054e-05
2.36075e-06
2.00986e-07
3.34074e-08
8.92471e-09
3.18454e-09
1.36579e-09