/*--------------------------------*- C++ -*----------------------------------*\
  =========                 |
  \\      /  F ield         | OpenFOAM: The Open Source CFD Toolbox
   \\    /   O peration     | Website:  https://openfoam.org
    \\  /    A nd           | Version:  8
     \\/     M anipulation  |
\*---------------------------------------------------------------------------*/
FoamFile
{
    version     2.0;
    format      ascii;
    class       volScalarField;
    location    "740/fluid";
    object      rDeltaT;
}
// * * * * * * * * * * * * * * * * * * * * * * * * * * * * * * * * * * * * * //

dimensions      [0 0 -1 0 0 0 0];

internalField   nonuniform List<scalar> 
4000
(
513.498
539.54
564.392
588.2
610.903
632.4
652.561
671.248
688.327
703.699
717.326
729.263
739.689
748.934
757.49
765.86
774.431
783.387
792.627
801.764
810.195
817.228
822.207
824.609
824.11
820.523
813.737
803.724
790.518
774.205
754.905
741.445
760.486
804.98
848.669
891.444
933.221
973.93
1013.51
1051.93
1089.16
1125.17
1159.97
1193.53
1225.87
1256.99
1286.91
1315.62
1343.14
1369.48
1394.65
1418.67
1441.53
1463.25
1483.82
1503.24
1521.52
1538.51
1554.21
1568.85
1582.35
2831.44
15102.4
1572.1
1535.61
1494.22
1448.42
1398.73
1345.56
1289.29
1230.34
1169.17
1106.38
1042.47
978.194
914.993
854.876
800.265
754.12
719.073
696.097
683.73
678.711
677.521
677.342
676.416
673.764
669.035
662.26
653.628
643.37
631.724
618.909
605.118
590.516
575.235
559.38
543.02
526.198
508.863
513.023
538.407
562.469
585.141
606.395
626.155
644.329
660.827
675.583
688.583
699.885
709.652
718.169
725.863
733.219
740.707
748.71
757.415
766.733
776.276
785.423
793.431
799.57
803.239
803.987
801.507
795.641
786.347
773.673
757.727
738.659
716.642
715.453
748.817
793.698
837.861
881.201
923.63
965.077
1005.49
1044.82
1083.04
1120.14
1156.09
1190.91
1224.58
1257.12
1288.52
1318.81
1347.99
1376.08
1403.09
1429.04
1453.95
1477.83
1500.69
1522.54
1543.25
1562.85
1581.67
1599.6
4481.67
13649
1582.88
1541.64
1496.77
1448.17
1395.92
1340.2
1281.26
1219.36
1154.87
1088.29
1020.03
951.028
883.162
819.069
762.012
715.245
681.096
659.762
649.042
645.404
645.446
646.642
647.44
647.026
644.946
641.049
635.361
627.987
619.072
608.769
597.233
584.606
571.012
556.55
541.296
525.288
508.554
512.321
536.151
558.484
579.287
598.499
616.06
631.913
646.026
658.4
669.096
678.25
686.096
692.965
699.279
705.486
712.041
719.327
727.542
736.614
746.177
755.626
764.227
771.235
775.989
777.943
776.712
772.083
763.98
752.427
737.516
719.389
698.211
678.068
691.431
736.608
781.366
825.584
869.161
912.012
954.069
995.279
1035.6
1075.01
1113.48
1150.99
1187.56
1223.18
1257.84
1291.57
1324.38
1356.29
1387.33
1417.51
1446.86
1475.41
1503.16
1530.11
1556.08
1581.02
1605.08
1627.71
7321.75
10957
1602.02
1556.03
1506.31
1452.91
1395.94
1335.53
1271.87
1205.23
1136.01
1064.74
991.962
918.993
848.131
782.388
725.257
679.82
647.742
628.477
619.427
617.066
618.178
620.42
622.352
623.265
622.796
620.777
617.16
611.973
605.283
597.176
587.749
577.097
565.309
552.462
538.62
523.831
508.108
511.634
534.086
554.972
574.249
591.874
607.809
622.027
634.524
645.331
654.531
662.273
668.789
674.404
679.531
684.642
690.214
696.634
704.1
712.543
721.601
730.674
739.024
745.903
750.64
752.705
751.722
747.464
739.828
728.807
714.464
696.911
676.293
652.776
650.118
682.723
727.807
772.633
817.094
861.102
904.582
947.474
989.732
1031.32
1072.21
1112.38
1151.83
1190.54
1228.52
1265.77
1302.31
1338.14
1373.28
1407.73
1441.51
1474.6
1506.97
1538.56
1569.03
1598.26
1626.26
1652.25
10732.4
7631.66
1614.44
1564.58
1510.44
1452.31
1390.47
1325.18
1256.75
1185.57
1112.2
1037.29
961.633
886.88
815.557
750.691
695.48
652.56
623.06
605.973
598.514
597.262
599.224
602.259
605.035
606.839
607.331
606.37
603.924
600.009
594.672
587.968
579.959
570.707
560.272
548.705
536.055
522.355
507.627
510.899
531.853
551.193
568.883
584.888
599.18
611.751
622.616
631.826
639.486
645.765
650.912
655.264
659.242
663.319
667.964
673.555
680.286
688.088
696.606
705.248
713.283
719.961
724.606
726.675
725.781
721.682
714.261
703.495
689.433
672.171
651.839
628.586
612.823
631.755
677.03
722.312
767.493
812.483
857.205
901.596
945.604
989.188
1032.32
1074.96
1117.1
1158.73
1199.83
1240.4
1280.43
1319.91
1358.84
1397.2
1434.95
1472.03
1508.35
1543.74
1577.75
1610.25
1641.06
1669.19
14070.8
4202.55
1618.33
1565.54
1507.75
1445.59
1379.55
1310.1
1237.7
1162.91
1086.41
1008.94
931.463
855.879
784.782
721.151
667.967
627.474
600.308
585.078
578.891
578.461
581.026
584.64
588.093
590.72
592.179
592.31
591.051
588.395
584.36
578.981
572.297
564.353
555.191
544.852
533.374
520.787
507.114
510.162
529.644
547.504
563.706
578.224
591.041
602.159
611.607
619.448
625.796
630.826
634.789
638.023
640.941
644.008
647.685
652.346
658.185
665.138
672.863
680.782
688.179
694.312
698.507
700.222
699.063
694.778
687.238
676.407
662.319
645.055
624.73
601.479
575.533
583.914
629.3
674.93
720.699
766.516
812.305
857.999
903.544
948.894
994.002
1038.84
1083.38
1127.6
1171.47
1214.97
1258.07
1300.74
1342.94
1384.61
1425.68
1466.03
1505.49
1543.85
1580.51
1615.29
1647.9
1677.17
16890.2
1662.72
1614.37
1558.99
1498.05
1432.5
1363.06
1290.33
1214.92
1137.51
1058.9
979.875
901.583
826.076
755.978
694.189
643.457
605.648
580.966
567.704
562.885
563.34
566.497
570.578
574.49
577.635
579.703
580.544
580.094
578.334
575.269
570.914
565.296
558.44
550.376
541.132
530.737
519.216
506.591
509.417
527.414
543.792
558.519
571.574
582.948
592.651
600.719
607.225
612.288
616.09
618.887
621.013
622.879
624.945
627.664
631.401
636.346
642.436
649.336
656.476
663.15
668.62
672.22
673.407
671.783
667.092
659.199
648.058
633.694
616.179
595.616
572.129
545.856
546.351
583.885
629.782
676.033
722.546
769.242
816.055
862.923
909.791
956.616
1003.36
1049.97
1096.42
1142.67
1188.67
1234.38
1279.74
1324.68
1369.1
1412.89
1455.89
1497.86
1538.51
1577.05
1613.66
1647.21
1676.64
17983
1656.1
1604.09
1545.68
1481.96
1413.78
1341.87
1266.89
1189.51
1110.5
1030.73
951.014
872.647
797.79
729.06
669.256
620.91
585.559
563.056
551.464
547.787
548.988
552.671
557.2
561.575
565.243
567.914
569.44
569.752
568.823
566.646
563.229
558.585
552.732
545.69
537.48
528.125
517.647
506.068
508.675
525.198
540.115
553.399
565.034
575.017
583.363
590.114
595.348
599.189
601.819
603.494
604.545
605.377
606.439
608.177
610.949
614.94
620.091
626.071
632.321
638.143
642.81
645.658
646.147
643.879
638.597
630.157
618.51
603.674
585.713
564.721
540.814
514.119
508.667
540.317
586.396
633.018
680.091
727.535
775.277
823.251
871.401
919.673
968.015
1016.38
1064.7
1112.94
1161.03
1208.91
1256.49
1303.67
1350.33
1396.33
1441.45
1485.42
1527.81
1567.88
1605.61
1639.63
1668.47
17536.9
1642.13
1587.4
1526.69
1460.92
1390.89
1317.31
1240.89
1162.35
1082.49
1002.24
922.45
844.529
770.712
703.595
645.886
599.924
566.955
546.533
536.537
533.964
535.898
540.094
545.041
549.824
553.938
557.115
559.218
560.179
559.964
558.563
555.975
552.207
547.267
541.171
533.933
525.571
516.103
505.55
507.935
522.989
536.456
548.312
558.545
567.156
574.166
579.622
583.603
586.237
587.708
588.268
588.247
588.042
588.096
588.843
590.635
593.653
597.835
602.855
608.16
613.061
616.837
618.83
618.503
615.461
609.444
600.308
588.002
572.538
553.975
532.402
507.927
480.672
470.745
498.071
544.252
591.14
638.645
686.682
735.175
784.057
833.263
882.73
932.398
982.203
1032.08
1081.96
1131.77
1181.41
1230.79
1279.78
1328.24
1375.98
1422.76
1468.28
1512.04
1553.36
1592.14
1627.03
3035.2
16197.4
1622.51
1565.9
1503.59
1436.42
1365.19
1290.6
1213.37
1134.27
1054.14
973.913
894.468
817.338
744.794
679.405
623.783
580.086
549.313
530.769
522.201
520.624
523.239
527.936
533.308
538.51
543.076
546.757
549.421
551.003
551.467
550.799
548.992
546.05
541.976
536.781
530.474
523.072
514.587
505.04
507.199
520.794
532.822
543.263
552.109
559.367
565.059
569.236
571.981
573.422
573.743
573.196
572.104
570.858
569.893
569.634
570.424
572.439
575.616
579.63
583.936
587.849
590.658
591.709
590.47
586.548
579.686
569.74
556.656
540.445
521.163
498.895
473.745
445.828
432.569
456.764
502.961
550.013
597.825
646.312
695.396
745.002
795.059
845.498
896.249
947.238
998.388
1049.62
1100.83
1151.92
1202.78
1253.25
1303.17
1352.33
1400.49
1447.31
1492.27
1534.71
1574.55
1610.56
5546.94
13961
1597.86
1540.35
1477.21
1409.32
1337.47
1262.42
1184.9
1105.71
1025.73
945.887
867.102
790.994
719.857
656.234
602.653
561.108
532.379
515.568
508.321
507.681
510.957
516.156
521.96
527.585
532.601
536.773
539.981
542.158
543.27
543.299
542.238
540.084
536.84
532.51
527.104
520.631
513.105
504.541
506.467
518.611
529.208
538.244
545.712
551.623
556.005
558.91
560.423
560.674
559.846
558.187
556.018
553.724
551.729
550.451
550.224
551.216
553.363
556.34
559.607
562.485
564.269
564.313
562.088
557.207
549.415
538.569
524.617
507.569
487.48
464.432
438.527
409.876
394.135
416.08
462.212
509.329
557.336
606.144
655.672
705.839
756.57
807.788
859.413
911.364
963.554
1015.89
1068.26
1120.55
1172.62
1224.32
1275.46
1325.83
1375.15
1423.08
1469.08
1512.5
1553.27
1590.15
7794.85
11813
1569.83
1512.04
1448.61
1380.48
1308.47
1233.36
1155.93
1077
997.482
918.292
840.373
765.432
695.776
633.915
582.294
542.766
515.919
500.69
494.651
494.887
498.802
504.507
510.761
516.83
522.312
526.988
530.743
533.513
535.266
535.98
535.648
534.263
531.826
528.34
523.81
518.244
511.654
504.053
505.74
516.44
525.614
533.25
539.346
543.917
546.992
548.628
548.91
547.97
545.989
543.215
539.963
536.61
533.575
531.265
530.004
529.955
531.049
532.962
535.157
536.96
537.673
536.657
533.389
527.487
518.699
506.887
491.999
474.048
453.087
429.199
402.484
373.051
355.452
375.783
421.775
468.868
516.967
565.981
615.823
666.41
717.66
769.49
821.814
874.542
927.578
980.815
1034.14
1087.42
1140.5
1193.23
1245.4
1296.78
1347.09
1395.97
1442.87
1487.14
1528.7
1566.27
9737.53
9962.57
1539.59
1481.84
1418.46
1350.43
1278.6
1203.76
1126.73
1048.33
969.505
891.146
814.24
740.562
672.418
612.286
562.537
524.892
499.782
486.004
481.084
482.148
486.69
492.912
499.633
506.167
512.134
517.328
521.639
525.008
527.4
528.795
529.182
528.556
526.913
524.254
520.584
515.907
510.234
503.576
505.016
514.279
522.035
528.276
533.004
536.236
538.006
538.372
537.421
535.286
532.148
528.251
523.907
519.487
515.401
512.047
509.74
508.635
508.658
509.486
510.582
511.279
510.886
508.769
504.414
497.443
487.61
474.781
458.908
440.004
418.126
393.356
365.793
335.547
316.539
335.702
381.482
428.471
476.57
525.686
575.73
626.614
678.252
730.555
783.43
836.78
890.501
944.48
998.591
1052.69
1106.63
1160.23
1213.27
1265.52
1316.67
1366.39
1414.09
1459.11
1501.38
1539.58
11375.5
8420.8
1507.84
1450.35
1387.27
1319.6
1248.2
1173.88
1097.46
1019.8
941.83
864.444
788.659
716.304
649.678
591.228
543.253
507.361
483.847
471.402
467.519
469.371
474.533
481.282
488.493
495.516
501.99
507.722
512.606
516.584
519.622
521.701
522.807
522.935
522.078
520.238
517.415
513.614
508.842
503.108
504.295
512.127
518.469
523.318
526.68
528.574
529.038
528.132
525.945
522.61
518.309
513.282
507.838
502.343
497.196
492.787
489.423
487.249
486.186
485.911
485.887
485.454
483.926
480.677
475.2
467.125
456.21
442.327
425.432
405.542
382.715
357.036
328.602
297.524
277.419
295.712
341.217
388.028
436.046
485.175
535.324
586.4
638.314
690.97
744.273
798.117
852.393
906.979
961.743
1016.54
1071.2
1125.53
1179.32
1232.33
1284.24
1334.71
1383.11
1428.83
1471.77
1510.62
12729.5
7168.03
1475.07
1417.98
1355.39
1288.26
1217.47
1143.86
1068.23
991.447
914.47
838.165
763.582
692.584
627.466
570.641
524.342
490.081
468.036
456.814
453.898
456.505
462.283
469.571
477.295
484.831
491.837
498.128
503.602
508.204
511.899
514.668
516.497
517.379
517.306
516.278
514.295
511.358
507.474
502.648
503.576
509.982
514.914
518.373
520.369
520.925
520.081
517.9
514.473
509.933
504.462
498.299
491.748
485.168
478.953
473.48
469.049
465.796
463.636
462.243
461.083
459.501
456.816
452.411
445.786
436.579
424.555
409.592
391.65
370.751
346.955
320.348
291.032
259.115
238.116
255.728
300.899
347.468
395.334
444.398
494.568
545.747
597.841
650.752
704.379
758.611
813.334
868.419
923.727
979.103
1034.38
1089.35
1143.81
1197.49
1250.08
1301.22
1350.3
1396.69
1440.29
1479.81
13832.7
6158.35
1441.57
1385.01
1323.02
1256.59
1186.57
1113.79
1039.08
963.311
887.426
812.282
738.955
669.334
605.704
550.444
505.732
472.988
452.295
442.197
440.178
443.511
449.902
457.746
466.004
474.078
481.64
488.512
494.596
499.837
504.203
507.672
510.23
511.869
512.581
512.363
511.214
509.133
506.126
502.196
502.86
507.842
511.366
513.436
514.067
513.284
511.13
507.671
503
497.25
490.603
483.298
475.632
467.961
460.669
454.127
448.62
444.279
441.013
438.491
436.182
433.435
429.576
423.996
416.205
405.846
392.695
376.633
357.628
335.705
310.928
283.386
253.182
220.426
198.659
215.694
260.48
306.75
354.4
403.333
453.45
504.655
556.849
609.931
663.795
718.327
773.406
828.899
884.662
940.535
996.343
1051.89
1106.93
1161.22
1214.44
1266.21
1315.93
1362.97
1407.25
1447.44
14714.4
5360.61
1407.55
1351.61
1290.35
1224.72
1155.58
1083.76
1010.08
935.403
860.683
786.76
714.726
646.487
584.317
530.566
487.359
456.041
436.611
427.544
426.331
430.363
437.371
445.786
454.6
463.236
471.378
478.852
485.565
491.462
496.512
500.692
503.988
506.39
507.889
508.481
508.163
506.934
504.794
501.749
502.145
505.706
507.824
508.506
507.771
505.647
502.181
497.44
491.52
484.556
476.728
468.274
459.488
450.72
442.346
434.726
428.139
422.704
418.323
414.664
411.196
407.272
402.227
395.459
386.487
374.963
360.67
343.498
323.419
300.464
274.702
246.223
215.132
181.543
159.075
175.578
219.932
265.852
313.232
361.973
411.976
463.14
515.365
568.546
622.573
677.33
732.69
788.518
844.665
900.966
957.24
1013.28
1068.86
1123.7
1177.5
1229.88
1280.22
1327.91
1372.86
1413.78
15377.2
4755.12
1373.15
1317.92
1257.47
1192.74
1124.58
1053.8
981.233
907.725
834.228
761.568
690.847
623.983
563.234
510.921
469.128
439.146
420.932
412.88
412.392
417.09
424.705
433.698
443.082
452.297
461.037
469.132
476.491
483.061
488.809
493.712
497.755
500.927
503.218
504.622
505.134
504.753
503.476
501.308
501.431
503.573
504.286
503.58
501.477
498.011
493.23
487.204
480.032
471.848
462.835
453.226
443.315
433.444
423.982
415.281
407.608
401.073
395.572
390.769
386.134
381.026
374.784
366.818
356.655
343.957
328.515
310.226
289.069
265.079
238.331
208.917
176.947
142.534
119.391
135.363
179.245
224.769
271.831
320.329
370.161
421.227
473.422
526.64
580.768
635.685
691.264
747.363
803.83
860.498
917.18
973.668
1029.73
1085.08
1139.43
1192.38
1243.33
1291.67
1337.34
1379.08
16118.5
4200.42
1338.4
1283.98
1224.43
1160.69
1093.6
1023.95
952.56
880.281
808.053
736.688
667.295
601.792
542.421
491.472
450.991
422.223
405.127
398.093
398.344
403.692
411.906
421.476
431.44
441.248
450.602
459.336
467.358
474.616
481.076
486.715
491.517
495.467
498.556
500.776
502.12
502.585
502.168
500.87
500.718
501.442
500.749
498.655
495.184
490.373
484.274
476.96
468.531
459.124
448.92
438.153
427.111
416.133
405.58
395.793
387.03
379.391
372.765
366.813
361.006
354.706
347.261
338.091
326.73
312.852
296.256
276.847
254.61
229.588
201.857
171.517
138.677
103.453
100
100
138.423
183.511
230.211
278.419
328.032
378.948
431.06
484.26
538.432
593.454
649.193
705.508
762.243
819.226
876.269
933.162
989.665
1045.51
1100.37
1153.88
1205.43
1254.41
1300.77
1343.25
16450.2
3927.38
1303.47
1249.91
1191.34
1128.66
1062.7
994.236
924.078
853.074
782.15
712.108
644.054
579.899
521.863
472.209
432.94
405.269
389.154
383.054
384.117
390.121
398.932
409.086
419.641
430.06
440.046
449.437
458.142
466.105
473.294
479.683
485.255
489.994
493.89
496.931
499.111
500.424
500.866
500.434
500.006
499.312
497.214
493.729
488.888
482.73
475.31
466.704
457.015
446.38
434.981
423.051
410.875
398.785
387.136
376.26
366.404
357.658
349.904
342.799
335.815
328.318
319.666
309.286
296.725
281.663
263.911
243.382
220.069
194.018
165.312
134.054
100.357
100
100
100
100
142.096
188.394
236.27
285.619
336.338
388.319
441.45
495.614
550.687
606.536
663.014
719.966
777.217
834.576
891.832
948.743
1005.04
1060.39
1114.44
1166.57
1216.17
1263.2
1306.4
16638.4
3807.76
1268.36
1215.73
1158.21
1096.66
1031.88
964.662
895.784
826.09
756.501
687.804
621.097
558.277
501.542
453.124
414.995
388.333
373.06
367.697
369.585
376.267
385.699
396.462
407.634
418.689
429.333
439.405
448.814
457.504
465.44
472.596
478.953
484.495
489.207
493.079
496.1
498.265
499.566
500
500.006
499.312
497.213
493.729
488.888
482.729
475.309
466.703
457.014
446.379
434.98
423.05
410.874
398.784
387.135
376.259
366.402
357.656
349.902
342.797
335.813
328.316
319.664
309.284
296.722
281.66
263.908
243.379
220.065
194.014
165.309
134.051
100.354
100
100
100
100
142.093
188.392
236.268
285.617
336.336
388.317
441.448
495.613
550.686
606.535
663.013
719.965
777.216
834.576
891.832
948.743
1005.04
1060.39
1114.44
1166.57
1216.17
1263.2
1306.4
16638.3
3807.8
1268.36
1215.73
1158.21
1096.66
1031.88
964.662
895.784
826.09
756.501
687.804
621.097
558.277
501.541
453.123
414.994
388.333
373.059
367.696
369.584
376.266
385.699
396.461
407.634
418.688
429.333
439.405
448.813
457.504
465.44
472.596
478.953
484.495
489.207
493.079
496.1
498.265
499.566
500
500.718
501.442
500.749
498.654
495.183
490.372
484.273
476.958
468.53
459.122
448.918
438.151
427.109
416.13
405.577
395.79
387.026
379.387
372.761
366.809
361.001
354.701
347.256
338.085
326.725
312.846
296.25
276.84
254.604
229.581
201.85
171.51
138.67
103.446
100
100
138.418
183.507
230.207
278.415
328.028
378.945
431.057
484.258
538.43
593.452
649.192
705.507
762.241
819.225
876.268
933.161
989.664
1045.51
1100.37
1153.88
1205.43
1254.41
1300.77
1343.25
16450.1
3927.51
1303.47
1249.91
1191.34
1128.66
1062.7
994.235
924.078
853.073
782.15
712.108
644.054
579.898
521.863
472.208
432.94
405.269
389.153
383.053
384.116
390.12
398.931
409.085
419.64
430.059
440.046
449.437
458.141
466.105
473.294
479.683
485.255
489.994
493.89
496.931
499.111
500.424
500.866
500.434
501.431
503.573
504.285
503.579
501.477
498.01
493.229
487.203
480.03
471.847
462.833
453.224
443.313
433.441
423.98
415.278
407.605
401.07
395.568
390.765
386.13
381.021
374.779
366.813
356.65
343.951
328.509
310.219
289.062
265.072
238.323
208.91
176.94
142.526
119.385
135.359
179.241
224.766
271.828
320.326
370.158
421.224
473.42
526.638
580.766
635.684
691.263
747.362
803.83
860.498
917.18
973.668
1029.73
1085.08
1139.43
1192.38
1243.33
1291.67
1337.34
1379.08
16118.3
4200.63
1338.4
1283.98
1224.43
1160.69
1093.6
1023.95
952.559
880.28
808.052
736.687
667.295
601.792
542.42
491.472
450.99
422.222
405.126
398.092
398.343
403.691
411.905
421.475
431.439
441.248
450.601
459.335
467.358
474.616
481.076
486.715
491.516
495.467
498.556
500.775
502.12
502.585
502.168
500.87
502.145
505.706
507.823
508.506
507.77
505.646
502.18
497.439
491.519
484.554
476.726
468.272
459.486
450.717
442.343
434.723
428.136
422.7
418.319
414.66
411.192
407.268
402.222
395.453
386.481
374.956
360.663
343.491
323.412
300.457
274.693
246.214
215.124
181.534
159.069
175.574
219.929
265.849
313.23
361.971
411.974
463.138
515.364
568.545
622.573
677.329
732.69
788.518
844.665
900.967
957.241
1013.28
1068.86
1123.7
1177.5
1229.88
1280.22
1327.91
1372.86
1413.78
15376.9
4755.48
1373.15
1317.92
1257.47
1192.74
1124.58
1053.8
981.232
907.725
834.228
761.567
690.846
623.982
563.233
510.921
469.127
439.145
420.931
412.879
412.391
417.088
424.704
433.697
443.081
452.297
461.036
469.132
476.491
483.061
488.808
493.712
497.755
500.927
503.218
504.622
505.134
504.752
503.476
501.308
502.86
507.842
511.366
513.436
514.066
513.283
511.129
507.669
502.998
497.248
490.601
483.295
475.63
467.958
460.666
454.123
448.617
444.276
441.009
438.487
436.178
433.43
429.571
423.991
416.199
405.84
392.688
376.626
357.62
335.696
310.919
283.377
253.173
220.417
198.653
215.692
260.478
306.748
354.399
403.331
453.449
504.654
556.849
609.931
663.795
718.328
773.407
828.9
884.663
940.537
996.345
1051.89
1106.93
1161.22
1214.44
1266.21
1315.93
1362.98
1407.25
1447.44
14714
5361.12
1407.54
1351.61
1290.35
1224.71
1155.58
1083.76
1010.08
935.402
860.683
786.759
714.725
646.486
584.316
530.566
487.358
456.04
436.61
427.543
426.33
430.362
437.37
445.785
454.599
463.235
471.377
478.851
485.564
491.462
496.511
500.691
503.988
506.39
507.889
508.481
508.163
506.933
504.794
501.749
503.576
509.981
514.913
518.372
520.368
520.924
520.08
517.898
514.472
509.932
504.46
498.297
491.746
485.166
478.95
473.477
469.046
465.792
463.632
462.239
461.079
459.496
456.81
452.405
445.78
436.572
424.548
409.584
391.642
370.742
346.946
320.339
291.022
259.105
238.11
255.727
300.898
347.467
395.333
444.398
494.568
545.747
597.842
650.753
704.38
758.613
813.336
868.421
923.729
979.105
1034.38
1089.35
1143.81
1197.49
1250.09
1301.23
1350.3
1396.69
1440.29
1479.81
13832.2
6158.94
1441.56
1385.01
1323.02
1256.58
1186.56
1113.79
1039.08
963.31
887.425
812.281
738.954
669.333
605.703
550.444
505.731
472.987
452.294
442.196
440.177
443.51
449.901
457.745
466.003
474.077
481.64
488.511
494.595
499.837
504.202
507.671
510.23
511.869
512.581
512.363
511.214
509.133
506.126
502.196
504.295
512.127
518.469
523.318
526.679
528.573
529.037
528.13
525.944
522.608
518.306
513.28
507.836
502.34
497.193
492.784
489.419
487.245
486.182
485.907
485.883
485.45
483.921
480.671
475.194
467.118
456.202
442.319
425.424
405.533
382.706
357.026
328.592
297.514
277.413
295.712
341.217
388.028
436.046
485.176
535.325
586.402
638.315
690.972
744.275
798.12
852.396
906.983
961.747
1016.54
1071.2
1125.53
1179.33
1232.33
1284.25
1334.71
1383.12
1428.84
1471.77
1510.63
12729.1
7168.75
1475.07
1417.98
1355.38
1288.26
1217.47
1143.85
1068.22
991.446
914.469
838.164
763.581
692.584
627.466
570.64
524.342
490.08
468.035
456.813
453.897
456.504
462.282
469.571
477.294
484.83
491.837
498.127
503.602
508.203
511.899
514.668
516.497
517.378
517.306
516.278
514.295
511.358
507.473
502.648
505.016
514.279
522.035
528.275
533.003
536.235
538.005
538.37
537.42
535.284
532.146
528.249
523.904
519.485
515.398
512.044
509.736
508.631
508.654
509.482
510.577
511.275
510.881
508.763
504.408
497.436
487.602
474.773
458.899
439.995
418.116
393.346
365.782
335.535
316.534
335.703
381.483
428.472
476.571
525.688
575.732
626.617
678.255
730.558
783.433
836.784
890.505
944.484
998.595
1052.7
1106.64
1160.23
1213.28
1265.52
1316.68
1366.4
1414.09
1459.12
1501.38
1539.58
11375.2
8421.49
1507.84
1450.35
1387.27
1319.6
1248.2
1173.88
1097.46
1019.8
941.829
864.443
788.658
716.304
649.678
591.228
543.253
507.361
483.847
471.401
467.518
469.37
474.532
481.281
488.493
495.515
501.99
507.722
512.606
516.584
519.622
521.701
522.807
522.934
522.078
520.238
517.415
513.614
508.842
503.108
505.74
516.44
525.614
533.249
539.346
543.916
546.992
548.627
548.909
547.968
545.987
543.213
539.96
536.608
533.572
531.261
530.001
529.952
531.045
532.958
535.152
536.955
537.668
536.651
533.383
527.48
518.691
506.878
491.99
474.038
453.076
429.188
402.472
373.039
355.447
375.785
421.777
468.871
516.97
565.984
615.826
666.414
717.664
769.494
821.819
874.547
927.582
980.82
1034.14
1087.42
1140.51
1193.24
1245.41
1296.79
1347.09
1395.97
1442.87
1487.15
1528.71
1566.27
9737.38
9963.16
1539.59
1481.84
1418.46
1350.43
1278.59
1203.76
1126.73
1048.33
969.505
891.146
814.241
740.562
672.418
612.287
562.537
524.892
499.782
486.003
481.083
482.147
486.69
492.911
499.633
506.167
512.133
517.327
521.639
525.008
527.4
528.795
529.182
528.555
526.912
524.254
520.584
515.908
510.234
503.576
506.467
518.611
529.208
538.243
545.712
551.623
556.004
558.909
560.422
560.672
559.844
558.185
556.016
553.721
551.727
550.448
550.221
551.213
553.359
556.337
559.603
562.481
564.264
564.307
562.082
557.2
549.407
538.56
524.607
507.559
487.469
464.421
438.515
409.864
394.129
416.083
462.216
509.333
557.34
606.149
655.676
705.844
756.575
807.793
859.418
911.37
963.559
1015.89
1068.26
1120.55
1172.62
1224.32
1275.47
1325.83
1375.15
1423.08
1469.08
1512.5
1553.28
1590.15
7794.62
11813.2
1569.83
1512.04
1448.6
1380.47
1308.46
1233.35
1155.93
1077
997.484
918.292
840.375
765.434
695.777
633.916
582.295
542.767
515.92
500.689
494.651
494.886
498.801
504.507
510.76
516.83
522.311
526.988
530.742
533.513
535.265
535.98
535.647
534.263
531.826
528.34
523.81
518.244
511.654
504.053
507.199
520.794
532.822
543.263
552.109
559.366
565.058
569.235
571.98
573.421
573.742
573.194
572.101
570.855
569.89
569.631
570.421
572.436
575.612
579.627
583.932
587.845
590.652
591.703
590.463
586.541
579.678
569.731
556.646
540.434
521.151
498.882
473.732
445.814
432.564
456.769
502.966
550.018
597.83
646.318
695.402
745.008
795.065
845.505
896.255
947.244
998.395
1049.62
1100.84
1151.93
1202.78
1253.25
1303.17
1352.34
1400.49
1447.31
1492.27
1534.71
1574.55
1610.57
5546.61
13961.2
1597.86
1540.36
1477.22
1409.33
1337.48
1262.42
1184.9
1105.71
1025.73
945.89
867.102
790.994
719.859
656.237
602.655
561.109
532.38
515.569
508.321
507.681
510.956
516.155
521.959
527.585
532.6
536.773
539.981
542.158
543.27
543.299
542.238
540.084
536.84
532.51
527.104
520.631
513.105
504.542
507.935
522.989
536.456
548.311
558.544
567.155
574.165
579.621
583.602
586.236
587.706
588.266
588.245
588.04
588.093
588.84
590.632
593.65
597.831
602.851
608.156
613.056
616.831
618.824
618.496
615.453
609.435
600.298
587.991
572.526
553.962
532.389
507.913
480.657
470.741
498.078
544.258
591.147
638.652
686.689
735.183
784.065
833.27
882.738
932.405
982.211
1032.09
1081.97
1131.78
1181.42
1230.8
1279.79
1328.25
1375.98
1422.76
1468.28
1512.04
1553.36
1592.13
1627.03
3035.68
16196.8
1622.51
1565.9
1503.58
1436.42
1365.18
1290.6
1213.37
1134.27
1054.14
973.922
894.479
817.347
744.8
679.409
623.786
580.088
549.314
530.769
522.201
520.624
523.239
527.936
533.308
538.51
543.076
546.757
549.421
551.003
551.467
550.799
548.992
546.05
541.976
536.781
530.475
523.072
514.587
505.04
508.675
525.198
540.115
553.399
565.034
575.016
583.362
590.113
595.347
599.187
601.818
603.492
604.543
605.374
606.437
608.174
610.946
614.937
620.088
626.067
632.317
638.138
642.804
645.652
646.14
643.871
638.588
630.147
618.499
603.662
585.7
564.707
540.799
514.104
508.663
540.325
586.405
633.027
680.1
727.544
775.286
823.26
871.41
919.682
968.023
1016.38
1064.71
1112.95
1161.04
1208.92
1256.49
1303.67
1350.34
1396.33
1441.45
1485.42
1527.81
1567.89
1605.61
1639.63
1668.47
17537.2
1642.13
1587.4
1526.69
1460.92
1390.89
1317.31
1240.89
1162.35
1082.5
1002.25
922.45
844.527
770.71
703.594
645.888
599.925
566.957
546.534
536.538
533.964
535.898
540.095
545.041
549.824
553.938
557.115
559.218
560.179
559.964
558.563
555.975
552.207
547.267
541.171
533.933
525.571
516.103
505.55
509.417
527.414
543.792
558.519
571.574
582.947
592.65
600.718
607.224
612.287
616.089
618.885
621.011
622.877
624.943
627.661
631.398
636.343
642.433
649.332
656.472
663.145
668.615
672.214
673.399
671.774
667.083
659.188
648.046
633.681
616.165
595.601
572.114
545.839
546.348
583.895
629.793
676.043
722.556
769.252
816.065
862.933
909.801
956.626
1003.37
1049.98
1096.43
1142.68
1188.68
1234.39
1279.74
1324.68
1369.11
1412.9
1455.89
1497.86
1538.51
1577.05
1613.66
1647.21
1676.64
17982.5
1656.1
1604.09
1545.68
1481.96
1413.78
1341.87
1266.89
1189.51
1110.5
1030.73
951.017
872.655
797.8
729.067
669.261
620.913
585.562
563.057
551.465
547.787
548.988
552.672
557.201
561.575
565.244
567.914
569.44
569.752
568.823
566.646
563.229
558.585
552.732
545.69
537.48
528.125
517.647
506.068
510.162
529.645
547.504
563.707
578.224
591.04
602.159
611.606
619.447
625.795
630.824
634.788
638.021
640.939
644.005
647.682
652.344
658.182
665.135
672.86
680.778
688.175
694.306
698.501
700.215
699.054
694.769
687.227
676.395
662.305
645.04
624.714
601.462
575.53
583.927
629.313
674.943
720.712
766.53
812.319
858.012
903.557
948.906
994.014
1038.85
1083.39
1127.61
1171.48
1214.97
1258.07
1300.74
1342.94
1384.61
1425.68
1466.03
1505.49
1543.85
1580.51
1615.29
1647.9
1677.17
16890.9
1662.72
1614.37
1558.99
1498.05
1432.5
1363.06
1290.33
1214.92
1137.51
1058.9
979.877
901.586
826.079
755.982
694.193
643.46
605.651
580.968
567.705
562.886
563.341
566.497
570.578
574.49
577.635
579.703
580.544
580.094
578.334
575.269
570.915
565.296
558.44
550.376
541.133
530.737
519.216
506.591
510.899
531.853
551.193
568.884
584.888
599.18
611.751
622.615
631.826
639.485
645.764
650.91
655.263
659.24
663.317
667.961
673.553
680.284
688.085
696.602
705.244
713.279
719.956
724.599
726.667
725.772
721.672
714.249
703.482
689.419
672.155
651.822
628.567
612.82
631.77
677.045
722.327
767.508
812.498
857.22
901.61
945.618
989.202
1032.33
1074.97
1117.12
1158.74
1199.84
1240.41
1280.44
1319.92
1358.85
1397.21
1434.95
1472.03
1508.35
1543.74
1577.76
1610.25
1641.06
1669.18
14073
4199.85
1618.32
1565.54
1507.75
1445.59
1379.55
1310.1
1237.7
1162.91
1086.41
1008.94
931.465
855.882
784.785
721.154
667.97
627.477
600.31
585.079
578.892
578.462
581.027
584.641
588.094
590.72
592.179
592.31
591.052
588.395
584.361
578.981
572.297
564.353
555.191
544.853
533.374
520.787
507.114
511.634
534.086
554.973
574.25
591.875
607.809
622.027
634.524
645.331
654.531
662.272
668.788
674.402
679.529
684.64
690.212
696.632
704.098
712.54
721.598
730.67
739.02
745.897
750.633
752.697
751.713
747.454
739.816
728.793
714.448
696.894
676.275
652.756
650.116
682.74
727.824
772.651
817.112
861.12
904.6
947.492
989.749
1031.33
1072.22
1112.4
1151.84
1190.55
1228.53
1265.79
1302.32
1338.15
1373.28
1407.74
1441.51
1474.6
1506.97
1538.56
1569.03
1598.26
1626.26
1652.25
10735.1
7628.76
1614.43
1564.57
1510.43
1452.31
1390.47
1325.18
1256.74
1185.57
1112.2
1037.29
961.634
886.882
815.559
750.694
695.482
652.563
623.062
605.974
598.515
597.262
599.225
602.26
605.036
606.84
607.331
606.371
603.924
600.01
594.672
587.968
579.959
570.708
560.272
548.706
536.055
522.355
507.627
512.321
536.151
558.484
579.288
598.5
616.06
631.914
646.026
658.4
669.095
678.25
686.095
692.964
699.277
705.484
712.039
719.325
727.54
736.611
746.174
755.623
764.223
771.23
775.982
777.935
776.702
772.071