/*--------------------------------*- C++ -*----------------------------------*\
  =========                 |
  \\      /  F ield         | OpenFOAM: The Open Source CFD Toolbox
   \\    /   O peration     | Website:  https://openfoam.org
    \\  /    A nd           | Version:  8
     \\/     M anipulation  |
\*---------------------------------------------------------------------------*/
FoamFile
{
    version     2.0;
    format      ascii;
    class       volScalarField;
    location    "740/fluid";
    object      rho;
}
// * * * * * * * * * * * * * * * * * * * * * * * * * * * * * * * * * * * * * //

dimensions      [1 -3 0 0 0 0 0];

internalField   nonuniform List<scalar> 
4000
(
0.658526
0.658499
0.658454
0.658379
0.658254
0.658047
0.657705
0.657147
0.656247
0.654814
0.652569
0.649125
0.643969
0.636479
0.625993
0.611929
0.593972
0.572243
0.547367
0.520383
0.492518
0.464923
0.438495
0.413809
0.391145
0.370563
0.35198
0.335236
0.320143
0.306505
0.294142
0.282892
0.272616
0.263197
0.254539
0.246543
0.239106
0.232166
0.225673
0.219582
0.213857
0.208467
0.203385
0.198588
0.194058
0.189778
0.185736
0.18192
0.178321
0.174933
0.171751
0.168772
0.165998
0.16343
0.161077
0.15895
0.157068
0.155479
0.154212
0.153274
0.15278
0.152848
0.154244
0.163135
0.173643
0.185986
0.20046
0.217459
0.237499
0.261252
0.289589
0.323638
0.364841
0.415156
0.476956
0.552408
0.642646
0.746038
0.855992
0.960554
1.0467
1.10748
1.14467
1.16487
1.17499
1.17982
1.18204
1.18305
1.18349
1.18368
1.18376
1.1838
1.18381
1.18382
1.18382
1.18382
1.18382
1.18382
1.18382
1.18382
0.658526
0.658499
0.658454
0.658379
0.658253
0.658044
0.657701
0.65714
0.656236
0.654799
0.652553
0.649118
0.64399
0.636566
0.626199
0.612323
0.594622
0.573191
0.548616
0.521887
0.494195
0.46668
0.440245
0.415485
0.392704
0.371982
0.353251
0.336365
0.321136
0.307375
0.294902
0.283553
0.273189
0.263692
0.254965
0.246909
0.239419
0.232431
0.225895
0.219766
0.214007
0.208587
0.203477
0.198655
0.194103
0.189803
0.185742
0.18191
0.178297
0.174896
0.171703
0.168715
0.165932
0.163357
0.160998
0.158866
0.156979
0.155388
0.15412
0.153181
0.152688
0.152763
0.154928
0.163985
0.174692
0.187278
0.202059
0.21945
0.239995
0.264404
0.293603
0.328784
0.371477
0.423765
0.488059
0.566415
0.659553
0.764944
0.874784
0.976475
1.0579
1.11402
1.14792
1.16632
1.17559
1.18005
1.18213
1.18308
1.1835
1.18368
1.18376
1.1838
1.18381
1.18382
1.18382
1.18382
1.18382
1.18382
1.18382
1.18382
0.658526
0.658499
0.658454
0.658378
0.658252
0.658042
0.657697
0.657135
0.656228
0.654789
0.652543
0.649114
0.644008
0.636633
0.626355
0.612618
0.595108
0.57391
0.549583
0.523086
0.495578
0.468181
0.441797
0.417028
0.394193
0.373385
0.354552
0.337554
0.322215
0.308346
0.29577
0.284326
0.273874
0.264296
0.255492
0.247369
0.239817
0.232773
0.226185
0.220008
0.214205
0.208744
0.203596
0.19874
0.194156
0.189827
0.18574
0.181883
0.178248
0.174828
0.171618
0.168614
0.165818
0.163233
0.160864
0.158725
0.156833
0.155241
0.153974
0.153039
0.152557
0.152646
0.156162
0.165445
0.176441
0.189391
0.204628
0.222592
0.243858
0.26918
0.299532
0.336164
0.380684
0.435249
0.502192
0.583286
0.67865
0.784805
0.893075
0.990919
1.06756
1.11956
1.15073
1.16764
1.17618
1.18031
1.18224
1.18312
1.18352
1.18369
1.18377
1.1838
1.18381
1.18382
1.18382
1.18382
1.18382
1.18382
1.18382
1.18382
0.658526
0.658499
0.658454
0.658378
0.658252
0.658043
0.657698
0.657137
0.656235
0.654804
0.652576
0.649177
0.644122
0.636825
0.626661
0.613078
0.595757
0.574767
0.550643
0.524318
0.496933
0.469602
0.443229
0.418429
0.39553
0.37464
0.355715
0.338622
0.323187
0.309227
0.296564
0.285037
0.274508
0.264858
0.255986
0.247801
0.240193
0.233096
0.226458
0.220234
0.214388
0.208885
0.203699
0.198807
0.194189
0.189829
0.185714
0.181831
0.178173
0.174732
0.171503
0.168484
0.165674
0.163077
0.160701
0.158556
0.156662
0.155075
0.153816
0.152893
0.152426
0.152542
0.157723
0.167256
0.178578
0.191941
0.207695
0.226302
0.24837
0.274688
0.306278
0.34444
0.390862
0.447752
0.517331
0.601083
0.698525
0.805272
0.911845
1.00582
1.0777
1.12556
1.15389
1.16918
1.17689
1.18062
1.18238
1.18318
1.18354
1.1837
1.18377
1.1838
1.18381
1.18382
1.18382
1.18382
1.18382
1.18382
1.18382
1.18382
0.658526
0.658499
0.658454
0.658379
0.658253
0.658045
0.657702
0.657144
0.656247
0.654826
0.652614
0.649243
0.644233
0.637005
0.62694
0.613488
0.596326
0.575511
0.551557
0.525375
0.498093
0.470816
0.444452
0.419623
0.396669
0.375709
0.356704
0.339529
0.324013
0.309975
0.297238
0.285642
0.275047
0.265334
0.256405
0.248166
0.240508
0.233364
0.226682
0.220416
0.214529
0.208989
0.203768
0.198842
0.194193
0.189804
0.185662
0.181755
0.178075
0.174614
0.171369
0.168336
0.165515
0.16291
0.160529
0.158383
0.156494
0.154922
0.153675
0.152769
0.152332
0.152504
0.159393
0.169173
0.180831
0.194625
0.210917
0.23019
0.253077
0.280405
0.313237
0.352921
0.401226
0.460382
0.532462
0.618632
0.717786
0.824668
0.929173
1.01921
1.08661
1.13075
1.15662
1.17052
1.17751
1.1809
1.1825
1.18323
1.18356
1.18371
1.18377
1.1838
1.18381
1.18382
1.18382
1.18382
1.18382
1.18382
1.18382
1.18382
0.658526
0.658499
0.658455
0.65838
0.658255
0.658048
0.657707
0.657154
0.656264
0.654855
0.652663
0.649324
0.644362
0.637204
0.627235
0.613904
0.596883
0.576216
0.552399
0.526329
0.499118
0.471872
0.445502
0.420638
0.39763
0.376603
0.357527
0.34028
0.324694
0.310588
0.297788
0.286133
0.275482
0.265717
0.256738
0.248453
0.240753
0.233568
0.226847
0.220545
0.214624
0.20905
0.203797
0.198843
0.194167
0.189753
0.185587
0.18166
0.177961
0.174484
0.171225
0.168182
0.165355
0.162747
0.160368
0.158228
0.156349
0.154795
0.153565
0.152684
0.152277
0.152484
0.160792
0.170889
0.182935
0.197194
0.214043
0.233984
0.257683
0.286
0.320038
0.36119
0.411307
0.472613
0.547034
0.635408
0.736015
0.842801
0.945168
1.03145
1.09473
1.13551
1.15915
1.17177
1.17811
1.18118
1.18262
1.18329
1.18359
1.18372
1.18378
1.1838
1.18381
1.18382
1.18382
1.18382
1.18382
1.18382
1.18382
1.18382
0.658526
0.6585
0.658455
0.658381
0.658257
0.658051
0.657713
0.657164
0.656281
0.654884
0.652711
0.649402
0.644484
0.63739
0.627505
0.61428
0.597381
0.576839
0.553137
0.527156
0.5
0.472774
0.446392
0.421491
0.398432
0.377344
0.358205
0.340894
0.325246
0.311083
0.298228
0.286522
0.275824
0.266014
0.256992
0.248669
0.240933
0.233714
0.22696
0.220627
0.214676
0.209074
0.203796
0.198816
0.194117
0.189681
0.185496
0.181551
0.177837
0.174348
0.17108
0.168031
0.165202
0.162597
0.160227
0.158103
0.156248
0.154741
0.153526
0.152713
0.152387
0.152688
0.161612
0.172226
0.184764
0.199536
0.216955
0.237558
0.262041
0.291302
0.326486
0.369033
0.420868
0.484187
0.560765
0.651109
0.752899
0.859351
0.959507
1.04223
1.10178
1.1396
1.16132
1.17284
1.17862
1.18141
1.18273
1.18333
1.18361
1.18373
1.18378
1.1838
1.18381
1.18382
1.18382
1.18382
1.18382
1.18382
1.18382
1.18382
0.658526
0.6585
0.658456
0.658382
0.658259
0.658055
0.65772
0.657175
0.656299
0.654914
0.652759
0.649477
0.6446
0.637563
0.627754
0.614622
0.597827
0.577391
0.553782
0.527871
0.500756
0.473539
0.44714
0.422203
0.399095
0.377952
0.358756
0.341389
0.325688
0.311475
0.298573
0.286824
0.276085
0.266237
0.25718
0.248824
0.241057
0.233809
0.227028
0.220669
0.214693
0.209068
0.203768
0.198768
0.194049
0.189596
0.185395
0.181436
0.17771
0.174212
0.170937
0.167885
0.165057
0.162459
0.1601
0.157997
0.156184
0.154727
0.153592
0.152905
0.152787
0.153439
0.162681
0.173645
0.18657
0.201782
0.21971
0.240914
0.266119
0.296253
0.332499
0.376344
0.429775
0.494951
0.573492
0.665576
0.768311
0.874268
0.972246
1.05168
1.1079
1.14315
1.1632
1.17377
1.17906
1.18162
1.18282
1.18337
1.18362
1.18374
1.18378
1.18381
1.18381
1.18382
1.18382
1.18382
1.18382
1.18382
1.18382
1.18382
0.658526
0.6585
0.658456
0.658383
0.658261
0.658058
0.657725
0.657184
0.656316
0.654941
0.652802
0.649546
0.644705
0.637718
0.627975
0.614923
0.598216
0.577868
0.554337
0.528481
0.501396
0.474182
0.447763
0.422792
0.399639
0.378447
0.359201
0.341785
0.326038
0.311782
0.29884
0.287053
0.276281
0.266401
0.257314
0.248931
0.241138
0.233866
0.227062
0.220681
0.214685
0.209041
0.203722
0.198705
0.19397
0.189503
0.18529
0.181319
0.177585
0.17408
0.170801
0.167747
0.164921
0.162328
0.159979
0.157893
0.156107
0.154681
0.153587
0.152961
0.152927
0.154336
0.163834
0.175083
0.188334
0.203924
0.2223
0.244042
0.269899
0.300828
0.338044
0.383084
0.437982
0.504848
0.585151
0.678747
0.782212
0.887555
0.983427
1.05986
1.11314
1.14616
1.16479
1.17456
1.17944
1.18179
1.1829
1.18341
1.18364
1.18374
1.18379
1.18381
1.18382
1.18382
1.18382
1.18382
1.18382
1.18382
1.18382
1.18382
0.658526
0.6585
0.658457
0.658384
0.658263
0.658061
0.657731
0.657193
0.656331
0.654965
0.652842
0.649607
0.644798
0.637855
0.628168
0.615184
0.598552
0.578277
0.554808
0.528997
0.501932
0.474717
0.448279
0.423275
0.400082
0.378847
0.359556
0.342098
0.326312
0.312019
0.299043
0.287225
0.276424
0.266517
0.257406
0.248999
0.241185
0.233893
0.22707
0.220671
0.214658
0.208999
0.203665
0.198634
0.193887
0.189408
0.185185
0.181206
0.177465
0.173955
0.170672
0.167617
0.164792
0.162202
0.159858
0.157778
0.156004
0.154588
0.153501
0.152873
0.152817
0.155331
0.165018
0.176493
0.190014
0.205928
0.224695
0.246912
0.27335
0.304992
0.343083
0.389209
0.445436
0.513823
0.595694
0.690597
0.794614
0.899271
0.993159
1.06689
1.11761
1.14871
1.16614
1.17523
1.17976
1.18194
1.18297
1.18344
1.18365
1.18375
1.18379
1.18381
1.18382
1.18382
1.18382
1.18382
1.18382
1.18382
1.18382
1.18382
0.658526
0.6585
0.658457
0.658385
0.658264
0.658064
0.657736
0.657201
0.656344
0.654987
0.652876
0.64966
0.644879
0.637973
0.628334
0.615407
0.598837
0.578623
0.555205
0.529428
0.502378
0.475159
0.448702
0.423668
0.400439
0.379166
0.359838
0.342344
0.326524
0.312199
0.299196
0.287352
0.276526
0.266597
0.257465
0.24904
0.241208
0.233899
0.227061
0.220648
0.214621
0.208949
0.203603
0.198561
0.193804
0.189317
0.185086
0.181101
0.177354
0.17384
0.170556
0.1675
0.164675
0.162088
0.159748
0.157673
0.155906
0.154496
0.153413
0.152785
0.152726
0.156299
0.166145
0.177813
0.191566
0.207762
0.226874
0.249512
0.276467
0.308747
0.347619
0.394717
0.452136
0.521878
0.605129
0.701146
0.805567
0.909507
1.00156
1.07289
1.12139
1.15085
1.16726
1.17579
1.18003
1.18206
1.18302
1.18346
1.18366
1.18375
1.18379
1.18381
1.18382
1.18382
1.18382
1.18382
1.18382
1.18382
1.18382
1.18382
0.658526
0.658501
0.658458
0.658386
0.658266
0.658067
0.65774
0.657208
0.656355
0.655005
0.652906
0.649706
0.644948
0.638073
0.628475
0.615596
0.599077
0.578912
0.555535
0.529784
0.502745
0.47552
0.449045
0.423985
0.400725
0.37942
0.360059
0.342535
0.326686
0.312336
0.299309
0.287443
0.276597
0.26665
0.257501
0.24906
0.241214
0.233892
0.227041
0.220616
0.214578
0.208896
0.203541
0.19849
0.193726
0.189232
0.184995
0.181005
0.177255
0.173739
0.170454
0.167398
0.164575
0.161991
0.159655
0.157586
0.155826
0.15442
0.153342
0.152718
0.15266
0.157165
0.167157
0.178997
0.192955
0.2094
0.228814
0.251823
0.279232
0.312072
0.351636
0.399601
0.45808
0.529017
0.61347
0.710428
0.815134
0.918364
1.00874
1.07797
1.12456
1.15265
1.16821
1.17626
1.18025
1.18217
1.18307
1.18349
1.18367
1.18376
1.18379
1.18381
1.18382
1.18382
1.18382
1.18382
1.18382
1.18382
1.18382
1.18382
0.658526
0.658501
0.658458
0.658386
0.658267
0.658069
0.657743
0.657214
0.656365
0.655021
0.652931
0.649745
0.645006
0.638158
0.628593
0.615753
0.599277
0.579151
0.555806
0.530077
0.503044
0.475813
0.449322
0.424239
0.400952
0.379619
0.360232
0.342682
0.32681
0.312438
0.299391
0.287507
0.276645
0.266684
0.257521
0.249067
0.24121
0.233877
0.227016
0.220581
0.214535
0.208844
0.203482
0.198425
0.193655
0.189156
0.184915
0.180923
0.177171
0.173654
0.170368
0.167314
0.164494
0.161913
0.159583
0.157518
0.155764
0.154364
0.153291
0.152671
0.152613
0.157912
0.168038
0.18003
0.19417
0.210832
0.230508
0.253839
0.281646
0.314978
0.355148
0.403875
0.463282
0.535259
0.620746
0.718492
0.823393
0.925943
1.01484
1.08225
1.12721
1.15414
1.16899
1.17665
1.18044
1.18226
1.18311
1.1835
1.18368
1.18376
1.1838
1.18381
1.18382
1.18382
1.18382
1.18382
1.18382
1.18382
1.18382
1.18382
0.658526
0.658501
0.658458
0.658387
0.658268
0.65807
0.657746
0.65722
0.656373
0.655035
0.652952
0.649777
0.645054
0.638228
0.62869
0.615882
0.59944
0.579347
0.556027
0.530313
0.503285
0.476048
0.449543
0.42444
0.401131
0.379775
0.360365
0.342794
0.326903
0.312513
0.299451
0.287553
0.276678
0.266704
0.25753
0.249066
0.241199
0.233858
0.226989
0.220547
0.214494
0.208798
0.20343
0.198368
0.193594
0.189091
0.184848
0.180854
0.177101
0.173584
0.1703
0.167248
0.164431
0.161854
0.159527
0.157468
0.15572
0.154326
0.153257
0.152639
0.152581
0.158541
0.168787
0.180915
0.195212
0.212062
0.231965
0.255574
0.283723
0.317478
0.358172
0.407555
0.467761
0.540631
0.626997
0.725396
0.830423
0.932348
1.01994
1.0858
1.12941
1.15537
1.16963
1.17697
1.18059
1.18233
1.18314
1.18352
1.18369
1.18376
1.1838
1.18381
1.18382
1.18382
1.18382
1.18382
1.18382
1.18382
1.18382
1.18382
0.658526
0.658501
0.658459
0.658387
0.658269
0.658072
0.657749
0.657224
0.65638
0.655045
0.652969
0.649804
0.645094
0.638284
0.628769
0.615987
0.599571
0.579504
0.556204
0.530502
0.503477
0.476234
0.449716
0.424597
0.40127
0.379895
0.360467
0.342879
0.326972
0.312569
0.299493
0.287584
0.276698
0.266715
0.257533
0.249062
0.241187
0.233839
0.226964
0.220517
0.214459
0.208758
0.203386
0.198321
0.193544
0.189039
0.184794
0.180799
0.177046
0.173531
0.170249
0.167199
0.164385
0.161812
0.15949
0.157435
0.155694
0.154305
0.15324
0.152622
0.152563
0.159065
0.169415
0.18166
0.196092
0.213101
0.233197
0.25704
0.285479
0.319591
0.360727
0.410667
0.471547
0.545169
0.63227
0.731202
0.836308
0.937675
1.02416
1.08872
1.1312
1.15638
1.17016
1.17723
1.18071
1.18239
1.18317
1.18353
1.18369
1.18377
1.1838
1.18381
1.18382
1.18382
1.18382
1.18382
1.18382
1.18382
1.18382
1.18382
0.658526
0.658501
0.658459
0.658388
0.658269
0.658073
0.657751
0.657227
0.656386
0.655054
0.652983
0.649825
0.645125
0.638329
0.628831
0.616069
0.599675
0.579627
0.556343
0.53065
0.503626
0.476378
0.44985
0.424718
0.401376
0.379986
0.360544
0.342943
0.327024
0.312609
0.299524
0.287606
0.276712
0.266722
0.257533
0.249056
0.241176
0.233823
0.226944
0.220492
0.214431
0.208726
0.203351
0.198284
0.193505
0.188999
0.184754
0.18076
0.177008
0.173493
0.170213
0.167167
0.164356
0.161787
0.159469
0.15742
0.155684
0.154299
0.153236
0.152618
0.152556
0.159493
0.169933
0.182277
0.196821
0.213962
0.234216
0.258252
0.286929
0.321335
0.362836
0.413234
0.474669
0.548909
0.636608
0.735966
0.841118
0.942007
1.02758
1.09106
1.13263
1.15718
1.17057
1.17743
1.18081
1.18243
1.18319
1.18354
1.1837
1.18377
1.1838
1.18381
1.18382
1.18382
1.18382
1.18382
1.18382
1.18382
1.18382
1.18382
0.658526
0.658501
0.658459
0.658388
0.65827
0.658074
0.657752
0.65723
0.65639
0.655061
0.652993
0.649841
0.645149
0.638364
0.628879
0.616132
0.599754
0.579721
0.556449
0.530762
0.503739
0.476487
0.449951
0.424808
0.401455
0.380054
0.3606
0.342989
0.327061
0.312638
0.299545
0.287621
0.276721
0.266726
0.257533
0.249051
0.241168
0.233812
0.226929
0.220475
0.21441
0.208704
0.203327
0.198259
0.193479
0.188973
0.184728
0.180734
0.176983
0.173471
0.170193
0.167149
0.164342
0.161777
0.159463
0.157417
0.155685
0.154302
0.153239
0.152619
0.152554
0.159828
0.170345
0.18277
0.197405
0.214652
0.235033
0.259222
0.288087
0.322725
0.364515
0.415276
0.47715
0.551876
0.640044
0.739728
0.844903
0.945403
1.03024
1.09289
1.13375
1.1578
1.1709
1.17759
1.18089
1.18247
1.18321
1.18355
1.1837
1.18377
1.1838
1.18381
1.18382
1.18382
1.18382
1.18382
1.18382
1.18382
1.18382
1.18382
0.658526
0.658501
0.658459
0.658388
0.65827
0.658075
0.657754
0.657231
0.656393
0.655066
0.653001
0.649853
0.645167
0.638389
0.628914
0.616178
0.599812
0.579789
0.556525
0.530843
0.50382
0.476565
0.450023
0.424873
0.401511
0.380101
0.36064
0.343022
0.327087
0.312659
0.299561
0.287631
0.276728
0.266729
0.257533
0.249049
0.241164
0.233805
0.22692
0.220464
0.214398
0.208691
0.203313
0.198244
0.193464
0.188958
0.184714
0.180721
0.176971
0.173461
0.170186
0.167145
0.164341
0.161779
0.159469
0.157426
0.155693
0.154308
0.153236
0.152597
0.152496
0.160075
0.170656
0.183146
0.197852
0.215179
0.235654
0.259958
0.288963
0.323774
0.365778
0.416809
0.479009
0.554095
0.642606
0.742525
0.847705
0.947906
1.0322
1.09423
1.13457
1.15826
1.17114
1.17771
1.18094
1.18249
1.18322
1.18355
1.1837
1.18377
1.1838
1.18381
1.18382
1.18382
1.18382
1.18382
1.18382
1.18382
1.18382
1.18382
0.658526
0.658501
0.658459
0.658388
0.65827
0.658075
0.657754
0.657233
0.656395
0.655069
0.653006
0.64986
0.645178
0.638406
0.628936
0.616208
0.599849
0.579833
0.556574
0.530895
0.503872
0.476615
0.450069
0.424914
0.401547
0.380132
0.360666
0.343043
0.327104
0.312672
0.29957
0.287638
0.276733
0.266732
0.257534
0.249049
0.241162
0.233803
0.226917
0.22046
0.214393
0.208685
0.203307
0.198238
0.193458
0.188953
0.184709
0.180717
0.17697
0.173461
0.170189
0.167151
0.16435
0.161792
0.159485
0.157444
0.155713
0.154328
0.153254
0.152607
0.152495
0.160239
0.170869
0.183407
0.198163
0.215545
0.236083
0.260463
0.28956
0.324486
0.366631
0.417841
0.480255
0.555575
0.644308
0.744374
0.849547
0.949541
1.03347
1.09511
1.1351
1.15855
1.17129
1.17779
1.18098
1.18251
1.18323
1.18356
1.1837
1.18377
1.1838
1.18381
1.18382
1.18382
1.18382
1.18382
1.18382
1.18382
1.18382
1.18382
0.658526
0.658501
0.658459
0.658388
0.658271
0.658075
0.657755
0.657233
0.656396
0.655071
0.653008
0.649864
0.645183
0.638413
0.628947
0.616222
0.599867
0.579854
0.556597
0.530919
0.503897
0.476639
0.450091
0.424934
0.401564
0.380146
0.360678
0.343053
0.327112
0.312678
0.299575
0.287642
0.276735
0.266734
0.257535
0.24905
0.241163
0.233803
0.226917
0.220459
0.214393
0.208684
0.203306
0.198237
0.193458
0.188953
0.18471
0.18072
0.176973
0.173467
0.170196
0.16716
0.164362
0.161806
0.159502
0.157463
0.155734
0.154349
0.153274
0.152621
0.152495
0.16032
0.170983
0.183548
0.19833
0.21574
0.23631
0.260726
0.289868
0.324849
0.367062
0.418356
0.48087
0.5563
0.645135
0.745265
0.850427
0.950315
1.03407
1.09551
1.13535
1.15869
1.17136
1.17782
1.181
1.18252
1.18323
1.18356
1.18371
1.18377
1.1838
1.18381
1.18382
1.18382
1.18382
1.18382
1.18382
1.18382
1.18382
1.18382
0.658526
0.658501
0.658459
0.658388
0.658271
0.658075
0.657755
0.657233
0.656396
0.655071
0.653008
0.649864
0.645183
0.638413
0.628947
0.616222
0.599866
0.579854
0.556597
0.530919
0.503897
0.476639
0.450091
0.424933
0.401564
0.380146
0.360678
0.343052
0.327112
0.312678
0.299575
0.287642
0.276735
0.266734
0.257535
0.24905
0.241163
0.233803
0.226917
0.220459
0.214393
0.208684
0.203306
0.198237
0.193458
0.188953
0.18471
0.18072
0.176973
0.173467
0.170196
0.16716
0.164362
0.161806
0.159502
0.157463
0.155734
0.15435
0.153274
0.152621
0.152495
0.16032
0.170983
0.183548
0.19833
0.21574
0.23631
0.260726
0.289868
0.324849
0.367062
0.418355
0.48087
0.5563
0.645135
0.745265
0.850427
0.950315
1.03407
1.09551
1.13535
1.15869
1.17136
1.17782
1.181
1.18252
1.18323
1.18356
1.18371
1.18377
1.1838
1.18381
1.18382
1.18382
1.18382
1.18382
1.18382
1.18382
1.18382
1.18382
0.658526
0.658501
0.658459
0.658388
0.65827
0.658075
0.657754
0.657233
0.656395
0.655069
0.653006
0.64986
0.645178
0.638406
0.628936
0.616208
0.599849
0.579833
0.556574
0.530894
0.503872
0.476615
0.450069
0.424914
0.401547
0.380132
0.360665
0.343042
0.327104
0.312671
0.29957
0.287638
0.276733
0.266732
0.257534
0.249049
0.241162
0.233802
0.226917
0.22046
0.214393
0.208685
0.203307
0.198238
0.193458
0.188953
0.184709
0.180717
0.17697
0.173461
0.170189
0.167151
0.16435
0.161792
0.159485
0.157444
0.155713
0.154328
0.153254
0.152607
0.152495
0.160239
0.170869
0.183407
0.198163
0.215545
0.236083
0.260463
0.28956
0.324486
0.366631
0.41784
0.480254
0.555575
0.644308
0.744373
0.849546
0.949541
1.03347
1.09511
1.1351
1.15855
1.17129
1.17779
1.18098
1.18251
1.18323
1.18356
1.1837
1.18377
1.1838
1.18381
1.18382
1.18382
1.18382
1.18382
1.18382
1.18382
1.18382
1.18382
0.658526
0.658501
0.658459
0.658388
0.65827
0.658075
0.657753
0.657231
0.656393
0.655066
0.653001
0.649852
0.645166
0.638389
0.628913
0.616178
0.599811
0.579789
0.556524
0.530842
0.503819
0.476564
0.450023
0.424872
0.40151
0.380101
0.36064
0.343021
0.327087
0.312658
0.29956
0.287631
0.276728
0.266729
0.257533
0.249049
0.241163
0.233805
0.22692
0.220464
0.214398
0.20869
0.203313
0.198244
0.193464
0.188958
0.184714
0.18072
0.176971
0.173461
0.170186
0.167145
0.164341
0.161779
0.159469
0.157426
0.155693
0.154308
0.153237
0.152597
0.152496
0.160075
0.170656
0.183146
0.197852
0.215179
0.235654
0.259958
0.288962
0.323774
0.365778
0.416809
0.479009
0.554094
0.642605
0.742523
0.847703
0.947905
1.0322
1.09423
1.13457
1.15826
1.17114
1.17771
1.18094
1.18249
1.18322
1.18355
1.1837
1.18377
1.1838
1.18381
1.18382
1.18382
1.18382
1.18382
1.18382
1.18382
1.18382
1.18382
0.658526
0.658501
0.658459
0.658388
0.65827
0.658074
0.657752
0.65723
0.65639
0.655061
0.652993
0.649841
0.645149
0.638364
0.628879
0.616132
0.599754
0.579721
0.556448
0.530761
0.503738
0.476486
0.44995
0.424807
0.401454
0.380053
0.3606
0.342989
0.32706
0.312638
0.299545
0.28762
0.276721
0.266726
0.257533
0.249051
0.241168
0.233811
0.226929
0.220475
0.21441
0.208704
0.203327
0.198259
0.193479
0.188973
0.184728
0.180734
0.176983
0.173471
0.170193
0.167149
0.164342
0.161777
0.159463
0.157417
0.155685
0.154302
0.153239
0.152619
0.152554
0.159828
0.170345
0.18277
0.197405
0.214652
0.235033
0.259222
0.288086
0.322725
0.364514
0.415275
0.47715
0.551875
0.640043
0.739727
0.844902
0.945402
1.03024
1.09289
1.13375
1.1578
1.1709
1.17759
1.18089
1.18247
1.18321
1.18355
1.1837
1.18377
1.1838
1.18381
1.18382
1.18382
1.18382
1.18382
1.18382
1.18382
1.18382
1.18382
0.658526
0.658501
0.658459
0.658388
0.658269
0.658073
0.657751
0.657227
0.656386
0.655054
0.652983
0.649824
0.645125
0.638329
0.628831
0.616068
0.599674
0.579626
0.556342
0.530649
0.503625
0.476377
0.449849
0.424717
0.401375
0.379985
0.360543
0.342942
0.327023
0.312609
0.299523
0.287605
0.276712
0.266721
0.257533
0.249055
0.241176
0.233823
0.226944
0.220492
0.21443
0.208726
0.203351
0.198284
0.193505
0.188999
0.184754
0.18076
0.177008
0.173493
0.170213
0.167167
0.164356
0.161787
0.159469
0.15742
0.155684
0.154299
0.153236
0.152618
0.152556
0.159492
0.169933
0.182276
0.196821
0.213961
0.234216
0.258252
0.286928
0.321334
0.362835
0.413233
0.474668
0.548907
0.636606
0.735964
0.841116
0.942005
1.02757
1.09106
1.13263
1.15718
1.17057
1.17743
1.18081
1.18243
1.18319
1.18354
1.1837
1.18377
1.1838
1.18381
1.18382
1.18382
1.18382
1.18382
1.18382
1.18382
1.18382
1.18382
0.658526
0.658501
0.658459
0.658387
0.658269
0.658072
0.657749
0.657224
0.65638
0.655045
0.652969
0.649803
0.645093
0.638284
0.628768
0.615986
0.59957
0.579503
0.556203
0.530501
0.503475
0.476233
0.449715
0.424596
0.401268
0.379894
0.360466
0.342878
0.326972
0.312568
0.299493
0.287583
0.276698
0.266715
0.257533
0.249061
0.241187
0.233839
0.226964
0.220517
0.214459
0.208757
0.203386
0.198321
0.193543
0.189039
0.184794
0.180799
0.177046
0.173531
0.170249
0.1672
0.164385
0.161812
0.15949
0.157435
0.155694
0.154305
0.15324
0.152622
0.152563
0.159065
0.169415
0.18166
0.196092
0.213101
0.233197
0.25704
0.285478
0.31959
0.360727
0.410666
0.471546
0.545167
0.632268
0.731199
0.836306
0.937672
1.02416
1.08872
1.1312
1.15638
1.17016
1.17722
1.18071
1.18239
1.18317
1.18353
1.18369
1.18377
1.1838
1.18381
1.18382
1.18382
1.18382
1.18382
1.18382
1.18382
1.18382
1.18382
0.658526
0.658501
0.658458
0.658387
0.658268
0.65807
0.657746
0.657219
0.656373
0.655034
0.652952
0.649777
0.645054
0.638227
0.628689
0.615881
0.599439
0.579345
0.556026
0.530312
0.503283
0.476047
0.449541
0.424438
0.401129
0.379773
0.360364
0.342793
0.326902
0.312513
0.29945
0.287552
0.276677
0.266703
0.25753
0.249066
0.241199
0.233858
0.226989
0.220547
0.214494
0.208797
0.203429
0.198368
0.193594
0.189091
0.184848
0.180853
0.177101
0.173584
0.1703
0.167248
0.164431
0.161854
0.159527
0.157468
0.15572
0.154326
0.153257
0.152639
0.152581
0.158541
0.168786
0.180915
0.195212
0.212061
0.231965
0.255573
0.283722
0.317477
0.358171
0.407554
0.467759
0.540629
0.626994
0.725393
0.83042
0.932345
1.01994
1.0858
1.1294
1.15537
1.16963
1.17697
1.18059
1.18233
1.18314
1.18352
1.18369
1.18376
1.1838
1.18381
1.18382
1.18382
1.18382
1.18382
1.18382
1.18382
1.18382
1.18382
0.658526
0.658501
0.658458
0.658386
0.658267
0.658069
0.657743
0.657214
0.656365
0.655021
0.652931
0.649745
0.645006
0.638157
0.628592
0.615752
0.599275
0.57915
0.555805
0.530075
0.503042
0.475811
0.44932
0.424237
0.400951
0.379618
0.36023
0.342681
0.326809
0.312437
0.29939
0.287507
0.276645
0.266683
0.25752
0.249067
0.241209
0.233876
0.227015
0.220581
0.214535
0.208844
0.203482
0.198425
0.193655
0.189156
0.184915
0.180922
0.17717
0.173653
0.170368
0.167314
0.164494
0.161913
0.159583
0.157518
0.155763
0.154364
0.153291
0.152671
0.152612
0.157912
0.168037
0.18003
0.19417
0.210831
0.230508
0.253838
0.281645
0.314976
0.355147
0.403873
0.46328
0.535257
0.620743
0.718489
0.823389
0.92594
1.01484
1.08224
1.12721
1.15414
1.16899
1.17665
1.18044
1.18226
1.18311
1.1835
1.18368
1.18376
1.1838
1.18381
1.18382
1.18382
1.18382
1.18382
1.18382
1.18382
1.18382
1.18382
0.658526
0.658501
0.658458
0.658386
0.658266
0.658067
0.65774
0.657208
0.656355
0.655005
0.652905
0.649706
0.644947
0.638073
0.628474
0.615595
0.599076
0.57891
0.555533
0.529782
0.502743
0.475518
0.449043
0.423983
0.400723
0.379418
0.360058
0.342534
0.326685
0.312335
0.299307
0.287442
0.276596
0.26665
0.257501
0.249059
0.241213
0.233891
0.227041
0.220615
0.214578
0.208895
0.20354
0.19849
0.193726
0.189231
0.184995
0.181005
0.177255
0.173739
0.170454
0.167398
0.164575
0.161991
0.159655
0.157586
0.155825
0.15442
0.153342
0.152718
0.15266
0.157165
0.167157
0.178996
0.192955
0.2094
0.228814
0.251822
0.279231
0.312071
0.351635
0.399599
0.458078
0.529014
0.613466
0.710424
0.815131
0.91836
1.00874
1.07797
1.12456
1.15265
1.16821
1.17626
1.18025
1.18217
1.18307
1.18349
1.18367
1.18376
1.18379
1.18381
1.18382
1.18382
1.18382
1.18382
1.18382
1.18382
1.18382
1.18382
0.658526
0.6585
0.658457
0.658385
0.658264
0.658064
0.657736
0.657201
0.656344
0.654987
0.652876
0.64966
0.644878
0.637972
0.628333
0.615406
0.598836
0.578621
0.555202
0.529425
0.502375
0.475156
0.448699
0.423665
0.400437
0.379164
0.359836
0.342342
0.326522
0.312198
0.299194
0.287351
0.276525
0.266596
0.257464
0.249039
0.241207
0.233899
0.22706
0.220647
0.21462
0.208948
0.203602
0.198561
0.193804
0.189316
0.185085
0.1811
0.177354
0.17384
0.170555
0.1675
0.164675
0.162087
0.159748
0.157673
0.155906
0.154496
0.153413
0.152785
0.152726
0.156298
0.166145
0.177812
0.191565
0.207761
0.226872
0.24951
0.276464
0.308743
0.347616
0.394714
0.452133
0.521875
0.605125
0.701142
0.805563
0.909503
1.00155
1.07289
1.12139
1.15085
1.16726
1.17579
1.18003
1.18206
1.18302
1.18346
1.18366
1.18375
1.18379
1.18381
1.18382
1.18382
1.18382
1.18382
1.18382
1.18382
1.18382
1.18382
0.658526
0.6585
0.658457
0.658384
0.658263
0.658061
0.657731
0.657193
0.65633
0.654965
0.652841
0.649606
0.644797
0.637854
0.628167
0.615182
0.59855
0.578275
0.554805
0.528994
0.501929
0.474714
0.448276
0.423272
0.400079
0.378844
0.359554
0.342097
0.32631
0.312017
0.299042
0.287224
0.276422
0.266516
0.257405
0.248998
0.241184
0.233892
0.227069
0.220671
0.214658
0.208998
0.203664
0.198634
0.193887
0.189408
0.185185
0.181206
0.177464
0.173954
0.170672
0.167617
0.164791
0.162201
0.159858
0.157778
0.156004
0.154588
0.153501
0.152873
0.152817
0.155331
0.165019
0.176494
0.190015
0.205929
0.224697
0.246915
0.273353
0.304995
0.343085
0.38921
0.445435
0.51382
0.595691
0.690593
0.794609
0.899267
0.993156
1.06689
1.11761
1.14871
1.16614
1.17523
1.17976
1.18194
1.18297
1.18344
1.18365
1.18375
1.18379
1.18381
1.18382
1.18382
1.18382
1.18382
1.18382
1.18382
1.18382
1.18382
0.658526
0.6585
0.658456
0.658383
0.658261
0.658058
0.657725
0.657184
0.656315
0.65494
0.652802
0.649545
0.644704
0.637717
0.627974
0.614921
0.598214
0.577866
0.554334
0.528478
0.501392
0.474178
0.44776
0.422789
0.399636
0.378445
0.359198
0.341783
0.326036
0.31178
0.298839
0.287052
0.276279
0.2664
0.257313
0.24893
0.241137
0.233865
0.227061
0.22068
0.214684
0.20904
0.203721
0.198704
0.19397
0.189502
0.185289
0.181319
0.177584
0.174079
0.1708
0.167747
0.16492
0.162327
0.159979
0.157892
0.156107
0.15468
0.153587
0.152961
0.152927
0.154335
0.163834
0.175082
0.188332
0.203922
0.222298
0.244039
0.269895
0.300823
0.338038
0.383079
0.437978
0.504845
0.585148
0.678743
0.782208
0.887551
0.983424
1.05986
1.11314
1.14616
1.16479
1.17456
1.17944
1.18179
1.1829
1.18341
1.18364
1.18374
1.18379
1.18381
1.18382
1.18382
1.18382
1.18382
1.18382
1.18382
1.18382
1.18382
0.658526
0.6585
0.658456
0.658382
0.658259
0.658055
0.65772
0.657174
0.656299
0.654913
0.652759
0.649477
0.6446
0.637562
0.627753
0.614621
0.597825
0.577388
0.553779
0.527868
0.500752
0.473535
0.447136
0.4222
0.399092
0.37795
0.358753
0.341387
0.325686
0.311473
0.298572
0.286822
0.276083
0.266236
0.257179
0.248823
0.241056
0.233808
0.227027
0.220668
0.214692
0.209068
0.203767
0.198767
0.194048
0.189595
0.185394
0.181435
0.17771
0.174211
0.170937
0.167885
0.165057
0.162458
0.1601
0.157997
0.156184
0.154727
0.153591
0.152905
0.152787
0.153439
0.162681
0.173645
0.186571
0.201783
0.219711
0.240915
0.266119
0.296254
0.3325
0.376346
0.429777
0.494951
0.57349
0.665572
0.768306
0.874264
0.972243
1.05168
1.1079
1.14315
1.1632
1.17377
1.17906
1.18162
1.18282
1.18337
1.18362
1.18374
1.18378
1.18381
1.18381
1.18382
1.18382
1.18382
1.18382
1.18382
1.18382
1.18382
0.658526
0.6585
0.658455
0.658381
0.658257
0.658051
0.657713
0.657164
0.656281
0.654884
0.652711
0.649401
0.644483
0.637388
0.627504
0.614279
0.597378
0.576836
0.553134
0.527152
0.499996
0.47277
0.446388
0.421488
0.398428
0.377341
0.358202
0.340891
0.325244
0.311081
0.298226
0.28652
0.275822
0.266012
0.256991
0.248668
0.240931
0.233713
0.226959
0.220626
0.214675
0.209073
0.203795
0.198815
0.194116
0.18968
0.185496
0.18155
0.177836
0.174347
0.171079
0.16803
0.165201
0.162597
0.160226
0.158103
0.156248
0.154741
0.153526
0.152713
0.152387
0.152688
0.161612
0.172226
0.184763
0.199536
0.216955
0.237557
0.26204
0.291301
0.326485
0.369031