/*--------------------------------*- C++ -*----------------------------------*\
  =========                 |
  \\      /  F ield         | OpenFOAM: The Open Source CFD Toolbox
   \\    /   O peration     | Website:  https://openfoam.org
    \\  /    A nd           | Version:  8
     \\/     M anipulation  |
\*---------------------------------------------------------------------------*/
FoamFile
{
    version     2.0;
    format      ascii;
    class       volScalarField;
    location    "740/fluid";
    object      T;
}
// * * * * * * * * * * * * * * * * * * * * * * * * * * * * * * * * * * * * * //

dimensions      [0 0 0 1 0 0 0];

internalField   nonuniform List<scalar> 
4000
(
293.004
293.017
293.039
293.076
293.138
293.241
293.41
293.687
294.135
294.85
295.978
297.726
300.383
304.328
310.033
318.035
328.886
343.073
360.94
382.622
408.04
436.931
468.926
503.615
540.611
579.58
620.251
662.418
705.922
750.642
796.479
843.341
891.134
939.753
989.076
1039.04
1089.66
1140.85
1192.52
1244.56
1296.86
1349.32
1401.82
1454.23
1506.46
1558.35
1609.79
1660.64
1710.74
1759.94
1808.07
1854.93
1900.3
1943.93
1985.5
2024.64
2060.87
2093.13
2120.81
2143.98
2160.5
2168.53
2157.18
2047.16
1930.11
1808.16
1683.09
1556.36
1429.27
1302.98
1178.6
1057.23
940.012
827.842
721.975
624.437
537.559
463.637
404.478
360.707
331.178
313.096
302.972
297.743
295.191
293.989
293.438
293.191
293.082
293.035
293.015
293.006
293.003
293.001
293
293
293
293
293
293
293.004
293.017
293.039
293.077
293.139
293.242
293.412
293.691
294.14
294.858
295.986
297.73
300.372
304.282
309.919
317.805
328.48
342.428
359.998
381.344
406.411
434.965
466.657
501.091
537.885
576.705
617.278
659.39
702.879
747.617
793.502
840.439
888.333
937.075
986.544
1036.66
1087.45
1138.83
1190.7
1242.94
1295.45
1348.13
1400.85
1453.5
1505.94
1558.06
1609.73
1660.79
1711.11
1760.51
1808.83
1855.88
1901.42
1945.21
1986.94
2026.21
2062.55
2094.9
2122.64
2145.86
2162.39
2170.34
2148.24
2037.13
1919.09
1796.23
1670.29
1542.73
1414.86
1287.86
1162.87
1041.03
923.515
811.275
705.755
609.158
523.901
452.264
395.846
354.86
327.692
311.268
302.12
297.375
295.042
293.931
293.417
293.183
293.08
293.034
293.014
293.006
293.003
293.001
293
293
293
293
293
293
293.004
293.017
293.039
293.077
293.139
293.243
293.414
293.693
294.144
294.863
295.991
297.732
300.362
304.246
309.833
317.634
328.178
341.941
359.271
380.331
405.079
433.3
464.663
498.789
535.308
573.891
614.269
656.229
699.606
744.274
790.127
837.071
885.01
933.835
983.423
1033.68
1084.65
1136.23
1188.32
1240.82
1293.61
1346.57
1399.6
1452.56
1505.34
1557.8
1609.79
1661.19
1711.83
1761.56
1810.19
1857.53
1903.36
1947.41
1989.36
2028.84
2065.36
2097.79
2125.59
2148.79
2165.18
2172.93
2132.23
2020.09
1900.98
1777.05
1650.12
1521.69
1393.12
1265.62
1140.38
1018.62
901.558
790.178
686.134
591.718
509.285
440.901
387.79
349.717
324.742
309.733
301.385
297.04
294.895
293.869
293.391
293.173
293.075
293.032
293.014
293.006
293.002
293.001
293
293
293
293
293
293
293.004
293.017
293.039
293.077
293.139
293.243
293.413
293.692
294.141
294.855
295.975
297.7
300.304
304.144
309.663
317.366
327.774
341.362
358.479
379.296
403.782
431.737
462.839
496.72
533.015
571.399
611.605
653.421
696.684
741.269
787.072
833.999
881.956
930.836
980.517
1030.9
1082.02
1133.79
1186.1
1238.84
1291.91
1345.18
1398.53
1451.84
1504.98
1557.8
1610.17
1661.95
1712.96
1763.05
1812.03
1859.71
1905.84
1950.17
1992.37
2032.06
2068.73
2101.17
2128.89
2151.98
2168.21
2175.58
2112.3
1999.34
1879.29
1754.44
1626.67
1497.58
1368.55
1240.89
1115.82
994.62
878.467
768.423
666.291
574.371
494.914
429.775
379.857
344.565
321.703
308.092
300.563
296.651
294.717
293.79
293.357
293.158
293.069
293.03
293.013
293.005
293.002
293.001
293
293
293
293
293
293
293.004
293.017
293.039
293.077
293.139
293.242
293.412
293.689
294.135
294.844
295.956
297.666
300.246
304.048
309.509
317.128
327.421
340.861
357.799
378.411
402.679
430.41
461.295
494.971
531.079
569.297
609.359
651.054
694.222
738.736
784.495
831.407
879.38
928.309
978.072
1028.57
1079.82
1131.77
1184.28
1237.27
1290.6
1344.16
1397.83
1451.48
1504.97
1558.15
1610.9
1663.04
1714.42
1764.87
1814.2
1862.19
1908.61
1953.19
1995.6
2035.44
2072.15
2104.43
2132.06
2155
2170.82
2177.32
2091.38
1977.85
1856.97
1731.25
1602.74
1473.11
1343.83
1216.23
1091.57
971.168
856.134
747.624
647.571
558.231
481.741
419.737
372.816
340.063
319.078
306.684
299.857
296.315
294.562
293.72
293.326
293.145
293.064
293.028
293.012
293.005
293.002
293.001
293
293
293
293
293
293
293.004
293.017
293.039
293.076
293.138
293.24
293.409
293.684
294.126
294.83
295.931
297.625
300.179
303.942
309.346
316.886
327.076
340.387
357.174
377.618
401.71
429.263
459.977
493.494
529.458
567.55
607.503
649.109
692.207
736.673
782.405
829.315
877.311
926.292
976.136
1026.74
1078.13
1130.24
1182.95
1236.16
1289.74
1343.58
1397.55
1451.5
1505.31
1558.84
1611.92
1664.41
1716.13
1766.91
1816.53
1864.8
1911.45
1956.21
1998.72
2038.58
2075.28
2107.37
2134.87
2157.49
2172.91
2178.83
2074.35
1959.1
1836.64
1709.66
1580.21
1450
1320.49
1193.02
1068.87
949.343
835.476
728.53
630.511
543.629
469.903
410.767
366.545
336.048
316.722
305.404
299.206
296
294.415
293.653
293.296
293.132
293.058
293.025
293.011
293.005
293.002
293.001
293
293
293
293
293
293
293.004
293.017
293.039
293.076
293.137
293.239
293.406
293.679
294.118
294.815
295.907
297.585
300.115
303.843
309.197
316.668
326.769
339.969
356.628
376.933
400.879
428.289
458.867
492.26
528.113
566.11
605.985
647.529
690.582
735.02
780.744
827.666
875.696
924.735
974.662
1025.37
1076.89
1129.15
1182.04
1235.45
1289.27
1343.36
1397.59
1451.83
1505.95
1559.78
1613.18
1665.97
1717.99
1769.04
1818.92
1867.4
1914.21
1959.06
2001.58
2041.32
2077.76
2109.19
2136.76
2158.39
2172.61
2177.13
2064.95
1944.93
1819.43
1690.47
1559.78
1428.89
1299.14
1171.83
1048.2
929.522
816.775
711.329
615.233
530.637
459.445
402.908
361.099
332.592
314.707
304.313
298.65
295.73
294.288
293.595
293.27
293.121
293.053
293.023
293.01
293.004
293.002
293.001
293
293
293
293
293
293
293.004
293.017
293.039
293.075
293.136
293.237
293.403
293.673
294.109
294.8
295.883
297.547
300.055
303.751
309.06
316.471
326.494
339.601
356.153
376.342
400.17
427.466
457.938
491.235
527.007
564.936
604.757
646.261
689.288
733.716
779.447
826.393
874.467
923.569
973.581
1024.39
1076.04
1128.45
1181.51
1235.12
1289.14
1343.45
1397.92
1452.42
1506.8
1560.9
1614.57
1667.63
1719.9
1771.19
1821.28
1869.92
1916.86
1961.75
2004.23
2043.81
2079.71
2110.48
2136.99
2156.81
2168.05
2167.57
2052.4
1929.98
1802.67
1672.44
1540.93
1409.6
1279.77
1152.7
1029.62
911.775
800.096
696.05
601.72
519.203
450.297
396.078
356.394
329.618
312.976
303.375
298.17
295.496
294.178
293.544
293.247
293.11
293.049
293.021
293.009
293.004
293.002
293.001
293
293
293
293
293
293
293.004
293.017
293.038
293.075
293.135
293.235
293.4
293.668
294.101
294.787
295.861
297.512
300.001
303.669
308.939
316.297
326.254
339.283
355.746
375.84
399.573
426.777
457.166
490.392
526.103
563.984
603.77
645.252
688.269
732.701
778.45
825.428
873.551
922.719
972.816
1023.73
1075.49
1128.04
1181.26
1235.03
1289.24
1343.75
1398.44
1453.17
1507.78
1562.12
1616.02
1669.31
1721.8
1773.28
1823.55
1872.33
1919.36
1964.29
2006.72
2046.15
2081.7
2112.09
2138.02
2157
2167.02
2155.93
2038.85
1914.96
1786.56
1655.56
1523.58
1392.07
1262.31
1135.55
1013.05
895.983
785.294
682.546
589.833
509.2
442.347
390.184
352.365
327.088
311.51
302.582
297.765
295.298
294.084
293.501
293.228
293.102
293.045
293.019
293.008
293.004
293.001
293.001
293
293
293
293
293
293
293.004
293.017
293.038
293.074
293.134
293.234
293.397
293.664
294.093
294.775
295.841
297.481
299.953
303.596
308.832
316.146
326.048
339.01
355.4
375.417
399.073
426.206
456.531
489.702
525.371
563.22
602.985
644.456
687.475
731.92
777.694
824.711
872.885
922.12
972.299
1023.31
1075.18
1127.86
1181.21
1235.14
1289.51
1344.21
1399.08
1454
1508.82
1563.36
1617.46
1670.94
1723.62
1775.27
1825.68
1874.59
1921.71
1966.7
2009.15
2048.56
2084
2114.26
2140.11
2159.12
2169.45
2142.96
2025.01
1900.39
1771.44
1640.06
1507.89
1376.36
1246.78
1120.4
998.456
882.114
772.342
670.771
579.502
500.539
435.491
385.131
348.931
324.944
310.272
301.913
297.422
295.131
294.004
293.464
293.211
293.094
293.042
293.018
293.008
293.003
293.001
293.001
293
293
293
293
293
293
293.004
293.016
293.038
293.074
293.133
293.232
293.395
293.66
294.086
294.764
295.824
297.454
299.911
303.534
308.741
316.018
325.873
338.781
355.11
375.064
398.659
425.735
456.011
489.143
524.782
562.61
602.364
643.835
686.863
731.327
777.13
824.187
872.413
921.712
971.967
1023.07
1075.04
1127.83
1181.31
1235.37
1289.89
1344.74
1399.78
1454.87
1509.85
1564.57
1618.84
1672.48
1725.31
1777.1
1827.63
1876.64
1923.83
1968.87
2011.35
2050.75
2086.11
2116.32
2142.15
2161.14
2171.48
2130.43
2011.97
1886.93
1757.66
1626.1
1493.87
1362.42
1233.06
1107.05
985.66
869.995
761.054
660.539
570.557
493.072
429.614
380.823
346.022
323.136
309.232
301.353
297.136
294.991
293.938
293.433
293.197
293.088
293.039
293.017
293.007
293.003
293.001
293.001
293
293
293
293
293
293
293.004
293.016
293.038
293.073
293.133
293.231
293.393
293.657
294.081
294.755
295.809
297.43
299.875
303.48
308.664
315.909
325.726
338.589
354.869
374.772
398.319
425.351
455.59
488.693
524.311
562.128
601.879
643.355
686.396
730.881
776.715
823.813
872.089
921.448
971.774
1022.95
1075.02
1127.9
1181.49
1235.68
1290.32
1345.31
1400.49
1455.72
1510.84
1565.7
1620.11
1673.88
1726.83
1778.73
1829.36
1878.44
1925.69
1970.75
2013.22
2052.6
2087.9
2118.06
2143.83
2162.77
2173.09
2119.33
2000.39
1875.01
1745.51
1613.82
1481.59
1350.26
1221.15
1095.52
974.617
859.538
751.314
651.728
562.876
486.684
424.608
377.175
343.57
321.62
308.363
300.885
296.897
294.875
293.882
293.408
293.185
293.083
293.036
293.016
293.007
293.003
293.001
293.001
293
293
293
293
293
293
293.004
293.016
293.037
293.073
293.132
293.23
293.391
293.654
294.076
294.747
295.796
297.41
299.845
303.435
308.599
315.819
325.604
338.43
354.67
374.534
398.042
425.041
455.252
488.334
523.939
561.75
601.502
642.986
686.043
730.551
776.415
823.551
871.873
921.287
971.676
1022.93
1075.07
1128.04
1181.73
1236.01
1290.77
1345.86
1401.16
1456.51
1511.75
1566.72
1621.24
1675.12
1728.16
1780.15
1830.84
1879.97
1927.24
1972.31
2014.75
2054.11
2089.35
2119.45
2145.15
2164.03
2174.32
2109.86
1990.43
1864.71
1735.02
1603.25
1471.05
1339.84
1210.95
1085.63
965.161
850.59
742.992
644.214
556.341
481.267
420.38
374.107
341.519
320.357
307.641
300.498
296.7
294.778
293.836
293.386
293.175
293.078
293.035
293.015
293.006
293.003
293.001
293
293
293
293
293
293
293
293.004
293.016
293.037
293.073
293.132
293.229
293.39
293.651
294.072
294.74
295.786
297.394
299.82
303.398
308.546
315.745
325.504
338.301
354.509
374.341
397.819
424.792
454.983
488.051
523.647
561.456
601.212
642.706
685.779
730.309
776.201
823.371
871.735
921.197
971.64
1022.95
1075.16
1128.21
1181.97
1236.34
1291.19
1346.38
1401.77
1457.21
1512.55
1567.61
1622.22
1676.18
1729.29
1781.33
1832.06
1881.22
1928.49
1973.55
2016
2055.31
2090.47
2120.5
2146.14
2164.99
2175.24
2101.95
1982.03
1856
1726.13
1594.29
1462.11
1331.01
1202.3
1077.27
957.165
843.029
735.973
637.885
550.847
476.723
416.845
371.553
339.819
319.314
307.047
300.179
296.537
294.698
293.799
293.369
293.167
293.075
293.033
293.014
293.006
293.003
293.001
293
293
293
293
293
293
293
293.004
293.016
293.037
293.072
293.131
293.228
293.389
293.649
294.068
294.735
295.777
297.381
299.8
303.368
308.503
315.684
325.423
338.197
354.381
374.188
397.643
424.596
454.772
487.829
523.421
561.23
600.991
642.496
685.583
730.133
776.05
823.251
871.65
921.152
971.642
1023
1075.27
1128.38
1182.21
1236.65
1291.56
1346.83
1402.29
1457.81
1513.22
1568.35
1623.03
1677.04
1730.2
1782.28
1833.03
1882.19
1929.47
1974.52
2016.93
2056.19
2091.27
2121.23
2146.82
2165.65
2175.88
2095.41
1975.03
1848.72
1718.69
1586.79
1454.63
1323.62
1195.09
1070.29
950.507
836.74
730.141
632.633
546.296
472.968
413.932
369.455
338.427
318.463
306.563
299.921
296.405
294.634
293.768
293.354
293.161
293.072
293.032
293.014
293.006
293.003
293.001
293
293
293
293
293
293
293
293.004
293.016
293.037
293.072
293.131
293.228
293.388
293.647
294.066
294.73
295.77
297.37
299.783
303.344
308.468
315.637
325.36
338.116
354.28
374.068
397.505
424.444
454.609
487.659
523.248
561.059
600.826
642.339
685.44
730.007
775.945
823.17
871.599
921.134
971.66
1023.06
1075.38
1128.53
1182.41
1236.9
1291.88
1347.2
1402.72
1458.3
1513.76
1568.94
1623.66
1677.71
1730.89
1782.99
1833.75
1882.92
1930.18
1975.2
2017.56
2056.77
2091.78
2121.68
2147.23
2166.06
2176.29
2090.11
1969.3
1842.74
1712.57
1580.63
1448.49
1317.58
1189.19
1064.61
945.083
831.622
725.4
628.37
542.608
469.93
411.581
367.766
337.309
317.782
306.177
299.714
296.3
294.583
293.743
293.343
293.156
293.07
293.031
293.013
293.006
293.002
293.001
293
293
293
293
293
293
293
293.004
293.016
293.037
293.072
293.131
293.227
293.387
293.646
294.064
294.727
295.765
297.362
299.771
303.326
308.442
315.601
325.312
338.053
354.203
373.977
397.401
424.33
454.486
487.533
523.12
560.933
600.704
642.226
685.338
729.918
775.873
823.117
871.568
921.128
971.682
1023.11
1075.46
1128.65
1182.57
1237.1
1292.12
1347.48
1403.04
1458.66
1514.16
1569.37
1624.11
1678.18
1731.38
1783.49
1834.25
1883.4
1930.64
1975.62
2017.94
2057.1
2092.06
2121.92
2147.46
2166.31
2176.57
2085.97
1964.77
1837.97
1707.69
1575.71
1443.61
1312.78
1184.52
1060.11
940.807
827.594
721.676
625.027
539.721
467.558
409.75
366.453
336.441
317.253
305.877
299.554
296.219
294.543
293.724
293.334
293.152
293.068
293.03
293.013
293.006
293.002
293.001
293
293
293
293
293
293
293
293.004
293.016
293.037
293.072
293.13
293.227
293.386
293.645
294.062
294.724
295.761
297.356
299.762
303.313
308.423
315.574
325.277
338.009
354.148
373.911
397.327
424.248
454.399
487.443
523.03
560.844
600.619
642.147
685.266
729.857
775.824
823.082
871.548
921.126
971.698
1023.15
1075.52
1128.74
1182.68
1237.24
1292.28
1347.67
1403.26
1458.9
1514.42
1569.65
1624.41
1678.49
1731.69
1783.79
1834.53
1883.66
1930.86
1975.81
2018.08
2057.21
2092.17
2122.06
2147.72
2166.83
2177.58
2082.93
1961.36
1834.35
1703.97
1571.98
1439.91
1309.16
1181.02
1056.75
937.614
824.595
718.91
622.551
537.589
465.811
408.405
365.491
335.807
316.866
305.657
299.436
296.159
294.513
293.71
293.328
293.149
293.066
293.029
293.013
293.005
293.002
293.001
293
293
293
293
293
293
293
293.004
293.016
293.037
293.072
293.13
293.227
293.386
293.645
294.061
294.723
295.758
297.352
299.756
303.304
308.411
315.557
325.254
337.98
354.112
373.869
397.279
424.195
454.343
487.385
522.972
560.787
600.565
642.097
685.222
729.819
775.793
823.06
871.536
921.124
971.707
1023.17
1075.55
1128.78
1182.74
1237.32
1292.37
1347.78
1403.38
1459.03
1514.56
1569.8
1624.56
1678.64
1731.83
1783.91
1834.64
1883.73
1930.9
1975.8
2018.03
2057.11
2092.05
2121.93
2147.62
2166.82
2177.72
2080.91
1959.02
1831.84
1701.39
1569.4
1437.37
1306.68
1178.63
1054.47
935.468
822.589
717.069
620.91
536.181
464.663
407.525
364.865
335.396
316.615
305.514
299.359
296.12
294.494
293.701
293.323
293.147
293.066
293.029
293.013
293.005
293.002
293.001
293
293
293
293
293
293
293
293.004
293.016
293.037
293.072
293.13
293.227
293.386
293.644
294.061
294.722
295.757
297.35
299.753
303.3
308.405
315.549
325.243
337.966
354.095
373.849
397.256
424.17
454.317
487.358
522.944
560.76
600.54
642.073
685.2
729.801
775.778
823.049
871.529
921.122
971.711
1023.18
1075.57
1128.8
1182.77
1237.35
1292.41
1347.82
1403.43
1459.08
1514.62
1569.85
1624.61
1678.68
1731.86
1783.93
1834.63
1883.7
1930.83
1975.69
2017.88
2056.93
2091.83
2121.7
2147.41
2166.69
2177.78
2079.92
1957.77
1830.48
1700
1568.02
1436.03
1305.4
1177.41
1053.32
934.39
821.591
716.163
620.109
535.5
464.111
407.106
364.57
335.203
316.499
305.448
299.324
296.101
294.485
293.697
293.321
293.146
293.065
293.029
293.012
293.005
293.002
293.001
293
293
293
293
293
293
293
293.004
293.016
293.037
293.072
293.13
293.227
293.386
293.644
294.061
294.722
295.757
297.35
299.753
303.3
308.405
315.549
325.243
337.966
354.095
373.849
397.256
424.17
454.317
487.358
522.944
560.76
600.54
642.073
685.201
729.801
775.778
823.049
871.53
921.122
971.711
1023.18
1075.57
1128.8
1182.77
1237.35
1292.41
1347.82
1403.43
1459.08
1514.62
1569.85
1624.61
1678.68
1731.86
1783.93
1834.63
1883.7
1930.83
1975.69
2017.88
2056.93
2091.83
2121.7
2147.4
2166.69
2177.78
2079.92
1957.77
1830.48
1700
1568.02
1436.03
1305.4
1177.41
1053.32
934.39
821.591
716.163
620.109
535.5
464.112
407.106
364.57
335.203
316.499
305.448
299.324
296.101
294.485
293.697
293.321
293.146
293.065
293.029
293.012
293.005
293.002
293.001
293
293
293
293
293
293
293
293.004
293.016
293.037
293.072
293.13
293.227
293.386
293.645
294.061
294.723
295.758
297.352
299.756
303.304
308.411
315.558
325.254
337.98
354.112
373.869
397.279
424.196
454.344
487.385
522.972
560.788
600.566
642.097
685.222
729.82
775.793
823.061
871.536
921.124
971.708
1023.17
1075.55
1128.78
1182.74
1237.32
1292.37
1347.78
1403.38
1459.03
1514.57
1569.8
1624.56
1678.64
1731.84
1783.91
1834.64
1883.73
1930.9
1975.8
2018.03
2057.11
2092.05
2121.93
2147.62
2166.82
2177.72
2080.91
1959.02
1831.84
1701.39
1569.4
1437.37
1306.68
1178.63
1054.47
935.469
822.59
717.07
620.91
536.181
464.663
407.525
364.865
335.396
316.615
305.514
299.359
296.12
294.494
293.701
293.323
293.147
293.066
293.029
293.013
293.005
293.002
293.001
293
293
293
293
293
293
293
293.004
293.016
293.037
293.072
293.13
293.227
293.386
293.645
294.062
294.724
295.761
297.356
299.762
303.313
308.423
315.575
325.277
338.009
354.148
373.912
397.328
424.248
454.4
487.444
523.031
560.845
600.62
642.148
685.268
729.858
775.825
823.083
871.549
921.127
971.699
1023.15
1075.52
1128.74
1182.68
1237.24
1292.28
1347.67
1403.26
1458.9
1514.42
1569.65
1624.41
1678.49
1731.69
1783.79
1834.53
1883.66
1930.86
1975.81
2018.08
2057.21
2092.17
2122.06
2147.71
2166.83
2177.58
2082.93
1961.36
1834.35
1703.97
1571.98
1439.91
1309.16
1181.02
1056.75
937.615
824.596
718.911
622.552
537.589
465.812
408.405
365.491
335.807
316.866
305.657
299.436
296.159
294.513
293.71
293.328
293.149
293.066
293.029
293.013
293.005
293.002
293.001
293
293
293
293
293
293
293
293.004
293.016
293.037
293.072
293.131
293.227
293.387
293.646
294.064
294.727
295.765
297.362
299.771
303.326
308.442
315.601
325.312
338.054
354.204
373.977
397.402
424.331
454.488
487.534
523.122
560.934
600.706
642.227
685.339
729.92
775.874
823.119
871.569
921.129
971.683
1023.12
1075.46
1128.65
1182.58
1237.11
1292.12
1347.48
1403.05
1458.66
1514.16
1569.37
1624.11
1678.18
1731.38
1783.49
1834.25
1883.4
1930.64
1975.62
2017.93
2057.1
2092.06
2121.92
2147.46
2166.31
2176.57
2085.97
1964.77
1837.97
1707.69
1575.71
1443.61
1312.78
1184.52
1060.11
940.808
827.595
721.677
625.028
539.722
467.559
409.75
366.453
336.442
317.253
305.877
299.554
296.219
294.543
293.724
293.334
293.152
293.068
293.03
293.013
293.006
293.002
293.001
293
293
293
293
293
293
293
293.004
293.016
293.037
293.072
293.131
293.228
293.388
293.647
294.066
294.73
295.77
297.37
299.783
303.345
308.469
315.637
325.361
338.116
354.281
374.069
397.506
424.445
454.61
487.661
523.25
561.061
600.828
642.341
685.442
730.009
775.947
823.172
871.601
921.136
971.662
1023.06
1075.38
1128.53
1182.42
1236.91
1291.88
1347.2
1402.72
1458.3
1513.76
1568.94
1623.66
1677.71
1730.89
1782.99
1833.75
1882.92
1930.18
1975.2
2017.56
2056.77
2091.78
2121.68
2147.23
2166.06
2176.29
2090.11
1969.31
1842.74
1712.57
1580.63
1448.49
1317.58
1189.19
1064.61
945.085
831.624
725.402
628.372
542.609
469.932
411.582
367.767
337.31
317.782
306.177
299.714
296.3
294.583
293.743
293.343
293.156
293.07
293.031
293.013
293.006
293.002
293.001
293
293
293
293
293
293
293
293.004
293.016
293.037
293.072
293.131
293.228
293.389
293.649
294.068
294.735
295.777
297.381
299.8
303.368
308.503
315.685
325.424
338.198
354.382
374.189
397.644
424.598
454.774
487.831
523.423
561.232
600.993
642.498
685.586
730.136
776.053
823.253
871.652
921.155
971.644
1023.01
1075.27
1128.38
1182.21
1236.65
1291.57
1346.83
1402.3
1457.82
1513.23
1568.36
1623.03
1677.04
1730.2
1782.28
1833.03
1882.19
1929.47
1974.52
2016.92
2056.19
2091.27
2121.23
2146.82
2165.65
2175.88
2095.42
1975.04
1848.72
1718.69
1586.79
1454.63
1323.62
1195.09
1070.3
950.509
836.743
730.143
632.635
546.298
472.969
413.933
369.456
338.427
318.464
306.564
299.921
296.406
294.634
293.768
293.354
293.161
293.072
293.032
293.014
293.006
293.003
293.001
293
293
293
293
293
293
293
293.004
293.016
293.037
293.073
293.132
293.229
293.39
293.651
294.072
294.74
295.786
297.394
299.82
303.399
308.546
315.745
325.505
338.302
354.511
374.343
397.821
424.794
454.985
488.053
523.65
561.458
601.215
642.709
685.782
730.312
776.204
823.374
871.738
921.2
971.643
1022.95
1075.17
1128.21
1181.98
1236.35
1291.19
1346.38
1401.77
1457.21
1512.55
1567.61
1622.22
1676.18
1729.29
1781.33
1832.07
1881.22
1928.5
1973.56
2016
2055.31
2090.47
2120.5
2146.14
2164.99
2175.24
2101.95
1982.03
1856
1726.13
1594.3
1462.11
1331.01
1202.3
1077.27
957.168
843.032
735.976
637.888
550.849
476.725
416.847
371.554
339.819
319.315
307.047
300.179
296.537
294.698
293.799
293.369
293.167
293.075
293.033
293.014
293.006
293.003
293.001
293
293
293
293
293
293
293
293.004
293.016
293.037
293.073
293.132
293.23
293.391
293.654
294.076
294.747
295.796
297.411
299.845
303.436
308.6
315.819
325.605
338.431
354.672
374.536
398.044
425.043
455.255
488.337
523.942
561.753
601.505
642.989
686.046
730.555
776.419
823.554
871.877
921.291
971.68
1022.93
1075.07
1128.05
1181.73
1236.01
1290.77
1345.87
1401.16
1456.51
1511.75
1566.72
1621.24
1675.12
1728.17
1780.15
1830.84
1879.97
1927.24
1972.31
2014.76
2054.11
2089.35
2119.45
2145.15
2164.03
2174.33
2109.86
1990.43
1864.72
1735.02
1603.26
1471.06
1339.85
1210.95
1085.64
965.165
850.593
742.996
644.217
556.344
481.269
420.381
374.108
341.52
320.358
307.642
300.498
296.7
294.778
293.836
293.386
293.175
293.078
293.035
293.015
293.006
293.003
293.001
293
293
293
293
293
293
293
293.004
293.016
293.038
293.073
293.133
293.231
293.393
293.657
294.081
294.755
295.809
297.43
299.875
303.481
308.664
315.91
325.727
338.59
354.87
374.774
398.321
425.354
455.593
488.696
524.315
562.131
601.882
643.358
686.4
730.885
776.719
823.817
872.093
921.452
971.778
1022.96
1075.02
1127.91
1181.5
1235.68
1290.33
1345.31
1400.49
1455.72
1510.85
1565.7
1620.11
1673.89
1726.83
1778.74
1829.36
1878.44
1925.69
1970.75
2013.22
2052.6
2087.9
2118.07
2143.83
2162.77
2173.09
2119.34
2000.39
1875.01
1745.51
1613.82
1481.6
1350.27
1221.15
1095.52
974.621
859.543
751.319
651.731
562.879
486.687
424.61
377.176
343.571
321.621
308.363
300.885
296.897
294.875
293.882
293.408
293.185
293.083
293.036
293.016
293.007
293.003
293.001
293.001
293
293
293
293
293
293
293.004
293.016
293.038
293.074
293.133
293.232
293.395
293.66
294.087
294.764
295.824
297.454
299.911
303.534
308.742
316.019
325.874
338.782
355.111
375.066
398.661
425.738
456.015
489.147
524.785
562.614
602.369
643.84
686.868
731.331
777.134
824.192
872.418
921.717
971.973
1023.07
1075.05
1127.83
1181.31
1235.37
1289.9
1344.75
1399.79
1454.88
1509.86
1564.57
1618.84
1672.49
1725.31
1777.1
1827.63
1876.64
1923.84
1968.87
2011.35
2050.76
2086.12
2116.32
2142.15
2161.14
2171.48
2130.43
2011.97
1886.94
1757.68
1626.11
1493.88
1362.44
1233.08
1107.07
985.672
870.006
761.06
660.543
570.561
493.075
429.616
380.825
346.023
323.137
309.232
301.353
297.136
294.991
293.938
293.433
293.197
293.088
293.039
293.017
293.007
293.003
293.001
293.001
293
293
293
293
293
293
293.004
293.017
293.038
293.074
293.134
293.234
293.397
293.664
294.093
294.775
295.841
297.481
299.953
303.597
308.833
316.147
326.049
339.012
355.402
375.419
399.076
426.209
456.534
489.706
525.375
563.224
602.989
644.461
687.481
731.925
777.699
824.716
872.891
922.125
972.304
1023.31
1075.19
1127.86
1181.22
1235.14
1289.52
1344.21
1399.09
1454.01
1508.82
1563.36
1617.46
1670.95
1723.62
1775.28
1825.68
1874.59
1921.71
1966.7
2009.15
2048.57
2084
2114.26
2140.11
2159.12
2169.45
2142.96
2025
1900.38
1771.42
1640.04
1507.87
1376.34
1246.75
1120.37
998.441
882.105
772.339
670.773
579.505
500.542
435.493
385.133
348.932
324.944
310.272
301.913
297.423
295.131
294.004
293.464
293.211
293.094
293.042
293.018
293.008
293.003
293.001
293.001
293
293
293
293
293
293
293.004
293.017
293.038
293.075
293.135
293.235
293.4
293.669
294.101
294.787
295.861
297.512
300.001
303.669
308.939
316.298
326.256
339.284
355.748
375.843
399.576
426.781
457.17
490.396
526.108
563.989
603.775
645.257
688.275
732.707
778.456
825.435
873.557
922.725
972.823
1023.74
1075.5
1128.05
1181.27
1235.04
1289.24
1343.76
1398.45
1453.17
1507.78
1562.12
1616.02
1669.31
1721.8
1773.29
1823.55
1872.34
1919.36
1964.29
2006.72
2046.16
2081.7
2112.09
2138.03
2157
2167.03
2155.93
2038.86
1914.97
1786.58
1655.58
1523.61
1392.09
1262.33
1135.58
1013.07
896.001
785.308
682.55
589.835
509.203
442.35
390.186
352.366
327.089
311.51
302.582
297.765
295.298
294.084
293.501
293.228
293.102
293.045
293.019
293.008
293.004
293.001
293.001
293
293
293
293
293
293
293.004
293.017
293.039
293.075
293.136
293.237
293.403
293.673
294.109
294.801
295.883
297.547
300.055
303.752
309.061
316.472
326.495
339.603
356.155
376.345
400.174
427.47
457.942
491.24
527.012
564.941
604.762
646.267
689.294
733.723
779.454
826.4
874.474
923.576
973.588
1024.4
1076.05
1128.46
1181.52
1235.12
1289.14
1343.45
1397.93
1452.43
1506.8
1560.91
1614.58
1667.64
1719.91
1771.2
1821.28
1869.93
1916.86
1961.76
2004.23
2043.81
2079.72
2110.48
2136.99
2156.82
2168.05
2167.57
2052.4
1929.98
1802.67
1672.43
1540.92
1409.59
1279.76
1152.69
1029.61
911.763
800.084
696.044
601.718
519.204
450.299
396.079
356.395
329.619
312.977
303.375
298.17
295.496
294.178
293.544
293.247
293.11
293.049
293.021
293.009
293.004
293.002
293.001
293
293
293
293
293
293
293.004
293.017
293.039
293.076
293.137
293.239
293.406
293.679
294.118
294.815
295.907
297.585
300.116
303.844
309.198
316.67
326.77
339.972
356.631
376.936
400.882
428.293
458.871
492.265
528.119
566.116
605.992
647.536
690.589
735.027
780.751
827.673
875.704
924.743
974.671
1025.38
1076.9
1129.16
1182.05
1235.47
1289.28
1343.37
1397.6
1451.84
1505.96
1559.79
1613.19
1665.98
1718
1769.05
1818.93
1867.41
1914.22
1959.07
2001.59
2041.33
2077.77
2109.19
2136.76
2158.39
2172.61
2177.13
2064.95
1944.93
1819.43
1690.47
1559.78
1428.89
1299.14
1171.83
1048.21
929.533
816.793
711.346
615.244
530.642
459.448
402.91
361.1
332.592
314.707
304.313
298.65
295.73
294.288
293.595
293.27
293.121
293.053
293.023
293.01
293.004
293.002
293.001
293
293
293
293
293
293
293.004
293.017
293.039
293.076
293.138
293.24
293.409
293.684
294.126
294.83
295.931
297.625
300.179
303.943
309.347
316.887
327.078
340.389
357.176
377.622
401.714
429.268
459.983
493.5
529.465
567.556
607.51
649.117
692.215
736.681
782.413
829.323
877.32
926.301
976.145
1026.75
1078.14
1130.25
1182.96
1236.16
1289.74
1343.58
1397.55
1451.51
1505.32
1558.85
1611.93
1664.42
1716.14
1766.92
1816.54
1864.81
1911.46
1956.21
1998.73
2038.59
2075.29
2107.38
2134.87
2157.5
2172.92
2178.84
2074.35
1959.1
1836.65
1709.66
1580.21
1450
1320.49
1193.02
1068.88
949.344
835.475
728.529
630.512
543.632
469.905
410.769
366.546
336.049
316.723
305.404
299.206
296
294.415
293.653
293.296
293.132
293.058
293.025
293.011
293.005
293.002
293.001
293
293
293
293
293
293
293.004
293.017
293.039
293.077
293.139
293.242
293.412
293.689
294.135
294.845
295.956
297.667
300.246
304.049
309.51
317.129
327.423
340.863
357.802
378.415
402.684
430.416
461.301
494.977
531.086
569.304
609.366
651.062
694.23
738.745
784.504
831.417
879.39
928.319
978.082
1028.58
1079.84
1131.78
1184.3
1237.28
1290.61
1344.17
1397.84
1451.5
1504.98
1558.17
1610.91
1663.05
1714.43
1764.88
1814.21
1862.2
1908.62
1953.2
1995.61
2035.45
2072.16
2104.44
2132.07
2155.01
2170.82
2177.33
2091.38
1977.85
1856.96
1731.25
1602.74
1473.11
1343.83
1216.23
1091.57
971.168
856.134
747.625
647.572
558.233
481.742
419.738
372.817
340.064
319.079
306.684
299.857
296.315
294.562
293.72
293.326
293.145
293.064
293.028
293.012
293.005
293.002
293.001
293
293
293
293
293
293
293.004
293.017
293.039
293.077
293.139
293.243
293.413
293.692
294.141
294.855
295.975
297.7
300.304
304.145
309.664
317.367
327.776
341.364
358.482
379.3
403.787
431.742
462.846
496.727
533.023
571.407
611.613
653.43
696.694
741.279
787.082
834.009
881.966
930.847
980.528
1030.91
1082.03
1133.8
1186.11
1238.86
1291.92
1345.19
1398.54
1451.85
1504.99
1557.82
1610.19
1661.96
1712.97
1763.06
1812.05
1859.72
1905.86
1950.18
1992.39
2032.07
2068.74
2101.18
2128.9
2151.99
2168.22
2175.59
2112.29
1999.33
1879.29
1754.43
1626.67
1497.57
1368.55
1240.89
1115.82
994.618
878.466
768.423
666.291
574.372
494.915
429.776
379.858
344.566
321.704
308.093
300.563
296.651
294.717
293.79
293.357
293.158
293.069
293.03
293.013
293.005
293.002
293.001
293
293
293
293
293
293
293.004
293.017
293.039
293.077
293.139
293.243
293.414
293.693
294.144
294.863
295.992
297.732
300.363
304.247
309.834
317.635
328.18
341.944
359.275
380.335
405.084
433.306
464.67
498.797
535.316
573.9
614.278
656.238
699.616
744.284
790.138
837.083
885.022
933.847
983.435
1033.7
1084.66
1136.24
1188.34
1240.83
1293.62
1346.59
1399.61
1452.58
1505.35
1557.81
1609.81
1661.21
1711.85
1761.58
1810.21
1857.55
1903.37
1947.42
1989.38
2028.85
2065.37
2097.81
2125.6
2148.8
2165.19
2172.94
2132.22
2020.08
1900.97
1777.05
1650.11
1521.69
1393.11
1265.61
1140.38
1018.62
901.557
790.177
686.134
591.718
509.286
440.902
387.791
349.717
324.742
309.733
301.385
297.04
294.895
293.869
293.391
293.173
293.075
293.032
293.014
293.006
293.002
293.001
293
293
293
293
293
293
293.004
293.017
293.039
293.077
293.139
293.242
293.412
293.691
294.14
294.858
295.987
297.731
300.372
304.283
309.92
317.807
328.483
342.431
360.002
381.349
406.417
434.972
466.664
501.099
537.894
576.714
617.288
659.4
702.889
747.628
793.514
840.452
888.345
937.089
986.557
1036.67