/*--------------------------------*- C++ -*----------------------------------*\
  =========                 |
  \\      /  F ield         | OpenFOAM: The Open Source CFD Toolbox
   \\    /   O peration     | Website:  https://openfoam.org
    \\  /    A nd           | Version:  8
     \\/     M anipulation  |
\*---------------------------------------------------------------------------*/
FoamFile
{
    version     2.0;
    format      ascii;
    class       volVectorField;
    location    "740/fluid";
    object      U;
}
// * * * * * * * * * * * * * * * * * * * * * * * * * * * * * * * * * * * * * //

dimensions      [0 1 -1 0 0 0 0];

internalField   nonuniform List<vector> 
4000
(
(0.0999455 -0.00705699 0)
(0.0996494 -0.0209993 0)
(0.0991713 -0.0348268 0)
(0.098511 -0.0485781 0)
(0.0976604 -0.0622714 0)
(0.0966018 -0.0759084 0)
(0.0953146 -0.0894784 0)
(0.0937794 -0.102961 0)
(0.0919808 -0.11633 0)
(0.0899103 -0.129556 0)
(0.0875696 -0.142611 0)
(0.0849745 -0.155477 0)
(0.082159 -0.168143 0)
(0.0791819 -0.180596 0)
(0.0761216 -0.192881 0)
(0.073051 -0.205069 0)
(0.0700209 -0.217218 0)
(0.067049 -0.229371 0)
(0.0641114 -0.24154 0)
(0.0611445 -0.253698 0)
(0.0580561 -0.26578 0)
(0.0547453 -0.277697 0)
(0.0511225 -0.289341 0)
(0.0471303 -0.300583 0)
(0.0427434 -0.311329 0)
(0.0379541 -0.321515 0)
(0.0327681 -0.331078 0)
(0.0272029 -0.339961 0)
(0.0212842 -0.348118 0)
(0.015043 -0.355513 0)
(0.00851314 -0.362125 0)
(0.0017297 -0.367939 0)
(-0.00527039 -0.372954 0)
(-0.0124509 -0.377174 0)
(-0.0197788 -0.380614 0)
(-0.0272246 -0.383293 0)
(-0.0347607 -0.385235 0)
(-0.0423614 -0.386471 0)
(-0.0500021 -0.387037 0)
(-0.0576593 -0.38697 0)
(-0.065311 -0.386312 0)
(-0.0729365 -0.385107 0)
(-0.0805159 -0.383401 0)
(-0.0880299 -0.381239 0)
(-0.09546 -0.378671 0)
(-0.102788 -0.375746 0)
(-0.109996 -0.372513 0)
(-0.117066 -0.369022 0)
(-0.123979 -0.365327 0)
(-0.130719 -0.361478 0)
(-0.137264 -0.35753 0)
(-0.143596 -0.353538 0)
(-0.149693 -0.34956 0)
(-0.155532 -0.345659 0)
(-0.16109 -0.3419 0)
(-0.166336 -0.338358 0)
(-0.171231 -0.335115 0)
(-0.175723 -0.332258 0)
(-0.179785 -0.329887 0)
(-0.183455 -0.328157 0)
(-0.186799 -0.327345 0)
(-0.189198 -0.327808 0)
(-0.18856 -0.329385 0)
(-0.183707 -0.33034 0)
(-0.176692 -0.329574 0)
(-0.169244 -0.327216 0)
(-0.161564 -0.323556 0)
(-0.153588 -0.318738 0)
(-0.145338 -0.312823 0)
(-0.136883 -0.305847 0)
(-0.128302 -0.297842 0)
(-0.119682 -0.28884 0)
(-0.111108 -0.278883 0)
(-0.102677 -0.268018 0)
(-0.0945343 -0.256304 0)
(-0.0869241 -0.243851 0)
(-0.0801747 -0.230861 0)
(-0.0746552 -0.217609 0)
(-0.0707418 -0.204663 0)
(-0.0687299 -0.192531 0)
(-0.0686524 -0.181454 0)
(-0.0702096 -0.171345 0)
(-0.0728868 -0.161894 0)
(-0.0761464 -0.152768 0)
(-0.0795613 -0.143724 0)
(-0.0828507 -0.13462 0)
(-0.0858427 -0.125357 0)
(-0.0884704 -0.115982 0)
(-0.090732 -0.106541 0)
(-0.0926522 -0.0970686 0)
(-0.0942647 -0.0875944 0)
(-0.0956048 -0.0781457 0)
(-0.0967067 -0.068744 0)
(-0.097602 -0.0594036 0)
(-0.0983193 -0.0501316 0)
(-0.0988839 -0.0409277 0)
(-0.0993176 -0.0317853 0)
(-0.0996376 -0.0226905 0)
(-0.0998557 -0.0136217 0)
(-0.0999821 -0.00455075 0)
(0.0999999 -0.0066193 0)
(0.0997941 -0.0197998 0)
(0.0993685 -0.0328943 0)
(0.0986994 -0.045885 0)
(0.097788 -0.0587537 0)
(0.0966301 -0.071477 0)
(0.0952164 -0.0840269 0)
(0.0935389 -0.0963717 0)
(0.0915956 -0.108479 0)
(0.0893938 -0.120319 0)
(0.086953 -0.131873 0)
(0.0843076 -0.143138 0)
(0.0815081 -0.154144 0)
(0.0786215 -0.164976 0)
(0.0757206 -0.175693 0)
(0.0728721 -0.186356 0)
(0.0701222 -0.197037 0)
(0.067483 -0.207806 0)
(0.0649238 -0.2187 0)
(0.0623719 -0.229717 0)
(0.0597237 -0.240813 0)
(0.0568639 -0.251906 0)
(0.0536867 -0.262902 0)
(0.0501099 -0.273719 0)
(0.0460854 -0.284242 0)
(0.0415948 -0.294338 0)
(0.0366403 -0.303905 0)
(0.0312417 -0.312865 0)
(0.0254301 -0.32116 0)
(0.0192431 -0.328749 0)
(0.0127214 -0.335607 0)
(0.00590611 -0.341718 0)
(-0.00116238 -0.347077 0)
(-0.00844494 -0.351689 0)
(-0.0159045 -0.355566 0)
(-0.0235067 -0.358726 0)
(-0.0312203 -0.361194 0)
(-0.0390168 -0.362996 0)
(-0.0468696 -0.364165 0)
(-0.0547538 -0.364735 0)
(-0.0626459 -0.364744 0)
(-0.0705243 -0.364233 0)
(-0.0783683 -0.363242 0)
(-0.0861583 -0.361815 0)
(-0.0938755 -0.359997 0)
(-0.101502 -0.357834 0)
(-0.10902 -0.355373 0)
(-0.116413 -0.35266 0)
(-0.123663 -0.349744 0)
(-0.130754 -0.346674 0)
(-0.137668 -0.3435 0)
(-0.144388 -0.340272 0)
(-0.150897 -0.337043 0)
(-0.157177 -0.333866 0)
(-0.163209 -0.330796 0)
(-0.168974 -0.327888 0)
(-0.174437 -0.3252 0)
(-0.179556 -0.322785 0)
(-0.184332 -0.320694 0)
(-0.188866 -0.318982 0)
(-0.193264 -0.317698 0)
(-0.196562 -0.316833 0)
(-0.196124 -0.315883 0)
(-0.19082 -0.31425 0)
(-0.183291 -0.311732 0)
(-0.175462 -0.308225 0)
(-0.167492 -0.303682 0)
(-0.159251 -0.298078 0)
(-0.150725 -0.2914 0)
(-0.141964 -0.28364 0)
(-0.133028 -0.274797 0)
(-0.123982 -0.264889 0)
(-0.114889 -0.253954 0)
(-0.105822 -0.242073 0)
(-0.0969314 -0.229402 0)
(-0.0884957 -0.216222 0)
(-0.0809094 -0.202989 0)
(-0.0746352 -0.190334 0)
(-0.0701296 -0.178676 0)
(-0.0676833 -0.168284 0)
(-0.0672673 -0.159167 0)
(-0.0685229 -0.151052 0)
(-0.070919 -0.143531 0)
(-0.0739391 -0.136239 0)
(-0.0771862 -0.128943 0)
(-0.0804018 -0.121538 0)
(-0.0834446 -0.114014 0)
(-0.0862292 -0.106287 0)
(-0.0887207 -0.0983306 0)
(-0.0909132 -0.0901755 0)
(-0.0928149 -0.0818614 0)
(-0.0944419 -0.0734265 0)
(-0.0958147 -0.0649044 0)
(-0.0969552 -0.0563228 0)
(-0.0978858 -0.047703 0)
(-0.0986272 -0.03906 0)
(-0.0991972 -0.0304029 0)
(-0.0996075 -0.021735 0)
(-0.0998663 -0.0130545 0)
(-0.0999951 -0.00435689 0)
(0.0999788 -0.00634055 0)
(0.0997147 -0.0189536 0)
(0.0991974 -0.0314782 0)
(0.0984081 -0.043894 0)
(0.0973506 -0.0561787 0)
(0.096026 -0.0683086 0)
(0.0944338 -0.0802588 0)
(0.0925768 -0.092004 0)
(0.0904655 -0.103521 0)
(0.08812 -0.114792 0)
(0.0855726 -0.125805 0)
(0.0828692 -0.136562 0)
(0.0800686 -0.147078 0)
(0.0772353 -0.157386 0)
(0.0744351 -0.16754 0)
(0.0717296 -0.177614 0)
(0.0691639 -0.187687 0)
(0.0667505 -0.19783 0)
(0.0644592 -0.208088 0)
(0.062217 -0.218465 0)
(0.0599191 -0.228928 0)
(0.0574475 -0.239405 0)
(0.0546894 -0.249802 0)
(0.0515489 -0.260017 0)
(0.0479562 -0.26995 0)
(0.0438734 -0.279509 0)
(0.0392926 -0.288613 0)
(0.034227 -0.297192 0)
(0.0287046 -0.305191 0)
(0.0227613 -0.312566 0)
(0.0164374 -0.319286 0)
(0.00977434 -0.325331 0)
(0.00281339 -0.330691 0)
(-0.00440502 -0.335365 0)
(-0.0118426 -0.339359 0)
(-0.0194638 -0.342687 0)
(-0.027236 -0.345368 0)
(-0.0351291 -0.347425 0)
(-0.0431155 -0.348886 0)
(-0.0511693 -0.349781 0)
(-0.0592663 -0.350144 0)
(-0.0673841 -0.350012 0)
(-0.0755014 -0.349421 0)
(-0.0835987 -0.348413 0)
(-0.0916573 -0.347027 0)
(-0.0996594 -0.345306 0)
(-0.107588 -0.343293 0)
(-0.115427 -0.34103 0)
(-0.123162 -0.338561 0)
(-0.130777 -0.335932 0)
(-0.13826 -0.333185 0)
(-0.145597 -0.330366 0)
(-0.152776 -0.327517 0)
(-0.159784 -0.324683 0)
(-0.16661 -0.321904 0)
(-0.17324 -0.319221 0)
(-0.179643 -0.316669 0)
(-0.18578 -0.314273 0)
(-0.191669 -0.312053 0)
(-0.197422 -0.310025 0)
(-0.203024 -0.308194 0)
(-0.206934 -0.306497 0)
(-0.206196 -0.304291 0)
(-0.200266 -0.301301 0)
(-0.192229 -0.297619 0)
(-0.183841 -0.293169 0)
(-0.175241 -0.287851 0)
(-0.166329 -0.281602 0)
(-0.157101 -0.274395 0)
(-0.147603 -0.266225 0)
(-0.137888 -0.257112 0)
(-0.128016 -0.247106 0)
(-0.118046 -0.236294 0)
(-0.108066 -0.224812 0)
(-0.0982701 -0.212862 0)
(-0.0890007 -0.200734 0)
(-0.0807225 -0.188794 0)
(-0.073964 -0.177447 0)
(-0.0691884 -0.167062 0)
(-0.0666149 -0.157843 0)
(-0.0661171 -0.149734 0)
(-0.0672749 -0.142449 0)
(-0.0695468 -0.135614 0)
(-0.0724343 -0.128913 0)
(-0.0755627 -0.122142 0)
(-0.0786921 -0.115197 0)
(-0.0816927 -0.108047 0)
(-0.0844986 -0.100703 0)
(-0.0870724 -0.0931825 0)
(-0.0893959 -0.0855063 0)
(-0.0914642 -0.0776948 0)
(-0.0932807 -0.0697689 0)
(-0.0948538 -0.0617486 0)
(-0.0961943 -0.0536524 0)
(-0.0973147 -0.045496 0)
(-0.0982276 -0.0372925 0)
(-0.0989441 -0.0290521 0)
(-0.0994708 -0.020782 0)
(-0.0998117 -0.0124865 0)
(-0.0999872 -0.0041682 0)
(0.0999836 -0.0059867 0)
(0.0997151 -0.0178959 0)
(0.0991804 -0.0297121 0)
(0.0983599 -0.0414083 0)
(0.0972625 -0.0529577 0)
(0.0958948 -0.0643331 0)
(0.0942622 -0.0755076 0)
(0.0923734 -0.0864556 0)
(0.0902431 -0.0971549 0)
(0.0878943 -0.107589 0)
(0.08536 -0.11775 0)
(0.0826846 -0.127644 0)
(0.0799246 -0.137294 0)
(0.0771461 -0.146742 0)
(0.0744196 -0.15605 0)
(0.0718098 -0.165296 0)
(0.0693621 -0.174563 0)
(0.0670879 -0.183923 0)
(0.0649556 -0.193425 0)
(0.0628905 -0.20308 0)
(0.0607851 -0.212861 0)
(0.0585179 -0.222703 0)
(0.0559721 -0.232523 0)
(0.053051 -0.242222 0)
(0.0496856 -0.251702 0)
(0.0458358 -0.260872 0)
(0.0414878 -0.269649 0)
(0.036648 -0.277964 0)
(0.0313371 -0.285761 0)
(0.0255855 -0.292996 0)
(0.0194285 -0.299638 0)
(0.0129036 -0.305665 0)
(0.006049 -0.311065 0)
(-0.00109744 -0.315834 0)
(-0.00849899 -0.319977 0)
(-0.0161211 -0.323503 0)
(-0.0239318 -0.326428 0)
(-0.0319017 -0.328771 0)
(-0.0400038 -0.330556 0)
(-0.0482126 -0.331809 0)
(-0.0565042 -0.33256 0)
(-0.0648566 -0.332841 0)
(-0.0732491 -0.332684 0)
(-0.0816626 -0.332126 0)
(-0.0900787 -0.331202 0)
(-0.0984804 -0.329949 0)
(-0.106851 -0.328405 0)
(-0.115177 -0.326607 0)
(-0.123443 -0.324594 0)
(-0.131637 -0.322402 0)
(-0.139745 -0.320069 0)
(-0.147756 -0.317629 0)
(-0.155658 -0.315118 0)
(-0.163441 -0.312565 0)
(-0.171091 -0.31 0)
(-0.178591 -0.307446 0)
(-0.185901 -0.304918 0)
(-0.192972 -0.302424 0)
(-0.199827 -0.299962 0)
(-0.206589 -0.297535 0)
(-0.213076 -0.295134 0)
(-0.217092 -0.2927 0)
(-0.215609 -0.289499 0)
(-0.208956 -0.285484 0)
(-0.20047 -0.280856 0)
(-0.191548 -0.275573 0)
(-0.182276 -0.26954 0)
(-0.172603 -0.262699 0)
(-0.162563 -0.255025 0)
(-0.152221 -0.246522 0)
(-0.141652 -0.23722 0)
(-0.130932 -0.227183 0)
(-0.120144 -0.216511 0)
(-0.10942 -0.205348 0)
(-0.0990106 -0.193903 0)
(-0.0893131 -0.182462 0)
(-0.0808135 -0.171374 0)
(-0.0740109 -0.161013 0)
(-0.0692946 -0.151688 0)
(-0.0667989 -0.143529 0)
(-0.0663325 -0.136425 0)
(-0.0674522 -0.130073 0)
(-0.0696309 -0.124118 0)
(-0.0724004 -0.118268 0)
(-0.0754137 -0.11234 0)
(-0.0784454 -0.106235 0)
(-0.081366 -0.0999155 0)
(-0.0841079 -0.0933737 0)
(-0.086639 -0.0866196 0)
(-0.0889455 -0.0796719 0)
(-0.0910229 -0.0725525 0)
(-0.0928717 -0.0652837 0)
(-0.0944954 -0.0578869 0)
(-0.0958988 -0.0503819 0)
(-0.0970878 -0.0427865 0)
(-0.0980687 -0.0351163 0)
(-0.0988465 -0.0273852 0)
(-0.0994223 -0.0196049 0)
(-0.0997959 -0.0117851 0)
(-0.0999874 -0.00393492 0)
(0.0999806 -0.00563202 0)
(0.099697 -0.0168343 0)
(0.0991369 -0.0279464 0)
(0.0982823 -0.0389412 0)
(0.097144 -0.0497919 0)
(0.0957318 -0.0604722 0)
(0.0940539 -0.0709567 0)
(0.0921224 -0.0812226 0)
(0.0899555 -0.0912503 0)
(0.0875795 -0.101026 0)
(0.0850306 -0.110544 0)
(0.0823563 -0.119811 0)
(0.0796154 -0.128847 0)
(0.0768757 -0.137691 0)
(0.0742085 -0.1464 0)
(0.0716782 -0.155043 0)
(0.0693294 -0.163698 0)
(0.0671732 -0.172432 0)
(0.0651779 -0.181295 0)
(0.0632686 -0.1903 0)
(0.0613369 -0.199427 0)
(0.0592592 -0.208623 0)
(0.0569151 -0.217814 0)
(0.0542034 -0.226913 0)
(0.0510502 -0.23583 0)
(0.0474107 -0.244483 0)
(0.0432663 -0.252796 0)
(0.0386189 -0.260704 0)
(0.0334857 -0.268154 0)
(0.0278931 -0.275104 0)
(0.0218734 -0.281522 0)
(0.0154615 -0.287385 0)
(0.00869278 -0.29268 0)
(0.00160271 -0.297402 0)
(-0.00577355 -0.301551 0)
(-0.013403 -0.305134 0)
(-0.0212556 -0.308164 0)
(-0.0293032 -0.310656 0)
(-0.0375198 -0.31263 0)
(-0.0458809 -0.314108 0)
(-0.0543639 -0.315116 0)
(-0.0629476 -0.315681 0)
(-0.0716122 -0.315831 0)
(-0.0803389 -0.315598 0)
(-0.0891097 -0.315011 0)
(-0.0979082 -0.314103 0)
(-0.106719 -0.312905 0)
(-0.115527 -0.31145 0)
(-0.124319 -0.309769 0)
(-0.13308 -0.307893 0)
(-0.141798 -0.305851 0)
(-0.15046 -0.303671 0)
(-0.15905 -0.301379 0)
(-0.167553 -0.298995 0)
(-0.175953 -0.296539 0)
(-0.184221 -0.294022 0)
(-0.192302 -0.29145 0)
(-0.200136 -0.288819 0)
(-0.207755 -0.28612 0)
(-0.215283 -0.283349 0)
(-0.222348 -0.28049 0)
(-0.226105 -0.2775 0)
(-0.223673 -0.27363 0)
(-0.216337 -0.269002 0)
(-0.207467 -0.263811 0)
(-0.198059 -0.258028 0)
(-0.188154 -0.251585 0)
(-0.177763 -0.244446 0)
(-0.166964 -0.236602 0)
(-0.15585 -0.228075 0)
(-0.144518 -0.218908 0)
(-0.133065 -0.209177 0)
(-0.121598 -0.198989 0)
(-0.110281 -0.188492 0)
(-0.09941 -0.177891 0)
(-0.089409 -0.167448 0)
(-0.0807672 -0.157465 0)
(-0.0739579 -0.148246 0)
(-0.0693147 -0.140009 0)
(-0.0669019 -0.132808 0)
(-0.0664725 -0.126488 0)
(-0.0675634 -0.120763 0)
(-0.0696601 -0.115327 0)
(-0.0723217 -0.109944 0)
(-0.0752276 -0.104468 0)
(-0.0781709 -0.0988206 0)
(-0.0810301 -0.0929742 0)
(-0.0837384 -0.0869244 0)
(-0.08626 -0.0806797 0)
(-0.0885768 -0.0742544 0)
(-0.09068 -0.0676652 0)
(-0.0925662 -0.0609295 0)
(-0.0942349 -0.0540647 0)
(-0.0956876 -0.0470877 0)
(-0.0969267 -0.0400142 0)
(-0.0979552 -0.0328592 0)
(-0.0987751 -0.0256365 0)
(-0.0993848 -0.018359 0)
(-0.0997819 -0.0110382 0)
(-0.0999861 -0.00368574 0)
(0.0999812 -0.0052624 0)
(0.0996951 -0.01573 0)
(0.0991289 -0.0261114 0)
(0.0982649 -0.0363788 0)
(0.0971157 -0.0465054 0)
(0.0956929 -0.0564652 0)
(0.0940067 -0.0662337 0)
(0.0920711 -0.075789 0)
(0.0899059 -0.0851128 0)
(0.0875387 -0.0941928 0)
(0.0850065 -0.103025 0)
(0.0823569 -0.111616 0)
(0.0796485 -0.119987 0)
(0.0769488 -0.128176 0)
(0.0743285 -0.136239 0)
(0.071852 -0.144244 0)
(0.0695643 -0.152266 0)
(0.0674776 -0.160371 0)
(0.0655618 -0.168608 0)
(0.0637436 -0.176991 0)
(0.061916 -0.185505 0)
(0.0599552 -0.194101 0)
(0.05774 -0.202711 0)
(0.0551667 -0.211255 0)
(0.0521582 -0.219649 0)
(0.048666 -0.227818 0)
(0.0446672 -0.235688 0)
(0.0401599 -0.243201 0)
(0.0351571 -0.250305 0)
(0.0296817 -0.256959 0)
(0.0237628 -0.263134 0)
(0.0174322 -0.268807 0)
(0.0107225 -0.273963 0)
(0.00366568 -0.278596 0)
(-0.00370268 -0.282704 0)
(-0.0113516 -0.286293 0)
(-0.0192549 -0.289373 0)
(-0.0273851 -0.291955 0)
(-0.0357173 -0.294056 0)
(-0.0442282 -0.295695 0)
(-0.0528962 -0.296894 0)
(-0.0617011 -0.297675 0)
(-0.0706235 -0.298063 0)
(-0.0796451 -0.298084 0)
(-0.0887486 -0.297763 0)
(-0.0979177 -0.297128 0)
(-0.107137 -0.296205 0)
(-0.11639 -0.295021 0)
(-0.125662 -0.293602 0)
(-0.134938 -0.291972 0)
(-0.144203 -0.290155 0)
(-0.153438 -0.288172 0)
(-0.162626 -0.286043 0)
(-0.171745 -0.283781 0)
(-0.180768 -0.2814 0)
(-0.189656 -0.278906 0)
(-0.198338 -0.276297 0)
(-0.206742 -0.273564 0)
(-0.214906 -0.270697 0)
(-0.222946 -0.267682 0)
(-0.23032 -0.264488 0)
(-0.233644 -0.261093 0)
(-0.230284 -0.256858 0)
(-0.222334 -0.251935 0)
(-0.213057 -0.246441 0)
(-0.203163 -0.240378 0)
(-0.19267 -0.233721 0)
(-0.181638 -0.226463 0)
(-0.170179 -0.218616 0)
(-0.158412 -0.21021 0)
(-0.14645 -0.201297 0)
(-0.134412 -0.191956 0)
(-0.122422 -0.18229 0)
(-0.110679 -0.172439 0)
(-0.0995153 -0.162591 0)
(-0.0893727 -0.152982 0)
(-0.0807371 -0.14388 0)
(-0.0740513 -0.13554 0)
(-0.0695917 -0.128139 0)
(-0.0673545 -0.121693 0)
(-0.0670403 -0.116041 0)
(-0.0681678 -0.110911 0)
(-0.0702326 -0.106024 0)
(-0.072817 -0.10117 0)
(-0.075624 -0.0962171 0)
(-0.0784642 -0.0910985 0)
(-0.0812279 -0.0857864 0)
(-0.0838542 -0.0802762 0)
(-0.0863106 -0.0745747 0)
(-0.0885791 -0.0686941 0)
(-0.09065 -0.0626494 0)
(-0.0925179 -0.0564563 0)
(-0.09418 -0.0501312 0)
(-0.0956348 -0.0436898 0)
(-0.0968818 -0.0371477 0)
(-0.0979215 -0.0305197 0)
(-0.0987534 -0.0238202 0)
(-0.0993737 -0.0170627 0)
(-0.0997781 -0.0102604 0)
(-0.0999861 -0.00342609 0)
(0.0999807 -0.00489187 0)
(0.0996922 -0.0146226 0)
(0.0991221 -0.0242728 0)
(0.0982529 -0.0338158 0)
(0.0970981 -0.0432261 0)
(0.0956701 -0.052479 0)
(0.0939804 -0.0615519 0)
(0.0920438 -0.0704244 0)
(0.0898813 -0.0790799 0)
(0.0875215 -0.0875075 0)
(0.085002 -0.0957037 0)
(0.0823711 -0.103676 0)
(0.0796879 -0.111443 0)
(0.0770199 -0.119041 0)
(0.0744379 -0.126522 0)
(0.0720064 -0.133947 0)
(0.0697708 -0.141387 0)
(0.0677436 -0.148905 0)
(0.0658956 -0.156544 0)
(0.0641541 -0.164324 0)
(0.0624125 -0.172231 0)
(0.0605468 -0.180222 0)
(0.0584343 -0.188238 0)
(0.0559695 -0.196206 0)
(0.0530726 -0.20405 0)
(0.0496921 -0.2117 0)
(0.0458022 -0.219089 0)
(0.0413977 -0.226162 0)
(0.0364887 -0.232871 0)
(0.0310956 -0.239178 0)
(0.0252446 -0.245052 0)
(0.0189652 -0.250473 0)
(0.0122881 -0.255426 0)
(0.00524428 -0.259903 0)
(-0.00213518 -0.2639 0)
(-0.00982074 -0.267423 0)
(-0.0177854 -0.270477 0)
(-0.026004 -0.273074 0)
(-0.034453 -0.275225 0)
(-0.0431105 -0.276947 0)
(-0.0519556 -0.278258 0)
(-0.0609684 -0.279176 0)
(-0.0701299 -0.279723 0)
(-0.0794223 -0.27992 0)
(-0.0888286 -0.279788 0)
(-0.0983317 -0.27935 0)
(-0.107915 -0.278629 0)
(-0.117562 -0.277645 0)
(-0.127256 -0.27642 0)
(-0.13698 -0.274975 0)
(-0.146713 -0.273326 0)
(-0.156436 -0.271492 0)
(-0.166124 -0.269487 0)
(-0.17575 -0.267322 0)
(-0.185278 -0.265005 0)
(-0.194657 -0.262541 0)
(-0.203798 -0.259927 0)
(-0.212625 -0.257152 0)
(-0.221165 -0.254207 0)
(-0.229492 -0.251069 0)
(-0.23694 -0.247687 0)
(-0.239862 -0.244041 0)
(-0.235746 -0.239637 0)
(-0.227138 -0.234608 0)
(-0.217324 -0.229012 0)
(-0.206926 -0.222874 0)
(-0.195925 -0.216207 0)
(-0.184375 -0.209024 0)
(-0.1724 -0.201351 0)
(-0.16013 -0.193227 0)
(-0.147694 -0.184708 0)
(-0.135223 -0.175871 0)
(-0.122859 -0.166815 0)
(-0.110831 -0.157672 0)
(-0.0994947 -0.148614 0)
(-0.0893032 -0.139855 0)
(-0.0807333 -0.131626 0)
(-0.0741961 -0.124143 0)
(-0.0699163 -0.117533 0)
(-0.0678336 -0.111776 0)
(-0.0676116 -0.106701 0)
(-0.0687611 -0.102055 0)
(-0.0707921 -0.0975969 0)
(-0.0733088 -0.0931475 0)
(-0.0760335 -0.0885989 0)
(-0.0787907 -0.0838956 0)
(-0.0814781 -0.0790155 0)
(-0.0840387 -0.0739545 0)
(-0.0864406 -0.0687181 0)
(-0.0886659 -0.0633165 0)
(-0.090704 -0.0577619 0)
(-0.0925481 -0.052068 0)
(-0.0941941 -0.0462485 0)
(-0.0956389 -0.0403178 0)
(-0.0968808 -0.0342896 0)
(-0.0979186 -0.0281779 0)
(-0.0987506 -0.0219963 0)
(-0.0993718 -0.0157581 0)
(-0.0997773 -0.00947639 0)
(-0.099986 -0.00316428 0)
(0.0999809 -0.00451979 0)
(0.0996929 -0.0135108 0)
(0.0991236 -0.0224274 0)
(0.0982558 -0.0312442 0)
(0.0971033 -0.0399372 0)
(0.0956791 -0.0484833 0)
(0.0939951 -0.0568613 0)
(0.092067 -0.0650523 0)
(0.0899159 -0.0730412 0)
(0.0875709 -0.0808179 0)
(0.0850698 -0.0883796 0)
(0.0824607 -0.095733 0)
(0.0798025 -0.102897 0)
(0.0771624 -0.109905 0)
(0.074611 -0.116804 0)
(0.0722128 -0.123654 0)
(0.0700135 -0.130519 0)
(0.0680267 -0.137458 0)
(0.0662242 -0.144515 0)
(0.0645347 -0.151706 0)
(0.0628522 -0.159022 0)
(0.0610527 -0.166426 0)
(0.0590129 -0.173861 0)
(0.0566256 -0.181262 0)
(0.0538089 -0.188561 0)
(0.0505088 -0.195691 0)
(0.0466967 -0.202593 0)
(0.042365 -0.209213 0)
(0.0375212 -0.215509 0)
(0.0321833 -0.221443 0)
(0.0263753 -0.226989 0)
(0.0201249 -0.232124 0)
(0.0134609 -0.236835 0)
(0.00641247 -0.241112 0)
(-0.000991009 -0.244954 0)
(-0.00872143 -0.248361 0)
(-0.0167528 -0.251338 0)
(-0.025061 -0.253894 0)
(-0.0336237 -0.256039 0)
(-0.0424196 -0.257786 0)
(-0.0514283 -0.25915 0)
(-0.0606304 -0.260147 0)
(-0.0700073 -0.260793 0)
(-0.0795411 -0.261107 0)
(-0.0892142 -0.261107 0)
(-0.0990089 -0.260811 0)
(-0.108908 -0.260238 0)
(-0.118892 -0.259405 0)
(-0.128944 -0.258329 0)
(-0.139042 -0.257026 0)
(-0.149165 -0.255511 0)
(-0.159288 -0.253797 0)
(-0.169382 -0.251895 0)
(-0.179415 -0.249815 0)
(-0.189344 -0.247561 0)
(-0.199104 -0.245137 0)
(-0.208596 -0.242539 0)
(-0.217736 -0.239761 0)
(-0.22653 -0.236797 0)
(-0.235 -0.233634 0)
(-0.242329 -0.230237 0)
(-0.244788 -0.226503 0)
(-0.239998 -0.222021 0)
(-0.230822 -0.216978 0)
(-0.220525 -0.21143 0)
(-0.209683 -0.205397 0)
(-0.19825 -0.198897 0)
(-0.186276 -0.191954 0)
(-0.17389 -0.184598 0)
(-0.161229 -0.176872 0)
(-0.148433 -0.168835 0)
(-0.135639 -0.16056 0)
(-0.123007 -0.15214 0)
(-0.11079 -0.143697 0)
(-0.0993652 -0.135389 0)
(-0.0891916 -0.127406 0)
(-0.0807352 -0.119954 0)
(-0.0743773 -0.113213 0)
(-0.0702959 -0.107281 0)
(-0.0683819 -0.102117 0)
(-0.0682669 -0.0975519 0)
(-0.0694551 -0.0933529 0)
(-0.0714687 -0.0893054 0)
(-0.0739309 -0.0852546 0)
(-0.0765816 -0.0811072 0)
(-0.0792583 -0.076816 0)
(-0.0818669 -0.0723617 0)
(-0.0843546 -0.067741 0)
(-0.086692 -0.0629584 0)
(-0.0888617 -0.0580227 0)
(-0.090853 -0.0529447 0)
(-0.0926589 -0.0477362 0)
(-0.0942741 -0.0424099 0)
(-0.0956948 -0.0369786 0)
(-0.0969183 -0.0314551 0)
(-0.0979423 -0.0258522 0)
(-0.0987643 -0.0201829 0)
(-0.0993786 -0.01446 0)
(-0.0997797 -0.00869594 0)
(-0.0999862 -0.0029036 0)
(0.0999809 -0.00414914 0)
(0.0996939 -0.0124032 0)
(0.0991266 -0.0205892 0)
(0.098262 -0.0286836 0)
(0.0971141 -0.0366642 0)
(0.0956959 -0.0445097 0)
(0.0940199 -0.0522007 0)
(0.0921016 -0.0597199 0)
(0.0899627 -0.0670535 0)
(0.0876321 -0.0741923 0)
(0.0851478 -0.081134 0)
(0.0825578 -0.0878849 0)
(0.0799208 -0.0944624 0)
(0.0773039 -0.100897 0)
(0.0747775 -0.107232 0)
(0.0724062 -0.113522 0)
(0.070236 -0.119827 0)
(0.0682813 -0.126201 0)
(0.0665145 -0.132685 0)
(0.0648653 -0.139296 0)
(0.0632282 -0.146026 0)
(0.0614791 -0.152841 0)
(0.059494 -0.159693 0)
(0.0571642 -0.166522 0)
(0.0544062 -0.173265 0)
(0.0511639 -0.179863 0)
(0.0474067 -0.186259 0)
(0.0431249 -0.192406 0)
(0.0383241 -0.198264 0)
(0.0330205 -0.203798 0)
(0.0272363 -0.208982 0)
(0.0209976 -0.213796 0)
(0.0143317 -0.218227 0)
(0.0072665 -0.222265 0)
(-0.000169993 -0.225907 0)
(-0.00795074 -0.229153 0)
(-0.0160506 -0.232006 0)
(-0.0244466 -0.234473 0)
(-0.0331167 -0.236563 0)
(-0.0420403 -0.238285 0)
(-0.0511972 -0.239652 0)
(-0.0605684 -0.240676 0)
(-0.0701352 -0.241373 0)
(-0.0798792 -0.241757 0)
(-0.0897822 -0.241843 0)
(-0.0998256 -0.241646 0)
(-0.10999 -0.241181 0)
(-0.120257 -0.240462 0)
(-0.130604 -0.239504 0)
(-0.141008 -0.238318 0)
(-0.151445 -0.236918 0)
(-0.161886 -0.235312 0)
(-0.172298 -0.23351 0)
(-0.182643 -0.231519 0)
(-0.192873 -0.229343 0)
(-0.202914 -0.226985 0)
(-0.21266 -0.224441 0)
(-0.222032 -0.22171 0)
(-0.231044 -0.218795 0)
(-0.239683 -0.215707 0)
(-0.246821 -0.212442 0)
(-0.248672 -0.208722 0)
(-0.243178 -0.204256 0)
(-0.233556 -0.199295 0)
(-0.222893 -0.193906 0)
(-0.211691 -0.188098 0)
(-0.199904 -0.181885 0)
(-0.187588 -0.175292 0)
(-0.174876 -0.168353 0)
(-0.161913 -0.16111 0)
(-0.148843 -0.153621 0)
(-0.135813 -0.145953 0)
(-0.122992 -0.138195 0)
(-0.110656 -0.130459 0)
(-0.0991981 -0.12289 0)
(-0.0890789 -0.115657 0)
(-0.0807537 -0.108941 0)
(-0.0745756 -0.102895 0)
(-0.0706808 -0.0975883 0)
(-0.0689192 -0.0929653 0)
(-0.068898 -0.0888608 0)
(-0.0701192 -0.0850638 0)
(-0.0721174 -0.0813861 0)
(-0.074533 -0.0776951 0)
(-0.0771206 -0.0739123 0)
(-0.0797282 -0.0699981 0)
(-0.0822682 -0.0659366 0)
(-0.0846913 -0.0617252 0)
(-0.0869696 -0.0573678 0)
(-0.0890867 -0.0528719 0)
(-0.0910318 -0.0482468 0)
(-0.0927979 -0.043503 0)
(-0.0943793 -0.0386514 0)
(-0.0957717 -0.0337035 0)
(-0.096972 -0.0286708 0)
(-0.0979774 -0.0235649 0)
(-0.0987851 -0.0183978 0)
(-0.099389 -0.0131812 0)
(-0.0997834 -0.00792684 0)
(-0.0999865 -0.00264671 0)
(0.099981 -0.00378014 0)
(0.0996956 -0.0113005 0)
(0.0991313 -0.0187591 0)
(0.0982712 -0.0261345 0)
(0.0971294 -0.0334063 0)
(0.0957191 -0.0405552 0)
(0.0940525 -0.0475634 0)
(0.0921455 -0.0544152 0)
(0.0900195 -0.0610981 0)
(0.0877036 -0.0676038 0)
(0.0852355 -0.0739302 0)
(0.0826631 -0.0800831 0)
(0.0800447 -0.0860785 0)
(0.0774471 -0.0919442 0)
(0.0749408 -0.0977199 0)
(0.0725902 -0.103455 0)
(0.0704417 -0.109205 0)
(0.0685103 -0.11502 0)
(0.0667695 -0.120937 0)
(0.0651494 -0.126973 0)
(0.0635452 -0.133121 0)
(0.0618326 -0.139352 0)
(0.059887 -0.145622 0)
(0.0575986 -0.151877 0)
(0.0548824 -0.15806 0)
(0.0516808 -0.164117 0)
(0.0479613 -0.169997 0)
(0.0437126 -0.175657 0)
(0.0389388 -0.181058 0)
(0.0336545 -0.186171 0)
(0.0278806 -0.19097 0)
(0.0216418 -0.195437 0)
(0.0149644 -0.199558 0)
(0.00787521 -0.203325 0)
(0.000401187 -0.206734 0)
(-0.00743142 -0.209783 0)
(-0.0155982 -0.212475 0)
(-0.0240766 -0.214816 0)
(-0.0328453 -0.216811 0)
(-0.0418838 -0.218469 0)
(-0.0511722 -0.2198 0)
(-0.0606915 -0.220815 0)
(-0.0704225 -0.221525 0)
(-0.0803466 -0.221943 0)
(-0.0904446 -0.222082 0)
(-0.100697 -0.221953 0)
(-0.111083 -0.221569 0)
(-0.121582 -0.220941 0)
(-0.13217 -0.220082 0)
(-0.142822 -0.219002 0)
(-0.153511 -0.21771 0)
(-0.164204 -0.216215 0)
(-0.174865 -0.214524 0)
(-0.185453 -0.212642 0)
(-0.195915 -0.210575 0)
(-0.20617 -0.208324 0)
(-0.216112 -0.20589 0)
(-0.225672 -0.203271 0)
(-0.234892 -0.200477 0)
(-0.243707 -0.197528 0)
(-0.250529 -0.194434 0)
(-0.251575 -0.190769 0)
(-0.245379 -0.18642 0)
(-0.235463 -0.181642 0)
(-0.224564 -0.176504 0)
(-0.213101 -0.171009 0)
(-0.201043 -0.165166 0)
(-0.188462 -0.159 0)
(-0.175498 -0.152542 0)
(-0.162303 -0.145836 0)
(-0.149027 -0.138933 0)
(-0.135821 -0.131897 0)
(-0.122868 -0.12481 0)
(-0.110461 -0.117772 0)
(-0.0990052 -0.110916 0)
(-0.0889623 -0.104394 0)
(-0.0807762 -0.0983651 0)
(-0.0747744 -0.0929574 0)
(-0.0710566 -0.0882201 0)
(-0.0694374 -0.0840902 0)
(-0.0695044 -0.0804108 0)
(-0.0707588 -0.0769916 0)
(-0.0727466 -0.0736676 0)
(-0.075123 -0.0703249 0)
(-0.0776555 -0.0668965 0)
(-0.0802013 -0.0633491 0)
(-0.0826785 -0.0596695 0)
(-0.0850411 -0.0558554 0)
(-0.087263 -0.0519104 0)
(-0.0893285 -0.0478411 0)
(-0.0912274 -0.0436556 0)
(-0.0929525 -0.0393631 0)
(-0.0944982 -0.0349733 0)
(-0.09586 -0.0304963 0)
(-0.0970345 -0.0259426 0)
(-0.0980189 -0.0213226 0)
(-0.0988098 -0.0166471 0)
(-0.0994014 -0.0119268 0)
(-0.0997878 -0.00717228 0)
(-0.0999868 -0.00239468 0)
(0.0999812 -0.00341329 0)
(0.0996973 -0.0102041 0)
(0.0991361 -0.0169394 0)
(0.0982808 -0.0235999 0)
(0.0971453 -0.0301673 0)
(0.0957427 -0.0366241 0)
(0.0940854 -0.0429541 0)
(0.092189 -0.0491434 0)
(0.0900751 -0.0551806 0)
(0.0877724 -0.0610585 0)
(0.0853186 -0.066775 0)
(0.0827613 -0.0723354 0)
(0.0801585 -0.0777543 0)
(0.0775768 -0.0830565 0)
(0.0750865 -0.0882781 0)
(0.0727522 -0.0934641 0)
(0.0706206 -0.0986638 0)
(0.068707 -0.103923 0)
(0.0669857 -0.109276 0)
(0.0653875 -0.11474 0)
(0.0638076 -0.120307 0)
(0.062122 -0.125953 0)
(0.0602052 -0.131638 0)
(0.0579468 -0.137314 0)
(0.0552602 -0.142931 0)
(0.0520866 -0.148437 0)
(0.0483923 -0.15379 0)
(0.0441645 -0.158948 0)
(0.039406 -0.163877 0)
(0.0341303 -0.168549 0)
(0.0283574 -0.172942 0)
(0.0221108 -0.177038 0)
(0.015416 -0.180825 0)
(0.00829899 -0.184294 0)
(0.000786016 -0.18744 0)
(-0.00709729 -0.190264 0)
(-0.015327 -0.192765 0)
(-0.023881 -0.194948 0)
(-0.0327381 -0.196817 0)
(-0.0418782 -0.19838 0)
(-0.0512814 -0.199645 0)
(-0.0609282 -0.20062 0)
(-0.0707995 -0.201315 0)
(-0.0808758 -0.201741 0)
(-0.0911372 -0.201907 0)
(-0.101563 -0.201824 0)
(-0.112132 -0.201502 0)
(-0.122821 -0.200951 0)
(-0.133605 -0.200181 0)
(-0.144457 -0.199199 0)
(-0.155347 -0.198015 0)
(-0.16624 -0.196635 0)
(-0.177098 -0.195065 0)
(-0.187876 -0.193311 0)
(-0.198517 -0.191376 0)
(-0.208939 -0.189263 0)
(-0.21903 -0.186972 0)
(-0.228737 -0.184504 0)
(-0.238123 -0.181868 0)
(-0.247046 -0.179079 0)
(-0.253458 -0.176166 0)
(-0.253692 -0.172654 0)
(-0.246908 -0.168534 0)
(-0.23679 -0.164042 0)
(-0.225734 -0.15924 0)
(-0.214079 -0.154129 0)
(-0.201814 -0.14872 0)
(-0.189029 -0.143037 0)
(-0.175872 -0.137109 0)
(-0.1625 -0.130977 0)
(-0.14907 -0.124688 0)
(-0.135734 -0.118301 0)
(-0.12269 -0.111889 0)
(-0.110243 -0.105545 0)
(-0.0988093 -0.0993863 0)
(-0.0888515 -0.0935496 0)
(-0.0808019 -0.0881739 0)
(-0.0749646 -0.083367 0)
(-0.0714069 -0.079162 0)
(-0.0699142 -0.0754921 0)
(-0.0700587 -0.0722109 0)
(-0.0713423 -0.0691488 0)
(-0.0733216 -0.0661623 0)
(-0.0756647 -0.0631539 0)
(-0.0781499 -0.060067 0)
(-0.0806423 -0.0568736 0)
(-0.0830646 -0.0535628 0)
(-0.0853737 -0.050133 0)
(-0.087545 -0.0465874 0)
(-0.0895634 -0.0429316 0)
(-0.0914194 -0.0391728 0)
(-0.0931058 -0.0353189 0)
(-0.0946172 -0.0313785 0)
(-0.0959492 -0.0273605 0)
(-0.0970981 -0.0232742 0)
(-0.0980613 -0.0191288 0)
(-0.0988353 -0.0149338 0)
(-0.0994142 -0.010699 0)
(-0.0997924 -0.00643372 0)
(-0.099987 -0.002148 0)
(0.0999813 -0.00304849 0)
(0.0996989 -0.00911375 0)
(0.0991407 -0.0151297 0)
(0.09829 -0.0210792 0)
(0.0971605 -0.0269458 0)
(0.0957652 -0.032714 0)
(0.0941165 -0.0383696 0)
(0.09223 -0.0438998 0)
(0.0901269 -0.0492948 0)
(0.0878359 -0.0545479 0)
(0.0853945 -0.0596576 0)
(0.0828499 -0.0646284 0)
(0.0802601 -0.0694733 0)
(0.0776914 -0.0742145 0)
(0.0752138 -0.0788844 0)
(0.0728921 -0.083523 0)
(0.0707731 -0.0881745 0)
(0.0688728 -0.0928804 0)
(0.0671659 -0.0976717 0)
(0.0655835 -0.102563 0)
(0.0640215 -0.10755 0)
(0.0623553 -0.112609 0)
(0.0604593 -0.117707 0)
(0.058222 -0.122801 0)
(0.0555561 -0.127844 0)
(0.0524013 -0.132793 0)
(0.0487231 -0.137608 0)
(0.0445075 -0.142252 0)
(0.0397564 -0.146695 0)
(0.0344822 -0.150911 0)
(0.0287043 -0.154881 0)
(0.0224455 -0.158587 0)
(0.0157305 -0.162019 0)
(0.00858455 -0.165168 0)
(0.00103359 -0.168031 0)
(-0.00689724 -0.170605 0)
(-0.0151844 -0.172891 0)
(-0.0238058 -0.174892 0)
(-0.0327409 -0.176611 0)
(-0.0419692 -0.178055 0)
(-0.0514708 -0.179229 0)
(-0.0612261 -0.180142 0)
(-0.0712154 -0.180801 0)
(-0.0814188 -0.181214 0)
(-0.0918157 -0.181391 0)
(-0.102385 -0.181338 0)
(-0.113103 -0.181066 0)
(-0.123946 -0.180581 0)
(-0.134888 -0.179893 0)
(-0.1459 -0.179008 0)
(-0.156949 -0.177932 0)
(-0.168 -0.176673 0)
(-0.179011 -0.175235 0)
(-0.189936 -0.173622 0)
(-0.200714 -0.171839 0)
(-0.211261 -0.169886 0)
(-0.221463 -0.167765 0)
(-0.231279 -0.165477 0)
(-0.240784 -0.163029 0)
(-0.249769 -0.160433 0)
(-0.255765 -0.157744 0)
(-0.255261 -0.154468 0)
(-0.247984 -0.150661 0)
(-0.237714 -0.146527 0)
(-0.226542 -0.142122 0)
(-0.214741 -0.137449 0)
(-0.202316 -0.132522 0)
(-0.189375 -0.127361 0)
(-0.176072 -0.121996 0)
(-0.162568 -0.116463 0)
(-0.149021 -0.110806 0)
(-0.13559 -0.105076 0)
(-0.122481 -0.0993399 0)
(-0.110016 -0.0936802 0)
(-0.0986177 -0.0882025 0)
(-0.0887469 -0.0830273 0)
(-0.0808263 -0.0782755 0)
(-0.075139 -0.0740369 0)
(-0.0717246 -0.0703329 0)
(-0.0703437 -0.0670964 0)
(-0.0705564 -0.0641938 0)
(-0.0718661 -0.0614754 0)
(-0.0738388 -0.0588172 0)
(-0.0761537 -0.0561361 0)
(-0.0785985 -0.0533843 0)
(-0.0810446 -0.0505384 0)
(-0.083419 -0.0475893 0)
(-0.0856809 -0.0445359 0)
(-0.087807 -0.0413811 0)
(-0.0897832 -0.0381297 0)
(-0.0916001 -0.0347879 0)
(-0.0932509 -0.0313628 0)
(-0.0947305 -0.0278617 0)
(-0.0960344 -0.0242925 0)
(-0.0971592 -0.0206632 0)
(-0.0981021 -0.016982 0)