/*--------------------------------*- C++ -*----------------------------------*\
  =========                 |
  \\      /  F ield         | OpenFOAM: The Open Source CFD Toolbox
   \\    /   O peration     | Website:  https://openfoam.org
    \\  /    A nd           | Version:  8
     \\/     M anipulation  |
\*---------------------------------------------------------------------------*/
FoamFile
{
    version     2.0;
    format      ascii;
    class       volScalarField;
    location    "380/fluid";
    object      CH4;
}
// * * * * * * * * * * * * * * * * * * * * * * * * * * * * * * * * * * * * * //

dimensions      [0 0 0 0 0 0 0];

internalField   nonuniform List<scalar> 
4000
(
0.999997
0.999987
0.999971
0.999943
0.999897
0.999821
0.999696
0.999492
0.999163
0.998637
0.99781
0.996527
0.994578
0.991677
0.987468
0.981531
0.973419
0.962705
0.949044
0.932214
0.912163
0.889
0.86296
0.83437
0.803617
0.771111
0.737267
0.702484
0.667141
0.631585
0.596125
0.561037
0.526555
0.492877
0.460163
0.42854
0.398108
0.368941
0.341084
0.314568
0.289403
0.265581
0.243083
0.221881
0.201939
0.183213
0.165657
0.149223
0.133857
0.119509
0.106126
0.0936585
0.0820564
0.071273
0.0612641
0.0519891
0.043411
0.035498
0.0283575
0.021863
0.0158111
0.0103664
0.00554599
0.00307737
0.00214708
0.00147623
0.000998549
0.000663244
0.000431676
0.00027472
0.000170662
0.000103539
6.1824e-05
3.74363e-05
2.50087e-05
1.88632e-05
1.4131e-05
1.00874e-05
6.77839e-06
4.24853e-06
2.47233e-06
1.33878e-06
6.80139e-07
3.2869e-07
1.53765e-07
7.01257e-08
3.13343e-08
1.37685e-08
5.96636e-09
2.55543e-09
1.0838e-09
4.55849e-10
1.90366e-10
7.8981e-11
3.25404e-11
1.32741e-11
5.31177e-12
2.02974e-12
6.78148e-13
1.18918e-13
0.999997
0.999987
0.99997
0.999943
0.999896
0.999819
0.999692
0.999484
0.999149
0.998615
0.997775
0.996477
0.994509
0.991591
0.987371
0.981439
0.973355
0.962698
0.949126
0.932429
0.91254
0.889547
0.863666
0.835215
0.80457
0.772136
0.738326
0.703544
0.668168
0.632553
0.597013
0.56183
0.527244
0.493453
0.460624
0.428883
0.398333
0.369057
0.341107
0.314505
0.289259
0.265365
0.242804
0.221546
0.201555
0.182788
0.165198
0.148736
0.133348
0.118984
0.105589
0.0931141
0.0815084
0.0707249
0.0607189
0.0514493
0.0428784
0.0349727
0.0278677
0.0213762
0.0153242
0.0098879
0.00509711
0.00303301
0.0021019
0.00143588
0.000965292
0.000637333
0.000412368
0.000260885
0.000161126
9.72526e-05
5.79423e-05
3.53714e-05
2.43296e-05
1.83232e-05
1.3537e-05
9.51721e-06
6.29682e-06
3.89033e-06
2.23941e-06
1.2065e-06
6.13873e-07
2.98531e-07
1.40882e-07
6.48799e-08
2.92717e-08
1.2976e-08
5.66547e-09
2.44135e-09
1.04023e-09
4.38979e-10
1.83724e-10
7.63253e-11
3.14672e-11
1.28397e-11
5.13821e-12
1.96336e-12
6.55909e-13
1.15063e-13
0.999997
0.999987
0.99997
0.999942
0.999894
0.999816
0.999686
0.999475
0.999134
0.998592
0.997741
0.996429
0.994445
0.99151
0.987277
0.98134
0.973266
0.962641
0.949125
0.932506
0.912718
0.889844
0.864093
0.835771
0.805241
0.7729
0.739156
0.704407
0.669033
0.633386
0.597788
0.562519
0.527825
0.493912
0.460954
0.42909
0.398426
0.369036
0.340968
0.314253
0.288902
0.26491
0.24226
0.220924
0.200864
0.182038
0.164398
0.147894
0.132474
0.118084
0.104672
0.0921865
0.0805766
0.0697952
0.059798
0.0505442
0.0419983
0.0341306
0.0270858
0.020483
0.0144814
0.00908629
0.00436189
0.00291699
0.0019943
0.00134822
0.000898622
0.000588879
0.000378387
0.000237815
0.000145985
8.77093e-05
5.22624e-05
3.23693e-05
2.29783e-05
1.7351e-05
1.27092e-05
8.84691e-06
5.79671e-06
3.55277e-06
2.03515e-06
1.09517e-06
5.58406e-07
2.7259e-07
1.2924e-07
5.98159e-08
2.71221e-08
1.20806e-08
5.29747e-09
2.29146e-09
9.79459e-10
4.14369e-10
1.73744e-10
7.22681e-11
2.98156e-11
1.21694e-11
4.87012e-12
1.86062e-12
6.21406e-13
1.09021e-13
0.999997
0.999987
0.99997
0.999941
0.999893
0.999813
0.999683
0.999469
0.999126
0.99858
0.997724
0.996405
0.994414
0.991473
0.987236
0.981301
0.973237
0.962635
0.949158
0.932595
0.912875
0.890077
0.864405
0.836157
0.80569
0.773396
0.73968
0.704937
0.669547
0.633861
0.598203
0.56286
0.528082
0.494083
0.461031
0.429059
0.398276
0.368763
0.340577
0.313749
0.288291
0.264201
0.241461
0.220044
0.199914
0.181027
0.163336
0.14679
0.131338
0.116924
0.103496
0.0910015
0.0793905
0.0686147
0.058629
0.0493919
0.0408659
0.0330409
0.0260477
0.0194859
0.0135507
0.00824122
0.00363544
0.00254737
0.00175923
0.00119602
0.0007992
0.000523899
0.000336212
0.000210835
0.000129119
7.754e-05
4.65068e-05
2.95534e-05
2.16377e-05
1.63378e-05
1.18739e-05
8.18595e-06
5.30802e-06
3.2214e-06
1.831e-06
9.80561e-07
4.99069e-07
2.43834e-07
1.1586e-07
5.37828e-08
2.44695e-08
1.09384e-08
4.81417e-09
2.08985e-09
8.963e-10
3.80356e-10
1.59916e-10
6.66705e-11
2.7559e-11
1.12656e-11
4.51363e-12
1.72572e-12
5.76538e-13
1.01199e-13
0.999997
0.999987
0.999969
0.99994
0.999892
0.999812
0.99968
0.999465
0.99912
0.99857
0.99771
0.996386
0.994389
0.991441
0.987198
0.981261
0.973201
0.962612
0.949158
0.932623
0.91294
0.890184
0.864553
0.836342
0.805906
0.773632
0.73992
0.705168
0.669756
0.634038
0.598336
0.562935
0.528082
0.493988
0.460829
0.428746
0.39785
0.368227
0.339933
0.313002
0.287447
0.263268
0.240447
0.218958
0.198764
0.179824
0.162089
0.145508
0.130029
0.115598
0.102161
0.0896656
0.0780614
0.0673003
0.0573377
0.0481333
0.0396524
0.0319473
0.02502
0.0185324
0.0127022
0.00756884
0.00327764
0.00229656
0.00158538
0.00107676
0.000718297
0.00046975
0.000300585
0.000187909
0.000114808
6.90155e-05
4.18702e-05
2.75706e-05
2.06193e-05
1.54981e-05
1.11635e-05
7.61854e-06
4.88889e-06
2.93921e-06
1.65863e-06
8.84373e-07
4.49324e-07
2.1961e-07
1.04495e-07
4.86012e-08
2.21603e-08
9.92821e-09
4.379e-09
1.90477e-09
8.18419e-10
3.47871e-10
1.46464e-10
6.11346e-11
2.52951e-11
1.0348e-11
4.1482e-12
1.58643e-12
5.29984e-13
9.30615e-14
0.999997
0.999987
0.999969
0.99994
0.999891
0.999811
0.999678
0.999463
0.999116
0.998564
0.997701
0.996374
0.994373
0.991422
0.987176
0.981237
0.973178
0.962593
0.949149
0.932628
0.912959
0.890218
0.864602
0.836403
0.805973
0.773699
0.739979
0.705207
0.66976
0.633991
0.598222
0.562742
0.527802
0.493615
0.46036
0.428178
0.397183
0.367463
0.339075
0.312055
0.286417
0.262162
0.239273
0.217724
0.19748
0.178497
0.160728
0.144123
0.128627
0.114187
0.100749
0.0882599
0.0766683
0.0659259
0.0559873
0.0468111
0.038361
0.0307092
0.0238264
0.0173883
0.0116158
0.00650525
0.00313773
0.00217874
0.00149211
0.00100608
0.00066661
0.000433152
0.000275484
0.000171271
0.000104225
6.26712e-05
3.84791e-05
2.6262e-05
1.98514e-05
1.48093e-05
1.056e-05
7.12728e-06
4.52258e-06
2.69124e-06
1.50624e-06
7.98534e-07
4.04344e-07
1.97421e-07
9.39493e-08
4.37357e-08
1.99698e-08
8.96213e-09
3.96029e-09
1.72595e-09
7.42976e-10
3.16361e-10
1.33411e-10
5.57647e-11
2.31007e-11
9.45927e-12
3.79446e-12
1.45163e-12
4.84978e-13
8.5202e-14
0.999997
0.999987
0.999969
0.99994
0.999891
0.99981
0.999677
0.999461
0.999112
0.998559
0.997694
0.996364
0.994359
0.991403
0.987152
0.981208
0.973145
0.962557
0.949111
0.93259
0.912923
0.890182
0.864564
0.836357
0.805912
0.773614
0.739861
0.705045
0.669545
0.633715
0.597877
0.562321
0.5273
0.493028
0.459686
0.427416
0.396335
0.366531
0.338063
0.310968
0.285262
0.260945
0.238001
0.216406
0.196123
0.17711
0.15932
0.1427
0.127198
0.112759
0.0993288
0.0868539
0.0752826
0.0645658
0.0546577
0.0455164
0.0371051
0.0295235
0.0227107
0.0163334
0.010605
0.00554382
0.00307901
0.00211588
0.00143513
0.000959053
0.000630217
0.000406379
0.00025664
0.000158573
9.60752e-05
5.77835e-05
3.59563e-05
2.53714e-05
1.9213e-05
1.42042e-05
1.00243e-05
6.69288e-06
4.20214e-06
2.47725e-06
1.37642e-06
7.2612e-07
3.6662e-07
1.78843e-07
8.51087e-08
3.96423e-08
1.81168e-08
8.13937e-09
3.60099e-09
1.57128e-09
6.77211e-10
2.88691e-10
1.21871e-10
5.09895e-11
2.11394e-11
8.66156e-12
3.47586e-12
1.32991e-12
4.44278e-13
7.80914e-14
0.999997
0.999987
0.999969
0.99994
0.999891
0.99981
0.999676
0.999459
0.99911
0.998556
0.997689
0.996356
0.994347
0.991387
0.98713
0.981178
0.973107
0.962509
0.949051
0.932518
0.912836
0.890077
0.864437
0.836204
0.805728
0.773392
0.739594
0.704727
0.669169
0.633274
0.597367
0.561738
0.52664
0.492291
0.45887
0.426523
0.395367
0.365491
0.336956
0.309799
0.284038
0.259672
0.236688
0.215058
0.194749
0.175718
0.157916
0.141292
0.125794
0.111364
0.0979505
0.0854978
0.0739544
0.0632705
0.0533998
0.0442997
0.0359484
0.0284478
0.0216717
0.0153173
0.00962838
0.00466912
0.00298723
0.00203231
0.00136729
0.000907439
0.000592694
0.000380098
0.000238864
0.000146983
8.88515e-05
5.35748e-05
3.38468e-05
2.44659e-05
1.85375e-05
1.36129e-05
9.52862e-06
6.30535e-06
3.92367e-06
2.29476e-06
1.26707e-06
6.65498e-07
3.35078e-07
1.63289e-07
7.76841e-08
3.61906e-08
1.65476e-08
7.43961e-09
3.29416e-09
1.4387e-09
6.20649e-10
2.64821e-10
1.11891e-10
4.68501e-11
1.9436e-11
7.96753e-12
3.19825e-12
1.22388e-12
4.08787e-13
7.189e-14
0.999997
0.999986
0.999969
0.999939
0.99989
0.999809
0.999675
0.999458
0.999108
0.998552
0.997683
0.996348
0.994336
0.99137
0.987106
0.981145
0.973061
0.962449
0.948973
0.932418
0.912712
0.889925
0.864252
0.835982
0.805463
0.77308
0.73923
0.704305
0.668686
0.632726
0.59675
0.561051
0.525882
0.491461
0.45797
0.425555
0.394335
0.364398
0.335808
0.308601
0.282796
0.258394
0.235379
0.213727
0.193402
0.174362
0.156558
0.139939
0.124451
0.110039
0.0966481
0.0842242
0.0727149
0.0620708
0.0522453
0.0431963
0.0348829
0.0274605
0.0207133
0.0144106
0.00877423
0.00388872
0.00269956
0.00185076
0.00125137
0.00083307
0.000545062
0.000349829
0.000219904
0.000135377
8.20094e-05
4.98214e-05
3.21305e-05
2.36939e-05
1.79417e-05
1.31067e-05
9.1141e-06
5.98636e-06
3.69718e-06
2.1477e-06
1.17947e-06
6.17076e-07
3.09879e-07
1.50835e-07
7.17166e-08
3.34032e-08
1.52737e-08
6.86839e-09
3.04232e-09
1.32931e-09
5.73753e-10
2.44942e-10
1.03546e-10
4.3377e-11
1.80024e-11
7.38184e-12
2.96379e-12
1.13425e-12
3.78739e-13
6.66357e-14
0.999997
0.999986
0.999969
0.999939
0.99989
0.999809
0.999675
0.999457
0.999106
0.998549
0.997678
0.99634
0.994324
0.991352
0.98708
0.981108
0.97301
0.962379
0.948881
0.9323
0.912562
0.88974
0.864027
0.835713
0.805146
0.77271
0.738804
0.70382
0.668137
0.632113
0.596072
0.560306
0.525071
0.490587
0.457033
0.424559
0.393284
0.363297
0.334661
0.307416
0.281578
0.257148
0.234113
0.212447
0.192115
0.173073
0.155274
0.138667
0.123195
0.108805
0.0954419
0.0830505
0.071579
0.0609781
0.051202
0.0422097
0.0339754
0.0266783
0.0198344
0.0136662
0.00818103
0.00349343
0.00244244
0.00168444
0.0011444
0.000764768
0.000501862
0.000322858
0.000203366
0.000125502
7.63712e-05
4.68919e-05
3.09701e-05
2.32058e-05
1.75483e-05
1.27553e-05
8.81519e-06
5.75071e-06
3.52699e-06
2.0359e-06
1.11229e-06
5.79641e-07
2.90243e-07
1.41061e-07
6.69997e-08
3.11851e-08
1.42536e-08
6.40843e-09
2.83849e-09
1.24037e-09
5.35464e-10
2.28654e-10
9.66876e-11
4.05146e-11
1.68182e-11
6.89734e-12
2.7695e-12
1.0599e-12
3.53857e-13
6.22814e-14
0.999997
0.999986
0.999969
0.999939
0.99989
0.999808
0.999674
0.999455
0.999104
0.998546
0.997673
0.996332
0.994312
0.991334
0.987053
0.981069
0.972955
0.962304
0.948781
0.932169
0.912397
0.889535
0.863779
0.835417
0.804799
0.772309
0.738345
0.703302
0.667559
0.631472
0.595369
0.559543
0.524249
0.489707
0.456099
0.423574
0.392252
0.362224
0.333552
0.306276
0.280414
0.255965
0.232918
0.211245
0.190912
0.171875
0.154086
0.137493
0.122041
0.107676
0.0943404
0.0819813
0.0705459
0.0599848
0.0502522
0.0413073
0.0331807
0.0259445
0.0191546
0.0130707
0.00769955
0.00327695
0.00229177
0.00158164
0.00107554
0.000719475
0.000472629
0.000304385
0.00019199
0.000118747
7.26072e-05
4.50965e-05
3.051e-05
2.30824e-05
1.74092e-05
1.25923e-05
8.64571e-06
5.59918e-06
3.40999e-06
1.95588e-06
1.06295e-06
5.51644e-07
2.75349e-07
1.33565e-07
6.33485e-08
2.9454e-08
1.34518e-08
6.04453e-09
2.67632e-09
1.16926e-09
5.04722e-10
2.15526e-10
9.11419e-11
3.8194e-11
1.58561e-11
6.50305e-12
2.61115e-12
9.9923e-13
3.33556e-13
5.87334e-14
0.999997
0.999986
0.999969
0.999939
0.99989
0.999808
0.999673
0.999454
0.999102
0.998543
0.997668
0.996325
0.9943
0.991315
0.987025
0.981029
0.972898
0.962225
0.948676
0.932033
0.912225
0.889322
0.863522
0.835111
0.804442
0.771898
0.737879
0.702778
0.666978
0.630834
0.594674
0.558792
0.523445
0.488852
0.455198
0.42263
0.39127
0.361208
0.332508
0.305208
0.279328
0.254868
0.231813
0.210139
0.189809
0.170781
0.153005
0.136429
0.120999
0.106659
0.0933517
0.081024
0.0696225
0.0590972
0.0494017
0.0404941
0.0324125
0.0252167
0.0184646
0.0124034
0.00704298
0.00318487
0.00222335
0.00153244
0.00104117
0.000696111
0.000457185
0.000294484
0.000185876
0.000115177
7.07346e-05
4.43745e-05
3.06205e-05
2.32778e-05
1.74813e-05
1.2573e-05
8.58034e-06
5.51798e-06
3.33637e-06
1.90153e-06
1.02793e-06
5.31206e-07
2.64257e-07
1.27905e-07
6.05602e-08
2.81196e-08
1.28289e-08
5.75997e-09
2.54879e-09
1.11306e-09
4.80324e-10
2.05071e-10
8.67118e-11
3.63356e-11
1.50841e-11
6.1862e-12
2.48376e-12
9.50417e-13
3.17208e-13
5.5884e-14
0.999997
0.999986
0.999969
0.999939
0.999889
0.999807
0.999673
0.999453
0.9991
0.99854
0.997664
0.996317
0.994288
0.991297
0.986998
0.980989
0.972842
0.962147
0.948572
0.931897
0.912053
0.889111
0.863266
0.834809
0.804091
0.771496
0.737424
0.70227
0.666417
0.63022
0.594009
0.558078
0.522684
0.488049
0.454354
0.42175
0.390358
0.36027
0.331548
0.304231
0.278339
0.253871
0.230814
0.209142
0.188819
0.169801
0.152039
0.135482
0.120073
0.105757
0.0924773
0.0801787
0.0688084
0.0583158
0.0486543
0.0397814
0.0317371
0.0245797
0.0178609
0.011831
0.00649142
0.0031524
0.00219716
0.00151267
0.00102698
0.000686358
0.000450763
0.000290447
0.000183491
0.000113913
7.02435e-05
4.44765e-05
3.12704e-05
2.37786e-05
1.7755e-05
1.26851e-05
8.59533e-06
5.48991e-06
3.29668e-06
1.86712e-06
1.00412e-06
5.16727e-07
2.56188e-07
1.23714e-07
5.84671e-08
2.71071e-08
1.2352e-08
5.54054e-09
2.44985e-09
1.06924e-09
4.61217e-10
1.96853e-10
8.32194e-11
3.48671e-11
1.44729e-11
5.93499e-12
2.3827e-12
9.11682e-13
3.04229e-13
5.36248e-14
0.999997
0.999986
0.999969
0.999939
0.999889
0.999807
0.999672
0.999452
0.999098
0.998537
0.997659
0.99631
0.994276
0.99128
0.986972
0.980951
0.972787
0.962073
0.948472
0.931768
0.911889
0.888909
0.863024
0.834523
0.803759
0.771117
0.736997
0.701795
0.665894
0.629651
0.593395
0.557421
0.521988
0.487315
0.453587
0.420953
0.389536
0.359426
0.330687
0.303358
0.277457
0.252986
0.22993
0.208262
0.187947
0.168941
0.151195
0.134656
0.119268
0.104975
0.0917201
0.0794487
0.068107
0.0576444
0.0480144
0.0391763
0.031173
0.0240492
0.0173596
0.0113579
0.00604558
0.00312648
0.00218109
0.00150284
0.00102114
0.000683062
0.000449031
0.000289661
0.00018327
0.00011404
7.06165e-05
4.50713e-05
3.20979e-05
2.43972e-05
1.81251e-05
1.2873e-05
8.66633e-06
5.49816e-06
3.28165e-06
1.84807e-06
9.88977e-07
5.06924e-07
2.50517e-07
1.207e-07
5.69361e-08
2.63566e-08
1.19948e-08
5.37473e-09
2.37455e-09
1.03569e-09
4.46518e-10
1.90506e-10
8.05133e-11
3.37262e-11
1.39972e-11
5.73925e-12
2.30399e-12
8.81495e-13
2.94111e-13
5.1864e-14
0.999997
0.999986
0.999969
0.999939
0.999889
0.999807
0.999671
0.999451
0.999097
0.998534
0.997655
0.996303
0.994266
0.991264
0.986948
0.980916
0.972738
0.962004
0.94838
0.931649
0.911739
0.888725
0.862802
0.834262
0.803457
0.770773
0.736611
0.701368
0.665425
0.629141
0.592847
0.556837
0.521369
0.486666
0.45291
0.420252
0.388815
0.358688
0.329936
0.302599
0.276693
0.252221
0.229167
0.207505
0.187199
0.168205
0.150473
0.133951
0.118582
0.104311
0.0910789
0.078832
0.0675161
0.0570813
0.0474813
0.0386716
0.0306983
0.0235973
0.0169319
0.0109556
0.00567327
0.003104
0.00216942
0.0014975
0.00101934
0.000683083
0.0004499
0.000290827
0.000184453
0.000115128
7.16026e-05
4.60115e-05
3.30419e-05
2.5092e-05
1.85597e-05
1.31132e-05
8.77762e-06
5.53565e-06
3.2849e-06
1.84092e-06
9.80944e-07
5.00926e-07
2.46796e-07
1.18647e-07
5.58657e-08
2.58215e-08
1.17362e-08
5.25331e-09
2.31889e-09
1.01071e-09
4.35505e-10
1.85727e-10
7.84677e-11
3.28614e-11
1.36362e-11
5.59077e-12
2.24421e-12
8.58549e-13
2.86414e-13
5.05253e-14
0.999997
0.999986
0.999968
0.999939
0.999889
0.999806
0.999671
0.99945
0.999095
0.998532
0.997651
0.996297
0.994257
0.99125
0.986927
0.980885
0.972694
0.961944
0.9483
0.931544
0.911608
0.888563
0.862609
0.834035
0.803195
0.770475
0.736277
0.700997
0.665019
0.628703
0.592376
0.556336
0.52084
0.486112
0.452334
0.419657
0.388204
0.358064
0.329303
0.30196
0.276052
0.251579
0.228529
0.206873
0.186576
0.167593
0.149875
0.133368
0.118016
0.103763
0.0905514
0.0783261
0.0670341
0.0566236
0.0470441
0.0382529
0.0303068
0.0232293
0.0165853
0.0106287
0.00538266
0.0030851
0.0021612
0.0014953
0.00102025
0.000685381
0.000452581
0.000293373
0.000186644
0.000116922
7.30584e-05
4.72431e-05
3.41303e-05
2.58741e-05
1.90585e-05
1.34012e-05
8.92378e-06
5.59765e-06
3.30448e-06
1.84316e-06
9.78397e-07
4.98031e-07
2.4467e-07
1.1738e-07
5.5171e-08
2.54623e-08
1.15584e-08
5.16828e-09
2.27939e-09
9.92797e-10
4.27551e-10
1.82256e-10
7.69775e-11
3.2231e-11
1.33728e-11
5.48216e-12
2.20039e-12
8.41707e-13
2.80759e-13
4.9543e-14
0.999997
0.999986
0.999968
0.999939
0.999889
0.999806
0.99967
0.99945
0.999094
0.99853
0.997648
0.996293
0.994249
0.991238
0.98691
0.98086
0.972658
0.961894
0.948233
0.931458
0.911499
0.88843
0.862449
0.833847
0.802978
0.770229
0.736002
0.700693
0.664687
0.628343
0.591991
0.555927
0.52041
0.485661
0.451866
0.419175
0.387709
0.357561
0.328793
0.301446
0.275536
0.251065
0.228018
0.206368
0.186079
0.167106
0.149399
0.132905
0.117568
0.103331
0.0901369
0.0779298
0.0666547
0.0562591
0.046697
0.037925
0.0300027
0.0229435
0.0163164
0.0103753
0.00515778
0.00306896
0.00215594
0.00149595
0.00102369
0.000689764
0.000456902
0.000297155
0.000189731
0.000119337
7.49215e-05
4.87136e-05
3.53325e-05
2.67241e-05
1.96056e-05
1.37246e-05
9.09582e-06
5.67802e-06
3.33635e-06
1.85309e-06
9.80049e-07
4.97369e-07
2.43748e-07
1.16716e-07
5.47693e-08
2.52417e-08
1.14448e-08
5.11252e-09
2.25301e-09
9.807e-10
4.22142e-10
1.79888e-10
7.59574e-11
3.17972e-11
1.31905e-11
5.40669e-12
2.16984e-12
8.29933e-13
2.76797e-13
4.88561e-14
0.999997
0.999986
0.999968
0.999938
0.999889
0.999806
0.99967
0.999449
0.999093
0.998529
0.997646
0.996289
0.994244
0.991229
0.986896
0.98084
0.97263
0.961856
0.948182
0.931392
0.911415
0.888327
0.862326
0.833703
0.802812
0.770041
0.735791
0.700461
0.664433
0.628069
0.591698
0.555616
0.520083
0.48532
0.451512
0.41881
0.387336
0.357181
0.328409
0.301059
0.275149
0.25068
0.227636
0.205991
0.185708
0.166743
0.149046
0.132562
0.117237
0.103013
0.0898316
0.0776366
0.0663735
0.0559921
0.0464443
0.0376866
0.0297807
0.0227347
0.0161188
0.0101868
0.00498481
0.00305244
0.00215175
0.00149809
0.00102863
0.000695475
0.000462311
0.000301781
0.00019344
0.000122189
7.70676e-05
5.03407e-05
3.65844e-05
2.75937e-05
2.01648e-05
1.40578e-05
9.27703e-06
5.76658e-06
3.37471e-06
1.86751e-06
9.84487e-07
4.98235e-07
2.43656e-07
1.16474e-07
5.4581e-08
2.51265e-08
1.13819e-08
5.08049e-09
2.23747e-09
9.73419e-10
4.18826e-10
1.78412e-10
7.53127e-11
3.152e-11
1.30731e-11
5.35775e-12
2.14993e-12
8.22233e-13
2.74199e-13
4.84062e-14
0.999997
0.999986
0.999968
0.999938
0.999889
0.999806
0.99967
0.999449
0.999093
0.998528
0.997644
0.996286
0.99424
0.991223
0.986887
0.980827
0.972611
0.96183
0.948147
0.931347
0.911359
0.888258
0.862243
0.833606
0.8027
0.769914
0.735649
0.700304
0.664263
0.627885
0.5915
0.555407
0.519863
0.485091
0.451275
0.418566
0.387087
0.356928
0.328153
0.300802
0.274892
0.250424
0.227383
0.205741
0.185463
0.166504
0.148813
0.132337
0.11702
0.102803
0.0896292
0.0774433
0.0661907
0.0558197
0.0462825
0.0375353
0.029637
0.0226
0.0159906
0.0100615
0.00486568
0.00304668
0.00215423
0.00150444
0.00103621
0.000702819
0.000468722
0.000307014
0.000197508
0.00012524
7.93022e-05
5.19651e-05
3.776e-05
2.8386e-05
2.06661e-05
1.43541e-05
9.43847e-06
5.84669e-06
3.41061e-06
1.8819e-06
9.89537e-07
4.99687e-07
2.44004e-07
1.16494e-07
5.45343e-08
2.50834e-08
1.13542e-08
5.06504e-09
2.22954e-09
9.69559e-10
4.17019e-10
1.77592e-10
7.49486e-11
3.13616e-11
1.30054e-11
5.32928e-12
2.13828e-12
8.17708e-13
2.72667e-13
4.81414e-14
0.999997
0.999986
0.999968
0.999938
0.999889
0.999806
0.99967
0.999449
0.999093
0.998527
0.997644
0.996285
0.994238
0.99122
0.986883
0.980821
0.972602
0.961818
0.948131
0.931325
0.911332
0.888225
0.862203
0.833559
0.802646
0.769852
0.73558
0.700227
0.664178
0.627794
0.591403
0.555303
0.519754
0.484977
0.451158
0.418446
0.386963
0.356802
0.328026
0.300674
0.274764
0.250297
0.227257
0.205618
0.185342
0.166385
0.148698
0.132225
0.116911
0.102699
0.0895307
0.07735
0.0661027
0.0557372
0.0462055
0.0374636
0.0295705
0.0225382
0.0159324
0.0100054
0.0048137
0.00304478
0.00215866
0.00151127
0.00104338
0.000709336
0.000474186
0.000311351
0.000200811
0.000127673
8.10453e-05
5.31789e-05
3.85706e-05
2.89026e-05
2.09806e-05
1.45349e-05
9.53519e-06
5.89428e-06
3.43202e-06
1.89066e-06
9.92752e-07
5.00711e-07
2.44311e-07
1.16563e-07
5.4536e-08
2.50723e-08
1.13447e-08
5.05916e-09
2.22634e-09
9.67947e-10
4.16247e-10
1.77235e-10
7.47885e-11
3.12913e-11
1.29751e-11
5.31647e-12
2.13301e-12
8.15652e-13
2.71969e-13
4.80208e-14
0.999997
0.999986
0.999968
0.999938
0.999889
0.999806
0.99967
0.999449
0.999093
0.998527
0.997644
0.996285
0.994238
0.99122
0.986883
0.980821
0.972602
0.961817
0.94813
0.931325
0.911331
0.888224
0.862202
0.833557
0.802644
0.769851
0.735578
0.700226
0.664177
0.627792
0.591402
0.555302
0.519753
0.484976
0.451156
0.418444
0.386962
0.356801
0.328025
0.300673
0.274763
0.250296
0.227256
0.205617
0.185341
0.166384
0.148697
0.132224
0.116911
0.102698
0.0895301
0.0773494
0.0661023
0.0557369
0.0462052
0.0374634
0.0295704
0.022538
0.0159322
0.0100052
0.00481349
0.00304474
0.00215857
0.00151116
0.00104327
0.000709242
0.000474115
0.000311302
0.000200779
0.000127653
8.10339e-05
5.31726e-05
3.85673e-05
2.89009e-05
2.09797e-05
1.45345e-05
9.53496e-06
5.89416e-06
3.43196e-06
1.89063e-06
9.92735e-07
5.00703e-07
2.44307e-07
1.16562e-07
5.45351e-08
2.50719e-08
1.13446e-08
5.05908e-09
2.22631e-09
9.67931e-10
4.1624e-10
1.77232e-10
7.47873e-11
3.12908e-11
1.29749e-11
5.31639e-12
2.13297e-12
8.15639e-13
2.71965e-13
4.802e-14
0.999997
0.999986
0.999968
0.999938
0.999889
0.999806
0.99967
0.999449
0.999093
0.998528
0.997644
0.996286
0.99424
0.991223
0.986887
0.980826
0.97261
0.961829
0.948146
0.931345
0.911357
0.888256
0.86224
0.833603
0.802696
0.76991
0.735645
0.7003
0.664258
0.62788
0.591496
0.555402
0.519858
0.485086
0.451271
0.418562
0.387082
0.356924
0.328149
0.300798
0.274888
0.25042
0.227379
0.205738
0.18546
0.166501
0.148811
0.132335
0.117017
0.102801
0.0896273
0.0774415
0.066189
0.0558182
0.046281
0.0375339
0.0296357
0.0225987
0.0159894
0.0100604
0.00486502
0.0030468
0.00215437
0.00150455
0.00103627
0.000702851
0.000468733
0.000307013
0.000197504
0.000125235
7.92981e-05
5.19624e-05
3.77584e-05
2.83849e-05
2.06653e-05
1.43535e-05
9.43811e-06
5.84646e-06
3.41047e-06
1.88182e-06
9.89493e-07
4.99665e-07
2.43993e-07
1.16489e-07
5.45318e-08
2.50822e-08
1.13537e-08
5.0648e-09
2.22944e-09
9.69513e-10
4.16999e-10
1.77583e-10
7.49449e-11
3.13601e-11
1.30047e-11
5.32902e-12
2.13817e-12
8.17668e-13
2.72654e-13
4.81388e-14
0.999997
0.999986
0.999968
0.999938
0.999889
0.999806
0.99967
0.999449
0.999093
0.998529
0.997646
0.996289
0.994243
0.991229
0.986895
0.980839
0.972628
0.961854
0.948179
0.931388
0.911411
0.888323
0.862321
0.833697
0.802806
0.770034
0.735784
0.700453
0.664426
0.628061
0.59169
0.555608
0.520075
0.485312
0.451505
0.418803
0.387329
0.357174
0.328402
0.301053
0.275143
0.250674
0.22763
0.205986
0.185703
0.166738
0.149041
0.132558
0.117234
0.103009
0.0898284
0.0776335
0.0663707
0.0559895
0.046442
0.0376844
0.0297788
0.022733
0.0161173
0.0101854
0.00498368
0.00305237
0.00215168
0.00149804
0.00102859
0.000695441
0.000462285
0.000301762
0.000193427
0.00012218
7.70621e-05
5.03376e-05
3.6583e-05
2.75926e-05
2.0164e-05
1.40571e-05
9.27656e-06
5.76626e-06
3.37449e-06
1.86738e-06
9.84418e-07
4.98198e-07
2.43637e-07
1.16465e-07
5.45767e-08
2.51245e-08
1.1381e-08
5.08008e-09
2.23729e-09
9.73339e-10
4.18791e-10
1.78397e-10
7.53064e-11
3.15174e-11
1.3072e-11
5.3573e-12
2.14975e-12
8.22166e-13
2.74176e-13
4.84018e-14
0.999997
0.999986
0.999968
0.999939
0.999889
0.999806
0.99967
0.99945
0.999094
0.99853
0.997648
0.996292
0.994249
0.991237
0.986909
0.980858
0.972656
0.961891
0.948229
0.931453
0.911493
0.888423
0.862441
0.833839
0.802969
0.770219
0.735991
0.700683
0.664676
0.628332
0.59198
0.555916
0.520399
0.485651
0.451856
0.419165
0.387699
0.357551
0.328784
0.301437
0.275528
0.251057
0.22801
0.206361
0.186072
0.167099
0.149393
0.132899
0.117563
0.103326
0.0901323
0.0779256
0.0666508
0.0562555
0.0466937
0.0379221
0.0300002
0.0229414
0.0163145
0.0103736
0.0051562
0.00306869
0.00215567
0.00149572
0.00102353
0.00068966
0.000456837
0.000297116
0.000189707
0.000119323
7.49135e-05
4.87095e-05
3.53306e-05
2.67228e-05
1.96046e-05
1.37238e-05
9.09521e-06
5.67758e-06
3.33606e-06
1.85292e-06
9.79952e-07
4.97317e-07
2.43722e-07
1.16703e-07
5.47633e-08
2.52388e-08
1.14435e-08
5.11193e-09
2.25275e-09
9.80585e-10
4.22092e-10
1.79867e-10
7.59484e-11
3.17934e-11
1.3189e-11
5.40605e-12
2.16958e-12
8.29837e-13
2.76764e-13
4.88498e-14
0.999997
0.999986
0.999968
0.999939
0.999889
0.999806
0.999671
0.99945
0.999095
0.998532
0.997651
0.996297
0.994256
0.991249
0.986926
0.980883
0.972691
0.96194
0.948295
0.931538
0.911601
0.888555
0.862599
0.834024
0.803183
0.770463
0.736264
0.700984
0.665005
0.628688
0.592362
0.556321
0.520826
0.486098
0.45232
0.419644
0.38819
0.358052
0.329291
0.301948
0.27604
0.251569
0.228519
0.206864
0.186567
0.167584
0.149867
0.13336
0.118009
0.103756
0.0905454
0.0783205
0.0670289
0.0566188
0.0470396
0.0382487
0.030303
0.0232258
0.0165822
0.0106261
0.00538053
0.00308499
0.00216117
0.00149533
0.0010203
0.000685427
0.000452614
0.000293393
0.000186654
0.000116926
7.30593e-05
4.72431e-05
3.41305e-05
2.58737e-05
1.90577e-05
1.34004e-05
8.9231e-06
5.59714e-06
3.30413e-06
1.84294e-06
9.78273e-07
4.97965e-07
2.44636e-07
1.17363e-07
5.5163e-08
2.54586e-08
1.15567e-08
5.16751e-09
2.27905e-09
9.92646e-10
4.27486e-10
1.82228e-10
7.69657e-11
3.2226e-11
1.33707e-11
5.48132e-12
2.20005e-12
8.41579e-13
2.80715e-13
4.95347e-14
0.999997
0.999986
0.999969
0.999939
0.999889
0.999807
0.999671
0.999451
0.999097
0.998534
0.997655
0.996303
0.994265
0.991262
0.986946
0.980913
0.972734
0.962
0.948374
0.931641
0.91173
0.888714
0.86279
0.834249
0.803443
0.770758
0.736595
0.701351
0.665407
0.629124
0.592829
0.556819
0.521352
0.486648
0.452893
0.420236
0.388798
0.358672
0.329921
0.302584
0.276679
0.252207
0.229154
0.207493
0.187188
0.168194
0.150463
0.133942
0.118574
0.104302
0.0910715
0.0788251
0.0675097
0.0570755
0.047476
0.0386668
0.0306939
0.0235933
0.0169282
0.0109523
0.00567054
0.00310384
0.0021693
0.00149741
0.00101927
0.000683034
0.000449863
0.000290799
0.000184432
0.000115113
7.15927e-05
4.60058e-05
3.30394e-05
2.50904e-05
1.85584e-05
1.31121e-05
8.7768e-06
5.53504e-06
3.28449e-06
1.84066e-06
9.80796e-07
5.00845e-07
2.46754e-07
1.18626e-07
5.58558e-08
2.58168e-08
1.17341e-08
5.25232e-09
2.31845e-09
1.01051e-09
4.35422e-10
1.85692e-10
7.84527e-11
3.28551e-11
1.36336e-11
5.58969e-12
2.24377e-12
8.58385e-13
2.86359e-13
5.05148e-14
0.999997
0.999986
0.999969
0.999939
0.999889
0.999807
0.999672
0.999452
0.999098
0.998537
0.997659
0.996309
0.994275
0.991278
0.98697
0.980948
0.972783
0.962067
0.948465
0.931759
0.911879
0.888897
0.86301
0.834508
0.803742
0.771099
0.736978
0.701775
0.665873
0.62963
0.593374
0.5574
0.521967
0.487294
0.453566
0.420933
0.389516
0.359407
0.330669
0.303341
0.277441
0.25297
0.229915
0.208248
0.187934
0.168929
0.151183
0.134645
0.119257
0.104965
0.0917113
0.0794406
0.0680995
0.0576375
0.0480081
0.0391705
0.0311678
0.0240444
0.0173552
0.0113539
0.00604215
0.00312626
0.00218089
0.00150267
0.00102101
0.00068296
0.000448957
0.00028961
0.000183236
0.000114018
7.06034e-05
4.50645e-05
3.20955e-05
2.43959e-05
1.8124e-05
1.28719e-05
8.66547e-06
5.49749e-06
3.28118e-06
1.84777e-06
9.88798e-07
5.06825e-07
2.50466e-07
1.20674e-07
5.69239e-08
2.63508e-08
1.19921e-08
5.37351e-09
2.37401e-09
1.03545e-09
4.46415e-10
1.90462e-10
8.04945e-11
3.37183e-11
1.39939e-11
5.73791e-12
2.30345e-12
8.8129e-13
2.94041e-13
5.18509e-14
0.999997
0.999986
0.999969
0.999939
0.999889
0.999807
0.999672
0.999453
0.9991
0.998539
0.997663
0.996316
0.994287
0.991295
0.986995
0.980985
0.972837
0.962141
0.948563
0.931887
0.912041
0.889096
0.86325
0.834791
0.804071
0.771475
0.737402
0.702247
0.666393
0.630196
0.593985
0.558053
0.52266
0.488024
0.45433
0.421727
0.390336
0.360248
0.331527
0.304211
0.278319
0.253852
0.230797
0.209125
0.188803
0.169786
0.152026
0.135469
0.120061
0.105746
0.0924669
0.0801691
0.0687994
0.0583074
0.0486464
0.039774
0.0317304
0.0245737
0.0178557
0.0118265
0.00648754
0.00315224
0.002197
0.00151251
0.00102683
0.000686239
0.000450673
0.000290383
0.000183449
0.000113886
7.02282e-05
4.44693e-05
3.12695e-05
2.37781e-05
1.77542e-05
1.26842e-05
8.59445e-06
5.48916e-06
3.29614e-06
1.86676e-06
1.00391e-06
5.1661e-07
2.56127e-07
1.23683e-07
5.84522e-08
2.71e-08
1.23487e-08
5.53904e-09
2.44918e-09
1.06894e-09
4.61089e-10
1.96798e-10
8.31961e-11
3.48573e-11
1.44688e-11
5.93331e-12
2.38202e-12
9.11425e-13
3.04142e-13
5.36085e-14
0.999997
0.999986
0.999969
0.999939
0.99989
0.999808
0.999673
0.999454
0.999102
0.998542
0.997668
0.996324
0.994298
0.991313
0.987022
0.981025
0.972893
0.962218
0.948667
0.932021
0.912211
0.889306
0.863503
0.835091
0.80442
0.771874
0.737853
0.702752
0.66695
0.630806
0.594646
0.558764
0.523417
0.488825
0.45517
0.422603
0.391244
0.361183
0.332484
0.305185
0.279306
0.254847
0.231793
0.21012
0.189791
0.170764
0.152989
0.136414
0.120985
0.106645
0.0933393
0.0810124
0.0696116
0.0590871
0.0493926
0.0404862
0.0324055
0.0252104
0.0184588
0.0123981
0.00703773
0.00318462
0.00222313
0.00153223
0.00104097
0.000695939
0.000457052
0.000294387
0.000185811
0.000115135
7.07101e-05
4.43615e-05
3.06162e-05
2.32756e-05
1.74795e-05
1.25714e-05
8.57904e-06
5.51699e-06
3.33567e-06
1.90108e-06
1.02767e-06
5.31059e-07
2.64181e-07
1.27867e-07
6.05416e-08
2.81108e-08
1.28248e-08
5.75811e-09
2.54796e-09
1.11269e-09
4.80165e-10
2.05003e-10
8.66827e-11
3.63234e-11