/*--------------------------------*- C++ -*----------------------------------*\
  =========                 |
  \\      /  F ield         | OpenFOAM: The Open Source CFD Toolbox
   \\    /   O peration     | Website:  https://openfoam.org
    \\  /    A nd           | Version:  8
     \\/     M anipulation  |
\*---------------------------------------------------------------------------*/
FoamFile
{
    version     2.0;
    format      ascii;
    class       volScalarField;
    location    "380/fluid";
    object      CO2;
}
// * * * * * * * * * * * * * * * * * * * * * * * * * * * * * * * * * * * * * //

dimensions      [0 0 0 0 0 0 0];

internalField   nonuniform List<scalar> 
4000
(
4.34847e-07
1.89954e-06
4.3595e-06
8.47607e-06
1.53332e-05
2.669e-05
4.53684e-05
7.58324e-05
0.000125027
0.000203544
0.000327157
0.000518671
0.000809887
0.00124318
0.00187191
0.00275861
0.00397026
0.00557055
0.00761087
0.0101246
0.0131194
0.016579
0.0204684
0.0247384
0.0293316
0.0341866
0.0392417
0.0444369
0.0497159
0.0550272
0.0603241
0.0655659
0.0707175
0.0757493
0.0806374
0.0853628
0.0899103
0.0942689
0.0984315
0.102393
0.106152
0.109709
0.113066
0.116227
0.119195
0.121977
0.124577
0.127
0.129252
0.131337
0.133258
0.135015
0.136608
0.138034
0.139286
0.14035
0.14121
0.141839
0.142193
0.142236
0.141894
0.141069
0.139631
0.132688
0.122068
0.111323
0.100619
0.090089
0.0798391
0.069956
0.0605112
0.0515663
0.0431767
0.0353956
0.02828
0.0218777
0.0162646
0.0115071
0.00766503
0.00476221
0.00274651
0.0014737
0.000741804
0.000355221
0.000164709
7.44827e-05
3.30158e-05
1.43993e-05
6.19664e-06
2.63726e-06
1.11207e-06
4.65312e-07
1.93418e-07
7.99196e-08
3.28105e-08
1.33441e-08
5.32676e-09
2.03172e-09
6.77975e-10
1.18816e-10
4.391e-07
1.91892e-06
4.40743e-06
8.57829e-06
1.55368e-05
2.70771e-05
4.60756e-05
7.70746e-05
0.000127121
0.000206923
0.000332345
0.000526206
0.000820118
0.00125597
0.00188625
0.0027723
0.00397981
0.00557151
0.00759864
0.0100926
0.0130631
0.0164973
0.0203628
0.0246122
0.0291893
0.0340337
0.0390835
0.0442789
0.0495628
0.0548829
0.0601918
0.0654478
0.070615
0.0756636
0.080569
0.0853119
0.0898771
0.094252
0.0984286
0.102403
0.106174
0.109741
0.113107
0.116276
0.119251
0.122038
0.124642
0.127068
0.129322
0.131408
0.133327
0.135083
0.136673
0.138095
0.13934
0.140397
0.141248
0.141866
0.142207
0.142237
0.141881
0.141043
0.139595
0.131484
0.120854
0.110084
0.0993497
0.0887899
0.0785149
0.0686138
0.0591604
0.0502186
0.0418467
0.0341121
0.027048
0.0207343
0.0152426
0.0106413
0.00698464
0.00427754
0.00243931
0.00130154
0.00065586
0.000315972
0.000147799
6.75061e-05
3.02258e-05
1.33061e-05
5.77307e-06
2.47365e-06
1.04869e-06
4.40586e-07
1.83687e-07
7.60598e-08
3.12724e-08
1.27324e-08
5.08692e-09
1.94158e-09
6.48224e-10
1.13686e-10
4.4559e-07
1.94782e-06
4.47614e-06
8.71761e-06
1.57993e-05
2.75491e-05
4.68928e-05
7.84403e-05
0.000129323
0.000210339
0.000337421
0.000533382
0.000829728
0.00126806
0.00190033
0.00278709
0.00399306
0.00558004
0.00759872
0.0100809
0.0130364
0.0164528
0.0202989
0.0245291
0.029089
0.0339194
0.0389596
0.04415
0.0494338
0.0547586
0.0600764
0.0653453
0.0705286
0.0755955
0.0805201
0.0852815
0.0898638
0.0942558
0.0984498
0.102441
0.106227
0.109808
0.113187
0.116366
0.119351
0.122145
0.124755
0.127186
0.129443
0.131528
0.133447
0.135199
0.136783
0.138196
0.139429
0.140469
0.141299
0.14189
0.142198
0.142191
0.141796
0.140923
0.13947
0.129629
0.11898
0.108164
0.0973855
0.0867967
0.0765127
0.0666245
0.0572075
0.0483269
0.0400429
0.0324438
0.0255266
0.0193952
0.0141167
0.00975085
0.00633429
0.00384631
0.00218191
0.00116257
0.000586993
0.000283847
0.000133381
6.12204e-05
2.75464e-05
1.21836e-05
5.30873e-06
2.28324e-06
9.71016e-07
4.08983e-07
1.70836e-07
7.08333e-08
2.91488e-08
1.1874e-08
4.7453e-09
1.8114e-09
6.0473e-10
1.06084e-10
4.50738e-07
1.97032e-06
4.52777e-06
8.81776e-06
1.59787e-05
2.78551e-05
4.73948e-05
7.92353e-05
0.000130539
0.000212132
0.000339967
0.000536851
0.00083422
0.0012735
0.00190635
0.00279289
0.00399728
0.00558081
0.00759378
0.0100677
0.0130129
0.0164179
0.0202523
0.0244715
0.0290221
0.0338455
0.0388817
0.0440712
0.0493576
0.0546884
0.0600152
0.0652953
0.0704912
0.0755712
0.0805102
0.0852878
0.0898879
0.0942979
0.0985093
0.102517
0.106319
0.109914
0.113306
0.116496
0.11949
0.122292
0.124907
0.127342
0.1296
0.131686
0.133601
0.135348
0.136923
0.138322
0.139536
0.14055
0.141342
0.14188
0.142118
0.142012
0.141484
0.140442
0.13881
0.128036
0.117048
0.106036
0.0951518
0.0845199
0.0742395
0.0643931
0.055051
0.0462756
0.0381256
0.0306943
0.0239651
0.0180476
0.0130021
0.00887938
0.00570057
0.00342396
0.00192572
0.00102059
0.000514227
0.000248847
0.000117195
5.39579e-05
2.43657e-05
1.08181e-05
4.73211e-06
2.04301e-06
8.71989e-07
3.68488e-07
1.54372e-07
6.41685e-08
2.64621e-08
1.07981e-08
4.3211e-09
1.65099e-09
5.51427e-10
9.6788e-11
4.54649e-07
1.98734e-06
4.56663e-06
8.89266e-06
1.61125e-05
2.80832e-05
4.7771e-05
7.9838e-05
0.000131477
0.000213547
0.00034203
0.000539738
0.000838069
0.00127834
0.00191198
0.0027988
0.00400258
0.00558421
0.00759373
0.0100634
0.0130032
0.0164022
0.0202304
0.0244441
0.0289902
0.0338109
0.0388464
0.0440374
0.0493273
0.0546629
0.0599966
0.0652856
0.070493
0.0755873
0.0805421
0.0853363
0.089953
0.0943794
0.0986067
0.102629
0.106445
0.110053
0.113456
0.116656
0.119658
0.122466
0.125086
0.127524
0.129782
0.131866
0.133778
0.135517
0.137082
0.138466
0.139659
0.140644
0.141394
0.141868
0.142016
0.141765
0.140993
0.139525
0.13705
0.125994
0.11482
0.103699
0.0927671
0.0821354
0.0718955
0.062124
0.0528877
0.0442464
0.0362569
0.0289907
0.0224699
0.0167781
0.0119699
0.00808735
0.0051363
0.00305556
0.00170625
0.000900488
0.000453049
0.000219393
0.000103501
4.77601e-05
2.16199e-05
9.62265e-06
4.21916e-06
1.82556e-06
7.80734e-07
3.30512e-07
1.38677e-07
5.77204e-08
2.38291e-08
9.73222e-09
3.89711e-09
1.48954e-09
4.97528e-10
8.7362e-11
4.57417e-07
1.99933e-06
4.59374e-06
8.94429e-06
1.62033e-05
2.82357e-05
4.80184e-05
8.02275e-05
0.000132072
0.000214429
0.000343291
0.000541474
0.000840352
0.00128118
0.00191531
0.00280238
0.00400601
0.00558692
0.00759506
0.0100627
0.0130004
0.0163971
0.0202232
0.0244353
0.0289805
0.0338013
0.0388382
0.0440324
0.0493276
0.0546713
0.060015
0.0653159
0.0705364
0.0756444
0.0806136
0.0854226
0.0900539
0.0944947
0.0987357
0.102771
0.106599
0.110218
0.11363
0.116837
0.119845
0.122658
0.125281
0.12772
0.129977
0.132058
0.133965
0.135697
0.137252
0.138623
0.1398
0.140766
0.141493
0.141938
0.142058
0.141782
0.141004
0.139584
0.134627
0.123558
0.112373
0.101255
0.0903487
0.0797674
0.0696033
0.0599325
0.0508207
0.0423268
0.0345068
0.0274107
0.021096
0.0156222
0.0110391
0.0073803
0.0046372
0.00273181
0.00151366
0.000794629
0.000398594
0.000192887
9.10333e-05
4.20547e-05
1.90677e-05
8.50279e-06
3.73573e-06
1.61974e-06
6.94111e-07
2.94401e-07
1.2374e-07
5.15825e-08
2.13231e-08
8.71796e-09
3.49366e-09
1.3359e-09
4.46263e-10
7.84015e-11
4.59478e-07
2.00826e-06
4.61395e-06
8.98283e-06
1.62713e-05
2.83505e-05
4.82062e-05
8.05267e-05
0.000132537
0.000215134
0.000344329
0.000542958
0.000842401
0.00128391
0.00191878
0.0028066
0.00401089
0.0055923
0.00760069
0.0100683
0.0130058
0.0164025
0.0202292
0.0244425
0.0289901
0.0338146
0.0388566
0.0440574
0.0493606
0.0547134
0.0600675
0.0653798
0.0706123
0.0757331
0.0807153
0.0855373
0.0901815
0.0946346
0.0988873
0.102934
0.106771
0.110398
0.113817
0.117031
0.120043
0.122858
0.125482
0.12792
0.130175
0.132251
0.134151
0.135875
0.137419
0.138778
0.13994
0.140888
0.141597
0.142021
0.142123
0.141833
0.14105
0.139639
0.132133
0.12111
0.109962
0.0988867
0.0880351
0.0775253
0.0674511
0.0578891
0.0489043
0.0405546
0.0329117
0.0259884
0.019864
0.0145919
0.0102166
0.00676223
0.00420642
0.00245594
0.00135133
0.000706065
0.000353202
0.000170788
8.06104e-05
3.72631e-05
1.69115e-05
7.55002e-06
3.32135e-06
1.44197e-06
6.18741e-07
2.62764e-07
1.10573e-07
4.61425e-08
1.90917e-08
7.81136e-09
3.13191e-09
1.19782e-09
4.0013e-10
7.03333e-11
4.61079e-07
2.0152e-06
4.62965e-06
9.01276e-06
1.63241e-05
2.84397e-05
4.83524e-05
8.07607e-05
0.000132904
0.000215695
0.000345172
0.000544191
0.000844164
0.00128636
0.00192211
0.00281101
0.00401657
0.00559945
0.00760953
0.0100791
0.0130189
0.0164183
0.0202481
0.0244654
0.0290178
0.033848
0.0388968
0.0441054
0.0494173
0.0547797
0.0601442
0.0654674
0.0707114
0.0758439
0.0808378
0.0856712
0.0903266
0.0947901
0.0990525
0.103108
0.106952
0.110586
0.11401
0.117227
0.120242
0.123058
0.125681
0.128115
0.130366
0.132436
0.134327
0.136039
0.13757
0.138912
0.140055
0.140981
0.141663
0.142059
0.142132
0.141812
0.140997
0.139565
0.129879
0.118896
0.107774
0.0967306
0.0859274
0.0754849
0.0654969
0.0560391
0.0471749
0.0389607
0.0314786
0.0247168
0.0187687
0.0136828
0.00949741
0.00622758
0.00383787
0.00222218
0.00121468
0.000631712
0.000315066
0.000152171
7.17972e-05
3.31945e-05
1.50729e-05
6.73439e-06
2.96531e-06
1.28872e-06
5.53573e-07
2.35339e-07
9.91324e-08
4.14065e-08
1.71458e-08
7.01961e-09
2.81558e-09
1.07711e-09
3.59768e-10
6.32722e-11
4.62415e-07
2.021e-06
4.64281e-06
9.03795e-06
1.63688e-05
2.85158e-05
4.84785e-05
8.09653e-05
0.00013323
0.000216206
0.000345957
0.000545377
0.000845919
0.00128891
0.00192572
0.00281602
0.00402336
0.00560844
0.00762118
0.0100939
0.0130373
0.016441
0.0202757
0.0244986
0.0290573
0.0338947
0.0389513
0.0441685
0.0494897
0.0548619
0.0602366
0.0655704
0.0708251
0.0759681
0.0809724
0.085816
0.0904808
0.0949531
0.0992234
0.103285
0.107136
0.110774
0.114201
0.11742
0.120435
0.12325
0.12587
0.1283
0.130544
0.132606
0.134486
0.136184
0.137697
0.139018
0.140134
0.141027
0.14167
0.142018
0.14204
0.141663
0.140803
0.139378
0.128405
0.117188
0.105951
0.0948683
0.0840754
0.0736788
0.0637633
0.0543985
0.0456434
0.0375509
0.0301982
0.0235804
0.0177967
0.0128853
0.00887429
0.00576991
0.00352608
0.00202647
0.00110117
0.000570252
0.000283606
0.000136807
6.45106e-05
2.98215e-05
1.35437e-05
6.05356e-06
2.66702e-06
1.15986e-06
4.98585e-07
2.12123e-07
8.94195e-08
3.73754e-08
1.54858e-08
6.34278e-09
2.54502e-09
9.73789e-10
3.2519e-10
5.72182e-11
4.63593e-07
2.02612e-06
4.65446e-06
9.06033e-06
1.64088e-05
2.85842e-05
4.85928e-05
8.11527e-05
0.000133532
0.000216687
0.000346711
0.00054654
0.000847684
0.00129154
0.00192955
0.00282148
0.00403096
0.00561876
0.00763484
0.0101115
0.0130596
0.0164686
0.0203093
0.0245387
0.0291047
0.0339499
0.0390149
0.044241
0.0495716
0.0549534
0.060338
0.0656816
0.070946
0.0760986
0.0811122
0.0859644
0.0906372
0.0951167
0.0993932
0.10346
0.107315
0.110956
0.114385
0.117605
0.120618
0.123431
0.126047
0.128471
0.130708
0.132759
0.134627
0.136309
0.137802
0.139097
0.14018
0.141028
0.141609
0.141872
0.141775
0.141222
0.140099
0.138284
0.127029
0.115645
0.104321
0.0932103
0.0824316
0.072081
0.0622359
0.0529608
0.044311
0.0363359
0.0291005
0.0226296
0.0169812
0.0122073
0.00834464
0.00538425
0.00326546
0.00186402
0.00100741
0.000519604
0.000257689
0.000124136
5.84897e-05
2.7028e-05
1.22741e-05
5.48693e-06
2.41815e-06
1.0521e-06
4.52502e-07
1.92627e-07
8.12484e-08
3.39785e-08
1.4085e-08
5.77116e-09
2.31626e-09
8.86378e-10
2.9598e-10
5.20997e-11
4.64674e-07
2.03083e-06
4.66519e-06
9.08104e-06
1.64459e-05
2.86483e-05
4.87007e-05
8.13314e-05
0.000133824
0.000217157
0.000347457
0.000547709
0.000849484
0.00129426
0.00193358
0.0028273
0.00403916
0.00563
0.00764983
0.010131
0.0130843
0.0164991
0.0203463
0.0245828
0.0291564
0.0340097
0.0390833
0.0443182
0.0496578
0.0550488
0.0604426
0.0657952
0.0710685
0.0762296
0.0812511
0.0861107
0.0907901
0.0952754
0.0995568
0.103628
0.107485
0.111128
0.114558
0.117776
0.120788
0.123597
0.126209
0.128627
0.130856
0.132897
0.134753
0.13642
0.137895
0.139167
0.14022
0.141031
0.14156
0.141756
0.141559
0.140855
0.139488
0.137004
0.125622
0.114163
0.10281
0.0917037
0.080957
0.0706604
0.060888
0.0517024
0.0431592
0.0353124
0.0282174
0.0218782
0.0163516
0.0116785
0.0079159
0.0050654
0.00304995
0.00172996
0.000930205
0.000477963
0.000236391
0.000113715
5.3532e-05
2.47244e-05
1.12253e-05
5.01805e-06
2.21185e-06
9.62612e-07
4.14169e-07
1.76384e-07
7.44299e-08
3.11402e-08
1.29133e-08
5.29262e-09
2.1246e-09
8.13097e-10
2.71496e-10
4.78117e-11
4.65685e-07
2.03523e-06
4.67525e-06
9.10052e-06
1.6481e-05
2.87091e-05
4.88037e-05
8.15031e-05
0.000134107
0.000217616
0.000348193
0.000548872
0.00085129
0.00129701
0.00193769
0.00283328
0.00404763
0.00564167
0.00766544
0.0101513
0.01311
0.0165308
0.0203847
0.0246284
0.0292096
0.0340709
0.0391527
0.0443961
0.0497442
0.0551438
0.0605459
0.0659067
0.0711878
0.0763562
0.0813845
0.0862502
0.0909351
0.0954249
0.09971
0.103784
0.107643
0.111286
0.114715
0.117933
0.120942
0.123747
0.126354
0.128766
0.130987
0.13302
0.134865
0.13652
0.137981
0.139238
0.140275
0.141068
0.141578
0.141762
0.141564
0.140886
0.139606
0.135622
0.124225
0.112767
0.10143
0.0903541
0.0796531
0.0694156
0.0597143
0.0506113
0.042161
0.0344108
0.0273772
0.0211335
0.0157291
0.0112056
0.00756533
0.00480154
0.0028695
0.00161816
0.000866094
0.000443495
0.000218797
0.000105115
4.94415e-05
2.28234e-05
1.03595e-05
4.63063e-06
2.04125e-06
8.88533e-07
3.82402e-07
1.62909e-07
6.87679e-08
2.87812e-08
1.19387e-08
4.89435e-09
1.96502e-09
7.52087e-10
2.51106e-10
4.42449e-11
4.66629e-07
2.03935e-06
4.68468e-06
9.1188e-06
1.6514e-05
2.87666e-05
4.89016e-05
8.16671e-05
0.000134378
0.000218059
0.000348907
0.000550006
0.000853062
0.00129972
0.00194175
0.00283921
0.00405606
0.00565329
0.00768099
0.0101715
0.0131355
0.0165623
0.0204227
0.0246733
0.0292618
0.0341307
0.0392203
0.0444715
0.0498274
0.0552347
0.0606442
0.0660122
0.0713
0.0764747
0.0815087
0.0863795
0.0910686
0.095562
0.0998496
0.103925
0.107785
0.111428
0.114856
0.118072
0.121078
0.123879
0.126481
0.128887
0.131101
0.133126
0.134962
0.136607
0.138057
0.139303
0.140328
0.14111
0.141612
0.141791
0.141596
0.140932
0.139681
0.134288
0.122914
0.111486
0.100187
0.0891592
0.0785163
0.0683448
0.0587157
0.0496884
0.0413016
0.0336026
0.0266506
0.0204949
0.0151826
0.0107508
0.00722023
0.0045736
0.0027159
0.00152354
0.000812449
0.000414869
0.000204256
9.80248e-05
4.60738e-05
2.12592e-05
9.64711e-06
4.31183e-06
1.90079e-06
8.27511e-07
3.56216e-07
1.51793e-07
6.40941e-08
2.68327e-08
1.11332e-08
4.56508e-09
1.83307e-09
7.01645e-10
2.34246e-10
4.12961e-11
4.675e-07
2.04315e-06
4.69339e-06
9.13573e-06
1.65447e-05
2.88201e-05
4.89929e-05
8.18206e-05
0.000134633
0.000218476
0.000349583
0.000551082
0.000854747
0.00130231
0.00194563
0.00284489
0.00406413
0.00566442
0.00769587
0.0101908
0.0131599
0.0165924
0.0204588
0.0247159
0.0293112
0.0341869
0.0392835
0.0445418
0.0499047
0.0553187
0.0607347
0.0661089
0.0714024
0.0765823
0.081621
0.0864957
0.0911881
0.095684
0.0999734
0.10405
0.10791
0.111553
0.114979
0.118192
0.121195
0.123992
0.126589
0.128989
0.131196
0.133213
0.135041
0.136677
0.138118
0.139353
0.140367
0.141139
0.141631
0.141803
0.141602
0.140936
0.139687
0.133146
0.121781
0.110377
0.0991162
0.0881402
0.0775469
0.0674238
0.0578409
0.0488552
0.0405281
0.0329057
0.0260315
0.0199569
0.0147286
0.0103828
0.0069378
0.00437003
0.00259179
0.00144668
0.000768469
0.00039146
0.00019239
9.22444e-05
4.33293e-05
1.99845e-05
9.06641e-06
4.05183e-06
1.78618e-06
7.77683e-07
3.3482e-07
1.42705e-07
6.02704e-08
2.52378e-08
1.04737e-08
4.29542e-09
1.72508e-09
6.60354e-10
2.20446e-10
3.88809e-11
4.68283e-07
2.04656e-06
4.70123e-06
9.15099e-06
1.65724e-05
2.88685e-05
4.90758e-05
8.19602e-05
0.000134865
0.000218857
0.0003502
0.000552067
0.000856293
0.00130469
0.0019492
0.00285011
0.00407155
0.00567465
0.00770955
0.0102085
0.0131823
0.0166198
0.0204917
0.0247546
0.0293559
0.0342378
0.0393406
0.0446049
0.0499738
0.0553936
0.0608152
0.0661944
0.0714926
0.0766767
0.0817191
0.0865969
0.0912917
0.0957893
0.10008
0.104156
0.108016
0.111658
0.115082
0.118292
0.121292
0.124085
0.126677
0.129071
0.131272
0.133282
0.135101
0.136729
0.13816
0.139385
0.140389
0.141151
0.141633
0.141796
0.141588
0.140918
0.139672
0.132178
0.120817
0.109431
0.0981988
0.0872461
0.0766869
0.0666064
0.0570742
0.0481491
0.0398835
0.032325
0.0255169
0.0195116
0.0143548
0.0100818
0.00670832
0.00420624
0.00248284
0.00138542
0.000733658
0.000372686
0.000182852
8.75998e-05
4.1124e-05
1.89599e-05
8.59947e-06
3.84266e-06
1.69392e-06
7.3755e-07
3.17576e-07
1.35376e-07
5.71853e-08
2.39505e-08
9.94157e-09
4.07802e-09
1.63799e-09
6.27053e-10
2.09316e-10
3.6932e-11
4.68963e-07
2.04953e-06
4.70804e-06
9.16425e-06
1.65964e-05
2.89107e-05
4.9148e-05
8.2082e-05
0.000135068
0.000219191
0.000350742
0.000552933
0.000857652
0.00130678
0.00195234
0.0028547
0.00407807
0.00568364
0.00772156
0.0102241
0.0132018
0.0166438
0.0205205
0.0247883
0.0293948
0.0342819
0.0393899
0.0446594
0.0500332
0.0554578
0.0608838
0.0662672
0.0715691
0.0767565
0.0818015
0.0866815
0.0913779
0.0958766
0.100167
0.104244
0.108103
0.111743
0.115165
0.118373
0.121369
0.124158
0.126745
0.129134
0.131328
0.133331
0.135143
0.136763
0.138185
0.1394
0.140395
0.141147
0.141619
0.141774
0.141559
0.140885
0.139646
0.131394
0.120027
0.108652
0.0974329
0.0865087
0.0759837
0.0659424
0.0564536
0.0475757
0.0393599
0.0318537
0.0250999
0.0191514
0.0140534
0.00984008
0.006525
0.00407638
0.00239743
0.00133298
0.000705979
0.000358093
0.000175373
8.39411e-05
3.93851e-05
1.81518e-05
8.23103e-06
3.67756e-06
1.62107e-06
7.05856e-07
3.03957e-07
1.29588e-07
5.47505e-08
2.29359e-08
9.52241e-09
3.90672e-09
1.56935e-09
6.00801e-10
2.00542e-10
3.53953e-11
4.69524e-07
2.05198e-06
4.71367e-06
9.17521e-06
1.66163e-05
2.89456e-05
4.92078e-05
8.2183e-05
0.000135236
0.000219468
0.000351192
0.000553652
0.000858781
0.00130851
0.00195495
0.00285852
0.0040835
0.00569111
0.00773153
0.010237
0.0132181
0.0166637
0.0205442
0.0248162
0.0294268
0.0343181
0.0394303
0.0447039
0.0500818
0.05551
0.0609395
0.066326
0.0716307
0.0768204
0.0818673
0.0867488
0.0914461
0.0959453
0.100236
0.104312
0.10817
0.111808
0.115229
0.118433
0.121426
0.124211
0.126794
0.129177
0.131366
0.133362
0.135167
0.136779
0.138193
0.1394
0.140386
0.141129
0.141593
0.141742
0.141523
0.140849
0.139617
0.130779
0.119401
0.108028
0.0968261
0.0859249
0.0754283
0.0654191
0.0559655
0.0471251
0.0389491
0.0314842
0.0247735
0.01887
0.0138185
0.00965232
0.0063832
0.00397646
0.00233215
0.00129332
0.000683268
0.000346625
0.000169681
8.1158e-05
3.80575e-05
1.75335e-05
7.94905e-06
3.55128e-06
1.56541e-06
6.8167e-07
2.93583e-07
1.25188e-07
5.2902e-08
2.21654e-08
9.20396e-09
3.77651e-09
1.51716e-09
5.80831e-10
1.93865e-10
3.42259e-11
4.69954e-07
2.05386e-06
4.71797e-06
9.1836e-06
1.66316e-05
2.89723e-05
4.92536e-05
8.22604e-05
0.000135365
0.000219681
0.000351537
0.000554205
0.000859649
0.00130985
0.00195696
0.00286146
0.00408767
0.00569686
0.0077392
0.0102469
0.0132305
0.0166789
0.0205625
0.0248375
0.0294513
0.0343458
0.0394612
0.0447379
0.0501186
0.0555496
0.0609816
0.0663703
0.0716769
0.0768681
0.0819161
0.0867983
0.0914961
0.0959952
0.100286
0.104361
0.108218
0.111854
0.115273
0.118475
0.121464
0.124246
0.126824
0.129203
0.131387
0.133377
0.135176
0.136781
0.138188
0.139388
0.140367
0.141103
0.141562
0.141708
0.14149
0.140825
0.139615
0.130334
0.118938
0.107563
0.0963707
0.0854867
0.0750119
0.0650277
0.0556013
0.0467898
0.038644
0.0312105
0.024532
0.0186623
0.0136456
0.0095145
0.00627951
0.00390372
0.00228486
0.00126474
0.000667033
0.000337824
0.000165402
7.91374e-05
3.71038e-05
1.70917e-05
7.74791e-06
3.4612e-06
1.5257e-06
6.64416e-07
2.86176e-07
1.22043e-07
5.15787e-08
2.16134e-08
8.9756e-09
3.68308e-09
1.47969e-09
5.66492e-10
1.89071e-10
3.33861e-11
4.70244e-07
2.05512e-06
4.72087e-06
9.18925e-06
1.66418e-05
2.89903e-05
4.92844e-05
8.23124e-05
0.000135452
0.000219824
0.000351769
0.000554575
0.000860231
0.00131074
0.0019583
0.00286343
0.00409047
0.00570072
0.00774436
0.0102536
0.0132389
0.0166892
0.0205747
0.0248519
0.0294678
0.0343645
0.0394819
0.0447606
0.0501433
0.0555761
0.0610097
0.0663998
0.0717075
0.0768995
0.0819481
0.0868304
0.0915281
0.0960269
0.100317
0.104391
0.108247
0.111882
0.115299
0.118499
0.121486
0.124265
0.126839
0.129215
0.131394
0.13338
0.135173
0.136773
0.138174
0.139367
0.14034
0.141072
0.141528
0.141674
0.141462
0.140812
0.139634
0.130028
0.118619
0.107244
0.0960593
0.0851882
0.0747296
0.0647636
0.0553567
0.0465654
0.0384405
0.0310285
0.0243721
0.0185251
0.0135317
0.00942409
0.0062118
0.00385645
0.00225428
0.00124632
0.000656596
0.000332192
0.000162523
7.77383e-05
3.64608e-05
1.67985e-05
7.61604e-06
3.40271e-06
1.50009e-06
6.53324e-07
2.81424e-07
1.20027e-07
5.07307e-08
2.12596e-08
8.82918e-09
3.62314e-09
1.45564e-09
5.57283e-10
1.85991e-10
3.28464e-11
4.70389e-07
2.05576e-06
4.72233e-06
9.19206e-06
1.66469e-05
2.89991e-05
4.92995e-05
8.23378e-05
0.000135494
0.000219893
0.000351881
0.000554754
0.000860512
0.00131118
0.00195895
0.00286438
0.00409182
0.00570258
0.00774685
0.0102568
0.013243
0.0166942
0.0205807
0.0248589
0.0294759
0.0343736
0.0394921
0.0447718
0.0501554
0.0555891
0.0610235
0.0664142
0.0717225
0.0769149
0.0819636
0.0868458
0.0915432
0.0960417
0.100331
0.104405
0.10826
0.111894
0.11531
0.118508
0.121494
0.124271
0.126844
0.129217
0.131393
0.133376
0.135166
0.136761
0.138158
0.139348
0.140316
0.141044
0.141496
0.14164
0.141428
0.140783
0.139618
0.129871
0.11845
0.107075
0.0958951
0.0850324
0.0745837
0.0646284
0.0552326
0.0464526
0.0383391
0.0309385
0.0242936
0.0184583
0.0134766
0.00938069
0.00617954
0.00383412
0.00223996
0.00123776
0.000651771
0.000329604
0.000161225
7.7104e-05
3.61552e-05
1.66573e-05
7.55232e-06
3.37444e-06
1.48772e-06
6.47978e-07
2.79138e-07
1.19058e-07
5.03233e-08
2.10896e-08
8.75876e-09
3.59428e-09
1.44404e-09
5.52835e-10
1.84501e-10
3.25851e-11
4.70397e-07
2.05579e-06
4.7224e-06
9.19221e-06
1.66472e-05
2.89996e-05
4.93003e-05
8.23391e-05
0.000135496
0.000219896
0.000351887
0.000554763
0.000860525
0.0013112
0.00195898
0.00286442
0.00409188
0.00570265
0.00774694
0.0102569
0.0132431
0.0166943
0.0205809
0.0248591
0.029476
0.0343738
0.0394923
0.044772
0.0501556
0.0555893
0.0610237
0.0664144
0.0717227
0.0769151
0.0819638
0.086846
0.0915434
0.0960418
0.100331
0.104405
0.10826
0.111895
0.11531
0.118509
0.121494
0.124271
0.126844
0.129217
0.131393
0.133376
0.135166
0.136762
0.138158
0.139348
0.140316
0.141044
0.141496
0.14164
0.141429
0.140783
0.139618
0.12987
0.11845
0.107074
0.0958945
0.0850318
0.0745832
0.064628
0.0552322
0.0464523
0.0383387
0.0309382
0.0242934
0.0184581
0.0134765
0.00938056
0.00617944
0.00383405
0.00223992
0.00123773
0.000651756
0.000329596
0.000161221
7.71021e-05
3.61543e-05
1.66569e-05
7.55215e-06
3.37437e-06
1.48769e-06
6.47964e-07
2.79131e-07
1.19055e-07
5.03221e-08
2.10891e-08
8.75856e-09
3.59419e-09
1.444e-09
5.52821e-10
1.84496e-10
3.25843e-11
4.70267e-07
2.05522e-06
4.7211e-06
9.18969e-06
1.66426e-05
2.89916e-05
4.92867e-05
8.23163e-05
0.000135458
0.000219834
0.000351785
0.0005546
0.00086027
0.0013108
0.00195839
0.00286354
0.00409063
0.00570092
0.00774461
0.0102539
0.0132393
0.0166896
0.0205752
0.0248524
0.0294683
0.034365
0.0394825
0.0447613
0.0501439
0.0555768
0.0610103
0.0664004
0.0717081
0.0769001
0.0819487
0.086831
0.0915287
0.0960275
0.100317
0.104392
0.108247
0.111883
0.115299
0.118499
0.121486
0.124265
0.12684
0.129215
0.131394
0.13338
0.135174
0.136773
0.138174
0.139368
0.14034
0.141072
0.141528
0.141674
0.141462
0.140811
0.139634
0.130027
0.118618
0.107243
0.0960579
0.0851869
0.0747283
0.0647624
0.0553555
0.0465644
0.0384396
0.0310277
0.0243714
0.0185245
0.0135312
0.00942371
0.00621151
0.00385626
0.00225416
0.00124625
0.000656556
0.000332171
0.000162512
7.77334e-05
3.64587e-05
1.67976e-05
7.61564e-06
3.40253e-06
1.50001e-06
6.53287e-07
2.81408e-07
1.2002e-07
5.07276e-08
2.12582e-08
8.82861e-09
3.6229e-09
1.45554e-09
5.57245e-10
1.85978e-10
3.28439e-11
4.69992e-07
2.05402e-06
4.71836e-06
9.18434e-06
1.66329e-05
2.89746e-05
4.92576e-05
8.2267e-05
0.000135376
0.000219698
0.000351565
0.000554248
0.000859715
0.00130995
0.0019571
0.00286165
0.00408794
0.0056972
0.00773964
0.0102475
0.0132312
0.0166797
0.0205633
0.0248384
0.0294522
0.0343468
0.0394622
0.0447389
0.0501197
0.0555507
0.0609827
0.0663714
0.071678
0.0768692
0.0819172
0.0867993
0.0914971
0.0959962
0.100287
0.104362
0.108218
0.111855
0.115273
0.118475
0.121465
0.124247
0.126825
0.129204
0.131387
0.133378
0.135176
0.136781
0.138188
0.139388
0.140367
0.141103
0.141562
0.141708
0.14149
0.140825
0.139615
0.130331
0.118935
0.10756
0.0963679
0.0854841
0.0750095
0.0650256
0.0555994
0.0467881
0.0386424
0.0312091
0.0245309
0.0186613
0.0136447
0.00951384
0.00627902
0.00390337
0.00228464
0.00126461
0.000666961
0.000337787
0.000165384
7.91288e-05
3.70998e-05
1.70899e-05
7.74708e-06
3.46083e-06
1.52554e-06
6.64342e-07
2.86144e-07
1.22029e-07
5.15728e-08
2.16109e-08
8.97455e-09
3.68264e-09
1.47951e-09
5.66423e-10
1.89048e-10
3.33817e-11
4.69577e-07
2.05221e-06
4.71419e-06
9.17623e-06
1.66182e-05
2.89488e-05
4.92133e-05
8.21921e-05
0.000135251
0.000219492
0.00035123
0.000553711
0.000858871
0.00130865
0.00195514
0.00285879
0.00408386
0.00569159
0.00773214
0.0102377
0.0132189
0.0166647
0.0205454
0.0248174
0.0294281
0.0343195
0.0394318
0.0447055
0.0500833
0.0555116
0.0609411
0.0663276
0.0716323
0.0768219
0.0818688
0.0867502
0.0914475
0.0959466
0.100237
0.104313
0.108171
0.111809
0.11523
0.118434
0.121427
0.124212
0.126794
0.129178
0.131367
0.133363
0.135168
0.13678
0.138193
0.139401
0.140387
0.14113
0.141594
0.141743
0.141524
0.140849
0.139617
0.130775
0.119396
0.108024
0.0968219
0.0859211
0.0754248
0.0654159
0.0559626
0.0471226
0.0389468
0.0314823
0.0247718
0.0188685
0.0138173
0.00965137
0.00638249
0.00397597
0.00233184
0.00129314
0.000683168
0.000346574
0.000169657
8.11466e-05
3.8052e-05
1.75308e-05
7.94781e-06
3.55072e-06
1.56516e-06
6.81561e-07
2.93535e-07
1.25168e-07
5.28934e-08
2.21618e-08
9.20244e-09
3.77588e-09
1.5169e-09
5.80732e-10
1.93832e-10
3.42198e-11
4.69029e-07
2.04982e-06
4.70871e-06
9.16555e-06
1.65988e-05
2.89148e-05
4.91549e-05
8.20936e-05
0.000135086
0.000219222
0.00035079
0.000553008
0.000857765
0.00130694
0.00195258
0.00285504
0.00407854
0.00568425
0.00772233
0.010225
0.013203
0.0166451
0.0205219
0.0247899
0.0293965
0.0342837
0.0393918
0.0446613
0.0500352
0.0554598
0.0608858
0.0662692
0.0715711
0.0767584
0.0818034
0.0866834
0.0913797
0.0958783
0.100169
0.104246
0.108104
0.111744
0.115167
0.118374
0.12137
0.124159
0.126746
0.129135
0.131329
0.133332
0.135144
0.136763
0.138185
0.1394
0.140395
0.141147
0.141619
0.141773
0.141559
0.140885
0.139646
0.131388
0.120021
0.108646
0.097428
0.0865039
0.0759793
0.0659383
0.0564499
0.0475723
0.039357
0.0318511
0.0250976
0.0191495
0.0140518
0.00983883
0.00652406
0.00407573
0.00239701
0.00133273
0.000705846
0.000358025
0.000175338
8.39242e-05
3.9377e-05
1.81481e-05
8.22934e-06
3.6768e-06
1.62074e-06
7.0571e-07
3.03894e-07
1.29561e-07
5.47391e-08
2.29311e-08
9.52042e-09
3.9059e-09
1.56902e-09
6.00672e-10
2.00498e-10
3.53873e-11
4.68363e-07
2.04691e-06
4.70204e-06
9.15255e-06
1.65752e-05
2.88735e-05
4.90841e-05
8.1974e-05
0.000134887
0.000218894
0.000350258
0.000552158
0.00085643
0.00130489
0.0019495
0.00285052
0.00407211
0.00567538
0.00771048
0.0102097
0.0131836
0.0166214
0.0204935
0.0247565
0.029358
0.03424
0.0393429
0.0446073
0.0499763
0.0553961
0.0608176
0.0661969
0.0714951
0.0766792
0.0817214
0.0865992
0.0912939
0.0957915
0.100082
0.104158
0.108018
0.111659
0.115084
0.118294
0.121293
0.124087
0.126678
0.129072
0.131273
0.133283
0.135102
0.13673
0.138161
0.139386
0.14039
0.141151
0.141633
0.141796
0.141588
0.140918
0.139672
0.132171
0.12081
0.109424
0.098192
0.0872397
0.0766812
0.0666013
0.0570697
0.0481451
0.0398799
0.0323218
0.0255141
0.0195092
0.0143528
0.0100802
0.00670712
0.0042054
0.0024823
0.00138511
0.000733487
0.000372595
0.000182806
8.75779e-05
4.11137e-05
1.89552e-05
8.59733e-06
3.84171e-06
1.6935e-06
7.37368e-07
3.17498e-07
1.35343e-07
5.71713e-08
2.39446e-08
9.93911e-09
4.077e-09
1.63758e-09
6.26893e-10
2.09263e-10
3.6922e-11
4.67593e-07
2.04355e-06
4.69433e-06
9.13756e-06
1.6548e-05
2.88259e-05
4.90027e-05
8.18369e-05
0.000134659
0.000218519
0.00034965
0.000551187
0.000854907
0.00130255
0.00194598
0.00284537
0.00406479
0.00566528
0.00769697
0.0101922
0.0131615
0.0165942
0.0204609
0.0247182
0.0293136
0.0341895
0.0392863
0.0445446
0.0499076
0.0553216
0.0607377
0.0661118
0.0714053
0.0765852
0.0816238
0.0864985
0.0911908
0.0956866
0.0999759
0.104052
0.107912
0.111555
0.114981
0.118194
0.121197
0.123994
0.12659
0.12899
0.131197
0.133214
0.135042
0.136678
0.138119
0.139353
0.140368
0.14114
0.141631
0.141803
0.141602
0.140936
0.139687
0.133138
0.121773
0.11037
0.0991096
0.0881344
0.0775414
0.0674187
0.0578361
0.0488507
0.040524
0.032902
0.0260282
0.0199541
0.0147262
0.0103809
0.00693634
0.004369
0.00259113
0.00144629
0.00076825
0.000391346
0.000192334
9.22172e-05
4.33166e-05
1.99787e-05
9.0638e-06
4.05068e-06
1.78567e-06
7.77464e-07
3.34726e-07
1.42665e-07
6.02535e-08
2.52307e-08
1.04708e-08
4.2942e-09
1.72458e-09
6.60162e-10
2.20381e-10
3.88689e-11
4.66736e-07
2.03981e-06
4.68575e-06
9.12089e-06
1.65178e-05
2.87732e-05
4.89128e-05
8.16857e-05
0.000134408
0.000218108
0.000348985
0.000550126
0.000853245
0.0013
0.00194215
0.00283977
0.00405682
0.00565428
0.00768225
0.010173
0.0131374
0.0165645
0.0204251
0.024676
0.0292647
0.0341337
0.0392234
0.0444748
0.0498308
0.0552381
0.0606477
0.0660156
0.0713034
0.0764781
0.081512
0.0863827
0.0910717
0.095565
0.0998525
0.103928
0.107788
0.111431
0.114859
0.118074
0.12108
0.123881
0.126483
0.128889
0.131103
0.133127
0.134963
0.136608
0.138058
0.139304
0.140329
0.141111
0.141612
0.141792
0.141596
0.140932
0.139682
0.134278
0.122905
0.111478
0.100179
0.0891518
0.0785094
0.0683385
0.0587099
0.049683
0.0412968
0.0335983
0.0266468
0.0204916
0.0151798
0.0107485
0.00721852
0.0045724
0.00271512
0.00152307
0.00081219
0.000414734
0.000204189
9.79927e-05
4.60588e-05
2.12524e-05
9.64403e-06
4.31047e-06
1.90019e-06
8.27251e-07
3.56104e-07
1.51746e-07
6.4074e-08
2.68243e-08
1.11297e-08
4.56362e-09
1.83248e-09
7.01417e-10
2.34169e-10
4.12819e-11
4.65805e-07
2.03575e-06
4.67646e-06
9.10286e-06
1.64852e-05
2.87165e-05
4.88163e-05
8.1524e-05
0.000134141
0.000217671
0.000348281
0.000549007
0.000851497
0.00129732
0.00193813
0.00283391
0.00404849
0.00564279