/*--------------------------------*- C++ -*----------------------------------*\
  =========                 |
  \\      /  F ield         | OpenFOAM: The Open Source CFD Toolbox
   \\    /   O peration     | Website:  https://openfoam.org
    \\  /    A nd           | Version:  8
     \\/     M anipulation  |
\*---------------------------------------------------------------------------*/
FoamFile
{
    version     2.0;
    format      ascii;
    class       volScalarField;
    location    "380/fluid";
    object      H2O;
}
// * * * * * * * * * * * * * * * * * * * * * * * * * * * * * * * * * * * * * //

dimensions      [0 0 0 0 0 0 0];

internalField   nonuniform List<scalar> 
4000
(
3.56005e-07
1.55513e-06
3.56909e-06
6.93929e-06
1.25531e-05
2.18508e-05
3.71427e-05
6.20833e-05
0.000102358
0.00016664
0.00026784
0.000424631
0.000663047
0.00101778
0.00153252
0.00225845
0.00325042
0.00456056
0.00623095
0.00828893
0.0107407
0.0135731
0.0167573
0.0202531
0.0240135
0.0279883
0.0321268
0.0363801
0.040702
0.0450503
0.0493868
0.0536783
0.0578958
0.0620153
0.0660171
0.0698858
0.0736087
0.0771771
0.080585
0.0838284
0.0869059
0.089818
0.0925663
0.0951537
0.097584
0.0998613
0.10199
0.103974
0.105818
0.107525
0.109097
0.110536
0.11184
0.113008
0.114032
0.114904
0.115608
0.116122
0.116412
0.116447
0.116167
0.115492
0.114315
0.10863
0.0999363
0.0911393
0.082376
0.0737551
0.0653636
0.0572723
0.04954
0.0422169
0.0353484
0.0289781
0.0231526
0.0179111
0.0133157
0.00942077
0.00627529
0.00389878
0.00224854
0.00120651
0.000607308
0.000290816
0.000134846
6.09783e-05
2.70297e-05
1.17885e-05
5.07314e-06
2.1591e-06
9.1044e-07
3.80947e-07
1.5835e-07
6.54295e-08
2.68616e-08
1.09247e-08
4.36098e-09
1.66335e-09
5.55052e-10
9.72739e-11
3.59487e-07
1.571e-06
3.60832e-06
7.02297e-06
1.27198e-05
2.21678e-05
3.77217e-05
6.31003e-05
0.000104073
0.000169406
0.000272088
0.0004308
0.000671424
0.00102825
0.00154425
0.00226966
0.00325824
0.00456135
0.00622094
0.0082627
0.0106946
0.0135062
0.0166708
0.0201498
0.023897
0.0278631
0.0319974
0.0362507
0.0405767
0.0449322
0.0492785
0.0535815
0.0578119
0.0619451
0.0659611
0.0698441
0.0735816
0.0771633
0.0805827
0.0838366
0.0869236
0.0898442
0.0926
0.0951939
0.0976295
0.0999112
0.102043
0.10403
0.105875
0.107582
0.109154
0.110591
0.111893
0.113057
0.114077
0.114942
0.115638
0.116144
0.116424
0.116448
0.116157
0.115471
0.114285
0.107645
0.0989423
0.0901249
0.0813367
0.0726915
0.0642795
0.0561735
0.0484341
0.0411135
0.0342595
0.0279272
0.022144
0.016975
0.012479
0.00871198
0.00571826
0.00350198
0.00199704
0.00106556
0.000536947
0.000258684
0.000121002
5.52666e-05
2.47456e-05
1.08936e-05
4.72636e-06
2.02516e-06
8.5855e-07
3.60704e-07
1.50383e-07
6.22695e-08
2.56024e-08
1.04239e-08
4.16461e-09
1.58956e-09
5.30695e-10
9.30734e-11
3.648e-07
1.59467e-06
3.66457e-06
7.13703e-06
1.29347e-05
2.25542e-05
3.83907e-05
6.42184e-05
0.000105876
0.000172202
0.000276244
0.000436676
0.000679291
0.00103815
0.00155578
0.00228177
0.00326908
0.00456833
0.006221
0.00825311
0.0106728
0.0134698
0.0166185
0.0200817
0.0238149
0.0277695
0.0318959
0.0361452
0.040471
0.0448304
0.0491841
0.0534976
0.0577412
0.0618894
0.0659211
0.0698192
0.0735707
0.0771664
0.0806
0.0838675
0.0869672
0.0898992
0.0926653
0.0952682
0.0977115
0.0999993
0.102136
0.104126
0.105973
0.107681
0.109252
0.110686
0.111983
0.11314
0.114149
0.115001
0.11568
0.116164
0.116416
0.116411
0.116087
0.115373
0.114183
0.106126
0.097408
0.0885527
0.0797287
0.0710597
0.0626403
0.0545449
0.0468353
0.0395648
0.0327828
0.0265614
0.0208984
0.0158787
0.0115572
0.00798294
0.00518583
0.00314894
0.00178631
0.000951782
0.000480566
0.000232383
0.000109198
5.01206e-05
2.2552e-05
9.97462e-06
4.34621e-06
1.86927e-06
7.94962e-07
3.34831e-07
1.39862e-07
5.79906e-08
2.38639e-08
9.72111e-09
3.88493e-09
1.48297e-09
4.95087e-10
8.68497e-11
3.69016e-07
1.61308e-06
3.70685e-06
7.21903e-06
1.30817e-05
2.28048e-05
3.88017e-05
6.48693e-05
0.000106871
0.00017367
0.000278328
0.000439515
0.000682968
0.0010426
0.00156071
0.00228651
0.00327254
0.00456896
0.00621696
0.00824231
0.0106536
0.0134412
0.0165804
0.0200346
0.0237602
0.027709
0.0318321
0.0360807
0.0404087
0.0447729
0.0491339
0.0534567
0.0577106
0.0618695
0.065913
0.0698244
0.0735905
0.0772009
0.0806487
0.0839298
0.0870422
0.0899858
0.0927623
0.0953742
0.0978251
0.100119
0.102261
0.104254
0.106103
0.10781
0.109378
0.110808
0.112097
0.113243
0.114237
0.115067
0.115716
0.116156
0.11635
0.116264
0.115832
0.114979
0.113643
0.104822
0.0958262
0.0868104
0.0778999
0.0691957
0.0607792
0.0527181
0.0450698
0.0378855
0.0312131
0.0251291
0.01962
0.0147754
0.0106447
0.00726947
0.004667
0.00280317
0.00157657
0.000835546
0.000420993
0.000203729
9.59462e-05
4.41748e-05
1.9948e-05
8.85667e-06
3.87414e-06
1.6726e-06
7.13889e-07
3.01678e-07
1.26383e-07
5.25342e-08
2.16643e-08
8.84027e-09
3.53764e-09
1.35165e-09
4.51449e-10
7.92395e-11
3.72217e-07
1.62702e-06
3.73866e-06
7.28035e-06
1.31911e-05
2.29915e-05
3.91097e-05
6.53627e-05
0.000107639
0.000174829
0.000280017
0.000441879
0.00068612
0.00104656
0.00156532
0.00229136
0.00327687
0.00457174
0.00621692
0.00823879
0.0106456
0.0134283
0.0165624
0.0200121
0.0237341
0.0276807
0.0318032
0.036053
0.0403838
0.044752
0.0491187
0.0534488
0.057712
0.0618827
0.0659391
0.0698641
0.0736438
0.0772676
0.0807284
0.0840218
0.0871456
0.0900997
0.0928853
0.0955052
0.0979628
0.100262
0.102407
0.104402
0.106252
0.107958
0.109523
0.110947
0.112228
0.113361
0.114338
0.115144
0.115758
0.116146
0.116267
0.116062
0.11543
0.114228
0.112202
0.10315
0.094002
0.0848974
0.0759476
0.0672436
0.0588602
0.0508604
0.0432987
0.0362242
0.0296832
0.0237344
0.0183959
0.0137361
0.00979964
0.00662104
0.00420504
0.00250156
0.00139689
0.000737222
0.000370907
0.000179615
8.47352e-05
3.91007e-05
1.77e-05
7.87798e-06
3.45419e-06
1.49457e-06
6.3918e-07
2.70587e-07
1.13534e-07
4.72552e-08
1.95087e-08
7.96768e-09
3.19053e-09
1.21947e-09
4.07322e-10
7.15225e-11
3.74483e-07
1.63683e-06
3.76085e-06
7.32261e-06
1.32655e-05
2.31163e-05
3.93123e-05
6.56815e-05
0.000108126
0.000175551
0.000281049
0.0004433
0.000687989
0.00104889
0.00156805
0.00229429
0.00327968
0.00457396
0.00621801
0.00823822
0.0106433
0.0134242
0.0165566
0.0200049
0.0237261
0.0276728
0.0317965
0.036049
0.0403841
0.0447589
0.0491338
0.0534736
0.0577475
0.0619294
0.0659977
0.0699347
0.0737264
0.0773619
0.080834
0.084138
0.0872715
0.0902343
0.0930275
0.0956538
0.0981164
0.100419
0.102567
0.104563
0.106411
0.108115
0.109676
0.111094
0.112367
0.11349
0.114453
0.115244
0.115839
0.116203
0.116302
0.116076
0.115438
0.114276
0.110218
0.101156
0.0919986
0.0828967
0.0739677
0.0653049
0.0569836
0.0490662
0.0416065
0.0346526
0.0282505
0.0224409
0.0172711
0.0127898
0.00903765
0.00604219
0.00379643
0.00223651
0.00123922
0.000650555
0.000326325
0.000157915
7.45281e-05
3.44298e-05
1.56106e-05
6.96116e-06
3.05841e-06
1.32607e-06
5.68262e-07
2.41023e-07
1.01305e-07
4.22302e-08
1.7457e-08
7.13732e-09
2.86023e-09
1.09369e-09
3.65351e-10
6.41866e-11
3.7617e-07
1.64414e-06
3.7774e-06
7.35417e-06
1.33212e-05
2.32103e-05
3.9466e-05
6.59265e-05
0.000108507
0.000176128
0.0002819
0.000444515
0.000689666
0.00105112
0.00157089
0.00229774
0.00328368
0.00457836
0.00622261
0.00824281
0.0106478
0.0134286
0.0165614
0.0200108
0.0237339
0.0276837
0.0318116
0.0360694
0.0404111
0.0447934
0.0491768
0.0535258
0.0578097
0.062002
0.0660809
0.0700286
0.0738308
0.0774765
0.0809581
0.0842709
0.0874124
0.090382
0.0931811
0.095812
0.098278
0.100583
0.102731
0.104727
0.106573
0.108273
0.109828
0.111239
0.112504
0.113616
0.114567
0.115344
0.115924
0.116272
0.116355
0.116118
0.115476
0.114321
0.108176
0.0991514
0.090025
0.0809577
0.0720736
0.0634693
0.0552216
0.0473933
0.0400375
0.0332017
0.0269445
0.0212765
0.0162624
0.0119463
0.00836422
0.00553618
0.00344376
0.00201065
0.00110632
0.000578049
0.000289164
0.000139822
6.59951e-05
3.05069e-05
1.38453e-05
6.18114e-06
2.71916e-06
1.18053e-06
5.06557e-07
2.15123e-07
9.05251e-08
3.77764e-08
1.56302e-08
6.3951e-09
2.56406e-09
9.80643e-10
3.27583e-10
5.75813e-11
3.77481e-07
1.64982e-06
3.79025e-06
7.37867e-06
1.33644e-05
2.32833e-05
3.95857e-05
6.61181e-05
0.000108807
0.000176588
0.000282589
0.000445524
0.000691109
0.00105313
0.00157362
0.00230135
0.00328833
0.00458422
0.00622986
0.00825164
0.0106584
0.0134415
0.0165769
0.0200296
0.0237566
0.027711
0.0318444
0.0361087
0.0404575
0.0448477
0.0492395
0.0535976
0.0578908
0.0620927
0.0661812
0.0701383
0.0739496
0.0776039
0.0810934
0.0844133
0.087561
0.0905359
0.0933391
0.095973
0.0984408
0.100746
0.102894
0.104887
0.106729
0.108424
0.109972
0.111374
0.112627
0.113726
0.114662
0.11542
0.115978
0.116302
0.116363
0.1161
0.115433
0.114261
0.106331
0.097339
0.0882333
0.0791925
0.070348
0.0617988
0.0536217
0.0458787
0.0386216
0.0318968
0.0257712
0.0202355
0.0153658
0.011202
0.00777545
0.00509847
0.00314203
0.00181928
0.000994446
0.000517177
0.000257942
0.000124581
5.87797e-05
2.7176e-05
1.234e-05
5.51338e-06
2.42767e-06
1.05506e-06
4.53205e-07
1.9267e-07
8.11589e-08
3.38992e-08
1.40371e-08
5.74689e-09
2.30509e-09
8.81818e-10
2.94539e-10
5.18004e-11
3.78575e-07
1.65457e-06
3.80103e-06
7.39929e-06
1.3401e-05
2.33457e-05
3.96889e-05
6.62856e-05
0.000109074
0.000177006
0.000283232
0.000446495
0.000692547
0.00105522
0.00157657
0.00230545
0.00329389
0.00459158
0.00623939
0.00826376
0.0106736
0.0134601
0.0165996
0.0200568
0.023789
0.0277493
0.0318891
0.0361604
0.0405168
0.044915
0.0493152
0.0536819
0.0579839
0.0621944
0.0662914
0.0702568
0.0740758
0.0777373
0.0812333
0.0845588
0.0877112
0.0906898
0.0934957
0.0961311
0.0985992
0.100904
0.103049
0.105038
0.106876
0.108563
0.110102
0.111493
0.112732
0.113813
0.114727
0.115457
0.115984
0.116269
0.116287
0.115979
0.115274
0.114107
0.105124
0.0959408
0.0867412
0.0776679
0.0688318
0.0603201
0.0522024
0.0445356
0.0373679
0.0307426
0.024723
0.019305
0.01457
0.0105491
0.0072653
0.00472378
0.00288677
0.00165905
0.00090152
0.000466861
0.000232186
0.000112003
5.28143e-05
2.44146e-05
1.10881e-05
4.956e-06
2.18346e-06
9.49564e-07
4.08187e-07
1.73663e-07
7.32069e-08
3.05989e-08
1.26781e-08
5.19278e-09
2.08358e-09
7.97232e-10
2.6623e-10
4.68441e-11
3.7954e-07
1.65877e-06
3.81056e-06
7.41761e-06
1.34337e-05
2.34017e-05
3.97825e-05
6.6439e-05
0.000109322
0.0001774
0.000283849
0.000447448
0.000693991
0.00105737
0.00157971
0.00230992
0.00330011
0.00460003
0.00625057
0.0082782
0.0106918
0.0134827
0.016627
0.0200896
0.0238278
0.0277945
0.0319412
0.0362197
0.0405838
0.0449899
0.0493982
0.0537729
0.0580829
0.0623013
0.0664058
0.0703783
0.0742039
0.0778712
0.0813724
0.0847022
0.087858
0.090839
0.0936462
0.096282
0.0987493
0.101052
0.103194
0.105178
0.107009
0.108689
0.110218
0.111595
0.112818
0.113878
0.114764
0.115458
0.115934
0.11615
0.11607
0.115618
0.114698
0.113212
0.103998
0.0946772
0.0854068
0.0763104
0.0674861
0.0590121
0.050952
0.0433585
0.036277
0.0297479
0.0238244
0.0185267
0.0139023
0.009994
0.00683168
0.00440804
0.0026734
0.00152605
0.000824754
0.000425395
0.000210968
0.000101629
4.7885e-05
2.21276e-05
1.00487e-05
4.4921e-06
1.97972e-06
8.61342e-07
3.7046e-07
1.57702e-07
6.65173e-08
2.78179e-08
1.15312e-08
4.7248e-09
1.8963e-09
7.2567e-10
2.42316e-10
4.26535e-11
3.80425e-07
1.66262e-06
3.81935e-06
7.43457e-06
1.34641e-05
2.34541e-05
3.98708e-05
6.65853e-05
0.000109561
0.000177784
0.00028446
0.000448405
0.000695465
0.0010596
0.00158301
0.00231469
0.00330683
0.00460923
0.00626285
0.00829414
0.010712
0.0135076
0.0166573
0.0201257
0.0238701
0.0278434
0.0319971
0.0362829
0.0406544
0.045068
0.0494838
0.053866
0.0581832
0.0624085
0.0665195
0.070498
0.0743291
0.0780012
0.0815063
0.0848393
0.0879973
0.0909797
0.0937874
0.0964225
0.0988882
0.101188
0.103326
0.105306
0.10713
0.108802
0.110321
0.111686
0.112893
0.113935
0.114797
0.115461
0.115894
0.116055
0.115893
0.115316
0.114198
0.112164
0.102845
0.0934646
0.0841696
0.075077
0.0662788
0.0578491
0.0498485
0.0423283
0.035334
0.0289099
0.0231013
0.0179115
0.0133869
0.0095611
0.00648068
0.004147
0.00249697
0.0014163
0.000761551
0.000391304
0.000193531
9.30979e-05
4.38262e-05
2.02417e-05
9.19009e-06
4.10823e-06
1.81083e-06
7.88082e-07
3.39077e-07
1.44404e-07
6.09351e-08
2.54942e-08
1.0572e-08
4.33302e-09
1.73939e-09
6.65675e-10
2.22272e-10
3.9143e-11
3.81252e-07
1.66622e-06
3.82759e-06
7.45051e-06
1.34928e-05
2.35039e-05
3.99552e-05
6.67259e-05
0.000109792
0.00017816
0.000285063
0.000449356
0.000696944
0.00106185
0.00158637
0.00231958
0.00331376
0.00461879
0.00627563
0.00831075
0.010733
0.0135336
0.0166887
0.020163
0.0239136
0.0278935
0.032054
0.0363467
0.0407251
0.0451457
0.0495684
0.0539572
0.0582808
0.0625121
0.0666288
0.0706123
0.0744477
0.0781236
0.0816317
0.0849669
0.0881263
0.0911092
0.0939165
0.0965505
0.0990141
0.101311
0.103445
0.105419
0.107238
0.108902
0.110413
0.111768
0.112964
0.113993
0.114842
0.115491
0.115909
0.116059
0.115897
0.115342
0.114295
0.111033
0.101702
0.0923217
0.0830395
0.0739721
0.0652113
0.0568299
0.0488876
0.0414351
0.0345169
0.0281719
0.0224135
0.0173018
0.0128773
0.00917395
0.00619367
0.00393098
0.00234923
0.00132477
0.000709063
0.000363085
0.000179127
8.60569e-05
4.04773e-05
1.86853e-05
8.48121e-06
3.79106e-06
1.67115e-06
7.27434e-07
3.13069e-07
1.33372e-07
5.62997e-08
2.35629e-08
9.77408e-09
4.00696e-09
1.60874e-09
6.15727e-10
2.05578e-10
3.62229e-11
3.82025e-07
1.66959e-06
3.83531e-06
7.46549e-06
1.35199e-05
2.3551e-05
4.00353e-05
6.68602e-05
0.000110014
0.000178523
0.000285647
0.000450285
0.000698394
0.00106407
0.00158969
0.00232444
0.00332066
0.0046283
0.00628836
0.0083273
0.0107539
0.0135594
0.0167199
0.0201998
0.0239564
0.0279425
0.0321093
0.0364084
0.0407933
0.0452201
0.0496489
0.0540436
0.0583727
0.0626092
0.0667305
0.0707181
0.0745571
0.0782357
0.081746
0.0850826
0.0882427
0.0912255
0.094032
0.0966642
0.0991254
0.101419
0.103549
0.105519
0.107331
0.108989
0.110492
0.111839
0.113026
0.114046
0.114885
0.115526
0.115936
0.116083
0.115923
0.115379
0.114356
0.10994
0.100629
0.0912728
0.0820223
0.0729938
0.0642806
0.0559533
0.04807
0.0406795
0.0338133
0.0275102
0.0218187
0.016779
0.0124298
0.00880157
0.00591114
0.00374437
0.00222349
0.00124731
0.000665145
0.00033965
0.000167223
8.0252e-05
3.77202e-05
1.74047e-05
7.89801e-06
3.53006e-06
1.55616e-06
6.77476e-07
2.91631e-07
1.24272e-07
5.24733e-08
2.19677e-08
9.11469e-09
3.73739e-09
1.50072e-09
5.74431e-10
1.91775e-10
3.38087e-11
3.82738e-07
1.6727e-06
3.84244e-06
7.47934e-06
1.3545e-05
2.35948e-05
4.01101e-05
6.69858e-05
0.000110222
0.000178865
0.0002862
0.000451166
0.000699774
0.00106619
0.00159287
0.00232908
0.00332726
0.00463741
0.00630055
0.00834312
0.0107739
0.013584
0.0167494
0.0202347
0.0239968
0.0279885
0.0321611
0.036466
0.0408565
0.0452889
0.049723
0.0541227
0.0584565
0.0626973
0.0668224
0.0708133
0.0746549
0.0783357
0.0818474
0.0851847
0.0883449
0.0913271
0.0941323
0.0967626
0.0992211
0.101511
0.103637
0.105602
0.107409
0.10906
0.110557
0.111896
0.113076
0.114087
0.114917
0.115549
0.115952
0.116093
0.115928
0.115383
0.114361
0.109006
0.0997007
0.0903645
0.0811456
0.0721596
0.0634869
0.0551993
0.0473539
0.0399973
0.03318
0.0269396
0.0213117
0.0163386
0.0120582
0.0085003
0.00567992
0.0035777
0.00212188
0.00118439
0.000629138
0.000320485
0.000157508
7.55197e-05
3.54733e-05
1.63611e-05
7.42259e-06
3.3172e-06
1.46233e-06
6.36682e-07
2.74114e-07
1.16831e-07
4.93429e-08
2.0662e-08
8.57474e-09
3.51662e-09
1.41231e-09
5.40626e-10
1.80477e-10
3.18314e-11
3.83379e-07
1.6755e-06
3.84886e-06
7.49183e-06
1.35676e-05
2.36344e-05
4.01779e-05
6.71001e-05
0.000110412
0.000179177
0.000286706
0.000451973
0.000701039
0.00106813
0.00159579
0.00233336
0.00333334
0.00464578
0.00631174
0.00835764
0.0107922
0.0136065
0.0167764
0.0202664
0.0240334
0.0280302
0.0322078
0.0365177
0.0409131
0.0453502
0.0497888
0.0541928
0.0585304
0.0627746
0.0669027
0.0708961
0.0747397
0.0784219
0.0819344
0.085272
0.0884318
0.0914131
0.0942168
0.0968449
0.0993006
0.101587
0.103709
0.105669
0.107471
0.109117
0.110606
0.111939
0.11311
0.114113
0.114936
0.115559
0.115953
0.116087
0.115917
0.115368
0.114349
0.108213
0.0989117
0.0895903
0.0803945
0.0714277
0.0627829
0.0545301
0.0467262
0.0394193
0.0326522
0.0264642
0.0208905
0.015974
0.0117522
0.00825389
0.00549204
0.00344361
0.00203268
0.00113423
0.000600639
0.000305114
0.000149699
7.17172e-05
3.36679e-05
1.55223e-05
7.04031e-06
3.14596e-06
1.38679e-06
6.03826e-07
2.59997e-07
1.10831e-07
4.68171e-08
1.96081e-08
8.13908e-09
3.33864e-09
1.34101e-09
5.13363e-10
1.71365e-10
3.02359e-11
3.83936e-07
1.67793e-06
3.85443e-06
7.50269e-06
1.35874e-05
2.36689e-05
4.0237e-05
6.71999e-05
0.000110579
0.00017945
0.000287149
0.000452681
0.000702152
0.00106985
0.00159836
0.00233712
0.00333868
0.00465314
0.00632157
0.00837037
0.0108082
0.0136261
0.0167999
0.020294
0.0240652
0.0280663
0.0322481
0.0365622
0.0409618
0.0454028
0.049845
0.0542523
0.058593
0.0628398
0.0669702
0.0709654
0.0748103
0.0784933
0.0820062
0.0853437
0.0885028
0.091483
0.0942849
0.0969107
0.0993636
0.101647
0.103765
0.105721
0.107517
0.109157
0.11064
0.111966
0.11313
0.114126
0.11494
0.115556
0.115942
0.116069
0.115893
0.115342
0.114327
0.107571
0.0982649
0.088952
0.0797675
0.0708239
0.0622072
0.0539865
0.0462181
0.0389498
0.0322236
0.0260783
0.020549
0.0156791
0.0115054
0.00805599
0.00534196
0.0033373
0.00196275
0.0010913
0.000577979
0.000293167
0.000143576
6.87219e-05
3.22442e-05
1.48607e-05
6.73867e-06
3.01078e-06
1.32716e-06
5.77878e-07
2.48847e-07
1.06092e-07
4.48237e-08
1.87774e-08
7.79591e-09
3.1984e-09
1.28482e-09
4.91871e-10
1.64182e-10
2.89778e-11
3.84395e-07
1.67994e-06
3.85904e-06
7.51166e-06
1.36037e-05
2.36975e-05
4.0286e-05
6.72825e-05
0.000110716
0.000179677
0.000287518
0.00045327
0.000703077
0.00107127
0.0016005
0.00234024
0.00334312
0.00465926
0.00632974
0.00838094
0.0108215
0.0136424
0.0168194
0.0203168
0.0240914
0.0280959
0.0322813
0.0365987
0.0410015
0.0454456
0.0498907
0.0543005
0.0586435
0.0628922
0.0670241
0.0710204
0.0748661
0.0785495
0.0820624
0.0853994
0.0885577
0.0915365
0.0943367
0.0969603
0.0994104
0.101691
0.103805
0.105756
0.107548
0.109183
0.11066
0.11198
0.113137
0.114126
0.114933
0.115541
0.115921
0.116043
0.115864
0.115311
0.114303
0.107068
0.0977529
0.0884419
0.0792707
0.070346
0.0617525
0.053558
0.0458184
0.0385809
0.0318873
0.0257759
0.0202818
0.0154487
0.0113131
0.00790227
0.00522587
0.00325549
0.00190931
0.00105883
0.000559386
0.000283779
0.000138916
6.64433e-05
3.11574e-05
1.43545e-05
6.50782e-06
2.90741e-06
1.28158e-06
5.58077e-07
2.40354e-07
1.02491e-07
4.33104e-08
1.81467e-08
7.5352e-09
3.09179e-09
1.24208e-09
4.75521e-10
1.58716e-10
2.80205e-11
3.84747e-07
1.68148e-06
3.86256e-06
7.51853e-06
1.36161e-05
2.37194e-05
4.03235e-05
6.73459e-05
0.000110822
0.000179851
0.0002878
0.000453723
0.000703787
0.00107236
0.00160214
0.00234265
0.00334654
0.00466397
0.00633601
0.00838906
0.0108317
0.0136549
0.0168343
0.0203342
0.0241115
0.0281186
0.0323065
0.0366265
0.0410317
0.045478
0.0499251
0.0543368
0.0586813
0.0629312
0.067064
0.071061
0.074907
0.0785904
0.082103
0.0854394
0.0885967
0.0915742
0.0943727
0.0969942
0.0994419
0.101719
0.10383
0.105778
0.107565
0.109195
0.110667
0.111981
0.113133
0.114116
0.114917
0.11552
0.115895
0.116015
0.115837
0.115292
0.114302
0.106704
0.0973734
0.088061
0.0788978
0.0699872
0.0614116
0.0532376
0.0455203
0.0383064
0.0316375
0.0255517
0.0200842
0.0152787
0.0111715
0.00778944
0.00514098
0.00319594
0.0018706
0.00103543
0.000546094
0.000276574
0.000135414
6.47891e-05
3.03765e-05
1.39928e-05
6.34315e-06
2.83365e-06
1.24908e-06
5.43951e-07
2.3429e-07
9.99156e-08
4.2227e-08
1.76947e-08
7.34825e-09
3.01531e-09
1.21141e-09
4.63782e-10
1.54791e-10
2.73329e-11
3.84984e-07
1.68251e-06
3.86494e-06
7.52316e-06
1.36245e-05
2.37341e-05
4.03487e-05
6.73884e-05
0.000110893
0.000179968
0.00028799
0.000454026
0.000704264
0.0010731
0.00160325
0.00234426
0.00334884
0.00466713
0.00634024
0.00839453
0.0108386
0.0136633
0.0168444
0.020346
0.024125
0.0281339
0.0323235
0.0366451
0.0410519
0.0454997
0.0499481
0.0543609
0.0587063
0.062957
0.0670902
0.0710873
0.0749332
0.0786164
0.0821285
0.0854643
0.0886207
0.091597
0.0943941
0.0970139
0.0994595
0.101734
0.103842
0.105787
0.107571
0.109197
0.110665
0.111975
0.113122
0.114099
0.114896
0.115495
0.115868
0.115987
0.115814
0.115281
0.114317
0.106453
0.0971125
0.0877997
0.0786429
0.0697428
0.0611805
0.0530214
0.04532
0.0381227
0.0314709
0.0254028
0.0199532
0.0151664
0.0110783
0.00771542
0.00508554
0.00315724
0.00184556
0.00102035
0.00053755
0.000271963
0.000133056
6.36436e-05
2.98502e-05
1.37528e-05
6.23519e-06
2.78577e-06
1.22811e-06
5.34871e-07
2.304e-07
9.8265e-08
4.15328e-08
1.7405e-08
7.22837e-09
2.96623e-09
1.19172e-09
4.56243e-10
1.52269e-10
2.6891e-11
3.85104e-07
1.68303e-06
3.86613e-06
7.52546e-06
1.36287e-05
2.37413e-05
4.03611e-05
6.74092e-05
0.000110928
0.000180024
0.000288082
0.000454172
0.000704493
0.00107345
0.00160378
0.00234504
0.00334994
0.00466866
0.00634228
0.00839718
0.0108419
0.0136674
0.0168492
0.0203518
0.0241316
0.0281414
0.0323318
0.0366543
0.0410618
0.0455103
0.0499594
0.0543727
0.0587185
0.0629695
0.0671029
0.0710999
0.0749456
0.0786285
0.0821402
0.0854755
0.0886313
0.0916069
0.0944031
0.0970218
0.0994661
0.10174
0.103846
0.105788
0.10757
0.109194
0.110659
0.111965
0.113109
0.114083
0.114876
0.115471
0.115841
0.115959
0.115786
0.115258
0.114304
0.106324
0.0969742
0.0876611
0.0785085
0.0696153
0.061061
0.0529107
0.0452184
0.0380304
0.0313878
0.025329
0.019889
0.0151117
0.0110332
0.00767989
0.00505913
0.00313896
0.00183384
0.00101334
0.000533599
0.000269844
0.000131994
6.31244e-05
2.96e-05
1.36372e-05
6.18302e-06
2.76263e-06
1.21798e-06
5.30494e-07
2.28528e-07
9.74716e-08
4.11992e-08
1.72658e-08
7.17072e-09
2.9426e-09
1.18222e-09
4.52601e-10
1.51049e-10
2.66771e-11
3.8511e-07
1.68306e-06
3.86619e-06
7.52558e-06
1.36289e-05
2.37417e-05
4.03617e-05
6.74103e-05
0.000110929
0.000180027
0.000288086
0.000454179
0.000704504
0.00107346
0.0016038
0.00234507
0.00334998
0.00466871
0.00634235
0.00839726
0.010842
0.0136675
0.0168494
0.0203519
0.0241318
0.0281415
0.032332
0.0366545
0.041062
0.0455105
0.0499596
0.0543729
0.0587187
0.0629697
0.067103
0.0711001
0.0749458
0.0786286
0.0821404
0.0854756
0.0886315
0.0916071
0.0944032
0.0970219
0.0994663
0.10174
0.103846
0.105789
0.10757
0.109194
0.110659
0.111966
0.113109
0.114083
0.114876
0.115471
0.115841
0.115959
0.115786
0.115258
0.114304
0.106324
0.0969737
0.0876605
0.078508
0.0696148
0.0610606
0.0529104
0.0452181
0.0380301
0.0313876
0.0253288
0.0198888
0.0151115
0.0110331
0.00767978
0.00505905
0.00313891
0.0018338
0.00101332
0.000533587
0.000269837
0.000131991
6.31228e-05
2.95992e-05
1.36369e-05
6.18288e-06
2.76256e-06
1.21796e-06
5.30482e-07
2.28522e-07
9.74694e-08
4.11983e-08
1.72654e-08
7.17055e-09
2.94253e-09
1.18219e-09
4.5259e-10
1.51045e-10
2.66765e-11
3.85003e-07
1.68259e-06
3.86513e-06
7.52352e-06
1.36252e-05
2.37352e-05
4.03506e-05
6.73916e-05
0.000110898
0.000179976
0.000288003
0.000454047
0.000704295
0.00107314
0.00160331
0.00234436
0.00334896
0.0046673
0.00634045
0.00839479
0.0108389
0.0136637
0.0168447
0.0203464
0.0241255
0.0281344
0.032324
0.0366457
0.0410524
0.0455002
0.0499486
0.0543614
0.0587068
0.0629575
0.0670907
0.0710878
0.0749337
0.0786169
0.082129
0.0854647
0.0886211
0.0915974
0.0943944
0.0970142
0.0994598
0.101735
0.103843
0.105787
0.107571
0.109197
0.110665
0.111975
0.113122
0.114099
0.114896
0.115494
0.115867
0.115987
0.115813
0.115281
0.114317
0.106452
0.0971114
0.0877987
0.0786418
0.0697417
0.0611794
0.0530204
0.0453191
0.0381219
0.0314702
0.0254021
0.0199527
0.0151659
0.0110779
0.00771511
0.00508531
0.00315708
0.00184546
0.00102029
0.000537516
0.000271945
0.000133047
6.36397e-05
2.98484e-05
1.3752e-05
6.23485e-06
2.78562e-06
1.22804e-06
5.34841e-07
2.30386e-07
9.82592e-08
4.15303e-08
1.74039e-08
7.22791e-09
2.96604e-09
1.19163e-09
4.56211e-10
1.52258e-10
2.6889e-11
3.84778e-07
1.68161e-06
3.86288e-06
7.51914e-06
1.36172e-05
2.37213e-05
4.03268e-05
6.73513e-05
0.000110831
0.000179865
0.000287823
0.000453758
0.000703841
0.00107244
0.00160226
0.00234281
0.00334676
0.00466425
0.00633637
0.0083895
0.0108322
0.0136555
0.016835
0.020335
0.0241123
0.0281194
0.0323074
0.0366274
0.0410326
0.0454789
0.049926
0.0543377
0.0586822
0.0629321
0.0670649
0.0710618
0.0749078
0.0785912
0.0821037
0.0854401
0.0885974
0.0915749
0.0943733
0.0969948
0.0994424
0.10172
0.10383
0.105778
0.107566
0.109195
0.110668
0.111982
0.113134
0.114116
0.114917
0.11552
0.115895
0.116015
0.115837
0.115292
0.114302
0.106701
0.0973709
0.0880586
0.0788955
0.0699851
0.0614096
0.0532359
0.0455187
0.038305
0.0316362
0.0255506
0.0200832
0.0152778
0.0111708
0.0077889
0.00514058
0.00319566
0.00187041
0.00103532
0.000546035
0.000276544
0.000135399
6.47821e-05
3.03733e-05
1.39913e-05
6.34247e-06
2.83335e-06
1.24894e-06
5.43891e-07
2.34264e-07
9.99042e-08
4.22222e-08
1.76927e-08
7.34738e-09
3.01495e-09
1.21126e-09
4.63725e-10
1.54772e-10
2.73293e-11
3.84438e-07
1.68013e-06
3.85947e-06
7.5125e-06
1.36052e-05
2.37001e-05
4.02905e-05
6.729e-05
0.000110729
0.000179696
0.000287549
0.000453319
0.00070315
0.00107138
0.00160066
0.00234046
0.00334342
0.00465965
0.00633023
0.00838155
0.0108222
0.0136432
0.0168203
0.0203178
0.0240925
0.0280971
0.0322825
0.0366
0.0410028
0.0454469
0.0498919
0.0543018
0.0586447
0.0628934
0.0670253
0.0710216
0.0748673
0.0785506
0.0820635
0.0854004
0.0885587
0.0915374
0.0943375
0.0969611
0.0994112
0.101691
0.103805
0.105757
0.107549
0.109183
0.110661
0.11198
0.113138
0.114126
0.114933
0.115542
0.115922
0.116043
0.115864
0.115312
0.114303
0.107064
0.0977489
0.0884382
0.0792672
0.0703429
0.0617496
0.0535554
0.0458161
0.0385789
0.0318854
0.0257743
0.0202804
0.0154475
0.0113121
0.00790149
0.00522529
0.00325509
0.00190906
0.00105868
0.000559304
0.000283737
0.000138897
6.6434e-05
3.11528e-05
1.43523e-05
6.5068e-06
2.90694e-06
1.28138e-06
5.57988e-07
2.40315e-07
1.02474e-07
4.33033e-08
1.81437e-08
7.53395e-09
3.09128e-09
1.24187e-09
4.7544e-10
1.58689e-10
2.80154e-11
3.8399e-07
1.67817e-06
3.85498e-06
7.50376e-06
1.35893e-05
2.36723e-05
4.02427e-05
6.72093e-05
0.000110594
0.000179475
0.000287189
0.000452743
0.000702245
0.00106998
0.00159856
0.0023374
0.00333906
0.00465364
0.0063222
0.00837115
0.0108091
0.0136272
0.0168011
0.0202953
0.0240666
0.0280677
0.0322497
0.0365638
0.0409634
0.0454044
0.0498467
0.054254
0.0585946
0.0628414
0.0669717
0.0709669
0.0748118
0.0784948
0.0820076
0.085345
0.0885041
0.0914841
0.094286
0.0969118
0.0993646
0.101648
0.103766
0.105721
0.107518
0.109158
0.110641
0.111967
0.113131
0.114126
0.11494
0.115556
0.115942
0.116069
0.115893
0.115341
0.114327
0.107566
0.0982604
0.0889478
0.0797635
0.07082
0.0622036
0.0539831
0.046215
0.038947
0.0322212
0.0260762
0.0205472
0.0156775
0.0115041
0.00805496
0.00534119
0.00333676
0.00196241
0.0010911
0.00057787
0.000293112
0.000143548
6.8708e-05
3.22376e-05
1.48577e-05
6.73729e-06
3.01016e-06
1.32688e-06
5.77759e-07
2.48796e-07
1.0607e-07
4.48144e-08
1.87735e-08
7.79429e-09
3.19773e-09
1.28454e-09
4.91765e-10
1.64146e-10
2.89712e-11
3.83445e-07
1.67579e-06
3.84951e-06
7.49312e-06
1.357e-05
2.36384e-05
4.01847e-05
6.71114e-05
0.000110431
0.000179207
0.000286753
0.000452047
0.000701152
0.0010683
0.00159603
0.0023337
0.0033338
0.00464639
0.00631251
0.00835858
0.0107933
0.0136078
0.0167778
0.020268
0.0240351
0.028032
0.0322097
0.0365196
0.0409151
0.0453523
0.0497909
0.0541948
0.0585324
0.0627766
0.0669046
0.070898
0.0747415
0.0784236
0.0819361
0.0852736
0.0884334
0.0914146
0.0942182
0.0968462
0.0993018
0.101589
0.10371
0.10567
0.107472
0.109117
0.110607
0.11194
0.113111
0.114114
0.114936
0.115559
0.115954
0.116087
0.115917
0.115368
0.114348
0.108207
0.0989059
0.0895846
0.0803889
0.0714224
0.0627782
0.0545259
0.0467224
0.0394159
0.0326493
0.0264616
0.0208882
0.015972
0.0117505
0.00825259
0.00549106
0.00344293
0.00203224
0.00113397
0.000600499
0.00030504
0.000149662
7.16993e-05
3.36594e-05
1.55184e-05
7.03856e-06
3.14518e-06
1.38645e-06
6.03677e-07
2.59933e-07
1.10804e-07
4.68056e-08
1.96033e-08
8.13706e-09
3.33781e-09
1.34067e-09
5.13232e-10
1.71321e-10
3.02277e-11
3.82815e-07
1.67304e-06
3.8432e-06
7.48084e-06
1.35477e-05
2.35995e-05
4.01181e-05
6.69991e-05
0.000110244
0.0001789
0.000286256
0.000451252
0.000699905
0.00106638
0.00159315
0.00232948
0.0033278
0.00463812
0.00630144
0.00834423
0.0107752
0.0135855
0.0167511
0.0202365
0.0239988
0.0279907
0.0321633
0.0364683
0.0408589
0.0452913
0.0497254
0.0541252
0.0584589
0.0626996
0.0668247
0.0708155
0.0746571
0.0783378
0.0818494
0.0851867
0.0883468
0.0913289
0.094134
0.0967642
0.0992226
0.101513
0.103638
0.105603
0.10741
0.109062
0.110558
0.111897
0.113076
0.114087
0.114918
0.11555
0.115952
0.116093
0.115928
0.115383
0.114361
0.108999
0.0996943
0.0903585
0.0811402
0.0721549
0.0634825
0.0551951
0.0473499
0.0399936
0.0331766
0.0269366
0.021309
0.0163362
0.0120562
0.00849872
0.00567872
0.00357687
0.00212134
0.00118407
0.00062896
0.000320391
0.000157462
7.54974e-05
3.54629e-05
1.63564e-05
7.42045e-06
3.31625e-06
1.46191e-06
6.36503e-07
2.74037e-07
1.16799e-07
4.9329e-08
2.06562e-08
8.57232e-09
3.51562e-09
1.4119e-09
5.40469e-10
1.80424e-10
3.18216e-11
3.82113e-07
1.66998e-06
3.83619e-06
7.46719e-06
1.3523e-05
2.35564e-05
4.00444e-05
6.68753e-05
0.000110039
0.000178563
0.000285711
0.000450384
0.000698545
0.0010643
0.00159002
0.00232489
0.00332128
0.00462911
0.00628939
0.00832857
0.0107554
0.0135612
0.0167218
0.020202
0.0239587
0.027945
0.0321119
0.0364111
0.040796
0.0452229
0.0496517
0.0540464
0.0583755
0.0626119
0.0667332
0.0707208
0.0745596
0.0782382
0.0817484
0.0850849
0.0882449
0.0912276
0.094034
0.0966661
0.0991271
0.101421
0.10355
0.10552
0.107332
0.10899
0.110493
0.11184
0.113027
0.114047
0.114886
0.115526
0.115937
0.116084
0.115923
0.11538
0.114356
0.109932
0.100621
0.0912659
0.0820158
0.0729878
0.064275
0.0559481
0.0480652
0.0406751
0.0338093
0.0275066
0.0218155
0.0167763
0.0124276
0.00879972
0.00590974
0.00374339
0.00222284
0.00124693
0.000664932
0.000339539
0.000167168
8.02258e-05
3.7708e-05
1.73991e-05
7.89548e-06
3.52894e-06
1.55567e-06
6.77263e-07
2.91539e-07
1.24233e-07
5.24568e-08
2.19608e-08
9.1118e-09
3.7362e-09