/*--------------------------------*- C++ -*----------------------------------*\
  =========                 |
  \\      /  F ield         | OpenFOAM: The Open Source CFD Toolbox
   \\    /   O peration     | Website:  https://openfoam.org
    \\  /    A nd           | Version:  8
     \\/     M anipulation  |
\*---------------------------------------------------------------------------*/
FoamFile
{
    version     2.0;
    format      ascii;
    class       volScalarField;
    location    "380/fluid";
    object      N2;
}
// * * * * * * * * * * * * * * * * * * * * * * * * * * * * * * * * * * * * * //

dimensions      [0 0 0 0 0 0 0];

internalField   nonuniform List<scalar> 
4000
(
2.12021e-06
9.26165e-06
2.12557e-05
4.13267e-05
7.47594e-05
0.000130131
0.000221199
0.000369727
0.000609574
0.000992383
0.00159505
0.00252876
0.00394857
0.00606108
0.00912642
0.0134496
0.019357
0.0271596
0.0371077
0.0493644
0.0639665
0.0808358
0.0998001
0.120621
0.143018
0.166691
0.19134
0.216672
0.242411
0.268306
0.294131
0.319684
0.344795
0.369321
0.393144
0.416173
0.438332
0.459571
0.479855
0.499162
0.517486
0.534831
0.551212
0.56665
0.581172
0.594808
0.607595
0.619567
0.630764
0.641224
0.650986
0.66009
0.668572
0.676472
0.683823
0.690662
0.697022
0.702934
0.708328
0.713313
0.718065
0.722485
0.726596
0.730442
0.734135
0.737663
0.741031
0.74424
0.747292
0.750183
0.75291
0.755469
0.757852
0.760052
0.762056
0.763855
0.765432
0.766768
0.767847
0.768662
0.769229
0.769586
0.769792
0.7699
0.769954
0.769979
0.769991
0.769996
0.769998
0.769999
0.77
0.77
0.77
0.77
0.77
0.77
0.77
0.77
0.77
0.77
2.14083e-06
9.35575e-06
2.14887e-05
4.18242e-05
7.57511e-05
0.000132018
0.000224647
0.000375787
0.000619797
0.00100888
0.00162039
0.00256557
0.00399857
0.00612359
0.00919656
0.0135166
0.0194039
0.0271645
0.037048
0.0492081
0.063692
0.0804372
0.0992849
0.120005
0.142323
0.165944
0.190567
0.215899
0.241662
0.2676
0.293482
0.319104
0.344292
0.3689
0.392807
0.415921
0.438167
0.459485
0.479837
0.499206
0.517588
0.534986
0.551414
0.566893
0.58145
0.595117
0.607928
0.619921
0.631134
0.641607
0.651379
0.660489
0.668975
0.676876
0.684227
0.691064
0.697421
0.703331
0.708702
0.713688
0.718442
0.722859
0.726951
0.730813
0.734509
0.738041
0.741412
0.744624
0.747677
0.750569
0.753296
0.755851
0.758228
0.760413
0.762401
0.764176
0.765718
0.767011
0.768038
0.768798
0.769315
0.769634
0.769816
0.769911
0.769958
0.769981
0.769992
0.769996
0.769998
0.769999
0.77
0.77
0.77
0.77
0.77
0.77
0.77
0.77
0.77
0.77
2.17263e-06
9.49731e-06
2.1825e-05
4.25059e-05
7.70352e-05
0.000134326
0.000228642
0.000382462
0.000630557
0.00102557
0.00164519
0.00260063
0.0040455
0.00618262
0.00926529
0.0135888
0.0194686
0.0272061
0.0370487
0.0491514
0.0635623
0.0802208
0.098974
0.1196
0.141834
0.165387
0.189962
0.215269
0.241031
0.266991
0.292916
0.318601
0.343867
0.368563
0.392564
0.415768
0.438096
0.459497
0.479935
0.499387
0.517846
0.535315
0.551807
0.567344
0.581952
0.595662
0.60851
0.620534
0.631772
0.642264
0.652049
0.661169
0.66966
0.677561
0.684909
0.691739
0.698082
0.70397
0.709304
0.714387
0.719115
0.72351
0.727551
0.731422
0.735117
0.738646
0.742013
0.74522
0.748264
0.751144
0.753854
0.756388
0.758738
0.760883
0.762829
0.764551
0.766034
0.767261
0.768221
0.76892
0.769387
0.769673
0.769835
0.76992
0.769963
0.769983
0.769992
0.769997
0.769999
0.769999
0.77
0.77
0.77
0.77
0.77
0.77
0.77
0.77
0.77
0.77
2.19786e-06
9.60752e-06
2.2078e-05
4.29966e-05
7.79142e-05
0.000135824
0.000231101
0.000386355
0.00063651
0.00103435
0.00165766
0.00261763
0.00406753
0.00620934
0.00929491
0.0136174
0.0194895
0.0272103
0.0370248
0.0490869
0.0634476
0.08005
0.0987458
0.119318
0.141506
0.165024
0.189579
0.214881
0.240654
0.266643
0.292611
0.318349
0.343676
0.368434
0.392504
0.415785
0.4382
0.45969
0.480214
0.499749
0.518286
0.535827
0.552385
0.567981
0.58264
0.596396
0.609282
0.621337
0.632599
0.64311
0.652909
0.662036
0.670531
0.678433
0.685777
0.692601
0.69894
0.70481
0.710123
0.715201
0.719916
0.724293
0.728294
0.732152
0.735838
0.739359
0.742715
0.745907
0.748933
0.75179
0.754471
0.756971
0.759279
0.761375
0.763267
0.76493
0.766347
0.767505
0.768399
0.769038
0.769459
0.769713
0.769856
0.76993
0.769967
0.769985
0.769993
0.769997
0.769999
0.769999
0.77
0.77
0.77
0.77
0.77
0.77
0.77
0.77
0.77
0.77
2.21705e-06
9.69105e-06
2.22686e-05
4.33639e-05
7.85699e-05
0.000136943
0.000232945
0.000389309
0.000641106
0.00104128
0.00166776
0.00263177
0.00408639
0.00623304
0.00932253
0.0136464
0.0195156
0.0272271
0.0370248
0.0490658
0.0633996
0.0799718
0.0986371
0.119182
0.141347
0.164851
0.189402
0.21471
0.240499
0.266511
0.29251
0.318291
0.343671
0.368498
0.392645
0.416007
0.438505
0.460075
0.480678
0.500288
0.518895
0.536502
0.553119
0.568768
0.583474
0.597269
0.610188
0.622269
0.633552
0.644076
0.653884
0.663014
0.671507
0.679401
0.686733
0.693541
0.699857
0.705653
0.710942
0.716003
0.720705
0.725066
0.729061
0.732916
0.736595
0.740104
0.743445
0.746616
0.749617
0.752443
0.755088
0.757546
0.759806
0.761854
0.763687
0.765286
0.766637
0.767728
0.768557
0.769142
0.769521
0.769747
0.769873
0.769938
0.769971
0.769987
0.769994
0.769997
0.769999
0.769999
0.77
0.77
0.77
0.77
0.77
0.77
0.77
0.77
0.77
0.77
2.23065e-06
9.74999e-06
2.24019e-05
4.36177e-05
7.90164e-05
0.000137692
0.00023416
0.000391222
0.000644029
0.00104561
0.00167396
0.0026403
0.0040976
0.00624703
0.00933889
0.013664
0.0195325
0.0272404
0.0370313
0.0490623
0.0633854
0.0799464
0.098601
0.119137
0.141297
0.1648
0.189357
0.214679
0.240493
0.266541
0.292589
0.318426
0.34387
0.368765
0.392981
0.416416
0.438985
0.460626
0.481297
0.500972
0.51964
0.537302
0.55397
0.569662
0.584406
0.598232
0.611176
0.623277
0.634572
0.645105
0.654914
0.664042
0.672528
0.680411
0.68773
0.694521
0.70082
0.706584
0.711846
0.716877
0.721537
0.725866
0.729847
0.733688
0.737352
0.740843
0.744162
0.747308
0.750278
0.753069
0.755675
0.758088
0.760299
0.762297
0.764072
0.76561
0.766898
0.767926
0.768697
0.769232
0.769575
0.769777
0.769888
0.769946
0.769974
0.769988
0.769995
0.769998
0.769999
0.77
0.77
0.77
0.77
0.77
0.77
0.77
0.77
0.77
0.77
0.77
2.24081e-06
9.79398e-06
2.25015e-05
4.38075e-05
7.93512e-05
0.000138257
0.000235084
0.000392693
0.000646316
0.00104908
0.00167906
0.00264759
0.00410767
0.0062604
0.00935591
0.0136847
0.0195564
0.0272667
0.0370586
0.0490894
0.0634112
0.0799716
0.0986277
0.119169
0.14134
0.16486
0.18944
0.214794
0.240646
0.266738
0.292836
0.318728
0.344231
0.369187
0.393467
0.416965
0.439598
0.4613
0.482029
0.501759
0.520477
0.538184
0.554892
0.570618
0.58539
0.599239
0.6122
0.624312
0.635613
0.646146
0.655952
0.665071
0.673544
0.681412
0.688712
0.695481
0.701755
0.70747
0.712684
0.717672
0.722299
0.726589
0.73059
0.734421
0.738071
0.741542
0.744837
0.747956
0.750895
0.753651
0.756218
0.758588
0.760748
0.762696
0.764418
0.765899
0.767129
0.7681
0.768818
0.76931
0.76962
0.769802
0.769901
0.769952
0.769977
0.76999
0.769995
0.769998
0.769999
0.77
0.77
0.77
0.77
0.77
0.77
0.77
0.77
0.77
0.77
0.77
2.2487e-06
9.8282e-06
2.25789e-05
4.3955e-05
7.96115e-05
0.000138696
0.000235804
0.000393846
0.00064812
0.00105184
0.0016832
0.00265365
0.00411633
0.00627246
0.00937227
0.0137063
0.0195842
0.0273017
0.0371018
0.0491418
0.0634743
0.0800474
0.0987188
0.119279
0.141472
0.16502
0.189632
0.215023
0.240917
0.267056
0.293204
0.319149
0.344707
0.36972
0.394057
0.417611
0.440298
0.462053
0.482831
0.502605
0.521364
0.539107
0.555844
0.571596
0.586388
0.600251
0.613221
0.625336
0.636637
0.647164
0.65696
0.666065
0.674521
0.682368
0.689645
0.696388
0.702624
0.708285
0.713478
0.718458
0.723063
0.727281
0.731291
0.735105
0.738735
0.742185
0.745456
0.748547
0.751456
0.754178
0.756708
0.759038
0.761151
0.763053
0.764725
0.766155
0.767331
0.76825
0.768921
0.769375
0.769659
0.769822
0.769911
0.769957
0.76998
0.769991
0.769996
0.769998
0.769999
0.77
0.77
0.77
0.77
0.77
0.77
0.77
0.77
0.77
0.77
0.77
2.2553e-06
9.85682e-06
2.26438e-05
4.40792e-05
7.98319e-05
0.000139071
0.000236425
0.000394852
0.000649723
0.00105435
0.00168706
0.00265947
0.00412495
0.00628495
0.00938998
0.0137308
0.0196174
0.0273456
0.0371586
0.0492139
0.0635643
0.0801579
0.098853
0.11944
0.141664
0.165245
0.189896
0.215328
0.241266
0.267453
0.29365
0.319646
0.345256
0.370321
0.394708
0.418312
0.441046
0.462844
0.483663
0.503474
0.522264
0.540034
0.556794
0.572563
0.587367
0.601237
0.61421
0.626323
0.637617
0.648133
0.657915
0.667002
0.675437
0.683259
0.690509
0.697223
0.70344
0.709055
0.71424
0.719195
0.723774
0.727932
0.731924
0.735722
0.739334
0.742764
0.746011
0.749076
0.751956
0.754647
0.757142
0.759436
0.76151
0.763372
0.764998
0.766378
0.767506
0.768378
0.769009
0.76943
0.76969
0.76984
0.76992
0.769962
0.769982
0.769992
0.769996
0.769998
0.769999
0.77
0.77
0.77
0.77
0.77
0.77
0.77
0.77
0.77
0.77
0.77
2.26111e-06
9.88206e-06
2.27012e-05
4.41895e-05
8.00285e-05
0.000139408
0.000236987
0.000395774
0.000651209
0.00105671
0.00169076
0.00266518
0.00413359
0.00629782
0.00940873
0.0137576
0.0196546
0.027396
0.0372253
0.0492999
0.0636728
0.0802921
0.0990159
0.119635
0.141894
0.165513
0.190204
0.21568
0.241663
0.267896
0.294141
0.320186
0.345843
0.370954
0.395387
0.419034
0.441807
0.463643
0.484494
0.504334
0.523148
0.540938
0.557713
0.573493
0.588302
0.602174
0.615144
0.627251
0.638534
0.649037
0.6588
0.667867
0.676278
0.684075
0.691295
0.697978
0.704153
0.709695
0.714989
0.71989
0.724426
0.728542
0.732506
0.736282
0.739872
0.74328
0.746504
0.749544
0.752397
0.755057
0.75752
0.759778
0.761819
0.763639
0.765227
0.766568
0.767654
0.768486
0.769082
0.769476
0.769717
0.769854
0.769928
0.769965
0.769984
0.769992
0.769997
0.769998
0.769999
0.77
0.77
0.77
0.77
0.77
0.77
0.77
0.77
0.77
0.77
0.77
2.26643e-06
9.90523e-06
2.2754e-05
4.42914e-05
8.02112e-05
0.000139723
0.000237517
0.000396651
0.00065264
0.00105902
0.00169442
0.0026709
0.0041424
0.00631112
0.00942841
0.013786
0.0196946
0.0274508
0.0372984
0.0493948
0.0637928
0.0804406
0.099196
0.119849
0.142145
0.165804
0.190536
0.216055
0.242083
0.26836
0.29465
0.320739
0.346439
0.371592
0.396064
0.419748
0.442555
0.464421
0.485298
0.50516
0.523993
0.541797
0.558582
0.574366
0.589178
0.603047
0.616011
0.628108
0.639378
0.649865
0.65961
0.668656
0.677045
0.684818
0.692014
0.698671
0.704777
0.71029
0.71557
0.72045
0.724966
0.729066
0.733016
0.736775
0.740348
0.743736
0.74694
0.749956
0.752783
0.755414
0.757845
0.760066
0.762066
0.763849
0.765403
0.766717
0.767775
0.768576
0.769143
0.769514
0.769738
0.769866
0.769934
0.769968
0.769985
0.769993
0.769997
0.769999
0.769999
0.77
0.77
0.77
0.77
0.77
0.77
0.77
0.77
0.77
0.77
0.77
2.27139e-06
9.92685e-06
2.28034e-05
4.43869e-05
8.03832e-05
0.000140021
0.000238022
0.000397492
0.000654024
0.00106126
0.00169802
0.00267658
0.00415123
0.00632457
0.00944846
0.0138152
0.0197359
0.0275077
0.0373744
0.0494936
0.063918
0.0805952
0.099383
0.120071
0.142404
0.166102
0.190875
0.216435
0.242504
0.268824
0.295155
0.321283
0.347022
0.372212
0.396718
0.420433
0.443268
0.465158
0.486057
0.505936
0.524782
0.542594
0.559384
0.575171
0.58998
0.603844
0.616799
0.628884
0.640141
0.650611
0.660337
0.669362
0.677729
0.685478
0.69265
0.699284
0.705361
0.710847
0.716099
0.720953
0.725437
0.729523
0.733459
0.737204
0.740761
0.744132
0.747316
0.750312
0.753116
0.755723
0.758126
0.760319
0.762302
0.764058
0.765577
0.766849
0.767873
0.76865
0.769193
0.769545
0.769756
0.769875
0.769938
0.76997
0.769986
0.769994
0.769997
0.769999
0.769999
0.77
0.77
0.77
0.77
0.77
0.77
0.77
0.77
0.77
0.77
0.77
2.27602e-06
9.94703e-06
2.28496e-05
4.44765e-05
8.0545e-05
0.000140303
0.000238501
0.000398294
0.000655349
0.00106343
0.0017015
0.00268212
0.00415987
0.0063378
0.00946826
0.0138441
0.019777
0.0275643
0.0374502
0.0495921
0.0640425
0.0807488
0.0995682
0.12029
0.142659
0.166394
0.191205
0.216803
0.242911
0.269269
0.295637
0.321801
0.347574
0.372795
0.39733
0.421071
0.443929
0.465839
0.486754
0.506645
0.525501
0.543319
0.560111
0.575897
0.590702
0.604559
0.617504
0.629577
0.640819
0.651272
0.660981
0.669987
0.678332
0.68606
0.693209
0.699818
0.705869
0.711327
0.716553
0.721379
0.725839
0.729921
0.733846
0.737577
0.741119
0.744474
0.747639
0.750615
0.753397
0.755982
0.758367
0.760545
0.762505
0.764236
0.76573
0.766977
0.767969
0.768714
0.769236
0.769572
0.769772
0.769883
0.769943
0.769972
0.769987
0.769994
0.769997
0.769999
0.769999
0.77
0.77
0.77
0.77
0.77
0.77
0.77
0.77
0.77
0.77
0.77
2.28028e-06
9.9656e-06
2.28922e-05
4.45592e-05
8.06946e-05
0.000140564
0.000238947
0.000399043
0.000656591
0.00106546
0.00170479
0.00268736
0.00416807
0.00635039
0.00948716
0.0138717
0.0198163
0.0276185
0.0375227
0.0496863
0.0641614
0.0808951
0.0997443
0.120498
0.1429
0.166669
0.191514
0.217148
0.24329
0.269682
0.296082
0.322278
0.34808
0.373327
0.397887
0.42165
0.444527
0.466452
0.487379
0.50728
0.526142
0.543963
0.560755
0.576538
0.591338
0.605187
0.618122
0.630182
0.64141
0.651848
0.661539
0.670527
0.678854
0.686561
0.693689
0.700275
0.706297
0.711731
0.716936
0.721741
0.726179
0.73026
0.734175
0.737895
0.741423
0.744761
0.747912
0.750873
0.753642
0.756215
0.758583
0.76074
0.762677
0.764386
0.765857
0.76708
0.768049
0.768771
0.769271
0.769593
0.769784
0.76989
0.769946
0.769974
0.769988
0.769994
0.769997
0.769999
0.769999
0.77
0.77
0.77
0.77
0.77
0.77
0.77
0.77
0.77
0.77
0.77
2.2841e-06
9.98226e-06
2.29304e-05
4.46335e-05
8.08294e-05
0.000140799
0.00023935
0.000399721
0.00065772
0.00106731
0.0017078
0.00269215
0.00417559
0.00636195
0.00950451
0.0138971
0.0198523
0.0276683
0.0375892
0.0497726
0.0642703
0.081029
0.0999051
0.120687
0.143119
0.166918
0.191794
0.217458
0.243631
0.270052
0.29648
0.322702
0.348529
0.373799
0.398379
0.422159
0.445051
0.466989
0.487925
0.507833
0.526698
0.544521
0.561312
0.577091
0.591884
0.605725
0.618651
0.6307
0.641915
0.652338
0.662014
0.670985
0.679295
0.686984
0.694091
0.700659
0.70666
0.712079
0.717267
0.722055
0.726469
0.730548
0.734453
0.738164
0.741681
0.745012
0.748152
0.751101
0.753856
0.756412
0.758763
0.760902
0.762821
0.764511
0.765961
0.767164
0.768113
0.768817
0.769302
0.76961
0.769794
0.769895
0.769949
0.769975
0.769988
0.769995
0.769998
0.769999
0.77
0.77
0.77
0.77
0.77
0.77
0.77
0.77
0.77
0.77
0.77
0.77
2.2874e-06
9.99668e-06
2.29635e-05
4.4698e-05
8.09464e-05
0.000141004
0.0002397
0.000400313
0.000658705
0.00106893
0.00171042
0.00269635
0.00418218
0.00637209
0.00951974
0.0139194
0.019884
0.027712
0.0376476
0.0498483
0.0643656
0.081146
0.100045
0.120852
0.143309
0.167135
0.192037
0.217727
0.243925
0.27037
0.296822
0.323066
0.348913
0.374201
0.398797
0.422592
0.445496
0.467442
0.488386
0.508298
0.527166
0.544989
0.561778
0.577553
0.592341
0.606174
0.61909
0.631129
0.642333
0.652744
0.662407
0.671364
0.679658
0.68733
0.694425
0.700981
0.706964
0.712368
0.717541
0.722314
0.726699
0.730782
0.734681
0.738383
0.741895
0.745216
0.748347
0.751285
0.754028
0.756571
0.758908
0.761033
0.762937
0.764611
0.766046
0.767231
0.768164
0.768853
0.769325
0.769625
0.769801
0.769899
0.769951
0.769976
0.769989
0.769995
0.769998
0.769999
0.77
0.77
0.77
0.77
0.77
0.77
0.77
0.77
0.77
0.77
0.77
0.77
2.29012e-06
1.00085e-05
2.29907e-05
4.4751e-05
8.10427e-05
0.000141173
0.000239989
0.000400801
0.000659519
0.00107027
0.0017126
0.00269983
0.00418765
0.0063805
0.00953238
0.0139379
0.0199103
0.0277482
0.037696
0.049911
0.0644446
0.0812429
0.100162
0.120988
0.143466
0.167313
0.192237
0.217948
0.244166
0.270631
0.297102
0.323363
0.349226
0.374529
0.399138
0.422943
0.445856
0.467809
0.488758
0.508673
0.527542
0.545365
0.562152
0.577923
0.592706
0.606533
0.619442
0.631472
0.642666
0.653067
0.662718
0.671663
0.679946
0.68761
0.694694
0.701237
0.707205
0.712596
0.717758
0.722519
0.72688
0.730966
0.734859
0.738557
0.742062
0.745376
0.748499
0.751429
0.754162
0.756695
0.759022
0.761135
0.763027
0.764689
0.766111
0.767283
0.768204
0.768881
0.769344
0.769636
0.769808
0.769902
0.769952
0.769977
0.769989
0.769995
0.769998
0.769999
0.77
0.77
0.77
0.77
0.77
0.77
0.77
0.77
0.77
0.77
0.77
0.77
2.29219e-06
1.00176e-05
2.30114e-05
4.47914e-05
8.11161e-05
0.000141301
0.00024021
0.000401174
0.00066014
0.0010713
0.00171426
0.00270249
0.00419183
0.00638693
0.00954206
0.013952
0.0199305
0.027776
0.0377332
0.0499591
0.0645052
0.0813172
0.100251
0.121093
0.143587
0.16745
0.19239
0.218116
0.244351
0.27083
0.297315
0.323589
0.349464
0.374777
0.399395
0.423209
0.446128
0.468087
0.489039
0.508956
0.527826
0.545648
0.562433
0.578201
0.592979
0.606801
0.619704
0.631728
0.642914
0.653307
0.66295
0.671888
0.680163
0.687818
0.694893
0.701427
0.707384
0.712766
0.717918
0.72267
0.727013
0.731103
0.734992
0.738686
0.742186
0.745494
0.748611
0.751535
0.754261
0.756787
0.759106
0.761211
0.763094
0.764747
0.766159
0.767322
0.768232
0.768901
0.769357
0.769644
0.769812
0.769905
0.769953
0.769978
0.76999
0.769995
0.769998
0.769999
0.77
0.77
0.77
0.77
0.77
0.77
0.77
0.77
0.77
0.77
0.77
0.77
2.29357e-06
1.00236e-05
2.30253e-05
4.48184e-05
8.11651e-05
0.000141387
0.000240357
0.000401422
0.000660554
0.00107198
0.00171537
0.00270426
0.00419462
0.00639123
0.00954853
0.0139615
0.019944
0.0277946
0.0377581
0.0499915
0.0645459
0.0813671
0.10031
0.121163
0.143668
0.167542
0.192493
0.21823
0.244475
0.270964
0.297459
0.323741
0.349624
0.374944
0.399569
0.423387
0.44631
0.468272
0.489227
0.509145
0.528015
0.545836
0.56262
0.578385
0.593161
0.60698
0.619878
0.631897
0.643079
0.653467
0.663106
0.672038
0.680307
0.687956
0.695024
0.701552
0.707503
0.712878
0.718024
0.72277
0.727099
0.731193
0.73508
0.73877
0.742267
0.745572
0.748685
0.751604
0.754327
0.756847
0.759161
0.76126
0.763138
0.764784
0.76619
0.767347
0.768251
0.768914
0.769365
0.769649
0.769815
0.769906
0.769954
0.769978
0.76999
0.769995
0.769998
0.769999
0.77
0.77
0.77
0.77
0.77
0.77
0.77
0.77
0.77
0.77
0.77
0.77
2.29426e-06
1.00266e-05
2.30322e-05
4.48317e-05
8.11891e-05
0.000141429
0.000240428
0.000401542
0.000660753
0.00107231
0.0017159
0.00270511
0.00419595
0.00639328
0.00955162
0.0139661
0.0199504
0.0278035
0.0377701
0.050007
0.0645656
0.0813914
0.10034
0.121198
0.143708
0.167587
0.192543
0.218286
0.244536
0.271031
0.297529
0.323817
0.349703
0.375027
0.399654
0.423475
0.446401
0.468364
0.48932
0.509239
0.528109
0.54593
0.562713
0.578478
0.593252
0.607069
0.619966
0.631982
0.643162
0.653548
0.663183
0.672113
0.680379
0.688025
0.69509
0.701615
0.707563
0.712935
0.718079
0.722821
0.727143
0.731238
0.735123
0.738812
0.742307
0.745611
0.748722
0.751639
0.754359
0.756877
0.759188
0.761285
0.763159
0.764803
0.766206
0.767359
0.76826
0.768921
0.769369
0.769652
0.769817
0.769907
0.769955
0.769978
0.76999
0.769995
0.769998
0.769999
0.77
0.77
0.77
0.77
0.77
0.77
0.77
0.77
0.77
0.77
0.77
0.77
2.29429e-06
1.00267e-05
2.30324e-05
4.48321e-05
8.11899e-05
0.00014143
0.000240431
0.000401546
0.00066076
0.00107232
0.00171592
0.00270514
0.004196
0.00639336
0.00955172
0.0139662
0.0199507
0.0278038
0.0377704
0.0500075
0.0645662
0.0813921
0.10034
0.121198
0.143708
0.167588
0.192544
0.218287
0.244537
0.271032
0.297531
0.323818
0.349704
0.375028
0.399655
0.423476
0.446402
0.468365
0.489321
0.50924
0.52811
0.545931
0.562714
0.578478
0.593253
0.60707
0.619966
0.631983
0.643163
0.653548
0.663184
0.672113
0.68038
0.688025
0.69509
0.701615
0.707563
0.712935
0.718079
0.722821
0.727144
0.731239
0.735124
0.738812
0.742308
0.745611
0.748722
0.751639
0.754359
0.756877
0.759188
0.761285
0.763159
0.764803
0.766206
0.767359
0.76826
0.768921
0.769369
0.769652
0.769817
0.769907
0.769955
0.769978
0.76999
0.769995
0.769998
0.769999
0.77
0.77
0.77
0.77
0.77
0.77
0.77
0.77
0.77
0.77
0.77
0.77
2.29365e-06
1.0024e-05
2.3026e-05
4.48198e-05
8.11677e-05
0.000141392
0.000240365
0.000401435
0.000660576
0.00107202
0.00171543
0.00270436
0.00419476
0.00639145
0.00954885
0.013962
0.0199446
0.0277955
0.0377592
0.0499929
0.0645476
0.0813691
0.100313
0.121166
0.143671
0.167545
0.192496
0.218233
0.244478
0.270968
0.297462
0.323745
0.349627
0.374948
0.399572
0.42339
0.446313
0.468275
0.48923
0.509148
0.528018
0.545839
0.562622
0.578388
0.593163
0.606982
0.61988
0.631899
0.64308
0.653469
0.663107
0.672039
0.680309
0.687957
0.695025
0.701553
0.707504
0.712879
0.718026
0.722771
0.7271
0.731193
0.73508
0.73877
0.742267
0.745573
0.748686
0.751605
0.754327
0.756848
0.759161
0.761261
0.763138
0.764785
0.766191
0.767347
0.768251
0.768914
0.769365
0.769649
0.769815
0.769907
0.769954
0.769978
0.76999
0.769995
0.769998
0.769999
0.77
0.77
0.77
0.77
0.77
0.77
0.77
0.77
0.77
0.77
0.77
0.77
2.29231e-06
1.00181e-05
2.30127e-05
4.47939e-05
8.11206e-05
0.000141309
0.000240224
0.000401197
0.000660179
0.00107136
0.00171436
0.00270265
0.00419208
0.00638732
0.00954263
0.0139529
0.0199316
0.0277775
0.0377351
0.0499616
0.0645081
0.0813206
0.100254
0.121097
0.143592
0.167455
0.192395
0.218122
0.244356
0.270836
0.297321
0.323595
0.34947
0.374783
0.399401
0.423214
0.446133
0.468092
0.489044
0.508961
0.52783
0.545652
0.562437
0.578205
0.592983
0.606805
0.619707
0.631731
0.642917
0.653309
0.662952
0.67189
0.680165
0.68782
0.694895
0.701429
0.707385
0.712767
0.71792
0.722671
0.727014
0.731104
0.734993
0.738686
0.742187
0.745495
0.748612
0.751535
0.754262
0.756787
0.759106
0.761211
0.763094
0.764747
0.766159
0.767322
0.768233
0.768901
0.769357
0.769644
0.769812
0.769905
0.769953
0.769978
0.76999
0.769995
0.769998
0.769999
0.77
0.77
0.77
0.77
0.77
0.77
0.77
0.77
0.77
0.77
0.77
0.77
2.2903e-06
1.00093e-05
2.29925e-05
4.47546e-05
8.10493e-05
0.000141184
0.000240009
0.000400835
0.000659575
0.00107037
0.00171275
0.00270006
0.00418801
0.00638104
0.00953318
0.013939
0.0199119
0.0277503
0.0376988
0.0499144
0.0644487
0.0812477
0.100167
0.120995
0.143473
0.16732
0.192244
0.217955
0.244175
0.27064
0.29711
0.323372
0.349234
0.374537
0.399146
0.42295
0.445863
0.467817
0.488765
0.50868
0.527549
0.545371
0.562157
0.577928
0.592711
0.606538
0.619446
0.631476
0.64267
0.653071
0.662722
0.671666
0.679949
0.687613
0.694696
0.701239
0.707206
0.712597
0.717759
0.72252
0.726881
0.730967
0.734861
0.738559
0.742063
0.745377
0.7485
0.75143
0.754163
0.756696
0.759023
0.761136
0.763028
0.76469
0.766111
0.767284
0.768204
0.768881
0.769344
0.769636
0.769808
0.769902
0.769952
0.769977
0.769989
0.769995
0.769998
0.769999
0.77
0.77
0.77
0.77
0.77
0.77
0.77
0.77
0.77
0.77
0.77
0.77
2.28764e-06
9.99774e-06
2.29659e-05
4.47027e-05
8.0955e-05
0.000141019
0.000239726
0.000400357
0.000658778
0.00106905
0.00171062
0.00269665
0.00418265
0.00637279
0.00952078
0.0139208
0.0198861
0.0277147
0.0376511
0.0498526
0.0643709
0.0811521
0.100052
0.12086
0.143318
0.167144
0.192047
0.217737
0.243936
0.270381
0.296833
0.323077
0.348924
0.374212
0.398808
0.422602
0.445505
0.467452
0.488395
0.508307
0.527174
0.544997
0.561785
0.57756
0.592347
0.606181
0.619097
0.631135
0.642338
0.652749
0.662411
0.671368
0.679662
0.687334
0.694429
0.700984
0.706967
0.712371
0.717544
0.722317
0.726701
0.730783
0.734682
0.738385
0.741896
0.745218
0.748348
0.751286
0.754029
0.756572
0.758909
0.761034
0.762937
0.764611
0.766046
0.767231
0.768164
0.768853
0.769326
0.769625
0.769801
0.769899
0.769951
0.769976
0.769989
0.769995
0.769998
0.769999
0.77
0.77
0.77
0.77
0.77
0.77
0.77
0.77
0.77
0.77
0.77
0.77
2.2844e-06
9.98357e-06
2.29334e-05
4.46395e-05
8.08402e-05
0.000140818
0.000239382
0.000399776
0.000657811
0.00106746
0.00170803
0.00269253
0.00417617
0.00636281
0.00950578
0.0138989
0.0198548
0.0276716
0.0375935
0.0497779
0.0642767
0.0810365
0.0999137
0.120697
0.143129
0.16693
0.191806
0.217471
0.243644
0.270065
0.296494
0.322715
0.348542
0.373812
0.398391
0.422171
0.445063
0.467
0.487937
0.507844
0.526708
0.544531
0.561321
0.577099
0.591893
0.605733
0.618658
0.630707
0.641921
0.652344
0.66202
0.670991
0.6793
0.686988
0.694095
0.700662
0.706664
0.712083
0.71727
0.722057
0.726471
0.73055
0.734456
0.738166
0.741683
0.745014
0.748154
0.751103
0.753857
0.756413
0.758764
0.760903
0.762822
0.764511
0.765962
0.767164
0.768113
0.768817
0.769302
0.76961
0.769794
0.769895
0.769949
0.769975
0.769988
0.769995
0.769998
0.769999
0.77
0.77
0.77
0.77
0.77
0.77
0.77
0.77
0.77
0.77
0.77
0.77
2.28064e-06
9.96718e-06
2.28958e-05
4.45663e-05
8.07076e-05
0.000140586
0.000238985
0.000399108
0.0006567
0.00106564
0.00170508
0.00268781
0.00416876
0.00635143
0.00948867
0.0138739
0.0198192
0.0276224
0.0375278
0.0496926
0.064169
0.0809041
0.0997545
0.120509
0.142912
0.166682
0.191529
0.217162
0.243306
0.269697
0.296098
0.322293
0.348095
0.373343
0.397902
0.421665
0.444541
0.466466
0.487393
0.507293
0.526154
0.543975
0.560767
0.576549
0.591348
0.605196
0.61813
0.63019
0.641418
0.651855
0.661546
0.670533
0.678859
0.686566
0.693693
0.700279
0.706301
0.711735
0.716939
0.721744
0.726182
0.730263
0.734177
0.737897
0.741425
0.744763
0.747914
0.750875
0.753644
0.756216
0.758584
0.760741
0.762678
0.764387
0.765858
0.76708
0.768049
0.768771
0.769271
0.769593
0.769784
0.76989
0.769946
0.769974
0.769988
0.769994
0.769997
0.769999
0.769999
0.77
0.77
0.77
0.77
0.77
0.77
0.77
0.77
0.77
0.77
0.77
2.27645e-06
9.94889e-06
2.28539e-05
4.44849e-05
8.05602e-05
0.000140329
0.000238547
0.000398371
0.000655476
0.00106363
0.00170183
0.00268264
0.00416067
0.006339
0.00947002
0.0138466
0.0197804
0.0275689
0.0374561
0.0495995
0.0640514
0.0807592
0.09958
0.120303
0.142673
0.16641
0.191221
0.21682
0.242929
0.269287
0.295655
0.321819
0.347592
0.372813
0.397348
0.421088
0.443946
0.465855
0.48677
0.506661
0.525515
0.543333
0.560124
0.575909
0.590714
0.60457
0.617514
0.629586
0.640828
0.651281
0.660988
0.669994
0.678339
0.686066
0.693215
0.699824
0.705874
0.711332
0.716557
0.721383
0.725842
0.729924
0.733848
0.73758
0.741122
0.744476
0.747642
0.750617
0.753399
0.755983
0.758368
0.760547
0.762506
0.764237
0.765731
0.766977
0.76797
0.768714
0.769236
0.769572
0.769772
0.769883
0.769943
0.769972
0.769987
0.769994
0.769997
0.769999
0.769999
0.77
0.77
0.77
0.77
0.77
0.77
0.77
0.77
0.77
0.77
0.77
2.27189e-06
9.92901e-06
2.28084e-05
4.43966e-05
8.04009e-05
0.000140052
0.000238075
0.000397581
0.00065417
0.0010615
0.0016984
0.00267718
0.00415215
0.00632595
0.00945047
0.013818
0.0197399
0.0275129
0.0373811
0.049502
0.0639281
0.080607
0.0993965
0.120086
0.142421
0.16612
0.190894
0.216454
0.242524
0.268844
0.295176
0.321304
0.347043
0.372232
0.396738
0.420453
0.443287
0.465177
0.486075
0.505953
0.524798
0.54261
0.559399
0.575185
0.589994
0.603857
0.616811
0.628895
0.640151
0.650621
0.660346
0.669371
0.677737
0.685486
0.692657
0.69929
0.705366
0.710852
0.716103
0.720957
0.72544
0.729527
0.733462
0.737207
0.740764
0.744135
0.747319
0.750314
0.753118
0.755724
0.758128
0.760321
0.762303
0.764059
0.765578
0.76685
0.767873
0.76865
0.769193
0.769545
0.769757
0.769875
0.769938
0.76997
0.769986
0.769994
0.769997
0.769999
0.769999
0.77
0.77
0.77
0.77
0.77
0.77
0.77
0.77
0.77
0.77
0.77
2.26699e-06
9.9077e-06
2.27597e-05
4.43024e-05
8.02313e-05
0.000139758
0.000237577
0.000396752
0.000652807
0.00105929
0.00169485
0.00267158
0.00414344
0.00631269
0.00943069
0.0137892
0.0196991
0.0274567
0.0373059
0.0494042
0.0638042
0.0804539
0.0992112
0.119866
0.142164
0.165824
0.190558
0.216077
0.242106
0.268384
0.294674
0.320763
0.346463
0.371616
0.396087
0.41977
0.442577
0.464442
0.485319
0.50518
0.524012
0.541815
0.558599
0.574382
0.589193
0.603061
0.616024
0.62812
0.63939
0.649876
0.65962
0.668665
0.677053
0.684825
0.69202
0.698677
0.704783
0.710296
0.715576
0.720455
0.724971
0.729071
0.73302
0.736779
0.740351
0.743739
0.746942
0.749959
0.752785
0.755416
0.757847
0.760068
0.762068
0.763851
0.765404
0.766717
0.767775
0.768576
0.769143
0.769514
0.769739
0.769866
0.769934
0.769968
0.769985
0.769993
0.769997
0.769999
0.769999
0.77
0.77
0.77
0.77
0.77
0.77
0.77
0.77
0.77
0.77
0.77
2.26174e-06
9.88486e-06
2.27076e-05
4.4202e-05
8.00513e-05
0.000139448
0.000237055
0.000395887
0.000651397
0.00105702
0.00169124
0.00266594
0.00413476
0.00629957
0.00941128
0.0137612
0.0196596
0.0274026
0.0372337
0.0493105
0.0636855
0.080307
0.0990329
0.119654
0.141914
0.165536
0.190228
0.215704
0.241689
0.267922
0.294168
0.320212
0.345869
0.37098
0.395413
0.419059
0.441832
0.463666
0.484517
0.504356
0.523169
0.540958
0.557732
0.57351
0.588319
0.60219
0.615159
0.627265
0.638547
0.649049
0.658812
0.667878
0.676288
0.684084
0.691304
0.697986
0.70416
0.709701
0.714994
0.719895
0.724431
0.728546
0.73251
0.736286
0.739876
0.743283
0.746507
0.749547
0.752399
0.755059
0.757522
0.75978
0.76182
0.76364
0.765228
0.76657
0.767655
0.768487
0.769082
0.769476
0.769717
0.769854
0.769928
0.769965
0.769984
0.769992
0.769997
0.769998
0.769999
0.77
0.77
0.77
0.77
0.77
0.77
0.77
0.77
0.77
0.77
0.77
2.25601e-06
9.85995e-06
2.2651e-05
4.40932e-05
7.98573e-05
0.000139116
0.000236501
0.000394979
0.000649932
0.00105469
0.0016876
0.00266032
0.00412624
0.0062869
0.00939282
0.0137349
0.019623
0.0273529
0.037168
0.0492256
0.0635784
0.0801744
0.0988718
0.119461
0.141687
0.16527
0.189922
0.215355
0.241295
0.267482
0.293679
0.319676
0.345285
0.37035
0.394737
0.41834
0.441073
0.462871
0.483688
0.503498
0.522288
0.540056
0.556815
0.572583
0.587385
0.601255
0.614226
0.626338
0.637631
0.648147
0.657927
0.667014
0.675448
0.683269
0.690518
0.697231
0.703447
0.70906
0.714246
0.719201
0.723779
0.727937
0.731928
0.735727
0.739338
0.742767
0.746015
0.749079
0.751959
0.754649
0.757145
0.759438
0.761512
0.763374
0.764999
0.76638
0.767507
0.768379
0.769009
0.769431
0.769691
0.76984
0.76992
0.769962
0.769982
0.769992
0.769996
0.769998
0.769999
0.77
0.77
0.77
0.77
0.77
0.77
0.77
0.77
0.77
0.77
0.77
2.2495e-06
9.83168e-06
2.25868e-05
4.39706e-05
7.96397e-05
0.000138746
0.000235888
0.000393986
0.000648351
0.00105222
0.0016838
0.00265458
0.00411776
0.00627461
0.0093754
0.0137107
0.0195903
0.0273097
0.0371122
0.0491547
0.0634899
0.0800656
0.0987396
0.119302
0.141498
0.165047
0.189661
0.215053
0.240948
0.267088
0.293236
0.319181
0.344739
0.369752
0.394088
0.417642
0.440328
0.462081
0.482859
0.502632
0.521389
0.539131
0.555867
0.571618
0.586408
0.60027
0.613239
0.625353
0.636652
0.647178
0.656973
0.666077
0.674532
0.682377
0.689653
0.696397
0.702632
0.708293
0.713486
0.718464
0.72307
0.727285
0.731295
0.73511
0.73874
0.742189
0.74546
0.748551
0.751459
0.754181
0.756711
0.75904
0.761153
0.763055
0.764727
0.766156
0.767332
0.768251
0.768922
0.769376