/*--------------------------------*- C++ -*----------------------------------*\
  =========                 |
  \\      /  F ield         | OpenFOAM: The Open Source CFD Toolbox
   \\    /   O peration     | Website:  https://openfoam.org
    \\  /    A nd           | Version:  8
     \\/     M anipulation  |
\*---------------------------------------------------------------------------*/
FoamFile
{
    version     2.0;
    format      ascii;
    class       surfaceScalarField;
    location    "380/fluid";
    object      phi;
}
// * * * * * * * * * * * * * * * * * * * * * * * * * * * * * * * * * * * * * //

dimensions      [1 0 -1 0 0 0 0];

internalField   nonuniform List<scalar> 
7860
(
6.57369e-07
-1.73781e-08
6.54907e-07
-5.21131e-08
6.51404e-07
-8.66646e-08
6.46759e-07
-1.20943e-07
6.40852e-07
-1.5496e-07
6.33536e-07
-1.88682e-07
6.24641e-07
-2.22037e-07
6.13984e-07
-2.54916e-07
6.01378e-07
-2.8717e-07
5.86637e-07
-3.18599e-07
5.69594e-07
-3.48942e-07
5.50118e-07
-3.7786e-07
5.28148e-07
-4.04928e-07
5.03756e-07
-4.29631e-07
4.77201e-07
-4.51369e-07
4.4879e-07
-4.69484e-07
4.18924e-07
-4.83386e-07
3.88091e-07
-4.92697e-07
3.56813e-07
-4.97378e-07
3.25604e-07
-4.97779e-07
2.949e-07
-4.94579e-07
2.6502e-07
-4.88629e-07
2.36173e-07
-4.80781e-07
2.08487e-07
-4.71769e-07
1.82062e-07
-4.62143e-07
1.56887e-07
-4.52257e-07
1.32905e-07
-4.4233e-07
1.10041e-07
-4.32472e-07
8.82212e-08
-4.22733e-07
6.73748e-08
-4.13124e-07
4.74411e-08
-4.03639e-07
2.83673e-08
-3.94272e-07
1.01071e-08
-3.85015e-07
-7.3759e-09
-3.75872e-07
-2.41092e-08
-3.66853e-07
-4.01237e-08
-3.57972e-07
-5.54482e-08
-3.49203e-07
-7.0107e-08
-3.40542e-07
-8.41222e-08
-3.3201e-07
-9.75159e-08
-3.23626e-07
-1.10309e-07
-3.15407e-07
-1.22522e-07
-3.07372e-07
-1.34174e-07
-2.99535e-07
-1.45284e-07
-2.91912e-07
-1.55869e-07
-2.84514e-07
-1.65946e-07
-2.77353e-07
-1.75533e-07
-2.70439e-07
-1.84644e-07
-2.63781e-07
-1.93295e-07
-2.57386e-07
-2.01501e-07
-2.51261e-07
-2.09276e-07
-2.45415e-07
-2.16634e-07
-2.39857e-07
-2.23589e-07
-2.34598e-07
-2.30157e-07
-2.29652e-07
-2.36355e-07
-2.25039e-07
-2.42202e-07
-2.20785e-07
-2.47723e-07
-2.16924e-07
-2.52957e-07
-2.13503e-07
-2.57946e-07
-2.10625e-07
-2.62747e-07
-2.08331e-07
-2.67449e-07
-2.06723e-07
-2.72303e-07
-2.06037e-07
-2.77684e-07
-2.06337e-07
-2.84899e-07
-2.13965e-07
-2.9295e-07
-2.25961e-07
-3.01998e-07
-2.39268e-07
-3.1195e-07
-2.53935e-07
-3.22887e-07
-2.70142e-07
-3.34948e-07
-2.88117e-07
-3.48319e-07
-3.08139e-07
-3.63255e-07
-3.30551e-07
-3.80095e-07
-3.55769e-07
-3.99298e-07
-3.84284e-07
-4.21467e-07
-4.16702e-07
-4.47382e-07
-4.53797e-07
-4.77997e-07
-4.95947e-07
-5.14304e-07
-5.42653e-07
-5.57012e-07
-5.9192e-07
-6.06077e-07
-6.39429e-07
-6.60837e-07
-6.78472e-07
-7.19436e-07
-7.02306e-07
-7.79008e-07
-7.07763e-07
-8.36629e-07
-6.96631e-07
-8.90202e-07
-6.73411e-07
-9.38669e-07
-6.42562e-07
-9.8167e-07
-6.07272e-07
-1.01908e-06
-5.69348e-07
-1.05102e-06
-5.29716e-07
-1.07804e-06
-4.88854e-07
-1.10071e-06
-4.47137e-07
-1.11957e-06
-4.04852e-07
-1.13513e-06
-3.62228e-07
-1.14782e-06
-3.1944e-07
-1.15804e-06
-2.76619e-07
-1.16615e-06
-2.33851e-07
-1.17246e-06
-1.91192e-07
-1.17721e-06
-1.4866e-07
-1.18063e-06
-1.06208e-07
-1.18286e-06
-6.37321e-08
-2.12417e-08
6.57952e-07
-1.67969e-08
6.55975e-07
-5.01357e-08
6.52532e-07
-8.32212e-08
6.47622e-07
-1.16033e-07
6.41185e-07
-1.48522e-07
6.33127e-07
-1.80625e-07
6.23344e-07
-2.12253e-07
6.11725e-07
-2.43296e-07
5.98168e-07
-2.73612e-07
5.82589e-07
-3.03018e-07
5.64935e-07
-3.31284e-07
5.45191e-07
-3.5811e-07
5.23394e-07
-3.83122e-07
4.99655e-07
-4.05877e-07
4.7417e-07
-4.25861e-07
4.47182e-07
-4.42466e-07
4.19005e-07
-4.55169e-07
3.90012e-07
-4.63652e-07
3.60601e-07
-4.67905e-07
3.31167e-07
-4.68275e-07
3.02047e-07
-4.65382e-07
2.73501e-07
-4.6e-07
2.45704e-07
-4.52901e-07
2.18772e-07
-4.44754e-07
1.92783e-07
-4.36073e-07
1.67763e-07
-4.27161e-07
1.43707e-07
-4.182e-07
1.20594e-07
-4.09289e-07
9.83942e-08
-4.00469e-07
7.70785e-08
-3.91747e-07
5.66164e-08
-3.83121e-07
3.69785e-08
-3.74581e-07
1.81363e-08
-3.66123e-07
6.17622e-11
-3.57752e-07
-1.72708e-08
-3.49476e-07
-3.38822e-08
-3.41316e-07
-4.97949e-08
-3.33244e-07
-6.50312e-08
-3.25258e-07
-7.96135e-08
-3.1738e-07
-9.35636e-08
-3.09627e-07
-1.06903e-07
-3.02018e-07
-1.19653e-07
-2.94571e-07
-1.31835e-07
-2.87302e-07
-1.43469e-07
-2.80226e-07
-1.54576e-07
-2.73356e-07
-1.65173e-07
-2.66704e-07
-1.75282e-07
-2.60279e-07
-1.84921e-07
-2.5409e-07
-1.94109e-07
-2.48147e-07
-2.02863e-07
-2.42456e-07
-2.11204e-07
-2.37026e-07
-2.19149e-07
-2.31864e-07
-2.26719e-07
-2.26981e-07
-2.33938e-07
-2.2239e-07
-2.40829e-07
-2.18106e-07
-2.47426e-07
-2.1415e-07
-2.53768e-07
-2.10549e-07
-2.59906e-07
-2.07334e-07
-2.65909e-07
-2.04594e-07
-2.71898e-07
-2.02312e-07
-2.78038e-07
-2.00558e-07
-2.84607e-07
-1.99448e-07
-2.91763e-07
-1.99079e-07
-2.99353e-07
-2.07115e-07
-3.07705e-07
-2.17838e-07
-3.17263e-07
-2.29963e-07
-3.27964e-07
-2.43516e-07
-3.39843e-07
-2.58577e-07
-3.53007e-07
-2.75305e-07
-3.67612e-07
-2.93929e-07
-3.83867e-07
-3.14741e-07
-4.02032e-07
-3.38108e-07
-4.22424e-07
-3.6446e-07
-4.45388e-07
-3.94384e-07
-4.71339e-07
-4.28578e-07
-5.00791e-07
-4.67311e-07
-5.34295e-07
-5.10032e-07
-5.72334e-07
-5.54789e-07
-6.15151e-07
-5.97472e-07
-6.62586e-07
-6.31765e-07
-7.13529e-07
-6.51898e-07
-7.65938e-07
-6.55697e-07
-8.17577e-07
-6.45188e-07
-8.66738e-07
-6.24351e-07
-9.12466e-07
-5.96884e-07
-9.54351e-07
-5.65411e-07
-9.9221e-07
-5.315e-07
-1.02596e-06
-4.95967e-07
-1.0557e-06
-4.59124e-07
-1.08157e-06
-4.21259e-07
-1.10382e-06
-3.82603e-07
-1.12271e-06
-3.43345e-07
-1.13851e-06
-3.0364e-07
-1.15151e-06
-2.63616e-07
-1.16199e-06
-2.2337e-07
-1.1702e-06
-1.82983e-07
-1.17635e-06
-1.4251e-07
-1.1806e-06
-1.01953e-07
-1.18305e-06
-6.12827e-08
-2.04732e-08
6.57676e-07
-1.59391e-08
6.55192e-07
-4.76517e-08
6.51092e-07
-7.91215e-08
6.45345e-07
-1.10286e-07
6.37911e-07
-1.41088e-07
6.28743e-07
-1.71457e-07
6.17794e-07
-2.01304e-07
6.05024e-07
-2.30526e-07
5.90408e-07
-2.58994e-07
5.73942e-07
-2.86551e-07
5.55652e-07
-3.12991e-07
5.35596e-07
-3.38048e-07
5.13864e-07
-3.61382e-07
4.90566e-07
-3.82566e-07
4.65827e-07
-4.01105e-07
4.39861e-07
-4.16475e-07
4.12946e-07
-4.28222e-07
3.85406e-07
-4.3607e-07
3.57576e-07
-4.40024e-07
3.29769e-07
-4.40409e-07
3.02253e-07
-4.37801e-07
2.75231e-07
-4.3291e-07
2.48843e-07
-4.26443e-07
2.23163e-07
-4.19005e-07
1.98205e-07
-4.11047e-07
1.73983e-07
-4.02873e-07
1.50504e-07
-3.9466e-07
1.27774e-07
-3.865e-07
1.05791e-07
-3.7843e-07
8.45499e-08
-3.70454e-07
6.40428e-08
-3.62565e-07
4.42599e-08
-3.54752e-07
2.519e-08
-3.47011e-07
6.82055e-09
-3.39343e-07
-1.08609e-08
-3.31757e-07
-2.78696e-08
-3.24268e-07
-4.42209e-08
-3.16853e-07
-5.99315e-08
-3.09507e-07
-7.50194e-08
-3.02249e-07
-8.95028e-08
-2.951e-07
-1.034e-07
-2.88076e-07
-1.16732e-07
-2.81194e-07
-1.29517e-07
-2.74471e-07
-1.41776e-07
-2.6792e-07
-1.5353e-07
-2.61555e-07
-1.64801e-07
-2.55386e-07
-1.75608e-07
-2.49423e-07
-1.85976e-07
-2.43675e-07
-1.95925e-07
-2.3815e-07
-2.05481e-07
-2.32854e-07
-2.14667e-07
-2.27793e-07
-2.23511e-07
-2.22976e-07
-2.3204e-07
-2.18409e-07
-2.40288e-07
-2.14102e-07
-2.4829e-07
-2.10068e-07
-2.56089e-07
-2.06321e-07
-2.63735e-07
-2.0288e-07
-2.71288e-07
-1.99772e-07
-2.78826e-07
-1.97068e-07
-2.86378e-07
-1.94705e-07
-2.9412e-07
-1.92784e-07
-3.02213e-07
-1.9134e-07
-3.1084e-07
-1.90428e-07
-3.19283e-07
-1.98938e-07
-3.28487e-07
-2.08847e-07
-3.3868e-07
-2.2001e-07
-3.49969e-07
-2.32499e-07
-3.62443e-07
-2.46409e-07
-3.76205e-07
-2.61888e-07
-3.91376e-07
-2.79146e-07
-4.08091e-07
-2.98464e-07
-4.26497e-07
-3.20195e-07
-4.46745e-07
-3.44768e-07
-4.68953e-07
-3.72803e-07
-4.93288e-07
-4.04947e-07
-5.20019e-07
-4.41352e-07
-5.49568e-07
-4.81302e-07
-5.82637e-07
-5.22541e-07
-6.20117e-07
-5.60747e-07
-6.6228e-07
-5.9022e-07
-7.08287e-07
-6.06335e-07
-7.56294e-07
-6.07971e-07
-8.04237e-07
-5.97404e-07
-8.50502e-07
-5.78167e-07
-8.94114e-07
-5.53313e-07
-9.34608e-07
-5.24935e-07
-9.71877e-07
-4.9424e-07
-1.00594e-06
-4.61908e-07
-1.03674e-06
-4.28324e-07
-1.06427e-06
-3.93727e-07
-1.08859e-06
-3.58289e-07
-1.10978e-06
-3.22151e-07
-1.12799e-06
-2.85436e-07
-1.14335e-06
-2.48251e-07
-1.15603e-06
-2.10688e-07
-1.16618e-06
-1.72831e-07
-1.17394e-06
-1.34751e-07
-1.17942e-06
-9.64724e-08
-1.18271e-06
-5.79966e-08
-1.93618e-08
6.57684e-07
-1.50898e-08
6.55117e-07
-4.5084e-08
6.50826e-07
-7.48312e-08
6.4481e-07
-1.0427e-07
6.37059e-07
-1.33336e-07
6.27558e-07
-1.61956e-07
6.16298e-07
-1.90043e-07
6.03271e-07
-2.17498e-07
5.88477e-07
-2.442e-07
5.71932e-07
-2.70003e-07
5.53662e-07
-2.94718e-07
5.3372e-07
-3.18101e-07
5.12184e-07
-3.39839e-07
4.89171e-07
-3.59543e-07
4.64842e-07
-3.76762e-07
4.39411e-07
-3.91024e-07
4.13133e-07
-4.01917e-07
3.86294e-07
-4.09197e-07
3.59186e-07
-4.12876e-07
3.32081e-07
-4.13257e-07
3.05209e-07
-4.10878e-07
2.7875e-07
-4.06398e-07
2.52831e-07
-4.0047e-07
2.27531e-07
-3.93649e-07
2.02892e-07
-3.86355e-07
1.78936e-07
-3.78863e-07
1.55667e-07
-3.71341e-07
1.33085e-07
-3.6387e-07
1.11186e-07
-3.56484e-07
8.99626e-08
-3.49187e-07
6.94088e-08
-3.4197e-07
4.95166e-08
-3.34821e-07
3.02774e-08
-3.27735e-07
1.16812e-08
-3.20712e-07
-6.28279e-09
-3.1376e-07
-2.36261e-08
-3.06892e-07
-4.03604e-08
-3.00084e-07
-5.64986e-08
-2.93333e-07
-7.20545e-08
-2.86657e-07
-8.70437e-08
-2.80073e-07
-1.01483e-07
-2.73597e-07
-1.1539e-07
-2.67247e-07
-1.28784e-07
-2.61036e-07
-1.41686e-07
-2.54977e-07
-1.54115e-07
-2.49083e-07
-1.66095e-07
-2.43363e-07
-1.77648e-07
-2.37827e-07
-1.88797e-07
-2.32482e-07
-1.99569e-07
-2.27334e-07
-2.09989e-07
-2.2239e-07
-2.20086e-07
-2.17653e-07
-2.2989e-07
-2.1313e-07
-2.39434e-07
-2.08825e-07
-2.48752e-07
-2.04745e-07
-2.57885e-07
-2.00899e-07
-2.66874e-07
-1.973e-07
-2.75764e-07
-1.93962e-07
-2.84594e-07
-1.90922e-07
-2.93422e-07
-1.8823e-07
-3.02273e-07
-1.85851e-07
-3.11168e-07
-1.83906e-07
-3.20098e-07
-1.82458e-07
-3.29919e-07
-1.81655e-07
-3.39164e-07
-1.89842e-07
-3.49133e-07
-1.99067e-07
-3.59962e-07
-2.09407e-07
-3.7177e-07
-2.20952e-07
-3.84664e-07
-2.33812e-07
-3.98743e-07
-2.48145e-07
-4.14107e-07
-2.64162e-07
-4.30855e-07
-2.82142e-07
-4.49095e-07
-3.02434e-07
-4.68933e-07
-3.25467e-07
-4.90467e-07
-3.51871e-07
-5.13898e-07
-3.82183e-07
-5.39565e-07
-4.16409e-07
-5.67974e-07
-4.53647e-07
-5.99799e-07
-4.91455e-07
-6.35661e-07
-5.25546e-07
-6.75647e-07
-5.50758e-07
-7.18918e-07
-5.63431e-07
-7.63887e-07
-5.63228e-07
-8.08865e-07
-5.52551e-07
-8.52542e-07
-5.34555e-07
-8.94072e-07
-5.11814e-07
-9.32989e-07
-4.86034e-07
-9.6906e-07
-4.58176e-07
-1.0022e-06
-4.28772e-07
-1.03239e-06
-3.98134e-07
-1.05965e-06
-3.66464e-07
-1.08403e-06
-3.33915e-07
-1.10557e-06
-3.00613e-07
-1.12433e-06
-2.66671e-07
-1.1404e-06
-2.32188e-07
-1.15383e-06
-1.97253e-07
-1.16471e-06
-1.6195e-07
-1.17311e-06
-1.26356e-07
-1.17907e-06
-9.05105e-08
-1.18263e-06
-5.44308e-08
-1.81749e-08
6.57621e-07
-1.41767e-08
6.54906e-07
-4.23691e-08
6.50401e-07
-7.03266e-08
6.44111e-07
-9.79805e-08
6.36041e-07
-1.25266e-07
6.26195e-07
-1.5211e-07
6.14582e-07
-1.7843e-07
6.01217e-07
-2.04132e-07
5.86124e-07
-2.29106e-07
5.69338e-07
-2.53216e-07
5.5091e-07
-2.76289e-07
5.30914e-07
-2.98102e-07
5.09446e-07
-3.18366e-07
4.86635e-07
-3.36724e-07
4.62643e-07
-3.52759e-07
4.37671e-07
-3.66036e-07
4.11954e-07
-3.76178e-07
3.85745e-07
-3.82962e-07
3.59304e-07
-3.86402e-07
3.32866e-07
-3.86782e-07
3.06631e-07
-3.84604e-07
2.80757e-07
-3.80481e-07
2.55351e-07
-3.7502e-07
2.30487e-07
-3.68741e-07
2.06205e-07
-3.62029e-07
1.82527e-07
-3.55143e-07
1.59463e-07
-3.48235e-07
1.37016e-07
-3.41383e-07
1.15184e-07
-3.34614e-07
9.39649e-08
-3.27931e-07
7.33538e-08
-3.21324e-07
5.3346e-08
-3.1478e-07
3.39352e-08
-3.08293e-07
1.51141e-08
-3.01862e-07
-3.1253e-09
-2.95493e-07
-2.07914e-08
-2.89199e-07
-3.78928e-08
-2.82954e-07
-5.44399e-08
-2.76756e-07
-7.04447e-08
-2.70621e-07
-8.5921e-08
-2.64564e-07
-1.00884e-07
-2.58601e-07
-1.15351e-07
-2.52745e-07
-1.29339e-07
-2.47011e-07
-1.42869e-07
-2.41411e-07
-1.5596e-07
-2.35954e-07
-1.68635e-07
-2.3065e-07
-1.80916e-07
-2.25506e-07
-1.92828e-07
-2.2053e-07
-2.04397e-07
-2.15726e-07
-2.1565e-07
-2.11098e-07
-2.26614e-07
-2.06649e-07
-2.37322e-07
-2.02383e-07
-2.47806e-07
-1.98303e-07
-2.581e-07
-1.94414e-07
-2.68242e-07
-1.90722e-07
-2.78273e-07
-1.87237e-07
-2.88233e-07
-1.83973e-07
-2.98158e-07
-1.80974e-07
-3.08101e-07
-1.78269e-07
-3.18096e-07
-1.75849e-07
-3.28137e-07
-1.73872e-07
-3.38158e-07
-1.72473e-07
-3.48289e-07
-1.72943e-07
-3.57923e-07
-1.80379e-07
-3.68375e-07
-1.88816e-07
-3.79682e-07
-1.9833e-07
-3.91916e-07
-2.08979e-07
-4.05158e-07
-2.20864e-07
-4.19487e-07
-2.34144e-07
-4.34984e-07
-2.49033e-07
-4.5173e-07
-2.65808e-07
-4.69812e-07
-2.84812e-07
-4.89305e-07
-3.06486e-07
-5.10301e-07
-3.31446e-07
-5.32997e-07
-3.60115e-07
-5.57715e-07
-3.92361e-07
-5.84939e-07
-4.27109e-07
-6.15298e-07
-4.61752e-07
-6.49345e-07
-4.9207e-07
-6.87113e-07
-5.13432e-07
-7.2781e-07
-5.23036e-07
-7.70045e-07
-5.21176e-07
-8.1239e-07
-5.10307e-07
-8.53748e-07
-4.93249e-07
-8.934e-07
-4.72188e-07
-9.30921e-07
-4.48525e-07
-9.66062e-07
-4.23041e-07
-9.9867e-07
-3.96166e-07
-1.02866e-06
-3.68149e-07
-1.05597e-06
-3.39153e-07
-1.08058e-06
-3.09298e-07
-1.1025e-06
-2.78692e-07
-1.12175e-06
-2.47431e-07
-1.13833e-06
-2.15602e-07
-1.1523e-06
-1.83289e-07
-1.16367e-06
-1.50574e-07
-1.17249e-06
-1.17537e-07
-1.17878e-06
-8.42208e-08
-1.18256e-06
-5.06538e-08
-1.69104e-08
6.57611e-07
-1.32535e-08
6.54849e-07
-3.96075e-08
6.50261e-07
-6.57387e-08
6.43861e-07
-9.15802e-08
6.35663e-07
-1.17068e-07
6.25685e-07
-1.42132e-07
6.13948e-07
-1.66693e-07
6.0048e-07
-1.90664e-07
5.85314e-07
-2.1394e-07
5.68496e-07
-2.36396e-07
5.50082e-07
-2.57874e-07
5.3015e-07
-2.78167e-07
5.08795e-07
-2.97008e-07
4.86145e-07
-3.14069e-07
4.6236e-07
-3.28965e-07
4.37632e-07
-3.41297e-07
4.12189e-07
-3.50719e-07
3.86274e-07
-3.57027e-07
3.60135e-07
-3.60238e-07
3.33999e-07
-3.60616e-07
3.08057e-07
-3.58629e-07
2.82455e-07
-3.54844e-07
2.57298e-07
-3.49826e-07
2.3265e-07
-3.44056e-07
2.08549e-07
-3.37891e-07
1.85013e-07
-3.31571e-07
1.62049e-07
-3.25237e-07
1.39658e-07
-3.18958e-07
1.17836e-07
-3.12761e-07
9.65798e-08
-3.06645e-07
7.58852e-08
-3.006e-07
5.57476e-08
-2.94616e-07
3.61623e-08
-2.88682e-07
1.71236e-08
-2.82799e-07
-1.37525e-09
-2.76972e-07
-1.93416e-08
-2.7121e-07
-3.67832e-08
-2.65489e-07
-5.37088e-08
-2.59805e-07
-7.0129e-08
-2.54174e-07
-8.6056e-08
-2.48609e-07
-1.01504e-07
-2.43124e-07
-1.16488e-07
-2.37731e-07
-1.31025e-07
-2.32443e-07
-1.45133e-07
-2.2727e-07
-1.58831e-07
-2.22221e-07
-1.72142e-07
-2.17305e-07
-1.85085e-07
-2.12528e-07
-1.97684e-07
-2.07895e-07
-2.09963e-07
-2.0341e-07
-2.21948e-07
-1.99077e-07
-2.33664e-07
-1.94897e-07
-2.4514e-07
-1.90871e-07
-2.56404e-07
-1.87004e-07
-2.67487e-07
-1.83296e-07
-2.78421e-07
-1.79754e-07
-2.89242e-07
-1.76384e-07
-2.99983e-07
-1.732e-07
-3.10681e-07
-1.70246e-07
-3.21381e-07
-1.67541e-07
-3.32122e-07
-1.65079e-07
-3.42955e-07
-1.63006e-07
-3.53841e-07
-1.6141e-07
-3.64444e-07
-1.63759e-07
-3.7456e-07
-1.7047e-07
-3.8545e-07
-1.78146e-07
-3.97154e-07
-1.86865e-07
-4.09727e-07
-1.96669e-07
-4.2323e-07
-2.0765e-07
-4.37733e-07
-2.19962e-07
-4.53306e-07
-2.33815e-07
-4.70025e-07
-2.49483e-07
-4.87975e-07
-2.67298e-07
-5.07232e-07
-2.87713e-07
-5.27915e-07
-3.11299e-07
-5.50255e-07
-3.38357e-07
-5.74607e-07
-3.68624e-07
-6.01476e-07
-4.00859e-07
-6.31455e-07
-4.32352e-07
-6.64971e-07
-4.59045e-07
-7.01879e-07
-4.76894e-07
-7.41285e-07
-4.83876e-07
-7.81865e-07
-4.80743e-07
-8.22359e-07
-4.69893e-07
-8.61843e-07
-4.53806e-07
-8.99723e-07
-4.34328e-07
-9.35648e-07
-4.12609e-07
-9.69409e-07
-3.89284e-07
-1.00087e-06
-3.64703e-07
-1.02996e-06
-3.39069e-07
-1.05659e-06
-3.12518e-07
-1.08074e-06
-2.85153e-07
-1.10236e-06
-2.57065e-07
-1.12145e-06
-2.2834e-07
-1.138e-06
-1.99057e-07
-1.152e-06
-1.69292e-07
-1.16345e-06
-1.39124e-07
-1.17235e-06
-1.08629e-07
-1.17872e-06
-7.78547e-08
-1.18254e-06
-4.68298e-08
-1.56334e-08
6.57595e-07
-1.23148e-08
6.54793e-07
-3.68057e-08
6.50144e-07
-6.10894e-08
6.43665e-07
-8.51008e-08
6.35375e-07
-1.08778e-07
6.253e-07
-1.32057e-07
6.13467e-07
-1.54861e-07
5.99912e-07
-1.77108e-07
5.84677e-07
-1.98704e-07
5.67813e-07
-2.19532e-07
5.49386e-07
-2.39446e-07
5.29477e-07
-2.58256e-07
5.08189e-07
-2.75717e-07
4.8565e-07
-2.91526e-07
4.62018e-07
-3.05328e-07
4.37483e-07
-3.16754e-07
4.12262e-07
-3.25487e-07
3.86589e-07
-3.31339e-07
3.60697e-07
-3.34328e-07
3.34802e-07
-3.34701e-07
3.09085e-07
-3.32888e-07
2.83685e-07
-3.29419e-07
2.58701e-07
-3.24816e-07
2.34194e-07
-3.19522e-07
2.102e-07
-3.1387e-07
1.86736e-07
-3.0808e-07
1.63808e-07
-3.02282e-07
1.41415e-07
-2.9654e-07
1.19556e-07
-2.90877e-07
9.82256e-08
-2.85291e-07
7.74203e-08
-2.79773e-07
5.7136e-08
-2.7431e-07
3.7368e-08
-2.68894e-07
1.81111e-08
-2.63523e-07
-6.41021e-10
-2.58201e-07
-1.88953e-08
-2.52937e-07
-3.66582e-08
-2.47706e-07
-5.39373e-08
-2.42505e-07
-7.07421e-08
-2.37347e-07
-8.70835e-08
-2.32244e-07
-1.02974e-07
-2.27209e-07
-1.18427e-07
-2.22252e-07
-1.33459e-07
-2.17384e-07
-1.48086e-07
-2.12615e-07
-1.62326e-07
-2.07952e-07
-1.76198e-07
-2.03403e-07
-1.89722e-07
-1.98974e-07
-2.02918e-07
-1.94668e-07
-2.15808e-07
-1.90488e-07
-2.28415e-07
-1.86438e-07
-2.40761e-07
-1.82518e-07
-2.52871e-07
-1.78729e-07
-2.64769e-07
-1.75073e-07
-2.76482e-07
-1.71553e-07
-2.88034e-07
-1.6817e-07
-2.99456e-07
-1.64933e-07
-3.10777e-07
-1.61851e-07
-3.22029e-07
-1.58968e-07
-3.33258e-07
-1.56289e-07
-3.44506e-07
-1.5381e-07
-3.55839e-07
-1.51656e-07
-3.67248e-07
-1.49923e-07
-3.77988e-07
-1.53794e-07
-3.88732e-07
-1.59917e-07
-4.00125e-07
-1.66962e-07
-4.12236e-07
-1.74982e-07
-4.25136e-07
-1.84019e-07
-4.38895e-07
-1.94167e-07
-4.53582e-07
-2.05578e-07
-4.69272e-07
-2.18461e-07
-4.86047e-07
-2.33079e-07
-5.03999e-07
-2.49755e-07
-5.23216e-07
-2.68948e-07
-5.43846e-07
-2.91166e-07
-5.66138e-07
-3.166e-07
-5.90448e-07
-3.44871e-07
-6.17246e-07
-3.74614e-07
-6.47029e-07
-4.03076e-07
-6.80067e-07
-4.26428e-07
-7.16077e-07
-4.41193e-07
-7.5416e-07
-4.45994e-07
-7.93132e-07
-4.4189e-07
-8.31922e-07
-4.31167e-07
-8.69755e-07
-4.16006e-07
-9.06127e-07
-3.97972e-07
-9.40727e-07
-3.78018e-07
-9.73352e-07
-3.56663e-07
-1.00386e-06
-3.34191e-07
-1.03216e-06
-3.1077e-07
-1.05817e-06
-2.86509e-07
-1.08183e-06
-2.61496e-07
-1.10309e-06
-2.35807e-07
-1.12191e-06
-2.09518e-07
-1.13827e-06
-1.82698e-07
-1.15215e-06
-1.55417e-07
-1.16352e-06
-1.27748e-07
-1.17239e-06
-9.97638e-08
-1.17873e-06
-7.15098e-08
-1.18255e-06
-4.30152e-08
-1.43586e-08
6.57591e-07
-1.1372e-08
6.54774e-07
-3.39888e-08
6.50099e-07
-5.64145e-08
6.43586e-07
-7.85876e-08
6.35258e-07
-1.00451e-07
6.25144e-07
-1.21942e-07
6.13275e-07
-1.42992e-07
5.99692e-07
-1.63525e-07
5.8444e-07
-1.83452e-07
5.67576e-07
-2.02668e-07
5.49166e-07
-2.21036e-07
5.29295e-07
-2.38384e-07
5.08064e-07
-2.54485e-07
4.85601e-07
-2.69061e-07
4.62063e-07
-2.81786e-07
4.37636e-07
-2.92323e-07
4.12533e-07
-3.00378e-07
3.86984e-07
-3.05781e-07
3.61216e-07
-3.08549e-07
3.3544e-07
-3.08911e-07
3.09833e-07
-3.07266e-07
2.84531e-07
-3.04099e-07
2.59627e-07
-2.99894e-07
2.35182e-07
-2.95058e-07
2.11228e-07
-2.89896e-07
1.8778e-07
-2.84613e-07
1.64842e-07
-2.79325e-07
1.42414e-07
-2.74093e-07
1.20491e-07
-2.68935e-07
9.90681e-08
-2.6385e-07
7.81414e-08
-2.58828e-07
5.77061e-08
-2.53858e-07
3.77577e-08
-2.48929e-07
1.82912e-08
-2.44041e-07
-6.99211e-10
-2.39197e-07
-1.922e-08
-2.34402e-07
-3.7277e-08
-2.29634e-07
-5.48768e-08
-2.24889e-07
-7.20275e-08
-2.20178e-07
-8.87389e-08
-2.15513e-07
-1.05022e-07
-2.10905e-07
-1.20889e-07
-2.06363e-07
-1.36354e-07
-2.01896e-07
-1.51432e-07
-1.97512e-07
-1.66139e-07
-1.9322e-07
-1.80492e-07
-1.89024e-07
-1.94508e-07
-1.8493e-07
-2.08205e-07
-1.80942e-07
-2.21604e-07
-1.77061e-07
-2.34722e-07
-1.73291e-07
-2.47579e-07
-1.69631e-07
-2.60196e-07
-1.66083e-07
-2.72593e-07
-1.62649e-07
-2.84788e-07
-1.5933e-07
-2.96804e-07
-1.56129e-07
-3.08662e-07
-1.53051e-07
-3.20386e-07
-1.50106e-07
-3.31998e-07
-1.4734e-07
-3.4354e-07
-1.44735e-07
-3.55054e-07
-1.42287e-07
-3.66621e-07
-1.40085e-07
-3.7831e-07
-1.38243e-07
-3.89397e-07
-1.43019e-07
-4.00713e-07
-1.48773e-07
-4.12548e-07
-1.55314e-07
-4.25018e-07
-1.62719e-07
-4.38211e-07
-1.71055e-07
-4.52205e-07
-1.80426e-07
-4.6708e-07
-1.90985e-07
-4.82917e-07
-2.02935e-07
-4.99806e-07
-2.16533e-07
-5.17851e-07
-2.3209e-07
-5.3716e-07
-2.50057e-07
-5.5791e-07
-2.70873e-07
-5.80366e-07
-2.94631e-07
-6.04885e-07
-3.20856e-07
-6.31899e-07
-3.4809e-07
-6.61808e-07
-3.73608e-07
-6.94732e-07
-3.93863e-07
-7.30251e-07
-4.05931e-07
-7.67445e-07
-4.08965e-07
-8.05222e-07
-4.0421e-07
-8.42652e-07
-3.93788e-07
-8.79082e-07
-3.79602e-07
-9.14089e-07
-3.62977e-07
-9.47411e-07
-3.44702e-07
-9.78874e-07
-3.25203e-07
-1.00835e-06
-3.04715e-07
-1.03575e-06
-2.83376e-07
-1.06098e-06
-2.61277e-07
-1.08398e-06
-2.38493e-07
-1.1047e-06
-2.15091e-07
-1.12308e-06
-1.91136e-07
-1.13909e-06
-1.6669e-07
-1.15269e-06
-1.41815e-07
-1.16386e-06
-1.16579e-07
-1.17257e-06
-9.10494e-08
-1.17881e-06
-6.52682e-08
-1.18257e-06
-3.92618e-08
-1.3105e-08
6.57588e-07
-1.0426e-08
6.54762e-07
-3.11628e-08
6.50072e-07
-5.17251e-08
6.4354e-07
-7.20557e-08
6.35191e-07
-9.21013e-08
6.25054e-07
-1.11805e-07
6.13165e-07
-1.31103e-07
5.99566e-07
-1.49925e-07
5.84304e-07
-1.68191e-07
5.67439e-07
-1.85802e-07
5.49039e-07
-2.02637e-07
5.2919e-07
-2.18534e-07
5.07994e-07
-2.33289e-07
4.8558e-07
-2.46646e-07
4.62102e-07
-2.58308e-07
4.37746e-07
-2.67964e-07
4.1272e-07
-2.75349e-07
3.8725e-07
-2.80306e-07
3.6156e-07
-2.82853e-07
3.35856e-07
-2.832e-07
3.10311e-07
-2.81712e-07
2.85058e-07
-2.78836e-07
2.60189e-07
-2.75014e-07
2.35762e-07
-2.70618e-07
2.11808e-07
-2.65929e-07
1.88341e-07
-2.61132e-07
1.65365e-07
-2.56335e-07
1.42876e-07
-2.5159e-07
1.2087e-07
-2.46915e-07
9.93417e-08
-2.42309e-07
7.82863e-08
-2.3776e-07
5.76989e-08
-2.33257e-07
3.7575e-08
-2.28793e-07
1.79098e-08
-2.24364e-07
-1.30223e-09
-2.19974e-07
-2.00669e-08
-2.15626e-07
-3.83896e-08
-2.11298e-07
-5.6276e-08
-2.06988e-07
-7.37329e-08
-2.02706e-07
-9.07689e-08
-1.98461e-07
-1.07394e-07
-1.94263e-07
-1.23618e-07
-1.90119e-07
-1.39455e-07
-1.86039e-07
-1.54916e-07
-1.8203e-07
-1.70017e-07
-1.78097e-07
-1.84771e-07
-1.74247e-07
-1.99196e-07
-1.70482e-07
-2.13305e-07
-1.66808e-07
-2.27117e-07
-1.63225e-07
-2.40647e-07
-1.59735e-07
-2.53911e-07
-1.56341e-07
-2.66927e-07
-1.53042e-07
-2.7971e-07
-1.49841e-07
-2.92276e-07
-1.46739e-07
-3.04639e-07
-1.43742e-07
-3.16811e-07
-1.40856e-07
-3.28807e-07
-1.38092e-07
-3.40639e-07
-1.35497e-07
-3.52335e-07
-1.33037e-07
-3.63884e-07
-1.30746e-07
-3.75334e-07
-1.2866e-07
-3.87198e-07
-1.26891e-07
-3.98614e-07
-1.31696e-07
-4.10388e-07
-1.37126e-07
-4.22632e-07
-1.43226e-07
-4.35459e-07
-1.50073e-07
-4.48964e-07
-1.57756e-07
-4.63232e-07
-1.66389e-07
-4.78348e-07
-1.76127e-07
-4.94403e-07
-1.87166e-07
-5.11499e-07
-1.99753e-07
-5.29749e-07
-2.14188e-07
-5.49286e-07
-2.30903e-07
-5.70312e-07
-2.50263e-07
-5.93099e-07
-2.72285e-07
-6.17988e-07
-2.96416e-07
-6.45355e-07
-3.21156e-07
-6.75486e-07
-3.4386e-07
-7.0835e-07
-3.61302e-07
-7.43431e-07
-3.71065e-07
-7.79821e-07
-3.72712e-07
-8.16537e-07
-3.67571e-07
-8.5278e-07
-3.57587e-07
-8.87995e-07
-3.44408e-07
-9.21824e-07
-3.29159e-07
-9.54037e-07
-3.12493e-07
-9.84477e-07
-2.94765e-07
-1.01303e-06
-2.76167e-07
-1.03959e-06
-2.56815e-07
-1.06408e-06
-2.36784e-07
-1.08644e-06
-2.16137e-07
-1.10659e-06
-1.94933e-07
-1.1245e-06
-1.73229e-07
-1.14011e-06
-1.51079e-07
-1.15339e-06
-1.28538e-07
-1.1643e-06
-1.05668e-07
-1.17282e-06
-8.25306e-08
-1.17892e-06
-5.91639e-08
-1.1826e-06
-3.55903e-08
-1.18789e-08
6.57587e-07
-9.47921e-09
6.54758e-07
-2.83338e-08
6.50063e-07
-4.70303e-08
6.43524e-07
-6.55166e-08
6.35167e-07
-8.37438e-08
6.25022e-07
-1.0166e-07
6.13126e-07
-1.19207e-07
5.99522e-07
-1.36321e-07
5.8426e-07
-1.52929e-07
5.67399e-07
-1.68941e-07
5.49009e-07
-1.84247e-07
5.29174e-07
-1.987e-07
5.08e-07
-2.12115e-07
4.85613e-07
-2.24259e-07
4.62166e-07
-2.34862e-07
4.37844e-07
-2.43643e-07
4.12855e-07
-2.50359e-07
3.8742e-07
-2.54871e-07
3.61762e-07
-2.57194e-07
3.36085e-07
-2.57521e-07
3.1056e-07
-2.56184e-07
2.85318e-07
-2.5359e-07
2.6045e-07
-2.50139e-07
2.36011e-07
-2.46172e-07
2.12031e-07
-2.41942e-07
1.88524e-07
-2.37617e-07
1.65491e-07
-2.33293e-07
1.42928e-07
-2.29019e-07
1.20832e-07
-2.24809e-07
9.9195e-08
-2.20662e-07
7.80125e-08
-2.16568e-07
5.72794e-08
-2.12515e-07
3.69913e-08
-2.08496e-07
1.71435e-08
-2.04508e-07
-2.26892e-09
-2.00553e-07
-2.12517e-08
-1.96634e-07
-3.98093e-08
-1.92731e-07
-5.79464e-08
-1.8884e-07
-7.5669e-08
-1.84971e-07
-9.29843e-08
-1.81133e-07
-1.09901e-07
-1.77332e-07
-1.26428e-07
-1.73577e-07
-1.42577e-07
-1.69874e-07
-1.58358e-07
-1.66231e-07
-1.73784e-07
-1.62652e-07
-1.88869e-07
-1.59142e-07
-2.03625e-07
-1.55705e-07
-2.18068e-07
-1.52344e-07
-2.3221e-07
-1.4906e-07
-2.46067e-07
-1.45856e-07
-2.59653e-07
-1.42732e-07
-2.72982e-07
-1.3969e-07
-2.8607e-07
-1.36732e-07
-2.98929e-07
-1.33861e-07
-3.11573e-07
-1.31082e-07
-3.24018e-07
-1.28402e-07
-3.36261e-07
-1.2584e-07
-3.48316e-07
-1.23439e-07
-3.60196e-07
-1.21161e-07
-3.71874e-07
-1.19086e-07
-3.83313e-07
-1.17262e-07
-3.95205e-07
-1.15899e-07
-4.06684e-07
-1.20323e-07
-4.18633e-07
-1.25303e-07
-4.31111e-07
-1.30897e-07
-4.44188e-07
-1.37166e-07
-4.57942e-07
-1.44193e-07
-4.72452e-07
-1.52093e-07
-4.87805e-07
-1.61012e-07
-5.04096e-07
-1.71138e-07
-5.21435e-07
-1.82704e-07
-5.39945e-07
-1.95996e-07
-5.59781e-07
-2.11416e-07
-5.81162e-07
-2.2926e-07
-6.04364e-07
-2.49479e-07
-6.29706e-07
-2.71475e-07
-6.57502e-07
-2.9374e-07
-6.87924e-07
-3.13768e-07
-7.20814e-07
-3.2867e-07
-7.55576e-07
-3.36483e-07
-7.91322e-07
-3.37077e-07
-8.27165e-07
-3.31792e-07
-8.62409e-07
-3.22377e-07
-8.96582e-07
-3.10253e-07
-9.29378e-07
-2.96371e-07
-9.60598e-07
-2.81277e-07
-9.90103e-07
-2.65262e-07
-1.01778e-06
-2.48487e-07
-1.04355e-06
-2.31048e-07
-1.06733e-06
-2.13008e-07
-1.08904e-06
-1.94423e-07
-1.10863e-06
-1.75342e-07
-1.12605e-06
-1.55814e-07
-1.14124e-06
-1.35887e-07
-1.15417e-06
-1.15611e-07
-1.1648e-06
-9.50396e-08
-1.1731e-06
-7.42295e-08
-1.17905e-06
-5.32139e-08
-1.18263e-06
-3.20115e-08
-1.0684e-08
6.57587e-07
-8.53204e-09
6.54756e-07
-2.55034e-08
6.50059e-07
-4.23333e-08
6.43517e-07
-5.89742e-08
6.35156e-07
-7.53825e-08
6.25007e-07
-9.15113e-08
6.13107e-07
-1.07308e-07
5.995e-07
-1.22715e-07
5.84237e-07
-1.37666e-07
5.67377e-07
-1.52081e-07
5.4899e-07
-1.6586e-07
5.29161e-07
-1.78872e-07
5.07995e-07
-1.9095e-07
4.85618e-07
-2.01883e-07
4.62184e-07
-2.1143e-07
4.37875e-07
-2.19337e-07
4.12899e-07
-2.25385e-07
3.87475e-07
-2.29451e-07
3.61826e-07
-2.31548e-07
3.36152e-07
-2.3185e-07
3.10625e-07
-2.30658e-07
2.85373e-07
-2.28338e-07
2.60485e-07
-2.25251e-07
2.36017e-07
-2.21702e-07
2.11997e-07
-2.17919e-07
1.88437e-07
-2.14053e-07
1.65339e-07
-2.1019e-07
1.42699e-07
-2.06373e-07
1.2051e-07
-2.02614e-07
9.87662e-08
-1.98912e-07
7.74625e-08
-1.95257e-07
5.65938e-08
-1.91639e-07
3.61555e-08
-1.88051e-07
1.61434e-08
-1.84489e-07
-3.44722e-09
-1.80956e-07
-2.26216e-08
-1.77453e-07
-4.13835e-08
-1.73961e-07
-5.97367e-08
-1.70478e-07
-7.76862e-08
-1.67012e-07
-9.52381e-08
-1.6357e-07
-1.124e-07
-1.60158e-07
-1.29179e-07
-1.56784e-07
-1.45585e-07
-1.53454e-07
-1.61628e-07
-1.50172e-07
-1.77319e-07
-1.46945e-07
-1.92669e-07
-1.43775e-07
-2.07689e-07
-1.40667e-07
-2.22393e-07
-1.37622e-07
-2.36791e-07
-1.34642e-07
-2.50898e-07
-1.31729e-07
-2.64725e-07
-1.28884e-07
-2.78286e-07
-1.26108e-07
-2.91592e-07
-1.23404e-07
-3.04658e-07
-1.20774e-07
-3.17496e-07
-1.18223e-07
-3.30117e-07
-1.1576e-07
-3.42533e-07
-1.13408e-07
-3.54764e-07
-1.11197e-07
-3.66814e-07
-1.09102e-07
-3.78669e-07
-1.07227e-07
-3.9027e-07
-1.0566e-07
-4.02195e-07
-1.0502e-07
-4.13692e-07
-1.08941e-07
-4.25736e-07
-1.13389e-07
-4.38354e-07
-1.18424e-07
-4.51601e-07
-1.24081e-07
-4.65543e-07
-1.30432e-07
-4.80253e-07
-1.37581e-07
-4.95818e-07
-1.45666e-07
-5.12337e-07
-1.54862e-07
-5.29925e-07
-1.65381e-07
-5.48718e-07
-1.77494e-07
-5.68886e-07
-1.91566e-07
-5.90658e-07
-2.07828e-07
-6.14307e-07
-2.26186e-07
-6.40125e-07
-2.46012e-07
-6.68357e-07
-2.65841e-07
-6.99069e-07
-2.83341e-07
-7.3199e-07
-2.95969e-07
-7.66469e-07
-3.02153e-07
-8.01655e-07
-3.01984e-07
-8.36745e-07
-2.96754e-07
-8.71133e-07
-2.88016e-07
-9.04412e-07
-2.76988e-07
-9.36318e-07
-2.64472e-07
-9.66676e-07
-2.50921e-07
-9.95361e-07
-2.36579e-07
-1.02227e-06
-2.21577e-07
-1.04732e-06
-2.05995e-07
-1.07044e-06
-1.89889e-07
-1.09156e-06
-1.73303e-07
-1.11062e-06
-1.56281e-07
-1.12757e-06
-1.38867e-07
-1.14236e-06
-1.211e-07
-1.15494e-06
-1.03025e-07
-1.16529e-06
-8.46906e-08
-1.17338e-06
-6.61452e-08
-1.17917e-06
-4.74187e-08
-1.18266e-06
-2.85256e-08
-9.52031e-09
6.57587e-07
-7.58489e-09
6.54756e-07
-2.26728e-08
6.50058e-07
-3.76354e-08
6.43514e-07
-5.24306e-08
6.35151e-07
-6.70193e-08
6.25e-07
-8.136e-08
6.13098e-07
-9.5406e-08
5.99488e-07
-1.09106e-07
5.84222e-07
-1.224e-07
5.67359e-07
-1.35219e-07
5.4897e-07
-1.47472e-07
5.2914e-07
-1.59043e-07
5.07972e-07
-1.69784e-07
4.85593e-07
-1.79507e-07
4.62158e-07
-1.87997e-07
4.37846e-07
-1.95029e-07
4.12866e-07
-2.0041e-07
3.87436e-07
-2.04027e-07
3.61778e-07
-2.05895e-07
3.36092e-07
-2.06169e-07
3.10547e-07
-2.05118e-07
2.85271e-07
-2.03066e-07
2.60353e-07
-2.00336e-07
2.35847e-07
-1.97197e-07
2.1178e-07
-1.93853e-07
1.88164e-07
-1.90436e-07
1.64999e-07
-1.87023e-07
1.42281e-07
-1.83652e-07
1.20003e-07
-1.80333e-07
9.81598e-08
-1.77065e-07
7.67447e-08
-1.73838e-07
5.57532e-08
-1.70644e-07
3.5181e-08
-1.67474e-07
1.50241e-08
-1.64327e-07
-4.72198e-09
-1.61205e-07
-2.40619e-08
-1.58108e-07
-4.29986e-08
-1.55018e-07
-6.15352e-08
-1.51935e-07
-7.96757e-08
-1.48864e-07
-9.74252e-08
-1.45811e-07
-1.1479e-07
-1.42784e-07
-1.31776e-07
-1.39787e-07
-1.48393e-07
-1.36825e-07
-1.64648e-07
-1.33905e-07
-1.8055e-07
-1.31028e-07
-1.9611e-07
-1.28201e-07
-2.11337e-07
-1.25424e-07
-2.26242e-07
-1.227e-07
-2.40835e-07
-1.20031e-07
-2.55127e-07
-1.17419e-07
-2.6913e-07
-1.14863e-07
-2.82853e-07
-1.12366e-07
-2.96307e-07
-1.0993e-07
-3.09504e-07
-1.07558e-07
-3.22454e-07
-1.05254e-07
-3.35168e-07
-1.03026e-07
-3.47658e-07
-1.00897e-07
-3.59941e-07
-9.88925e-08