/*--------------------------------*- C++ -*----------------------------------*\
  =========                 |
  \\      /  F ield         | OpenFOAM: The Open Source CFD Toolbox
   \\    /   O peration     | Website:  https://openfoam.org
    \\  /    A nd           | Version:  8
     \\/     M anipulation  |
\*---------------------------------------------------------------------------*/
FoamFile
{
    version     2.0;
    format      ascii;
    class       volScalarField;
    location    "380/fluid";
    object      Qdot;
}
// * * * * * * * * * * * * * * * * * * * * * * * * * * * * * * * * * * * * * //

dimensions      [1 -1 -3 0 0 0 0];

internalField   nonuniform List<scalar> 
4000
(
0
-2.78854e-07
0
0
0
0
3.33049e-11
1.16872e-19
3.55288e-07
-2.60846e-10
-5.00424e-19
-4.85878e-10
1.03402e-18
0
-2.95666e-14
-2.04927e-09
-2.54923e-09
-1.58467e-15
1.37373e-08
3.53159e-07
1.73254e-06
2.43483e-05
0.000296281
0.00303498
0.0256093
0.176877
1.00555
4.76414
19.1028
65.8628
198.197
527.426
1254.67
2691.89
5257.14
9439.04
15753.9
24740.9
37012
53430.6
75358.3
104559
143344
194796
263017
353513
473601
632930
844144
1.12378e+06
1.49347e+06
1.98145e+06
2.62468e+06
3.47154e+06
4.58549e+06
6.04995e+06
7.97511e+06
1.05073e+07
1.37837e+07
1.80777e+07
2.3894e+07
3.16342e+07
2.66468e+08
1.86686e+08
2.78898e+07
2.00074e+07
1.41527e+07
9.85354e+06
6.7395e+06
4.51979e+06
2.96804e+06
1.91006e+06
1.21446e+06
785921
379179
51108.6
2034.17
36.4413
0.374104
0.0032544
4.19788e-05
1.26499e-06
9.84268e-08
1.65212e-08
4.58965e-09
1.60716e-09
5.66554e-10
2.4034e-10
9.74322e-11
4.88286e-11
1.68685e-11
7.90763e-12
3.5265e-12
1.40665e-12
5.35471e-13
2.24569e-13
9.26903e-14
3.83543e-14
1.22963e-14
5.07554e-12
-3.72075e-13
-8.60432e-13
-2.90548e-07
1.27438e-20
-7.74221e-12
1.59883e-11
3.32668e-07
1.1516e-19
6.90702e-11
1.40904e-10
0
6.91307e-15
3.72405e-07
-2.03434e-18
3.83188e-07
-2.08014e-17
-2.46826e-09
-4.99831e-09
1.83715e-08
3.42329e-07
1.77532e-06
2.45008e-05
0.00029572
0.00302589
0.0255869
0.177476
1.01451
4.83568
19.5079
67.6539
204.702
547.486
1308.16
2815.05
5502.56
9874.65
16428
25669.1
38318
55300.8
77828.9
107662
147144
199425
268704
360626
482676
644726
859721
1.14462e+06
1.52162e+06
2.01976e+06
2.6771e+06
3.54347e+06
4.68427e+06
6.18547e+06
8.16058e+06
1.07602e+07
1.41101e+07
1.85176e+07
2.44994e+07
3.24519e+07
3.20554e+08
1.34174e+08
2.76589e+07
1.96792e+07
1.38189e+07
9.55578e+06
6.49272e+06
4.32552e+06
2.82156e+06
1.80444e+06
1.1429e+06
741546
278771
30423.4
980.695
15.0044
0.14133
0.00128234
1.9665e-05
7.40716e-07
7.07255e-08
1.40152e-08
3.93876e-09
1.42406e-09
6.38185e-10
2.32888e-10
1.09242e-10
4.34122e-11
1.82986e-11
8.25059e-12
3.42643e-12
1.39015e-12
5.84193e-13
2.37696e-13
9.24452e-14
3.66335e-14
1.23093e-14
-5.06837e-12
0
8.571e-13
0
0
7.64804e-12
2.8558e-11
3.23136e-11
3.34068e-07
1.09697e-10
-1.11567e-10
3.51562e-07
-6.69455e-15
0
0
1.16249e-09
-2.40352e-17
3.77488e-07
-1.77959e-15
1.76759e-08
1.48319e-07
1.8553e-06
2.5178e-05
0.000304938
0.00311374
0.0263337
0.183073
1.05057
5.03203
20.4091
71.1707
216.498
581.759
1394.86
3007.11
5873.03
10508
17505.6
27447.2
40924.5
58820
82420.8
113502
154481
208632
280345
375518
501973
670038
893294
1.18959e+06
1.5824e+06
2.10254e+06
2.79057e+06
3.69978e+06
4.90029e+06
6.48435e+06
8.57345e+06
1.13277e+07
1.48802e+07
1.95619e+07
2.58743e+07
3.41842e+07
4.04028e+08
5.36273e+07
2.6876e+07
1.88924e+07
1.31289e+07
8.9938e+06
6.05689e+06
4.00042e+06
2.58777e+06
1.64307e+06
1.03764e+06
667226
193187
15119
406.23
5.57853
0.0521043
0.000533036
1.01005e-05
4.77142e-07
5.23958e-08
1.12812e-08
3.57332e-09
1.19606e-09
5.26874e-10
2.09531e-10
9.06923e-11
4.29827e-11
1.88455e-11
7.20522e-12
3.17453e-12
1.37174e-12
5.26039e-13
2.10465e-13
8.52065e-14
3.65995e-14
1.08428e-14
1.79832e-15
0
-2.76216e-07
-6.05116e-21
0
1.23141e-11
1.26482e-11
-7.56272e-16
0
1.57111e-15
3.39459e-07
-3.43546e-07
6.53082e-15
0
0
-3.85118e-18
-3.10909e-17
-1.96306e-16
-3.7897e-09
1.23943e-08
-4.13652e-08
1.97088e-06
2.66341e-05
0.000317794
0.00324907
0.0275423
0.192122
1.1069
5.3244
21.6817
75.8935
231.65
624.136
1498.91
3246.6
6374.17
11468.3
19121.2
29871.5
44343.5
63414.7
88396.2
121107
164082
220762
295794
395403
527859
704101
938584
1.25041e+06
1.66486e+06
2.21543e+06
2.94653e+06
3.91714e+06
5.20573e+06
6.9168e+06
9.18983e+06
1.22034e+07
1.61074e+07
2.14137e+07
2.84352e+07
3.76571e+07
4.43631e+08
3.38249e+07
2.41988e+07
1.7083e+07
1.18817e+07
8.12658e+06
5.45464e+06
3.58646e+06
2.30887e+06
1.4614e+06
926282
565498
120184
6898.2
157.543
1.96676
0.0184974
0.000215765
5.06676e-06
2.94857e-07
3.87012e-08
8.64019e-09
3.05975e-09
1.12324e-09
5.1672e-10
1.77702e-10
9.00632e-11
3.65165e-11
2.18497e-11
6.64484e-12
2.71653e-12
1.20836e-12
5.23234e-13
2.09848e-13
7.95615e-14
3.35894e-14
-5.19748e-12
1.80957e-15
0
6.9209e-13
0
0
0
-1.53341e-11
-3.13242e-11
0
0
1.06793e-10
0
0
-3.41396e-07
3.4417e-07
-3.73365e-18
-2.6344e-17
1.81218e-09
4.50278e-09
1.19751e-08
-2.69567e-08
1.72014e-06
2.77193e-05
0.000335
0.00342879
0.0291249
0.203703
1.17701
5.67659
23.1601
81.4985
250.58
681.486
1656.72
3611.17
7095.55
12707.6
21103.2
32802.5
48417.1
68828.5
95364.9
129922
175173
234749
313568
418200
557372
742647
989359
1.31786e+06
1.75526e+06
2.33768e+06
3.11346e+06
4.14743e+06
5.52691e+06
7.37006e+06
9.83772e+06
1.31192e+07
1.7477e+07
2.3552e+07
3.18569e+07
4.7385e+07
4.14205e+08
3.0989e+07
2.21454e+07
1.56038e+07
1.08217e+07
7.37333e+06
4.92631e+06
3.22291e+06
2.06562e+06
1.30577e+06
835018
440670
69385.1
3084.84
61.3153
0.71394
0.00696588
9.44687e-05
2.73995e-06
1.94062e-07
3.01521e-08
7.01688e-09
2.5724e-09
1.05172e-09
4.51561e-10
1.74533e-10
7.85722e-11
3.59607e-11
1.5667e-11
6.57019e-12
2.69222e-12
1.08529e-12
4.69343e-13
-6.29276e-13
7.33662e-14
3.06101e-14
8.70975e-15
-7.4147e-13
4.84891e-18
-2.88976e-21
0
-1.23009e-20
1.75823e-16
-1.23121e-11
0
-1.06928e-19
1.50991e-15
1.28501e-10
-2.59292e-10
0
-9.53144e-10
0
1.06306e-09
1.7414e-09
2.15765e-09
-2.16988e-15
3.5856e-09
3.46052e-07
2.06822e-06
2.96558e-05
0.000355194
0.00364273
0.0310583
0.218326
1.27005
6.18206
25.5581
90.69
280.42
765.227
1860.84
4057
7954.46
14178.7
23433.6
36208.5
53093
74973.9
103205
139781
187523
250266
333195
443194
589404
783915
1.04276e+06
1.38725e+06
1.84572e+06
2.456e+06
3.26865e+06
4.35147e+06
5.7956e+06
7.72407e+06
1.03036e+07
1.37185e+07
1.82367e+07
2.4486e+07
3.29139e+07
1.77048e+08
2.96314e+08
2.97218e+07
2.10535e+07
1.47131e+07
1.0124e+07
6.84513e+06
4.53918e+06
2.94871e+06
1.87915e+06
1.1861e+06
765228
328660
38502.3
1394.62
24.5738
0.271892
0.00279661
4.42362e-05
1.5653e-06
1.33971e-07
2.28073e-08
6.52371e-09
2.32085e-09
8.7168e-10
3.91568e-10
1.66207e-10
7.38803e-11
2.73125e-11
1.38254e-11
5.76296e-12
-3.21716e-12
1.03359e-12
4.16928e-13
5.64283e-12
-5.32583e-12
2.7658e-14
8.01934e-15
1.47331e-15
-6.9509e-22
0
0
0
2.95859e-07
-2.70796e-11
0
-3.11399e-07
1.48063e-15
-1.25767e-10
-2.53309e-10
0
3.23614e-07
0
8.39422e-10
-2.82993e-17
-2.42183e-16
-2.34213e-15
7.71911e-09
1.98682e-07
2.30276e-06
3.28082e-05
0.000392069
0.00403166
0.0344805
0.243138
1.41842
6.91822
28.6035
101.713
315.405
863.099
2103.02
4586.68
8967.53
15895.6
26122
40087.2
58351.9
81813.3
111867
150631
201087
267298
354705
470518
624262
828518
1.09994e+06
1.46058e+06
1.93975e+06
2.57639e+06
3.42235e+06
4.5468e+06
6.04216e+06
8.03225e+06
1.06834e+07
1.4165e+07
1.87466e+07
2.50508e+07
3.35055e+07
2.98984e+08
1.78562e+08
2.90549e+07
2.03725e+07
1.40999e+07
9.61306e+06
6.44297e+06
4.23727e+06
2.73196e+06
1.73095e+06
1.09121e+06
705640
229194
21141.9
648.854
10.3261
0.11076
0.00121995
2.25371e-05
9.58959e-07
9.63068e-08
1.77512e-08
5.03373e-09
1.88089e-09
7.55638e-10
3.59861e-10
1.49517e-10
6.63696e-11
2.52177e-11
6.3845e-12
5.44576e-12
2.15288e-12
9.26831e-13
3.6539e-13
1.58654e-13
6.72894e-14
2.17234e-14
7.66545e-13
1.3042e-15
0
0
-5.89571e-21
-5.76471e-12
1.44714e-11
-2.97823e-07
2.9905e-11
-3.05926e-07
0
0
3.12654e-07
0
-3.15021e-07
0
-1.02425e-17
-3.08428e-17
3.6642e-09
-2.51269e-15
1.90042e-08
4.27321e-08
2.55847e-06
3.57198e-05
0.000430309
0.00444105
0.0381295
0.269913
1.58065
7.73827
32.1106
114.602
356.641
979.017
2390.48
5213.28
10153.2
17877.4
29182
44437.7
64177.1
89306
121297
162414
215826
285842
378189
500431
662531
877634
1.1631e+06
1.5419e+06
2.04446e+06
2.7111e+06
3.5953e+06
4.76807e+06
6.32385e+06
8.3885e+06
1.11222e+07
1.46874e+07
1.9382e+07
2.58219e+07
3.44022e+07
3.9764e+08
7.78616e+07
2.79528e+07
1.94394e+07
1.33556e+07
9.04414e+06
6.02331e+06
3.93785e+06
2.5257e+06
1.59476e+06
1.00665e+06
638823
164696
11696.6
314.043
4.60108
0.0487072
0.000580181
1.24546e-05
6.24516e-07
7.22346e-08
1.52239e-08
4.35915e-09
1.74146e-09
6.49832e-10
3.03904e-10
1.47435e-10
5.91407e-11
2.67655e-11
1.58776e-11
4.8154e-12
2.22951e-12
-4.67539e-12
3.14644e-13
1.33839e-13
6.12152e-14
2.17836e-14
7.63535e-13
1.3131e-15
-3.68562e-13
0
6.22844e-12
7.02139e-12
0
1.45337e-11
-6.99464e-16
0
3.02767e-07
-2.86158e-15
0
0
4.84503e-10
2.30356e-14
-1.76e-09
-3.98025e-17
-3.10296e-07
-2.71269e-15
1.43557e-08
2.24501e-07
2.67204e-06
3.89396e-05
0.000473531
0.0049073
0.0423041
0.300682
1.76802
8.69099
36.2114
129.759
405.355
1116.37
2731.08
5951.19
11528.9
20136.3
32610.9
49229.4
70500
97343.4
131344
174931
231482
305571
403238
532451
703691
930795
1.23205e+06
1.63165e+06
2.16165e+06
2.86454e+06
3.79658e+06
5.03227e+06
6.67015e+06
8.84023e+06
1.17214e+07
1.54528e+07
2.03626e+07
2.7015e+07
3.57306e+07
4.63939e+08
3.59122e+07
2.541e+07
1.77519e+07
1.2227e+07
8.28864e+06
5.52031e+06
3.60699e+06
2.31242e+06
1.46176e+06
928673
560527
115834
6670.23
160.391
2.19993
0.0233173
0.000301973
7.469e-06
4.3543e-07
5.55819e-08
1.27386e-08
4.11034e-09
1.6236e-09
6.35122e-10
2.74778e-10
1.4089e-10
5.20977e-11
2.47192e-11
1.02178e-11
4.37703e-12
1.8155e-12
8.17883e-13
3.24707e-13
1.2816e-13
-7.27745e-13
7.86556e-13
6.65855e-15
1.09216e-15
0
0
2.7585e-07
-1.65304e-16
2.85962e-07
0
0
0
2.96733e-07
0
-5.6043e-15
-1.12057e-14
-1.11926e-14
2.97166e-07
2.98603e-07
-3.84846e-17
-4.50729e-14
-2.92405e-15
1.69118e-08
2.43531e-07
3.29728e-06
4.28434e-05
0.000522574
0.00544053
0.0470993
0.33617
1.98503
9.79917
41.0028
147.548
462.761
1278.65
3133.14
6814.69
13107.3
22671.2
36381
54393.3
77196.2
105743
141754
187822
247546
325753
428800
565058
745558
984880
1.30235e+06
1.72364e+06
2.2829e+06
3.02567e+06
4.01275e+06
5.3255e+06
7.07311e+06
9.40258e+06
1.24976e+07
1.65159e+07
2.20375e+07
2.94235e+07
3.92792e+07
4.53091e+08
3.22609e+07
2.29631e+07
1.61187e+07
1.11421e+07
7.57292e+06
5.05305e+06
3.30654e+06
2.1236e+06
1.34748e+06
864511
483597
81670.7
3983.09
87.3408
1.13723
0.0121926
0.000171772
4.83813e-06
3.20667e-07
4.60582e-08
1.1066e-08
3.66363e-09
1.41135e-09
5.832e-10
2.58203e-10
1.25768e-10
4.80347e-11
2.14656e-11
9.33159e-12
3.94631e-12
1.60627e-12
8.12988e-13
5.63404e-12
1.21202e-13
4.91295e-14
-5.16911e-12
6.67888e-15
1.1476e-15
3.67523e-13
1.97228e-17
2.74003e-07
0
2.38458e-20
-3.35923e-16
2.85107e-11
0
-1.96197e-19
0
5.46714e-15
0
0
2.88102e-07
-9.30612e-18
-1.47762e-09
-3.22187e-16
-3.14896e-15
1.62451e-08
1.22329e-07
3.48803e-06
4.71448e-05
0.000578
0.00604313
0.0525466
0.376695
2.23412
11.078
46.5623
168.302
530.064
1469.51
3605.35
7817.09
14893.1
25461.7
40434.4
59827.8
84102.5
114280
152218
200665
263416
345504
453550
596248
785059
1.03514e+06
1.36661e+06
1.80622e+06
2.38962e+06
3.16445e+06
4.19448e+06
5.56539e+06
7.39258e+06
9.83221e+06
1.30801e+07
1.7348e+07
2.32761e+07
3.13072e+07
5.55543e+07
4.26531e+08
2.9992e+07
2.13534e+07
1.4997e+07
1.03733e+07
7.05483e+06
4.71033e+06
3.08486e+06
1.98452e+06
1.26449e+06
819966
412532
58786.4
2509.73
50.9439
0.637102
0.00695435
0.000106261
3.36616e-06
2.50648e-07
3.92171e-08
9.79214e-09
3.23611e-09
1.29405e-09
5.68985e-10
2.37572e-10
1.05047e-10
4.94407e-11
2.1218e-11
9.23499e-12
3.52246e-12
1.59432e-12
6.62245e-13
2.86774e-13
1.20823e-13
4.74222e-14
1.74202e-14
5.96725e-15
1.15235e-15
-4.808e-18
0
-7.99649e-17
-1.6228e-16
-1.64181e-16
0
0
-1.9196e-19
2.84684e-07
-2.6734e-15
-5.32922e-15
7.61631e-19
0
-2.79912e-07
-2.78344e-07
-4.18166e-17
4.11964e-14
7.97292e-14
2.96037e-07
4.36287e-07
3.8507e-06
5.18281e-05
0.00063908
0.00671332
0.058643
0.422334
2.51648
12.5374
52.9514
192.318
608.44
1692.67
4156.34
8968.43
16875.5
28458.3
44675.8
65387.2
91033.8
122735
162472
213131
278655
364224
476630
624763
820328
1.07877e+06
1.42054e+06
1.87279e+06
2.47158e+06
3.26495e+06
4.31697e+06
5.71324e+06
7.56836e+06
1.00362e+07
1.32963e+07
1.75491e+07
2.34039e+07
3.12242e+07
1.38423e+08
3.56447e+08
2.87541e+07
2.04397e+07
1.43378e+07
9.90838e+06
6.73443e+06
4.49501e+06
2.94441e+06
1.89657e+06
1.21303e+06
793395
358388
43759.7
1676.45
31.8179
0.385662
0.00430436
7.09476e-05
2.48986e-06
2.04062e-07
3.39988e-08
9.26207e-09
3.17915e-09
1.18366e-09
5.64331e-10
2.33787e-10
1.10102e-10
4.70918e-11
2.01133e-11
1.28438e-11
3.87215e-12
1.58094e-12
6.57695e-13
2.61309e-13
1.0846e-13
4.59958e-14
1.59536e-14
5.09041e-12
9.77525e-16
-3.6648e-13
-2.66258e-07
0
-6.76682e-12
-1.62248e-16
0
0
-4.49282e-11
8.97253e-11
-2.77734e-07
2.76123e-07
4.34082e-10
0
-2.91488e-18
-2.67966e-07
2.66377e-07
-3.66732e-16
-3.62688e-15
2.43455e-08
3.17075e-07
4.09845e-06
5.69776e-05
0.000705069
0.00744424
0.065341
0.47286
2.83156
14.1795
60.2025
219.812
698.869
1951.4
4793.15
10270
19014.9
31563.1
48953.6
70873.9
97773.8
130886
172295
225008
293058
381727
497895
650556
851507
1.11628e+06
1.46537e+06
1.92587e+06
2.53367e+06
3.33635e+06
4.39703e+06
5.79963e+06
7.65581e+06
1.01144e+07
1.33463e+07
1.75401e+07
2.32821e+07
3.09104e+07
2.07966e+08
2.90124e+08
2.80205e+07
1.98911e+07
1.39385e+07
9.62513e+06
6.5389e+06
4.36395e+06
2.85962e+06
1.84437e+06
1.18371e+06
779516
304278
33834.8
1185.94
21.2682
0.251436
0.00287154
5.07127e-05
1.94784e-06
1.73098e-07
3.02013e-08
8.02263e-09
3.11511e-09
1.19669e-09
5.48991e-10
2.34753e-10
1.07493e-10
4.04512e-11
1.76742e-11
9.02685e-12
3.45235e-12
1.56632e-12
-4.55529e-12
5.45981e-12
-6.53816e-13
3.99973e-14
1.59414e-14
5.25951e-15
9.80346e-16
-6.88228e-22
0
0
0
-2.30131e-20
1.10209e-11
-2.71193e-11
2.73794e-07
1.83993e-19
-2.71053e-07
0
0
0
-2.81654e-18
-2.59766e-07
-4.97821e-17
-2.55809e-07
-2.61175e-09
2.32432e-08
3.42087e-07
4.39568e-06
6.23034e-05
0.000774751
0.00822206
0.0725312
0.527585
3.17605
15.9928
68.2925
250.807
801.78
2247.47
5517.77
11703.4
21217.1
34596.9
53036.6
76005.2
104029
138447
181426
236064
306450
397923
517411
673946
879345
1.14912e+06
1.50369e+06
1.96996e+06
2.58346e+06
3.39114e+06
4.45511e+06
5.85771e+06
7.70803e+06
1.01505e+07
1.33497e+07
1.74932e+07
2.31552e+07
3.06614e+07
2.62459e+08
2.38033e+08
2.7369e+07
1.94415e+07
1.36312e+07
9.41818e+06
6.40195e+06
4.27545e+06
2.80438e+06
1.81189e+06
1.16699e+06
771587
269747
27081.4
883.122
15.1092
0.175375
0.00204983
3.84921e-05
1.59581e-06
1.51611e-07
2.78975e-08
8.03585e-09
2.77675e-09
1.09219e-09
5.38068e-10
2.07582e-10
9.41747e-11
4.274e-11
1.88967e-11
8.15971e-12
3.41302e-12
-3.59358e-12
6.00197e-13
2.57974e-13
1.10649e-13
4.27811e-14
5.11021e-12
5.62063e-15
-5.00926e-12
-3.65436e-13
0
-5.97996e-12
0
0
0
-2.16873e-11
0
-1.91339e-10
3.56722e-19
0
0
9.59238e-15
-2.71804e-18
-1.42732e-09
-4.77844e-17
1.54272e-09
-4.12947e-15
2.7672e-08
3.6418e-07
4.81449e-06
6.78018e-05
0.000846142
0.00902465
0.0800188
0.585151
3.54234
17.943
77.099
284.962
916.419
2579.07
6320.79
13210.8
23294.8
37254.8
56533.3
80362.8
109376
144987
189448
245896
318462
412509
534987
694937
904160
1.17811e+06
1.53708e+06
2.00775e+06
2.62524e+06
3.43587e+06
4.50077e+06
5.90049e+06
7.74157e+06
1.01666e+07
1.33359e+07
1.74345e+07
2.30202e+07
3.04056e+07
3.07414e+08
1.9515e+08
2.67321e+07
1.9021e+07
1.33573e+07
9.24272e+06
6.29222e+06
4.20901e+06
2.76601e+06
1.79149e+06
1.15812e+06
766741
248458
22452.3
690.8
11.373
0.130258
0.00155628
3.08104e-05
1.36323e-06
1.37668e-07
2.62004e-08
7.65593e-09
2.80469e-09
1.19292e-09
5.06891e-10
2.13956e-10
9.88377e-11
4.27473e-11
1.86082e-11
8.77902e-12
3.5555e-12
6.52464e-12
5.94767e-13
-4.94639e-13
1.00991e-13
3.97078e-14
7.63147e-13
5.25864e-15
8.94668e-16
0
0
-2.64771e-07
-1.19258e-11
2.38828e-11
0
6.22276e-16
0
0
0
0
-2.50817e-07
-3.90186e-10
0
6.15299e-10
-2.38254e-07
3.45767e-14
-4.36217e-15
3.44434e-08
2.73001e-07
5.11457e-06
7.3001e-05
0.000916159
0.00981828
0.0874996
0.643297
3.91674
19.9621
86.3415
321.306
1039.87
2937.54
7170.78
14664
24913.6
39068.7
58886.9
83347
113179
149853
195669
253780
328332
424694
549825
712752
925243
1.20267e+06
1.56518e+06
2.03917e+06
2.65935e+06
3.47122e+06
4.53454e+06
5.92875e+06
7.7603e+06
1.01685e+07
1.33044e+07
1.73518e+07
2.28559e+07
3.0116e+07
3.42645e+08
1.6221e+08
2.6105e+07
1.86162e+07
1.31013e+07
9.08525e+06
6.19865e+06
4.156e+06
2.7381e+06
1.77875e+06
1.15439e+06
763788
232270
19318.5
567.303
9.05361
0.102674
0.00125066
2.58757e-05
1.20507e-06
1.26429e-07
2.54941e-08
7.27316e-09
2.73308e-09
1.1262e-09
4.71698e-10
2.09458e-10
9.13594e-11
4.12752e-11
1.61606e-11
7.60738e-12
3.14619e-12
1.38424e-12
5.8901e-13
2.30957e-13
1.00351e-13
3.95259e-14
-5.03773e-12
5.25326e-15
8.95504e-16
3.64391e-13
0
0
-1.18101e-11
2.62918e-07
0
2.57251e-11
0
-2.54496e-07
9.92886e-11
4.64204e-15
0
0
-7.39045e-10
2.29866e-07
1.16043e-09
-1.40494e-09
2.25754e-09
2.98806e-08
4.04709e-07
5.60065e-06
7.77034e-05
0.000980628
0.0105578
0.0945439
0.698681
4.27785
21.9365
95.5131
357.911
1165.69
3302.5
7998.18
15819
25534.5
39343.7
59348.2
84163.9
114578
152107
199050
258555
334760
433027
560298
725575
940567
1.22054e+06
1.58543e+06
2.06126e+06
2.68212e+06
3.4929e+06
4.55296e+06
5.94087e+06
7.7586e+06
1.01421e+07
1.32378e+07
1.72266e+07
2.26393e+07
2.9762e+07
3.69565e+08
1.37333e+08
2.54845e+07
1.82216e+07
1.28572e+07
8.93942e+06
6.11551e+06
4.11169e+06
2.71703e+06
1.77099e+06
1.15388e+06
763506
220734
17245.4
488.324
7.60433
0.0856085
0.00105939
2.26934e-05
1.10442e-06
1.20244e-07
2.38422e-08
7.23911e-09
2.74747e-09
1.05178e-09
4.81395e-10
2.05462e-10
8.94862e-11
4.05001e-11
1.7995e-11
7.80861e-12
3.28228e-12
1.31782e-12
5.37502e-13
2.51797e-13
5.12308e-12
-7.00696e-13
1.435e-14
5.24504e-15
8.95816e-16
-4.76696e-18
0
0
-2.60699e-07
2.5963e-07
-2.57803e-07
-6.00174e-16
-4.05997e-11
0
-7.86277e-11
2.3951e-07
2.34896e-07
2.29756e-07
0
-9.47719e-18
3.22761e-14
-4.73897e-16
2.13925e-09
2.37669e-07
4.2724e-07
5.8201e-06
8.17758e-05
0.00103532
0.0111885
0.100611
0.74691
4.59621
23.701
103.832
391.594
1282.48
3635.91
8673.75
16259
24382.2
37206.7
57018.4
81837.6
112496
150514
198163
258563
335819
435266
563808
730386
946606
1.22756e+06
1.5929e+06
2.06833e+06
2.68754e+06
3.49498e+06
4.54855e+06
5.92381e+06
7.72085e+06
1.00718e+07
1.31174e+07
1.70342e+07
2.23382e+07
2.93058e+07
3.91864e+08
1.1963e+08
2.48728e+07
1.78353e+07
1.26208e+07
8.80044e+06
6.03817e+06
4.07205e+06
2.69945e+06
1.7656e+06
1.15465e+06
763698
213310
15948.2
439.481
6.71801
0.0752214
0.000941927
2.07019e-05
1.03533e-06
1.15132e-07
2.36818e-08
7.01701e-09
2.5854e-09
1.02306e-09
4.78415e-10
2.00643e-10
8.99436e-11
4.09182e-11
1.76721e-11
7.68265e-12
3.2351e-12
5.80825e-13
5.76601e-13
4.46604e-12
9.32512e-14
7.74782e-13
1.42964e-14
5.23478e-15
8.95735e-16
4.76011e-18
2.59574e-07
2.59216e-07
0
0
2.27698e-11
8.45685e-20
-1.66561e-19
1.63593e-19
0
2.32363e-07
0
0
-2.15831e-07
1.20401e-09
-1.05423e-09
-1.03087e-09
4.50488e-09
2.85364e-08
4.43946e-07
5.96364e-06
8.4584e-05
0.00107493
0.0116509
0.105099
0.782936
4.8366
25.0493
110.268
417.917
1373.31
3877.68
8985.72
15678.1
23800.2
31726.6
50983
75353.3
105726
143598
191195
251579
328803
428143
556433
722526
937904
1.21749e+06
1.58073e+06
2.05299e+06
2.66734e+06
3.4667e+06
4.5075e+06
5.8635e+06
7.6315e+06
9.93858e+06
1.29196e+07
1.67396e+07
2.18909e+07
2.86229e+07
4.06902e+08
1.06185e+08
2.4251e+07
1.74449e+07
1.23819e+07
8.65914e+06
5.95841e+06
4.02997e+06
2.67955e+06
1.75799e+06
1.15314e+06
762809
209177
15230.6
412.028
6.21813
0.0693589
0.000875245
1.95598e-05
9.97279e-07
1.13298e-07
2.3126e-08
7.08433e-09
2.6541e-09
1.07167e-09
4.65642e-10
2.05921e-10
9.07843e-11
3.88776e-11
1.79491e-11
7.55339e-12
3.18652e-12
1.37208e-12
5.2559e-13
2.34783e-13
9.81625e-14
3.60434e-14
1.56562e-14
5.22268e-15
4.25595e-12
2.00053e-13
0
0
0
2.53009e-07
-1.23566e-11
5.7807e-16
2.41414e-07
0
0
-2.24853e-07
2.18635e-07
-2.73424e-10
1.18292e-09
-1.07967e-17
-1.95335e-07
-2.89582e-14
4.24145e-09
3.13229e-08
3.62794e-07
6.20467e-06
8.61934e-05
0.00109511
0.0118878
0.107415
0.801683
4.96279
25.7634
113.698
431.831
1417.96
3951.14
8825.48
16334.1
24783.9
32417.7
40642.8
63972.2
93236.6
129930
176225
235104
310529
407675
533259
695985
907147
1.18141e+06
1.53784e+06
2.00127e+06
2.60404e+06
3.38831e+06
4.40918e+06
5.73863e+06
7.4709e+06
9.72952e+06
1.2645e+07
1.6377e+07
2.14019e+07
2.79593e+07
4.13213e+08
1.0066e+08
2.36485e+07
1.7049e+07
1.21256e+07
8.49615e+06
5.85706e+06
3.96863e+06
2.64357e+06
1.73749e+06
1.14138e+06
756020
206946
14942.2
400.532
6.00468
0.0668422
0.00084656
1.90674e-05
9.80373e-07
1.11049e-07
2.31355e-08
6.83636e-09
2.56732e-09
1.1151e-09
4.9157e-10
2.00587e-10
9.14516e-11
3.94739e-11
1.75982e-11
7.42035e-12
3.30833e-12
1.44023e-12
5.6332e-13
2.22479e-13
9.42857e-14
3.58176e-14
4.25108e-12
4.98468e-12
4.98494e-12
-1.6277e-13
1.89864e-17
1.08557e-20
0
0
0
-2.45953e-07
0
0
3.11526e-19
-4.22785e-15
0
-2.12902e-07
0
1.14818e-09
-6.29524e-17
1.19813e-09
4.24129e-09
2.90347e-08
4.54829e-07
6.02341e-06
8.62048e-05
0.0010953
0.0118885
0.107422
0.801726
4.96302
25.7644
113.702
431.845
1417.99
3951.18
8825.64
16334.3
24784.1
32417.9
40639.8
63969.2
93233.6
129927
176223
235102
310528
407675
533259
695988
907151
1.18142e+06
1.53785e+06
2.00129e+06
2.60407e+06
3.38835e+06
4.40923e+06
5.7387e+06
7.471e+06
9.72966e+06
1.26452e+07
1.63772e+07
2.14022e+07
2.79596e+07
4.13234e+08
1.00638e+08
2.36484e+07
1.70489e+07
1.21255e+07
8.49611e+06
5.85703e+06
3.96861e+06
2.64356e+06
1.73747e+06
1.14138e+06
756011
206933
14940.6
400.477
6.00378
0.0668319
0.000846437
1.90647e-05
9.78203e-07
1.12153e-07
2.34461e-08
6.99534e-09
2.64892e-09
1.11513e-09
4.82822e-10
2.10587e-10
9.60422e-11
4.20864e-11
1.83316e-11
7.42062e-12
3.13677e-12
1.35329e-12
5.63337e-13
2.2248e-13
9.48605e-14
3.58176e-14
1.4175e-14
4.85543e-15
8.94715e-16
3.63345e-13
1.90683e-17
0
-1.15788e-11
0
-2.27695e-11
0
2.4679e-07
-2.42392e-07
3.20558e-19
4.36616e-15
-6.1164e-19
8.30467e-15
-2.32315e-18
6.63831e-10
-6.18674e-17
1.26693e-09
4.50457e-09
2.65492e-08
4.43911e-07
5.96313e-06
8.46976e-05
0.00107531
0.0116533
0.105118
0.783064
4.83729
25.0524
110.28
417.955
1373.41
3877.88
8985.66
15678.6
23800.8
31723.1
50979.5
75350
105724
143596
191194
251581
328807
428151
556445
722544
937930
1.21753e+06
1.58078e+06
2.05306e+06
2.66743e+06
3.46683e+06
4.50766e+06
5.86372e+06
7.63178e+06
9.93894e+06
1.29201e+07
1.67402e+07
2.18916e+07
2.86238e+07
4.06975e+08
1.06108e+08
2.42507e+07
1.74446e+07
1.23817e+07
8.65904e+06
5.95833e+06
4.02991e+06
2.6795e+06
1.75795e+06
1.15312e+06
762778
209137
15225.4
411.86
6.21532
0.0693272
0.000874888
1.95517e-05
9.9733e-07
1.12156e-07
2.3448e-08
6.78711e-09
2.65416e-09
1.07172e-09
4.87741e-10
2.00278e-10
9.60151e-11
4.15426e-11
1.80881e-11
7.55347e-12
3.18661e-12
1.37209e-12
5.70067e-13
2.24726e-13
9.25282e-14
-4.93925e-12
1.42373e-14
4.86788e-15
8.95349e-16
0
1.91502e-17
-2.61062e-07
-1.16945e-11
-2.19006e-20
3.03007e-16
0
0
1.67671e-19
9.66349e-11
-2.39502e-07
-6.33094e-19
2.29678e-07
-7.10064e-10
1.64923e-14
1.10726e-09
-3.22147e-14
4.76819e-09
2.82137e-08
3.26118e-07
5.71979e-06
8.18228e-05
0.00103575
0.0111932
0.10065
0.747168
4.59762
23.7074
103.857
391.679
1282.73
3636.5
8674.67
16258.8
24380.8
37207.6
57020.4
81840.9
112501
150522
198175
258579
335841
435295
563846
730435
946667
1.22763e+06
1.59299e+06
2.06844e+06
2.6877e+06
3.49518e+06
4.54881e+06
5.92413e+06
7.72126e+06
1.00723e+07
1.3118e+07
1.70351e+07
2.23393e+07
2.93073e+07
3.91989e+08
1.19498e+08
2.48723e+07
1.78349e+07
1.26205e+07
8.80024e+06
6.03802e+06
4.07193e+06
2.69937e+06
1.76554e+06
1.15461e+06
763648
213244
15939.2
439.179
6.71287
0.0751629
0.00094126
2.06904e-05
1.0354e-06
1.15139e-07
2.36828e-08
7.01718e-09
2.73831e-09
1.10347e-09
4.69214e-10
2.06425e-10
9.28893e-11
4.24171e-11
1.76733e-11
6.98419e-12
3.23513e-12
1.39043e-12
-3.63667e-12
9.57423e-13
-4.89827e-12
4.19514e-14
1.42959e-14
-7.30892e-13
7.34793e-13
-2.5994e-07
2.61806e-07
2.62913e-07
1.18102e-11
-2.35867e-11
0
4.6655e-11
-1.73823e-19
1.82656e-10
0
0
0
0
-2.52058e-18
2.29719e-07
-1.16036e-09
-4.55202e-16
-2.2574e-09
2.76446e-08
5.21986e-07
5.5035e-06
7.77688e-05
0.00098143
0.010564
0.094594
0.699012
4.27965
21.9446
95.5444
358.015
1165.99
3303.23
7999.49
15820.1
25535.1
39347.1
59353
84170.6
114588
152119
199067
258579
334791
433068
560351
725643
940656
1.22066e+06
1.58557e+06
2.06143e+06
2.68233e+06
3.49316e+06
4.55331e+06
5.94131e+06
7.75917e+06
1.01429e+07
1.32388e+07
1.72279e+07
2.2641e+07
2.97643e+07
3.69741e+08
1.3715e+08
2.54838e+07
1.8221e+07
1.28568e+07
8.93909e+06
6.11526e+06
4.11151e+06
2.71689e+06
1.77089e+06
1.15382e+06
763444
220641
17231.9
487.854
7.59619
0.0855152
0.00105834
2.26755e-05
1.09959e-06
1.20251e-07
2.38434e-08
7.23939e-09
2.65854e-09
1.13429e-09
4.81411e-10
2.05473e-10
9.49381e-11
4.3269e-11
1.72876e-11
7.80917e-12
3.28231e-12
1.31786e-12
-1.96397e-13
2.2898e-13
9.966e-14
-4.2521e-12
1.435e-14
4.69171e-15
8.95816e-16
-1.63708e-13
2.94852e-12
0
0
2.66199e-07
0
0
1.23619e-15
1.03106e-10
3.47678e-19
6.86132e-19
-3.96397e-10
-7.07633e-10
7.6795e-10
1.79569e-14
-1.21345e-09
1.19912e-09
-2.37564e-09
3.15425e-08
3.92525e-07
5.11991e-06
7.31739e-05
0.000916987
0.00982567
0.087559
0.643687
3.91884
19.9716
86.3777
321.424
1040.21
2938.36
7172.37
14665.9
24915.7
39073.9
58893.8
83356.1
113192
149869
195691
253808
328368
424742
549886
712830
925341
1.2028e+06
1.56533e+06
2.03937e+06
2.65959e+06
3.47152e+06
4.53492e+06
5.92924e+06
7.76095e+06
1.01694e+07
1.33056e+07
1.73534e+07
2.28581e+07
3.01189e+07
3.42886e+08
1.61966e+08
2.6104e+07
1.86154e+07
1.31007e+07
9.0848e+06
6.19833e+06
4.15576e+06
2.73794e+06
1.77864e+06
1.15432e+06
763726
232150
19299.1
566.601
9.04108
0.102529
0.00124905
2.58498e-05
1.20658e-06
1.27008e-07
2.52082e-08
7.12774e-09
2.56745e-09
1.07967e-09
4.71721e-10
2.21101e-10
9.20644e-11
4.05643e-11
1.83076e-11
7.9376e-12
3.32783e-12
6.3561e-12
5.89013e-13
2.30958e-13
1.06115e-13
3.9526e-14
1.58339e-14
4.89571e-15
7.36067e-13
-2.60685e-07
0
0
-1.57752e-16
-1.58377e-16
0
2.6941e-07
1.81085e-19
0
2.64272e-07
0
0
-4.03704e-10
1.44522e-09
-8.05236e-18
2.4583e-07
-4.15663e-16
5.55858e-09
2.21362e-08
3.64155e-07
4.82515e-06
6.76455e-05
0.00084719
0.00903297
0.0800856
0.585588
3.54469
17.9536
77.139
285.092
916.787
2579.97
6322.59
13213.4
23298.2
37261.3
56542
80374.2
109391
145007
189474
245930
318505
412565
535059
695029
904276
1.17826e+06
1.53726e+06
2.00797e+06
2.62551e+06
3.4362e+06
4.50118e+06
5.901e+06
7.74221e+06
1.01675e+07
1.3337e+07
1.7436e+07
2.30224e+07
3.04085e+07
3.07726e+08
1.94832e+08
2.67308e+07
1.90199e+07
1.33564e+07
9.24204e+06
6.29173e+06
4.20866e+06
2.76577e+06
1.79134e+06
1.15802e+06
766665
248307
22425
689.75
11.3536
0.130029
0.00155378
3.077e-05
1.36193e-06
1.35785e-07
2.65653e-08
7.65186e-09
2.80487e-09
1.10644e-09
4.82646e-10
2.25852e-10
9.88412e-11
3.91539e-11
1.78769e-11
1.3071e-11
2.62807e-12
1.44162e-12
5.94786e-13
2.32823e-13
1.00994e-13
3.68119e-14
1.58797e-14
7.47121e-13
8.94698e-16
6.88227e-22
1.94775e-17
0
0
-1.60312e-16
3.21831e-16
2.74105e-07
0
-2.72619e-07
0
0
7.64484e-10
0
2.60821e-07
1.94195e-14
-5.53107e-17
-3.90216e-16
7.23782e-14
2.32418e-08
3.4847e-07
4.52179e-06
6.23967e-05
0.000775889
0.00823121
0.0726033
0.528057
3.17859
16.0042
68.3353
250.946
802.171
2248.42
5519.73
11706.6
21221.6
34604.7
53047.1
76019.1
104048
138470
181458
236105
306504
397994
517501
674061
879490
1.1493e+06
1.50391e+06
1.97023e+06
2.58378e+06
3.39152e+06
4.45556e+06
5.85823e+06
7.70865e+06
1.01513e+07
1.33507e+07
1.74946e+07
2.31571e+07
3.06639e+07
2.62836e+08
2.37631e+08
2.73674e+07
1.944e+07
1.363e+07
9.41726e+06
6.40129e+06
4.275e+06
2.80409e+06
1.8117e+06
1.16689e+06
771516
269570
27042.7
881.522
15.0782
0.175003
0.00204582
3.84283e-05
1.596e-06
1.51628e-07
2.75261e-08
7.84711e-09
2.77688e-09
1.04268e-09
4.93114e-10
2.07594e-10
9.41781e-11
4.63991e-11
1.96413e-11
8.16029e-12
4.16663e-12
1.36348e-12
6.00216e-13
2.57983e-13
1.10652e-13
4.27821e-14
1.59157e-14
5.26108e-15
5.0111e-12
-2.6143e-07
0
7.94276e-17
-1.15399e-20
0
0
0
0
0
1.99271e-10
1.77813e-10
2.74209e-07
7.81134e-10
-2.91476e-18
-2.67954e-07
-5.17732e-17
-3.66713e-16
-3.63812e-15
2.43442e-08
3.17055e-07
4.12263e-06
5.71801e-05
0.00070615
0.00745371
0.0654168
0.473356
2.83422
14.1914
60.2473
219.957
699.276
1952.4
4795.23
10273.6
19020.2
31572
48965.9
70890.3
97795.5
130915
172334
225059
293126
381817
498014
650712
851709
1.11654e+06
1.4657e+06
1.9263e+06
2.53422e+06
3.33703e+06
4.39789e+06
5.80069e+06
7.65713e+06
1.01161e+07
1.33482e+07
1.75424e+07
2.32844e+07
3.09126e+07
2.08399e+08
2.89653e+08
2.80183e+07
1.98891e+07
1.39366e+07
9.62361e+06
6.53774e+06
4.36311e+06
2.85906e+06
1.84402e+06
1.18351e+06
779419
303885
33779.9
1183.44
21.217
0.250803
0.00286481
5.06184e-05
1.94658e-06
1.72495e-07
3.05877e-08
8.21705e-09
2.93682e-09
1.24671e-09
5.03067e-10
2.34765e-10
1.02444e-10
4.63959e-11
1.76749e-11
8.26654e-12
-1.74174e-12
1.56639e-12
6.52641e-13
2.59748e-13
1.07984e-13
3.99984e-14
1.59419e-14
5.25975e-15
-5.0137e-12
4.808e-18
2.81948e-21
0
0
-1.6418e-16
2.81807e-07
0
0
0
-2.67334e-15
0
0
-2.81395e-07
2.79017e-07
2.78332e-07
-4.18147e-17
-3.39898e-16
-2.84634e-09
1.62283e-08
2.90209e-07
3.71793e-06
5.22134e-05
0.000640026
0.00672315
0.0587211
0.422844
2.51921
12.5496
52.9972
192.466
608.856
1693.69
4158.51
8972.28
16881.6
28468.2
44689.7
65406.2
91059.3
122769
162518
213194
278740
364339
476784
624970
820605
1.07914e+06
1.42103e+06
1.87343e+06
2.47241e+06
3.26602e+06
4.31831e+06
5.71487e+06
7.5703e+06
1.00383e+07
1.32985e+07
1.7551e+07
2.34046e+07
3.12227e+07
1.39121e+08
3.55777e+08
2.8751e+07
2.04368e+07
1.43352e+07
9.9061e+06
6.73263e+06
4.49368e+06
2.9435e+06
1.89598e+06
1.21267e+06
793195
357998
43677.7
1672.32
31.7282
0.38452
0.00429241
7.07816e-05
2.48739e-06
2.0487e-07
3.32875e-08
9.26266e-09
2.996e-09