/*--------------------------------*- C++ -*----------------------------------*\
  =========                 |
  \\      /  F ield         | OpenFOAM: The Open Source CFD Toolbox
   \\    /   O peration     | Website:  https://openfoam.org
    \\  /    A nd           | Version:  8
     \\/     M anipulation  |
\*---------------------------------------------------------------------------*/
FoamFile
{
    version     2.0;
    format      ascii;
    class       volScalarField;
    location    "380/fluid";
    object      rDeltaT;
}
// * * * * * * * * * * * * * * * * * * * * * * * * * * * * * * * * * * * * * //

dimensions      [0 0 -1 0 0 0 0];

internalField   nonuniform List<scalar> 
4000
(
513.198
538.704
563.099
586.525
608.936
630.245
650.337
669.084
686.367
702.093
716.222
728.794
739.959
749.994
759.32
768.443
777.765
787.509
797.641
807.866
817.642
826.296
833.158
837.657
839.39
838.155
833.821
826.343
815.751
802.132
785.613
766.353
744.528
733.693
753.887
792.77
831.081
868.809
905.953
942.51
978.489
1013.9
1048.74
1083.02
1116.74
1149.88
1182.44
1214.39
1245.7
1276.32
1306.22
1335.34
1363.61
1390.97
1417.34
1442.65
1466.83
1489.79
1511.31
1531.4
1550.29
1568.25
10430
7678.88
1550.41
1515.45
1475.1
1429.81
1380.02
1326.17
1268.7
1208.12
1145.05
1080.17
1014.17
948.25
884.368
824.968
772.928
731.354
702.223
685.132
677.285
674.904
674.639
674.187
672.256
668.239
662.056
653.869
643.918
632.46
619.736
605.962
591.32
575.958
559.997
543.513
526.527
508.977
512.757
537.646
561.297
583.656
604.707
624.384
642.604
659.282
674.359
687.816
699.702
710.158
719.434
727.903
736.038
744.291
753.044
762.506
772.635
783.092
793.319
802.619
810.269
815.638
818.262
817.811
814.101
807.072
796.764
783.282
766.781
747.441
725.464
701.058
707.365
746.925
786.527
825.651
864.278
902.408
940.04
977.178
1013.83
1049.99
1085.66
1120.83
1155.5
1189.63
1223.22
1256.22
1288.6
1320.31
1351.29
1381.5
1410.87
1439.33
1466.83
1493.28
1518.43
1542.43
1565.53
1587.7
12603.3
5562.78
1559.27
1520.12
1476.43
1428.18
1375.52
1318.72
1258.09
1194.02
1127.06
1057.76
986.827
915.872
847.416
784.726
731.454
690.635
663.532
648.745
642.866
642.071
643.301
644.552
644.747
643.327
640.03
634.841
627.859
619.231
609.125
597.707
585.132
571.535
557.033
541.706
525.572
508.652
512.106
535.551
557.592
578.203
597.338
614.943
630.965
645.372
658.163
669.388
679.168
687.71
695.32
702.391
709.365
716.664
724.665
733.582
743.383
753.747
764.111
773.765
781.976
788.08
791.54
791.945
789.06
782.797
773.177
760.296
744.301
725.375
703.716
679.535
673.646
700.895
741.38
781.584
821.483
861.061
900.308
939.222
977.801
1016.04
1053.94
1091.5
1128.71
1165.54
1201.99
1238.03
1273.63
1308.77
1343.39
1377.47
1410.94
1443.75
1475.81
1507.04
1537.06
1565.96
1593.66
1619.54
15970.5
2284.71
1576.9
1532.89
1483.83
1430.12
1372.04
1309.85
1243.88
1174.54
1102.43
1028.15
952.723
878.234
807.648
744.561
692.636
654.36
630.057
617.625
613.48
613.989
616.357
618.767
620.268
620.416
618.982
615.888
611.144
604.813
596.986
587.767
577.255
565.548
552.738
538.891
524.038
508.183
511.461
533.609
554.279
573.435
591.048
607.084
621.515
634.338
645.58
655.316
663.682
670.89
677.244
683.128
688.99
695.285
702.397
710.535
719.661
729.441
739.312
748.561
756.445
762.293
765.563
765.87
762.976
756.776
747.268
734.525
718.672
699.87
678.3
654.156
639.458
657.917
699.165
740.347
781.427
822.384
863.202
903.873
944.39
984.749
1024.95
1064.97
1104.82
1144.48
1183.94
1223.16
1262.12
1300.8
1339.14
1377.09
1414.58
1451.52
1487.76
1523.07
1556.93
1589.47
1619.78
1646.89
17722.5
1634.99
1590.59
1540.55
1485.52
1425.92
1362.09
1294.38
1223.18
1149.07
1072.76
995.031
917.258
841.883
772.008
711.077
662.239
627.344
606.06
595.899
593.291
594.856
598.073
601.318
603.698
604.776
604.365
602.409
598.916
593.931
587.514
579.732
570.648
560.329
548.838
536.222
522.499
507.681
510.768
531.501
550.7
568.338
584.391
598.835
611.659
622.877
632.536
640.73
647.618
653.431
658.486
663.18
667.965
673.292
679.535
686.896
695.323
704.491
713.825
722.611
730.104
735.626
738.629
738.72
735.653
729.313
719.685
706.83
690.864
671.936
650.217
625.89
604.913
617.284
659.237
701.329
743.519
785.782
828.097
870.451
912.834
955.238
997.655
1040.07
1082.48
1124.86
1167.19
1209.44
1251.58
1293.55
1335.3
1376.75
1417.8
1458.29
1498.01
1536.54
1573.42
1608.44
1640.26
1825.81
16644
1645.17
1594.91
1539.48
1479.25
1414.61
1345.94
1273.67
1198.33
1120.59
1041.32
961.374
882.455
807.178
738.655
680.156
634.415
602.675
584.036
575.741
574.305
576.622
580.441
584.322
587.467
589.459
590.098
589.304
587.057
583.375
578.292
571.852
564.1
555.083
544.851
533.442
520.87
507.147
510.067
529.397
547.174
563.374
577.977
590.971
602.355
612.156
620.432
627.289
632.892
637.48
641.37
644.959
648.692
653.016
658.295
664.725
672.255
680.557
689.071
697.088
703.868
708.736
711.146
710.701
707.154
700.381
690.358
677.137
660.817
641.535
619.448
594.727
569.984
578.94
621.525
664.439
707.64
751.097
794.785
838.686
882.786
927.07
971.524
1016.13
1060.87
1105.71
1150.62
1195.57
1240.48
1285.31
1329.95
1374.31
1418.24
1461.56
1504
1545.08
1584.35
1621.6
1655.75
6848
12079
1642.61
1588.64
1529.34
1465.17
1396.64
1324.23
1248.51
1170.13
1089.91
1008.77
927.733
848.748
774.528
708.139
652.631
610.308
581.858
565.904
559.496
559.248
562.292
566.601
570.91
574.516
577.053
578.344
578.308
576.918
574.177
570.103
564.722
558.06
550.151
541.03
530.727
519.249
506.607
509.355
527.258
543.603
558.366
571.534
583.1
593.072
601.483
608.401
613.94
618.273
621.643
624.372
626.856
629.538
632.856
637.169
642.662
649.276
656.682
664.319
671.485
677.445
681.531
683.198
682.052
677.841
670.44
659.819
646.021
629.14
609.303
586.657
561.362
534.639
542.087
585.237
628.888
672.997
717.526
762.448
807.738
853.376
899.34
945.608
992.155
1038.95
1085.95
1133.11
1180.37
1227.67
1274.9
1321.96
1368.71
1414.97
1460.52
1505.07
1548.04
1589
1627.76
1663.27
11761.3
7319.6
1630.25
1574.08
1512.15
1445.17
1373.81
1298.73
1220.61
1140.23
1058.53
976.441
895.16
816.824
744.165
680.167
627.644
588.504
562.961
549.279
544.417
545.129
548.775
553.525
558.248
562.314
565.39
567.307
567.983
567.384
565.502
562.344
557.925
552.262
545.377
537.299
528.052
517.638
506.069
508.639
525.117
540.039
553.387
565.151
575.328
583.934
591.006
596.62
600.894
604.004
606.196
607.792
609.184
610.809
613.099
616.402
620.898
626.521
632.94
639.598
645.797
650.809
653.972
654.748
652.744
647.712
639.523
628.144
613.613
596.019
575.479
552.133
526.132
498.832
506.254
549.881
594.165
639.058
684.519
730.514
777.013
823.988
871.41
919.249
967.467
1016.02
1064.87
1113.93
1163.14
1212.41
1261.63
1310.64
1359.3
1407.38
1454.63
1500.68
1544.89
1586.9
1626.42
1662.28
15727
3250.58
1611.67
1554.02
1490.12
1421.03
1347.61
1270.64
1190.93
1109.35
1026.91
944.564
863.657
786.455
715.689
654.246
604.711
568.628
545.802
534.218
530.784
532.394
536.605
541.757
546.837
551.286
554.803
557.235
558.505
558.574
557.43
555.073
551.508
546.746
540.801
533.696
525.449
516.061
505.539
507.921
522.969
536.47
548.407
558.775
567.577
574.83
580.579
584.902
587.922
589.818
590.837
591.299
591.594
592.153
593.401
595.677
599.15
603.75
609.142
614.769
619.938
623.927
626.081
625.867
622.9
616.932
607.837
595.58
580.198
561.773
540.418
516.266
489.461
462.548
470.947
514.96
559.768
605.318
651.565
698.469
745.994
794.104
842.764
891.931
941.561
991.6
1041.98
1092.63
1143.46
1194.35
1245.17
1295.76
1345.92
1395.4
1443.9
1491.05
1536.04
1578.58
1618.21
1653.62
18488.6
1642.01
1589.71
1530.03
1464.31
1393.59
1318.76
1240.64
1160.08
1078
995.466
913.416
833.35
757.615
688.921
630.05
583.368
550.094
529.696
519.949
517.761
520.167
524.905
530.454
535.9
540.737
544.694
547.628
549.465
550.167
549.717
548.109
545.347
541.433
536.379
530.202
522.917
514.521
505.021
507.203
520.821
532.903
543.435
552.416
559.852
565.764
570.202
573.246
575.023
575.712
575.562
574.89
574.083
573.566
573.754
574.978
577.398
580.938
585.258
589.803
593.883
596.783
597.855
596.576
592.563
585.574
575.486
562.265
545.946
526.608
504.362
479.334
451.663
425.786
435.823
480.123
525.34
571.418
618.306
665.958
714.332
763.385
813.072
863.344
914.144
965.409
1017.06
1069.02
1121.16
1173.38
1225.51
1277.37
1328.75
1379.36
1428.87
1476.77
1522.19
1565.13
1604.17
1637.82
18130.2
1619.69
1564.67
1503.04
1435.83
1363.96
1288.25
1209.54
1128.68
1046.63
964.446
883.084
804.171
730.105
663.561
607.219
563.242
532.562
514.365
506.272
505.215
508.365
513.613
519.561
525.378
530.603
534.991
538.41
540.79
542.094
542.302
541.407
539.406
536.301
532.099
526.813
520.456
513.022
504.517
506.484
518.672
529.335
538.465
546.061
552.133
556.709
559.838
561.606
562.14
561.622
560.299
558.489
556.571
554.966
554.081
554.236
555.582
558.036
561.254
564.681
567.631
569.395
569.335
566.933
561.815
553.745
542.602
528.355
511.04
490.734
467.545
441.598
413.024
388.567
400.609
445.098
490.615
537.096
584.487
632.736
681.793
731.61
782.133
833.304
885.059
937.323
990.009
1043.02
1096.22
1149.5
1202.66
1255.53
1307.85
1359.33
1409.59
1458.05
1503.95
1547.08
1585.89
2131.38
17150
1593.65
1536.68
1473.66
1405.47
1332.92
1256.81
1177.95
1097.22
1015.58
934.064
853.659
776.103
703.813
639.422
585.511
544.056
515.74
499.517
492.902
492.869
496.714
502.466
508.827
515.035
520.67
525.504
529.416
532.339
534.238
535.092
534.892
533.633
531.313
527.938
523.517
518.06
511.562
504.025
505.765
516.523
525.768
533.495
539.707
544.418
547.657
549.479
549.97
549.26
547.533
545.034
542.079
539.044
536.34
534.368
533.438
533.692
535.036
537.127
539.407
541.194
541.787
540.555
536.99
530.725
521.531
509.291
493.978
475.628
454.321
430.161
403.269
373.777
350.92
365.117
409.702
455.411
502.179
549.945
598.653
648.245
698.667
749.857
801.751
854.274
907.344
960.863
1014.72
1068.79
1122.91
1176.91
1230.58
1283.66
1335.85
1386.76
1435.81
1482.27
1526.01
1565.73
5375.47
14408.3
1563.22
1505.58
1442.06
1373.55
1300.87
1224.82
1146.22
1065.96
985.021
904.407
825.155
749.078
678.598
616.315
564.711
525.592
499.426
484.981
479.699
480.607
485.116
491.373
498.165
504.788
510.853
516.151
520.569
524.043
526.539
528.035
528.522
527.992
526.443
523.877
520.301
515.724
510.139
503.546
505.045
514.373
522.2
528.524
533.352
536.7
538.602
539.114
538.327
536.371
533.43
529.751
525.645
521.483
517.673
514.604
512.576
511.721
511.941
512.885
513.996
514.596
513.993
511.562
506.805
499.365
489.018
475.655
459.251
439.846
417.518
392.374
364.532
334.121
312.886
329.216
373.807
419.612
466.56
514.587
563.629
613.626
664.515
716.228
768.695
821.834
875.553
929.749
984.301
1039.07
1093.9
1148.6
1202.96
1256.7
1309.53
1361.07
1410.71
1457.76
1502.13
1542.55
8163.21
11750.2
1530.05
1472.48
1409.05
1340.7
1268.28
1192.64
1114.6
1035.07
955.055
875.521
797.54
723.007
654.338
594.088
544.65
507.682
483.464
470.618
466.542
468.321
473.471
480.238
487.483
494.548
501.071
506.857
511.799
515.838
518.94
521.084
522.257
522.453
521.667
519.899
517.155
513.44
508.749
503.078
504.326
512.223
518.631
523.551
526.993
528.977
529.54
528.741
526.673
523.468
519.311
514.446
509.183
503.89
498.966
494.79
491.654
489.68
488.761
488.543
488.469
487.866
486.048
482.4
476.433
467.8
456.285
441.783
424.277
403.807
380.455
354.325
325.538
294.218
274.507
292.824
337.338
383.148
430.18
478.364
527.632
577.918
629.153
681.266
734.178
787.803
842.041
896.783
951.903
1007.26
1062.67
1117.97
1172.91
1227.24
1280.64
1332.72
1382.89
1430.47
1475.36
1516.26
10341.3
9661.16
1495.56
1438.3
1375.24
1307.34
1235.48
1160.5
1083.26
1004.66
925.721
847.383
770.76
697.803
630.915
572.61
525.196
490.196
467.74
456.333
453.354
455.947
461.722
469.009
476.729
484.264
491.273
497.572
503.061
507.682
511.403
514.203
516.068
516.991
516.965
515.988
514.066
511.201
507.387
502.62
503.607
510.072
515.061
518.575
520.63
521.249
520.471
518.359
515.007
510.551
505.174
499.12
492.697
486.268
480.223
474.934
470.682
467.581
465.514
464.123
462.853
461.035
457.99
453.114
445.928
436.093
423.402
407.757
389.146
367.612
343.239
316.134
286.414
254.204
235.829
255.891
300.251
345.985
393.013
441.261
490.658
541.132
592.61
645.015
698.263
752.263
806.91
862.09
917.67
973.501
1029.41
1085.21
1140.65
1195.49
1249.38
1301.96
1352.62
1400.68
1446.04
1487.38
12142.8
7936.94
1460.31
1403.54
1341.04
1273.79
1202.69
1128.56
1052.28
974.759
897.01
819.958
744.752
673.378
608.226
551.77
506.238
473.039
452.173
442.059
440.075
443.434
449.825
457.645
465.865
473.898
481.421
488.26
494.318
499.541
503.897
507.364
509.93
511.583
512.317
512.13
511.023
508.998
506.049
502.17
502.887
507.921
511.488
513.597
514.264
513.516
511.396
507.969
503.332
497.622
491.023
483.778
476.192
468.622
461.453
455.047
449.674
445.439
442.217
439.647
437.174
434.134
429.857
423.748
415.338
404.299
390.432
373.647
353.936
331.346
305.965
277.899
247.266
214.192
196.899
218.394
262.531
308.114
355.059
403.289
452.728
503.301
554.93
607.534
661.024
715.303
770.266
825.791
881.742
937.967
994.29
1050.51
1106.39
1161.67
1216.02
1269.06
1320.17
1368.69
1414.5
1456.31
13558.7
6609.45
1424.69
1368.5
1306.7
1240.25
1170.04
1096.91
1021.71
945.373
868.901
793.199
719.44
649.639
586.168
531.463
487.684
456.143
436.728
427.773
426.665
430.749
437.752
446.121
454.866
463.424
471.489
478.893
485.544
491.389
496.397
500.545
503.82
506.211
507.71
508.311
508.016
506.825
504.731
501.728
502.167
505.768
507.914
508.616
507.894
505.779
502.315
497.573
491.65
484.685
476.863
468.426
459.675
450.963
442.667
435.141
428.644
423.27
418.889
415.136
411.457
407.192
401.681
394.339
384.708
372.468
357.431
339.514
318.713
295.082
268.71
239.704
208.184
174.273
157.761
180.332
224.181
269.543
316.334
364.472
413.877
464.469
516.168
568.887
622.537
677.015
732.212
788.004
844.252
900.8
957.468
1014.05
1070.32
1126.01
1180.78
1234.25
1285.8
1334.78
1381.09
1423.4
14643.2
5605.72
1388.84
1333.33
1272.34
1206.81
1137.61
1065.58
991.57
916.499
841.366
767.055
694.757
626.501
564.641
511.574
469.408
439.383
421.331
413.488
413.155
417.918
425.519
434.442
443.727
452.832
461.461
469.453
476.718
483.205
488.881
493.725
497.722
500.858
503.127
504.52
505.036
504.675
503.429
501.291
501.447
503.615
504.339
503.634
501.523
498.039
493.232
487.173
479.965
471.745
462.699
453.069
443.154
433.299
423.876
415.228
407.605
401.092
395.55
390.612
385.725
380.237
373.494
364.922
354.075
340.643
324.446
305.409
283.535
258.881
231.539
201.619
169.24
134.525
118.461
141.716
185.217
230.298
276.869
324.846
374.146
424.685
476.381
529.144
582.879
637.483
692.844
748.835
805.314
862.123
919.083
975.989
1032.61
1088.66
1143.83
1197.72
1249.72
1299.18
1346.01
1388.89
15411.3
4889.81
1352.84
1298.11
1238.03
1173.52
1105.44
1034.61
961.869
888.132
814.386
741.495
670.661
603.915
543.589
492.046
451.344
422.662
405.829
399.072
399.511
404.93
413.117
422.596
432.433
442.103
451.317
459.918
467.819
474.967
481.329
486.884
491.615
495.508
498.554
500.743
502.073
502.54
502.137
500.858
500.727
501.461
500.763
498.651
495.15
490.298
484.148
476.774
468.28
458.806
448.538
437.716
426.636
415.64
405.089
395.32
386.571
378.917
372.215
366.093
360.001
353.291
345.321
335.527
323.472
308.859
291.516
271.376
248.448
222.793
194.507
163.7
130.494
100
100
102.571
145.669
190.409
236.7
284.453
333.584
384.005
435.631
488.369
542.124
596.789
652.249
708.377
765.03
822.048
879.251
936.433
993.357
1049.75
1105.29
1159.59
1212.04
1262.01
1309.42
1353.01
16145.3
4349.11
1316.67
1262.84
1203.79
1140.41
1073.54
1003.99
932.595
860.247
787.925
716.479
647.108
581.836
522.972
472.843
433.463
405.967
390.176
384.386
385.652
391.725
400.498
410.541
420.947
431.203
441.025
450.26
458.818
466.648
473.717
480.001
485.481
490.144
493.976
496.969
499.116
500.413
500.853
500.428
500.006
499.307
497.187
493.667
488.778
482.559
475.066
466.378
456.599
445.872
434.383
422.371
410.129
397.992
386.316
375.426
365.552
356.759
348.897
341.594
334.299
326.374
317.184
306.176
292.926
277.146
258.673
237.449
213.489
186.859
157.655
125.993
100
100
100
100
105.574
149.919
195.871
243.342
292.242
342.483
393.976
446.627
500.338
555.002
610.502
666.711
723.484
780.663
838.066
895.487
952.692
1009.41
1065.31
1120.03
1172.94
1223.42
1271.39
1315.6
16403
4123.12
1280.45
1227.63
1169.7
1107.53
1041.95
973.747
903.747
832.831
761.963
691.976
624.064
560.23
502.759
453.946
415.768
389.329
374.407
369.367
371.456
378.198
387.577
398.212
409.217
420.089
430.549
440.444
449.687
458.225
466.022
473.054
479.302
484.748
489.38
493.186
496.158
498.289
499.572
500
500.006
499.306
497.185
493.665
488.775
482.555
475.062
466.373
456.593
445.865
434.376
422.363
410.119
397.982
386.305
375.414
365.539
356.746
348.884
341.579
334.284
326.358
317.167
306.159
292.908
277.127
258.655
237.43
213.47
186.839
157.636
125.974
100
100
100
100
105.564
149.909
195.863
243.334
292.235
342.477
393.97
446.622
500.333
554.997
610.498
666.707
723.481
780.661
838.064
895.486
952.691
1009.41
1065.31
1120.03
1172.94
1223.42
1271.39
1315.6
16403.8
4122.24
1280.45
1227.63
1169.7
1107.53
1041.95
973.749
903.75
832.834
761.966
691.98
624.068
560.235
502.764
453.951
415.773
389.335
374.413
369.373
371.461
378.203
387.582
398.217
409.221
420.093
430.553
440.448
449.69
458.227
466.025
473.056
479.303
484.75
489.381
493.187
496.159
498.289
499.572
500
500.726
501.459
500.76
498.646
495.144
490.291
484.139
476.764
468.268
458.792
448.522
437.699
426.617
415.62
405.068
395.297
386.546
378.891
372.187
366.064
359.97
353.259
345.287
335.492
323.436
308.821
291.477
271.336
248.407
222.752
194.465
163.659
130.452
100
100
102.554
145.654
190.396
236.688
284.443
333.574
383.997
435.624
488.364
542.12
596.786
652.247
708.376
765.03
822.049
879.253
936.435
993.359
1049.75
1105.29
1159.6
1212.05
1262.02
1309.43
1353.01
16148.2
4345.99
1316.66
1262.84
1203.78
1140.41
1073.54
1003.99
932.597
860.25
787.93
716.484
647.114
581.843
522.98
472.852
433.472
405.978
390.187
384.398
385.663
391.736
400.508
410.551
420.956
431.211
441.033
450.267
458.824
466.654
473.722
480.005
485.485
490.147
493.979
496.971
499.118
500.414
500.853
500.428
501.446
503.613
504.336
503.629
501.517
498.031
493.223
487.163
479.952
471.73
462.683
453.052
443.134
433.279
423.854
415.204
407.58
401.065
395.521
390.582
385.694
380.203
373.458
364.885
354.036
340.602
324.403
305.365
283.49
258.835
231.493
201.572
169.192
134.477
118.432
141.708
185.211
230.293
276.866
324.845
374.146
424.688
476.385
529.149
582.885
637.491
692.853
748.844
805.324
862.134
919.095
976.001
1032.62
1088.67
1143.84
1197.73
1249.73
1299.19
1346.02
1388.9
15416.2
4884.44
1352.82
1298.1
1238.02
1173.51
1105.43
1034.6
961.864
888.129
814.383
741.494
670.662
603.917
543.592
492.051
451.35
422.67
405.839
399.082
399.522
404.941
413.128
422.606
432.443
442.112
451.325
459.926
467.825
474.972
481.335
486.889
491.619
495.512
498.556
500.745
502.074
502.541
502.137
500.858
502.167
505.766
507.911
508.612
507.888
505.771
502.306
497.562
491.637
484.67
476.846
468.408
459.655
450.942
442.644
435.116
428.618
423.243
418.86
415.105
411.424
407.158
401.644
394.3
384.667
372.425
357.386
339.466
318.664
295.032
268.658
239.651
208.13
174.219
157.733
180.332
224.184
269.549
316.342
364.481
413.888
464.482
516.182
568.904
622.554
677.034
732.232
788.025
844.273
900.821
957.49
1014.08
1070.35
1126.03
1180.8
1234.27
1285.82
1334.8
1381.1
1423.41
14650.1
5598.3
1388.81
1333.31
1272.32
1206.79
1137.59
1065.56
991.557
916.488
841.356
767.046
694.751
626.496
564.638
511.574
469.411
439.389
421.339
413.498
413.166
417.929
425.53
434.453
443.737
452.841
461.469
469.46
476.725
483.211
488.887
493.73
497.725
500.862
503.129
504.522
505.038
504.676
503.429
501.291
502.887
507.919
511.485
513.593
514.258
513.508
511.386
507.958
503.32
497.607
491.006
483.76
476.172
468.601
461.43
455.022
449.648
445.411
442.187
439.615
437.14
434.098
429.819
423.707
415.295
404.253
390.384
373.597
353.883
331.292
305.908
277.841
247.207
214.131
196.872
218.404
262.544
308.129
355.076
403.309
452.75
503.325
554.956
607.561
661.052
715.333
770.297
825.822
881.774
938
994.323
1050.54
1106.42
1161.7
1216.05
1269.09
1320.2
1368.71
1414.53
1456.33
13568.3
6599.62
1424.66
1368.47
1306.67
1240.23
1170.01
1096.88
1021.69
945.353
868.883
793.183
719.427
649.628
586.16
531.458
487.684
456.146
436.735
427.782
426.675
430.761
437.763
446.132
454.876
463.433
471.497
478.9
485.551
491.395
496.402
500.55
503.824
506.214
507.712
508.313
508.018
506.826
504.731
501.728
503.606
510.071
515.058
518.571
520.625
521.242
520.462
518.348
514.995
510.536
505.157
499.102
492.677
486.246
480.199
474.909
470.656
467.553
465.484
464.092
462.819
460.999
457.951
453.073
445.884
436.045
423.351
407.704
389.09
367.554
343.178
316.07
286.348
254.137
235.804
255.911
300.274
346.01
393.041
441.292
490.691
541.167
592.647
645.054
698.303
752.304
806.952
862.132
917.713
973.544
1029.46
1085.25
1140.7
1195.53
1249.42
1302
1352.66
1400.71
1446.07
1487.4
12155.3
7924.08
1460.27
1403.5
1341.01
1273.76
1202.65
1128.53
1052.25
974.731
896.984
819.934
744.73
673.359
608.212
551.76
506.233
473.04
452.178
442.067
440.085
443.446
449.836
457.656
465.875
473.907
481.429
488.267
494.325
499.547
503.902
507.369
509.933
511.586
512.32
512.132
511.024
508.999
506.049
502.17
504.326
512.222
518.629
523.547
526.988
528.97
529.531
528.731
526.661
523.454
519.294
514.428
509.163
503.869
498.942
494.765
491.627
489.652
488.731
488.512
488.435
487.829
486.008
482.357
476.387
467.751
456.232
441.727
424.218
403.745
380.389
354.257
325.467
294.145
274.484
292.854
337.371
383.184
430.219
478.405
527.676
577.964
629.202
681.316
734.23
787.855
842.094
896.837
951.957
1007.31
1062.73
1118.02
1172.96
1227.29
1280.68
1332.77
1382.94
1430.51
1475.39
1516.29
10356.6
9645
1495.51
1438.26
1375.2
1307.3
1235.44
1160.46
1083.22
1004.63
925.687
847.351
770.73
697.777
630.894
572.595
525.186
490.193
467.743
456.34
453.364
455.958
461.733
469.02
476.74
484.274
491.282
497.58
503.068
507.688
511.409
514.207
516.072
516.994
516.967
515.99
514.067
511.201
507.387
502.62
505.045
514.372
522.198
528.52
533.347
536.693
538.593
539.104
538.315
536.357
533.415
529.733
525.625
521.462
517.65
514.579
512.549
511.694
511.911
512.853
513.962
514.559
513.953
511.518
506.758
499.314
488.963
475.596
459.189
439.78
417.449
392.301
364.456
334.042
312.864
329.257
373.851
419.66
466.611
514.64
563.685
613.684
664.575
716.29
768.758
821.898
875.618
929.814
984.366
1039.14
1093.96
1148.66
1203.02
1256.76
1309.59
1361.12
1410.76
1457.81
1502.17
1542.59
8180.76
11731.5
1530
1472.43
1409
1340.65
1268.24
1192.59
1114.56
1035.03
955.011
875.479
797.501
722.972
654.308
594.066
544.636
507.675
483.464
470.624
466.552
468.332
473.483
480.249
487.494
494.558
501.08
506.865
511.806
515.844
518.945
521.088
522.261
522.456
521.669
519.901
517.156
513.441
508.749
503.078
505.764
516.521
525.766
533.492
539.703
544.412
547.649
549.469
549.959
549.247
547.518
545.017
542.06
539.022
536.318
534.344
533.412
533.664
535.007
537.096
539.373
541.157
541.747
540.511
536.942
530.672
521.474
509.23
493.913
475.559
454.247
430.083
403.188
373.692
350.901
365.169
409.757
455.47
502.242
550.011
598.721
648.316
698.739
749.931
801.826
854.35
907.42
960.939
1014.8
1068.86
1122.98
1176.98
1230.65
1283.72
1335.91
1386.82
1435.86
1482.32
1526.06
1565.78
5403.9
14381.5
1563.17
1505.53
1442.01
1373.49
1300.81
1224.76
1146.16
1065.9
984.966
904.355
825.106
749.034
678.56
616.286
564.69
525.581
499.424
484.986
479.708
480.618
485.128
491.385
498.176
504.798
510.863
516.16
520.576
524.049
526.544
528.04
528.525
527.995
526.446
523.878
520.302
515.725
510.139
503.546
506.483
518.671
529.334
538.462
546.057
552.128
556.702
559.829
561.595
562.127
561.607
560.282
558.47
556.551
554.944
554.057
554.21
555.555
558.007
561.224
564.648
567.594
569.355
569.291
566.884
561.761
553.686
542.539
528.287
510.967
490.656
467.463
441.511
412.933
388.55
400.673
445.166
490.686
537.171
584.565
632.816
681.876
731.695
782.219
833.391
885.147
937.411
990.096
1043.1
1096.31
1149.58
1202.75
1255.61
1307.93
1359.4
1409.66
1458.11
1504.01
1547.13
1585.93
2150.44
17130.3
1593.61
1536.63
1473.61
1405.41
1332.85
1256.74
1177.89
1097.15
1015.52
934.001
853.599
776.049
703.766
639.385
585.484
544.04
515.735
499.52
492.91
492.88
496.726
502.478
508.839
515.046
520.679
525.512
529.423
532.345
534.243
535.097
534.895
533.635
531.315
527.939
523.518
518.06
511.562
504.025
507.202
520.82
532.901
543.433
552.413
559.847
565.758
570.194
573.237
575.011
575.698
575.545
574.872
574.063
573.544
573.731
574.953
577.372
580.91
585.229
589.771
593.847
596.743
597.811
596.526
592.508
585.514
575.421
562.194
545.869
526.526
504.275
479.242
451.566
425.772
435.899
480.203
525.425
571.506
618.397
666.052
714.428
763.483
813.171
863.443
914.245
965.51
1017.16
1069.12
1121.26
1173.47
1225.6
1277.46
1328.83
1379.44
1428.94
1476.84
1522.25
1565.18
1604.21
1637.84
18124.5
1619.65
1564.62
1502.98
1435.76
1363.88
1288.17
1209.46
1128.6
1046.56
964.372
883.014
804.107
730.048
663.514
607.184
563.22
532.553
514.365
506.279
505.226
508.377
513.626
519.573
525.389
530.613
535
538.417
540.796
542.099
542.306
541.41
539.409
536.303
532.101
526.814
520.456
513.022
504.517
507.921
522.969
536.469
548.406
558.773
567.573
574.825
580.572
584.894
587.911
589.805
590.821
591.282
591.575
592.132
593.379
595.653
599.125
603.723
609.114
614.738
619.903
623.887
626.036
625.818
622.845
616.871
607.769
595.507
580.118
561.687
540.327
516.169
489.359
462.537
471.037
515.054
559.865
605.419
651.669
698.575
746.103
794.215
842.876
892.044
941.674
991.712
1042.09
1092.74
1143.57
1194.45
1245.27
1295.86
1346.01
1395.49
1443.98
1491.12
1536.11
1578.63
1618.25
1653.64
18490.4
1641.97
1589.65
1529.96
1464.23
1393.51
1318.67
1240.55
1159.99
1077.92
995.382
913.335
833.275
757.549
688.865
630.007
583.34
550.081
529.694
519.955
517.772
520.18
524.918
530.466
535.911
540.747
544.702
547.635
549.471
550.172
549.72
548.112
545.349
541.435
536.38
530.203
522.917
514.521
505.021
508.639
525.117
540.039
553.386
565.149
575.325
583.929
591
596.612
600.884
603.992
606.182
607.776
609.166
610.79
613.078
616.38
620.874
626.495
632.913
639.568
645.762
650.77
653.928
654.698
652.688
647.649
639.453
628.068
613.531
595.93
575.383
552.031
526.023
498.825
506.357
549.989
594.277
639.173
684.637
730.634
777.135
824.112
871.535
919.374
967.593
1016.15
1064.99
1114.05
1163.26
1212.53
1261.74
1310.76
1359.41
1407.49
1454.72
1500.76
1544.97
1586.97
1626.48
1662.32
15750.3
3225.55
1611.59
1553.93
1490.03
1420.94
1347.51
1270.54
1190.83
1109.25
1026.82
944.473
863.571
786.378
715.623
654.195
604.676
568.609
545.798
534.223
530.795
532.407
536.619
541.77
546.849
551.296
554.812
557.243
558.511
558.579
557.434
555.076
551.51
546.747
540.802
533.697
525.45
516.061
505.539
509.355
527.259
543.603
558.366
571.533
583.098
593.069
601.478
608.394
613.931
618.262
621.63
624.358
626.84
629.52
632.837
637.148
642.64
649.252
656.656
664.29
671.452
677.407
681.487
683.148
681.995
677.777
670.369
659.74
645.935
629.047
609.202
586.549
561.247
534.635
542.205
585.359
629.014
673.126
717.658
762.582
807.874
853.513
899.478
945.746
992.292
1039.08
1086.08
1133.24
1180.5
1227.79
1275.02
1322.08
1368.82
1415.08
1460.63
1505.17
1548.14
1589.08
1627.83
1663.33
11789.2
7289.17
1630.16
1573.99
1512.05
1445.07
1373.71
1298.62
1220.5
1140.12
1058.42
976.338
895.063
816.735
744.088
680.106
627.602
588.48
562.953
549.282
544.427
545.142
548.789
553.539
558.26
562.325
565.399
567.314
567.989
567.389
565.506
562.347
557.927
552.263
545.377
537.299
528.052
517.638
506.069
510.068
529.398
547.175
563.374
577.977
590.97
602.353
612.152
620.427
627.282
632.883
637.469
641.358
644.945
648.676
652.998
658.276
664.705
672.233
680.533
689.044
697.057
703.831
708.693
711.096
710.644
707.088
700.307
690.276
677.047
660.719
641.429
619.335
594.606
569.985
579.073
621.662
664.58
707.784
751.243
794.933
838.836
882.936
927.221
971.674
1016.28
1061.01
1105.86
1150.77
1195.7
1240.62
1285.44
1330.08
1374.44
1418.36
1461.67
1504.11
1545.18
1584.45
1621.68
1655.84
6897.62
12033
1642.5
1588.53
1529.22
1465.06
1396.52
1324.11
1248.39
1170.01
1089.79
1008.65
927.624
848.648
774.44
708.067
652.579
610.277
581.846
565.906
559.507
559.262
562.307
566.616
570.923
574.527
577.063
578.351
578.314
576.923
574.18
570.105
564.723
558.061
550.151
541.03
530.727
519.249
506.608
510.769
531.502
550.701
568.34
584.393
598.836
611.659
622.875
632.533
640.725
647.611
653.422
658.475
663.167
667.95
673.277
679.519
686.878
695.304
704.469
713.799
722.581
730.068
735.583
738.578
738.661
735.585
729.237
719.6
706.736
690.761
671.825
650.097
625.761
604.917
617.432
659.39
701.485
743.678
785.943
828.26
870.614
912.998
955.401
997.817
1040.23
1082.64
1125.02
1167.34
1209.59
1251.72
1293.69
1335.44
1376.88
1417.92
1458.41
1498.13
1536.66
1573.54
1608.54
1640.34
1840.62
16621.4
1645.08
1594.81
1539.36
1479.13
1414.48
1345.81
1273.54
1198.2
1120.46
1041.19
961.253
882.342
807.077
738.571
680.094
634.376
602.658
584.035
575.751
574.32
576.638
580.456
584.336
587.478
589.468
590.106
589.309
587.061
583.377
578.293
571.853
564.1
555.083
544.851
533.442
520.87
507.147
511.462
533.611
554.281
573.438
591.051
607.086
621.517
634.339
645.579
655.313
663.677
670.884
677.235
683.118
688.978
695.272
702.382
710.519
719.642
729.42
739.287
748.531
756.41
762.25
765.513
765.811
762.908
756.698
747.18
734.427
718.564
699.752
678.173
654.019
639.467
658.083
699.335
740.519
781.602
822.561
863.38
904.05
944.567
984.924
1025.12
1065.14
1104.99
1144.65
1184.09
1223.31
1262.27
1300.94
1339.27
1377.22
1414.71
1451.64
1487.89
1523.21
1557.1
1589.61
1619.87
1646.93
17719.2
1634.89
1590.46
1540.42
1485.38
1425.78
1361.95
1294.23
1223.04
1148.93
1072.63
994.9
917.134
841.771
771.913
711.004
662.192
627.321
606.056
595.908
593.306
594.872
598.089
601.332
603.71
604.786
604.372
602.414
598.919
593.933
587.515
579.732
570.648
560.328
548.837
536.221
522.499
507.681
512.106
535.554
557.595
578.206
597.342
614.946
630.969
645.375
658.164
669.387
679.166
687.706
695.314
702.383
709.355
716.653
724.652
733.568