/*--------------------------------*- C++ -*----------------------------------*\
  =========                 |
  \\      /  F ield         | OpenFOAM: The Open Source CFD Toolbox
   \\    /   O peration     | Website:  https://openfoam.org
    \\  /    A nd           | Version:  8
     \\/     M anipulation  |
\*---------------------------------------------------------------------------*/
FoamFile
{
    version     2.0;
    format      ascii;
    class       volScalarField;
    location    "380/fluid";
    object      rho;
}
// * * * * * * * * * * * * * * * * * * * * * * * * * * * * * * * * * * * * * //

dimensions      [1 -3 0 0 0 0 0];

internalField   nonuniform List<scalar> 
4000
(
0.658526
0.658502
0.658461
0.658392
0.658278
0.658089
0.657778
0.657272
0.656456
0.65516
0.65313
0.650014
0.645342
0.638535
0.628952
0.616
0.599297
0.578837
0.555097
0.528966
0.501605
0.474175
0.447632
0.422632
0.399534
0.378463
0.359382
0.342158
0.326618
0.312573
0.299842
0.288261
0.277686
0.267995
0.259086
0.250872
0.243246
0.236132
0.229474
0.223229
0.217358
0.211828
0.20661
0.201682
0.197022
0.192614
0.188445
0.184501
0.180775
0.177257
0.173944
0.170831
0.167917
0.165203
0.162694
0.160396
0.158325
0.156498
0.154972
0.153761
0.152889
0.152469
0.152624
0.157822
0.167328
0.178569
0.191803
0.207376
0.225745
0.247507
0.273442
0.304564
0.342179
0.387998
0.444315
0.513565
0.597587
0.696348
0.80569
0.915601
1.01226
1.08496
1.13185
1.15833
1.17186
1.17838
1.1814
1.18277
1.18337
1.18363
1.18374
1.18379
1.18381
1.18382
1.18382
1.18382
1.18382
1.18382
1.18382
1.18382
0.658526
0.658502
0.65846
0.658391
0.658275
0.658082
0.657766
0.657251
0.656422
0.655104
0.653045
0.649892
0.64518
0.638337
0.628738
0.615806
0.59917
0.578826
0.555233
0.529281
0.502087
0.474779
0.448302
0.423318
0.4002
0.379083
0.359941
0.342652
0.327045
0.312937
0.300147
0.288512
0.27789
0.268156
0.259208
0.250959
0.243302
0.236159
0.229479
0.223214
0.217325
0.211778
0.206546
0.201605
0.196934
0.192517
0.188338
0.184388
0.180655
0.177133
0.173817
0.170702
0.167787
0.165074
0.162567
0.160274
0.158207
0.156387
0.154875
0.153672
0.152808
0.152398
0.152571
0.158838
0.168514
0.179989
0.193532
0.209508
0.228399
0.250841
0.277666
0.309959
0.349118
0.396993
0.456004
0.528555
0.616221
0.718192
0.828922
0.937056
1.02887
1.09562
1.13762
1.16109
1.17308
1.17889
1.18161
1.18285
1.1834
1.18364
1.18374
1.18379
1.18381
1.18382
1.18382
1.18382
1.18382
1.18382
1.18382
1.18382
0.658526
0.658501
0.658459
0.658388
0.65827
0.658075
0.657753
0.657229
0.656385
0.655048
0.652962
0.649776
0.645027
0.63815
0.628527
0.615595
0.598993
0.578722
0.555232
0.529396
0.502316
0.475109
0.448709
0.423772
0.400672
0.379548
0.360382
0.343057
0.327407
0.313251
0.300414
0.288732
0.278063
0.268285
0.259296
0.251012
0.243325
0.236154
0.229446
0.223156
0.217243
0.211674
0.206423
0.201463
0.196776
0.192343
0.188152
0.184191
0.180449
0.17692
0.173599
0.170481
0.167566
0.164856
0.162355
0.160072
0.158021
0.156223
0.154743
0.153542
0.152713
0.152334
0.152531
0.160431
0.170379
0.18224
0.19628
0.21288
0.232553
0.255977
0.284043
0.317902
0.359031
0.409405
0.471462
0.547393
0.638252
0.742214
0.852464
0.957031
1.04321
1.10438
1.14229
1.16336
1.17411
1.17935
1.1818
1.18293
1.18343
1.18365
1.18375
1.18379
1.18381
1.18382
1.18382
1.18382
1.18382
1.18382
1.18382
1.18382
0.658526
0.658501
0.658458
0.658387
0.658267
0.65807
0.657744
0.657215
0.656365
0.655018
0.652921
0.649721
0.644956
0.638065
0.628437
0.615513
0.598938
0.578713
0.555288
0.529526
0.502517
0.475368
0.449006
0.424088
0.400987
0.37985
0.36066
0.343305
0.327621
0.31343
0.300556
0.288839
0.278138
0.268331
0.259315
0.251002
0.243286
0.236087
0.229353
0.223038
0.217101
0.211511
0.206239
0.201261
0.196556
0.192109
0.187904
0.183931
0.18018
0.176644
0.173317
0.170198
0.167284
0.16458
0.162089
0.159824
0.157798
0.156041
0.154617
0.153493
0.152771
0.152536
0.152904
0.161781
0.172337
0.184809
0.19952
0.216894
0.237491
0.262042
0.291493
0.327066
0.370316
0.423336
0.488528
0.567833
0.661734
0.767379
0.876753
0.977451
1.0579
1.11348
1.14727
1.16584
1.17528
1.17987
1.18204
1.18303
1.18347
1.18367
1.18376
1.18379
1.18381
1.18382
1.18382
1.18382
1.18382
1.18382
1.18382
1.18382
0.658526
0.658501
0.658458
0.658385
0.658265
0.658066
0.657738
0.657205
0.65635
0.654995
0.652887
0.649674
0.644895
0.637991
0.628353
0.615429
0.598867
0.578671
0.555289
0.529569
0.502601
0.475486
0.449147
0.424239
0.401138
0.379992
0.360787
0.343412
0.327707
0.313495
0.3006
0.288861
0.278135
0.268302
0.259259
0.250921
0.24318
0.235957
0.2292
0.222863
0.216906
0.211296
0.206006
0.201011
0.196291
0.191829
0.187612
0.183629
0.179869
0.176327
0.172997
0.169877
0.166966
0.164269
0.161792
0.159547
0.157554
0.15586
0.154509
0.153504
0.152986
0.153117
0.154251
0.163616
0.174695
0.18775
0.203132
0.221299
0.242851
0.268563
0.29944
0.336763
0.382173
0.437856
0.506117
0.588598
0.685136
0.791823
0.899608
0.996004
1.07082
1.12129
1.15149
1.16794
1.17627
1.18033
1.18224
1.18312
1.18351
1.18369
1.18376
1.1838
1.18381
1.18382
1.18382
1.18382
1.18382
1.18382
1.18382
1.18382
0.658526
0.6585
0.658457
0.658385
0.658264
0.658063
0.657734
0.657199
0.65634
0.65498
0.652866
0.649646
0.644859
0.637947
0.628304
0.615379
0.598822
0.578639
0.555274
0.529576
0.502626
0.475523
0.449192
0.424287
0.401184
0.380032
0.360816
0.343428
0.327706
0.313474
0.300558
0.288797
0.27805
0.268196
0.259133
0.250775
0.243014
0.235773
0.228997
0.222642
0.216668
0.211042
0.205736
0.200727
0.195994
0.191521
0.187294
0.183302
0.179536
0.175989
0.172657
0.169537
0.166629
0.163938
0.161469
0.159237
0.15726
0.155589
0.15426
0.153275
0.152765
0.152853
0.156223
0.165904
0.177392
0.190955
0.206959
0.225886
0.248367
0.27522
0.307499
0.346544
0.394086
0.452369
0.523565
0.608989
0.707798
0.815068
0.920883
1.01293
1.08244
1.12828
1.15528
1.16983
1.17718
1.18074
1.18242
1.1832
1.18355
1.1837
1.18377
1.1838
1.18381
1.18382
1.18382
1.18382
1.18382
1.18382
1.18382
1.18382
0.658526
0.6585
0.658457
0.658384
0.658263
0.658061
0.657731
0.657194
0.656332
0.654969
0.652849
0.649622
0.644826
0.637905
0.628252
0.615319
0.598757
0.578573
0.555213
0.529521
0.50258
0.475484
0.449155
0.424249
0.40114
0.379978
0.360751
0.34335
0.327615
0.313368
0.300437
0.288662
0.2779
0.268031
0.258954
0.250581
0.242805
0.235549
0.228758
0.222389
0.216401
0.210762
0.205445
0.200424
0.195681
0.191199
0.186965
0.182967
0.179197
0.175648
0.172316
0.169198
0.166295
0.163611
0.161152
0.158931
0.156967
0.155317
0.154009
0.153039
0.152535
0.152621
0.158309
0.168278
0.180143
0.194183
0.210777
0.230431
0.253807
0.281761
0.315394
0.3561
0.405708
0.466481
0.54043
0.628518
0.729201
0.836594
0.940109
1.02783
1.09244
1.1342
1.15846
1.17142
1.17793
1.18109
1.18258
1.18327
1.18358
1.18372
1.18378
1.1838
1.18381
1.18382
1.18382
1.18382
1.18382
1.18382
1.18382
1.18382
0.658526
0.6585
0.658457
0.658383
0.658262
0.65806
0.657729
0.65719
0.656326
0.65496
0.652836
0.649602
0.644798
0.637867
0.628203
0.615257
0.598682
0.578486
0.555115
0.529416
0.502469
0.475368
0.449035
0.424124
0.40101
0.379842
0.360609
0.3432
0.327457
0.313202
0.300261
0.288476
0.277704
0.267825
0.258738
0.250355
0.242567
0.2353
0.228498
0.222118
0.21612
0.210471
0.205144
0.200115
0.195365
0.190877
0.186638
0.182638
0.178866
0.175318
0.171989
0.168877
0.165982
0.163308
0.160864
0.15866
0.15672
0.1551
0.153814
0.152867
0.152391
0.152526
0.160234
0.170484
0.182723
0.197231
0.2144
0.234756
0.258989
0.287995
0.322919
0.365207
0.416781
0.479889
0.556375
0.646829
0.749014
0.856171
0.957227
1.04082
1.10102
1.13923
1.16115
1.17276
1.17858
1.18139
1.18272
1.18333
1.1836
1.18373
1.18378
1.1838
1.18381
1.18382
1.18382
1.18382
1.18382
1.18382
1.18382
1.18382
0.658526
0.6585
0.658456
0.658383
0.658261
0.658059
0.657727
0.657187
0.656321
0.654951
0.652823
0.649583
0.644771
0.637827
0.628149
0.615186
0.598592
0.578376
0.554987
0.529272
0.502311
0.4752
0.44886
0.423943
0.400824
0.379653
0.360416
0.343003
0.327255
0.312995
0.30005
0.288258
0.27748
0.267594
0.2585
0.25011
0.242314
0.235038
0.228229
0.221841
0.215835
0.210179
0.204846
0.199811
0.195057
0.190565
0.186324
0.182323
0.178553
0.175009
0.171686
0.168582
0.1657
0.163043
0.16062
0.158443
0.156533
0.154957
0.15371
0.15281
0.152374
0.152523
0.161492
0.17222
0.184936
0.199958
0.217711
0.238753
0.263808
0.29381
0.32995
0.373729
0.427147
0.492416
0.571207
0.66373
0.767079
0.873716
0.972257
1.052
1.10827
1.14343
1.16338
1.17387
1.17911
1.18164
1.18283
1.18338
1.18363
1.18374
1.18379
1.18381
1.18381
1.18382
1.18382
1.18382
1.18382
1.18382
1.18382
1.18382
0.658526
0.6585
0.658456
0.658383
0.65826
0.658058
0.657725
0.657184
0.656316
0.654943
0.652811
0.649564
0.644743
0.637787
0.628092
0.615108
0.598491
0.578251
0.554837
0.529099
0.502121
0.474996
0.448647
0.423724
0.400603
0.379429
0.360191
0.342777
0.327027
0.312765
0.299817
0.288023
0.277241
0.267352
0.258254
0.249859
0.242058
0.234776
0.227961
0.221568
0.215557
0.209896
0.204559
0.199521
0.194763
0.190271
0.18603
0.18203
0.178263
0.174724
0.171409
0.168318
0.165451
0.162814
0.160419
0.15828
0.156425
0.154931
0.153752
0.153007
0.152802
0.153312
0.162696
0.173833
0.186977
0.202471
0.220763
0.242438
0.268253
0.299178
0.336442
0.381604
0.436726
0.503968
0.584824
0.679128
0.783343
0.889262
0.985329
1.06154
1.11438
1.14694
1.16524
1.1748
1.17955
1.18184
1.18292
1.18342
1.18364
1.18374
1.18379
1.18381
1.18382
1.18382
1.18382
1.18382
1.18382
1.18382
1.18382
1.18382
0.658526
0.6585
0.658456
0.658382
0.65826
0.658056
0.657723
0.657181
0.656311
0.654936
0.652798
0.649546
0.644714
0.637745
0.628032
0.615026
0.598382
0.578113
0.554672
0.528909
0.501911
0.474771
0.448413
0.423484
0.400361
0.379187
0.359949
0.342536
0.326788
0.312526
0.299578
0.287783
0.277
0.267109
0.258009
0.249612
0.241808
0.234522
0.227704
0.221306
0.215292
0.209629
0.204289
0.199249
0.194491
0.189998
0.185758
0.181761
0.177999
0.174466
0.17116
0.168079
0.165226
0.162608
0.160237
0.158129
0.156327
0.15489
0.153793
0.153178
0.153186
0.154308
0.163982
0.175434
0.18893
0.204826
0.223592
0.245833
0.272332
0.304092
0.342378
0.388806
0.445482
0.5145
0.597182
0.692998
0.797827
0.902898
0.996599
1.06964
1.1195
1.14986
1.16677
1.17556
1.17992
1.18201
1.183
1.18345
1.18366
1.18375
1.18379
1.18381
1.18382
1.18382
1.18382
1.18382
1.18382
1.18382
1.18382
1.18382
0.658526
0.6585
0.658456
0.658382
0.658259
0.658055
0.657721
0.657178
0.656306
0.654928
0.652786
0.649527
0.644686
0.637702
0.627971
0.614941
0.59827
0.577971
0.5545
0.528711
0.501692
0.474538
0.448169
0.423237
0.400112
0.378939
0.359704
0.342294
0.326548
0.312289
0.299342
0.287548
0.276766
0.266875
0.257775
0.249377
0.241571
0.234283
0.227462
0.221063
0.215047
0.209382
0.204041
0.199001
0.194243
0.189751
0.185514
0.18152
0.177762
0.174235
0.170936
0.167864
0.165022
0.162417
0.160059
0.157966
0.156181
0.154757
0.153662
0.153027
0.152965
0.155441
0.165316
0.177006
0.190785
0.207021
0.226194
0.248932
0.276038
0.308543
0.347744
0.395311
0.453378
0.523974
0.608253
0.705337
0.810577
0.914737
1.00623
1.07647
1.12376
1.15227
1.16803
1.17618
1.18022
1.18215
1.18306
1.18348
1.18367
1.18376
1.18379
1.18381
1.18382
1.18382
1.18382
1.18382
1.18382
1.18382
1.18382
1.18382
0.658526
0.6585
0.658456
0.658382
0.658259
0.658055
0.65772
0.657175
0.656302
0.654921
0.652775
0.649508
0.644658
0.637661
0.62791
0.614857
0.598158
0.57783
0.554329
0.528515
0.501474
0.474306
0.447929
0.422993
0.399868
0.378698
0.359466
0.34206
0.326318
0.312062
0.299118
0.287326
0.276546
0.266656
0.257557
0.249159
0.241352
0.234064
0.227242
0.220842
0.214825
0.20916
0.203819
0.198779
0.194022
0.189533
0.185297
0.181307
0.177554
0.174032
0.17074
0.167675
0.164842
0.162246
0.159899
0.157816
0.156039
0.154621
0.153527
0.152884
0.152798
0.156552
0.166585
0.17847
0.192488
0.209014
0.228541
0.251712
0.279352
0.312515
0.352524
0.401101
0.460403
0.532381
0.618037
0.71617
0.821664
0.924902
1.01439
1.08218
1.12729
1.15425
1.16907
1.17669
1.18046
1.18227
1.18312
1.18351
1.18368
1.18376
1.1838
1.18381
1.18382
1.18382
1.18382
1.18382
1.18382
1.18382
1.18382
1.18382
0.658526
0.6585
0.658456
0.658381
0.658258
0.658054
0.657718
0.657173
0.656298
0.654914
0.652764
0.649491
0.644631
0.637621
0.627852
0.614777
0.598052
0.577694
0.554166
0.528326
0.501267
0.474085
0.447701
0.422763
0.399639
0.378472
0.359244
0.341842
0.326104
0.311853
0.298912
0.287123
0.276345
0.266457
0.25736
0.248964
0.241157
0.233868
0.227047
0.220647
0.21463
0.208965
0.203625
0.198586
0.193831
0.189344
0.185111
0.181125
0.177376
0.17386
0.170574
0.167517
0.164692
0.162105
0.159766
0.157693
0.155928
0.154519
0.153431
0.152792
0.152709
0.157514
0.1677
0.179763
0.193991
0.21077
0.230606
0.254153
0.282255
0.315988
0.356702
0.406163
0.466538
0.539711
0.626538
0.725527
0.831159
0.933515
1.02122
1.0869
1.13019
1.15587
1.16991
1.17711
1.18066
1.18236
1.18316
1.18353
1.18369
1.18376
1.1838
1.18381
1.18382
1.18382
1.18382
1.18382
1.18382
1.18382
1.18382
1.18382
0.658526
0.6585
0.658455
0.658381
0.658258
0.658053
0.657717
0.65717
0.656294
0.654908
0.652754
0.649475
0.644606
0.637584
0.627799
0.614703
0.597953
0.57757
0.554016
0.528154
0.501077
0.473884
0.447494
0.422553
0.399431
0.378267
0.359044
0.341647
0.325914
0.311666
0.29873
0.286944
0.276168
0.266283
0.257188
0.248793
0.240987
0.233699
0.226878
0.220479
0.214464
0.2088
0.20346
0.198423
0.19367
0.189185
0.184956
0.180973
0.177229
0.173719
0.170439
0.167389
0.164572
0.161993
0.159664
0.157601
0.155846
0.154444
0.153365
0.152731
0.152651
0.158335
0.168654
0.18087
0.195279
0.212274
0.232372
0.25624
0.284738
0.31896
0.360276
0.410493
0.471781
0.545967
0.633771
0.733449
0.839139
0.940685
1.02686
1.09076
1.13255
1.15717
1.17059
1.17745
1.18082
1.18244
1.18319
1.18354
1.1837
1.18377
1.1838
1.18381
1.18382
1.18382
1.18382
1.18382
1.18382
1.18382
1.18382
1.18382
0.658526
0.6585
0.658455
0.658381
0.658257
0.658052
0.657715
0.657168
0.65629
0.654902
0.652745
0.649461
0.644585
0.637552
0.627753
0.614638
0.597867
0.57746
0.553884
0.528003
0.500911
0.473708
0.447313
0.422371
0.39925
0.37809
0.358871
0.341479
0.32575
0.311507
0.298574
0.286792
0.276019
0.266136
0.257044
0.248651
0.240846
0.233559
0.226739
0.220341
0.214327
0.208664
0.203326
0.198291
0.19354
0.189058
0.184832
0.180853
0.177114
0.173609
0.170335
0.167291
0.164482
0.161912
0.159591
0.157535
0.15579
0.154397
0.153324
0.152695
0.152619
0.158999
0.169437
0.181786
0.196348
0.213526
0.233842
0.257978
0.286804
0.321432
0.36325
0.414095
0.47614
0.551159
0.639759
0.73998
0.845678
0.946517
1.0314
1.09385
1.13442
1.15821
1.17113
1.17771
1.18095
1.18249
1.18322
1.18355
1.1837
1.18377
1.1838
1.18381
1.18382
1.18382
1.18382
1.18382
1.18382
1.18382
1.18382
1.18382
0.658526
0.6585
0.658455
0.658381
0.658257
0.658052
0.657714
0.657167
0.656288
0.654898
0.652738
0.64945
0.644567
0.637525
0.627714
0.614584
0.597795
0.57737
0.553775
0.527877
0.500773
0.473562
0.447163
0.422221
0.399102
0.377945
0.358729
0.341341
0.325617
0.311377
0.298448
0.286669
0.275899
0.266019
0.256929
0.248538
0.240734
0.233449
0.22663
0.220233
0.21422
0.208559
0.203223
0.198189
0.193441
0.188961
0.184739
0.180764
0.177029
0.173528
0.17026
0.167223
0.16442
0.161857
0.159543
0.157495
0.155758
0.154371
0.153302
0.152676
0.152601
0.159517
0.170056
0.182516
0.197204
0.214528
0.235021
0.259371
0.28846
0.323411
0.365629
0.416976
0.479623
0.555301
0.644523
0.745156
0.850834
0.951087
1.03494
1.09625
1.13587
1.15901
1.17154
1.17791
1.18104
1.18254
1.18324
1.18356
1.18371
1.18377
1.1838
1.18381
1.18382
1.18382
1.18382
1.18382
1.18382
1.18382
1.18382
1.18382
0.658526
0.6585
0.658455
0.658381
0.658257
0.658051
0.657714
0.657165
0.656286
0.654894
0.652732
0.649441
0.644553
0.637504
0.627684
0.614542
0.59774
0.5773
0.553691
0.527781
0.500668
0.47345
0.447049
0.422106
0.398988
0.377834
0.358622
0.341237
0.325516
0.311279
0.298353
0.286576
0.275809
0.265931
0.256843
0.248455
0.240652
0.233368
0.226551
0.220155
0.214143
0.208483
0.203149
0.198117
0.193371
0.188894
0.184675
0.180703
0.176972
0.173476
0.170213
0.167181
0.164384
0.161826
0.159519
0.157476
0.155745
0.154361
0.153292
0.152659
0.152572
0.159892
0.170517
0.183066
0.197852
0.215289
0.235915
0.260425
0.289711
0.324904
0.367422
0.419144
0.48224
0.558407
0.648087
0.749013
0.854657
0.954458
1.03754
1.09801
1.13693
1.1596
1.17184
1.17806
1.18111
1.18257
1.18326
1.18357
1.18371
1.18377
1.1838
1.18381
1.18382
1.18382
1.18382
1.18382
1.18382
1.18382
1.18382
1.18382
0.658526
0.6585
0.658455
0.658381
0.658256
0.658051
0.657713
0.657165
0.656284
0.654892
0.652728
0.649435
0.644544
0.63749
0.627664
0.614514
0.597703
0.577253
0.553634
0.527716
0.500596
0.473375
0.446972
0.422029
0.398912
0.377759
0.358549
0.341167
0.325448
0.311214
0.29829
0.286515
0.275749
0.265873
0.256788
0.2484
0.240599
0.233317
0.2265
0.220105
0.214095
0.208436
0.203103
0.198073
0.193329
0.188854
0.184637
0.180669
0.176941
0.173449
0.170189
0.167162
0.164369
0.161817
0.159514
0.157476
0.155747
0.154364
0.153291
0.152647
0.152538
0.16015
0.170835
0.183446
0.198298
0.215811
0.236526
0.261143
0.29056
0.325914
0.36863
0.420601
0.483994
0.560483
0.65046
0.75157
0.857178
0.956667
1.03923
1.09915
1.13761
1.15998
1.17204
1.17816
1.18116
1.18259
1.18327
1.18357
1.18371
1.18377
1.1838
1.18381
1.18382
1.18382
1.18382
1.18382
1.18382
1.18382
1.18382
1.18382
0.658526
0.6585
0.658455
0.658381
0.658256
0.658051
0.657713
0.657164
0.656283
0.654891
0.652726
0.649432
0.644539
0.637484
0.627654
0.614501
0.597685
0.57723
0.553607
0.527685
0.500562
0.473339
0.446934
0.421991
0.398875
0.377723
0.358514
0.341132
0.325415
0.311182
0.298258
0.286485
0.27572
0.265845
0.256761
0.248374
0.240574
0.233293
0.226477
0.220083
0.214073
0.208415
0.203083
0.198054
0.193311
0.188837
0.184622
0.180655
0.176929
0.17344
0.170183
0.167159
0.16437
0.161821
0.159521
0.157487
0.155761
0.15438
0.153307
0.15266
0.152542
0.160283
0.171005
0.183649
0.198535
0.216085
0.236844
0.261513
0.290993
0.326424
0.369236
0.421327
0.48486
0.5615
0.651614
0.752805
0.858385
0.957715
1.04003
1.09968
1.13794
1.16015
1.17213
1.1782
1.18118
1.1826
1.18327
1.18358
1.18371
1.18377
1.1838
1.18381
1.18382
1.18382
1.18382
1.18382
1.18382
1.18382
1.18382
1.18382
0.658526
0.6585
0.658455
0.658381
0.658256
0.658051
0.657713
0.657164
0.656283
0.654891
0.652726
0.649432
0.644539
0.637483
0.627654
0.6145
0.597684
0.577229
0.553606
0.527684
0.500561
0.473338
0.446933
0.42199
0.398874
0.377722
0.358513
0.341132
0.325414
0.311181
0.298258
0.286484
0.27572
0.265845
0.25676
0.248374
0.240574
0.233292
0.226476
0.220082
0.214072
0.208415
0.203082
0.198054
0.19331
0.188837
0.184622
0.180655
0.176929
0.173439
0.170183
0.167159
0.164369
0.16182
0.159521
0.157487
0.155761
0.154379
0.153307
0.15266
0.152542
0.160283
0.171005
0.183649
0.198536
0.216086
0.236845
0.261514
0.290994
0.326426
0.369238
0.421329
0.484862
0.561503
0.651618
0.752809
0.858389
0.957718
1.04003
1.09968
1.13794
1.16015
1.17213
1.1782
1.18118
1.1826
1.18327
1.18358
1.18371
1.18377
1.1838
1.18381
1.18382
1.18382
1.18382
1.18382
1.18382
1.18382
1.18382
1.18382
0.658526
0.6585
0.658455
0.658381
0.658256
0.658051
0.657713
0.657165
0.656284
0.654892
0.652728
0.649434
0.644543
0.637489
0.627663
0.614513
0.597701
0.57725
0.553631
0.527713
0.500593
0.473372
0.446968
0.422026
0.398909
0.377757
0.358547
0.341165
0.325446
0.311212
0.298288
0.286513
0.275748
0.265872
0.256787
0.248399
0.240598
0.233316
0.226499
0.220105
0.214094
0.208435
0.203102
0.198073
0.193328
0.188854
0.184637
0.180668
0.17694
0.173448
0.170189
0.167162
0.164369
0.161817
0.159514
0.157476
0.155747
0.154364
0.153292
0.152648
0.152538
0.160151
0.170837
0.183447
0.1983
0.215813
0.236529
0.261146
0.290564
0.325918
0.368635
0.420607
0.484001
0.560491
0.65047
0.751581
0.857188
0.956676
1.03924
1.09915
1.13762
1.15998
1.17204
1.17816
1.18116
1.18259
1.18327
1.18357
1.18371
1.18377
1.1838
1.18381
1.18382
1.18382
1.18382
1.18382
1.18382
1.18382
1.18382
1.18382
0.658526
0.6585
0.658455
0.658381
0.658257
0.658051
0.657714
0.657165
0.656285
0.654894
0.652731
0.64944
0.644552
0.637503
0.627682
0.614539
0.597736
0.577295
0.553686
0.527776
0.500662
0.473445
0.447043
0.422101
0.398984
0.37783
0.358618
0.341233
0.325513
0.311276
0.29835
0.286574
0.275807
0.265929
0.256842
0.248453
0.24065
0.233367
0.226549
0.220153
0.214142
0.208482
0.203147
0.198116
0.19337
0.188893
0.184674
0.180702
0.176971
0.173476
0.170212
0.167181
0.164383
0.161826
0.159518
0.157476
0.155744
0.15436
0.153292
0.152659
0.152572
0.159894
0.17052
0.183069
0.197855
0.215293
0.23592
0.260431
0.289717
0.324912
0.367431
0.419155
0.482253
0.558422
0.648104
0.749032
0.854675
0.954474
1.03755
1.09802
1.13693
1.1596
1.17184
1.17806
1.18111
1.18257
1.18326
1.18357
1.18371
1.18377
1.1838
1.18381
1.18382
1.18382
1.18382
1.18382
1.18382
1.18382
1.18382
1.18382
0.658526
0.6585
0.658455
0.658381
0.658257
0.658051
0.657714
0.657167
0.656287
0.654897
0.652737
0.649449
0.644565
0.637523
0.627711
0.61458
0.59779
0.577364
0.553768
0.52787
0.500766
0.473555
0.447156
0.422214
0.399096
0.377939
0.358724
0.341337
0.325612
0.311373
0.298444
0.286665
0.275896
0.266016
0.256926
0.248535
0.240732
0.233447
0.226628
0.220231
0.214218
0.208557
0.203221
0.198188
0.193439
0.18896
0.184737
0.180762
0.177027
0.173527
0.170259
0.167222
0.164419
0.161856
0.159542
0.157494
0.155757
0.15437
0.153302
0.152675
0.152601
0.159521
0.170061
0.182521
0.197209
0.214534
0.235028
0.259378
0.288469
0.323422
0.365642
0.416991
0.479641
0.555322
0.644547
0.745182
0.850859
0.95111
1.03496
1.09626
1.13587
1.15901
1.17154
1.17791
1.18104
1.18254
1.18324
1.18356
1.18371
1.18377
1.1838
1.18381
1.18382
1.18382
1.18382
1.18382
1.18382
1.18382
1.18382
1.18382
0.658526
0.6585
0.658455
0.658381
0.658257
0.658052
0.657715
0.657168
0.65629
0.654902
0.652744
0.64946
0.644583
0.637549
0.627749
0.614633
0.597861
0.577453
0.553875
0.527993
0.500901
0.473698
0.447303
0.422362
0.399242
0.378083
0.358864
0.341473
0.325745
0.311502
0.298569
0.286787
0.276015
0.266133
0.25704
0.248648
0.240843
0.233557
0.226737
0.220338
0.214324
0.208662
0.203324
0.198289
0.193538
0.189056
0.18483
0.180852
0.177112
0.173607
0.170333
0.16729
0.164481
0.161911
0.15959
0.157535
0.15579
0.154396
0.153323
0.152695
0.152619
0.159003
0.169442
0.181792
0.196355
0.213533
0.233851
0.257988
0.286816
0.321445
0.363266
0.414115
0.476164
0.551186
0.63979
0.740014
0.845712
0.946547
1.03142
1.09387
1.13443
1.15821
1.17113
1.17771
1.18095
1.18249
1.18322
1.18355
1.1837
1.18377
1.1838
1.18381
1.18382
1.18382
1.18382
1.18382
1.18382
1.18382
1.18382
1.18382
0.658526
0.6585
0.658455
0.658381
0.658258
0.658053
0.657716
0.65717
0.656293
0.654907
0.652753
0.649474
0.644604
0.637581
0.627795
0.614697
0.597946
0.577561
0.554005
0.528143
0.501065
0.473872
0.447482
0.422543
0.399421
0.378258
0.359035
0.341639
0.325907
0.31166
0.298724
0.286939
0.276164
0.266279
0.257184
0.24879
0.240983
0.233696
0.226875
0.220476
0.214461
0.208797
0.203458
0.198421
0.193668
0.189183
0.184954
0.180971
0.177227
0.173717
0.170437
0.167387
0.16457
0.161992
0.159663
0.1576
0.155845
0.154444
0.153364
0.152731
0.152651
0.15834
0.16866
0.180877
0.195287
0.212284
0.232383
0.256252
0.284752
0.318977
0.360297
0.410517
0.47181
0.546001
0.63381
0.733492
0.839182
0.940723
1.02688
1.09078
1.13256
1.15718
1.17059
1.17745
1.18082
1.18244
1.18319
1.18354
1.1837
1.18377
1.1838
1.18381
1.18382
1.18382
1.18382
1.18382
1.18382
1.18382
1.18382
1.18382
0.658526
0.6585
0.658456
0.658381
0.658258
0.658054
0.657718
0.657172
0.656297
0.654913
0.652763
0.649489
0.644628
0.637617
0.627847
0.61477
0.598043
0.577684
0.554154
0.528313
0.501253
0.474071
0.447688
0.42275
0.399627
0.378461
0.359234
0.341833
0.326096
0.311845
0.298905
0.287117
0.276339
0.266452
0.257355
0.248959
0.241152
0.233864
0.227043
0.220643
0.214627
0.208962
0.203622
0.198583
0.193828
0.189341
0.185109
0.181122
0.177373
0.173858
0.170571
0.167515
0.16469
0.162103
0.159765
0.157692
0.155927
0.154518
0.15343
0.152791
0.152708
0.157521
0.167708
0.179772
0.194001
0.210782
0.230619
0.254168
0.282273
0.316009
0.356726
0.406192
0.466572
0.539752
0.626585
0.725578
0.831211
0.933561
1.02126
1.08693
1.13021
1.15587
1.16992
1.17711
1.18066
1.18236
1.18316
1.18353
1.18369
1.18376
1.1838
1.18381
1.18382
1.18382
1.18382
1.18382
1.18382
1.18382
1.18382
1.18382
0.658526
0.6585
0.658456
0.658382
0.658258
0.658054
0.657719
0.657175
0.656301
0.65492
0.652774
0.649507
0.644655
0.637656
0.627904
0.614849
0.598148
0.577818
0.554315
0.528499
0.501458
0.47429
0.447914
0.422979
0.399855
0.378686
0.359455
0.34205
0.326308
0.312053
0.29911
0.287319
0.276539
0.266649
0.257551
0.249154
0.241347
0.234059
0.227237
0.220837
0.214821
0.209156
0.203815
0.198776
0.194019
0.189529
0.185294
0.181304
0.177551
0.174029
0.170737
0.167673
0.16484
0.162244
0.159897
0.157814
0.156038
0.15462
0.153526
0.152883
0.152798
0.15656
0.166594
0.178481
0.1925
0.209027
0.228557
0.25173
0.279373
0.312539
0.352553
0.401135
0.460443
0.532429
0.618093
0.71623
0.821726
0.924958
1.01444
1.08221
1.12731
1.15426
1.16907
1.1767
1.18046
1.18227
1.18312
1.18351
1.18368
1.18376
1.1838
1.18381
1.18382
1.18382
1.18382
1.18382
1.18382
1.18382
1.18382
1.18382
0.658526
0.6585
0.658456
0.658382
0.658259
0.658055
0.657721
0.657178
0.656306
0.654927
0.652785
0.649525
0.644682
0.637698
0.627964
0.614932
0.598259
0.577958
0.554484
0.528694
0.501674
0.47452
0.448152
0.423221
0.400097
0.378926
0.359691
0.342282
0.326537
0.312279
0.299333
0.28754
0.276758
0.266868
0.257768
0.249371
0.241565
0.234277
0.227457
0.221058
0.215042
0.209378
0.204037
0.198997
0.194239
0.189748
0.18551
0.181516
0.177759
0.174232
0.170933
0.167861
0.16502
0.162415
0.160057
0.157965
0.15618
0.154755
0.153661
0.153026
0.152963
0.155451
0.165326
0.177017
0.190798
0.207036
0.226212
0.248951
0.276061
0.30857
0.347776
0.395349
0.453424
0.524028
0.608317
0.705407
0.810648
0.914803
1.00629
1.0765
1.12379
1.15228
1.16804
1.17619
1.18022
1.18215
1.18306
1.18348
1.18367
1.18376
1.18379
1.18381
1.18382
1.18382
1.18382
1.18382
1.18382
1.18382
1.18382
1.18382
0.658526
0.6585
0.658456
0.658382
0.65826
0.658056
0.657723
0.65718
0.65631
0.654935
0.652797
0.649543
0.64471
0.63774
0.628024
0.615016
0.59837
0.578098
0.554654
0.52889
0.501891
0.474752
0.448393
0.423466
0.400344
0.379171
0.359935
0.342523
0.326776
0.312515
0.299568
0.287774
0.276991
0.267101
0.258002
0.249605
0.241801
0.234516
0.227697
0.2213
0.215287
0.209624
0.204284
0.199244
0.194486
0.189994
0.185754
0.181757
0.177995
0.174463
0.171156
0.168076
0.165223
0.162606
0.160234
0.158127
0.156326
0.154889
0.153792
0.153178
0.153187
0.154318
0.163993
0.175446
0.188944
0.204842
0.22361
0.245854
0.272358
0.304122
0.342413
0.388848
0.445533
0.514561
0.597253
0.693077
0.797909
0.902974
0.99666
1.06969
1.11953
1.14987
1.16678
1.17556
1.17992
1.18202
1.183
1.18345
1.18366
1.18375
1.18379
1.18381
1.18382
1.18382
1.18382
1.18382
1.18382
1.18382
1.18382
1.18382
0.658526
0.6585
0.658456
0.658383
0.65826
0.658057
0.657724
0.657183
0.656315
0.654942
0.652809
0.649562
0.644739
0.637781
0.628084
0.615097
0.598477
0.578234
0.554817
0.529078
0.502099
0.474974
0.448626
0.423704
0.400584
0.379412
0.360175
0.342762
0.327014
0.312753
0.299806
0.288012
0.277232
0.267343
0.258245
0.249851
0.242051
0.234769
0.227954
0.221561
0.215551
0.20989
0.204553
0.199515
0.194758
0.190266
0.186025
0.182025
0.178259
0.17472
0.171406
0.168314
0.165448
0.162812
0.160416
0.158278
0.156424
0.15493
0.153752
0.153008
0.152807
0.15332
0.162705
0.173844
0.186991
0.202487
0.220782
0.242461
0.26828
0.299209
0.33648
0.381649
0.43678
0.504034
0.584901
0.679216
0.783435
0.889348
0.985399
1.06159
1.11441
1.14696
1.16525
1.1748
1.17955
1.18185
1.18292
1.18342
1.18364
1.18374
1.18379
1.18381
1.18382
1.18382
1.18382
1.18382
1.18382
1.18382
1.18382
1.18382
0.658526
0.6585
0.658456
0.658383
0.658261
0.658058
0.657726
0.657186
0.65632
0.65495
0.652821
0.64958
0.644766
0.637821
0.62814
0.615174
0.598577
0.578358
0.554966
0.529248
0.502287
0.475176
0.448836
0.42392
0.400804
0.379634
0.360398
0.342987
0.32724
0.312981
0.300037
0.288246
0.277469
0.267584
0.25849
0.250101
0.242306
0.23503
0.228221
0.221833
0.215828
0.210173
0.20484
0.199805
0.195051
0.19056
0.186319
0.182318
0.178549
0.175004
0.171681
0.168578
0.165696
0.16304
0.160617
0.158441
0.156531
0.154957
0.15371
0.152811
0.152376
0.152526
0.161499
0.172231
0.184951
0.199976
0.217732
0.238777
0.263836
0.293844
0.329991
0.373777
0.427205
0.492487
0.571291
0.663826
0.76718
0.873814
0.972338
1.05205
1.10831
1.14345
1.16339
1.17388
1.17911
1.18164
1.18283
1.18338
1.18363
1.18374
1.18379
1.18381
1.18381
1.18382
1.18382
1.18382
1.18382
1.18382
1.18382
1.18382
0.658526
0.6585
0.658457
0.658383
0.658262
0.65806
0.657728
0.65719
0.656325
0.654958
0.652834
0.649599
0.644794
0.63786
0.628193
0.615243
0.598665
0.578466
0.555092
0.529391
0.502443
0.475342
0.44901
0.4241
0.400987
0.379822
0.36059
0.343183
0.32744
0.313187
0.300248
0.288463
0.277692
0.267814
0.258727
0.250345
0.242558
0.235291
0.22849
0.22211
0.216112
0.210464
0.205137
0.200108
0.195359
0.190871
0.186633
0.182632
0.178861
0.175313
0.171984
0.168872
0.165978
0.163305
0.16086
0.158657
0.156717
0.155098
0.153813
0.152866
0.152391
0.152526
0.160246
0.170498
0.18274
0.19725
0.214422
0.234782
0.259019
0.288031
0.322962
0.365258
0.416843
0.479965
0.556465
0.646933
0.749126
0.856281
0.95732
1.04089
1.10106
1.13925
1.16116
1.17276
1.17858
1.18139
1.18272
1.18333
1.1836
1.18373
1.18378
1.1838
1.18381
1.18382
1.18382
1.18382
1.18382
1.18382
1.18382
1.18382
0.658526
0.6585
0.658457
0.658384
0.658262
0.658061
0.657731
0.657194
0.656331
0.654967
0.652847
0.649619
0.644821
0.637897
0.628242
0.615305
0.598739
0.578551
0.555188
0.529494
0.502551
0.475455
0.449128
0.424222
0.401115
0.379955
0.36073
0.343331
0.327597
0.313352
0.300422
0.288648
0.277887
0.268019
0.258942
0.25057
0.242795
0.235539
0.228749
0.22238
0.216393
0.210754
0.205437
0.200416
0.195674
0.191192
0.186958
0.182961
0.179191
0.175643
0.172311
0.169193
0.166291
0.163606
0.161148
0.158927
0.156964
0.155314
0.154006
0.153037
0.152533
0.15262
0.158323
0.168294
0.180161
0.194203
0.210801
0.230458
0.253838
0.281798
0.31544
0.356154
0.405774
0.466562
0.540527
0.62863
0.729324
0.836717