/*--------------------------------*- C++ -*----------------------------------*\
  =========                 |
  \\      /  F ield         | OpenFOAM: The Open Source CFD Toolbox
   \\    /   O peration     | Website:  https://openfoam.org
    \\  /    A nd           | Version:  8
     \\/     M anipulation  |
\*---------------------------------------------------------------------------*/
FoamFile
{
    version     2.0;
    format      ascii;
    class       volScalarField;
    location    "380/fluid";
    object      T;
}
// * * * * * * * * * * * * * * * * * * * * * * * * * * * * * * * * * * * * * //

dimensions      [0 0 0 1 0 0 0];

internalField   nonuniform List<scalar> 
4000
(
293.004
293.016
293.036
293.07
293.126
293.22
293.374
293.625
294.03
294.677
295.696
297.273
299.671
303.236
308.402
315.677
325.592
338.64
355.191
375.446
399.384
426.794
457.342
490.64
526.302
563.986
603.409
644.351
686.643
730.157
774.792
820.462
867.082
914.561
962.795
1011.67
1061.21
1111.38
1162.09
1213.26
1264.77
1316.54
1368.46
1420.42
1472.31
1524
1575.39
1626.33
1676.68
1726.3
1775.03
1822.68
1869.06
1913.95
1957.06
1998.09
2036.64
2072.23
2103.63
2130.54
2152.72
2168.08
2174.71
2111.14
1998.56
1879.38
1755.64
1629.07
1501.14
1373.18
1246.39
1121.96
1001.06
884.837
774.277
671.116
577.695
496.447
429.553
378.307
342.384
319.561
306.388
299.416
295.976
294.346
293.597
293.26
293.112
293.048
293.02
293.008
293.003
293.001
293.001
293
293
293
293
293
293.004
293.016
293.036
293.071
293.128
293.223
293.38
293.635
294.048
294.705
295.739
297.335
299.755
303.341
308.52
315.789
325.67
338.648
355.092
375.189
398.935
426.148
456.515
489.657
525.198
562.796
602.17
643.096
685.402
728.958
773.658
819.412
866.134
913.732
962.101
1011.13
1060.83
1111.17
1162.05
1213.39
1265.08
1317.02
1369.12
1421.26
1473.32
1525.19
1576.75
1627.85
1678.35
1728.12
1776.97
1824.74
1871.22
1916.18
1959.34
2000.39
2038.94
2074.49
2105.71
2132.56
2154.66
2169.89
2176.24
2098.41
1985.24
1865.27
1740.63
1613.12
1484.28
1355.46
1227.91
1102.86
981.541
865.111
754.699
652.299
560.391
481.469
417.596
369.698
336.888
316.468
304.84
298.708
295.671
294.22
293.546
293.241
293.104
293.045
293.019
293.008
293.003
293.001
293.001
293
293
293
293
293
293.004
293.016
293.037
293.072
293.13
293.227
293.387
293.647
294.066
294.733
295.78
297.394
299.834
303.44
308.636
315.91
325.779
338.717
355.092
375.094
398.723
425.797
456.014
489.01
524.418
561.907
601.198
642.072
684.357
727.924
772.668
818.5
865.332
913.071
961.603
1010.8
1060.68
1111.21
1162.31
1213.88
1265.82
1318.03
1370.4
1422.81
1475.15
1527.3
1579.12
1630.48
1681.24
1731.24
1780.31
1828.26
1874.89
1919.96
1963.18
2004.21
2042.64
2077.96
2108.76
2135.83
2157.43
2172.2
2178.1
2078.85
1964.7
1843.35
1717.3
1588.52
1458.63
1329.04
1201.03
1075.89
954.94
839.288
730.277
630.094
541.225
466.006
406.141
362.027
332.28
313.97
303.6
298.129
295.411
294.107
293.498
293.22
293.096
293.041
293.018
293.007
293.003
293.001
293.001
293
293
293
293
293
293.004
293.016
293.037
293.073
293.132
293.23
293.391
293.653
294.076
294.748
295.801
297.423
299.871
303.485
308.685
315.958
325.813
338.723
355.052
374.988
398.535
425.521
455.649
488.562
523.898
561.331
600.587
641.445
683.738
727.339
772.141
818.052
864.982
912.83
961.494
1010.86
1060.94
1111.7
1163.05
1214.89
1267.11
1319.62
1372.29
1425.02
1477.69
1530.15
1582.3
1633.97
1685.02
1735.3
1784.62
1832.79
1879.59
1924.77
1968.02
2008.99
2047.23
2082.09
2112.16
2138.24
2158.31
2171.02
2174.4
2063
1943.79
1819.02
1690.61
1560.21
1429.27
1299.13
1171.07
1046.37
926.353
812.08
705.084
607.651
522.188
450.839
394.962
354.508
327.692
311.418
302.289
297.498
295.119
293.976
293.441
293.196
293.086
293.037
293.016
293.007
293.003
293.001
293
293
293
293
293
293
293.004
293.016
293.038
293.073
293.133
293.231
293.394
293.658
294.084
294.76
295.818
297.447
299.903
303.524
308.731
316.006
325.856
338.751
355.051
374.953
398.458
425.396
455.477
488.347
523.65
561.061
600.308
641.174
683.49
727.125
771.977
817.961
864.991
912.976
961.806
1011.36
1061.65
1112.65
1164.26
1216.38
1268.9
1321.71
1374.71
1427.76
1480.76
1533.57
1586.04
1638.04
1689.4
1739.96
1789.54
1837.93
1884.91
1930.19
1973.45
2014.3
2052.23
2086.22
2115.33
2139.76
2156.97
2164.43
2157.06
2041.42
1919.02
1791.88
1661.78
1530.25
1398.7
1268.43
1140.71
1016.84
898.099
785.537
680.875
586.429
504.504
437.021
384.991
347.941
323.758
309.258
301.187
296.966
294.872
293.864
293.391
293.174
293.076
293.033
293.014
293.006
293.003
293.001
293
293
293
293
293
293
293.004
293.016
293.038
293.074
293.134
293.233
293.396
293.661
294.088
294.767
295.829
297.461
299.921
303.548
308.759
316.035
325.884
338.773
355.062
374.947
398.435
425.356
455.42
488.278
523.573
560.985
600.243
641.132
683.49
727.189
772.129
818.222
865.383
913.518
962.519
1012.27
1062.77
1114.01
1165.87
1218.26
1271.07
1324.19
1377.5
1430.89
1484.21
1537.34
1590.14
1642.45
1694.11
1744.95
1794.79
1843.39
1890.54
1935.94
1979.28
2020.13
2057.99
2091.75
2120.62
2144.8
2161.87
2169.89
2131.5
2014.82
1891.27
1763.12
1632.23
1500.23
1368.56
1238.54
1111.48
988.692
871.391
760.683
658.445
566.983
488.482
424.645
376.151
342.161
320.302
307.352
300.204
296.488
294.646
293.761
293.345
293.154
293.068
293.029
293.013
293.005
293.002
293.001
293
293
293
293
293
293
293.004
293.017
293.038
293.074
293.134
293.234
293.397
293.664
294.092
294.773
295.837
297.473
299.938
303.57
308.787
316.07
325.924
338.816
355.107
374.992
398.478
425.398
455.466
488.333
523.646
561.086
600.384
641.327
683.753
727.534
772.573
818.782
866.078
914.366
963.538
1013.48
1064.2
1115.66
1167.78
1220.43
1273.52
1326.93
1380.54
1434.23
1487.86
1541.3
1594.4
1647
1698.93
1750.02
1800.07
1848.87
1896.16
1941.66
1985.05
2025.89
2063.7
2097.22
2125.83
2149.8
2166.76
2174.76
2104.97
1987.86
1863.73
1735.03
1603.76
1471.61
1340.07
1210.51
1084.26
962.654
846.819
737.974
638.125
549.531
474.258
413.793
368.505
337.228
317.384
305.755
299.385
296.088
294.458
293.674
293.306
293.137
293.06
293.026
293.011
293.005
293.002
293.001
293
293
293
293
293
293
293.004
293.017
293.038
293.074
293.135
293.234
293.399
293.666
294.095
294.778
295.844
297.483
299.953
303.59
308.814
316.106
325.97
338.874
355.178
375.078
398.581
425.521
455.613
488.51
523.859
561.344
600.696
641.705
684.208
728.081
773.225
819.555
866.987
915.429
964.77
1014.89
1065.82
1117.51
1169.86
1222.77
1276.12
1329.8
1383.69
1437.66
1491.57
1545.28
1598.65
1651.5
1703.67
1754.96
1805.19
1854.12
1901.49
1947.03
1990.38
2031.13
2068.7
2101.83
2130.18
2153.88
2170.44
2177.6
2081.15
1963.49
1838.65
1709.33
1577.65
1445.37
1314.01
1184.95
1059.53
939.082
824.664
717.619
620.034
534.116
461.809
404.395
361.954
333.041
314.925
304.413
298.695
295.751
294.298
293.6
293.272
293.122
293.054
293.023
293.01
293.004
293.002
293.001
293
293
293
293
293
293
293.004
293.017
293.038
293.074
293.135
293.235
293.4
293.667
294.098
294.782
295.851
297.493
299.967
303.611
308.844
316.147
326.025
338.947
355.272
375.197
398.728
425.7
455.829
488.767
524.165
561.705
601.122
642.204
684.791
728.759
774.012
820.465
868.033
916.624
966.129
1016.43
1067.55
1119.45
1172.02
1225.16
1278.75
1332.68
1386.82
1441.05
1495.21
1549.17
1602.76
1655.83
1708.18
1759.64
1809.99
1858.99
1906.38
1951.86
1995.06
2035.55
2072.81
2105.35
2133.22
2156.26
2172.22
2179.07
2066.24
1944.89
1817.74
1687
1554.53
1421.94
1290.66
1162.05
1037.41
918.044
804.949
699.593
604.105
520.635
451.016
396.327
356.391
329.521
312.873
303.299
298.123
295.472
294.165
293.539
293.245
293.109
293.048
293.021
293.009
293.004
293.002
293.001
293
293
293
293
293
293
293.004
293.017
293.038
293.075
293.135
293.236
293.401
293.669
294.101
294.786
295.857
297.503
299.982
303.633
308.875
316.192
326.087
339.031
355.383
375.338
398.905
425.917
456.091
489.079
524.532
562.133
601.618
642.778
685.451
729.516
774.877
821.449
869.149
917.884
967.543
1018.01
1069.32
1121.41
1174.18
1227.53
1281.34
1335.49
1389.86
1444.31
1498.69
1552.85
1606.64
1659.89
1712.4
1763.98
1814.4
1863.43
1910.78
1956.12
1999.07
2039.14
2075.68
2107.03
2134.21
2154.96
2167.53
2169.16
2052.15
1927.94
1798.88
1666.93
1533.81
1400.99
1269.84
1141.68
1017.79
899.415
787.544
683.746
590.179
508.931
441.719
389.442
351.689
326.573
311.166
302.375
297.651
295.24
294.056
293.488
293.221
293.099
293.044
293.019
293.008
293.003
293.001
293.001
293
293
293
293
293
293
293.004
293.017
293.038
293.075
293.136
293.236
293.401
293.67
294.103
294.79
295.863
297.512
299.996
303.655
308.908
316.239
326.154
339.122
355.504
375.494
399.1
426.158
456.38
489.421
524.932
562.597
602.152
643.389
686.147
730.307
775.771
822.457
870.281
919.15
968.952
1019.57
1071.05
1123.31
1176.27
1229.81
1283.82
1338.16
1392.73
1447.37
1501.94
1556.28
1610.24
1663.63
1716.27
1767.94
1818.42
1867.46
1914.76
1959.99
2002.72
2042.45
2078.24
2108.81
2134.86
2153.74
2163.26
2156.29
2037.08
1911.29
1781.14
1648.52
1515.07
1382.22
1251.32
1123.64
1000.47
883.016
772.26
669.894
578.07
498.822
433.754
383.596
347.734
324.113
309.75
301.613
297.261
295.05
293.965
293.446
293.202
293.09
293.04
293.017
293.007
293.003
293.001
293.001
293
293
293
293
293
293
293.004
293.017
293.039
293.075
293.136
293.237
293.402
293.672
294.105
294.793
295.869
297.522
300.011
303.678
308.942
316.288
326.223
339.217
355.63
375.657
399.305
426.408
456.68
489.775
525.344
563.072
602.695
644.006
686.846
731.094
776.656
823.448
871.386
920.377
970.309
1021.07
1072.69
1125.12
1178.24
1231.94
1286.12
1340.64
1395.37
1450.18
1504.91
1559.41
1613.51
1667.02
1719.76
1771.51
1822.04
1871.1
1918.38
1963.54
2006.18
2045.77
2081.37
2111.79
2137.79
2156.94
2167.4
2141.55
2021.55
1895.13
1764.55
1631.7
1498.21
1365.51
1234.94
1107.78
985.32
868.712
758.995
657.924
567.651
490.163
426.975
378.66
344.422
322.068
308.581
300.985
296.941
294.894
293.891
293.411
293.187
293.083
293.037
293.016
293.007
293.003
293.001
293.001
293
293
293
293
293
293
293.004
293.017
293.039
293.075
293.136
293.237
293.403
293.673
294.107
294.797
295.875
297.531
300.026
303.7
308.975
316.337
326.292
339.311
355.755
375.819
399.508
426.656
456.976
490.124
525.749
563.536
603.223
644.604
687.519
731.849
777.499
824.387
872.428
921.529
971.577
1022.46
1074.22
1126.78
1180.04
1233.89
1288.22
1342.88
1397.76
1452.71
1507.58
1562.2
1616.41
1670.03
1722.85
1774.66
1825.23
1874.3
1921.57
1966.7
2009.27
2048.79
2084.3
2114.63
2140.63
2159.88
2170.64
2127.2
2006.93
1880.29
1749.58
1616.71
1483.31
1350.84
1220.64
1093.99
972.199
856.37
747.571
647.653
558.753
482.812
421.256
374.523
341.667
320.378
307.619
300.471
296.68
294.766
293.83
293.383
293.174
293.078
293.034
293.015
293.006
293.003
293.001
293
293
293
293
293
293
293
293.004
293.017
293.039
293.075
293.136
293.238
293.404
293.674
294.11
294.8
295.881
297.54
300.04
303.721
309.007
316.383
326.358
339.402
355.875
375.974
399.702
426.892
457.259
490.454
526.131
563.973
603.718
645.161
688.144
732.548
778.277
825.249
873.381
922.578
972.727
1023.72
1075.59
1128.27
1181.65
1235.63
1290.07
1344.87
1399.87
1454.93
1509.91
1564.64
1618.94
1672.63
1725.51
1777.37
1827.96
1877.03
1924.28
1969.36
2011.87
2051.29
2086.65
2116.87
2142.78
2161.95
2172.65
2114.92
1994.24
1867.37
1736.56
1603.7
1470.44
1338.22
1208.38
1082.22
961.027
845.867
737.872
638.956
551.244
476.636
416.477
371.09
339.394
318.993
306.834
300.052
296.467
294.663
293.781
293.36
293.163
293.073
293.032
293.014
293.006
293.003
293.001
293
293
293
293
293
293
293
293.004
293.017
293.039
293.075
293.137
293.238
293.404
293.676
294.111
294.804
295.886
297.548
300.052
303.741
309.036
316.426
326.418
339.485
355.986
376.116
399.879
427.108
457.516
490.755
526.477
564.368
604.165
645.663
688.705
733.172
778.969
826.014
874.224
923.503
973.736
1024.82
1076.78
1129.56
1183.05
1237.12
1291.67
1346.57
1401.67
1456.82
1511.89
1566.7
1621.07
1674.81
1727.74
1779.62
1830.22
1879.28
1926.49
1971.52
2013.93
2053.25
2088.49
2118.61
2144.41
2163.48
2174.09
2104.57
1983.52
1856.43
1725.55
1592.74
1459.62
1327.63
1198.11
1072.36
951.668
837.083
729.778
631.716
545.012
471.529
412.544
368.279
337.544
317.869
306.2
299.715
296.296
294.579
293.741
293.342
293.155
293.069
293.031
293.013
293.006
293.002
293.001
293
293
293
293
293
293
293
293.004
293.017
293.039
293.076
293.137
293.238
293.405
293.677
294.113
294.806
295.89
297.555
300.064
303.758
309.062
316.463
326.472
339.558
356.083
376.24
400.035
427.297
457.74
491.017
526.778
564.71
604.551
646.096
689.187
733.707
779.561
826.667
874.941
924.286
974.589
1025.74
1077.79
1130.65
1184.21
1238.37
1293
1347.97
1403.15
1458.38
1513.51
1568.38
1622.8
1676.58
1729.53
1781.42
1832.01
1881.05
1928.21
1973.16
2015.51
2054.75
2089.87
2119.87
2145.56
2164.55
2175.05
2096.27
1974.8
1847.49
1716.52
1583.73
1450.73
1318.93
1189.69
1064.28
944.019
829.913
723.184
625.83
539.958
467.4
409.376
366.024
336.065
316.976
305.697
299.448
296.161
294.513
293.71
293.327
293.148
293.066
293.029
293.013
293.005
293.002
293.001
293
293
293
293
293
293
293
293.004
293.017
293.039
293.076
293.137
293.239
293.406
293.677
294.115
294.809
295.894
297.561
300.073
303.772
309.084
316.495
326.516
339.618
356.163
376.344
400.164
427.454
457.926
491.233
527.027
564.992
604.868
646.45
689.581
734.144
780.043
827.196
875.52
924.919
975.276
1026.49
1078.59
1131.51
1185.14
1239.36
1294.05
1349.08
1404.31
1459.6
1514.78
1569.68
1624.13
1677.93
1730.89
1782.78
1833.35
1882.34
1929.46
1974.36
2016.64
2055.79
2090.79
2120.7
2146.32
2165.27
2175.7
2089.84
1967.96
1840.43
1709.37
1576.59
1443.67
1312.04
1183.02
1057.91
937.985
824.267
717.999
621.212
536.003
464.178
406.912
364.275
334.922
316.286
305.309
299.242
296.057
294.463
293.686
293.316
293.143
293.064
293.028
293.012
293.005
293.002
293.001
293
293
293
293
293
293
293
293.004
293.017
293.039
293.076
293.137
293.239
293.406
293.678
294.116
294.81
295.897
297.566
300.08
303.783
309.1
316.519
326.55
339.665
356.225
376.423
400.263
427.574
458.068
491.399
527.217
565.207
605.11
646.72
689.881
734.475
780.408
827.596
875.957
925.393
975.789
1027.04
1079.19
1132.15
1185.82
1240.09
1294.82
1349.89
1405.16
1460.48
1515.69
1570.61
1625.08
1678.89
1731.84
1783.71
1834.25
1883.21
1930.29
1975.13
2017.33
2056.41
2091.33
2121.19
2146.8
2165.82
2176.4
2085.23
1962.91
1835.13
1703.98
1571.21
1438.37
1306.87
1178.03
1053.14
933.49
820.067
714.153
617.793
533.082
461.806
405.104
362.996
334.088
315.783
305.026
299.092
295.981
294.426
293.669
293.308
293.14
293.062
293.027
293.012
293.005
293.002
293.001
293
293
293
293
293
293
293
293.004
293.017
293.039
293.076
293.137
293.239
293.406
293.678
294.116
294.812
295.899
297.569
300.085
303.791
309.111
316.535
326.573
339.696
356.267
376.477
400.329
427.655
458.164
491.511
527.344
565.352
605.273
646.902
690.082
734.697
780.652
827.863
876.248
925.708
976.128
1027.4
1079.58
1132.57
1186.27
1240.56
1295.32
1350.41
1405.7
1461.04
1516.26
1571.19
1625.66
1679.47
1732.41
1784.26
1834.78
1883.7
1930.72
1975.5
2017.64
2056.66
2091.54
2121.39
2147.04
2166.21
2177.07
2082.06
1959.42
1831.49
1700.28
1567.53
1434.76
1303.37
1174.67
1049.95
930.482
817.268
711.597
615.529
531.154
460.247
403.921
362.163
333.546
315.457
304.842
298.994
295.932
294.402
293.657
293.303
293.137
293.061
293.027
293.012
293.005
293.002
293.001
293
293
293
293
293
293
293
293.004
293.017
293.039
293.076
293.137
293.239
293.406
293.679
294.117
294.812
295.899
297.57
300.087
303.794
309.116
316.542
326.584
339.712
356.287
376.503
400.362
427.694
458.211
491.565
527.407
565.423
605.353
646.991
690.181
734.806
780.772
827.995
876.39
925.862
976.294
1027.58
1079.76
1132.77
1186.48
1240.78
1295.55
1350.66
1405.96
1461.3
1516.52
1571.46
1625.92
1679.72
1732.65
1784.49
1834.98
1883.87
1930.85
1975.59
2017.68
2056.65
2091.48
2121.29
2146.93
2166.14
2177.11
2080.43
1957.57
1829.54
1698.32
1565.6
1432.89
1301.57
1172.96
1048.34
928.98
815.881
710.341
614.425
530.221
459.497
403.356
361.769
333.292
315.305
304.757
298.949
295.909
294.391
293.652
293.3
293.136
293.061
293.027
293.012
293.005
293.002
293.001
293
293
293
293
293
293
293
293.004
293.017
293.039
293.076
293.137
293.239
293.406
293.679
294.117
294.812
295.899
297.57
300.087
303.794
309.117
316.543
326.584
339.712
356.288
376.504
400.363
427.695
458.212
491.566
527.409
565.425
605.354
646.992
690.183
734.808
780.774
827.997
876.392
925.864
976.296
1027.58
1079.77
1132.77
1186.48
1240.78
1295.55
1350.66
1405.96
1461.3
1516.53
1571.46
1625.93
1679.73
1732.66
1784.49
1834.98
1883.87
1930.86
1975.59
2017.68
2056.65
2091.48
2121.29
2146.93
2166.14
2177.11
2080.42
1957.56
1829.54
1698.31
1565.59
1432.88
1301.57
1172.95
1048.33
928.976
815.877
710.338
614.422
530.219
459.495
403.354
361.768
333.292
315.304
304.757
298.949
295.909
294.391
293.652
293.3
293.136
293.061
293.027
293.012
293.005
293.002
293.001
293
293
293
293
293
293
293
293.004
293.017
293.039
293.076
293.137
293.239
293.406
293.678
294.116
294.812
295.899
297.569
300.085
303.791
309.112
316.536
326.574
339.698
356.269
376.479
400.332
427.658
458.168
491.515
527.349
565.357
605.278
646.907
690.088
734.703
780.657
827.869
876.254
925.714
976.134
1027.41
1079.58
1132.57
1186.27
1240.57
1295.33
1350.42
1405.71
1461.05
1516.27
1571.2
1625.67
1679.48
1732.42
1784.27
1834.79
1883.71
1930.73
1975.51
2017.65
2056.67
2091.54
2121.39
2147.04
2166.2
2177.07
2082.04
1959.4
1831.47
1700.26
1567.51
1434.74
1303.35
1174.65
1049.93
930.469
817.256
711.586
615.52
531.146
460.24
403.916
362.16
333.544
315.455
304.842
298.994
295.932
294.402
293.657
293.303
293.137
293.061
293.027
293.012
293.005
293.002
293.001
293
293
293
293
293
293
293
293.004
293.017
293.039
293.076
293.137
293.239
293.406
293.678
294.116
294.81
295.897
297.566
300.081
303.784
309.101
316.52
326.552
339.668
356.229
376.428
400.268
427.58
458.075
491.406
527.224
565.215
605.119
646.729
689.89
734.484
780.417
827.607
875.968
925.404
975.8
1027.05
1079.2
1132.16
1185.83
1240.1
1294.84
1349.91
1405.18
1460.49
1515.7
1570.63
1625.09
1678.9
1731.85
1783.72
1834.27
1883.23
1930.3
1975.14
2017.34
2056.42
2091.34
2121.2
2146.81
2165.82
2176.4
2085.2
1962.87
1835.1
1703.95
1571.18
1438.34
1306.84
1178.01
1053.12
933.467
820.047
714.134
617.776
533.068
461.795
405.096
362.99
334.084
315.78
305.025
299.091
295.981
294.426
293.668
293.308
293.14
293.062
293.027
293.012
293.005
293.002
293.001
293
293
293
293
293
293
293
293.004
293.017
293.039
293.076
293.137
293.239
293.406
293.677
294.115
294.809
295.894
297.562
300.074
303.773
309.085
316.497
326.519
339.622
356.168
376.35
400.171
427.462
457.935
491.243
527.037
565.003
604.88
646.462
689.594
734.157
780.057
827.211
875.535
924.934
975.291
1026.5
1078.61
1131.53
1185.16
1239.38
1294.07
1349.1
1404.33
1459.62
1514.79
1569.7
1624.15
1677.95
1730.91
1782.79
1833.37
1882.36
1929.48
1974.38
2016.65
2055.81
2090.8
2120.72
2146.33
2165.28
2175.7
2089.79
1967.91
1840.38
1709.32
1576.55
1443.63
1312
1182.99
1057.87
937.954
824.237
717.973
621.188
535.983
464.162
406.9
364.267
334.916
316.282
305.307
299.241
296.056
294.462
293.686
293.316
293.143
293.064
293.028
293.012
293.005
293.002
293.001
293
293
293
293
293
293
293
293.004
293.017
293.039
293.076
293.137
293.238
293.405
293.677
294.113
294.807
295.89
297.556
300.065
303.759
309.064
316.466
326.475
339.563
356.089
376.248
400.044
427.308
457.752
491.029
526.792
564.725
604.566
646.111
689.204
733.724
779.579
826.685
874.96
924.306
974.61
1025.76
1077.81
1130.67
1184.23
1238.39
1293.03
1348
1403.17
1458.41
1513.54
1568.4
1622.82
1676.6
1729.55
1781.44
1832.04
1881.07
1928.23
1973.18
2015.52
2054.77
2089.88
2119.88
2145.57
2164.56
2175.06
2096.21
1974.74
1847.43
1716.46
1583.68
1450.68
1318.88
1189.64
1064.24
943.977
829.875
723.149
625.799
539.931
467.378
409.36
366.012
336.058
316.971
305.695
299.447
296.16
294.513
293.71
293.327
293.148
293.066
293.029
293.013
293.005
293.002
293.001
293
293
293
293
293
293
293
293.004
293.017
293.039
293.075
293.137
293.238
293.405
293.676
294.112
294.804
295.886
297.549
300.054
303.742
309.039
316.429
326.423
339.491
355.993
376.125
399.89
427.121
457.53
490.77
526.494
564.385
604.183
645.682
688.725
733.193
778.991
826.037
874.248
923.527
973.761
1024.84
1076.81
1129.59
1183.07
1237.15
1291.7
1346.6
1401.7
1456.85
1511.92
1566.73
1621.1
1674.84
1727.77
1779.65
1830.25
1879.31
1926.52
1971.54
2013.95
2053.27
2088.51
2118.63
2144.42
2163.49
2174.1
2104.5
1983.44
1856.36
1725.48
1592.67
1459.55
1327.57
1198.05
1072.3
951.616
837.035
729.734
631.677
544.979
471.501
412.523
368.264
337.534
317.864
306.197
299.713
296.295
294.579
293.741
293.342
293.155
293.069
293.031
293.013
293.006
293.002
293.001
293
293
293
293
293
293
293
293.004
293.017
293.039
293.075
293.136
293.238
293.404
293.674
294.11
294.801
295.881
297.541
300.041
303.723
309.01
316.387
326.363
339.409
355.884
375.985
399.714
426.907
457.275
490.472
526.15
563.993
603.74
645.184
688.168
732.573
778.303
825.276
873.409
922.607
972.757
1023.75
1075.62
1128.3
1181.69
1235.66
1290.11
1344.9
1399.9
1454.97
1509.95
1564.67
1618.97
1672.66
1725.55
1777.4
1828
1877.07
1924.31
1969.39
2011.9
2051.31
2086.67
2116.89
2142.79
2161.96
2172.66
2114.83
1994.15
1867.28
1736.47
1603.61
1470.36
1338.14
1208.31
1082.15
960.962
845.807
737.817
638.908
551.203
476.602
416.452
371.072
339.382
318.985
306.83
300.05
296.466
294.662
293.781
293.36
293.163
293.073
293.032
293.014
293.006
293.003
293.001
293
293
293
293
293
293
293
293.004
293.017
293.039
293.075
293.136
293.237
293.403
293.673
294.108
294.797
295.876
297.532
300.027
303.702
308.979
316.341
326.298
339.319
355.765
375.831
399.522
426.673
456.995
490.144
525.771
563.56
603.249
644.63
687.547
731.878
777.53
824.418
872.461
921.563
971.612
1022.5
1074.25
1126.82
1180.08
1233.93
1288.26
1342.93
1397.81
1452.75
1507.62
1562.25
1616.46
1670.07
1722.89
1774.7
1825.27
1874.34
1921.61
1966.73
2009.31
2048.82
2084.33
2114.66
2140.65
2159.9
2170.65
2127.1
2006.82
1880.18
1749.47
1616.61
1483.21
1350.75
1220.55
1093.91
972.123
856.299
747.506
647.595
558.703
482.771
421.224
374.501
341.652
320.37
307.614
300.468
296.678
294.766
293.83
293.383
293.174
293.078
293.034
293.015
293.006
293.003
293.001
293
293
293
293
293
293
293
293.004
293.017
293.039
293.075
293.136
293.237
293.402
293.672
294.106
294.794
295.87
297.523
300.013
303.68
308.946
316.293
326.23
339.226
355.641
375.671
399.321
426.427
456.701
489.798
525.369
563.099
602.724
644.036
686.877
731.127
776.69
823.483
871.423
920.416
970.349
1021.11
1072.73
1125.16
1178.28
1231.99
1286.17
1340.69
1395.42
1450.23
1504.96
1559.46
1613.56
1667.07
1719.81
1771.56
1822.09
1871.14
1918.42
1963.58
2006.22
2045.81
2081.4
2111.82
2137.82
2156.97
2167.44
2141.43
2021.43
1895.01
1764.44
1631.59
1498.1
1365.4
1234.84
1107.68
985.231
868.629
758.919
657.856
567.592
490.114
426.937
378.633
344.405
322.057
308.575
300.982
296.94
294.893
293.891
293.411
293.187
293.083
293.037
293.016
293.007
293.003
293.001
293.001
293
293
293
293
293
293
293.004
293.017
293.038
293.075
293.136
293.236
293.402
293.671
294.103
294.79
295.864
297.514
299.998
303.658
308.912
316.245
326.162
339.132
355.516
375.51
399.119
426.179
456.403
489.447
524.96
562.628
602.184
643.423
686.183
730.344
775.81
822.498
870.323
919.193
968.997
1019.62
1071.09
1123.36
1176.32
1229.86
1283.87
1338.22
1392.78
1447.42
1501.99
1556.34
1610.3
1663.69
1716.32
1767.99
1818.47
1867.51
1914.81
1960.03
2002.76
2042.49
2078.28
2108.85
2134.89
2153.76
2163.27
2156.16
2036.96
1911.16
1781.01
1648.4
1514.95
1382.1
1251.2
1123.53
1000.37
882.922
772.173
669.815
578.002
498.765
433.71
383.564
347.713
324.1
309.743
301.609
297.259
295.049
293.965
293.446
293.202
293.09
293.04
293.017
293.007
293.003
293.001
293.001
293
293
293
293
293
293
293.004
293.017
293.038
293.075
293.135
293.236
293.401
293.669
294.101
294.786
295.858
297.504
299.984
303.636
308.88
316.198
326.096
339.042
355.397
375.356
398.925
425.941
456.117
489.108
524.563
562.167
601.654
642.816
685.491
729.558
774.921
821.494
869.196
917.932
967.593
1018.06
1069.37
1121.46
1174.24
1227.59
1281.4
1335.55
1389.92
1444.37
1498.75
1552.92
1606.71
1659.95
1712.46
1764.03
1814.46
1863.48
1910.83
1956.17
1999.12
2039.18
2075.71
2107.05
2134.23
2154.95
2167.48
2169.06
2052.04
1927.82
1798.75
1666.81
1533.68
1400.86
1269.72
1141.56
1017.68
899.31
787.446
683.657
590.101
508.866
441.668
389.404
351.664
326.557
311.157
302.371
297.648
295.239
294.055
293.488
293.221
293.099
293.044
293.019
293.008
293.003
293.001
293.001
293
293
293
293
293
293
293.004
293.017
293.038
293.075
293.135
293.235
293.4
293.668
294.098
294.782
295.852
297.495
299.969
303.615
308.849
316.154
326.035
338.959
355.288
375.216
398.75
425.726
455.858
488.799
524.2
561.742
601.161
642.246
684.835
728.805
774.06
820.515
868.085
916.678
966.185
1016.49
1067.61
1119.51
1172.09
1225.22
1278.82
1332.75
1386.89
1441.11
1495.28
1549.23
1602.83
1655.89
1708.25
1759.71
1810.05
1859.05
1906.44
1951.92
1995.11
2035.6
2072.85
2105.37
2133.23
2156.26
2172.2
2179.03
2066.15
1944.78
1817.61
1686.86
1554.39
1421.8
1290.53
1161.92
1037.29
917.927
804.84
699.494
604.017
520.561
450.956
396.283
356.361
329.503
312.863
303.293
298.121
295.47
294.165
293.538
293.245
293.109
293.048
293.021
293.009
293.004
293.002
293.001
293
293
293
293
293
293
293.004
293.017
293.038
293.074
293.135
293.235
293.399
293.666
294.096
294.778
295.845
297.485
299.955
303.594
308.82
316.113
325.98
338.887
355.195
375.099
398.605
425.549
455.645
488.544
523.897
561.384
600.739
641.751
684.256
728.131
773.277
819.61
867.045
915.488
964.831
1014.96
1065.89
1117.58
1169.93
1222.84
1276.19
1329.87
1383.76
1437.73
1491.65
1545.36
1598.72
1651.57
1703.74
1755.03
1805.26
1854.18
1901.56
1947.09
1990.44
2031.19
2068.75
2101.87
2130.22
2153.91
2170.46
2177.62
2081
1963.33
1838.49
1709.16
1577.49
1445.21
1313.86
1184.8
1059.39
938.952
824.542
717.507
619.935
534.03
461.741
404.343
361.919
333.019
314.912
304.406
298.691
295.749
294.297
293.6
293.272
293.122
293.054
293.023
293.01
293.004
293.002
293.001
293
293
293
293
293
293
293.004
293.017
293.038
293.074
293.134
293.234
293.397
293.664
294.093
294.774
295.838
297.475
299.941
303.574
308.793
316.078
325.935
338.831
355.125
375.014
398.504
425.429
455.5
488.37
523.687
561.13
600.431
641.377
683.805
727.589
772.63
818.842
866.14
914.431
963.605
1013.54
1064.27
1115.74
1167.85
1220.51
1273.6
1327.01
1380.62
1434.31
1487.95
1541.39
1594.48
1647.08
1699.01
1750.1
1800.15
1848.94
1896.23
1941.74
1985.12
2025.96
2063.76
2097.28
2125.88
2149.84
2166.8
2174.79
2104.8
1987.68
1863.55
1734.86
1603.59
1471.44
1339.91
1210.35
1084.11
962.51
846.684
737.849
638.013
549.434
474.179
413.733
368.463
337.202
317.37
305.748
299.381
296.086
294.457
293.673
293.306
293.136
293.06
293.026
293.011
293.005
293.002
293.001
293
293
293
293
293
293
293.004
293.016
293.038
293.074
293.134
293.233
293.396
293.662
294.089
294.768
295.83
297.463
299.924
303.552
308.765
316.044
325.896
338.788
355.082
374.972
398.464
425.389
455.458
488.319
523.618
561.033
600.294
641.187
683.546
727.248
772.191
818.287
865.45
913.588
962.591
1012.34
1062.85
1114.09
1165.96
1218.35
1271.16
1324.28
1377.59
1430.98
1484.3
1537.43
1590.23
1642.54
1694.2
1745.04
1794.87
1843.48
1890.62
1936.02
1979.35
2020.2
2058.06
2091.82
2120.69
2144.88
2161.98
2169.98
2131.28
2014.62
1891.07
1762.92
1632.04
1500.05
1368.38
1238.37
1111.31
988.531
871.24
760.542
658.318
566.872
488.39
424.575
376.102
342.13
320.284
307.342
300.2
296.485
294.645
293.76
293.345
293.154
293.068
293.029
293.013
293.005
293.002
293.001
293
293
293
293
293
293
293.004
293.016
293.038
293.073
293.133
293.232
293.394
293.658
294.084
294.761
295.82
297.449
299.906
303.529
308.738
316.016
325.869
338.767
355.072
374.979
398.488
425.431
455.516
488.39
523.697
561.112
600.362
641.232
683.552
727.189
772.045
818.031
865.064
913.052
961.884
1011.44
1061.74
1112.74
1164.35
1216.47
1268.99
1321.8
1374.8
1427.86
1480.86
1533.66
1586.14
1638.13
1689.5
1740.06
1789.63
1838.02
1884.99
1930.27
1973.53
2014.37
2052.29
2086.27
2115.36
2139.77
2156.92
2164.36
2156.84
2041.21
1918.81
1791.68
1661.57
1530.05
1398.51
1268.24
1140.53
1016.66
897.93
785.38
680.731
586.303
504.398
436.939
384.933
347.904
323.736
309.246
301.181
296.964
294.87
293.863
293.391
293.174
293.076
293.033
293.014
293.006
293.003
293.001
293
293
293
293
293
293
293.004
293.016
293.037
293.073
293.132
293.23
293.391
293.653
294.076
294.749
295.803
297.425
299.874
303.49
308.692
315.968
325.826
338.741
355.074
375.015
398.567
425.558
455.69
488.608
523.949
561.386
600.645
641.507
683.804
727.408
772.213
818.128
865.062
912.913
961.579
1010.95
1061.03
1111.79
1163.14
1214.99
1267.21
1319.72
1372.4
1425.13
1477.79
1530.26
1582.4
1634.07
1685.12
1735.4
1784.71
1832.88
1879.68
1924.85
1968.09
2009.06
2047.29
2082.13
2112.2
2138.26
2158.31
2170.96
2174.28
2062.84
1943.6
1818.82
1690.4
1559.99
1429.06
1298.92
1170.87
1046.18
926.167
811.904
704.922
607.507
522.067
450.742
394.892
354.462
327.665
311.404
302.283
297.495
295.117
293.975
293.44
293.196
293.086
293.037
293.016
293.007
293.003
293.001
293
293
293
293
293
293
293.004
293.016
293.037
293.072
293.13
293.227
293.387
293.647
294.066
294.734
295.782
297.397
299.838
303.445
308.643
315.921
325.793
338.736
355.116
375.124
398.757
425.837
456.06
489.061
524.473
561.966
601.261
642.138
684.428
727.999
772.746
818.581
865.417
913.159
961.694
1010.9
1060.78
1111.31
1162.42
1213.99
1265.93
1318.14
1370.51
1422.92
1475.26
1527.41
1579.23
1630.6
1681.35
1731.35
1780.41
1828.36
1874.98
1920.04
1963.25
2004.28
2042.7
2078.01
2108.8
2135.89
2157.48
2172.22
2178.11
2078.64
1964.47
1843.11
1717.06
1588.28
1458.4
1328.81
1200.81
1075.68
954.734
839.093
730.096
629.931
541.085
465.894
406.058
361.972
332.248
313.953
303.592
298.125
295.409
294.106
293.498
293.22
293.096
293.041
293.018
293.007
293.003
293.001
293.001
293
293
293
293
293
293.004
293.016
293.036
293.071
293.128
293.223
293.38
293.636
294.048
294.706
295.74
297.338
299.759
303.346
308.528
315.8
325.686
338.668
355.117
375.22
398.972
426.191
456.563
489.711
525.256
562.859
602.237
643.167