/*--------------------------------*- C++ -*----------------------------------*\
  =========                 |
  \\      /  F ield         | OpenFOAM: The Open Source CFD Toolbox
   \\    /   O peration     | Website:  https://openfoam.org
    \\  /    A nd           | Version:  8
     \\/     M anipulation  |
\*---------------------------------------------------------------------------*/
FoamFile
{
    version     2.0;
    format      ascii;
    class       volVectorField;
    location    "380/fluid";
    object      U;
}
// * * * * * * * * * * * * * * * * * * * * * * * * * * * * * * * * * * * * * //

dimensions      [0 1 -1 0 0 0 0];

internalField   nonuniform List<vector> 
4000
(
(0.0999501 -0.00688297 0)
(0.0996781 -0.0204832 0)
(0.0992392 -0.03397 0)
(0.0986331 -0.04738 0)
(0.0978526 -0.0607339 0)
(0.0968819 -0.0740361 0)
(0.0957023 -0.0872783 0)
(0.094296 -0.100443 0)
(0.0926488 -0.113506 0)
(0.0907528 -0.126441 0)
(0.0886088 -0.139224 0)
(0.0862307 -0.151836 0)
(0.0836476 -0.164267 0)
(0.0809089 -0.176512 0)
(0.0780864 -0.188578 0)
(0.0752572 -0.200532 0)
(0.0724785 -0.212427 0)
(0.069778 -0.2243 0)
(0.0671459 -0.236156 0)
(0.0645343 -0.247967 0)
(0.0618645 -0.259667 0)
(0.059042 -0.271164 0)
(0.0559751 -0.282351 0)
(0.052593 -0.293116 0)
(0.0488612 -0.303333 0)
(0.0447659 -0.31295 0)
(0.0403063 -0.321914 0)
(0.0354922 -0.330179 0)
(0.0303426 -0.337715 0)
(0.0248822 -0.344505 0)
(0.0191389 -0.350542 0)
(0.0131416 -0.355834 0)
(0.00691892 -0.360399 0)
(0.000499522 -0.364263 0)
(-0.00608712 -0.367461 0)
(-0.012814 -0.370029 0)
(-0.0196586 -0.37201 0)
(-0.0266005 -0.37345 0)
(-0.0336206 -0.374395 0)
(-0.040701 -0.37489 0)
(-0.0478249 -0.37498 0)
(-0.0549765 -0.37471 0)
(-0.0621407 -0.37412 0)
(-0.0693027 -0.373249 0)
(-0.0764478 -0.372134 0)
(-0.0835614 -0.370806 0)
(-0.0906282 -0.369297 0)
(-0.0976329 -0.367633 0)
(-0.104559 -0.365841 0)
(-0.111389 -0.363943 0)
(-0.118106 -0.361963 0)
(-0.124688 -0.359924 0)
(-0.131114 -0.357848 0)
(-0.137362 -0.355763 0)
(-0.143404 -0.353699 0)
(-0.149213 -0.351692 0)
(-0.154756 -0.349789 0)
(-0.159983 -0.348048 0)
(-0.164844 -0.346533 0)
(-0.169341 -0.345337 0)
(-0.173547 -0.344654 0)
(-0.17734 -0.344822 0)
(-0.179242 -0.346012 0)
(-0.177623 -0.347313 0)
(-0.172734 -0.347178 0)
(-0.166459 -0.34518 0)
(-0.159783 -0.341533 0)
(-0.152768 -0.336454 0)
(-0.145387 -0.330051 0)
(-0.137682 -0.322389 0)
(-0.129728 -0.313526 0)
(-0.121609 -0.303528 0)
(-0.113414 -0.292474 0)
(-0.105237 -0.280454 0)
(-0.0971943 -0.267569 0)
(-0.0894904 -0.253949 0)
(-0.0824319 -0.239802 0)
(-0.0763972 -0.225428 0)
(-0.0717866 -0.211253 0)
(-0.0689692 -0.197911 0)
(-0.0681342 -0.185778 0)
(-0.0691292 -0.174863 0)
(-0.0714993 -0.164871 0)
(-0.0746773 -0.1554 0)
(-0.078164 -0.14613 0)
(-0.0816087 -0.136857 0)
(-0.0847969 -0.127463 0)
(-0.0876183 -0.117923 0)
(-0.090053 -0.108309 0)
(-0.0921208 -0.0986575 0)
(-0.093856 -0.0890015 0)
(-0.0952965 -0.0793723 0)
(-0.0964791 -0.0697953 0)
(-0.0974386 -0.0602876 0)
(-0.098206 -0.0508578 0)
(-0.0988093 -0.0415084 0)
(-0.0992723 -0.0322334 0)
(-0.0996136 -0.0230123 0)
(-0.0998462 -0.0138142 0)
(-0.0999809 -0.00461366 0)
(0.0999997 -0.00648025 0)
(0.0998089 -0.0193801 0)
(0.0994151 -0.0321939 0)
(0.0987963 -0.044907 0)
(0.0979542 -0.0575065 0)
(0.0968848 -0.0699741 0)
(0.0955795 -0.0822849 0)
(0.0940307 -0.0944107 0)
(0.092236 -0.106322 0)
(0.0902014 -0.117992 0)
(0.0879442 -0.1294 0)
(0.0854953 -0.14054 0)
(0.0829009 -0.151431 0)
(0.0802218 -0.162129 0)
(0.0775291 -0.172723 0)
(0.07489 -0.183255 0)
(0.0723549 -0.193783 0)
(0.0699444 -0.204364 0)
(0.0676391 -0.215031 0)
(0.0653794 -0.225776 0)
(0.0630749 -0.236551 0)
(0.0606195 -0.247275 0)
(0.0579098 -0.257845 0)
(0.0548614 -0.268164 0)
(0.0514176 -0.278154 0)
(0.047554 -0.287684 0)
(0.0432662 -0.296654 0)
(0.0385664 -0.304993 0)
(0.0334788 -0.312655 0)
(0.0280346 -0.319614 0)
(0.0222685 -0.325861 0)
(0.0162156 -0.331398 0)
(0.00991005 -0.33624 0)
(0.00338333 -0.340412 0)
(-0.00333088 -0.343945 0)
(-0.0102031 -0.346874 0)
(-0.0172093 -0.349242 0)
(-0.0243255 -0.351092 0)
(-0.0315314 -0.352468 0)
(-0.0388083 -0.353414 0)
(-0.0461389 -0.353974 0)
(-0.0535074 -0.354189 0)
(-0.0608986 -0.354099 0)
(-0.0682981 -0.353742 0)
(-0.0756918 -0.353152 0)
(-0.0830657 -0.35236 0)
(-0.0904059 -0.351397 0)
(-0.097698 -0.350288 0)
(-0.104927 -0.349059 0)
(-0.112078 -0.347732 0)
(-0.119134 -0.34633 0)
(-0.126078 -0.344872 0)
(-0.132892 -0.343381 0)
(-0.139554 -0.341878 0)
(-0.146045 -0.340388 0)
(-0.152343 -0.338934 0)
(-0.158419 -0.337546 0)
(-0.16423 -0.336252 0)
(-0.169734 -0.335079 0)
(-0.174979 -0.334061 0)
(-0.180118 -0.333225 0)
(-0.185008 -0.332593 0)
(-0.18761 -0.332046 0)
(-0.185776 -0.330847 0)
(-0.180203 -0.328519 0)
(-0.173435 -0.325053 0)
(-0.166394 -0.320387 0)
(-0.159049 -0.314476 0)
(-0.151333 -0.307304 0)
(-0.143268 -0.298877 0)
(-0.134913 -0.289218 0)
(-0.126333 -0.278369 0)
(-0.117594 -0.266397 0)
(-0.108762 -0.253406 0)
(-0.099947 -0.239561 0)
(-0.0913782 -0.225132 0)
(-0.083423 -0.210551 0)
(-0.0765505 -0.196433 0)
(-0.0712668 -0.183434 0)
(-0.0679822 -0.171863 0)
(-0.0668284 -0.161819 0)
(-0.067565 -0.153074 0)
(-0.0696863 -0.145184 0)
(-0.0726298 -0.137701 0)
(-0.0759293 -0.130305 0)
(-0.0792659 -0.12283 0)
(-0.0824545 -0.115229 0)
(-0.0853961 -0.107464 0)
(-0.0880362 -0.0994605 0)
(-0.0903634 -0.0912392 0)
(-0.0923832 -0.0828412 0)
(-0.0941113 -0.0743096 0)
(-0.0955686 -0.0656831 0)
(-0.0967785 -0.0569936 0)
(-0.0977646 -0.0482654 0)
(-0.0985496 -0.0395174 0)
(-0.0991524 -0.0307613 0)
(-0.0995861 -0.021996 0)
(-0.0998592 -0.0132118 0)
(-0.0999949 -0.0044079 0)
(0.0999804 -0.0062212 0)
(0.099735 -0.018594 0)
(0.0992544 -0.0308787 0)
(0.098521 -0.0430577 0)
(0.0975384 -0.0551145 0)
(0.0963075 -0.0670294 0)
(0.0948274 -0.0787801 0)
(0.0931004 -0.0903436 0)
(0.0911352 -0.101699 0)
(0.0889497 -0.112828 0)
(0.0865726 -0.123721 0)
(0.0840461 -0.134378 0)
(0.0814251 -0.14481 0)
(0.0787733 -0.155046 0)
(0.0761553 -0.165132 0)
(0.0736309 -0.175129 0)
(0.0712479 -0.185105 0)
(0.0690258 -0.195123 0)
(0.0669446 -0.205219 0)
(0.0649426 -0.215392 0)
(0.0629251 -0.225602 0)
(0.0607814 -0.235778 0)
(0.0584027 -0.245822 0)
(0.055696 -0.255632 0)
(0.0525894 -0.265106 0)
(0.0490386 -0.274155 0)
(0.045029 -0.282704 0)
(0.0405678 -0.290694 0)
(0.0356772 -0.29808 0)
(0.0303883 -0.304833 0)
(0.0247361 -0.31094 0)
(0.0187574 -0.316399 0)
(0.0124882 -0.321218 0)
(0.00596321 -0.325415 0)
(-0.000783758 -0.329016 0)
(-0.00772136 -0.332052 0)
(-0.014822 -0.33456 0)
(-0.0220617 -0.336579 0)
(-0.0294191 -0.338149 0)
(-0.0368749 -0.339312 0)
(-0.0444113 -0.340107 0)
(-0.0520119 -0.340573 0)
(-0.0596615 -0.340747 0)
(-0.067346 -0.340664 0)
(-0.075052 -0.340356 0)
(-0.0827665 -0.339853 0)
(-0.0904768 -0.339183 0)
(-0.0981705 -0.338369 0)
(-0.105835 -0.337434 0)
(-0.113458 -0.336398 0)
(-0.121026 -0.33528 0)
(-0.128526 -0.334098 0)
(-0.135944 -0.332867 0)
(-0.143265 -0.331603 0)
(-0.150474 -0.33032 0)
(-0.157555 -0.329033 0)
(-0.164482 -0.32775 0)
(-0.171213 -0.326479 0)
(-0.177721 -0.325217 0)
(-0.184045 -0.323957 0)
(-0.190316 -0.322671 0)
(-0.196232 -0.3213 0)
(-0.19906 -0.319707 0)
(-0.196545 -0.317189 0)
(-0.190183 -0.313649 0)
(-0.182817 -0.309128 0)
(-0.175098 -0.303568 0)
(-0.166984 -0.296903 0)
(-0.15845 -0.289105 0)
(-0.149538 -0.280184 0)
(-0.140306 -0.270177 0)
(-0.130811 -0.259158 0)
(-0.121117 -0.247239 0)
(-0.111293 -0.234577 0)
(-0.101485 -0.221394 0)
(-0.0919891 -0.207998 0)
(-0.0832483 -0.194781 0)
(-0.075805 -0.182192 0)
(-0.0702039 -0.170655 0)
(-0.0668084 -0.160458 0)
(-0.0656324 -0.151617 0)
(-0.0663343 -0.143862 0)
(-0.0683714 -0.136773 0)
(-0.0711952 -0.129957 0)
(-0.0743703 -0.123141 0)
(-0.0776044 -0.116177 0)
(-0.0807317 -0.109008 0)
(-0.0836694 -0.101631 0)
(-0.086374 -0.0940652 0)
(-0.088821 -0.0863323 0)
(-0.0910018 -0.0784542 0)
(-0.0929183 -0.0704542 0)
(-0.0945778 -0.0623549 0)
(-0.0959917 -0.0541769 0)
(-0.0971727 -0.045938 0)
(-0.0981346 -0.0376542 0)
(-0.098889 -0.0293379 0)
(-0.0994433 -0.0209921 0)
(-0.099802 -0.0126138 0)
(-0.0999865 -0.0042094 0)
(0.0999845 -0.00589122 0)
(0.0997328 -0.017608 0)
(0.0992317 -0.0292325 0)
(0.0984631 -0.0407415 0)
(0.0974349 -0.0521134 0)
(0.0961535 -0.0633253 0)
(0.0946235 -0.0743528 0)
(0.0928526 -0.0851723 0)
(0.0908541 -0.0957632 0)
(0.0886491 -0.10611 0)
(0.086268 -0.116205 0)
(0.0837522 -0.126051 0)
(0.0811548 -0.135668 0)
(0.0785388 -0.145092 0)
(0.0759722 -0.15438 0)
(0.0735194 -0.163599 0)
(0.0712282 -0.172821 0)
(0.0691163 -0.182112 0)
(0.0671607 -0.191511 0)
(0.0652962 -0.201023 0)
(0.0634244 -0.210613 0)
(0.0614305 -0.220215 0)
(0.0592013 -0.229739 0)
(0.0566408 -0.239086 0)
(0.053678 -0.248159 0)
(0.0502698 -0.256866 0)
(0.0463985 -0.265131 0)
(0.0420666 -0.272893 0)
(0.0372913 -0.280106 0)
(0.0320991 -0.28674 0)
(0.0265222 -0.292779 0)
(0.0205943 -0.298218 0)
(0.0143496 -0.303064 0)
(0.00782141 -0.307331 0)
(0.00104181 -0.311042 0)
(-0.00595882 -0.314223 0)
(-0.0131533 -0.316909 0)
(-0.0205177 -0.319134 0)
(-0.0280307 -0.320936 0)
(-0.0356729 -0.32235 0)
(-0.0434266 -0.323415 0)
(-0.0512758 -0.324164 0)
(-0.0592057 -0.324633 0)
(-0.067203 -0.324851 0)
(-0.075255 -0.32485 0)
(-0.0833498 -0.324655 0)
(-0.091476 -0.32429 0)
(-0.0996226 -0.323776 0)
(-0.107779 -0.323133 0)
(-0.115934 -0.322375 0)
(-0.124076 -0.321518 0)
(-0.132195 -0.320573 0)
(-0.140278 -0.319549 0)
(-0.148312 -0.318453 0)
(-0.156281 -0.31729 0)
(-0.164166 -0.316061 0)
(-0.171933 -0.314763 0)
(-0.179524 -0.313384 0)
(-0.18689 -0.311904 0)
(-0.194056 -0.310292 0)
(-0.201087 -0.30851 0)
(-0.207502 -0.306459 0)
(-0.210282 -0.303991 0)
(-0.207085 -0.30041 0)
(-0.199811 -0.295891 0)
(-0.191601 -0.290441 0)
(-0.183032 -0.284038 0)
(-0.174022 -0.276652 0)
(-0.164555 -0.268276 0)
(-0.154689 -0.258932 0)
(-0.144495 -0.248672 0)
(-0.134049 -0.237581 0)
(-0.123432 -0.225783 0)
(-0.112751 -0.213448 0)
(-0.102213 -0.200805 0)
(-0.0921813 -0.188161 0)
(-0.0831446 -0.175893 0)
(-0.0756417 -0.164417 0)
(-0.0701483 -0.154102 0)
(-0.0669193 -0.145143 0)
(-0.0658713 -0.137473 0)
(-0.0666109 -0.130781 0)
(-0.0685977 -0.124661 0)
(-0.0713169 -0.118755 0)
(-0.0743698 -0.112824 0)
(-0.0774903 -0.106736 0)
(-0.0805209 -0.100434 0)
(-0.0833783 -0.0939019 0)
(-0.0860218 -0.0871458 0)
(-0.0884336 -0.0801831 0)
(-0.0906073 -0.0730368 0)
(-0.0925425 -0.0657313 0)
(-0.0942421 -0.0582908 0)
(-0.0957109 -0.0507371 0)
(-0.096955 -0.04309 0)
(-0.0979811 -0.0353682 0)
(-0.0987945 -0.0275879 0)
(-0.0993965 -0.019757 0)
(-0.0997869 -0.0118783 0)
(-0.0999869 -0.00396494 0)
(0.0999817 -0.00555742 0)
(0.0997142 -0.0166091 0)
(0.099186 -0.0275715 0)
(0.0983799 -0.0384206 0)
(0.0973063 -0.0491344 0)
(0.0959739 -0.0596907 0)
(0.0943903 -0.0700663 0)
(0.0925664 -0.0802395 0)
(0.0905189 -0.0901924 0)
(0.0882721 -0.0999118 0)
(0.0858598 -0.109392 0)
(0.0833265 -0.118639 0)
(0.0807281 -0.12767 0)
(0.0781296 -0.136519 0)
(0.0756003 -0.145238 0)
(0.0732043 -0.153888 0)
(0.0709883 -0.162538 0)
(0.0689682 -0.171248 0)
(0.0671194 -0.180057 0)
(0.0653746 -0.188973 0)
(0.063633 -0.197968 0)
(0.0617764 -0.206983 0)
(0.0596881 -0.215938 0)
(0.057268 -0.224743 0)
(0.0544416 -0.233309 0)
(0.0511622 -0.241552 0)
(0.0474091 -0.249402 0)
(0.0431818 -0.256801 0)
(0.0384949 -0.263705 0)
(0.0333726 -0.270084 0)
(0.0278446 -0.275922 0)
(0.0219431 -0.281213 0)
(0.0157006 -0.28596 0)
(0.00914874 -0.290175 0)
(0.00231817 -0.293877 0)
(-0.00476148 -0.297091 0)
(-0.0120634 -0.299843 0)
(-0.0195644 -0.302167 0)
(-0.0272435 -0.304094 0)
(-0.0350821 -0.305658 0)
(-0.043063 -0.306891 0)
(-0.0511709 -0.307824 0)
(-0.0593917 -0.308488 0)
(-0.0677125 -0.308911 0)
(-0.0761214 -0.309118 0)
(-0.0846073 -0.309131 0)
(-0.0931593 -0.308971 0)
(-0.101767 -0.308656 0)
(-0.11042 -0.308199 0)
(-0.119109 -0.307613 0)
(-0.127821 -0.306905 0)
(-0.136546 -0.306083 0)
(-0.145271 -0.305148 0)
(-0.153978 -0.304102 0)
(-0.162651 -0.30294 0)
(-0.171262 -0.301658 0)
(-0.179764 -0.300243 0)
(-0.188083 -0.298676 0)
(-0.196161 -0.296935 0)
(-0.204 -0.295004 0)
(-0.211575 -0.292873 0)
(-0.218089 -0.29046 0)
(-0.220319 -0.287359 0)
(-0.216119 -0.282923 0)
(-0.207969 -0.277633 0)
(-0.19895 -0.271537 0)
(-0.189569 -0.264608 0)
(-0.179718 -0.256831 0)
(-0.169389 -0.248215 0)
(-0.158654 -0.238798 0)
(-0.147602 -0.228647 0)
(-0.136329 -0.217859 0)
(-0.124937 -0.206568 0)
(-0.113566 -0.194947 0)
(-0.102476 -0.183222 0)
(-0.092073 -0.171684 0)
(-0.0828645 -0.160669 0)
(-0.0753718 -0.150516 0)
(-0.070013 -0.141493 0)
(-0.0669561 -0.133691 0)
(-0.0660352 -0.126974 0)
(-0.0668144 -0.121031 0)
(-0.0687575 -0.115505 0)
(-0.0713802 -0.110108 0)
(-0.0743192 -0.104653 0)
(-0.0773347 -0.0990387 0)
(-0.0802844 -0.093223 0)
(-0.0830891 -0.0871958 0)
(-0.0857066 -0.0809635 0)
(-0.0881146 -0.07454 0)
(-0.0903023 -0.0679428 0)
(-0.0922651 -0.0611911 0)
(-0.0940019 -0.0543045 0)
(-0.0955138 -0.0473013 0)
(-0.0968033 -0.0401988 0)
(-0.0978734 -0.0330146 0)
(-0.0987263 -0.0257647 0)
(-0.0993605 -0.0184583 0)
(-0.0997733 -0.0111001 0)
(-0.0999856 -0.00370544 0)
(0.0999821 -0.00520742 0)
(0.0997102 -0.0155637 0)
(0.0991722 -0.0258344 0)
(0.0983513 -0.0359949 0)
(0.0972592 -0.0460228 0)
(0.0959068 -0.0558958 0)
(0.0943035 -0.0655912 0)
(0.0924621 -0.0750883 0)
(0.0904011 -0.08437 0)
(0.0881464 -0.0934247 0)
(0.0857329 -0.102248 0)
(0.0832057 -0.110846 0)
(0.0806209 -0.119238 0)
(0.0780437 -0.127458 0)
(0.0755429 -0.135557 0)
(0.0731824 -0.143597 0)
(0.0710085 -0.151644 0)
(0.0690368 -0.159757 0)
(0.0672423 -0.167977 0)
(0.0655583 -0.176312 0)
(0.0638837 -0.184736 0)
(0.0620996 -0.193196 0)
(0.0600877 -0.201616 0)
(0.0577461 -0.209914 0)
(0.0549978 -0.218003 0)
(0.0517936 -0.225808 0)
(0.0481099 -0.23326 0)
(0.0439432 -0.240305 0)
(0.0393055 -0.246902 0)
(0.034218 -0.253021 0)
(0.0287082 -0.258645 0)
(0.0228059 -0.263768 0)
(0.0165419 -0.268391 0)
(0.00994658 -0.272525 0)
(0.00304919 -0.276186 0)
(-0.00412158 -0.279393 0)
(-0.0115401 -0.282173 0)
(-0.0191842 -0.284552 0)
(-0.0270338 -0.28656 0)
(-0.0350709 -0.288226 0)
(-0.043279 -0.289578 0)
(-0.0516431 -0.290646 0)
(-0.0601497 -0.291455 0)
(-0.0687863 -0.292029 0)
(-0.077541 -0.29239 0)
(-0.0864029 -0.292558 0)
(-0.0953609 -0.292547 0)
(-0.104404 -0.292373 0)
(-0.113522 -0.292046 0)
(-0.122703 -0.291572 0)
(-0.131933 -0.290958 0)
(-0.1412 -0.290203 0)
(-0.150486 -0.289306 0)
(-0.159772 -0.288264 0)
(-0.169033 -0.287067 0)
(-0.178236 -0.285706 0)
(-0.18732 -0.284164 0)
(-0.196205 -0.282422 0)
(-0.204851 -0.280459 0)
(-0.213309 -0.278273 0)
(-0.221462 -0.275885 0)
(-0.227641 -0.273236 0)
(-0.228533 -0.269551 0)
(-0.223018 -0.264489 0)
(-0.214216 -0.258676 0)
(-0.204624 -0.252194 0)
(-0.194574 -0.245003 0)
(-0.183994 -0.237086 0)
(-0.172915 -0.228464 0)
(-0.161432 -0.219185 0)
(-0.149656 -0.209322 0)
(-0.137704 -0.198976 0)
(-0.125698 -0.18828 0)
(-0.113815 -0.177397 0)
(-0.10236 -0.166542 0)
(-0.0917743 -0.155978 0)
(-0.0825701 -0.146001 0)
(-0.0752424 -0.1369 0)
(-0.0701456 -0.128882 0)
(-0.0673603 -0.121987 0)
(-0.0666441 -0.116054 0)
(-0.0675254 -0.110784 0)
(-0.0694739 -0.105856 0)
(-0.0720329 -0.101018 0)
(-0.0748701 -0.0961068 0)
(-0.0777705 -0.0910373 0)
(-0.0806081 -0.0857718 0)
(-0.0833129 -0.0803009 0)
(-0.0858472 -0.0746295 0)
(-0.0881903 -0.0687696 0)
(-0.0903307 -0.0627366 0)
(-0.0922621 -0.0565481 0)
(-0.0939811 -0.0502218 0)
(-0.0954857 -0.043775 0)
(-0.0967756 -0.0372244 0)
(-0.0978509 -0.0305874 0)
(-0.0987112 -0.0238806 0)
(-0.0993526 -0.0171139 0)
(-0.0997707 -0.0102936 0)
(-0.0999857 -0.0034364 0)
(0.0999816 -0.00485387 0)
(0.0997055 -0.0145073 0)
(0.0991599 -0.0240806 0)
(0.0983282 -0.0335498 0)
(0.097223 -0.0428934 0)
(0.095856 -0.0520902 0)
(0.0942379 -0.0611189 0)
(0.0923826 -0.0699601 0)
(0.0903097 -0.0785984 0)
(0.0880462 -0.0870232 0)
(0.0856282 -0.0952312 0)
(0.0831019 -0.103229 0)
(0.0805242 -0.111034 0)
(0.0779607 -0.11868 0)
(0.0754807 -0.126214 0)
(0.0731479 -0.133694 0)
(0.0710083 -0.141182 0)
(0.0690769 -0.148733 0)
(0.0673279 -0.156386 0)
(0.0656934 -0.16415 0)
(0.0640716 -0.172003 0)
(0.0623424 -0.179897 0)
(0.0603863 -0.187763 0)
(0.0580996 -0.195527 0)
(0.0554034 -0.203109 0)
(0.0522464 -0.210438 0)
(0.0486029 -0.217451 0)
(0.0444673 -0.224099 0)
(0.0398496 -0.23034 0)
(0.0347693 -0.236149 0)
(0.029252 -0.241507 0)
(0.0233263 -0.246408 0)
(0.0170212 -0.250851 0)
(0.0103656 -0.254845 0)
(0.0033875 -0.258404 0)
(-0.00388523 -0.261545 0)
(-0.011428 -0.26429 0)
(-0.0192198 -0.266663 0)
(-0.0272414 -0.26869 0)
(-0.0354749 -0.270396 0)
(-0.0439046 -0.271808 0)
(-0.0525157 -0.272948 0)
(-0.0612949 -0.273841 0)
(-0.0702296 -0.274506 0)
(-0.079308 -0.274962 0)
(-0.0885184 -0.275225 0)
(-0.0978492 -0.275307 0)
(-0.107289 -0.275219 0)
(-0.116824 -0.274969 0)
(-0.126442 -0.27456 0)
(-0.136127 -0.273994 0)
(-0.145863 -0.27327 0)
(-0.155627 -0.272382 0)
(-0.165396 -0.271325 0)
(-0.175141 -0.270087 0)
(-0.184819 -0.268655 0)
(-0.194359 -0.267012 0)
(-0.203671 -0.265136 0)
(-0.212746 -0.263006 0)
(-0.221679 -0.260623 0)
(-0.230189 -0.257998 0)
(-0.235658 -0.255075 0)
(-0.23485 -0.250941 0)
(-0.228071 -0.245582 0)
(-0.218848 -0.23957 0)
(-0.208857 -0.23298 0)
(-0.198273 -0.225775 0)
(-0.187092 -0.217947 0)
(-0.175394 -0.209529 0)
(-0.163304 -0.200575 0)
(-0.150952 -0.191164 0)
(-0.138471 -0.181398 0)
(-0.126004 -0.171403 0)
(-0.11376 -0.161336 0)
(-0.102083 -0.151395 0)
(-0.091434 -0.141821 0)
(-0.082319 -0.132871 0)
(-0.0752 -0.124784 0)
(-0.0703686 -0.117708 0)
(-0.0678297 -0.111633 0)
(-0.0672832 -0.106376 0)
(-0.0682386 -0.101656 0)
(-0.0701793 -0.0971942 0)
(-0.0726767 -0.0927807 0)
(-0.0754252 -0.0882848 0)
(-0.0782293 -0.083638 0)
(-0.0809748 -0.0788111 0)
(-0.0835973 -0.0737971 0)
(-0.0860613 -0.0686001 0)
(-0.0883465 -0.06323 0)
(-0.0904407 -0.0576998 0)
(-0.0923365 -0.0520241 0)
(-0.094029 -0.0462184 0)
(-0.0955149 -0.0402977 0)
(-0.0967921 -0.034277 0)
(-0.0978595 -0.0281724 0)
(-0.0987152 -0.0219997 0)
(-0.0993541 -0.0157686 0)
(-0.0997711 -0.00948545 0)
(-0.0999857 -0.00316663 0)
(0.0999816 -0.00449638 0)
(0.0997041 -0.0134393 0)
(0.0991554 -0.0223079 0)
(0.0983191 -0.0310793 0)
(0.0972084 -0.0397331 0)
(0.0958354 -0.0482491 0)
(0.0942116 -0.0566074 0)
(0.0923514 -0.0647898 0)
(0.0902752 -0.0727819 0)
(0.0880107 -0.0805744 0)
(0.0855943 -0.0881645 0)
(0.0830727 -0.0955586 0)
(0.080503 -0.102774 0)
(0.0779508 -0.109843 0)
(0.0754855 -0.116809 0)
(0.0731706 -0.123727 0)
(0.071052 -0.130656 0)
(0.0691443 -0.137649 0)
(0.0674216 -0.144741 0)
(0.0658155 -0.151942 0)
(0.0642237 -0.159232 0)
(0.0625253 -0.166568 0)
(0.0606 -0.173888 0)
(0.0583427 -0.18112 0)
(0.0556732 -0.188193 0)
(0.0525386 -0.195041 0)
(0.0489114 -0.201606 0)
(0.0447845 -0.207841 0)
(0.0401659 -0.213708 0)
(0.0350738 -0.219182 0)
(0.0295321 -0.224246 0)
(0.0235679 -0.228893 0)
(0.017209 -0.233122 0)
(0.0104832 -0.236939 0)
(0.00341744 -0.240357 0)
(-0.00396152 -0.24339 0)
(-0.0116299 -0.246057 0)
(-0.0195675 -0.24838 0)
(-0.0277553 -0.250381 0)
(-0.0361762 -0.252083 0)
(-0.0448145 -0.253507 0)
(-0.0536557 -0.254674 0)
(-0.0626862 -0.255605 0)
(-0.0718933 -0.256316 0)
(-0.0812646 -0.256823 0)
(-0.0907875 -0.257138 0)
(-0.100449 -0.257273 0)
(-0.110237 -0.257233 0)
(-0.120136 -0.257025 0)
(-0.13013 -0.25665 0)
(-0.1402 -0.256108 0)
(-0.150327 -0.255395 0)
(-0.160484 -0.254504 0)
(-0.170643 -0.253428 0)
(-0.180766 -0.252153 0)
(-0.190803 -0.250666 0)
(-0.200668 -0.248947 0)
(-0.210272 -0.246971 0)
(-0.219625 -0.244718 0)
(-0.228846 -0.242176 0)
(-0.237469 -0.239335 0)
(-0.242066 -0.236182 0)
(-0.239697 -0.231844 0)
(-0.23193 -0.226521 0)
(-0.222351 -0.220577 0)
(-0.211997 -0.214083 0)
(-0.200945 -0.207033 0)
(-0.189249 -0.199446 0)
(-0.177038 -0.191363 0)
(-0.164456 -0.182846 0)
(-0.151649 -0.173972 0)
(-0.138764 -0.164842 0)
(-0.125958 -0.155573 0)
(-0.113472 -0.146311 0)
(-0.10168 -0.137239 0)
(-0.0910534 -0.128571 0)
(-0.0820911 -0.120531 0)
(-0.0752199 -0.113319 0)
(-0.0706726 -0.10704 0)
(-0.0683871 -0.101655 0)
(-0.0680157 -0.0969771 0)
(-0.0690539 -0.0927472 0)
(-0.0709989 -0.0887206 0)
(-0.0734466 -0.0847181 0)
(-0.0761151 -0.0806303 0)
(-0.0788268 -0.0764005 0)
(-0.0814788 -0.0720047 0)
(-0.0840132 -0.067437 0)
(-0.0863975 -0.0627012 0)
(-0.0886128 -0.0578058 0)
(-0.0906473 -0.0527621 0)
(-0.092493 -0.0475829 0)
(-0.0941443 -0.0422822 0)
(-0.095597 -0.0368732 0)
(-0.0968481 -0.0313699 0)
(-0.0978954 -0.0257872 0)
(-0.0987361 -0.0201399 0)
(-0.0993645 -0.0144372 0)
(-0.0997748 -0.00868515 0)
(-0.0999859 -0.00289945 0)
(0.0999815 -0.00413776 0)
(0.099703 -0.0123678 0)
(0.0991526 -0.0205297 0)
(0.0983138 -0.028602 0)
(0.0972 -0.0365658 0)
(0.0958237 -0.0444022 0)
(0.0941966 -0.0520928 0)
(0.0923337 -0.059621 0)
(0.0902557 -0.0669735 0)
(0.0879906 -0.0741419 0)
(0.0855754 -0.0811238 0)
(0.0830568 -0.0879254 0)
(0.0804924 -0.0945634 0)
(0.077948 -0.101067 0)
(0.0754928 -0.107477 0)
(0.0731906 -0.113845 0)
(0.0710869 -0.120225 0)
(0.0691962 -0.126666 0)
(0.0674919 -0.133202 0)
(0.0659051 -0.139841 0)
(0.0643328 -0.146568 0)
(0.0626534 -0.153341 0)
(0.0607454 -0.160105 0)
(0.0585029 -0.166795 0)
(0.0558446 -0.173345 0)
(0.0527163 -0.179695 0)
(0.0490893 -0.185791 0)
(0.0449552 -0.19159 0)
(0.0403209 -0.197058 0)
(0.0352031 -0.202169 0)
(0.0296248 -0.206908 0)
(0.0236119 -0.211269 0)
(0.0171912 -0.215248 0)
(0.0103896 -0.218853 0)
(0.00323327 -0.222091 0)
(-0.00425204 -0.224977 0)
(-0.0120433 -0.227527 0)
(-0.0201204 -0.22976 0)
(-0.028465 -0.231695 0)
(-0.0370601 -0.233351 0)
(-0.0458901 -0.234748 0)
(-0.0549405 -0.235903 0)
(-0.0641973 -0.236833 0)
(-0.0736473 -0.237553 0)
(-0.0832773 -0.238075 0)
(-0.0930739 -0.238411 0)
(-0.103023 -0.238566 0)
(-0.113109 -0.238549 0)
(-0.123317 -0.23836 0)
(-0.133627 -0.238001 0)
(-0.144017 -0.237469 0)
(-0.154464 -0.236761 0)
(-0.164937 -0.235869 0)
(-0.175402 -0.234784 0)
(-0.185814 -0.233494 0)
(-0.196114 -0.231985 0)
(-0.206203 -0.230238 0)
(-0.215982 -0.228228 0)
(-0.225471 -0.225932 0)
(-0.234778 -0.223323 0)
(-0.243309 -0.220346 0)
(-0.24722 -0.21703 0)
(-0.243705 -0.212675 0)
(-0.235065 -0.207554 0)
(-0.224988 -0.201829 0)
(-0.214218 -0.195568 0)
(-0.202742 -0.188804 0)
(-0.190625 -0.181575 0)
(-0.178009 -0.173931 0)
(-0.16505 -0.165936 0)
(-0.151904 -0.157668 0)
(-0.138725 -0.149219 0)
(-0.125686 -0.140699 0)
(-0.113053 -0.132243 0)
(-0.101224 -0.124017 0)
(-0.0906778 -0.116211 0)
(-0.0819003 -0.109023 0)
(-0.0752838 -0.102614 0)
(-0.0710069 -0.0970557 0)
(-0.0689507 -0.092286 0)
(-0.0687312 -0.0881205 0)
(-0.0698379 -0.084323 0)
(-0.0717834 -0.0806817 0)
(-0.0741862 -0.0770458 0)
(-0.0767847 -0.0733252 0)
(-0.0794159 -0.0694738 0)
(-0.0819859 -0.0654724 0)
(-0.0844418 -0.0613166 0)
(-0.0867536 -0.0570098 0)
(-0.0889034 -0.0525594 0)
(-0.0908798 -0.047975 0)
(-0.0926749 -0.043268 0)
(-0.0942827 -0.0384502 0)
(-0.0956988 -0.0335336 0)
(-0.0969195 -0.0285305 0)
(-0.0979423 -0.0234544 0)
(-0.0987639 -0.018319 0)
(-0.0993783 -0.0131327 0)
(-0.0997797 -0.00790068 0)
(-0.0999862 -0.00263752 0)
(0.0999815 -0.00377839 0)
(0.0997028 -0.011294 0)
(0.0991517 -0.0187477 0)
(0.098312 -0.0261196 0)
(0.097197 -0.0333922 0)
(0.0958195 -0.0405485 0)
(0.0941913 -0.0475714 0)
(0.0923277 -0.0544456 0)
(0.0902495 -0.0611591 0)
(0.087985 -0.0677042 0)
(0.0855713 -0.074079 0)
(0.0830554 -0.0802893 0)
(0.0804949 -0.0863507 0)
(0.0779557 -0.0922899 0)
(0.0755071 -0.0981452 0)
(0.0732128 -0.103963 0)
(0.0711182 -0.109795 0)
(0.0692374 -0.115685 0)
(0.0675435 -0.121665 0)
(0.0659673 -0.127743 0)
(0.0644049 -0.133905 0)
(0.0627341 -0.140113 0)
(0.0608326 -0.146317 0)
(0.0585937 -0.152459 0)
(0.055935 -0.158477 0)
(0.0528016 -0.164318 0)
(0.0491638 -0.169932 0)
(0.0450122 -0.175279 0)
(0.0403526 -0.180327 0)
(0.0352011 -0.185055 0)
(0.0295794 -0.189447 0)
(0.0235128 -0.193495 0)
(0.0170272 -0.197199 0)
(0.0101488 -0.200562 0)
(0.00290331 -0.203592 0)
(-0.00468428 -0.206301 0)
(-0.0125915 -0.208703 0)
(-0.0207984 -0.210814 0)
(-0.0292869 -0.21265 0)
(-0.0380401 -0.214229 0)
(-0.0470423 -0.215567 0)
(-0.0562787 -0.21668 0)
(-0.065735 -0.21758 0)
(-0.0753973 -0.218282 0)
(-0.0852515 -0.218794 0)
(-0.0952831 -0.219125 0)
(-0.105477 -0.219282 0)
(-0.115815 -0.219268 0)
(-0.126281 -0.219085 0)
(-0.136852 -0.218732 0)
(-0.147505 -0.218206 0)
(-0.158212 -0.217503 0)
(-0.168939 -0.216614 0)
(-0.179646 -0.215532 0)
(-0.190284 -0.214245 0)
(-0.200784 -0.212741 0)
(-0.211032 -0.211 0)
(-0.220927 -0.209002 0)
(-0.230464 -0.20673 0)
(-0.239676 -0.204151 0)
(-0.247841 -0.201201 0)
(-0.251125 -0.197873 0)
(-0.246844 -0.193588 0)
(-0.237557 -0.188689 0)
(-0.22698 -0.183255 0)
(-0.215789 -0.177334 0)
(-0.203933 -0.170967 0)
(-0.191462 -0.164199 0)
(-0.178521 -0.157083 0)
(-0.165269 -0.149681 0)
(-0.151866 -0.142068 0)
(-0.138472 -0.13433 0)
(-0.125274 -0.126567 0)
(-0.11256 -0.118904 0)
(-0.100746 -0.11149 0)
(-0.0903142 -0.104496 0)
(-0.0817359 -0.0980905 0)
(-0.0753709 -0.092408 0)
(-0.0713492 -0.0874938 0)
(-0.0695037 -0.0832726 0)
(-0.0694218 -0.079568 0)
(-0.0705908 -0.0761681 0)
(-0.072538 -0.0728894 0)
(-0.0749021 -0.0696045 0)
(-0.0774388 -0.0662384 0)
(-0.0799979 -0.0627533 0)
(-0.0824931 -0.0591335 0)
(-0.084876 -0.0553757 0)
(-0.0871191 -0.0514832 0)
(-0.0892057 -0.0474623 0)
(-0.091125 -0.0433215 0)
(-0.0928693 -0.0390707 0)
(-0.0944326 -0.0347202 0)
(-0.0958103 -0.0302807 0)
(-0.0969986 -0.0257631 0)
(-0.0979946 -0.0211795 0)
(-0.0987952 -0.0165425 0)
(-0.099394 -0.0118595 0)
(-0.0997853 -0.00713494 0)
(-0.0999866 -0.00238185 0)
(0.0999815 -0.00341886 0)
(0.0997027 -0.0102197 0)
(0.0991514 -0.0169646 0)
(0.0983112 -0.0236358 0)
(0.0971957 -0.0302173 0)
(0.0958177 -0.0366937 0)
(0.094189 -0.0430493 0)
(0.092325 -0.0492705 0)
(0.0902467 -0.0553463 0)
(0.0879826 -0.0612699 0)
(0.0855697 -0.0670396 0)
(0.0830552 -0.0726608 0)
(0.0804969 -0.0781479 0)
(0.0779607 -0.0835252 0)
(0.075516 -0.0888275 0)
(0.0732264 -0.0940978 0)
(0.0711372 -0.0993819 0)
(0.0692622 -0.104721 0)
(0.0675742 -0.110144 0)
(0.0660033 -0.115658 0)
(0.064445 -0.12125 0)
(0.0627765 -0.126888 0)
(0.0608747 -0.132526 0)
(0.0586321 -0.13811 0)
(0.0559658 -0.143587 0)
(0.0528202 -0.148906 0)
(0.0491646 -0.154023 0)
(0.0449892 -0.158902 0)
(0.040299 -0.163515 0)
(0.0351092 -0.167839 0)
(0.0294412 -0.171863 0)
(0.0233193 -0.175578 0)
(0.0167691 -0.178982 0)
(0.00981614 -0.18208 0)
(0.00248585 -0.184877 0)
(-0.00519736 -0.187383 0)
(-0.0132113 -0.18961 0)
(-0.0215362 -0.191573 0)
(-0.0301541 -0.193286 0)
(-0.039048 -0.194763 0)
(-0.048202 -0.196018 0)
(-0.0576009 -0.197064 0)
(-0.0672299 -0.197913 0)
(-0.0770744 -0.198576 0)
(-0.0871193 -0.19906 0)
(-0.0973489 -0.199372 0)
(-0.107747 -0.199517 0)
(-0.118294 -0.199497 0)
(-0.12897 -0.199313 0)
(-0.139752 -0.198963 0)
(-0.150614 -0.198444 0)
(-0.161524 -0.19775 0)
(-0.172446 -0.196875 0)
(-0.183336 -0.195809 0)
(-0.194139 -0.194543 0)
(-0.204775 -0.193065 0)
(-0.215126 -0.191359 0)
(-0.225096 -0.189412 0)
(-0.234668 -0.187219 0)
(-0.243815 -0.184778 0)
(-0.251573 -0.182068 0)
(-0.254174 -0.178913 0)
(-0.249164 -0.17475 0)
(-0.239379 -0.170068 0)
(-0.228409 -0.164954 0)
(-0.216868 -0.15943 0)
(-0.204693 -0.153526 0)
(-0.191933 -0.147284 0)
(-0.178732 -0.140753 0)
(-0.165251 -0.13399 0)
(-0.151654 -0.127065 0)
(-0.138104 -0.120057 0)
(-0.124798 -0.113056 0)
(-0.112048 -0.106174 0)
(-0.100281 -0.0995475 0)
(-0.0899786 -0.0933255 0)
(-0.081599 -0.0876553 0)
(-0.0754706 -0.0826452 0)
(-0.0716804 -0.0783208 0)
(-0.0700208 -0.0746004 0)
(-0.0700578 -0.071319 0)
(-0.0712793 -0.0682886 0)
(-0.0732269 -0.0653516 0)
(-0.0755569 -0.0624009 0)
(-0.0780399 -0.0593744 0)
(-0.080536 -0.0562409 0)
(-0.0829656 -0.0529882 0)
(-0.0852841 -0.0496136 0)
(-0.0874657 -0.0461203 0)
(-0.089495 -0.0425137 0)
(-0.0913617 -0.0388012 0)
(-0.0930585 -0.0349914 0)
(-0.0945796 -0.0310934 0)
(-0.0959204 -0.0271164 0)
(-0.0970771 -0.02307 0)
(-0.098047 -0.018965 0)
(-0.0988265 -0.0148127 0)
(-0.0994098 -0.0106195 0)
(-0.0997909 -0.00638906 0)
(-0.099987 -0.00213282 0)
(0.0999815 -0.00305928 0)
(0.0997026 -0.00914504 0)
(0.0991513 -0.0151811 0)
(0.098311 -0.0211512 0)
(0.0971953 -0.0270414 0)
(0.095817 -0.0328376 0)
(0.094188 -0.0385259 0)
(0.0923237 -0.044094 0)
(0.0902453 -0.0495322 0)
(0.0879811 -0.0548344 0)
(0.0855684 -0.0599991 0)
(0.0830545 -0.0650313 0)
(0.080497 -0.0699439 0)
(0.0779622 -0.074759 0)
(0.0755193 -0.079508 0)
(0.0732319 -0.0842294 0)
(0.0711453 -0.0889647 0)
(0.069273 -0.0937511 0)
(0.0675873 -0.0986138 0)
(0.0660178 -0.103561 0)
(0.0644595 -0.10858 0)
(0.0627887 -0.113643 0)
(0.060882 -0.118707 0)
(0.0586312 -0.123727 0)
(0.0559528 -0.128652 0)
(0.0527906 -0.133439 0)
(0.0491136 -0.138048 0)
(0.0449112 -0.142447 0)
(0.040188 -0.146608 0)
(0.0349588 -0.150514 0)
(0.0292444 -0.154153 0)
(0.0230687 -0.157516 0)
(0.0164567 -0.160603 0)
(0.0094339 -0.163415 0)
(0.00202525 -0.165959 0)
(-0.00574507 -0.168242 0)
(-0.0138551 -0.170275 0)
(-0.0222852 -0.17207 0)
(-0.0310172 -0.173639 0)
(-0.0400342 -0.174994 0)
(-0.0493198 -0.176148 0)
(-0.0588585 -0.177111 0)
(-0.0686349 -0.177893 0)
(-0.0786336 -0.178503 0)
(-0.0888385 -0.178948 0)
(-0.099233 -0.179232 0)
(-0.109799 -0.179359 0)
(-0.120516 -0.179331 0)
(-0.131363 -0.179147 0)
(-0.142313 -0.178806 0)
(-0.153338 -0.178304 0)
(-0.164405 -0.177636 0)
(-0.175474 -0.176795 0)
(-0.186498 -0.175774 0)
(-0.19742 -0.174565 0)
(-0.208154 -0.173158 0)
(-0.218583 -0.171543 0)
(-0.228628 -0.16971 0)
(-0.238317 -0.167667 0)
(-0.247574 -0.165438 0)
(-0.254836 -0.163028 0)
(-0.256432 -0.160023 0)
(-0.250557 -0.156058 0)
(-0.240472 -0.151657 0)
(-0.229293 -0.146918 0)
(-0.217521 -0.141844 0)
(-0.205113 -0.136453 0)
(-0.192134 -0.130782 0)
(-0.178736 -0.124872 0)
(-0.165082 -0.118778 0)
(-0.151341 -0.112561 0)
(-0.137677 -0.10629 0)
(-0.124304 -0.100048 0)
(-0.111546 -0.0939339 0)
(-0.0998425 -0.0880687 0)
(-0.0896741 -0.0825838 0)
(-0.081484 -0.077605 0)
(-0.0755727 -0.0732201 0)
(-0.0719891 -0.0694402 0)
(-0.0704924 -0.0661825 0)
(-0.0706321 -0.0632961 0)
(-0.0718983 -0.0606162 0)
(-0.0738459 -0.0580084 0)
(-0.0761463 -0.0553828 0)
(-0.0785827 -0.0526879 0)
(-0.0810241 -0.0498984 0)
(-0.0833963 -0.0470042 0)
(-0.0856578 -0.0440036 0)
(-0.0877848 -0.0408993 0)
(-0.0897627 -0.0376962 0)
(-0.0915819 -0.0344006 0)
(-0.0932353 -0.0310199 0)
(-0.0947176 -0.0275621 0)
(-0.0960242 -0.0240352 0)
(-0.0971514 -0.0204473 0)
(-0.0980966 -0.0168083 0)