/*--------------------------------*- C++ -*----------------------------------*\
  =========                 |
  \\      /  F ield         | OpenFOAM: The Open Source CFD Toolbox
   \\    /   O peration     | Website:  https://openfoam.org
    \\  /    A nd           | Version:  8
     \\/     M anipulation  |
\*---------------------------------------------------------------------------*/
FoamFile
{
    version     2.0;
    format      ascii;
    class       volScalarField;
    location    "0.35/fluid";
    object      CH4;
}
// * * * * * * * * * * * * * * * * * * * * * * * * * * * * * * * * * * * * * //

dimensions      [0 0 0 0 0 0 0];

internalField   nonuniform List<scalar> 
4000
(
0.999997
0.999986
0.999968
0.999938
0.999888
0.999805
0.999668
0.999444
0.999081
0.998501
0.997586
0.996168
0.99401
0.990803
0.986161
0.979639
0.970773
0.959136
0.944399
0.926385
0.905089
0.880659
0.853375
0.8236
0.791748
0.758255
0.723555
0.688069
0.652063
0.615872
0.579962
0.544578
0.509938
0.476224
0.443583
0.412133
0.381965
0.353142
0.325699
0.299656
0.275009
0.251744
0.229832
0.209238
0.189915
0.171816
0.154886
0.139069
0.12431
0.110551
0.0977371
0.0858139
0.0747299
0.0644374
0.0548932
0.0460604
0.037911
0.0305319
0.0238873
0.0177468
0.0123717
0.00790074
0.00458793
0.00262449
0.00146881
0.000799458
0.00042077
0.00021286
0.000102798
4.7084e-05
2.03106e-05
8.23574e-06
3.27754e-06
1.64515e-06
1.15708e-06
8.90404e-07
6.62827e-07
4.67666e-07
3.09606e-07
1.90906e-07
1.09417e-07
5.85572e-08
2.95263e-08
1.42436e-08
6.66337e-09
3.0413e-09
1.36023e-09
5.98128e-10
2.59291e-10
1.11064e-10
4.70954e-11
1.98004e-11
8.26377e-12
3.42585e-12
1.41009e-12
5.74573e-13
2.29688e-13
8.77007e-14
2.92853e-14
5.13985e-15
0.999997
0.999986
0.999968
0.999938
0.999888
0.999805
0.999668
0.999444
0.999081
0.998502
0.99759
0.99618
0.994042
0.990875
0.986305
0.979895
0.971189
0.959764
0.945288
0.927568
0.906577
0.882444
0.855426
0.82587
0.794178
0.760779
0.726102
0.690478
0.65432
0.618204
0.582264
0.546785
0.512009
0.478134
0.445319
0.413689
0.38334
0.35434
0.326728
0.300523
0.275726
0.252322
0.230284
0.209574
0.190148
0.171956
0.154944
0.139055
0.124233
0.11042
0.0975595
0.0855967
0.0744796
0.0641596
0.0545929
0.0457426
0.0375805
0.0302183
0.0235758
0.0174451
0.0120961
0.00767493
0.00444882
0.0025388
0.00141657
0.000768175
0.000402491
0.000202502
9.71417e-05
4.41418e-05
1.88659e-05
7.58478e-06
3.04181e-06
1.61838e-06
1.16259e-06
8.85528e-07
6.50135e-07
4.52378e-07
2.95477e-07
1.80068e-07
1.02373e-07
5.46208e-08
2.76018e-08
1.33819e-08
6.30239e-09
2.89793e-09
1.30567e-09
5.78035e-10
2.52035e-10
1.08455e-10
4.61448e-11
1.94441e-11
8.12513e-12
3.36989e-12
1.38689e-12
5.64853e-13
2.2566e-13
8.61081e-14
2.87293e-14
5.05171e-15
0.999997
0.999986
0.999968
0.999938
0.999888
0.999805
0.999667
0.999443
0.99908
0.998501
0.997591
0.996188
0.994065
0.990926
0.986403
0.980072
0.971485
0.960226
0.945964
0.928502
0.9078
0.883971
0.857252
0.827973
0.796521
0.76331
0.728727
0.693123
0.657177
0.621039
0.585036
0.549455
0.514542
0.480503
0.447504
0.415675
0.38512
0.355909
0.328089
0.301682
0.27669
0.253101
0.230889
0.210019
0.190446
0.17212
0.154985
0.138989
0.124072
0.110176
0.0972434
0.0852192
0.0740505
0.063688
0.0540873
0.0452105
0.0370284
0.0296967
0.0230471
0.0169334
0.011632
0.0072977
0.00421848
0.00239833
0.00133191
0.000718148
0.000373703
0.000186476
8.85821e-05
3.97984e-05
1.67946e-05
6.68459e-06
2.73036e-06
1.54892e-06
1.14225e-06
8.6447e-07
6.28247e-07
4.32655e-07
2.79953e-07
1.69381e-07
9.59026e-08
5.11255e-08
2.58835e-08
1.25834e-08
5.94698e-09
2.74491e-09
1.24152e-09
5.51707e-10
2.41396e-10
1.04195e-10
4.4444e-11
1.87639e-11
7.85154e-12
3.25908e-12
1.34175e-12
5.46465e-13
2.18251e-13
8.3244e-14
2.775e-14
4.88815e-15
0.999997
0.999986
0.999968
0.999939
0.999889
0.999806
0.999669
0.999445
0.999085
0.998511
0.997611
0.996223
0.994125
0.991026
0.986565
0.980323
0.97186
0.96076
0.946692
0.929454
0.908995
0.885418
0.858947
0.829899
0.798652
0.76561
0.731076
0.695744
0.65982
0.623667
0.587613
0.551948
0.516921
0.48274
0.449578
0.417571
0.386824
0.357416
0.329396
0.30279
0.277604
0.253828
0.231439
0.210401
0.190672
0.172201
0.154939
0.138827
0.123806
0.109819
0.0968085
0.084718
0.0734947
0.0630895
0.0534584
0.0445648
0.0363821
0.0291085
0.0223237
0.0162733
0.0110521
0.00683534
0.00393999
0.0022308
0.00123233
0.000660149
0.000340842
0.000168489
7.91742e-05
3.5128e-05
1.46245e-05
5.77624e-06
2.4457e-06
1.48416e-06
1.11355e-06
8.369e-07
6.02213e-07
4.10309e-07
2.62674e-07
1.57419e-07
8.8484e-08
4.69616e-08
2.3735e-08
1.15435e-08
5.46442e-09
2.52818e-09
1.14669e-09
5.11091e-10
2.24308e-10
9.7111e-11
4.15421e-11
1.75855e-11
7.37605e-12
3.06806e-12
1.26531e-12
5.16071e-13
2.0633e-13
7.87524e-14
2.62502e-14
4.63573e-15
0.999997
0.999986
0.999969
0.999939
0.999889
0.999807
0.999671
0.999449
0.999092
0.998523
0.997631
0.996257
0.994182
0.991119
0.986711
0.980546
0.972188
0.961223
0.947319
0.930269
0.910017
0.886652
0.860392
0.831543
0.800476
0.767561
0.733266
0.697977
0.662074
0.625914
0.589821
0.554087
0.518964
0.484663
0.451361
0.419197
0.388282
0.358698
0.330498
0.303711
0.278348
0.254399
0.231844
0.210649
0.190772
0.172169
0.154784
0.138561
0.123442
0.109368
0.0962828
0.0841292
0.0728543
0.0624089
0.0527489
0.0438379
0.0356501
0.0283877
0.0216132
0.0156026
0.0104545
0.00635733
0.00365314
0.0020594
0.00113135
0.000601967
0.000308291
0.00015093
7.01419e-05
3.07287e-05
1.26274e-05
4.97212e-06
2.22759e-06
1.43355e-06
1.08405e-06
8.08532e-07
5.76385e-07
3.8888e-07
2.46604e-07
1.4659e-07
8.19087e-08
4.33205e-08
2.18658e-08
1.06363e-08
5.0401e-09
2.33534e-09
1.06105e-09
4.73763e-10
2.08288e-10
9.03234e-11
3.86963e-11
1.64027e-11
6.88796e-12
2.86792e-12
1.18375e-12
4.83142e-13
1.93243e-13
7.3792e-14
2.4589e-14
4.35314e-15
0.999997
0.999986
0.999969
0.999939
0.99989
0.999808
0.999674
0.999454
0.9991
0.998537
0.997654
0.996296
0.994245
0.991218
0.986862
0.980769
0.972505
0.961658
0.947894
0.931002
0.910918
0.887725
0.861631
0.832938
0.802008
0.769163
0.734995
0.699783
0.663916
0.627756
0.591634
0.555842
0.520635
0.486231
0.452807
0.420507
0.389446
0.359708
0.33135
0.304405
0.278885
0.254784
0.232082
0.210747
0.190744
0.172021
0.154527
0.138206
0.122999
0.108849
0.0956981
0.0834897
0.0721705
0.061691
0.0520072
0.0430828
0.034909
0.0276617
0.0209114
0.0149465
0.00987399
0.00589693
0.003379
0.00189709
0.00103671
0.000548052
0.0002785
0.000135081
6.21127e-05
2.68845e-05
1.09169e-05
4.30124e-06
2.04734e-06
1.38579e-06
1.05264e-06
7.79997e-07
5.51351e-07
3.6853e-07
2.31514e-07
1.3646e-07
7.57369e-08
3.98692e-08
2.00678e-08
9.75201e-09
4.62093e-09
2.14247e-09
9.7447e-10
4.357e-10
1.91848e-10
8.33273e-11
3.5756e-11
1.51796e-11
6.38336e-12
2.66122e-12
1.09965e-12
4.49239e-13
1.79788e-13
6.8694e-14
2.28907e-14
4.06365e-15
0.999997
0.999987
0.999969
0.99994
0.999891
0.99981
0.999676
0.999459
0.999108
0.998551
0.997677
0.996333
0.994304
0.991309
0.986999
0.980969
0.972787
0.962042
0.948398
0.931639
0.911695
0.888642
0.862683
0.834111
0.803276
0.770603
0.736476
0.701292
0.665434
0.629261
0.593103
0.557254
0.521971
0.487473
0.453941
0.421521
0.390332
0.360461
0.331967
0.304885
0.27923
0.254996
0.232168
0.210717
0.190603
0.171778
0.154191
0.137786
0.122506
0.108292
0.0950868
0.0828339
0.0714796
0.0609742
0.0512737
0.0423422
0.0341954
0.0269689
0.0202485
0.0143331
0.00933763
0.00547881
0.00313285
0.00175284
0.000953414
0.000501057
0.000252796
0.000121557
5.53455e-05
2.36913e-05
9.5256e-06
3.78646e-06
1.94591e-06
1.36076e-06
1.02898e-06
7.55342e-07
5.2881e-07
3.50087e-07
2.17937e-07
1.2745e-07
7.03071e-08
3.68569e-08
1.85049e-08
8.98361e-09
4.2558e-09
1.97367e-09
8.98199e-10
4.01907e-10
1.77127e-10
7.70079e-11
3.30771e-11
1.4056e-11
5.91641e-12
2.46872e-12
1.02087e-12
4.17344e-13
1.67082e-13
6.38674e-14
2.12805e-14
3.78912e-15
0.999997
0.999987
0.999969
0.99994
0.999892
0.999812
0.999679
0.999464
0.999116
0.998564
0.997699
0.996368
0.994359
0.991393
0.987125
0.98115
0.97304
0.962382
0.948839
0.93219
0.912362
0.889426
0.863576
0.835104
0.804329
0.77174
0.737667
0.702511
0.666657
0.630467
0.594273
0.558369
0.523015
0.488432
0.454804
0.42228
0.390979
0.360993
0.332381
0.305183
0.279411
0.255067
0.232135
0.210584
0.190377
0.171467
0.153803
0.137329
0.121989
0.107724
0.0944763
0.0821892
0.0708091
0.0602863
0.0505768
0.0416451
0.0335365
0.0263339
0.0196477
0.013787
0.00887647
0.00514981
0.00293627
0.00163651
0.000885858
0.000462852
0.000231911
0.000110603
4.98965e-05
2.11413e-05
8.4266e-06
3.38155e-06
1.83074e-06
1.31847e-06
9.96513e-07
7.27621e-07
5.06013e-07
3.32527e-07
2.05477e-07
1.19367e-07
6.54982e-08
3.42036e-08
1.71287e-08
8.30582e-09
3.93266e-09
1.82368e-09
8.30154e-10
3.7164e-10
1.63895e-10
7.13088e-11
3.06543e-11
1.30374e-11
5.49214e-12
2.2935e-12
9.49048e-13
3.88227e-13
1.55484e-13
5.94527e-14
1.9807e-14
3.53804e-15
0.999997
0.999987
0.99997
0.999941
0.999893
0.999813
0.999682
0.999468
0.999124
0.998577
0.997719
0.9964
0.994408
0.991469
0.987236
0.981309
0.97326
0.962676
0.949218
0.932662
0.912929
0.890087
0.864328
0.835939
0.805266
0.772705
0.738651
0.703502
0.667641
0.631427
0.595194
0.559237
0.523817
0.489158
0.455445
0.422829
0.391432
0.361346
0.332635
0.305336
0.279468
0.255032
0.232011
0.210378
0.190094
0.171114
0.153388
0.13686
0.121472
0.107167
0.0938872
0.0815751
0.0701773
0.0596442
0.0499321
0.0410062
0.0329454
0.0257663
0.0191156
0.0133116
0.00848938
0.00490178
0.0027852
0.00154587
0.000832716
0.000432619
0.000215329
0.000101927
4.55918e-05
1.91392e-05
7.57704e-06
3.08682e-06
1.74959e-06
1.28396e-06
9.68285e-07
7.03359e-07
4.86147e-07
3.17339e-07
1.94786e-07
1.12479e-07
6.142e-08
3.19584e-08
1.59639e-08
7.73103e-09
3.65779e-09
1.69561e-09
7.71801e-10
3.45568e-10
1.52445e-10
6.6356e-11
2.854e-11
1.21451e-11
5.11923e-12
2.13901e-12
8.85576e-13
3.6243e-13
1.45195e-13
5.55317e-14
1.84972e-14
3.31495e-15
0.999997
0.999987
0.99997
0.999941
0.999894
0.999814
0.999684
0.999472
0.999131
0.998588
0.997737
0.996428
0.994452
0.991535
0.987333
0.981448
0.97345
0.962928
0.949541
0.93306
0.913405
0.890636
0.86494
0.836591
0.805984
0.773465
0.739433
0.70429
0.668418
0.632181
0.595909
0.559903
0.524424
0.489697
0.455909
0.423213
0.391732
0.361562
0.332764
0.305382
0.279435
0.254921
0.231828
0.210126
0.189781
0.170745
0.152969
0.136397
0.120973
0.106638
0.0933337
0.0810038
0.0695944
0.0590559
0.0493451
0.0404278
0.0324191
0.0252629
0.0186465
0.0128964
0.00815703
0.00469892
0.00266194
0.00147205
0.00078952
0.000408099
0.000201921
9.49431e-05
4.21462e-05
1.75499e-05
6.9146e-06
2.8736e-06
1.69447e-06
1.2581e-06
9.45718e-07
6.83417e-07
4.69582e-07
3.04593e-07
1.85795e-07
1.06685e-07
5.79877e-08
3.00661e-08
1.49799e-08
7.24411e-09
3.42421e-09
1.58644e-09
7.21909e-10
3.23212e-10
1.426e-10
6.20866e-11
2.67131e-11
1.13724e-11
4.79568e-12
2.00472e-12
8.3032e-13
3.3994e-13
1.36216e-13
5.21104e-14
1.73537e-14
3.12035e-15
0.999997
0.999987
0.99997
0.999942
0.999894
0.999816
0.999686
0.999476
0.999137
0.998598
0.997753
0.996453
0.994491
0.991592
0.987417
0.981566
0.973612
0.963142
0.949813
0.933396
0.913806
0.891103
0.865472
0.837183
0.806595
0.774091
0.740066
0.704918
0.669031
0.632767
0.596459
0.560407
0.524874
0.490086
0.456233
0.423468
0.391916
0.361673
0.332805
0.305354
0.279339
0.254762
0.231609
0.209853
0.189457
0.170377
0.152562
0.135957
0.120505
0.106147
0.0928255
0.0804833
0.0690665
0.0585254
0.048817
0.0399072
0.0319464
0.0248153
0.0182323
0.0125318
0.00786704
0.00452398
0.00255661
0.00140948
0.000753172
0.000387613
0.000190799
8.91927e-05
3.93319e-05
1.62641e-05
6.38697e-06
2.71201e-06
1.65433e-06
1.23767e-06
9.27332e-07
6.66924e-07
4.55748e-07
2.93894e-07
1.78237e-07
1.01816e-07
5.5105e-08
2.84768e-08
1.41527e-08
6.83423e-09
3.22724e-09
1.4942e-09
6.79663e-10
3.04242e-10
1.34228e-10
5.8449e-11
2.51536e-11
1.07116e-11
4.51851e-12
1.88951e-12
7.82848e-13
3.20592e-13
1.28485e-13
4.91627e-14
1.63678e-14
2.953e-15
0.999997
0.999987
0.99997
0.999942
0.999895
0.999817
0.999688
0.999479
0.999142
0.998606
0.997767
0.996474
0.994523
0.991641
0.987488
0.981666
0.973748
0.963321
0.950039
0.933672
0.914131
0.891472
0.865877
0.837629
0.80707
0.774582
0.740563
0.70541
0.669507
0.633218
0.596876
0.560782
0.525201
0.490361
0.456451
0.423627
0.392015
0.361712
0.332785
0.305276
0.279206
0.254577
0.231375
0.209575
0.18914
0.170025
0.15218
0.13555
0.120077
0.105703
0.0923695
0.0800194
0.0685985
0.0580573
0.0483524
0.0394503
0.0315358
0.0244241
0.0178699
0.0122129
0.00761385
0.00437189
0.00246551
0.00135569
0.000722131
0.00037024
0.000181437
8.43907e-05
3.70019e-05
1.5211e-05
5.96423e-06
2.59502e-06
1.62706e-06
1.22242e-06
9.12657e-07
6.53329e-07
4.44159e-07
2.84871e-07
1.71855e-07
9.77081e-08
5.26764e-08
2.71391e-08
1.34567e-08
6.48923e-09
3.06134e-09
1.41644e-09
6.44017e-10
2.88219e-10
1.2715e-10
5.53699e-11
2.3832e-11
1.01511e-11
4.28316e-12
1.79157e-12
7.42462e-13
3.04116e-13
1.21896e-13
4.66493e-14
1.55267e-14
2.81082e-15
0.999997
0.999987
0.99997
0.999942
0.999895
0.999818
0.99969
0.999482
0.999146
0.998613
0.997778
0.996492
0.994551
0.991682
0.987547
0.981749
0.973861
0.963469
0.950226
0.9339
0.914398
0.891773
0.866205
0.837988
0.807449
0.774972
0.740954
0.705793
0.669874
0.633561
0.597188
0.561057
0.525435
0.490549
0.456591
0.423717
0.392054
0.361701
0.332724
0.305168
0.279053
0.254383
0.231143
0.209308
0.188842
0.1697
0.151833
0.135184
0.119696
0.105311
0.0919703
0.0796164
0.068195
0.0576562
0.0479563
0.0390611
0.0311859
0.0240777
0.0175499
0.0119322
0.00739183
0.00423911
0.00238641
0.00130927
0.000695527
0.000355457
0.00017353
8.03664e-05
3.50657e-05
1.43449e-05
5.62418e-06
2.51188e-06
1.60822e-06
1.21016e-06
9.00151e-07
6.41575e-07
4.34133e-07
2.77102e-07
1.66395e-07
9.42163e-08
5.06229e-08
2.60125e-08
1.2872e-08
6.19983e-09
2.92228e-09
1.35128e-09
6.14143e-10
2.74786e-10
1.21213e-10
5.27853e-11
2.2722e-11
9.67988e-12
4.08517e-12
1.70912e-12
7.0844e-13
2.90227e-13
1.16338e-13
4.45287e-14
1.48167e-14
2.69104e-15
0.999997
0.999987
0.99997
0.999943
0.999896
0.999819
0.999691
0.999484
0.99915
0.998619
0.997788
0.996507
0.994574
0.991716
0.987596
0.981818
0.973954
0.963591
0.95038
0.934087
0.914619
0.892028
0.86649
0.838286
0.807756
0.775282
0.74126
0.70609
0.670155
0.633819
0.597419
0.561256
0.525597
0.490673
0.456674
0.423758
0.392054
0.361659
0.332642
0.305048
0.278897
0.254192
0.230922
0.20906
0.188571
0.169409
0.151524
0.134862
0.119365
0.104973
0.0916294
0.079276
0.0678588
0.0573288
0.0476439
0.0387739
0.0309667
0.0237012
0.0172325
0.0116686
0.00718973
0.00411984
0.00231626
0.00126859
0.000672463
0.000342773
0.000166814
7.69798e-05
3.34509e-05
1.36276e-05
5.34029e-06
2.42996e-06
1.58507e-06
1.1954e-06
8.87206e-07
6.30412e-07
4.25063e-07
2.70279e-07
1.61693e-07
9.12495e-08
4.88942e-08
2.50698e-08
1.23847e-08
5.95924e-09
2.80685e-09
1.29722e-09
5.89368e-10
2.63645e-10
1.16286e-10
5.06397e-11
2.17999e-11
9.28818e-12
3.92048e-12
1.64049e-12
6.80104e-13
2.78653e-13
1.11705e-13
4.27603e-14
1.42244e-14
2.59124e-15
0.999997
0.999987
0.999971
0.999943
0.999896
0.999819
0.999692
0.999486
0.999153
0.998624
0.997796
0.99652
0.994592
0.991744
0.987636
0.981874
0.974029
0.963689
0.950503
0.934235
0.914792
0.892223
0.866705
0.838514
0.807992
0.77552
0.741495
0.706315
0.670365
0.63401
0.597586
0.561396
0.525707
0.49075
0.456717
0.423767
0.392029
0.361601
0.332552
0.304926
0.278747
0.254016
0.230722
0.208839
0.188332
0.169155
0.151258
0.134586
0.119082
0.104687
0.0913424
0.0789908
0.0675782
0.0570552
0.0473796
0.03852
0.0307231
0.0234391
0.016986
0.0114544
0.00702269
0.00402107
0.00225814
0.00123491
0.000653406
0.000332323
0.000161301
7.42129e-05
3.21384e-05
1.30484e-05
5.11374e-06
2.36713e-06
1.56624e-06
1.18265e-06
8.76047e-07
6.20892e-07
4.17409e-07
2.64576e-07
1.57793e-07
8.88044e-08
4.74762e-08
2.42991e-08
1.19871e-08
5.76307e-09
2.71275e-09
1.25316e-09
5.69165e-10
2.54554e-10
1.12264e-10
4.88867e-11
2.10459e-11
8.96767e-12
3.78562e-12
1.58425e-12
6.56868e-13
2.69158e-13
1.07902e-13
4.13085e-14
1.37381e-14
2.50927e-15
0.999997
0.999987
0.999971
0.999943
0.999897
0.99982
0.999693
0.999487
0.999156
0.998628
0.997802
0.99653
0.994607
0.991766
0.987668
0.981918
0.974089
0.963766
0.950598
0.93435
0.914924
0.89237
0.866867
0.838688
0.808172
0.775701
0.741672
0.706483
0.670521
0.634149
0.597705
0.561492
0.525778
0.490795
0.456735
0.423758
0.391992
0.361537
0.332463
0.304814
0.278612
0.253861
0.230549
0.20865
0.188128
0.16894
0.151034
0.134356
0.118847
0.10445
0.0911046
0.0787546
0.0673452
0.056827
0.0471573
0.0383034
0.03051
0.0232329
0.0167948
0.0112873
0.00689139
0.00394308
0.00221211
0.0012082
0.000638285
0.000324036
0.000156936
7.20265e-05
3.11045e-05
1.25946e-05
4.93904e-06
2.32184e-06
1.55284e-06
1.17315e-06
8.67475e-07
6.13455e-07
4.11374e-07
2.60056e-07
1.54697e-07
8.68623e-08
4.63502e-08
2.36869e-08
1.16711e-08
5.60708e-09
2.63786e-09
1.21806e-09
5.53057e-10
2.473e-10
1.09052e-10
4.74856e-11
2.04428e-11
8.71109e-12
3.67758e-12
1.53916e-12
6.3823e-13
2.61538e-13
1.04849e-13
4.01425e-14
1.33475e-14
2.44348e-15
0.999997
0.999987
0.999971
0.999943
0.999897
0.99982
0.999694
0.999489
0.999158
0.998631
0.997807
0.996537
0.994619
0.991782
0.987692
0.981951
0.974134
0.963824
0.950672
0.934439
0.915028
0.892487
0.866993
0.83882
0.808307
0.775835
0.741802
0.706606
0.670632
0.634247
0.597787
0.561556
0.525823
0.490819
0.456739
0.42374
0.391953
0.361478
0.332384
0.304716
0.278497
0.253731
0.230405
0.208495
0.187963
0.168766
0.150854
0.134171
0.118659
0.10426
0.0909144
0.0785653
0.0671581
0.0566431
0.0469775
0.0381286
0.0303416
0.0230736
0.0166486
0.0111598
0.00679117
0.00388354
0.00217697
0.0011878
0.000626741
0.000317713
0.000153608
7.03625e-05
3.03193e-05
1.22511e-05
4.80811e-06
2.29027e-06
1.54435e-06
1.16683e-06
8.6147e-07
6.08067e-07
4.06909e-07
2.56669e-07
1.52355e-07
8.53847e-08
4.54897e-08
2.32176e-08
1.14282e-08
5.48695e-09
2.58011e-09
1.19096e-09
5.40613e-10
2.41693e-10
1.06567e-10
4.64011e-11
1.99758e-11
8.51229e-12
3.59384e-12
1.5042e-12
6.23771e-13
2.55624e-13
1.02479e-13
3.92374e-14
1.30442e-14
2.39246e-15
0.999997
0.999987
0.999971
0.999943
0.999897
0.99982
0.999695
0.999489
0.999159
0.998634
0.99781
0.996542
0.994627
0.991795
0.987709
0.981976
0.974167
0.963867
0.950725
0.934502
0.915102
0.89257
0.867082
0.838913
0.808402
0.775929
0.741893
0.70669
0.670709
0.634313
0.597841
0.561597
0.525849
0.490831
0.456734
0.42372
0.391918
0.361428
0.33232
0.304639
0.278408
0.253631
0.230295
0.208376
0.187838
0.168635
0.150718
0.134032
0.118518
0.104118
0.090772
0.0784237
0.0670181
0.0565055
0.0468432
0.0379987
0.0302176
0.022957
0.0165419
0.0110669
0.00671817
0.00384026
0.00215146
0.00117302
0.000618389
0.000313144
0.000151207
6.91635e-05
2.97547e-05
1.20051e-05
4.71564e-06
2.26961e-06
1.53965e-06
1.16309e-06
8.57622e-07
6.04455e-07
4.03836e-07
2.54299e-07
1.50699e-07
8.43292e-08
4.48696e-08
2.28772e-08
1.12514e-08
5.39929e-09
2.53791e-09
1.17115e-09
5.31508e-10
2.37588e-10
1.04748e-10
4.56071e-11
1.96338e-11
8.36671e-12
3.53251e-12
1.47859e-12
6.13181e-13
2.51293e-13
1.00744e-13
3.85746e-14
1.28222e-14
2.35513e-15
0.999997
0.999987
0.999971
0.999943
0.999897
0.999821
0.999695
0.99949
0.99916
0.998635
0.997813
0.996546
0.994632
0.991803
0.987721
0.981992
0.974188
0.963894
0.950759
0.934543
0.915148
0.892622
0.867139
0.838972
0.808462
0.775989
0.74195
0.706743
0.670756
0.634354
0.597874
0.561621
0.525864
0.490835
0.456729
0.423704
0.391892
0.361392
0.332275
0.304586
0.278347
0.253563
0.230221
0.208297
0.187754
0.168547
0.150627
0.133939
0.118424
0.104023
0.0906772
0.0783295
0.0669251
0.0564143
0.0467544
0.0379129
0.0301359
0.0228804
0.016472
0.0110062
0.00667061
0.00381207
0.00213486
0.00116341
0.000612962
0.000310178
0.000149651
6.83872e-05
2.93898e-05
1.18466e-05
4.65693e-06
2.25741e-06
1.53722e-06
1.16106e-06
8.55385e-07
6.02277e-07
4.01944e-07
2.52823e-07
1.4966e-07
8.36611e-08
4.44732e-08
2.26581e-08
1.1137e-08
5.34247e-09
2.51052e-09
1.15827e-09
5.25586e-10
2.34917e-10
1.03564e-10
4.50901e-11
1.94111e-11
8.27186e-12
3.49253e-12
1.46189e-12
6.06275e-13
2.48468e-13
9.9612e-14
3.81422e-14
1.26773e-14
2.33079e-15
0.999997
0.999987
0.999971
0.999943
0.999897
0.999821
0.999695
0.99949
0.99916
0.998636
0.997814
0.996548
0.994635
0.991806
0.987726
0.981999
0.974198
0.963907
0.950775
0.934562
0.915171
0.892647
0.867166
0.839
0.80849
0.776017
0.741977
0.706768
0.670779
0.634373
0.597889
0.561631
0.52587
0.490836
0.456725
0.423696
0.391879
0.361374
0.332253
0.304559
0.278316
0.253529
0.230184
0.208257
0.187712
0.168504
0.150583
0.133893
0.118377
0.103976
0.0906303
0.0782829
0.0668792
0.0563692
0.0467105
0.0378706
0.0300957
0.0228427
0.0164377
0.0109764
0.00664727
0.00379825
0.00212673
0.0011587
0.000610308
0.00030873
0.000148891
6.80093e-05
2.92125e-05
1.17699e-05
4.6288e-06
2.25182e-06
1.53619e-06
1.16017e-06
8.54377e-07
6.0128e-07
4.01072e-07
2.52142e-07
1.49181e-07
8.33547e-08
4.42913e-08
2.25572e-08
1.10841e-08
5.31609e-09
2.49776e-09
1.15225e-09
5.22813e-10
2.33663e-10
1.03007e-10
4.48462e-11
1.93057e-11
8.22687e-12
3.47352e-12
1.45392e-12
6.02972e-13
2.47113e-13
9.90673e-14
3.79335e-14
1.26072e-14
2.31904e-15
0.999997
0.999987
0.999971
0.999943
0.999897
0.999821
0.999695
0.99949
0.99916
0.998636
0.997814
0.996548
0.994635
0.991806
0.987726
0.981999
0.974198
0.963907
0.950775
0.934562
0.915171
0.892647
0.867166
0.839
0.80849
0.776017
0.741977
0.706768
0.670779
0.634373
0.597889
0.561631
0.52587
0.490836
0.456725
0.423696
0.391879
0.361374
0.332253
0.304559
0.278316
0.253529
0.230184
0.208257
0.187712
0.168504
0.150583
0.133893
0.118377
0.103976
0.0906303
0.0782829
0.0668791
0.0563692
0.0467105
0.0378706
0.0300957
0.0228427
0.0164376
0.0109764
0.00664726
0.00379825
0.00212673
0.0011587
0.000610308
0.00030873
0.000148891
6.80092e-05
2.92124e-05
1.17699e-05
4.6288e-06
2.25182e-06
1.53619e-06
1.16017e-06
8.54377e-07
6.0128e-07
4.01072e-07
2.52142e-07
1.49181e-07
8.33547e-08
4.42913e-08
2.25572e-08
1.10841e-08
5.31609e-09
2.49776e-09
1.15225e-09
5.22813e-10
2.33663e-10
1.03007e-10
4.48462e-11
1.93057e-11
8.22688e-12
3.47352e-12
1.45392e-12
6.02973e-13
2.47114e-13
9.90673e-14
3.79335e-14
1.26072e-14
2.31907e-15
0.999997
0.999987
0.999971
0.999943
0.999897
0.999821
0.999695
0.99949
0.99916
0.998635
0.997813
0.996546
0.994632
0.991803
0.987721
0.981992
0.974188
0.963894
0.950759
0.934543
0.915148
0.892622
0.867139
0.838972
0.808462
0.775989
0.74195
0.706743
0.670756
0.634354
0.597874
0.561621
0.525864
0.490835
0.456729
0.423704
0.391892
0.361392
0.332275
0.304586
0.278347
0.253563
0.230221
0.208297
0.187754
0.168547
0.150627
0.133939
0.118424
0.104023
0.0906772
0.0783295
0.0669251
0.0564143
0.0467543
0.0379129
0.0301359
0.0228803
0.016472
0.0110062
0.00667059
0.00381207
0.00213486
0.0011634
0.00061296
0.000310177
0.00014965
6.8387e-05
2.93897e-05
1.18466e-05
4.65691e-06
2.25741e-06
1.53722e-06
1.16105e-06
8.55384e-07
6.02277e-07
4.01944e-07
2.52823e-07
1.4966e-07
8.36611e-08
4.44732e-08
2.26581e-08
1.1137e-08
5.34247e-09
2.51052e-09
1.15827e-09
5.25587e-10
2.34918e-10
1.03565e-10
4.50902e-11
1.94111e-11
8.27188e-12
3.49254e-12
1.46189e-12
6.06277e-13
2.48469e-13
9.9612e-14
3.81423e-14
1.26772e-14
2.33088e-15
0.999997
0.999987
0.999971
0.999943
0.999897
0.99982
0.999695
0.999489
0.999159
0.998634
0.99781
0.996542
0.994627
0.991795
0.98771
0.981976
0.974167
0.963867
0.950725
0.934502
0.915102
0.89257
0.867082
0.838913
0.808402
0.775929
0.741893
0.70669
0.670709
0.634313
0.597841
0.561597
0.525849
0.490831
0.456734
0.42372
0.391918
0.361428
0.33232
0.304639
0.278408
0.253631
0.230295
0.208376
0.187838
0.168635
0.150718
0.134032
0.118518
0.104118
0.0907719
0.0784236
0.067018
0.0565055
0.0468432
0.0379987
0.0302175
0.0229569
0.0165419
0.0110669
0.00671815
0.00384025
0.00215146
0.00117301
0.000618386
0.000313142
0.000151207
6.91632e-05
2.97546e-05
1.2005e-05
4.71561e-06
2.2696e-06
1.53964e-06
1.16309e-06
8.5762e-07
6.04455e-07
4.03836e-07
2.54299e-07
1.50699e-07
8.43291e-08
4.48696e-08
2.28772e-08
1.12514e-08
5.39929e-09
2.53791e-09
1.17115e-09
5.31508e-10
2.37588e-10
1.04749e-10
4.56073e-11
1.96339e-11
8.36674e-12
3.53252e-12
1.47859e-12
6.13183e-13
2.51293e-13
1.00744e-13
3.85747e-14
1.28221e-14
2.35526e-15
0.999997
0.999987
0.999971
0.999943
0.999897
0.99982
0.999694
0.999489
0.999158
0.998631
0.997807
0.996537
0.994619
0.991783
0.987692
0.981952
0.974134
0.963824
0.950672
0.934439
0.915028
0.892488
0.866994
0.83882
0.808307
0.775835
0.741802
0.706606
0.670632
0.634247
0.597787
0.561556
0.525823
0.490819
0.456739
0.42374
0.391953
0.361478
0.332384
0.304716
0.278497
0.253731
0.230405
0.208495
0.187963
0.168766
0.150854
0.134171
0.118659
0.10426
0.0909144
0.0785653
0.067158
0.056643
0.0469773
0.0381285
0.0303414
0.0230735
0.0166485
0.0111597
0.00679112
0.00388351
0.00217695
0.00118779
0.000626737
0.000317711
0.000153608
7.03622e-05
3.03192e-05
1.22511e-05
4.80809e-06
2.29027e-06
1.54435e-06
1.16683e-06
8.61469e-07
6.08066e-07
4.06909e-07
2.56669e-07
1.52355e-07
8.53846e-08
4.54896e-08
2.32175e-08
1.14282e-08
5.48695e-09
2.58011e-09
1.19096e-09
5.40614e-10
2.41693e-10
1.06568e-10
4.64013e-11
1.99759e-11
8.51233e-12
3.59385e-12
1.5042e-12
6.23773e-13
2.55624e-13
1.02479e-13
3.92375e-14
1.30441e-14
2.39261e-15
0.999997
0.999987
0.999971
0.999943
0.999897
0.99982
0.999693
0.999487
0.999156
0.998628
0.997802
0.99653
0.994607
0.991766
0.987668
0.981918
0.974089
0.963766
0.950599
0.93435
0.914924
0.89237
0.866867
0.838688
0.808172
0.775701
0.741672
0.706483
0.670521
0.634149
0.597705
0.561492
0.525778
0.490795
0.456735
0.423758
0.391992
0.361537
0.332463
0.304814
0.278612
0.253861
0.230548
0.20865
0.188128
0.16894
0.151034
0.134355
0.118847
0.10445
0.0911045
0.0787545
0.0673451
0.0568269
0.0471571
0.0383031
0.0305089
0.0232322
0.0167948
0.0112873
0.00689138
0.00394307
0.0022121
0.00120818
0.000638276
0.00032403
0.000156933
7.2025e-05
3.11038e-05
1.25943e-05
4.93892e-06
2.3218e-06
1.55282e-06
1.17314e-06
8.67472e-07
6.13453e-07
4.11373e-07
2.60056e-07
1.54696e-07
8.6862e-08
4.635e-08
2.36869e-08
1.16711e-08
5.60706e-09
2.63785e-09
1.21806e-09
5.53057e-10
2.47301e-10
1.09052e-10
4.74858e-11
2.04429e-11
8.71112e-12
3.6776e-12
1.53917e-12
6.38231e-13
2.61538e-13
1.04849e-13
4.01425e-14
1.33474e-14
2.44366e-15
0.999997
0.999987
0.999971
0.999943
0.999896
0.999819
0.999692
0.999486
0.999153
0.998624
0.997796
0.99652
0.994592
0.991744
0.987636
0.981874
0.97403
0.963689
0.950503
0.934235
0.914792
0.892223
0.866705
0.838514
0.807992
0.77552
0.741495
0.706315
0.670365
0.63401
0.597586
0.561396
0.525707
0.49075
0.456717
0.423767
0.392029
0.361601
0.332552
0.304926
0.278747
0.254016
0.230722
0.208839
0.188332
0.169154
0.151258
0.134586
0.119082
0.104687
0.0913425
0.078991
0.0675787
0.0570561
0.0473809
0.0385209
0.03072
0.0234358
0.0169869
0.0114556
0.00702355
0.00402162
0.00225845
0.00123507
0.000653486
0.00033236
0.000161317
7.42194e-05
3.21408e-05
1.30493e-05
5.11399e-06
2.36719e-06
1.56624e-06
1.18265e-06
8.76041e-07
6.20887e-07
4.17406e-07
2.64574e-07
1.57792e-07
8.88038e-08
4.74759e-08
2.42989e-08
1.1987e-08
5.76304e-09
2.71274e-09
1.25315e-09
5.69164e-10
2.54554e-10
1.12264e-10
4.88869e-11
2.1046e-11
8.9677e-12
3.78563e-12
1.58425e-12
6.56868e-13
2.69158e-13
1.07901e-13
4.13084e-14
1.37379e-14
2.50946e-15
0.999997
0.999987
0.99997
0.999943
0.999896
0.999819
0.999691
0.999484
0.99915
0.998619
0.997788
0.996508
0.994574
0.991716
0.987596
0.981818
0.973955
0.963591
0.95038
0.934087
0.914619
0.892028
0.86649
0.838286
0.807756
0.775282
0.741261
0.70609
0.670155
0.633819
0.597419
0.561256
0.525597
0.490673
0.456674
0.423758
0.392054
0.361659
0.332642
0.305048
0.278897
0.254192
0.230922
0.20906
0.188571
0.169409
0.151524
0.134862
0.119364
0.104973
0.0916293
0.0792759
0.0678587
0.0573287
0.0476439
0.0387739
0.0309667
0.0237012
0.0172324
0.0116685
0.00718967
0.0041198
0.00231624
0.00126857
0.000672454
0.000342768
0.000166811
7.69785e-05
3.34502e-05
1.36274e-05
5.34017e-06
2.42992e-06
1.58504e-06
1.19538e-06
8.87193e-07
6.30403e-07
4.25057e-07
2.70275e-07
1.61691e-07
9.12483e-08
4.88936e-08
2.50696e-08
1.23846e-08
5.95919e-09
2.80682e-09
1.29721e-09
5.89366e-10
2.63644e-10
1.16286e-10
5.06397e-11
2.17999e-11
9.28819e-12
3.92048e-12
1.64049e-12
6.80101e-13
2.78652e-13
1.11704e-13
4.276e-14
1.42241e-14
2.59144e-15
0.999997
0.999987
0.99997
0.999942
0.999895
0.999818
0.99969
0.999482
0.999146
0.998613
0.997778
0.996493
0.994551
0.991682
0.987547
0.981749
0.973861
0.963469
0.950227
0.9339
0.914398
0.891773
0.866205
0.837988
0.80745
0.774972
0.740954
0.705793
0.669874
0.633561
0.597188
0.561057
0.525435
0.490549
0.456591
0.423717
0.392054
0.361701
0.332724
0.305168
0.279053
0.254382
0.231143
0.209308
0.188842
0.1697
0.151832
0.135183
0.119696
0.105311
0.09197
0.0796159
0.0681943
0.057655
0.0479548
0.0390602
0.0311899
0.0240814
0.0175488
0.0119307
0.00739078
0.00423843
0.00238602
0.00130906
0.00069542
0.000355405
0.000173507
8.03563e-05
3.50616e-05
1.43433e-05
5.62362e-06
2.5117e-06
1.60817e-06
1.21013e-06
9.0013e-07
6.41561e-07
4.34123e-07
2.77096e-07
1.66391e-07
9.42144e-08
5.0622e-08
2.60121e-08
1.28718e-08
6.19975e-09
2.92225e-09
1.35126e-09
6.14139e-10
2.74785e-10
1.21212e-10
5.27852e-11
2.27219e-11
9.67987e-12
4.08516e-12
1.70912e-12
7.08435e-13
2.90224e-13
1.16336e-13
4.45281e-14
1.48163e-14
2.69125e-15
0.999997
0.999987
0.99997
0.999942
0.999895
0.999817
0.999688
0.999479
0.999142
0.998606
0.997767
0.996475
0.994523
0.991641
0.987488
0.981666
0.973748
0.963321
0.950039
0.933672
0.914131
0.891472
0.865877
0.837629
0.80707
0.774582
0.740563
0.70541
0.669507
0.633218
0.596876
0.560782
0.525201
0.490361
0.456451
0.423627
0.392015
0.361711
0.332784
0.305276
0.279206
0.254577
0.231375
0.209575
0.18914
0.170025
0.15218
0.13555
0.120077
0.105703
0.0923693
0.0800192
0.0685983
0.0580569
0.0483519
0.0394498
0.031536
0.0244243
0.0178696
0.0122126
0.00761371
0.00437182
0.00246547
0.00135567
0.000722123
0.000370236
0.000181435
8.43897e-05
3.70014e-05
1.52108e-05
5.96412e-06
2.59498e-06
1.62703e-06
1.22239e-06
9.12634e-07
6.53312e-07
4.44146e-07
2.84863e-07
1.7185e-07
9.77056e-08
5.26752e-08
2.71386e-08
1.34564e-08
6.48913e-09
3.0613e-09
1.41642e-09
6.44011e-10
2.88218e-10
1.27149e-10