/*--------------------------------*- C++ -*----------------------------------*\
  =========                 |
  \\      /  F ield         | OpenFOAM: The Open Source CFD Toolbox
   \\    /   O peration     | Website:  https://openfoam.org
    \\  /    A nd           | Version:  8
     \\/     M anipulation  |
\*---------------------------------------------------------------------------*/
FoamFile
{
    version     2.0;
    format      ascii;
    class       volScalarField;
    location    "0.35/fluid";
    object      CO2;
}
// * * * * * * * * * * * * * * * * * * * * * * * * * * * * * * * * * * * * * //

dimensions      [0 0 0 0 0 0 0];

internalField   nonuniform List<scalar> 
4000
(
4.72469e-07
2.06484e-06
4.74369e-06
9.2369e-06
1.67413e-05
2.92051e-05
4.97621e-05
8.33796e-05
0.000137796
0.000224812
0.000361978
0.000574589
0.000897903
0.00137844
0.00207382
0.00305048
0.00437799
0.00612025
0.00832609
0.0110219
0.0142087
0.0178637
0.0219454
0.0263993
0.0311634
0.0361726
0.0413619
0.0466684
0.0520522
0.0574634
0.0628324
0.0681224
0.0733009
0.0783408
0.08322
0.0879209
0.0924301
0.0967381
0.100839
0.104732
0.108415
0.111891
0.115165
0.118241
0.121127
0.12383
0.126356
0.128714
0.130912
0.132955
0.13485
0.136599
0.138203
0.139656
0.140944
0.142044
0.142909
0.14346
0.143592
0.143118
0.141727
0.138922
0.133873
0.125908
0.116391
0.106141
0.0956588
0.0852592
0.0751402
0.0654444
0.0562633
0.0476636
0.0397255
0.0324339
0.025603
0.0195687
0.0143266
0.00994901
0.00648867
0.00394478
0.00223113
0.00117948
0.000588144
0.000280936
0.000130306
5.90402e-05
2.62425e-05
1.14796e-05
4.95489e-06
2.11474e-06
8.9406e-07
3.74969e-07
1.56179e-07
6.46389e-08
2.65696e-08
1.08145e-08
4.31942e-09
1.64823e-09
5.50252e-10
9.64663e-11
4.71949e-07
2.06288e-06
4.7405e-06
9.23432e-06
1.67441e-05
2.92221e-05
4.98036e-05
8.34473e-05
0.000137854
0.000224731
0.000361413
0.000572801
0.000893191
0.00136754
0.00205221
0.00301221
0.00431569
0.00602606
0.00819293
0.0108448
0.0139858
0.0175966
0.0216385
0.0260597
0.0307998
0.035795
0.0409809
0.0463081
0.0517147
0.0571148
0.0624883
0.0677924
0.0729912
0.0780552
0.0829605
0.0876884
0.0922246
0.096559
0.100686
0.104602
0.108307
0.111805
0.115097
0.118191
0.121092
0.123808
0.126347
0.128716
0.130923
0.132974
0.134875
0.136629
0.138235
0.139689
0.140975
0.142069
0.142922
0.14345
0.143546
0.143013
0.141527
0.138567
0.133261
0.125128
0.115499
0.105172
0.0946359
0.0841994
0.0740562
0.0643516
0.0551752
0.0465989
0.0387137
0.0314672
0.0247383
0.0187271
0.0135658
0.00931182
0.0060013
0.00361052
0.00202819
0.00107053
0.000535911
0.000257755
0.000120593
5.51509e-05
2.47392e-05
1.09135e-05
4.74497e-06
2.03722e-06
8.65241e-07
3.64083e-07
1.51979e-07
6.29832e-08
2.59062e-08
1.05471e-08
4.21262e-09
1.60728e-09
5.36429e-10
9.41625e-11
4.72383e-07
2.06504e-06
4.7467e-06
9.24925e-06
1.6776e-05
2.92829e-05
4.99076e-05
8.3603e-05
0.000138043
0.000224857
0.000361201
0.000571588
0.000889654
0.00135992
0.00203743
0.00298564
0.00427134
0.00595689
0.00809169
0.0107051
0.0138028
0.0173681
0.0213653
0.025745
0.0304494
0.0354164
0.0405884
0.0459125
0.0512874
0.0566907
0.0620737
0.0673932
0.0726125
0.077701
0.0826338
0.0873914
0.0919585
0.0963243
0.100482
0.104429
0.108163
0.111688
0.115007
0.118124
0.121047
0.123784
0.12634
0.128725
0.130946
0.133008
0.134919
0.13668
0.138291
0.139745
0.141028
0.14211
0.142943
0.143432
0.143471
0.142841
0.141199
0.137984
0.13226
0.123863
0.114065
0.103632
0.0930348
0.0825684
0.072422
0.0627398
0.053608
0.0451011
0.0373089
0.0301293
0.0235027
0.0176758
0.0127099
0.00865857
0.00554317
0.00331982
0.00186208
0.000984347
0.00049469
0.000238981
0.000112344
5.16246e-05
2.32649e-05
1.03078e-05
4.49939e-06
1.93842e-06
8.25616e-07
3.48178e-07
1.45572e-07
6.0391e-08
2.4854e-08
1.01207e-08
4.04195e-09
1.54172e-09
5.14269e-10
9.03704e-11
4.71077e-07
2.05927e-06
4.73309e-06
9.22153e-06
1.67218e-05
2.91774e-05
4.97002e-05
8.31934e-05
0.000137239
0.000223304
0.000358289
0.000566338
0.000880664
0.0013449
0.00201316
0.00294795
0.00421521
0.00587693
0.00798265
0.0105626
0.0136239
0.0171516
0.0211117
0.0254568
0.0301306
0.0350724
0.040237
0.0455204
0.0508921
0.0562977
0.0616882
0.0670203
0.0722568
0.0773664
0.0823236
0.0871079
0.0917035
0.0960989
0.100287
0.104263
0.108026
0.111579
0.114924
0.118067
0.121013
0.123771
0.126347
0.128748
0.130984
0.133059
0.13498
0.136749
0.138364
0.139818
0.141094
0.142162
0.142969
0.143412
0.143381
0.142634
0.140804
0.137286
0.131064
0.122362
0.11238
0.10184
0.0911905
0.0807131
0.0705925
0.060965
0.0519146
0.0435193
0.0358555
0.0287657
0.0222958
0.0166468
0.0118726
0.0080171
0.00508767
0.00302373
0.00168664
0.000889055
0.000446669
0.000216137
0.000101882
4.69736e-05
2.12457e-05
9.44815e-06
4.13928e-06
1.7896e-06
7.6476e-07
3.23493e-07
1.35615e-07
5.63907e-08
2.32528e-08
9.48366e-09
3.79203e-09
1.44751e-09
4.82921e-10
8.50014e-11
4.68636e-07
2.04851e-06
4.70798e-06
9.17143e-06
1.66278e-05
2.90057e-05
4.93908e-05
8.26402e-05
0.000136257
0.000221578
0.000355295
0.000561232
0.000872139
0.00133102
0.00199125
0.00291451
0.00416609
0.00580761
0.00788877
0.0104404
0.013471
0.0169668
0.0208955
0.0252108
0.0298577
0.0347805
0.0399093
0.0451864
0.0505549
0.0559617
0.061358
0.0667004
0.0719513
0.0770788
0.082057
0.0868647
0.0914855
0.0959071
0.100122
0.104125
0.107915
0.111494
0.114863
0.118029
0.120998
0.123775
0.126369
0.128787
0.131037
0.133124
0.135054
0.13683
0.138448
0.1399
0.14117
0.142221
0.142998
0.143393
0.143285
0.142414
0.140386
0.136551
0.129813
0.1208
0.110635
0.0999976
0.0893102
0.0788381
0.0687621
0.0592087
0.0502595
0.0419973
0.0344664
0.0274618
0.0211606
0.0156929
0.0111079
0.0074408
0.00468561
0.00276693
0.00153672
0.000808393
0.00040613
0.000196774
9.2936e-05
4.29462e-05
1.94701e-05
8.67864e-06
3.81048e-06
1.65075e-06
7.06696e-07
2.99405e-07
1.25688e-07
5.23237e-08
2.15965e-08
8.81502e-09
3.52644e-09
1.34672e-09
4.4927e-10
7.91995e-11
4.65272e-07
2.03369e-06
4.67341e-06
9.10256e-06
1.64993e-05
2.87736e-05
4.89794e-05
8.19209e-05
0.000135015
0.000219461
0.000351743
0.000555381
0.000862712
0.00131622
0.00196867
0.00288118
0.0041186
0.00574242
0.00780262
0.0103307
0.0133361
0.0168063
0.02071
0.0250021
0.0296285
0.0345408
0.0396507
0.0449163
0.0502795
0.0556861
0.0610869
0.066438
0.0717012
0.0768444
0.0818407
0.0866688
0.0913114
0.0957561
0.0999942
0.104021
0.107835
0.111436
0.114828
0.118014
0.121002
0.123797
0.126407
0.128839
0.131101
0.133199
0.135137
0.136918
0.138538
0.139988
0.141248
0.142282
0.143026
0.143373
0.143186
0.142191
0.139967
0.135818
0.128584
0.119277
0.108945
0.0982243
0.0875115
0.0770559
0.0670345
0.0575629
0.0487208
0.0405955
0.0331926
0.0262663
0.0201304
0.0148338
0.0104232
0.00692689
0.00432759
0.00253764
0.0014018
0.000734842
0.000368529
0.000178533
8.43793e-05
3.90404e-05
1.77275e-05
7.91607e-06
3.48224e-06
1.51142e-06
6.4824e-07
2.75115e-07
1.15674e-07
4.82227e-08
1.99277e-08
8.14204e-09
3.25937e-09
1.24547e-09
4.15648e-10
7.3394e-11
4.61557e-07
2.01739e-06
4.6356e-06
9.02791e-06
1.63615e-05
2.85281e-05
4.85508e-05
8.11841e-05
0.000133765
0.000217371
0.0003483
0.00054981
0.000853882
0.00130256
0.0019481
0.00285117
0.00407629
0.00568488
0.00772721
0.0102354
0.0132199
0.016669
0.0205526
0.0248266
0.0294387
0.0343254
0.0394291
0.0446905
0.0500524
0.055461
0.0608671
0.0662268
0.0715015
0.0766586
0.0816711
0.086517
0.0911788
0.0956434
0.0999019
0.103949
0.107783
0.111404
0.114814
0.118019
0.121022
0.123832
0.126456
0.128901
0.131173
0.133279
0.135224
0.137008
0.138628
0.140074
0.141324
0.142339
0.14305
0.143347
0.14308
0.141962
0.139546
0.135095
0.127409
0.117841
0.107365
0.0965773
0.0858504
0.0754185
0.0654545
0.0560642
0.0473254
0.0393309
0.0320209
0.0252217
0.0192261
0.0140794
0.00982355
0.00647918
0.00401787
0.00234074
0.00128664
0.000672291
0.000336565
0.000162988
7.70537e-05
3.56753e-05
1.62145e-05
7.24829e-06
3.19219e-06
1.38718e-06
5.95658e-07
2.53086e-07
1.06525e-07
4.44519e-08
1.83848e-08
7.51715e-09
3.01054e-09
1.15089e-09
3.84187e-10
6.79591e-11
4.57782e-07
2.00084e-06
4.59731e-06
8.95255e-06
1.6223e-05
2.82824e-05
4.81246e-05
8.04565e-05
0.000132541
0.000215342
0.000344992
0.000544516
0.000845589
0.00128988
0.00192926
0.00282402
0.00403845
0.005634
0.00766122
0.0101528
0.0131199
0.0165517
0.0204189
0.024678
0.0292812
0.0341552
0.0392509
0.0445082
0.0498694
0.0552806
0.0606922
0.06606
0.0713453
0.0765151
0.0815419
0.0864034
0.0910819
0.0955637
0.0998397
0.103904
0.107756
0.111393
0.114819
0.118038
0.121056
0.123878
0.126513
0.128968
0.131248
0.133361
0.13531
0.137096
0.138716
0.140156
0.141395
0.142389
0.143063
0.143308
0.142957
0.141707
0.139081
0.13429
0.126261
0.116494
0.105911
0.0950782
0.0843491
0.0739463
0.0640403
0.0547276
0.0460849
0.0382045
0.0309866
0.0243029
0.0184331
0.0134199
0.00930144
0.00609122
0.00375076
0.00217152
0.00118776
0.000618474
0.000308942
0.000149489
7.06578e-05
3.27215e-05
1.48799e-05
6.65656e-06
2.93415e-06
1.27626e-06
5.4857e-07
2.33309e-07
9.82932e-08
4.10529e-08
1.69918e-08
6.95219e-09
2.78557e-09
1.06524e-09
3.55676e-10
6.3034e-11
4.5417e-07
1.98502e-06
4.56081e-06
8.88093e-06
1.60919e-05
2.80509e-05
4.7725e-05
7.97785e-05
0.000131408
0.000213478
0.000341976
0.000539725
0.000838143
0.00127859
0.0019126
0.00280018
0.00400547
0.00558995
0.00760447
0.0100823
0.013035
0.0164527
0.0203064
0.0245531
0.0291409
0.0340109
0.0391037
0.0443599
0.0497223
0.0551369
0.0605544
0.0659301
0.0712252
0.0764064
0.0814459
0.0863212
0.0910141
0.0955107
0.0998017
0.103881
0.107747
0.111398
0.114837
0.118069
0.121098
0.123931
0.126574
0.129037
0.131324
0.133441
0.135394
0.137181
0.138797
0.140232
0.141458
0.142431
0.143068
0.14326
0.142823
0.141436
0.138591
0.133441
0.125165
0.115254
0.104596
0.0937348
0.0830118
0.0726439
0.0627935
0.053553
0.0449989
0.0372188
0.0300759
0.023497
0.0177399
0.0128458
0.00884918
0.00575715
0.00352225
0.00202763
0.00110405
0.000573022
0.000285619
0.000138075
6.52365e-05
3.02097e-05
1.37407e-05
6.14945e-06
2.7121e-06
1.18043e-06
5.07733e-07
2.16096e-07
9.11062e-08
3.80768e-08
1.57694e-08
6.45534e-09
2.58743e-09
9.89726e-10
3.30517e-10
5.86875e-11
4.50837e-07
1.97044e-06
4.5272e-06
8.81509e-06
1.59716e-05
2.78391e-05
4.73607e-05
7.91628e-05
0.000130383
0.0002118
0.000339274
0.000535459
0.000831551
0.00126865
0.00189803
0.00277947
0.003977
0.00555218
0.00755613
0.0100226
0.0129638
0.0163705
0.0202148
0.0244555
0.0290335
0.0338972
0.0389866
0.044242
0.0496059
0.0550243
0.0604473
0.0658305
0.0711345
0.0763259
0.0813766
0.0862638
0.0909691
0.0954784
0.0997822
0.103874
0.107752
0.111414
0.114864
0.118106
0.121144
0.123985
0.126636
0.129105
0.131397
0.133518
0.135472
0.137259
0.138873
0.1403
0.141514
0.142466
0.143068
0.14321
0.142692
0.141178
0.138128
0.132644
0.124169
0.114144
0.103428
0.0925497
0.0818372
0.0715043
0.0617057
0.052531
0.0440574
0.0363636
0.0292795
0.0227945
0.0171378
0.0123491
0.00845976
0.0054711
0.00332771
0.00190572
0.00103337
0.000534689
0.000265941
0.000128432
6.0647e-05
2.80783e-05
1.27716e-05
5.717e-06
2.52228e-06
1.09832e-06
4.72667e-07
2.01285e-07
8.49105e-08
3.55068e-08
1.47122e-08
6.02507e-09
2.41569e-09
9.24249e-10
3.08691e-10
5.49181e-11
4.47846e-07
1.95736e-06
4.49708e-06
8.75619e-06
1.58642e-05
2.76505e-05
4.70371e-05
7.86175e-05
0.000129479
0.000210324
0.000336909
0.00053174
0.00082583
0.00126007
0.00188551
0.00276175
0.00395276
0.00552015
0.00751529
0.00997225
0.0129037
0.0163007
0.0201352
0.0243669
0.028942
0.0338036
0.038892
0.044148
0.0495142
0.0549365
0.060365
0.065755
0.0710671
0.0762675
0.081328
0.0862255
0.0909415
0.0954616
0.099776
0.103878
0.107766
0.111438
0.114897
0.118147
0.121192
0.12404
0.126697
0.129169
0.131465
0.133589
0.135544
0.13733
0.138941
0.140361
0.141564
0.142497
0.143067
0.143164
0.142574
0.140946
0.137716
0.131937
0.12329
0.113169
0.102407
0.0915166
0.080816
0.0705161
0.0607646
0.0516487
0.0432469
0.0356269
0.0285879
0.0221862
0.016618
0.0119219
0.00812635
0.0052275
0.00316298
0.00180302
0.000974045
0.000502587
0.000249473
0.000120358
5.68e-05
2.62889e-05
1.19565e-05
5.35255e-06
2.36198e-06
1.02884e-06
4.42934e-07
1.88705e-07
7.96384e-08
3.33166e-08
1.381e-08
5.65739e-09
2.26878e-09
8.68206e-10
2.90003e-10
5.16937e-11
4.4522e-07
1.94588e-06
4.47066e-06
8.70459e-06
1.57703e-05
2.74857e-05
4.67551e-05
7.81434e-05
0.000128695
0.000209049
0.00033487
0.000528546
0.000820936
0.00125275
0.00187488
0.00274679
0.00393239
0.0054934
0.00748144
0.00993097
0.0128551
0.0162455
0.0200745
0.0243001
0.0288709
0.03373
0.0388176
0.0440745
0.049443
0.054869
0.0603027
0.0656989
0.0710181
0.0762264
0.0812953
0.0862017
0.0909266
0.0954558
0.099779
0.10389
0.107786
0.111465
0.114932
0.118188
0.121239
0.124092
0.126753
0.129229
0.131528
0.133653
0.135608
0.137393
0.139001
0.140416
0.141608
0.142524
0.143066
0.143124
0.14247
0.140743
0.137356
0.13132
0.122525
0.112323
0.101523
0.090624
0.0799358
0.0696662
0.0599567
0.0508929
0.0425549
0.0349956
0.0279913
0.0216629
0.0161723
0.0115569
0.00784274
0.00502132
0.00302426
0.00171693
0.000924477
0.000475816
0.000235749
0.000113628
5.3591e-05
2.47946e-05
1.1275e-05
5.04741e-06
2.22758e-06
9.70497e-07
4.17934e-07
1.78112e-07
7.51938e-08
3.1468e-08
1.30477e-08
5.34644e-09
2.14443e-09
8.20746e-10
2.74171e-10
4.89681e-11
4.42958e-07
1.936e-06
4.44793e-06
8.66023e-06
1.56896e-05
2.73445e-05
4.65137e-05
7.77384e-05
0.000128027
0.000207964
0.000333141
0.000525844
0.000816807
0.0012466
0.00186597
0.00273428
0.00391541
0.00547118
0.00745342
0.00989691
0.0128152
0.0162003
0.0200254
0.0242464
0.0288142
0.0336716
0.0387591
0.0440171
0.0493881
0.0548177
0.0602559
0.0656577
0.0709831
0.0761982
0.0812744
0.0861882
0.0909208
0.0954573
0.0997879
0.103906
0.107808
0.111494
0.114966
0.118228
0.121283
0.12414
0.126805
0.129283
0.131583
0.13371
0.135665
0.137448
0.139053
0.140462
0.141645
0.142547
0.143065
0.143089
0.142381
0.140568
0.137044
0.130786
0.121865
0.111594
0.100764
0.0898595
0.0791836
0.0689412
0.0592689
0.0502509
0.0419692
0.0344583
0.0274816
0.0212171
0.0157936
0.0112478
0.00760345
0.00484812
0.00290827
0.00164524
0.000883335
0.000453639
0.000224391
0.000108059
5.09341e-05
2.35565e-05
1.07098e-05
4.79404e-06
2.11585e-06
9.2194e-07
3.97102e-07
1.69275e-07
7.14822e-08
2.99226e-08
1.241e-08
5.08607e-09
2.04026e-09
7.80969e-10
2.609e-10
4.66853e-11
4.41046e-07
1.92765e-06
4.42874e-06
8.62281e-06
1.56216e-05
2.72256e-05
4.63108e-05
7.73985e-05
0.000127467
0.000207057
0.000331699
0.000523595
0.000813379
0.0012415
0.0018586
0.00272396
0.00390144
0.00545292
0.00743039
0.00986884
0.0127821
0.0161622
0.0199828
0.0242019
0.0287684
0.0336253
0.0387132
0.0439727
0.0493461
0.0547791
0.0602214
0.065628
0.0709588
0.0761797
0.0812619
0.086182
0.0909207
0.0954635
0.0998
0.103924
0.107832
0.111523
0.114999
0.118264
0.121324
0.124183
0.12685
0.129331
0.131632
0.133759
0.135713
0.137495
0.139097
0.1405
0.141675
0.142565
0.143062
0.14306
0.142306
0.14042
0.136777
0.130328
0.1213
0.110973
0.100119
0.0892119
0.078548
0.0683299
0.0586899
0.0497108
0.0414763
0.0340089
0.0270524
0.0208423
0.0154758
0.010989
0.00740378
0.00470415
0.00281224
0.0015861
0.000849485
0.000435425
0.000215071
0.000103489
4.87534e-05
2.25397e-05
1.02453e-05
4.58563e-06
2.02385e-06
8.81922e-07
3.79917e-07
1.61978e-07
6.84147e-08
2.86443e-08
1.18821e-08
4.87045e-09
1.95394e-09
7.48002e-10
2.499e-10
4.47941e-11
4.39465e-07
1.92074e-06
4.41287e-06
8.59188e-06
1.55655e-05
2.71275e-05
4.61436e-05
7.71189e-05
0.000127007
0.000206314
0.000330518
0.000521758
0.000810585
0.00123736
0.00185263
0.00271563
0.0038902
0.00543829
0.00741204
0.00984667
0.0127562
0.016133
0.0199506
0.0241677
0.028733
0.0335896
0.0386781
0.043939
0.0493146
0.0547505
0.0601964
0.065607
0.0709424
0.0761681
0.0812553
0.0861805
0.0909244
0.0954722
0.0998135
0.103942
0.107854
0.111549
0.115029
0.118297
0.121359
0.124221
0.12689
0.129372
0.131674
0.1338
0.135754
0.137535
0.139133
0.140533
0.1417
0.14258
0.143062
0.143036
0.142243
0.140295
0.136554
0.129946
0.120828
0.110455
0.0995821
0.0886739
0.0780206
0.0678234
0.0582107
0.0492646
0.0410698
0.0336372
0.0266968
0.0205323
0.0152135
0.0107758
0.00723973
0.00458622
0.00273384
0.00153796
0.000821998
0.000420656
0.000207519
9.97869e-05
4.69862e-05
2.17153e-05
9.86834e-06
4.4164e-06
1.9491e-06
8.49376e-07
3.65929e-07
1.56034e-07
6.59141e-08
2.76016e-08
1.14512e-08
4.69438e-09
1.88344e-09
7.21068e-10
2.40912e-10
4.32487e-11
4.3819e-07
1.91517e-06
4.40009e-06
8.56698e-06
1.55203e-05
2.70487e-05
4.60094e-05
7.68948e-05
0.000126639
0.000205719
0.000329576
0.000520294
0.000808362
0.00123407
0.0018479
0.00270904
0.00388134
0.0054268
0.00739771
0.00982948
0.0127364
0.0161111
0.0199263
0.0241417
0.0287061
0.0335625
0.0386516
0.0439138
0.0492913
0.0547297
0.0601786
0.0655926
0.0709317
0.0761613
0.0812526
0.0861819
0.0909298
0.0954816
0.0998268
0.103959
0.107874
0.111572
0.115055
0.118326
0.12139
0.124253
0.126923
0.129406
0.131708
0.133835
0.135788
0.137567
0.139163
0.140559
0.141721
0.142592
0.143062
0.143016
0.142191
0.140194
0.136374
0.129637
0.120448
0.110037
0.0991484
0.0882392
0.0775946
0.0674144
0.0578239
0.0489047
0.0407426
0.0333371
0.0264098
0.0202826
0.0150025
0.0106046
0.00710815
0.0044918
0.00267118
0.00149957
0.000800116
0.00040891
0.000201514
9.68424e-05
4.55801e-05
2.1059e-05
9.56812e-06
4.28153e-06
1.88948e-06
8.23406e-07
3.54761e-07
1.51286e-07
6.39157e-08
2.67679e-08
1.11066e-08
4.5535e-09
1.82702e-09
6.99513e-10
2.33719e-10
4.20124e-11
4.37201e-07
1.91085e-06
4.39017e-06
8.54767e-06
1.54853e-05
2.69877e-05
4.59056e-05
7.67214e-05
0.000126354
0.000205261
0.000328849
0.000519167
0.000806652
0.00123154
0.00184427
0.00270399
0.00387454
0.00541799
0.00738669
0.00981618
0.0127209
0.0160934
0.0199074
0.0241219
0.0286859
0.0335425
0.0386322
0.0438955
0.0492746
0.054715
0.0601663
0.065583
0.070925
0.0761577
0.0812521
0.0861846
0.0909357
0.0954905
0.0998386
0.103973
0.107891
0.111591
0.115076
0.118349
0.121414
0.124279
0.12695
0.129433
0.131736
0.133862
0.135815
0.137593
0.139188
0.140581
0.141738
0.142603
0.143062
0.143
0.142151
0.140115
0.136234
0.129398
0.120152
0.109713
0.0988114
0.0879011
0.0772631
0.067096
0.0575226
0.0486241
0.0404874
0.0331015
0.0261902
0.0200908
0.01484
0.0104726
0.0070067
0.00441901
0.00262287
0.00146996
0.000783227
0.000399838
0.000196874
9.45658e-05
4.44925e-05
2.05512e-05
9.33581e-06
4.17714e-06
1.84334e-06
8.03301e-07
3.46114e-07
1.47609e-07
6.23678e-08
2.61221e-08
1.08396e-08
4.44436e-09
1.78331e-09
6.82815e-10
2.28148e-10
4.10554e-11
4.36478e-07
1.9077e-06
4.38292e-06
8.53356e-06
1.54597e-05
2.69431e-05
4.58298e-05
7.6595e-05
0.000126147
0.000204926
0.000328321
0.000518348
0.000805411
0.00122971
0.00184164
0.00270033
0.00386964
0.00541164
0.00737878
0.00980667
0.0127098
0.0160811
0.0198941
0.024108
0.0286717
0.0335284
0.0386186
0.0438828
0.0492632
0.0547051
0.0601582
0.0655769
0.070921
0.076156
0.0812527
0.0861875
0.0909409
0.0954979
0.0998481
0.103985
0.107904
0.111606
0.115093
0.118366
0.121433
0.124298
0.12697
0.129454
0.131756
0.133883
0.135835
0.137613
0.139206
0.140597
0.141751
0.142611
0.143063
0.142989
0.142122
0.140058
0.136132
0.129223
0.119936
0.109475
0.0985647
0.0876534
0.0770201
0.0668623
0.0573014
0.0484178
0.0402995
0.032927
0.0260327
0.0199524
0.0147224
0.010377
0.00693316
0.00436625
0.00258784
0.00144843
0.000770902
0.000393199
0.000193471
9.28956e-05
4.36945e-05
2.01787e-05
9.16539e-06
4.10059e-06
1.80951e-06
7.88565e-07
3.39778e-07
1.44915e-07
6.12341e-08
2.56491e-08
1.06442e-08
4.36447e-09
1.75132e-09
6.706e-10
2.24074e-10
4.03558e-11
4.36007e-07
1.90564e-06
4.37819e-06
8.52436e-06
1.54431e-05
2.69141e-05
4.57805e-05
7.65127e-05
0.000126012
0.00020471
0.000327978
0.000517817
0.000804608
0.00122853
0.00183995
0.00269798
0.00386648
0.00540756
0.0073737
0.00980059
0.0127028
0.0160732
0.0198856
0.0240991
0.0286627
0.0335195
0.0386101
0.0438749
0.049256
0.054699
0.0601533
0.0655733
0.0709189
0.0761553
0.0812536
0.0861899
0.0909447
0.0955032
0.0998548
0.103993
0.107914
0.111617
0.115104
0.118378
0.121445
0.124312
0.126983
0.129467
0.13177
0.133897
0.135849
0.137626
0.139218
0.140607
0.14176
0.142616
0.143063
0.142982
0.142103
0.14002
0.136065
0.129108
0.119795
0.10932
0.0984032
0.0874913
0.0768609
0.0667093
0.0571565
0.0482829
0.0401768
0.032813
0.0259304
0.0198628
0.0146464
0.0103152
0.00688576
0.00433233
0.00256535
0.00143459
0.000762935
0.000388891
0.000191258
9.18082e-05
4.31747e-05
1.99359e-05
9.05433e-06
4.0507e-06
1.78745e-06
7.78959e-07
3.35647e-07
1.43159e-07
6.04949e-08
2.53407e-08
1.05167e-08
4.31238e-09
1.73047e-09
6.62635e-10
2.21417e-10
3.98998e-11
4.35777e-07
1.90463e-06
4.3759e-06
8.51991e-06
1.5435e-05
2.69001e-05
4.57568e-05
7.64734e-05
0.000125948
0.000204606
0.000327815
0.000517566
0.000804228
0.00122797
0.00183915
0.00269687
0.00386499
0.00540564
0.00737131
0.00979773
0.0126995
0.0160695
0.0198817
0.0240949
0.0286584
0.0335153
0.0386061
0.0438711
0.0492527
0.0546962
0.060151
0.0655717
0.0709179
0.0761551
0.0812541
0.0861912
0.0909467
0.0955059
0.0998581
0.103997
0.107918
0.111622
0.115109
0.118384
0.121452
0.124318
0.12699
0.129474
0.131777
0.133903
0.135856
0.137632
0.139224
0.140613
0.141764
0.142619
0.143063
0.142978
0.142094
0.140002
0.136032
0.129052
0.119726
0.109243
0.0983241
0.0874119
0.076783
0.0666345
0.0570858
0.0482171
0.0401171
0.0327576
0.0258807
0.0198195
0.0146098
0.0102857
0.00686326
0.00431635
0.00255484
0.00142816
0.000759247
0.000386894
0.00019023
9.13018e-05
4.2932e-05
1.98223e-05
9.00225e-06
4.02725e-06
1.77707e-06
7.74423e-07
3.33692e-07
1.42326e-07
6.01432e-08
2.51935e-08
1.04557e-08
4.28738e-09
1.72043e-09
6.58791e-10
2.20133e-10
3.96792e-11
4.35776e-07
1.90463e-06
4.3759e-06
8.5199e-06
1.5435e-05
2.69001e-05
4.57568e-05
7.64734e-05
0.000125948
0.000204606
0.000327815
0.000517565
0.000804228
0.00122797
0.00183915
0.00269687
0.00386499
0.00540564
0.00737131
0.00979773
0.0126995
0.0160695
0.0198817
0.0240949
0.0286584
0.0335153
0.0386061
0.0438711
0.0492527
0.0546962
0.060151
0.0655717
0.0709179
0.0761551
0.0812541
0.0861912
0.0909467
0.0955059
0.0998581
0.103997
0.107918
0.111622
0.115109
0.118384
0.121452
0.124318
0.12699
0.129474
0.131777
0.133903
0.135856
0.137632
0.139224
0.140613
0.141764
0.142619
0.143063
0.142978
0.142094
0.140002
0.136032
0.129052
0.119726
0.109243
0.098324
0.0874118
0.076783
0.0666345
0.0570858
0.0482171
0.0401171
0.0327576
0.0258807
0.0198195
0.0146098
0.0102857
0.00686326
0.00431635
0.00255484
0.00142816
0.000759247
0.000386894
0.00019023
9.13017e-05
4.2932e-05
1.98223e-05
9.00224e-06
4.02724e-06
1.77706e-06
7.74422e-07
3.33692e-07
1.42325e-07
6.01431e-08
2.51935e-08
1.04557e-08
4.28738e-09
1.72043e-09
6.58789e-10
2.20132e-10
3.96795e-11
4.36006e-07
1.90563e-06
4.37818e-06
8.52434e-06
1.54431e-05
2.6914e-05
4.57804e-05
7.65126e-05
0.000126012
0.000204709
0.000327978
0.000517816
0.000804607
0.00122853
0.00183994
0.00269797
0.00386648
0.00540756
0.0073737
0.00980059
0.0127028
0.0160732
0.0198856
0.0240991
0.0286627
0.0335195
0.0386101
0.0438749
0.049256
0.054699
0.0601533
0.0655733
0.0709189
0.0761553
0.0812536
0.0861899
0.0909447
0.0955032
0.0998548
0.103993
0.107914
0.111617
0.115104
0.118378
0.121445
0.124312
0.126983
0.129467
0.13177
0.133897
0.135849
0.137625
0.139218
0.140607
0.14176
0.142616
0.143063
0.142982
0.142103
0.14002
0.136065
0.129108
0.119795
0.109319
0.0984032
0.0874913
0.0768609
0.0667093
0.0571565
0.0482828
0.0401767
0.032813
0.0259303
0.0198627
0.0146464
0.0103152
0.00688575
0.00433232
0.00256535
0.00143458
0.000762934
0.00038889
0.000191258
9.1808e-05
4.31746e-05
1.99358e-05
9.0543e-06
4.05068e-06
1.78745e-06
7.78956e-07
3.35646e-07
1.43158e-07
6.04947e-08
2.53406e-08
1.05167e-08
4.31236e-09
1.73046e-09
6.62633e-10
2.21417e-10
3.99006e-11
4.36477e-07
1.90769e-06
4.3829e-06
8.53353e-06
1.54597e-05
2.6943e-05
4.58296e-05
7.65947e-05
0.000126147
0.000204926
0.00032832
0.000518347
0.000805409
0.00122971
0.00184164
0.00270033
0.00386963
0.00541164
0.00737877
0.00980667
0.0127098
0.0160811
0.0198941
0.024108
0.0286717
0.0335284
0.0386186
0.0438828
0.0492631
0.0547051
0.0601582
0.0655769
0.070921
0.076156
0.0812527
0.0861875
0.0909409
0.0954979
0.0998481
0.103985
0.107904
0.111606
0.115093
0.118366
0.121433
0.124298
0.12697
0.129454
0.131756
0.133883
0.135835
0.137613
0.139206
0.140597
0.141751
0.142611
0.143063
0.142989
0.142122
0.140058
0.136132
0.129223
0.119936
0.109475
0.0985647
0.0876534
0.07702
0.0668623
0.0573013
0.0484178
0.0402994
0.032927
0.0260326
0.0199524
0.0147224
0.0103769
0.00693315
0.00436624
0.00258783
0.00144843
0.0007709
0.000393197
0.00019347
9.28952e-05
4.36943e-05
2.01786e-05
9.16534e-06
4.10057e-06
1.8095e-06
7.8856e-07
3.39775e-07
1.44914e-07
6.12338e-08
2.56489e-08
1.06441e-08
4.36444e-09
1.75131e-09
6.70597e-10
2.24073e-10
4.0357e-11
4.37199e-07
1.91084e-06
4.39015e-06
8.54763e-06
1.54852e-05
2.69875e-05
4.59054e-05
7.67211e-05
0.000126354
0.00020526
0.000328848
0.000519165
0.00080665
0.00123154
0.00184427
0.00270398
0.00387454
0.00541799
0.00738669
0.00981618
0.0127208
0.0160934
0.0199074
0.0241219
0.0286859
0.0335425
0.0386322
0.0438955
0.0492746
0.054715
0.0601663
0.065583
0.070925
0.0761577
0.0812521
0.0861846
0.0909357
0.0954905
0.0998386
0.103973
0.107891
0.111591
0.115076
0.118349
0.121414
0.124279
0.12695
0.129433
0.131736
0.133862
0.135815
0.137593
0.139188
0.140581
0.141738
0.142603
0.143062
0.143
0.142151
0.140115
0.136234
0.129398
0.120152
0.109712
0.0988114
0.087901
0.077263
0.0670959
0.0575226
0.048624
0.0404873
0.0331015
0.0261901
0.0200908
0.01484
0.0104726
0.00700669
0.004419
0.00262286
0.00146996
0.000783223
0.000399836
0.000196872
9.45652e-05
4.44922e-05
2.05511e-05
9.33574e-06
4.17711e-06
1.84332e-06
8.03294e-07
3.46111e-07
1.47608e-07
6.23673e-08
2.61218e-08
1.08395e-08
4.44432e-09
1.78329e-09
6.8281e-10
2.28147e-10
4.10567e-11
4.38187e-07
1.91516e-06
4.40006e-06
8.56692e-06
1.55202e-05
2.70486e-05
4.60092e-05
7.68943e-05
0.000126638
0.000205718
0.000329574
0.000520292
0.000808359
0.00123407
0.0018479
0.00270903
0.00388133
0.00542679
0.0073977
0.00982947
0.0127364
0.016111
0.0199263
0.0241417
0.0287061
0.0335625
0.0386516
0.0439138
0.0492913
0.0547297
0.0601786
0.0655926
0.0709317
0.0761613
0.0812526
0.0861819
0.0909298
0.0954816
0.0998268
0.103959
0.107874
0.111572
0.115055
0.118326
0.12139
0.124253
0.126923
0.129406
0.131708
0.133835
0.135788
0.137567
0.139163
0.140559
0.141721
0.142592
0.143062
0.143016
0.142191
0.140194
0.136374
0.129637
0.120447
0.110037
0.0991483
0.088239
0.0775945
0.0674143
0.0578239
0.0489046
0.0407425
0.0333371
0.0264097
0.0202826
0.0150025
0.0106046
0.00710813
0.00449178
0.00267117
0.00149957
0.000800111
0.000408908
0.000201513
9.68416e-05
4.55797e-05
2.10588e-05
9.56802e-06
4.28148e-06
1.88946e-06
8.23397e-07
3.54757e-07
1.51284e-07
6.39149e-08
2.67676e-08
1.11065e-08
4.55345e-09
1.82699e-09
6.99507e-10
2.33717e-10
4.20142e-11
4.39461e-07
1.92072e-06
4.41283e-06
8.59181e-06
1.55653e-05
2.71273e-05
4.61433e-05
7.71184e-05
0.000127006
0.000206313
0.000330517
0.000521756
0.000810582
0.00123736
0.00185263
0.00271562
0.00389019
0.00543828
0.00741203
0.00984666
0.0127562
0.016133
0.0199506
0.0241677
0.028733
0.0335896
0.0386781
0.043939
0.0493146
0.0547505
0.0601964
0.065607
0.0709424
0.0761681
0.0812553
0.0861805
0.0909244
0.0954722
0.0998135
0.103942
0.107854
0.111549
0.115029
0.118297
0.121359
0.124221
0.12689
0.129372
0.131673
0.1338
0.135754
0.137534
0.139133
0.140532
0.1417
0.14258
0.143062
0.143036
0.142243
0.140295
0.136554
0.129946
0.120828
0.110455
0.099582
0.0886738
0.0780205
0.0678233
0.0582106
0.0492645
0.0410697
0.0336372
0.0266967
0.0205323
0.0152135
0.0107758
0.0072397
0.0045862
0.00273382
0.00153795
0.000821992
0.000420653
0.000207517
9.97859e-05
4.69856e-05
2.1715e-05
9.86822e-06
4.41634e-06
1.94907e-06
8.49364e-07
3.65923e-07
1.56032e-07
6.59132e-08
2.76012e-08
1.14511e-08
4.69431e-09
1.88341e-09
7.2106e-10
2.4091e-10
4.32505e-11
4.41042e-07
1.92763e-06
4.42869e-06
8.62272e-06
1.56215e-05
2.72254e-05
4.63104e-05
7.73979e-05
0.000127466
0.000207056
0.000331697
0.000523592
0.000813375
0.0012415
0.0018586
0.00272395
0.00390143
0.00545291
0.00743037
0.00986883
0.0127821
0.0161622
0.0199827
0.0242018
0.0287683
0.0336253
0.0387132
0.0439727
0.0493461
0.0547791
0.0602214
0.065628
0.0709588
0.0761797
0.0812619
0.086182
0.0909207
0.0954635
0.0998
0.103924
0.107832
0.111523
0.114999
0.118264
0.121324
0.124183
0.12685
0.129331
0.131632
0.133759
0.135713
0.137495
0.139096
0.1405
0.141675
0.142565
0.143062
0.14306
0.142306
0.140419
0.136777
0.130328
0.121299
0.110973
0.100119
0.0892117
0.0785478
0.0683298
0.0586897
0.0497107
0.0414762
0.0340088
0.0270523
0.0208422
0.0154758
0.0109889
0.00740374
0.00470412
0.00281222
0.00158609
0.000849477
0.00043542
0.000215068
0.000103488
4.87528e-05
2.25394e-05
1.02451e-05
4.58555e-06
2.02382e-06
8.81907e-07
3.7991e-07
1.61975e-07
6.84134e-08
2.86438e-08
1.18819e-08
4.87035e-09
1.9539e-09
7.4799e-10
2.49897e-10
4.47961e-11
4.42952e-07
1.93597e-06
4.44788e-06
8.66014e-06
1.56894e-05
2.73442e-05
4.65132e-05
7.77377e-05
0.000128026
0.000207963
0.000333139
0.000525841
0.000816803
0.00124659
0.00186596
0.00273427
0.0039154
0.00547117
0.0074534
0.00989689
0.0128152
0.0162003
0.0200254
0.0242464
0.0288142
0.0336716
0.0387591
0.0440171
0.0493881
0.0548177
0.0602559
0.0656577
0.0709831
0.0761982
0.0812744
0.0861882
0.0909208
0.0954573
0.0997878
0.103906
0.107808
0.111494
0.114966
0.118228
0.121283
0.12414
0.126804
0.129283
0.131583
0.13371
0.135665
0.137448
0.139053
0.140462
0.141645
0.142547
0.143064
0.143089
0.142381
0.140568
0.137044
0.130786
0.121864
0.111594
0.100763
0.0898592
0.0791834
0.0689411
0.0592688
0.0502507
0.041969
0.0344582
0.0274814
0.021217
0.0157935
0.0112477
0.0076034
0.00484808
0.00290825
0.00164523
0.000883324
0.000453633
0.000224388
0.000108057
5.09332e-05
2.35561e-05
1.07096e-05
4.79395e-06
2.1158e-06
9.21921e-07
3.97094e-07
1.69271e-07
7.14806e-08
2.99219e-08
1.24097e-08
5.08596e-09
2.04021e-09
7.80954e-10
2.60896e-10
4.66874e-11
4.45214e-07
1.94586e-06
4.4706e-06
8.70448e-06
1.57701e-05
2.74854e-05
4.67545e-05
7.81426e-05
0.000128694
0.000209047
0.000334867
0.000528542
0.00082093
0.00125274
0.00187487
0.00274678
0.00393237
0.00549339
0.00748142