/*--------------------------------*- C++ -*----------------------------------*\
  =========                 |
  \\      /  F ield         | OpenFOAM: The Open Source CFD Toolbox
   \\    /   O peration     | Website:  https://openfoam.org
    \\  /    A nd           | Version:  8
     \\/     M anipulation  |
\*---------------------------------------------------------------------------*/
FoamFile
{
    version     2.0;
    format      ascii;
    class       volScalarField;
    location    "0.35/fluid";
    object      H2O;
}
// * * * * * * * * * * * * * * * * * * * * * * * * * * * * * * * * * * * * * //

dimensions      [0 0 0 0 0 0 0];

internalField   nonuniform List<scalar> 
4000
(
3.86806e-07
1.69047e-06
3.88362e-06
7.56217e-06
1.37059e-05
2.391e-05
4.07398e-05
6.82621e-05
0.000112812
0.000184051
0.000296348
0.000470411
0.000735105
0.00112852
0.00169782
0.0024974
0.00358422
0.0050106
0.00681649
0.00902352
0.0116325
0.0146248
0.0179665
0.0216129
0.0255132
0.0296142
0.0338626
0.038207
0.0426147
0.0470448
0.0514404
0.0557712
0.0600108
0.0641369
0.0681315
0.0719801
0.0756717
0.0791986
0.0825564
0.0857428
0.0887581
0.0916042
0.0942844
0.0968031
0.0991657
0.101378
0.103447
0.105377
0.107176
0.108849
0.110401
0.111833
0.113146
0.114335
0.11539
0.11629
0.116999
0.11745
0.117558
0.11717
0.116031
0.113735
0.109601
0.103079
0.0952885
0.0868966
0.078315
0.069801
0.0615166
0.0535788
0.0460623
0.0390218
0.0325229
0.0265534
0.0209609
0.0160207
0.011729
0.00814517
0.00531222
0.00322956
0.00182661
0.000965634
0.000481508
0.00023
0.00010668
4.83357e-05
2.14845e-05
9.39826e-06
4.05652e-06
1.73132e-06
7.31959e-07
3.06984e-07
1.27862e-07
5.29193e-08
2.17523e-08
8.85372e-09
3.53627e-09
1.34939e-09
4.50487e-10
7.89761e-11
3.86381e-07
1.68886e-06
3.88101e-06
7.56006e-06
1.37083e-05
2.39239e-05
4.07738e-05
6.83175e-05
0.00011286
0.000183985
0.000295886
0.000468947
0.000731248
0.0011196
0.00168013
0.00246607
0.00353322
0.00493348
0.00670748
0.00887857
0.0114501
0.0144061
0.0177153
0.0213348
0.0252155
0.0293051
0.0335507
0.0379121
0.0423384
0.0467594
0.0511586
0.055501
0.0597573
0.0639031
0.067919
0.0717897
0.0755034
0.079052
0.0824305
0.0856367
0.0886703
0.0915334
0.0942291
0.0967619
0.0991371
0.101361
0.103439
0.105379
0.107185
0.108865
0.110421
0.111857
0.113172
0.114362
0.115415
0.11631
0.117009
0.117441
0.11752
0.117084
0.115867
0.113444
0.1091
0.102441
0.0945582
0.086103
0.0774776
0.0689333
0.0606292
0.0526841
0.0451715
0.0381501
0.0316946
0.0257619
0.020253
0.0153317
0.0111062
0.0076235
0.00491321
0.0029559
0.00166047
0.000876432
0.000438746
0.000211022
9.87288e-05
4.51515e-05
2.02537e-05
8.93475e-06
3.88466e-06
1.66786e-06
7.08365e-07
2.98071e-07
1.24424e-07
5.15638e-08
2.12092e-08
8.63479e-09
3.44883e-09
1.31586e-09
4.3917e-10
7.709e-11
3.86736e-07
1.69063e-06
3.88608e-06
7.57228e-06
1.37343e-05
2.39737e-05
4.08589e-05
6.84451e-05
0.000113015
0.000184088
0.000295712
0.000467954
0.000728352
0.00111336
0.00166803
0.00244432
0.00349691
0.00487686
0.0066246
0.00876413
0.0113002
0.0142191
0.0174916
0.0210772
0.0249286
0.0289951
0.0332293
0.0375882
0.0419885
0.0464122
0.0508192
0.0551742
0.0594472
0.0636131
0.0676516
0.0715466
0.0752856
0.0788598
0.0822638
0.0854948
0.0885523
0.091438
0.0941548
0.0967072
0.0991005
0.10134
0.103434
0.105386
0.107204
0.108893
0.110457
0.111899
0.113218
0.114408
0.115458
0.116345
0.117026
0.117427
0.117458
0.116943
0.115598
0.112966
0.10828
0.101405
0.0933844
0.0848429
0.0761668
0.067598
0.0592912
0.0513645
0.0438884
0.0369239
0.0305445
0.0246666
0.0192415
0.0144711
0.0104055
0.00708869
0.00453814
0.00271791
0.00152447
0.000805876
0.000404998
0.000195651
9.19748e-05
4.22646e-05
1.90468e-05
8.43894e-06
3.68361e-06
1.58697e-06
6.75924e-07
2.8505e-07
1.19179e-07
4.94415e-08
2.03477e-08
8.28571e-09
3.30911e-09
1.2622e-09
4.21028e-10
7.39855e-11
3.85666e-07
1.6859e-06
3.87494e-06
7.54959e-06
1.369e-05
2.38873e-05
4.06891e-05
6.81097e-05
0.000112356
0.000182817
0.000293328
0.000463656
0.000720992
0.00110106
0.00164816
0.00241346
0.00345096
0.00481139
0.00653533
0.00864747
0.0111538
0.0140418
0.017284
0.0208413
0.0246676
0.0287135
0.0329416
0.0372672
0.0416649
0.0460904
0.0505036
0.054869
0.059156
0.0633392
0.0673976
0.0713145
0.0750769
0.0786753
0.0821038
0.085359
0.0884403
0.0913488
0.0940874
0.0966602
0.0990725
0.10133
0.103439
0.105405
0.107235
0.108935
0.110507
0.111955
0.113277
0.114468
0.115513
0.116387
0.117047
0.11741
0.117385
0.116774
0.115275
0.112395
0.107301
0.100177
0.0920041
0.0833753
0.0746569
0.0660791
0.0577935
0.0499115
0.042502
0.0356288
0.0293546
0.0235502
0.0182534
0.0136286
0.00971996
0.00656353
0.00416523
0.0024755
0.00138084
0.000727861
0.000365684
0.00017695
8.34101e-05
3.84569e-05
1.73936e-05
7.73512e-06
3.38879e-06
1.46513e-06
6.26103e-07
2.64841e-07
1.11027e-07
4.61665e-08
1.90368e-08
7.76419e-09
3.1045e-09
1.18506e-09
3.95363e-10
6.95899e-11
3.83668e-07
1.6771e-06
3.85439e-06
7.50857e-06
1.3613e-05
2.37467e-05
4.04358e-05
6.76568e-05
0.000111552
0.000181404
0.000290877
0.000459475
0.000714012
0.0010897
0.00163022
0.00238608
0.00341074
0.00475464
0.00645847
0.00854749
0.0110286
0.0138906
0.0171069
0.0206399
0.0244442
0.0284745
0.0326734
0.0369937
0.0413889
0.0458154
0.0502333
0.054607
0.0589059
0.0631038
0.0671793
0.0711154
0.0748984
0.0785183
0.0819688
0.0852461
0.0883492
0.0912788
0.0940376
0.0966297
0.0990599
0.101334
0.103457
0.105437
0.107279
0.108988
0.110568
0.112021
0.113346
0.114535
0.115574
0.116435
0.117071
0.117395
0.117306
0.116593
0.114933
0.111793
0.106277
0.098898
0.0905758
0.0818671
0.0731175
0.064544
0.0562949
0.0484736
0.041147
0.0343828
0.0282173
0.0224827
0.017324
0.0128477
0.00909393
0.00609172
0.00383607
0.00226526
0.0012581
0.000661824
0.000332495
0.000161097
7.60859e-05
3.51596e-05
1.594e-05
7.10513e-06
3.11961e-06
1.35145e-06
5.78566e-07
2.4512e-07
1.029e-07
4.2837e-08
1.76808e-08
7.21678e-09
2.88707e-09
1.10254e-09
3.67814e-10
6.48399e-11
3.80914e-07
1.66497e-06
3.82608e-06
7.45219e-06
1.35078e-05
2.35567e-05
4.0099e-05
6.70679e-05
0.000110535
0.000179671
0.000287969
0.000454686
0.000706295
0.00107758
0.00161173
0.0023588
0.00337186
0.00470127
0.00638794
0.00845767
0.0109182
0.0137591
0.0169551
0.020469
0.0242566
0.0282783
0.0324617
0.0367726
0.0411634
0.0455897
0.0500113
0.0543922
0.0587012
0.0629118
0.0670023
0.0709549
0.0747559
0.0783946
0.0818644
0.0851611
0.0882832
0.0912314
0.0940083
0.0966173
0.099063
0.101351
0.103488
0.105479
0.107331
0.109049
0.110636
0.112093
0.11342
0.114607
0.115638
0.116485
0.117094
0.117378
0.117225
0.11641
0.11459
0.111193
0.105271
0.0976513
0.0891923
0.0804154
0.0716449
0.063085
0.0548805
0.0471263
0.0398873
0.0332352
0.0271745
0.021504
0.0164806
0.0121443
0.00853336
0.00567098
0.00354296
0.00207754
0.00114764
0.000601609
0.000301711
0.000146163
6.90806e-05
3.1962e-05
1.45134e-05
6.48082e-06
2.85088e-06
1.23738e-06
5.30708e-07
2.25234e-07
9.47015e-08
3.94795e-08
1.63146e-08
6.66582e-09
2.66842e-09
1.01965e-09
3.40287e-10
6.0087e-11
3.77873e-07
1.65162e-06
3.79512e-06
7.39107e-06
1.3395e-05
2.33557e-05
3.97481e-05
6.64647e-05
0.000109512
0.00017796
0.00028515
0.000450125
0.000699066
0.00106639
0.0015949
0.00233423
0.00333722
0.00465416
0.0063262
0.00837967
0.010823
0.0136467
0.0168262
0.0203253
0.0241012
0.0281019
0.0322802
0.0365877
0.0409774
0.0454054
0.0498314
0.0542193
0.0585377
0.0627597
0.0668634
0.0708307
0.0746473
0.0783024
0.0817888
0.0851022
0.0882409
0.0912053
0.0939975
0.0966207
0.0990799
0.101381
0.103528
0.10553
0.10739
0.109115
0.110707
0.112167
0.113494
0.114678
0.115701
0.116532
0.117114
0.117357
0.117138
0.116223
0.114245
0.110601
0.104308
0.0964751
0.0878986
0.079067
0.070285
0.0617445
0.053587
0.0458993
0.0387449
0.0321999
0.0262152
0.0206488
0.0157403
0.0115267
0.00804245
0.00530445
0.00328939
0.00191634
0.00105336
0.000550399
0.000275543
0.000133437
6.30832e-05
2.9207e-05
1.32747e-05
5.93411e-06
2.61342e-06
1.13567e-06
4.8766e-07
2.07199e-07
8.72115e-08
3.63924e-08
1.50515e-08
6.15422e-09
2.46471e-09
9.42227e-10
3.14531e-10
5.56375e-11
3.74782e-07
1.63807e-06
3.76378e-06
7.32938e-06
1.32816e-05
2.31545e-05
3.93992e-05
6.5869e-05
0.00010851
0.000176299
0.000282442
0.00044579
0.000692276
0.00105601
0.00157947
0.002312
0.00330625
0.00461251
0.00627218
0.00831204
0.0107411
0.0135507
0.0167167
0.0202037
0.0239723
0.0279626
0.0321344
0.0364385
0.0408277
0.0452577
0.0496882
0.0540828
0.0584098
0.0626422
0.0667576
0.0707377
0.0745679
0.0782372
0.0817379
0.0850656
0.0882185
0.0911965
0.0940014
0.0966368
0.0991073
0.101418
0.103575
0.105585
0.107452
0.109182
0.110777
0.11224
0.113565
0.114745
0.115759
0.116573
0.117125
0.117325
0.117038
0.116014
0.113864
0.109942
0.103369
0.0953726
0.0867084
0.0778397
0.0690558
0.0605392
0.0524292
0.044805
0.0377293
0.0312777
0.0253685
0.0198966
0.015091
0.0109868
0.00761501
0.00498683
0.00307072
0.00177781
0.000972409
0.000506339
0.000252928
0.000122385
5.78469e-05
2.67888e-05
1.21821e-05
5.44967e-06
2.40216e-06
1.04486e-06
4.49109e-07
1.91008e-07
8.04718e-08
3.36096e-08
1.3911e-08
5.6917e-09
2.28052e-09
8.72107e-10
2.91189e-10
5.16053e-11
3.71825e-07
1.62512e-06
3.7339e-06
7.27074e-06
1.31743e-05
2.2965e-05
3.9072e-05
6.5314e-05
0.000107583
0.000174772
0.000279972
0.000441868
0.00068618
0.00104677
0.00156583
0.00229248
0.00327924
0.00457644
0.00622571
0.00825427
0.0106717
0.0134697
0.0166247
0.0201014
0.0238574
0.0278445
0.0320139
0.0363171
0.0407072
0.0451401
0.0495753
0.0539764
0.0583115
0.0625532
0.066679
0.0706704
0.0745124
0.0781938
0.0817068
0.0850468
0.0882114
0.0912006
0.0940162
0.0966617
0.0991415
0.101461
0.103625
0.105641
0.107514
0.109247
0.110846
0.112308
0.113632
0.114806
0.11581
0.116607
0.117128
0.117286
0.116928
0.115792
0.113463
0.109247
0.102471
0.0943574
0.0856315
0.0767399
0.0679611
0.0594729
0.0514085
0.0438434
0.0368402
0.0304707
0.0246229
0.0192368
0.0145235
0.0105167
0.00724475
0.00471333
0.00288364
0.00166
0.00090388
0.000469128
0.000233834
0.000113041
5.34086e-05
2.47324e-05
1.12494e-05
5.0345e-06
2.22037e-06
9.66406e-07
4.15677e-07
1.76916e-07
7.45878e-08
3.11731e-08
1.29102e-08
5.28493e-09
2.11831e-09
8.1028e-10
2.70591e-10
4.8047e-11
3.69096e-07
1.61318e-06
3.70638e-06
7.21684e-06
1.30758e-05
2.27916e-05
3.87738e-05
6.48099e-05
0.000106744
0.000173399
0.000277761
0.000438375
0.000680783
0.00103863
0.0015539
0.00227553
0.00325594
0.00454552
0.00618614
0.00820539
0.0106134
0.0134024
0.0165496
0.0200215
0.0237694
0.0277514
0.031918
0.0362206
0.0406119
0.0450479
0.0494877
0.0538948
0.0582372
0.0624873
0.0666223
0.0706234
0.0744756
0.0781673
0.0816908
0.085041
0.0882153
0.0912139
0.0940385
0.0966923
0.0991796
0.101506
0.103676
0.105697
0.107573
0.10931
0.11091
0.112372
0.113694
0.114862
0.115856
0.116636
0.117129
0.117245
0.116821
0.115581
0.113084
0.108594
0.101656
0.0934485
0.0846757
0.0757696
0.0669994
0.0585399
0.0505179
0.0430067
0.0360694
0.0297706
0.0239709
0.0186617
0.0140306
0.0101101
0.00692593
0.00447914
0.00272437
0.0015602
0.000846011
0.000437746
0.000217723
0.000105146
4.96512e-05
2.29874e-05
1.0456e-05
4.68046e-06
2.06497e-06
8.99185e-07
3.86968e-07
1.64791e-07
6.95154e-08
2.90691e-08
1.20448e-08
4.93267e-09
1.9777e-09
7.56675e-10
2.52723e-10
4.4961e-11
3.66648e-07
1.60247e-06
3.68172e-06
7.16862e-06
1.29879e-05
2.26372e-05
3.85088e-05
6.43634e-05
0.000106003
0.000172191
0.000275824
0.000435331
0.0006761
0.00103161
0.00154365
0.00226102
0.00323609
0.0045193
0.0061527
0.00816419
0.0105642
0.0133452
0.0164845
0.019949
0.0236946
0.0276747
0.0318405
0.0361436
0.0405369
0.044976
0.0494203
0.0538331
0.058182
0.0624395
0.0665825
0.0705921
0.074453
0.0781536
0.0816858
0.0850443
0.0882269
0.0912333
0.0940651
0.0967255
0.0992189
0.10155
0.103725
0.10575
0.107629
0.109368
0.110969
0.112431
0.113749
0.114913
0.115897
0.116661
0.117128
0.117208
0.116724
0.115391
0.112747
0.108015
0.100936
0.0926505
0.0838399
0.0749238
0.0661634
0.0577309
0.0497474
0.0422844
0.0354058
0.0291674
0.0234046
0.0181636
0.013605
0.00976033
0.00665297
0.00427971
0.0025895
0.00147612
0.000797442
0.000411464
0.000204241
9.8536e-05
4.65016e-05
2.15225e-05
9.78871e-06
4.38209e-06
1.93373e-06
8.42301e-07
3.62626e-07
1.54491e-07
6.51992e-08
2.7276e-08
1.13061e-08
4.63166e-09
1.85743e-09
7.10793e-10
2.37423e-10
4.23212e-11
3.64497e-07
1.59308e-06
3.66009e-06
7.12637e-06
1.2911e-05
2.25023e-05
3.82779e-05
6.39753e-05
0.000105362
0.000171146
0.000274155
0.000432716
0.000672093
0.00102562
0.00153495
0.00224877
0.00321941
0.0044974
0.00612499
0.0081304
0.0105244
0.0133
0.0164348
0.0198943
0.0236364
0.0276144
0.0317796
0.0360834
0.0404786
0.0449208
0.0493693
0.0537871
0.0581419
0.0624058
0.0665557
0.0705725
0.0744408
0.0781488
0.0816882
0.0850538
0.0882431
0.0912558
0.0940935
0.0967593
0.0992574
0.101593
0.103772
0.105799
0.107681
0.10942
0.111021
0.112483
0.113799
0.114957
0.115933
0.116684
0.117127
0.117174
0.116639
0.115225
0.112452
0.107511
0.10031
0.0919577
0.083116
0.0741931
0.0654428
0.0570351
0.049086
0.0416656
0.0348393
0.0286506
0.0229162
0.0177353
0.0132401
0.00946153
0.00642079
0.00411091
0.00247593
0.00140563
0.000756861
0.000389546
0.000193006
9.30265e-05
4.38745e-05
2.02992e-05
9.23078e-06
4.13227e-06
1.8237e-06
7.94538e-07
3.42159e-07
1.45819e-07
6.15605e-08
2.57625e-08
1.0682e-08
4.37708e-09
1.75563e-09
6.71938e-10
2.24462e-10
4.00898e-11
3.62646e-07
1.58498e-06
3.64148e-06
7.09006e-06
1.28449e-05
2.23867e-05
3.80803e-05
6.36437e-05
0.000104814
0.000170259
0.00027274
0.000430504
0.000668713
0.00102058
0.00152765
0.00223853
0.00320552
0.00447921
0.00610205
0.00810251
0.0104917
0.0132631
0.0163947
0.0198503
0.02359
0.0275667
0.0317317
0.0360364
0.0404336
0.0448788
0.049331
0.0537533
0.0581133
0.0623828
0.0665386
0.0705615
0.074436
0.0781501
0.0816954
0.0850668
0.0882616
0.0912795
0.0941219
0.0967919
0.0992937
0.101632
0.103814
0.105843
0.107726
0.109467
0.111068
0.112528
0.113841
0.114995
0.115963
0.116702
0.117126
0.117146
0.116566
0.115082
0.112197
0.107074
0.0997696
0.0913611
0.0824944
0.0735672
0.0648269
0.0564416
0.0485229
0.0411399
0.0343598
0.0282107
0.0224989
0.0173703
0.0129301
0.00920844
0.00622488
0.00396912
0.00238098
0.00134695
0.000723178
0.00037139
0.000183707
8.84669e-05
4.16993e-05
1.92855e-05
8.76802e-06
3.92484e-06
1.73222e-06
7.54784e-07
3.25104e-07
1.38584e-07
5.85218e-08
2.44973e-08
1.01599e-08
4.16392e-09
1.67034e-09
6.39372e-10
2.13597e-10
3.82209e-11
3.61081e-07
1.57815e-06
3.62577e-06
7.05941e-06
1.27893e-05
2.22894e-05
3.79142e-05
6.33655e-05
0.000104356
0.000169516
0.000271559
0.000428663
0.000665906
0.00101641
0.00152162
0.00223008
0.00319408
0.00446426
0.00608319
0.00807953
0.0104646
0.0132319
0.0163597
0.0198138
0.0235524
0.0275287
0.0316942
0.0360001
0.0403992
0.0448471
0.0493028
0.053729
0.0580934
0.0623676
0.0665284
0.0705564
0.074436
0.0781551
0.0817054
0.0850815
0.0882807
0.0913026
0.0941487
0.096822
0.0993267
0.101668
0.103851
0.105882
0.107766
0.109507
0.111107
0.112566
0.113877
0.115026
0.115988
0.116716
0.117124
0.117122
0.116505
0.11496
0.111978
0.106699
0.0993069
0.0908525
0.0819663
0.073037
0.0643065
0.0559411
0.0480489
0.0406978
0.0339563
0.0278428
0.0221475
0.0170634
0.0126699
0.00899658
0.00606141
0.00385125
0.00230236
0.00129853
0.000695466
0.000356478
0.000176076
8.47257e-05
3.9914e-05
1.84531e-05
8.38771e-06
3.75421e-06
1.65691e-06
7.22021e-07
3.11034e-07
1.3261e-07
5.60105e-08
2.34508e-08
9.72776e-09
3.98739e-09
1.59967e-09
6.12382e-10
2.04591e-10
3.66725e-11
3.59786e-07
1.57249e-06
3.61278e-06
7.03409e-06
1.27433e-05
2.22091e-05
3.77774e-05
6.31366e-05
0.00010398
0.000168907
0.000270592
0.000427159
0.000663619
0.00101302
0.00151674
0.00222326
0.00318487
0.00445228
0.00606817
0.00806138
0.0104434
0.013208
0.0163334
0.0197859
0.0235234
0.0274995
0.0316654
0.0359724
0.0403734
0.0448237
0.0492823
0.0537119
0.0580799
0.0623581
0.066523
0.0705552
0.074439
0.0781622
0.0817165
0.0850963
0.088299
0.0913242
0.0941731
0.096849
0.0993559
0.101699
0.103884
0.105915
0.1078
0.109541
0.111141
0.112598
0.113907
0.115053
0.116009
0.116729
0.117123
0.117102
0.116453
0.114858
0.111796
0.106385
0.098921
0.0904288
0.081527
0.0725965
0.0638748
0.0555265
0.0476566
0.0403325
0.0336235
0.0275385
0.0218564
0.0168096
0.0124552
0.00882208
0.00592711
0.0037547
0.00223817
0.00125912
0.000672963
0.000344388
0.000169894
8.16947e-05
3.84672e-05
1.77781e-05
8.07913e-06
3.61567e-06
1.59571e-06
6.95376e-07
2.99583e-07
1.27744e-07
5.39633e-08
2.25972e-08
9.37503e-09
3.84325e-09
1.54195e-09
5.90332e-10
1.97232e-10
3.54073e-11
3.58743e-07
1.56794e-06
3.60231e-06
7.01371e-06
1.27063e-05
2.21446e-05
3.76675e-05
6.29531e-05
0.000103678
0.000168421
0.000269821
0.00042596
0.000661799
0.00101032
0.00151286
0.00221787
0.00317762
0.00444287
0.00605644
0.00804731
0.0104272
0.01319
0.0163135
0.0197646
0.0235014
0.0274774
0.0316437
0.0359518
0.0403544
0.0448067
0.0492677
0.0537001
0.0580711
0.0623526
0.0665208
0.0705563
0.0744434
0.0781699
0.0817273
0.0851101
0.0883155
0.0913431
0.0941943
0.0968721
0.0993806
0.101725
0.103911
0.105943
0.107828
0.109569
0.111169
0.112625
0.113932
0.115075
0.116026
0.116739
0.117124
0.117086
0.116411
0.114775
0.111648
0.106133
0.0986093
0.0900865
0.081172
0.0722406
0.063526
0.0551916
0.0473399
0.0400378
0.0333556
0.0272928
0.0216214
0.0166052
0.0122824
0.0086819
0.00581938
0.0036774
0.00218687
0.00122769
0.000655048
0.000334771
0.000164978
7.9284e-05
3.7316e-05
1.72408e-05
7.83334e-06
3.50525e-06
1.5469e-06
6.74115e-07
2.9044e-07
1.23856e-07
5.23272e-08
2.19146e-08
9.09289e-09
3.72791e-09
1.49576e-09
5.72685e-10
1.91344e-10
3.43952e-11
3.57933e-07
1.5644e-06
3.59419e-06
6.9979e-06
1.26777e-05
2.20946e-05
3.75825e-05
6.28111e-05
0.000103445
0.000168045
0.000269226
0.000425037
0.000660399
0.00100825
0.00150989
0.00221373
0.00317205
0.00443566
0.00604742
0.00803642
0.0104145
0.0131755
0.016298
0.0197484
0.0234849
0.0274609
0.0316278
0.0359368
0.0403407
0.0447947
0.0492576
0.0536922
0.0580657
0.0623496
0.0665204
0.0705586
0.0744482
0.0781772
0.081737
0.085122
0.0883295
0.091359
0.0942118
0.096891
0.0994008
0.101746
0.103933
0.105966
0.107851
0.109592
0.111191
0.112646
0.113952
0.115092
0.11604
0.116748
0.117124
0.117073
0.116378
0.114711
0.111534
0.105937
0.0983676
0.0898207
0.0808961
0.0719639
0.0632546
0.0549309
0.0470933
0.0398081
0.0331466
0.0270999
0.0214417
0.0164481
0.0121494
0.00857384
0.00573633
0.0036178
0.00214732
0.00120345
0.000641221
0.000327344
0.000161179
7.74202e-05
3.64256e-05
1.68251e-05
7.64315e-06
3.41979e-06
1.50913e-06
6.57655e-07
2.8336e-07
1.20846e-07
5.106e-08
2.13859e-08
8.87432e-09
3.63856e-09
1.45998e-09
5.59015e-10
1.86783e-10
3.36117e-11
3.57341e-07
1.56181e-06
3.58826e-06
6.98635e-06
1.26568e-05
2.20581e-05
3.75204e-05
6.27076e-05
0.000103276
0.000167772
0.000268793
0.000424367
0.000659383
0.00100675
0.00150774
0.00221074
0.00316804
0.00443046
0.00604094
0.00802864
0.0104054
0.0131654
0.0162871
0.019737
0.0234733
0.0274494
0.0316167
0.0359265
0.0403313
0.0447866
0.049251
0.0536872
0.0580624
0.0623482
0.0665209
0.0705609
0.0744525
0.0781833
0.0817448
0.0851314
0.0883404
0.0913712
0.0942252
0.0969055
0.0994161
0.101762
0.103949
0.105983
0.107868
0.109609
0.111207
0.112662
0.113967
0.115105
0.116051
0.116754
0.117124
0.117064
0.116354
0.114664
0.11145
0.105794
0.0981908
0.0896262
0.0806941
0.0717611
0.0630557
0.0547396
0.0469121
0.0396392
0.0329928
0.0269571
0.0213127
0.0163348
0.0120531
0.00849553
0.00567612
0.00357461
0.00211864
0.00118582
0.000631131
0.000321908
0.000158393
7.60528e-05
3.57723e-05
1.65201e-05
7.50363e-06
3.35712e-06
1.48143e-06
6.45591e-07
2.78173e-07
1.18641e-07
5.01319e-08
2.09987e-08
8.7143e-09
3.57315e-09
1.43379e-09
5.49014e-10
1.83447e-10
3.30389e-11
3.56955e-07
1.56013e-06
3.58439e-06
6.97882e-06
1.26431e-05
2.20343e-05
3.74801e-05
6.26403e-05
0.000103165
0.000167594
0.000268513
0.000423932
0.000658725
0.00100578
0.00150635
0.00220881
0.00316545
0.00442712
0.00603678
0.00802366
0.0103997
0.013159
0.0162802
0.0197297
0.0234659
0.0274421
0.0316097
0.03592
0.0403255
0.0447816
0.049247
0.0536843
0.0580606
0.0623477
0.0665216
0.0705629
0.0744557
0.0781876
0.0817502
0.0851379
0.0883478
0.0913795
0.0942343
0.0969152
0.0994263
0.101773
0.10396
0.105994
0.107879
0.10962
0.111218
0.112673
0.113976
0.115114
0.116058
0.116758
0.117125
0.117058
0.116339
0.114633
0.111395
0.1057
0.0980751
0.0894989
0.0805619
0.0716283
0.0629254
0.0546143
0.0467935
0.0395288
0.0328924
0.0268637
0.021229
0.0162615
0.0119909
0.00844494
0.00563731
0.00354684
0.00210023
0.00117448
0.000624608
0.000318381
0.000156581
7.51626e-05
3.53468e-05
1.63214e-05
7.4127e-06
3.31627e-06
1.46337e-06
6.37727e-07
2.74791e-07
1.17203e-07
4.95267e-08
2.07462e-08
8.60994e-09
3.53051e-09
1.41672e-09
5.42493e-10
1.81272e-10
3.26656e-11
3.56767e-07
1.55931e-06
3.58251e-06
6.97517e-06
1.26365e-05
2.20229e-05
3.74607e-05
6.26081e-05
0.000103113
0.00016751
0.000268379
0.000423726
0.000658414
0.00100533
0.00150569
0.0022079
0.00316423
0.00442555
0.00603483
0.00802131
0.010397
0.013156
0.0162769
0.0197263
0.0234624
0.0274387
0.0316064
0.0359169
0.0403228
0.0447793
0.0492451
0.053683
0.0580599
0.0623475
0.066522
0.0705639
0.0744573
0.0781898
0.081753
0.0851412
0.0883516
0.0913837
0.0942388
0.09692
0.0994314
0.101778
0.103966
0.105999
0.107885
0.109626
0.111224
0.112678
0.113981
0.115118
0.116061
0.116761
0.117125
0.117055
0.116331
0.114618
0.111368
0.105654
0.0980183
0.0894365
0.080497
0.0715633
0.0628616
0.0545531
0.0467356
0.0394749
0.0328435
0.0268183
0.0211883
0.016226
0.0119609
0.00842079
0.00561889
0.00353376
0.00209163
0.00116922
0.000621589
0.000316747
0.000155739
7.4748e-05
3.51481e-05
1.62284e-05
7.37006e-06
3.29707e-06
1.45487e-06
6.34014e-07
2.73191e-07
1.16521e-07
4.92387e-08
2.06257e-08
8.56001e-09
3.51004e-09
1.4085e-09
5.39346e-10
1.80221e-10
3.2485e-11
3.56766e-07
1.55931e-06
3.58251e-06
6.97517e-06
1.26365e-05
2.20229e-05
3.74607e-05
6.26081e-05
0.000103113
0.000167509
0.000268379
0.000423726
0.000658414
0.00100533
0.00150569
0.0022079
0.00316423
0.00442555
0.00603483
0.00802131
0.010397
0.013156
0.0162769
0.0197263
0.0234624
0.0274387
0.0316064
0.0359169
0.0403228
0.0447793
0.0492451
0.053683
0.0580599
0.0623475
0.066522
0.0705639
0.0744573
0.0781898
0.081753
0.0851412
0.0883516
0.0913837
0.0942388
0.09692
0.0994314
0.101778
0.103966
0.105999
0.107885
0.109626
0.111224
0.112678
0.113981
0.115118
0.116061
0.116761
0.117125
0.117055
0.116331
0.114618
0.111368
0.105654
0.0980183
0.0894365
0.080497
0.0715633
0.0628616
0.0545531
0.0467356
0.0394749
0.0328435
0.0268183
0.0211883
0.016226
0.0119609
0.00842078
0.00561889
0.00353376
0.00209163
0.00116922
0.000621588
0.000316746
0.000155739
7.47479e-05
3.51481e-05
1.62283e-05
7.37005e-06
3.29707e-06
1.45487e-06
6.34013e-07
2.7319e-07
1.16521e-07
4.92386e-08
2.06257e-08
8.56e-09
3.51004e-09
1.4085e-09
5.39345e-10
1.8022e-10
3.24853e-11
3.56954e-07
1.56012e-06
3.58438e-06
6.97881e-06
1.26431e-05
2.20343e-05
3.748e-05
6.26402e-05
0.000103165
0.000167594
0.000268512
0.000423932
0.000658725
0.00100578
0.00150635
0.00220881
0.00316545
0.00442712
0.00603678
0.00802366
0.0103997
0.013159
0.0162802
0.0197297
0.0234659
0.0274421
0.0316097
0.03592
0.0403255
0.0447816
0.049247
0.0536843
0.0580606
0.0623477
0.0665216
0.0705629
0.0744557
0.0781876
0.0817502
0.0851379
0.0883478
0.0913795
0.0942343
0.0969152
0.0994263
0.101773
0.10396
0.105994
0.107879
0.10962
0.111218
0.112673
0.113976
0.115114
0.116058
0.116758
0.117125
0.117058
0.116339
0.114633
0.111395
0.1057
0.0980751
0.0894989
0.0805618
0.0716283
0.0629254
0.0546143
0.0467935
0.0395287
0.0328923
0.0268637
0.0212289
0.0162615
0.0119908
0.00844494
0.0056373
0.00354684
0.00210023
0.00117448
0.000624607
0.000318381
0.000156581
7.51624e-05
3.53467e-05
1.63213e-05
7.41268e-06
3.31626e-06
1.46337e-06
6.37724e-07
2.7479e-07
1.17203e-07
4.95265e-08
2.07461e-08
8.60991e-09
3.5305e-09
1.41672e-09
5.42492e-10
1.81272e-10
3.26663e-11
3.57339e-07
1.56181e-06
3.58825e-06
6.98633e-06
1.26567e-05
2.2058e-05
3.75203e-05
6.27074e-05
0.000103275
0.000167771
0.000268793
0.000424366
0.000659382
0.00100675
0.00150774
0.00221074
0.00316803
0.00443046
0.00604093
0.00802863
0.0104054
0.0131654
0.0162871
0.019737
0.0234733
0.0274494
0.0316167
0.0359265
0.0403313
0.0447866
0.049251
0.0536872
0.0580624
0.0623482
0.0665209
0.0705609
0.0744525
0.0781833
0.0817448
0.0851314
0.0883404
0.0913712
0.0942252
0.0969055
0.0994161
0.101762
0.103949
0.105983
0.107868
0.109609
0.111207
0.112662
0.113967
0.115105
0.116051
0.116754
0.117124
0.117064
0.116354
0.114664
0.11145
0.105794
0.0981908
0.0896262
0.080694
0.0717611
0.0630556
0.0547396
0.0469121
0.0396392
0.0329928
0.026957
0.0213127
0.0163348
0.0120531
0.00849552
0.00567611
0.0035746
0.00211864
0.00118582
0.000631129
0.000321907
0.000158392
7.60525e-05
3.57722e-05
1.652e-05
7.50359e-06
3.3571e-06
1.48142e-06
6.45587e-07
2.78171e-07
1.1864e-07
5.01315e-08
2.09986e-08
8.71425e-09
3.57313e-09
1.43378e-09
5.49012e-10
1.83446e-10
3.30399e-11
3.57931e-07
1.56439e-06
3.59417e-06
6.99787e-06
1.26776e-05
2.20945e-05
3.75823e-05
6.28108e-05
0.000103445
0.000168044
0.000269225
0.000425036
0.000660397
0.00100825
0.00150989
0.00221373
0.00317205
0.00443566
0.00604742
0.00803642
0.0104144
0.0131755
0.016298
0.0197484
0.0234849
0.0274609
0.0316278
0.0359368
0.0403407
0.0447947
0.0492576
0.0536922
0.0580657
0.0623496
0.0665204
0.0705585
0.0744482
0.0781772
0.0817369
0.085122
0.0883295
0.091359
0.0942118
0.096891
0.0994008
0.101746
0.103933
0.105966
0.107851
0.109592
0.111191
0.112646
0.113952
0.115092
0.11604
0.116748
0.117124
0.117073
0.116378
0.114711
0.111534
0.105937
0.0983675
0.0898206
0.080896
0.0719638
0.0632546
0.0549308
0.0470932
0.0398081
0.0331466
0.0270999
0.0214416
0.0164481
0.0121494
0.00857382
0.00573631
0.00361779
0.00214732
0.00120344
0.000641218
0.000327342
0.000161178
7.74197e-05
3.64254e-05
1.6825e-05
7.64309e-06
3.41976e-06
1.50911e-06
6.5765e-07
2.83358e-07
1.20845e-07
5.10595e-08
2.13857e-08
8.87424e-09
3.63852e-09
1.45996e-09
5.59011e-10
1.86782e-10
3.36127e-11
3.5874e-07
1.56792e-06
3.60229e-06
7.01366e-06
1.27063e-05
2.21444e-05
3.76673e-05
6.29527e-05
0.000103678
0.00016842
0.00026982
0.000425959
0.000661797
0.00101032
0.00151286
0.00221786
0.00317761
0.00444287
0.00605643
0.0080473
0.0104272
0.01319
0.0163135
0.0197646
0.0235014
0.0274774
0.0316437
0.0359518
0.0403544
0.0448067
0.0492677
0.0537001
0.0580711
0.0623526
0.0665208
0.0705563
0.0744434
0.0781699
0.0817273
0.0851101
0.0883155
0.0913431
0.0941943
0.0968721
0.0993806
0.101725
0.103911
0.105943
0.107828
0.109569
0.111169
0.112625
0.113932
0.115075
0.116026
0.116739
0.117124
0.117086
0.116411
0.114775
0.111648
0.106133
0.0986092
0.0900864
0.0811718
0.0722405
0.0635259
0.0551915
0.0473399
0.0400378
0.0333556
0.0272928
0.0216214
0.0166052
0.0122824
0.00868188
0.00581936
0.00367738
0.00218686
0.00122768
0.000655044
0.000334769
0.000164977
7.92834e-05
3.73157e-05
1.72406e-05
7.83326e-06
3.50521e-06
1.54689e-06
6.74108e-07
2.90436e-07
1.23855e-07
5.23266e-08
2.19144e-08
9.09278e-09
3.72787e-09
1.49574e-09
5.7268e-10
1.91342e-10
3.43966e-11
3.59783e-07
1.57248e-06
3.61275e-06
7.03404e-06
1.27432e-05
2.22089e-05
3.77771e-05
6.31362e-05
0.000103979
0.000168907
0.000270591
0.000427157
0.000663616
0.00101301
0.00151673
0.00222325
0.00318487
0.00445227
0.00606817
0.00806138
0.0104434
0.013208
0.0163334
0.0197859
0.0235234
0.0274995
0.0316654
0.0359724
0.0403734
0.0448237
0.0492823
0.0537119
0.0580799
0.0623581
0.066523
0.0705552
0.074439
0.0781622
0.0817165
0.0850963
0.088299
0.0913241
0.0941731
0.0968489
0.0993558
0.101699
0.103883
0.105915
0.1078
0.109541
0.111141
0.112598
0.113907
0.115053
0.116009
0.116729
0.117123
0.117102
0.116453
0.114858
0.111796
0.106386
0.098921
0.0904288
0.0815269
0.0725964
0.0638747
0.0555263
0.0476565
0.0403324
0.0336234
0.0275385
0.0218564
0.0168096
0.0124551
0.00882205
0.00592708
0.00375468
0.00223815
0.00125911
0.000672957
0.000344385
0.000169892
8.16938e-05
3.84667e-05
1.77779e-05
8.07902e-06
3.61562e-06
1.59569e-06
6.95366e-07
2.99578e-07
1.27742e-07
5.39625e-08
2.25969e-08
9.37489e-09
3.84319e-09
1.54193e-09
5.90326e-10
1.97231e-10
3.54088e-11
3.61077e-07
1.57813e-06
3.62573e-06
7.05935e-06
1.27892e-05
2.22892e-05
3.79139e-05
6.3365e-05
0.000104355
0.000169515
0.000271557
0.00042866
0.000665903
0.0010164
0.00152162
0.00223008
0.00319407
0.00446425
0.00608318
0.00807952
0.0104646
0.0132318
0.0163597
0.0198138
0.0235524
0.0275287
0.0316942
0.0360001
0.0403992
0.0448471
0.0493028
0.053729
0.0580933
0.0623676
0.0665284
0.0705564
0.074436
0.0781551
0.0817054
0.0850815
0.0882807
0.0913026
0.0941487
0.096822
0.0993267
0.101668
0.103851
0.105882
0.107766
0.109507
0.111107
0.112566
0.113877
0.115026
0.115988
0.116716
0.117124
0.117122
0.116505
0.11496
0.111978
0.106698
0.0993068
0.0908524
0.0819662
0.0730369
0.0643064
0.055941
0.0480488
0.0406977
0.0339562
0.0278427
0.0221475
0.0170633
0.0126699
0.00899654
0.00606137
0.00385122
0.00230234
0.00129852
0.000695459
0.000356474
0.000176074
8.47246e-05
3.99135e-05
1.84528e-05
8.38758e-06
3.75415e-06
1.65688e-06
7.22009e-07
3.11029e-07
1.32607e-07
5.60095e-08
2.34504e-08
9.72758e-09
3.98731e-09
1.59964e-09
6.12373e-10
2.04588e-10
3.66741e-11
3.62641e-07
1.58497e-06
3.64144e-06
7.08998e-06
1.28448e-05
2.23865e-05
3.808e-05
6.36432e-05
0.000104814
0.000170257
0.000272738
0.000430501
0.000668709
0.00102058
0.00152765
0.00223852
0.0032055
0.0044792
0.00610203
0.0081025
0.0104917
0.013263
0.0163946
0.0198503
0.0235899
0.0275667
0.0317317
0.0360364
0.0404336
0.0448788
0.049331
0.0537533
0.0581133
0.0623828
0.0665386
0.0705615
0.074436
0.0781501
0.0816954
0.0850668
0.0882616
0.0912795
0.0941218
0.0967918
0.0992937
0.101632
0.103814
0.105843
0.107726
0.109467
0.111068
0.112528
0.113841
0.114995
0.115963
0.116702
0.117126
0.117145
0.116566
0.115082
0.112197
0.107073
0.0997692
0.0913608
0.0824942
0.073567
0.0648267
0.0564414
0.0485228
0.0411398
0.0343597
0.0282106
0.0224988
0.0173702
0.01293
0.00920838
0.00622483
0.00396908
0.00238096
0.00134693
0.00072317
0.000371385
0.000183704
8.84655e-05
4.16986e-05
1.92852e-05
8.76786e-06
3.92476e-06
1.73219e-06
7.54769e-07
3.25097e-07
1.38581e-07
5.85206e-08
2.44968e-08
1.01597e-08