/*--------------------------------*- C++ -*----------------------------------*\
  =========                 |
  \\      /  F ield         | OpenFOAM: The Open Source CFD Toolbox
   \\    /   O peration     | Website:  https://openfoam.org
    \\  /    A nd           | Version:  8
     \\/     M anipulation  |
\*---------------------------------------------------------------------------*/
FoamFile
{
    version     2.0;
    format      ascii;
    class       volScalarField;
    location    "0.35/fluid";
    object      N2;
}
// * * * * * * * * * * * * * * * * * * * * * * * * * * * * * * * * * * * * * //

dimensions      [0 0 0 0 0 0 0];

internalField   nonuniform List<scalar> 
4000
(
2.28747e-06
9.99735e-06
2.29694e-05
4.4731e-05
8.1084e-05
0.000141475
0.000241104
0.000404071
0.000667933
0.00108998
0.00175546
0.00278725
0.00435671
0.00669008
0.0100676
0.0148126
0.021264
0.0297331
0.0404581
0.0535682
0.069069
0.0868506
0.106711
0.128386
0.151573
0.175955
0.201217
0.227052
0.253265
0.279614
0.30576
0.331522
0.356744
0.381292
0.405058
0.427958
0.449925
0.470913
0.490896
0.509861
0.527809
0.544751
0.560707
0.575705
0.589777
0.602958
0.615289
0.626809
0.63756
0.647583
0.656921
0.665614
0.673701
0.681221
0.688211
0.694706
0.700741
0.70627
0.711351
0.716215
0.720746
0.724978
0.728948
0.732697
0.736259
0.739652
0.742886
0.745964
0.748888
0.751651
0.754246
0.756666
0.758895
0.760939
0.762853
0.764542
0.766008
0.767232
0.768197
0.768906
0.769383
0.769675
0.769838
0.769923
0.769964
0.769984
0.769993
0.769997
0.769999
0.769999
0.77
0.77
0.77
0.77
0.77
0.77
0.77
0.77
0.77
0.77
2.28502e-06
9.98817e-06
2.29547e-05
4.47201e-05
8.11007e-05
0.000141563
0.000241314
0.000404413
0.000668236
0.00108962
0.00175276
0.00277862
0.00433393
0.00663727
0.0099628
0.0146269
0.0209615
0.0292755
0.039811
0.0527075
0.0679855
0.0855514
0.105218
0.126733
0.149803
0.174118
0.199363
0.225298
0.251622
0.277917
0.304084
0.329915
0.355236
0.379901
0.403794
0.426826
0.448924
0.470041
0.490148
0.50923
0.527287
0.54433
0.560378
0.57546
0.589607
0.602856
0.615246
0.626819
0.637616
0.647679
0.657051
0.665773
0.673885
0.681426
0.688434
0.694944
0.700992
0.706515
0.711604
0.716477
0.721015
0.725252
0.729227
0.732982
0.73655
0.739948
0.743187
0.74627
0.749196
0.751959
0.754552
0.756966
0.759179
0.76121
0.763095
0.764778
0.766221
0.76741
0.768333
0.768999
0.769439
0.769705
0.769853
0.769929
0.769967
0.769985
0.769993
0.769997
0.769999
0.769999
0.77
0.77
0.77
0.77
0.77
0.77
0.77
0.77
0.77
0.77
2.28722e-06
9.99908e-06
2.29856e-05
4.47941e-05
8.12578e-05
0.000141862
0.000241825
0.000405179
0.000669171
0.00109026
0.00175177
0.0027728
0.00431685
0.00660038
0.00989114
0.014498
0.0207461
0.0289395
0.039319
0.052028
0.0670957
0.0844406
0.103889
0.125202
0.148098
0.172275
0.197452
0.223373
0.249542
0.275853
0.302066
0.327972
0.353392
0.378176
0.402204
0.425379
0.447628
0.468898
0.489156
0.508386
0.526585
0.543763
0.559938
0.575136
0.589391
0.602737
0.615216
0.626867
0.637733
0.647858
0.657282
0.666049
0.6742
0.681773
0.688808
0.695342
0.701411
0.706921
0.712033
0.716919
0.721464
0.725706
0.729686
0.733446
0.737018
0.740419
0.743659
0.74674
0.749662
0.752415
0.754994
0.757386
0.759573
0.761585
0.763441
0.765072
0.766461
0.767592
0.768461
0.76908
0.769485
0.769729
0.769864
0.769934
0.769969
0.769986
0.769994
0.769997
0.769999
0.769999
0.77
0.77
0.77
0.77
0.77
0.77
0.77
0.77
0.77
0.77
2.28102e-06
9.97163e-06
2.29209e-05
4.46622e-05
8.09995e-05
0.000141357
0.000240831
0.000403211
0.000665295
0.00108276
0.00173769
0.00274739
0.00427329
0.00652754
0.0097734
0.014315
0.0204736
0.028551
0.0387891
0.0513354
0.0662257
0.0833873
0.102656
0.1238
0.146547
0.170601
0.195742
0.221464
0.247618
0.273939
0.300189
0.326157
0.35166
0.376547
0.400693
0.423999
0.446387
0.467801
0.488205
0.507579
0.525919
0.543233
0.559538
0.574858
0.589226
0.602678
0.61525
0.626986
0.637927
0.648118
0.6576
0.666416
0.674608
0.682214
0.689274
0.695825
0.701902
0.70738
0.712615
0.717486
0.722022
0.726258
0.730236
0.733996
0.737568
0.740967
0.744202
0.747274
0.750182
0.752917
0.75547
0.757831
0.759981
0.761968
0.763779
0.76536
0.766695
0.767771
0.768588
0.769163
0.769534
0.769755
0.769877
0.769941
0.769972
0.769987
0.769994
0.769997
0.769999
0.77
0.77
0.77
0.77
0.77
0.77
0.77
0.77
0.77
0.77
0.77
2.2693e-06
9.91999e-06
2.28004e-05
4.44213e-05
8.05471e-05
0.000140531
0.000239339
0.000400541
0.000660552
0.00107442
0.0017232
0.00272266
0.00423197
0.00646025
0.00966707
0.0141527
0.020235
0.0282143
0.0383329
0.0507418
0.0654824
0.0824889
0.101604
0.122604
0.14522
0.169181
0.194147
0.219838
0.245977
0.272304
0.298582
0.324599
0.350173
0.375147
0.399395
0.422815
0.445326
0.466868
0.487402
0.506908
0.525378
0.542818
0.559243
0.574678
0.589153
0.602702
0.615363
0.62718
0.638193
0.648447
0.657984
0.666847
0.675077
0.682715
0.6898
0.696369
0.702458
0.707941
0.71319
0.718065
0.7226
0.726833
0.730809
0.734567
0.738136
0.741529
0.744755
0.747814
0.750703
0.753413
0.755936
0.758258
0.76037
0.762333
0.764097
0.765627
0.766909
0.767932
0.7687
0.769234
0.769576
0.769777
0.769888
0.769946
0.769975
0.769988
0.769995
0.769998
0.769999
0.77
0.77
0.77
0.77
0.77
0.77
0.77
0.77
0.77
0.77
0.77
2.2531e-06
9.84859e-06
2.26337e-05
4.40892e-05
7.99271e-05
0.00013941
0.000237352
0.000397063
0.000654541
0.00106417
0.001706
0.00269431
0.00418626
0.00638843
0.00955749
0.0139909
0.0200044
0.0278976
0.0379143
0.0502085
0.0648266
0.0817082
0.100702
0.121589
0.144104
0.168015
0.192889
0.218524
0.244637
0.270963
0.297262
0.323322
0.348956
0.374006
0.398343
0.421862
0.444479
0.466133
0.486782
0.506403
0.524987
0.542537
0.55907
0.574606
0.589174
0.60281
0.615551
0.627439
0.638517
0.648826
0.658412
0.667315
0.675579
0.683244
0.690349
0.696934
0.703021
0.708506
0.713759
0.718633
0.723165
0.727394
0.731365
0.73512
0.738683
0.742069
0.745283
0.748327
0.751194
0.753878
0.756369
0.758652
0.760728
0.762668
0.764386
0.765867
0.7671
0.768076
0.7688
0.769298
0.769613
0.769798
0.769899
0.769951
0.769977
0.769989
0.769995
0.769998
0.769999
0.77
0.77
0.77
0.77
0.77
0.77
0.77
0.77
0.77
0.77
0.77
2.23518e-06
9.76992e-06
2.24512e-05
4.37288e-05
7.92616e-05
0.000138223
0.000235279
0.000393499
0.000648494
0.00105405
0.00168932
0.0026673
0.00414344
0.00632215
0.00945768
0.0138452
0.0197989
0.027618
0.0375478
0.0497454
0.0642614
0.0810405
0.0999365
0.120735
0.143181
0.166967
0.191811
0.217426
0.243531
0.269867
0.296193
0.322294
0.347984
0.373102
0.397517
0.421123
0.443834
0.465585
0.486333
0.506054
0.524736
0.542383
0.559007
0.574628
0.589277
0.602987
0.615796
0.627745
0.638877
0.649233
0.658858
0.667795
0.676086
0.683772
0.690893
0.697488
0.703564
0.709047
0.714299
0.71917
0.723697
0.727919
0.731885
0.735635
0.739191
0.742567
0.745769
0.748797
0.751643
0.754301
0.756762
0.759007
0.761056
0.762961
0.764639
0.766078
0.767268
0.768201
0.768887
0.769353
0.769645
0.769815
0.769908
0.769955
0.769979
0.76999
0.769996
0.769998
0.769999
0.77
0.77
0.77
0.77
0.77
0.77
0.77
0.77
0.77
0.77
0.77
2.21695e-06
9.69001e-06
2.22663e-05
4.33647e-05
7.85922e-05
0.000137035
0.000233217
0.000389978
0.000642567
0.00104422
0.00167329
0.00264164
0.00410322
0.00626065
0.00936623
0.0137134
0.0196151
0.0273709
0.0372272
0.0493439
0.0637754
0.0804703
0.0992862
0.120012
0.142415
0.166139
0.190944
0.216539
0.242641
0.268989
0.295341
0.321482
0.347224
0.372404
0.396889
0.420571
0.443362
0.465197
0.486031
0.505837
0.524604
0.542332
0.559032
0.574726
0.589442
0.603214
0.616079
0.628078
0.639253
0.649648
0.659304
0.668267
0.676578
0.684279
0.691411
0.698011
0.704068
0.709548
0.714797
0.719663
0.724183
0.7284
0.732359
0.736103
0.739652
0.743018
0.746207
0.749219
0.752044
0.754678
0.757111
0.759323
0.761346
0.763218
0.764861
0.766263
0.767414
0.768309
0.768961
0.7694
0.769673
0.76983
0.769915
0.769959
0.769981
0.769991
0.769996
0.769998
0.769999
0.77
0.77
0.77
0.77
0.77
0.77
0.77
0.77
0.77
0.77
0.77
2.19951e-06
9.61363e-06
2.209e-05
4.30186e-05
7.79582e-05
0.000135916
0.000231284
0.000386696
0.000637081
0.00103519
0.00165867
0.00261841
0.00406711
0.00620585
0.00928536
0.0135976
0.0194549
0.0271569
0.0369514
0.0490009
0.0633628
0.0799889
0.0987393
0.119404
0.141733
0.165437
0.190228
0.215817
0.241925
0.26829
0.294671
0.32085
0.346639
0.371875
0.396422
0.420171
0.443033
0.46494
0.485847
0.505726
0.524563
0.542358
0.559122
0.574876
0.589648
0.603471
0.616382
0.628421
0.639631
0.650054
0.659735
0.668717
0.677042
0.684753
0.69189
0.698492
0.704522
0.709999
0.715245
0.720105
0.724619
0.72883
0.732784
0.736521
0.740062
0.743419
0.746595
0.749591
0.752398
0.755009
0.757416
0.7596
0.761602
0.763444
0.765055
0.766424
0.76754
0.768402
0.769025
0.76944
0.769696
0.769843
0.769922
0.769962
0.769982
0.769992
0.769996
0.769998
0.769999
0.77
0.77
0.77
0.77
0.77
0.77
0.77
0.77
0.77
0.77
0.77
2.1834e-06
9.54317e-06
2.19275e-05
4.27004e-05
7.73767e-05
0.000134891
0.000229521
0.000383715
0.000632119
0.00102706
0.00164557
0.00259772
0.00403513
0.00615764
0.00921465
0.0134971
0.0193167
0.0269733
0.0367164
0.0487107
0.0630166
0.0795894
0.0982936
0.11893
0.14121
0.164884
0.189658
0.215243
0.241359
0.267742
0.29415
0.320366
0.346198
0.371483
0.396085
0.419892
0.442814
0.464784
0.485753
0.505692
0.524587
0.542438
0.559256
0.57506
0.589877
0.60374
0.616687
0.628758
0.639995
0.650441
0.660139
0.669135
0.67747
0.685187
0.692326
0.698928
0.704928
0.710401
0.715643
0.720498
0.725006
0.72921
0.733159
0.73689
0.740424
0.743771
0.746935
0.749917
0.752706
0.755297
0.757681
0.75984
0.761825
0.763641
0.765224
0.766563
0.767649
0.768482
0.769079
0.769474
0.769715
0.769853
0.769927
0.769965
0.769983
0.769992
0.769997
0.769998
0.769999
0.77
0.77
0.77
0.77
0.77
0.77
0.77
0.77
0.77
0.77
0.77
2.16895e-06
9.47997e-06
2.17819e-05
4.24156e-05
7.68573e-05
0.000133979
0.000227955
0.000381075
0.00062774
0.00101991
0.00163411
0.00257969
0.00400739
0.00611599
0.00915386
0.013411
0.0191989
0.0268178
0.036518
0.0484661
0.0627245
0.0792498
0.0979065
0.118499
0.140765
0.164428
0.189198
0.214786
0.240913
0.267315
0.29375
0.319999
0.34587
0.371199
0.395849
0.419706
0.44268
0.464702
0.485724
0.505713
0.524657
0.542554
0.559415
0.575259
0.590113
0.604008
0.616984
0.629079
0.640336
0.650799
0.660511
0.669516
0.677858
0.685578
0.692719
0.69932
0.705292
0.710758
0.715996
0.720844
0.725345
0.729544
0.733487
0.737212
0.740739
0.744077
0.747231
0.750199
0.752972
0.755546
0.757909
0.760047
0.762019
0.763812
0.76537
0.766682
0.767742
0.76855
0.769125
0.769502
0.769732
0.769862
0.769932
0.769967
0.769985
0.769993
0.769997
0.769999
0.769999
0.77
0.77
0.77
0.77
0.77
0.77
0.77
0.77
0.77
0.77
0.77
2.15626e-06
9.42448e-06
2.16542e-05
4.21661e-05
7.6403e-05
0.000133182
0.00022659
0.00037878
0.000623942
0.00101373
0.00162423
0.0025642
0.00398364
0.0060805
0.00910227
0.0133384
0.0191
0.0266878
0.0363535
0.0482655
0.0624884
0.0789814
0.0976117
0.118174
0.140419
0.16407
0.188836
0.214428
0.240567
0.266987
0.293446
0.319726
0.345632
0.370999
0.39569
0.41959
0.442609
0.464675
0.485738
0.50577
0.524754
0.542689
0.559585
0.575461
0.590343
0.604265
0.617262
0.629376
0.640648
0.651123
0.660844
0.669856
0.678201
0.685924
0.693065
0.699665
0.705609
0.711071
0.716304
0.721147
0.725641
0.729834
0.733772
0.737491
0.741011
0.744341
0.747485
0.750441
0.753201
0.755759
0.758103
0.760224
0.762187
0.763958
0.765494
0.766784
0.767821
0.768608
0.769163
0.769526
0.769746
0.769869
0.769935
0.769969
0.769985
0.769993
0.769997
0.769999
0.769999
0.77
0.77
0.77
0.77
0.77
0.77
0.77
0.77
0.77
0.77
0.77
2.14533e-06
9.37671e-06
2.15444e-05
4.19516e-05
7.60128e-05
0.000132498
0.000225422
0.000376819
0.000620705
0.00100847
0.00161585
0.0025511
0.00396362
0.00605065
0.00905902
0.0132776
0.0190175
0.0265799
0.0362173
0.0480999
0.0622943
0.0787619
0.097373
0.117913
0.140144
0.163786
0.188551
0.214149
0.240299
0.266737
0.293219
0.319525
0.345462
0.370863
0.395588
0.419525
0.442581
0.464683
0.485782
0.505848
0.524865
0.542831
0.559755
0.575656
0.590561
0.604502
0.617516
0.629643
0.640926
0.651409
0.661136
0.670151
0.678498
0.68622
0.693359
0.699958
0.705879
0.711347
0.716575
0.721412
0.7259
0.730086
0.734018
0.737731
0.741244
0.744567
0.747702
0.750647
0.753395
0.75594
0.758268
0.760375
0.762329
0.764083
0.7656
0.766871
0.767888
0.768656
0.769195
0.769546
0.769757
0.769875
0.769939
0.76997
0.769986
0.769994
0.769997
0.769999
0.769999
0.77
0.77
0.77
0.77
0.77
0.77
0.77
0.77
0.77
0.77
0.77
2.13609e-06
9.33634e-06
2.14516e-05
4.17706e-05
7.56839e-05
0.000131923
0.00022444
0.000375173
0.000617993
0.00100408
0.00160886
0.0025402
0.00394698
0.00602591
0.00902327
0.0132275
0.0189497
0.0264912
0.0361054
0.0479635
0.0621332
0.0785765
0.0971654
0.117696
0.139921
0.163561
0.188328
0.213933
0.240095
0.266549
0.293051
0.319381
0.345344
0.370773
0.395528
0.419495
0.442581
0.464713
0.485842
0.505936
0.524979
0.542969
0.559916
0.575836
0.590758
0.604714
0.61774
0.629877
0.641168
0.651655
0.661385
0.6704
0.678745
0.686462
0.693593
0.700177
0.706051
0.711644
0.716839
0.721656
0.726131
0.730308
0.734232
0.737938
0.741443
0.744758
0.747886
0.750821
0.753559
0.756091
0.758406
0.7605
0.76245
0.764188
0.765689
0.766943
0.767944
0.768696
0.769222
0.769562
0.769766
0.76988
0.769941
0.769972
0.769987
0.769994
0.769997
0.769999
0.769999
0.77
0.77
0.77
0.77
0.77
0.77
0.77
0.77
0.77
0.77
0.77
2.12844e-06
9.30295e-06
2.13748e-05
4.16211e-05
7.54124e-05
0.000131449
0.000223631
0.000373819
0.000615766
0.00100048
0.00160313
0.00253129
0.00393343
0.00600581
0.00899429
0.0131871
0.0188951
0.0264201
0.0360163
0.0478558
0.0620074
0.0784346
0.0970093
0.11753
0.139748
0.163387
0.188157
0.213769
0.239942
0.26641
0.29293
0.319279
0.345264
0.370716
0.395496
0.419488
0.442599
0.464756
0.485908
0.506025
0.525089
0.543098
0.560061
0.575997
0.590933
0.604899
0.617934
0.630078
0.641374
0.651864
0.661594
0.670608
0.67895
0.686663
0.693788
0.700366
0.706237
0.711855
0.717048
0.721857
0.726321
0.73049
0.734408
0.738109
0.741608
0.744917
0.748038
0.750965
0.753694
0.756217
0.75852
0.760604
0.762549
0.764275
0.765762
0.767002
0.767989
0.768729
0.769244
0.769576
0.769774
0.769885
0.769943
0.769973
0.769987
0.769994
0.769997
0.769999
0.769999
0.77
0.77
0.77
0.77
0.77
0.77
0.77
0.77
0.77
0.77
0.77
2.12228e-06
9.27605e-06
2.13131e-05
4.15007e-05
7.5194e-05
0.000131067
0.000222981
0.000372734
0.000613982
0.000997597
0.00159856
0.00252419
0.00392265
0.00598985
0.00897133
0.0131551
0.018852
0.0263643
0.0359466
0.0477722
0.061911
0.0783279
0.0968909
0.117404
0.139618
0.163256
0.188029
0.213647
0.239829
0.266309
0.292843
0.319209
0.345212
0.370684
0.395483
0.419495
0.442625
0.464802
0.485973
0.506107
0.525187
0.543211
0.560188
0.576136
0.591081
0.605056
0.618097
0.630246
0.641545
0.652037
0.661768
0.670781
0.679121
0.686831
0.693953
0.700529
0.7064
0.712019
0.71721
0.722014
0.726473
0.730636
0.73455
0.738246
0.741741
0.745045
0.74816
0.751082
0.753803
0.756318
0.758611
0.760688
0.762629
0.764344
0.765821
0.76705
0.768026
0.768755
0.769261
0.769586
0.76978
0.769888
0.769945
0.769974
0.769988
0.769994
0.769997
0.769999
0.769999
0.77
0.77
0.77
0.77
0.77
0.77
0.77
0.77
0.77
0.77
0.77
2.1175e-06
9.25517e-06
2.12651e-05
4.14073e-05
7.50246e-05
0.000130772
0.000222478
0.000371894
0.000612604
0.000995373
0.00159504
0.00251872
0.00391435
0.00597758
0.00895371
0.0131306
0.018819
0.0263215
0.0358931
0.0477076
0.0618355
0.078242
0.0967991
0.117308
0.13952
0.163158
0.187934
0.213558
0.239748
0.266238
0.292783
0.319162
0.345179
0.370666
0.395481
0.419509
0.442654
0.464845
0.486031
0.506178
0.52527
0.543306
0.560292
0.576249
0.591201
0.605182
0.618229
0.630381
0.641682
0.652176
0.661907
0.67092
0.679258
0.686967
0.694087
0.70066
0.70653
0.712146
0.717334
0.722134
0.726589
0.730749
0.73466
0.738353
0.741844
0.745144
0.748256
0.751172
0.753888
0.756396
0.758683
0.760754
0.76269
0.764398
0.765866
0.767087
0.768054
0.768775
0.769275
0.769594
0.769784
0.76989
0.769946
0.769974
0.769988
0.769994
0.769997
0.769999
0.77
0.77
0.77
0.77
0.77
0.77
0.77
0.77
0.77
0.77
0.77
0.77
2.11401e-06
9.2399e-06
2.123e-05
4.13391e-05
7.49009e-05
0.000130556
0.000222112
0.000371282
0.0006116
0.000993754
0.00159248
0.00251475
0.00390833
0.00596869
0.00894094
0.0131128
0.0187952
0.0262906
0.0358546
0.0476613
0.061782
0.0781821
0.0967344
0.11724
0.139451
0.16309
0.187868
0.213496
0.239692
0.26619
0.292744
0.319133
0.34516
0.370658
0.395484
0.419523
0.44268
0.464881
0.486077
0.506234
0.525335
0.543379
0.560372
0.576335
0.591292
0.605278
0.618327
0.630482
0.641785
0.65228
0.662011
0.671023
0.679361
0.687068
0.694187
0.700758
0.706625
0.712239
0.717424
0.722221
0.726674
0.730831
0.73474
0.73843
0.74192
0.745217
0.748325
0.751238
0.75395
0.756454
0.758735
0.760803
0.762734
0.764436
0.765899
0.767113
0.768074
0.76879
0.769284
0.7696
0.769788
0.769892
0.769947
0.769975
0.769988
0.769995
0.769998
0.769999
0.77
0.77
0.77
0.77
0.77
0.77
0.77
0.77
0.77
0.77
0.77
0.77
2.11173e-06
9.22994e-06
2.12072e-05
4.12946e-05
7.48203e-05
0.000130416
0.000221873
0.000370884
0.000610947
0.000992703
0.00159082
0.00251217
0.00390443
0.00596294
0.0089327
0.0131014
0.0187799
0.0262708
0.03583
0.0476318
0.0617478
0.078144
0.0966932
0.117197
0.139407
0.163046
0.187827
0.213457
0.239657
0.26616
0.29272
0.319115
0.34515
0.370655
0.395488
0.419535
0.442699
0.464907
0.48611
0.506273
0.52538
0.543428
0.560426
0.576393
0.591354
0.605342
0.618394
0.63055
0.641854
0.652349
0.66208
0.671092
0.679429
0.687135
0.694253
0.700823
0.706688
0.7123
0.717483
0.722279
0.726729
0.730885
0.734792
0.738481
0.741969
0.745265
0.748371
0.751281
0.75399
0.756492
0.758769
0.760835
0.762763
0.764461
0.76592
0.767131
0.768088
0.768799
0.769291
0.769604
0.76979
0.769893
0.769948
0.769975
0.769988
0.769995
0.769998
0.769999
0.77
0.77
0.77
0.77
0.77
0.77
0.77
0.77
0.77
0.77
0.77
0.77
2.11061e-06
9.2251e-06
2.11961e-05
4.1273e-05
7.47814e-05
0.000130348
0.000221758
0.000370693
0.000610636
0.000992202
0.00159003
0.00251096
0.00390259
0.00596022
0.00892881
0.013096
0.0187726
0.0262614
0.0358183
0.0476179
0.0617317
0.078126
0.0966738
0.117176
0.139386
0.163026
0.187807
0.213439
0.239641
0.266146
0.292709
0.319108
0.345145
0.370654
0.395491
0.419541
0.442708
0.464921
0.486126
0.506292
0.525402
0.543453
0.560453
0.576421
0.591384
0.605373
0.618426
0.630583
0.641888
0.652383
0.662114
0.671126
0.679463
0.687168
0.694285
0.700855
0.706719
0.71233
0.717512
0.722307
0.726756
0.730911
0.734818
0.738506
0.741993
0.745288
0.748393
0.751302
0.75401
0.75651
0.758786
0.76085
0.762776
0.764473
0.76593
0.767139
0.768094
0.768804
0.769293
0.769606
0.769791
0.769894
0.769948
0.769975
0.769988
0.769995
0.769998
0.769999
0.77
0.77
0.77
0.77
0.77
0.77
0.77
0.77
0.77
0.77
0.77
0.77
2.11061e-06
9.22509e-06
2.11961e-05
4.1273e-05
7.47813e-05
0.000130348
0.000221758
0.000370693
0.000610635
0.000992202
0.00159003
0.00251095
0.00390259
0.00596022
0.00892881
0.013096
0.0187726
0.0262614
0.0358183
0.0476179
0.0617317
0.078126
0.0966738
0.117176
0.139386
0.163026
0.187807
0.213439
0.239641
0.266146
0.292709
0.319108
0.345145
0.370654
0.395491
0.419541
0.442708
0.464921
0.486126
0.506292
0.525402
0.543453
0.560453
0.576422
0.591384
0.605373
0.618426
0.630583
0.641888
0.652383
0.662114
0.671126
0.679463
0.687169
0.694285
0.700855
0.706719
0.71233
0.717512
0.722307
0.726756
0.730912
0.734818
0.738506
0.741993
0.745288
0.748393
0.751302
0.75401
0.75651
0.758786
0.76085
0.762776
0.764473
0.76593
0.767139
0.768094
0.768804
0.769293
0.769606
0.769791
0.769894
0.769948
0.769975
0.769988
0.769995
0.769998
0.769999
0.77
0.77
0.77
0.77
0.77
0.77
0.77
0.77
0.77
0.77
0.77
0.77
2.11172e-06
9.22991e-06
2.12071e-05
4.12944e-05
7.48201e-05
0.000130415
0.000221872
0.000370883
0.000610945
0.0009927
0.00159081
0.00251217
0.00390443
0.00596293
0.00893268
0.0131013
0.0187798
0.0262708
0.03583
0.0476318
0.0617478
0.078144
0.0966932
0.117197
0.139407
0.163046
0.187827
0.213457
0.239657
0.26616
0.29272
0.319115
0.34515
0.370655
0.395488
0.419535
0.442699
0.464907
0.48611
0.506273
0.52538
0.543428
0.560426
0.576393
0.591354
0.605342
0.618394
0.63055
0.641854
0.652349
0.66208
0.671092
0.679429
0.687135
0.694253
0.700823
0.706688
0.7123
0.717483
0.722279
0.726729
0.730885
0.734792
0.738481
0.741969
0.745265
0.748371
0.751281
0.75399
0.756492
0.758769
0.760835
0.762763
0.764461
0.76592
0.767131
0.768088
0.768799
0.769291
0.769604
0.76979
0.769893
0.769948
0.769975
0.769988
0.769995
0.769998
0.769999
0.77
0.77
0.77
0.77
0.77
0.77
0.77
0.77
0.77
0.77
0.77
0.77
2.114e-06
9.23985e-06
2.12299e-05
4.13388e-05
7.49005e-05
0.000130556
0.00022211
0.00037128
0.000611597
0.00099375
0.00159247
0.00251474
0.00390832
0.00596867
0.00894092
0.0131128
0.0187952
0.0262906
0.0358546
0.0476613
0.0617819
0.0781821
0.0967343
0.11724
0.13945
0.16309
0.187868
0.213496
0.239692
0.26619
0.292744
0.319133
0.34516
0.370658
0.395484
0.419523
0.44268
0.464881
0.486077
0.506234
0.525335
0.543379
0.560372
0.576335
0.591292
0.605278
0.618328
0.630482
0.641785
0.65228
0.662011
0.671023
0.679361
0.687068
0.694187
0.700758
0.706625
0.712239
0.717424
0.722221
0.726674
0.730832
0.73474
0.73843
0.74192
0.745217
0.748325
0.751238
0.75395
0.756454
0.758735
0.760803
0.762734
0.764436
0.765899
0.767113
0.768074
0.76879
0.769284
0.7696
0.769788
0.769892
0.769947
0.769975
0.769988
0.769995
0.769998
0.769999
0.77
0.77
0.77
0.77
0.77
0.77
0.77
0.77
0.77
0.77
0.77
0.77
2.11749e-06
9.25509e-06
2.12649e-05
4.1407e-05
7.50241e-05
0.000130771
0.000222477
0.000371892
0.0006126
0.000995367
0.00159503
0.00251871
0.00391434
0.00597756
0.00895368
0.0131305
0.018819
0.0263214
0.0358931
0.0477075
0.0618355
0.078242
0.0967991
0.117308
0.13952
0.163158
0.187934
0.213558
0.239747
0.266238
0.292783
0.319162
0.345179
0.370666
0.395481
0.419509
0.442654
0.464845
0.486031
0.506178
0.525271
0.543306
0.560292
0.576249
0.591201
0.605182
0.618229
0.630381
0.641682
0.652176
0.661907
0.67092
0.679258
0.686967
0.694087
0.700661
0.70653
0.712146
0.717334
0.722134
0.726589
0.730749
0.73466
0.738353
0.741845
0.745144
0.748256
0.751172
0.753888
0.756396
0.758683
0.760754
0.76269
0.764398
0.765866
0.767087
0.768054
0.768775
0.769275
0.769594
0.769784
0.76989
0.769946
0.769974
0.769988
0.769994
0.769997
0.769999
0.77
0.77
0.77
0.77
0.77
0.77
0.77
0.77
0.77
0.77
0.77
0.77
2.12226e-06
9.27595e-06
2.13128e-05
4.15003e-05
7.51932e-05
0.000131066
0.000222979
0.000372731
0.000613977
0.000997589
0.00159855
0.00252418
0.00392263
0.00598982
0.00897129
0.013155
0.018852
0.0263642
0.0359466
0.0477721
0.061911
0.0783278
0.0968908
0.117404
0.139618
0.163256
0.188029
0.213647
0.239829
0.266309
0.292843
0.319209
0.345212
0.370684
0.395483
0.419495
0.442626
0.464802
0.485973
0.506107
0.525187
0.543211
0.560188
0.576136
0.591081
0.605056
0.618098
0.630246
0.641545
0.652037
0.661768
0.670781
0.679121
0.686831
0.693953
0.700529
0.706401
0.71202
0.71721
0.722014
0.726473
0.730637
0.73455
0.738246
0.741742
0.745045
0.74816
0.751082
0.753803
0.756318
0.758611
0.760688
0.762629
0.764344
0.765821
0.76705
0.768026
0.768755
0.769261
0.769586
0.76978
0.769888
0.769945
0.769974
0.769988
0.769994
0.769997
0.769999
0.769999
0.77
0.77
0.77
0.77
0.77
0.77
0.77
0.77
0.77
0.77
0.77
2.12842e-06
9.30283e-06
2.13746e-05
4.16206e-05
7.54115e-05
0.000131447
0.000223628
0.000373816
0.00061576
0.00100047
0.00160312
0.00253127
0.00393341
0.00600578
0.00899425
0.013187
0.018895
0.02642
0.0360162
0.0478557
0.0620074
0.0784346
0.0970093
0.11753
0.139748
0.163387
0.188157
0.213769
0.239942
0.26641
0.29293
0.319279
0.345264
0.370716
0.395496
0.419488
0.442599
0.464756
0.485908
0.506025
0.525089
0.543098
0.560061
0.575997
0.590933
0.604899
0.617935
0.630079
0.641374
0.651864
0.661594
0.670608
0.67895
0.686662
0.693787
0.700365
0.706239
0.711857
0.717048
0.721856
0.726321
0.730489
0.734408
0.738108
0.741608
0.744917
0.748038
0.750965
0.753694
0.756217
0.75852
0.760605
0.762549
0.764275
0.765762
0.767002
0.767989
0.768729
0.769244
0.769576
0.769774
0.769885
0.769943
0.769973
0.769987
0.769994
0.769997
0.769999
0.769999
0.77
0.77
0.77
0.77
0.77
0.77
0.77
0.77
0.77
0.77
0.77
2.13606e-06
9.3362e-06
2.14513e-05
4.177e-05
7.56829e-05
0.000131921
0.000224437
0.000375169
0.000617986
0.00100407
0.00160884
0.00254017
0.00394695
0.00602587
0.00902321
0.0132275
0.0189496
0.0264911
0.0361053
0.0479634
0.062133
0.0785764
0.0971653
0.117696
0.13992
0.163561
0.188328
0.213933
0.240095
0.266549
0.293051
0.319381
0.345344
0.370773
0.395528
0.419495
0.442581
0.464713
0.485842
0.505936
0.52498
0.54297
0.559916
0.575837
0.590759
0.604714
0.61774
0.629878
0.641168
0.651656
0.661385
0.6704
0.678745
0.686462
0.693593
0.700177
0.706051
0.711644
0.716839
0.721656
0.726131
0.730308
0.734232
0.737938
0.741444
0.744758
0.747886
0.750822
0.753559
0.756092
0.758406
0.760501
0.76245
0.764188
0.765689
0.766943
0.767944
0.768696
0.769222
0.769562
0.769766
0.76988
0.769941
0.769972
0.769987
0.769994
0.769997
0.769999
0.769999
0.77
0.77
0.77
0.77
0.77
0.77
0.77
0.77
0.77
0.77
0.77
2.14529e-06
9.37654e-06
2.1544e-05
4.19509e-05
7.60116e-05
0.000132496
0.000225419
0.000376813
0.000620697
0.00100846
0.00161583
0.00255108
0.00396358
0.0060506
0.00905895
0.0132776
0.0190174
0.0265797
0.0362172
0.0480998
0.0622941
0.0787618
0.0973729
0.117913
0.140144
0.163786
0.188551
0.214149
0.240299
0.266737
0.293219
0.319525
0.345462
0.370863
0.395588
0.419525
0.442581
0.464683
0.485782
0.505849
0.524865
0.542831
0.559755
0.575656
0.590561
0.604502
0.617516
0.629643
0.640926
0.651409
0.661136
0.670151
0.678498
0.686221
0.693361
0.699959
0.705877
0.711346
0.716577
0.721414
0.725901
0.730087
0.734019
0.737732
0.741245
0.744567
0.747702
0.750648
0.753395
0.75594
0.758268
0.760375
0.762329
0.764083
0.7656
0.766871
0.767888
0.768656
0.769195
0.769546
0.769757
0.769875
0.769939
0.76997
0.769986
0.769994
0.769997
0.769999
0.769999
0.77
0.77
0.77
0.77
0.77
0.77
0.77
0.77
0.77
0.77
0.77
2.15621e-06
9.42429e-06
2.16538e-05
4.21653e-05
7.64015e-05
0.000133179
0.000226586
0.000378773
0.000623932
0.00101372
0.00162421
0.00256417
0.0039836
0.00608044
0.0091022
0.0133383
0.0190999
0.0266877
0.0363534
0.0482654
0.0624883
0.0789813
0.0976117
0.118174
0.140419
0.16407
0.188836
0.214428
0.240566
0.266987
0.293446
0.319726
0.345632
0.370999
0.39569
0.41959
0.442609
0.464675
0.485739
0.50577
0.524754
0.54269
0.559586
0.575461
0.590344
0.604265
0.617262
0.629376
0.640648
0.651123
0.660844
0.669856
0.678202
0.685924
0.693065
0.699665
0.705609
0.711072
0.716304
0.721147
0.725642
0.729834
0.733773
0.737492
0.741011
0.744341
0.747485
0.750441
0.753201
0.755759
0.758103
0.760224
0.762187
0.763958
0.765494
0.766784
0.767821
0.768608
0.769163
0.769526
0.769746
0.769869
0.769935
0.769969
0.769985
0.769993
0.769997
0.769999
0.769999
0.77
0.77
0.77
0.77
0.77
0.77
0.77
0.77
0.77
0.77
0.77
2.1689e-06
9.47975e-06
2.17814e-05
4.24147e-05
7.68557e-05
0.000133976
0.000227951
0.000381068
0.000627729
0.00101989
0.00163408
0.00257966
0.00400734
0.00611592
0.00915377
0.0134109
0.0191988
0.0268176
0.0365178
0.0484659
0.0627243
0.0792496
0.0979063
0.118499
0.140765
0.164428
0.189198
0.214786
0.240913
0.267315
0.29375
0.319999
0.34587
0.371199
0.395849
0.419706
0.442681
0.464703
0.485724
0.505713
0.524657
0.542555
0.559415
0.575259
0.590113
0.604009
0.616984
0.629079
0.640336
0.650799
0.660511
0.669516
0.677858
0.685579
0.692719
0.69932
0.705293
0.710759
0.715996
0.720845
0.725345
0.729544
0.733487
0.737212
0.740739
0.744077
0.747231
0.750199
0.752972
0.755546
0.757909
0.760047
0.762019
0.763812
0.76537
0.766682
0.767742
0.76855
0.769125
0.769502
0.769732
0.769862
0.769932
0.769967
0.769985
0.769993
0.769997
0.769999
0.769999
0.77
0.77
0.77
0.77
0.77
0.77
0.77
0.77
0.77
0.77
0.77
2.18335e-06
9.54292e-06
2.19269e-05
4.26993e-05
7.73748e-05
0.000134888
0.000229516
0.000383707
0.000632107
0.00102704
0.00164555
0.00259768
0.00403508
0.00615756
0.00921454
0.0134969
0.0193165
0.0269732
0.0367162
0.0487105
0.0630163
0.0795891
0.0982933
0.118929
0.14121
0.164883
0.189658
0.215243
0.241359
0.267742
0.29415
0.320366
0.346198
0.371483
0.396085
0.419892
0.442815
0.464784
0.485753
0.505693
0.524588
0.542439
0.559256
0.57506
0.589877
0.603741
0.616688
0.628758
0.639995
0.650441
0.66014
0.669135
0.67747
0.685187
0.692327
0.698928
0.704929
0.710401
0.715644
0.720499
0.725006
0.729211
0.733159
0.73689
0.740424
0.743771
0.746936
0.749917
0.752706
0.755297
0.757681
0.75984
0.761825
0.763641
0.765224
0.766563
0.767649
0.768482
0.769079
0.769474
0.769715
0.769853
0.769927
0.769965
0.769983
0.769992
0.769997
0.769998
0.769999
0.77
0.77
0.77
0.77
0.77
0.77
0.77
0.77
0.77
0.77
0.77
2.19944e-06
9.61335e-06
2.20893e-05
4.30174e-05
7.79562e-05
0.000135912
0.000231278
0.000386687
0.000637067
0.00103517
0.00165864
0.00261837
0.00406704
0.00620577
0.00928524
0.0135975
0.0194548
0.0271567
0.0369511
0.0490006
0.0633625
0.0799886
0.0987391
0.119404
0.141733
0.165437
0.190228
0.215817
0.241925
0.26829
0.294671
0.32085
0.346639
0.371875
0.396422
0.420171
0.443033
0.46494
0.485847
0.505726
0.524563
0.542358
0.559122
0.574877
0.589649
0.603471
0.616382
0.628421
0.639631
0.650054
0.659735
0.668717
0.677042
0.684753
0.69189
0.698493
0.704523
0.709999
0.715245
0.720106
0.72462
0.72883
0.732784
0.736521
0.740063
0.743419
0.746595
0.749591
0.752398
0.755009
0.757416
0.7596
0.761602
0.763444
0.765055
0.766424
0.76754
0.768402
0.769025
0.76944
0.769696
0.769843
0.769922
0.769962
0.769982
0.769992
0.769996
0.769998
0.769999
0.77
0.77
0.77
0.77
0.77
0.77
0.77
0.77
0.77
0.77
0.77
2.21688e-06
9.6897e-06
2.22656e-05
4.33634e-05
7.85899e-05
0.000137032
0.000233211
0.000389968
0.000642552
0.0010442
0.00167325
0.00264159
0.00410315
0.00626055
0.0093661
0.0137132
0.0196149
0.0273706
0.0372269
0.0493436
0.0637751
0.08047
0.0992859
0.120012
0.142415
0.166139
0.190944
0.216538
0.242641
0.268989
0.295341
0.321483
0.347224
0.372404
0.396889
0.420571
0.443363
0.465198
0.486032
0.505838
0.524604
0.542332
0.559032
0.574726
0.589442
0.603214
0.61608
0.628079
0.639254
0.649648
0.659305
0.668268
0.676579
0.68428
0.691411
0.698012
0.704069
0.709548
0.714797
0.719663
0.724184
0.7284
0.73236
0.736103
0.739652
0.743018
0.746207
0.749219
0.752044
0.754678
0.757111
0.759323
0.761346
0.763218
0.764861
0.766263
0.767414
0.768309
0.768961