/*--------------------------------*- C++ -*----------------------------------*\
  =========                 |
  \\      /  F ield         | OpenFOAM: The Open Source CFD Toolbox
   \\    /   O peration     | Website:  https://openfoam.org
    \\  /    A nd           | Version:  8
     \\/     M anipulation  |
\*---------------------------------------------------------------------------*/
FoamFile
{
    version     2.0;
    format      ascii;
    class       volScalarField;
    location    "0.35/fluid";
    object      O2;
}
// * * * * * * * * * * * * * * * * * * * * * * * * * * * * * * * * * * * * * //

dimensions      [0 0 0 0 0 0 0];

internalField   nonuniform List<scalar> 
4000
(
4.4637e-11
1.95072e-10
4.48113e-10
8.7242e-10
1.58078e-09
2.75676e-09
4.69524e-09
7.86316e-09
1.29869e-08
2.11729e-08
3.40569e-08
5.39965e-08
8.42498e-08
1.29109e-07
1.93862e-07
2.84544e-07
4.07379e-07
5.67954e-07
7.70332e-07
1.01639e-06
1.30557e-06
1.63506e-06
2.00033e-06
2.39564e-06
2.8146e-06
3.25061e-06
3.69715e-06
4.14797e-06
4.59757e-06
5.04047e-06
5.47209e-06
5.8887e-06
6.28761e-06
6.66763e-06
7.02981e-06
7.37847e-06
7.72262e-06
8.07783e-06
8.46838e-06
8.92994e-06
9.51324e-06
1.02899e-05
1.13619e-05
1.28793e-05
1.50696e-05
1.82921e-05
2.31314e-05
3.05606e-05
4.22194e-05
6.08606e-05
9.10527e-05
0.000140256
0.000220474
0.000350802
0.000561417
0.000899782
0.00144031
0.00228776
0.00361131
0.00575079
0.00912378
0.0144643
0.0229897
0.0356913
0.0505924
0.0665112
0.0827199
0.0987629
0.114353
0.129279
0.143408
0.15664
0.168853
0.180072
0.190582
0.199868
0.207935
0.214674
0.220001
0.223919
0.226559
0.22818
0.229092
0.229566
0.229799
0.229909
0.229959
0.229982
0.229992
0.229997
0.229999
0.229999
0.23
0.23
0.23
0.23
0.23
0.23
0.23
0.23
4.46479e-11
1.95157e-10
4.48468e-10
8.73571e-10
1.5839e-09
2.76378e-09
4.70902e-09
7.88692e-09
1.30219e-08
2.12128e-08
3.40882e-08
5.39721e-08
8.40636e-08
1.28553e-07
1.92627e-07
2.82222e-07
4.03484e-07
5.62009e-07
7.61984e-07
1.00552e-06
1.29236e-06
1.62002e-06
1.98422e-06
2.37942e-06
2.79936e-06
3.23749e-06
3.68727e-06
4.14259e-06
4.59718e-06
5.04592e-06
5.48415e-06
5.90798e-06
6.31457e-06
6.70261e-06
7.07302e-06
7.43005e-06
7.78267e-06
8.14656e-06
8.54627e-06
9.01808e-06
9.61381e-06
1.04068e-05
1.15019e-05
1.30536e-05
1.5297e-05
1.86044e-05
2.35832e-05
3.12295e-05
4.32646e-05
6.25503e-05
9.38398e-05
0.000144896
0.000228205
0.000363644
0.00058263
0.000934597
0.00149709
0.00237644
0.0037536
0.00598115
0.00949463
0.0150626
0.023963
0.0369097
0.0519762
0.068009
0.0842972
0.100395
0.116021
0.130961
0.145082
0.158278
0.17041
0.181559
0.191913
0.201163
0.209106
0.215654
0.220752
0.224434
0.226872
0.228348
0.229173
0.229602
0.229814
0.229915
0.229962
0.229983
0.229993
0.229997
0.229999
0.229999
0.23
0.23
0.23
0.23
0.23
0.23
0.23
0.23
4.4772e-11
1.95724e-10
4.49889e-10
8.76607e-10
1.58983e-09
2.77468e-09
4.72788e-09
7.91746e-09
1.30678e-08
2.12756e-08
3.41569e-08
5.40179e-08
8.40216e-08
1.28304e-07
1.91973e-07
2.80871e-07
4.01076e-07
5.58156e-07
7.56352e-07
9.97922e-07
1.28284e-06
1.6089e-06
1.9721e-06
2.36718e-06
2.78807e-06
3.22838e-06
3.68174e-06
4.14176e-06
4.60252e-06
5.05872e-06
5.50557e-06
5.93906e-06
6.35624e-06
6.75566e-06
7.1381e-06
7.5077e-06
7.87341e-06
8.25103e-06
8.66559e-06
9.1543e-06
9.77062e-06
1.05906e-05
1.17237e-05
1.33314e-05
1.56608e-05
1.91032e-05
2.42869e-05
3.23178e-05
4.49896e-05
6.53538e-05
9.84735e-05
0.000152612
0.000241058
0.000384972
0.000617825
0.000992348
0.0015914
0.0025232
0.00399115
0.00636374
0.010107
0.0160456
0.0255557
0.0388878
0.0542005
0.0703877
0.0867662
0.102907
0.118537
0.133441
0.147493
0.160582
0.172571
0.183617
0.193814
0.20278
0.210423
0.21666
0.221457
0.224882
0.227128
0.228481
0.229236
0.229631
0.229826
0.22992
0.229964
0.229984
0.229993
0.229997
0.229999
0.229999
0.23
0.23
0.23
0.23
0.23
0.23
0.23
0.23
4.47574e-11
1.95661e-10
4.49739e-10
8.76272e-10
1.58901e-09
2.77252e-09
4.72221e-09
7.90316e-09
1.30339e-08
2.12e-08
3.39989e-08
5.37081e-08
8.34527e-08
1.27324e-07
1.90372e-07
2.78393e-07
3.9744e-07
5.53111e-07
7.49738e-07
9.89737e-07
1.27329e-06
1.59841e-06
1.96134e-06
2.35701e-06
2.77953e-06
3.22265e-06
3.68007e-06
4.14539e-06
4.61287e-06
5.0771e-06
5.53326e-06
5.97729e-06
6.40615e-06
6.81826e-06
7.21433e-06
7.59839e-06
7.97944e-06
8.37347e-06
8.80609e-06
9.31566e-06
9.95769e-06
1.08116e-05
1.19923e-05
1.36703e-05
1.61058e-05
1.97076e-05
2.51881e-05
3.36837e-05
4.71434e-05
6.8846e-05
0.000104227
0.000162145
0.000256825
0.000410885
0.000660053
0.00106052
0.00170041
0.00268918
0.00429492
0.00683268
0.0108467
0.0172253
0.0274581
0.0412337
0.0568162
0.073158
0.0896102
0.105765
0.121352
0.136172
0.150098
0.163016
0.174807
0.185715
0.19567
0.204364
0.211712
0.217647
0.222158
0.225338
0.227398
0.228628
0.22931
0.229666
0.229843
0.229927
0.229967
0.229985
0.229994
0.229997
0.229999
0.229999
0.23
0.23
0.23
0.23
0.23
0.23
0.23
0.23
4.4626e-11
1.95079e-10
4.48369e-10
8.73503e-10
1.58372e-09
2.76266e-09
4.70399e-09
7.86971e-09
1.2973e-08
2.10904e-08
3.38049e-08
5.33722e-08
8.28871e-08
1.26401e-07
1.88924e-07
2.76213e-07
3.9431e-07
5.48842e-07
7.44225e-07
9.83014e-07
1.26557e-06
1.59013e-06
1.95313e-06
2.34968e-06
2.77408e-06
3.22025e-06
3.68171e-06
4.15249e-06
4.62674e-06
5.09905e-06
5.56459e-06
6.01926e-06
6.45996e-06
6.88504e-06
7.29514e-06
7.69426e-06
8.09145e-06
8.503e-06
8.95518e-06
9.48763e-06
1.01581e-05
1.10499e-05
1.22838e-05
1.40383e-05
1.6587e-05
2.03958e-05
2.61893e-05
3.52088e-05
4.95555e-05
7.27638e-05
0.000110686
0.000172842
0.0002745
0.000439915
0.000707376
0.00113708
0.0018234
0.00288295
0.00460592
0.00732528
0.0116262
0.0184657
0.0294485
0.0436755
0.0595225
0.0760043
0.0925095
0.108653
0.12417
0.138874
0.152645
0.165357
0.176944
0.187721
0.197417
0.205832
0.212889
0.218535
0.222778
0.225733
0.227629
0.228752
0.229373
0.229696
0.229856
0.229934
0.22997
0.229987
0.229994
0.229997
0.229999
0.23
0.23
0.23
0.23
0.23
0.23
0.23
0.23
0.23
4.43955e-11
1.9406e-10
4.45979e-10
8.68709e-10
1.57471e-09
2.74625e-09
4.67469e-09
7.81814e-09
1.28835e-08
2.09374e-08
3.35481e-08
5.29505e-08
8.22121e-08
1.25353e-07
1.87352e-07
2.73949e-07
3.9119e-07
5.44745e-07
7.39123e-07
9.77009e-07
1.25893e-06
1.58329e-06
1.9467e-06
2.34443e-06
2.7709e-06
3.22011e-06
3.68584e-06
4.16204e-06
4.64292e-06
5.1231e-06
5.59774e-06
6.06274e-06
6.51494e-06
6.95268e-06
7.37652e-06
7.7905e-06
8.20377e-06
8.63295e-06
9.10503e-06
9.66105e-06
1.03612e-05
1.12925e-05
1.25804e-05
1.44129e-05
1.71011e-05
2.11129e-05
2.72397e-05
3.68171e-05
5.2108e-05
7.6917e-05
0.000117533
0.000184167
0.00029317
0.000470482
0.000757008
0.00121699
0.00194955
0.00308056
0.00491938
0.00781918
0.012404
0.0196974
0.0314011
0.0460544
0.0621429
0.0787437
0.0952826
0.111397
0.126829
0.141406
0.155012
0.167513
0.178903
0.18956
0.199002
0.207154
0.213943
0.219326
0.223329
0.226087
0.227837
0.228866
0.229431
0.229724
0.22987
0.22994
0.229973
0.229988
0.229995
0.229998
0.229999
0.23
0.23
0.23
0.23
0.23
0.23
0.23
0.23
0.23
4.41219e-11
1.92858e-10
4.43184e-10
8.63176e-10
1.56447e-09
2.72796e-09
4.64271e-09
7.76317e-09
1.27903e-08
2.0782e-08
3.32935e-08
5.25418e-08
8.15715e-08
1.24378e-07
1.85914e-07
2.71909e-07
3.88421e-07
5.41165e-07
7.34734e-07
9.7194e-07
1.25346e-06
1.57785e-06
1.94187e-06
2.34094e-06
2.76963e-06
3.2219e-06
3.69175e-06
4.17315e-06
4.66035e-06
5.148e-06
5.63126e-06
6.10602e-06
6.56911e-06
7.01884e-06
7.45576e-06
7.88393e-06
8.31266e-06
8.75894e-06
9.25054e-06
9.82993e-06
1.05597e-05
1.15291e-05
1.28706e-05
1.47967e-05
1.76152e-05
2.18358e-05
2.83061e-05
3.8459e-05
5.47248e-05
8.11858e-05
0.000124578
0.000195818
0.000312358
0.000501849
0.000807838
0.00129863
0.00207722
0.00327972
0.0052338
0.00831189
0.0131743
0.0209051
0.0332649
0.0482968
0.0645921
0.0812872
0.097843
0.113919
0.12926
0.143712
0.157159
0.169459
0.180706
0.191167
0.200394
0.208315
0.214866
0.220015
0.223806
0.22639
0.228015
0.228962
0.22948
0.229748
0.229881
0.229945
0.229975
0.229989
0.229995
0.229998
0.229999
0.23
0.23
0.23
0.23
0.23
0.23
0.23
0.23
0.23
4.38341e-11
1.91595e-10
4.40259e-10
8.57411e-10
1.55386e-09
2.70913e-09
4.61005e-09
7.70748e-09
1.26969e-08
2.0628e-08
3.30441e-08
5.21467e-08
8.0961e-08
1.23462e-07
1.84586e-07
2.70055e-07
3.85946e-07
5.3802e-07
7.30954e-07
9.6767e-07
1.24897e-06
1.57356e-06
1.93832e-06
2.33879e-06
2.76962e-06
3.22495e-06
3.69876e-06
4.18509e-06
4.67823e-06
5.17284e-06
5.66411e-06
6.14792e-06
6.62111e-06
7.08195e-06
7.53102e-06
7.97243e-06
8.41566e-06
8.87811e-06
9.38833e-06
9.99024e-06
1.07473e-05
1.17539e-05
1.31584e-05
1.5168e-05
1.81169e-05
2.2547e-05
2.93626e-05
4.0096e-05
5.73472e-05
8.54801e-05
0.000131684
0.000207593
0.000331784
0.000533662
0.000859517
0.00138191
0.00220732
0.00348455
0.00556025
0.00882934
0.0139953
0.0222179
0.0350744
0.050394
0.066843
0.0836013
0.100157
0.116185
0.131436
0.145768
0.159067
0.171191
0.182297
0.192581
0.201614
0.20933
0.215669
0.220612
0.224217
0.226651
0.228167
0.229045
0.229523
0.229769
0.229891
0.229949
0.229977
0.22999
0.229995
0.229998
0.229999
0.23
0.23
0.23
0.23
0.23
0.23
0.23
0.23
0.23
4.35543e-11
1.90369e-10
4.37427e-10
8.51851e-10
1.54367e-09
2.69116e-09
4.57907e-09
7.65506e-09
1.26097e-08
2.04853e-08
3.28153e-08
5.17875e-08
8.04114e-08
1.22645e-07
1.83413e-07
2.68436e-07
3.83808e-07
5.35339e-07
7.27778e-07
9.64153e-07
1.24539e-06
1.57029e-06
1.93588e-06
2.33779e-06
2.77072e-06
3.22892e-06
3.70642e-06
4.19731e-06
4.69591e-06
5.19691e-06
5.6955e-06
6.18756e-06
6.66994e-06
7.1409e-06
7.60104e-06
8.05454e-06
8.51107e-06
8.98843e-06
9.51598e-06
1.01379e-05
1.0921e-05
1.19703e-05
1.34284e-05
1.5519e-05
1.85946e-05
2.32291e-05
3.03828e-05
4.16857e-05
5.99057e-05
8.96843e-05
0.000138658
0.000219168
0.000350906
0.000565026
0.000910557
0.00146436
0.00233568
0.00368895
0.00588873
0.00935451
0.0148372
0.0235813
0.0367945
0.0523216
0.0688779
0.085674
0.102217
0.11819
0.133355
0.147575
0.160737
0.172708
0.183698
0.193821
0.20268
0.210213
0.216366
0.221127
0.224569
0.226872
0.228296
0.229115
0.229559
0.229787
0.229899
0.229953
0.229979
0.22999
0.229996
0.229998
0.229999
0.23
0.23
0.23
0.23
0.23
0.23
0.23
0.23
0.23
4.32938e-11
1.89229e-10
4.34798e-10
8.46701e-10
1.53427e-09
2.67461e-09
4.55066e-09
7.60719e-09
1.25305e-08
2.03565e-08
3.26098e-08
5.14672e-08
7.99248e-08
1.21928e-07
1.82392e-07
2.67039e-07
3.81984e-07
5.33078e-07
7.25143e-07
9.61294e-07
1.24256e-06
1.56785e-06
1.93428e-06
2.33757e-06
2.77251e-06
3.23339e-06
3.71431e-06
4.20937e-06
4.71292e-06
5.21968e-06
5.72486e-06
6.22433e-06
6.71492e-06
7.19494e-06
7.66497e-06
8.12929e-06
8.59776e-06
9.08857e-06
9.63111e-06
1.02715e-05
1.10838e-05
1.21675e-05
1.36758e-05
1.58427e-05
1.90379e-05
2.38657e-05
3.13398e-05
4.31839e-05
6.23253e-05
9.36687e-05
0.000145273
0.00023015
0.000369039
0.000594742
0.000958855
0.00154224
0.00245585
0.00388083
0.00619706
0.0098468
0.0156248
0.0248532
0.0383548
0.0540457
0.070683
0.0875021
0.104026
0.119944
0.135029
0.149148
0.162185
0.174023
0.184923
0.194901
0.203607
0.210977
0.216965
0.221567
0.224869
0.22706
0.228405
0.229174
0.229589
0.229802
0.229906
0.229957
0.22998
0.229991
0.229996
0.229998
0.229999
0.23
0.23
0.23
0.23
0.23
0.23
0.23
0.23
0.23
4.30593e-11
1.88204e-10
4.32437e-10
8.42082e-10
1.52585e-09
2.65984e-09
4.52539e-09
7.56478e-09
1.24605e-08
2.02432e-08
3.24302e-08
5.11887e-08
7.95044e-08
1.21312e-07
1.81521e-07
2.65858e-07
3.80456e-07
5.31207e-07
7.22994e-07
9.59013e-07
1.24038e-06
1.5661e-06
1.93336e-06
2.33797e-06
2.77477e-06
3.23811e-06
3.7221e-06
4.22091e-06
4.7289e-06
5.24078e-06
5.75179e-06
6.25779e-06
6.75563e-06
7.2436e-06
7.72232e-06
8.19614e-06
8.67509e-06
9.17736e-06
9.73314e-06
1.03937e-05
1.12283e-05
1.23432e-05
1.38972e-05
1.61336e-05
1.9438e-05
2.4443e-05
3.22116e-05
4.45539e-05
6.45443e-05
9.73299e-05
0.000151359
0.000240256
0.000385729
0.000622093
0.00100332
0.00161397
0.00256589
0.00405421
0.00647378
0.0102865
0.0163253
0.0259801
0.0397299
0.0555588
0.0722612
0.0890955
0.105599
0.121465
0.136477
0.150505
0.163432
0.175156
0.185987
0.195837
0.204407
0.211635
0.217478
0.221942
0.225123
0.227219
0.228497
0.229224
0.229615
0.229814
0.229912
0.229959
0.229982
0.229992
0.229996
0.229998
0.229999
0.23
0.23
0.23
0.23
0.23
0.23
0.23
0.23
0.23
4.28534e-11
1.87304e-10
4.30365e-10
8.38037e-10
1.51849e-09
2.64696e-09
4.5034e-09
7.52797e-09
1.24e-08
2.01457e-08
3.2276e-08
5.09508e-08
7.91468e-08
1.20791e-07
1.8079e-07
2.64873e-07
3.79193e-07
5.29678e-07
7.21266e-07
9.57223e-07
1.23874e-06
1.56491e-06
1.93298e-06
2.3388e-06
2.77729e-06
3.24283e-06
3.72957e-06
4.23169e-06
4.74358e-06
5.25995e-06
5.77604e-06
6.28772e-06
6.79184e-06
7.28667e-06
7.77289e-06
8.25488e-06
8.74276e-06
9.25459e-06
9.82446e-06
1.04997e-05
1.13538e-05
1.24962e-05
1.40903e-05
1.6388e-05
1.97891e-05
2.4951e-05
3.29808e-05
4.57651e-05
6.65085e-05
0.000100572
0.000156745
0.000249194
0.000400474
0.00064623
0.0010425
0.00167709
0.00266182
0.00420632
0.00671636
0.0106714
0.0169374
0.0269633
0.040927
0.0568724
0.0736279
0.090472
0.106955
0.122773
0.13772
0.151667
0.164497
0.176127
0.186904
0.196642
0.205092
0.212197
0.217915
0.22226
0.225336
0.227351
0.228573
0.229265
0.229636
0.229824
0.229917
0.229962
0.229983
0.229992
0.229997
0.229998
0.229999
0.23
0.23
0.23
0.23
0.23
0.23
0.23
0.23
0.23
4.26764e-11
1.8653e-10
4.28587e-10
8.34568e-10
1.51219e-09
2.63595e-09
4.48464e-09
7.49665e-09
1.23487e-08
2.00631e-08
3.21461e-08
5.0751e-08
7.8848e-08
1.20358e-07
1.80185e-07
2.64064e-07
3.78165e-07
5.28448e-07
7.19898e-07
9.55841e-07
1.23753e-06
1.56413e-06
1.93294e-06
2.33987e-06
2.77988e-06
3.24737e-06
3.73652e-06
4.24153e-06
4.75679e-06
5.27703e-06
5.79748e-06
6.31402e-06
6.82348e-06
7.32414e-06
7.8167e-06
8.30563e-06
8.80092e-06
9.32255e-06
9.90225e-06
1.05899e-05
1.14606e-05
1.26263e-05
1.42547e-05
1.66047e-05
2.00886e-05
2.53849e-05
3.36384e-05
4.6801e-05
6.81877e-05
0.00010334
0.000161337
0.0002568
0.000413008
0.000666751
0.00107591
0.00173122
0.00274439
0.00434009
0.00692765
0.0110052
0.0174678
0.0278149
0.0419612
0.0580042
0.074802
0.0916514
0.108114
0.123889
0.138778
0.152655
0.165398
0.176954
0.187689
0.197328
0.205675
0.212672
0.218283
0.222527
0.225515
0.227462
0.228637
0.229299
0.229653
0.229833
0.229921
0.229964
0.229983
0.229993
0.229997
0.229999
0.229999
0.23
0.23
0.23
0.23
0.23
0.23
0.23
0.23
0.23
4.25274e-11
1.85879e-10
4.27091e-10
8.31652e-10
1.5069e-09
2.62672e-09
4.46895e-09
7.47051e-09
1.23059e-08
1.99946e-08
3.20385e-08
5.05862e-08
7.86024e-08
1.20004e-07
1.79693e-07
2.63411e-07
3.77341e-07
5.27474e-07
7.18834e-07
9.54797e-07
1.23668e-06
1.56368e-06
1.93316e-06
2.34108e-06
2.78241e-06
3.25159e-06
3.74282e-06
4.2503e-06
4.76843e-06
5.29196e-06
5.81609e-06
6.3367e-06
6.85061e-06
7.3561e-06
7.85385e-06
8.34827e-06
8.84976e-06
9.37884e-06
9.96703e-06
1.06651e-05
1.15497e-05
1.27347e-05
1.43917e-05
1.67853e-05
2.0338e-05
2.57461e-05
3.4185e-05
4.76593e-05
6.95714e-05
0.000105602
0.000165044
0.000262841
0.000422746
0.000682236
0.00110014
0.00176848
0.00279667
0.00447215
0.00711749
0.0112955
0.0179241
0.0285453
0.042845
0.0589681
0.075799
0.0926502
0.109093
0.124831
0.139669
0.153486
0.166156
0.177645
0.188349
0.197905
0.206164
0.213071
0.218591
0.222748
0.225663
0.227553
0.228689
0.229328
0.229668
0.22984
0.229925
0.229965
0.229984
0.229993
0.229997
0.229999
0.229999
0.23
0.23
0.23
0.23
0.23
0.23
0.23
0.23
0.23
4.24046e-11
1.85343e-10
4.2586e-10
8.29254e-10
1.50256e-09
2.61915e-09
4.45609e-09
7.44913e-09
1.22711e-08
1.99388e-08
3.19512e-08
5.04528e-08
7.84044e-08
1.19719e-07
1.793e-07
2.62892e-07
3.76693e-07
5.26716e-07
7.18022e-07
9.54027e-07
1.23609e-06
1.56346e-06
1.93354e-06
2.3423e-06
2.78477e-06
3.25538e-06
3.74837e-06
4.25793e-06
4.77847e-06
5.30473e-06
5.83193e-06
6.35591e-06
6.8735e-06
7.38297e-06
7.885e-06
8.38397e-06
8.89121e-06
9.42582e-06
1.00207e-05
1.07272e-05
1.1623e-05
1.2824e-05
1.45045e-05
1.69344e-05
2.05446e-05
2.60467e-05
3.46431e-05
4.8385e-05
7.07533e-05
0.000107557
0.000168292
0.000268222
0.000431602
0.000696682
0.00112348
0.00180582
0.00285493
0.00456832
0.00726983
0.0115357
0.0183055
0.0291574
0.0435843
0.0597725
0.0766292
0.0934804
0.109906
0.125611
0.140407
0.154173
0.166782
0.178217
0.188896
0.198382
0.206568
0.213399
0.218843
0.22293
0.225784
0.227627
0.228731
0.22935
0.229679
0.229846
0.229927
0.229966
0.229985
0.229993
0.229997
0.229999
0.229999
0.23
0.23
0.23
0.23
0.23
0.23
0.23
0.23
0.23
4.23062e-11
1.84913e-10
4.24872e-10
8.27333e-10
1.49908e-09
2.6131e-09
4.44583e-09
7.43208e-09
1.22433e-08
1.98945e-08
3.1882e-08
5.03474e-08
7.82484e-08
1.19496e-07
1.78993e-07
2.6249e-07
3.76195e-07
5.26141e-07
7.17416e-07
9.53472e-07
1.2357e-06
1.5634e-06
1.93398e-06
2.34345e-06
2.78686e-06
3.25867e-06
3.75309e-06
4.26436e-06
4.78687e-06
5.31536e-06
5.84504e-06
6.37177e-06
6.89236e-06
7.40507e-06
7.91062e-06
8.41364e-06
8.92479e-06
9.46388e-06
1.00641e-05
1.07774e-05
1.16824e-05
1.28962e-05
1.45959e-05
1.70551e-05
2.07117e-05
2.62893e-05
3.50111e-05
4.89645e-05
7.16916e-05
0.0001091
0.000170846
0.000272445
0.000438556
0.000708087
0.00114213
0.00183631
0.00290414
0.00464649
0.00739285
0.0117296
0.0186131
0.0296507
0.0441808
0.0604221
0.0773
0.0941512
0.110562
0.12624
0.141002
0.154727
0.167285
0.178679
0.189338
0.198767
0.206893
0.213663
0.219046
0.223076
0.225881
0.227686
0.228765
0.229369
0.229689
0.22985
0.22993
0.229967
0.229985
0.229993
0.229997
0.229999
0.229999
0.23
0.23
0.23
0.23
0.23
0.23
0.23
0.23
0.23
4.223e-11
1.84581e-10
4.2411e-10
8.2585e-10
1.49639e-09
2.60843e-09
4.43793e-09
7.41898e-09
1.2222e-08
1.98605e-08
3.18291e-08
5.0267e-08
7.81298e-08
1.19327e-07
1.78761e-07
2.62187e-07
3.75823e-07
5.25716e-07
7.16977e-07
9.53085e-07
1.23546e-06
1.56342e-06
1.93441e-06
2.34446e-06
2.78862e-06
3.26137e-06
3.75694e-06
4.26955e-06
4.79361e-06
5.32385e-06
5.85547e-06
6.38433e-06
6.90722e-06
7.42241e-06
7.93057e-06
8.43659e-06
8.95093e-06
9.49359e-06
1.00981e-05
1.08167e-05
1.17289e-05
1.29531e-05
1.46681e-05
1.7151e-05
2.08454e-05
2.64848e-05
3.531e-05
4.94384e-05
7.2463e-05
0.000110374
0.000172956
0.000275929
0.000444274
0.000717401
0.0011572
0.00186052
0.00294233
0.00470694
0.00748813
0.0118799
0.0188516
0.0300327
0.0446434
0.0609264
0.0778213
0.094673
0.111073
0.126731
0.141466
0.155159
0.167678
0.179042
0.189676
0.199062
0.207143
0.213866
0.219202
0.223188
0.225955
0.227732
0.228791
0.229383
0.229696
0.229854
0.229931
0.229968
0.229986
0.229994
0.229997
0.229999
0.229999
0.23
0.23
0.23
0.23
0.23
0.23
0.23
0.23
0.23
4.21746e-11
1.84339e-10
4.23555e-10
8.2477e-10
1.49444e-09
2.60504e-09
4.43219e-09
7.40947e-09
1.22066e-08
1.98359e-08
3.17908e-08
5.0209e-08
7.80444e-08
1.19206e-07
1.78596e-07
2.61972e-07
3.7556e-07
5.25419e-07
7.16675e-07
9.52827e-07
1.23532e-06
1.56348e-06
1.93478e-06
2.34526e-06
2.78999e-06
3.26344e-06
3.75986e-06
4.27347e-06
4.79867e-06
5.33021e-06
5.86328e-06
6.39372e-06
6.91834e-06
7.4354e-06
7.94563e-06
8.45367e-06
8.97028e-06
9.51555e-06
1.01231e-05
1.08458e-05
1.17633e-05
1.29952e-05
1.47217e-05
1.72222e-05
2.09448e-05
2.66302e-05
3.55323e-05
4.97912e-05
7.30373e-05
0.000111322
0.000174527
0.000278523
0.000448524
0.000724306
0.00116832
0.0018783
0.00297014
0.00475103
0.00755762
0.0119894
0.0190254
0.0303117
0.0449816
0.0612954
0.0782029
0.0950552
0.111448
0.127091
0.141807
0.155477
0.167968
0.179311
0.189919
0.199275
0.207325
0.214014
0.219316
0.223269
0.226009
0.227765
0.22881
0.229393
0.229701
0.229856
0.229932
0.229969
0.229986
0.229994
0.229997
0.229999
0.229999
0.23
0.23
0.23
0.23
0.23
0.23
0.23
0.23
0.23
4.21385e-11
1.84181e-10
4.23193e-10
8.24068e-10
1.49317e-09
2.60283e-09
4.42846e-09
7.4033e-09
1.21965e-08
1.982e-08
3.17661e-08
5.01716e-08
7.79894e-08
1.19127e-07
1.78489e-07
2.61835e-07
3.75393e-07
5.25231e-07
7.16487e-07
9.5267e-07
1.23524e-06
1.56354e-06
1.93505e-06
2.34582e-06
2.79092e-06
3.26484e-06
3.76182e-06
4.27608e-06
4.80204e-06
5.33443e-06
5.86844e-06
6.39992e-06
6.92566e-06
7.44393e-06
7.95546e-06
8.46489e-06
8.98302e-06
9.53001e-06
1.01397e-05
1.0865e-05
1.17861e-05
1.3023e-05
1.47571e-05
1.72694e-05
2.10106e-05
2.67265e-05
3.56796e-05
5.00249e-05
7.34177e-05
0.000111949
0.000175565
0.000280235
0.000451326
0.000728851
0.00117563
0.00188997
0.00298838
0.00477993
0.00760321
0.0120613
0.0191396
0.0304945
0.0452029
0.061537
0.0784528
0.0953055
0.111693
0.127327
0.14203
0.155685
0.168157
0.179486
0.190077
0.199414
0.207442
0.214109
0.219389
0.223321
0.226044
0.227787
0.228822
0.229399
0.229704
0.229858
0.229933
0.229969
0.229986
0.229994
0.229997
0.229999
0.229999
0.23
0.23
0.23
0.23
0.23
0.23
0.23
0.23
0.23
4.2121e-11
1.84105e-10
4.23018e-10
8.23728e-10
1.49256e-09
2.60177e-09
4.42667e-09
7.40035e-09
1.21918e-08
1.98125e-08
3.17544e-08
5.01539e-08
7.79634e-08
1.19091e-07
1.78439e-07
2.6177e-07
3.75314e-07
5.25143e-07
7.16399e-07
9.52599e-07
1.23521e-06
1.56357e-06
1.93518e-06
2.34609e-06
2.79137e-06
3.26552e-06
3.76277e-06
4.27736e-06
4.80369e-06
5.33649e-06
5.87097e-06
6.40295e-06
6.92924e-06
7.44811e-06
7.96027e-06
8.47037e-06
8.98924e-06
9.53708e-06
1.01477e-05
1.08743e-05
1.17972e-05
1.30367e-05
1.47745e-05
1.72925e-05
2.1043e-05
2.6774e-05
3.57522e-05
5.01401e-05
7.36051e-05
0.000112258
0.000176076
0.000281077
0.000452704
0.000731088
0.00117923
0.00189571
0.00299735
0.00479414
0.00762562
0.0120967
0.0191957
0.0305843
0.0453116
0.0616554
0.0785753
0.0954282
0.111813
0.127442
0.142139
0.155786
0.168249
0.179572
0.190153
0.19948
0.207498
0.214154
0.219424
0.223346
0.22606
0.227797
0.228828
0.229403
0.229706
0.229859
0.229934
0.229969
0.229986
0.229994
0.229997
0.229999
0.229999
0.23
0.23
0.23
0.23
0.23
0.23
0.23
0.23
0.23
4.21209e-11
1.84104e-10
4.23017e-10
8.23727e-10
1.49256e-09
2.60177e-09
4.42667e-09
7.40034e-09
1.21918e-08
1.98124e-08
3.17543e-08
5.01538e-08
7.79633e-08
1.1909e-07
1.78439e-07
2.6177e-07
3.75314e-07
5.25143e-07
7.16399e-07
9.52598e-07
1.2352e-06
1.56357e-06
1.93518e-06
2.34609e-06
2.79137e-06
3.26552e-06
3.76277e-06
4.27736e-06
4.80369e-06
5.33649e-06
5.87096e-06
6.40295e-06
6.92924e-06
7.44811e-06
7.96026e-06
8.47037e-06
8.98924e-06
9.53708e-06
1.01477e-05
1.08743e-05
1.17972e-05
1.30367e-05
1.47745e-05
1.72926e-05
2.1043e-05
2.6774e-05
3.57522e-05
5.01401e-05
7.36051e-05
0.000112258
0.000176076
0.000281077
0.000452704
0.000731088
0.00117923
0.00189571
0.00299735
0.00479415
0.00762562
0.0120967
0.0191957
0.0305843
0.0453116
0.0616555
0.0785753
0.0954282
0.111813
0.127442
0.142139
0.155786
0.168249
0.179572
0.190153
0.19948
0.207498
0.214154
0.219424
0.223346
0.22606
0.227797
0.228828
0.229403
0.229706
0.229859
0.229934
0.229969
0.229986
0.229994
0.229997
0.229999
0.229999
0.23
0.23
0.23
0.23
0.23
0.23
0.23
0.23
0.23
4.21383e-11
1.8418e-10
4.23191e-10
8.24064e-10
1.49316e-09
2.60282e-09
4.42844e-09
7.40327e-09
1.21965e-08
1.98199e-08
3.1766e-08
5.01713e-08
7.79891e-08
1.19127e-07
1.78489e-07
2.61834e-07
3.75392e-07
5.25229e-07
7.16485e-07
9.52668e-07
1.23524e-06
1.56353e-06
1.93504e-06
2.34581e-06
2.79091e-06
3.26483e-06
3.76181e-06
4.27608e-06
4.80204e-06
5.33442e-06
5.86843e-06
6.39991e-06
6.92565e-06
7.44392e-06
7.95546e-06
8.46489e-06
8.98301e-06
9.53001e-06
1.01397e-05
1.08649e-05
1.17861e-05
1.3023e-05
1.47571e-05
1.72694e-05
2.10106e-05
2.67265e-05
3.56797e-05
5.00249e-05
7.34177e-05
0.000111949
0.000175565
0.000280235
0.000451326
0.000728852
0.00117563
0.00188997
0.00298838
0.00477993
0.00760321
0.0120614
0.0191396
0.0304945
0.0452029
0.061537
0.0784528
0.0953056
0.111693
0.127327
0.14203
0.155685
0.168157
0.179486
0.190077
0.199414
0.207442
0.214109
0.219389
0.223321
0.226044
0.227787
0.228822
0.229399
0.229704
0.229858
0.229933
0.229969
0.229986
0.229994
0.229997
0.229999
0.229999
0.23
0.23
0.23
0.23
0.23
0.23
0.23
0.23
0.23
4.21742e-11
1.84337e-10
4.23551e-10
8.24763e-10
1.49443e-09
2.60501e-09
4.43215e-09
7.4094e-09
1.22064e-08
1.98358e-08
3.17905e-08
5.02086e-08
7.80438e-08
1.19205e-07
1.78594e-07
2.6197e-07
3.75558e-07
5.25416e-07
7.16672e-07
9.52823e-07
1.23531e-06
1.56347e-06
1.93477e-06
2.34526e-06
2.78998e-06
3.26344e-06
3.75985e-06
4.27346e-06
4.79867e-06
5.3302e-06
5.86326e-06
6.39371e-06
6.91832e-06
7.43538e-06
7.94561e-06
8.45366e-06
8.97027e-06
9.51554e-06
1.01231e-05
1.08458e-05
1.17633e-05
1.29952e-05
1.47217e-05
1.72222e-05
2.09448e-05
2.66302e-05
3.55323e-05
4.97912e-05
7.30374e-05
0.000111322
0.000174527
0.000278524
0.000448526
0.000724308
0.00116832
0.0018783
0.00297015
0.00475104
0.00755763
0.0119894
0.0190254
0.0303118
0.0449816
0.0612955
0.078203
0.0950553
0.111448
0.127091
0.141807
0.155477
0.167968
0.179311
0.189919
0.199275
0.207325
0.214014
0.219316
0.223269
0.226009
0.227765
0.22881
0.229393
0.229701
0.229856
0.229932
0.229969
0.229986
0.229994
0.229997
0.229999
0.229999
0.23
0.23
0.23
0.23
0.23
0.23
0.23
0.23
0.23
4.22295e-11
1.84578e-10
4.24104e-10
8.25839e-10
1.49638e-09
2.6084e-09
4.43787e-09
7.41889e-09
1.22218e-08
1.98603e-08
3.18287e-08
5.02664e-08
7.81289e-08
1.19326e-07
1.7876e-07
2.62185e-07
3.7582e-07
5.25712e-07
7.16973e-07
9.53079e-07
1.23545e-06
1.56341e-06
1.9344e-06
2.34445e-06
2.78861e-06
3.26136e-06
3.75693e-06
4.26954e-06
4.79359e-06
5.32383e-06
5.85546e-06
6.38432e-06
6.9072e-06
7.42239e-06
7.93056e-06
8.43657e-06
8.95091e-06
9.49358e-06
1.0098e-05
1.08167e-05
1.17289e-05
1.29531e-05
1.46681e-05
1.7151e-05
2.08454e-05
2.64847e-05
3.53098e-05
4.94382e-05
7.24628e-05
0.000110374
0.000172956
0.000275931
0.000444277
0.000717404
0.0011572
0.00186053
0.00294235
0.00470696
0.00748814
0.0118799
0.0188517
0.0300328
0.0446435
0.0609265
0.0778213
0.094673
0.111073
0.126731
0.141466
0.155159
0.167678
0.179042
0.189676
0.199062
0.207143
0.213866
0.219203
0.223188
0.225955
0.227732
0.228791
0.229383
0.229696
0.229854
0.229931
0.229968
0.229986
0.229994
0.229997
0.229999
0.229999
0.23
0.23
0.23
0.23
0.23
0.23
0.23
0.23
0.23
4.23055e-11
1.8491e-10
4.24865e-10
8.2732e-10
1.49905e-09
2.61305e-09
4.44576e-09
7.43196e-09
1.22431e-08
1.98942e-08
3.18815e-08
5.03466e-08
7.82473e-08
1.19495e-07
1.78991e-07
2.62487e-07
3.76191e-07
5.26136e-07
7.1741e-07
9.53465e-07
1.2357e-06
1.56339e-06
1.93397e-06
2.34344e-06
2.78685e-06
3.25865e-06
3.75308e-06
4.26434e-06
4.78685e-06
5.31534e-06
5.84502e-06
6.37175e-06
6.89233e-06
7.40505e-06
7.9106e-06
8.41362e-06
8.92477e-06
9.46386e-06
1.00641e-05
1.07774e-05
1.16824e-05
1.28962e-05
1.45959e-05
1.70551e-05
2.07118e-05
2.62896e-05
3.50116e-05
4.89653e-05
7.16927e-05
0.000109102
0.000170847
0.000272444
0.00043855
0.000708077
0.00114213
0.00183637
0.00290444
0.00464668
0.00739286
0.0117296
0.0186131
0.0296507
0.0441809
0.0604222
0.0773001
0.0941513
0.110562
0.126241
0.141002
0.154727
0.167286
0.178679
0.189338
0.198767
0.206893
0.213663
0.219046
0.223076
0.225881
0.227686
0.228765
0.229369
0.229689
0.22985
0.22993
0.229967
0.229985
0.229993
0.229997
0.229999
0.229999
0.23
0.23
0.23
0.23
0.23
0.23
0.23
0.23
0.23
4.24038e-11
1.85339e-10
4.25851e-10
8.29238e-10
1.50253e-09
2.6191e-09
4.456e-09
7.44898e-09
1.22708e-08
1.99384e-08
3.19505e-08
5.04519e-08
7.8403e-08
1.19717e-07
1.79297e-07
2.62888e-07
3.76688e-07
5.2671e-07
7.18014e-07
9.54018e-07
1.23608e-06
1.56345e-06
1.93352e-06
2.34229e-06
2.78475e-06
3.25537e-06
3.74835e-06
4.25791e-06
4.77845e-06
5.30471e-06
5.8319e-06
6.35589e-06
6.87348e-06
7.38295e-06
7.88498e-06
8.38395e-06
8.89118e-06
9.4258e-06
1.00207e-05
1.07272e-05
1.1623e-05
1.28239e-05
1.45043e-05
1.69339e-05
2.05435e-05
2.60441e-05
3.46374e-05
4.83727e-05
7.07285e-05
0.000107509
0.000168205
0.000268072
0.00043136
0.00069634
0.00112311
0.00180573
0.00285608
0.00456949
0.00726972
0.0115355
0.0183054
0.0291577
0.0435847
0.0597728
0.0766295
0.0934806
0.109906
0.125611
0.140407
0.154173
0.166782
0.178218
0.188896
0.198382
0.206568
0.213399
0.218843
0.22293
0.225784
0.227627
0.228731
0.22935
0.229679
0.229846
0.229927
0.229966
0.229985
0.229993
0.229997
0.229999
0.229999
0.23
0.23
0.23
0.23
0.23
0.23
0.23
0.23
0.23
4.25264e-11
1.85875e-10
4.27081e-10
8.31633e-10
1.50687e-09
2.62666e-09
4.46884e-09
7.47033e-09
1.23057e-08
1.99941e-08
3.20378e-08
5.05851e-08
7.86008e-08
1.20001e-07
1.7969e-07
2.63406e-07
3.77336e-07
5.27466e-07
7.18825e-07
9.54787e-07
1.23666e-06
1.56366e-06
1.93315e-06
2.34106e-06
2.78239e-06
3.25157e-06
3.7428e-06
4.25028e-06
4.76841e-06
5.29194e-06
5.81607e-06
6.33668e-06
6.85058e-06
7.35607e-06
7.85382e-06
8.34824e-06
8.84973e-06
9.37881e-06
9.967e-06
1.06651e-05
1.15497e-05
1.27347e-05
1.43917e-05
1.67853e-05
2.0338e-05
2.5746e-05
3.41849e-05
4.76591e-05
6.9571e-05
0.000105601
0.000165042
0.000262839
0.000422742
0.000682231
0.00110014
0.00176848
0.00279669
0.00447218
0.00711753
0.0112956
0.0179242
0.0285454
0.0428452
0.0589682
0.0757992
0.0926504
0.109093
0.124831
0.139669
0.153486
0.166156
0.177646
0.188349
0.197905
0.206164
0.213071
0.218591
0.222748
0.225663
0.227553
0.228689
0.229328
0.229668
0.22984
0.229925
0.229965
0.229984
0.229993
0.229997
0.229999
0.229999
0.23
0.23
0.23
0.23
0.23
0.23
0.23
0.23
0.23
4.26753e-11
1.86525e-10
4.28575e-10
8.34545e-10
1.51215e-09
2.63588e-09
4.48452e-09
7.49645e-09
1.23484e-08
2.00626e-08
3.21453e-08
5.07497e-08
7.88461e-08
1.20355e-07
1.80181e-07
2.64059e-07
3.78158e-07
5.28439e-07
7.19887e-07
9.55829e-07
1.23752e-06
1.56411e-06
1.93292e-06
2.33985e-06
2.77986e-06
3.24735e-06
3.7365e-06
4.24151e-06
4.75676e-06
5.27701e-06
5.79746e-06
6.31399e-06
6.82345e-06
7.32411e-06
7.81667e-06
8.3056e-06
8.80088e-06
9.32251e-06
9.90221e-06
1.05899e-05
1.14606e-05
1.26263e-05
1.42548e-05
1.66051e-05
2.00897e-05
2.53876e-05
3.36446e-05
4.68143e-05
6.82149e-05
0.000103392
0.000161432
0.000256964
0.000413269
0.000667116
0.00107629
0.00173124
0.00274295
0.00433874
0.00692777
0.0110056
0.0174681
0.0278149
0.0419611
0.0580042
0.0748021
0.0916515
0.108114
0.12389
0.138778
0.152655
0.165398
0.176954
0.187689
0.197328
0.205675
0.212673
0.218283
0.222527
0.225515
0.227462
0.228637
0.229299
0.229653
0.229833
0.229921
0.229964
0.229983
0.229993
0.229997
0.229999
0.229999
0.23
0.23
0.23
0.23
0.23
0.23
0.23
0.23
0.23
4.28521e-11
1.87298e-10
4.30352e-10
8.3801e-10
1.51844e-09
2.64688e-09
4.50326e-09
7.52773e-09
1.23996e-08
2.0145e-08
3.22751e-08
5.09493e-08
7.91447e-08
1.20788e-07
1.80785e-07
2.64867e-07
3.79185e-07
5.29668e-07
7.21254e-07
9.57209e-07
1.23872e-06
1.56489e-06
1.93296e-06
2.33877e-06
2.77727e-06