/*--------------------------------*- C++ -*----------------------------------*\
  =========                 |
  \\      /  F ield         | OpenFOAM: The Open Source CFD Toolbox
   \\    /   O peration     | Website:  https://openfoam.org
    \\  /    A nd           | Version:  8
     \\/     M anipulation  |
\*---------------------------------------------------------------------------*/
FoamFile
{
    version     2.0;
    format      ascii;
    class       surfaceScalarField;
    location    "0.35/fluid";
    object      phi;
}
// * * * * * * * * * * * * * * * * * * * * * * * * * * * * * * * * * * * * * //

dimensions      [1 0 -1 0 0 0 0];

internalField   nonuniform List<scalar> 
7860
(
6.5719e-07
-1.77788e-08
6.54344e-07
-5.34692e-08
6.5025e-07
-8.90118e-08
6.44837e-07
-1.24242e-07
6.3799e-07
-1.59158e-07
6.29556e-07
-1.93716e-07
6.19353e-07
-2.2783e-07
6.07184e-07
-2.61378e-07
5.92848e-07
-2.94193e-07
5.76161e-07
-3.26057e-07
5.57e-07
-3.56697e-07
5.35383e-07
-3.85768e-07
5.11353e-07
-4.12813e-07
4.85032e-07
-4.37269e-07
4.56647e-07
-4.58492e-07
4.26542e-07
-4.75826e-07
3.95168e-07
-4.88728e-07
3.63044e-07
-4.96914e-07
3.30699e-07
-5.0048e-07
2.9861e-07
-4.99913e-07
2.67158e-07
-4.95995e-07
2.36611e-07
-4.89628e-07
2.07126e-07
-4.81663e-07
1.78781e-07
-4.72792e-07
1.51609e-07
-4.63508e-07
1.25646e-07
-4.54123e-07
1.00873e-07
-4.44792e-07
7.7235e-08
-4.35581e-07
5.46635e-08
-4.26497e-07
3.30911e-08
-4.17512e-07
1.24682e-08
-4.08598e-07
-7.2486e-09
-3.99724e-07
-2.60955e-08
-3.90873e-07
-4.41038e-08
-3.82033e-07
-6.13012e-08
-3.73208e-07
-7.77093e-08
-3.64385e-07
-9.3346e-08
-3.55524e-07
-1.08229e-07
-3.46639e-07
-1.22376e-07
-3.37749e-07
-1.35805e-07
-3.28875e-07
-1.48532e-07
-3.20043e-07
-1.60577e-07
-3.11276e-07
-1.71958e-07
-3.02603e-07
-1.82694e-07
-2.94048e-07
-1.92803e-07
-2.8564e-07
-2.02306e-07
-2.77404e-07
-2.11221e-07
-2.69365e-07
-2.19567e-07
-2.6155e-07
-2.27365e-07
-2.53983e-07
-2.34634e-07
-2.46688e-07
-2.41394e-07
-2.39692e-07
-2.47666e-07
-2.33021e-07
-2.53473e-07
-2.26708e-07
-2.58842e-07
-2.20787e-07
-2.63805e-07
-2.15304e-07
-2.68403e-07
-2.10317e-07
-2.72692e-07
-2.05903e-07
-2.76741e-07
-2.02198e-07
-2.80648e-07
-1.99323e-07
-2.84547e-07
-1.97441e-07
-2.8865e-07
-1.9694e-07
-2.93273e-07
-1.98343e-07
-2.98767e-07
-2.02575e-07
-3.05336e-07
-2.10618e-07
-3.12945e-07
-2.21381e-07
-3.21557e-07
-2.34335e-07
-3.31193e-07
-2.49277e-07
-3.41936e-07
-2.66196e-07
-3.53924e-07
-2.85218e-07
-3.67364e-07
-3.0658e-07
-3.82541e-07
-3.30619e-07
-3.99843e-07
-3.57763e-07
-4.19782e-07
-3.88522e-07
-4.43011e-07
-4.23578e-07
-4.70314e-07
-4.63562e-07
-5.02504e-07
-5.08612e-07
-5.4012e-07
-5.57784e-07
-5.83346e-07
-6.08228e-07
-6.32042e-07
-6.54572e-07
-6.85334e-07
-6.89768e-07
-7.41353e-07
-7.08102e-07
-7.97521e-07
-7.0831e-07
-8.51407e-07
-6.93471e-07
-9.01369e-07
-6.68198e-07
-9.46644e-07
-6.36488e-07
-9.87026e-07
-6.00994e-07
-1.02257e-06
-5.63215e-07
-1.05342e-06
-5.23964e-07
-1.07961e-06
-4.83695e-07
-1.10166e-06
-4.4262e-07
-1.12007e-06
-4.00974e-07
-1.13531e-06
-3.58958e-07
-1.1478e-06
-3.16733e-07
-1.15793e-06
-2.7442e-07
-1.16601e-06
-2.32101e-07
-1.17234e-06
-1.89824e-07
-1.17715e-06
-1.47602e-07
-1.18061e-06
-1.05417e-07
-1.18287e-06
-6.32104e-08
-2.10394e-08
6.57966e-07
-1.72111e-08
6.55836e-07
-5.1339e-08
6.52026e-07
-8.5202e-08
6.46563e-07
-1.18778e-07
6.39396e-07
-1.51991e-07
6.3044e-07
-1.8476e-07
6.19593e-07
-2.16982e-07
6.06748e-07
-2.48532e-07
5.91808e-07
-2.79252e-07
5.74701e-07
-3.08949e-07
5.55398e-07
-3.37392e-07
5.33937e-07
-3.64305e-07
5.10395e-07
-3.89267e-07
4.84907e-07
-4.11776e-07
4.57687e-07
-4.31265e-07
4.29031e-07
-4.4716e-07
3.99308e-07
-4.58992e-07
3.68934e-07
-4.66526e-07
3.38328e-07
-4.69859e-07
3.0787e-07
-4.69438e-07
2.77863e-07
-4.65972e-07
2.48528e-07
-4.60276e-07
2.20001e-07
-4.53121e-07
1.92357e-07
-4.45134e-07
1.6563e-07
-4.36768e-07
1.39846e-07
-4.28327e-07
1.15011e-07
-4.19947e-07
9.11126e-08
-4.11674e-07
6.81226e-08
-4.03499e-07
4.60196e-08
-3.95402e-07
2.47866e-08
-3.87358e-07
4.40681e-09
-3.79339e-07
-1.51379e-08
-3.71323e-07
-3.38623e-08
-3.63304e-07
-5.17838e-08
-3.55283e-07
-6.8915e-08
-3.4725e-07
-8.52687e-08
-3.39168e-07
-1.00859e-07
-3.31046e-07
-1.15701e-07
-3.22904e-07
-1.29812e-07
-3.14763e-07
-1.43207e-07
-3.06645e-07
-1.55907e-07
-2.98575e-07
-1.67929e-07
-2.90579e-07
-1.79294e-07
-2.82682e-07
-1.90023e-07
-2.7491e-07
-2.00136e-07
-2.67289e-07
-2.09656e-07
-2.59844e-07
-2.18606e-07
-2.526e-07
-2.27008e-07
-2.4558e-07
-2.34887e-07
-2.38808e-07
-2.4227e-07
-2.32309e-07
-2.49184e-07
-2.26107e-07
-2.55662e-07
-2.2023e-07
-2.6174e-07
-2.14708e-07
-2.67465e-07
-2.0958e-07
-2.72891e-07
-2.04891e-07
-2.7809e-07
-2.00704e-07
-2.83141e-07
-1.97147e-07
-2.88166e-07
-1.94298e-07
-2.93302e-07
-1.92306e-07
-2.98718e-07
-1.91524e-07
-3.04564e-07
-1.92501e-07
-3.10928e-07
-1.96215e-07
-3.18127e-07
-2.03426e-07
-3.26314e-07
-2.13202e-07
-3.35568e-07
-2.25089e-07
-3.45962e-07
-2.38892e-07
-3.57592e-07
-2.54577e-07
-3.70591e-07
-2.72233e-07
-3.85136e-07
-2.92052e-07
-4.01455e-07
-3.14319e-07
-4.19836e-07
-3.39406e-07
-4.40619e-07
-3.67768e-07
-4.64187e-07
-4.00046e-07
-4.90994e-07
-4.36798e-07
-5.21535e-07
-4.78123e-07
-5.56234e-07
-5.23145e-07
-5.95402e-07
-5.69126e-07
-6.39121e-07
-6.10918e-07
-6.86821e-07
-6.42126e-07
-7.37018e-07
-6.57948e-07
-7.87663e-07
-6.57693e-07
-8.36862e-07
-6.44288e-07
-8.83306e-07
-6.21762e-07
-9.26314e-07
-5.93483e-07
-9.65624e-07
-5.61686e-07
-1.00119e-06
-5.27649e-07
-1.03304e-06
-4.92111e-07
-1.06119e-06
-4.55547e-07
-1.08577e-06
-4.18041e-07
-1.10698e-06
-3.79768e-07
-1.12504e-06
-3.40896e-07
-1.1402e-06
-3.01567e-07
-1.15273e-06
-2.61896e-07
-1.16285e-06
-2.21977e-07
-1.1708e-06
-1.81879e-07
-1.17675e-06
-1.41651e-07
-1.18084e-06
-1.01322e-07
-1.18315e-06
-6.09083e-08
-2.03649e-08
6.57573e-07
-1.625e-08
6.54827e-07
-4.85933e-08
6.50315e-07
-8.06901e-08
6.44e-07
-1.12463e-07
6.35847e-07
-1.43838e-07
6.25815e-07
-1.74728e-07
6.13868e-07
-2.05036e-07
5.99984e-07
-2.34647e-07
5.84159e-07
-2.63426e-07
5.66411e-07
-2.912e-07
5.46776e-07
-3.17755e-07
5.25282e-07
-3.42808e-07
5.02017e-07
-3.65999e-07
4.77131e-07
-3.86885e-07
4.50836e-07
-4.04962e-07
4.23406e-07
-4.1972e-07
3.95166e-07
-4.3074e-07
3.66463e-07
-4.3781e-07
3.37638e-07
-4.41017e-07
3.08984e-07
-4.40768e-07
2.80736e-07
-4.37707e-07
2.53056e-07
-4.32581e-07
2.26048e-07
-4.26098e-07
1.99768e-07
-4.18839e-07
1.74234e-07
-4.11221e-07
1.49427e-07
-4.03509e-07
1.25339e-07
-3.95848e-07
1.01963e-07
-3.88288e-07
7.93021e-08
-3.8083e-07
5.73674e-08
-3.7346e-07
3.61623e-08
-3.66147e-07
1.56895e-08
-3.5886e-07
-4.05018e-09
-3.51578e-07
-2.30601e-08
-3.4429e-07
-4.13438e-08
-3.36995e-07
-5.89041e-08
-3.29686e-07
-7.57447e-08
-3.22324e-07
-9.18727e-08
-3.14915e-07
-1.07297e-07
-3.07477e-07
-1.2203e-07
-3.00028e-07
-1.36083e-07
-2.9259e-07
-1.49471e-07
-2.85185e-07
-1.62212e-07
-2.77836e-07
-1.74324e-07
-2.70569e-07
-1.85827e-07
-2.63406e-07
-1.96744e-07
-2.56372e-07
-2.07096e-07
-2.49491e-07
-2.16911e-07
-2.42785e-07
-2.26214e-07
-2.36275e-07
-2.35037e-07
-2.29985e-07
-2.43413e-07
-2.23933e-07
-2.51377e-07
-2.18143e-07
-2.5897e-07
-2.12636e-07
-2.66241e-07
-2.07438e-07
-2.73241e-07
-2.02579e-07
-2.80033e-07
-1.98099e-07
-2.86687e-07
-1.9405e-07
-2.93275e-07
-1.90559e-07
-2.99914e-07
-1.8766e-07
-3.0667e-07
-1.8555e-07
-3.13633e-07
-1.84563e-07
-3.20875e-07
-1.8526e-07
-3.28381e-07
-1.88714e-07
-3.36492e-07
-1.95321e-07
-3.45425e-07
-2.04275e-07
-3.55334e-07
-2.1519e-07
-3.6634e-07
-2.27896e-07
-3.78563e-07
-2.42366e-07
-3.92124e-07
-2.58686e-07
-4.07155e-07
-2.77038e-07
-4.23798e-07
-2.97696e-07
-4.42208e-07
-3.21022e-07
-4.62528e-07
-3.47478e-07
-4.84898e-07
-3.77712e-07
-5.09513e-07
-4.12228e-07
-5.3668e-07
-4.5101e-07
-5.66947e-07
-4.9294e-07
-6.01032e-07
-5.35109e-07
-6.39446e-07
-5.72568e-07
-6.82043e-07
-5.99584e-07
-7.27675e-07
-6.12356e-07
-7.74513e-07
-6.10882e-07
-8.2076e-07
-5.98057e-07
-8.65104e-07
-5.77426e-07
-9.06781e-07
-5.5181e-07
-9.45419e-07
-5.2305e-07
-9.80883e-07
-4.92186e-07
-1.01319e-06
-4.59808e-07
-1.04247e-06
-4.26268e-07
-1.06872e-06
-3.91785e-07
-1.09198e-06
-3.56511e-07
-1.11231e-06
-3.20568e-07
-1.12981e-06
-2.84062e-07
-1.14462e-06
-2.47088e-07
-1.15687e-06
-2.09728e-07
-1.16669e-06
-1.72055e-07
-1.17421e-06
-1.3413e-07
-1.17953e-06
-9.60022e-08
-1.18273e-06
-5.77093e-08
-1.92746e-08
6.57623e-07
-1.5339e-08
6.54854e-07
-4.58244e-08
6.5022e-07
-7.60566e-08
6.43722e-07
-1.05965e-07
6.35351e-07
-1.35467e-07
6.25101e-07
-1.64478e-07
6.12967e-07
-1.92901e-07
5.9895e-07
-2.2063e-07
5.83061e-07
-2.47536e-07
5.65327e-07
-2.73464e-07
5.4579e-07
-2.98216e-07
5.24523e-07
-3.21538e-07
5.01634e-07
-3.43106e-07
4.77277e-07
-3.62522e-07
4.51653e-07
-3.79331e-07
4.25013e-07
-3.93071e-07
3.97645e-07
-4.0336e-07
3.69853e-07
-4.10004e-07
3.41932e-07
-4.13081e-07
3.1414e-07
-4.1296e-07
2.86682e-07
-4.10232e-07
2.59701e-07
-4.05584e-07
2.33293e-07
-3.99675e-07
2.07511e-07
-3.93043e-07
1.82382e-07
-3.86079e-07
1.57914e-07
-3.7903e-07
1.34106e-07
-3.7203e-07
1.10953e-07
-3.65125e-07
8.84581e-08
-3.58327e-07
6.6621e-08
-3.51616e-07
4.54419e-08
-3.44961e-07
2.49219e-08
-3.38334e-07
5.0618e-09
-3.31713e-07
-1.41386e-08
-3.25085e-07
-3.26808e-08
-3.18449e-07
-5.0565e-08
-3.11799e-07
-6.77917e-08
-3.05094e-07
-8.43645e-08
-2.9834e-07
-1.00289e-07
-2.9155e-07
-1.15574e-07
-2.84742e-07
-1.30228e-07
-2.77934e-07
-1.44265e-07
-2.71146e-07
-1.577e-07
-2.644e-07
-1.7055e-07
-2.57718e-07
-1.82834e-07
-2.51121e-07
-1.94573e-07
-2.44632e-07
-2.05791e-07
-2.38271e-07
-2.16515e-07
-2.3206e-07
-2.26774e-07
-2.26016e-07
-2.36599e-07
-2.20159e-07
-2.46026e-07
-2.14506e-07
-2.55093e-07
-2.09076e-07
-2.63842e-07
-2.03886e-07
-2.7232e-07
-1.9896e-07
-2.80577e-07
-1.94321e-07
-2.88671e-07
-1.90006e-07
-2.96659e-07
-1.86062e-07
-3.046e-07
-1.82619e-07
-3.12583e-07
-1.79678e-07
-3.20649e-07
-1.77484e-07
-3.28849e-07
-1.76364e-07
-3.37213e-07
-1.76899e-07
-3.45691e-07
-1.80241e-07
-3.54627e-07
-1.86392e-07
-3.64249e-07
-1.94661e-07
-3.74726e-07
-2.04722e-07
-3.86194e-07
-2.16439e-07
-3.98771e-07
-2.29802e-07
-4.12569e-07
-2.44903e-07
-4.27699e-07
-2.61926e-07
-4.44277e-07
-2.81141e-07
-4.62425e-07
-3.02899e-07
-4.82266e-07
-3.2767e-07
-5.03955e-07
-3.56062e-07
-5.27738e-07
-3.88493e-07
-5.53993e-07
-4.2481e-07
-5.83246e-07
-4.63751e-07
-6.16082e-07
-5.0234e-07
-6.52864e-07
-5.3585e-07
-6.93313e-07
-5.59188e-07
-7.36326e-07
-5.69381e-07
-7.80336e-07
-5.66896e-07
-8.23878e-07
-5.54529e-07
-8.65891e-07
-5.3542e-07
-9.05724e-07
-5.11981e-07
-9.43013e-07
-4.85762e-07
-9.77571e-07
-4.57628e-07
-1.00932e-06
-4.2806e-07
-1.03825e-06
-3.9734e-07
-1.06438e-06
-3.65651e-07
-1.08776e-06
-3.33128e-07
-1.10845e-06
-2.99886e-07
-1.12648e-06
-2.66024e-07
-1.14194e-06
-2.31629e-07
-1.15489e-06
-1.96784e-07
-1.16538e-06
-1.61562e-07
-1.17348e-06
-1.2603e-07
-1.17923e-06
-9.02472e-08
-1.18268e-06
-5.42674e-08
-1.81302e-08
6.57554e-07
-1.43594e-08
6.54646e-07
-4.2916e-08
6.49823e-07
-7.12336e-08
6.43092e-07
-9.92335e-08
6.34461e-07
-1.26836e-07
6.23941e-07
-1.53958e-07
6.11549e-07
-1.80509e-07
5.97309e-07
-2.06389e-07
5.81256e-07
-2.31482e-07
5.63438e-07
-2.55645e-07
5.43924e-07
-2.78699e-07
5.22802e-07
-3.00413e-07
5.00193e-07
-3.20493e-07
4.76253e-07
-3.38576e-07
4.51176e-07
-3.54247e-07
4.25195e-07
-3.67081e-07
3.98572e-07
-3.76726e-07
3.7158e-07
-3.82998e-07
3.44477e-07
-3.85964e-07
3.17491e-07
-3.85957e-07
2.90798e-07
-3.83522e-07
2.64525e-07
-3.79294e-07
2.38751e-07
-3.73886e-07
2.13525e-07
-3.67803e-07
1.88868e-07
-3.61409e-07
1.64794e-07
-3.54943e-07
1.41296e-07
-3.48522e-07
1.18383e-07
-3.42203e-07
9.60553e-08
-3.35991e-07
7.43141e-08
-3.29867e-07
5.31623e-08
-3.23803e-07
3.26027e-08
-3.17769e-07
1.26379e-08
-3.11743e-07
-6.73056e-09
-3.05712e-07
-2.55005e-08
-2.99675e-07
-4.36734e-08
-2.93622e-07
-6.12476e-08
-2.87517e-07
-7.82243e-08
-2.81361e-07
-9.46074e-08
-2.75165e-07
-1.10403e-07
-2.68944e-07
-1.2562e-07
-2.62715e-07
-1.40268e-07
-2.56496e-07
-1.54361e-07
-2.50305e-07
-1.67915e-07
-2.44162e-07
-1.80948e-07
-2.38087e-07
-1.93479e-07
-2.32099e-07
-2.05532e-07
-2.26217e-07
-2.17133e-07
-2.20458e-07
-2.28309e-07
-2.14839e-07
-2.3909e-07
-2.09377e-07
-2.49511e-07
-2.04085e-07
-2.59606e-07
-1.9898e-07
-2.69416e-07
-1.94077e-07
-2.78981e-07
-1.89395e-07
-2.88345e-07
-1.84957e-07
-2.97554e-07
-1.80797e-07
-3.06653e-07
-1.76962e-07
-3.15698e-07
-1.73575e-07
-3.24733e-07
-1.70642e-07
-3.33803e-07
-1.68415e-07
-3.42941e-07
-1.67227e-07
-3.52164e-07
-1.67678e-07
-3.61439e-07
-1.70971e-07
-3.71089e-07
-1.76748e-07
-3.81332e-07
-1.84426e-07
-3.92331e-07
-1.93733e-07
-4.04218e-07
-2.04563e-07
-4.17108e-07
-2.16925e-07
-4.31106e-07
-2.30921e-07
-4.46312e-07
-2.46739e-07
-4.62828e-07
-2.64647e-07
-4.80763e-07
-2.84992e-07
-5.00217e-07
-3.08249e-07
-5.21339e-07
-3.3498e-07
-5.4436e-07
-3.65521e-07
-5.69629e-07
-3.99599e-07
-5.97625e-07
-4.3582e-07
-6.28877e-07
-4.71156e-07
-6.6371e-07
-5.0108e-07
-7.01874e-07
-5.21075e-07
-7.42404e-07
-5.28887e-07
-7.83943e-07
-5.2538e-07
-8.25225e-07
-5.1326e-07
-8.65322e-07
-4.95329e-07
-9.03641e-07
-4.73666e-07
-9.39833e-07
-4.49572e-07
-9.73694e-07
-4.23768e-07
-1.0051e-06
-3.96651e-07
-1.03399e-06
-3.68455e-07
-1.06031e-06
-3.39332e-07
-1.08404e-06
-3.09394e-07
-1.10519e-06
-2.78737e-07
-1.12377e-06
-2.47447e-07
-1.13979e-06
-2.15603e-07
-1.1533e-06
-1.83282e-07
-1.1643e-06
-1.50555e-07
-1.17284e-06
-1.17492e-07
-1.17893e-06
-8.41551e-08
-1.18259e-06
-5.06066e-08
-1.69031e-08
6.57557e-07
-1.33822e-08
6.54631e-07
-3.99908e-08
6.49771e-07
-6.63733e-08
6.42992e-07
-9.24546e-08
6.34314e-07
-1.18157e-07
6.23758e-07
-1.43402e-07
6.11353e-07
-1.68104e-07
5.97135e-07
-1.92171e-07
5.81148e-07
-2.15494e-07
5.63447e-07
-2.37944e-07
5.44106e-07
-2.59356e-07
5.23216e-07
-2.79521e-07
5.00898e-07
-2.98171e-07
4.77301e-07
-3.14974e-07
4.52612e-07
-3.29551e-07
4.27053e-07
-3.41513e-07
4.00873e-07
-3.50534e-07
3.74329e-07
-3.56441e-07
3.4767e-07
-3.5929e-07
3.21113e-07
-3.59383e-07
2.94825e-07
-3.57219e-07
2.6893e-07
-3.53383e-07
2.43502e-07
-3.48443e-07
2.18586e-07
-3.42872e-07
1.94203e-07
-3.37013e-07
1.70357e-07
-3.31086e-07
1.47051e-07
-3.25205e-07
1.24283e-07
-3.19426e-07
1.02054e-07
-3.13753e-07
8.03624e-08
-3.08168e-07
5.92097e-08
-3.02644e-07
3.85979e-08
-2.97151e-07
1.85296e-08
-2.9167e-07
-9.93383e-10
-2.86184e-07
-1.99749e-08
-2.80689e-07
-3.84099e-08
-2.75184e-07
-5.62967e-08
-2.69627e-07
-7.36364e-08
-2.64018e-07
-9.04316e-08
-2.58367e-07
-1.06687e-07
-2.52687e-07
-1.2241e-07
-2.46991e-07
-1.37609e-07
-2.41295e-07
-1.52296e-07
-2.35616e-07
-1.66485e-07
-2.29972e-07
-1.80192e-07
-2.24379e-07
-1.93435e-07
-2.18855e-07
-2.06235e-07
-2.13416e-07
-2.18616e-07
-2.08077e-07
-2.30601e-07
-2.02853e-07
-2.4222e-07
-1.97758e-07
-2.535e-07
-1.92804e-07
-2.64474e-07
-1.88005e-07
-2.75174e-07
-1.83376e-07
-2.85635e-07
-1.78934e-07
-2.95893e-07
-1.747e-07
-3.05984e-07
-1.70705e-07
-3.15942e-07
-1.67005e-07
-3.2581e-07
-1.63707e-07
-3.35624e-07
-1.60829e-07
-3.45417e-07
-1.58623e-07
-3.55223e-07
-1.57423e-07
-3.65062e-07
-1.57841e-07
-3.74945e-07
-1.61093e-07
-3.85164e-07
-1.66536e-07
-3.95914e-07
-1.73683e-07
-4.07347e-07
-1.8231e-07
-4.19585e-07
-1.92337e-07
-4.32734e-07
-2.03789e-07
-4.46896e-07
-2.16776e-07
-4.62166e-07
-2.31488e-07
-4.78647e-07
-2.4819e-07
-4.96448e-07
-2.67219e-07
-5.15682e-07
-2.8905e-07
-5.36521e-07
-3.14184e-07
-5.59224e-07
-3.42869e-07
-5.84165e-07
-3.74717e-07
-6.11822e-07
-4.08229e-07
-6.42668e-07
-4.40377e-07
-6.7691e-07
-4.669e-07
-7.14164e-07
-4.8387e-07
-7.53423e-07
-4.89662e-07
-7.93423e-07
-4.85401e-07
-8.33051e-07
-4.73643e-07
-8.71522e-07
-4.56865e-07
-9.08338e-07
-4.36853e-07
-9.43205e-07
-4.14707e-07
-9.75944e-07
-3.9103e-07
-1.00644e-06
-3.66155e-07
-1.03462e-06
-3.40277e-07
-1.06043e-06
-3.13526e-07
-1.08382e-06
-2.85998e-07
-1.10478e-06
-2.57776e-07
-1.12329e-06
-2.28938e-07
-1.13934e-06
-1.99556e-07
-1.15292e-06
-1.69701e-07
-1.16403e-06
-1.39441e-07
-1.17268e-06
-1.08843e-07
-1.17886e-06
-7.79724e-08
-1.18258e-06
-4.68914e-08
-1.56617e-08
6.57548e-07
-1.23961e-08
6.54605e-07
-3.70481e-08
6.49722e-07
-6.14906e-08
6.42919e-07
-8.56516e-08
6.3422e-07
-1.09458e-07
6.23654e-07
-1.32835e-07
6.11255e-07
-1.55705e-07
5.97067e-07
-1.77982e-07
5.8114e-07
-1.99567e-07
5.63539e-07
-2.20341e-07
5.4434e-07
-2.40156e-07
5.23641e-07
-2.5882e-07
5.01562e-07
-2.76088e-07
4.78252e-07
-2.91658e-07
4.53891e-07
-3.05183e-07
4.28692e-07
-3.16305e-07
4.0289e-07
-3.2472e-07
3.7673e-07
-3.30267e-07
3.50445e-07
-3.3299e-07
3.24241e-07
-3.33164e-07
2.9828e-07
-3.31241e-07
2.72679e-07
-3.27765e-07
2.47512e-07
-3.23261e-07
2.22823e-07
-3.18168e-07
1.98631e-07
-3.12808e-07
1.7494e-07
-3.07383e-07
1.51754e-07
-3.02008e-07
1.2907e-07
-2.96732e-07
1.06885e-07
-2.9156e-07
8.51977e-08
-2.86474e-07
6.40085e-08
-2.81448e-07
4.33184e-08
-2.76455e-07
2.31285e-08
-2.71475e-07
3.43995e-09
-2.66491e-07
-1.57453e-08
-2.615e-07
-3.44284e-08
-2.56497e-07
-5.26069e-08
-2.51445e-07
-7.02806e-08
-2.46342e-07
-8.74511e-08
-2.41194e-07
-1.04122e-07
-2.36014e-07
-1.20299e-07
-2.30812e-07
-1.35989e-07
-2.25603e-07
-1.51203e-07
-2.20401e-07
-1.65951e-07
-2.15222e-07
-1.80249e-07
-2.10081e-07
-1.94112e-07
-2.04992e-07
-2.07557e-07
-1.99969e-07
-2.20606e-07
-1.95027e-07
-2.3328e-07
-1.90179e-07
-2.45601e-07
-1.85435e-07
-2.57596e-07
-1.80809e-07
-2.6929e-07
-1.76311e-07
-2.8071e-07
-1.71956e-07
-2.91884e-07
-1.67759e-07
-3.02841e-07
-1.63742e-07
-3.13611e-07
-1.59936e-07
-3.24216e-07
-1.564e-07
-3.34695e-07
-1.53228e-07
-3.45073e-07
-1.50452e-07
-3.55378e-07
-1.48319e-07
-3.65642e-07
-1.47161e-07
-3.75897e-07
-1.4759e-07
-3.86243e-07
-1.50753e-07
-3.9692e-07
-1.55866e-07
-4.08099e-07
-1.62513e-07
-4.19912e-07
-1.70507e-07
-4.32473e-07
-1.79788e-07
-4.45885e-07
-1.90391e-07
-4.60245e-07
-2.02433e-07
-4.75653e-07
-2.16101e-07
-4.92215e-07
-2.31653e-07
-5.10047e-07
-2.49417e-07
-5.2928e-07
-2.69854e-07
-5.50101e-07
-2.93408e-07
-5.72782e-07
-3.20242e-07
-5.97681e-07
-3.4988e-07
-6.25223e-07
-3.80755e-07
-6.5578e-07
-4.09887e-07
-6.89432e-07
-4.33308e-07
-7.25726e-07
-4.47624e-07
-7.63704e-07
-4.51715e-07
-8.02247e-07
-4.46878e-07
-8.40396e-07
-4.35505e-07
-8.77474e-07
-4.19793e-07
-9.13042e-07
-4.01287e-07
-9.46831e-07
-3.80919e-07
-9.78663e-07
-3.59198e-07
-1.00842e-06
-3.36402e-07
-1.036e-06
-3.12694e-07
-1.06135e-06
-2.88181e-07
-1.0844e-06
-2.62946e-07
-1.10511e-06
-2.37062e-07
-1.12345e-06
-2.10595e-07
-1.1394e-06
-1.8361e-07
-1.15293e-06
-1.56174e-07
-1.16402e-06
-1.28348e-07
-1.17267e-06
-1.00198e-07
-1.17885e-06
-7.17839e-08
-1.18258e-06
-4.31694e-08
-1.44171e-08
6.57552e-07
-1.14145e-08
6.54619e-07
-3.4115e-08
6.49751e-07
-5.66229e-08
6.42971e-07
-7.88711e-08
6.34305e-07
-1.00792e-07
6.23786e-07
-1.22316e-07
6.11452e-07
-1.43372e-07
5.97351e-07
-1.6388e-07
5.81535e-07
-1.83751e-07
5.64072e-07
-2.02876e-07
5.45038e-07
-2.2112e-07
5.2453e-07
-2.38309e-07
5.02667e-07
-2.54221e-07
4.79593e-07
-2.68579e-07
4.55483e-07
-2.81066e-07
4.30541e-07
-2.91354e-07
4.04997e-07
-2.99164e-07
3.79086e-07
-3.04343e-07
3.53039e-07
-3.06928e-07
3.27054e-07
-3.07163e-07
3.01293e-07
-3.05464e-07
2.75872e-07
-3.02328e-07
2.50863e-07
-2.98237e-07
2.26309e-07
-2.936e-07
2.02228e-07
-2.88715e-07
1.78627e-07
-2.8377e-07
1.55504e-07
-2.78875e-07
1.32855e-07
-2.74074e-07
1.10676e-07
-2.69372e-07
8.89639e-08
-2.64754e-07
6.77171e-08
-2.60194e-07
4.69357e-08
-2.55668e-07
2.66202e-08
-2.51154e-07
6.77174e-09
-2.46638e-07
-1.26093e-08
-2.42115e-07
-3.1523e-08
-2.3758e-07
-4.99672e-08
-2.32998e-07
-6.7941e-08
-2.28365e-07
-8.54453e-08
-2.23687e-07
-1.02482e-07
-2.18974e-07
-1.19057e-07
-2.14236e-07
-1.35174e-07
-2.09484e-07
-1.50841e-07
-2.04732e-07
-1.66069e-07
-1.99993e-07
-1.8087e-07
-1.95279e-07
-1.95256e-07
-1.90605e-07
-2.09243e-07
-1.85982e-07
-2.22847e-07
-1.81423e-07
-2.36086e-07
-1.76938e-07
-2.48981e-07
-1.7254e-07
-2.61551e-07
-1.68238e-07
-2.73819e-07
-1.64044e-07
-2.85806e-07
-1.59969e-07
-2.97535e-07
-1.5603e-07
-3.0903e-07
-1.52248e-07
-3.20313e-07
-1.48653e-07
-3.31404e-07
-1.4531e-07
-3.42336e-07
-1.42296e-07
-3.5313e-07
-1.39659e-07
-3.63811e-07
-1.37639e-07
-3.74408e-07
-1.36567e-07
-3.84944e-07
-1.37059e-07
-3.95629e-07
-1.40073e-07
-4.0666e-07
-1.44843e-07
-4.18181e-07
-1.51002e-07
-4.3031e-07
-1.58388e-07
-4.43154e-07
-1.66957e-07
-4.5681e-07
-1.7675e-07
-4.71376e-07
-1.87885e-07
-4.86955e-07
-2.00544e-07
-5.03658e-07
-2.14976e-07
-5.21614e-07
-2.31493e-07
-5.4097e-07
-2.50537e-07
-5.61933e-07
-2.72492e-07
-5.84784e-07
-2.97447e-07
-6.09874e-07
-3.24854e-07
-6.37582e-07
-3.53117e-07
-6.68188e-07
-3.79349e-07
-7.01651e-07
-3.99905e-07
-7.3743e-07
-4.11891e-07
-7.74576e-07
-4.14599e-07
-8.1206e-07
-4.09412e-07
-8.49039e-07
-3.98536e-07
-8.84929e-07
-3.83908e-07
-9.19357e-07
-3.66862e-07
-9.52089e-07
-3.48189e-07
-9.82968e-07
-3.2832e-07
-1.01188e-06
-3.0749e-07
-1.03874e-06
-2.85837e-07
-1.06346e-06
-2.63453e-07
-1.086e-06
-2.40408e-07
-1.1063e-06
-2.16766e-07
-1.12431e-06
-1.92586e-07
-1.13999e-06
-1.67927e-07
-1.15332e-06
-1.42847e-07
-1.16426e-06
-1.17405e-07
-1.1728e-06
-9.16589e-08
-1.17891e-06
-6.5668e-08
-1.18259e-06
-3.94907e-08
-1.31877e-08
6.57556e-07
-1.04372e-08
6.54637e-07
-3.11953e-08
6.49792e-07
-5.17783e-08
6.43046e-07
-7.21243e-08
6.34425e-07
-9.21711e-08
6.23964e-07
-1.11856e-07
6.11705e-07
-1.31112e-07
5.97693e-07
-1.49868e-07
5.81987e-07
-1.68043e-07
5.6465e-07
-1.85539e-07
5.45763e-07
-2.02232e-07
5.25422e-07
-2.17965e-07
5.03741e-07
-2.32537e-07
4.80864e-07
-2.45697e-07
4.5696e-07
-2.57155e-07
4.32228e-07
-2.66613e-07
4.06889e-07
-2.73814e-07
3.81174e-07
-2.78615e-07
3.55306e-07
-2.81045e-07
3.29484e-07
-2.81325e-07
3.03865e-07
-2.79829e-07
2.78564e-07
-2.77011e-07
2.53657e-07
-2.73315e-07
2.29186e-07
-2.69115e-07
2.05168e-07
-2.64683e-07
1.81609e-07
-2.602e-07
1.58509e-07
-2.55763e-07
1.3586e-07
-2.51415e-07
1.13658e-07
-2.47161e-07
9.18973e-08
-2.42986e-07
7.05767e-08
-2.38867e-07
4.96946e-08
-2.3478e-07
2.92512e-08
-2.30705e-07
9.24684e-09
-2.26629e-07
-1.03182e-08
-2.22546e-07
-2.9444e-08
-2.1845e-07
-4.81281e-08
-2.14311e-07
-6.63692e-08
-2.10121e-07
-8.41671e-08
-2.05887e-07
-1.01523e-07
-2.01616e-07
-1.1844e-07
-1.97317e-07
-1.34922e-07
-1.93001e-07
-1.50975e-07
-1.88678e-07
-1.66607e-07
-1.84359e-07
-1.81827e-07
-1.80058e-07
-1.96647e-07
-1.75784e-07
-2.11078e-07
-1.7155e-07
-2.25134e-07
-1.67365e-07
-2.38831e-07
-1.63241e-07
-2.52183e-07
-1.59187e-07
-2.65209e-07
-1.55212e-07
-2.77925e-07
-1.51327e-07
-2.90351e-07
-1.47543e-07
-3.02504e-07
-1.43876e-07
-3.14405e-07
-1.40347e-07
-3.26074e-07
-1.36985e-07
-3.37525e-07
-1.33859e-07
-3.48791e-07
-1.31031e-07
-3.59891e-07
-1.28559e-07
-3.70854e-07
-1.26677e-07
-3.81706e-07
-1.25717e-07
-3.92477e-07
-1.26293e-07
-4.03427e-07
-1.2913e-07
-4.14733e-07
-1.33545e-07
-4.26527e-07
-1.39218e-07
-4.38919e-07
-1.46008e-07
-4.52009e-07
-1.5388e-07
-4.65894e-07
-1.62881e-07
-4.80673e-07
-1.73125e-07
-4.96452e-07
-1.84788e-07
-5.13353e-07
-1.98103e-07
-5.31511e-07
-2.13369e-07
-5.51091e-07
-2.30997e-07
-5.72316e-07
-2.51316e-07
-5.95466e-07
-2.74354e-07
-6.20871e-07
-2.99516e-07
-6.48849e-07
-3.2521e-07
-6.79579e-07
-3.48688e-07
-7.12906e-07
-3.66636e-07
-7.48231e-07
-3.76611e-07
-7.8464e-07
-3.7822e-07
-8.212e-07
-3.72869e-07
-8.57172e-07
-3.62574e-07
-8.9205e-07
-3.49036e-07
-9.25506e-07
-3.33408e-07
-9.57331e-07
-3.16365e-07
-9.8738e-07
-2.98272e-07
-1.01554e-06
-2.79328e-07
-1.04173e-06
-2.59648e-07
-1.06587e-06
-2.39312e-07
-1.0879e-06
-2.18381e-07
-1.10776e-06
-1.96909e-07
-1.1254e-06
-1.74948e-07
-1.14077e-06
-1.52551e-07
-1.15385e-06
-1.2977e-07
-1.1646e-06
-1.06659e-07
-1.17299e-06
-8.32696e-08
-1.179e-06
-5.9657e-08
-1.18261e-06
-3.58746e-08
-1.19793e-08
6.57563e-07
-9.46627e-09
6.54662e-07
-2.82942e-08
6.49847e-07
-4.6964e-08
6.43143e-07
-6.54197e-08
6.34577e-07
-8.36049e-08
6.24184e-07
-1.01463e-07
6.12006e-07
-1.18933e-07
5.98089e-07
-1.35952e-07
5.82492e-07
-1.52445e-07
5.65278e-07
-1.68324e-07
5.46528e-07
-1.8348e-07
5.26333e-07
-1.97768e-07
5.04809e-07
-2.11009e-07
4.82094e-07
-2.22976e-07
4.58353e-07
-2.33408e-07
4.33781e-07
-2.42032e-07
4.08594e-07
-2.48616e-07
3.83018e-07
-2.53027e-07
3.57275e-07
-2.55287e-07
3.31559e-07
-2.55593e-07
3.0603e-07
-2.54284e-07
2.80803e-07
-2.51768e-07
2.55954e-07
-2.4845e-07
2.31524e-07
-2.44671e-07
2.07534e-07
-2.4068e-07
1.83988e-07
-2.36642e-07
1.60883e-07
-2.32647e-07
1.38212e-07
-2.28735e-07
1.15969e-07
-2.2491e-07
9.41489e-08
-2.21158e-07
7.27477e-08
-2.17459e-07
5.17638e-08
-2.1379e-07
3.11967e-08
-2.10133e-07
1.10466e-08
-2.06474e-07
-8.68653e-09
-2.02808e-07
-2.80024e-08
-1.99131e-07
-4.68986e-08
-1.95411e-07
-6.5373e-08
-1.91644e-07
-8.34245e-08
-1.87833e-07
-1.01053e-07
-1.83985e-07
-1.18261e-07
-1.80108e-07
-1.3505e-07
-1.7621e-07
-1.51425e-07
-1.72301e-07
-1.67391e-07
-1.68391e-07
-1.82957e-07
-1.64491e-07
-1.9813e-07
-1.6061e-07
-2.1292e-07
-1.56758e-07
-2.27339e-07
-1.52946e-07
-2.41398e-07
-1.49181e-07
-2.55111e-07
-1.45474e-07
-2.68491e-07
-1.41831e-07
-2.81554e-07
-1.38264e-07
-2.94314e-07
-1.34783e-07
-3.06787e-07
-1.31403e-07
-3.1899e-07
-1.28144e-07
-3.30941e-07
-1.25035e-07
-3.42654e-07
-1.22147e-07
-3.5416e-07
-1.19526e-07
-3.65481e-07
-1.1724e-07
-3.76647e-07
-1.15513e-07
-3.87691e-07
-1.14676e-07
-3.98669e-07
-1.15319e-07
-4.09841e-07
-1.17966e-07
-4.21373e-07
-1.22021e-07
-4.33394e-07
-1.27207e-07
-4.4601e-07
-1.33403e-07
-4.59319e-07
-1.40585e-07
-4.73417e-07
-1.48799e-07
-4.88406e-07
-1.58156e-07
-5.04397e-07
-1.68821e-07
-5.21518e-07
-1.81011e-07
-5.39915e-07
-1.95007e-07
-5.59769e-07
-2.11186e-07
-5.81311e-07
-2.29826e-07
-6.04821e-07
-2.50904e-07
-6.30604e-07
-2.73801e-07
-6.58921e-07
-2.96966e-07
-6.89856e-07
-3.17822e-07
-7.23157e-07
-3.33394e-07
-7.58171e-07
-3.4164e-07
-7.94014e-07
-3.42405e-07
-8.29833e-07
-3.37067e-07
-8.64972e-07
-3.27444e-07
-8.98988e-07
-3.15024e-07
-9.31595e-07
-3.00803e-07
-9.62608e-07
-2.85354e-07
-9.91894e-07
-2.68986e-07
-1.01935e-06
-2.51869e-07
-1.0449e-06
-2.34101e-07
-1.06846e-06
-2.1575e-07
-1.08997e-06
-1.96868e-07
-1.10938e-06
-1.77503e-07
-1.12663e-06
-1.57701e-07
-1.14167e-06
-1.37508e-07
-1.15447e-06
-1.16971e-07
-1.16499e-06
-9.61363e-08
-1.17321e-06
-7.50528e-08
-1.1791e-06
-5.37686e-08
-1.18264e-06
-3.23324e-08
-1.0796e-08
6.57569e-07
-8.50155e-09
6.54686e-07
-2.54113e-08
6.49902e-07
-4.21799e-08
6.4324e-07
-5.87572e-08
6.34727e-07
-7.50925e-08
6.244e-07
-9.1135e-08
6.12298e-07
-1.06831e-07
5.9847e-07
-1.22123e-07
5.82971e-07
-1.36945e-07
5.65867e-07
-1.51219e-07
5.47234e-07
-1.64845e-07
5.27165e-07
-1.77697e-07
5.05772e-07
-1.89612e-07
4.83189e-07
-2.00389e-07
4.5958e-07
-2.09792e-07
4.35135e-07
-2.17577e-07
4.10064e-07
-2.23535e-07
3.84594e-07
-2.27542e-07
3.5894e-07
-2.29618e-07
3.33298e-07
-2.29936e-07
3.07828e-07
-2.28797e-07
2.82645e-07
-2.26569e-07
2.57825e-07
-2.23616e-07
2.33413e-07
-2.20244e-07
2.09428e-07
-2.16682e-07
1.85874e-07
-2.13076e-07
1.62748e-07
-2.09511e-07
1.40042e-07
-2.0602e-07
1.1775e-07
-2.02608e-07
9.58639e-08
-1.99265e-07
7.43808e-08
-1.95969e-07
5.32982e-08
-1.92702e-07
3.26152e-08
-1.89445e-07
1.23318e-08
-1.86186e-07
-7.55181e-09
-1.82921e-07
-2.70355e-08
-1.79644e-07
-4.61163e-08
-1.76327e-07
-6.47915e-08
-1.72966e-07
-8.30591e-08
-1.69563e-07
-1.00918e-07
-1.66124e-07
-1.18369e-07
-1.62655e-07
-1.35414e-07
-1.59164e-07
-1.52054e-07
-1.55659e-07
-1.68294e-07
-1.52149e-07
-1.84141e-07
-1.48644e-07
-1.99599e-07
-1.45151e-07
-2.14676e-07
-1.4168e-07
-2.29383e-07
-1.38239e-07
-2.43728e-07
-1.34836e-07
-2.57721e-07
-1.31479e-07
-2.71375e-07
-1.28177e-07
-2.84702e-07
-1.24937e-07
-2.97714e-07
-1.21771e-07
-3.10426e-07
-1.18691e-07
-3.22851e-07
-1.15718e-07
-3.35007e-07
-1.12878e-07
-3.46909e-07
-1.10244e-07
-3.58586e-07
-1.0785e-07
-3.70061e-07
-1.05766e-07
-3.81372e-07
-1.04203e-07
-3.9256e-07
-1.03491e-07
-4.03711e-07
-1.04173e-07
-4.1507e-07
-1.06615e-07
-4.26796e-07
-1.10303e-07
-4.39013e-07
-1.15e-07
-4.51827e-07
-1.20602e-07
-4.65334e-07
-1.27092e-07
-4.79633e-07
-1.34518e-07
-4.94828e-07
-1.42982e-07
-5.11034e-07
-1.52639e-07
-5.28388e-07
-1.63687e-07
-5.47044e-07
-1.76388e-07
-5.67195e-07
-1.9108e-07
-5.8908e-07
-2.07995e-07
-6.12973e-07
-2.27074e-07
-6.39152e-07
-2.47693e-07
-6.67818e-07
-2.68373e-07
-6.98969e-07
-2.8674e-07
-7.32267e-07
-3.00155e-07
-7.67025e-07
-3.06924e-07
-8.02392e-07
-3.07065e-07
-8.37587e-07
-3.01888e-07
-8.72023e-07
-2.93016e-07
-9.05308e-07
-2.81743e-07
-9.37191e-07
-2.68922e-07
-9.67504e-07
-2.55042e-07
-9.96126e-07
-2.40365e-07
-1.02296e-06
-2.25033e-07
-1.04793e-06
-2.09131e-07
-1.07097e-06
-1.92716e-07
-1.092e-06
-1.75834e-07
-1.11098e-06
-1.58525e-07
-1.12785e-06
-1.40831e-07
-1.14257e-06
-1.22791e-07
-1.15509e-06
-1.04446e-07
-1.16539e-06
-8.58384e-08
-1.17343e-06
-6.70105e-08
-1.1792e-06
-4.8005e-08
-1.18266e-06
-2.88655e-08
-9.63789e-09
6.57575e-07
-7.54278e-09
6.5471e-07
-2.2546e-08
6.49954e-07
-3.74246e-08
6.43331e-07
-5.21342e-08
6.34869e-07
-6.66303e-08
6.24602e-07
-8.08677e-08
6.12571e-07
-9.47992e-08
5.98822e-07
-1.08374e-07
5.83411e-07
-1.21534e-07
5.66401e-07
-1.34209e-07
5.4787e-07
-1.46312e-07
5.27907e-07
-1.57731e-07
5.06621e-07
-1.68323e-07
4.84147e-07
-1.77909e-07
4.60642e-07
-1.86281e-07
4.36295e-07
-1.93221e-07
4.11313e-07
-1.98542e-07
3.85919e-07
-2.02135e-07
3.60328e-07
-2.04013e-07
3.34735e-07
-2.04327e-07
3.093e-07
-2.03346e-07
2.8414e-07
-2.01393e-07
2.59333e-07
-1.98794e-07
2.34923e-07
-1.9582e-07
2.10929e-07
-1.92675e-07
1.87355e-07
-1.89491e-07
1.64199e-07
-1.86343e-07
1.41452e-07
-1.83263e-07
1.19106e-07
-1.80254e-07
9.71542e-08
-1.77306e-07
7.55926e-08
-1.74401e-07
5.44184e-08
-1.71521e-07
3.36302e-08
-1.68651e-07
1.32282e-08
-1.65779e-07
-6.78757e-09
-1.62901e-07
-2.64165e-08
-1.60011e-07
-4.56554e-08
-1.57085e-07
-6.45009e-08
-1.54117e-07
-8.29502e-08
-1.51111e-07
-1.01002e-07
-1.4807e-07
-1.18654e-07
-1.45e-07
-1.35908e-07
-1.41908e-07
-1.52765e-07
-1.38801e-07
-1.69228e-07
-1.35685e-07
-1.853e-07
-1.32571e-07
-2.00985e-07
-1.29464e-07
-2.16291e-07
-1.26373e-07
-2.31224e-07
-1.23305e-07
-2.45791e-07
-1.20268e-07
-2.60002e-07
-1.17268e-07
-2.73866e-07
-1.14312e-07
-2.87393e-07
-1.11409e-07
-3.00595e-07
-1.08569e-07
-3.13484e-07
-1.05803e-07
-3.26073e-07
-1.03129e-07
-3.38378e-07
-1.00574e-07
-3.50415e-07
-9.82064e-08
-3.62215e-07
-9.60504e-08
-3.738e-07