/*--------------------------------*- C++ -*----------------------------------*\
  =========                 |
  \\      /  F ield         | OpenFOAM: The Open Source CFD Toolbox
   \\    /   O peration     | Website:  https://openfoam.org
    \\  /    A nd           | Version:  8
     \\/     M anipulation  |
\*---------------------------------------------------------------------------*/
FoamFile
{
    version     2.0;
    format      ascii;
    class       volScalarField;
    location    "0.35/fluid";
    object      Qdot;
}
// * * * * * * * * * * * * * * * * * * * * * * * * * * * * * * * * * * * * * //

dimensions      [1 -1 -3 0 0 0 0];

internalField   nonuniform List<scalar> 
4000
(
2.17408e-06
2.1741e-06
2.17412e-06
9.75256e-11
2.17407e-06
-2.5553e-15
2.17407e-06
7.80205e-10
-2.04426e-14
1.56039e-09
2.17407e-06
2.17407e-06
6.24156e-09
2.17407e-06
2.17407e-06
2.49666e-08
2.18784e-06
2.224e-06
-6.54737e-13
1.1869e-06
1.28677e-06
2.14076e-06
1.26279e-05
0.000119355
0.00101103
0.00700469
0.0399896
0.19082
0.774313
2.71632
8.35762
22.873
56.373
126.489
260.91
499.634
897.469
1525.81
2478.68
3887.32
5950.97
8995.32
13577.8
20675.3
32016.9
50669.7
82026.8
135370
226185
379332
633805
1.05052e+06
1.72507e+06
2.80778e+06
4.53458e+06
7.27457e+06
1.16052e+07
1.83405e+07
2.88142e+07
4.57508e+07
7.26559e+07
1.15925e+08
1.51391e+08
9.02657e+07
5.33595e+07
3.09935e+07
1.75573e+07
9.63331e+06
5.08293e+06
2.56239e+06
1.2259e+06
555764
246953
80514.1
12737.1
767.236
21.4289
0.312451
0.00301799
3.06082e-05
5.72277e-07
2.26097e-08
-2.54634e-10
3.0323e-09
1.54428e-09
4.30326e-10
-3.81581e-11
1.52154e-10
1.4483e-12
-1.76707e-11
1.82663e-11
2.70141e-12
-4.18801e-11
6.56857e-12
3.78611e-13
1.0407e-13
-3.56912e-11
6.17784e-12
-3.57122e-11
6.15565e-12
2.17408e-06
2.17407e-06
2.68868e-11
2.17407e-06
2.17407e-06
1.95049e-10
2.17446e-06
7.80195e-10
1.56041e-09
2.17407e-06
0
6.24156e-09
7.33635e-19
2.17407e-06
2.17407e-06
2.19904e-06
2.19904e-06
2.2016e-06
2.224e-06
1.08703e-06
9.98648e-08
1.98583e-06
1.06857e-05
0.000102754
0.000877475
0.00616829
0.0357766
0.173494
0.714567
2.53735
7.89725
21.8443
54.3633
123.057
255.849
493.377
891.738
1524.41
2488.43
3919.35
6022.95
9135.88
13835.3
21134.7
32832.6
52125.5
84641.3
139949
234242
393316
657637
1.09047e+06
1.79117e+06
2.91618e+06
4.71109e+06
7.56032e+06
1.20657e+07
1.9054e+07
2.99541e+07
4.75995e+07
7.56645e+07
1.20862e+08
1.47271e+08
8.7697e+07
5.17415e+07
2.99747e+07
1.69227e+07
9.24542e+06
4.85208e+06
2.43035e+06
1.15397e+06
519700
229868
65894.6
9139.93
470.014
11.4483
0.149991
0.00140483
1.54439e-05
3.43705e-07
3.57912e-08
-2.06688e-10
3.03852e-09
1.54554e-09
3.08643e-10
3.93924e-10
1.52191e-10
-4.26213e-13
3.03544e-11
-7.70675e-14
-4.18988e-11
3.03414e-12
7.56319e-13
6.53282e-12
-4.16768e-11
2.09876e-14
6.16716e-12
6.15741e-12
-3.57122e-11
3.04764e-12
2.17408e-06
2.17412e-06
2.17407e-06
2.17418e-06
2.17418e-06
3.90097e-10
2.17407e-06
1.56041e-09
2.17563e-06
2.17719e-06
-8.17702e-14
2.18031e-06
2.18656e-06
1.24833e-08
1.3766e-08
2.49662e-08
4.99331e-08
4.99325e-08
1.08704e-06
1.1869e-06
1.98583e-06
8.10064e-06
8.91162e-05
0.00076622
0.00544395
0.0319612
0.157008
0.654213
2.35241
7.41052
20.7343
52.1618
119.276
250.341
486.939
887.088
1527.47
2509.92
3977
6145.36
9369.76
14259.8
21889.4
34169.4
54496.8
88779.8
147496
247660
416644
697356
1.15693e+06
1.90101e+06
3.09601e+06
5.00354e+06
8.03366e+06
1.28296e+07
2.02336e+07
3.18555e+07
5.06691e+07
8.06362e+07
1.28976e+08
1.40358e+08
8.3433e+07
4.90793e+07
2.83161e+07
1.59025e+07
8.63124e+06
4.49357e+06
2.22963e+06
1.04741e+06
467991
202291
51287.9
5755.89
254.78
5.55156
0.0686909
0.000665248
8.31593e-06
2.299e-07
1.12154e-08
2.58501e-09
3.03742e-09
8.10995e-10
4.24884e-10
-2.21509e-12
-3.66598e-11
5.95198e-11
1.32688e-11
1.82706e-11
-2.96482e-11
1.35418e-12
6.14875e-12
3.78725e-13
-3.57131e-11
-4.18191e-11
-3.56885e-11
3.23586e-15
-3.57107e-11
-3.99269e-17
2.17407e-06
2.17412e-06
-1.27766e-15
2.17407e-06
2.17427e-06
2.17429e-06
2.1745e-06
2.17477e-06
2.17563e-06
3.12082e-09
2.18031e-06
2.80013e-09
2.18656e-06
2.18656e-06
2.93454e-18
2.19904e-06
4.99325e-08
4.99331e-08
1.1869e-06
-8.70619e-14
1.7861e-06
7.98928e-06
7.82641e-05
0.000678845
0.00486706
0.0289086
0.143474
0.604813
2.19962
7.00569
19.8092
50.3384
116.215
246.141
482.843
886.602
1537.94
2544.53
4057.71
6307.86
9672.9
14804
22851.9
35863.4
57454.2
94203.2
157135
264613
445899
746816
1.23907e+06
2.03557e+06
3.31407e+06
5.35366e+06
8.59118e+06
1.37109e+07
2.15661e+07
3.42814e+07
5.44277e+07
8.66454e+07
1.38647e+08
1.31896e+08
7.82663e+07
4.58889e+07
2.63522e+07
1.47103e+07
7.92375e+06
4.08826e+06
2.00706e+06
932025
414031
170952
37519.5
3416.49
131.433
2.57112
0.0301392
0.000302224
4.29586e-06
1.62648e-07
1.7194e-08
6.06047e-09
-7.75346e-11
1.51247e-09
7.81532e-10
-2.03286e-12
1.52308e-10
2.65092e-11
2.42189e-11
-2.9745e-11
6.06599e-12
8.27938e-13
-3.57173e-11
-3.55434e-11
6.15332e-12
-4.18405e-11
-4.18558e-11
-4.18637e-11
-4.18664e-11
2.17408e-06
-1.59705e-16
2.17407e-06
2.17407e-06
2.17427e-06
2.17427e-06
2.17407e-06
2.17485e-06
1.56041e-09
1.56041e-09
2.17719e-06
6.24156e-09
2.17407e-06
1.46727e-18
2.18096e-06
2.17407e-06
2.19904e-06
4.99331e-08
4.99325e-08
1.08704e-06
1.1869e-06
1.7861e-06
6.05852e-06
7.04182e-05
0.000611378
0.00442861
0.0265329
0.133039
0.566548
2.08106
6.69235
19.1004
48.9743
114.042
243.536
481.457
890.552
1555.52
2590.47
4156.56
6499.72
10024.3
15429.1
23946.2
37766.2
60927.8
100381
168099
283836
478943
802476
1.33123e+06
2.18622e+06
3.55791e+06
5.74518e+06
9.21588e+06
1.47032e+07
2.31178e+07
3.67645e+07
5.83788e+07
9.29895e+07
1.48702e+08
1.23087e+08
7.29023e+07
4.25958e+07
2.43416e+07
1.35022e+07
7.2156e+06
3.68843e+06
1.79121e+06
822519
364651
138330
26488.8
2001.74
68.001
1.21317
0.0137468
0.00014538
2.37785e-06
1.16977e-07
1.18199e-08
-1.08658e-10
-7.29991e-11
1.54943e-09
3.03744e-10
4.28329e-12
1.72515e-11
5.45667e-11
-3.10797e-11
-3.52093e-11
-3.30051e-11
-4.18778e-11
-4.77717e-15
-3.53332e-11
6.15337e-12
-4.18404e-11
2.36871e-14
-3.5709e-11
-3.57122e-11
2.17408e-06
2.43814e-11
5.73152e-21
9.75256e-11
1.95051e-10
1.95049e-10
2.17446e-06
2.17485e-06
2.17407e-06
1.56039e-09
3.12082e-09
2.17407e-06
7.33635e-19
1.24831e-08
2.93454e-18
2.17407e-06
2.19904e-06
2.19647e-06
2.17407e-06
-6.58904e-13
1.1869e-06
5.99195e-07
5.40426e-06
6.35172e-05
0.000561088
0.00409442
0.0247377
0.125138
0.537617
1.99193
6.45979
18.587
48.033
112.697
242.414
482.551
898.422
1579.07
2645.32
4268.71
6711.83
10407.6
16101.1
25111.5
39877
64662.4
107026
179879
304422
514193
861615
1.42879e+06
2.34512e+06
3.81414e+06
6.15492e+06
9.86654e+06
1.57192e+07
2.4698e+07
3.92658e+07
6.23425e+07
9.93283e+07
1.58167e+08
1.14585e+08
6.77533e+07
3.94583e+07
2.24432e+07
1.23733e+07
6.56178e+06
3.32422e+06
1.5976e+06
726124
321483
111873
18307.2
1182.62
35.9965
0.592519
0.00655707
7.33708e-05
1.37259e-06
6.96492e-08
6.35464e-09
3.34653e-09
1.33724e-09
8.08696e-10
-3.99283e-12
1.93342e-10
5.91867e-11
4.84399e-11
-1.39709e-13
-5.97305e-14
-2.53728e-14
7.66738e-12
7.5749e-13
-3.53331e-11
9.44925e-14
-3.56649e-11
-3.57016e-11
-4.18664e-11
-4.18657e-11
3.5822e-22
2.17407e-06
2.17412e-06
2.17413e-06
1.95049e-10
1.95049e-10
2.17425e-06
2.17407e-06
2.17563e-06
1.56039e-09
-4.08851e-14
2.17407e-06
2.18031e-06
1.24833e-08
2.18656e-06
2.17407e-06
2.49662e-08
4.99331e-08
4.99331e-08
1.1869e-06
1.1869e-06
1.68623e-06
5.99196e-06
5.95661e-05
0.000521607
0.00383443
0.023361
0.119116
0.51578
1.92564
6.29093
18.2299
47.4325
112.021
242.484
485.6
909.287
1606.95
2706.21
4389.2
6935.68
10804.9
16792.6
26356.9
42064
68540.3
113931
192111
325754
550621
922572
1.52913e+06
2.50823e+06
4.07667e+06
6.57391e+06
1.05305e+07
1.67464e+07
2.62899e+07
4.17759e+07
6.63033e+07
1.05622e+08
1.66716e+08
1.06902e+08
6.31336e+07
3.66637e+07
2.07651e+07
1.13836e+07
5.99381e+06
3.01116e+06
1.43332e+06
646004
285781
85017.8
12795.3
720.469
19.8422
0.304534
0.00332582
3.96104e-05
8.47285e-07
4.62548e-08
-4.1824e-10
6.11969e-09
3.09694e-09
-5.07267e-11
-3.64457e-12
1.51614e-10
6.11311e-11
2.65892e-11
1.94685e-11
-4.19215e-11
-3.88422e-11
6.82794e-12
-3.57163e-11
-1.70048e-15
-4.17718e-11
-4.18666e-11
2.37034e-14
-3.57096e-11
6.15417e-12
3.04768e-12
2.17408e-06
2.17407e-06
0
2.17407e-06
2.29261e-20
2.17446e-06
2.17407e-06
1.5604e-09
1.56041e-09
0
2.17407e-06
6.24156e-09
1.24831e-08
2.17967e-06
2.19904e-06
2.49662e-08
-2.34763e-17
4.99331e-08
4.99325e-08
1.1869e-06
1.4865e-06
6.67953e-06
5.42847e-05
0.000491912
0.0036368
0.0223117
0.114568
0.499496
1.87724
6.17201
17.9951
47.0977
111.86
243.454
490.073
922.208
1637.54
2770.4
4513.41
7161.66
11203.3
17510.2
27609.4
44269.4
72459.7
120921
204494
347334
587435
984145
1.63051e+06
2.67321e+06
4.34268e+06
6.99955e+06
1.12074e+07
1.77936e+07
2.79292e+07
4.43886e+07
7.04806e+07
1.12371e+08
1.67431e+08
1.00818e+08
5.94201e+07
3.4395e+07
1.93946e+07
1.05732e+07
5.52895e+06
2.75578e+06
1.30011e+06
581653
254632
69279.8
8915.6
449.447
11.3741
0.164935
0.0017949
2.27988e-05
5.4993e-07
2.78819e-08
1.217e-08
6.17303e-09
-1.50977e-11
1.55853e-09
3.44899e-10
6.42393e-11
7.4081e-12
1.27753e-11
3.04161e-11
9.4639e-12
-3.88404e-11
1.5147e-12
-3.49541e-11
-1.57789e-15
-3.57128e-11
6.15391e-12
1.83703e-14
3.24909e-15
4.04375e-16
3.04768e-12
2.17408e-06
2.1876e-11
9.75256e-11
2.17407e-06
2.17427e-06
2.17446e-06
0
1.56039e-09
1.56039e-09
2.17719e-06
6.24164e-09
6.24156e-09
1.24831e-08
-1.63539e-13
2.49662e-08
-3.27078e-13
-6.5418e-13
2.17407e-06
2.22401e-06
1.1869e-06
4.99331e-07
6.28007e-06
5.11889e-05
0.000467433
0.00348535
0.0215094
0.111135
0.487435
1.84246
6.09107
17.8527
46.9608
112.074
245.049
495.467
936.296
1669.32
2835.3
4636.07
7383.13
11605.6
18211.4
28835.3
46432.8
76312.4
127799
216683
368560
623620
1.04463e+06
1.73014e+06
2.83547e+06
4.60469e+06
7.41964e+06
1.18773e+07
1.88273e+07
2.95672e+07
4.70238e+07
7.47376e+07
1.19331e+08
1.62119e+08
9.62087e+07
5.65525e+07
3.26183e+07
1.83106e+07
9.92778e+06
5.15855e+06
2.55228e+06
1.1944e+06
531357
228188
56862.1
6365.65
291.966
6.86094
0.0949236
0.00103609
1.40275e-05
3.65839e-07
2.85486e-08
6.62508e-09
1.66076e-09
1.54742e-09
-4.30823e-11
3.51305e-10
-4.32047e-11
6.12273e-11
-3.59683e-11
2.42708e-11
6.04764e-12
6.13396e-12
-4.18749e-11
6.49242e-12
1.89005e-13
-3.56701e-11
4.73782e-14
-9.26863e-17
-3.57063e-11
-3.57118e-11
2.17408e-06
1.09378e-11
0
2.17417e-06
1.9505e-10
2.17418e-06
-5.11059e-15
-1.02212e-14
2.17563e-06
2.17493e-06
2.17579e-06
2.17407e-06
6.24164e-09
-1.63539e-13
-1.63539e-13
2.93454e-18
2.19904e-06
2.17407e-06
4.99325e-08
1.1645e-06
1.08703e-06
1.4865e-06
6.1802e-06
5.08663e-05
0.000449834
0.00336868
0.0209023
0.108569
0.478632
1.81811
6.03881
17.7789
46.9664
112.545
247.039
501.35
950.779
1700.95
2898.25
4753.81
7601.15
11988.2
18878
30001.7
48494
79987.3
134363
228308
388773
658020
1.10206e+06
1.82461e+06
2.98919e+06
4.85264e+06
7.81674e+06
1.25096e+07
1.97947e+07
3.11052e+07
4.95003e+07
7.87381e+07
1.25861e+08
1.56104e+08
9.24626e+07
5.42202e+07
3.11724e+07
1.74284e+07
9.40298e+06
4.85818e+06
2.38787e+06
1.10957e+06
491746
205606
47231.1
4687.59
198.248
4.36671
0.0581161
0.000638932
9.18421e-06
3.00392e-07
3.02515e-08
6.01772e-09
3.06756e-09
-1.74939e-11
-6.787e-12
3.87236e-10
-1.24928e-12
6.12658e-11
-2.39428e-13
5.36523e-12
1.2205e-11
-3.40507e-11
-4.18744e-11
6.15084e-12
6.34327e-12
9.46744e-14
-4.18452e-11
6.15409e-12
-4.18631e-11
6.15417e-12
1.68043e-12
2.17408e-06
5.73152e-21
2.17417e-06
1.51298e-10
2.17427e-06
2.15089e-10
2.17407e-06
2.17407e-06
2.17407e-06
2.17407e-06
7.33635e-19
2.17407e-06
1.24833e-08
2.18656e-06
2.17407e-06
2.49666e-08
4.99331e-08
2.19647e-06
1.11457e-06
-1.35902e-12
3.99463e-07
5.98047e-06
4.79817e-05
0.000436629
0.00327803
0.0204408
0.106663
0.4723
1.80158
6.00769
17.754
47.0689
113.176
249.231
507.363
965.021
1731.2
2957.55
4867.08
7803.35
12342
19494
31079.7
50399.8
83386.6
140434
239049
407421
689707
1.15489e+06
1.91147e+06
3.1305e+06
5.08058e+06
8.18185e+06
1.30913e+07
2.06799e+07
3.24944e+07
5.17236e+07
8.23162e+07
1.3168e+08
1.50832e+08
8.92432e+07
5.22298e+07
2.99465e+07
1.66851e+07
8.9635e+06
4.60827e+06
2.25206e+06
1.04011e+06
459813
186968
39726.8
3561.7
140.545
2.92758
0.0377504
0.000419225
6.39944e-06
2.06485e-07
1.1184e-08
-2.30219e-10
-4.8076e-11
1.50863e-09
-4.20456e-11
3.87418e-10
1.12531e-10
9.70103e-11
1.28249e-11
1.20933e-11
6.05334e-12
-3.573e-11
7.67048e-12
-4.14886e-11
6.15287e-12
6.19637e-12
-4.18403e-11
6.166e-12
6.15743e-12
6.15491e-12
3.04764e-12
-1.59708e-16
-6.38824e-16
2.17412e-06
-1.27764e-15
-2.5553e-15
2.17429e-06
2.17485e-06
2.17407e-06
2.17563e-06
3.66817e-19
2.17407e-06
2.18031e-06
0
2.18656e-06
-3.27081e-13
2.49662e-08
2.17407e-06
2.19647e-06
2.2016e-06
1.08704e-06
3.99464e-07
5.68088e-06
4.74709e-05
0.000425044
0.00321074
0.020094
0.105265
0.467842
1.79086
5.99183
17.7628
47.2324
113.889
251.475
513.229
978.516
1759.24
3013.48
4969.9
7985.97
12660.6
20047.3
32046.7
52108.1
86430.7
145862
248630
424009
717817
1.20166e+06
1.98822e+06
3.25517e+06
5.28141e+06
8.50317e+06
1.36025e+07
2.14508e+07
3.37123e+07
5.36727e+07
8.54506e+07
1.36752e+08
1.46221e+08
8.64367e+07
5.05029e+07
2.88888e+07
1.60478e+07
8.58933e+06
4.39705e+06
2.13821e+06
982505
433902
170457
33964.4
2795.05
103.916
2.06303
0.0259273
0.000291207
4.66111e-06
1.8542e-07
1.69698e-08
6.06929e-09
-3.77751e-11
1.54541e-09
-4.78192e-11
1.78619e-10
4.45281e-11
9.70387e-11
-9.03798e-12
1.82525e-11
6.05555e-12
3.03075e-12
1.5167e-12
6.3221e-12
-4.18676e-11
6.24891e-12
-3.56861e-11
-3.57004e-11
-4.18631e-11
6.15491e-12
2.17407e-06
2.17408e-06
4.87622e-11
2.17413e-06
2.17413e-06
2.17427e-06
2.17407e-06
2.17485e-06
1.5604e-09
2.17563e-06
3.12078e-09
2.17407e-06
2.18031e-06
2.17967e-06
1.24833e-08
2.19904e-06
2.49662e-08
4.99331e-08
2.224e-06
2.75314e-08
1.08703e-06
3.99464e-07
5.58101e-06
4.62725e-05
0.000416944
0.00315736
0.0198374
0.104254
0.464788
1.78437
5.98656
17.7932
47.4286
114.626
253.652
518.741
990.909
1785.27
3063.36
5060.92
8146.78
12939.9
20530.9
32889.7
53593.8
89071.8
150557
256887
438246
741850
1.2415e+06
2.05346e+06
3.36098e+06
5.45191e+06
8.77667e+06
1.40404e+07
2.21138e+07
3.47827e+07
5.53697e+07
8.81707e+07
1.41135e+08
1.42169e+08
8.39793e+07
4.89983e+07
2.79727e+07
1.54994e+07
8.26962e+06
4.21792e+06
2.04243e+06
934544
412754
155406
29536.2
2261.58
79.8995
1.52262
0.0187453
0.000213131
3.56398e-06
1.49331e-07
2.39955e-08
2.6445e-09
3.08007e-09
1.55247e-09
7.32702e-10
1.78753e-10
1.93996e-10
-4.233e-11
-2.24718e-11
6.63363e-12
6.11621e-12
-3.57283e-11
-3.41952e-11
3.78112e-13
6.34347e-12
-4.17716e-11
1.29346e-14
6.16066e-12
2.95159e-15
-4.18656e-11
2.17407e-06
1.21905e-11
-6.3883e-16
2.17417e-06
0
2.17407e-06
3.90097e-10
2.17485e-06
2.1752e-06
1.56041e-09
2.17407e-06
2.17407e-06
2.17687e-06
2.18656e-06
1.24833e-08
2.19904e-06
2.19904e-06
-2.34763e-17
4.99331e-08
1.10944e-06
4.48007e-08
4.99329e-07
5.48114e-06
4.42866e-05
0.00041104
0.00311908
0.0196475
0.103535
0.462765
1.78087
5.98826
17.8357
47.6356
115.339
255.67
523.696
1001.9
1807.88
3106.62
5139.58
8285.14
13179.2
20943.7
33606.7
54853.1
91301.4
154501
263774
450017
761501
1.27364e+06
2.10516e+06
3.44298e+06
5.58017e+06
8.97446e+06
1.4341e+07
2.25334e+07
3.58361e+07
5.68904e+07
9.05323e+07
1.44884e+08
1.38494e+08
8.17741e+07
4.76628e+07
2.71682e+07
1.50228e+07
7.99453e+06
4.06525e+06
1.96154e+06
894316
394718
144903
25975.5
1877.3
63.607
1.17217
0.0142046
0.000163517
2.88167e-06
1.15022e-07
1.72428e-08
2.66368e-09
3.08266e-09
1.50515e-09
3.44622e-10
2.18945e-10
-4.28767e-11
6.1368e-11
1.07436e-11
-2.97604e-11
-3.63825e-14
-3.88342e-11
-3.53769e-11
-4.1659e-11
-4.1677e-11
-3.56699e-11
-3.56886e-11
6.16067e-12
-4.18634e-11
-3.57122e-11
2.17408e-06
2.17408e-06
2.17412e-06
9.75244e-11
9.75244e-11
2.17407e-06
2.17429e-06
7.80195e-10
4.30179e-10
1.83409e-19
0
-4.08844e-14
2.17407e-06
2.18656e-06
1.24831e-08
-3.27078e-13
2.19904e-06
-1.76072e-17
2.17407e-06
2.224e-06
1.08704e-06
1.4865e-06
5.48114e-06
4.36874e-05
0.00040476
0.00308969
0.019509
0.103037
0.46149
1.77941
5.99419
17.8835
47.8387
116.001
257.49
528.09
1011.67
1827.5
3143.69
5206.46
8402.13
13380.8
21290.5
34208.4
55910.2
93176.6
157830
269623
460093
778499
1.30181e+06
2.15125e+06
3.51763e+06
5.70004e+06
9.16544e+06
1.4643e+07
2.30009e+07
3.66036e+07
5.81115e+07
9.2488e+07
1.48002e+08
1.35441e+08
7.99388e+07
4.65507e+07
2.64989e+07
1.46271e+07
7.76691e+06
3.93943e+06
1.8952e+06
861533
380089
135963
23257.7
1603.51
52.4805
0.940835
0.0112624
0.000131123
2.37732e-06
9.13267e-08
1.17085e-08
6.11504e-09
1.36388e-09
6.51507e-10
-4.70417e-11
1.77163e-10
1.52209e-10
3.26107e-11
1.32556e-11
1.21091e-11
-3.57473e-11
6.13924e-12
-3.53767e-11
3.78318e-13
-3.56083e-11
-4.18668e-11
-3.57017e-11
-3.57057e-11
-4.18651e-11
-3.57122e-11
2.17407e-06
2.17408e-06
4.87628e-11
1.1463e-20
4.37507e-11
2.17427e-06
-5.11059e-15
2.17407e-06
4.30179e-10
2.17563e-06
3.12078e-09
-4.08851e-14
7.33635e-19
2.17407e-06
-1.63539e-13
-3.27078e-13
-3.27078e-13
-1.76072e-17
-6.54379e-13
2.75321e-08
1.08703e-06
1.38663e-06
5.48114e-06
4.42751e-05
0.000403139
0.0030689
0.019412
0.1027
0.460739
1.77924
6.00218
17.9312
48.0257
116.589
259.078
531.914
1019.9
1843.93
3174.57
5261.92
8498.84
13547
21576
34702.6
56775.5
94704
160523
274315
468110
791923
1.32394e+06
2.18735e+06
3.57613e+06
5.79447e+06
9.31772e+06
1.48891e+07
2.33951e+07
3.72277e+07
5.90985e+07
9.4068e+07
1.50508e+08
1.33027e+08
7.8482e+07
4.56659e+07
2.59658e+07
1.43119e+07
7.58573e+06
3.83945e+06
1.84263e+06
835692
368561
128642
21234.9
1409.86
44.8607
0.786499
0.00932559
0.000109649
2.05839e-06
9.22439e-08
2.42447e-08
3.32229e-09
1.3236e-09
1.51236e-09
-4.68716e-11
1.79004e-10
1.06598e-10
1.26325e-11
-1.82735e-13
-3.57915e-11
-3.41046e-14
1.66594e-12
6.56816e-12
6.53257e-12
-3.56278e-11
-4.18668e-11
6.16713e-12
-3.57123e-11
-4.18634e-11
-4.18656e-11
-3.99269e-17
2.17408e-06
4.87628e-11
-1.27766e-15
9.75244e-11
2.17427e-06
2.17407e-06
2.17407e-06
2.17442e-06
1.56041e-09
1.72072e-09
2.17407e-06
0
2.17967e-06
2.18656e-06
2.19904e-06
2.49662e-08
4.99331e-08
2.17407e-06
1.13697e-06
9.98662e-08
1.38663e-06
5.38128e-06
4.37758e-05
0.000399256
0.00305341
0.0193437
0.102481
0.460334
1.77976
6.01047
17.974
48.1856
117.079
260.371
534.984
1026.51
1857.11
3199.28
5306.23
8576.02
13679.7
21804.2
35099
57472.8
95941.6
162718
278160
474707
803002
1.34223e+06
2.21714e+06
3.62423e+06
5.87156e+06
9.44062e+06
1.50844e+07
2.37006e+07
3.77102e+07
5.98631e+07
9.52935e+07
1.5244e+08
1.31182e+08
7.73674e+07
4.49886e+07
2.55576e+07
1.40706e+07
7.44714e+06
3.76307e+06
1.80254e+06
816050
359931
122860
19772
1274.99
39.6844
0.683764
0.00804938
9.5443e-05
1.82951e-06
6.79203e-08
1.86873e-08
-1.61668e-10
1.65158e-09
1.50654e-09
4.31451e-10
4.04842e-12
9.27309e-11
-1.53865e-11
1.94189e-11
1.15456e-11
-3.58044e-11
-1.41733e-14
7.5594e-13
-4.14879e-11
6.23859e-12
6.15375e-12
-1.71037e-16
-3.57057e-11
6.15549e-12
6.15491e-12
2.17408e-06
2.17408e-06
4.87628e-11
2.17417e-06
9.75256e-11
2.17407e-06
2.17446e-06
-1.02213e-14
7.80205e-10
1.56039e-09
3.66817e-19
2.17751e-06
6.24156e-09
1.46727e-18
1.24831e-08
2.19904e-06
2.18784e-06
2.224e-06
2.17407e-06
1.10944e-06
1.08704e-06
3.54662e-07
5.28141e-06
4.25889e-05
0.000397258
0.00304331
0.0192993
0.102345
0.460141
1.78053
6.01781
18.0092
48.3127
117.462
261.38
537.333
1031.52
1867.04
3217.85
5339.46
8633.85
13779.1
21975.1
35395.5
57994.1
96866.3
164356
281028
479624
811256
1.35584e+06
2.23931e+06
3.65995e+06
5.92868e+06
9.5313e+06
1.52276e+07
2.39231e+07
3.8062e+07
6.04208e+07
9.61871e+07
1.53884e+08
1.29838e+08
7.65569e+07
4.44968e+07
2.52616e+07
1.38959e+07
7.34687e+06
3.70788e+06
1.77363e+06
801941
353716
118577
18763.4
1184.47
36.2734
0.617105
0.00722775
8.62126e-05
1.64348e-06
6.83549e-08
2.43381e-08
3.32553e-09
3.08817e-09
1.5548e-09
7.33544e-10
1.77313e-10
1.52278e-10
2.14751e-11
1.94224e-11
6.64552e-12
6.06258e-12
-3.57261e-11
-3.57181e-11
6.36177e-12
-4.16769e-11
6.20627e-12
6.16469e-12
6.16067e-12
-4.18651e-11
-4.18664e-11
3.04764e-12
2.17407e-06
0
2.17407e-06
2.17407e-06
0
1.75003e-10
7.80195e-10
4.30179e-10
1.83409e-19
3.66817e-19
7.33635e-19
2.80013e-09
2.18656e-06
1.24831e-08
2.19904e-06
2.49666e-08
2.22401e-06
4.99331e-08
1.10944e-06
1.1869e-06
1.43144e-06
4.19437e-06
4.23892e-05
0.000397147
0.00303761
0.0192721
0.102267
0.460065
1.78121
6.02318
18.0338
48.3997
117.721
262.056
538.907
1034.88
1873.68
3230.24
5361.61
8672.36
13845.2
22088.8
35592.9
58341.1
97481.4
165445
282932
482883
816717
1.36483e+06
2.25393e+06
3.68349e+06
5.96625e+06
9.59088e+06
1.53216e+07
2.40689e+07
3.82926e+07
6.07866e+07
9.67739e+07
1.548e+08
1.28962e+08
7.60287e+07
4.41764e+07
2.50689e+07
1.37822e+07
7.28173e+06
3.67207e+06
1.7549e+06
792834
349680
115753
18131.4
1128.85
34.2068
0.577209
0.00673953
8.07797e-05
1.56563e-06
6.86242e-08
1.18796e-08
-1.49164e-10
3.04685e-09
-5.34804e-11
7.75459e-10
4.11321e-12
2.00306e-10
6.50062e-12
1.9424e-11
-4.19417e-11
-3.85379e-11
3.03388e-12
-4.15304e-11
3.78527e-13
6.34364e-12
6.22764e-12
1.29627e-14
-4.18611e-11
6.15549e-12
-3.8851e-18
3.04764e-12
5.469e-12
2.17407e-06
2.17407e-06
4.37507e-11
1.95049e-10
4.58522e-20
2.17407e-06
2.17442e-06
2.17563e-06
2.17719e-06
-4.08851e-14
6.24164e-09
-1.63539e-13
1.24833e-08
2.19904e-06
2.49662e-08
2.17407e-06
4.99325e-08
1.13697e-06
1.1869e-06
2.99597e-07
5.38128e-06
4.33763e-05
0.000396748
0.00303461
0.0192609
0.102233
0.460042
1.7816
6.02596
18.0462
48.4434
117.85
262.39
539.685
1036.53
1876.95
3236.34
5372.51
8691.33
13877.8
22144.8
35690.2
58512.2
97784.8
165982
283871
484490
819408
1.36926e+06
2.26113e+06
3.69507e+06
5.98473e+06
9.62018e+06
1.53678e+07
2.41406e+07
3.84059e+07
6.09664e+07
9.70624e+07
1.55248e+08
1.28532e+08
7.57696e+07
4.40194e+07
2.49746e+07
1.37266e+07
7.24992e+06
3.6546e+06
1.74578e+06
788416
347709
114372
17833.2
1103
33.2579
0.559089
0.00651979
7.82618e-05
1.55553e-06
6.87406e-08
1.18878e-08
-1.1235e-10
-3.18455e-11
1.54888e-09
-4.658e-11
2.13062e-10
8.66091e-11
1.26568e-11
3.0363e-11
-3.52196e-11
-3.91641e-11
-4.18801e-11
4.14333e-13
-2.42022e-15
1.04022e-13
2.0951e-14
-4.18558e-11
-4.18599e-11
2.95524e-15
-3.57122e-11
2.17408e-06
1.21907e-11
2.17407e-06
2.17417e-06
9.75256e-11
2.29261e-20
2.17446e-06
2.17485e-06
2.1745e-06
1.56039e-09
2.17407e-06
2.17687e-06
2.17407e-06
1.46727e-18
2.18656e-06
2.18784e-06
2.49662e-08
-6.54174e-13
4.99331e-08
4.99325e-08
4.4802e-08
1.38663e-06
5.38128e-06
4.33763e-05
0.000395461
0.00303461
0.0192596
0.102232
0.460042
1.7816
6.02596
18.0462
48.4434
117.85
262.39
539.684
1036.53
1876.95
3236.34
5372.51
8691.33
13877.8
22144.8
35690.2
58512.2
97784.8
165982
283871
484490
819408
1.36926e+06
2.26113e+06
3.69507e+06
5.98473e+06
9.62018e+06
1.53678e+07
2.41406e+07
3.84059e+07
6.09664e+07
9.70624e+07
1.55248e+08
1.28532e+08
7.57696e+07
4.40194e+07
2.49746e+07
1.37266e+07
7.24991e+06
3.6546e+06
1.74578e+06
788415
347708
114372
17833.2
1103
33.2578
0.559087
0.00651969
7.82618e-05
1.55553e-06
9.37102e-08
2.43441e-08
-1.54216e-10
-2.56913e-11
-5.33994e-11
-4.04177e-11
1.37267e-10
7.09421e-11
3.26482e-11
-1.72611e-13
-4.19413e-11
-3.22697e-14
-3.88324e-11
6.56851e-12
6.32266e-12
-3.57132e-11
-4.17978e-11
1.05165e-14
-4.18664e-11
-3.57092e-11
6.15417e-12
2.17407e-06
2.17408e-06
4.87628e-11
2.17417e-06
9.75244e-11
2.17427e-06
-5.11059e-15
2.17407e-06
1.13021e-09
1.56039e-09
2.17719e-06
2.18031e-06
2.18031e-06
1.46727e-18
-1.63539e-13
2.17407e-06
2.49662e-08
-1.17382e-17
2.224e-06
1.08704e-06
1.08704e-06
1.38663e-06
5.33647e-06
4.23892e-05
0.00039617
0.00303781
0.0192721
0.102266
0.460064
1.78121
6.02317
18.0337
48.3996
117.721
262.055
538.906
1034.88
1873.68
3230.24
5361.6
8672.36
13845.2
22088.8
35592.9
58341.1
97481.4
165445
282932
482884
816718
1.36483e+06
2.25393e+06
3.68349e+06
5.96626e+06
9.59089e+06
1.53216e+07
2.40689e+07
3.82926e+07
6.07866e+07
9.67739e+07
1.548e+08
1.28962e+08
7.60285e+07
4.41763e+07
2.50689e+07
1.37822e+07
7.28171e+06
3.67206e+06
1.75489e+06
792831
349679
115752
18131.3
1128.84
34.2066
0.577204
0.00673954
8.07299e-05
1.56306e-06
6.86214e-08
2.43358e-08
3.29235e-09
-3.21046e-11
8.13052e-10
3.4527e-10
-4.39073e-11
-8.9697e-13
2.76343e-11
-1.15039e-11
-3.64727e-11
-3.23962e-14
7.50766e-12
-3.49561e-11
3.78527e-13
1.04016e-13
6.18002e-12
-4.18665e-11
6.16601e-12
-4.18634e-11
7.40184e-16
3.04768e-12
-1.59708e-16
2.17407e-06
2.17407e-06
2.17417e-06
2.17427e-06
3.90097e-10
4.30189e-10
1.83409e-19
2.17407e-06
3.12078e-09
-4.08844e-14
2.17407e-06
2.17407e-06
-1.63539e-13
2.19904e-06
2.93454e-18
2.2401e-08
4.99325e-08
1.10944e-06
-4.39476e-14
3.99464e-07
4.29424e-06
4.25889e-05
0.000397258
0.00304351
0.0193002
0.102344
0.46014
1.78052
6.01778
18.0091
48.3125
117.461
261.379
537.331
1031.52
1867.04
3217.84
5339.45
8633.84
13779.1
21975.1
35395.5
57994.1
96866.3
164356
281029
479625
811257
1.35584e+06
2.23931e+06
3.65997e+06
5.92869e+06
9.53132e+06
1.52276e+07
2.39231e+07
3.80621e+07
6.04209e+07
9.61872e+07
1.53884e+08
1.29838e+08
7.65566e+07
4.44966e+07
2.52615e+07
1.38958e+07
7.34684e+06
3.70786e+06
1.77362e+06
801936
353714
118576
18763.2
1184.46
36.273
0.617096
0.00722766
8.61628e-05
1.65726e-06
6.83583e-08
1.18547e-08
2.69037e-09
1.37356e-09
1.5548e-09
3.09509e-10
3.88033e-10
4.47306e-11
4.83629e-11
-2.24444e-11
-2.97518e-11
3.32808e-12
-4.18803e-11
3.35944e-13
-3.55437e-11
6.34363e-12
4.23084e-14
6.16713e-12
-4.18545e-11
-3.57109e-11
6.15458e-12
2.17407e-06
2.17407e-06
2.17412e-06
2.17417e-06
9.75244e-11
2.17427e-06
2.17446e-06
4.30189e-10
4.30189e-10
2.17493e-06
2.17719e-06
2.17407e-06
7.33635e-19
2.18656e-06
-1.63539e-13
2.19904e-06
2.49662e-08
4.99331e-08
2.22401e-06
1.11457e-06
9.98662e-08
1.38663e-06
5.38128e-06
4.27886e-05
0.000400343
0.00305341
0.0193446
0.10248
0.460331
1.77975
6.01043
17.974
48.1854
117.078
260.37
534.982
1026.51
1857.1
3199.27
5306.22
8576.01
13679.7
21804.2
35098.9
57472.4
95940.9
162716
278158
474705
803002
1.34223e+06
2.21716e+06
3.62425e+06
5.87159e+06
9.44065e+06
1.50844e+07
2.37008e+07
3.77104e+07
5.98632e+07
9.52937e+07
1.5244e+08
1.31181e+08
7.73668e+07
4.49883e+07
2.55575e+07
1.40706e+07
7.44711e+06
3.76306e+06
1.80254e+06
816049
359930
122859
19771.8
1274.97
39.6837
0.68375
0.00804919
9.53932e-05
1.84074e-06
6.79448e-08
2.42728e-08
2.68039e-09
-6.91775e-11
8.12663e-10
1.26235e-12
1.31036e-10
6.47536e-11
-9.23235e-12
1.94194e-11
1.15457e-11
-3.34086e-14
-4.05133e-11
6.91011e-12
1.68403e-13
-4.16769e-11
-4.17716e-11
-3.57017e-11
6.49879e-15
-4.18634e-11
6.15417e-12
3.04768e-12
1.21905e-11
2.17407e-06
2.17417e-06
2.17417e-06
2.17427e-06
2.17446e-06
7.80195e-10
2.17528e-06
1.56039e-09
2.17719e-06
6.2416e-09
2.18031e-06
-1.6354e-13
2.18656e-06
2.19904e-06
2.19904e-06
2.224e-06
2.17407e-06
2.224e-06
1.1869e-06
1.4865e-06
5.48114e-06
4.42751e-05
0.000403029
0.0030687
0.0194109
0.102699
0.460735
1.77923
6.00213
17.931
48.0254
116.589
259.076
531.911
1019.9
1843.92
3174.56
5261.91
8498.83
13547
21576
34702.8
56776.1
94705.5
160526
274321
468119
791933
1.32395e+06
2.18734e+06
3.57608e+06
5.79438e+06
9.31769e+06
1.48896e+07
2.33975e+07
3.72293e+07
5.90986e+07
9.40681e+07
1.50508e+08
1.33027e+08
7.84815e+07
4.56654e+07
2.59654e+07
1.43117e+07
7.58558e+06
3.83937e+06
1.84259e+06
835672
368552
128639
21234.5
1409.82
44.8595
0.786476
0.00932532
0.000109699
2.05839e-06
9.22475e-08
1.73678e-08
3.32229e-09
-2.84774e-11
1.55421e-09
4.25184e-10
3.87944e-10
1.066e-10
2.64687e-11
-2.24515e-11
6.07483e-12
6.06118e-12
-4.18809e-11
6.48986e-12
6.36166e-12
8.43913e-14
4.22906e-14
2.3635e-14
-4.18599e-11
-3.57092e-11
-4.06275e-18
2.17408e-06
2.17408e-06
2.1741e-06
0
9.75244e-11
1.95051e-10
2.15095e-10
4.30189e-10
2.17485e-06
2.17563e-06
2.17719e-06
7.33635e-19
6.24164e-09
1.46727e-18
1.24833e-08
2.93454e-18
2.19904e-06
2.224e-06
2.22401e-06
2.224e-06
1.08704e-06
1.38663e-06
5.58101e-06
4.47745e-05
0.000405847
0.00308969
0.0195097
0.103036
0.461486
1.7794
5.99414
17.8833
47.8383
116
257.489
528.087
1011.67
1827.49
3143.68
5206.43
8402.07
13380.6
21290
34206.7
55904.9
93161.5
157790
269526
459883
778081
1.30105e+06
2.14994e+06
3.51555e+06
5.69714e+06
9.16233e+06
1.46423e+07
2.30101e+07
3.66129e+07
5.81108e+07
9.2486e+07
1.48003e+08
1.3546e+08
7.99502e+07
4.6557e+07
2.65022e+07
1.46288e+07
7.76769e+06
3.93978e+06
1.89534e+06
861588
380108
135965
23257.4
1603.46
52.4784
0.940792
0.0112618
0.000131101
2.40484e-06
1.16294e-07
1.72879e-08
3.27304e-09
3.08463e-09
1.50575e-09
3.89293e-10
-2.22319e-12
-3.66881e-11
2.14457e-11
1.69044e-11
1.82631e-11
-3.57474e-11
-4.0514e-11
-4.11108e-11
1.68273e-13
6.23853e-12
6.15373e-12
-3.57017e-11
1.18363e-14
1.31234e-15
-3.57122e-11
2.17408e-06
-1.59708e-16
2.17412e-06
9.75256e-11
2.17421e-06
1.95051e-10
2.17407e-06
2.17407e-06
2.17528e-06
-2.04426e-14
3.12082e-09
2.80009e-09
2.17687e-06
1.24831e-08
2.18096e-06
2.49662e-08
-3.27078e-13
4.99325e-08
4.99331e-08
1.1869e-06
1.1869e-06
4.99331e-07
4.39411e-06
4.53737e-05
0.00041124
0.00311908
0.0196469
0.103534
0.462759
1.78085
5.9882
17.8355
47.6352
115.338
255.668
523.692
1001.89
1807.86
3106.6
5139.55
8285.09
13179.1
20943.6
33606.5
54852.7
91300.8
154499
263772
450014
761494
1.27363e+06
2.10514e+06
3.44295e+06
5.58013e+06
8.97442e+06
1.4341e+07
2.25336e+07
3.58363e+07
5.68907e+07
9.05327e+07
1.44884e+08
1.38492e+08
8.17733e+07
4.76623e+07
2.71679e+07
1.50226e+07
7.99442e+06
4.06518e+06
1.9615e+06
894298
394710
144899
25974.5
1877.2
63.6032
1.17209
0.0142037
0.000163518
2.88167e-06
1.39989e-07
1.85256e-08
3.29884e-09
1.36806e-09
8.53136e-10
7.80973e-10
-2.30823e-12
5.14382e-12
7.59438e-12
3.03407e-11
1.21062e-11
3.32447e-12
-4.02014e-11
6.90956e-12
-3.5544e-11
1.03894e-13
4.22629e-14
-3.57017e-11
6.15944e-12
1.61738e-15
-4.31764e-18
2.17408e-06
2.17408e-06
-6.3883e-16
9.75256e-11
-1.27766e-15
0
2.17429e-06
2.17407e-06
-1.02213e-14
1.56039e-09
2.17719e-06
2.17407e-06
2.17407e-06
2.17407e-06
1.24833e-08
2.17407e-06
2.19904e-06
2.17407e-06
2.22401e-06
1.08704e-06
1.08703e-06
4.99329e-07
5.58101e-06
4.63723e-05
0.000416944
0.00315856
0.0198361
0.104253
0.464782
1.78435
5.9865
17.793
47.4282
114.625
253.65
518.736
990.9
1785.26
3063.33
5060.88
8146.74
12939.9
20531.3
32891.2
53598.9
89087.5
150600
256991
438475
742305
1.24234e+06
2.05489e+06