/*--------------------------------*- C++ -*----------------------------------*\
  =========                 |
  \\      /  F ield         | OpenFOAM: The Open Source CFD Toolbox
   \\    /   O peration     | Website:  https://openfoam.org
    \\  /    A nd           | Version:  8
     \\/     M anipulation  |
\*---------------------------------------------------------------------------*/
FoamFile
{
    version     2.0;
    format      ascii;
    class       volScalarField;
    location    "0.35/fluid";
    object      rho;
}
// * * * * * * * * * * * * * * * * * * * * * * * * * * * * * * * * * * * * * //

dimensions      [1 -3 0 0 0 0 0];

internalField   nonuniform List<scalar> 
4000
(
0.658526
0.658499
0.658454
0.658379
0.658254
0.658046
0.657704
0.657145
0.656242
0.654805
0.652553
0.649097
0.643926
0.636419
0.625914
0.611834
0.593865
0.572131
0.547257
0.520282
0.492427
0.464843
0.438424
0.413743
0.391081
0.370497
0.351911
0.335165
0.320074
0.306442
0.294083
0.282836
0.272562
0.263146
0.25449
0.246497
0.239062
0.232124
0.225631
0.21954
0.213815
0.208422
0.203334
0.19853
0.193987
0.189691
0.185625
0.181778
0.178139
0.174698
0.171449
0.168388
0.165512
0.162826
0.160337
0.158064
0.15604
0.154346
0.153059
0.152282
0.152314
0.153615
0.157052
0.163678
0.172886
0.184496
0.198576
0.215374
0.23531
0.258991
0.28724
0.321145
0.362112
0.412038
0.473222
0.547908
0.637328
0.740033
0.849734
0.954763
1.04208
1.1043
1.14275
1.16384
1.17447
1.17957
1.18193
1.18299
1.18346
1.18367
1.18376
1.18379
1.18381
1.18382
1.18382
1.18382
1.18382
1.18382
1.18382
1.18382
0.658526
0.658499
0.658455
0.65838
0.658254
0.658046
0.657703
0.657144
0.656242
0.654807
0.652565
0.649134
0.644013
0.636597
0.62624
0.612374
0.594682
0.573258
0.548686
0.521956
0.494259
0.466735
0.44029
0.41552
0.392728
0.371995
0.353255
0.336365
0.321135
0.307367
0.294888
0.283536
0.27317
0.263672
0.254943
0.246887
0.239397
0.232409
0.225872
0.219742
0.213981
0.208556
0.203439
0.198608
0.194042
0.189724
0.185639
0.181775
0.17812
0.174665
0.171405
0.168333
0.16545
0.162757
0.160265
0.157992
0.155974
0.154299
0.153036
0.152304
0.152413
0.15385
0.157538
0.164387
0.173826
0.185698
0.20009
0.217275
0.237703
0.262018
0.291093
0.326079
0.368467
0.420266
0.483826
0.5613
0.653563
0.758343
0.868187
0.970707
1.05357
1.1112
1.14629
1.16547
1.17517
1.17985
1.18204
1.18303
1.18348
1.18367
1.18376
1.1838
1.18381
1.18382
1.18382
1.18382
1.18382
1.18382
1.18382
1.18382
0.658526
0.658499
0.658454
0.658379
0.658254
0.658045
0.657702
0.657141
0.656238
0.654805
0.652568
0.649151
0.644063
0.636708
0.626455
0.612745
0.595262
0.574087
0.549776
0.523284
0.495772
0.468363
0.441962
0.417174
0.394318
0.373492
0.354645
0.337639
0.322283
0.3084
0.295814
0.284361
0.273902
0.264318
0.255511
0.247384
0.23983
0.232783
0.226192
0.220012
0.214204
0.208736
0.20358
0.198712
0.194112
0.189763
0.185649
0.181759
0.17808
0.174605
0.171325
0.168238
0.165342
0.16264
0.160143
0.157872
0.155863
0.154219
0.152996
0.152337
0.152574
0.154237
0.15834
0.165554
0.175362
0.187643
0.202513
0.220274
0.241412
0.266612
0.296799
0.33318
0.377313
0.431276
0.497366
0.577484
0.671932
0.777536
0.885978
0.984861
1.0631
1.1167
1.14909
1.16679
1.17575
1.1801
1.18214
1.18308
1.1835
1.18368
1.18376
1.1838
1.18381
1.18382
1.18382
1.18382
1.18382
1.18382
1.18382
1.18382
0.658526
0.658499
0.658455
0.65838
0.658255
0.658047
0.657705
0.657148
0.656251
0.654829
0.652614
0.649233
0.644203
0.636939
0.626814
0.613275
0.595999
0.575049
0.550955
0.524645
0.49726
0.469916
0.443521
0.418693
0.395766
0.374848
0.355904
0.338784
0.323326
0.309347
0.296668
0.285128
0.274588
0.264928
0.256049
0.247858
0.240244
0.233142
0.226499
0.220269
0.214415
0.208904
0.203707
0.198801
0.194165
0.189782
0.185638
0.181719
0.178014
0.174516
0.171216
0.168111
0.165202
0.162491
0.15999
0.157724
0.155732
0.154129
0.15293
0.152367
0.152764
0.154701
0.159311
0.166965
0.177212
0.189971
0.205391
0.223805
0.245735
0.271907
0.303291
0.341145
0.387102
0.443287
0.511927
0.594657
0.691216
0.797556
0.904544
0.999795
1.0734
1.12287
1.15237
1.1684
1.1765
1.18044
1.18229
1.18314
1.18352
1.18369
1.18377
1.1838
1.18381
1.18382
1.18382
1.18382
1.18382
1.18382
1.18382
1.18382
0.658526
0.6585
0.658455
0.658381
0.658256
0.65805
0.65771
0.657157
0.656267
0.654858
0.652663
0.649315
0.644338
0.637152
0.62714
0.613747
0.596646
0.575886
0.551974
0.525817
0.498539
0.471249
0.444859
0.419997
0.397007
0.376013
0.356974
0.339767
0.324223
0.31016
0.297402
0.285789
0.275179
0.265454
0.256513
0.248265
0.240599
0.233447
0.226757
0.220483
0.214587
0.209035
0.203801
0.198858
0.194189
0.189774
0.1856
0.181654
0.177924
0.174403
0.171084
0.167962
0.16504
0.16232
0.159818
0.157558
0.155583
0.154014
0.15287
0.152405
0.152969
0.155197
0.160346
0.168466
0.179177
0.192437
0.208427
0.227514
0.250251
0.277405
0.309989
0.349308
0.397067
0.455412
0.526473
0.611583
0.709887
0.816496
0.921625
1.01314
1.08237
1.12814
1.15516
1.16976
1.17714
1.18073
1.18242
1.1832
1.18355
1.1837
1.18377
1.1838
1.18381
1.18382
1.18382
1.18382
1.18382
1.18382
1.18382
1.18382
0.658526
0.6585
0.658456
0.658382
0.658258
0.658054
0.657717
0.657169
0.656288
0.654892
0.652721
0.64941
0.644487
0.637381
0.627475
0.614218
0.597273
0.576676
0.552914
0.526877
0.499675
0.472417
0.446018
0.421116
0.398065
0.377
0.35788
0.340593
0.324973
0.310837
0.298011
0.286334
0.275665
0.265883
0.25689
0.248593
0.240882
0.233688
0.226957
0.220644
0.214711
0.209124
0.203855
0.198881
0.194182
0.189739
0.185538
0.181567
0.177815
0.174273
0.170936
0.1678
0.164866
0.162141
0.159638
0.157385
0.155433
0.153898
0.152814
0.152449
0.153179
0.155699
0.161381
0.169963
0.181131
0.194884
0.211433
0.231175
0.254696
0.282799
0.316538
0.357263
0.406751
0.467147
0.540476
0.62776
0.727564
0.834225
0.93743
1.02538
1.09058
1.133
1.15776
1.17106
1.17776
1.18101
1.18254
1.18325
1.18357
1.18371
1.18377
1.1838
1.18381
1.18382
1.18382
1.18382
1.18382
1.18382
1.18382
1.18382
0.658526
0.6585
0.658456
0.658383
0.658261
0.658058
0.657724
0.657181
0.656309
0.654927
0.652777
0.6495
0.644627
0.637592
0.627781
0.614642
0.597832
0.577374
0.553739
0.5278
0.500658
0.473421
0.447008
0.422065
0.398958
0.37782
0.358632
0.341276
0.325589
0.311391
0.298506
0.286774
0.276053
0.266224
0.257186
0.248848
0.241098
0.233867
0.227101
0.220755
0.21479
0.209173
0.203875
0.198874
0.194148
0.189681
0.185457
0.181464
0.177693
0.174134
0.170782
0.167634
0.164691
0.161962
0.15946
0.157217
0.15529
0.153793
0.15277
0.152505
0.153401
0.156206
0.16239
0.171408
0.183007
0.197224
0.2143
0.234659
0.258919
0.287916
0.322743
0.364793
0.41591
0.478226
0.553644
0.642873
0.743913
0.850391
0.951589
1.03614
1.09769
1.13716
1.15998
1.17216
1.17828
1.18125
1.18265
1.1833
1.18359
1.18372
1.18378
1.1838
1.18381
1.18382
1.18382
1.18382
1.18382
1.18382
1.18382
1.18382
0.658526
0.6585
0.658457
0.658384
0.658263
0.658062
0.657731
0.657193
0.656329
0.65496
0.652831
0.649585
0.644758
0.637788
0.628062
0.615026
0.598333
0.577993
0.554462
0.528601
0.501505
0.474278
0.447846
0.422863
0.399704
0.378504
0.359253
0.341836
0.32609
0.311837
0.298902
0.287122
0.276358
0.266488
0.257411
0.249038
0.241256
0.233994
0.227198
0.220824
0.214832
0.209189
0.203867
0.198842
0.194094
0.189606
0.185363
0.181352
0.177565
0.173991
0.170627
0.16747
0.164522
0.16179
0.159293
0.157061
0.155165
0.153707
0.15275
0.152593
0.153673
0.156806
0.1634
0.172793
0.184775
0.199412
0.21697
0.237896
0.262837
0.29266
0.328493
0.371771
0.424395
0.488478
0.565791
0.656739
0.758786
0.864925
0.964148
1.04557
1.10387
1.14076
1.1619
1.17312
1.17874
1.18146
1.18275
1.18334
1.18361
1.18373
1.18378
1.1838
1.18381
1.18382
1.18382
1.18382
1.18382
1.18382
1.18382
1.18382
0.658526
0.658501
0.658458
0.658385
0.658265
0.658066
0.657738
0.657204
0.656348
0.654991
0.65288
0.649662
0.644877
0.637962
0.62831
0.615364
0.59877
0.578529
0.555086
0.529288
0.502226
0.475003
0.448551
0.423529
0.400317
0.379065
0.359759
0.342289
0.326493
0.312193
0.299214
0.287394
0.276593
0.266688
0.257579
0.249176
0.241366
0.234078
0.227258
0.220859
0.214845
0.20918
0.203838
0.198794
0.194027
0.189522
0.185263
0.181238
0.177437
0.173852
0.170479
0.167314
0.164362
0.161631
0.159139
0.156921
0.155058
0.15364
0.152752
0.152708
0.153982
0.157466
0.164388
0.174097
0.186413
0.201423
0.219413
0.240853
0.266412
0.296987
0.333737
0.37814
0.432142
0.497829
0.576844
0.669294
0.772144
0.877829
0.975143
1.05372
1.10915
1.14382
1.16353
1.17393
1.17913
1.18164
1.18283
1.18338
1.18363
1.18374
1.18378
1.18381
1.18381
1.18382
1.18382
1.18382
1.18382
1.18382
1.18382
1.18382
0.658526
0.658501
0.658458
0.658387
0.658267
0.658069
0.657744
0.657215
0.656365
0.655019
0.652924
0.649731
0.644981
0.638116
0.628527
0.615658
0.599149
0.578991
0.555618
0.529872
0.502834
0.475612
0.449139
0.424084
0.400826
0.379525
0.36017
0.342653
0.326814
0.312473
0.299457
0.287603
0.27677
0.266836
0.2577
0.249272
0.241439
0.234129
0.227288
0.22087
0.214837
0.209154
0.203795
0.198735
0.193953
0.189434
0.185161
0.181124
0.177313
0.173719
0.170339
0.16717
0.164215
0.161486
0.159001
0.156796
0.154965
0.153587
0.152762
0.152826
0.154282
0.158098
0.165303
0.175287
0.187897
0.203238
0.221614
0.243514
0.269629
0.300881
0.338457
0.383879
0.439125
0.506252
0.586778
0.680527
0.784005
0.889168
0.98469
1.06071
1.11364
1.14641
1.1649
1.17461
1.17946
1.1818
1.1829
1.18341
1.18364
1.18374
1.18379
1.18381
1.18382
1.18382
1.18382
1.18382
1.18382
1.18382
1.18382
1.18382
0.658526
0.658501
0.658459
0.658388
0.658269
0.658072
0.657749
0.657224
0.65638
0.655043
0.652963
0.649791
0.645072
0.638249
0.628715
0.61591
0.599471
0.579383
0.556068
0.530362
0.503343
0.476117
0.449623
0.424534
0.401239
0.379896
0.3605
0.342944
0.327067
0.312692
0.299644
0.287761
0.276902
0.266944
0.257785
0.249336
0.241484
0.234155
0.227297
0.220863
0.214814
0.209117
0.203744
0.198671
0.193877
0.189346
0.185063
0.181017
0.177197
0.173596
0.17021
0.167038
0.164082
0.161355
0.158876
0.156684
0.154883
0.15354
0.152774
0.152933
0.154553
0.158666
0.166121
0.176349
0.189219
0.204853
0.223571
0.245879
0.272489
0.304344
0.342658
0.388992
0.445348
0.513755
0.595608
0.690471
0.794433
0.89904
0.992908
1.06666
1.11743
1.14858
1.16606
1.17519
1.17973
1.18193
1.18296
1.18344
1.18365
1.18375
1.18379
1.18381
1.18382
1.18382
1.18382
1.18382
1.18382
1.18382
1.18382
1.18382
0.658526
0.658501
0.658459
0.658388
0.65827
0.658075
0.657754
0.657232
0.656393
0.655064
0.652996
0.649843
0.64515
0.638362
0.628874
0.616123
0.599743
0.579712
0.556445
0.530771
0.503765
0.476535
0.450023
0.424904
0.401574
0.380196
0.360764
0.343173
0.327264
0.312861
0.299786
0.28788
0.276998
0.26702
0.257842
0.249376
0.241508
0.234164
0.227292
0.220845
0.214783
0.209074
0.20369
0.198606
0.193802
0.189262
0.184971
0.180917
0.177091
0.173485
0.170095
0.16692
0.163964
0.161239
0.158767
0.156586
0.154811
0.153499
0.152784
0.153028
0.154791
0.159167
0.166841
0.177284
0.190382
0.206274
0.225292
0.24796
0.275004
0.30739
0.346356
0.393497
0.450833
0.520364
0.603371
0.699179
0.803507
0.907556
0.999927
1.0717
1.12062
1.1504
1.16702
1.17566
1.17996
1.18203
1.18301
1.18346
1.18366
1.18375
1.18379
1.18381
1.18382
1.18382
1.18382
1.18382
1.18382
1.18382
1.18382
1.18382
0.658526
0.658501
0.658459
0.658389
0.658272
0.658077
0.657758
0.657238
0.656404
0.655082
0.653024
0.649887
0.645215
0.638458
0.629007
0.616302
0.59997
0.579985
0.556757
0.531107
0.504111
0.476876
0.450347
0.425203
0.401843
0.380434
0.360972
0.343352
0.327417
0.312989
0.299893
0.287966
0.277067
0.267072
0.257879
0.249398
0.241517
0.234162
0.227278
0.220819
0.214748
0.209029
0.203635
0.198543
0.193731
0.189184
0.184887
0.180827
0.176996
0.173387
0.169994
0.166818
0.163863
0.16114
0.158673
0.156503
0.154751
0.153462
0.152792
0.153108
0.154997
0.159603
0.16747
0.178099
0.191396
0.207511
0.22679
0.249768
0.27719
0.310039
0.349571
0.397417
0.455607
0.526114
0.610114
0.706715
0.811316
0.914828
1.00587
1.07593
1.12327
1.15191
1.16781
1.17606
1.18015
1.18212
1.18305
1.18348
1.18367
1.18376
1.18379
1.18381
1.18382
1.18382
1.18382
1.18382
1.18382
1.18382
1.18382
1.18382
0.658526
0.658502
0.65846
0.65839
0.658273
0.658079
0.657761
0.657244
0.656413
0.655097
0.653048
0.649923
0.64527
0.638536
0.629117
0.616448
0.600156
0.580208
0.55701
0.53138
0.504391
0.477149
0.450605
0.42544
0.402056
0.380621
0.361134
0.343491
0.327534
0.313086
0.299972
0.288029
0.277114
0.267106
0.2579
0.249409
0.241517
0.234151
0.227258
0.220791
0.214711
0.208985
0.203584
0.198485
0.193667
0.189115
0.184812
0.180748
0.176914
0.173302
0.169908
0.166731
0.163778
0.161059
0.158599
0.156441
0.154715
0.153416
0.152789
0.153173
0.155172
0.159979
0.168013
0.178802
0.192268
0.208573
0.228073
0.251318
0.279064
0.312309
0.352327
0.40078
0.459702
0.531043
0.615885
0.713146
0.817946
0.920961
1.01084
1.07944
1.12547
1.15316
1.16847
1.17639
1.18031
1.1822
1.18308
1.18349
1.18368
1.18376
1.18379
1.18381
1.18382
1.18382
1.18382
1.18382
1.18382
1.18382
1.18382
1.18382
0.658526
0.658502
0.65846
0.65839
0.658274
0.658081
0.657764
0.657249
0.65642
0.655109
0.653067
0.649953
0.645314
0.638601
0.629206
0.616567
0.600306
0.580388
0.557214
0.531599
0.504614
0.477367
0.45081
0.425627
0.402222
0.380766
0.361259
0.343596
0.327622
0.313158
0.300029
0.288073
0.277147
0.267127
0.257912
0.249411
0.241511
0.234137
0.227237
0.220763
0.214676
0.208944
0.203538
0.198433
0.193611
0.189054
0.184748
0.180681
0.176844
0.17323
0.169835
0.166659
0.163706
0.160991
0.158536
0.156386
0.154672
0.153387
0.152791
0.153228
0.15532
0.160295
0.168469
0.179392
0.193
0.209465
0.229152
0.25262
0.280637
0.314215
0.354643
0.403607
0.463146
0.535187
0.620731
0.718532
0.823476
0.926046
1.01494
1.08232
1.12726
1.15417
1.169
1.17665
1.18043
1.18225
1.18311
1.1835
1.18368
1.18376
1.1838
1.18381
1.18382
1.18382
1.18382
1.18382
1.18382
1.18382
1.18382
1.18382
0.658526
0.658502
0.65846
0.658391
0.658275
0.658082
0.657766
0.657252
0.656427
0.655119
0.653083
0.649976
0.64535
0.638652
0.629277
0.616661
0.600425
0.58053
0.557375
0.531771
0.504789
0.477538
0.450969
0.425771
0.40235
0.380877
0.361353
0.343675
0.327686
0.31321
0.30007
0.288103
0.277168
0.267139
0.257916
0.249408
0.241502
0.234122
0.227216
0.220737
0.214645
0.208908
0.203497
0.198389
0.193563
0.189002
0.184694
0.180624
0.176786
0.17317
0.169775
0.166599
0.163648
0.160934
0.158484
0.15634
0.154634
0.153364
0.152794
0.153274
0.15544
0.160552
0.16884
0.179873
0.193597
0.210192
0.230032
0.253682
0.281922
0.315773
0.356537
0.40592
0.465965
0.538578
0.624692
0.722926
0.827973
0.930165
1.01824
1.08463
1.12869
1.15497
1.16942
1.17686
1.18054
1.1823
1.18313
1.18351
1.18369
1.18376
1.1838
1.18381
1.18382
1.18382
1.18382
1.18382
1.18382
1.18382
1.18382
1.18382
0.658527
0.658502
0.65846
0.658391
0.658275
0.658083
0.657768
0.657255
0.656431
0.655126
0.653095
0.649995
0.645377
0.638691
0.629331
0.616733
0.600516
0.580638
0.557497
0.531901
0.504921
0.477665
0.451088
0.425879
0.402445
0.380959
0.361422
0.343732
0.327733
0.313247
0.300098
0.288124
0.277181
0.267146
0.257917
0.249404
0.241492
0.234108
0.227197
0.220714
0.214618
0.208878
0.203464
0.198352
0.193524
0.188961
0.18465
0.180579
0.176739
0.173123
0.169727
0.166551
0.1636
0.160889
0.158441
0.156302
0.154605
0.153347
0.152797
0.15331
0.155534
0.160752
0.169129
0.180248
0.194064
0.210762
0.230721
0.254516
0.28293
0.316997
0.358025
0.407739
0.468182
0.541245
0.627804
0.726372
0.83149
0.933376
1.0208
1.08642
1.1298
1.15559
1.16975
1.17702
1.18061
1.18234
1.18315
1.18352
1.18369
1.18376
1.1838
1.18381
1.18382
1.18382
1.18382
1.18382
1.18382
1.18382
1.18382
1.18382
0.658527
0.658502
0.658461
0.658391
0.658276
0.658084
0.657769
0.657257
0.656435
0.655132
0.653103
0.650008
0.645396
0.638719
0.629371
0.616785
0.600581
0.580716
0.557584
0.531994
0.505015
0.477756
0.451173
0.425955
0.402512
0.381016
0.36147
0.343772
0.327765
0.313272
0.300116
0.288136
0.277188
0.267149
0.257916
0.249399
0.241483
0.234096
0.227182
0.220696
0.214598
0.208855
0.203438
0.198325
0.193494
0.18893
0.184617
0.180545
0.176704
0.173087
0.16969
0.166515
0.163565
0.160854
0.158409
0.156274
0.154582
0.153334
0.152799
0.153337
0.155602
0.160899
0.169341
0.180524
0.194407
0.211181
0.231229
0.25513
0.283674
0.3179
0.359124
0.409082
0.46982
0.543213
0.630098
0.728908
0.834072
0.935727
1.02268
1.08773
1.13061
1.15605
1.16999
1.17714
1.18067
1.18237
1.18316
1.18353
1.18369
1.18376
1.1838
1.18381
1.18382
1.18382
1.18382
1.18382
1.18382
1.18382
1.18382
1.18382
0.658527
0.658502
0.658461
0.658391
0.658276
0.658085
0.65777
0.657259
0.656437
0.655135
0.653109
0.650016
0.645409
0.638738
0.629396
0.616819
0.600623
0.580766
0.557641
0.532054
0.505076
0.477815
0.451227
0.426004
0.402555
0.381052
0.361501
0.343797
0.327785
0.313287
0.300127
0.288144
0.277193
0.26715
0.257914
0.249395
0.241477
0.234087
0.227171
0.220683
0.214584
0.208839
0.203421
0.198306
0.193474
0.188909
0.184595
0.180522
0.17668
0.173063
0.169666
0.166491
0.163541
0.160832
0.158388
0.156256
0.154568
0.153326
0.152801
0.153354
0.155647
0.160995
0.16948
0.180705
0.194632
0.211456
0.231563
0.255534
0.284164
0.318494
0.359848
0.409966
0.470897
0.544507
0.631603
0.730566
0.835754
0.937251
1.02389
1.08857
1.13113
1.15635
1.17015
1.17722
1.18071
1.18238
1.18317
1.18353
1.18369
1.18377
1.1838
1.18381
1.18382
1.18382
1.18382
1.18382
1.18382
1.18382
1.18382
1.18382
0.658527
0.658502
0.658461
0.658392
0.658276
0.658085
0.657771
0.657259
0.656438
0.655137
0.653112
0.650021
0.645415
0.638746
0.629408
0.616834
0.600643
0.58079
0.557667
0.532083
0.505104
0.477842
0.451253
0.426027
0.402575
0.38107
0.361515
0.343809
0.327794
0.313294
0.300133
0.288147
0.277194
0.267151
0.257913
0.249392
0.241474
0.234083
0.227166
0.220677
0.214577
0.208831
0.203412
0.198297
0.193464
0.188898
0.184584
0.180511
0.176669
0.173051
0.169654
0.166479
0.16353
0.160821
0.158378
0.156247
0.15456
0.153321
0.152801
0.153363
0.155669
0.161042
0.169549
0.180794
0.194743
0.211591
0.231727
0.255732
0.284403
0.318784
0.3602
0.410396
0.471419
0.545131
0.632327
0.731359
0.836553
0.93797
1.02446
1.08897
1.13138
1.15649
1.17022
1.17726
1.18073
1.18239
1.18317
1.18353
1.18369
1.18377
1.1838
1.18381
1.18382
1.18382
1.18382
1.18382
1.18382
1.18382
1.18382
1.18382
0.658527
0.658502
0.658461
0.658392
0.658276
0.658085
0.657771
0.657259
0.656438
0.655137
0.653112
0.650021
0.645415
0.638746
0.629408
0.616834
0.600643
0.58079
0.557667
0.532083
0.505104
0.477842
0.451253
0.426027
0.402575
0.38107
0.361515
0.343809
0.327794
0.313294
0.300133
0.288147
0.277194
0.267151
0.257913
0.249392
0.241474
0.234083
0.227166
0.220677
0.214577
0.208831
0.203412
0.198297
0.193464
0.188898
0.184584
0.180511
0.176669
0.173051
0.169654
0.166479
0.16353
0.160821
0.158378
0.156247
0.15456
0.153321
0.152801
0.153363
0.155669
0.161042
0.169549
0.180794
0.194743
0.211591
0.231727
0.255732
0.284403
0.318784
0.3602
0.410396
0.47142
0.545131
0.632327
0.73136
0.836553
0.93797
1.02446
1.08897
1.13138
1.15649
1.17022
1.17726
1.18073
1.18239
1.18317
1.18353
1.18369
1.18377
1.1838
1.18381
1.18382
1.18382
1.18382
1.18382
1.18382
1.18382
1.18382
1.18382
0.658527
0.658502
0.658461
0.658391
0.658276
0.658085
0.65777
0.657259
0.656437
0.655135
0.653109
0.650016
0.645409
0.638738
0.629396
0.616819
0.600623
0.580766
0.557641
0.532054
0.505076
0.477815
0.451227
0.426004
0.402555
0.381052
0.361501
0.343797
0.327785
0.313287
0.300127
0.288144
0.277193
0.26715
0.257914
0.249395
0.241477
0.234087
0.227171
0.220683
0.214584
0.208839
0.203421
0.198306
0.193474
0.188909
0.184595
0.180522
0.17668
0.173063
0.169666
0.166491
0.163541
0.160832
0.158388
0.156256
0.154568
0.153326
0.152801
0.153354
0.155647
0.160995
0.16948
0.180705
0.194632
0.211456
0.231563
0.255534
0.284164
0.318494
0.359848
0.409966
0.470897
0.544507
0.631603
0.730567
0.835754
0.937251
1.02389
1.08857
1.13113
1.15635
1.17015
1.17722
1.18071
1.18238
1.18317
1.18353
1.18369
1.18377
1.1838
1.18381
1.18382
1.18382
1.18382
1.18382
1.18382
1.18382
1.18382
1.18382
0.658527
0.658502
0.658461
0.658391
0.658276
0.658084
0.657769
0.657257
0.656435
0.655132
0.653103
0.650008
0.645396
0.638719
0.629371
0.616785
0.600581
0.580716
0.557584
0.531994
0.505015
0.477756
0.451173
0.425955
0.402512
0.381016
0.36147
0.343772
0.327765
0.313272
0.300116
0.288136
0.277188
0.267149
0.257916
0.249399
0.241483
0.234096
0.227182
0.220696
0.214598
0.208855
0.203438
0.198325
0.193494
0.18893
0.184617
0.180545
0.176704
0.173087
0.16969
0.166515
0.163565
0.160854
0.158409
0.156274
0.154582
0.153334
0.152799
0.153337
0.155602
0.160899
0.169341
0.180524
0.194407
0.211181
0.231229
0.25513
0.283675
0.3179
0.359125
0.409083
0.46982
0.543213
0.630099
0.728908
0.834072
0.935727
1.02268
1.08773
1.13061
1.15605
1.16999
1.17714
1.18067
1.18237
1.18316
1.18353
1.18369
1.18376
1.1838
1.18381
1.18382
1.18382
1.18382
1.18382
1.18382
1.18382
1.18382
1.18382
0.658527
0.658502
0.65846
0.658391
0.658275
0.658083
0.657768
0.657255
0.656431
0.655126
0.653095
0.649995
0.645377
0.638691
0.629331
0.616733
0.600516
0.580638
0.557497
0.531901
0.504921
0.477665
0.451088
0.425879
0.402445
0.380959
0.361422
0.343732
0.327733
0.313247
0.300098
0.288124
0.277181
0.267146
0.257917
0.249404
0.241492
0.234108
0.227197
0.220714
0.214618
0.208878
0.203464
0.198352
0.193524
0.188961
0.18465
0.180579
0.176739
0.173123
0.169727
0.166551
0.1636
0.160889
0.158441
0.156302
0.154605
0.153347
0.152797
0.15331
0.155534
0.160752
0.169129
0.180249
0.194064
0.210762
0.230722
0.254516
0.282931
0.316997
0.358026
0.407739
0.468182
0.541245
0.627804
0.726372
0.831491
0.933377
1.0208
1.08642
1.1298
1.15559
1.16975
1.17702
1.18061
1.18234
1.18315
1.18352
1.18369
1.18376
1.1838
1.18381
1.18382
1.18382
1.18382
1.18382
1.18382
1.18382
1.18382
1.18382
0.658526
0.658502
0.65846
0.658391
0.658275
0.658082
0.657766
0.657252
0.656427
0.655119
0.653083
0.649976
0.64535
0.638652
0.629277
0.616661
0.600425
0.58053
0.557375
0.531771
0.504789
0.477538
0.450969
0.425771
0.40235
0.380877
0.361353
0.343675
0.327686
0.31321
0.30007
0.288103
0.277168
0.267139
0.257916
0.249408
0.241502
0.234122
0.227216
0.220737
0.214645
0.208908
0.203497
0.198389
0.193563
0.189003
0.184694
0.180624
0.176786
0.17317
0.169775
0.166599
0.163648
0.160934
0.158484
0.15634
0.154634
0.153364
0.152794
0.153274
0.15544
0.160552
0.16884
0.179873
0.193597
0.210192
0.230032
0.253683
0.281922
0.315773
0.356537
0.40592
0.465965
0.538579
0.624693
0.722927
0.827974
0.930166
1.01824
1.08463
1.12869
1.15497
1.16942
1.17686
1.18054
1.1823
1.18313
1.18351
1.18369
1.18376
1.1838
1.18381
1.18382
1.18382
1.18382
1.18382
1.18382
1.18382
1.18382
1.18382
0.658526
0.658502
0.65846
0.65839
0.658274
0.658081
0.657764
0.657249
0.65642
0.655109
0.653067
0.649953
0.645314
0.638601
0.629206
0.616567
0.600306
0.580388
0.557215
0.531599
0.504614
0.477368
0.45081
0.425627
0.402223
0.380766
0.361259
0.343596
0.327622
0.313158
0.300029
0.288073
0.277147
0.267127
0.257912
0.249411
0.241511
0.234137
0.227237
0.220763
0.214676
0.208944
0.203538
0.198433
0.193611
0.189054
0.184748
0.180681
0.176844
0.17323
0.169835
0.166659
0.163707
0.160991
0.158537
0.156387
0.154671
0.153386
0.152791
0.153228
0.15532
0.160296
0.168469
0.179393
0.193
0.209465
0.229152
0.25262
0.280637
0.314215
0.354644
0.403607
0.463147
0.535188
0.620732
0.718533
0.823477
0.926047
1.01494
1.08232
1.12726
1.15417
1.169
1.17665
1.18043
1.18225
1.18311
1.1835
1.18368
1.18376
1.1838
1.18381
1.18382
1.18382
1.18382
1.18382
1.18382
1.18382
1.18382
1.18382
0.658526
0.658502
0.65846
0.65839
0.658273
0.658079
0.657761
0.657244
0.656413
0.655097
0.653048
0.649923
0.64527
0.638537
0.629117
0.616448
0.600156
0.580208
0.557011
0.53138
0.504391
0.47715
0.450605
0.42544
0.402056
0.380621
0.361134
0.343491
0.327534
0.313086
0.299972
0.288029
0.277114
0.267106
0.2579
0.249409
0.241517
0.234151
0.227258
0.220791
0.214711
0.208985
0.203584
0.198485
0.193667
0.189115
0.184812
0.180748
0.176914
0.173302
0.169908
0.166731
0.163778
0.161059
0.158599
0.156441
0.154715
0.153416
0.152789
0.153173
0.155172
0.159979
0.168013
0.178802
0.192268
0.208573
0.228074
0.251318
0.279064
0.312309
0.352328
0.40078
0.459703
0.531044
0.615886
0.713147
0.817947
0.920962
1.01084
1.07944
1.12547
1.15316
1.16847
1.17639
1.18031
1.1822
1.18308
1.18349
1.18368
1.18376
1.18379
1.18381
1.18382
1.18382
1.18382
1.18382
1.18382
1.18382
1.18382
1.18382
0.658526
0.658501
0.658459
0.658389
0.658272
0.658077
0.657758
0.657238
0.656404
0.655082
0.653025
0.649887
0.645215
0.638458
0.629007
0.616302
0.59997
0.579985
0.556757
0.531107
0.504111
0.476876
0.450347
0.425203
0.401843
0.380434
0.360972
0.343352
0.327417
0.312989
0.299893
0.287966
0.277067
0.267072
0.257879
0.249398
0.241517
0.234162
0.227278
0.220819
0.214748
0.209029
0.203635
0.198543
0.193732
0.189184
0.184887
0.180827
0.176996
0.173387
0.169994
0.166818
0.163862
0.16114
0.158673
0.156503
0.154752
0.153463
0.152792
0.153108
0.154997
0.159603
0.167471
0.1781
0.191396
0.207511
0.22679
0.249768
0.277191
0.31004
0.349572
0.397418
0.455608
0.526115
0.610116
0.706717
0.811318
0.91483
1.00587
1.07593
1.12327
1.15191
1.16781
1.17606
1.18015
1.18212
1.18305
1.18348
1.18367
1.18376
1.18379
1.18381
1.18382
1.18382
1.18382
1.18382
1.18382
1.18382
1.18382
1.18382
0.658526
0.658501
0.658459
0.658388
0.65827
0.658075
0.657754
0.657232
0.656393
0.655064
0.652996
0.649843
0.64515
0.638362
0.628874
0.616124
0.599744
0.579712
0.556445
0.530771
0.503765
0.476535
0.450023
0.424904
0.401574
0.380196
0.360764
0.343173
0.327264
0.312861
0.299786
0.28788
0.276998
0.26702
0.257842
0.249376
0.241508
0.234164
0.227292
0.220845
0.214783
0.209074
0.20369
0.198606
0.193802
0.189262
0.184971
0.180917
0.177091
0.173485
0.170095
0.16692
0.163964
0.161239
0.158767
0.156586
0.154812
0.153499
0.152784
0.153028
0.154791
0.159167
0.166842
0.177284
0.190383
0.206275
0.225293
0.24796
0.275005
0.307391
0.346357
0.393498
0.450834
0.520366
0.603373
0.699181
0.803509
0.907559
0.999929
1.0717
1.12062
1.1504
1.16702
1.17566
1.17996
1.18203
1.18301
1.18346
1.18366
1.18375
1.18379
1.18381
1.18382
1.18382
1.18382
1.18382
1.18382
1.18382
1.18382
1.18382
0.658526
0.658501
0.658459
0.658388
0.658269
0.658072
0.657749
0.657224
0.65638
0.655043
0.652963
0.649792
0.645072
0.638249
0.628715
0.61591
0.599472
0.579383
0.556069
0.530362
0.503343
0.476117
0.449623
0.424534
0.401239
0.379896
0.360501
0.342944
0.327067
0.312692
0.299644
0.287761
0.276902
0.266944
0.257785
0.249336
0.241484
0.234155
0.227297
0.220863
0.214814
0.209117
0.203744
0.198671
0.193877
0.189346
0.185063
0.181017
0.177197
0.173596
0.17021
0.167038
0.164082
0.161355
0.158876
0.156684
0.154883
0.15354
0.152774
0.152933
0.154553
0.158667
0.166121
0.176349
0.189219
0.204854
0.223572
0.24588
0.27249
0.304345
0.342659
0.388993
0.44535
0.513757
0.59561
0.690473
0.794436
0.899042
0.99291
1.06667
1.11743
1.14858
1.16606
1.17519
1.17973
1.18193
1.18296
1.18344
1.18365
1.18375
1.18379
1.18381
1.18382
1.18382
1.18382
1.18382
1.18382
1.18382
1.18382
1.18382
0.658526
0.658501
0.658458
0.658387
0.658267
0.658069
0.657744
0.657215
0.656365
0.655019
0.652924
0.649731
0.644981
0.638116
0.628528
0.615659
0.599149
0.578991
0.555619
0.529872
0.502835
0.475612
0.449139
0.424084
0.400826
0.379525
0.36017
0.342653
0.326814
0.312473
0.299457
0.287603
0.27677
0.266836
0.2577
0.249272
0.241439
0.234129
0.227288
0.22087
0.214837
0.209154
0.203795
0.198735
0.193953
0.189434
0.185161
0.181124
0.177313
0.173719
0.170339
0.16717
0.164215
0.161486
0.159001
0.156796
0.154965
0.153587
0.152762
0.152826
0.154283
0.158099
0.165303
0.175287
0.187897
0.203238
0.221614
0.243514
0.26963
0.300882
0.338459
0.383881
0.439127
0.506254
0.58678
0.68053
0.784008
0.88917
0.984692
1.06071
1.11364
1.14641
1.16491
1.17461
1.17946
1.1818
1.1829
1.18341
1.18364
1.18374
1.18379
1.18381
1.18382
1.18382
1.18382
1.18382
1.18382
1.18382
1.18382
1.18382
0.658526
0.658501
0.658458
0.658385
0.658265
0.658066
0.657738
0.657204
0.656348
0.654991
0.65288
0.649663
0.644877
0.637962
0.62831
0.615365
0.598771
0.57853
0.555086
0.529288
0.502226
0.475003
0.448551
0.423529
0.400317
0.379065
0.359759
0.342289
0.326493
0.312193
0.299214
0.287394
0.276593
0.266688
0.257579
0.249176
0.241366
0.234078
0.227258
0.220859
0.214845
0.20918
0.203838
0.198794
0.194027
0.189522
0.185263
0.181238
0.177437
0.173852
0.170479
0.167315
0.164362
0.161631
0.15914
0.156921
0.155058
0.153641
0.152752
0.152708
0.153982
0.157466
0.164389
0.174098
0.186413
0.201423
0.219413
0.240853
0.266413
0.296988
0.333738
0.378142
0.432144
0.497831
0.576846
0.669297
0.772147
0.877832
0.975146
1.05372
1.10915
1.14382
1.16353
1.17393
1.17913
1.18164
1.18283
1.18338
1.18363
1.18374
1.18378
1.18381
1.18381
1.18382
1.18382
1.18382
1.18382
1.18382
1.18382
1.18382
0.658526
0.6585
0.658457
0.658384
0.658263
0.658062
0.657731
0.657193
0.656329
0.65496
0.652831
0.649585
0.644759
0.637788
0.628062
0.615027
0.598333
0.577993
0.554462
0.528601
0.501505
0.474278
0.447847
0.422863
0.399704
0.378504
0.359253
0.341836
0.32609
0.311837
0.298902
0.287122
0.276358
0.266488
0.257411
0.249038
0.241256
0.233994
0.227198
0.220824
0.214832
0.209189
0.203867
0.198842
0.194094
0.189606
0.185363
0.181353
0.177565
0.173991
0.170627
0.16747
0.164522
0.16179
0.159293
0.157061
0.155165
0.153707
0.15275
0.152594
0.153673
0.156806
0.163401
0.172794
0.184776
0.199413
0.21697
0.237897
0.262838
0.292661
0.328494
0.371773
0.424397
0.48848
0.565793
0.656742
0.758789
0.864928
0.964151
1.04558
1.10387
1.14076
1.1619
1.17312
1.17874
1.18146
1.18275
1.18334
1.18361
1.18373
1.18378
1.1838
1.18381
1.18382
1.18382
1.18382
1.18382
1.18382
1.18382
1.18382
0.658526
0.6585
0.658456
0.658383
0.658261
0.658058
0.657724
0.657181
0.656309
0.654927
0.652777
0.6495
0.644627
0.637592
0.627781
0.614642
0.597832
0.577374
0.553739
0.5278
0.500659
0.473421
0.447008
0.422066
0.398958
0.37782
0.358632
0.341276
0.325589
0.311391
0.298506
0.286774
0.276053
0.266224
0.257186
0.248848
0.241098
0.233867
0.227101
0.220755
0.21479
0.209173
0.203875
0.198874
0.194148
0.189681
0.185457
0.181464
0.177693
0.174134
0.170782
0.167634
0.164691
0.161962
0.15946
0.157217
0.15529
0.153793
0.15277
0.152505
0.153401
0.156206
0.16239
0.171408
0.183007
0.197224
0.2143
0.23466
0.25892
0.287917
0.322744
0.364795