/*--------------------------------*- C++ -*----------------------------------*\
  =========                 |
  \\      /  F ield         | OpenFOAM: The Open Source CFD Toolbox
   \\    /   O peration     | Website:  https://openfoam.org
    \\  /    A nd           | Version:  8
     \\/     M anipulation  |
\*---------------------------------------------------------------------------*/
FoamFile
{
    version     2.0;
    format      ascii;
    class       volScalarField;
    location    "0.35/fluid";
    object      T;
}
// * * * * * * * * * * * * * * * * * * * * * * * * * * * * * * * * * * * * * //

dimensions      [0 0 0 1 0 0 0];

internalField   nonuniform List<scalar> 
4000
(
293.004
293.017
293.039
293.076
293.138
293.241
293.41
293.688
294.136
294.854
295.985
297.738
300.402
304.356
310.07
318.081
328.939
343.131
360.998
382.676
408.084
436.964
468.946
503.624
540.609
579.567
620.224
662.368
705.867
750.61
796.461
843.33
891.126
939.746
989.068
1039.02
1089.65
1140.84
1192.51
1244.56
1296.88
1349.36
1401.9
1454.4
1506.73
1558.79
1610.46
1661.63
1712.18
1761.98
1810.91
1858.81
1905.5
1950.76
1994.26
2035.56
2073.98
2108
2136.27
2157.41
2166.58
2157.23
2118.34
2040.18
1938.41
1822.61
1698.9
1571.27
1442.41
1314.21
1188.1
1065.29
946.933
833.944
727.554
629.477
541.98
467.354
407.428
362.877
332.638
313.992
303.478
298.005
295.321
294.051
293.467
293.204
293.088
293.038
293.016
293.007
293.003
293.001
293
293
293
293
293
293
293.004
293.017
293.039
293.076
293.138
293.241
293.411
293.688
294.137
294.853
295.979
297.72
300.357
304.261
309.89
317.766
328.429
342.365
359.921
381.253
406.308
434.85
466.531
500.955
537.741
576.554
617.119
659.239
702.754
747.481
793.357
840.286
888.173
936.91
986.374
1036.48
1087.27
1138.65
1190.52
1242.77
1295.31
1348.02
1400.79
1453.52
1506.08
1558.38
1610.28
1661.68
1712.45
1762.47
1811.6
1859.69
1906.56
1951.96
1995.58
2036.95
2075.36
2109.15
2137.12
2157.65
2165.75
2154.52
2112.39
2031.96
1928.49
1811.36
1686.56
1558
1428.34
1299.43
1172.74
1049.5
930.873
817.846
711.786
614.607
528.633
456.155
398.825
356.951
329.029
312.05
302.546
297.591
295.148
293.982
293.44
293.194
293.084
293.036
293.015
293.006
293.003
293.001
293
293
293
293
293
293
293.004
293.017
293.039
293.076
293.138
293.242
293.412
293.69
294.138
294.854
295.978
297.711
300.331
304.202
309.771
317.55
328.068
341.803
359.103
380.132
404.852
433.047
464.388
498.495
534.997
573.566
613.937
655.915
699.272
743.922
789.76
836.69
884.616
933.43
983.008
1033.26
1084.22
1135.8
1187.89
1240.4
1293.21
1346.21
1399.3
1452.35
1505.26
1557.89
1610.15
1661.9
1713.01
1763.37
1812.83
1861.22
1908.37
1954.01
1997.81
2039.28
2077.68
2111.08
2138.58
2158.13
2164.42
2150.09
2102.65
2018.57
1912.48
1793.43
1667.17
1537.52
1407.06
1277.63
1150.71
1027.57
909.417
797.273
692.656
597.565
514.31
444.979
390.868
351.851
326.095
310.522
301.813
297.257
295.001
293.919
293.414
293.183
293.08
293.034
293.015
293.006
293.003
293.001
293
293
293
293
293
293
293.004
293.017
293.039
293.076
293.138
293.241
293.41
293.686
294.132
294.842
295.954
297.669
300.258
304.079
309.572
317.242
327.61
341.153
358.222
378.99
403.43
431.341
462.405
496.253
532.519
570.879
611.085
652.875
696.114
740.676
786.457
833.364
881.302
930.165
979.83
1030.2
1081.31
1133.07
1185.38
1238.14
1291.22
1344.53
1397.95
1451.35
1504.63
1557.65
1610.3
1662.44
1713.95
1764.69
1814.52
1863.26
1910.72
1956.62
2000.61
2042.14
2080.42
2113.25
2140.72
2158.9
2162.93
2144.8
2090.97
2002.61
1893.57
1772.43
1644.71
1514.08
1383.03
1253.39
1126.63
1004.03
886.79
775.976
673.189
580.481
500.082
433.89
382.896
346.626
322.982
308.826
300.957
296.85
294.814
293.836
293.378
293.168
293.074
293.032
293.014
293.006
293.002
293.001
293
293
293
293
293
293
293.004
293.017
293.039
293.076
293.137
293.239
293.407
293.682
294.124
294.827
295.93
297.627
300.188
303.965
309.392
316.968
327.21
340.59
357.464
378.011
402.215
429.887
460.718
494.346
530.411
568.595
608.624
650.287
693.423
737.907
783.636
830.52
878.465
927.369
977.11
1027.58
1078.82
1130.75
1183.27
1236.26
1289.61
1343.22
1396.96
1450.71
1504.35
1557.75
1610.79
1663.32
1715.23
1766.37
1816.57
1865.67
1913.44
1959.61
2003.77
2045.36
2083.53
2115.99
2142.75
2159.58
2161.26
2139.17
2078.66
1985.9
1873.87
1750.7
1621.65
1490.21
1358.79
1229.17
1102.81
981.002
864.881
755.602
654.804
564.572
487.038
423.897
375.844
342.086
320.32
307.389
300.234
296.504
294.655
293.764
293.346
293.154
293.068
293.029
293.013
293.005
293.002
293.001
293
293
293
293
293
293
293.004
293.017
293.039
293.075
293.136
293.237
293.404
293.676
294.114
294.81
295.901
297.579
300.111
303.843
309.207
316.695
326.822
340.061
356.769
377.132
401.143
428.622
459.267
492.722
528.631
566.684
606.587
648.147
691.201
735.625
781.317
828.188
876.148
925.094
974.908
1025.48
1076.85
1128.94
1181.64
1234.85
1288.45
1342.33
1396.38
1450.45
1504.43
1558.19
1611.6
1664.51
1716.79
1768.3
1818.86
1868.29
1916.36
1962.76
2007.09
2048.72
2086.68
2118.74
2144.73
2160.17
2159.5
2133.46
2066.48
1969.49
1854.66
1729.66
1599.45
1467.37
1335.75
1206.3
1080.47
959.545
844.598
736.874
638.029
550.16
475.299
414.95
369.546
338.026
317.92
306.078
299.563
296.179
294.502
293.695
293.315
293.141
293.062
293.027
293.012
293.005
293.002
293.001
293
293
293
293
293
293
293.004
293.017
293.038
293.074
293.135
293.235
293.401
293.67
294.103
294.793
295.872
297.533
300.038
303.731
309.038
316.45
326.477
339.594
356.16
376.369
400.22
427.54
458.035
491.353
527.141
565.076
604.893
646.382
689.381
733.768
779.443
826.316
874.301
923.296
973.185
1023.86
1075.35
1127.58
1180.46
1233.88
1287.71
1341.85
1396.17
1450.54
1504.83
1558.91
1612.66
1665.91
1718.54
1770.38
1821.26
1870.99
1919.31
1965.92
2010.37
2052.01
2089.69
2121.31
2146.49
2160.52
2157.51
2127.63
2054.7
1953.9
1836.59
1710
1578.83
1446.28
1314.56
1185.37
1060.12
940.08
826.279
720.02
623.017
537.344
464.934
407.115
364.08
334.532
315.871
304.963
298.993
295.901
294.371
293.635
293.288
293.129
293.057
293.025
293.011
293.004
293.002
293.001
293
293
293
293
293
293
293.004
293.017
293.038
293.074
293.134
293.233
293.397
293.664
294.093
294.776
295.845
297.49
299.97
303.627
308.884
316.228
326.169
339.181
355.629
375.709
399.428
426.621
456.996
490.207
525.904
563.758
603.509
644.947
687.912
732.28
777.951
824.84
872.859
921.909
971.875
1022.64
1074.25
1126.63
1179.67
1233.27
1287.32
1341.69
1396.25
1450.89
1505.46
1559.84
1613.88
1667.44
1720.37
1772.5
1823.66
1873.64
1922.18
1968.95
2013.48
2055.08
2092.4
2123.52
2147.81
2160.31
2154.72
2120.51
2042.96
1939.14
1819.85
1692
1560.09
1427.21
1295.49
1166.6
1041.94
922.734
809.999
705.096
609.782
526.1
455.89
400.319
359.365
331.531
314.112
304.004
298.5
295.661
294.257
293.582
293.265
293.118
293.052
293.023
293.01
293.004
293.002
293.001
293
293
293
293
293
293
293.004
293.016
293.038
293.073
293.133
293.231
293.394
293.658
294.084
294.761
295.82
297.45
299.909
303.534
308.747
316.033
325.9
338.824
355.172
375.145
398.757
425.845
456.126
489.253
524.874
562.672
602.38
643.787
686.734
731.097
776.778
823.692
871.751
920.861
970.904
1021.77
1073.49
1126
1179.19
1232.97
1287.2
1341.77
1396.56
1451.43
1506.25
1560.89
1615.19
1669.01
1722.2
1774.59
1825.98
1876.17
1924.89
1971.78
2016.34
2057.86
2094.77
2125.38
2148.73
2159.63
2151.32
2112.52
2031.54
1925.42
1804.61
1675.78
1543.33
1410.22
1278.56
1149.99
1025.88
907.45
795.687
692.012
598.217
516.316
448.062
394.472
355.337
328.982
312.625
303.196
298.085
295.458
294.161
293.537
293.244
293.109
293.048
293.021
293.009
293.004
293.002
293.001
293
293
293
293
293
293
293.004
293.016
293.037
293.073
293.132
293.23
293.391
293.653
294.076
294.747
295.798
297.415
299.854
303.453
308.628
315.863
325.668
338.518
354.782
374.667
398.191
425.198
455.404
488.469
524.036
561.792
601.47
642.86
685.8
730.168
775.867
822.811
870.916
920.084
970.203
1021.16
1072.98
1125.61
1178.95
1232.87
1287.27
1342.03
1397.01
1452.09
1507.13
1561.98
1616.51
1670.56
1723.97
1776.57
1828.17
1878.54
1927.39
1974.37
2018.95
2060.36
2096.84
2126.96
2149.42
2158.8
2147.95
2104.86
2021.06
1913.06
1791.01
1661.41
1528.52
1395.27
1263.71
1135.45
1011.85
894.103
783.215
680.637
588.192
507.867
441.333
389.474
351.912
326.826
311.371
302.515
297.735
295.286
294.079
293.5
293.227
293.102
293.045
293.02
293.008
293.004
293.002
293.001
293
293
293
293
293
293
293.004
293.016
293.037
293.072
293.131
293.228
293.388
293.649
294.068
294.735
295.779
297.385
299.807
303.382
308.525
315.718
325.471
338.258
354.453
374.267
397.72
424.659
454.807
487.821
523.351
561.08
600.74
642.122
685.065
729.445
775.167
822.145
870.295
919.522
969.713
1020.75
1072.67
1125.41
1178.87
1232.93
1287.48
1342.39
1397.55
1452.81
1508.03
1563.08
1617.8
1672.04
1725.64
1778.42
1830.18
1880.69
1929.66
1976.71
2021.29
2062.62
2098.7
2128.35
2150
2158.02
2144.91
2098.02
2011.76
1902.15
1779.06
1648.81
1515.59
1382.24
1250.78
1122.81
999.678
882.539
772.424
670.814
579.559
500.615
435.582
385.225
349.016
325.011
310.32
301.945
297.442
295.143
294.011
293.468
293.213
293.095
293.042
293.018
293.008
293.003
293.001
293.001
293
293
293
293
293
293
293.004
293.016
293.037
293.072
293.13
293.227
293.386
293.645
294.062
294.724
295.762
297.358
299.767
303.322
308.438
315.596
325.304
338.04
354.179
373.934
397.33
424.218
454.321
487.298
522.8
560.51
600.161
641.542
684.492
728.889
774.636
821.649
869.844
919.126
969.383
1020.5
1072.5
1125.35
1178.91
1233.09
1287.77
1342.82
1398.12
1453.54
1508.92
1564.13
1619.01
1673.41
1727.17
1780.09
1831.99
1882.62
1931.68
1978.78
2023.35
2064.59
2100.31
2129.56
2150.5
2157.33
2142.24
2092.03
2003.64
1892.64
1768.67
1637.89
1504.4
1370.98
1239.63
1111.93
989.204
872.595
763.159
662.395
572.176
494.432
430.699
381.633
346.58
323.491
309.442
301.47
297.199
295.023
293.954
293.441
293.201
293.09
293.04
293.017
293.007
293.003
293.001
293.001
293
293
293
293
293
293
293.004
293.016
293.037
293.071
293.129
293.226
293.384
293.641
294.056
294.715
295.748
297.336
299.733
303.272
308.365
315.494
325.166
337.86
353.953
373.66
397.011
423.858
453.927
486.877
522.36
560.058
599.705
641.09
684.05
728.465
774.238
821.285
869.522
918.856
969.172
1020.36
1072.44
1125.37
1179.03
1233.31
1288.1
1343.27
1398.7
1454.24
1509.75
1565.1
1620.11
1674.65
1728.53
1781.57
1833.57
1884.29
1933.42
1980.55
2025.12
2066.28
2101.69
2130.64
2150.97
2156.76
2139.94
2086.83
1996.61
1884.43
1759.71
1628.5
1494.8
1361.34
1230.1
1102.63
980.27
864.12
755.273
655.24
565.915
489.203
426.583
378.618
344.544
322.227
308.714
301.077
296.997
294.924
293.907
293.419
293.191
293.085
293.038
293.016
293.007
293.003
293.001
293.001
293
293
293
293
293
293
293.004
293.016
293.037
293.071
293.129
293.225
293.382
293.639
294.052
294.708
295.736
297.318
299.705
303.23
308.305
315.409
325.052
337.712
353.768
373.438
396.753
423.568
453.61
486.54
522.011
559.702
599.349
640.74
683.713
728.147
773.945
821.023
869.299
918.678
969.047
1020.29
1072.44
1125.44
1179.18
1233.56
1288.44
1343.71
1399.24
1454.89
1510.51
1565.97
1621.09
1675.73
1729.71
1782.85
1834.93
1885.71
1934.87
1982.01
2026.52
2067.53
2102.53
2131.91
2151.57
2156.37
2138.01
2082.38
1990.58
1877.42
1752.09
1620.52
1486.66
1353.18
1222.05
1094.79
972.74
856.981
748.638
649.228
560.663
484.829
423.15
376.113
342.86
321.184
308.115
300.754
296.831
294.843
293.868
293.401
293.182
293.082
293.036
293.016
293.007
293.003
293.001
293.001
293
293
293
293
293
293
293.004
293.016
293.036
293.071
293.128
293.224
293.381
293.636
294.048
294.702
295.726
297.302
299.682
303.196
308.256
315.341
324.96
337.593
353.62
373.26
396.548
423.338
453.361
486.277
521.738
559.427
599.076
640.474
683.46
727.911
773.732
820.839
869.148
918.567
968.981
1020.28
1072.48
1125.55
1179.36
1233.8
1288.77
1344.12
1399.73
1455.47
1511.18
1566.73
1621.94
1676.66
1730.72
1783.93
1836.07
1886.9
1936.09
1983.23
2027.7
2068.63
2103.49
2132.75
2151.98
2156.02
2136.39
2078.65
1985.54
1871.56
1745.73
1613.88
1479.89
1346.41
1215.36
1088.29
966.501
851.07
743.147
644.259
556.329
481.224
420.328
374.06
341.484
320.334
307.628
300.492
296.697
294.777
293.837
293.387
293.176
293.079
293.035
293.015
293.007
293.003
293.001
293
293
293
293
293
293
293
293.004
293.016
293.036
293.071
293.128
293.223
293.38
293.634
294.045
294.697
295.718
297.29
299.664
303.169
308.217
315.287
324.888
337.5
353.504
373.121
396.387
423.16
453.168
486.074
521.53
559.218
598.87
640.276
683.273
727.74
773.581
820.712
869.05
918.502
968.954
1020.29
1072.55
1125.66
1179.53
1234.03
1289.06
1344.48
1400.16
1455.97
1511.76
1567.37
1622.65
1677.44
1731.57
1784.83
1837.02
1887.89
1937.1
1984.24
2028.69
2069.57
2104.33
2133.41
2152.28
2155.71
2135.06
2075.63
1981.47
1866.82
1740.58
1608.51
1474.42
1340.93
1209.96
1083.03
961.457
846.293
738.713
640.249
552.835
478.323
418.061
372.414
340.383
319.656
307.241
300.283
296.591
294.725
293.812
293.375
293.17
293.076
293.034
293.015
293.006
293.003
293.001
293
293
293
293
293
293
293
293.004
293.016
293.036
293.071
293.128
293.223
293.379
293.633
294.042
294.693
295.712
297.281
299.65
303.148
308.187
315.246
324.833
337.429
353.415
373.016
396.266
423.025
453.023
485.922
521.375
559.063
598.719
640.132
683.139
727.619
773.476
820.627
868.989
918.467
968.95
1020.32
1072.61
1125.77
1179.68
1234.23
1289.31
1344.78
1400.52
1456.38
1512.22
1567.89
1623.23
1678.07
1732.24
1785.55
1837.78
1888.68
1937.92
1985.06
2029.5
2070.33
2105.01
2133.91
2152.5
2155.45
2134.02
2073.28
1978.3
1863.13
1736.57
1604.32
1470.15
1336.66
1205.75
1078.93
957.531
842.575
735.261
637.13
550.121
476.072
416.305
371.141
339.531
319.132
306.941
300.122
296.508
294.685
293.792
293.366
293.166
293.074
293.033
293.014
293.006
293.003
293.001
293
293
293
293
293
293
293
293.004
293.016
293.036
293.07
293.128
293.222
293.378
293.632
294.041
294.69
295.708
297.274
299.64
303.133
308.166
315.216
324.793
337.377
353.352
372.94
396.179
422.929
452.92
485.815
521.266
558.954
598.614
640.032
683.047
727.537
773.407
820.573
868.952
918.451
968.956
1020.35
1072.67
1125.86
1179.8
1234.39
1289.5
1345.01
1400.79
1456.69
1512.57
1568.28
1623.66
1678.54
1732.75
1786.09
1838.35
1889.27
1938.52
1985.67
2030.1
2070.9
2105.5
2134.29
2152.66
2155.27
2133.26
2071.57
1975.98
1860.43
1733.64
1601.25
1467.03
1333.53
1202.66
1075.93
954.652
839.85
732.731
634.847
548.136
474.429
415.025
370.214
338.912
318.75
306.722
300.004
296.447
294.655
293.778
293.359
293.163
293.073
293.032
293.014
293.006
293.003
293.001
293
293
293
293
293
293
293
293.004
293.016
293.036
293.07
293.127
293.222
293.378
293.631
294.04
294.689
295.705
297.27
299.633
303.123
308.152
315.197
324.767
337.344
353.311
372.892
396.124
422.868
452.854
485.746
521.196
558.886
598.547
639.969
682.99
727.487
773.366
820.542
868.933
918.445
968.965
1020.38
1072.72
1125.92
1179.89
1234.5
1289.63
1345.17
1400.97
1456.9
1512.81
1568.54
1623.95
1678.85
1733.09
1786.45
1838.73
1889.67
1938.93
1986.08
2030.5
2071.28
2105.83
2134.53
2152.77
2155.14
2132.76
2070.44
1974.46
1858.66
1731.72
1599.25
1464.98
1331.48
1200.64
1073.97
952.768
838.067
731.077
633.355
546.842
473.36
414.196
369.616
338.514
318.504
306.58
299.927
296.408
294.635
293.769
293.355
293.161
293.072
293.032
293.014
293.006
293.003
293.001
293
293
293
293
293
293
293
293.004
293.016
293.036
293.07
293.127
293.222
293.378
293.631
294.039
294.688
295.704
297.268
299.63
303.119
308.145
315.188
324.755
337.329
353.291
372.869
396.098
422.839
452.823
485.714
521.163
558.853
598.516
639.94
682.963
727.464
773.347
820.528
868.924
918.443
968.971
1020.39
1072.74
1125.95
1179.93
1234.55
1289.7
1345.25
1401.06
1457
1512.93
1568.67
1624.09
1679.01
1733.25
1786.63
1838.92
1889.86
1939.13
1986.28
2030.7
2071.46
2105.99
2134.65
2152.82
2155.08
2132.51
2069.89
1973.71
1857.79
1730.78
1598.26
1463.98
1330.48
1199.66
1073.01
951.851
837.202
730.277
632.637
546.222
472.851
413.803
369.334
338.327
318.39
306.514
299.891
296.39
294.626
293.764
293.353
293.16
293.072
293.032
293.014
293.006
293.003
293.001
293
293
293
293
293
293
293
293.004
293.016
293.036
293.07
293.127
293.222
293.378
293.631
294.039
294.688
295.704
297.268
299.63
303.119
308.145
315.188
324.755
337.329
353.291
372.869
396.098
422.839
452.823
485.714
521.163
558.853
598.516
639.94
682.963
727.464
773.347
820.528
868.924
918.443
968.971
1020.39
1072.74
1125.95
1179.93
1234.55
1289.7
1345.25
1401.06
1457
1512.93
1568.67
1624.09
1679.01
1733.25
1786.63
1838.92
1889.86
1939.13
1986.28
2030.7
2071.46
2105.99
2134.65
2152.82
2155.08
2132.51
2069.89
1973.71
1857.79
1730.78
1598.26
1463.98
1330.48
1199.66
1073.01
951.851
837.202
730.277
632.637
546.222
472.851
413.803
369.334
338.327
318.39
306.514
299.891
296.39
294.626
293.764
293.353
293.16
293.072
293.032
293.014
293.006
293.003
293.001
293
293
293
293
293
293
293
293.004
293.016
293.036
293.07
293.127
293.222
293.378
293.631
294.04
294.689
295.705
297.27
299.633
303.123
308.152
315.197
324.767
337.344
353.311
372.892
396.124
422.868
452.854
485.746
521.196
558.886
598.547
639.969
682.99
727.487
773.366
820.542
868.933
918.445
968.965
1020.38
1072.72
1125.92
1179.89
1234.5
1289.63
1345.17
1400.97
1456.9
1512.81
1568.54
1623.95
1678.85
1733.09
1786.45
1838.73
1889.67
1938.93
1986.08
2030.5
2071.28
2105.83
2134.53
2152.77
2155.14
2132.76
2070.44
1974.46
1858.66
1731.72
1599.25
1464.98
1331.48
1200.64
1073.97
952.767
838.067
731.076
633.355
546.842
473.36
414.195
369.615
338.513
318.504
306.58
299.927
296.408
294.635
293.769
293.355
293.161
293.072
293.032
293.014
293.006
293.003
293.001
293
293
293
293
293
293
293
293.004
293.016
293.036
293.07
293.128
293.222
293.378
293.632
294.041
294.69
295.708
297.274
299.64
303.133
308.166
315.216
324.793
337.377
353.352
372.94
396.179
422.929
452.92
485.815
521.265
558.954
598.614
640.032
683.047
727.537
773.407
820.573
868.952
918.451
968.956
1020.35
1072.67
1125.86
1179.8
1234.39
1289.5
1345.01
1400.79
1456.69
1512.57
1568.28
1623.66
1678.54
1732.75
1786.09
1838.35
1889.27
1938.52
1985.67
2030.1
2070.9
2105.5
2134.29
2152.66
2155.27
2133.26
2071.57
1975.98
1860.43
1733.64
1601.25
1467.03
1333.53
1202.66
1075.93
954.652
839.849
732.731
634.846
548.136
474.429
415.025
370.214
338.912
318.75
306.722
300.004
296.447
294.655
293.778
293.359
293.163
293.073
293.032
293.014
293.006
293.003
293.001
293
293
293
293
293
293
293
293.004
293.016
293.036
293.071
293.128
293.223
293.379
293.633
294.042
294.693
295.712
297.281
299.65
303.148
308.187
315.246
324.833
337.428
353.415
373.016
396.266
423.025
453.023
485.922
521.375
559.063
598.719
640.132
683.139
727.619
773.476
820.627
868.989
918.467
968.95
1020.32
1072.61
1125.77
1179.68
1234.23
1289.31
1344.78
1400.52
1456.38
1512.22
1567.89
1623.23
1678.07
1732.24
1785.55
1837.78
1888.68
1937.92
1985.06
2029.5
2070.33
2105.01
2133.91
2152.5
2155.45
2134.02
2073.28
1978.29
1863.13
1736.57
1604.32
1470.15
1336.66
1205.75
1078.93
957.53
842.574
735.261
637.13
550.12
476.072
416.305
371.14
339.531
319.132
306.941
300.122
296.508
294.685
293.792
293.366
293.166
293.074
293.033
293.014
293.006
293.003
293.001
293
293
293
293
293
293
293
293.004
293.016
293.036
293.071
293.128
293.223
293.38
293.634
294.045
294.697
295.718
297.29
299.664
303.169
308.217
315.287
324.888
337.5
353.503
373.121
396.387
423.16
453.168
486.074
521.53
559.218
598.87
640.276
683.273
727.74
773.581
820.712
869.05
918.502
968.954
1020.29
1072.55
1125.66
1179.53
1234.03
1289.06
1344.48
1400.16
1455.97
1511.76
1567.37
1622.65
1677.44
1731.57
1784.83
1837.02
1887.89
1937.1
1984.24
2028.69
2069.57
2104.34
2133.41
2152.28
2155.71
2135.06
2075.63
1981.46
1866.81
1740.58
1608.5
1474.41
1340.93
1209.96
1083.03
961.456
846.292
738.712
640.248
552.834
478.322
418.061
372.414
340.382
319.656
307.241
300.283
296.591
294.725
293.812
293.375
293.17
293.076
293.034
293.015
293.006
293.003
293.001
293
293
293
293
293
293
293
293.004
293.016
293.036
293.071
293.128
293.224
293.381
293.636
294.048
294.702
295.726
297.302
299.682
303.196
308.256
315.341
324.96
337.593
353.62
373.26
396.547
423.338
453.361
486.277
521.738
559.427
599.076
640.474
683.46
727.911
773.732
820.839
869.148
918.567
968.981
1020.28
1072.48
1125.55
1179.36
1233.8
1288.77
1344.12
1399.73
1455.47
1511.18
1566.73
1621.94
1676.66
1730.72
1783.93
1836.07
1886.9
1936.09
1983.22
2027.69
2068.63
2103.5
2132.77
2151.98
2156.02
2136.39
2078.65
1985.54
1871.56
1745.73
1613.88
1479.89
1346.41
1215.36
1088.28
966.499
851.068
743.146
644.258
556.328
481.224
420.328
374.06
341.483
320.334
307.628
300.492
296.697
294.777
293.837
293.387
293.176
293.079
293.035
293.015
293.007
293.003
293.001
293
293
293
293
293
293
293
293.004
293.016
293.037
293.071
293.129
293.225
293.382
293.639
294.052
294.708
295.736
297.317
299.705
303.23
308.305
315.409
325.052
337.712
353.768
373.438
396.753
423.568
453.61
486.54
522.01
559.702
599.349
640.74
683.713
728.147
773.945
821.023
869.299
918.678
969.047
1020.29
1072.44
1125.44
1179.18
1233.56
1288.44
1343.71
1399.24
1454.89
1510.51
1565.97
1621.09
1675.73
1729.71
1782.85
1834.93
1885.71
1934.87
1982.01
2026.52
2067.53
2102.53
2131.91
2151.57
2156.37
2138.01
2082.38
1990.58
1877.42
1752.09
1620.52
1486.66
1353.18
1222.04
1094.79
972.738
856.98
748.636
649.227
560.662
484.828
423.149
376.112
342.859
321.184
308.115
300.753
296.831
294.843
293.868
293.401
293.182
293.082
293.036
293.016
293.007
293.003
293.001
293.001
293
293
293
293
293
293
293.004
293.016
293.037
293.071
293.129
293.226
293.384
293.641
294.056
294.715
295.748
297.336
299.733
303.272
308.365
315.493
325.166
337.86
353.952
373.66
397.011
423.858
453.927
486.877
522.36
560.058
599.705
641.089
684.05
728.465
774.238
821.285
869.522
918.856
969.172
1020.36
1072.44
1125.37
1179.03
1233.31
1288.1
1343.27
1398.7
1454.24
1509.75
1565.1
1620.11
1674.65
1728.53
1781.57
1833.57
1884.29
1933.42
1980.56
2025.12
2066.28
2101.67
2130.62
2150.97
2156.76
2139.94
2086.83
1996.6
1884.43
1759.71
1628.5
1494.8
1361.34
1230.1
1102.63
980.268
864.118
755.271
655.238
565.913
489.202
426.582
378.617
344.544
322.227
308.714
301.076
296.997
294.924
293.907
293.419
293.191
293.085
293.038
293.016
293.007
293.003
293.001
293.001
293
293
293
293
293
293
293.004
293.016
293.037
293.072
293.13
293.227
293.386
293.645
294.062
294.724
295.762
297.358
299.767
303.322
308.438
315.596
325.304
338.04
354.179
373.934
397.33
424.218
454.321
487.298
522.8
560.51
600.161
641.542
684.492
728.889
774.636
821.649
869.844
919.126
969.383
1020.5
1072.5
1125.35
1178.91
1233.09
1287.77
1342.82
1398.12
1453.54
1508.92
1564.13
1619.01
1673.41
1727.17
1780.09
1831.99
1882.62
1931.68
1978.78
2023.36
2064.6
2100.31
2129.56
2150.51
2157.33
2142.24
2092.03
2003.64
1892.64
1768.66
1637.89
1504.4
1370.98
1239.63
1111.92
989.202
872.592
763.157
662.393
572.174
494.431
430.697
381.632
346.579
323.491
309.442
301.47
297.198
295.023
293.954
293.441
293.201
293.09
293.04
293.017
293.007
293.003
293.001
293.001
293
293
293
293
293
293
293.004
293.016
293.037
293.072
293.131
293.228
293.388
293.649
294.068
294.735
295.779
297.384
299.807
303.382
308.525
315.718
325.471
338.258
354.453
374.266
397.719
424.659
454.807
487.821
523.351
561.079
600.74
642.122
685.065
729.445
775.167
822.145
870.295
919.522
969.713
1020.75
1072.67
1125.41
1178.87
1232.93
1287.48
1342.39
1397.55
1452.81
1508.03
1563.08
1617.8
1672.04
1725.64
1778.42
1830.18
1880.69
1929.66
1976.71
2021.29
2062.62
2098.7
2128.35
2150
2158.02
2144.91
2098.02
2011.76
1902.15
1779.05
1648.81
1515.59
1382.24
1250.78
1122.81
999.675
882.536
772.422
670.812
579.557
500.613
435.581
385.224
349.015
325.011
310.32
301.945
297.442
295.143
294.011
293.468
293.213
293.095
293.042
293.018
293.008
293.003
293.001
293.001
293
293
293
293
293
293
293.004
293.016
293.037
293.073
293.132
293.23
293.391
293.653
294.076
294.747
295.798
297.415
299.854
303.453
308.628
315.863
325.668
338.517
354.782
374.667
398.191
425.197
455.404
488.469
524.036
561.792
601.47
642.86
685.8
730.168
775.867
822.811
870.916
920.084
970.203
1021.16
1072.98
1125.61
1178.95
1232.87
1287.27
1342.03
1397.01
1452.09
1507.13
1561.98
1616.51
1670.56
1723.97
1776.57
1828.17
1878.54
1927.39
1974.37
2018.94
2060.36
2096.84
2126.96
2149.42
2158.8
2147.95
2104.86
2021.05
1913.05
1791
1661.4
1528.52
1395.27
1263.7
1135.44
1011.85
894.1
783.212
680.634
588.19
507.865
441.331
389.473
351.911
326.825
311.371
302.514
297.735
295.286
294.079
293.499
293.227
293.102
293.045
293.02
293.008
293.004
293.002
293.001
293
293
293
293
293
293
293.004
293.016
293.038
293.073
293.133
293.231
293.394
293.658
294.084
294.761
295.82
297.45
299.909
303.534
308.747
316.033
325.9
338.824
355.171
375.145
398.756
425.845
456.126
489.252
524.874
562.672
602.379
643.787
686.734
731.097
776.778
823.692
871.751
920.86
970.904
1021.77
1073.49
1126
1179.19
1232.97
1287.2
1341.77
1396.56
1451.43
1506.25
1560.89
1615.19
1669.01
1722.2
1774.59
1825.98
1876.17
1924.89
1971.78
2016.34
2057.86
2094.77
2125.38
2148.73
2159.63
2151.32
2112.52
2031.54
1925.42
1804.61
1675.78
1543.32
1410.22
1278.56
1149.99
1025.88
907.446
795.684
692.01
598.215
516.314
448.06
394.471
355.336
328.982
312.625
303.196
298.085
295.458
294.161
293.537
293.244
293.109
293.048
293.021
293.009
293.004
293.002
293.001
293
293
293
293
293
293
293.004
293.017
293.038
293.074
293.134
293.233
293.397
293.664
294.093
294.776
295.845
297.49
299.97
303.627
308.884
316.228
326.169
339.181
355.628
375.709
399.428
426.62
456.996
490.207
525.904
563.757
603.508
644.947
687.912
732.279
777.951
824.84
872.859
921.909
971.875
1022.64
1074.25
1126.63
1179.67
1233.27
1287.32
1341.69
1396.25
1450.89
1505.46
1559.84
1613.88
1667.44
1720.37
1772.5
1823.66
1873.64
1922.18
1968.95
2013.48
2055.08
2092.4
2123.52
2147.81
2160.31
2154.71
2120.51
2042.96
1939.13
1819.85
1691.99
1560.09
1427.2
1295.49
1166.6
1041.93
922.731
809.996
705.093
609.779
526.097
455.888
400.317
359.364
331.53
314.112
304.004
298.5
295.661
294.257
293.582
293.265
293.118
293.052
293.023
293.01
293.004
293.002
293.001
293
293
293
293
293
293
293.004
293.017
293.038
293.074
293.135
293.235
293.401
293.67
294.103
294.793
295.872
297.533
300.038
303.731
309.038
316.45
326.477
339.594
356.16
376.369
400.22
427.54
458.035
491.353
527.141
565.076
604.893
646.381
689.381
733.768
779.442
826.316
874.301
923.296
973.185
1023.86
1075.35
1127.58
1180.46
1233.88
1287.71
1341.85
1396.17
1450.54
1504.83
1558.91
1612.65
1665.91
1718.54
1770.38
1821.26
1870.99
1919.31
1965.92
2010.37
2052.01
2089.69
2121.3
2146.48
2160.52
2157.51
2127.63
2054.7
1953.89
1836.59
1709.99
1578.83
1446.27
1314.56
1185.37
1060.12
940.076
826.275
720.016
623.014
537.342
464.932
407.113
364.078
334.531
315.87
304.963
298.992
295.901
294.371
293.635
293.288
293.129
293.057
293.025
293.011
293.004
293.002
293.001
293
293
293
293
293
293
293.004
293.017
293.039
293.075
293.136
293.237
293.404
293.676
294.114
294.81
295.901
297.579
300.11
303.843
309.207
316.695
326.822
340.061
356.768
377.132
401.143
428.621
459.266
492.722
528.631
566.683
606.587
648.147
691.201
735.625
781.317
828.188
876.148
925.094
974.908
1025.48
1076.85
1128.94
1181.64
1234.85
1288.45
1342.33
1396.38
1450.45
1504.43
1558.19
1611.59
1664.51
1716.79
1768.3
1818.86
1868.29
1916.36
1962.76
2007.09
2048.72
2086.68
2118.74
2144.73
2160.17
2159.5
2133.46
2066.48
1969.49
1854.66
1729.65
1599.45
1467.37
1335.74
1206.3
1080.46
959.541
844.594
736.87
638.026
550.157
475.297
414.948
369.544
338.025
317.92
306.078
299.563
296.179
294.502
293.695
293.315
293.141
293.062
293.027
293.012
293.005
293.002
293.001
293
293
293
293
293
293
293.004
293.017
293.039
293.076
293.137
293.239
293.407
293.682
294.124
294.827
295.93
297.627
300.188
303.965
309.392
316.968
327.209
340.59
357.464
378.011
402.215
429.886
460.717
494.345
530.41
568.595
608.624
650.287
693.423
737.907
783.636
830.52
878.465
927.369
977.109
1027.58
1078.82
1130.75
1183.27
1236.26
1289.61
1343.22
1396.96
1450.71
1504.35
1557.75
1610.79
1663.32
1715.23
1766.37
1816.57
1865.67
1913.44
1959.61
2003.77
2045.36
2083.53
2115.99
2142.75
2159.58
2161.26
2139.17
2078.66
1985.89
1873.86
1750.7
1621.65
1490.21
1358.79
1229.17
1102.8
980.997
864.877
755.598
654.801
564.568
487.035
423.894
375.842
342.085
320.319
307.389
300.233
296.504
294.654
293.764
293.346
293.154
293.068
293.029
293.013
293.005
293.002
293.001
293
293
293
293
293
293
293.004
293.017
293.039
293.076
293.138
293.241
293.41
293.686
294.132
294.842
295.954
297.669
300.258
304.079
309.572
317.241
327.61
341.153
358.222
378.99
403.429
431.341
462.405
496.253
532.519
570.879
611.085
652.874
696.114
740.676
786.457
833.364
881.302
930.165
979.83
1030.2
1081.31
1133.07
1185.38
1238.14
1291.22
1344.53
1397.95
1451.35
1504.63
1557.65
1610.3
1662.44
1713.95
1764.69
1814.52
1863.26
1910.72
1956.62
2000.61
2042.14
2080.42
2113.25
2140.72
2158.9
2162.92
2144.8
2090.97
2002.61
1893.56
1772.42
1644.71
1514.07
1383.03
1253.39
1126.62
1004.03
886.785
775.972
673.185
580.477
500.079
433.888
382.894
346.624
322.981
308.825
300.957
296.85
294.814
293.836
293.378
293.168
293.074
293.032
293.014
293.006
293.002
293.001
293
293
293
293
293
293
293.004
293.017
293.039
293.076
293.138
293.242
293.412
293.69
294.138
294.854
295.978
297.711
300.331
304.201
309.77
317.55
328.068
341.802
359.102
380.132
404.851
433.046
464.387
498.494
534.996
573.565
613.937
655.914
699.272
743.922
789.76
836.69
884.616
933.43
983.008
1033.26
1084.22
1135.8
1187.89
1240.4
1293.21
1346.21
1399.3
1452.35
1505.26
1557.89
1610.15
1661.9
1713.01
1763.37
1812.83
1861.22
1908.37
1954.01
1997.81
2039.28
2077.68
2111.08
2138.58
2158.13
2164.42
2150.08
2102.64
2018.56
1912.48
1793.42
1667.17
1537.51
1407.05
1277.62
1150.7
1027.57
909.411
797.268
692.651
597.561
514.306
444.976
390.866
351.85
326.094
310.521
301.813
297.257
295.001
293.919
293.414
293.183
293.08
293.034
293.015
293.006
293.003
293.001
293
293
293
293
293
293
293.004
293.017
293.039
293.076
293.138
293.241
293.411
293.688
294.137
294.853
295.979
297.72
300.357
304.261
309.889
317.766
328.429
342.364
359.92
381.253
406.307
434.85
466.531
500.955
537.741
576.553
617.118
659.239
702.754
747.481
793.356
840.286