/*--------------------------------*- C++ -*----------------------------------*\
  =========                 |
  \\      /  F ield         | OpenFOAM: The Open Source CFD Toolbox
   \\    /   O peration     | Website:  https://openfoam.org
    \\  /    A nd           | Version:  8
     \\/     M anipulation  |
\*---------------------------------------------------------------------------*/
FoamFile
{
    version     2.0;
    format      ascii;
    class       volVectorField;
    location    "0.35/fluid";
    object      U;
}
// * * * * * * * * * * * * * * * * * * * * * * * * * * * * * * * * * * * * * //

dimensions      [0 1 -1 0 0 0 0];

internalField   nonuniform List<vector> 
4000
(
(0.099946 -0.00715398 0)
(0.0996294 -0.0212521 0)
(0.0991167 -0.035208 0)
(0.0984083 -0.0490681 0)
(0.0974996 -0.0628555 0)
(0.0963754 -0.0765747 0)
(0.0950163 -0.0902162 0)
(0.0934033 -0.10376 0)
(0.091521 -0.117181 0)
(0.0893615 -0.130447 0)
(0.0869308 -0.143522 0)
(0.0842588 -0.156362 0)
(0.0813968 -0.168982 0)
(0.0784058 -0.181407 0)
(0.0753535 -0.193675 0)
(0.0723043 -0.205842 0)
(0.0693055 -0.217964 0)
(0.0663722 -0.230085 0)
(0.063478 -0.242219 0)
(0.0605564 -0.254341 0)
(0.0575131 -0.266389 0)
(0.054245 -0.278274 0)
(0.0506592 -0.289894 0)
(0.0466861 -0.301147 0)
(0.0422865 -0.31193 0)
(0.0374591 -0.322129 0)
(0.0322239 -0.33169 0)
(0.0266072 -0.340569 0)
(0.0206384 -0.348725 0)
(0.0143488 -0.356124 0)
(0.00777194 -0.362741 0)
(0.000943545 -0.368562 0)
(-0.00610024 -0.373584 0)
(-0.0133256 -0.377809 0)
(-0.0207005 -0.381251 0)
(-0.0281939 -0.383929 0)
(-0.0357775 -0.385867 0)
(-0.043425 -0.387096 0)
(-0.0511114 -0.38765 0)
(-0.0588129 -0.387568 0)
(-0.0665074 -0.386891 0)
(-0.0741739 -0.385663 0)
(-0.0817925 -0.383929 0)
(-0.0893442 -0.381738 0)
(-0.0968107 -0.379138 0)
(-0.104175 -0.376177 0)
(-0.111418 -0.372908 0)
(-0.118526 -0.369381 0)
(-0.125479 -0.365648 0)
(-0.132264 -0.361766 0)
(-0.138862 -0.35779 0)
(-0.145256 -0.35378 0)
(-0.151429 -0.349801 0)
(-0.157359 -0.345923 0)
(-0.163024 -0.342222 0)
(-0.168391 -0.338786 0)
(-0.17341 -0.335712 0)
(-0.178011 -0.333098 0)
(-0.182117 -0.331049 0)
(-0.185608 -0.329689 0)
(-0.188178 -0.329122 0)
(-0.189242 -0.3293 0)
(-0.188065 -0.329865 0)
(-0.184325 -0.330078 0)
(-0.178611 -0.329316 0)
(-0.171698 -0.327327 0)
(-0.16405 -0.324074 0)
(-0.155919 -0.319588 0)
(-0.147466 -0.313917 0)
(-0.138806 -0.307108 0)
(-0.130039 -0.29921 0)
(-0.121254 -0.290274 0)
(-0.112537 -0.280353 0)
(-0.103975 -0.269504 0)
(-0.0956978 -0.257788 0)
(-0.0879193 -0.245299 0)
(-0.0809473 -0.232186 0)
(-0.0751674 -0.218821 0)
(-0.0710064 -0.205781 0)
(-0.0687758 -0.193572 0)
(-0.0684876 -0.182447 0)
(-0.0698346 -0.172312 0)
(-0.0723287 -0.162844 0)
(-0.0754604 -0.1537 0)
(-0.0788069 -0.144637 0)
(-0.0820812 -0.135522 0)
(-0.0851211 -0.126299 0)
(-0.0878448 -0.116951 0)
(-0.090208 -0.107463 0)
(-0.0922199 -0.0979315 0)
(-0.0939121 -0.0883934 0)
(-0.0953212 -0.0788766 0)
(-0.0964832 -0.0694031 0)
(-0.0974308 -0.0599874 0)
(-0.0981936 -0.0506373 0)
(-0.0987974 -0.0413526 0)
(-0.0992641 -0.0321264 0)
(-0.0996104 -0.0229438 0)
(-0.0998471 -0.0137817 0)
(-0.0999828 -0.00460911 0)
(0.100007 -0.00662186 0)
(0.0998051 -0.0198209 0)
(0.0993734 -0.0329393 0)
(0.0986862 -0.0459517 0)
(0.0977477 -0.0588343 0)
(0.0965568 -0.0715607 0)
(0.095106 -0.0841005 0)
(0.093389 -0.0964208 0)
(0.0914052 -0.108489 0)
(0.0891629 -0.120282 0)
(0.0866838 -0.131799 0)
(0.084007 -0.143074 0)
(0.0811858 -0.154112 0)
(0.0782848 -0.164945 0)
(0.0753732 -0.17563 0)
(0.0725151 -0.186246 0)
(0.0697557 -0.196876 0)
(0.0671068 -0.207595 0)
(0.0645378 -0.218444 0)
(0.0619761 -0.229424 0)
(0.0593182 -0.240489 0)
(0.0564494 -0.251556 0)
(0.0532629 -0.26252 0)
(0.049675 -0.273271 0)
(0.0456327 -0.283711 0)
(0.0411129 -0.293774 0)
(0.0361232 -0.303351 0)
(0.0306869 -0.312344 0)
(0.0248354 -0.320685 0)
(0.0186055 -0.328327 0)
(0.0120376 -0.33524 0)
(0.00517317 -0.341407 0)
(-0.0019449 -0.346823 0)
(-0.00927682 -0.351491 0)
(-0.0167867 -0.355421 0)
(-0.0244394 -0.358631 0)
(-0.0322027 -0.361144 0)
(-0.0400476 -0.362988 0)
(-0.0479472 -0.364193 0)
(-0.0558761 -0.364794 0)
(-0.0638109 -0.36483 0)
(-0.0717296 -0.364339 0)
(-0.0796118 -0.363366 0)
(-0.087438 -0.361952 0)
(-0.09519 -0.360145 0)
(-0.10285 -0.357989 0)
(-0.110403 -0.355533 0)
(-0.117831 -0.352827 0)
(-0.12512 -0.349919 0)
(-0.132255 -0.34686 0)
(-0.139223 -0.343704 0)
(-0.146009 -0.340504 0)
(-0.152599 -0.337316 0)
(-0.158979 -0.334197 0)
(-0.165132 -0.331205 0)
(-0.171033 -0.3284 0)
(-0.176636 -0.325834 0)
(-0.181874 -0.323554 0)
(-0.186679 -0.321591 0)
(-0.190916 -0.319956 0)
(-0.194252 -0.318605 0)
(-0.195889 -0.317443 0)
(-0.194967 -0.316116 0)
(-0.191142 -0.314337 0)
(-0.185168 -0.311844 0)
(-0.177942 -0.308456 0)
(-0.169976 -0.304062 0)
(-0.16153 -0.298597 0)
(-0.152753 -0.292026 0)
(-0.143748 -0.28433 0)
(-0.134594 -0.275511 0)
(-0.125361 -0.265587 0)
(-0.116111 -0.254605 0)
(-0.10691 -0.242655 0)
(-0.097891 -0.229909 0)
(-0.0893135 -0.216672 0)
(-0.0815715 -0.203442 0)
(-0.0751638 -0.190739 0)
(-0.070575 -0.178983 0)
(-0.0680776 -0.168493 0)
(-0.0675911 -0.159306 0)
(-0.068736 -0.151154 0)
(-0.0710087 -0.143627 0)
(-0.0739257 -0.136347 0)
(-0.0771004 -0.129063 0)
(-0.0802699 -0.121644 0)
(-0.0832805 -0.114048 0)
(-0.086053 -0.106283 0)
(-0.088555 -0.0983863 0)
(-0.0907642 -0.0902899 0)
(-0.0926873 -0.0820167 0)
(-0.0943379 -0.0736049 0)
(-0.0957348 -0.0650907 0)
(-0.0968985 -0.0565045 0)
(-0.0978501 -0.0478698 0)
(-0.0986094 -0.039204 0)
(-0.0991932 -0.0305179 0)
(-0.0996122 -0.0218171 0)
(-0.0998736 -0.0131024 0)
(-0.0999991 -0.00437227 0)
(0.099977 -0.00636102 0)
(0.0997055 -0.0190105 0)
(0.0991744 -0.03157 0)
(0.0983671 -0.0440181 0)
(0.0972878 -0.0563309 0)
(0.0959382 -0.0684837 0)
(0.0943193 -0.0804506 0)
(0.0924362 -0.0922062 0)
(0.0903014 -0.103727 0)
(0.0879374 -0.114993 0)
(0.0853772 -0.125992 0)
(0.0826623 -0.136724 0)
(0.0798447 -0.147205 0)
(0.076989 -0.157472 0)
(0.0741652 -0.167583 0)
(0.0714381 -0.177612 0)
(0.0688526 -0.187641 0)
(0.0664205 -0.197743 0)
(0.0641107 -0.207963 0)
(0.0618498 -0.218308 0)
(0.059532 -0.228745 0)
(0.0570382 -0.239202 0)
(0.054255 -0.249588 0)
(0.0510907 -0.259798 0)
(0.0474811 -0.269731 0)
(0.0433876 -0.279292 0)
(0.0387964 -0.288401 0)
(0.0337166 -0.296991 0)
(0.028174 -0.305007 0)
(0.0222047 -0.312405 0)
(0.0158501 -0.319152 0)
(0.00915205 -0.325228 0)
(0.00215245 -0.330621 0)
(-0.0051062 -0.335329 0)
(-0.0125852 -0.339358 0)
(-0.0202494 -0.342721 0)
(-0.0280647 -0.345435 0)
(-0.0360006 -0.347522 0)
(-0.0440287 -0.349011 0)
(-0.0521229 -0.349932 0)
(-0.0602587 -0.350317 0)
(-0.0684135 -0.350204 0)
(-0.0765661 -0.34963 0)
(-0.0846972 -0.348635 0)
(-0.0927885 -0.347261 0)
(-0.100823 -0.34555 0)
(-0.108786 -0.343547 0)
(-0.116663 -0.341295 0)
(-0.12444 -0.33884 0)
(-0.132107 -0.336227 0)
(-0.139654 -0.333503 0)
(-0.14707 -0.330714 0)
(-0.154348 -0.327906 0)
(-0.161479 -0.325124 0)
(-0.168451 -0.322409 0)
(-0.175239 -0.3198 0)
(-0.181792 -0.317327 0)
(-0.188034 -0.315007 0)
(-0.193881 -0.312845 0)
(-0.199135 -0.310821 0)
(-0.203325 -0.308861 0)
(-0.205509 -0.306842 0)
(-0.204688 -0.304481 0)
(-0.200638 -0.301597 0)
(-0.194235 -0.29805 0)
(-0.186446 -0.293721 0)
(-0.177835 -0.288519 0)
(-0.168692 -0.282378 0)
(-0.159181 -0.275262 0)
(-0.149408 -0.267161 0)
(-0.139449 -0.258094 0)
(-0.129366 -0.248112 0)
(-0.119217 -0.237304 0)
(-0.109078 -0.225807 0)
(-0.09912 -0.213825 0)
(-0.0896713 -0.20164 0)
(-0.0812169 -0.189615 0)
(-0.0743255 -0.178162 0)
(-0.0694755 -0.167661 0)
(-0.0668578 -0.158332 0)
(-0.0662975 -0.150132 0)
(-0.0673608 -0.142785 0)
(-0.0695345 -0.135921 0)
(-0.0723499 -0.129217 0)
(-0.0754399 -0.122459 0)
(-0.0785547 -0.115536 0)
(-0.0815471 -0.108406 0)
(-0.084343 -0.101065 0)
(-0.0869131 -0.093534 0)
(-0.0892442 -0.0858414 0)
(-0.091328 -0.0780105 0)
(-0.0931641 -0.0700623 0)
(-0.0947581 -0.0620168 0)
(-0.0961194 -0.0538919 0)
(-0.0972591 -0.0457037 0)
(-0.098189 -0.0374656 0)
(-0.0989196 -0.0291884 0)
(-0.099458 -0.0208798 0)
(-0.0998083 -0.0125456 0)
(-0.0999873 -0.00418891 0)
(0.0999843 -0.00599648 0)
(0.0997133 -0.0179225 0)
(0.0991715 -0.0297539 0)
(0.0983406 -0.0414628 0)
(0.0972296 -0.0530214 0)
(0.0958456 -0.0644017 0)
(0.0941944 -0.0755765 0)
(0.0922855 -0.08652 0)
(0.0901342 -0.0972104 0)
(0.0877641 -0.107632 0)
(0.0852085 -0.117777 0)
(0.0825124 -0.127654 0)
(0.0797326 -0.137283 0)
(0.0769359 -0.146707 0)
(0.0741928 -0.155987 0)
(0.0715675 -0.1652 0)
(0.0691044 -0.17443 0)
(0.0668144 -0.183751 0)
(0.0646664 -0.193213 0)
(0.0625863 -0.20283 0)
(0.0604672 -0.212575 0)
(0.0581871 -0.222384 0)
(0.0556285 -0.232175 0)
(0.0526938 -0.241849 0)
(0.0493139 -0.251312 0)
(0.0454486 -0.260471 0)
(0.0410835 -0.269248 0)
(0.0362242 -0.277571 0)
(0.0308916 -0.285385 0)
(0.025116 -0.292643 0)
(0.0189328 -0.299315 0)
(0.0123794 -0.305376 0)
(0.005494 -0.310813 0)
(-0.00168424 -0.315622 0)
(-0.00911804 -0.319806 0)
(-0.0167735 -0.323374 0)
(-0.0246181 -0.32634 0)
(-0.0326217 -0.328723 0)
(-0.0407568 -0.330546 0)
(-0.0489978 -0.331836 0)
(-0.0573206 -0.332622 0)
(-0.0657031 -0.332934 0)
(-0.0741248 -0.332807 0)
(-0.0825667 -0.332277 0)
(-0.0910117 -0.331378 0)
(-0.0994436 -0.33015 0)
(-0.107848 -0.328629 0)
(-0.116211 -0.326856 0)
(-0.124522 -0.324868 0)
(-0.132772 -0.322703 0)
(-0.140951 -0.320401 0)
(-0.149052 -0.317997 0)
(-0.157067 -0.315527 0)
(-0.164986 -0.313022 0)
(-0.172794 -0.31051 0)
(-0.180458 -0.308012 0)
(-0.187911 -0.305542 0)
(-0.195067 -0.3031 0)
(-0.201809 -0.300676 0)
(-0.207864 -0.298235 0)
(-0.212635 -0.295701 0)
(-0.215053 -0.292941 0)
(-0.214048 -0.289738 0)
(-0.209577 -0.285945 0)
(-0.202636 -0.281495 0)
(-0.194211 -0.276323 0)
(-0.184882 -0.270372 0)
(-0.174958 -0.263597 0)
(-0.164625 -0.255975 0)
(-0.154003 -0.247509 0)
(-0.143188 -0.238228 0)
(-0.132261 -0.228195 0)
(-0.121302 -0.217511 0)
(-0.110428 -0.206321 0)
(-0.099868 -0.194834 0)
(-0.090003 -0.18333 0)
(-0.0813408 -0.17216 0)
(-0.0744206 -0.161699 0)
(-0.0696471 -0.152265 0)
(-0.0671205 -0.144001 0)
(-0.0665986 -0.136807 0)
(-0.0676274 -0.130388 0)
(-0.0697086 -0.124388 0)
(-0.0724017 -0.118512 0)
(-0.0753673 -0.112567 0)
(-0.0783753 -0.106453 0)
(-0.0812875 -0.100127 0)
(-0.0840293 -0.0935818 0)
(-0.0865641 -0.0868269 0)
(-0.0888764 -0.0798777 0)
(-0.0909612 -0.0727541 0)
(-0.0928186 -0.0654776 0)
(-0.0944516 -0.0580691 0)
(-0.0958644 -0.0505486 0)
(-0.0970625 -0.0429339 0)
(-0.0980515 -0.0352415 0)
(-0.0988361 -0.0274854 0)
(-0.0994177 -0.019678 0)
(-0.0997964 -0.0118301 0)
(-0.0999886 -0.00395096 0)
(0.0999807 -0.00563919 0)
(0.0996942 -0.0168529 0)
(0.0991274 -0.0279753 0)
(0.0982639 -0.038979 0)
(0.0971147 -0.0498365 0)
(0.0956894 -0.0605209 0)
(0.093997 -0.0710068 0)
(0.09205 -0.0812708 0)
(0.089867 -0.0912931 0)
(0.0874749 -0.10106 0)
(0.0849103 -0.110565 0)
(0.0822208 -0.119815 0)
(0.079465 -0.12883 0)
(0.0767107 -0.137649 0)
(0.0740284 -0.146328 0)
(0.0714822 -0.154938 0)
(0.0691164 -0.163556 0)
(0.0669422 -0.172252 0)
(0.0649289 -0.181075 0)
(0.0630031 -0.190042 0)
(0.0610574 -0.199133 0)
(0.0589682 -0.208297 0)
(0.0566148 -0.21746 0)
(0.0538949 -0.226536 0)
(0.0507337 -0.235438 0)
(0.0470861 -0.244081 0)
(0.0429321 -0.252391 0)
(0.0382732 -0.260303 0)
(0.0331265 -0.267764 0)
(0.0275186 -0.27473 0)
(0.0214817 -0.281171 0)
(0.0150505 -0.287061 0)
(0.00826053 -0.292388 0)
(0.00114757 -0.297145 0)
(-0.00625201 -0.301332 0)
(-0.0139053 -0.304955 0)
(-0.0217825 -0.308025 0)
(-0.0298549 -0.310557 0)
(-0.038096 -0.312571 0)
(-0.0464814 -0.314089 0)
(-0.0549881 -0.315135 0)
(-0.0635949 -0.315737 0)
(-0.0722824 -0.315923 0)
(-0.0810324 -0.315723 0)
(-0.0898282 -0.31517 0)
(-0.098654 -0.314293 0)
(-0.107496 -0.313127 0)
(-0.116342 -0.311703 0)
(-0.125181 -0.310054 0)
(-0.134003 -0.30821 0)
(-0.142798 -0.306202 0)
(-0.151557 -0.304059 0)
(-0.16027 -0.301806 0)
(-0.168922 -0.299466 0)
(-0.177489 -0.297057 0)
(-0.18593 -0.294591 0)
(-0.194158 -0.292071 0)
(-0.202068 -0.289491 0)
(-0.209506 -0.286833 0)
(-0.216137 -0.284058 0)
(-0.221258 -0.281097 0)
(-0.223664 -0.277822 0)
(-0.222284 -0.274047 0)
(-0.217282 -0.269656 0)
(-0.209768 -0.264627 0)
(-0.200723 -0.258935 0)
(-0.190719 -0.252553 0)
(-0.180076 -0.24546 0)
(-0.168993 -0.237653 0)
(-0.157613 -0.22915 0)
(-0.146048 -0.219996 0)
(-0.1344 -0.210264 0)
(-0.122769 -0.200062 0)
(-0.111304 -0.189536 0)
(-0.100275 -0.178889 0)
(-0.0900979 -0.168378 0)
(-0.0812888 -0.158308 0)
(-0.0743618 -0.148987 0)
(-0.0696607 -0.140644 0)
(-0.0672122 -0.133342 0)
(-0.0667242 -0.126938 0)
(-0.0677295 -0.121149 0)
(-0.0697403 -0.115672 0)
(-0.0723371 -0.110263 0)
(-0.0752028 -0.104769 0)
(-0.078124 -0.0991085 0)
(-0.0809725 -0.0932496 0)
(-0.083677 -0.0871867 0)
(-0.0861993 -0.0809278 0)
(-0.0885199 -0.0744872 0)
(-0.0906288 -0.0678818 0)
(-0.092522 -0.0611286 0)
(-0.0941983 -0.054245 0)
(-0.0956587 -0.0472477 0)
(-0.0969051 -0.0401524 0)
(-0.0979401 -0.0329742 0)
(-0.0987655 -0.0257272 0)
(-0.0993803 -0.0184245 0)
(-0.0997823 -0.0110783 0)
(-0.0999872 -0.00370001 0)
(0.0999816 -0.00526597 0)
(0.0996938 -0.0157381 0)
(0.0991228 -0.0261231 0)
(0.0982525 -0.036393 0)
(0.0970954 -0.0465203 0)
(0.0956631 -0.0564787 0)
(0.0939661 -0.0662437 0)
(0.0920186 -0.0757929 0)
(0.0898408 -0.085108 0)
(0.0874606 -0.0941766 0)
(0.0849151 -0.102994 0)
(0.0822523 -0.111568 0)
(0.0795308 -0.119918 0)
(0.076818 -0.128083 0)
(0.0741841 -0.136118 0)
(0.071693 -0.144092 0)
(0.0693895 -0.152079 0)
(0.0672859 -0.160147 0)
(0.0653536 -0.168344 0)
(0.0635207 -0.176689 0)
(0.0616814 -0.185166 0)
(0.0597125 -0.193728 0)
(0.0574918 -0.202309 0)
(0.0549149 -0.210828 0)
(0.0519033 -0.219204 0)
(0.0484077 -0.22736 0)
(0.0444048 -0.235226 0)
(0.0398923 -0.24274 0)
(0.0348828 -0.249852 0)
(0.0293992 -0.256522 0)
(0.0234706 -0.262717 0)
(0.017129 -0.268416 0)
(0.0104065 -0.273603 0)
(0.00333436 -0.27827 0)
(-0.00404853 -0.282416 0)
(-0.0117111 -0.286046 0)
(-0.0196301 -0.289167 0)
(-0.0277764 -0.291792 0)
(-0.0361248 -0.293936 0)
(-0.0446518 -0.295619 0)
(-0.053336 -0.296861 0)
(-0.0621572 -0.297685 0)
(-0.0710967 -0.298114 0)
(-0.0801367 -0.298176 0)
(-0.0892608 -0.297895 0)
(-0.0984538 -0.297299 0)
(-0.107702 -0.296414 0)
(-0.116992 -0.295268 0)
(-0.126313 -0.293886 0)
(-0.135652 -0.292293 0)
(-0.144997 -0.290514 0)
(-0.154337 -0.28857 0)
(-0.163657 -0.286481 0)
(-0.172934 -0.284261 0)
(-0.182137 -0.281924 0)
(-0.191211 -0.279475 0)
(-0.200051 -0.276913 0)
(-0.208532 -0.274228 0)
(-0.216471 -0.271399 0)
(-0.223478 -0.268391 0)
(-0.228751 -0.265138 0)
(-0.230961 -0.26152 0)
(-0.229081 -0.257369 0)
(-0.223489 -0.252602 0)
(-0.215403 -0.247229 0)
(-0.205781 -0.24125 0)
(-0.195175 -0.23466 0)
(-0.183906 -0.227457 0)
(-0.172184 -0.219652 0)
(-0.160169 -0.211275 0)
(-0.14799 -0.202377 0)
(-0.135766 -0.193036 0)
(-0.123618 -0.183354 0)
(-0.111727 -0.173471 0)
(-0.100398 -0.163572 0)
(-0.0900719 -0.153891 0)
(-0.0812685 -0.144697 0)
(-0.0744699 -0.136253 0)
(-0.0699554 -0.128745 0)
(-0.0676792 -0.1222 0)
(-0.0673016 -0.116466 0)
(-0.0683425 -0.111274 0)
(-0.070325 -0.106345 0)
(-0.0728496 -0.101463 0)
(-0.0756206 -0.0964912 0)
(-0.078442 -0.0913576 0)
(-0.0811969 -0.0860323 0)
(-0.0838202 -0.0805093 0)
(-0.0862766 -0.0747947 0)
(-0.088547 -0.0689004 0)
(-0.090621 -0.062841 0)
(-0.0924927 -0.0566324 0)
(-0.0941589 -0.0502904 0)
(-0.095618 -0.0438309 0)
(-0.0968692 -0.0372694 0)
(-0.0979126 -0.0306209 0)
(-0.0987478 -0.0238999 0)
(-0.0993713 -0.0171203 0)
(-0.0997794 -0.0102956 0)
(-0.0999873 -0.00343871 0)
(0.0999811 -0.00489329 0)
(0.0996912 -0.0146244 0)
(0.0991171 -0.0242742 0)
(0.098243 -0.033816 0)
(0.0970822 -0.0432239 0)
(0.095647 -0.052473 0)
(0.0939489 -0.0615403 0)
(0.0920032 -0.0704055 0)
(0.0898309 -0.0790518 0)
(0.0874608 -0.0874679 0)
(0.0849309 -0.0956501 0)
(0.0822896 -0.103605 0)
(0.0795958 -0.111353 0)
(0.0769169 -0.118928 0)
(0.0743232 -0.126382 0)
(0.0718786 -0.133777 0)
(0.0696282 -0.141183 0)
(0.0675852 -0.148664 0)
(0.0657217 -0.156266 0)
(0.0639672 -0.164008 0)
(0.0622162 -0.171877 0)
(0.0603452 -0.179835 0)
(0.0582312 -0.18782 0)
(0.0557672 -0.195762 0)
(0.0528727 -0.203587 0)
(0.0494948 -0.211223 0)
(0.045607 -0.218605 0)
(0.0412039 -0.225677 0)
(0.0362953 -0.232392 0)
(0.0309014 -0.23871 0)
(0.0250484 -0.244603 0)
(0.0187658 -0.250047 0)
(0.0120841 -0.255029 0)
(0.00503376 -0.259538 0)
(-0.00235215 -0.263572 0)
(-0.0100439 -0.267134 0)
(-0.0180162 -0.27023 0)
(-0.026243 -0.27287 0)
(-0.0347006 -0.275066 0)
(-0.043367 -0.276834 0)
(-0.0522214 -0.27819 0)
(-0.0612445 -0.279154 0)
(-0.0704178 -0.279747 0)
(-0.0797239 -0.279989 0)
(-0.0891468 -0.279902 0)
(-0.098671 -0.279508 0)
(-0.108282 -0.27883 0)
(-0.117966 -0.277889 0)
(-0.127708 -0.276707 0)
(-0.137496 -0.275303 0)
(-0.147314 -0.273697 0)
(-0.157146 -0.271905 0)
(-0.166971 -0.269942 0)
(-0.176763 -0.267819 0)
(-0.18648 -0.265545 0)
(-0.196052 -0.263123 0)
(-0.20536 -0.260549 0)
(-0.214263 -0.257811 0)
(-0.22255 -0.254891 0)
(-0.229778 -0.251755 0)
(-0.235054 -0.248336 0)
(-0.236947 -0.244517 0)
(-0.234508 -0.240157 0)
(-0.228331 -0.235215 0)
(-0.219721 -0.229713 0)
(-0.209598 -0.223666 0)
(-0.198485 -0.217081 0)
(-0.186702 -0.209968 0)
(-0.174467 -0.202351 0)
(-0.161951 -0.194266 0)
(-0.149298 -0.185768 0)
(-0.136639 -0.176935 0)
(-0.124113 -0.167866 0)
(-0.111926 -0.158693 0)
(-0.100411 -0.149585 0)
(-0.090025 -0.140755 0)
(-0.0812824 -0.132438 0)
(-0.0746309 -0.124855 0)
(-0.0702916 -0.118143 0)
(-0.068161 -0.112293 0)
(-0.0678677 -0.107141 0)
(-0.0689289 -0.102438 0)
(-0.0708807 -0.0979382 0)
(-0.0733418 -0.0934601 0)
(-0.0760338 -0.0888897 0)
(-0.0787742 -0.0841682 0)
(-0.0814539 -0.0792712 0)
(-0.0840118 -0.0741936 0)
(-0.0864139 -0.0689405 0)
(-0.088641 -0.0635219 0)
(-0.0906816 -0.0579501 0)
(-0.0925289 -0.0522385 0)
(-0.0941781 -0.046401 0)
(-0.0956263 -0.0404514 0)
(-0.0968713 -0.0344039 0)
(-0.0979119 -0.0282723 0)
(-0.0987462 -0.0220703 0)
(-0.0993701 -0.0158114 0)
(-0.0997788 -0.0095089 0)
(-0.0999872 -0.00317592 0)
(0.0999814 -0.00451942 0)
(0.0996925 -0.0135075 0)
(0.09912 -0.0224204 0)
(0.0982486 -0.031233 0)
(0.0970918 -0.0399207 0)
(0.0956623 -0.0484605 0)
(0.0939722 -0.0568308 0)
(0.0920372 -0.0650128 0)
(0.0898789 -0.0729911 0)
(0.0875261 -0.0807555 0)
(0.0850169 -0.0883029 0)
(0.0823996 -0.0956396 0)
(0.0797329 -0.102784 0)
(0.0770837 -0.10977 0)
(0.0745222 -0.116644 0)
(0.0721122 -0.123464 0)
(0.0698994 -0.130297 0)
(0.067898 -0.137201 0)
(0.0660815 -0.144221 0)
(0.0643806 -0.151375 0)
(0.062691 -0.158654 0)
(0.0608893 -0.166024 0)
(0.0588516 -0.173429 0)
(0.0564694 -0.180804 0)
(0.0536597 -0.188082 0)
(0.0503675 -0.195198 0)
(0.0465636 -0.202091 0)
(0.0422397 -0.208709 0)
(0.0374029 -0.215009 0)
(0.032071 -0.220954 0)
(0.0262681 -0.226515 0)
(0.0200217 -0.231672 0)
(0.0133605 -0.23641 0)
(0.00631353 -0.240719 0)
(-0.00108906 -0.244596 0)
(-0.00881884 -0.248041 0)
(-0.0168505 -0.25106 0)
(-0.0251599 -0.25366 0)
(-0.0337244 -0.25585 0)
(-0.0425229 -0.257644 0)
(-0.0515353 -0.259056 0)
(-0.0607425 -0.2601 0)
(-0.0701265 -0.260795 0)
(-0.0796701 -0.261158 0)
(-0.0893567 -0.261206 0)
(-0.0991704 -0.260958 0)
(-0.109095 -0.260433 0)
(-0.119116 -0.259647 0)
(-0.129218 -0.258619 0)
(-0.139383 -0.257364 0)
(-0.149594 -0.255898 0)
(-0.159831 -0.254233 0)
(-0.170068 -0.25238 0)
(-0.180273 -0.25035 0)
(-0.190395 -0.248147 0)
(-0.200351 -0.245774 0)
(-0.210011 -0.243224 0)
(-0.219217 -0.240487 0)
(-0.227733 -0.237548 0)
(-0.235057 -0.234371 0)
(-0.240205 -0.230888 0)
(-0.241698 -0.226984 0)
(-0.238717 -0.222558 0)
(-0.232028 -0.217603 0)
(-0.222965 -0.212144 0)
(-0.212416 -0.206198 0)
(-0.200882 -0.199777 0)
(-0.188681 -0.1929 0)
(-0.176037 -0.185597 0)
(-0.163129 -0.177907 0)
(-0.150112 -0.169888 0)
(-0.137126 -0.161614 0)
(-0.124325 -0.153178 0)
(-0.111937 -0.144701 0)
(-0.100319 -0.136339 0)
(-0.0899386 -0.128283 0)
(-0.0813036 -0.120742 0)
(-0.0748288 -0.113902 0)
(-0.070683 -0.10787 0)
(-0.0687124 -0.102616 0)
(-0.068519 -0.0979778 0)
(-0.0696172 -0.0937242 0)
(-0.071554 -0.0896381 0)
(-0.0739642 -0.0855595 0)
(-0.0765852 -0.0813908 0)
(-0.079247 -0.0770811 0)
(-0.0818489 -0.0726096 0)
(-0.0843346 -0.067972 0)
(-0.0866721 -0.0631725 0)
(-0.0888432 -0.0582197 0)
(-0.0908366 -0.0531244 0)
(-0.0926448 -0.0478985 0)
(-0.0942625 -0.0425544 0)
(-0.0956857 -0.0371048 0)
(-0.0969114 -0.0315626 0)
(-0.0979374 -0.0259408 0)
(-0.0987611 -0.0202522 0)
(-0.0993774 -0.0145098 0)
(-0.0997814 -0.00872631 0)
(-0.0999875 -0.00291447 0)
(0.0999814 -0.00414754 0)
(0.0996938 -0.0123964 0)
(0.099124 -0.0205764 0)
(0.0982568 -0.0286645 0)
(0.0971057 -0.0366381 0)
(0.0956839 -0.0444757 0)
(0.0940034 -0.0521578 0)
(0.0920803 -0.0596671 0)
(0.089936 -0.0669895 0)
(0.0875998 -0.0741159 0)
(0.0851095 -0.0810435 0)
(0.0825133 -0.0877782 0)
(0.0798697 -0.0943372 0)
(0.0772455 -0.100751 0)
(0.0747105 -0.107061 0)
(0.0723289 -0.113324 0)
(0.0701465 -0.119598 0)
(0.0681784 -0.125939 0)
(0.0663991 -0.132387 0)
(0.0647402 -0.138962 0)
(0.0630982 -0.145656 0)
(0.0613498 -0.152439 0)
(0.0593702 -0.159261 0)
(0.0570498 -0.166064 0)
(0.0543036 -0.172786 0)
(0.0510743 -0.179368 0)
(0.0473308 -0.185755 0)
(0.0430625 -0.191899 0)
(0.0382749 -0.197759 0)
(0.0329836 -0.203302 0)
(0.027211 -0.208501 0)
(0.0209829 -0.213335 0)
(0.0143265 -0.217791 0)
(0.00726953 -0.221859 0)
(-0.000159565 -0.225534 0)
(-0.00793336 -0.228817 0)
(-0.0160272 -0.231711 0)
(-0.0244181 -0.234221 0)
(-0.0330843 -0.236356 0)
(-0.0420052 -0.238125 0)
(-0.051161 -0.239539 0)
(-0.060533 -0.240613 0)
(-0.0701032 -0.24136 0)
(-0.0798542 -0.241794 0)
(-0.0897688 -0.24193 0)
(-0.0998304 -0.241784 0)
(-0.110022 -0.241369 0)
(-0.120326 -0.240702 0)
(-0.130726 -0.239794 0)
(-0.141203 -0.238661 0)
(-0.151735 -0.237313 0)
(-0.162299 -0.235762 0)
(-0.172865 -0.234016 0)
(-0.183395 -0.232082 0)
(-0.193832 -0.229965 0)
(-0.204079 -0.227665 0)
(-0.213995 -0.225176 0)
(-0.223413 -0.22249 0)
(-0.232069 -0.219591 0)
(-0.239401 -0.216447 0)
(-0.244337 -0.212994 0)
(-0.24541 -0.209122 0)
(-0.24195 -0.204764 0)
(-0.234836 -0.199931 0)
(-0.225395 -0.194647 0)
(-0.214488 -0.188928 0)
(-0.202608 -0.182792 0)
(-0.190069 -0.176261 0)
(-0.177101 -0.169367 0)
(-0.163889 -0.162153 0)
(-0.150596 -0.154675 0)
(-0.137368 -0.147003 0)
(-0.124371 -0.139224 0)
(-0.111852 -0.13145 0)
(-0.100186 -0.123824 0)
(-0.0898501 -0.116516 0)
(-0.0813404 -0.109711 0)
(-0.0750414 -0.103567 0)
(-0.0710752 -0.0981641 0)
(-0.0692473 -0.0934554 0)
(-0.0691403 -0.0892816 0)
(-0.0702695 -0.0854329 0)
(-0.0721929 -0.081718 0)
(-0.0745595 -0.0779996 0)
(-0.0771201 -0.0741949 0)
(-0.0797147 -0.0702615 0)
(-0.0822495 -0.0661818 0)
(-0.0846714 -0.0619526 0)
(-0.0869506 -0.0575774 0)
(-0.0890694 -0.0530638 0)
(-0.0910168 -0.0484211 0)
(-0.0927852 -0.0436596 0)
(-0.094369 -0.0387902 0)
(-0.0957638 -0.0338243 0)
(-0.096966 -0.0287734 0)
(-0.0979732 -0.0236492 0)
(-0.0987823 -0.0184636 0)
(-0.099388 -0.0132284 0)
(-0.0997852 -0.00795558 0)
(-0.0999877 -0.00265698 0)
(0.0999815 -0.00377767 0)
(0.0996958 -0.0112912 0)
(0.0991295 -0.0187424 0)
(0.0982677 -0.0261101 0)
(0.0971239 -0.0333736 0)
(0.0957111 -0.0405136 0)
(0.0940416 -0.047512 0)
(0.0921313 -0.0543533 0)
(0.0900017 -0.0610248 0)
(0.087682 -0.0675179 0)
(0.0852098 -0.0738305 0)
(0.0826329 -0.0799679 0)
(0.0800096 -0.0859457 0)
(0.0774064 -0.0917913 0)
(0.0748929 -0.0975442 0)
(0.0725332 -0.103254 0)
(0.0703738 -0.108975 0)
(0.0684303 -0.114758 0)
(0.0666783 -0.120641 0)
(0.0650502 -0.126642 0)
(0.0634432 -0.132757 0)
(0.0617338 -0.138956 0)
(0.0597969 -0.145197 0)
(0.0575215 -0.151427 0)
(0.0548215 -0.157589 0)
(0.0516377 -0.163631 0)
(0.047937 -0.169501 0)
(0.0437073 -0.175157 0)
(0.0389521 -0.18056 0)
(0.0336858 -0.18568 0)
(0.0279293 -0.190492 0)
(0.021707 -0.194978 0)
(0.0150451 -0.199122 0)
(0.00797007 -0.202917 0)
(0.000509194 -0.206358 0)
(-0.00731083 -0.209443 0)
(-0.015466 -0.212174 0)
(-0.0239341 -0.214556 0)
(-0.032694 -0.216595 0)
(-0.0417253 -0.218299 0)
(-0.0510085 -0.219677 0)
(-0.0605249 -0.22074 0)
(-0.0702564 -0.2215 0)
(-0.0801853 -0.221969 0)
(-0.0902937 -0.222158 0)
(-0.100564 -0.222079 0)
(-0.110978 -0.221747 0)
(-0.121517 -0.221171 0)
(-0.132162 -0.220364 0)
(-0.142891 -0.219336 0)
(-0.153682 -0.218097 0)
(-0.164507 -0.216655 0)
(-0.175332 -0.215019 0)
(-0.186115 -0.213193 0)
(-0.196792 -0.211181 0)
(-0.207256 -0.208983 0)
(-0.217356 -0.206593 0)
(-0.226918 -0.204004 0)
(-0.23565 -0.201202 0)
(-0.242939 -0.198157 0)
(-0.247629 -0.194823 0)
(-0.248303 -0.191085 0)
(-0.244426 -0.1869 0)
(-0.236954 -0.182288 0)
(-0.227196 -0.177272 0)
(-0.215993 -0.17187 0)
(-0.203829 -0.1661 0)
(-0.191019 -0.15999 0)
(-0.177796 -0.153571 0)
(-0.164349 -0.146885 0)
(-0.150846 -0.139985 0)
(-0.137439 -0.132938 0)
(-0.124302 -0.125823 0)
(-0.1117 -0.118742 0)
(-0.100024 -0.111826 0)
(-0.0897539 -0.105227 0)
(-0.0813776 -0.0991077 0)
(-0.0752504 -0.0936038 0)
(-0.071454 -0.0887732 0)
(-0.0697596 -0.0845615 0)
(-0.0697347 -0.0808167 0)
(-0.0708959 -0.0773489 0)
(-0.0728109 -0.0739899 0)
(-0.0751412 -0.0706209 0)
(-0.077649 -0.0671712 0)
(-0.0801837 -0.0636048 0)
(-0.082657 -0.0599071 0)
(-0.0850194 -0.0560753 0)
(-0.0872429 -0.0521127 0)
(-0.0893107 -0.0480259 0)
(-0.0912122 -0.043823 0)
(-0.0929399 -0.0395132 0)
(-0.0944881 -0.035106 0)
(-0.0958523 -0.0306116 0)
(-0.0970288 -0.0260404 0)
(-0.0980148 -0.0214028 0)
(-0.0988072 -0.0167096 0)
(-0.0994006 -0.0119715 0)
(-0.0997896 -0.00719953 0)
(-0.0999879 -0.0024044 0)
(0.0999817 -0.00341027 0)
(0.0996977 -0.0101933 0)
(0.0991351 -0.0169204 0)
(0.0982786 -0.0235724 0)
(0.097142 -0.0301308 0)
(0.095738 -0.0365781 0)
(0.094079 -0.0428981 0)
(0.0921808 -0.0490768 0)
(0.0900648 -0.0551027 0)
(0.0877598 -0.0609683 0)
(0.0853035 -0.0666715 0)
(0.0827432 -0.0722172 0)
(0.0801371 -0.0776196 0)
(0.0775511 -0.0829032 0)
(0.075055 -0.0881036 0)
(0.0727128 -0.0932654 0)
(0.0705714 -0.0984381 0)
(0.0686469 -0.103668 0)
(0.0669156 -0.10899 0)
(0.0653109 -0.114421 0)
(0.0637303 -0.119956 0)
(0.0620504 -0.125572 0)
(0.0601453 -0.13123 0)
(0.0579033 -0.136882 0)
(0.0552367 -0.142479 0)
(0.0520852 -0.147971 0)
(0.0484141 -0.153313 0)
(0.04421 -0.158466 0)
(0.0394751 -0.163397 0)
(0.0342225 -0.168075 0)
(0.0284721 -0.17248 0)
(0.0222473 -0.176592 0)
(0.0155732 -0.180401 0)
(0.00847559 -0.183896 0)
(0.000980767 -0.187072 0)
(-0.00688504 -0.189929 0)
(-0.0150983 -0.192467 0)
(-0.0236375 -0.194689 0)
(-0.0324816 -0.196601 0)
(-0.0416106 -0.198207 0)
(-0.0510049 -0.199518 0)
(-0.060646 -0.20054 0)
(-0.0705153 -0.201283 0)
(-0.0805945 -0.201757 0)
(-0.0908654 -0.201972 0)
(-0.101309 -0.201939 0)
(-0.111906 -0.201667 0)
(-0.122638 -0.201166 0)
(-0.133481 -0.200446 0)
(-0.144415 -0.199514 0)
(-0.155412 -0.198381 0)
(-0.166443 -0.197051 0)
(-0.177472 -0.195532 0)
(-0.18845 -0.193828 0)
(-0.19931 -0.191942 0)
(-0.209934 -0.189874 0)
(-0.220165 -0.187619 0)
(-0.22982 -0.18517 0)
(-0.238586 -0.182516 0)
(-0.245811 -0.17963 0)
(-0.250251 -0.176491 0)
(-0.250561 -0.172962 0)
(-0.246314 -0.169028 0)
(-0.238536 -0.16471 0)
(-0.228514 -0.160031 0)
(-0.217068 -0.155011 0)
(-0.204676 -0.14967 0)
(-0.191652 -0.144035 0)
(-0.17823 -0.138138 0)
(-0.164603 -0.132018 0)
(-0.150942 -0.125725 0)
(-0.137402 -0.119319 0)
(-0.124167 -0.112874 0)
(-0.111517 -0.106483 0)
(-0.0998529 -0.100262 0)
(-0.0896593 -0.0943475 0)
(-0.0814141 -0.0888832 0)
(-0.0754465 -0.0839832 0)
(-0.071803 -0.0796892 0)
(-0.0702268 -0.075942 0)
(-0.0702739 -0.0725997 0)
(-0.0714635 -0.0694923 0)
(-0.073372 -0.0664729 0)
(-0.0756716 -0.0634394 0)
(-0.0781346 -0.0603318 0)
(-0.0806177 -0.0571198 0)
(-0.0830377 -0.0537913 0)
(-0.0853478 -0.0503441 0)
(-0.0875216 -0.0467812 0)
(-0.0895432 -0.0431083 0)
(-0.0914024 -0.0393325 0)
(-0.0930919 -0.0354619 0)
(-0.0946062 -0.0315048 0)
(-0.0959408 -0.02747 0)
(-0.097092 -0.0233669 0)
(-0.098057 -0.0192047 0)
(-0.0988325 -0.014993 0)
(-0.0994133 -0.0107413 0)
(-0.0997941 -0.00645947 0)
(-0.0999882 -0.00215717 0)
(0.0999818 -0.00304518 0)
(0.0996996 -0.00910225 0)
(0.0991403 -0.0151096 0)
(0.098289 -0.0210503 0)
(0.0971591 -0.0269078 0)
(0.0957634 -0.0326665 0)
(0.0941141 -0.038312 0)
(0.0922268 -0.0438319 0)
(0.0901229 -0.0492159 0)
(0.087831 -0.0544574 0)
(0.0853884 -0.0595545 0)
(0.0828423 -0.0645116 0)
(0.0802504 -0.0693412 0)
(0.0776786 -0.0740654 0)
(0.0751964 -0.0787157 0)
(0.0728679 -0.0833322 0)
(0.0707402 -0.087959 0)
(0.06883 -0.0926377 0)
(0.0671142 -0.0974001 0)
(0.0655268 -0.102262 0)
(0.0639656 -0.107219 0)
(0.0623073 -0.112251 0)
(0.0604256 -0.117323 0)
(0.058208 -0.122394 0)
(0.0555655 -0.127419 0)
(0.0524366 -0.132354 0)
(0.0487856 -0.137159 0)
(0.0445978 -0.141799 0)
(0.0398747 -0.146242 0)
(0.0346282 -0.150464 0)
(0.0288773 -0.154444 0)
(0.0226448 -0.158165 0)
(0.0159549 -0.161617 0)
(0.00883294 -0.16479 0)
(0.00130446 -0.16768 0)
(-0.00660463 -0.170285 0)
(-0.0148712 -0.172605 0)
(-0.023474 -0.174642 0)
(-0.0323923 -0.176401 0)
(-0.0416061 -0.177886 0)
(-0.051096 -0.179103 0)
(-0.060843 -0.18006 0)
(-0.0708284 -0.180764 0)
(-0.0810333 -0.181224 0)
(-0.0914388 -0.181446 0)
(-0.102025 -0.181441 0)
(-0.112773 -0.181215 0)
(-0.123659 -0.180778 0)
(-0.134663 -0.180137 0)
(-0.145759 -0.179299 0)
(-0.15692 -0.178271 0)
(-0.168113 -0.177059 0)
(-0.1793 -0.175667 0)
(-0.190429 -0.1741 0)
(-0.201427 -0.17236 0)
(-0.212171 -0.170447 0)
(-0.222494 -0.168357 0)
(-0.23221 -0.166085 0)
(-0.240987 -0.163622 0)
(-0.248137 -0.160945 0)
(-0.252339 -0.158055 0)
(-0.252321 -0.154793 0)
(-0.247748 -0.151165 0)
(-0.239708 -0.147196 0)
(-0.229467 -0.142907 0)
(-0.217824 -0.13832 0)
(-0.20525 -0.133455 0)
(-0.192057 -0.128337 0)
(-0.178481 -0.122995 0)
(-0.164717 -0.117469 0)
(-0.150936 -0.111802 0)
(-0.137299 -0.10605 0)
(-0.123996 -0.100278 0)
(-0.11132 -0.0945697 0)
(-0.099681 -0.0890294 0)
(-0.0895667 -0.0837784 0)
(-0.0814454 -0.0789411 0)
(-0.075623 -0.074614 0)
(-0.072116 -0.0708264 0)
(-0.0706442 -0.0675181 0)
(-0.0707552 -0.0645593 0)
(-0.0719705 -0.0617994 0)
(-0.0738744 -0.0591108 0)
(-0.0761484 -0.0564063 0)
(-0.0785732 -0.0536349 0)
(-0.0810119 -0.0507713 0)
(-0.0833855 -0.0478053 0)
(-0.0856497 -0.0447352 0)
(-0.0877793 -0.0415639 0)
(-0.0897594 -0.0382962 0)
(-0.0915803 -0.0349383 0)
(-0.0932349 -0.0314973 0)
(-0.0947179 -0.0279803 0)
(-0.0960249 -0.0243953 0)
(-0.0971523 -0.0207502 0)
(-0.0980973 -0.0170532 0)