/*--------------------------------*- C++ -*----------------------------------*\
  =========                 |
  \\      /  F ield         | OpenFOAM: The Open Source CFD Toolbox
   \\    /   O peration     | Website:  https://openfoam.org
    \\  /    A nd           | Version:  8
     \\/     M anipulation  |
\*---------------------------------------------------------------------------*/
FoamFile
{
    version     2.0;
    format      ascii;
    class       volScalarField;
    location    "840/fluid";
    object      CH4;
}
// * * * * * * * * * * * * * * * * * * * * * * * * * * * * * * * * * * * * * //

dimensions      [0 0 0 0 0 0 0];

internalField   nonuniform List<scalar> 
4000
(
0.999997
0.999986
0.999968
0.999938
0.999888
0.999804
0.999667
0.999442
0.999078
0.998496
0.997578
0.996155
0.993991
0.990775
0.986119
0.979575
0.970678
0.958997
0.944206
0.926129
0.904761
0.880255
0.852891
0.823037
0.791104
0.757527
0.722734
0.687135
0.651114
0.615018
0.579159
0.543805
0.509185
0.475488
0.442865
0.411435
0.381289
0.352489
0.325073
0.299057
0.274439
0.251203
0.229322
0.208757
0.189465
0.171397
0.154499
0.138715
0.123991
0.11027
0.0974989
0.0856233
0.0745928
0.0643601
0.0548813
0.0461166
0.0380314
0.0306984
0.0240637
0.0178545
0.0122582
0.00728657
0.00327495
0.00229711
0.00159067
0.00108546
0.000728505
0.000479866
0.000309532
0.000195113
0.000120071
7.23565e-05
4.3377e-05
2.73092e-05
1.98896e-05
1.52624e-05
1.13172e-05
7.95444e-06
5.245e-06
3.22048e-06
1.83803e-06
9.79876e-07
4.92507e-07
2.37156e-07
1.10842e-07
5.05873e-08
2.26426e-08
9.97203e-09
4.3323e-09
1.86048e-09
7.91127e-10
3.33579e-10
1.39622e-10
5.80448e-11
2.39558e-11
9.78599e-12
3.92028e-12
1.49934e-12
5.01508e-13
8.8067e-14
0.999997
0.999986
0.999968
0.999938
0.999887
0.999803
0.999665
0.999439
0.999074
0.998491
0.997573
0.996155
0.994005
0.99082
0.986224
0.97978
0.971033
0.959559
0.945026
0.927245
0.906189
0.881989
0.854905
0.825285
0.793533
0.760076
0.725344
0.689751
0.653686
0.617505
0.581526
0.546026
0.511242
0.477369
0.444564
0.41295
0.382622
0.353646
0.326062
0.299887
0.275121
0.251748
0.229742
0.209064
0.189671
0.171512
0.154532
0.138679
0.123894
0.110121
0.0973042
0.0853902
0.0743277
0.0640684
0.0545678
0.0457858
0.0376872
0.0303481
0.02371
0.0174959
0.0118981
0.00693458
0.00322472
0.00225954
0.00156216
0.00106376
0.000712101
0.000467636
0.000300599
0.000188766
0.000115732
6.95643e-05
4.17837e-05
2.66818e-05
1.97055e-05
1.5028e-05
1.10241e-05
7.65871e-06
4.99237e-06
3.03625e-06
1.7234e-06
9.1871e-07
4.64228e-07
2.25218e-07
1.06199e-07
4.89116e-08
2.20806e-08
9.79712e-09
4.2821e-09
1.84732e-09
7.87986e-10
3.32862e-10
1.39423e-10
5.79527e-11
2.38986e-11
9.75087e-12
3.90072e-12
1.48973e-12
4.97935e-13
8.75819e-14
0.999997
0.999986
0.999968
0.999938
0.999887
0.999803
0.999664
0.999437
0.999071
0.998487
0.99757
0.996156
0.994017
0.990856
0.986304
0.979935
0.971302
0.959988
0.945664
0.928135
0.907365
0.883468
0.856685
0.827347
0.795842
0.762586
0.728001
0.692499
0.656469
0.620272
0.584229
0.548625
0.513703
0.479665
0.446676
0.414865
0.384332
0.355149
0.327359
0.300984
0.276025
0.252471
0.230295
0.20946
0.189923
0.171631
0.154535
0.138577
0.123699
0.109845
0.0969587
0.0849849
0.0738717
0.0635702
0.0540353
0.0452261
0.0371073
0.0297626
0.0231217
0.016912
0.0113325
0.00637883
0.0031847
0.00221946
0.00152639
0.00103395
0.000688438
0.000449607
0.000287377
0.00017945
0.000109475
6.56452e-05
3.96468e-05
2.59336e-05
1.94186e-05
1.46967e-05
1.06661e-05
7.33107e-06
4.73303e-06
2.85761e-06
1.61551e-06
8.60715e-07
4.35947e-07
2.1225e-07
1.00535e-07
4.65351e-08
2.11161e-08
9.41618e-09
4.1347e-09
1.79104e-09
7.66619e-10
3.24724e-10
1.36289e-10
5.67255e-11
2.34095e-11
9.5533e-12
3.82086e-12
1.45846e-12
4.87427e-13
8.59139e-14
0.999997
0.999986
0.999968
0.999938
0.999887
0.999803
0.999665
0.999439
0.999075
0.998495
0.997586
0.996185
0.99407
0.990946
0.986452
0.980168
0.971652
0.960491
0.946354
0.929042
0.908508
0.884857
0.858316
0.829205
0.797904
0.764819
0.730366
0.694955
0.658972
0.622777
0.586696
0.551015
0.515984
0.48181
0.448662
0.416675
0.385954
0.356577
0.32859
0.302019
0.276871
0.253133
0.230783
0.209785
0.190094
0.171664
0.154442
0.138371
0.123394
0.109452
0.0964885
0.0844492
0.073281
0.0629342
0.0533629
0.0445259
0.0363871
0.0290489
0.0224221
0.0162198
0.0106385
0.00570319
0.00314558
0.00217808
0.00148793
0.00100106
0.000662005
0.000429405
0.000272626
0.00016916
0.000102662
6.14559e-05
3.74246e-05
2.51923e-05
1.90264e-05
1.4272e-05
1.02435e-05
6.96109e-06
4.44612e-06
2.66038e-06
1.49473e-06
7.93993e-07
4.02122e-07
1.9616e-07
9.31984e-08
4.32977e-08
1.9725e-08
8.83148e-09
3.8934e-09
1.69291e-09
7.27146e-10
3.08965e-10
1.30025e-10
5.42412e-11
2.24255e-11
9.16464e-12
3.6689e-12
1.40114e-12
4.68587e-13
8.2829e-14
0.999997
0.999986
0.999968
0.999938
0.999888
0.999804
0.999666
0.999442
0.99908
0.998505
0.997603
0.996215
0.994121
0.991031
0.986587
0.980376
0.97196
0.960928
0.946949
0.92982
0.909485
0.886039
0.859702
0.830783
0.799653
0.766712
0.732372
0.697038
0.661096
0.624905
0.588794
0.553051
0.517928
0.483637
0.450352
0.418211
0.387326
0.357775
0.329612
0.302865
0.277542
0.253636
0.231124
0.209971
0.190139
0.17158
0.154239
0.138062
0.122989
0.108964
0.0959292
0.0838294
0.0726112
0.0622242
0.0526217
0.0437612
0.0356178
0.0283076
0.0216796
0.0154691
0.00990322
0.00502938
0.00310537
0.00212951
0.00144181
0.000962039
0.000631302
0.000406529
0.000256355
0.000158095
9.55077e-05
5.71467e-05
3.52085e-05
2.45014e-05
1.85373e-05
1.37766e-05
9.79003e-06
6.58909e-06
4.17227e-06
2.47971e-06
1.38742e-06
7.35862e-07
3.72926e-07
1.82289e-07
8.68416e-08
4.04636e-08
1.84884e-08
8.30108e-09
3.66905e-09
1.59907e-09
6.88246e-10
2.92953e-10
1.23471e-10
5.15705e-11
2.13424e-11
8.72845e-12
3.49579e-12
1.33519e-12
4.46699e-13
7.92128e-14
0.999997
0.999986
0.999968
0.999938
0.999888
0.999805
0.999669
0.999446
0.999088
0.998518
0.997625
0.996251
0.994179
0.991123
0.986728
0.980585
0.97226
0.961341
0.947496
0.930518
0.910345
0.887065
0.860889
0.832121
0.801124
0.768294
0.734039
0.698762
0.662847
0.626654
0.590511
0.55471
0.519506
0.485113
0.451708
0.419434
0.388404
0.358703
0.330386
0.303484
0.278009
0.253953
0.231296
0.210011
0.190056
0.171381
0.153936
0.137664
0.122509
0.108412
0.0953171
0.0831676
0.0719103
0.0614946
0.0518732
0.0430073
0.0348544
0.0275552
0.0209158
0.0147159
0.00916977
0.00435564
0.00298181
0.00202585
0.00136186
0.000903394
0.000589829
0.000378094
0.000237436
0.000145912
8.79678e-05
5.27414e-05
3.29283e-05
2.34907e-05
1.78369e-05
1.31931e-05
9.31808e-06
6.22983e-06
3.9193e-06
2.31667e-06
1.29127e-06
6.83484e-07
3.46221e-07
1.69391e-07
8.08204e-08
3.77287e-08
1.72742e-08
7.77236e-09
3.44256e-09
1.50338e-09
6.48274e-10
2.7641e-10
1.16675e-10
4.87959e-11
2.02162e-11
8.27485e-12
3.31584e-12
1.2668e-12
4.23812e-13
7.54417e-14
0.999997
0.999986
0.999969
0.999939
0.999889
0.999807
0.999671
0.999451
0.999095
0.99853
0.997646
0.996286
0.994234
0.991209
0.986857
0.980774
0.972527
0.961705
0.947974
0.931123
0.911085
0.88794
0.861894
0.833245
0.802351
0.769605
0.735412
0.700172
0.664271
0.628067
0.59189
0.556034
0.520754
0.486268
0.452757
0.420366
0.389211
0.359378
0.330927
0.303892
0.278283
0.254098
0.231323
0.209924
0.189862
0.17109
0.153556
0.137206
0.121982
0.107826
0.0946829
0.0824954
0.0712107
0.0607786
0.0511533
0.0422902
0.0341468
0.0269267
0.0201439
0.0140066
0.00851571
0.00376599
0.00263184
0.00181259
0.00122944
0.000820276
0.000537485
0.000345263
0.000217079
0.000133538
8.06893e-05
4.87054e-05
3.09837e-05
2.26089e-05
1.72101e-05
1.26908e-05
8.92541e-06
5.93727e-06
3.71602e-06
2.18667e-06
1.21483e-06
6.41793e-07
3.2485e-07
1.58984e-07
7.59087e-08
3.54686e-08
1.62563e-08
7.32233e-09
3.24679e-09
1.41941e-09
6.127e-10
2.61496e-10
1.10478e-10
4.62406e-11
1.91704e-11
7.8508e-12
3.14669e-12
1.20221e-12
4.02211e-13
7.18913e-14
0.999997
0.999986
0.999969
0.999939
0.99989
0.999808
0.999674
0.999455
0.999103
0.998543
0.997667
0.996319
0.994287
0.991289
0.986977
0.980946
0.972766
0.962027
0.948392
0.931646
0.911717
0.888682
0.862739
0.834182
0.803366
0.770682
0.736531
0.701314
0.665415
0.629193
0.592979
0.557068
0.521718
0.487149
0.453543
0.421048
0.389784
0.359838
0.331272
0.304121
0.2784
0.254111
0.231233
0.209738
0.189587
0.170734
0.153127
0.136713
0.121433
0.107231
0.0940498
0.0818325
0.0705256
0.0600781
0.0504426
0.0415758
0.033481
0.0262902
0.0195375
0.0134618
0.0080691
0.00347406
0.00242392
0.00166966
0.0011335
0.00075707
0.000496562
0.000319251
0.000200895
0.000123746
7.50054e-05
4.56603e-05
2.96643e-05
2.20728e-05
1.68278e-05
1.23715e-05
8.66126e-06
5.73212e-06
3.56854e-06
2.08959e-06
1.1563e-06
6.0913e-07
3.07738e-07
1.50497e-07
7.18354e-08
3.35661e-08
1.53882e-08
6.93413e-09
3.07627e-09
1.34568e-09
5.81244e-10
2.48232e-10
1.04941e-10
4.39488e-11
1.82297e-11
7.46847e-12
2.99407e-12
1.14358e-12
3.82652e-13
6.87087e-14
0.999997
0.999987
0.999969
0.99994
0.999891
0.99981
0.999677
0.99946
0.99911
0.998555
0.997686
0.99635
0.994334
0.99136
0.987082
0.981097
0.972975
0.962306
0.948752
0.932092
0.912253
0.889305
0.863443
0.834958
0.804201
0.77156
0.737437
0.70223
0.666324
0.630079
0.593827
0.557863
0.522448
0.487803
0.454113
0.421528
0.390169
0.360126
0.331461
0.304213
0.278401
0.254021
0.231059
0.209484
0.18926
0.170341
0.152676
0.13621
0.120888
0.10665
0.093441
0.0812035
0.0698841
0.0594321
0.0498009
0.0409491
0.0328938
0.0257246
0.0190019
0.0129694
0.00763615
0.00329842
0.00230018
0.00158356
0.00107457
0.000717489
0.000470523
0.000302518
0.000190445
0.000117469
7.14742e-05
4.39353e-05
2.91458e-05
2.19565e-05
1.67182e-05
1.22471e-05
8.53084e-06
5.61055e-06
3.47147e-06
2.02159e-06
1.1136e-06
5.84588e-07
2.94582e-07
1.43855e-07
6.85979e-08
3.20329e-08
1.46797e-08
6.61376e-09
2.93412e-09
1.28365e-09
5.54573e-10
2.36909e-10
1.00186e-10
4.19714e-11
1.74148e-11
7.13622e-12
2.86112e-12
1.0924e-12
3.65554e-13
6.5962e-14
0.999997
0.999987
0.999969
0.99994
0.999892
0.999811
0.999679
0.999463
0.999117
0.998566
0.997703
0.996377
0.994375
0.991423
0.987174
0.981228
0.973156
0.962546
0.949058
0.932469
0.912703
0.889825
0.864027
0.835595
0.804882
0.772271
0.738164
0.702959
0.667041
0.63077
0.594479
0.558465
0.52299
0.488278
0.454513
0.421849
0.390408
0.360281
0.331534
0.304206
0.278316
0.253861
0.230828
0.209189
0.188906
0.169934
0.152223
0.135717
0.120362
0.106098
0.0928687
0.0806173
0.0692899
0.0588355
0.0492071
0.0403623
0.0323342
0.0251846
0.0184769
0.012455
0.00712296
0.00321953
0.00224145
0.00154101
0.00104449
0.000696746
0.000456586
0.000293424
0.000184722
0.000114055
6.9633e-05
4.31934e-05
2.91935e-05
2.21558e-05
1.68152e-05
1.22566e-05
8.49287e-06
5.55374e-06
3.41383e-06
1.97631e-06
1.08327e-06
5.6643e-07
2.84558e-07
1.38689e-07
6.60383e-08
3.08043e-08
1.41056e-08
6.35163e-09
2.81686e-09
1.23213e-09
5.32292e-10
2.27404e-10
9.61788e-11
4.02993e-11
1.67239e-11
6.8539e-12
2.74807e-12
1.04903e-12
3.51032e-13
6.36659e-14
0.999997
0.999987
0.999969
0.999941
0.999892
0.999812
0.999681
0.999467
0.999122
0.998575
0.997718
0.9964
0.994412
0.991478
0.987254
0.981341
0.97331
0.962748
0.949315
0.932785
0.913077
0.890255
0.864506
0.836116
0.805433
0.772842
0.738743
0.703534
0.667599
0.631302
0.594973
0.558913
0.523384
0.488611
0.454782
0.42205
0.390538
0.360341
0.331525
0.304129
0.278173
0.253657
0.230567
0.208875
0.188545
0.169532
0.151784
0.135249
0.119869
0.105586
0.0923422
0.0800819
0.0687502
0.058296
0.0486713
0.0398343
0.0318247
0.0246934
0.0179979
0.0119921
0.0066795
0.00318771
0.00221676
0.00152272
0.00103148
0.000687816
0.00045069
0.000289695
0.000182495
0.000112849
6.91237e-05
4.32036e-05
2.96752e-05
2.2615e-05
1.70953e-05
1.23928e-05
8.53332e-06
5.54409e-06
3.38749e-06
1.94904e-06
1.06289e-06
5.53481e-07
2.77137e-07
1.34774e-07
6.40627e-08
2.98421e-08
1.36505e-08
6.14183e-09
2.72224e-09
1.19027e-09
5.14082e-10
2.19598e-10
9.28746e-11
3.89163e-11
1.61512e-11
6.61953e-12
2.65409e-12
1.01296e-12
3.38935e-13
6.18009e-14
0.999997
0.999987
0.99997
0.999941
0.999893
0.999813
0.999683
0.99947
0.999127
0.998583
0.997731
0.996421
0.994443
0.991524
0.987322
0.981436
0.973439
0.962918
0.94953
0.933048
0.913387
0.890607
0.864897
0.836538
0.805876
0.773298
0.7392
0.703983
0.668031
0.631706
0.595343
0.55924
0.523663
0.488838
0.454952
0.422161
0.390589
0.360334
0.33146
0.304008
0.277998
0.253432
0.230296
0.208562
0.188195
0.169149
0.151374
0.134815
0.119417
0.10512
0.091868
0.0796028
0.0682703
0.0578192
0.0482035
0.0393801
0.0313836
0.0242621
0.0175811
0.0115905
0.00629264
0.00316584
0.00220279
0.00151391
0.00102608
0.000684646
0.000448925
0.000288808
0.000182157
0.000112869
6.94145e-05
4.37496e-05
3.05171e-05
2.32846e-05
1.75172e-05
1.26248e-05
8.63753e-06
5.57403e-06
3.3836e-06
1.93603e-06
1.05034e-06
5.44684e-07
2.71827e-07
1.31885e-07
6.25726e-08
2.91044e-08
1.32973e-08
5.97732e-09
2.64743e-09
1.15695e-09
4.99509e-10
2.13322e-10
9.02085e-11
3.7797e-11
1.56865e-11
6.42904e-12
2.57753e-12
9.83582e-13
3.29038e-13
6.03298e-14
0.999997
0.999987
0.99997
0.999941
0.999893
0.999814
0.999684
0.999473
0.999132
0.99859
0.997742
0.996438
0.994469
0.991563
0.987378
0.981516
0.973547
0.963059
0.949708
0.933263
0.913639
0.890894
0.865213
0.836876
0.80623
0.773658
0.739559
0.704331
0.668361
0.632011
0.595615
0.559475
0.523856
0.488984
0.455051
0.42221
0.390589
0.360284
0.331361
0.303863
0.27781
0.253203
0.23003
0.208263
0.187866
0.168795
0.150999
0.134424
0.119013
0.104707
0.0914491
0.0791821
0.0678522
0.0574081
0.0477997
0.03898
0.0309977
0.0238917
0.0172254
0.0112497
0.00596623
0.00314751
0.00219333
0.00150962
0.00102465
0.00068468
0.000449641
0.000289768
0.000183144
0.000113803
7.03078e-05
4.46788e-05
3.16005e-05
2.40859e-05
1.8026e-05
1.29161e-05
8.78231e-06
5.63152e-06
3.39743e-06
1.93328e-06
1.04418e-06
5.39309e-07
2.68268e-07
1.29863e-07
6.14992e-08
2.85618e-08
1.30332e-08
5.85277e-09
2.59022e-09
1.13126e-09
4.88191e-10
2.0842e-10
8.8116e-11
3.69151e-11
1.53194e-11
6.27809e-12
2.51669e-12
9.60234e-13
3.21152e-13
5.92061e-14
0.999997
0.999987
0.99997
0.999941
0.999894
0.999815
0.999686
0.999475
0.999135
0.998596
0.997751
0.996452
0.994491
0.991596
0.987425
0.981581
0.973635
0.963174
0.949852
0.933438
0.913844
0.891125
0.865465
0.837145
0.806509
0.773939
0.739836
0.704598
0.668611
0.632237
0.595813
0.55964
0.523984
0.489074
0.4551
0.422218
0.390556
0.360209
0.331247
0.303711
0.277623
0.252984
0.229781
0.207988
0.187568
0.168478
0.150666
0.134079
0.118659
0.104348
0.0910883
0.0788241
0.0674992
0.057058
0.0474525
0.0386415
0.0306738
0.0235805
0.0169262
0.0109627
0.00569559
0.00313219
0.00218705
0.00150833
0.00102586
0.000686933
0.000452116
0.000292057
0.000185087
0.000115391
7.16093e-05
4.58085e-05
3.26749e-05
2.48933e-05
1.85557e-05
1.32318e-05
8.94935e-06
5.70685e-06
3.4242e-06
1.93882e-06
1.04279e-06
5.36822e-07
2.6622e-07
1.28597e-07
6.07884e-08
2.81887e-08
1.28467e-08
5.76297e-09
2.54831e-09
1.1122e-09
4.79714e-10
2.0472e-10
8.65265e-11
3.62416e-11
1.50379e-11
6.1619e-12
2.46972e-12
9.42164e-13
3.1504e-13
5.83811e-14
0.999997
0.999987
0.99997
0.999942
0.999894
0.999816
0.999687
0.999476
0.999138
0.998601
0.997759
0.996464
0.994509
0.991622
0.987463
0.981634
0.973707
0.963267
0.949968
0.933578
0.914006
0.891308
0.865665
0.837356
0.806726
0.774157
0.740049
0.7048
0.668797
0.632403
0.595954
0.559753
0.524067
0.489124
0.455116
0.4222
0.390503
0.360124
0.33113
0.303564
0.277447
0.252783
0.229557
0.207744
0.187307
0.168203
0.15038
0.133784
0.118359
0.104046
0.0907878
0.0785232
0.0671974
0.0567601
0.0471624
0.0383601
0.0304058
0.023323
0.0166784
0.0107235
0.00547736
0.00311977
0.00218361
0.00150962
0.0010293
0.000691012
0.000456031
0.000295439
0.00018783
0.000117536
7.32768e-05
4.71522e-05
3.38315e-05
2.57483e-05
1.9123e-05
1.35777e-05
9.13989e-06
5.79954e-06
3.46294e-06
1.95202e-06
1.04576e-06
5.36572e-07
2.65416e-07
1.27952e-07
6.03845e-08
2.79596e-08
1.27258e-08
5.70259e-09
2.51937e-09
1.09877e-09
4.7365e-10
2.0204e-10
8.53644e-11
3.57454e-11
1.48295e-11
6.07533e-12
2.43466e-12
9.28593e-13
3.1045e-13
5.78051e-14
0.999997
0.999987
0.99997
0.999942
0.999895
0.999816
0.999688
0.999478
0.999141
0.998604
0.997765
0.996473
0.994523
0.991643
0.987494
0.981676
0.973763
0.96334
0.95006
0.933688
0.914133
0.89145
0.865819
0.837519
0.806892
0.774323
0.74021
0.704951
0.668934
0.632522
0.596053
0.559829
0.524118
0.489148
0.455113
0.422169
0.390445
0.36004
0.33102
0.303431
0.277293
0.252608
0.229365
0.207537
0.187087
0.167973
0.150143
0.133543
0.118115
0.103799
0.090537
0.0782732
0.0669516
0.0565198
0.0469288
0.0381342
0.0301911
0.0231174
0.0164806
0.0105327
0.00530325
0.00310997
0.00218273
0.00151324
0.00103473
0.000696725
0.000461236
0.000299804
0.000191296
0.000120193
7.52871e-05
4.87061e-05
3.50948e-05
2.66672e-05
1.97354e-05
1.39561e-05
9.35353e-06
5.90822e-06
3.51226e-06
1.97181e-06
1.05262e-06
5.38426e-07
2.65626e-07
1.27786e-07
6.01996e-08
2.78366e-08
1.26555e-08
5.6653e-09
2.50073e-09
1.08985e-09
4.69528e-10
2.00187e-10
8.45517e-11
3.53947e-11
1.46817e-11
6.01319e-12
2.40963e-12
9.18829e-13
3.07135e-13
5.74315e-14
0.999997
0.999987
0.99997
0.999942
0.999895
0.999817
0.999688
0.999479
0.999142
0.998607
0.99777
0.996481
0.994534
0.99166
0.987517
0.981709
0.973807
0.963396
0.950129
0.933771
0.91423
0.891558
0.865935
0.83764
0.807016
0.774445
0.740327
0.70506
0.669032
0.632606
0.596121
0.559878
0.524147
0.489157
0.455101
0.422137
0.390393
0.359967
0.330928
0.30332
0.277166
0.252467
0.229211
0.207372
0.186914
0.167793
0.149957
0.133351
0.117918
0.103601
0.0903403
0.078079
0.0667613
0.0563344
0.0467492
0.0379612
0.0300271
0.0229605
0.0163297
0.0103864
0.00516825
0.00310286
0.00218442
0.00151912
0.00104205
0.000703961
0.000467624
0.000305061
0.000195413
0.000123308
7.76051e-05
5.04481e-05
3.64476e-05
2.76365e-05
2.0381e-05
1.43571e-05
9.58298e-06
6.0279e-06
3.56889e-06
1.99615e-06
1.06212e-06
5.41745e-07
2.66607e-07
1.28006e-07
6.02032e-08
2.77981e-08
1.26228e-08
5.64527e-09
2.48999e-09
1.08442e-09
4.66948e-10
1.98996e-10
8.40233e-11
3.51611e-11
1.45856e-11
5.9712e-12
2.39303e-12
9.12276e-13
3.04902e-13
5.72193e-14
0.999997
0.999987
0.99997
0.999942
0.999895
0.999817
0.999689
0.99948
0.999144
0.998609
0.997773
0.996486
0.994542
0.991671
0.987534
0.981732
0.973838
0.963437
0.950179
0.933831
0.914299
0.891635
0.866018
0.837727
0.807104
0.774532
0.740409
0.705136
0.669099
0.632663
0.596165
0.559909
0.524164
0.489159
0.455087
0.422108
0.390349
0.359909
0.330857
0.303237
0.277071
0.252361
0.229096
0.207248
0.186783
0.167654
0.149814
0.133206
0.117773
0.103456
0.0901969
0.0779382
0.066624
0.0562013
0.046621
0.0378381
0.0299107
0.0228495
0.0162228
0.010282
0.00507027
0.00309831
0.00218863
0.00152711
0.00105102
0.000712445
0.000474939
0.000310993
0.00020001
0.000126753
8.0133e-05
5.23017e-05
3.78293e-05
2.86081e-05
2.10229e-05
1.47546e-05
9.81117e-06
6.14822e-06
3.62699e-06
2.02191e-06
1.07265e-06
5.4572e-07
2.67977e-07
1.28445e-07
6.03227e-08
2.78182e-08
1.2619e-08
5.63866e-09
2.48541e-09
1.08177e-09
4.65644e-10
1.98345e-10
8.37414e-11
3.50294e-11
1.45312e-11
5.94695e-12
2.38329e-12
9.08369e-13
3.03552e-13
5.71257e-14
0.999997
0.999987
0.99997
0.999942
0.999895
0.999817
0.999689
0.99948
0.999145
0.998611
0.997775
0.996489
0.994547
0.991679
0.987545
0.981747
0.973858
0.963463
0.950212
0.93387
0.914343
0.891684
0.866071
0.837782
0.80716
0.774587
0.740462
0.705184
0.669141
0.632698
0.596192
0.559927
0.524172
0.489157
0.455076
0.422086
0.390317
0.359867
0.330806
0.303178
0.277004
0.252288
0.229016
0.207164
0.186695
0.167564
0.149721
0.133112
0.117679
0.103363
0.0901051
0.0778486
0.0665372
0.0561179
0.0465412
0.037762
0.0298379
0.0227801
0.0161559
0.0102163
0.00500932
0.00310185
0.00219656
0.00153689
0.0010609
0.000721389
0.000482487
0.000317037
0.000204654
0.000130204
8.26348e-05
5.40902e-05
3.9103e-05
2.94775e-05
2.1586e-05
1.50983e-05
1.00068e-05
6.25114e-06
3.67691e-06
2.04424e-06
1.08192e-06
5.4931e-07
2.69271e-07
1.28898e-07
6.04848e-08
2.78639e-08
1.26328e-08
5.64027e-09
2.48519e-09
1.08106e-09
4.65233e-10
1.98087e-10
8.36237e-11
3.49691e-11
1.45059e-11
5.9351e-12
2.37846e-12
9.06367e-13
3.02844e-13
5.7101e-14
0.999997
0.999987
0.99997
0.999942
0.999895
0.999817
0.999689
0.999481
0.999145
0.998612
0.997776
0.996491
0.99455
0.991683
0.98755
0.981754
0.973868
0.963475
0.950227
0.933888
0.914364
0.891707
0.866096
0.837808
0.807186
0.774613
0.740486
0.705207
0.669161
0.632714
0.596204
0.559935
0.524176
0.489156
0.455069
0.422075
0.390301
0.359847
0.330781
0.303149
0.276971
0.252252
0.228978
0.207123
0.186652
0.16752
0.149677
0.133067
0.117634
0.103318
0.090062
0.0778069
0.0664972
0.05608
0.0465055
0.0377287
0.0298013
0.0227441
0.016117
0.0101693
0.0049494
0.0030935
0.0021986
0.0015431
0.00106816
0.00072824
0.000488325
0.000321709
0.000208228
0.000132843
8.45257e-05
5.54029e-05
3.99746e-05
3.00393e-05
2.19348e-05
1.53045e-05
1.01212e-05
6.31033e-06
3.70533e-06
2.05693e-06
1.0872e-06
5.51372e-07
2.70026e-07
1.29172e-07
6.05868e-08
2.78962e-08
1.26436e-08
5.6429e-09
2.48584e-09
1.08102e-09
4.65157e-10
1.98011e-10
8.35861e-11
3.49477e-11
1.44966e-11
5.93054e-12
2.37655e-12
9.05561e-13
3.02554e-13
5.70994e-14
0.999997
0.999987
0.99997
0.999942
0.999895
0.999817
0.999689
0.999481
0.999145
0.998612
0.997776
0.996491
0.99455
0.991683
0.98755
0.981754
0.973868
0.963475
0.950227
0.933888
0.914364
0.891707
0.866096
0.837808
0.807186
0.774612
0.740486
0.705206
0.669161
0.632714
0.596204
0.559935
0.524175
0.489156
0.455069
0.422075
0.390301
0.359847
0.330781
0.303149
0.276971
0.252252
0.228978
0.207123
0.186652
0.16752
0.149677
0.133067
0.117634
0.103318
0.0900619
0.0778068
0.0664972
0.0560799
0.0465054
0.0377285
0.0298011
0.0227439
0.0161168
0.0101691
0.00494941
0.00309369
0.00219879
0.00154324
0.00106826
0.000728304
0.000488365
0.000321735
0.000208245
0.000132853
8.45318e-05
5.54065e-05
3.99767e-05
3.00403e-05
2.19352e-05
1.53046e-05
1.01213e-05
6.31034e-06
3.70533e-06
2.05694e-06
1.0872e-06
5.51374e-07
2.70027e-07
1.29174e-07
6.05865e-08
2.78967e-08
1.26436e-08
5.64299e-09
2.48583e-09
1.08104e-09
4.65156e-10
1.98014e-10
8.3586e-11
3.4948e-11
1.44966e-11
5.93057e-12
2.37653e-12
9.05561e-13
3.02551e-13
5.70989e-14
0.999997
0.999987
0.99997
0.999942
0.999895
0.999817
0.999689
0.99948
0.999145
0.998611
0.997775
0.996489
0.994547
0.991679
0.987545
0.981747
0.973858
0.963462
0.950211
0.933869
0.914343
0.891684
0.866071
0.837782
0.807159
0.774586
0.740461
0.705184
0.669141
0.632697
0.596191
0.559927
0.524172
0.489157
0.455075
0.422086
0.390317
0.359867
0.330806
0.303178
0.277004
0.252287
0.229016
0.207164
0.186695
0.167564
0.149721
0.133112
0.117679
0.103362
0.090105
0.0778485
0.0665371
0.0561177
0.046541
0.0377618
0.0298378
0.0227801
0.0161559
0.0102163
0.00500934
0.00310186
0.00219657
0.00153691
0.00106093
0.000721425
0.000482522
0.000317068
0.000204678
0.000130221
8.26466e-05
5.40977e-05
3.91074e-05
2.94798e-05
2.15869e-05
1.50986e-05
1.00068e-05
6.25115e-06
3.67691e-06
2.04425e-06
1.08192e-06
5.49315e-07
2.69275e-07
1.28901e-07
6.04843e-08
2.78649e-08
1.26327e-08
5.64048e-09
2.48518e-09
1.0811e-09
4.65232e-10
1.98092e-10
8.36236e-11
3.49699e-11
1.45058e-11
5.93522e-12
2.37841e-12
9.06371e-13
3.02835e-13
5.70984e-14
0.999997
0.999987
0.99997
0.999942
0.999895
0.999817
0.999689
0.99948
0.999144
0.998609
0.997773
0.996486
0.994542
0.991671
0.987534
0.981732
0.973838
0.963436
0.950179
0.933831
0.914298
0.891634
0.866017
0.837726
0.807103
0.774531
0.740409
0.705136
0.669098
0.632662
0.596164
0.559909
0.524163
0.489158
0.455087
0.422107
0.390348
0.359908
0.330856
0.303237
0.27707
0.252361
0.229095
0.207248
0.186783
0.167654
0.149814
0.133206
0.117772
0.103456
0.0901968
0.0779381
0.0666239
0.0562012
0.0466209
0.0378382
0.0299108
0.0228497
0.0162231
0.0102823
0.0050703
0.00309804
0.00218834
0.00152689
0.0010509
0.000712389
0.000474925
0.000310999
0.000200023
0.000126765
8.01431e-05
5.23086e-05
3.78335e-05
2.86103e-05
2.10238e-05
1.47549e-05
9.81125e-06
6.14826e-06
3.62703e-06
2.02194e-06
1.07267e-06
5.45732e-07
2.67983e-07
1.28448e-07
6.0324e-08
2.7819e-08
1.26193e-08
5.63884e-09
2.48546e-09
1.08181e-09
4.65651e-10
1.98352e-10
8.37421e-11
3.50306e-11
1.45313e-11
5.94715e-12
2.38324e-12
9.08377e-13
3.03539e-13
5.71221e-14
0.999997
0.999987
0.99997
0.999942
0.999895
0.999817
0.999688
0.999479
0.999142
0.998607
0.99777
0.996481
0.994534
0.991659
0.987517
0.981708
0.973806
0.963396
0.950129
0.93377
0.914229
0.891557
0.865934
0.837639
0.807015
0.774444
0.740326
0.705059
0.669031
0.632605
0.59612
0.559877
0.524146
0.489157
0.455101
0.422136
0.390392
0.359966
0.330927
0.30332
0.277165
0.252467
0.229211
0.207372
0.186914
0.167793
0.149957
0.133351
0.117918
0.103601
0.0903401
0.0780788
0.0667611
0.0563343
0.0467491
0.0379611
0.0300271
0.0229606
0.0163299
0.0103865
0.00516828
0.00310278
0.00218431
0.00151903
0.001042
0.000703946
0.00046763
0.000305077
0.00019543
0.000123323
7.76157e-05
5.04551e-05
3.64518e-05
2.76386e-05
2.03819e-05
1.43574e-05
9.58313e-06
6.02799e-06
3.56896e-06
1.9962e-06
1.06215e-06
5.41762e-07
2.66616e-07
1.28011e-07
6.02053e-08
2.77991e-08
1.26233e-08
5.64548e-09
2.49007e-09
1.08447e-09
4.66965e-10
1.99003e-10
8.40258e-11
3.51624e-11
1.45858e-11
5.97147e-12
2.39298e-12
9.12293e-13
3.04889e-13
5.72155e-14
0.999997
0.999987
0.99997
0.999942
0.999895
0.999816
0.999687
0.999478
0.99914
0.998604
0.997765
0.996473
0.994523
0.991643
0.987493
0.981676
0.973763
0.96334
0.950059
0.933687
0.914132
0.891449
0.865818
0.837517
0.806891
0.774322
0.740208
0.70495
0.668932
0.632521
0.596052
0.559828
0.524116
0.489147
0.455112
0.422169
0.390445
0.360039
0.33102
0.30343
0.277292
0.252608
0.229365
0.207536
0.187087
0.167973
0.150143
0.133543
0.118114
0.103799
0.0905369
0.0782731
0.0669515
0.0565197
0.0469286
0.0381341
0.030191
0.0231174
0.0164806
0.0105327
0.00530327
0.00310999
0.00218275
0.00151327
0.00103476
0.000696765
0.000461275
0.000299838
0.000191322
0.000120211
7.52992e-05
4.87135e-05
3.50989e-05
2.66691e-05
1.97362e-05
1.39564e-05
9.35366e-06
5.90832e-06
3.51235e-06
1.97187e-06
1.05265e-06
5.38447e-07
2.65637e-07
1.27791e-07
6.02023e-08
2.7838e-08
1.26561e-08
5.66558e-09
2.50085e-09
1.0899e-09
4.69551e-10
2.00197e-10
8.45555e-11
3.53963e-11
1.46823e-11
6.01351e-12
2.40963e-12
9.18861e-13
3.07127e-13
5.74283e-14
0.999997
0.999987
0.99997
0.999942
0.999894
0.999816
0.999687
0.999476
0.999138
0.998601
0.997759
0.996464
0.994509
0.991622
0.987463
0.981634
0.973706
0.963266
0.949968
0.933577
0.914005
0.891307
0.865663
0.837355
0.806724
0.774156
0.740048
0.704799
0.668795
0.632401
0.595953
0.559752
0.524066
0.489123
0.455115
0.422199
0.390502
0.360123
0.331129
0.303563
0.277447
0.252782
0.229556
0.207744
0.187307
0.168202
0.150379
0.133784
0.118359
0.104046
0.0907878
0.0785232
0.0671974
0.0567601
0.0471623
0.03836
0.0304057
0.023323
0.0166784
0.0107235
0.00547737
0.00311982
0.00218367
0.00150968
0.00102935
0.000691063
0.000456073
0.000295472
0.000187854
0.000117552
7.32868e-05
4.71578e-05
3.38342e-05
2.57494e-05
1.91233e-05
1.35778e-05
9.13994e-06
5.79962e-06
3.46303e-06
1.95209e-06
1.04581e-06
5.36598e-07
2.65429e-07
1.27959e-07
6.03878e-08
2.79611e-08
1.27265e-08
5.70293e-09
2.51952e-09
1.09884e-09
4.73679e-10
2.02052e-10
8.53693e-11
3.57475e-11
1.48304e-11
6.07568e-12
2.43478e-12
9.28627e-13
3.10445e-13
5.78025e-14
0.999997
0.999987
0.99997
0.999941
0.999894
0.999815
0.999686
0.999475
0.999135
0.998596
0.997751
0.996452
0.994491
0.991596
0.987425
0.981581
0.973635
0.963173
0.949851
0.933437
0.913842
0.891123
0.865464
0.837143
0.806507
0.773938
0.739835
0.704597
0.668609
0.632235
0.595811
0.559639
0.523983
0.489073
0.455098
0.422217
0.390555
0.360208
0.331246
0.30371
0.277622
0.252983
0.22978
0.207987
0.187568
0.168478
0.150666
0.134079
0.118659
0.104348
0.0910883
0.0788241
0.0674992
0.0570581
0.0474525
0.0386415
0.0306738
0.0235805
0.0169262
0.0109626
0.00569558
0.00313228
0.00218712
0.0015084
0.00102591
0.000686975
0.000452148
0.000292081
0.000185104
0.000115401
7.16159e-05
4.5812e-05
3.26762e-05
2.48935e-05
1.85555e-05
1.32317e-05
8.94936e-06
5.70695e-06
3.4243e-06
1.9389e-06
1.04284e-06
5.36852e-07
2.66235e-07
1.28605e-07
6.07922e-08
2.81906e-08
1.28476e-08
5.76338e-09
2.54849e-09
1.11228e-09
4.79749e-10
2.04735e-10
8.65325e-11
3.62441e-11
1.5039e-11
6.16236e-12
2.46988e-12
9.42207e-13
3.15039e-13
5.83789e-14
0.999997
0.999987
0.99997
0.999941
0.999893
0.999814
0.999684
0.999472
0.999132
0.99859
0.997742
0.996438
0.994469
0.991563
0.987378
0.981515
0.973546
0.963058
0.949707
0.933262
0.913638
0.890893
0.865211
0.836874
0.806228
0.773656
0.739557
0.704329
0.668359
0.632009
0.595613
0.559474
0.523854
0.488983
0.455049
0.422208
0.390587
0.360283
0.33136
0.303862
0.277809
0.253203
0.230029
0.208262
0.187866
0.168795
0.150999
0.134424
0.119012
0.104707
0.091449
0.0791821
0.0678522
0.0574082
0.0477998
0.03898
0.0309978
0.0238918
0.0172254
0.0112497
0.00596618
0.00314762
0.00219341
0.00150968
0.00102469
0.000684713
0.000449665
0.000289784
0.000183153
0.000113808
7.03103e-05
4.46794e-05
3.15999e-05
2.40851e-05
1.80255e-05
1.29159e-05
8.78233e-06
5.63164e-06
3.39755e-06
1.93337e-06
1.04424e-06
5.39341e-07
2.68285e-07
1.29872e-07
6.15037e-08
2.85639e-08
1.30342e-08
5.85324e-09
2.59043e-09
1.13135e-09
4.88231e-10
2.08437e-10
8.81232e-11
3.69181e-11
1.53207e-11
6.27864e-12
2.51689e-12
9.60288e-13
3.21155e-13
5.92043e-14
0.999997
0.999987
0.99997
0.999941
0.999893
0.999813
0.999683
0.99947
0.999127
0.998583
0.997731
0.99642
0.994443
0.991524
0.987321
0.981435
0.973438
0.962917
0.949529
0.933046
0.913385
0.890606
0.864895
0.836535
0.805874
0.773295
0.739198
0.703981
0.668029
0.631704
0.595341
0.559239
0.523661
0.488836
0.45495
0.42216
0.390588
0.360333
0.331459
0.304007
0.277998
0.253432
0.230295
0.208562
0.188194
0.169148
0.151373
0.134815
0.119417
0.10512
0.0918678
0.0796026
0.0682702
0.0578191
0.0482036
0.0393802
0.0313837
0.0242621
0.0175811
0.0115905
0.00629257
0.00316598
0.0022029
0.001514
0.00102614
0.000684692
0.000448957
0.000288831
0.000182173
0.000112879
6.94208e-05
4.3753e-05
3.05182e-05
2.32847e-05
1.75171e-05
1.26248e-05
8.63762e-06
5.57417e-06
3.38372e-06
1.93613e-06
1.0504e-06
5.44717e-07
2.71846e-07
1.31894e-07
6.25775e-08
2.91068e-08
1.32984e-08