/*--------------------------------*- C++ -*----------------------------------*\
  =========                 |
  \\      /  F ield         | OpenFOAM: The Open Source CFD Toolbox
   \\    /   O peration     | Website:  https://openfoam.org
    \\  /    A nd           | Version:  8
     \\/     M anipulation  |
\*---------------------------------------------------------------------------*/
FoamFile
{
    version     2.0;
    format      ascii;
    class       volScalarField;
    location    "840/fluid";
    object      CO2;
}
// * * * * * * * * * * * * * * * * * * * * * * * * * * * * * * * * * * * * * //

dimensions      [0 0 0 0 0 0 0];

internalField   nonuniform List<scalar> 
4000
(
4.74318e-07
2.07261e-06
4.76002e-06
9.26456e-06
1.67827e-05
2.92613e-05
4.9831e-05
8.34544e-05
0.000137864
0.000224864
0.000362023
0.0005747
0.000898107
0.00137882
0.00207479
0.00305283
0.00438276
0.0061287
0.00833956
0.0110417
0.0142358
0.017899
0.0219894
0.0264524
0.031226
0.0362456
0.0414471
0.0467692
0.0521546
0.0575513
0.0629129
0.068199
0.0733756
0.0784142
0.0832923
0.0879919
0.0924994
0.0968051
0.100903
0.104791
0.108469
0.111938
0.115202
0.118265
0.121134
0.123813
0.12631
0.128629
0.130775
0.132753
0.134564
0.136208
0.137683
0.138983
0.140096
0.141005
0.141684
0.142093
0.142191
0.141913
0.141162
0.13981
0.137043
0.126505
0.115794
0.105088
0.0945272
0.0842193
0.0742517
0.0646954
0.0556102
0.0470489
0.0390611
0.031733
0.0250369
0.0190789
0.013923
0.00963252
0.00625427
0.00378267
0.00212744
0.00111828
0.000554594
0.000263733
0.000121849
5.50235e-05
2.43896e-05
1.06462e-05
4.58768e-06
1.95559e-06
8.25993e-07
3.46169e-07
1.44104e-07
5.96187e-08
2.45014e-08
9.97288e-09
3.98351e-09
1.52016e-09
5.07603e-10
8.90403e-11
4.74841e-07
2.07539e-06
4.76856e-06
9.28702e-06
1.68352e-05
2.93723e-05
5.0044e-05
8.38242e-05
0.000138435
0.000225609
0.000362717
0.000574694
0.000896019
0.00137205
0.00205913
0.00302224
0.0043296
0.00604465
0.00821692
0.0108748
0.0140222
0.0176395
0.0216882
0.0261159
0.0308625
0.0358641
0.0410564
0.0463776
0.0517695
0.0571789
0.0625583
0.0678661
0.0730671
0.078132
0.0830373
0.0877644
0.092299
0.0966311
0.100754
0.104666
0.108366
0.111855
0.115137
0.118217
0.121101
0.123793
0.126301
0.12863
0.130785
0.132769
0.134586
0.136235
0.137713
0.139016
0.14013
0.14104
0.141719
0.142127
0.142223
0.141941
0.141183
0.13982
0.136202
0.125597
0.114832
0.104082
0.0934847
0.0831473
0.0731572
0.0635859
0.0544945
0.0459378
0.0379682
0.0306768
0.0240392
0.0181679
0.0131288
0.0089836
0.00576838
0.00345664
0.00193427
0.0010174
0.000507762
0.00024356
0.000113669
5.18625e-05
2.32126e-05
1.02189e-05
4.43457e-06
1.90068e-06
8.06001e-07
3.38688e-07
1.41207e-07
5.84591e-08
2.40258e-08
9.7759e-09
3.90278e-09
1.48849e-09
4.96814e-10
8.72506e-11
4.76005e-07
2.08074e-06
4.78206e-06
9.31614e-06
1.68928e-05
2.9478e-05
5.02246e-05
8.41091e-05
0.000138841
0.000226102
0.00036313
0.000574558
0.000894238
0.0013667
0.00204711
0.00299908
0.00428942
0.00598048
0.0081215
0.0107415
0.0138461
0.0174182
0.0214217
0.0258072
0.0305168
0.0354882
0.0406585
0.045966
0.0513524
0.0567643
0.0621531
0.0674765
0.072698
0.0777875
0.0827202
0.0874768
0.092042
0.0964049
0.100559
0.1045
0.108228
0.111744
0.115052
0.118155
0.121059
0.12377
0.126295
0.128638
0.130805
0.1328
0.134625
0.136281
0.137765
0.139071
0.140187
0.141097
0.141775
0.142179
0.142269
0.141977
0.141204
0.139818
0.134722
0.124068
0.113258
0.102472
0.0918498
0.0815007
0.0715138
0.0619627
0.0529105
0.0444142
0.0365287
0.0293343
0.0228363
0.0171318
0.0122816
0.00833689
0.00531573
0.00317016
0.0017709
0.000932726
0.000467272
0.000225147
0.000105604
4.84332e-05
2.17888e-05
9.63856e-06
4.20113e-06
1.80755e-06
7.68965e-07
3.23946e-07
1.35315e-07
5.60905e-08
2.30693e-08
9.38973e-09
3.74864e-09
1.42934e-09
4.76933e-10
8.38553e-11
4.75558e-07
2.07876e-06
4.77737e-06
9.30622e-06
1.68716e-05
2.94311e-05
5.01177e-05
8.38664e-05
0.000138305
0.000224968
0.000360845
0.000570198
0.000886385
0.0013532
0.00202493
0.00296418
0.00423697
0.00590518
0.00801818
0.0106058
0.013675
0.0172104
0.0211776
0.025529
0.0302081
0.0351538
0.0403041
0.0455979
0.0509773
0.0563886
0.061783
0.0671177
0.0723555
0.0774652
0.0824217
0.0872045
0.0917976
0.0961895
0.100373
0.104343
0.108099
0.111642
0.114975
0.118101
0.121028
0.123759
0.126301
0.128659
0.130839
0.132845
0.134679
0.136341
0.13783
0.139137
0.140254
0.141161
0.141834
0.142229
0.142306
0.141997
0.1412
0.139781
0.132882
0.122211
0.111382
0.100583
0.0899588
0.0796236
0.0696689
0.0601704
0.0511928
0.0427945
0.0350317
0.0279563
0.0216267
0.0161066
0.011452
0.00770547
0.00487081
0.00288351
0.00160264
0.000842155
0.000421997
0.000203736
9.58447e-05
4.4111e-05
1.9919e-05
8.84534e-06
3.87006e-06
1.67116e-06
7.13344e-07
3.01427e-07
1.26242e-07
5.24475e-08
2.1611e-08
8.80913e-09
3.52068e-09
1.34329e-09
4.48367e-10
7.89656e-11
4.73741e-07
2.07072e-06
4.75847e-06
9.2681e-06
1.67991e-05
2.92963e-05
4.987e-05
8.3414e-05
0.000137485
0.000223496
0.000358242
0.00056568
0.000878728
0.00134058
0.00200476
0.00293311
0.00419094
0.00583979
0.00792912
0.0104895
0.0135288
0.0170332
0.0209699
0.0252926
0.029946
0.03487
0.0400034
0.0452855
0.0506587
0.0560691
0.061468
0.0668119
0.0720633
0.0771904
0.0821672
0.0869728
0.0915905
0.0960081
0.100217
0.104214
0.107996
0.111563
0.114919
0.118068
0.121015
0.123764
0.126321
0.128694
0.130885
0.1329
0.134741
0.136408
0.137898
0.139204
0.140317
0.141217
0.141879
0.142257
0.142315
0.141979
0.141145
0.139683
0.130946
0.120287
0.109455
0.0986539
0.0880395
0.0777312
0.0678232
0.0583921
0.0495028
0.0412134
0.0335925
0.0266624
0.020499
0.0151601
0.0106954
0.00713764
0.00447679
0.00263333
0.00145743
0.000764442
0.000383128
0.000185249
8.73358e-05
4.02938e-05
1.82412e-05
8.12017e-06
3.56096e-06
1.54092e-06
6.58991e-07
2.78921e-07
1.16984e-07
4.86595e-08
2.007e-08
8.18743e-09
3.274e-09
1.24945e-09
4.1708e-10
7.35827e-11
4.7085e-07
2.05796e-06
4.72859e-06
9.2083e-06
1.66869e-05
2.90922e-05
4.95056e-05
8.27719e-05
0.000136367
0.000221576
0.000354995
0.000560296
0.000869997
0.00132678
0.00198362
0.00290176
0.0041461
0.00577803
0.00784726
0.0103849
0.0134
0.0168796
0.020792
0.0250921
0.0297254
0.0346327
0.0397532
0.0450267
0.0503957
0.0558064
0.0612097
0.0665621
0.0718255
0.0769678
0.0819624
0.0867878
0.0914269
0.0958668
0.100099
0.104118
0.107922
0.111511
0.114889
0.118056
0.121019
0.123784
0.126355
0.128739
0.130939
0.132961
0.134806
0.136473
0.137961
0.139262
0.140365
0.141251
0.141894
0.142248
0.142278
0.141908
0.141037
0.13955
0.129305
0.118584
0.107697
0.0968639
0.0862438
0.0759562
0.0660939
0.0567312
0.0479312
0.0397501
0.0322683
0.0254785
0.019473
0.0143043
0.0100158
0.00663065
0.00412615
0.00241047
0.00132722
0.000693889
0.000347237
0.000167904
7.92252e-05
3.66016e-05
1.65978e-05
7.40244e-06
3.25255e-06
1.41021e-06
6.04216e-07
2.56184e-07
1.07617e-07
4.48257e-08
1.85107e-08
7.55855e-09
3.02456e-09
1.15459e-09
3.8552e-10
6.81523e-11
4.67495e-07
2.04322e-06
4.69434e-06
9.14053e-06
1.65615e-05
2.88681e-05
4.91132e-05
8.2095e-05
0.000135215
0.000219642
0.000351798
0.000555103
0.000861738
0.00131396
0.00196426
0.00287344
0.00410608
0.00572348
0.00777562
0.0102943
0.0132892
0.0167484
0.0206414
0.0249235
0.0295412
0.0344359
0.039547
0.0448146
0.0501814
0.0555936
0.0610019
0.0663625
0.0716371
0.076793
0.0818034
0.0866462
0.0913038
0.0957631
0.100015
0.104054
0.107877
0.111485
0.114879
0.118062
0.12104
0.123817
0.126399
0.128791
0.130998
0.133023
0.134869
0.136534
0.138015
0.139305
0.140391
0.141253
0.141864
0.142175
0.142153
0.141717
0.140772
0.139225
0.128367
0.117301
0.106222
0.0952905
0.0846337
0.0743527
0.0645293
0.0552307
0.046515
0.0384341
0.03107
0.0244044
0.0185458
0.0135381
0.00941553
0.00618768
0.00382282
0.00221929
0.00121618
0.000633892
0.000316699
0.000153094
7.22617e-05
3.34086e-05
1.51643e-05
6.77061e-06
2.97844e-06
1.29292e-06
5.54623e-07
2.35426e-07
9.90027e-08
4.12775e-08
1.70598e-08
6.97083e-09
2.79061e-09
1.06539e-09
3.55796e-10
6.30361e-11
4.64003e-07
2.0279e-06
4.65888e-06
9.07066e-06
1.64329e-05
2.86396e-05
4.8716e-05
8.14159e-05
0.00013407
0.00021774
0.000348692
0.000550122
0.000853921
0.00130199
0.00194644
0.00284773
0.00407021
0.00567521
0.007713
0.0102159
0.0131943
0.0166372
0.0205146
0.0247828
0.0293887
0.034274
0.0393786
0.0446427
0.050009
0.0554237
0.0608374
0.066206
0.0714909
0.0766592
0.0816835
0.0865415
0.0912153
0.0956912
0.0999598
0.104015
0.107855
0.111478
0.114886
0.118082
0.121071
0.123858
0.126448
0.128847
0.131058
0.133085
0.134929
0.136589
0.138061
0.139336
0.140401
0.141231
0.141794
0.142039
0.141917
0.141331
0.140152
0.138242
0.12719
0.115979
0.104808
0.0938299
0.0831637
0.0729042
0.0631276
0.0538973
0.0452673
0.0372868
0.0300348
0.0235093
0.0177794
0.012895
0.00890242
0.00580886
0.003564
0.0020563
0.00112137
0.000582463
0.000290364
0.000140245
6.61813e-05
3.06035e-05
1.3898e-05
6.20964e-06
2.734e-06
1.18792e-06
5.10079e-07
2.16728e-07
9.12248e-08
3.80673e-08
1.57449e-08
6.43743e-09
2.57804e-09
9.84339e-10
3.28772e-10
5.83888e-11
4.60618e-07
2.01308e-06
4.62465e-06
9.00343e-06
1.63097e-05
2.84219e-05
4.83399e-05
8.07771e-05
0.000133002
0.00021598
0.00034584
0.000545589
0.000846868
0.00129129
0.00193064
0.0028251
0.0040389
0.0056334
0.00765915
0.0101489
0.0131139
0.0165436
0.0204088
0.0246662
0.0292631
0.0341417
0.039242
0.0445044
0.0498715
0.0552894
0.0607087
0.066085
0.0713794
0.0765588
0.0815955
0.0864669
0.0911547
0.0956448
0.0999277
0.103997
0.10785
0.111485
0.114904
0.118111
0.12111
0.123904
0.126501
0.128903
0.131117
0.133144
0.134985
0.136641
0.138104
0.139367
0.140414
0.14122
0.141748
0.141949
0.141764
0.141088
0.139778
0.137171
0.125985
0.114689
0.103472
0.0924796
0.081825
0.0715994
0.0618767
0.0527191
0.0441818
0.0363173
0.0292016
0.0227983
0.0171852
0.0124069
0.00849398
0.00549232
0.00334522
0.00191845
0.00104123
0.000538986
0.000268073
0.000129343
6.10067e-05
2.82077e-05
1.28123e-05
5.72668e-06
2.52268e-06
1.09679e-06
4.71276e-07
2.00385e-07
8.44052e-08
3.52451e-08
1.45863e-08
5.96652e-09
2.3901e-09
9.1261e-10
3.04851e-10
5.42784e-11
4.57469e-07
1.9993e-06
4.59287e-06
8.94116e-06
1.61958e-05
2.82214e-05
4.79948e-05
8.01933e-05
0.00013203
0.000214387
0.000343274
0.000541535
0.000840601
0.00128184
0.00191678
0.00280541
0.00401184
0.00559751
0.00761325
0.0100923
0.0130464
0.0164655
0.020321
0.0245701
0.0291605
0.0340344
0.0391321
0.0443941
0.0497628
0.0551844
0.0606092
0.0659927
0.0712959
0.0764852
0.0815328
0.0864157
0.0911154
0.0956178
0.0999127
0.103993
0.107857
0.111502
0.114931
0.118146
0.121152
0.123952
0.126553
0.128958
0.131173
0.1332
0.135039
0.13669
0.138147
0.139401
0.140437
0.141231
0.141744
0.141932
0.141739
0.141066
0.139789
0.136009
0.124782
0.113463
0.102239
0.0912559
0.0806273
0.0704424
0.0607737
0.0516821
0.0432218
0.0354382
0.0283602
0.0220416
0.0165353
0.0118854
0.00812414
0.00522332
0.00315665
0.00180028
0.000972923
0.000502029
0.000249134
0.000120076
5.6602e-05
2.61646e-05
1.18844e-05
5.31306e-06
2.34131e-06
1.0184e-06
4.37827e-07
1.86269e-07
7.85052e-08
3.27996e-08
1.35808e-08
5.55736e-09
2.22684e-09
8.50307e-10
2.84061e-10
5.07087e-11
4.54627e-07
1.98687e-06
4.56424e-06
8.88516e-06
1.60937e-05
2.80419e-05
4.76868e-05
7.96741e-05
0.000131168
0.000212981
0.00034102
0.00053799
0.000835148
0.00127366
0.00190485
0.00278854
0.00398877
0.00556708
0.00757454
0.0100448
0.01299
0.0164007
0.0202488
0.0244916
0.0290771
0.0339479
0.0390443
0.0443066
0.0496775
0.0551029
0.0605331
0.0659233
0.0712343
0.0764324
0.0814894
0.0863823
0.0910922
0.0956047
0.0999093
0.103999
0.107872
0.111525
0.114962
0.118183
0.121194
0.123999
0.126602
0.129009
0.131224
0.13325
0.135087
0.136734
0.138186
0.139433
0.140461
0.141247
0.141751
0.141932
0.141735
0.141063
0.139793
0.134881
0.123646
0.112331
0.101122
0.0901661
0.0795777
0.0694438
0.0598354
0.0508128
0.042411
0.0346786
0.0276574
0.0214143
0.0159954
0.0114396
0.00777319
0.00498854
0.00300091
0.00170041
0.00091526
0.00047088
0.000233184
0.00011227
5.28892e-05
2.44405e-05
1.11002e-05
4.96291e-06
2.18749e-06
9.51808e-07
4.0936e-07
1.74236e-07
7.34676e-08
3.07087e-08
1.27203e-08
5.20699e-09
2.0869e-09
7.96891e-10
2.66223e-10
4.76552e-11
4.52122e-07
1.97592e-06
4.53904e-06
8.83591e-06
1.6004e-05
2.78846e-05
4.74174e-05
7.92212e-05
0.000130419
0.000211763
0.000339072
0.000534938
0.000830471
0.00126667
0.0018947
0.00277425
0.00396933
0.00554155
0.00754222
0.0100053
0.0129434
0.0163475
0.0201897
0.0244278
0.0290099
0.0338787
0.0389745
0.0442378
0.0496111
0.0550402
0.0604754
0.0658717
0.0711896
0.0763953
0.0814605
0.0863618
0.0910803
0.0956009
0.0999136
0.104011
0.107891
0.111551
0.114993
0.118219
0.121233
0.124041
0.126646
0.129054
0.131269
0.133292
0.135126
0.136769
0.138216
0.139457
0.140478
0.141256
0.141753
0.141928
0.141726
0.141051
0.139784
0.133874
0.122634
0.111327
0.100143
0.0892256
0.0786726
0.068573
0.0589964
0.0499989
0.0416429
0.0339731
0.0270319
0.0208686
0.0155317
0.0110595
0.00747617
0.00476909
0.00286538
0.00161759
0.000866514
0.000444601
0.000219774
0.000105718
4.97748e-05
2.29942e-05
1.04422e-05
4.66884e-06
2.05818e-06
8.9576e-07
3.85373e-07
1.64084e-07
6.92126e-08
2.89408e-08
1.1992e-08
4.9102e-09
1.96827e-09
7.51597e-10
2.5108e-10
4.50762e-11
4.49958e-07
1.96646e-06
4.51728e-06
8.79345e-06
1.59268e-05
2.77494e-05
4.71862e-05
7.88333e-05
0.000129779
0.000210724
0.000337416
0.000532351
0.000826521
0.00126079
0.00188618
0.0027623
0.00395313
0.00552036
0.00751551
0.00997285
0.0129053
0.0163042
0.0201419
0.0243764
0.0289561
0.0338237
0.0389195
0.044184
0.0495598
0.0549924
0.0604321
0.0658336
0.0711576
0.0763698
0.0814418
0.0863502
0.0910755
0.0956029
0.0999221
0.104026
0.107911
0.111576
0.115022
0.118252
0.121269
0.124078
0.126684
0.129091
0.131304
0.133325
0.135156
0.136794
0.138236
0.139471
0.140485
0.141256
0.141745
0.141914
0.141706
0.14103
0.139767
0.133006
0.121755
0.110451
0.0992802
0.0883702
0.0778386
0.0677706
0.0582357
0.0492922
0.0409915
0.0333807
0.0265023
0.0204065
0.0151399
0.0107401
0.00722866
0.00458876
0.00274223
0.00154793
0.000827099
0.000422897
0.000208646
0.000100292
4.71971e-05
2.17969e-05
9.89697e-06
4.42494e-06
1.9508e-06
8.4915e-07
3.65397e-07
1.55617e-07
6.56595e-08
2.74627e-08
1.13825e-08
4.66157e-09
1.86881e-09
7.13616e-10
2.38374e-10
4.29187e-11
4.48124e-07
1.95845e-06
4.49886e-06
8.75753e-06
1.58615e-05
2.76352e-05
4.69914e-05
7.8507e-05
0.000129242
0.000209853
0.000336032
0.000530194
0.000823234
0.0012559
0.00187913
0.00275245
0.00393981
0.005503
0.00749371
0.00994644
0.0128744
0.0162692
0.0201035
0.0243354
0.0289134
0.0337803
0.0388765
0.0441424
0.0495204
0.0549562
0.0603997
0.0658059
0.0711349
0.0763525
0.0814302
0.0863442
0.091075
0.0956079
0.0999322
0.104041
0.10793
0.111599
0.115048
0.118279
0.121298
0.124108
0.126713
0.12912
0.131331
0.133349
0.135175
0.136809
0.138244
0.139473
0.14048
0.141244
0.141726
0.141889
0.141677
0.141
0.139744
0.132271
0.121005
0.109702
0.098534
0.087643
0.0771367
0.0671
0.0576021
0.0487006
0.040446
0.0328848
0.0260593
0.0200199
0.0148129
0.0104744
0.00702405
0.00444121
0.00264318
0.00148566
0.000794421
0.000405859
0.000199763
9.58933e-05
4.5098e-05
2.08196e-05
9.45091e-06
4.22496e-06
1.86258e-06
8.10791e-07
3.48931e-07
1.48629e-07
6.27231e-08
2.62398e-08
1.08777e-08
4.45552e-09
1.78633e-09
6.82107e-10
2.27835e-10
4.11328e-11
4.46603e-07
1.9518e-06
4.4836e-06
8.72778e-06
1.58075e-05
2.75409e-05
4.68306e-05
7.82379e-05
0.000128799
0.000209138
0.000334897
0.000528428
0.000820548
0.00125192
0.0018734
0.00274445
0.00392903
0.005489
0.00747616
0.00992526
0.0128498
0.0162414
0.0200731
0.0243031
0.0288799
0.0337465
0.0388431
0.0441103
0.0494904
0.0549289
0.0603758
0.0657857
0.0711188
0.0763408
0.081423
0.0863414
0.0910766
0.0956137
0.0999419
0.104054
0.107946
0.111617
0.115068
0.118301
0.12132
0.12413
0.126734
0.129139
0.131347
0.133362
0.135184
0.136812
0.138242
0.139465
0.140465
0.141221
0.141697
0.141854
0.141639
0.140964
0.139718
0.131662
0.120376
0.109068
0.0979097
0.0870359
0.0765525
0.0665435
0.0570772
0.048211
0.0399948
0.032475
0.0256933
0.0197009
0.0145434
0.010256
0.00685654
0.00432115
0.00256335
0.00143627
0.000765547
0.000391399
0.000192793
9.24395e-05
4.34155e-05
2.00286e-05
9.08874e-06
4.06232e-06
1.79072e-06
7.79508e-07
3.35489e-07
1.42919e-07
6.03218e-08
2.52391e-08
1.04645e-08
4.2868e-09
1.71879e-09
6.56303e-10
2.19207e-10
3.9674e-11
4.45375e-07
1.94644e-06
4.47128e-06
8.70377e-06
1.5764e-05
2.74648e-05
4.67011e-05
7.80216e-05
0.000128444
0.000208565
0.000333988
0.000527016
0.000818405
0.00124875
0.00186885
0.00273811
0.0039205
0.00547793
0.00746234
0.00990863
0.0128304
0.0162197
0.0200494
0.024278
0.0288541
0.0337205
0.0388177
0.0440861
0.0494678
0.0549086
0.0603581
0.065771
0.0711073
0.0763327
0.0814182
0.0863399
0.0910785
0.0956186
0.0999496
0.104064
0.107958
0.111631
0.115083
0.118316
0.121335
0.124144
0.126747
0.129149
0.131354
0.133365
0.135183
0.136806
0.13823
0.139446
0.14044
0.141189
0.141659
0.141812
0.141595
0.140922
0.139689
0.131168
0.119865
0.108552
0.0973993
0.0865393
0.0760752
0.0660896
0.05665
0.047813
0.0396287
0.0321427
0.0253969
0.0194429
0.0143256
0.0100799
0.00672185
0.00422496
0.00249972
0.00139719
0.000742944
0.000378757
0.000186351
8.94992e-05
4.2074e-05
1.93983e-05
8.79756e-06
3.931e-06
1.73267e-06
7.5425e-07
3.24644e-07
1.38316e-07
5.83874e-08
2.44335e-08
1.01322e-08
4.15119e-09
1.66459e-09
6.35608e-10
2.12293e-10
3.85086e-11
4.44419e-07
1.94226e-06
4.46169e-06
8.6851e-06
1.57301e-05
2.74058e-05
4.66007e-05
7.78539e-05
0.000128169
0.000208121
0.000333285
0.000525926
0.000816753
0.00124631
0.00186534
0.00273324
0.00391396
0.00546947
0.00745179
0.00989596
0.0128157
0.0162032
0.0200315
0.0242591
0.0288347
0.0337011
0.0387988
0.044068
0.0494512
0.0548936
0.0603451
0.0657603
0.071099
0.0763268
0.0814146
0.0863387
0.0910794
0.0956216
0.0999544
0.10407
0.107966
0.111639
0.115091
0.118325
0.121343
0.12415
0.126751
0.129151
0.131353
0.13336
0.135173
0.136791
0.138209
0.139419
0.140406
0.14115
0.141614
0.141764
0.141547
0.140879
0.139662
0.130775
0.119453
0.108137
0.0969906
0.0861429
0.0756954
0.0657295
0.056312
0.0474991
0.0393405
0.0318817
0.0251645
0.0192408
0.0141555
0.00994267
0.00661713
0.0041504
0.00245059
0.00136721
0.000725848
0.000369518
0.000181563
8.70683e-05
4.09136e-05
1.88841e-05
8.56741e-06
3.82817e-06
1.68728e-06
7.34502e-07
3.16174e-07
1.34725e-07
5.68822e-08
2.38076e-08
9.87519e-09
4.04632e-09
1.62284e-09
6.19673e-10
2.06971e-10
3.76146e-11
4.43719e-07
1.93921e-06
4.45467e-06
8.67143e-06
1.57053e-05
2.73626e-05
4.65271e-05
7.77313e-05
0.000127968
0.000207797
0.000332772
0.000525131
0.00081555
0.00124454
0.0018628
0.0027297
0.00390922
0.00546334
0.00744416
0.00988681
0.0128052
0.0161914
0.0200187
0.0242456
0.0288208
0.0336873
0.0387853
0.0440553
0.0494394
0.054883
0.0603359
0.0657526
0.0710929
0.0763223
0.0814116
0.0863371
0.0910791
0.0956224
0.0999562
0.104073
0.107969
0.111642
0.115094
0.118327
0.121344
0.12415
0.126749
0.129146
0.131345
0.133348
0.135156
0.136769
0.138182
0.139386
0.140367
0.141106
0.141566
0.141713
0.141498
0.140836
0.139636
0.130483
0.119142
0.107821
0.096679
0.0858413
0.0754075
0.0654578
0.056058
0.0472641
0.0391254
0.0316875
0.0249921
0.0190913
0.0140299
0.00984161
0.00654028
0.00409587
0.00241475
0.00134537
0.000713414
0.000362838
0.000178137
8.53786e-05
4.01005e-05
1.84981e-05
8.39594e-06
3.75328e-06
1.65467e-06
7.20396e-07
3.10148e-07
1.3217e-07
5.58131e-08
2.33621e-08
9.69197e-09
3.97142e-09
1.59294e-09
6.08245e-10
2.0315e-10
3.69745e-11
4.43261e-07
1.93721e-06
4.45008e-06
8.66249e-06
1.56891e-05
2.73344e-05
4.64792e-05
7.76512e-05
0.000127836
0.000207585
0.000332438
0.000524614
0.000814767
0.00124338
0.00186114
0.00272741
0.00390615
0.00545937
0.00743923
0.00988089
0.0127983
0.0161837
0.0200104
0.0242369
0.0288119
0.0336784
0.0387766
0.044047
0.0494318
0.0548762
0.06033
0.0657475
0.0710888
0.076319
0.0814091
0.0863352
0.0910777
0.0956215
0.0999556
0.104073
0.107969
0.111642
0.115093
0.118325
0.121341
0.124145
0.126742
0.129137
0.131332
0.133332
0.135137
0.136745
0.138153
0.139352
0.140329
0.141064
0.141521
0.141668
0.141456
0.140802
0.139615
0.13027
0.118921
0.107599
0.096462
0.0856327
0.0752097
0.0652723
0.0558857
0.0471055
0.038981
0.0315578
0.0248774
0.0189922
0.013947
0.00977519
0.00649002
0.0040604
0.00239153
0.00133124
0.000705359
0.000358507
0.000175918
8.42998e-05
3.95894e-05
1.8258e-05
8.28439e-06
3.70294e-06
1.63295e-06
7.11104e-07
3.06212e-07
1.30509e-07
5.51209e-08
2.30746e-08
9.57401e-09
3.92331e-09
1.57374e-09
6.00909e-10
2.00696e-10
3.65646e-11
4.43038e-07
1.93623e-06
4.44785e-06
8.65816e-06
1.56813e-05
2.73207e-05
4.64561e-05
7.76129e-05
0.000127774
0.000207485
0.000332279
0.000524369
0.000814396
0.00124284
0.00186036
0.00272632
0.00390469
0.00545749
0.00743689
0.00987808
0.0127951
0.0161801
0.0200065
0.0242327
0.0288077
0.0336741
0.0387725
0.0440431
0.0494281
0.0548729
0.060327
0.065745
0.0710866
0.0763172
0.0814076
0.0863339
0.0910763
0.0956201
0.0999542
0.104071
0.107967
0.11164
0.115091
0.118322
0.121337
0.12414
0.126735
0.129128
0.131322
0.133319
0.135121
0.136726
0.138131
0.139327
0.140302
0.141035
0.141493
0.141645
0.141445
0.140818
0.139682
0.130196
0.11882
0.107488
0.0963495
0.0855239
0.0751069
0.0651765
0.0557975
0.0470251
0.0389085
0.0314932
0.0248209
0.0189438
0.0139069
0.00974328
0.00646607
0.00404364
0.00238067
0.00132468
0.000701634
0.000356504
0.000174889
8.38025e-05
3.9355e-05
1.81486e-05
8.23427e-06
3.68018e-06
1.62273e-06
7.06613e-07
3.04294e-07
1.29698e-07
5.47829e-08
2.29344e-08
9.51649e-09
3.89987e-09
1.56439e-09
5.97335e-10
1.99501e-10
3.6365e-11
4.43039e-07
1.93624e-06
4.44786e-06
8.65818e-06
1.56813e-05
2.73208e-05
4.64562e-05
7.7613e-05
0.000127774
0.000207485
0.00033228
0.00052437
0.000814397
0.00124284
0.00186036
0.00272633
0.0039047
0.0054575
0.0074369
0.0098781
0.0127951
0.0161801
0.0200065
0.0242328
0.0288077
0.0336742
0.0387725
0.0440431
0.0494281
0.0548729
0.0603271
0.065745
0.0710867
0.0763173
0.0814077
0.0863339
0.0910764
0.0956201
0.0999542
0.104071
0.107967
0.11164
0.115091
0.118322
0.121337
0.12414
0.126735
0.129128
0.131322
0.133319
0.135121
0.136726
0.138131
0.139327
0.140302
0.141035
0.141493
0.141645
0.141445
0.140818
0.139682
0.130196
0.11882
0.107488
0.0963495
0.0855239
0.0751069
0.0651765
0.0557975
0.0470251
0.0389085
0.0314932
0.0248209
0.0189439
0.0139069
0.0097433
0.00646608
0.00404365
0.00238068
0.00132469
0.000701636
0.000356506
0.00017489
8.3803e-05
3.93551e-05
1.81487e-05
8.2343e-06
3.6802e-06
1.62273e-06
7.06616e-07
3.04294e-07
1.29698e-07
5.47828e-08
2.29344e-08
9.51647e-09
3.89986e-09
1.56438e-09
5.97331e-10
1.995e-10
3.63649e-11
4.43264e-07
1.93722e-06
4.45011e-06
8.66255e-06
1.56892e-05
2.73345e-05
4.64794e-05
7.76517e-05
0.000127837
0.000207586
0.00033244
0.000524617
0.000814771
0.00124339
0.00186115
0.00272742
0.00390616
0.00545939
0.00743925
0.00988092
0.0127984
0.0161838
0.0200104
0.0242369
0.028812
0.0336785
0.0387767
0.0440471
0.0494318
0.0548763
0.06033
0.0657476
0.0710888
0.076319
0.0814091
0.0863352
0.0910778
0.0956216
0.0999557
0.104073
0.107969
0.111642
0.115093
0.118325
0.121341
0.124145
0.126742
0.129137
0.131332
0.133332
0.135137
0.136745
0.138153
0.139352
0.140329
0.141064
0.141521
0.141668
0.141456
0.140802
0.139615
0.13027
0.118921
0.107599
0.0964621
0.0856328
0.0752098
0.0652723
0.0558857
0.0471055
0.0389811
0.0315578
0.0248774
0.0189923
0.013947
0.00977523
0.00649006
0.00406043
0.00239155
0.00133125
0.000705367
0.000358512
0.00017592
8.43011e-05
3.95898e-05
1.82584e-05
8.28446e-06
3.703e-06
1.63296e-06
7.11112e-07
3.06213e-07
1.3051e-07
5.51208e-08
2.30747e-08
9.57396e-09
3.9233e-09
1.57372e-09
6.00901e-10
2.00693e-10
3.65643e-11
4.43724e-07
1.93923e-06
4.45472e-06
8.67152e-06
1.57055e-05
2.73629e-05
4.65276e-05
7.77321e-05
0.000127969
0.000207799
0.000332775
0.000525136
0.000815557
0.00124455
0.00186281
0.00272972
0.00390925
0.00546338
0.00744421
0.00988687
0.0128052
0.0161915
0.0200188
0.0242457
0.0288209
0.0336874
0.0387854
0.0440554
0.0494395
0.0548832
0.060336
0.0657527
0.071093
0.0763224
0.0814117
0.0863372
0.0910792
0.0956225
0.0999562
0.104073
0.107969
0.111643
0.115094
0.118327
0.121344
0.12415
0.126749
0.129146
0.131345
0.133348
0.135156
0.136769
0.138182
0.139386
0.140367
0.141106
0.141566
0.141713
0.141498
0.140837
0.139636
0.130483
0.119142
0.107821
0.0966793
0.0858415
0.0754077
0.0654579
0.0560581
0.0472642
0.0391255
0.0316876
0.0249922
0.0190914
0.01403
0.00984169
0.00654035
0.00409593
0.00241479
0.0013454
0.000713429
0.000362846
0.000178141
8.53807e-05
4.01015e-05
1.84985e-05
8.39613e-06
3.75336e-06
1.6547e-06
7.20408e-07
3.10152e-07
1.32172e-07
5.58132e-08
2.33622e-08
9.6919e-09
3.9714e-09
1.5929e-09
6.08233e-10
2.03145e-10
3.69742e-11
4.44426e-07
1.94229e-06
4.46176e-06
8.68523e-06
1.57303e-05
2.74062e-05
4.66013e-05
7.7855e-05
0.00012817
0.000208123
0.000333289
0.000525933
0.000816763
0.00124633
0.00186536
0.00273327
0.003914
0.00546952
0.00745186
0.00989603
0.0128158
0.0162033
0.0200316
0.0242593
0.0288348
0.0337013
0.0387989
0.0440682
0.0494513
0.0548938
0.0603453
0.0657604
0.0710991
0.0763269
0.0814148
0.0863388
0.0910796
0.0956217
0.0999545
0.104071
0.107966
0.111639
0.115091
0.118325
0.121343
0.12415
0.126751
0.129151
0.131353
0.13336
0.135173
0.136791
0.138209
0.139419
0.140406
0.14115
0.141614
0.141764
0.141547
0.140879
0.139662
0.130775
0.119453
0.108137
0.0969909
0.0861431
0.0756955
0.0657297
0.0563121
0.0474992
0.0393406
0.0318818
0.0251647
0.019241
0.0141556
0.00994278
0.00661723
0.00415048
0.00245064
0.00136725
0.000725868
0.00036953
0.000181569
8.70712e-05
4.0915e-05
1.88848e-05
8.56765e-06
3.82827e-06
1.68733e-06
7.34522e-07
3.16182e-07
1.34728e-07
5.68832e-08
2.38079e-08
9.87526e-09
4.04634e-09
1.62282e-09
6.19669e-10
2.06969e-10
3.7615e-11
4.45383e-07
1.94647e-06
4.47136e-06
8.70393e-06
1.57642e-05
2.74653e-05
4.6702e-05
7.8023e-05
0.000128446
0.000208568
0.000333993
0.000527024
0.000818418
0.00124877
0.00186887
0.00273814
0.00392055
0.005478
0.00746242
0.00990873
0.0128305
0.0162198
0.0200495
0.0242782
0.0288543
0.0337207
0.0388179
0.0440863
0.049468
0.0549088
0.0603583
0.0657711
0.0711075
0.0763328
0.0814183
0.0863401
0.0910786
0.0956188
0.0999497
0.104064
0.107959
0.111631
0.115083
0.118316
0.121335
0.124144
0.126747
0.129149
0.131354
0.133365
0.135183
0.136806
0.13823
0.139446
0.14044
0.141189
0.141659
0.141812
0.141595
0.140922
0.13969
0.131168
0.119865
0.108552
0.0973994
0.0865394
0.0760753
0.0660897
0.0566501
0.0478132
0.0396288
0.0321429
0.0253971
0.019443
0.0143258
0.0100801
0.00672198
0.00422506
0.00249979
0.00139724
0.000742971
0.000378771
0.000186359
8.9503e-05
4.20757e-05
1.93991e-05
8.79794e-06
3.93118e-06
1.73275e-06
7.54285e-07
3.24659e-07
1.38321e-07
5.83897e-08
2.44344e-08
1.01326e-08
4.15132e-09
1.66462e-09
6.35622e-10
2.12297e-10
3.85103e-11
4.46613e-07
1.95185e-06
4.4837e-06
8.72797e-06
1.58079e-05
2.75415e-05
4.68316e-05
7.82396e-05
0.000128802
0.000209142
0.000334903
0.000528438
0.000820564
0.00125195
0.00187343
0.00274449
0.00392909
0.00548907
0.00747626
0.00992538
0.0128499
0.0162416
0.0200732
0.0243032
0.0288801
0.0337467
0.0388434
0.0441106
0.0494906
0.0549292
0.060376
0.0657859
0.071119
0.076341
0.0814232
0.0863415
0.0910768
0.0956139
0.099942
0.104054
0.107946
0.111617
0.115068
0.118301
0.12132
0.12413
0.126735
0.129139
0.131347
0.133362
0.135184
0.136812
0.138242
0.139465
0.140465
0.141221
0.141697
0.141854
0.141639
0.140964
0.139718
0.131662
0.120376
0.109068
0.0979097
0.0870359
0.0765525
0.0665435
0.0570773
0.0482111
0.039995
0.0324752
0.0256935
0.0197012
0.0145436
0.0102562
0.0068567
0.00432127
0.00256344
0.00143633
0.000765579
0.000391417
0.000192802
9.24438e-05
4.34176e-05
2.00296e-05
9.08924e-06
4.06254e-06
1.79082e-06
7.79552e-07
3.35508e-07
1.42927e-07
6.03251e-08
2.52404e-08
1.04651e-08
4.28702e-09
1.71887e-09
6.56333e-10
2.19217e-10
3.9677e-11
4.48136e-07
1.9585e-06
4.49898e-06
8.75776e-06
1.58619e-05
2.76359e-05
4.69926e-05
7.85089e-05
0.000129245
0.000209858
0.00033604
0.000530206
0.000823251
0.00125593
0.00187917
0.0027525
0.00393988
0.00550309
0.00749382
0.00994658
0.0128746
0.0162694
0.0201037
0.0243356
0.0289136
0.0337806
0.0388767
0.0441426
0.0495207
0.0549565
0.0604
0.0658061
0.0711351
0.0763527
0.0814304
0.0863443
0.0910752
0.0956081
0.0999324
0.104041
0.10793
0.111599
0.115048
0.11828
0.121298
0.124108
0.126713
0.12912
0.131331
0.133349
0.135175
0.136809
0.138244
0.139473
0.14048
0.141244
0.141726
0.141889
0.141677
0.141001
0.139744
0.132271
0.121004
0.109702
0.0985338
0.0876429
0.0771366
0.0671
0.0576021
0.0487007
0.0404462
0.032885
0.0260595
0.0200202
0.0148131
0.0104747
0.00702424
0.00444135
0.00264328
0.00148573
0.000794458
0.000405878
0.000199773
9.58986e-05
4.51007e-05
2.08209e-05
9.45151e-06
4.22523e-06
1.8627e-06
8.10845e-07
3.48955e-07
1.48639e-07
6.27273e-08
2.62415e-08
1.08784e-08
4.45581e-09
1.78644e-09
6.82149e-10
2.27849e-10
4.11366e-11
4.49971e-07
1.96652e-06
4.51741e-06
8.79371e-06
1.59272e-05
2.77502e-05
4.71876e-05
7.88355e-05
0.000129783
0.000210729
0.000337425
0.000532365
0.00082654
0.00126081
0.00188622
0.00276236
0.00395321
0.00552047
0.00751564
0.00997301
0.0129055
0.0163044
0.0201421
0.0243767
0.0289564
0.0338239
0.0389198
0.0441843
0.0495601
0.0549927
0.0604323
0.0658339
0.0711578
0.0763701
0.081442
0.0863504
0.0910757
0.0956031
0.0999223
0.104026
0.107911
0.111576
0.115022
0.118252
0.121269
0.124078
0.126684
0.129091
0.131304
0.133326
0.135156
0.136794
0.138236
0.139471
0.140485
0.141256
0.141745
0.141914
0.141706
0.14103
0.139767
0.133005
0.121754
0.110451
0.0992798
0.0883699
0.0778383
0.0677704
0.0582356
0.0492921
0.0409915
0.0333807
0.0265024
0.0204066
0.0151401
0.0107403
0.00722885
0.00458892
0.00274234
0.001548
0.00082714
0.000422921
0.000208659
0.000100299
4.72001e-05
2.17984e-05
9.89765e-06
4.42525e-06
1.95094e-06
8.49212e-07
3.65424e-07
1.55629e-07
6.56644e-08
2.74647e-08
1.13833e-08
4.66192e-09
1.86895e-09
7.13666e-10
2.38392e-10
4.2923e-11
4.52137e-07
1.97598e-06
4.53918e-06
8.8362e-06
1.60045e-05
2.78855e-05
4.74189e-05
7.92236e-05
0.000130423
0.000211769
0.000339081
0.000534952
0.000830493
0.0012667
0.00189474
0.00277431
0.00396941
0.00554166