/*--------------------------------*- C++ -*----------------------------------*\
  =========                 |
  \\      /  F ield         | OpenFOAM: The Open Source CFD Toolbox
   \\    /   O peration     | Website:  https://openfoam.org
    \\  /    A nd           | Version:  8
     \\/     M anipulation  |
\*---------------------------------------------------------------------------*/
FoamFile
{
    version     2.0;
    format      ascii;
    class       volScalarField;
    location    "840/fluid";
    object      H2O;
}
// * * * * * * * * * * * * * * * * * * * * * * * * * * * * * * * * * * * * * //

dimensions      [0 0 0 0 0 0 0];

internalField   nonuniform List<scalar> 
4000
(
3.8832e-07
1.69683e-06
3.89699e-06
7.58481e-06
1.37398e-05
2.39559e-05
4.07962e-05
6.83234e-05
0.000112868
0.000184094
0.000296385
0.000470502
0.000735272
0.00112882
0.00169861
0.00249932
0.00358813
0.00501751
0.00682753
0.00903973
0.0116548
0.0146538
0.0180026
0.0216563
0.0255644
0.0296739
0.0339324
0.0382896
0.0426985
0.0471167
0.0515062
0.055834
0.0600719
0.064197
0.0681906
0.0720382
0.0757284
0.0792535
0.0826087
0.0857918
0.0888025
0.0916426
0.0943147
0.0968228
0.0991713
0.101365
0.103409
0.105307
0.107065
0.108684
0.110166
0.111512
0.11272
0.113784
0.114695
0.115439
0.115996
0.11633
0.116411
0.116183
0.115568
0.114462
0.112196
0.103569
0.0947995
0.086035
0.0773886
0.0689496
0.0607892
0.0529656
0.0455276
0.0385185
0.031979
0.0259796
0.0204975
0.0156197
0.0113986
0.00788606
0.00512032
0.00309684
0.00174171
0.000915527
0.000454041
0.000215916
9.97568e-05
4.50472e-05
1.99676e-05
8.71591e-06
3.75589e-06
1.60103e-06
6.76233e-07
2.83405e-07
1.17977e-07
4.88093e-08
2.00591e-08
8.16471e-09
3.26126e-09
1.24454e-09
4.1557e-10
7.28965e-11
3.88748e-07
1.6991e-06
3.90398e-06
7.6032e-06
1.37829e-05
2.40469e-05
4.09706e-05
6.86261e-05
0.000113336
0.000184705
0.000296953
0.000470497
0.000733562
0.00112329
0.00168579
0.00247428
0.00354461
0.0049487
0.00672712
0.00890311
0.0114799
0.0144413
0.0177559
0.0213809
0.0252669
0.0293616
0.0336125
0.037969
0.0423833
0.0468119
0.0512159
0.0555614
0.0598194
0.063966
0.0679819
0.071852
0.0755644
0.079111
0.0824868
0.0856893
0.088718
0.0915746
0.0942618
0.0967834
0.099144
0.101348
0.103402
0.105308
0.107072
0.108697
0.110184
0.111534
0.112745
0.113811
0.114723
0.115468
0.116024
0.116358
0.116437
0.116206
0.115585
0.11447
0.111508
0.102825
0.094012
0.0852113
0.0765351
0.068072
0.0598931
0.0520572
0.0446142
0.0376089
0.0310843
0.0251149
0.0196807
0.0148739
0.0107484
0.0073548
0.00472252
0.00282992
0.00158357
0.000832937
0.000415701
0.000199401
9.30599e-05
4.24594e-05
1.9004e-05
8.36612e-06
3.63055e-06
1.55607e-06
6.59866e-07
2.77281e-07
1.15605e-07
4.786e-08
1.96697e-08
8.00345e-09
3.19517e-09
1.21861e-09
4.06738e-10
7.14313e-11
3.89701e-07
1.70348e-06
3.91503e-06
7.62704e-06
1.383e-05
2.41334e-05
4.11185e-05
6.88594e-05
0.000113668
0.000185108
0.000297292
0.000470385
0.000732105
0.0011189
0.00167595
0.00245532
0.00351171
0.00489617
0.006649
0.008794
0.0113357
0.0142601
0.0175378
0.0211282
0.0249838
0.0290539
0.0332867
0.0376319
0.0420418
0.0464724
0.0508842
0.0552424
0.0595172
0.0636839
0.0677223
0.0716165
0.0753539
0.0789259
0.0823267
0.0855535
0.0886055
0.0914841
0.0941917
0.0967321
0.0991097
0.10133
0.103396
0.105315
0.107089
0.108722
0.110217
0.111572
0.112787
0.113856
0.11477
0.115515
0.11607
0.116401
0.116475
0.116235
0.115602
0.114468
0.110295
0.101573
0.0927236
0.0838933
0.0751966
0.0667239
0.0585478
0.0507283
0.0433174
0.0363615
0.0299057
0.0240158
0.0186959
0.0140256
0.0100548
0.00682534
0.00435194
0.00259538
0.00144982
0.000763614
0.000382552
0.000184326
8.64572e-05
3.96519e-05
1.78383e-05
7.891e-06
3.43943e-06
1.47982e-06
6.29545e-07
2.65212e-07
1.10781e-07
4.59208e-08
1.88866e-08
7.68729e-09
3.06898e-09
1.17019e-09
3.90461e-10
6.86516e-11
3.89335e-07
1.70186e-06
3.91119e-06
7.61892e-06
1.38126e-05
2.40949e-05
4.10309e-05
6.86607e-05
0.000113229
0.000184179
0.000295421
0.000466816
0.000725676
0.00110785
0.00165779
0.00242675
0.00346877
0.00483452
0.00656441
0.0086829
0.0111956
0.01409
0.0173379
0.0209004
0.0247311
0.0287801
0.0329966
0.0373306
0.0417347
0.0461648
0.0505812
0.0549486
0.0592368
0.0634201
0.0674779
0.0713935
0.0751539
0.0787495
0.0821743
0.0854247
0.0884998
0.0914004
0.0941289
0.0966886
0.0990844
0.10132
0.103401
0.105332
0.107117
0.108759
0.110261
0.111621
0.11284
0.113911
0.114825
0.115568
0.116119
0.116441
0.116505
0.116252
0.115599
0.114437
0.108789
0.100053
0.0911878
0.0823465
0.0736485
0.0651871
0.0570374
0.049261
0.0419111
0.0350355
0.0286801
0.0228876
0.0177055
0.0131863
0.00937569
0.0063084
0.00398769
0.00236071
0.00131207
0.000689465
0.000345485
0.000166797
7.84672e-05
3.61133e-05
1.63075e-05
7.2416e-06
3.16839e-06
1.36817e-06
5.84008e-07
2.46776e-07
1.03354e-07
4.29383e-08
1.76927e-08
7.21196e-09
2.88235e-09
1.09974e-09
3.67074e-10
6.46485e-11
3.87848e-07
1.69528e-06
3.89572e-06
7.58771e-06
1.37533e-05
2.39846e-05
4.08281e-05
6.82903e-05
0.000112558
0.000182974
0.000293289
0.000463118
0.000719407
0.00109752
0.00164128
0.00240131
0.00343109
0.00478098
0.0064915
0.00858763
0.0110759
0.013945
0.0171679
0.0207068
0.0245165
0.0285478
0.0327504
0.0370749
0.0414738
0.0459033
0.0503233
0.0546983
0.0589976
0.0631951
0.0672696
0.0712039
0.0749843
0.078601
0.0820471
0.085319
0.088415
0.0913358
0.0940834
0.0966615
0.0990736
0.101324
0.103418
0.10536
0.107155
0.108804
0.110311
0.111676
0.112896
0.113965
0.114876
0.115613
0.116155
0.116464
0.116512
0.116237
0.115554
0.114357
0.107204
0.098478
0.0896097
0.0807671
0.0720772
0.0636379
0.0555263
0.0478051
0.0405275
0.033741
0.0275019
0.0218282
0.0167824
0.0124115
0.00875622
0.00584352
0.00366511
0.00215588
0.00119319
0.000625842
0.000313663
0.000151661
7.1501e-05
3.29881e-05
1.49339e-05
6.64791e-06
2.91532e-06
1.26154e-06
5.3951e-07
2.2835e-07
9.57734e-08
3.98371e-08
1.64312e-08
6.70298e-09
2.6804e-09
1.02291e-09
3.41459e-10
6.02415e-11
3.85481e-07
1.68483e-06
3.87125e-06
7.53875e-06
1.36614e-05
2.38176e-05
4.05298e-05
6.77646e-05
0.000111643
0.000181402
0.000290632
0.00045871
0.000712259
0.00108623
0.00162397
0.00237565
0.00339438
0.00473042
0.00642448
0.00850205
0.0109705
0.0138191
0.0170223
0.0205427
0.0243359
0.0283535
0.0325456
0.036863
0.0412585
0.0456882
0.0501119
0.0544938
0.0588029
0.0630129
0.0671019
0.0710524
0.0748504
0.0784853
0.0819501
0.0852406
0.0883549
0.0912935
0.0940582
0.0966516
0.0990775
0.101341
0.103446
0.105397
0.107199
0.108854
0.110364
0.111729
0.112947
0.114013
0.114915
0.115641
0.116167
0.116457
0.116482
0.116179
0.115466
0.114248
0.105861
0.0970837
0.0881707
0.0793016
0.070607
0.0621847
0.0541105
0.0464454
0.0392409
0.0325431
0.0264178
0.0208591
0.0159424
0.0117108
0.00819988
0.00542845
0.00337804
0.00197343
0.00108658
0.000568081
0.00028428
0.000137461
6.4861e-05
2.99654e-05
1.35884e-05
6.06031e-06
2.66283e-06
1.15452e-06
4.94666e-07
2.09735e-07
8.8105e-08
3.66984e-08
1.51546e-08
6.18812e-09
2.47618e-09
9.45251e-10
3.15622e-10
5.57956e-11
3.82734e-07
1.67276e-06
3.84322e-06
7.48327e-06
1.35587e-05
2.36341e-05
4.02085e-05
6.72105e-05
0.000110699
0.000179819
0.000288014
0.000454458
0.000705497
0.00107573
0.00160812
0.00235246
0.00336161
0.00468576
0.00636584
0.00842783
0.0108798
0.0137118
0.0168989
0.0204047
0.0241851
0.0281923
0.0323768
0.0366894
0.0410831
0.045514
0.0499417
0.0543304
0.0586486
0.0628698
0.0669717
0.0709365
0.0747496
0.0784004
0.0818813
0.0851878
0.0883179
0.0912717
0.0940502
0.0966563
0.099094
0.101368
0.103481
0.10544
0.107247
0.108905
0.110416
0.111779
0.112992
0.114048
0.114937
0.115643
0.116143
0.116397
0.11638
0.116023
0.115249
0.113982
0.105093
0.0960331
0.086963
0.0780135
0.0692889
0.0608719
0.0528295
0.0452169
0.0380814
0.0314656
0.0254368
0.0199796
0.0151832
0.0110836
0.00770841
0.0050658
0.00312971
0.00181691
0.000995674
0.000518962
0.000259279
0.000125337
5.916e-05
2.73513e-05
1.24149e-05
5.54304e-06
2.43842e-06
1.0585e-06
4.54065e-07
1.92741e-07
8.10526e-08
3.37935e-08
1.39667e-08
5.70696e-09
2.28465e-09
8.72229e-10
2.91287e-10
5.16071e-11
3.79875e-07
1.66023e-06
3.81419e-06
7.42607e-06
1.34534e-05
2.3447e-05
3.98834e-05
6.66545e-05
0.000109762
0.000178262
0.000285471
0.00045038
0.000699097
0.00106593
0.00159353
0.00233141
0.00333224
0.00464624
0.00631456
0.00836364
0.0108021
0.0136207
0.0167952
0.0202895
0.0240603
0.0280598
0.0322389
0.0365486
0.040942
0.0453749
0.049807
0.0542023
0.058529
0.0627602
0.0668735
0.0708508
0.0746772
0.0783416
0.0818362
0.0851564
0.0882999
0.0912658
0.0940558
0.0966726
0.0991198
0.101402
0.103522
0.105486
0.107296
0.108955
0.110465
0.111824
0.113029
0.114073
0.114945
0.115625
0.116085
0.116286
0.116187
0.115706
0.114741
0.113178
0.104129
0.0949511
0.0858055
0.0768177
0.0680854
0.059686
0.0516821
0.0441253
0.0370599
0.0305264
0.0245892
0.0192469
0.0145559
0.010557
0.00728833
0.00475567
0.00291782
0.00168347
0.000918057
0.000476857
0.000237719
0.000114817
5.4182e-05
2.50548e-05
1.13782e-05
5.08378e-06
2.2383e-06
9.72538e-07
4.17597e-07
1.77433e-07
7.46849e-08
3.11654e-08
1.28902e-08
5.27027e-09
2.11062e-09
8.0587e-10
2.69163e-10
4.78024e-11
3.77104e-07
1.64809e-06
3.78616e-06
7.37103e-06
1.33526e-05
2.32688e-05
3.95755e-05
6.61315e-05
0.000108887
0.000176821
0.000283136
0.000446669
0.000693323
0.00105717
0.00158059
0.00231289
0.00330661
0.00461201
0.00627047
0.00830885
0.0107363
0.0135441
0.0167085
0.020194
0.0239575
0.0279515
0.0321271
0.0364354
0.0408294
0.045265
0.0497017
0.0541032
0.0584377
0.062678
0.0668015
0.0707897
0.0746275
0.0783035
0.08181
0.0851417
0.0882957
0.0912718
0.0940713
0.0966967
0.0991514
0.101439
0.103565
0.105532
0.107344
0.109004
0.110511
0.111866
0.113065
0.114099
0.114955
0.115616
0.116048
0.116212
0.116061
0.115507
0.114435
0.112301
0.103143
0.0938953
0.084712
0.0757122
0.0669894
0.0586178
0.0506579
0.0431607
0.0361713
0.0297327
0.0239071
0.0186648
0.0140694
0.0101574
0.00695395
0.00449652
0.0027387
0.00157062
0.000852448
0.000441263
0.000219469
0.000105892
4.99457e-05
2.30934e-05
1.04893e-05
4.68838e-06
2.0653e-06
8.97935e-07
3.85829e-07
1.64053e-07
6.91018e-08
2.88549e-08
1.19416e-08
4.88474e-09
1.95676e-09
7.47146e-10
2.49579e-10
4.44373e-11
3.74526e-07
1.63681e-06
3.76014e-06
7.32005e-06
1.32594e-05
2.31046e-05
3.92929e-05
6.56535e-05
0.000108091
0.000175517
0.000281035
0.00044335
0.000688193
0.00104943
0.00156925
0.00229677
0.00328446
0.00458263
0.0062329
0.00826247
0.0106809
0.0134802
0.0166366
0.0201154
0.0238734
0.0278637
0.0320371
0.036345
0.0407404
0.045179
0.0496202
0.0540277
0.0583693
0.0626178
0.0667502
0.0707478
0.0745954
0.0782814
0.0817977
0.0851385
0.0883015
0.091286
0.0940931
0.0967253
0.0991858
0.101479
0.103608
0.105577
0.10739
0.109049
0.110555
0.111907
0.1131
0.114127
0.114975
0.115625
0.116045
0.116199
0.11604
0.11549
0.114444
0.111349
0.102158
0.0928911
0.0837022
0.0747104
0.0660088
0.0576706
0.0497549
0.0423117
0.0353853
0.0290129
0.0232182
0.0180452
0.0135373
0.00973044
0.00665116
0.00427628
0.00258432
0.00147388
0.000796524
0.000411007
0.000203964
9.83051e-05
4.63395e-05
2.14207e-05
9.72967e-06
4.34976e-06
1.91681e-06
8.33759e-07
3.58445e-07
1.52497e-07
6.42715e-08
2.68527e-08
1.11185e-08
4.54976e-09
1.8231e-09
6.96139e-10
2.32558e-10
4.15147e-11
3.72199e-07
1.62663e-06
3.7367e-06
7.2742e-06
1.31758e-05
2.29577e-05
3.90407e-05
6.52285e-05
0.000107386
0.000174366
0.00027919
0.000440448
0.000683728
0.00104273
0.00155948
0.00228295
0.00326557
0.00455772
0.00620121
0.00822358
0.0106348
0.0134271
0.0165775
0.020051
0.0238052
0.0277929
0.0319652
0.0362734
0.0406705
0.0451122
0.0495579
0.0539708
0.0583189
0.0625745
0.0667147
0.0707204
0.0745764
0.0782708
0.0817949
0.0851435
0.0883137
0.0913049
0.0941181
0.0967554
0.0992203
0.101517
0.103648
0.105619
0.107432
0.10909
0.110594
0.111943
0.113131
0.114153
0.114995
0.115638
0.116051
0.116199
0.116037
0.115487
0.114447
0.110426
0.101228
0.0919641
0.0827878
0.0738182
0.0651496
0.056853
0.0489867
0.0416
0.0347215
0.028391
0.0226429
0.0175317
0.0130953
0.00936551
0.00636384
0.00408408
0.00245682
0.00139211
0.000749316
0.000385505
0.000190905
9.19147e-05
4.32999e-05
2.00092e-05
9.08767e-06
4.06309e-06
1.79088e-06
7.79237e-07
3.35139e-07
1.42645e-07
6.01473e-08
2.5141e-08
1.0414e-08
4.26292e-09
1.70853e-09
6.52408e-10
2.17955e-10
3.90149e-11
3.70148e-07
1.61767e-06
3.71607e-06
7.23388e-06
1.31023e-05
2.28289e-05
3.88202e-05
6.48577e-05
0.000106773
0.000173368
0.000277595
0.000437949
0.0006799
0.00103701
0.00155117
0.00227125
0.00324965
0.00453682
0.00617475
0.00819127
0.0105967
0.0133836
0.0165291
0.0199988
0.0237502
0.0277362
0.0319081
0.0362171
0.0406162
0.045061
0.0495107
0.0539285
0.0582823
0.0625442
0.066691
0.0707036
0.0745666
0.0782677
0.0817983
0.0851532
0.0883293
0.0913258
0.0941435
0.0967848
0.0992528
0.101551
0.103684
0.105656
0.107468
0.109125
0.110627
0.111972
0.113156
0.114173
0.115008
0.115645
0.116052
0.116195
0.116029
0.115477
0.11444
0.109601
0.100399
0.0911427
0.0819863
0.0730482
0.0644086
0.0561401
0.0482999
0.0409336
0.0340927
0.0278135
0.0221307
0.017085
0.0127157
0.00905435
0.00612068
0.00390441
0.00234586
0.00132431
0.000709408
0.000363991
0.000179927
8.65507e-05
4.07502e-05
1.88252e-05
8.54892e-06
3.82233e-06
1.68501e-06
7.33351e-07
3.15501e-07
1.34334e-07
5.66638e-08
2.36936e-08
9.81776e-09
4.01994e-09
1.61141e-09
6.15326e-10
2.05557e-10
3.69035e-11
3.68376e-07
1.60992e-06
3.69826e-06
7.19912e-06
1.30391e-05
2.27182e-05
3.8631e-05
6.45401e-05
0.000106249
0.000172518
0.00027624
0.000435831
0.000676665
0.00103219
0.0015442
0.00226147
0.00323639
0.00451947
0.00615288
0.00816469
0.0105655
0.0133481
0.01649
0.0199567
0.0237061
0.0276911
0.031863
0.0361731
0.0405741
0.0450218
0.0494752
0.0538974
0.0582561
0.0625233
0.0666757
0.0706941
0.0745627
0.0782693
0.0818053
0.0851652
0.0883459
0.0913464
0.0941675
0.0968116
0.0992816
0.101581
0.103715
0.105686
0.107498
0.109152
0.110651
0.111992
0.113172
0.114183
0.115014
0.115645
0.116046
0.116183
0.116014
0.11546
0.114426
0.108891
0.0996795
0.0904254
0.0812798
0.0723479
0.0637258
0.0554832
0.0476771
0.0403551
0.0335594
0.0273285
0.0216972
0.0167066
0.0123949
0.00879285
0.00591804
0.00375678
0.00224504
0.00126727
0.000677139
0.000346222
0.000170817
8.21084e-05
3.86398e-05
1.78449e-05
8.10256e-06
3.62266e-06
1.5971e-06
6.95192e-07
2.99147e-07
1.27403e-07
5.37549e-08
2.24834e-08
9.31872e-09
3.81639e-09
1.52998e-09
5.84231e-10
1.95155e-10
3.51372e-11
3.66875e-07
1.60336e-06
3.68318e-06
7.16971e-06
1.29857e-05
2.26247e-05
3.84715e-05
6.4273e-05
0.000105809
0.000171805
0.000275107
0.000434065
0.000673974
0.0010282
0.00153843
0.0022534
0.00322549
0.00450526
0.00613503
0.00814306
0.0105402
0.0133195
0.0164585
0.0199232
0.0236712
0.0276556
0.0318278
0.036139
0.0405419
0.0449922
0.0494487
0.0538747
0.0582375
0.0625091
0.0666662
0.0706892
0.0745623
0.0782734
0.0818136
0.0851774
0.0883614
0.0913649
0.0941885
0.0968343
0.0993055
0.101606
0.103739
0.105709
0.107519
0.109171
0.110667
0.112004
0.113179
0.114185
0.11501
0.115635
0.11603
0.116163
0.11599
0.115436
0.114407
0.108289
0.0990654
0.0898123
0.0806689
0.0717526
0.0631511
0.0549342
0.0471583
0.0398707
0.0331128
0.0269225
0.0213345
0.0163901
0.0121272
0.00857533
0.00575053
0.00363598
0.00216395
0.0012163
0.000650385
0.000332273
0.000163545
7.8507e-05
3.69214e-05
1.70448e-05
7.73738e-06
3.45894e-06
1.52488e-06
6.63788e-07
2.85667e-07
1.21682e-07
5.13509e-08
2.14823e-08
8.90547e-09
3.6477e-09
1.46245e-09
5.58435e-10
1.86526e-10
3.3675e-11
3.6563e-07
1.59792e-06
3.67068e-06
7.14535e-06
1.29415e-05
2.25475e-05
3.83398e-05
6.40527e-05
0.000105447
0.00017122
0.000274177
0.000432619
0.000671776
0.00102494
0.00153374
0.00224686
0.00321666
0.00449379
0.00612067
0.00812573
0.01052
0.0132967
0.0164336
0.0198967
0.0236437
0.027628
0.0318005
0.0361128
0.0405174
0.0449698
0.0494291
0.0538582
0.0582243
0.0624996
0.0666603
0.0706869
0.0745636
0.0782781
0.0818215
0.0851881
0.0883747
0.0913801
0.0942053
0.0968521
0.0993238
0.101624
0.103756
0.105725
0.107533
0.109182
0.110674
0.112007
0.113178
0.114178
0.114997
0.115617
0.116006
0.116135
0.115959
0.115406
0.114386
0.10779
0.0985508
0.0892931
0.0801578
0.0712555
0.0626728
0.0544785
0.0467286
0.0394699
0.0327434
0.026587
0.0210349
0.016129
0.0119065
0.00839652
0.00561339
0.00353768
0.00209859
0.00117587
0.000626747
0.000320435
0.000157838
7.56794e-05
3.55439e-05
1.63972e-05
7.44087e-06
3.32578e-06
1.46605e-06
6.38176e-07
2.74662e-07
1.17006e-07
4.93849e-08
2.0663e-08
8.56719e-09
3.50957e-09
1.40716e-09
5.37309e-10
1.79463e-10
3.24808e-11
3.64624e-07
1.59353e-06
3.66059e-06
7.1257e-06
1.29058e-05
2.24852e-05
3.82338e-05
6.38756e-05
0.000105156
0.00017075
0.000273433
0.000431463
0.000670021
0.00102234
0.00153001
0.00224166
0.00320968
0.00448473
0.00610935
0.00811211
0.0105042
0.0132789
0.0164143
0.0198762
0.0236226
0.0276067
0.0317797
0.0360929
0.0404989
0.0449532
0.0494146
0.0538461
0.0582149
0.0624929
0.0666563
0.0706857
0.0745652
0.0782821
0.0818278
0.0851964
0.0883846
0.0913914
0.0942173
0.0968645
0.099336
0.101635
0.103767
0.105733
0.107539
0.109185
0.110673
0.112002
0.113168
0.114163
0.114977
0.115591
0.115975
0.1161
0.115923
0.115372
0.114363
0.107386
0.0981325
0.0888703
0.07974
0.070849
0.0622821
0.054107
0.0463788
0.0391441
0.0324436
0.026315
0.0207923
0.0159177
0.0117283
0.00825236
0.00550312
0.00345893
0.0020465
0.00114387
0.000608242
0.000310085
0.000152564
7.32722e-05
3.44456e-05
1.58812e-05
7.20248e-06
3.21827e-06
1.41852e-06
6.17498e-07
2.65783e-07
1.13238e-07
4.78013e-08
2.00035e-08
8.29516e-09
3.39854e-09
1.36279e-09
5.20367e-10
1.73802e-10
3.15267e-11
3.63842e-07
1.59011e-06
3.65275e-06
7.11042e-06
1.28781e-05
2.24369e-05
3.81516e-05
6.37383e-05
0.000104931
0.000170387
0.000272857
0.000430571
0.000668669
0.00102035
0.00152714
0.00223768
0.00320433
0.00447781
0.00610072
0.00810173
0.0104921
0.0132654
0.0163996
0.0198607
0.0236067
0.0275908
0.0317642
0.0360781
0.0404852
0.0449409
0.049404
0.0538373
0.0582081
0.0624881
0.0666535
0.0706847
0.0745659
0.0782846
0.0818318
0.0852016
0.0883907
0.0913981
0.0942243
0.0968713
0.0993422
0.101641
0.10377
0.105735
0.107537
0.109181
0.110665
0.11199
0.113151
0.114141
0.114949
0.115558
0.115938
0.116061
0.115883
0.115337
0.11434
0.107064
0.0977953
0.0885308
0.0794054
0.0705244
0.0619711
0.0538122
0.0461022
0.0388871
0.0322077
0.0261013
0.020602
0.0157523
0.011589
0.00813997
0.00541738
0.0033979
0.00200627
0.00111932
0.000594245
0.000302521
0.000148644
7.1282e-05
3.34956e-05
1.54603e-05
7.01406e-06
3.13409e-06
1.38136e-06
6.0133e-07
2.58849e-07
1.10298e-07
4.65689e-08
1.9491e-08
8.08473e-09
3.31269e-09
1.3286e-09
5.07321e-10
1.69446e-10
3.07947e-11
3.63269e-07
1.58761e-06
3.647e-06
7.09922e-06
1.28578e-05
2.24015e-05
3.80914e-05
6.36379e-05
0.000104766
0.000170121
0.000272438
0.000429921
0.000667683
0.00101889
0.00152506
0.00223478
0.00320045
0.00447279
0.00609447
0.00809424
0.0104835
0.0132557
0.0163891
0.0198497
0.0235954
0.0275795
0.0317532
0.0360677
0.0404756
0.0449323
0.0493965
0.0538311
0.0582031
0.0624844
0.066651
0.0706834
0.0745657
0.0782853
0.0818332
0.0852037
0.0883932
0.0914007
0.0942268
0.0968733
0.0993433
0.10164
0.103768
0.105731
0.107531
0.109171
0.110651
0.111972
0.113128
0.114114
0.114918
0.115522
0.115899
0.116019
0.115843
0.115302
0.114318
0.106825
0.0975404
0.0882721
0.0791503
0.0702776
0.0617355
0.0535897
0.0458942
0.0386947
0.0320316
0.0259423
0.0204608
0.0156299
0.0114862
0.00805724
0.00535447
0.00335326
0.00197693
0.00110144
0.000584066
0.000297052
0.000145839
6.98987e-05
3.28299e-05
1.51442e-05
6.87368e-06
3.07278e-06
1.35467e-06
5.89782e-07
2.53916e-07
1.08207e-07
4.56937e-08
1.91264e-08
7.93473e-09
3.25137e-09
1.30412e-09
4.97964e-10
1.66317e-10
3.02707e-11
3.62894e-07
1.58597e-06
3.64324e-06
7.09191e-06
1.28446e-05
2.23784e-05
3.80521e-05
6.35724e-05
0.000104659
0.000169948
0.000272164
0.000429497
0.000667043
0.00101795
0.0015237
0.00223291
0.00319793
0.00446954
0.00609043
0.0080894
0.0104779
0.0132495
0.0163823
0.0198425
0.0235881
0.0275722
0.0317461
0.0360609
0.0404694
0.0449267
0.0493916
0.0538269
0.0581997
0.0624817
0.0666489
0.0706818
0.0745645
0.0782845
0.0818328
0.0852034
0.088393
0.0914003
0.0942259
0.0968718
0.0993408
0.101637
0.103763
0.105723
0.107521
0.109158
0.110635
0.111952
0.113105
0.114086
0.114886
0.115488
0.115862
0.115983
0.115809
0.115274
0.114302
0.106651
0.0973598
0.0880906
0.0789726
0.0701067
0.0615735
0.0534378
0.0457531
0.0385649
0.0319134
0.0258361
0.0203669
0.0155488
0.0114183
0.00800286
0.00531332
0.00332421
0.00195792
0.00108987
0.000577471
0.000293507
0.000144022
6.90155e-05
3.24115e-05
1.49477e-05
6.78236e-06
3.03156e-06
1.33688e-06
5.82174e-07
2.50693e-07
1.06847e-07
4.5127e-08
1.8891e-08
7.83816e-09
3.21198e-09
1.28841e-09
4.91959e-10
1.64308e-10
2.99351e-11
3.62711e-07
1.58518e-06
3.64141e-06
7.08836e-06
1.28381e-05
2.23673e-05
3.80332e-05
6.3541e-05
0.000104607
0.000169866
0.000272034
0.000429296
0.000666739
0.0010175
0.00152306
0.00223202
0.00319674
0.004468
0.00608851
0.0080871
0.0104752
0.0132465
0.0163791
0.0198391
0.0235846
0.0275687
0.0317427
0.0360577
0.0404664
0.044924
0.0493892
0.0538249
0.058198
0.0624802
0.0666477
0.0706808
0.0745634
0.0782833
0.0818316
0.0852021
0.0883916
0.0913986
0.0942238
0.0968691
0.0993374
0.101632
0.103757
0.105716
0.107512
0.109147
0.110622
0.111937
0.113087
0.114066
0.114864
0.115464
0.115839
0.115964
0.1158
0.115286
0.114357
0.106591
0.0972769
0.0879994
0.0788805
0.0700176
0.0614893
0.0533594
0.0456809
0.0384991
0.0318541
0.0257832
0.0203206
0.0155092
0.0113854
0.00797674
0.00529372
0.00331049
0.00194903
0.00108451
0.000574421
0.000291867
0.00014318
6.86084e-05
3.22196e-05
1.48581e-05
6.74133e-06
3.01293e-06
1.32851e-06
5.78498e-07
2.49123e-07
1.06183e-07
4.48503e-08
1.87762e-08
7.79107e-09
3.19279e-09
1.28075e-09
4.89033e-10
1.6333e-10
2.97717e-11
3.62712e-07
1.58518e-06
3.64142e-06
7.08837e-06
1.28382e-05
2.23673e-05
3.80333e-05
6.35411e-05
0.000104607
0.000169866
0.000272035
0.000429297
0.00066674
0.0010175
0.00152306
0.00223202
0.00319674
0.00446801
0.00608852
0.00808711
0.0104752
0.0132465
0.0163791
0.0198391
0.0235846
0.0275687
0.0317427
0.0360577
0.0404664
0.044924
0.0493892
0.0538249
0.058198
0.0624803
0.0666477
0.0706808
0.0745634
0.0782834
0.0818316
0.0852021
0.0883916
0.0913986
0.0942238
0.0968691
0.0993374
0.101632
0.103757
0.105716
0.107512
0.109147
0.110622
0.111937
0.113087
0.114066
0.114864
0.115464
0.115839
0.115964
0.1158
0.115286
0.114357
0.106591
0.0972769
0.0879994
0.0788805
0.0700176
0.0614893
0.0533595
0.045681
0.0384991
0.0318541
0.0257832
0.0203206
0.0155092
0.0113854
0.00797675
0.00529373
0.0033105
0.00194904
0.00108451
0.000574424
0.000291868
0.000143181
6.86088e-05
3.22197e-05
1.48582e-05
6.74134e-06
3.01295e-06
1.32852e-06
5.785e-07
2.49123e-07
1.06183e-07
4.48502e-08
1.87762e-08
7.79105e-09
3.19278e-09
1.28075e-09
4.8903e-10
1.63329e-10
2.97716e-11
3.62896e-07
1.58598e-06
3.64326e-06
7.09195e-06
1.28446e-05
2.23785e-05
3.80523e-05
6.35728e-05
0.000104659
0.000169949
0.000272166
0.000429499
0.000667046
0.00101795
0.00152371
0.00223292
0.00319794
0.00446956
0.00609045
0.00808943
0.0104779
0.0132495
0.0163824
0.0198426
0.0235881
0.0275723
0.0317461
0.036061
0.0404694
0.0449267
0.0493917
0.053827
0.0581998
0.0624817
0.0666489
0.0706819
0.0745646
0.0782846
0.0818328
0.0852035
0.088393
0.0914003
0.094226
0.0968718
0.0993409
0.101637
0.103763
0.105723
0.107521
0.109158
0.110635
0.111952
0.113105
0.114086
0.114886
0.115488
0.115862
0.115983
0.115809
0.115274
0.114302
0.106651
0.0973599
0.0880907
0.0789726
0.0701068
0.0615736
0.0534379
0.0457532
0.0385649
0.0319135
0.0258361
0.0203669
0.0155488
0.0114183
0.0080029
0.00531335
0.00332424
0.00195794
0.00108989
0.000577478
0.000293511
0.000144024
6.90166e-05
3.24118e-05
1.4948e-05
6.78242e-06
3.03161e-06
1.33689e-06
5.82181e-07
2.50694e-07
1.06847e-07
4.51269e-08
1.8891e-08
7.83811e-09
3.21197e-09
1.28839e-09
4.91952e-10
1.64305e-10
2.99349e-11
3.63273e-07
1.58763e-06
3.64704e-06
7.0993e-06
1.28579e-05
2.24017e-05
3.80918e-05
6.36385e-05
0.000104767
0.000170123
0.00027244
0.000429924
0.000667689
0.0010189
0.00152507
0.0022348
0.00320047
0.00447282
0.00609451
0.00809429
0.0104835
0.0132558
0.0163892
0.0198497
0.0235955
0.0275796
0.0317533
0.0360677
0.0404757
0.0449324
0.0493966
0.0538312
0.0582032
0.0624845
0.066651
0.0706835
0.0745657
0.0782853
0.0818333
0.0852037
0.0883933
0.0914008
0.0942268
0.0968734
0.0993434
0.10164
0.103768
0.105731
0.107531
0.109171
0.110651
0.111972
0.113128
0.114114
0.114918
0.115522
0.115899
0.116019
0.115843
0.115302
0.114319
0.106825
0.0975406
0.0882723
0.0791505
0.0702777
0.0617356
0.0535898
0.0458943
0.0386948
0.0320317
0.0259424
0.0204609
0.01563
0.0114862
0.0080573
0.00535453
0.0033533
0.00197696
0.00110146
0.000584078
0.000297059
0.000145843
6.99004e-05
3.28307e-05
1.51446e-05
6.87384e-06
3.07284e-06
1.35469e-06
5.89791e-07
2.53919e-07
1.08208e-07
4.56938e-08
1.91264e-08
7.93468e-09
3.25135e-09
1.30409e-09
4.97955e-10
1.66313e-10
3.02705e-11
3.63847e-07
1.59014e-06
3.6528e-06
7.11052e-06
1.28783e-05
2.24372e-05
3.81521e-05
6.37392e-05
0.000104932
0.000170389
0.000272861
0.000430577
0.000668677
0.00102036
0.00152716
0.0022377
0.00320436
0.00447785
0.00610077
0.0081018
0.0104922
0.0132655
0.0163997
0.0198608
0.0236068
0.0275909
0.0317643
0.0360783
0.0404854
0.0449411
0.0494041
0.0538375
0.0582082
0.0624882
0.0666535
0.0706848
0.074566
0.0782847
0.0818318
0.0852017
0.0883908
0.0913982
0.0942244
0.0968714
0.0993423
0.101641
0.10377
0.105735
0.107538
0.109181
0.110665
0.11199
0.113151
0.114141
0.114949
0.115558
0.115938
0.116061
0.115883
0.115337
0.11434
0.107064
0.0977955
0.088531
0.0794056
0.0705246
0.0619713
0.0538123
0.0461023
0.0388872
0.0322078
0.0261014
0.0206021
0.0157524
0.0115891
0.00814007
0.00541747
0.00339796
0.00200632
0.00111935
0.000594262
0.000302531
0.000148649
7.12844e-05
3.34967e-05
1.54608e-05
7.01426e-06
3.13417e-06
1.3814e-06
6.01346e-07
2.58855e-07
1.10301e-07
4.65698e-08
1.94914e-08
8.08479e-09
3.31271e-09
1.32859e-09
5.07317e-10
1.69444e-10
3.0795e-11
3.64631e-07
1.59356e-06
3.66066e-06
7.12583e-06
1.29061e-05
2.24856e-05
3.82345e-05
6.38767e-05
0.000105158
0.000170753
0.000273437
0.00043147
0.000670032
0.00102236
0.00153003
0.00224169
0.00320972
0.00448479
0.00610942
0.00811219
0.0105043
0.013279
0.0164144
0.0198763
0.0236227
0.0276069
0.0317799
0.036093
0.040499
0.0449533
0.0494148
0.0538463
0.0582151
0.062493
0.0666565
0.0706859
0.0745653
0.0782822
0.0818279
0.0851965
0.0883847
0.0913914
0.0942174
0.0968646
0.0993361
0.101635
0.103767
0.105733
0.107539
0.109185
0.110673
0.112002
0.113168
0.114163
0.114977
0.115591
0.115975
0.1161
0.115923
0.115372
0.114363
0.107386
0.0981326
0.0888704
0.0797401
0.0708491
0.0622822
0.054107
0.0463789
0.0391442
0.0324438
0.0263151
0.0207924
0.0159178
0.0117284
0.00825249
0.00550322
0.00345902
0.00204656
0.00114391
0.000608263
0.000310097
0.00015257
7.32753e-05
3.4447e-05
1.58819e-05
7.20279e-06
3.21842e-06
1.41859e-06
6.17526e-07
2.65795e-07
1.13243e-07
4.78032e-08
2.00043e-08
8.29544e-09
3.39865e-09
1.36281e-09
5.20378e-10
1.73806e-10
3.15281e-11
3.65638e-07
1.59796e-06
3.67077e-06
7.14551e-06
1.29418e-05
2.2548e-05
3.83406e-05
6.40541e-05
0.000105449
0.000171223
0.000274182
0.000432628
0.000671788
0.00102496
0.00153376
0.00224689
0.00321671
0.00449385
0.00612075
0.00812582
0.0105201
0.0132968
0.0164338
0.0198969
0.0236439
0.0276281
0.0318007
0.0361129
0.0405176
0.04497
0.0494293
0.0538583
0.0582245
0.0624997
0.0666604
0.070687
0.0745638
0.0782782
0.0818216
0.0851882
0.0883748
0.0913802
0.0942054
0.0968522
0.0993239
0.101624
0.103756
0.105725
0.107533
0.109182
0.110674
0.112007
0.113178
0.114178
0.114997
0.115617
0.116006
0.116135
0.115959
0.115406
0.114386
0.10779
0.0985508
0.0892931
0.0801578
0.0712555
0.0626728
0.0544786
0.0467287
0.03947
0.0327436
0.0265871
0.0210351
0.0161292
0.0119067
0.00839668
0.00561352
0.00353779
0.00209866
0.00117591
0.000626773
0.000320449
0.000157846
7.56829e-05
3.55456e-05
1.63981e-05
7.44128e-06
3.32597e-06
1.46613e-06
6.38213e-07
2.74677e-07
1.17013e-07
4.93876e-08
2.06641e-08
8.56765e-09
3.50974e-09
1.40723e-09
5.37334e-10
1.79471e-10
3.24832e-11
3.66885e-07
1.6034e-06
3.68328e-06
7.1699e-06
1.2986e-05
2.26253e-05
3.84724e-05
6.42745e-05
0.000105812
0.000171809
0.000275113
0.000434075
0.000673989
0.00102822
0.00153846
0.00225345
0.00322554
0.00450533
0.00613512
0.00814317
0.0105403
0.0133196
0.0164587
0.0199234
0.0236713
0.0276558
0.031828
0.0361392
0.0405421
0.0449924
0.0494489
0.0538749
0.0582377
0.0625093
0.0666663
0.0706894
0.0745625
0.0782735
0.0818138
0.0851775
0.0883616
0.091365
0.0941886
0.0968344
0.0993056
0.101606
0.103739
0.105709
0.107519
0.109172
0.110667
0.112004
0.113179
0.114185
0.11501
0.115635
0.11603
0.116163
0.11599
0.115436
0.114407
0.108289
0.0990651
0.0898121
0.0806688
0.0717525
0.0631511
0.0549342
0.0471584
0.0398708
0.0331129
0.0269227
0.0213347
0.0163903
0.0121274
0.00857551
0.00575068
0.00363609
0.00216403
0.00121635
0.000650416
0.000332289
0.000163553
7.85113e-05
3.69235e-05
1.70459e-05
7.73787e-06
3.45916e-06
1.52498e-06
6.63831e-07
2.85686e-07
1.2169e-07
5.13543e-08
2.14837e-08
8.90606e-09
3.64793e-09
1.46255e-09
5.58469e-10
1.86538e-10
3.36781e-11
3.68387e-07
1.60997e-06
3.69837e-06
7.19933e-06
1.30395e-05
2.27188e-05
3.8632e-05
6.45419e-05
0.000106252
0.000172522
0.000276247
0.000435842
0.000676681
0.00103222
0.00154423
0.00226152
0.00323646
0.00451956
0.00615299
0.00816481
0.0105656
0.0133483
0.0164902
0.019957
0.0237063
0.0276914
0.0318633
0.0361733
0.0405744
0.0450221
0.0494754
0.0538977
0.0582563
0.0625235
0.0666759
0.0706943
0.0745629
0.0782694
0.0818055
0.0851654
0.088346
0.0913465
0.0941676
0.0968117
0.0992817
0.101581
0.103715
0.105686
0.107498
0.109152
0.110651
0.111992
0.113172
0.114184
0.115014
0.115645
0.116046
0.116183
0.116014
0.11546
0.114426
0.10889
0.0996791
0.0904251
0.0812795
0.0723477
0.0637256
0.0554831
0.047677
0.040355
0.0335594
0.0273285
0.0216973
0.0167067
0.0123951
0.00879303
0.0059182
0.00375691
0.00224513
0.00126733
0.000677173
0.000346241
0.000170827
8.21135e-05
3.86423e-05
1.78461e-05
8.10312e-06
3.62291e-06
1.59722e-06
6.95243e-07
2.99169e-07