/*--------------------------------*- C++ -*----------------------------------*\
  =========                 |
  \\      /  F ield         | OpenFOAM: The Open Source CFD Toolbox
   \\    /   O peration     | Website:  https://openfoam.org
    \\  /    A nd           | Version:  8
     \\/     M anipulation  |
\*---------------------------------------------------------------------------*/
FoamFile
{
    version     2.0;
    format      ascii;
    class       volScalarField;
    location    "840/fluid";
    object      N2;
}
// * * * * * * * * * * * * * * * * * * * * * * * * * * * * * * * * * * * * * //

dimensions      [0 0 0 0 0 0 0];

internalField   nonuniform List<scalar> 
4000
(
2.31024e-06
1.0095e-05
2.31845e-05
4.51247e-05
8.17433e-05
0.000142523
0.000242714
0.000406486
0.000671507
0.00109527
0.00176335
0.00279927
0.00437454
0.006716
0.010106
0.0148698
0.0213476
0.0298517
0.0406201
0.0537811
0.0693383
0.0871797
0.107101
0.128837
0.152085
0.176531
0.201861
0.227779
0.254003
0.280282
0.306389
0.332128
0.357333
0.381865
0.405616
0.428498
0.450445
0.471412
0.491372
0.510313
0.528236
0.545154
0.561087
0.576062
0.590111
0.603272
0.615582
0.627085
0.63782
0.64783
0.657155
0.665838
0.673917
0.681432
0.688418
0.694911
0.700946
0.706478
0.711559
0.716418
0.720938
0.725145
0.729011
0.732721
0.736272
0.739666
0.742905
0.745989
0.748918
0.751689
0.754297
0.756737
0.759001
0.761071
0.762956
0.764632
0.766083
0.76729
0.76824
0.768936
0.769401
0.769685
0.769844
0.769926
0.769966
0.769985
0.769993
0.769997
0.769999
0.769999
0.77
0.77
0.77
0.77
0.77
0.77
0.77
0.77
0.77
0.77
2.31278e-06
1.01084e-05
2.3226e-05
4.52339e-05
8.19989e-05
0.000143063
0.00024375
0.000408286
0.000674285
0.0010989
0.00176673
0.00279924
0.00436437
0.00668307
0.0100298
0.0147209
0.0210889
0.0294425
0.0400231
0.0529689
0.0682986
0.0859169
0.105635
0.1272
0.150317
0.174675
0.199961
0.225875
0.252131
0.278472
0.304666
0.330511
0.355835
0.380495
0.404379
0.427395
0.449474
0.47057
0.490652
0.509709
0.527741
0.544758
0.560782
0.575839
0.589962
0.603189
0.615559
0.627113
0.637892
0.64794
0.657299
0.66601
0.674113
0.681647
0.68865
0.695156
0.701201
0.706738
0.711822
0.716686
0.721209
0.725413
0.729285
0.733005
0.736563
0.739964
0.74321
0.7463
0.749232
0.752005
0.754613
0.757051
0.759309
0.761368
0.763236
0.764888
0.766306
0.767472
0.768377
0.769027
0.769456
0.769714
0.769857
0.769931
0.769968
0.769985
0.769993
0.769997
0.769999
0.769999
0.77
0.77
0.77
0.77
0.77
0.77
0.77
0.77
0.77
0.77
2.31843e-06
1.01345e-05
2.32916e-05
4.53755e-05
8.22788e-05
0.000143578
0.000244629
0.000409672
0.00067626
0.00110129
0.00176874
0.00279857
0.00435571
0.00665701
0.00997127
0.0146082
0.0208933
0.0291302
0.0395588
0.0523203
0.067442
0.08484
0.104339
0.125699
0.148636
0.172848
0.198027
0.223874
0.250105
0.276458
0.302699
0.32862
0.354044
0.378825
0.402842
0.426001
0.44823
0.469477
0.489709
0.508911
0.527083
0.544232
0.56038
0.575552
0.58978
0.603103
0.615559
0.627189
0.638036
0.648144
0.657554
0.666309
0.67445
0.682015
0.689044
0.695571
0.701632
0.707174
0.712262
0.717126
0.721639
0.725842
0.729732
0.733465
0.737033
0.740439
0.743687
0.746776
0.749704
0.752468
0.755063
0.757482
0.759715
0.761745
0.763574
0.765179
0.766544
0.767654
0.768504
0.769108
0.769502
0.769738
0.769868
0.769937
0.76997
0.769986
0.769994
0.769997
0.769999
0.769999
0.77
0.77
0.77
0.77
0.77
0.77
0.77
0.77
0.77
0.77
2.31624e-06
1.01247e-05
2.32686e-05
4.53269e-05
8.21753e-05
0.000143348
0.000244107
0.000408489
0.00067365
0.00109577
0.00175761
0.00277735
0.00431747
0.00659131
0.00986326
0.0144383
0.020638
0.0287638
0.039056
0.0516602
0.0666097
0.0838293
0.103152
0.124346
0.147135
0.171222
0.196305
0.222086
0.248284
0.274635
0.300903
0.32688
0.352384
0.377264
0.401397
0.424684
0.44705
0.468438
0.488813
0.508158
0.526468
0.543752
0.560026
0.575317
0.589658
0.603082
0.615629
0.627341
0.638262
0.648434
0.657901
0.666705
0.674886
0.682486
0.689543
0.696092
0.70217
0.70771
0.712791
0.717653
0.722174
0.726373
0.730278
0.734018
0.737589
0.740995
0.744238
0.747318
0.750233
0.752979
0.75555
0.75794
0.760137
0.762133
0.763914
0.765468
0.766777
0.767832
0.768629
0.769189
0.769549
0.769763
0.769881
0.769943
0.769973
0.769988
0.769994
0.769998
0.769999
0.77
0.77
0.77
0.77
0.77
0.77
0.77
0.77
0.77
0.77
0.77
2.30738e-06
1.00855e-05
2.31764e-05
4.51411e-05
8.18219e-05
0.000142692
0.000242901
0.000406286
0.000669655
0.0010886
0.00174494
0.00275536
0.00428021
0.00652987
0.00976513
0.0142872
0.0204141
0.0284457
0.0386228
0.0510942
0.0658988
0.0829681
0.102143
0.123197
0.145862
0.169844
0.194845
0.22057
0.246738
0.273086
0.299377
0.325399
0.35097
0.375934
0.400167
0.423566
0.446052
0.467566
0.48807
0.507544
0.52598
0.543387
0.559779
0.575183
0.589626
0.603145
0.615779
0.62757
0.638561
0.648795
0.658315
0.667163
0.675383
0.683014
0.690096
0.696666
0.70275
0.708273
0.71336
0.718236
0.722756
0.726919
0.730853
0.734596
0.738165
0.741567
0.744801
0.747867
0.750764
0.753487
0.75603
0.758387
0.760543
0.762497
0.764231
0.765734
0.76699
0.767991
0.76874
0.769259
0.76959
0.769785
0.769892
0.769948
0.769975
0.769989
0.769995
0.769998
0.769999
0.77
0.77
0.77
0.77
0.77
0.77
0.77
0.77
0.77
0.77
0.77
2.2933e-06
1.00234e-05
2.30309e-05
4.48498e-05
8.12753e-05
0.000141698
0.000241127
0.00040316
0.000664214
0.00107926
0.00172914
0.00272916
0.00423772
0.00646276
0.00966226
0.0141346
0.020196
0.0281453
0.0382248
0.050586
0.0652726
0.0822214
0.101279
0.122224
0.144791
0.168693
0.193632
0.219316
0.245463
0.271813
0.298127
0.324191
0.349821
0.374861
0.399181
0.422677
0.445268
0.466891
0.487508
0.507094
0.525642
0.543158
0.559656
0.575156
0.58969
0.603293
0.616004
0.627864
0.638916
0.649203
0.658768
0.667655
0.675905
0.68356
0.690659
0.697237
0.703334
0.708855
0.713958
0.718836
0.723351
0.727475
0.731408
0.735153
0.73872
0.742114
0.745337
0.748387
0.751264
0.753963
0.756478
0.758801
0.760917
0.76283
0.76452
0.765974
0.767181
0.768134
0.768839
0.769322
0.769626
0.769805
0.769902
0.769953
0.769978
0.76999
0.769995
0.769998
0.769999
0.77
0.77
0.77
0.77
0.77
0.77
0.77
0.77
0.77
0.77
0.77
2.27696e-06
9.95161e-06
2.28642e-05
4.45199e-05
8.06649e-05
0.000140607
0.000239216
0.000399866
0.000658608
0.00106985
0.00171358
0.00270389
0.00419754
0.0064004
0.00956812
0.0139969
0.0200014
0.0278801
0.0378766
0.0501454
0.0647343
0.0815846
0.100547
0.121406
0.143898
0.167739
0.192633
0.218289
0.244427
0.270785
0.297123
0.323228
0.348914
0.37402
0.398418
0.422
0.444682
0.466401
0.487115
0.506799
0.525444
0.543053
0.559638
0.575221
0.589833
0.603508
0.616284
0.628202
0.639305
0.649636
0.659239
0.668156
0.676429
0.684099
0.691206
0.697788
0.703887
0.709359
0.714588
0.719436
0.723929
0.72802
0.731941
0.735678
0.739236
0.74262
0.745829
0.748863
0.751719
0.754394
0.756881
0.759174
0.761255
0.763133
0.764781
0.76619
0.76735
0.768259
0.768924
0.769375
0.769658
0.769822
0.769911
0.769957
0.76998
0.769991
0.769996
0.769998
0.769999
0.77
0.77
0.77
0.77
0.77
0.77
0.77
0.77
0.77
0.77
0.77
2.25996e-06
9.87707e-06
2.26916e-05
4.41799e-05
8.0039e-05
0.000139495
0.000237284
0.000396561
0.000653038
0.0010606
0.00169847
0.00267966
0.00415952
0.00634219
0.00948147
0.0138719
0.019827
0.0276456
0.0375723
0.0497647
0.0642737
0.0810449
0.0999327
0.120724
0.143159
0.166955
0.191818
0.217458
0.243595
0.269966
0.296332
0.322476
0.348213
0.37338
0.397847
0.421504
0.444266
0.466067
0.486865
0.506633
0.52536
0.543046
0.559705
0.575359
0.590036
0.603771
0.616601
0.628567
0.639711
0.650077
0.659709
0.668651
0.676944
0.68463
0.69175
0.698345
0.70442
0.709888
0.715121
0.719964
0.724447
0.728521
0.732432
0.736159
0.739707
0.743079
0.746273
0.749289
0.752125
0.754775
0.757235
0.759498
0.761546
0.763384
0.764996
0.766371
0.767494
0.768365
0.768997
0.769421
0.769684
0.769836
0.769918
0.769961
0.769981
0.769991
0.769996
0.769998
0.769999
0.77
0.77
0.77
0.77
0.77
0.77
0.77
0.77
0.77
0.77
0.77
2.24349e-06
9.80494e-06
2.2525e-05
4.38528e-05
7.94397e-05
0.000138436
0.000235455
0.000393455
0.000647841
0.00105204
0.0016846
0.00265762
0.00412523
0.00629014
0.00940465
0.013762
0.0196749
0.0274425
0.0373109
0.0494399
0.0638838
0.0805913
0.09942
0.120159
0.142552
0.166316
0.19116
0.216792
0.242933
0.269321
0.295715
0.321898
0.347682
0.372905
0.397432
0.421156
0.443987
0.465859
0.486729
0.506568
0.525362
0.543113
0.559835
0.575547
0.590278
0.604061
0.616934
0.628938
0.640115
0.650508
0.660162
0.669121
0.677426
0.685119
0.692241
0.69883
0.704885
0.710348
0.715576
0.720411
0.724885
0.728957
0.732865
0.736587
0.740127
0.743488
0.746669
0.749669
0.752484
0.755111
0.757544
0.759773
0.761782
0.763584
0.765164
0.766508
0.767609
0.768454
0.769058
0.76946
0.769707
0.769848
0.769925
0.769964
0.769983
0.769992
0.769996
0.769998
0.769999
0.77
0.77
0.77
0.77
0.77
0.77
0.77
0.77
0.77
0.77
0.77
2.22818e-06
9.73791e-06
2.23704e-05
4.35499e-05
7.88862e-05
0.000137461
0.000233776
0.000390616
0.000643116
0.00104429
0.00167213
0.00263792
0.00409478
0.00624424
0.00933735
0.0136664
0.0195436
0.0272683
0.0370882
0.0491652
0.0635563
0.080213
0.0989955
0.119695
0.142056
0.165799
0.190631
0.216262
0.242412
0.268819
0.295241
0.321461
0.347288
0.372561
0.397142
0.420923
0.443814
0.465747
0.486678
0.506574
0.525425
0.543232
0.560005
0.575765
0.590539
0.604361
0.617268
0.629302
0.640504
0.650918
0.660588
0.669558
0.677871
0.685569
0.692692
0.699279
0.705317
0.710769
0.715988
0.720813
0.725277
0.729344
0.733248
0.736964
0.740496
0.743847
0.747015
0.75
0.752798
0.755404
0.757813
0.760018
0.762015
0.763795
0.765345
0.766654
0.767713
0.768529
0.769111
0.769493
0.769726
0.769859
0.76993
0.769966
0.769984
0.769993
0.769997
0.769999
0.769999
0.77
0.77
0.77
0.77
0.77
0.77
0.77
0.77
0.77
0.77
0.77
2.21436e-06
9.6775e-06
2.22313e-05
4.32777e-05
7.83897e-05
0.000136589
0.000232279
0.000388093
0.00063893
0.00103746
0.00166118
0.0026207
0.0040683
0.00620451
0.00927942
0.0135845
0.0194317
0.0271208
0.0369007
0.0489352
0.0632837
0.0799001
0.0986466
0.119316
0.141655
0.165383
0.19021
0.215844
0.242006
0.268433
0.294882
0.321136
0.347003
0.372319
0.396948
0.420778
0.443721
0.465706
0.486686
0.506632
0.525531
0.543383
0.560198
0.575996
0.590805
0.604658
0.617592
0.629649
0.64087
0.651299
0.66098
0.669958
0.678276
0.685975
0.693098
0.699681
0.705707
0.711147
0.716358
0.721171
0.725618
0.729685
0.733586
0.737296
0.74082
0.74416
0.747315
0.750283
0.753063
0.75565
0.758042
0.760232
0.762213
0.763971
0.765497
0.766779
0.767811
0.768595
0.769155
0.769521
0.769742
0.769867
0.769934
0.769968
0.769985
0.769993
0.769997
0.769999
0.769999
0.77
0.77
0.77
0.77
0.77
0.77
0.77
0.77
0.77
0.77
0.77
2.20219e-06
9.62428e-06
2.21088e-05
4.30384e-05
7.7954e-05
0.000135825
0.000230971
0.000385893
0.000635292
0.00103154
0.00165172
0.00260588
0.0040456
0.0061706
0.00923018
0.0135152
0.0193374
0.0269971
0.0367442
0.0487444
0.0630588
0.0796434
0.0983622
0.11901
0.141333
0.165052
0.189877
0.215517
0.241693
0.268139
0.294614
0.320898
0.3468
0.372155
0.396825
0.420699
0.443685
0.465712
0.486735
0.506722
0.525661
0.543549
0.560398
0.576227
0.591064
0.604941
0.617896
0.62997
0.641205
0.651645
0.661335
0.670318
0.678637
0.686336
0.693453
0.700029
0.706046
0.71148
0.716681
0.721483
0.725918
0.729984
0.73388
0.737584
0.741099
0.744426
0.74757
0.750528
0.753298
0.755877
0.758256
0.760429
0.762388
0.764124
0.765626
0.766886
0.767895
0.768657
0.769193
0.769544
0.769756
0.769875
0.769938
0.76997
0.769986
0.769994
0.769997
0.769999
0.769999
0.77
0.77
0.77
0.77
0.77
0.77
0.77
0.77
0.77
0.77
0.77
2.19168e-06
9.57835e-06
2.20032e-05
4.28323e-05
7.7579e-05
0.000135168
0.000229849
0.00038401
0.000632186
0.0010265
0.00164369
0.00259334
0.00402644
0.00614208
0.0091889
0.0134573
0.019259
0.0268946
0.0366152
0.0485876
0.062875
0.0794348
0.0981325
0.118764
0.141076
0.164791
0.189617
0.215265
0.241453
0.267918
0.294417
0.320729
0.346661
0.37205
0.396755
0.420665
0.443687
0.465751
0.486809
0.50683
0.5258
0.543719
0.560595
0.576449
0.591307
0.605203
0.618174
0.630261
0.641507
0.651954
0.661649
0.670634
0.678954
0.686649
0.693762
0.700337
0.706346
0.71177
0.716961
0.721752
0.726174
0.730242
0.734134
0.737833
0.741342
0.744666
0.747803
0.750752
0.753511
0.756075
0.758439
0.760595
0.762536
0.764253
0.765736
0.766975
0.767964
0.768708
0.769228
0.769564
0.769767
0.769881
0.769941
0.769972
0.769987
0.769994
0.769997
0.769999
0.769999
0.77
0.77
0.77
0.77
0.77
0.77
0.77
0.77
0.77
0.77
0.77
2.18278e-06
9.53947e-06
2.19138e-05
4.2658e-05
7.72624e-05
0.000134614
0.000228904
0.000382428
0.000629579
0.00102228
0.00163698
0.00258288
0.00401051
0.00611843
0.00915479
0.0134096
0.0191946
0.0268108
0.0365099
0.0484604
0.0627265
0.0792671
0.0979489
0.118568
0.140873
0.164586
0.189415
0.215071
0.241272
0.267755
0.294274
0.32061
0.346569
0.371986
0.396721
0.420661
0.443713
0.465807
0.486894
0.506943
0.52594
0.543882
0.56078
0.576653
0.591528
0.605439
0.618422
0.630519
0.641772
0.652225
0.661922
0.670906
0.679223
0.686918
0.694031
0.700601
0.706601
0.712017
0.7172
0.721981
0.726389
0.73046
0.73435
0.738045
0.741551
0.744869
0.747999
0.750939
0.753688
0.75624
0.758591
0.760733
0.76266
0.764361
0.765828
0.76705
0.768021
0.768749
0.769255
0.769581
0.769776
0.769886
0.769944
0.769973
0.769987
0.769994
0.769997
0.769999
0.769999
0.77
0.77
0.77
0.77
0.77
0.77
0.77
0.77
0.77
0.77
0.77
2.1754e-06
9.50726e-06
2.18398e-05
4.25137e-05
7.70006e-05
0.000134157
0.000228125
0.000381124
0.000627436
0.00101882
0.00163148
0.00257433
0.00399752
0.00609918
0.00912708
0.013371
0.0191426
0.0267432
0.0364255
0.0483586
0.0626082
0.0791341
0.097804
0.118415
0.140716
0.164428
0.189261
0.214925
0.241138
0.267635
0.294172
0.320529
0.34651
0.371951
0.396711
0.420676
0.443753
0.465871
0.486982
0.507053
0.52607
0.544031
0.560946
0.576835
0.591723
0.605645
0.618638
0.630741
0.641998
0.652453
0.662151
0.671137
0.679457
0.68715
0.694259
0.700824
0.706816
0.712225
0.717401
0.722176
0.726565
0.730641
0.734529
0.738222
0.741724
0.745036
0.74816
0.751093
0.753833
0.756376
0.758717
0.760848
0.762762
0.76445
0.765903
0.767111
0.768068
0.768783
0.769278
0.769595
0.769784
0.76989
0.769946
0.769974
0.769988
0.769994
0.769997
0.769999
0.769999
0.77
0.77
0.77
0.77
0.77
0.77
0.77
0.77
0.77
0.77
0.77
2.16945e-06
9.48127e-06
2.17801e-05
4.23975e-05
7.67897e-05
0.000133789
0.000227498
0.000380077
0.000625717
0.00101604
0.00162708
0.0025675
0.00398716
0.00608387
0.00910508
0.0133404
0.0191015
0.02669
0.0363591
0.0482789
0.0625159
0.0790307
0.0976919
0.118297
0.140595
0.164308
0.189145
0.214816
0.241039
0.267549
0.294101
0.320475
0.346475
0.371935
0.396715
0.4207
0.443797
0.465935
0.487064
0.507153
0.526186
0.544162
0.56109
0.57699
0.591889
0.605818
0.618817
0.630924
0.642185
0.652643
0.662344
0.671332
0.67965
0.687341
0.694447
0.701008
0.706992
0.712396
0.717566
0.722335
0.726707
0.730787
0.734674
0.738364
0.741863
0.745172
0.74829
0.751218
0.753951
0.756486
0.758818
0.76094
0.762844
0.764522
0.765964
0.76716
0.768106
0.76881
0.769296
0.769606
0.769791
0.769893
0.769947
0.769975
0.769988
0.769995
0.769998
0.769999
0.77
0.77
0.77
0.77
0.77
0.77
0.77
0.77
0.77
0.77
0.77
0.77
2.16483e-06
9.46108e-06
2.17338e-05
4.23072e-05
7.6626e-05
0.000133504
0.000227012
0.000379267
0.000624387
0.0010139
0.00162369
0.00256224
0.00397919
0.0060721
0.0090882
0.0133169
0.01907
0.0266494
0.0363086
0.0482184
0.062446
0.0789528
0.0976077
0.118209
0.140505
0.164219
0.18906
0.214737
0.240968
0.267489
0.294053
0.32044
0.346455
0.37193
0.396725
0.420725
0.443838
0.465991
0.487134
0.507237
0.526282
0.544269
0.561207
0.577115
0.59202
0.605955
0.618959
0.631072
0.642337
0.652798
0.662499
0.671486
0.679802
0.687491
0.694595
0.701153
0.707131
0.71253
0.717696
0.72246
0.726819
0.730904
0.734788
0.738477
0.741973
0.745278
0.748393
0.751315
0.754043
0.756572
0.758898
0.761012
0.762909
0.764578
0.766011
0.767198
0.768135
0.76883
0.769309
0.769615
0.769795
0.769896
0.769949
0.769975
0.769988
0.769995
0.769998
0.769999
0.77
0.77
0.77
0.77
0.77
0.77
0.77
0.77
0.77
0.77
0.77
0.77
2.16145e-06
9.44631e-06
2.16998e-05
4.22412e-05
7.65064e-05
0.000133295
0.000226657
0.000378675
0.000623417
0.00101234
0.00162122
0.00255841
0.00397339
0.00606355
0.00907596
0.0133
0.0190473
0.02662
0.0362722
0.0481749
0.0623958
0.0788969
0.0975476
0.118146
0.140442
0.164157
0.189
0.214682
0.24092
0.267448
0.294022
0.320418
0.346444
0.37193
0.396737
0.420749
0.443872
0.466035
0.487189
0.507301
0.526355
0.54435
0.561295
0.57721
0.592121
0.606063
0.61907
0.631185
0.642451
0.652913
0.662615
0.671601
0.679916
0.687604
0.694705
0.70126
0.707235
0.71263
0.717793
0.722553
0.726902
0.73099
0.734873
0.73856
0.742054
0.745357
0.748468
0.751388
0.754111
0.756636
0.758957
0.761066
0.762956
0.764619
0.766046
0.767226
0.768157
0.768846
0.769319
0.769621
0.769799
0.769898
0.76995
0.769976
0.769989
0.769995
0.769998
0.769999
0.77
0.77
0.77
0.77
0.77
0.77
0.77
0.77
0.77
0.77
0.77
0.77
2.15924e-06
9.43668e-06
2.16777e-05
4.21981e-05
7.64284e-05
0.000133159
0.000226426
0.00037829
0.000622786
0.00101132
0.00161961
0.00255593
0.00396964
0.00605801
0.00906804
0.013289
0.0190326
0.0266011
0.0362487
0.0481468
0.0623636
0.0788611
0.0975091
0.118106
0.140401
0.164117
0.188963
0.214648
0.24089
0.267424
0.294003
0.320406
0.346439
0.371932
0.396747
0.420766
0.443897
0.466068
0.487228
0.507346
0.526406
0.544407
0.561357
0.577275
0.59219
0.606134
0.619143
0.63126
0.642527
0.652989
0.662691
0.671677
0.679992
0.687678
0.694778
0.701331
0.707304
0.712697
0.717857
0.722613
0.726955
0.731047
0.734929
0.738615
0.742108
0.745409
0.748519
0.751435
0.754157
0.756678
0.758995
0.761101
0.762988
0.764647
0.766069
0.767245
0.768171
0.768856
0.769326
0.769625
0.769801
0.769899
0.76995
0.769976
0.769989
0.769995
0.769998
0.769999
0.77
0.77
0.77
0.77
0.77
0.77
0.77
0.77
0.77
0.77
0.77
0.77
2.15817e-06
9.432e-06
2.1667e-05
4.21773e-05
7.63908e-05
0.000133094
0.000226316
0.000378106
0.000622485
0.00101084
0.00161885
0.00255475
0.00396786
0.0060554
0.0090643
0.0132838
0.0190257
0.0265922
0.0362376
0.0481336
0.0623483
0.0788442
0.0974909
0.118087
0.140382
0.164099
0.188945
0.214632
0.240876
0.267412
0.293994
0.320401
0.346437
0.371934
0.396752
0.420775
0.44391
0.466084
0.487248
0.507369
0.526432
0.544435
0.561387
0.577308
0.592224
0.606169
0.61918
0.631297
0.642565
0.653027
0.662729
0.671715
0.680029
0.687714
0.694813
0.701365
0.70734
0.712732
0.71789
0.722645
0.726982
0.731074
0.734956
0.738642
0.742134
0.745435
0.748543
0.751459
0.754179
0.756699
0.759015
0.761118
0.763003
0.76466
0.76608
0.767254
0.768177
0.76886
0.769329
0.769627
0.769802
0.7699
0.769951
0.769976
0.769989
0.769995
0.769998
0.769999
0.77
0.77
0.77
0.77
0.77
0.77
0.77
0.77
0.77
0.77
0.77
0.77
2.15818e-06
9.43204e-06
2.16671e-05
4.21775e-05
7.63911e-05
0.000133094
0.000226317
0.000378107
0.000622488
0.00101084
0.00161886
0.00255476
0.00396787
0.00605541
0.00906432
0.0132838
0.0190257
0.0265922
0.0362377
0.0481337
0.0623484
0.0788443
0.097491
0.118087
0.140382
0.164099
0.188945
0.214632
0.240876
0.267412
0.293994
0.320401
0.346437
0.371934
0.396752
0.420775
0.44391
0.466084
0.487248
0.507369
0.526432
0.544435
0.561387
0.577308
0.592224
0.606169
0.61918
0.631297
0.642565
0.653027
0.662729
0.671715
0.680029
0.687714
0.694813
0.701366
0.707341
0.712732
0.71789
0.722645
0.726982
0.731074
0.734956
0.738642
0.742134
0.745434
0.748543
0.751459
0.754179
0.756699
0.759014
0.761118
0.763003
0.76466
0.76608
0.767254
0.768177
0.76886
0.769329
0.769627
0.769802
0.7699
0.769951
0.769976
0.769989
0.769995
0.769998
0.769999
0.77
0.77
0.77
0.77
0.77
0.77
0.77
0.77
0.77
0.77
0.77
0.77
2.15927e-06
9.43679e-06
2.1678e-05
4.21986e-05
7.64293e-05
0.000133161
0.000226429
0.000378294
0.000622793
0.00101133
0.00161963
0.00255596
0.00396967
0.00605807
0.00906812
0.0132891
0.0190327
0.0266013
0.0362489
0.0481471
0.0623638
0.0788614
0.0975095
0.118106
0.140402
0.164118
0.188963
0.214648
0.24089
0.267424
0.294003
0.320407
0.346439
0.371933
0.396747
0.420766
0.443897
0.466068
0.487228
0.507346
0.526407
0.544407
0.561357
0.577276
0.59219
0.606134
0.619143
0.63126
0.642528
0.65299
0.662691
0.671677
0.679992
0.687678
0.694778
0.701332
0.707304
0.712697
0.717857
0.722613
0.726955
0.731047
0.734929
0.738615
0.742108
0.745409
0.748519
0.751435
0.754157
0.756678
0.758995
0.761101
0.762987
0.764647
0.766069
0.767245
0.768171
0.768856
0.769326
0.769625
0.769801
0.769899
0.76995
0.769976
0.769989
0.769995
0.769998
0.769999
0.77
0.77
0.77
0.77
0.77
0.77
0.77
0.77
0.77
0.77
0.77
0.77
2.16149e-06
9.4465e-06
2.17003e-05
4.2242e-05
7.65078e-05
0.000133298
0.000226662
0.000378682
0.000623428
0.00101235
0.00162125
0.00255846
0.00397345
0.00606364
0.00907609
0.0133001
0.0190475
0.0266203
0.0362725
0.0481753
0.0623963
0.0788975
0.0975481
0.118147
0.140442
0.164157
0.189001
0.214683
0.240921
0.267449
0.294022
0.320419
0.346444
0.37193
0.396737
0.420749
0.443872
0.466036
0.487189
0.507301
0.526355
0.54435
0.561295
0.57721
0.592121
0.606063
0.61907
0.631185
0.642452
0.652913
0.662615
0.671601
0.679917
0.687604
0.694705
0.701261
0.707235
0.712631
0.717793
0.722553
0.726902
0.730989
0.734873
0.73856
0.742054
0.745357
0.748468
0.751387
0.754111
0.756636
0.758956
0.761066
0.762956
0.764619
0.766046
0.767226
0.768157
0.768846
0.769319
0.769621
0.769799
0.769898
0.76995
0.769976
0.769989
0.769995
0.769998
0.769999
0.77
0.77
0.77
0.77
0.77
0.77
0.77
0.77
0.77
0.77
0.77
0.77
2.16489e-06
9.46134e-06
2.17343e-05
4.23083e-05
7.6628e-05
0.000133507
0.000227018
0.000379276
0.000624402
0.00101392
0.00162373
0.0025623
0.00397927
0.00607222
0.00908837
0.0133172
0.0190703
0.0266497
0.0363091
0.0482189
0.0624466
0.0789534
0.0976084
0.118209
0.140506
0.16422
0.189061
0.214738
0.240969
0.267489
0.294054
0.320441
0.346455
0.37193
0.396725
0.420726
0.443838
0.465991
0.487135
0.507237
0.526282
0.544269
0.561207
0.577115
0.59202
0.605955
0.618959
0.631072
0.642337
0.652798
0.662499
0.671486
0.679803
0.687492
0.694595
0.701153
0.707132
0.71253
0.717696
0.72246
0.726819
0.730903
0.734788
0.738477
0.741973
0.745278
0.748392
0.751315
0.754043
0.756572
0.758898
0.761012
0.762908
0.764578
0.766011
0.767198
0.768135
0.76883
0.769309
0.769615
0.769795
0.769896
0.769949
0.769975
0.769988
0.769995
0.769998
0.769999
0.77
0.77
0.77
0.77
0.77
0.77
0.77
0.77
0.77
0.77
0.77
0.77
2.16953e-06
9.48159e-06
2.17809e-05
4.23989e-05
7.67922e-05
0.000133793
0.000227505
0.000380089
0.000625736
0.00101607
0.00162713
0.00256757
0.00398726
0.00608402
0.00910529
0.0133407
0.0191018
0.0266905
0.0363597
0.0482796
0.0625166
0.0790316
0.0976928
0.118298
0.140596
0.164309
0.189146
0.214817
0.24104
0.26755
0.294102
0.320475
0.346476
0.371936
0.396715
0.4207
0.443798
0.465936
0.487065
0.507153
0.526187
0.544162
0.561091
0.576991
0.591889
0.605818
0.618817
0.630924
0.642185
0.652643
0.662345
0.671332
0.67965
0.687341
0.694447
0.701008
0.706992
0.712396
0.717566
0.722335
0.726707
0.730787
0.734673
0.738364
0.741863
0.745172
0.74829
0.751217
0.753951
0.756486
0.758818
0.76094
0.762844
0.764522
0.765964
0.76716
0.768106
0.768809
0.769296
0.769606
0.769791
0.769893
0.769947
0.769975
0.769988
0.769995
0.769998
0.769999
0.77
0.77
0.77
0.77
0.77
0.77
0.77
0.77
0.77
0.77
0.77
0.77
2.17549e-06
9.50764e-06
2.18407e-05
4.25154e-05
7.70036e-05
0.000134162
0.000228133
0.000381138
0.000627459
0.00101885
0.00163154
0.00257441
0.00399764
0.00609936
0.00912733
0.0133713
0.019143
0.0267438
0.0364262
0.0483594
0.0626091
0.0791351
0.0978051
0.118416
0.140717
0.164429
0.189262
0.214926
0.241139
0.267636
0.294173
0.320529
0.346511
0.371952
0.396712
0.420676
0.443753
0.465872
0.486982
0.507054
0.526071
0.544032
0.560947
0.576835
0.591724
0.605645
0.618638
0.630741
0.641998
0.652453
0.662151
0.671137
0.679457
0.68715
0.694259
0.700825
0.706816
0.712225
0.717401
0.722176
0.726564
0.730641
0.734529
0.738222
0.741723
0.745036
0.74816
0.751093
0.753833
0.756376
0.758717
0.760848
0.762762
0.76445
0.765903
0.767111
0.768068
0.768783
0.769278
0.769595
0.769784
0.76989
0.769946
0.769974
0.769988
0.769994
0.769997
0.769999
0.769999
0.77
0.77
0.77
0.77
0.77
0.77
0.77
0.77
0.77
0.77
0.77
2.18288e-06
9.53991e-06
2.19148e-05
4.26599e-05
7.72659e-05
0.00013462
0.000228914
0.000382444
0.000629606
0.00102232
0.00163704
0.00258298
0.00401066
0.00611864
0.00915507
0.01341
0.0191951
0.0268114
0.0365107
0.0484613
0.0627275
0.0792682
0.0979501
0.118569
0.140875
0.164587
0.189417
0.215072
0.241274
0.267756
0.294275
0.320611
0.34657
0.371987
0.396722
0.420661
0.443713
0.465808
0.486895
0.506944
0.52594
0.543882
0.56078
0.576653
0.591529
0.605439
0.618423
0.630519
0.641772
0.652225
0.661922
0.670906
0.679223
0.686918
0.694031
0.700601
0.706601
0.712017
0.717199
0.721981
0.726389
0.73046
0.73435
0.738044
0.741551
0.744869
0.747999
0.750939
0.753688
0.75624
0.758591
0.760733
0.76266
0.764361
0.765827
0.767049
0.768021
0.768749
0.769255
0.769581
0.769776
0.769886
0.769944
0.769973
0.769987
0.769994
0.769997
0.769999
0.769999
0.77
0.77
0.77
0.77
0.77
0.77
0.77
0.77
0.77
0.77
0.77
2.19179e-06
9.57884e-06
2.20043e-05
4.28345e-05
7.75829e-05
0.000135175
0.00022986
0.000384029
0.000632215
0.00102655
0.00164376
0.00259344
0.0040266
0.0061423
0.00918922
0.0134577
0.0192595
0.0268953
0.036616
0.0485886
0.0628762
0.0794361
0.0981339
0.118765
0.141078
0.164792
0.189618
0.215266
0.241455
0.26792
0.294418
0.32073
0.346663
0.372051
0.396756
0.420666
0.443688
0.465751
0.486809
0.506831
0.525801
0.543719
0.560595
0.576449
0.591307
0.605203
0.618175
0.630261
0.641507
0.651954
0.661649
0.670634
0.678954
0.686649
0.693762
0.700337
0.706346
0.71177
0.716961
0.721751
0.726174
0.730242
0.734134
0.737833
0.741342
0.744666
0.747803
0.750753
0.753511
0.756075
0.758439
0.760595
0.762536
0.764253
0.765736
0.766975
0.767964
0.768707
0.769228
0.769564
0.769767
0.769881
0.769941
0.769972
0.769987
0.769994
0.769997
0.769999
0.769999
0.77
0.77
0.77
0.77
0.77
0.77
0.77
0.77
0.77
0.77
0.77
2.20231e-06
9.62483e-06
2.21101e-05
4.30409e-05
7.79583e-05
0.000135832
0.000230983
0.000385913
0.000635325
0.00103159
0.0016518
0.002606
0.00404577
0.00617085
0.00923053
0.0135156
0.019338
0.0269979
0.0367452
0.0487455
0.0630601
0.0796448
0.0983637
0.119011
0.141335
0.165054
0.189879
0.215519
0.241694
0.268141
0.294615
0.3209
0.346802
0.372156
0.396827
0.4207
0.443686
0.465713
0.486736
0.506723
0.525661
0.54355
0.560398
0.576227
0.591064
0.604941
0.617896
0.62997
0.641205
0.651645
0.661335
0.670318
0.678637
0.686336
0.693453
0.700028
0.706046
0.71148
0.716681
0.721483
0.725918
0.729984
0.73388
0.737584
0.741099
0.744426
0.74757
0.750528
0.753299
0.755878
0.758257
0.76043
0.762389
0.764124
0.765627
0.766886
0.767895
0.768657
0.769193
0.769544
0.769756
0.769875
0.769938
0.76997
0.769986
0.769994
0.769997
0.769999
0.769999
0.77
0.77
0.77
0.77
0.77
0.77
0.77
0.77
0.77
0.77
0.77
2.2145e-06
9.67809e-06
2.22326e-05
4.32803e-05
7.83943e-05
0.000136597
0.000232293
0.000388115
0.000638965
0.00103752
0.00166126
0.00262083
0.00406849
0.00620478
0.0092798
0.013585
0.0194323
0.0271216
0.0369017
0.0489364
0.0632851
0.0799016
0.0986482
0.119318
0.141657
0.165385
0.190211
0.215846
0.242008
0.268435
0.294884
0.321137
0.347004
0.37232
0.396949
0.42078
0.443722
0.465707
0.486686
0.506633
0.525532
0.543383
0.560198
0.575996
0.590805
0.604658
0.617592
0.629649
0.64087
0.651299
0.660981
0.669958
0.678276
0.685975
0.693098
0.699681
0.705707
0.711147
0.716358
0.72117
0.725617
0.729685
0.733585
0.737295
0.74082
0.74416
0.747314
0.750283
0.753063
0.75565
0.758042
0.760235
0.762214
0.763971
0.765497
0.766779
0.767811
0.768595
0.769155
0.769521
0.769742
0.769867
0.769934
0.769968
0.769985
0.769993
0.769997
0.769999
0.769999
0.77
0.77
0.77
0.77
0.77
0.77
0.77
0.77
0.77
0.77
0.77
2.22832e-06
9.73855e-06
2.23719e-05
4.35527e-05
7.88912e-05
0.00013747
0.000233791
0.00039064
0.000643153
0.00104435
0.00167222
0.00263806
0.00409498
0.00624453
0.00933776
0.0136669
0.0195443
0.0272692
0.0370893
0.0491665
0.0635578
0.0802146
0.0989972
0.119697
0.142058
0.165801
0.190633
0.216264
0.242414
0.268821
0.295243
0.321463
0.34729
0.372562
0.397144
0.420924
0.443815
0.465748
0.486679
0.506575
0.525426
0.543233
0.560005
0.575765
0.590539
0.604361
0.617269
0.629302
0.640504
0.650918
0.660588
0.669558
0.677871
0.685569
0.692692
0.699279
0.705317
0.710769
0.715988
0.720813
0.725276
0.729343
0.733247
0.736964
0.740496
0.743847
0.747015
0.75
0.752798
0.755404
0.757813
0.760016
0.762016
0.763795
0.765345
0.766654
0.767713
0.768529
0.769111
0.769493
0.769726
0.769859
0.76993
0.769966
0.769984
0.769993
0.769997
0.769999
0.769999
0.77
0.77
0.77
0.77
0.77
0.77
0.77
0.77
0.77
0.77
0.77
2.24365e-06
9.80562e-06
2.25265e-05
4.38558e-05
7.9445e-05
0.000138445
0.00023547
0.000393479
0.000647881
0.0010521
0.0016847
0.00265777
0.00412545
0.00629045
0.00940508
0.0137626
0.0196757
0.0274434
0.0373121
0.0494413
0.0638854
0.080593
0.0994218
0.120161
0.142554
0.166318
0.191162
0.216794
0.242935
0.269323
0.295717
0.3219
0.347684
0.372906
0.397434
0.421157
0.443988
0.46586
0.48673
0.506569
0.525362
0.543114
0.559835
0.575547
0.590278
0.604061
0.616934
0.628938
0.640115
0.650509
0.660163
0.669121
0.677426
0.685119
0.692241
0.698831
0.704885
0.710349
0.715577
0.720412
0.724886
0.728957
0.732865
0.736587
0.740127
0.743488
0.746668
0.749668
0.752483
0.75511
0.757541
0.75977
0.76178
0.763583
0.765163
0.766508
0.767609
0.768454
0.769058
0.76946
0.769707
0.769848
0.769925
0.769964
0.769983
0.769992
0.769996
0.769998
0.769999
0.77
0.77
0.77
0.77
0.77
0.77
0.77
0.77
0.77
0.77
0.77
2.26012e-06
9.87778e-06
2.26932e-05
4.4183e-05
8.00445e-05
0.000139505
0.0002373
0.000396588
0.00065308
0.00106066
0.00169857
0.00267982
0.00415975
0.00634251
0.00948192
0.0138725
0.0198278
0.0276466
0.0375736
0.0497661
0.0642754
0.0810467
0.0999347
0.120726
0.143161
0.166957
0.191821
0.217461
0.243597
0.269968
0.296334
0.322478
0.348215
0.373382
0.397848
0.421505
0.444267
0.466069
0.486866
0.506634
0.525361
0.543047
0.559706
0.57536
0.590037
0.603771
0.616601
0.628567
0.639711
0.650078
0.65971
0.668651
0.676944
0.68463
0.691751
0.698345
0.70442
0.709888
0.715121
0.719964
0.724447
0.728521
0.732432
0.736159
0.739707
0.743079
0.746273
0.749289
0.752125
0.754775
0.757235
0.759497
0.761545
0.763383
0.764996
0.766371
0.767494
0.768365
0.768997
0.769421