/*--------------------------------*- C++ -*----------------------------------*\
  =========                 |
  \\      /  F ield         | OpenFOAM: The Open Source CFD Toolbox
   \\    /   O peration     | Website:  https://openfoam.org
    \\  /    A nd           | Version:  8
     \\/     M anipulation  |
\*---------------------------------------------------------------------------*/
FoamFile
{
    version     2.0;
    format      ascii;
    class       volScalarField;
    location    "840/fluid";
    object      O2;
}
// * * * * * * * * * * * * * * * * * * * * * * * * * * * * * * * * * * * * * //

dimensions      [0 0 0 0 0 0 0];

internalField   nonuniform List<scalar> 
4000
(
4.58249e-10
2.00092e-09
4.58762e-09
8.90469e-09
1.60688e-08
2.78754e-08
4.71719e-08
7.8399e-08
1.28347e-07
2.0716e-07
3.29579e-07
5.16362e-07
7.93602e-07
1.19733e-06
1.76812e-06
2.549e-06
3.57952e-06
4.88836e-06
6.48642e-06
8.36299e-06
1.04861e-05
1.28068e-05
1.52649e-05
1.77954e-05
2.03334e-05
2.28175e-05
2.51925e-05
2.74108e-05
2.94328e-05
3.12286e-05
3.27787e-05
3.4078e-05
3.5142e-05
3.60164e-05
3.67905e-05
3.76111e-05
3.86944e-05
4.03369e-05
4.29251e-05
4.69525e-05
5.30486e-05
6.20238e-05
7.49292e-05
9.31333e-05
0.000118423
0.000153137
0.000200346
0.000263933
0.000349375
0.000463645
0.000615919
0.000818251
0.00108646
0.00144129
0.00190995
0.00252813
0.00334266
0.00440055
0.00577521
0.00763171
0.0100745
0.0132963
0.0184752
0.0349077
0.0515441
0.0681256
0.084451
0.100362
0.115731
0.130455
0.144445
0.157623
0.169915
0.181189
0.191489
0.200654
0.208584
0.215184
0.22038
0.224182
0.226728
0.22828
0.229147
0.229594
0.229813
0.229915
0.229962
0.229984
0.229993
0.229997
0.229999
0.229999
0.23
0.23
0.23
0.23
0.23
0.23
0.23
0.23
4.65355e-10
2.03336e-09
4.66771e-09
9.07479e-09
1.64058e-08
2.85139e-08
4.83379e-08
8.04551e-08
1.3184e-07
2.12834e-07
3.38246e-07
5.28265e-07
8.13176e-07
1.22658e-06
1.80949e-06
2.60543e-06
3.65466e-06
4.98687e-06
6.61428e-06
8.52764e-06
1.06962e-05
1.30715e-05
1.55932e-05
1.81955e-05
2.08116e-05
2.33784e-05
2.58382e-05
2.81409e-05
3.0245e-05
3.21184e-05
3.37401e-05
3.51039e-05
3.6225e-05
3.715e-05
3.79712e-05
3.88412e-05
3.99853e-05
4.1712e-05
4.44227e-05
4.86269e-05
5.49702e-05
6.42782e-05
7.76154e-05
9.63621e-05
0.000122316
0.000157827
0.000205882
0.000270567
0.00035727
0.000472969
0.000626848
0.000830969
0.00110116
0.00145819
0.00192928
0.0025502
0.00336791
0.00442913
0.00580802
0.00767171
0.010125
0.0133622
0.01978
0.0363133
0.0530303
0.0696781
0.0860583
0.102014
0.117417
0.132163
0.146162
0.159333
0.171596
0.182814
0.193024
0.202055
0.209806
0.216182
0.221127
0.224683
0.227025
0.228435
0.229219
0.229625
0.229825
0.22992
0.229964
0.229984
0.229993
0.229997
0.229999
0.229999
0.23
0.23
0.23
0.23
0.23
0.23
0.23
0.23
4.74783e-10
2.07457e-09
4.76294e-09
9.26193e-09
1.67483e-08
2.9116e-08
4.93677e-08
8.21823e-08
1.34704e-07
2.17595e-07
3.46352e-07
5.42872e-07
8.34721e-07
1.2576e-06
1.8533e-06
2.66635e-06
3.73827e-06
5.10028e-06
6.76641e-06
8.72915e-06
1.09592e-05
1.34091e-05
1.60184e-05
1.87205e-05
2.14473e-05
2.4133e-05
2.67176e-05
2.9148e-05
3.13795e-05
3.33772e-05
3.51176e-05
3.65925e-05
3.7816e-05
3.88359e-05
3.97483e-05
4.07142e-05
4.19725e-05
4.38508e-05
4.67731e-05
5.12744e-05
5.80264e-05
6.788e-05
8.19229e-05
0.000101557
0.0001286
0.00016532
0.000214784
0.000281427
0.00037034
0.000488558
0.000645313
0.00085271
0.00112663
0.00148791
0.00196388
0.00259048
0.00341501
0.00448342
0.00587201
0.00774997
0.0102228
0.013493
0.0220665
0.0386742
0.055459
0.0721611
0.0885782
0.10455
0.119947
0.134662
0.1486
0.161677
0.173811
0.184879
0.194874
0.203648
0.211109
0.217176
0.221823
0.225124
0.227276
0.228565
0.229281
0.229654
0.229838
0.229926
0.229966
0.229985
0.229994
0.229997
0.229999
0.23
0.23
0.23
0.23
0.23
0.23
0.23
0.23
0.23
4.85987e-10
2.12413e-09
4.87907e-09
9.49322e-09
1.71764e-08
2.98744e-08
5.06685e-08
8.43506e-08
1.38216e-07
2.23098e-07
3.54609e-07
5.5446e-07
8.51537e-07
1.28226e-06
1.88946e-06
2.71905e-06
3.81433e-06
5.20868e-06
6.91843e-06
8.93821e-06
1.12404e-05
1.37782e-05
1.64913e-05
1.93119e-05
2.21701e-05
2.49978e-05
2.7732e-05
3.03165e-05
3.27036e-05
3.48551e-05
3.67446e-05
3.83617e-05
3.97193e-05
4.08665e-05
4.19047e-05
4.30051e-05
4.44241e-05
4.65127e-05
4.97239e-05
5.46247e-05
6.19202e-05
7.24945e-05
8.74672e-05
0.000108274
0.000136646
0.000174985
0.000226815
0.000295995
0.000387943
0.000509766
0.000670785
0.000883222
0.0011631
0.00153145
0.00201589
0.00265272
0.00348979
0.00457103
0.00597584
0.00787858
0.0103884
0.0137062
0.0249051
0.0415395
0.0583531
0.0750744
0.0914926
0.107442
0.122788
0.13742
0.151243
0.164169
0.176114
0.186998
0.196734
0.205225
0.212385
0.218148
0.222508
0.225565
0.227535
0.228705
0.229351
0.229687
0.229853
0.229932
0.229969
0.229986
0.229994
0.229997
0.229999
0.23
0.23
0.23
0.23
0.23
0.23
0.23
0.23
0.23
4.95907e-10
2.16747e-09
4.97861e-09
9.68683e-09
1.75262e-08
3.04809e-08
5.16919e-08
8.6042e-08
1.40964e-07
2.27494e-07
3.61546e-07
5.65273e-07
8.6821e-07
1.30767e-06
1.9277e-06
2.77581e-06
3.8973e-06
5.32789e-06
7.08635e-06
9.1696e-06
1.15517e-05
1.41869e-05
1.70148e-05
1.99667e-05
2.29708e-05
2.59567e-05
2.88585e-05
3.16169e-05
3.41805e-05
3.6508e-05
3.85698e-05
4.0353e-05
4.18697e-05
4.3171e-05
4.43646e-05
4.56348e-05
4.72585e-05
4.96151e-05
5.3192e-05
5.85939e-05
6.65665e-05
7.80348e-05
9.41471e-05
0.000116261
0.000146319
0.000187138
0.00024168
0.000314178
0.00041017
0.000536917
0.000703925
0.000923652
0.00121242
0.00159165
0.00208944
0.00274279
0.00359853
0.00469852
0.00613314
0.00807896
0.0106422
0.0140114
0.0278919
0.0445098
0.0613281
0.0780505
0.0944515
0.110357
0.12563
0.140158
0.153844
0.166602
0.178327
0.188988
0.198469
0.206681
0.213548
0.219021
0.223114
0.225949
0.227758
0.228824
0.229411
0.229715
0.229866
0.229938
0.229972
0.229988
0.229995
0.229998
0.229999
0.23
0.23
0.23
0.23
0.23
0.23
0.23
0.23
0.23
5.04506e-10
2.20494e-09
5.06426e-09
9.8526e-09
1.78246e-08
3.09978e-08
5.25661e-08
8.74967e-08
1.43354e-07
2.31378e-07
3.67795e-07
5.75231e-07
8.83917e-07
1.33218e-06
1.96546e-06
2.83314e-06
3.98283e-06
5.4529e-06
7.26483e-06
9.41798e-06
1.18882e-05
1.46306e-05
1.75848e-05
2.06809e-05
2.38455e-05
2.70056e-05
3.00923e-05
3.30429e-05
3.58026e-05
3.83265e-05
4.05818e-05
4.25532e-05
4.42521e-05
4.57321e-05
4.71094e-05
4.85835e-05
5.04558e-05
5.31384e-05
5.71574e-05
6.31608e-05
7.19393e-05
8.44397e-05
0.000101761
0.000125518
0.000157983
0.000201472
0.000259341
0.000335972
0.000437103
0.000570241
0.000745211
0.000974868
0.00127603
0.00167073
0.00218784
0.00286451
0.00375049
0.00488546
0.00636557
0.00836072
0.0109762
0.0143711
0.0304434
0.047153
0.0640499
0.0808168
0.0972227
0.113094
0.128294
0.142715
0.156262
0.168853
0.180364
0.190809
0.200047
0.207997
0.214594
0.219801
0.223653
0.226292
0.227958
0.228933
0.229466
0.229742
0.229878
0.229944
0.229974
0.229989
0.229995
0.229998
0.229999
0.23
0.23
0.23
0.23
0.23
0.23
0.23
0.23
0.23
5.1243e-10
2.2395e-09
5.14348e-09
1.00065e-08
1.81033e-08
3.14841e-08
5.33967e-08
8.88946e-08
1.4568e-07
2.35211e-07
3.74052e-07
5.85341e-07
9.00075e-07
1.35769e-06
2.00516e-06
2.8939e-06
4.07405e-06
5.58684e-06
7.45669e-06
9.68559e-06
1.22514e-05
1.51102e-05
1.82015e-05
2.14547e-05
2.47943e-05
2.81448e-05
3.14342e-05
3.45962e-05
3.75724e-05
4.03141e-05
4.27851e-05
4.49675e-05
4.68722e-05
4.85564e-05
5.01463e-05
5.18598e-05
5.40257e-05
5.70926e-05
6.16293e-05
6.833e-05
7.80017e-05
9.156e-05
0.000110387
0.000136332
0.000171236
0.000217794
0.000279517
0.000360999
0.000468254
0.000609157
0.000794017
0.00103633
0.00135373
0.0017693
0.00231313
0.00302519
0.00395865
0.00514186
0.00673535
0.00881778
0.0115343
0.0150063
0.0319664
0.0491757
0.0663492
0.0832558
0.099711
0.115567
0.130705
0.145025
0.158442
0.170878
0.182207
0.192461
0.201473
0.209175
0.215517
0.220482
0.22412
0.226586
0.228129
0.229025
0.229513
0.229765
0.229889
0.229949
0.229977
0.22999
0.229995
0.229998
0.229999
0.23
0.23
0.23
0.23
0.23
0.23
0.23
0.23
0.23
5.20008e-10
2.27259e-09
5.21943e-09
1.01545e-08
1.8372e-08
3.19551e-08
5.42051e-08
9.02633e-08
1.47974e-07
2.39022e-07
3.80326e-07
5.95572e-07
9.16584e-07
1.38399e-06
2.04645e-06
2.95759e-06
4.1703e-06
5.72891e-06
7.66104e-06
9.97154e-06
1.26404e-05
1.56249e-05
1.88648e-05
2.22883e-05
2.58182e-05
2.93764e-05
3.28877e-05
3.62821e-05
3.94974e-05
4.24808e-05
4.51924e-05
4.76115e-05
4.97487e-05
5.16655e-05
5.35001e-05
5.54913e-05
5.79979e-05
6.15079e-05
6.66343e-05
7.40804e-05
8.4646e-05
9.95245e-05
0.000120243
0.000148282
0.000185819
0.000235677
0.000301545
0.000388252
0.000502138
0.000651528
0.000847362
0.00110404
0.00144055
0.00188197
0.00246153
0.00322346
0.00422048
0.00549775
0.00723749
0.0095376
0.0125909
0.0165852
0.0338252
0.0512412
0.0685457
0.0855169
0.101981
0.117801
0.132865
0.147078
0.160362
0.172643
0.1838
0.193838
0.202652
0.210165
0.216306
0.221065
0.224518
0.226837
0.228275
0.229104
0.229553
0.229784
0.229898
0.229953
0.229979
0.22999
0.229996
0.229998
0.229999
0.23
0.23
0.23
0.23
0.23
0.23
0.23
0.23
0.23
5.27448e-10
2.3051e-09
5.29419e-09
1.03004e-08
1.8638e-08
3.24231e-08
5.50121e-08
9.16373e-08
1.5029e-07
2.42894e-07
3.86742e-07
6.06103e-07
9.33676e-07
1.41138e-06
2.08965e-06
3.02449e-06
4.27174e-06
5.87907e-06
7.87753e-06
1.02751e-05
1.30543e-05
1.61737e-05
1.95734e-05
2.3181e-05
2.69174e-05
3.0702e-05
3.44564e-05
3.81069e-05
4.1587e-05
4.48396e-05
4.7821e-05
5.05073e-05
5.2909e-05
5.50926e-05
5.72101e-05
5.95239e-05
6.2425e-05
6.64425e-05
7.21961e-05
8.03966e-05
9.20833e-05
0.000108557
0.000131019
0.000161231
0.000201457
0.000254636
0.000324608
0.000416398
0.000536604
0.000693886
0.000899634
0.00116884
0.00152128
0.00198307
0.00258883
0.00338455
0.00442598
0.00576631
0.00759638
0.0100246
0.0132664
0.0182726
0.0357071
0.0532446
0.0706136
0.0876027
0.104046
0.119811
0.13479
0.148891
0.162032
0.174133
0.18508
0.194931
0.203565
0.210915
0.216934
0.221552
0.224854
0.227049
0.228398
0.229171
0.229588
0.229801
0.229906
0.229957
0.22998
0.229991
0.229996
0.229998
0.229999
0.23
0.23
0.23
0.23
0.23
0.23
0.23
0.23
0.23
5.3482e-10
2.33733e-09
5.36839e-09
1.04456e-08
1.89031e-08
3.28906e-08
5.58211e-08
9.30195e-08
1.5263e-07
2.46822e-07
3.93281e-07
6.16884e-07
9.51255e-07
1.43966e-06
2.13443e-06
3.0941e-06
4.37761e-06
6.03623e-06
8.10473e-06
1.05946e-05
1.34909e-05
1.67542e-05
2.03251e-05
2.41309e-05
2.80909e-05
3.21221e-05
3.61429e-05
4.00759e-05
4.38503e-05
4.74046e-05
5.06905e-05
5.36811e-05
5.63866e-05
5.88797e-05
6.13283e-05
6.40202e-05
6.73801e-05
7.1945e-05
7.83413e-05
8.74982e-05
0.000100552
0.000118492
0.000142763
0.000175182
0.000218088
0.000274509
0.000348395
0.000444905
0.000570796
0.000734917
0.000948875
0.0012279
0.00159201
0.00206754
0.00268922
0.00350292
0.00456026
0.00591569
0.00775576
0.0101759
0.0133672
0.0200781
0.0375707
0.0551411
0.0725179
0.0894898
0.105892
0.121594
0.136489
0.150488
0.16351
0.175488
0.186377
0.196096
0.204566
0.211718
0.217503
0.221965
0.225144
0.227231
0.228503
0.229228
0.229617
0.229815
0.229913
0.22996
0.229982
0.229992
0.229996
0.229998
0.229999
0.23
0.23
0.23
0.23
0.23
0.23
0.23
0.23
0.23
5.42119e-10
2.36926e-09
5.44195e-09
1.05897e-08
1.91667e-08
3.33568e-08
5.66298e-08
9.44056e-08
1.54985e-07
2.50788e-07
3.99906e-07
6.27847e-07
9.69189e-07
1.4686e-06
2.18041e-06
3.16576e-06
4.48691e-06
6.19892e-06
8.34058e-06
1.09271e-05
1.39468e-05
1.73624e-05
2.11156e-05
2.51336e-05
2.93347e-05
3.36338e-05
3.79465e-05
4.21915e-05
4.62939e-05
5.01876e-05
5.38196e-05
5.71598e-05
6.02184e-05
6.30753e-05
6.59163e-05
6.90571e-05
7.29334e-05
7.80703e-05
8.53111e-05
9.56738e-05
0.00011
0.000129496
0.000155645
0.000190318
0.00023591
0.000295521
0.000373181
0.000474141
0.000605253
0.000775467
0.000996479
0.00128359
0.00165683
0.00214248
0.00277506
0.00359983
0.00466622
0.00602813
0.00787206
0.0102878
0.0134633
0.0218208
0.0393241
0.0568868
0.0742387
0.091168
0.107507
0.12313
0.137932
0.151825
0.164756
0.176655
0.187457
0.19706
0.205396
0.212403
0.218043
0.222326
0.225384
0.227384
0.228592
0.229276
0.229641
0.229827
0.229919
0.229962
0.229983
0.229992
0.229997
0.229999
0.229999
0.23
0.23
0.23
0.23
0.23
0.23
0.23
0.23
0.23
5.49281e-10
2.4006e-09
5.51421e-09
1.07313e-08
1.94263e-08
3.38168e-08
5.74295e-08
9.57797e-08
1.57325e-07
2.54741e-07
4.0653e-07
6.38838e-07
9.87224e-07
1.4978e-06
2.22691e-06
3.23846e-06
4.59811e-06
6.36494e-06
8.58202e-06
1.12687e-05
1.44169e-05
1.79921e-05
2.19376e-05
2.61812e-05
3.06407e-05
3.52295e-05
3.98607e-05
4.44499e-05
4.89182e-05
5.31947e-05
5.72221e-05
6.09669e-05
6.44398e-05
6.77289e-05
7.10396e-05
7.47077e-05
7.91348e-05
8.50623e-05
9.34085e-05
0.000104916
0.000120629
0.000141786
0.000169911
0.000206918
0.000255258
0.000318091
0.000399512
0.000504845
0.000641012
0.000817028
0.00104464
0.00133916
0.0017206
0.00221506
0.00285647
0.00368967
0.00476462
0.00613423
0.00798247
0.0103978
0.0135656
0.0233746
0.0408838
0.0584323
0.0757459
0.0926157
0.1089
0.12447
0.139224
0.153078
0.165939
0.177741
0.188419
0.197899
0.206109
0.212988
0.2185
0.222664
0.225592
0.227512
0.228667
0.229316
0.229662
0.229837
0.229923
0.229965
0.229984
0.229993
0.229997
0.229999
0.229999
0.23
0.23
0.23
0.23
0.23
0.23
0.23
0.23
0.23
5.56202e-10
2.43089e-09
5.58409e-09
1.08685e-08
1.9678e-08
3.42633e-08
5.82075e-08
9.71192e-08
1.59611e-07
2.58614e-07
4.13035e-07
6.49663e-07
1.00503e-06
1.52671e-06
2.2731e-06
3.31087e-06
4.70922e-06
6.53139e-06
8.82497e-06
1.16138e-05
1.48939e-05
1.8634e-05
2.278e-05
2.72606e-05
3.19943e-05
3.68937e-05
4.18703e-05
4.68373e-05
5.17121e-05
5.64201e-05
6.08999e-05
6.51152e-05
6.90787e-05
7.28909e-05
7.67832e-05
8.10778e-05
8.63317e-05
9.3247e-05
0.000102638
0.000115416
0.000132642
0.000155587
0.000185809
0.000225269
0.000276469
0.000342628
0.000427904
0.000537685
0.000678957
0.000860791
0.00109498
0.00139683
0.00178618
0.00228885
0.00293915
0.00378257
0.00486573
0.00624159
0.00809397
0.0105085
0.0136674
0.0247139
0.0422383
0.0597807
0.0770734
0.0939311
0.110183
0.125704
0.140393
0.154164
0.16694
0.178651
0.189233
0.19861
0.206711
0.213479
0.21888
0.222941
0.225782
0.227619
0.228728
0.229349
0.229679
0.229846
0.229927
0.229966
0.229985
0.229993
0.229997
0.229999
0.229999
0.23
0.23
0.23
0.23
0.23
0.23
0.23
0.23
0.23
5.62746e-10
2.45954e-09
5.65022e-09
1.09984e-08
1.99166e-08
3.46874e-08
5.89475e-08
9.8396e-08
1.61795e-07
2.62322e-07
4.19279e-07
6.60077e-07
1.02221e-06
1.55467e-06
2.31791e-06
3.38134e-06
4.81774e-06
6.69456e-06
9.06411e-06
1.19551e-05
1.53679e-05
1.92754e-05
2.36264e-05
2.83522e-05
3.33724e-05
3.86003e-05
4.39468e-05
4.93239e-05
5.46468e-05
5.98375e-05
6.48311e-05
6.95886e-05
7.41241e-05
7.8548e-05
8.30994e-05
8.81106e-05
9.42944e-05
0.000102377
0.000113052
0.000127286
0.000146187
0.000171066
0.000203526
0.00024558
0.000299783
0.000369412
0.000458688
0.000573061
0.000719584
0.00090735
0.00114808
0.00145692
0.00185386
0.00236555
0.00302583
0.00387838
0.00496931
0.00635141
0.0082074
0.01062
0.0137646
0.0258477
0.0433932
0.0609326
0.0782205
0.0950487
0.111261
0.126734
0.141367
0.155073
0.167779
0.179413
0.189914
0.199204
0.207214
0.213887
0.219195
0.223168
0.225934
0.227715
0.228778
0.229376
0.229693
0.229852
0.229931
0.229968
0.229985
0.229994
0.229997
0.229999
0.229999
0.23
0.23
0.23
0.23
0.23
0.23
0.23
0.23
0.23
5.68763e-10
2.48588e-09
5.71105e-09
1.1118e-08
2.01365e-08
3.50787e-08
5.96314e-08
9.9578e-08
1.63822e-07
2.65769e-07
4.25096e-07
6.69804e-07
1.0383e-06
1.58094e-06
2.36012e-06
3.44795e-06
4.92067e-06
6.84996e-06
9.29287e-06
1.22831e-05
1.5826e-05
1.98988e-05
2.44545e-05
2.94276e-05
3.47403e-05
4.0308e-05
4.6043e-05
5.18577e-05
5.76673e-05
6.33932e-05
6.89693e-05
7.43572e-05
7.95758e-05
8.47501e-05
9.01185e-05
9.62464e-05
0.000103572
0.000112826
0.000124863
0.000140664
0.00016136
0.0001883
0.000223129
0.000267911
0.000325258
0.000398512
0.000491943
0.000611033
0.000762804
0.000956331
0.00120349
0.00152012
0.00192611
0.00244685
0.00311599
0.00397734
0.00507567
0.00646348
0.00832218
0.0107316
0.0138548
0.026787
0.0443604
0.0619074
0.0791795
0.0959812
0.112159
0.127589
0.142173
0.155825
0.168472
0.180043
0.190476
0.199694
0.207628
0.214223
0.219453
0.223353
0.226057
0.227791
0.228822
0.229398
0.229703
0.229858
0.229933
0.229969
0.229986
0.229994
0.229997
0.229999
0.229999
0.23
0.23
0.23
0.23
0.23
0.23
0.23
0.23
0.23
5.74091e-10
2.50921e-09
5.76495e-09
1.1224e-08
2.03316e-08
3.54264e-08
6.02399e-08
1.00632e-07
1.65631e-07
2.68853e-07
4.30311e-07
6.78547e-07
1.0528e-06
1.60467e-06
2.39837e-06
3.50853e-06
5.01463e-06
6.99238e-06
9.50348e-06
1.25866e-05
1.62522e-05
2.04825e-05
2.5235e-05
3.04485e-05
3.60493e-05
4.19563e-05
4.80852e-05
5.43515e-05
6.06733e-05
6.69748e-05
7.31936e-05
7.92983e-05
8.53232e-05
9.14242e-05
9.78737e-05
0.000105136
0.000113748
0.000124361
0.000137909
0.000155406
0.000178016
0.000207126
0.000244431
0.000292041
0.000352615
0.000429519
0.000527038
0.000650743
0.000807804
0.00100775
0.00126246
0.00158694
0.00200102
0.00253037
0.00320825
0.00407801
0.00518313
0.00657555
0.00843515
0.0108386
0.013938
0.0275491
0.0451461
0.0627002
0.0799627
0.0967431
0.112891
0.128286
0.142829
0.156436
0.169034
0.180554
0.190932
0.200091
0.207963
0.214494
0.21966
0.223501
0.226155
0.227851
0.228857
0.229417
0.229713
0.229862
0.229935
0.22997
0.229986
0.229994
0.229997
0.229999
0.23
0.23
0.23
0.23
0.23
0.23
0.23
0.23
0.23
0.23
5.78573e-10
2.52884e-09
5.81032e-09
1.13133e-08
2.04961e-08
3.57197e-08
6.0754e-08
1.01523e-07
1.67164e-07
2.71471e-07
4.34749e-07
6.86001e-07
1.06519e-06
1.625e-06
2.43125e-06
3.56076e-06
5.09594e-06
7.11613e-06
9.6873e-06
1.28528e-05
1.66281e-05
2.10004e-05
2.59321e-05
3.13671e-05
3.72365e-05
4.34644e-05
4.99714e-05
5.66783e-05
6.35086e-05
7.0392e-05
7.72725e-05
8.41266e-05
9.10024e-05
9.80723e-05
0.000105694
0.00011422
0.000124143
0.000136342
0.00015158
0.00017089
0.000195478
0.000226778
0.000266533
0.000316905
0.000380609
0.000461089
0.000562936
0.000691768
0.000854826
0.00106115
0.00132264
0.00165459
0.00207668
0.00261436
0.00330059
0.00417813
0.00528923
0.006685
0.00854353
0.0109382
0.0140113
0.0281549
0.0457788
0.0633363
0.080589
0.0973505
0.113473
0.128838
0.143347
0.156918
0.169477
0.180954
0.191289
0.200401
0.208224
0.214705
0.219821
0.223615
0.22623
0.227897
0.228883
0.229432
0.229721
0.229866
0.229937
0.229971
0.229987
0.229994
0.229997
0.229999
0.23
0.23
0.23
0.23
0.23
0.23
0.23
0.23
0.23
0.23
5.82068e-10
2.54415e-09
5.84571e-09
1.1383e-08
2.06245e-08
3.5949e-08
6.11562e-08
1.02221e-07
1.68366e-07
2.73528e-07
4.3824e-07
6.91878e-07
1.07498e-06
1.64111e-06
2.45737e-06
3.60237e-06
5.16093e-06
7.21542e-06
9.83539e-06
1.30683e-05
1.69339e-05
2.14241e-05
2.65061e-05
3.21288e-05
3.82286e-05
4.47356e-05
5.15767e-05
5.86803e-05
6.5978e-05
7.34093e-05
8.09301e-05
8.85329e-05
9.6289e-05
0.000104407
0.000113294
0.000123206
0.000134577
0.000148163
0.000164943
0.000185963
0.000212463
0.000245924
0.000288152
0.000341387
0.000408435
0.000492848
0.000598985
0.000732556
0.000900818
0.00111303
0.00138104
0.00172008
0.00214973
0.00269519
0.00338904
0.00427345
0.00538954
0.00678737
0.00864325
0.0110273
0.0140735
0.0286043
0.0462562
0.0638199
0.0810656
0.0978118
0.113914
0.129254
0.143736
0.157278
0.169806
0.181252
0.191553
0.200631
0.208417
0.21486
0.219939
0.223699
0.226285
0.22793
0.228903
0.229442
0.229726
0.229869
0.229938
0.229972
0.229987
0.229994
0.229997
0.229999
0.23
0.23
0.23
0.23
0.23
0.23
0.23
0.23
0.23
0.23
5.84454e-10
2.5546e-09
5.86987e-09
1.14305e-08
2.07123e-08
3.61056e-08
6.14311e-08
1.02698e-07
1.69189e-07
2.74936e-07
4.40634e-07
6.95912e-07
1.08171e-06
1.65221e-06
2.4754e-06
3.63116e-06
5.20603e-06
7.28455e-06
9.93889e-06
1.32195e-05
1.71495e-05
2.17244e-05
2.69152e-05
3.2675e-05
3.89452e-05
4.5661e-05
5.27559e-05
6.01659e-05
6.7832e-05
7.5706e-05
8.37598e-05
9.20094e-05
0.000100563
0.000109678
0.000119692
0.00013097
0.000143809
0.000158911
0.00017722
0.000199841
0.000228068
0.000263437
0.000307809
0.00036347
0.00043327
0.000520785
0.000630517
0.000768189
0.000941079
0.00115847
0.0014322
0.00177742
0.00221358
0.00276561
0.00346565
0.00435521
0.00547451
0.00687202
0.00872266
0.0110948
0.0141189
0.0289299
0.0465931
0.064158
0.0813967
0.0981301
0.114216
0.129537
0.144
0.157521
0.170027
0.181451
0.191729
0.200783
0.208544
0.214962
0.220016
0.223754
0.226321
0.227952
0.228915
0.229448
0.229729
0.22987
0.229939
0.229972
0.229987
0.229994
0.229997
0.229999
0.23
0.23
0.23
0.23
0.23
0.23
0.23
0.23
0.23
0.23
5.85648e-10
2.55982e-09
5.88191e-09
1.14542e-08
2.07557e-08
3.6183e-08
6.15664e-08
1.02933e-07
1.69592e-07
2.75624e-07
4.41802e-07
6.97879e-07
1.08499e-06
1.65762e-06
2.48419e-06
3.64523e-06
5.22813e-06
7.31853e-06
9.98995e-06
1.32944e-05
1.72569e-05
2.18748e-05
2.71213e-05
3.2952e-05
3.9311e-05
4.61368e-05
5.3367e-05
6.09423e-05
6.88102e-05
7.69302e-05
8.52849e-05
9.39047e-05
0.000102916
0.000112576
0.00012328
0.000135464
0.000149509
0.000165733
0.000185108
0.000208804
0.000238168
0.000274784
0.000320554
0.000377804
0.000449422
0.00053902
0.000651148
0.000791566
0.000967579
0.00118847
0.00146608
0.00181549
0.00225597
0.00281218
0.0035157
0.00440706
0.00552548
0.00691554
0.00874755
0.0110811
0.0140293
0.0290454
0.0467483
0.0643276
0.0815677
0.0982956
0.114372
0.129683
0.144134
0.157644
0.170138
0.18155
0.191816
0.200857
0.208606
0.215011
0.220053
0.223779
0.226338
0.227962
0.228921
0.229452
0.229731
0.229871
0.229939
0.229972
0.229987
0.229994
0.229998
0.229999
0.23
0.23
0.23
0.23
0.23
0.23
0.23
0.23
0.23
0.23
5.85649e-10
2.55983e-09
5.88192e-09
1.14542e-08
2.07557e-08
3.6183e-08
6.15665e-08
1.02933e-07
1.69592e-07
2.75624e-07
4.41802e-07
6.97879e-07
1.08499e-06
1.65762e-06
2.48419e-06
3.64523e-06
5.22812e-06
7.31852e-06
9.98994e-06
1.32944e-05
1.72569e-05
2.18747e-05
2.71212e-05
3.29519e-05
3.93109e-05
4.61368e-05
5.3367e-05
6.09424e-05
6.88103e-05
7.69303e-05
8.5285e-05
9.39048e-05
0.000102916
0.000112576
0.00012328
0.000135463
0.000149508
0.000165732
0.000185105
0.000208801
0.000238164
0.000274779
0.000320547
0.000377796
0.00044941
0.000539004
0.000651129
0.000791544
0.000967555
0.00118845
0.00146606
0.00181548
0.00225598
0.00281221
0.00351576
0.00440718
0.00552567
0.00691582
0.00874789
0.0110815
0.0140293
0.0290455
0.0467483
0.0643277
0.0815678
0.0982957
0.114372
0.129683
0.144134
0.157644
0.170138
0.18155
0.191816
0.200857
0.208606
0.215011
0.220053
0.223779
0.226338
0.227962
0.228921
0.229452
0.229731
0.229871
0.229939
0.229972
0.229987
0.229994
0.229998
0.229999
0.23
0.23
0.23
0.23
0.23
0.23
0.23
0.23
0.23
0.23
5.84456e-10
2.55461e-09
5.86989e-09
1.14306e-08
2.07123e-08
3.61057e-08
6.14313e-08
1.02699e-07
1.69189e-07
2.74937e-07
4.40635e-07
6.95913e-07
1.08171e-06
1.65221e-06
2.47539e-06
3.63116e-06
5.20602e-06
7.28453e-06
9.93886e-06
1.32195e-05
1.71495e-05
2.17243e-05
2.69151e-05
3.26749e-05
3.89451e-05
4.56609e-05
5.27559e-05
6.01659e-05
6.78322e-05
7.57063e-05
8.37602e-05
9.201e-05
0.000100563
0.000109677
0.000119691
0.000130967
0.000143805
0.000158905
0.000177212
0.000199832
0.000228056
0.000263423
0.00030779
0.000363446
0.000433237
0.000520737
0.000630452
0.000768109
0.000940985
0.00115836
0.00143207
0.00177728
0.00221341
0.00276543
0.00346547
0.00435504
0.00547435
0.00687188
0.00872255
0.0110947
0.0141188
0.0289298
0.046593
0.0641579
0.0813966
0.0981301
0.114216
0.129537
0.144
0.157521
0.170027
0.181451
0.191729
0.200783
0.208544
0.214962
0.220016
0.223754
0.226321
0.227952
0.228915
0.229448
0.229729
0.22987
0.229939
0.229972
0.229987
0.229994
0.229997
0.229999
0.23
0.23
0.23
0.23
0.23
0.23
0.23
0.23
0.23
0.23
5.82071e-10
2.54416e-09
5.84573e-09
1.1383e-08
2.06246e-08
3.59491e-08
6.11564e-08
1.02221e-07
1.68366e-07
2.73528e-07
4.3824e-07
6.91877e-07
1.07498e-06
1.64111e-06
2.45736e-06
3.60234e-06
5.16089e-06
7.21535e-06
9.83528e-06
1.30681e-05
1.69337e-05
2.14238e-05
2.65057e-05
3.21283e-05
3.82281e-05
4.4735e-05
5.15761e-05
5.86795e-05
6.59771e-05
7.34082e-05
8.09287e-05
8.85311e-05
9.62867e-05
0.000104405
0.000113291
0.000123201
0.000134569
0.000148153
0.00016493
0.000185946
0.00021244
0.000245894
0.000288113
0.000341338
0.000408376
0.000492783
0.00059891
0.000732462
0.000900701
0.00111288
0.00138087
0.00171988
0.00214949
0.00269491
0.00338872
0.00427309
0.00538913
0.0067869
0.00864275
0.0110269
0.0140734
0.0286039
0.0462558
0.0638196
0.0810654
0.0978116
0.113913
0.129254
0.143736
0.157278
0.169806
0.181252
0.191553
0.200631
0.208417
0.21486
0.219939
0.223699
0.226285
0.22793
0.228902
0.229442
0.229726
0.229869
0.229938
0.229972
0.229987
0.229994
0.229997
0.229999
0.23
0.23
0.23
0.23
0.23
0.23
0.23
0.23
0.23
0.23
5.78578e-10
2.52886e-09
5.81036e-09
1.13134e-08
2.04962e-08
3.57199e-08
6.07544e-08
1.01523e-07
1.67164e-07
2.71471e-07
4.34749e-07
6.86001e-07
1.06519e-06
1.625e-06
2.43124e-06
3.56073e-06
5.09589e-06
7.11606e-06
9.68718e-06
1.28526e-05
1.66279e-05
2.10001e-05
2.59317e-05
3.13666e-05
3.7236e-05
4.34638e-05
4.99707e-05
5.66776e-05
6.35078e-05
7.03912e-05
7.72715e-05
8.41253e-05
9.10006e-05
9.80704e-05
0.000105691
0.000114216
0.000124137
0.000136332
0.000151566
0.000170871
0.000195453
0.000226745
0.00026649
0.00031685
0.000380543
0.00046102
0.00056286
0.000691675
0.000854713
0.00106101
0.00132249
0.00165441
0.00207649
0.00261417
0.0033004
0.00417795
0.00528907
0.00668486
0.00854342
0.0109381
0.0140111
0.0281547
0.0457786
0.063336
0.0805888
0.0973504
0.113473
0.128838
0.143347
0.156918
0.169476
0.180954
0.191288
0.200401
0.208224
0.214705
0.21982
0.223615
0.22623
0.227897
0.228883
0.229432
0.229721
0.229866
0.229937
0.229971
0.229987
0.229994
0.229997
0.229999
0.23
0.23
0.23
0.23
0.23
0.23
0.23
0.23
0.23
0.23
5.74096e-10
2.50923e-09
5.76501e-09
1.12241e-08
2.03318e-08
3.54267e-08
6.02404e-08
1.00632e-07
1.65632e-07
2.68854e-07
4.30313e-07
6.78548e-07
1.0528e-06
1.60466e-06
2.39836e-06
3.5085e-06
5.01459e-06
6.99231e-06
9.50337e-06
1.25864e-05
1.6252e-05
2.04822e-05
2.52346e-05
3.0448e-05
3.60488e-05
4.19557e-05
4.80846e-05
5.4351e-05
6.06728e-05
6.69744e-05
7.31934e-05
7.92984e-05
8.53237e-05
9.14255e-05
9.78745e-05
0.000105136
0.000113748
0.000124361
0.000137907
0.0001554
0.000178007
0.000207114
0.000244414
0.000292017
0.00035258
0.000429461
0.000526957
0.000650643
0.000807689
0.00100762
0.00126231
0.00158677
0.00200084
0.00253017
0.00320805
0.00407782
0.00518295
0.00657541
0.00843503
0.0108385
0.013938
0.0275492
0.0451462
0.0627003
0.0799627
0.0967432
0.112891
0.128286
0.142829
0.156436
0.169034
0.180553
0.190931
0.200091
0.207962
0.214494
0.219659
0.223501
0.226155
0.227851
0.228857
0.229417
0.229713
0.229862
0.229935
0.22997
0.229986
0.229994
0.229997
0.229999
0.23
0.23
0.23
0.23
0.23
0.23
0.23
0.23
0.23
0.23
5.68769e-10
2.48591e-09
5.71112e-09
1.11181e-08
2.01367e-08
3.50791e-08
5.9632e-08
9.95789e-08
1.63823e-07
2.65771e-07
4.25098e-07
6.69807e-07
1.0383e-06
1.58094e-06
2.36011e-06
3.44794e-06
4.92064e-06
6.8499e-06
9.29277e-06
1.22829e-05
1.58258e-05
1.98985e-05
2.44541e-05
2.94271e-05
3.47398e-05
4.03074e-05
4.60424e-05
5.18572e-05
5.76669e-05
6.33928e-05
6.89691e-05
7.4357e-05
7.95757e-05
8.47501e-05
9.01198e-05
9.62494e-05
0.000103574
0.000112826
0.000124862
0.000140661
0.000161356
0.000188292
0.000223118
0.000267894
0.000325235
0.00039848
0.0004919
0.000610977
0.00076273
0.000956241
0.00120339
0.00152001
0.001926
0.00244673
0.00311587
0.00397722
0.00507557
0.00646339
0.00832212
0.0107315
0.0138548
0.0267872
0.0443606
0.0619076
0.0791797
0.0959814
0.112159
0.127589
0.142173
0.155825
0.168472
0.180043
0.190476
0.199694
0.207628
0.214223
0.219452
0.223353
0.226057
0.22779
0.228822
0.229398
0.229703
0.229858
0.229933
0.229969
0.229986
0.229994
0.229997
0.229999
0.229999
0.23
0.23
0.23
0.23
0.23
0.23
0.23
0.23
0.23
5.62754e-10
2.45957e-09
5.6503e-09
1.09985e-08
1.99168e-08
3.46879e-08
5.89482e-08
9.83972e-08
1.61797e-07
2.62325e-07
4.19282e-07
6.60081e-07
1.02222e-06
1.55468e-06
2.31791e-06
3.38134e-06
4.81772e-06
6.69451e-06
9.06403e-06
1.19549e-05
1.53677e-05
1.92751e-05
2.36261e-05
2.83518e-05
3.33719e-05
3.85998e-05
4.39463e-05
4.93234e-05
5.46463e-05
5.98371e-05
6.48308e-05
6.95883e-05
7.41238e-05
7.85474e-05
8.30989e-05
8.81087e-05
9.42938e-05
0.000102377
0.000113051
0.000127285
0.000146184
0.000171061
0.00020352
0.000245571
0.000299769
0.000369394
0.000458666
0.000573034
0.000719551
0.000907309
0.00114803
0.00145685
0.0018538
0.00236549
0.00302577
0.00387832
0.00496927
0.00635138
0.00820739
0.01062
0.0137646
0.0258483
0.0433939
0.0609332
0.0782209
0.0950491
0.111262
0.126735
0.141367
0.155073
0.167778
0.179413
0.189914
0.199204
0.207213
0.213887
0.219195
0.223168
0.225934
0.227715
0.228778
0.229376
0.229693
0.229852
0.229931
0.229968
0.229985
0.229994
0.229997
0.229999
0.229999
0.23
0.23
0.23
0.23
0.23
0.23
0.23
0.23
0.23
5.56211e-10
2.43093e-09
5.58419e-09
1.08687e-08
1.96783e-08
3.42639e-08
5.82084e-08
9.71207e-08
1.59614e-07
2.58618e-07
4.1304e-07
6.49669e-07
1.00504e-06
1.52672e-06
2.2731e-06
3.31087e-06
4.70921e-06
6.53136e-06
8.82491e-06
1.16137e-05
1.48938e-05
1.86338e-05
2.27797e-05
2.72603e-05
3.19939e-05
3.68933e-05
4.18699e-05
4.68368e-05
5.17116e-05
5.64197e-05
6.08995e-05
6.51148e-05
6.90784e-05
7.28906e-05
7.6783e-05
8.10786e-05
8.63331e-05
9.32483e-05
0.000102639
0.000115417
0.000132642
0.000155586
0.000185807
0.000225267
0.000276466
0.000342623
0.000427897
0.000537675
0.000678946
0.000860778
0.00109496
0.00139681
0.00178615
0.00228881
0.00293912
0.00378254
0.00486571
0.00624157
0.00809396
0.0105085
0.0136673
0.0247148
0.0422391
0.0597815
0.077074
0.0939316
0.110183
0.125704
0.140393
0.154164
0.16694
0.178651
0.189233
0.198609
0.206711
0.213479
0.21888
0.222941
0.225782
0.227619
0.228728
0.229349
0.229679
0.229846
0.229927
0.229966
0.229985
0.229993
0.229997
0.229999
0.229999
0.23
0.23
0.23
0.23
0.23
0.23
0.23
0.23
0.23
5.49292e-10
2.40065e-09
5.51432e-09
1.07315e-08
1.94267e-08
3.38174e-08
5.74306e-08
9.57814e-08
1.57327e-07
2.54745e-07
4.06536e-07
6.38847e-07
9.87235e-07
1.49781e-06
2.22693e-06
3.23847e-06
4.59812e-06
6.36494e-06
8.582e-06
1.12686e-05
1.44168e-05
1.79919e-05
2.19374e-05
2.61809e-05
3.06403e-05
3.52291e-05
3.98603e-05
4.44495e-05
4.89177e-05
5.31942e-05
5.72216e-05
6.09664e-05
6.44391e-05
6.77281e-05
7.10384e-05
7.47065e-05
7.91341e-05
8.5063e-05
9.34099e-05
0.000104918