/*--------------------------------*- C++ -*----------------------------------*\
  =========                 |
  \\      /  F ield         | OpenFOAM: The Open Source CFD Toolbox
   \\    /   O peration     | Website:  https://openfoam.org
    \\  /    A nd           | Version:  8
     \\/     M anipulation  |
\*---------------------------------------------------------------------------*/
FoamFile
{
    version     2.0;
    format      ascii;
    class       surfaceScalarField;
    location    "840/fluid";
    object      phi;
}
// * * * * * * * * * * * * * * * * * * * * * * * * * * * * * * * * * * * * * //

dimensions      [1 0 -1 0 0 0 0];

internalField   nonuniform List<scalar> 
7860
(
6.57259e-07
-1.7765e-08
6.54568e-07
-5.33099e-08
6.50738e-07
-8.86913e-08
6.45657e-07
-1.23794e-07
6.39192e-07
-1.58615e-07
6.31179e-07
-1.93112e-07
6.21432e-07
-2.27202e-07
6.0975e-07
-2.6076e-07
5.95929e-07
-2.93621e-07
5.79773e-07
-3.2556e-07
5.6111e-07
-3.56289e-07
5.3982e-07
-3.85441e-07
5.15877e-07
-4.12557e-07
4.89461e-07
-4.37095e-07
4.60852e-07
-4.58413e-07
4.30417e-07
-4.75847e-07
3.98628e-07
-4.88842e-07
3.66032e-07
-4.97105e-07
3.33191e-07
-5.00726e-07
3.00616e-07
-5.00194e-07
2.68711e-07
-4.96297e-07
2.37763e-07
-4.89944e-07
2.07949e-07
-4.81992e-07
1.79402e-07
-4.73138e-07
1.5217e-07
-4.63865e-07
1.26214e-07
-4.54469e-07
1.01464e-07
-4.45111e-07
7.78466e-08
-4.35859e-07
5.52895e-08
-4.26723e-07
3.37311e-08
-4.17684e-07
1.31188e-08
-4.08714e-07
-6.58759e-09
-3.99786e-07
-2.54165e-08
-3.9088e-07
-4.3397e-08
-3.81987e-07
-6.05601e-08
-3.7311e-07
-7.69288e-08
-3.64238e-07
-9.25228e-08
-3.55333e-07
-1.07361e-07
-3.46407e-07
-1.21462e-07
-3.37481e-07
-1.34844e-07
-3.28578e-07
-1.47527e-07
-3.19722e-07
-1.59529e-07
-3.10939e-07
-1.70869e-07
-3.02256e-07
-1.81567e-07
-2.937e-07
-1.91644e-07
-2.853e-07
-2.0112e-07
-2.77082e-07
-2.10015e-07
-2.69074e-07
-2.1835e-07
-2.61301e-07
-2.26146e-07
-2.5379e-07
-2.33425e-07
-2.46567e-07
-2.40209e-07
-2.39658e-07
-2.46521e-07
-2.33092e-07
-2.52384e-07
-2.26897e-07
-2.57824e-07
-2.21106e-07
-2.6287e-07
-2.15756e-07
-2.67557e-07
-2.10893e-07
-2.71929e-07
-2.06568e-07
-2.76038e-07
-2.02876e-07
-2.79943e-07
-1.99885e-07
-2.83718e-07
-1.97657e-07
-2.87499e-07
-1.96433e-07
-2.91725e-07
-1.96385e-07
-2.9665e-07
-1.98696e-07
-3.03512e-07
-2.09826e-07
-3.1142e-07
-2.22271e-07
-3.20187e-07
-2.36009e-07
-3.29863e-07
-2.51219e-07
-3.40567e-07
-2.68141e-07
-3.52459e-07
-2.87047e-07
-3.65757e-07
-3.08265e-07
-3.80756e-07
-3.32187e-07
-3.9785e-07
-3.5928e-07
-4.17568e-07
-3.90077e-07
-4.40595e-07
-4.25302e-07
-4.67794e-07
-4.65611e-07
-5.00137e-07
-5.11024e-07
-5.38519e-07
-5.60477e-07
-5.83215e-07
-6.11046e-07
-6.33986e-07
-6.5726e-07
-6.89637e-07
-6.9202e-07
-7.47813e-07
-7.09692e-07
-8.05593e-07
-7.09174e-07
-8.60468e-07
-6.93689e-07
-9.10889e-07
-6.67908e-07
-9.56196e-07
-6.35862e-07
-9.96208e-07
-6.00167e-07
-1.03081e-06
-5.62266e-07
-1.06034e-06
-5.22852e-07
-1.08534e-06
-4.82363e-07
-1.10636e-06
-4.41129e-07
-1.12387e-06
-3.99404e-07
-1.13834e-06
-3.57382e-07
-1.15016e-06
-3.15213e-07
-1.1597e-06
-2.73007e-07
-1.16728e-06
-2.30836e-07
-1.17318e-06
-1.88742e-07
-1.17763e-06
-1.46734e-07
-1.18083e-06
-1.04776e-07
-1.18292e-06
-6.28217e-08
-2.09277e-08
6.57906e-07
-1.71375e-08
6.55764e-07
-5.11682e-08
6.5203e-07
-8.49566e-08
6.467e-07
-1.18465e-07
6.39708e-07
-1.51623e-07
6.30953e-07
-1.84357e-07
6.20321e-07
-2.1657e-07
6.07696e-07
-2.48136e-07
5.92973e-07
-2.78898e-07
5.76072e-07
-3.08658e-07
5.56946e-07
-3.37163e-07
5.35599e-07
-3.64094e-07
5.12099e-07
-3.89057e-07
4.8661e-07
-4.11606e-07
4.59362e-07
-4.31166e-07
4.30653e-07
-4.47138e-07
4.00853e-07
-4.59042e-07
3.70379e-07
-4.66633e-07
3.3966e-07
-4.70007e-07
3.0908e-07
-4.69614e-07
2.78948e-07
-4.66166e-07
2.49486e-07
-4.60481e-07
2.20835e-07
-4.53341e-07
1.93092e-07
-4.45396e-07
1.66309e-07
-4.37082e-07
1.40497e-07
-4.28656e-07
1.15645e-07
-4.20259e-07
9.17341e-08
-4.11948e-07
6.87436e-08
-4.03732e-07
4.6652e-08
-3.95593e-07
2.54393e-08
-3.87502e-07
5.08604e-09
-3.79433e-07
-1.44262e-08
-3.71368e-07
-3.31143e-08
-3.63299e-07
-5.09957e-08
-3.55229e-07
-6.80843e-08
-3.47149e-07
-8.4394e-08
-3.39023e-07
-9.99398e-08
-3.30861e-07
-1.14738e-07
-3.22683e-07
-1.28805e-07
-3.14511e-07
-1.4216e-07
-3.06367e-07
-1.5482e-07
-2.98278e-07
-1.66807e-07
-2.90269e-07
-1.7814e-07
-2.82367e-07
-1.88841e-07
-2.74599e-07
-1.98933e-07
-2.6699e-07
-2.08438e-07
-2.59569e-07
-2.17381e-07
-2.52359e-07
-2.25784e-07
-2.45387e-07
-2.33675e-07
-2.38677e-07
-2.41079e-07
-2.32254e-07
-2.48027e-07
-2.26145e-07
-2.54549e-07
-2.20375e-07
-2.60682e-07
-2.14974e-07
-2.66466e-07
-2.09973e-07
-2.71952e-07
-2.05408e-07
-2.772e-07
-2.0132e-07
-2.82288e-07
-1.97789e-07
-2.87318e-07
-1.94856e-07
-2.92434e-07
-1.92543e-07
-2.97867e-07
-1.91002e-07
-3.03899e-07
-1.90356e-07
-3.09656e-07
-1.92935e-07
-3.16686e-07
-2.02795e-07
-3.24946e-07
-2.14011e-07
-3.34334e-07
-2.26619e-07
-3.44843e-07
-2.40708e-07
-3.56549e-07
-2.56433e-07
-3.69584e-07
-2.7401e-07
-3.8413e-07
-2.93715e-07
-4.00424e-07
-3.15889e-07
-4.18759e-07
-3.40941e-07
-4.39478e-07
-3.69353e-07
-4.62965e-07
-4.01808e-07
-4.89694e-07
-4.38874e-07
-5.20198e-07
-4.80511e-07
-5.54988e-07
-5.25677e-07
-5.9438e-07
-5.71643e-07
-6.38452e-07
-6.13179e-07
-6.8662e-07
-6.43843e-07
-7.37345e-07
-6.58961e-07
-7.88492e-07
-6.58023e-07
-8.38114e-07
-6.44064e-07
-8.84899e-07
-6.21122e-07
-9.28201e-07
-5.92559e-07
-9.67764e-07
-5.60604e-07
-1.00343e-06
-5.266e-07
-1.03519e-06
-4.91091e-07
-1.06315e-06
-4.54403e-07
-1.08748e-06
-4.16798e-07
-1.1084e-06
-3.78481e-07
-1.12617e-06
-3.39616e-07
-1.14105e-06
-3.00337e-07
-1.1533e-06
-2.60753e-07
-1.16319e-06
-2.20949e-07
-1.17094e-06
-1.80991e-07
-1.17675e-06
-1.40923e-07
-1.18077e-06
-1.00753e-07
-1.18309e-06
-6.05028e-08
-2.01983e-08
6.57607e-07
-1.62107e-08
6.54926e-07
-4.84869e-08
6.50501e-07
-8.05318e-08
6.44298e-07
-1.12261e-07
6.36274e-07
-1.43599e-07
6.26382e-07
-1.74465e-07
6.14573e-07
-2.04761e-07
6.00812e-07
-2.34374e-07
5.85079e-07
-2.63165e-07
5.67383e-07
-2.90962e-07
5.47765e-07
-3.17546e-07
5.26306e-07
-3.42634e-07
5.03116e-07
-3.65867e-07
4.78311e-07
-3.86801e-07
4.52073e-07
-4.04928e-07
4.24667e-07
-4.19733e-07
3.96418e-07
-4.30794e-07
3.67683e-07
-4.37898e-07
3.38809e-07
-4.41135e-07
3.10104e-07
-4.40911e-07
2.81811e-07
-4.37873e-07
2.54096e-07
-4.32767e-07
2.27058e-07
-4.26304e-07
2.00725e-07
-4.19064e-07
1.75103e-07
-4.11461e-07
1.50201e-07
-4.03755e-07
1.26028e-07
-3.96086e-07
1.0259e-07
-3.88511e-07
7.98922e-08
-3.81035e-07
5.79377e-08
-3.73638e-07
3.67279e-08
-3.66292e-07
1.62625e-08
-3.58968e-07
-3.46031e-09
-3.51645e-07
-2.24447e-08
-3.44314e-07
-4.06973e-08
-3.36976e-07
-5.82223e-08
-3.29625e-07
-7.5025e-08
-3.2222e-07
-9.11137e-08
-3.14773e-07
-1.06499e-07
-3.07298e-07
-1.21192e-07
-2.99818e-07
-1.35207e-07
-2.92352e-07
-1.48559e-07
-2.84925e-07
-1.61267e-07
-2.77562e-07
-1.73349e-07
-2.70286e-07
-1.84825e-07
-2.63122e-07
-1.95719e-07
-2.56097e-07
-2.06054e-07
-2.49234e-07
-2.15856e-07
-2.42557e-07
-2.25152e-07
-2.36091e-07
-2.33974e-07
-2.29856e-07
-2.42353e-07
-2.23876e-07
-2.50326e-07
-2.18172e-07
-2.57934e-07
-2.12768e-07
-2.65223e-07
-2.07686e-07
-2.72246e-07
-2.02951e-07
-2.79064e-07
-1.98591e-07
-2.85751e-07
-1.94635e-07
-2.92389e-07
-1.91152e-07
-2.99083e-07
-1.88163e-07
-3.05955e-07
-1.85672e-07
-3.13143e-07
-1.83816e-07
-3.20813e-07
-1.82693e-07
-3.27554e-07
-1.86189e-07
-3.35333e-07
-1.95015e-07
-3.44188e-07
-2.05154e-07
-3.54146e-07
-2.1666e-07
-3.65251e-07
-2.29601e-07
-3.77581e-07
-2.44101e-07
-3.91237e-07
-2.6035e-07
-4.06346e-07
-2.78602e-07
-4.23053e-07
-2.99178e-07
-4.41518e-07
-3.22469e-07
-4.61898e-07
-3.48966e-07
-4.84344e-07
-3.79355e-07
-5.09085e-07
-4.14123e-07
-5.36452e-07
-4.53134e-07
-5.66947e-07
-4.9517e-07
-6.01353e-07
-5.37226e-07
-6.40222e-07
-5.74299e-07
-6.83333e-07
-6.00723e-07
-7.29422e-07
-6.12867e-07
-7.76573e-07
-6.10869e-07
-8.22969e-07
-5.97666e-07
-8.67321e-07
-5.76769e-07
-9.08907e-07
-5.50972e-07
-9.47423e-07
-5.22088e-07
-9.82872e-07
-4.91151e-07
-1.01522e-06
-4.58742e-07
-1.04443e-06
-4.25191e-07
-1.07052e-06
-3.90711e-07
-1.09355e-06
-3.55453e-07
-1.11362e-06
-3.19545e-07
-1.13086e-06
-2.83094e-07
-1.14542e-06
-2.46193e-07
-1.15745e-06
-2.08925e-07
-1.16708e-06
-1.71361e-07
-1.17444e-06
-1.33558e-07
-1.17965e-06
-9.55493e-08
-1.18277e-06
-5.73825e-08
-1.91432e-08
6.57627e-07
-1.53036e-08
6.54881e-07
-4.57412e-08
6.50291e-07
-7.59417e-08
6.43853e-07
-1.05824e-07
6.35559e-07
-1.35305e-07
6.25396e-07
-1.64302e-07
6.13357e-07
-1.92721e-07
5.99438e-07
-2.20455e-07
5.83646e-07
-2.47374e-07
5.66005e-07
-2.73321e-07
5.46557e-07
-2.98098e-07
5.25369e-07
-3.21447e-07
5.02546e-07
-3.43044e-07
4.78234e-07
-3.6249e-07
4.52633e-07
-3.79327e-07
4.25993e-07
-3.93094e-07
3.98605e-07
-4.03407e-07
3.70778e-07
-4.10072e-07
3.42811e-07
-4.1317e-07
3.14968e-07
-4.13069e-07
2.87457e-07
-4.10364e-07
2.60427e-07
-4.0574e-07
2.33975e-07
-3.99853e-07
2.08152e-07
-3.93243e-07
1.82984e-07
-3.86295e-07
1.58481e-07
-3.79253e-07
1.34643e-07
-3.7225e-07
1.1147e-07
-3.65339e-07
8.89612e-08
-3.58527e-07
6.71165e-08
-3.51795e-07
4.59365e-08
-3.45113e-07
2.5422e-08
-3.38454e-07
5.57339e-09
-3.31797e-07
-1.36103e-08
-3.25131e-07
-3.21316e-08
-3.18456e-07
-4.99915e-08
-3.11765e-07
-6.71912e-08
-3.05021e-07
-8.37352e-08
-2.98229e-07
-9.96302e-08
-2.91404e-07
-1.14885e-07
-2.84564e-07
-1.2951e-07
-2.77728e-07
-1.43519e-07
-2.70917e-07
-1.56926e-07
-2.64154e-07
-1.69751e-07
-2.57462e-07
-1.82011e-07
-2.50862e-07
-1.9373e-07
-2.44379e-07
-2.0493e-07
-2.38034e-07
-2.15639e-07
-2.31849e-07
-2.25885e-07
-2.25845e-07
-2.357e-07
-2.20041e-07
-2.4512e-07
-2.14457e-07
-2.54181e-07
-2.09112e-07
-2.62927e-07
-2.04023e-07
-2.71405e-07
-1.99209e-07
-2.79669e-07
-1.94688e-07
-2.87778e-07
-1.90483e-07
-2.95798e-07
-1.86616e-07
-3.03801e-07
-1.8315e-07
-3.11877e-07
-1.8009e-07
-3.20113e-07
-1.77437e-07
-3.28608e-07
-1.75324e-07
-3.37458e-07
-1.73855e-07
-3.45192e-07
-1.78448e-07
-3.53794e-07
-1.86411e-07
-3.63315e-07
-1.95631e-07
-3.73818e-07
-2.06155e-07
-3.85372e-07
-2.18043e-07
-3.98057e-07
-2.31412e-07
-4.11961e-07
-2.46442e-07
-4.27183e-07
-2.63375e-07
-4.43834e-07
-2.82521e-07
-4.62038e-07
-3.04258e-07
-4.81913e-07
-3.29083e-07
-5.03615e-07
-3.57644e-07
-5.27415e-07
-3.90312e-07
-5.53711e-07
-4.26827e-07
-5.83038e-07
-4.6583e-07
-6.16001e-07
-5.04251e-07
-6.52971e-07
-5.37319e-07
-6.93655e-07
-5.6003e-07
-7.36922e-07
-5.69594e-07
-7.8117e-07
-5.66616e-07
-8.24908e-07
-5.53926e-07
-8.67053e-07
-5.34624e-07
-9.06941e-07
-5.11084e-07
-9.44215e-07
-4.84813e-07
-9.78712e-07
-4.56654e-07
-1.01038e-06
-4.27076e-07
-1.03921e-06
-3.96356e-07
-1.06524e-06
-3.64679e-07
-1.08851e-06
-3.32184e-07
-1.10907e-06
-2.98984e-07
-1.12699e-06
-2.65179e-07
-1.14233e-06
-2.30855e-07
-1.15516e-06
-1.96093e-07
-1.16556e-06
-1.60965e-07
-1.17358e-06
-1.25536e-07
-1.17928e-06
-8.98505e-08
-1.18269e-06
-5.39732e-08
-1.80078e-08
6.57564e-07
-1.43337e-08
6.5468e-07
-4.28573e-08
6.49894e-07
-7.11562e-08
6.43213e-07
-9.91421e-08
6.34641e-07
-1.26733e-07
6.24187e-07
-1.53848e-07
6.11864e-07
-1.80399e-07
5.97695e-07
-2.06285e-07
5.81709e-07
-2.31388e-07
5.63954e-07
-2.55567e-07
5.44496e-07
-2.7864e-07
5.23425e-07
-3.00376e-07
5.00859e-07
-3.20479e-07
4.76953e-07
-3.38584e-07
4.519e-07
-3.54276e-07
4.25932e-07
-3.67127e-07
3.99309e-07
-3.76786e-07
3.72305e-07
-3.8307e-07
3.45181e-07
-3.86048e-07
3.18166e-07
-3.86056e-07
2.91439e-07
-3.83639e-07
2.65129e-07
-3.79432e-07
2.39318e-07
-3.74045e-07
2.14053e-07
-3.67981e-07
1.8936e-07
-3.61603e-07
1.65249e-07
-3.55143e-07
1.41724e-07
-3.48727e-07
1.18789e-07
-3.42405e-07
9.6444e-08
-3.36184e-07
7.46918e-08
-3.30044e-07
5.35349e-08
-3.23957e-07
3.29759e-08
-3.17896e-07
1.30169e-08
-3.11839e-07
-6.34079e-09
-3.05774e-07
-2.50976e-08
-2.997e-07
-4.32535e-08
-2.9361e-07
-6.0808e-08
-2.87467e-07
-7.77632e-08
-2.81274e-07
-9.41235e-08
-2.75044e-07
-1.09896e-07
-2.68792e-07
-1.25089e-07
-2.62536e-07
-1.39713e-07
-2.56293e-07
-1.53784e-07
-2.50085e-07
-1.67316e-07
-2.4393e-07
-1.80328e-07
-2.37851e-07
-1.9284e-07
-2.31868e-07
-2.04875e-07
-2.26e-07
-2.16458e-07
-2.20267e-07
-2.27618e-07
-2.14686e-07
-2.38385e-07
-2.09276e-07
-2.48792e-07
-2.04052e-07
-2.58874e-07
-1.9903e-07
-2.68672e-07
-1.94226e-07
-2.78227e-07
-1.89655e-07
-2.87586e-07
-1.85331e-07
-2.968e-07
-1.81271e-07
-3.05923e-07
-1.77494e-07
-3.15012e-07
-1.74063e-07
-3.2414e-07
-1.70963e-07
-3.33375e-07
-1.68205e-07
-3.42793e-07
-1.65907e-07
-3.52472e-07
-1.6419e-07
-3.61197e-07
-1.69717e-07
-3.7061e-07
-1.76996e-07
-3.8078e-07
-1.85458e-07
-3.91795e-07
-1.95136e-07
-4.03743e-07
-2.06091e-07
-4.1671e-07
-2.18441e-07
-4.30782e-07
-2.32364e-07
-4.46051e-07
-2.481e-07
-4.62614e-07
-2.65951e-07
-4.8058e-07
-2.86285e-07
-5.00046e-07
-3.09608e-07
-5.21162e-07
-3.36517e-07
-5.44185e-07
-3.67276e-07
-5.69483e-07
-4.01516e-07
-5.9755e-07
-4.37749e-07
-6.2893e-07
-4.72858e-07
-6.6394e-07
-5.02297e-07
-7.02298e-07
-5.21663e-07
-7.42999e-07
-5.28887e-07
-7.84667e-07
-5.24944e-07
-8.26038e-07
-5.12553e-07
-8.6619e-07
-4.94471e-07
-9.04539e-07
-4.72734e-07
-9.4074e-07
-4.48612e-07
-9.74589e-07
-4.22805e-07
-1.00596e-06
-3.95702e-07
-1.03479e-06
-3.6753e-07
-1.06103e-06
-3.38439e-07
-1.08467e-06
-3.08542e-07
-1.10572e-06
-2.77935e-07
-1.1242e-06
-2.46704e-07
-1.14012e-06
-2.14928e-07
-1.15353e-06
-1.82681e-07
-1.16446e-06
-1.50037e-07
-1.17293e-06
-1.17063e-07
-1.17898e-06
-8.38076e-08
-1.18261e-06
-5.03443e-08
-1.67929e-08
6.57561e-07
-1.33615e-08
6.54651e-07
-3.99472e-08
6.49815e-07
-6.63203e-08
6.43069e-07
-9.23959e-08
6.34431e-07
-1.18094e-07
6.2392e-07
-1.43338e-07
6.11565e-07
-1.68044e-07
5.97399e-07
-1.92118e-07
5.81463e-07
-2.15453e-07
5.63813e-07
-2.37917e-07
5.4452e-07
-2.59347e-07
5.23673e-07
-2.7953e-07
5.01392e-07
-2.98198e-07
4.77824e-07
-3.15017e-07
4.53155e-07
-3.29608e-07
4.27606e-07
-3.41579e-07
4.01424e-07
-3.50606e-07
3.74871e-07
-3.56519e-07
3.48194e-07
-3.59374e-07
3.21612e-07
-3.59477e-07
2.95297e-07
-3.57326e-07
2.6937e-07
-3.53508e-07
2.43911e-07
-3.48588e-07
2.18964e-07
-3.43036e-07
1.9455e-07
-3.37192e-07
1.70679e-07
-3.31274e-07
1.4735e-07
-3.254e-07
1.24564e-07
-3.19621e-07
1.0232e-07
-3.13941e-07
8.06171e-08
-3.08343e-07
5.94577e-08
-3.02799e-07
3.88431e-08
-2.97282e-07
1.87754e-08
-2.91772e-07
-7.44097e-10
-2.86256e-07
-1.97158e-08
-2.80729e-07
-3.8139e-08
-2.75188e-07
-5.60122e-08
-2.69595e-07
-7.33364e-08
-2.63951e-07
-9.01149e-08
-2.58267e-07
-1.06353e-07
-2.52556e-07
-1.22057e-07
-2.46832e-07
-1.37237e-07
-2.41114e-07
-1.51906e-07
-2.35417e-07
-1.66076e-07
-2.29761e-07
-1.79765e-07
-2.24164e-07
-1.92991e-07
-2.18644e-07
-2.05774e-07
-2.13218e-07
-2.18139e-07
-2.07904e-07
-2.30109e-07
-2.02717e-07
-2.41713e-07
-1.97673e-07
-2.52979e-07
-1.92787e-07
-2.63938e-07
-1.88072e-07
-2.74624e-07
-1.83541e-07
-2.85072e-07
-1.79208e-07
-2.95317e-07
-1.75087e-07
-3.05397e-07
-1.71192e-07
-3.15354e-07
-1.67539e-07
-3.25225e-07
-1.64193e-07
-3.35079e-07
-1.61111e-07
-3.44943e-07
-1.58341e-07
-3.54898e-07
-1.55954e-07
-3.65034e-07
-1.54064e-07
-3.74776e-07
-1.59975e-07
-3.84926e-07
-1.66844e-07
-3.95661e-07
-1.7472e-07
-4.07117e-07
-1.83677e-07
-4.19398e-07
-1.93806e-07
-4.32594e-07
-2.05238e-07
-4.46798e-07
-2.18155e-07
-4.621e-07
-2.32791e-07
-4.78599e-07
-2.49443e-07
-4.96406e-07
-2.68469e-07
-5.15628e-07
-2.90374e-07
-5.36445e-07
-3.15688e-07
-5.59135e-07
-3.44573e-07
-5.84082e-07
-3.76554e-07
-6.11777e-07
-4.10039e-07
-6.42702e-07
-4.41919e-07
-6.77054e-07
-4.67933e-07
-7.14426e-07
-4.84282e-07
-7.53794e-07
-4.89513e-07
-7.93879e-07
-4.84855e-07
-8.33568e-07
-4.72862e-07
-8.72074e-07
-4.55963e-07
-9.08905e-07
-4.35903e-07
-9.43769e-07
-4.13748e-07
-9.76491e-07
-3.90083e-07
-1.00696e-06
-3.65234e-07
-1.0351e-06
-3.3939e-07
-1.06086e-06
-3.1268e-07
-1.0842e-06
-2.85199e-07
-1.1051e-06
-2.57032e-07
-1.12355e-06
-2.28255e-07
-1.13954e-06
-1.9894e-07
-1.15307e-06
-1.69155e-07
-1.16413e-06
-1.38972e-07
-1.17274e-06
-1.08455e-07
-1.17889e-06
-7.76558e-08
-1.18259e-06
-4.66491e-08
-1.55586e-08
6.57552e-07
-1.23799e-08
6.54621e-07
-3.70164e-08
6.49757e-07
-6.14563e-08
6.42979e-07
-8.56175e-08
6.34309e-07
-1.09425e-07
6.23777e-07
-1.32805e-07
6.11414e-07
-1.55682e-07
5.97264e-07
-1.77968e-07
5.81376e-07
-1.99565e-07
5.63812e-07
-2.20353e-07
5.44648e-07
-2.40183e-07
5.2398e-07
-2.58862e-07
5.01927e-07
-2.76145e-07
4.78638e-07
-2.91728e-07
4.54291e-07
-3.05262e-07
4.29098e-07
-3.16388e-07
4.03294e-07
-3.24805e-07
3.77125e-07
-3.30352e-07
3.50825e-07
-3.33077e-07
3.246e-07
-3.33255e-07
2.98614e-07
-3.31344e-07
2.72985e-07
-3.27883e-07
2.4779e-07
-3.23396e-07
2.23072e-07
-3.18321e-07
1.98852e-07
-3.12975e-07
1.75138e-07
-3.07562e-07
1.5193e-07
-3.02195e-07
1.29227e-07
-2.9692e-07
1.07026e-07
-2.91742e-07
8.53264e-08
-2.86645e-07
6.41281e-08
-2.81602e-07
4.34323e-08
-2.76588e-07
2.32403e-08
-2.71582e-07
3.55318e-09
-2.6657e-07
-1.56287e-08
-2.61548e-07
-3.43053e-08
-2.56512e-07
-5.2475e-08
-2.51427e-07
-7.01379e-08
-2.4629e-07
-8.72959e-08
-2.4111e-07
-1.03953e-07
-2.359e-07
-1.20115e-07
-2.30671e-07
-1.3579e-07
-2.2544e-07
-1.50988e-07
-2.20221e-07
-1.65721e-07
-2.1503e-07
-1.80003e-07
-2.09883e-07
-1.9385e-07
-2.04797e-07
-2.07281e-07
-1.99788e-07
-2.20317e-07
-1.9487e-07
-2.32978e-07
-1.90057e-07
-2.45288e-07
-1.85364e-07
-2.57273e-07
-1.80804e-07
-2.68959e-07
-1.76388e-07
-2.80373e-07
-1.72129e-07
-2.91544e-07
-1.68039e-07
-3.02499e-07
-1.64133e-07
-3.13266e-07
-1.60425e-07
-3.23869e-07
-1.56937e-07
-3.3433e-07
-1.53733e-07
-3.4469e-07
-1.50752e-07
-3.54947e-07
-1.48085e-07
-3.65119e-07
-1.45781e-07
-3.7522e-07
-1.43953e-07
-3.85588e-07
-1.49605e-07
-3.96348e-07
-1.56081e-07
-4.07626e-07
-1.63439e-07
-4.19538e-07
-1.7176e-07
-4.32191e-07
-1.81147e-07
-4.45682e-07
-1.91741e-07
-4.60105e-07
-2.03724e-07
-4.75558e-07
-2.1733e-07
-4.92147e-07
-2.32845e-07
-5.09989e-07
-2.50616e-07
-5.29214e-07
-2.71138e-07
-5.50019e-07
-2.94869e-07
-5.72691e-07
-3.21886e-07
-5.976e-07
-3.51629e-07
-6.25182e-07
-3.82442e-07
-6.55813e-07
-4.11272e-07
-6.89565e-07
-4.34169e-07
-7.2596e-07
-4.47878e-07
-7.64024e-07
-4.51443e-07
-8.02629e-07
-4.46247e-07
-8.40818e-07
-4.34671e-07
-8.77918e-07
-4.18862e-07
-9.13495e-07
-4.00326e-07
-9.47278e-07
-3.79963e-07
-9.79095e-07
-3.58267e-07
-1.00882e-06
-3.35505e-07
-1.03637e-06
-3.11839e-07
-1.06168e-06
-2.87374e-07
-1.08469e-06
-2.62191e-07
-1.10536e-06
-2.36363e-07
-1.12365e-06
-2.09958e-07
-1.13956e-06
-1.83039e-07
-1.15304e-06
-1.5567e-07
-1.1641e-06
-1.27916e-07
-1.17271e-06
-9.98399e-08
-1.17888e-06
-7.1491e-08
-1.18258e-06
-4.29432e-08
-1.43202e-08
6.57555e-07
-1.14015e-08
6.54631e-07
-3.40919e-08
6.49776e-07
-5.66018e-08
6.43013e-07
-7.88544e-08
6.34368e-07
-1.00779e-07
6.23873e-07
-1.2231e-07
6.11565e-07
-1.43375e-07
5.97491e-07
-1.63894e-07
5.81703e-07
-1.83777e-07
5.64265e-07
-2.02916e-07
5.45256e-07
-2.21174e-07
5.24771e-07
-2.38377e-07
5.02926e-07
-2.54301e-07
4.79865e-07
-2.68669e-07
4.55763e-07
-2.81161e-07
4.30824e-07
-2.91451e-07
4.05276e-07
-2.99259e-07
3.79355e-07
-3.04434e-07
3.53292e-07
-3.07016e-07
3.27287e-07
-3.07254e-07
3.01503e-07
-3.05563e-07
2.76055e-07
-3.02439e-07
2.5102e-07
-2.98365e-07
2.26439e-07
-2.93744e-07
2.02333e-07
-2.88872e-07
1.78708e-07
-2.83941e-07
1.55564e-07
-2.79053e-07
1.32895e-07
-2.74254e-07
1.10699e-07
-2.69548e-07
8.89722e-08
-2.6492e-07
6.77141e-08
-2.60346e-07
4.69244e-08
-2.558e-07
2.66038e-08
-2.51263e-07
6.75309e-09
-2.4672e-07
-1.26276e-08
-2.42169e-07
-3.15384e-08
-2.37603e-07
-4.99773e-08
-2.32989e-07
-6.79438e-08
-2.28324e-07
-8.54388e-08
-2.23616e-07
-1.02465e-07
-2.18875e-07
-1.19027e-07
-2.14111e-07
-1.35131e-07
-2.09338e-07
-1.50785e-07
-2.04568e-07
-1.65999e-07
-1.99817e-07
-1.80785e-07
-1.95099e-07
-1.95157e-07
-1.90427e-07
-2.09131e-07
-1.85816e-07
-2.22724e-07
-1.81279e-07
-2.35954e-07
-1.76829e-07
-2.48842e-07
-1.72478e-07
-2.61409e-07
-1.68238e-07
-2.73679e-07
-1.6412e-07
-2.85673e-07
-1.60136e-07
-2.97417e-07
-1.56297e-07
-3.08935e-07
-1.52617e-07
-3.20251e-07
-1.49111e-07
-3.31382e-07
-1.45808e-07
-3.42357e-07
-1.42759e-07
-3.53186e-07
-1.39923e-07
-3.63867e-07
-1.37404e-07
-3.74364e-07
-1.35283e-07
-3.8446e-07
-1.33833e-07
-3.94999e-07
-1.39063e-07
-4.06028e-07
-1.45047e-07
-4.17616e-07
-1.51846e-07
-4.29839e-07
-1.5953e-07
-4.42781e-07
-1.68198e-07
-4.56528e-07
-1.77986e-07
-4.71171e-07
-1.89073e-07
-4.86809e-07
-2.01682e-07
-5.03555e-07
-2.16088e-07
-5.21533e-07
-2.32625e-07
-5.40894e-07
-2.51764e-07
-5.61855e-07
-2.73892e-07
-5.84711e-07
-2.99014e-07
-6.09821e-07
-3.26503e-07
-6.37572e-07
-3.54675e-07
-6.68245e-07
-3.80585e-07
-7.01788e-07
-4.00614e-07
-7.37642e-07
-4.12014e-07
-7.74848e-07
-4.14232e-07
-8.12372e-07
-4.0872e-07
-8.49373e-07
-3.97667e-07
-8.85274e-07
-3.82961e-07
-9.19702e-07
-3.65897e-07
-9.52425e-07
-3.4724e-07
-9.83289e-07
-3.27403e-07
-1.01218e-06
-3.06614e-07
-1.03901e-06
-2.85008e-07
-1.06371e-06
-2.62675e-07
-1.08622e-06
-2.39685e-07
-1.10648e-06
-2.16101e-07
-1.12445e-06
-1.91983e-07
-1.1401e-06
-1.67388e-07
-1.1534e-06
-1.42373e-07
-1.16432e-06
-1.16999e-07
-1.17283e-06
-9.13237e-08
-1.17893e-06
-6.53928e-08
-1.1826e-06
-3.92771e-08
-1.30959e-08
6.57559e-07
-1.04267e-08
6.54646e-07
-3.11788e-08
6.49811e-07
-5.17669e-08
6.43077e-07
-7.21201e-08
6.34471e-07
-9.21737e-08
6.24027e-07
-1.11867e-07
6.11786e-07
-1.31133e-07
5.97793e-07
-1.49901e-07
5.82105e-07
-1.68089e-07
5.64787e-07
-1.85598e-07
5.45916e-07
-2.02304e-07
5.25588e-07
-2.1805e-07
5.03919e-07
-2.32632e-07
4.81048e-07
-2.45799e-07
4.57146e-07
-2.57261e-07
4.32412e-07
-2.66718e-07
4.07065e-07
-2.73914e-07
3.81338e-07
-2.7871e-07
3.55454e-07
-2.81135e-07
3.2961e-07
-2.81415e-07
3.03967e-07
-2.79925e-07
2.78641e-07
-2.77117e-07
2.53708e-07
-2.73435e-07
2.2921e-07
-2.6925e-07
2.05166e-07
-2.64833e-07
1.81584e-07
-2.60362e-07
1.5846e-07
-2.55933e-07
1.3579e-07
-2.51587e-07
1.13569e-07
-2.4733e-07
9.17926e-08
-2.43146e-07
7.04584e-08
-2.39014e-07
4.95657e-08
-2.34909e-07
2.91145e-08
-2.30813e-07
9.10527e-09
-2.26713e-07
-1.0462e-08
-2.22603e-07
-2.95873e-08
-2.18479e-07
-4.82685e-08
-2.14309e-07
-6.65044e-08
-2.1009e-07
-8.42951e-08
-2.05827e-07
-1.01642e-07
-2.0153e-07
-1.18548e-07
-1.97207e-07
-1.35017e-07
-1.9287e-07
-1.51057e-07
-1.8853e-07
-1.66675e-07
-1.84201e-07
-1.81881e-07
-1.79894e-07
-1.96687e-07
-1.75623e-07
-2.11104e-07
-1.714e-07
-2.25148e-07
-1.67236e-07
-2.38835e-07
-1.63144e-07
-2.5218e-07
-1.59135e-07
-2.65202e-07
-1.55218e-07
-2.7792e-07
-1.51404e-07
-2.90354e-07
-1.47703e-07
-3.02524e-07
-1.44128e-07
-3.14452e-07
-1.4069e-07
-3.26159e-07
-1.37405e-07
-3.37664e-07
-1.34304e-07
-3.48995e-07
-1.31429e-07
-3.6017e-07
-1.28749e-07
-3.71198e-07
-1.26377e-07
-3.82075e-07
-1.24408e-07
-3.92273e-07
-1.23593e-07
-4.02982e-07
-1.28349e-07
-4.14216e-07
-1.33807e-07
-4.26029e-07
-1.40028e-07
-4.38483e-07
-1.47069e-07
-4.51654e-07
-1.55021e-07
-4.65621e-07
-1.64012e-07
-4.80474e-07
-1.74211e-07
-4.96315e-07
-1.85831e-07
-5.13263e-07
-1.99129e-07
-5.31452e-07
-2.14423e-07
-5.51048e-07
-2.32154e-07
-5.72284e-07
-2.52642e-07
-5.95451e-07
-2.75831e-07
-6.20884e-07
-3.01053e-07
-6.48908e-07
-3.26634e-07
-6.79703e-07
-3.49775e-07
-7.13103e-07
-3.67203e-07
-7.4849e-07
-3.76619e-07
-7.84942e-07
-3.77775e-07
-8.21528e-07
-3.72131e-07
-8.5751e-07
-3.61683e-07
-8.92387e-07
-3.48084e-07
-9.25835e-07
-3.32449e-07
-9.57645e-07
-3.15429e-07
-9.87674e-07
-2.97374e-07
-1.01581e-06
-2.78475e-07
-1.04198e-06
-2.58845e-07
-1.06609e-06
-2.38563e-07
-1.08809e-06
-2.17687e-07
-1.10791e-06
-1.96273e-07
-1.12552e-06
-1.74373e-07
-1.14087e-06
-1.52039e-07
-1.15392e-06
-1.29321e-07
-1.16465e-06
-1.06275e-07
-1.17302e-06
-8.29533e-08
-1.17901e-06
-5.93971e-08
-1.18262e-06
-3.56724e-08
-1.18923e-08
6.57565e-07
-9.45784e-09
6.54669e-07
-2.82825e-08
6.49861e-07
-4.69594e-08
6.43165e-07
-6.54242e-08
6.34609e-07
-8.36178e-08
6.24228e-07
-1.01485e-07
6.12061e-07
-1.18966e-07
5.98157e-07
-1.35997e-07
5.82571e-07
-1.52503e-07
5.65368e-07
-1.68395e-07
5.46626e-07
-1.83563e-07
5.26439e-07
-1.97863e-07
5.04919e-07
-2.11113e-07
4.82205e-07
-2.23086e-07
4.58461e-07
-2.33519e-07
4.33882e-07
-2.42141e-07
4.08684e-07
-2.48719e-07
3.83093e-07
-2.53122e-07
3.5733e-07
-2.55377e-07
3.31593e-07
-2.55681e-07
3.06039e-07
-2.54375e-07
2.80786e-07
-2.51869e-07
2.5591e-07
-2.48563e-07
2.31454e-07
-2.44798e-07
2.07437e-07
-2.40821e-07
1.83866e-07
-2.36794e-07
1.60736e-07
-2.32807e-07
1.38043e-07
-2.28897e-07
1.1578e-07
-2.25069e-07
9.39415e-08
-2.2131e-07
7.25247e-08
-2.176e-07
5.1528e-08
-2.13915e-07
3.09509e-08
-2.10238e-07
1.07937e-08
-2.06557e-07
-8.94358e-09
-2.02867e-07
-2.8261e-08
-1.99163e-07
-4.7156e-08
-1.95416e-07
-6.56267e-08
-1.91621e-07
-8.36722e-08
-1.87783e-07
-1.01293e-07
-1.83911e-07
-1.1849e-07
-1.80011e-07
-1.35267e-07
-1.76094e-07
-1.51628e-07
-1.7217e-07
-1.67581e-07
-1.6825e-07
-1.83131e-07
-1.64346e-07
-1.98289e-07
-1.60467e-07
-2.13064e-07
-1.56626e-07
-2.27469e-07
-1.52834e-07
-2.41516e-07
-1.49099e-07
-2.55219e-07
-1.45434e-07
-2.68592e-07
-1.41846e-07
-2.81653e-07
-1.38345e-07
-2.94416e-07
-1.34942e-07
-3.06901e-07
-1.31645e-07
-3.19124e-07
-1.28469e-07
-3.31105e-07
-1.25426e-07
-3.42864e-07
-1.22547e-07
-3.54426e-07
-1.19868e-07
-3.65813e-07
-1.17364e-07
-3.77057e-07
-1.15135e-07
-3.88207e-07
-1.13261e-07
-3.98633e-07
-1.13128e-07
-4.09555e-07
-1.17421e-07
-4.20998e-07
-1.22359e-07
-4.33018e-07
-1.28001e-07
-4.45681e-07
-1.34398e-07
-4.59058e-07
-1.41635e-07
-4.7323e-07
-1.49831e-07
-4.88287e-07
-1.59143e-07
-5.04339e-07
-1.69769e-07
-5.21509e-07
-1.81946e-07
-5.39941e-07
-1.95977e-07
-5.59819e-07
-2.12262e-07
-5.81383e-07
-2.31063e-07
-6.0492e-07
-2.52278e-07
-6.30739e-07
-2.75218e-07
-6.59104e-07
-2.98253e-07
-6.90099e-07
-3.18766e-07
-7.23457e-07
-3.33833e-07
-7.58516e-07
-3.41553e-07
-7.94384e-07
-3.41902e-07
-8.3021e-07
-3.36302e-07
-8.65344e-07
-3.26547e-07
-8.99347e-07
-3.1408e-07
-9.31935e-07
-2.99861e-07
-9.62924e-07
-2.8444e-07
-9.92185e-07
-2.68113e-07
-1.01962e-06
-2.51044e-07
-1.04513e-06
-2.33327e-07
-1.06867e-06
-2.1503e-07
-1.09015e-06
-1.96204e-07
-1.10953e-06
-1.76897e-07
-1.12674e-06
-1.57155e-07
-1.14176e-06
-1.37022e-07
-1.15454e-06
-1.16546e-07
-1.16504e-06
-9.57737e-08
-1.17324e-06
-7.4754e-08
-1.17911e-06
-5.3523e-08
-1.18264e-06
-3.21413e-08
-1.07137e-08
6.57571e-07
-8.49473e-09
6.54691e-07
-2.54033e-08
6.49912e-07
-4.21801e-08
6.43255e-07
-5.87673e-08
6.34749e-07
-7.51119e-08
6.24429e-07
-9.11643e-08
6.12334e-07
-1.06872e-07
5.98512e-07
-1.22176e-07
5.83019e-07
-1.3701e-07
5.6592e-07
-1.51296e-07
5.4729e-07
-1.64933e-07
5.27223e-07
-1.77796e-07
5.05828e-07
-1.89719e-07
4.83241e-07
-2.005e-07
4.59624e-07
-2.09904e-07
4.35167e-07
-2.17686e-07
4.10083e-07
-2.23637e-07
3.84594e-07
-2.27636e-07
3.58919e-07
-2.29706e-07
3.33254e-07
-2.3002e-07
3.07757e-07
-2.28884e-07
2.82547e-07
-2.26663e-07
2.577e-07
-2.23721e-07
2.33261e-07
-2.20362e-07
2.09248e-07
-2.16812e-07
1.85667e-07
-2.13217e-07
1.62516e-07
-2.09658e-07
1.39786e-07
-2.0617e-07
1.17471e-07
-2.02757e-07
9.55649e-08
-1.99407e-07
7.40644e-08
-1.96101e-07
5.29671e-08
-1.92819e-07
3.22723e-08
-1.89545e-07
1.198e-08
-1.86266e-07
-7.90951e-09
-1.82979e-07
-2.73962e-08
-1.79678e-07
-4.64772e-08
-1.76336e-07
-6.51498e-08
-1.7295e-07
-8.34122e-08
-1.69523e-07
-1.01264e-07
-1.66061e-07
-1.18705e-07
-1.62572e-07
-1.35737e-07
-1.59064e-07
-1.52364e-07
-1.55545e-07
-1.6859e-07
-1.52027e-07
-1.84421e-07
-1.48517e-07
-1.99863e-07
-1.45027e-07
-2.14925e-07
-1.41566e-07
-2.29616e-07
-1.38144e-07
-2.43947e-07
-1.3477e-07
-2.5793e-07
-1.31453e-07
-2.71577e-07
-1.28201e-07
-2.84901e-07
-1.25023e-07
-2.97917e-07
-1.21928e-07
-3.10639e-07
-1.18925e-07
-3.23085e-07
-1.16025e-07
-3.3527e-07
-1.13242e-07
-3.47217e-07
-1.10603e-07
-3.58948e-07
-1.08138e-07
-3.70487e-07
-1.05826e-07
-3.8187e-07
-1.03754e-07
-3.93131e-07
-1.02005e-07
-4.03797e-07
-1.02421e-07
-4.14942e-07
-1.0627e-07
-4.26592e-07
-1.10702e-07
-4.38812e-07
-1.15774e-07
-4.5167e-07
-1.21533e-07
-4.6524e-07
-1.28057e-07
-4.79606e-07
-1.35456e-07
-4.94865e-07
-1.43875e-07
-5.11128e-07
-1.53495e-07
-5.2853e-07
-1.64534e-07
-5.47223e-07
-1.77273e-07
-5.674e-07
-1.92071e-07
-5.89312e-07
-2.09136e-07
-6.13239e-07
-2.28337e-07
-6.39458e-07
-2.48983e-07
-6.68173e-07
-2.69524e-07
-6.99376e-07
-2.8755e-07
-7.32718e-07
-3.00481e-07
-7.67503e-07
-3.06761e-07
-8.02876e-07
-3.06524e-07
-8.3806e-07
-3.01115e-07
-8.72475e-07
-2.92131e-07
-9.05733e-07
-2.80822e-07
-9.37584e-07
-2.68009e-07
-9.67863e-07
-2.54161e-07
-9.9645e-07
-2.39526e-07
-1.02325e-06
-2.24243e-07
-1.04819e-06
-2.08392e-07
-1.07119e-06
-1.92031e-07
-1.09219e-06
-1.75203e-07
-1.11113e-06
-1.57951e-07
-1.12797e-06
-1.40314e-07
-1.14266e-06
-1.22332e-07
-1.15516e-06
-1.04045e-07
-1.16544e-06
-8.5497e-08
-1.17346e-06
-6.67295e-08
-1.17921e-06
-4.77743e-08
-1.18267e-06
-2.86861e-08
-9.56079e-09
6.57576e-07
-7.53727e-09
6.54714e-07
-2.25406e-08
6.49961e-07
-3.74278e-08
6.43342e-07
-5.21476e-08
6.34883e-07
-6.66531e-08
6.24619e-07
-8.09006e-08
6.1259e-07
-9.48431e-08
5.98844e-07
-1.08429e-07
5.83434e-07
-1.216e-07
5.66425e-07
-1.34287e-07
5.47892e-07
-1.46401e-07
5.27925e-07
-1.57829e-07
5.06633e-07
-1.68428e-07
4.8415e-07
-1.78018e-07
4.60634e-07
-1.86389e-07
4.36271e-07
-1.93326e-07
4.11272e-07
-1.9864e-07
3.85856e-07
-2.02225e-07
3.60242e-07
-2.04095e-07
3.34624e-07
-2.04407e-07
3.09162e-07
-2.03426e-07
2.83974e-07
-2.0148e-07
2.59138e-07
-1.9889e-07
2.34699e-07
-1.95927e-07
2.10676e-07
-1.92794e-07
1.87074e-07
-1.8962e-07
1.63891e-07
-1.86478e-07
1.41118e-07
-1.83401e-07
1.18748e-07
-1.8039e-07
9.67752e-08
-1.77437e-07
7.51946e-08
-1.74523e-07
5.4004e-08
-1.71631e-07
3.32024e-08
-1.68745e-07
1.27899e-08
-1.65856e-07
-7.23309e-09
-1.62957e-07
-2.68663e-08
-1.60046e-07
-4.61065e-08
-1.57098e-07
-6.49504e-08
-1.54108e-07
-8.33953e-08
-1.5108e-07
-1.0144e-07
-1.48019e-07
-1.19083e-07
-1.44931e-07
-1.36325e-07
-1.41823e-07
-1.53169e-07
-1.38704e-07
-1.69617e-07
-1.35581e-07
-1.85673e-07
-1.32463e-07
-2.01343e-07
-1.2936e-07
-2.16632e-07
-1.26279e-07
-2.3155e-07
-1.23229e-07
-2.46105e-07
-1.20218e-07
-2.60306e-07
-1.17254e-07
-2.74164e-07
-1.14345e-07
-2.87691e-07
-1.11499e-07
-3.00898e-07
-1.08722e-07
-3.13801e-07
-1.06025e-07
-3.26413e-07
-1.03416e-07
-3.3875e-07
-1.00907e-07
-3.50832e-07
-9.85232e-08