/*--------------------------------*- C++ -*----------------------------------*\
  =========                 |
  \\      /  F ield         | OpenFOAM: The Open Source CFD Toolbox
   \\    /   O peration     | Website:  https://openfoam.org
    \\  /    A nd           | Version:  8
     \\/     M anipulation  |
\*---------------------------------------------------------------------------*/
FoamFile
{
    version     2.0;
    format      ascii;
    class       volScalarField;
    location    "840/fluid";
    object      Qdot;
}
// * * * * * * * * * * * * * * * * * * * * * * * * * * * * * * * * * * * * * //

dimensions      [1 -1 -3 0 0 0 0];

internalField   nonuniform List<scalar> 
4000
(
0
-2.05164e-17
0
-1.36587e-11
-2.66781e-20
3.27389e-07
3.37819e-07
1.17248e-19
-2.40456e-19
0
5.01128e-19
0
6.05948e-10
0
-8.4646e-18
-5.96469e-14
-2.94183e-16
-9.30722e-09
3.24723e-08
3.04751e-07
4.14205e-06
5.70816e-05
0.00067785
0.00667089
0.0535504
0.350236
1.88331
8.44759
32.1302
105.315
301.884
766.406
1742.45
3583.6
6727.63
11656.1
18886.7
29009.4
42827.7
61524
86788.3
120869
166688
228108
310260
420052
566665
761778
1.02183e+06
1.36771e+06
1.82681e+06
2.43508e+06
3.2397e+06
4.30268e+06
5.7057e+06
7.55667e+06
9.99886e+06
1.31806e+07
1.73356e+07
2.29838e+07
3.04928e+07
7.28668e+07
3.75497e+08
2.94969e+07
2.12356e+07
1.5102e+07
1.05892e+07
7.30675e+06
4.9516e+06
3.28969e+06
2.14134e+06
1.37038e+06
876340
562202
148991
11124.7
305.912
4.32193
0.0410411
0.000420422
7.94046e-06
3.74875e-07
4.29074e-08
8.99836e-09
2.86963e-09
1.03197e-09
4.32079e-10
1.69285e-10
6.95733e-11
3.31228e-11
1.36173e-11
5.86085e-12
2.46172e-12
1.06146e-12
4.42111e-13
1.66293e-13
7.24133e-14
2.82825e-14
8.85812e-15
7.47421e-13
-4.87694e-18
0
0
0
0
0
0
0
0
1.14753e-10
-3.62216e-07
9.91413e-19
0
-1.18907e-09
-8.19278e-18
-3.31029e-17
-4.57037e-10
4.96126e-09
2.73231e-08
4.8749e-07
3.93842e-06
5.18184e-05
0.000611818
0.00606978
0.0493124
0.327027
1.78416
8.11749
31.293
103.854
301.086
772.085
1769.94
3664.31
6914.72
12019.3
19503.5
29951
44146.7
63245.7
88908
123348
169482
231184
313623
423746
570500
766183
1.02702e+06
1.374e+06
1.83474e+06
2.44557e+06
3.25427e+06
4.32382e+06
5.73744e+06
7.60549e+06
1.0075e+07
1.32983e+07
1.75188e+07
2.32758e+07
3.09551e+07
1.13682e+08
3.3943e+08
2.93619e+07
2.10609e+07
1.49268e+07
1.04305e+07
7.17055e+06
4.83944e+06
3.20074e+06
2.07372e+06
1.32197e+06
845391
517037
111725
6687.59
159.216
2.03077
0.0189157
0.000212849
4.79449e-06
2.72842e-07
3.41414e-08
8.61392e-09
2.87831e-09
9.94172e-10
4.41457e-10
1.7942e-10
8.20888e-11
3.47202e-11
1.42711e-11
6.63237e-12
2.41797e-12
9.86779e-13
-4.43046e-13
1.90909e-13
6.92122e-14
2.65074e-14
8.84752e-15
1.47587e-15
-2.65192e-07
-2.03872e-17
3.5751e-12
0
-3.09796e-07
-1.57744e-11
0
0
0
-2.48535e-10
0
-1.33532e-14
1.34859e-14
-2.07736e-09
-3.65915e-07
-3.1819e-17
4.39006e-10
-2.96614e-15
3.10716e-08
2.65857e-07
3.68109e-06
4.77067e-05
0.00056709
0.00564883
0.0462647
0.310132
1.71293
7.89538
30.8381
103.664
304.249
789.272
1827.68
3813.62
7244.73
12649.3
20571.5
31594.2
46484.5
66369.7
92883.1
128212
175290
238031
321686
432994
581183
779607
1.04376e+06
1.39504e+06
1.86159e+06
2.4805e+06
3.30074e+06
4.38711e+06
5.82559e+06
7.73071e+06
1.02558e+07
1.35581e+07
1.78973e+07
2.38336e+07
3.17654e+07
1.8394e+08
2.73002e+08
2.94443e+07
2.09751e+07
1.47633e+07
1.0244e+07
6.99191e+06
4.68402e+06
3.07464e+06
1.97779e+06
1.25452e+06
804126
441099
74187.7
3579.4
75.6777
0.913052
0.00884097
0.00011386
3.06882e-06
2.04736e-07
2.93624e-08
7.1325e-09
2.53875e-09
1.01511e-09
3.93755e-10
1.57418e-10
7.33321e-11
3.28279e-11
1.293e-11
6.48578e-12
2.49222e-12
9.71616e-13
1.27772e-12
1.63532e-13
6.87915e-14
2.50467e-14
8.83854e-15
1.4776e-15
0
-2.03085e-17
-6.05862e-21
2.97243e-07
-1.23307e-11
1.26623e-11
0
5.28702e-11
3.14041e-15
-3.3897e-07
0
-3.46061e-07
-4.49423e-10
1.89815e-18
2.66348e-14
-3.46977e-17
-2.28149e-09
-1.12438e-13
3.00551e-08
2.57092e-07
3.45531e-06
4.45883e-05
0.000533003
0.00534631
0.0442057
0.299658
1.6752
7.8181
30.9183
105.208
312.434
819.621
1917.36
4032.73
7704.85
13509.6
22012.4
33797.3
49614.6
70571.5
98281
134936
183522
248045
333566
447237
599617
802561
1.07266e+06
1.43179e+06
1.90882e+06
2.54187e+06
3.38142e+06
4.49443e+06
5.96997e+06
7.92696e+06
1.05248e+07
1.39204e+07
1.83894e+07
2.45189e+07
3.27254e+07
2.68103e+08
1.91306e+08
2.94323e+07
2.08039e+07
1.45232e+07
9.99236e+06
6.76131e+06
4.49001e+06
2.92203e+06
1.86527e+06
1.178e+06
758649
352546
45783.4
1827.52
34.5824
0.397052
0.00401248
5.91148e-05
1.90353e-06
1.49949e-07
2.44001e-08
6.09093e-09
2.25655e-09
8.79209e-10
4.16156e-10
1.55866e-10
6.18486e-11
2.87192e-11
8.4787e-12
5.13858e-12
3.41816e-12
9.61647e-13
3.76736e-13
-6.58396e-13
6.23115e-14
2.19723e-14
-7.57262e-13
1.48152e-15
0
0
0
0
0
-2.7824e-11
-2.54874e-11
6.37609e-11
3.0746e-15
-1.30964e-10
-4.51046e-19
0
-3.39565e-07
0
1.97024e-09
-1.77996e-09
-2.78373e-16
-2.81889e-15
4.50612e-09
2.48182e-07
3.30153e-06
4.29973e-05
0.00051161
0.00516887
0.0431227
0.29538
1.66989
7.88352
31.5376
108.534
325.853
863.759
2040.06
4322.4
8293.68
14589.9
23795.7
36492.8
53413.2
75651.7
104813
143134
193662
260224
348476
466734
624151
833698
1.11249e+06
1.48309e+06
1.97535e+06
2.6287e+06
3.49546e+06
4.64505e+06
6.16995e+06
8.19367e+06
1.0876e+07
1.43714e+07
1.89936e+07
2.53443e+07
3.38341e+07
3.5027e+08
1.0787e+08
2.91698e+07
2.04215e+07
1.4124e+07
9.62993e+06
6.45862e+06
4.25226e+06
2.74497e+06
1.74047e+06
1.09614e+06
708961
253157
27284
930.944
16.0505
0.178964
0.00192142
3.25725e-05
1.2423e-06
1.13546e-07
2.00237e-08
5.52642e-09
2.10577e-09
7.55116e-10
3.51635e-10
1.44961e-10
6.94733e-11
3.00975e-11
1.15725e-11
5.44791e-12
1.2564e-12
9.05646e-13
3.73929e-13
1.61698e-13
6.21184e-14
2.36272e-14
4.43615e-12
1.30662e-15
-3.70183e-13
-2.74153e-07
0
0
0
1.51331e-11
0
-3.16592e-07
-3.0141e-15
-3.2397e-07
0
3.28456e-07
4.25164e-10
-3.32443e-07
-3.34005e-07
-3.61764e-17
-2.13638e-09
-2.77876e-15
3.56207e-07
4.13681e-07
3.20319e-06
4.16664e-05
0.000500446
0.00508905
0.0428465
0.29648
1.69404
8.08431
32.6887
113.678
344.758
922.631
2198.02
4686.26
9018.26
15897.1
25920.3
39660.2
57825.8
81506
112315
152511
205024
274337
367011
490176
654066
872173
1.16231e+06
1.54798e+06
2.06028e+06
2.74036e+06
3.64273e+06
4.83972e+06
6.42748e+06
8.53197e+06
1.1324e+07
1.49546e+07
1.97571e+07
2.63163e+07
3.50341e+07
4.21312e+08
3.98804e+07
2.79577e+07
1.94285e+07
1.33494e+07
9.04653e+06
6.03202e+06
3.9491e+06
2.53614e+06
1.60198e+06
1.00909e+06
648169
190772
16048
482.28
7.69586
0.0844254
0.000968847
1.88055e-05
8.37551e-07
8.74166e-08
1.68625e-08
5.01445e-09
1.95071e-09
7.83939e-10
2.91738e-10
1.40894e-10
6.16181e-11
2.77949e-11
1.23475e-11
4.54844e-12
1.99106e-12
1.32183e-14
3.94244e-13
9.61812e-13
4.65711e-12
5.31246e-12
7.38855e-15
1.31168e-15
-4.8419e-18
2.00544e-17
-5.93636e-21
-1.2194e-20
1.73858e-16
-2.70687e-11
-3.06728e-07
-3.10892e-07
-1.01184e-10
1.02023e-10
0
0
0
0
8.32794e-10
-3.24666e-07
-1.68239e-09
3.29096e-07
1.52604e-08
2.31345e-07
3.15126e-06
4.12546e-05
0.00049675
0.00509325
0.0432698
0.302352
1.74517
8.41341
34.3622
120.669
369.407
997.302
2394.36
5134.33
9900.69
17437.6
28382.2
43269.3
62777.4
87994.8
120497
162462
217460
290618
387540
516328
687688
915755
1.21922e+06
1.62279e+06
2.15924e+06
2.87196e+06
3.81847e+06
5.07505e+06
6.74273e+06
8.95749e+06
1.19027e+07
1.56977e+07
2.08752e+07
2.77421e+07
3.68119e+07
4.51485e+08
3.52296e+07
2.50447e+07
1.75604e+07
1.21313e+07
8.24529e+06
5.50445e+06
3.60413e+06
2.31408e+06
1.46296e+06
926324
579071
140513
9623.45
260.33
3.8989
0.0425972
0.000525346
1.16152e-05
5.9428e-07
6.6923e-08
1.45328e-08
4.51625e-09
1.7074e-09
7.46171e-10
2.86731e-10
1.32631e-10
6.06609e-11
2.40873e-11
1.21861e-11
4.90938e-12
2.06368e-12
-3.95166e-14
3.18991e-13
1.35391e-13
5.90484e-14
7.95647e-13
7.39988e-15
1.22676e-15
0
0
-3.45741e-12
0
2.92451e-07
1.19784e-11
2.987e-11
1.03057e-19
0
0
0
-1.1744e-14
0
0
3.13723e-07
-3.39708e-17
-2.00088e-09
-2.77486e-15
2.2095e-08
2.29735e-07
2.9921e-06
4.14589e-05
0.000500675
0.00517202
0.044328
0.312681
1.82229
8.87016
36.5717
129.612
400.271
1089.4
2633.54
5673.43
10945.2
19221.2
31178.3
47288
68193.3
94903
128924
172998
231094
307599
408903
543476
722501
960784
1.27795e+06
1.70008e+06
2.26186e+06
3.00956e+06
4.00501e+06
5.33103e+06
7.09896e+06
9.45914e+06
1.25964e+07
1.66851e+07
2.23285e+07
2.99045e+07
4.00824e+07
4.39609e+08
3.23788e+07
2.30142e+07
1.61454e+07
1.11608e+07
7.58899e+06
5.0673e+06
3.31825e+06
2.13169e+06
1.3509e+06
862080
512262
103828
6011.6
148.724
2.11245
0.0231559
0.000306833
7.64603e-06
4.45472e-07
5.78977e-08
1.23658e-08
4.44039e-09
1.47507e-09
7.05002e-10
2.82042e-10
1.3055e-10
5.8846e-11
2.93509e-11
1.04076e-11
4.44986e-12
1.84227e-12
-8.10643e-14
3.1709e-13
1.34804e-13
5.55399e-14
2.04356e-14
5.1504e-12
1.23104e-15
4.8285e-18
0
0
-1.1971e-20
0
0
0
-5.93565e-11
-9.72489e-11
0
-1.95849e-10
0
0
3.05022e-07
-6.57062e-18
3.08102e-07
-2.90305e-16
-2.81153e-15
2.13029e-08
6.6088e-08
3.19405e-06
4.17522e-05
0.000510761
0.0053178
0.0459741
0.327257
1.92496
9.45644
39.3417
140.65
437.978
1201.06
2921.24
6314.43
12164
21256.1
34302.2
51680.5
73937.2
101983
137736
184232
244832
324535
429963
569868
755805
1.00307e+06
1.33197e+06
1.76948e+06
2.35155e+06
3.12616e+06
4.15748e+06
5.53152e+06
7.36392e+06
9.81064e+06
1.30666e+07
1.73321e+07
2.32374e+07
3.11988e+07
6.64328e+07
4.13315e+08
3.05704e+07
2.17071e+07
1.52142e+07
1.05079e+07
7.13905e+06
4.7632e+06
3.11748e+06
2.0032e+06
1.27259e+06
818962
455710
77941.2
3934.25
90.1753
1.22706
0.01357
0.00019276
5.35891e-06
3.48252e-07
4.81586e-08
1.13833e-08
3.96711e-09
1.45329e-09
5.92358e-10
2.76488e-10
1.11113e-10
5.2489e-11
2.50435e-11
1.02794e-11
4.40111e-12
1.82481e-12
7.22498e-13
3.26113e-13
1.2199e-13
4.93553e-14
1.89311e-14
6.68333e-15
1.23455e-15
0
0
6.18577e-12
2.81194e-07
-1.67936e-16
0
0
0
0
-1.17436e-10
0
0
4.68598e-10
-9.35096e-10
2.94838e-07
-4.13666e-17
-2.93129e-16
-2.84548e-15
1.74448e-08
9.10841e-08
3.11022e-06
4.28804e-05
0.000526677
0.00552607
0.0481799
0.345995
2.05341
10.1772
42.7099
153.983
483.336
1334.94
3264.55
7070.91
13571.6
23546.5
37738.9
56361.3
79843.7
109350
147049
195453
258401
341037
450149
594671
786380
1.04084e+06
1.37867e+06
1.82724e+06
2.42294e+06
3.21424e+06
4.26574e+06
5.66377e+06
7.52385e+06
1.00009e+07
1.32772e+07
1.75553e+07
2.34469e+07
3.1326e+07
1.27957e+08
3.59775e+08
2.9547e+07
2.09458e+07
1.46591e+07
1.01115e+07
6.86213e+06
4.57453e+06
2.99275e+06
1.9241e+06
1.22586e+06
795255
404501
60220.2
2714.56
58.1345
0.762297
0.00853792
0.000129487
3.96398e-06
2.83633e-07
4.2123e-08
1.00403e-08
3.50839e-09
1.32481e-09
6.26214e-10
2.72494e-10
1.26361e-10
5.16995e-11
2.15462e-11
9.36152e-12
3.95735e-12
8.15607e-13
7.16636e-13
5.64023e-12
1.33473e-13
8.21573e-13
1.89065e-14
5.95925e-15
1.05862e-15
3.67502e-13
-1.97195e-17
-8.04888e-17
0
0
-4.81713e-20
-6.76457e-16
2.89308e-07
1.36359e-15
-1.14826e-10
-2.29309e-10
0
-1.5534e-18
0
-9.24731e-18
-1.80311e-09
-3.01206e-16
-2.92487e-15
1.97204e-08
2.47476e-07
3.22015e-06
4.43371e-05
0.000547934
0.00579239
0.0509204
0.368826
2.20798
11.0383
46.7192
169.836
537.284
1494.19
3671.65
7957.48
15178.8
26082.6
41431.9
61211.6
86000.1
117139
156380
206593
271739
357065
469462
617965
814455
1.0746e+06
1.4191e+06
1.8754e+06
2.47985e+06
3.28075e+06
4.34231e+06
5.75003e+06
7.61798e+06
1.00981e+07
1.3365e+07
1.76179e+07
2.34609e+07
3.12464e+07
1.83095e+08
3.07497e+08
2.89017e+07
2.04654e+07
1.4309e+07
9.8618e+06
6.68834e+06
4.4568e+06
2.91569e+06
1.87607e+06
1.19838e+06
782486
367076
47839.9
1964.65
39.6913
0.504961
0.00573319
9.2411e-05
3.08337e-06
2.39656e-07
3.7686e-08
9.84582e-09
3.25046e-09
1.39366e-09
5.70684e-10
2.43332e-10
1.10494e-10
4.91937e-11
2.35699e-11
1.00179e-11
4.08637e-12
1.59423e-12
6.62021e-13
2.97445e-13
1.08767e-13
4.90192e-14
1.88721e-14
-5.09418e-12
1.06092e-15
-3.66974e-13
8.26475e-13
0
1.16423e-20
2.79158e-07
-1.39262e-11
-2.83133e-07
-2.83946e-07
0
3.82789e-19
0
-2.81112e-07
0
0
2.07586e-14
-4.15527e-17
3.14872e-09
-3.00762e-15
-2.55759e-07
2.50408e-07
3.3467e-06
4.61845e-05
0.0005739
0.00611217
0.0541669
0.395648
2.3888
12.0445
51.41
188.438
600.813
1682.18
4151.17
8987.09
16983
28817.6
45259.7
66262.5
92486.3
124938
165658
217614
284859
372708
488117
640168
840779
1.10563e+06
1.45539e+06
1.91738e+06
2.52775e+06
3.33438e+06
4.40076e+06
5.81112e+06
7.67673e+06
1.01468e+07
1.33954e+07
1.76173e+07
2.34005e+07
3.10884e+07
2.31093e+08
2.61977e+08
2.83366e+07
2.0073e+07
1.40392e+07
9.67878e+06
6.56616e+06
4.37707e+06
2.86539e+06
1.84626e+06
1.18324e+06
777621
330437
39180
1488.64
28.5952
0.354915
0.00408953
6.95995e-05
2.50448e-06
2.08147e-07
3.47688e-08
8.91036e-09
3.36404e-09
1.3645e-09
5.5931e-10
2.34424e-10
1.10026e-10
5.00679e-11
2.09251e-11
8.35105e-12
3.86512e-12
1.72647e-12
6.56123e-13
1.05661e-12
-5.11787e-12
4.29157e-14
-5.12534e-12
5.5974e-15
5.02063e-12
0
-2.662e-07
-2.70215e-07
0
1.23755e-11
0
0
0
-1.30751e-15
0
0
2.73381e-07
0
-2.90283e-18
-2.00701e-14
2.64938e-07
-2.63724e-07
-3.09711e-15
1.813e-08
1.28502e-07
3.50873e-06
4.81403e-05
0.000603864
0.00647862
0.0578731
0.426216
2.59509
13.196
56.8054
209.964
674.787
1902.04
4710.78
10167.2
18961.7
31663.8
49269.7
71519.2
98874.5
132571
174724
228391
297679
387958
506212
661544
865868
1.13483e+06
1.48901e+06
1.95555e+06
2.5703e+06
3.38058e+06
4.4487e+06
5.85714e+06
7.7168e+06
1.01768e+07
1.34005e+07
1.75799e+07
2.32934e+07
3.08708e+07
2.71677e+08
2.24035e+08
2.77767e+07
1.97025e+07
1.37967e+07
9.52238e+06
6.46752e+06
4.31676e+06
2.83029e+06
1.82774e+06
1.17591e+06
777193
293734
33026.9
1175.94
21.6338
0.263204
0.00307814
5.49957e-05
2.1096e-06
1.85692e-07
3.18833e-08
8.70392e-09
3.10769e-09
1.335e-09
5.68245e-10
2.34081e-10
1.08011e-10
4.62436e-11
2.06004e-11
8.23453e-12
3.81662e-12
1.65503e-12
6.49929e-13
2.82256e-13
1.19292e-13
8.03836e-13
1.73197e-14
7.51535e-13
5.01589e-12
0
1.4864e-12
0
-1.14256e-20
0
4.61604e-20
9.24009e-20
-9.80958e-11
1.83717e-19
-2.70487e-07
3.85074e-10
7.17138e-19
0
-1.4927e-09
-8.33489e-18
3.83185e-14
-3.28138e-16
7.26506e-14
2.05158e-08
2.71345e-07
3.68575e-06
5.05167e-05
0.000636923
0.00688287
0.0619609
0.460026
2.82436
14.4843
62.8887
234.445
759.61
2155.38
5352.32
11479.6
20998.4
34376.4
52971.8
76301
104758
139679
183254
238620
309923
402564
523541
681960
889704
1.16235e+06
1.52036e+06
1.9906e+06
2.60828e+06
3.41964e+06
4.48658e+06
5.89247e+06
7.74572e+06
1.01888e+07
1.33813e+07
1.75123e+07
2.3147e+07
3.06016e+07
3.05433e+08
1.9289e+08
2.72146e+07
1.93402e+07
1.35676e+07
9.38106e+06
6.38313e+06
4.26861e+06
2.80476e+06
1.81612e+06
1.17286e+06
777970
275446
28535.6
963.756
17.1062
0.204906
0.00243122
4.53293e-05
1.83937e-06
1.69696e-07
3.07089e-08
8.48458e-09
3.03135e-09
1.21436e-09
5.35469e-10
2.52076e-10
1.05941e-10
4.46875e-11
2.02673e-11
8.85718e-12
3.76661e-12
1.5422e-12
-4.51403e-12
-4.78108e-13
1.06793e-13
4.54405e-14
1.72667e-14
5.58721e-15
9.75341e-16
0
1.93917e-17
0
1.13178e-20
1.20825e-11
0
-6.328e-16
0
0
0
0
-2.57908e-07
0
-2.51097e-07
-5.35311e-18
1.55146e-09
-3.40715e-16
5.53546e-09
1.65284e-08
2.77097e-07
3.632e-06
5.28187e-05
0.000671714
0.00731033
0.0663026
0.496151
3.07123
15.8845
69.5727
261.661
854.978
2442.33
6074.88
12898.7
22975.1
36881.3
56346.9
80466.4
109836
145856
190787
247794
321046
415951
539507
700808
911674
1.18753e+06
1.54849e+06
2.02096e+06
2.63993e+06
3.45264e+06
4.51991e+06
5.92099e+06
7.76208e+06
1.01837e+07
1.334e+07
1.74163e+07
2.29636e+07
3.0285e+07
3.32898e+08
1.68048e+08
2.66514e+07
1.89831e+07
1.33471e+07
9.24947e+06
6.30813e+06
4.22867e+06
2.78587e+06
1.80944e+06
1.17307e+06
779803
262958
25320.5
819.055
14.1122
0.166986
0.00200752
3.88174e-05
1.64911e-06
1.57999e-07
2.92739e-08
8.2545e-09
2.87575e-09
1.18417e-09
5.2299e-10
2.46612e-10
1.04528e-10
4.12381e-11
2.06575e-11
1.37478e-11
3.71512e-12
1.61626e-12
6.83244e-13
2.77474e-13
1.11857e-13
-4.30457e-12
1.72069e-14
5.57846e-15
-7.34864e-13
3.64884e-13
-2.6287e-07
-7.77775e-17
2.65763e-07
-1.19363e-11
-2.38359e-11
0
-1.77347e-19
2.6036e-07
1.84733e-10
-3.64527e-10
-2.50158e-07
-7.06777e-10
0
7.54843e-10
-4.56819e-17
-3.50975e-16
-2.91144e-09
2.09646e-08
1.78373e-07
3.82557e-06
5.53042e-05
0.00070672
0.0077407
0.0707025
0.533055
3.32586
17.345
76.6327
290.798
958.403
2755.79
6854.86
14330.2
24628.8
38518.6
58512.1
83205.5
113326
150328
196518
255059
330122
427098
552949
716668
929894
1.20798e+06
1.57102e+06
2.04595e+06
2.66737e+06
3.47998e+06
4.54349e+06
5.93642e+06
7.76242e+06
1.01586e+07
1.32733e+07
1.72878e+07
2.27378e+07
2.99128e+07
3.54814e+08
1.48482e+08
2.60881e+07
1.86302e+07
1.3133e+07
9.12499e+06
6.24e+06
4.1948e+06
2.77194e+06
1.8065e+06
1.1758e+06
783280
253860
23081.1
721.031
12.1239
0.142061
0.00172701
3.44078e-05
1.51511e-06
1.52722e-07
2.86881e-08
8.48576e-09
2.94448e-09
1.19102e-09
5.10183e-10
2.24042e-10
1.00927e-10
4.80984e-11
1.95093e-11
8.5835e-12
-1.32856e-12
1.54566e-12
6.29932e-13
2.51929e-13
-6.39812e-13
4.20675e-14
5.06896e-12
5.56773e-15
9.75583e-16
3.64366e-13
0
0
0
1.54463e-16
-2.34821e-11
6.10966e-16
0
1.19618e-15
0
1.95314e-10
-6.54368e-19
0
2.33302e-07
-5.89768e-10
-1.42472e-09
3.29776e-14
-3.4961e-15
1.98883e-08
3.05563e-07
4.10865e-06
5.7676e-05
0.000739303
0.00814711
0.0748885
0.568483
3.57288
18.7787
83.6527
320.149
1063.63
3074.08
7614.58
15496.8
25263.4
38408.6
58442.9
83457.4
114125
151925
199140
258913
335380
433897
561395
726862
942036
1.22239e+06
1.58786e+06
2.06401e+06
2.68488e+06
3.49493e+06
4.55256e+06
5.93454e+06
7.74192e+06
1.01081e+07
1.31761e+07
1.71218e+07
2.24651e+07
2.94817e+07
3.72101e+08
1.33521e+08
2.55274e+07
1.82821e+07
1.29246e+07
9.00621e+06
6.17708e+06
4.16535e+06
2.76155e+06
1.80617e+06
1.18017e+06
787425
247922
21594.3
656.318
10.8223
0.125822
0.001543
3.14609e-05
1.42725e-06
1.45854e-07
2.74951e-08
7.94217e-09
2.85827e-09
1.20364e-09
5.39097e-10
2.29425e-10
1.04853e-10
4.56147e-11
1.85894e-11
8.12419e-12
3.60871e-12
-3.38632e-12
6.4326e-13
2.49542e-13
1.04462e-13
7.84857e-13
7.55252e-13
5.55558e-15
9.7523e-16
-2.59557e-07
0
-7.67022e-17
0
0
0
0
1.70209e-19
0
0
1.89637e-10
4.41224e-15
-2.2949e-07
-2.4229e-18
-6.94845e-10
-4.64244e-17
-2.42281e-09
4.7677e-09
2.35109e-08
3.11216e-07
4.15358e-06
5.94232e-05
0.000767452
0.00849713
0.0785233
0.599541
3.79184
20.0658
90.0446
347.258
1161.8
3368.01
8257.2
16087.5
24209.9
35803
55553.8
80377.5
111107
149228
196988
257497
334859
434418
563093
729855
946365
1.22748e+06
1.59284e+06
2.06796e+06
2.6862e+06
3.49115e+06
4.53989e+06
5.90729e+06
7.69172e+06
1.00227e+07
1.30384e+07
1.69087e+07
2.21375e+07
2.89877e+07
3.84817e+08
1.23048e+08
2.49783e+07
1.79425e+07
1.2722e+07
8.89147e+06
6.1169e+06
4.13774e+06
2.75231e+06
1.80642e+06
1.18456e+06
791468
244686
20693.3
616.085
10.0075
0.115642
0.00142703
2.95901e-05
1.36954e-06
1.43097e-07
2.76908e-08
8.12599e-09
2.92682e-09
1.21321e-09
5.24728e-10
2.24829e-10
1.00083e-10
4.46666e-11
1.94727e-11
7.98559e-12
3.55389e-12
2.27466e-12
6.40444e-13
2.47101e-13
1.03626e-13
5.04685e-12
1.55738e-14
7.41e-13
9.74648e-16
0
0
-2.59206e-07
0
0
-2.27736e-11
0
-1.16065e-15
-2.42635e-07
-2.37759e-07
-4.37054e-15
0
2.21403e-07
-2.15433e-07
5.40842e-10
-4.425e-17
2.30076e-09
2.487e-09
2.65897e-08
3.1834e-07
4.27484e-06
6.08776e-05
0.000787842
0.00875524
0.0812233
0.622819
3.95767
21.0522
95.0068
368.55
1238.94
3587.75
8608.57
15543
23626.6
31258.7
48925.5
73306.3
103748
141716
189415
249894
327202
426611
554953
721066
936390
1.21575e+06
1.57843e+06
2.0495e+06
2.66164e+06
3.45748e+06
4.4927e+06
5.84013e+06
7.59519e+06
9.88321e+06
1.28379e+07
1.66213e+07
2.17217e+07
2.83915e+07
3.9318e+08
1.14823e+08
2.4462e+07
1.76123e+07
1.25186e+07
8.77175e+06
6.05063e+06
4.10429e+06
2.73799e+06
1.80241e+06
1.18528e+06
793192
243302
20238.9
594.123
9.54937
0.109861
0.00136091
2.85246e-05
1.33773e-06
1.41104e-07
2.75859e-08
7.98019e-09
2.91565e-09
1.21177e-09
5.10107e-10
2.33838e-10
1.02397e-10
4.48975e-11
1.84844e-11
8.15235e-12
3.57619e-12
1.53305e-12
1.37074e-12
2.56944e-13
1.05879e-13
4.12973e-14
1.5504e-14
5.36806e-15
-7.32298e-13
0
2.72555e-21
3.18293e-12
-1.50198e-16
-6.25957e-12
2.24195e-11
-5.78408e-16
0
2.36596e-07
7.44088e-11
-2.25345e-07
2.19028e-07
6.10719e-10
0
-1.15088e-09
-4.62773e-17
-3.72799e-16
4.25262e-09
-1.60338e-07
4.04822e-07
4.17423e-06
6.16536e-05
0.000798439
0.00888823
0.0826255
0.635005
4.04524
21.5779
97.6705
379.93
1277.91
3666.26
8406.68
15909
24614.7
32589
39232.8
61230.5
90542.1
127302
173660
232584
308027
405151
530658
693223
904081
1.1778e+06
1.53329e+06
1.99514e+06
2.59533e+06
3.3755e+06
4.38992e+06
5.70937e+06
7.42626e+06
9.66131e+06
1.25434e+07
1.62229e+07
2.11644e+07
2.75946e+07
4.03316e+08
1.10445e+08
2.38257e+07
1.72055e+07
1.22603e+07
8.60985e+06
5.95103e+06
4.0445e+06
2.70316e+06
1.78267e+06
1.17399e+06
786788
242148
20086.5
585.57
9.3592
0.107413
0.00133282
2.80722e-05
1.32286e-06
1.39725e-07
2.76372e-08
7.84835e-09
2.96472e-09
1.17369e-09
5.34158e-10
2.32068e-10
1.07808e-10
4.27264e-11
1.8842e-11
8.30719e-12
3.61307e-12
1.46346e-12
1.35472e-12
2.64254e-13
1.01906e-13
-4.90142e-12
1.68438e-14
5.51214e-15
4.98506e-12
6.82332e-22
-2.72555e-21
0
0
-1.13526e-11
2.49891e-07
0
0
-8.49067e-11
2.31187e-07
0
-5.91283e-19
2.73984e-10
0
-1.50817e-14
-4.62772e-17
-2.8907e-14
1.90781e-09
2.4962e-08
3.13842e-07
4.34807e-06
6.17418e-05
0.000798451
0.00888829
0.0826259
0.635009
4.04527
21.578
97.6713
379.933
1277.92
3666.29
8406.69
15909
24614.7
32588.9
39232.6
61229.5
90540.7
127299
173657
232579
308019
405140
530641
693198
904044
1.17775e+06
1.53322e+06
1.99503e+06
2.59518e+06
3.37528e+06
4.38962e+06
5.70896e+06
7.4257e+06
9.66059e+06
1.25425e+07
1.6222e+07
2.11635e+07
2.75941e+07
4.03319e+08
1.10432e+08
2.38253e+07
1.72054e+07
1.22604e+07
8.60996e+06
5.95114e+06
4.04459e+06
2.70322e+06
1.78271e+06
1.17401e+06
786793
242149
20086.6
585.578
9.35939
0.107416
0.00133286
2.80753e-05
1.32504e-06
1.39725e-07
2.76371e-08
7.84834e-09
2.96471e-09
1.2494e-09
5.34144e-10
2.27596e-10
1.02705e-10
4.3896e-11
1.94377e-11
8.37682e-12
3.53615e-12
1.5593e-12
6.25069e-13
2.64254e-13
1.07495e-13
4.10266e-14
1.54315e-14
5.15814e-15
1.0616e-15
-2.00333e-13
-2.59565e-07
-2.59206e-07
-1.1579e-11
-2.5634e-07
-2.53841e-07
0
0
-8.70414e-11
-3.20821e-19
-3.33609e-10
-2.26832e-07
2.21402e-07
-2.32631e-18
-6.64741e-10
-4.86748e-17
-2.30075e-09
4.51049e-09
2.4146e-08
4.15228e-07
4.3721e-06
6.09773e-05
0.000787946
0.00875532
0.0812248
0.62283
3.95774
21.0526
95.009
368.56
1238.98
3587.86
8608.79
15542.9
23626.7
31258.6
48924.1
73304.1
103744
141710
189406
249882
327183
426583
554913
721008
936309
1.21564e+06
1.57828e+06
2.0493e+06
2.66139e+06
3.45717e+06
4.49233e+06
5.83969e+06
7.59469e+06
9.88268e+06
1.28374e+07
1.66209e+07
2.17214e+07
2.83915e+07
3.93182e+08
1.14825e+08
2.44628e+07
1.76132e+07
1.25194e+07
8.7724e+06
6.0511e+06
4.1046e+06
2.73817e+06
1.80251e+06
1.18533e+06
793208
243306
20239.6
594.155
9.55008
0.109871
0.00136104
2.85267e-05
1.33874e-06
1.39962e-07
2.7266e-08
8.14362e-09
2.91619e-09
1.21177e-09
5.32129e-10
2.2362e-10
1.02934e-10
4.37044e-11
1.84848e-11
8.15234e-12
3.67215e-12
1.53305e-12
6.52743e-13
2.67e-13
1.053e-13
4.41268e-14
5.00387e-12
-7.28737e-13
-4.98742e-12
-2.59557e-07
1.91484e-17
-5.85478e-12
1.16932e-11
-2.18988e-20
2.57789e-07
2.55362e-07
1.18571e-15
0
2.2964e-15
0
4.41223e-15
8.63146e-15
-2.42289e-18
2.20168e-07
1.10745e-09
-3.21055e-14
4.76774e-09
2.35107e-08
2.08009e-07
4.15355e-06
5.94227e-05
0.000767482
0.00849737
0.0785243
0.599547
3.79188
20.066
90.0453
347.261
1161.81
3368.03
8257.24
16087.4
24209.4
35802.1
55552.1
80374.4
111102
149220
196976
257478
334830
434375
563031
729768
946245
1.22732e+06
1.59262e+06
2.06769e+06
2.68585e+06
3.49072e+06
4.53939e+06
5.90674e+06
7.69115e+06
1.00222e+07
1.3038e+07
1.69085e+07
2.21377e+07
2.89882e+07
3.8482e+08
1.23069e+08
2.49807e+07
1.79448e+07
1.27239e+07
8.89282e+06
6.11782e+06
4.13833e+06
2.75266e+06
1.80661e+06
1.18465e+06
791509
244699
20695.2
616.158
10.009
0.115661
0.00142726
2.95972e-05
1.37189e-06
1.43096e-07
2.80216e-08
8.12588e-09
2.85595e-09
1.16902e-09
5.24727e-10
2.29519e-10
1.04867e-10
4.46665e-11
1.81593e-11
8.29857e-12
3.73048e-12
1.51444e-12
6.60605e-13
2.47094e-13
1.09304e-13
4.15624e-14
-7.2086e-13
5.18603e-15
-4.99165e-12
-2.59926e-07
-1.92294e-17
7.72395e-17
0
-1.17903e-11
-1.29476e-11
4.66425e-11
0
0
1.80025e-10
0
-2.42396e-07
2.37845e-07
-2.51926e-18
-7.41712e-18
-1.15916e-09
2.22986e-07
-3.49608e-15
2.48601e-08
3.05561e-07
3.99684e-06
5.76703e-05
0.000739336
0.00814746
0.0748903
0.568495
3.57295
18.779
83.6542
320.154
1063.65
3074.12
7614.59
15496.8
25263.2
38407.9
58440.9
83452.3
114118
151914
199124
258889
335344
433845
561321
726760
941897
1.2222e+06
1.5876e+06
2.06367e+06
2.68442e+06
3.49435e+06
4.55183e+06
5.93365e+06
7.74087e+06
1.01069e+07
1.31749e+07
1.71207e+07
2.24644e+07
2.94815e+07
3.72106e+08
1.33527e+08
2.55292e+07
1.82841e+07
1.29263e+07
9.00757e+06
6.17804e+06
4.16599e+06
2.76194e+06
1.80639e+06
1.18028e+06
787476
247943
21597.2
656.433
10.8245
0.125851
0.00154335
3.14718e-05
1.42723e-06
1.46401e-07
2.77694e-08
8.08301e-09
2.94779e-09
1.20364e-09
4.97088e-10
2.35323e-10
1.04853e-10
4.56128e-11
1.92184e-11
7.73303e-12
3.60871e-12
7.55788e-13
1.35689e-12
2.49542e-13
1.0446e-13
4.18196e-14
1.56419e-14
5.91236e-15
9.75231e-16
-2.60295e-07
-1.474e-12
0
0
-1.19363e-11
2.38362e-11
-6.21925e-16
0
-1.22406e-15
0
-3.64526e-10
0
-2.46185e-07
7.6682e-10
-7.72372e-18
2.35025e-07
-2.32161e-07
-3.39611e-15
2.09645e-08
2.91815e-07
3.94304e-06
5.5432e-05
0.000706629
0.0077412
0.0707053
0.533074
3.32598
17.3456
76.6355
290.81
958.446
2755.94
6855.28
14331.2
24630.1
38520.5
58514.9
83209.9
113329
150330
196517
255053
330108
427072
552906
716597
929788
1.20784e+06
1.57083e+06
2.04571e+06
2.66706e+06
3.47959e+06
4.54303e+06
5.93588e+06
7.76182e+06
1.01579e+07
1.32727e+07
1.72873e+07
2.27375e+07
2.99128e+07
3.5482e+08
1.48483e+08
2.6089e+07
1.86313e+07
1.3134e+07
9.12576e+06
6.24056e+06
4.19516e+06
2.77217e+06
1.80663e+06
1.17586e+06
783304
253880
23084.8
721.189
12.1271
0.142102
0.00172749
3.44123e-05
1.51648e-06
1.52021e-07
2.86879e-08
8.33983e-09
2.96144e-09
1.23758e-09
5.33906e-10
2.30768e-10
1.07188e-10
4.37253e-11
1.95757e-11
8.58373e-12
8.47186e-12
2.3346e-12
6.75865e-13
2.28887e-13
-6.39814e-13
4.20675e-14
1.57052e-14
5.56785e-15
9.75583e-16
-1.63924e-13
-2.63978e-07
0
0
-2.69333e-07
0
0
0
2.66288e-07
0
2.61308e-07
0
0
-2.71141e-18
-5.35309e-18
-4.23329e-17
2.43961e-07
-3.29999e-15
1.9e-08
2.80125e-07
3.7403e-06
5.29481e-05
0.000671769
0.00731072
0.0663065
0.496177
3.07138
15.8853
69.5761
261.674
855.025
2442.47
6075.28
12899.6
22977
36885.2
56350.9
80470.4
109840
145858
190788
247792
321039
415937
539483
700772
911618
1.18745e+06
1.54837e+06
2.02079e+06
2.63973e+06
3.4524e+06
4.51964e+06
5.92069e+06
7.76177e+06
1.01834e+07
1.33397e+07
1.74161e+07
2.29635e+07
3.0285e+07
3.32909e+08
1.68043e+08
2.66518e+07
1.89835e+07
1.33474e+07
9.24973e+06
6.30831e+06
4.22878e+06
2.78593e+06
1.80946e+06
1.17308e+06
779796
262977
25325.2
819.27
14.1167
0.167044
0.00200819
3.88284e-05
1.6479e-06
1.58585e-07
2.89101e-08
8.43872e-09
2.85827e-09
1.2319e-09
5.67008e-10
2.46611e-10
1.01263e-10
4.51487e-11
2.13754e-11
8.72168e-12
3.71511e-12
1.52369e-12
6.36798e-13
1.05182e-12
1.17667e-13
4.23019e-14
1.80027e-14
5.57834e-15
1.06461e-15
-3.65927e-13
0
0
-6.69975e-12
-2.72608e-07
0
0
0
1.83717e-19
0
0
0
2.62822e-07
-2.8072e-18
2.58766e-07
-2.92822e-09
-3.33606e-16
-3.19034e-15
2.31074e-08
2.77117e-07
3.56006e-06
5.05049e-05
0.000636863
0.00688337
0.0619655
0.460057
2.82454
14.4852
62.8925
234.459
759.655
2155.5
5352.61
11480.1
20999.2
34376.8
52973.9
76304.4
104762
139683
183258
238623
309924
402563
523536
681948
889684
1.16232e+06
1.52032e+06
1.99053e+06
2.60818e+06
3.41952e+06
4.48644e+06
5.89233e+06
7.74558e+06
1.01886e+07
1.33812e+07
1.75122e+07
2.31469e+07
3.06015e+07
3.05451e+08
1.92876e+08
2.72147e+07
1.93403e+07
1.35677e+07
9.38113e+06
6.38316e+06
4.26861e+06
2.80475e+06
1.8161e+06
1.17284e+06
777952
275467
28542
964.058
17.1126
0.20499
0.00243218
4.53447e-05
1.83783e-06
1.69692e-07
3.07784e-08
8.29501e-09
3.12748e-09
1.26321e-09
5.1525e-10
2.41828e-10
1.00153e-10
4.46874e-11
2.02673e-11
8.85717e-12
3.76661e-12
1.5422e-12
6.43486e-13
2.79916e-13
1.06793e-13
-5.08124e-12
1.72667e-14
7.49166e-13
9.75312e-16
-3.66445e-13
0
-7.93984e-17
-2.73435e-07
-1.23753e-11
-1.11706e-11
0
0
-1.99636e-10
1.09636e-10
-1.77356e-10
7.84855e-10
0
1.54354e-09
-8.63945e-18
-2.64937e-07
-3.1895e-16
2.63131e-07
1.81299e-08
1.28502e-07
3.50872e-06
4.82845e-05
0.000603814
0.00647949
0.0578786
0.426252
2.5953
13.197
56.8093
209.978
674.831
1902.16
4711.08
10167.8
18962.8
31666
49273.4
71523.5
98879.6
132577
174731
228398
297687
387967
506220
661551
865874
1.13483e+06
1.48901e+06
1.95555e+06
2.57029e+06
3.38056e+06
4.44864e+06
5.85705e+06
7.71672e+06
1.01767e+07
1.34004e+07
1.75798e+07
2.32932e+07
3.08705e+07
2.71708e+08
2.24009e+08
2.77771e+07
1.97028e+07
1.37969e+07
9.5225e+06
6.46759e+06
4.3168e+06
2.83031e+06
1.82775e+06
1.17591e+06
777191
293796
33035.6
1176.36
21.6431
0.263324
0.0030795
5.5017e-05
2.11234e-06
1.87078e-07
3.18826e-08
8.50919e-09
3.18791e-09
1.335e-09
5.47579e-10
2.38342e-10
1.08011e-10
4.62435e-11
2.13574e-11
8.98894e-12
3.81649e-12
1.65502e-12
6.97363e-13
2.82264e-13
1.07494e-13
4.56617e-14
1.73197e-14
5.95421e-15
9.74602e-16
0
1.96342e-17
0
0
0
0
0
0
1.33561e-15
0
0
0
-2.79416e-07
2.08869e-14
-8.94352e-18
3.15645e-09
-3.07919e-16
2.7414e-07
1.89265e-08
2.60229e-07
3.3594e-06
4.60525e-05
0.000573716
0.00611284
0.0541732
0.395688
2.38903
12.0455
51.414
188.451
600.854
1682.29
4151.41
8987.55
16983.7
28818.6
45261.1
66265.6
92490.9
124945
165666
217624
284870
372722
488133
640186
840798
1.10565e+06
1.45541e+06
1.91741e+06
2.52778e+06
3.3344e+06
4.40079e+06
5.81112e+06
7.67665e+06
1.01466e+07
1.33953e+07
1.76171e+07
2.34002e+07
3.10879e+07
2.31132e+08
2.61942e+08
2.83373e+07
2.00734e+07
1.40394e+07
9.67891e+06
6.56623e+06
4.37709e+06
2.86539e+06
1.84625e+06
1.18322e+06
777606
330485
39190.5
1489.21
28.6083
0.355091
0.00409147
6.96268e-05
2.506e-06
2.08143e-07
3.43725e-08
8.91092e-09
3.46496e-09
1.26669e-09
5.59309e-10
2.38021e-10