/*--------------------------------*- C++ -*----------------------------------*\
  =========                 |
  \\      /  F ield         | OpenFOAM: The Open Source CFD Toolbox
   \\    /   O peration     | Website:  https://openfoam.org
    \\  /    A nd           | Version:  8
     \\/     M anipulation  |
\*---------------------------------------------------------------------------*/
FoamFile
{
    version     2.0;
    format      ascii;
    class       volScalarField;
    location    "840/fluid";
    object      rho;
}
// * * * * * * * * * * * * * * * * * * * * * * * * * * * * * * * * * * * * * //

dimensions      [1 -3 0 0 0 0 0];

internalField   nonuniform List<scalar> 
4000
(
0.658526
0.658499
0.658454
0.658379
0.658254
0.658046
0.657704
0.657146
0.656244
0.654809
0.652561
0.649111
0.643945
0.636442
0.625936
0.611847
0.593862
0.572104
0.5472
0.520196
0.492317
0.464717
0.43829
0.413611
0.390956
0.370385
0.351813
0.335082
0.319999
0.306371
0.294018
0.282776
0.272509
0.263098
0.254446
0.246457
0.239025
0.232091
0.225602
0.219516
0.213796
0.20841
0.203332
0.198539
0.194013
0.189737
0.185698
0.181885
0.178289
0.174904
0.171725
0.168749
0.165977
0.163412
0.161061
0.158935
0.157054
0.155467
0.154201
0.153263
0.152769
0.152837
0.154253
0.163138
0.17364
0.185976
0.200441
0.217429
0.237454
0.261189
0.289503
0.323521
0.364684
0.414946
0.476677
0.552046
0.642193
0.745506
0.855425
0.960026
1.04628
1.10719
1.1445
1.16478
1.17495
1.1798
1.18203
1.18304
1.18348
1.18368
1.18376
1.1838
1.18381
1.18382
1.18382
1.18382
1.18382
1.18382
1.18382
1.18382
0.658526
0.658499
0.658454
0.658379
0.658253
0.658044
0.657701
0.65714
0.656235
0.654797
0.65255
0.649111
0.643978
0.636546
0.626168
0.612277
0.594557
0.573107
0.548512
0.521766
0.494062
0.466539
0.440102
0.415343
0.392566
0.37185
0.353126
0.336246
0.321025
0.307271
0.294804
0.283461
0.273103
0.263612
0.254889
0.246838
0.239352
0.232369
0.225836
0.219711
0.213956
0.208539
0.203432
0.198614
0.194065
0.189768
0.185711
0.181881
0.178271
0.174873
0.171682
0.168696
0.165915
0.163342
0.160985
0.158854
0.156969
0.155379
0.154112
0.153173
0.152682
0.152756
0.154929
0.163978
0.174676
0.187253
0.202022
0.219397
0.239923
0.264309
0.293476
0.328616
0.371255
0.423471
0.487674
0.56592
0.658941
0.764238
0.87405
0.975811
1.05739
1.11368
1.14771
1.16622
1.17554
1.18003
1.18212
1.18307
1.1835
1.18368
1.18376
1.1838
1.18381
1.18382
1.18382
1.18382
1.18382
1.18382
1.18382
1.18382
0.658526
0.658499
0.658454
0.658378
0.658252
0.658043
0.657698
0.657135
0.656228
0.654789
0.652543
0.649113
0.644006
0.636629
0.626346
0.612603
0.595084
0.573876
0.549538
0.52303
0.495513
0.468109
0.441721
0.41695
0.394114
0.373308
0.354477
0.337482
0.322145
0.30828
0.295707
0.284266
0.273817
0.264242
0.255441
0.247321
0.239772
0.23273
0.226145
0.21997
0.21417
0.208711
0.203566
0.198712
0.19413
0.189803
0.185718
0.181864
0.178231
0.174813
0.171605
0.168603
0.165809
0.163224
0.160857
0.158719
0.156828
0.155237
0.15397
0.153036
0.152555
0.152644
0.156144
0.165417
0.176401
0.189339
0.204559
0.222502
0.243743
0.269032
0.29934
0.335917
0.380364
0.434834
0.501658
0.582615
0.677843
0.783904
0.892173
0.990135
1.06697
1.11918
1.15051
1.16753
1.17612
1.18028
1.18222
1.18311
1.18351
1.18369
1.18377
1.1838
1.18381
1.18382
1.18382
1.18382
1.18382
1.18382
1.18382
1.18382
0.658526
0.658499
0.658454
0.658379
0.658253
0.658043
0.657699
0.657139
0.656237
0.654807
0.65258
0.649184
0.644131
0.636837
0.626675
0.613094
0.595773
0.574782
0.550654
0.524324
0.496933
0.469596
0.443218
0.418413
0.395511
0.374618
0.355691
0.338596
0.323161
0.3092
0.296537
0.285011
0.274483
0.264833
0.255962
0.247779
0.240171
0.233075
0.226438
0.220216
0.21437
0.208869
0.203685
0.198794
0.194178
0.189819
0.185705
0.181824
0.178167
0.174727
0.171499
0.168481
0.165672
0.163077
0.1607
0.158556
0.156662
0.155076
0.153817
0.152894
0.152427
0.152543
0.157679
0.167201
0.178508
0.191855
0.207587
0.226167
0.248199
0.274473
0.306006
0.344096
0.390422
0.44719
0.516622
0.60021
0.697502
0.804163
0.910773
1.00492
1.07705
1.12514
1.15366
1.16906
1.17683
1.18059
1.18236
1.18317
1.18354
1.1837
1.18377
1.1838
1.18381
1.18382
1.18382
1.18382
1.18382
1.18382
1.18382
1.18382
0.658526
0.658499
0.658454
0.658379
0.658254
0.658046
0.657703
0.657146
0.656251
0.654832
0.652623
0.649257
0.644252
0.637032
0.626975
0.613532
0.596379
0.575571
0.551621
0.525441
0.498155
0.470873
0.444503
0.419667
0.396707
0.375739
0.356729
0.339549
0.324029
0.309988
0.297248
0.28565
0.275053
0.265339
0.256408
0.248169
0.240511
0.233366
0.226683
0.220418
0.214531
0.208991
0.20377
0.198845
0.194196
0.189808
0.185667
0.181761
0.178081
0.174621
0.171375
0.168342
0.165522
0.162917
0.160536
0.158389
0.156499
0.154926
0.153679
0.152772
0.152335
0.152506
0.159321
0.16909
0.180731
0.194503
0.210766
0.230002
0.252844
0.280115
0.312874
0.352466
0.400652
0.459658
0.531561
0.617544
0.716539
0.823353
0.92794
1.01821
1.0859
1.13031
1.15638
1.17039
1.17745
1.18087
1.18249
1.18323
1.18356
1.18371
1.18377
1.1838
1.18381
1.18382
1.18382
1.18382
1.18382
1.18382
1.18382
1.18382
0.658526
0.658499
0.658455
0.65838
0.658256
0.658049
0.65771
0.657157
0.656269
0.654863
0.652676
0.649343
0.644391
0.637245
0.62729
0.613975
0.596971
0.576319
0.552513
0.526449
0.499239
0.471989
0.445612
0.420738
0.397721
0.376684
0.357599
0.340344
0.324751
0.310639
0.297833
0.286173
0.275518
0.26575
0.256768
0.248481
0.240779
0.233593
0.22687
0.220567
0.214645
0.209071
0.203818
0.198862
0.194186
0.189772
0.185606
0.181678
0.177979
0.174502
0.171242
0.168198
0.16537
0.162762
0.160381
0.15824
0.156358
0.154802
0.153569
0.152684
0.152275
0.152482
0.160745
0.170805
0.182817
0.19704
0.213848
0.233742
0.257383
0.285628
0.319576
0.360616
0.410589
0.471717
0.545933
0.634098
0.734544
0.841288
0.943789
1.03036
1.09398
1.13506
1.1589
1.17164
1.17804
1.18114
1.18261
1.18328
1.18358
1.18372
1.18378
1.1838
1.18381
1.18382
1.18382
1.18382
1.18382
1.18382
1.18382
1.18382
0.658526
0.6585
0.658455
0.658381
0.658258
0.658053
0.657716
0.657168
0.656288
0.654895
0.652728
0.649427
0.644522
0.637443
0.627578
0.614376
0.597501
0.576981
0.553297
0.527327
0.500176
0.472947
0.446556
0.421645
0.398573
0.377473
0.358321
0.340999
0.325341
0.311169
0.298306
0.286593
0.275889
0.266074
0.257048
0.248721
0.240981
0.233759
0.227003
0.220668
0.214715
0.209112
0.203832
0.198851
0.19415
0.189714
0.185528
0.181582
0.177867
0.174377
0.171107
0.168057
0.165226
0.16262
0.160247
0.158121
0.156261
0.154747
0.153523
0.152697
0.152352
0.152624
0.161519
0.172101
0.184603
0.199335
0.216706
0.237253
0.261667
0.290843
0.32592
0.368333
0.419998
0.483111
0.559458
0.649579
0.751211
0.857654
0.957999
1.04107
1.101
1.13914
1.16106
1.17271
1.17855
1.18138
1.18271
1.18333
1.1836
1.18373
1.18378
1.1838
1.18381
1.18382
1.18382
1.18382
1.18382
1.18382
1.18382
1.18382
0.658526
0.6585
0.658456
0.658383
0.65826
0.658057
0.657723
0.65718
0.656307
0.654927
0.652779
0.649508
0.644646
0.637628
0.627844
0.614741
0.597976
0.577569
0.553985
0.52809
0.500982
0.473763
0.447355
0.422406
0.399282
0.378125
0.358913
0.341532
0.325818
0.311593
0.298681
0.286923
0.276176
0.266322
0.257259
0.248898
0.241126
0.233875
0.22709
0.220728
0.214749
0.209122
0.203819
0.198817
0.194096
0.189641
0.185439
0.181478
0.177751
0.174251
0.170975
0.167921
0.165091
0.16249
0.160128
0.158021
0.156202
0.154739
0.153593
0.15289
0.152745
0.15335
0.162553
0.17348
0.186365
0.201531
0.219405
0.240544
0.265669
0.295706
0.331828
0.37552
0.428757
0.4937
0.571986
0.663832
0.766418
0.872404
0.970627
1.05046
1.1071
1.14267
1.16294
1.17364
1.179
1.18159
1.18281
1.18337
1.18362
1.18373
1.18378
1.18381
1.18381
1.18382
1.18382
1.18382
1.18382
1.18382
1.18382
1.18382
0.658526
0.6585
0.658457
0.658384
0.658262
0.65806
0.657729
0.65719
0.656325
0.654956
0.652826
0.649581
0.644758
0.637794
0.628079
0.615062
0.598392
0.57808
0.554578
0.528743
0.501667
0.474453
0.448026
0.42304
0.399869
0.378659
0.359395
0.341962
0.3262
0.31193
0.298976
0.287179
0.276396
0.266508
0.257414
0.249024
0.241226
0.233949
0.227141
0.220756
0.214756
0.209109
0.203787
0.198767
0.194031
0.189561
0.185345
0.181373
0.177636
0.174129
0.170847
0.167791
0.164963
0.162367
0.160016
0.157926
0.156137
0.154708
0.153612
0.152984
0.152953
0.154184
0.163652
0.174866
0.188076
0.203617
0.221934
0.243604
0.26937
0.300188
0.337266
0.382133
0.436815
0.503426
0.583454
0.676804
0.780135
0.885545
0.981715
1.05859
1.11232
1.14568
1.16453
1.17443
1.17937
1.18176
1.18288
1.1834
1.18364
1.18374
1.18379
1.18381
1.18382
1.18382
1.18382
1.18382
1.18382
1.18382
1.18382
1.18382
0.658526
0.6585
0.658457
0.658385
0.658264
0.658064
0.657735
0.6572
0.656341
0.654982
0.652868
0.649647
0.644857
0.63794
0.628286
0.615342
0.598752
0.578519
0.555085
0.529298
0.502246
0.475031
0.448583
0.423563
0.400351
0.379095
0.359784
0.342307
0.326503
0.312194
0.299204
0.287374
0.276561
0.266645
0.257525
0.249111
0.24129
0.233993
0.227164
0.220761
0.214744
0.20908
0.203743
0.198709
0.193959
0.189477
0.185251
0.18127
0.177525
0.174013
0.170728
0.16767
0.164842
0.162249
0.159903
0.157821
0.156044
0.154625
0.153535
0.152904
0.152845
0.155132
0.164792
0.176232
0.18971
0.205572
0.224275
0.246413
0.272752
0.304273
0.342211
0.388144
0.444132
0.512241
0.593821
0.688473
0.792372
0.897137
0.991373
1.06559
1.11678
1.14823
1.16588
1.1751
1.1797
1.18191
1.18295
1.18343
1.18365
1.18375
1.18379
1.18381
1.18382
1.18382
1.18382
1.18382
1.18382
1.18382
1.18382
1.18382
0.658526
0.658501
0.658458
0.658386
0.658266
0.658067
0.65774
0.657209
0.656355
0.655005
0.652905
0.649704
0.644944
0.638067
0.628465
0.615582
0.599059
0.578892
0.555513
0.529764
0.502729
0.475511
0.449044
0.423993
0.400743
0.379447
0.360096
0.342581
0.326741
0.312399
0.299379
0.287522
0.276683
0.266744
0.257602
0.249168
0.241329
0.234013
0.227169
0.220751
0.214719
0.209042
0.203692
0.198647
0.193886
0.189395
0.185161
0.181173
0.177423
0.173906
0.170618
0.16756
0.164732
0.162142
0.159799
0.157721
0.15595
0.154537
0.15345
0.152818
0.152754
0.156065
0.165883
0.177514
0.191222
0.207362
0.226404
0.248956
0.275804
0.307951
0.346658
0.393547
0.450707
0.520153
0.603099
0.698864
0.803185
0.90727
0.999714
1.07157
1.12055
1.15038
1.16701
1.17567
1.17996
1.18204
1.18301
1.18346
1.18366
1.18375
1.18379
1.18381
1.18382
1.18382
1.18382
1.18382
1.18382
1.18382
1.18382
1.18382
0.658526
0.658501
0.658458
0.658387
0.658267
0.658069
0.657744
0.657216
0.656368
0.655025
0.652936
0.649753
0.645018
0.638175
0.628617
0.615785
0.599319
0.579205
0.555871
0.530152
0.50313
0.475907
0.449422
0.424343
0.40106
0.37973
0.360345
0.342797
0.326927
0.312557
0.299512
0.287631
0.276772
0.266813
0.257653
0.249202
0.241348
0.234019
0.227161
0.22073
0.214687
0.209
0.20364
0.198585
0.193817
0.189319
0.185078
0.181085
0.177331
0.173812
0.170523
0.167464
0.164638
0.16205
0.159711
0.157638
0.155873
0.154463
0.15338
0.152751
0.152686
0.156909
0.166869
0.178669
0.192579
0.208964
0.228303
0.251219
0.278513
0.31121
0.350597
0.398338
0.456541
0.527167
0.611303
0.70801
0.812636
0.916046
1.00686
1.07664
1.12373
1.15218
1.16796
1.17614
1.18019
1.18214
1.18306
1.18348
1.18367
1.18376
1.18379
1.18381
1.18382
1.18382
1.18382
1.18382
1.18382
1.18382
1.18382
1.18382
0.658526
0.658501
0.658458
0.658387
0.658268
0.658072
0.657748
0.657223
0.656378
0.655042
0.652964
0.649795
0.645081
0.638266
0.628744
0.615956
0.599535
0.579465
0.556168
0.530472
0.503458
0.47623
0.449728
0.424626
0.401315
0.379955
0.360541
0.342966
0.327071
0.312678
0.299612
0.287712
0.276836
0.266861
0.257686
0.249222
0.241356
0.234015
0.227147
0.220706
0.214654
0.208958
0.20359
0.198528
0.193754
0.18925
0.185005
0.181009
0.177253
0.173732
0.170442
0.167385
0.16456
0.161976
0.159641
0.157571
0.155812
0.154408
0.153329
0.152702
0.152635
0.157638
0.167729
0.17968
0.193768
0.210365
0.229962
0.253194
0.280879
0.31406
0.354043
0.402533
0.461651
0.533303
0.618465
0.715963
0.820801
0.923564
1.01292
1.0809
1.12638
1.15367
1.16874
1.17652
1.18038
1.18223
1.1831
1.1835
1.18368
1.18376
1.18379
1.18381
1.18382
1.18382
1.18382
1.18382
1.18382
1.18382
1.18382
1.18382
0.658526
0.658501
0.658459
0.658388
0.658269
0.658073
0.657751
0.657228
0.656387
0.655057
0.652986
0.64983
0.645133
0.638342
0.62885
0.616096
0.599713
0.579679
0.55641
0.530733
0.503725
0.476491
0.449975
0.424852
0.401517
0.380133
0.360695
0.343097
0.327182
0.31277
0.299687
0.287772
0.276881
0.266893
0.257707
0.249232
0.241356
0.234006
0.227129
0.220681
0.214621
0.208919
0.203545
0.198478
0.193699
0.189192
0.184944
0.180945
0.177188
0.173667
0.170379
0.167323
0.164501
0.16192
0.159588
0.157524
0.155769
0.15437
0.153295
0.152668
0.152599
0.158255
0.168464
0.180547
0.194789
0.211571
0.231391
0.254896
0.282918
0.316514
0.357012
0.406148
0.466053
0.538587
0.624623
0.722776
0.827758
0.929923
1.01801
1.08446
1.12858
1.15491
1.16939
1.17685
1.18053
1.1823
1.18313
1.18351
1.18369
1.18376
1.1838
1.18381
1.18382
1.18382
1.18382
1.18382
1.18382
1.18382
1.18382
1.18382
0.658526
0.658501
0.658459
0.658388
0.65827
0.658075
0.657754
0.657232
0.656395
0.655068
0.653005
0.649859
0.645176
0.638404
0.628935
0.61621
0.599857
0.579851
0.556605
0.530942
0.503938
0.476699
0.45017
0.42503
0.401676
0.380272
0.360814
0.343199
0.327266
0.312839
0.299743
0.287815
0.276913
0.266915
0.25772
0.249236
0.241353
0.233996
0.227112
0.220658
0.214593
0.208885
0.203508
0.198437
0.193655
0.189145
0.184895
0.180896
0.177138
0.173618
0.170331
0.167277
0.164458
0.16188
0.159553
0.157493
0.155745
0.154349
0.153276
0.152649
0.152577
0.158766
0.169079
0.181277
0.195652
0.21259
0.2326
0.256336
0.284642
0.31859
0.359523
0.409207
0.469777
0.543055
0.629821
0.728512
0.833587
0.935217
1.02222
1.08738
1.13037
1.15592
1.16992
1.17711
1.18065
1.18236
1.18316
1.18352
1.18369
1.18376
1.1838
1.18381
1.18382
1.18382
1.18382
1.18382
1.18382
1.18382
1.18382
1.18382
0.658526
0.658501
0.658459
0.658389
0.658271
0.658076
0.657756
0.657236
0.6564
0.655078
0.65302
0.649881
0.64521
0.638453
0.629004
0.616301
0.599971
0.579988
0.556759
0.531107
0.504105
0.476862
0.450323
0.425168
0.401799
0.380378
0.360906
0.343275
0.32733
0.312891
0.299784
0.287846
0.276936
0.26693
0.257728
0.249238
0.241349
0.233986
0.227098
0.220639
0.21457
0.208859
0.203479
0.198405
0.193621
0.18911
0.18486
0.18086
0.177103
0.173584
0.170299
0.167248
0.164432
0.161858
0.159535
0.15748
0.155736
0.154344
0.153272
0.152643
0.152566
0.159183
0.169586
0.181882
0.196367
0.213436
0.233601
0.257528
0.286068
0.320305
0.361597
0.411732
0.472851
0.54674
0.634102
0.733222
0.838357
0.939528
1.02563
1.08973
1.13182
1.15672
1.17034
1.17731
1.18075
1.1824
1.18318
1.18353
1.18369
1.18377
1.1838
1.18381
1.18382
1.18382
1.18382
1.18382
1.18382
1.18382
1.18382
1.18382
0.658526
0.658501
0.658459
0.658389
0.658272
0.658077
0.657758
0.657239
0.656405
0.655085
0.653031
0.649899
0.645236
0.638491
0.629056
0.61637
0.600059
0.580092
0.556877
0.531232
0.504232
0.476985
0.450438
0.425273
0.401891
0.380458
0.360974
0.343332
0.327377
0.312929
0.299814
0.287869
0.276952
0.266941
0.257734
0.24924
0.241346
0.23398
0.227089
0.220627
0.214555
0.208842
0.203459
0.198384
0.193599
0.189087
0.184837
0.180838
0.177082
0.173564
0.170281
0.167233
0.164421
0.161851
0.159532
0.157481
0.155742
0.154352
0.153281
0.152648
0.152561
0.159513
0.169991
0.182368
0.196944
0.214117
0.234406
0.258484
0.287209
0.321676
0.363252
0.413745
0.475297
0.549669
0.637497
0.736948
0.842115
0.942912
1.02829
1.09156
1.13294
1.15735
1.17066
1.17748
1.18083
1.18244
1.18319
1.18354
1.1837
1.18377
1.1838
1.18381
1.18382
1.18382
1.18382
1.18382
1.18382
1.18382
1.18382
1.18382
0.658526
0.658501
0.65846
0.658389
0.658272
0.658078
0.657759
0.657241
0.656408
0.65509
0.65304
0.649912
0.645255
0.638518
0.629094
0.616421
0.600122
0.580168
0.556962
0.531323
0.504324
0.477074
0.450521
0.425347
0.401957
0.380515
0.361022
0.343373
0.32741
0.312956
0.299835
0.287886
0.276965
0.26695
0.257739
0.249242
0.241346
0.233977
0.227084
0.22062
0.214546
0.208832
0.203448
0.198372
0.193587
0.189075
0.184825
0.180827
0.177072
0.173557
0.170277
0.167232
0.164423
0.161857
0.159542
0.157495
0.155758
0.154371
0.153299
0.152661
0.152564
0.15976
0.170302
0.182742
0.197387
0.214639
0.235022
0.259212
0.288075
0.322712
0.364499
0.415259
0.477133
0.551861
0.640031
0.73972
0.8449
0.945408
1.03025
1.09291
1.13377
1.15781
1.1709
1.1776
1.18089
1.18247
1.18321
1.18355
1.1837
1.18377
1.1838
1.18381
1.18382
1.18382
1.18382
1.18382
1.18382
1.18382
1.18382
1.18382
0.658526
0.658502
0.65846
0.658389
0.658272
0.658078
0.65776
0.657242
0.656411
0.655094
0.653045
0.64992
0.645268
0.638536
0.629119
0.616453
0.600164
0.580216
0.557017
0.531381
0.504383
0.477131
0.450574
0.425396
0.401999
0.380552
0.361053
0.343399
0.327431
0.312973
0.299849
0.287897
0.276973
0.266956
0.257743
0.249245
0.241347
0.233978
0.227083
0.220618
0.214543
0.208828
0.203444
0.198368
0.193582
0.189071
0.184822
0.180825
0.177073
0.173559
0.170282
0.167239
0.164434
0.161871
0.15956
0.157515
0.15578
0.154393
0.153318
0.152675
0.152569
0.159941
0.170523
0.183007
0.197698
0.215003
0.235448
0.259712
0.288667
0.323416
0.365343
0.416278
0.478364
0.553326
0.641718
0.741556
0.846734
0.947042
1.03153
1.09379
1.1343
1.15811
1.17106
1.17767
1.18093
1.18249
1.18322
1.18355
1.1837
1.18377
1.1838
1.18381
1.18382
1.18382
1.18382
1.18382
1.18382
1.18382
1.18382
1.18382
0.658526
0.658502
0.65846
0.65839
0.658272
0.658079
0.65776
0.657243
0.656412
0.655096
0.653048
0.649924
0.645274
0.638545
0.629131
0.616469
0.600183
0.58024
0.557043
0.531409
0.504411
0.477158
0.450599
0.425418
0.402019
0.380569
0.361068
0.343411
0.327442
0.312982
0.299856
0.287902
0.276977
0.266959
0.257746
0.249247
0.241349
0.233979
0.227084
0.220618
0.214544
0.208828
0.203444
0.198368
0.193583
0.189072
0.184824
0.180828
0.177077
0.173565
0.170289
0.167249
0.164446
0.161885
0.159576
0.157532
0.155796
0.154405
0.15332
0.152654
0.152506
0.160001
0.170624
0.18314
0.19786
0.215194
0.23567
0.259972
0.288971
0.323775
0.365769
0.416788
0.478973
0.554044
0.642538
0.742441
0.847611
0.947816
1.03213
1.09419
1.13455
1.15825
1.17113
1.17771
1.18094
1.18249
1.18322
1.18355
1.1837
1.18377
1.1838
1.18381
1.18382
1.18382
1.18382
1.18382
1.18382
1.18382
1.18382
1.18382
0.658526
0.658502
0.65846
0.65839
0.658272
0.658079
0.65776
0.657243
0.656412
0.655096
0.653048
0.649924
0.645274
0.638545
0.629131
0.616469
0.600183
0.58024
0.557043
0.531409
0.504411
0.477158
0.450599
0.425418
0.402019
0.380569
0.361068
0.343411
0.327442
0.312982
0.299856
0.287902
0.276977
0.266959
0.257746
0.249247
0.241349
0.233979
0.227084
0.220618
0.214544
0.208828
0.203444
0.198368
0.193583
0.189072
0.184824
0.180828
0.177077
0.173565
0.170289
0.167249
0.164446
0.161885
0.159575
0.157532
0.155796
0.154404
0.15332
0.152654
0.152506
0.160001
0.170624
0.18314
0.19786
0.215194
0.23567
0.259972
0.288971
0.323774
0.365769
0.416788
0.478973
0.554044
0.642538
0.74244
0.84761
0.947815
1.03213
1.09419
1.13455
1.15825
1.17113
1.17771
1.18094
1.18249
1.18322
1.18355
1.1837
1.18377
1.1838
1.18381
1.18382
1.18382
1.18382
1.18382
1.18382
1.18382
1.18382
1.18382
0.658526
0.658502
0.65846
0.658389
0.658272
0.658078
0.65776
0.657242
0.65641
0.655094
0.653045
0.64992
0.645268
0.638536
0.629119
0.616453
0.600163
0.580216
0.557016
0.531381
0.504383
0.477131
0.450574
0.425395
0.401999
0.380551
0.361053
0.343399
0.327431
0.312973
0.299849
0.287897
0.276973
0.266956
0.257743
0.249245
0.241347
0.233977
0.227083
0.220617
0.214543
0.208828
0.203443
0.198368
0.193582
0.189071
0.184822
0.180825
0.177072
0.173559
0.170281
0.167239
0.164434
0.161871
0.159559
0.157515
0.15578
0.154393
0.153318
0.152675
0.152569
0.15994
0.170523
0.183006
0.197698
0.215003
0.235447
0.259712
0.288666
0.323416
0.365343
0.416278
0.478363
0.553325
0.641717
0.741554
0.846732
0.94704
1.03153
1.09379
1.1343
1.15811
1.17106
1.17767
1.18093
1.18249
1.18321
1.18355
1.1837
1.18377
1.1838
1.18381
1.18382
1.18382
1.18382
1.18382
1.18382
1.18382
1.18382
1.18382
0.658526
0.658501
0.65846
0.658389
0.658272
0.658078
0.657759
0.657241
0.656408
0.65509
0.65304
0.649912
0.645255
0.638518
0.629094
0.61642
0.600122
0.580167
0.556961
0.531322
0.504324
0.477073
0.45052
0.425347
0.401956
0.380515
0.361021
0.343372
0.32741
0.312956
0.299835
0.287885
0.276964
0.266949
0.257739
0.249242
0.241346
0.233977
0.227084
0.220619
0.214546
0.208831
0.203447
0.198372
0.193586
0.189075
0.184825
0.180826
0.177072
0.173556
0.170276
0.167231
0.164423
0.161856
0.159542
0.157494
0.155758
0.154371
0.153298
0.152661
0.152564
0.159759
0.170301
0.182741
0.197386
0.214638
0.235021
0.259211
0.288074
0.322711
0.364498
0.415258
0.477131
0.551859
0.640029
0.739717
0.844897
0.945405
1.03025
1.09291
1.13376
1.15781
1.1709
1.17759
1.18089
1.18247
1.18321
1.18355
1.1837
1.18377
1.1838
1.18381
1.18382
1.18382
1.18382
1.18382
1.18382
1.18382
1.18382
1.18382
0.658526
0.658501
0.658459
0.658389
0.658272
0.658077
0.657758
0.657239
0.656405
0.655085
0.653031
0.649899
0.645236
0.638491
0.629056
0.61637
0.600058
0.580091
0.556876
0.531232
0.504232
0.476984
0.450437
0.425272
0.40189
0.380457
0.360973
0.343332
0.327376
0.312928
0.299813
0.287869
0.276952
0.266941
0.257733
0.249239
0.241346
0.23398
0.227088
0.220626
0.214555
0.208841
0.203458
0.198384
0.193598
0.189087
0.184836
0.180837
0.177081
0.173564
0.170281
0.167232
0.16442
0.16185
0.159532
0.157481
0.155741
0.154351
0.15328
0.152647
0.152561
0.159512
0.16999
0.182367
0.196943
0.214116
0.234405
0.258483
0.287208
0.321674
0.36325
0.413743
0.475295
0.549666
0.637493
0.736943
0.842111
0.942907
1.02829
1.09156
1.13294
1.15735
1.17066
1.17748
1.18083
1.18244
1.18319
1.18354
1.1837
1.18377
1.1838
1.18381
1.18382
1.18382
1.18382
1.18382
1.18382
1.18382
1.18382
1.18382
0.658526
0.658501
0.658459
0.658389
0.658271
0.658076
0.657756
0.657236
0.6564
0.655078
0.65302
0.649881
0.64521
0.638453
0.629003
0.6163
0.599971
0.579987
0.556758
0.531106
0.504104
0.476861
0.450322
0.425167
0.401798
0.380377
0.360905
0.343274
0.327329
0.31289
0.299783
0.287846
0.276935
0.26693
0.257727
0.249238
0.241348
0.233986
0.227098
0.220639
0.21457
0.208859
0.203478
0.198405
0.19362
0.189109
0.184859
0.180859
0.177103
0.173583
0.170298
0.167247
0.164431
0.161857
0.159534
0.157479
0.155735
0.154343
0.153272
0.152643
0.152565
0.159182
0.169585
0.181881
0.196366
0.213435
0.2336
0.257526
0.286066
0.320304
0.361595
0.41173
0.472847
0.546736
0.634097
0.733216
0.838351
0.939523
1.02562
1.08973
1.13181
1.15672
1.17034
1.17731
1.18075
1.1824
1.18318
1.18353
1.18369
1.18377
1.1838
1.18381
1.18382
1.18382
1.18382
1.18382
1.18382
1.18382
1.18382
1.18382
0.658526
0.658501
0.658459
0.658388
0.65827
0.658075
0.657754
0.657232
0.656395
0.655068
0.653005
0.649858
0.645176
0.638403
0.628935
0.61621
0.599857
0.57985
0.556604
0.530941
0.503937
0.476698
0.450169
0.425029
0.401675
0.38027
0.360813
0.343198
0.327265
0.312838
0.299742
0.287814
0.276912
0.266914
0.257719
0.249236
0.241352
0.233995
0.227112
0.220657
0.214592
0.208885
0.203507
0.198436
0.193654
0.189144
0.184894
0.180895
0.177137
0.173617
0.170331
0.167277
0.164458
0.161879
0.159552
0.157492
0.155744
0.154348
0.153275
0.152648
0.152576
0.158765
0.169078
0.181276
0.195651
0.212589
0.232598
0.256334
0.28464
0.318588
0.35952
0.409203
0.469772
0.54305
0.629814
0.728504
0.83358
0.93521
1.02222
1.08737
1.13037
1.15591
1.16991
1.17711
1.18065
1.18236
1.18316
1.18352
1.18369
1.18376
1.1838
1.18381
1.18382
1.18382
1.18382
1.18382
1.18382
1.18382
1.18382
1.18382
0.658526
0.658501
0.658459
0.658388
0.658269
0.658073
0.657751
0.657228
0.656387
0.655056
0.652986
0.64983
0.645133
0.638342
0.628849
0.616095
0.599712
0.579678
0.556409
0.530732
0.503723
0.47649
0.449973
0.42485
0.401516
0.380131
0.360694
0.343096
0.32718
0.312769
0.299686
0.287771
0.27688
0.266892
0.257706
0.249231
0.241355
0.234005
0.227129
0.22068
0.21462
0.208918
0.203544
0.198478
0.193698
0.189191
0.184943
0.180944
0.177187
0.173666
0.170378
0.167322
0.1645
0.161919
0.159587
0.157522
0.155768
0.154369
0.153294
0.152667
0.152598
0.158254
0.168463
0.180546
0.194788
0.211569
0.231389
0.254894
0.282915
0.316511
0.357008
0.406143
0.466047
0.538581
0.624615
0.722768
0.827749
0.929914
1.01801
1.08445
1.12857
1.15491
1.16939
1.17684
1.18053
1.1823
1.18313
1.18351
1.18369
1.18376
1.1838
1.18381
1.18382
1.18382
1.18382
1.18382
1.18382
1.18382
1.18382
1.18382
0.658526
0.658501
0.658458
0.658387
0.658268
0.658072
0.657748
0.657222
0.656378
0.655042
0.652963
0.649795
0.645081
0.638266
0.628744
0.615955
0.599534
0.579464
0.556166
0.530471
0.503456
0.476228
0.449727
0.424624
0.401313
0.379954
0.36054
0.342965
0.32707
0.312677
0.299611
0.287711
0.276835
0.26686
0.257685
0.249221
0.241355
0.234014
0.227146
0.220705
0.214653
0.208957
0.203589
0.198527
0.193753
0.189249
0.185004
0.181008
0.177252
0.173731
0.170441
0.167383
0.164559
0.161974
0.159639
0.15757
0.15581
0.154406
0.153328
0.1527
0.152634
0.157637
0.167728
0.179679
0.193766
0.210363
0.22996
0.253192
0.280877
0.314056
0.354039
0.402528
0.461645
0.533295
0.618456
0.715953
0.82079
0.923554
1.01292
1.0809
1.12638
1.15367
1.16874
1.17652
1.18038
1.18223
1.1831
1.1835
1.18368
1.18376
1.18379
1.18381
1.18382
1.18382
1.18382
1.18382
1.18382
1.18382
1.18382
1.18382
0.658526
0.658501
0.658458
0.658387
0.658267
0.658069
0.657744
0.657216
0.656368
0.655025
0.652936
0.649753
0.645018
0.638174
0.628616
0.615784
0.599318
0.579204
0.55587
0.530151
0.503128
0.475905
0.44942
0.424341
0.401058
0.379728
0.360343
0.342796
0.326926
0.312556
0.299511
0.28763
0.276771
0.266812
0.257652
0.249201
0.241347
0.234018
0.22716
0.220729
0.214686
0.208999
0.203639
0.198584
0.193816
0.189318
0.185077
0.181084
0.17733
0.17381
0.170522
0.167463
0.164636
0.162048
0.159709
0.157636
0.155871
0.154462
0.153379
0.152749
0.152684
0.156908
0.166868
0.178668
0.192577
0.208962
0.228301
0.251216
0.27851
0.311206
0.350592
0.398332
0.456534
0.527158
0.611293
0.707999
0.812624
0.916035
1.00685
1.07663
1.12372
1.15217
1.16796
1.17613
1.18019
1.18214
1.18306
1.18348
1.18367
1.18376
1.18379
1.18381
1.18382
1.18382
1.18382
1.18382
1.18382
1.18382
1.18382
1.18382
0.658526
0.658501
0.658458
0.658386
0.658266
0.658067
0.65774
0.657209
0.656355
0.655005
0.652904
0.649704
0.644943
0.638066
0.628464
0.615581
0.599058
0.57889
0.555511
0.529762
0.502727
0.475509
0.449042
0.423991
0.400741
0.379445
0.360095
0.342579
0.32674
0.312397
0.299378
0.28752
0.276682
0.266743
0.257601
0.249166
0.241328
0.234012
0.227168
0.220749
0.214718
0.209041
0.203691
0.198645
0.193885
0.189394
0.185159
0.181171
0.177422
0.173904
0.170617
0.167558
0.164731
0.16214
0.159797
0.157719
0.155949
0.154535
0.153448
0.152816
0.152752
0.156064
0.165881
0.177512
0.19122
0.20736
0.226401
0.248953
0.2758
0.307946
0.346652
0.39354
0.450699
0.520144
0.603088
0.698852
0.803172
0.907258
0.999704
1.07156
1.12054
1.15037
1.16701
1.17566
1.17996
1.18204
1.18301
1.18346
1.18366
1.18375
1.18379
1.18381
1.18382
1.18382
1.18382
1.18382
1.18382
1.18382
1.18382
1.18382
0.658526
0.6585
0.658457
0.658385
0.658264
0.658064
0.657735
0.6572
0.656341
0.654982
0.652868
0.649646
0.644857
0.637939
0.628286
0.615341
0.598751
0.578517
0.555083
0.529296
0.502243
0.475028
0.448581
0.423561
0.400349
0.379093
0.359782
0.342305
0.326501
0.312192
0.299203
0.287373
0.27656
0.266644
0.257524
0.24911
0.241289
0.233991
0.227163
0.22076
0.214743
0.209079
0.203742
0.198707
0.193957
0.189476
0.185249
0.181268
0.177524
0.174011
0.170726
0.167668
0.16484
0.162248
0.159901
0.157819
0.156042
0.154623
0.153533
0.152901
0.152842
0.15513
0.16479
0.17623
0.189708
0.20557
0.224272
0.24641
0.272749
0.304268
0.342206
0.388139
0.444124
0.512232
0.59381
0.688461
0.792359
0.897124
0.991362
1.06558
1.11677
1.14822
1.16588
1.1751
1.17969
1.18191
1.18295
1.18343
1.18365
1.18375
1.18379
1.18381
1.18382
1.18382
1.18382
1.18382
1.18382
1.18382
1.18382
1.18382
0.658526
0.6585
0.658457
0.658384
0.658262
0.65806
0.657729
0.65719
0.656325
0.654955
0.652826
0.649581
0.644757
0.637793
0.628079
0.615061
0.598391
0.578078
0.554576
0.528741
0.501665
0.47445
0.448023
0.423037
0.399867
0.378657
0.359393
0.34196
0.326198
0.311928
0.298974
0.287177
0.276395
0.266507
0.257413
0.249023
0.241225
0.233948
0.22714
0.220754
0.214755
0.209108
0.203786
0.198766
0.194029
0.189559
0.185343
0.181371
0.177634
0.174127
0.170846
0.16779
0.164961
0.162365
0.160014
0.157924
0.156135
0.154706
0.15361
0.152982
0.15295
0.154183
0.163651
0.174865
0.188074
0.203615
0.221932
0.2436
0.269366
0.300184
0.337261
0.382127
0.436808
0.503416
0.583443
0.676791
0.780121
0.885531
0.981704
1.05858
1.11232
1.14567
1.16453
1.17443
1.17937
1.18176
1.18288
1.1834
1.18364
1.18374
1.18379
1.18381
1.18382
1.18382
1.18382
1.18382
1.18382
1.18382
1.18382
1.18382
0.658526
0.6585
0.658456
0.658383
0.65826
0.658057
0.657723
0.65718
0.656307
0.654926
0.652779
0.649507
0.644645
0.637627
0.627843
0.614739
0.597975
0.577567
0.553983
0.528087
0.500979
0.47376
0.447353
0.422403
0.39928
0.378122
0.358911
0.34153
0.325816
0.311591
0.29868
0.286921
0.276175
0.26632
0.257257
0.248896
0.241125
0.233873
0.227089
0.220727
0.214748
0.209121
0.203818
0.198816
0.194095
0.18964
0.185437
0.181477
0.177749
0.174249
0.170973
0.167919
0.165089
0.162488
0.160126
0.158019
0.1562
0.154737
0.153591
0.152888
0.152743
0.153348
0.162551
0.173478
0.186363
0.201529
0.219402
0.240541
0.265666
0.295701
0.331823
0.375514
0.428749
0.493691
0.571975
0.663819
0.766404
0.87239
0.970614
1.05045
1.10709
1.14267
1.16294
1.17364
1.179
1.18159
1.1828
1.18337
1.18362
1.18373
1.18378
1.18381
1.18381
1.18382
1.18382
1.18382
1.18382
1.18382
1.18382
1.18382
0.658526
0.6585
0.658455
0.658381
0.658258
0.658053
0.657716
0.657168
0.656288
0.654895
0.652728
0.649427
0.644521
0.637442
0.627577
0.614375
0.597499
0.576979
0.553295
0.527325
0.500173
0.472944
0.446554
0.421643
0.39857
0.37747
0.358318
0.340996
0.325339
0.311167
0.298304
0.286591
0.275887
0.266072
0.257046
0.248719
0.240979
0.233758
0.227002
0.220667
0.214714
0.209111
0.20383
0.19885
0.194149
0.189712
0.185526
0.18158
0.177865
0.174375
0.171106
0.168055
0.165225
0.162619
0.160246
0.158119
0.156259
0.154745
0.153521
0.152695
0.15235
0.152623
0.161517
0.172099
0.184601
0.199333
0.216704
0.23725
0.261664
0.290839
0.325915
0.368327
0.41999
0.483101