/*--------------------------------*- C++ -*----------------------------------*\
  =========                 |
  \\      /  F ield         | OpenFOAM: The Open Source CFD Toolbox
   \\    /   O peration     | Website:  https://openfoam.org
    \\  /    A nd           | Version:  8
     \\/     M anipulation  |
\*---------------------------------------------------------------------------*/
FoamFile
{
    version     2.0;
    format      ascii;
    class       volScalarField;
    location    "840/fluid";
    object      T;
}
// * * * * * * * * * * * * * * * * * * * * * * * * * * * * * * * * * * * * * //

dimensions      [0 0 0 1 0 0 0];

internalField   nonuniform List<scalar> 
4000
(
293.004
293.017
293.039
293.076
293.138
293.241
293.411
293.688
294.136
294.853
295.982
297.734
300.395
304.348
310.065
318.083
328.954
343.168
361.065
382.782
408.235
437.163
469.192
503.915
540.943
579.942
620.642
662.835
706.364
751.108
796.967
843.849
891.661
940.296
989.632
1039.6
1090.24
1141.44
1193.11
1245.15
1297.44
1349.89
1402.38
1454.78
1506.99
1558.86
1610.28
1661.1
1711.18
1760.35
1808.45
1855.28
1900.63
1944.23
1985.78
2024.89
2061.1
2093.34
2121
2144.16
2160.67
2168.71
2157.06
2047.12
1930.14
1808.26
1683.24
1556.57
1429.53
1303.29
1178.95
1057.61
940.41
828.255
722.392
624.842
537.935
463.965
404.745
360.905
331.311
313.177
303.017
297.766
295.203
293.995
293.441
293.192
293.083
293.035
293.015
293.006
293.003
293.001
293
293
293
293
293
293
293.004
293.017
293.039
293.077
293.139
293.242
293.412
293.691
294.141
294.859
295.988
297.734
300.378
304.293
309.936
317.832
328.52
342.485
360.075
381.446
406.539
435.121
466.841
501.302
538.124
576.97
617.569
659.706
703.218
747.979
793.885
840.843
888.754
937.513
986.995
1037.12
1087.93
1139.31
1191.18
1243.43
1295.94
1348.61
1401.32
1453.96
1506.39
1558.49
1610.14
1661.18
1711.47
1760.85
1809.15
1856.17
1901.69
1945.45
1987.15
2026.4
2062.73
2095.05
2122.77
2145.97
2162.49
2170.43
2148.23
2037.22
1919.26
1796.47
1670.58
1543.08
1415.27
1288.31
1163.36
1041.55
924.057
811.828
706.306
609.685
524.383
452.678
396.176
355.1
327.85
311.362
302.173
297.402
295.055
293.938
293.42
293.185
293.08
293.034
293.015
293.006
293.003
293.001
293
293
293
293
293
293
293.004
293.017
293.039
293.077
293.139
293.243
293.414
293.693
294.144
294.863
295.992
297.732
300.363
304.249
309.837
317.642
328.192
341.964
359.305
380.378
405.141
433.379
464.76
498.905
535.442
574.045
614.442
656.42
699.816
744.502
790.373
837.334
885.287
934.126
983.726
1034
1084.97
1136.56
1188.66
1241.15
1293.94
1346.91
1399.93
1452.88
1505.64
1558.09
1610.07
1661.45
1712.07
1761.78
1810.39
1857.71
1903.51
1947.54
1989.48
2028.94
2065.44
2097.85
2125.64
2148.83
2165.2
2172.95
2132.46
2020.42
1901.38
1777.53
1650.65
1522.28
1393.75
1266.29
1141.09
1019.36
902.303
790.921
686.856
592.392
509.886
441.404
388.179
349.992
324.919
309.837
301.442
297.069
294.909
293.875
293.394
293.174
293.076
293.033
293.014
293.006
293.002
293.001
293
293
293
293
293
293
293.004
293.017
293.039
293.077
293.139
293.243
293.413
293.691
294.14
294.854
295.973
297.697
300.299
304.138
309.655
317.356
327.764
341.352
358.47
379.29
403.781
431.742
462.853
496.743
533.048
571.443
611.66
653.488
696.763
741.359
787.174
834.112
882.079
930.97
980.659
1031.05
1082.17
1133.95
1186.26
1239.01
1292.07
1345.34
1398.69
1451.99
1505.11
1557.93
1610.29
1662.04
1713.04
1763.12
1812.08
1859.74
1905.86
1950.18
1992.37
2032.04
2068.7
2101.13
2128.85
2151.94
2168.16
2175.53
2112.85
1999.97
1879.98
1755.2
1627.49
1498.44
1369.47
1241.84
1116.79
995.596
879.439
769.374
667.194
575.197
495.634
430.363
380.301
344.872
321.897
308.205
300.624
296.682
294.732
293.797
293.36
293.16
293.07
293.03
293.013
293.005
293.002
293.001
293
293
293
293
293
293
293.004
293.017
293.039
293.076
293.138
293.241
293.411
293.687
294.133
294.841
295.951
297.659
300.236
304.034
309.49
317.102
327.388
340.82
357.751
378.357
402.619
430.347
461.23
494.906
531.015
569.236
609.301
651.001
694.173
738.693
784.457
831.374
879.352
928.285
978.052
1028.55
1079.81
1131.75
1184.27
1237.25
1290.58
1344.14
1397.8
1451.45
1504.93
1558.1
1610.84
1662.97
1714.34
1764.78
1814.09
1862.07
1908.49
1953.06
1995.47
2035.31
2072.02
2104.31
2131.95
2154.9
2170.72
2177.24
2092.27
1978.76
1857.94
1732.29
1603.85
1474.27
1345.03
1217.45
1092.81
972.397
857.34
748.784
648.655
559.205
482.572
420.402
373.308
340.396
319.285
306.802
299.921
296.347
294.578
293.728
293.329
293.147
293.064
293.028
293.012
293.005
293.002
293.001
293
293
293
293
293
293
293.004
293.017
293.039
293.076
293.138
293.24
293.408
293.682
294.124
294.826
295.925
297.615
300.164
303.921
309.316
316.845
327.022
340.318
357.089
377.518
401.595
429.136
459.839
493.347
529.304
567.391
607.34
648.944
692.039
736.503
782.234
829.143
877.138
926.118
975.961
1026.56
1077.95
1130.05
1182.76
1235.96
1289.54
1343.37
1397.33
1451.29
1505.09
1558.61
1611.69
1664.17
1715.88
1766.64
1816.27
1864.53
1911.18
1955.94
1998.47
2038.34
2075.06
2107.2
2134.73
2157.4
2172.86
2178.78
2074.88
1959.99
1837.76
1710.93
1581.59
1451.45
1321.98
1194.53
1070.38
950.824
836.91
729.892
631.767
544.741
470.836
411.5
367.077
336.402
316.938
305.526
299.27
296.032
294.431
293.661
293.3
293.134
293.059
293.025
293.011
293.005
293.002
293.001
293
293
293
293
293
293
293.004
293.017
293.039
293.075
293.136
293.238
293.405
293.676
294.114
294.81
295.898
297.572
300.096
303.815
309.157
316.613
326.695
339.874
356.51
376.791
400.713
428.102
458.661
492.037
527.876
565.861
605.725
647.259
690.303
734.733
780.449
827.364
875.388
924.42
974.342
1025.04
1076.56
1128.81
1181.7
1235.1
1288.9
1342.99
1397.22
1451.45
1505.55
1559.38
1612.77
1665.56
1717.57
1768.62
1818.49
1866.97
1913.79
1958.65
2001.18
2040.96
2077.47
2108.98
2136.68
2158.5
2173
2177.93
2066.04
1946.25
1820.93
1692.1
1561.5
1430.66
1300.94
1173.63
1049.98
931.257
818.447
712.9
616.658
531.877
460.47
403.7
361.664
332.961
314.929
304.438
298.716
295.763
294.304
293.603
293.274
293.122
293.054
293.023
293.01
293.004
293.002
293.001
293
293
293
293
293
293
293.004
293.017
293.038
293.075
293.135
293.236
293.401
293.671
294.105
294.794
295.873
297.531
300.032
303.717
309.011
316.402
326.402
339.482
356.004
376.162
399.959
427.225
457.67
490.943
526.694
564.603
604.407
645.895
688.908
733.322
779.039
825.972
874.033
923.124
973.126
1023.93
1075.56
1127.96
1181.01
1234.6
1288.61
1342.92
1397.38
1451.87
1506.24
1560.34
1614
1667.05
1719.32
1770.61
1820.7
1869.35
1916.3
1961.22
2003.72
2043.35
2079.33
2110.18
2136.83
2156.89
2168.51
2168.71
2053.9
1931.71
1804.56
1674.43
1542.99
1411.7
1281.87
1154.78
1031.66
913.739
801.967
697.79
603.286
520.554
451.401
396.919
356.986
330
313.203
303.501
298.236
295.529
294.193
293.552
293.251
293.112
293.049
293.021
293.009
293.004
293.002
293.001
293
293
293
293
293
293
293.004
293.017
293.038
293.074
293.134
293.234
293.398
293.666
294.096
294.779
295.849
297.494
299.974
303.629
308.881
316.217
326.146
339.142
355.568
375.624
399.319
426.487
456.842
490.036
525.72
563.576
603.338
644.798
687.796
732.208
777.938
824.899
873.004
922.156
972.237
1023.14
1074.88
1127.41
1180.62
1234.38
1288.57
1343.07
1397.75
1452.47
1507.07
1561.4
1615.3
1668.58
1721.07
1772.56
1822.82
1871.62
1918.66
1963.61
2006.06
2045.53
2081.13
2111.55
2137.52
2156.51
2166.51
2157.91
2040.98
1917.21
1788.9
1657.96
1526.02
1394.5
1264.72
1137.92
1015.34
898.178
787.361
684.45
591.53
510.649
443.517
391.065
352.976
327.478
311.739
302.708
297.83
295.331
294.1
293.508
293.231
293.103
293.045
293.02
293.008
293.004
293.002
293.001
293
293
293
293
293
293
293.004
293.016
293.038
293.074
293.133
293.233
293.395
293.661
294.088
294.766
295.828
297.46
299.922
303.551
308.767
316.055
325.925
338.85
355.197
375.17
398.781
425.871
456.155
489.29
524.925
562.743
602.479
643.924
686.918
731.338
777.089
824.083
872.235
921.449
971.608
1022.6
1074.45
1127.11
1180.45
1234.35
1288.71
1343.39
1398.26
1453.17
1507.97
1562.5
1616.6
1670.08
1722.75
1774.41
1824.83
1873.74
1920.87
1965.88
2008.35
2047.78
2083.25
2113.55
2139.45
2158.5
2168.88
2145.55
2027.65
1903.07
1774.15
1642.79
1510.62
1379.07
1249.44
1122.99
1000.95
884.492
774.578
672.817
581.312
502.07
436.714
386.042
349.556
325.338
310.502
302.039
297.488
295.164
294.02
293.472
293.214
293.096
293.042
293.018
293.008
293.003
293.001
293.001
293
293
293
293
293
293
293.004
293.016
293.038
293.073
293.133
293.231
293.393
293.657
294.081
294.755
295.809
297.431
299.877
303.484
308.669
315.917
325.736
338.602
354.884
374.788
398.333
425.36
455.59
488.679
524.279
562.071
601.792
643.232
686.23
730.665
776.44
823.471
871.671
920.945
971.177
1022.25
1074.21
1126.97
1180.43
1234.47
1288.97
1343.81
1398.84
1453.91
1508.88
1563.59
1617.86
1671.5
1724.32
1776.12
1826.66
1875.68
1922.89
1967.94
2010.44
2049.88
2085.28
2115.54
2141.42
2160.47
2170.9
2133.43
2014.98
1889.96
1760.7
1629.12
1496.87
1365.37
1235.95
1109.85
988.341
872.54
763.433
662.704
572.459
494.669
430.879
381.756
346.656
323.533
309.462
301.477
297.2
295.023
293.953
293.441
293.2
293.089
293.039
293.017
293.007
293.003
293.001
293.001
293
293
293
293
293
293
293.004
293.016
293.037
293.073
293.132
293.23
293.391
293.653
294.075
294.745
295.793
297.406
299.839
303.426
308.586
315.8
325.578
338.394
354.623
374.472
397.962
424.94
455.128
488.184
523.758
561.535
601.248
642.689
685.696
730.149
775.951
823.018
871.265
920.595
970.895
1022.05
1074.09
1126.95
1180.51
1234.67
1289.3
1344.27
1399.43
1454.65
1509.77
1564.61
1619.02
1672.79
1725.74
1777.65
1828.29
1877.38
1924.65
1969.74
2012.24
2051.64
2087.01
2117.23
2143.07
2162.09
2172.52
2122.6
2003.66
1878.28
1748.78
1617.07
1484.8
1353.41
1224.22
1098.48
977.452
862.22
753.812
653.989
564.852
488.332
425.904
378.123
344.209
322.017
308.591
301.009
296.961
294.906
293.897
293.415
293.188
293.084
293.037
293.016
293.007
293.003
293.001
293.001
293
293
293
293
293
293
293.004
293.016
293.037
293.072
293.131
293.229
293.389
293.65
294.069
294.736
295.78
297.385
299.806
303.378
308.516
315.702
325.445
338.222
354.407
374.211
397.658
424.598
454.754
487.785
523.342
561.108
600.819
642.265
685.285
729.757
775.586
822.687
870.977
920.359
970.719
1021.94
1074.06
1127
1180.66
1234.92
1289.65
1344.73
1400.01
1455.35
1510.58
1565.54
1620.06
1673.94
1726.99
1778.98
1829.68
1878.83
1926.13
1971.23
2013.72
2053.12
2088.43
2118.59
2144.37
2163.36
2173.79
2113.32
1993.9
1868.18
1738.48
1606.69
1474.44
1343.16
1214.17
1088.74
968.118
853.38
745.582
646.55
558.374
482.953
421.698
375.065
342.16
320.753
307.868
300.62
296.762
294.809
293.851
293.393
293.178
293.08
293.035
293.015
293.007
293.003
293.001
293
293
293
293
293
293
293
293.004
293.016
293.037
293.072
293.131
293.228
293.387
293.647
294.065
294.729
295.768
297.367
299.779
303.338
308.458
315.621
325.336
338.081
354.23
373.999
397.413
424.323
454.454
487.466
523.012
560.773
600.485
641.937
684.97
729.461
775.315
822.449
870.777
920.204
970.616
1021.9
1074.08
1127.09
1180.83
1235.17
1290
1345.16
1400.54
1455.97
1511.3
1566.35
1620.95
1674.92
1728.03
1780.09
1830.83
1880.01
1927.31
1972.41
2014.9
2054.27
2089.52
2119.62
2145.36
2164.32
2174.76
2105.54
1985.63
1859.61
1729.72
1597.86
1465.62
1334.44
1205.64
1080.47
960.217
845.904
738.634
640.278
552.921
478.437
418.178
372.516
340.46
319.708
307.271
300.3
296.599
294.729
293.813
293.375
293.17
293.076
293.034
293.015
293.006
293.003
293.001
293
293
293
293
293
293
293
293.004
293.016
293.037
293.072
293.13
293.227
293.386
293.645
294.061
294.723
295.759
297.353
299.757
303.305
308.411
315.556
325.248
337.967
354.088
373.829
397.216
424.104
454.216
487.215
522.753
560.512
600.226
641.686
684.731
729.24
775.117
822.278
870.639
920.105
970.561
1021.89
1074.12
1127.2
1181
1235.41
1290.31
1345.55
1401
1456.5
1511.9
1567.03
1621.69
1675.71
1728.88
1780.96
1831.73
1880.92
1928.24
1973.33
2015.78
2055.11
2090.29
2120.34
2146.04
2165.01
2175.47
2099.14
1978.77
1852.45
1722.39
1590.46
1458.24
1327.15
1198.51
1073.58
953.632
839.679
732.855
635.068
548.4
474.7
415.274
370.42
339.066
318.854
306.785
300.039
296.466
294.664
293.782
293.361
293.164
293.073
293.032
293.014
293.006
293.003
293.001
293
293
293
293
293
293
293
293.004
293.016
293.037
293.072
293.13
293.226
293.385
293.643
294.058
294.718
295.751
297.341
299.739
303.279
308.374
315.504
325.179
337.877
353.977
373.695
397.063
423.932
454.032
487.021
522.554
560.312
600.029
641.497
684.553
729.077
774.972
822.156
870.544
920.042
970.532
1021.9
1074.18
1127.3
1181.15
1235.62
1290.56
1345.86
1401.37
1456.93
1512.38
1567.55
1622.27
1676.32
1729.51
1781.62
1832.41
1881.6
1928.9
1973.96
2016.37
2055.65
2090.76
2120.76
2146.44
2165.43
2175.93
2093.95
1973.13
1846.55
1716.36
1584.38
1452.18
1321.18
1192.68
1067.95
948.26
834.607
728.153
630.835
544.732
471.675
412.927
368.73
337.946
318.17
306.397
299.831
296.36
294.612
293.757
293.349
293.159
293.071
293.031
293.014
293.006
293.002
293.001
293
293
293
293
293
293
293
293.004
293.016
293.037
293.072
293.13
293.226
293.384
293.642
294.056
294.715
295.746
297.332
299.726
303.259
308.345
315.464
325.125
337.808
353.891
373.594
396.946
423.803
453.892
486.875
522.404
560.162
599.883
641.357
684.422
728.958
774.868
822.07
870.479
920
970.517
1021.91
1074.22
1127.38
1181.27
1235.77
1290.76
1346.1
1401.64
1457.24
1512.73
1567.93
1622.67
1676.75
1729.96
1782.08
1832.86
1882.04
1929.31
1974.33
2016.69
2055.92
2090.97
2120.93
2146.6
2165.64
2176.23
2089.86
1968.65
1841.83
1711.52
1579.51
1447.34
1316.42
1188.05
1063.5
944.017
830.608
724.453
627.51
541.858
469.309
411.097
367.415
337.075
317.638
306.094
299.67
296.278
294.572
293.738
293.341
293.154
293.069
293.03
293.013
293.006
293.002
293.001
293
293
293
293
293
293
293
293.004
293.016
293.037
293.071
293.129
293.225
293.383
293.64
294.054
294.712
295.741
297.325
299.716
303.244
308.324
315.435
325.087
337.758
353.83
373.52
396.862
423.71
453.792
486.771
522.298
560.056
599.78
641.258
684.33
728.874
774.796
822.01
870.434
919.971
970.506
1021.92
1074.25
1127.43
1181.35
1235.87
1290.89
1346.25
1401.82
1457.45
1512.96
1568.18
1622.94
1677.03
1730.24
1782.35
1833.11
1882.26
1929.49
1974.47
2016.78
2055.95
2090.95
2120.88
2146.55
2165.65
2176.37
2086.8
1965.23
1838.21
1707.82
1575.79
1443.66
1312.82
1184.56
1060.15
940.843
827.626
721.7
625.044
539.731
467.563
409.751
366.451
336.437
317.248
305.872
299.551
296.217
294.542
293.724
293.334
293.151
293.068
293.03
293.013
293.006
293.002
293.001
293
293
293
293
293
293
293
293.004
293.016
293.037
293.071
293.129
293.225
293.383
293.64
294.053
294.71
295.739
297.321
299.709
303.235
308.31
315.416
325.062
337.726
353.79
373.473
396.808
423.65
453.728
486.704
522.229
559.988
599.713
641.195
684.271
728.821
774.75
821.972
870.405
919.951
970.497
1021.92
1074.27
1127.46
1181.39
1235.93
1290.96
1346.34
1401.93
1457.56
1513.08
1568.31
1623.07
1677.15
1730.35
1782.45
1833.19
1882.31
1929.5
1974.43
2016.7
2055.83
2090.8
2120.71
2146.41
2165.58
2176.41
2084.56
1962.78
1835.66
1705.22
1573.2
1441.12
1310.35
1182.19
1057.89
938.707
825.628
719.866
623.406
538.325
466.415
408.869
365.822
336.023
316.995
305.728
299.473
296.177
294.523
293.715
293.33
293.15
293.067
293.029
293.013
293.006
293.002
293.001
293
293
293
293
293
293
293
293.004
293.016
293.037
293.071
293.129
293.225
293.383
293.64
294.053
294.709
295.737
297.319
299.706
303.23
308.304
315.407
325.05
337.711
353.771
373.451
396.782
423.621
453.697
486.672
522.197
559.956
599.682
641.164
684.243
728.796
774.727
821.953
870.39
919.942
970.491
1021.92
1074.27
1127.47
1181.4
1235.95
1290.99
1346.37
1401.96
1457.6
1513.12
1568.35
1623.1
1677.18
1730.37
1782.45
1833.17
1882.26
1929.43
1974.33
2016.57
2055.67
2090.66
2120.62
2146.45
2165.94
2177.37
2083.84
1961.68
1834.37
1703.87
1571.85
1439.8
1309.08
1180.97
1056.74
937.633
824.634
718.962
622.607
537.644
465.863
408.449
365.525
335.829
316.878
305.661
299.437
296.159
294.514
293.711
293.328
293.149
293.066
293.029
293.013
293.005
293.002
293.001
293
293
293
293
293
293
293
293.004
293.016
293.037
293.071
293.129
293.225
293.383
293.64
294.053
294.709
295.737
297.319
299.706
303.23
308.304
315.407
325.05
337.711
353.771
373.451
396.782
423.621
453.697
486.672
522.197
559.956
599.682
641.165
684.243
728.796
774.728
821.954
870.39
919.942
970.492
1021.92
1074.27
1127.47
1181.4
1235.95
1290.99
1346.37
1401.96
1457.6
1513.12
1568.35
1623.11
1677.18
1730.37
1782.45
1833.17
1882.26
1929.43
1974.33
2016.57
2055.67
2090.66
2120.62
2146.46
2165.94
2177.37
2083.83
1961.67
1834.37
1703.87
1571.85
1439.8
1309.08
1180.97
1056.74
937.633
824.634
718.962
622.607
537.644
465.863
408.449
365.526
335.83
316.878
305.661
299.437
296.159
294.514
293.711
293.328
293.149
293.066
293.029
293.013
293.005
293.002
293.001
293
293
293
293
293
293
293
293.004
293.016
293.037
293.071
293.129
293.225
293.383
293.64
294.053
294.71
295.739
297.321
299.709
303.235
308.311
315.416
325.062
337.726
353.79
373.473
396.808
423.65
453.728
486.704
522.23
559.989
599.714
641.195
684.272
728.822
774.75
821.973
870.405
919.952
970.498
1021.93
1074.27
1127.46
1181.39
1235.93
1290.96
1346.34
1401.93
1457.56
1513.08
1568.32
1623.07
1677.16
1730.36
1782.45
1833.19
1882.31
1929.51
1974.44
2016.7
2055.83
2090.8
2120.71
2146.41
2165.58
2176.41
2084.56
1962.79
1835.66
1705.22
1573.21
1441.12
1310.36
1182.19
1057.89
938.708
825.629
719.867
623.407
538.326
466.416
408.87
365.823
336.024
316.995
305.728
299.473
296.177
294.523
293.715
293.33
293.15
293.067
293.029
293.013
293.006
293.002
293.001
293
293
293
293
293
293
293
293.004
293.016
293.037
293.071
293.129
293.225
293.383
293.64
294.054
294.712
295.741
297.325
299.716
303.244
308.324
315.435
325.087
337.759
353.83
373.521
396.862
423.71
453.793
486.772
522.299
560.057
599.781
641.259
684.331
728.876
774.797
822.012
870.435
919.972
970.507
1021.92
1074.26
1127.43
1181.35
1235.88
1290.89
1346.25
1401.83
1457.45
1512.96
1568.19
1622.94
1677.03
1730.24
1782.35
1833.11
1882.26
1929.5
1974.47
2016.79
2055.95
2090.95
2120.88
2146.55
2165.65
2176.37
2086.81
1965.24
1838.22
1707.82
1575.79
1443.67
1312.83
1184.57
1060.15
940.846
827.628
721.703
625.046
539.733
467.565
409.753
366.452
336.438
317.248
305.873
299.551
296.217
294.542
293.724
293.334
293.151
293.068
293.03
293.013
293.006
293.002
293.001
293
293
293
293
293
293
293
293.004
293.016
293.037
293.072
293.13
293.226
293.384
293.642
294.056
294.715
295.746
297.332
299.726
303.259
308.345
315.464
325.126
337.809
353.892
373.594
396.947
423.804
453.893
486.876
522.406
560.164
599.885
641.358
684.424
728.959
774.87
822.072
870.481
920.002
970.519
1021.92
1074.23
1127.38
1181.27
1235.77
1290.76
1346.1
1401.65
1457.24
1512.73
1567.94
1622.68
1676.76
1729.97
1782.09
1832.87
1882.05
1929.32
1974.34
2016.7
2055.92
2090.98
2120.94
2146.61
2165.65
2176.24
2089.87
1968.66
1841.84
1711.53
1579.51
1447.35
1316.43
1188.06
1063.5
944.022
830.612
724.456
627.513
541.861
469.311
411.099
367.417
337.076
317.638
306.095
299.67
296.278
294.572
293.738
293.341
293.154
293.069
293.03
293.013
293.006
293.002
293.001
293
293
293
293
293
293
293
293.004
293.016
293.037
293.072
293.13
293.226
293.385
293.643
294.058
294.718
295.751
297.341
299.739
303.279
308.374
315.504
325.179
337.878
353.977
373.696
397.064
423.934
454.033
487.023
522.555
560.313
600.031
641.499
684.555
729.079
774.974
822.158
870.547
920.044
970.535
1021.9
1074.18
1127.3
1181.16
1235.62
1290.57
1345.87
1401.37
1456.93
1512.39
1567.56
1622.27
1676.33
1729.52
1781.63
1832.42
1881.61
1928.91
1973.97
2016.38
2055.66
2090.77
2120.77
2146.45
2165.44
2175.94
2093.95
1973.14
1846.56
1716.37
1584.38
1452.19
1321.19
1192.69
1067.96
948.266
834.613
728.158
630.84
544.736
471.678
412.93
368.733
337.947
318.17
306.397
299.832
296.36
294.612
293.757
293.349
293.159
293.071
293.031
293.014
293.006
293.002
293.001
293
293
293
293
293
293
293
293.004
293.016
293.037
293.072
293.13
293.227
293.386
293.645
294.061
294.723
295.759
297.353
299.757
303.305
308.411
315.556
325.249
337.968
354.089
373.83
397.218
424.105
454.218
487.217
522.755
560.514
600.228
641.688
684.734
729.243
775.119
822.281
870.642
920.108
970.564
1021.89
1074.13
1127.2
1181.01
1235.42
1290.31
1345.55
1401
1456.51
1511.91
1567.03
1621.7
1675.72
1728.89
1780.97
1831.74
1880.93
1928.25
1973.34
2015.79
2055.12
2090.3
2120.35
2146.05
2165.03
2175.48
2099.15
1978.78
1852.46
1722.4
1590.47
1458.25
1327.16
1198.52
1073.59
953.64
839.687
732.862
635.075
548.406
474.705
415.278
370.422
339.068
318.855
306.786
300.04
296.466
294.664
293.782
293.361
293.164
293.073
293.032
293.014
293.006
293.003
293.001
293
293
293
293
293
293
293
293.004
293.016
293.037
293.072
293.131
293.228
293.387
293.647
294.065
294.729
295.768
297.367
299.779
303.338
308.458
315.622
325.337
338.082
354.231
374
397.414
424.324
454.456
487.468
523.014
560.775
600.487
641.94
684.973
729.464
775.318
822.452
870.78
920.208
970.62
1021.9
1074.08
1127.1
1180.84
1235.18
1290
1345.17
1400.55
1455.98
1511.3
1566.36
1620.96
1674.93
1728.04
1780.1
1830.84
1880.02
1927.32
1972.42
2014.91
2054.28
2089.53
2119.64
2145.37
2164.34
2174.78
2105.55
1985.65
1859.62
1729.74
1597.87
1465.63
1334.45
1205.65
1080.49
960.227
845.913
738.642
640.286
552.928
478.443
418.183
372.519
340.462
319.709
307.272
300.3
296.599
294.729
293.813
293.375
293.17
293.076
293.034
293.015
293.006
293.003
293.001
293
293
293
293
293
293
293
293.004
293.016
293.037
293.072
293.131
293.229
293.389
293.65
294.069
294.736
295.78
297.385
299.806
303.378
308.516
315.703
325.446
338.223
354.408
374.212
397.66
424.6
454.756
487.787
523.344
561.111
600.822
642.268
685.288
729.76
775.589
822.691
870.981
920.363
970.723
1021.95
1074.06
1127.01
1180.67
1234.92
1289.66
1344.74
1400.02
1455.35
1510.59
1565.55
1620.07
1673.95
1727
1778.99
1829.7
1878.85
1926.14
1971.24
2013.73
2053.14
2088.45
2118.61
2144.39
2163.38
2173.81
2113.34
1993.91
1868.2
1738.49
1606.7
1474.45
1343.17
1214.18
1088.75
968.129
853.391
745.592
646.56
558.382
482.96
421.703
375.068
342.163
320.755
307.869
300.62
296.762
294.809
293.851
293.393
293.178
293.08
293.035
293.015
293.007
293.003
293.001
293
293
293
293
293
293
293
293.004
293.016
293.037
293.073
293.132
293.23
293.391
293.653
294.075
294.745
295.793
297.406
299.839
303.426
308.586
315.801
325.578
338.395
354.624
374.473
397.964
424.942
455.131
488.186
523.761
561.538
601.251
642.692
685.7
730.153
775.955
823.022
871.269
920.6
970.9
1022.05
1074.09
1126.95
1180.52
1234.68
1289.31
1344.28
1399.44
1454.66
1509.78
1564.62
1619.03
1672.81
1725.76
1777.67
1828.3
1877.4
1924.67
1969.76
2012.25
2051.66
2087.03
2117.26
2143.09
2162.12
2172.54
2122.62
2003.68
1878.3
1748.79
1617.08
1484.82
1353.43
1224.24
1098.5
977.466
862.233
753.824
654
564.861
488.34
425.91
378.127
344.212
322.019
308.593
301.009
296.961
294.906
293.897
293.415
293.188
293.084
293.037
293.016
293.007
293.003
293.001
293.001
293
293
293
293
293
293
293.004
293.016
293.038
293.073
293.133
293.231
293.393
293.657
294.081
294.755
295.809
297.431
299.877
303.484
308.67
315.918
325.737
338.603
354.885
374.79
398.335
425.362
455.593
488.682
524.282
562.075
601.796
643.236
686.234
730.67
776.445
823.475
871.676
920.95
971.183
1022.26
1074.21
1126.97
1180.44
1234.48
1288.98
1343.82
1398.84
1453.92
1508.89
1563.6
1617.87
1671.51
1724.34
1776.14
1826.68
1875.7
1922.91
1967.96
2010.46
2049.9
2085.31
2115.56
2141.44
2160.5
2170.93
2133.45
2015.01
1889.98
1760.72
1629.14
1496.89
1365.39
1235.97
1109.87
988.358
872.559
763.447
662.715
572.469
494.678
430.885
381.761
346.659
323.535
309.463
301.478
297.201
295.023
293.953
293.441
293.2
293.089
293.039
293.017
293.007
293.003
293.001
293.001
293
293
293
293
293
293
293.004
293.016
293.038
293.074
293.133
293.233
293.395
293.661
294.088
294.766
295.828
297.461
299.922
303.551
308.768
316.056
325.926
338.851
355.198
375.171
398.783
425.873
456.158
489.293
524.928
562.746
602.483
643.928
686.922
731.343
777.093
824.088
872.24
921.454
971.614
1022.6
1074.46
1127.11
1180.45
1234.36
1288.72
1343.4
1398.27
1453.18
1507.98
1562.52
1616.61
1670.1
1722.77
1774.43
1824.84
1873.76
1920.89
1965.9
2008.37
2047.81
2083.28
2113.58
2139.48
2158.54
2168.92
2145.57
2027.67
1903.1
1774.17
1642.81
1510.64
1379.08
1249.45
1123
1000.96
884.502
774.591
672.83
581.323
502.079
436.721
386.047
349.56
325.341
310.503
302.039
297.488
295.164
294.02
293.472
293.214
293.096
293.042
293.018
293.008
293.003
293.001
293.001
293
293
293
293
293
293
293.004
293.017
293.038
293.074
293.134
293.234
293.398
293.666
294.096
294.78
295.849
297.494
299.974
303.629
308.882
316.217
326.147
339.143
355.57
375.626
399.321
426.49
456.845
490.04
525.724
563.58
603.342
644.803
687.801
732.213
777.943
824.904
873.01
922.162
972.244
1023.14
1074.89
1127.42
1180.62
1234.39
1288.58
1343.08
1397.76
1452.48
1507.08
1561.41
1615.31
1668.6
1721.09
1772.58
1822.84
1871.64
1918.68
1963.63
2006.09
2045.56
2081.16
2111.58
2137.55
2156.55
2166.55
2157.92
2041
1917.23
1788.92
1657.98
1526.03
1394.52
1264.74
1137.94
1015.36
898.193
787.376
684.463
591.542
510.659
443.525
391.071
352.98
327.481
311.741
302.709
297.831
295.331
294.1
293.508
293.231
293.103
293.045
293.02
293.008
293.004
293.002
293.001
293
293
293
293
293
293
293.004
293.017
293.038
293.075
293.135
293.236
293.401
293.671
294.105
294.794
295.873
297.531
300.032
303.717
309.011
316.403
326.403
339.483
356.005
376.164
399.961
427.228
457.673
490.947
526.698
564.607
604.411
645.9
688.913
733.327
779.045
825.978
874.04
923.13
973.132
1023.93
1075.57
1127.97
1181.02
1234.61
1288.62
1342.93
1397.39
1451.88
1506.25
1560.35
1614.01
1667.07
1719.34
1770.63
1820.72
1869.37
1916.32
1961.24
2003.75
2043.38
2079.36
2110.21
2136.86
2156.92
2168.54
2168.73
2053.92
1931.73
1804.58
1674.45
1543.01
1411.71
1281.89
1154.8
1031.67
913.754
801.981
697.803
603.298
520.565
451.409
396.925
356.99
330.003
313.205
303.501
298.236
295.529
294.194
293.552
293.251
293.112
293.049
293.021
293.009
293.004
293.002
293.001
293
293
293
293
293
293
293.004
293.017
293.039
293.075
293.136
293.238
293.405
293.676
294.114
294.81
295.898
297.572
300.096
303.815
309.158
316.614
326.696
339.876
356.512
376.793
400.716
428.105
458.664
492.041
527.88
565.865
605.73
647.264
690.308
734.739
780.455
827.37
875.394
924.427
974.349
1025.05
1076.57
1128.82
1181.71
1235.11
1288.91
1343
1397.23
1451.46
1505.57
1559.39
1612.78
1665.57
1717.58
1768.63
1818.51
1866.99
1913.81
1958.67
2001.21
2040.99
2077.49
2109.01
2136.71
2158.53
2173.03
2177.95
2066.06
1946.27
1820.95
1692.11
1561.52
1430.68
1300.96
1173.65
1050
931.273
818.463
712.915
616.671
531.889
460.479
403.707
361.669
332.965
314.931
304.439
298.716
295.763
294.304
293.603
293.274
293.122
293.054
293.023
293.01
293.004
293.002
293.001
293
293
293
293
293
293
293.004
293.017
293.039
293.076
293.138
293.24
293.408
293.682
294.124
294.826
295.925
297.615
300.164
303.921
309.317
316.846
327.023
340.319
357.091
377.521
401.598
429.139
459.843
493.351
529.309
567.396
607.346
648.949
692.045
736.509
782.241
829.15
877.145
926.125
975.969
1026.57
1077.96
1130.06
1182.77
1235.97
1289.55
1343.38
1397.34
1451.3
1505.1
1558.62
1611.7
1664.18
1715.89
1766.66
1816.28
1864.54
1911.2
1955.96
1998.49
2038.36
2075.08
2107.22
2134.76
2157.43
2172.88
2178.8
2074.9
1960
1837.78
1710.95
1581.6
1451.46
1322
1194.55
1070.4
950.839
836.925
729.906
631.779
544.752
470.845
411.508
367.082
336.406
316.94
305.527
299.271
296.032
294.431
293.661
293.3
293.134
293.059
293.025
293.011
293.005
293.002
293.001
293
293
293
293
293
293
293.004
293.017
293.039
293.076
293.138
293.241
293.411
293.687
294.133
294.841
295.951
297.66
300.236
304.034
309.49
317.103
327.389
340.822
357.753
378.359
402.622
430.35
461.234
494.91
531.02
569.241
609.307
651.007
694.179
738.699
784.463
831.381
879.359
928.293
978.06
1028.56
1079.82
1131.76
1184.28
1237.26
1290.59
1344.15
1397.81
1451.46
1504.94
1558.12
1610.85
1662.98
1714.35
1764.79
1814.1
1862.09
1908.5
1953.08
1995.48
2035.32
2072.04
2104.33
2131.97
2154.91
2170.74
2177.25
2092.28
1978.78
1857.95
1732.31
1603.86
1474.29
1345.05
1217.47
1092.83
972.411
857.353
748.797
648.666
559.216
482.581
420.409
373.313
340.399
319.287
306.803
299.921
296.347
294.578
293.728
293.329
293.147
293.064
293.028
293.012
293.005
293.002
293.001
293
293
293
293
293
293
293.004
293.017
293.039
293.077
293.139
293.243
293.413
293.691
294.14
294.854
295.973
297.697
300.299
304.138
309.656
317.357
327.765
341.353
358.472
379.293
403.785
431.746
462.857
496.748
533.053
571.448
611.666
653.494
696.769
741.366
787.181
834.119
882.087
930.977
980.667
1031.06
1082.18
1133.96
1186.27
1239.02
1292.08
1345.35
1398.7
1452
1505.12
1557.94
1610.3
1662.05
1713.05
1763.13
1812.09
1859.75
1905.87
1950.19
1992.38
2032.05
2068.71
2101.14
2128.86
2151.95
2168.17
2175.53
2112.86
1999.98
1880
1755.21
1627.5
1498.45
1369.48
1241.85
1116.8
995.608
879.45
769.385
667.205
575.207
495.642
430.37
380.306
344.876
321.899
308.206
300.625
296.682
294.732
293.797
293.36
293.16
293.07
293.03
293.013
293.005
293.002
293.001
293
293
293
293
293
293
293.004
293.017
293.039
293.077
293.139
293.243
293.414
293.693
294.144
294.863
295.992
297.733
300.364
304.249
309.838
317.643
328.194
341.965
359.307
380.38
405.144
433.383
464.764
498.909
535.448
574.051
614.448
656.427
699.823
744.509
790.38
837.341
885.295
934.134
983.734
1034.01
1084.98
1136.57
1188.67
1241.16
1293.95
1346.91
1399.94
1452.89
1505.65
1558.1
1610.08
1661.46
1712.08
1761.79
1810.4
1857.72
1903.52
1947.55
1989.48
2028.94
2065.44
2097.85
2125.63
2148.83
2165.2
2172.94
2132.47
2020.43
1901.39
1777.53
1650.66
1522.29
1393.76
1266.3
1141.1
1019.37
902.313
790.93
686.865
592.4
509.893
441.41
388.184
349.995
324.921
309.839
301.443
297.069
294.909
293.876
293.394
293.174
293.076
293.033
293.014
293.006
293.002
293.001
293
293
293
293
293
293
293.004
293.017
293.039
293.077
293.139
293.242
293.412
293.691
294.141
294.859
295.988
297.734
300.378
304.293
309.937
317.833
328.522
342.487
360.078
381.449
406.543
435.125
466.845
501.307
538.129
576.976
617.575
659.712
703.225
747.986
793.893
840.85
888.762
937.521
987.004
1037.13
1087.93
1139.32