/*--------------------------------*- C++ -*----------------------------------*\
  =========                 |
  \\      /  F ield         | OpenFOAM: The Open Source CFD Toolbox
   \\    /   O peration     | Website:  https://openfoam.org
    \\  /    A nd           | Version:  8
     \\/     M anipulation  |
\*---------------------------------------------------------------------------*/
FoamFile
{
    version     2.0;
    format      ascii;
    class       volVectorField;
    location    "840/fluid";
    object      U;
}
// * * * * * * * * * * * * * * * * * * * * * * * * * * * * * * * * * * * * * //

dimensions      [0 1 -1 0 0 0 0];

internalField   nonuniform List<vector> 
4000
(
(0.0999453 -0.00705655 0)
(0.099648 -0.0210026 0)
(0.0991682 -0.0348391 0)
(0.0985054 -0.0486002 0)
(0.0976514 -0.0623026 0)
(0.0965886 -0.0759489 0)
(0.0952962 -0.0895286 0)
(0.0937547 -0.103021 0)
(0.0919487 -0.1164 0)
(0.0898694 -0.129634 0)
(0.0875186 -0.142698 0)
(0.084912 -0.155572 0)
(0.0820837 -0.168245 0)
(0.0790929 -0.180703 0)
(0.0760181 -0.192994 0)
(0.0729321 -0.205187 0)
(0.0698854 -0.217342 0)
(0.0668953 -0.229501 0)
(0.0639376 -0.241677 0)
(0.0609482 -0.253841 0)
(0.0578347 -0.26593 0)
(0.0544961 -0.277855 0)
(0.0508429 -0.289505 0)
(0.0468186 -0.300753 0)
(0.0423982 -0.311503 0)
(0.0375745 -0.321692 0)
(0.0323537 -0.331256 0)
(0.0267536 -0.340138 0)
(0.0208003 -0.348291 0)
(0.0145254 -0.35568 0)
(0.00796278 -0.362281 0)
(0.0011483 -0.368082 0)
(-0.00588081 -0.373079 0)
(-0.0130882 -0.37728 0)
(-0.0204409 -0.380695 0)
(-0.0279089 -0.383346 0)
(-0.0354647 -0.385257 0)
(-0.0430824 -0.38646 0)
(-0.050737 -0.386989 0)
(-0.0584052 -0.386884 0)
(-0.0660651 -0.386186 0)
(-0.0736956 -0.38494 0)
(-0.081277 -0.383193 0)
(-0.08879 -0.380991 0)
(-0.0962163 -0.378383 0)
(-0.103538 -0.37542 0)
(-0.110736 -0.372151 0)
(-0.117795 -0.368628 0)
(-0.124694 -0.364903 0)
(-0.131417 -0.361029 0)
(-0.137945 -0.357059 0)
(-0.144257 -0.353051 0)
(-0.150334 -0.349061 0)
(-0.156151 -0.345153 0)
(-0.161686 -0.341393 0)
(-0.166909 -0.337855 0)
(-0.17178 -0.334621 0)
(-0.176248 -0.331777 0)
(-0.180286 -0.329425 0)
(-0.183933 -0.327718 0)
(-0.187255 -0.326936 0)
(-0.189629 -0.327432 0)
(-0.188955 -0.329045 0)
(-0.184067 -0.330034 0)
(-0.177026 -0.329306 0)
(-0.169555 -0.326987 0)
(-0.161852 -0.323368 0)
(-0.153855 -0.318591 0)
(-0.145584 -0.312715 0)
(-0.13711 -0.305776 0)
(-0.128512 -0.297804 0)
(-0.119876 -0.288833 0)
(-0.111287 -0.278903 0)
(-0.102842 -0.26806 0)
(-0.0946859 -0.256364 0)
(-0.087062 -0.243925 0)
(-0.0802981 -0.230941 0)
(-0.0747629 -0.217693 0)
(-0.0708323 -0.204744 0)
(-0.0688027 -0.192605 0)
(-0.0687084 -0.18152 0)
(-0.0702513 -0.171401 0)
(-0.0729173 -0.161942 0)
(-0.076169 -0.152808 0)
(-0.0795783 -0.143759 0)
(-0.0828637 -0.134649 0)
(-0.0858531 -0.125382 0)
(-0.0884787 -0.116001 0)
(-0.0907387 -0.106556 0)
(-0.0926575 -0.0970785 0)
(-0.0942689 -0.0876002 0)
(-0.0956081 -0.0781481 0)
(-0.0967092 -0.0687434 0)
(-0.0976039 -0.0594002 0)
(-0.0983207 -0.0501251 0)
(-0.0988849 -0.0409186 0)
(-0.0993183 -0.0317736 0)
(-0.099638 -0.0226732 0)
(-0.0998559 -0.0135996 0)
(-0.0999821 -0.00453934 0)
(0.0999999 -0.00661728 0)
(0.0997935 -0.0197989 0)
(0.0993666 -0.0328997 0)
(0.0986952 -0.0458972 0)
(0.0977807 -0.0587716 0)
(0.0966187 -0.0715005 0)
(0.0952 -0.0840559 0)
(0.0935164 -0.0964057 0)
(0.0915659 -0.108517 0)
(0.0893557 -0.120361 0)
(0.0869054 -0.131917 0)
(0.0842495 -0.143183 0)
(0.0814386 -0.154191 0)
(0.0785396 -0.165023 0)
(0.0756256 -0.175741 0)
(0.0727632 -0.186404 0)
(0.0699985 -0.197086 0)
(0.0673434 -0.207855 0)
(0.0647671 -0.21875 0)
(0.0621963 -0.229771 0)
(0.0595271 -0.240869 0)
(0.0566442 -0.251967 0)
(0.0534415 -0.262969 0)
(0.0498371 -0.273793 0)
(0.0457833 -0.284322 0)
(0.0412619 -0.294424 0)
(0.0362756 -0.303995 0)
(0.0308446 -0.312958 0)
(0.0250004 -0.321253 0)
(0.0187811 -0.328842 0)
(0.0122278 -0.335696 0)
(0.00538202 -0.3418 0)
(-0.00171554 -0.34715 0)
(-0.00902543 -0.35175 0)
(-0.0165103 -0.355612 0)
(-0.0241356 -0.358755 0)
(-0.0318698 -0.361201 0)
(-0.0396842 -0.36298 0)
(-0.0475521 -0.364123 0)
(-0.0554484 -0.364665 0)
(-0.0633496 -0.364644 0)
(-0.071234 -0.364101 0)
(-0.0790808 -0.363079 0)
(-0.0868706 -0.36162 0)
(-0.0945847 -0.359771 0)
(-0.102205 -0.357578 0)
(-0.109714 -0.355087 0)
(-0.117096 -0.352348 0)
(-0.124332 -0.349408 0)
(-0.131406 -0.346317 0)
(-0.138302 -0.343125 0)
(-0.145002 -0.339884 0)
(-0.15149 -0.336645 0)
(-0.157747 -0.333462 0)
(-0.163757 -0.33039 0)
(-0.169497 -0.327485 0)
(-0.174935 -0.324803 0)
(-0.180029 -0.322398 0)
(-0.184781 -0.320321 0)
(-0.189291 -0.318625 0)
(-0.193665 -0.317361 0)
(-0.196939 -0.316517 0)
(-0.196473 -0.315595 0)
(-0.191144 -0.313997 0)
(-0.183596 -0.311516 0)
(-0.175748 -0.308048 0)
(-0.16776 -0.303543 0)
(-0.159501 -0.297978 0)
(-0.150959 -0.291338 0)
(-0.142183 -0.283612 0)
(-0.133233 -0.274802 0)
(-0.124174 -0.264923 0)
(-0.115071 -0.254015 0)
(-0.105994 -0.242156 0)
(-0.0970934 -0.229503 0)
(-0.0886471 -0.216335 0)
(-0.0810482 -0.203108 0)
(-0.0747585 -0.190453 0)
(-0.0702346 -0.178787 0)
(-0.0677684 -0.168382 0)
(-0.0673331 -0.159251 0)
(-0.0685721 -0.151124 0)
(-0.0709554 -0.143591 0)
(-0.0739663 -0.136291 0)
(-0.077207 -0.128988 0)
(-0.0804181 -0.121575 0)
(-0.0834576 -0.114045 0)
(-0.0862397 -0.106312 0)
(-0.0887291 -0.0983499 0)
(-0.09092 -0.0901896 0)
(-0.0928203 -0.0818708 0)
(-0.0944462 -0.0734318 0)
(-0.095818 -0.0649063 0)
(-0.0969578 -0.0563214 0)
(-0.0978877 -0.0476983 0)
(-0.0986286 -0.0390523 0)
(-0.0991981 -0.0303924 0)
(-0.0996081 -0.0217191 0)
(-0.0998665 -0.0130335 0)
(-0.0999951 -0.00434566 0)
(0.0999787 -0.00633774 0)
(0.0997139 -0.0189502 0)
(0.099195 -0.0314793 0)
(0.0984033 -0.0438999 0)
(0.0973425 -0.0561886 0)
(0.0960137 -0.0683222 0)
(0.0944163 -0.0802761 0)
(0.0925533 -0.0920245 0)
(0.090435 -0.103544 0)
(0.0880816 -0.114817 0)
(0.0855254 -0.125831 0)
(0.0828126 -0.136588 0)
(0.0800017 -0.147103 0)
(0.0771575 -0.15741 0)
(0.0743455 -0.167561 0)
(0.0716276 -0.177632 0)
(0.0690488 -0.187703 0)
(0.0666216 -0.197843 0)
(0.0643156 -0.208099 0)
(0.0620575 -0.218476 0)
(0.0597426 -0.228938 0)
(0.0572525 -0.239416 0)
(0.0544742 -0.249815 0)
(0.0513119 -0.260033 0)
(0.0476956 -0.269969 0)
(0.0435879 -0.279531 0)
(0.0389808 -0.288638 0)
(0.0338883 -0.29722 0)
(0.0283384 -0.305221 0)
(0.0223676 -0.312596 0)
(0.0160164 -0.319315 0)
(0.00932666 -0.325357 0)
(0.00234004 -0.330711 0)
(-0.00490286 -0.335378 0)
(-0.0123635 -0.339362 0)
(-0.020006 -0.342678 0)
(-0.0277973 -0.345343 0)
(-0.0357074 -0.347383 0)
(-0.0437083 -0.348825 0)
(-0.051774 -0.349698 0)
(-0.0598802 -0.350039 0)
(-0.0680043 -0.349882 0)
(-0.0761251 -0.349267 0)
(-0.0842228 -0.348233 0)
(-0.0922788 -0.346822 0)
(-0.100276 -0.345077 0)
(-0.108196 -0.34304 0)
(-0.116025 -0.340756 0)
(-0.123747 -0.338268 0)
(-0.131347 -0.335621 0)
(-0.138813 -0.33286 0)
(-0.146131 -0.33003 0)
(-0.153289 -0.327174 0)
(-0.160276 -0.324335 0)
(-0.167079 -0.321556 0)
(-0.173686 -0.318875 0)
(-0.180065 -0.316329 0)
(-0.186179 -0.313942 0)
(-0.192043 -0.311734 0)
(-0.197772 -0.30972 0)
(-0.203351 -0.307905 0)
(-0.207243 -0.306228 0)
(-0.206496 -0.30405 0)
(-0.200555 -0.301097 0)
(-0.192505 -0.297454 0)
(-0.184102 -0.293044 0)
(-0.175489 -0.287764 0)
(-0.166564 -0.281554 0)
(-0.157325 -0.274384 0)
(-0.147817 -0.266248 0)
(-0.138094 -0.257166 0)
(-0.128214 -0.247188 0)
(-0.118237 -0.236401 0)
(-0.10825 -0.224937 0)
(-0.0984464 -0.213001 0)
(-0.0891671 -0.20088 0)
(-0.0808753 -0.18894 0)
(-0.0740991 -0.177587 0)
(-0.069302 -0.167189 0)
(-0.0667053 -0.157953 0)
(-0.0661858 -0.149828 0)
(-0.0673256 -0.142528 0)
(-0.0695841 -0.135681 0)
(-0.0724623 -0.128971 0)
(-0.0755844 -0.122192 0)
(-0.0787095 -0.11524 0)
(-0.0817068 -0.108083 0)
(-0.0845102 -0.100732 0)
(-0.087082 -0.0932059 0)
(-0.0894037 -0.085524 0)
(-0.0914706 -0.0777074 0)
(-0.0932859 -0.069777 0)
(-0.0948578 -0.0617528 0)
(-0.0961974 -0.0536529 0)
(-0.097317 -0.0454928 0)
(-0.0982292 -0.037286 0)
(-0.0989451 -0.0290426 0)
(-0.0994714 -0.0207668 0)
(-0.099812 -0.012466 0)
(-0.0999872 -0.0041572 0)
(0.0999835 -0.00598299 0)
(0.0997144 -0.0178897 0)
(0.0991783 -0.0297081 0)
(0.0983557 -0.041407 0)
(0.0972552 -0.0529581 0)
(0.0958838 -0.0643348 0)
(0.0942466 -0.0755105 0)
(0.0923524 -0.0864592 0)
(0.0902159 -0.0971587 0)
(0.0878601 -0.107592 0)
(0.085318 -0.117752 0)
(0.0826341 -0.127643 0)
(0.0798649 -0.13729 0)
(0.0770764 -0.146733 0)
(0.0743394 -0.156037 0)
(0.0717186 -0.165278 0)
(0.0692592 -0.174539 0)
(0.0669729 -0.183893 0)
(0.0648278 -0.19339 0)
(0.0627492 -0.203041 0)
(0.0606295 -0.212819 0)
(0.058347 -0.22266 0)
(0.0557849 -0.232478 0)
(0.0528463 -0.242178 0)
(0.0494622 -0.25166 0)
(0.0455927 -0.260832 0)
(0.0412241 -0.269611 0)
(0.0363628 -0.277928 0)
(0.0310301 -0.285727 0)
(0.0252564 -0.292964 0)
(0.0190772 -0.299607 0)
(0.0125306 -0.305633 0)
(0.00565478 -0.311031 0)
(-0.00151197 -0.315797 0)
(-0.00893275 -0.319935 0)
(-0.0165727 -0.323454 0)
(-0.0243997 -0.326369 0)
(-0.0323842 -0.328701 0)
(-0.0404987 -0.330473 0)
(-0.0487176 -0.331712 0)
(-0.0570171 -0.332447 0)
(-0.0653749 -0.33271 0)
(-0.0737702 -0.332536 0)
(-0.0821837 -0.331959 0)
(-0.0905974 -0.331017 0)
(-0.0989941 -0.329746 0)
(-0.107358 -0.328184 0)
(-0.115673 -0.326371 0)
(-0.123927 -0.324343 0)
(-0.132106 -0.322138 0)
(-0.140198 -0.319795 0)
(-0.148191 -0.317347 0)
(-0.156074 -0.314831 0)
(-0.163836 -0.312276 0)
(-0.171465 -0.309711 0)
(-0.178944 -0.307159 0)
(-0.186232 -0.304638 0)
(-0.193281 -0.302153 0)
(-0.200115 -0.299702 0)
(-0.206853 -0.297288 0)
(-0.213319 -0.294904 0)
(-0.217333 -0.29249 0)
(-0.215863 -0.28932 0)
(-0.209212 -0.285343 0)
(-0.200717 -0.280753 0)
(-0.191785 -0.275507 0)
(-0.182505 -0.269512 0)
(-0.172826 -0.262707 0)
(-0.162781 -0.255069 0)
(-0.152435 -0.246598 0)
(-0.141862 -0.237326 0)
(-0.131138 -0.227314 0)
(-0.120348 -0.216663 0)
(-0.109619 -0.205515 0)
(-0.0992033 -0.19408 0)
(-0.0894949 -0.182641 0)
(-0.0809792 -0.171548 0)
(-0.0741551 -0.161174 0)
(-0.0694132 -0.151831 0)
(-0.066891 -0.143652 0)
(-0.0664007 -0.136529 0)
(-0.0675014 -0.130161 0)
(-0.0696664 -0.124193 0)
(-0.0724267 -0.118333 0)
(-0.0754339 -0.112396 0)
(-0.0784616 -0.106284 0)
(-0.0813793 -0.0999568 0)
(-0.0841189 -0.093408 0)
(-0.0866482 -0.0866473 0)
(-0.0889532 -0.0796934 0)
(-0.0910292 -0.0725684 0)
(-0.0928769 -0.0652948 0)
(-0.0944995 -0.0578937 0)
(-0.095902 -0.0503847 0)
(-0.0970902 -0.0427852 0)
(-0.0980704 -0.0351114 0)
(-0.0988476 -0.027377 0)
(-0.099423 -0.0195908 0)
(-0.0997962 -0.0117656 0)
(-0.0999874 -0.00392427 0)
(0.0999805 -0.00562757 0)
(0.0996964 -0.0168256 0)
(0.0991351 -0.0279382 0)
(0.0982785 -0.0389339 0)
(0.0971375 -0.0497845 0)
(0.0957219 -0.0604643 0)
(0.0940399 -0.0709484 0)
(0.0921036 -0.0812133 0)
(0.0899312 -0.0912395 0)
(0.087549 -0.101013 0)
(0.0849933 -0.110528 0)
(0.0823115 -0.119791 0)
(0.0795624 -0.128823 0)
(0.0768139 -0.137662 0)
(0.0741374 -0.146364 0)
(0.0715972 -0.155 0)
(0.0692381 -0.163647 0)
(0.0670712 -0.172374 0)
(0.0650649 -0.181229 0)
(0.0631442 -0.190228 0)
(0.0612009 -0.199349 0)
(0.059111 -0.208541 0)
(0.0567542 -0.217728 0)
(0.0540291 -0.226825 0)
(0.0508618 -0.235742 0)
(0.0472075 -0.244395 0)
(0.0430476 -0.252709 0)
(0.0383842 -0.260618 0)
(0.0332344 -0.26807 0)
(0.027625 -0.275022 0)
(0.0215885 -0.281441 0)
(0.0151598 -0.287305 0)
(0.00837474 -0.2926 0)
(0.00126909 -0.297321 0)
(-0.00612211 -0.301468 0)
(-0.0137657 -0.305048 0)
(-0.021631 -0.308073 0)
(-0.0296898 -0.310558 0)
(-0.037916 -0.312524 0)
(-0.0462849 -0.313993 0)
(-0.0547737 -0.314991 0)
(-0.063361 -0.315544 0)
(-0.0720268 -0.315682 0)
(-0.0807526 -0.315436 0)
(-0.0895204 -0.314837 0)
(-0.0983137 -0.313917 0)
(-0.107117 -0.312707 0)
(-0.115915 -0.311241 0)
(-0.124695 -0.309551 0)
(-0.133443 -0.307667 0)
(-0.142146 -0.305618 0)
(-0.15079 -0.303434 0)
(-0.159362 -0.301139 0)
(-0.167847 -0.298755 0)
(-0.176228 -0.2963 0)
(-0.184476 -0.293787 0)
(-0.192538 -0.291222 0)
(-0.200354 -0.288599 0)
(-0.207956 -0.28591 0)
(-0.215464 -0.283152 0)
(-0.222517 -0.280311 0)
(-0.22629 -0.277345 0)
(-0.223889 -0.273505 0)
(-0.216561 -0.268909 0)
(-0.207685 -0.263754 0)
(-0.198274 -0.25801 0)
(-0.18837 -0.251605 0)
(-0.17798 -0.244502 0)
(-0.167182 -0.236693 0)
(-0.15607 -0.228196 0)
(-0.144738 -0.219056 0)
(-0.133286 -0.209348 0)
(-0.121818 -0.199177 0)
(-0.110498 -0.188691 0)
(-0.0996199 -0.178094 0)
(-0.0896059 -0.167648 0)
(-0.0809445 -0.157655 0)
(-0.0741094 -0.148418 0)
(-0.0694365 -0.140161 0)
(-0.066994 -0.132937 0)
(-0.0665388 -0.126597 0)
(-0.0676098 -0.120855 0)
(-0.0696927 -0.115407 0)
(-0.0723454 -0.110014 0)
(-0.0752456 -0.104528 0)
(-0.0781852 -0.0988735 0)
(-0.0810419 -0.0930195 0)
(-0.0837483 -0.0869624 0)
(-0.0862684 -0.0807108 0)
(-0.0885839 -0.0742791 0)
(-0.0906859 -0.067684 0)
(-0.092571 -0.0609431 0)
(-0.0942389 -0.0540738 0)
(-0.0956907 -0.0470925 0)
(-0.0969291 -0.0400148 0)
(-0.0979569 -0.0328559 0)
(-0.0987763 -0.0256297 0)
(-0.0993855 -0.0183459 0)
(-0.0997822 -0.0110195 0)
(-0.0999862 -0.00367547 0)
(0.0999812 -0.00525732 0)
(0.0996946 -0.0157192 0)
(0.0991274 -0.0260994 0)
(0.0982618 -0.0363661 0)
(0.0971103 -0.046491 0)
(0.0956846 -0.0564488 0)
(0.093995 -0.0662152 0)
(0.0920553 -0.0757681 0)
(0.0898855 -0.085089 0)
(0.087513 -0.0941654 0)
(0.084975 -0.102993 0)
(0.0823189 -0.111579 0)
(0.0796035 -0.119944 0)
(0.076896 -0.128127 0)
(0.0742674 -0.136183 0)
(0.0717821 -0.14418 0)
(0.0694852 -0.152192 0)
(0.067389 -0.160289 0)
(0.0654636 -0.168516 0)
(0.0636358 -0.176891 0)
(0.0617986 -0.185397 0)
(0.0598283 -0.193987 0)
(0.0576035 -0.202591 0)
(0.0550204 -0.211131 0)
(0.0520019 -0.219523 0)
(0.0484993 -0.22769 0)
(0.0444897 -0.235561 0)
(0.0399711 -0.243074 0)
(0.0349567 -0.250179 0)
(0.0294695 -0.256836 0)
(0.0235386 -0.263013 0)
(0.017196 -0.268687 0)
(0.0104748 -0.273845 0)
(0.00340802 -0.278479 0)
(-0.00397093 -0.282588 0)
(-0.0116307 -0.286176 0)
(-0.019543 -0.289254 0)
(-0.0276807 -0.291833 0)
(-0.0360192 -0.293931 0)
(-0.044535 -0.295565 0)
(-0.0532063 -0.296758 0)
(-0.0620126 -0.297533 0)
(-0.0709348 -0.297914 0)
(-0.0799544 -0.297927 0)
(-0.0890539 -0.297599 0)
(-0.098217 -0.296957 0)
(-0.107428 -0.296027 0)
(-0.116671 -0.294837 0)
(-0.125932 -0.293412 0)
(-0.135195 -0.291778 0)
(-0.144445 -0.289959 0)
(-0.153665 -0.287975 0)
(-0.162836 -0.285845 0)
(-0.171937 -0.283585 0)
(-0.180942 -0.281207 0)
(-0.189812 -0.278717 0)
(-0.198477 -0.276115 0)
(-0.206867 -0.273389 0)
(-0.215019 -0.270531 0)
(-0.223048 -0.267528 0)
(-0.230422 -0.264351 0)
(-0.23377 -0.260983 0)
(-0.23045 -0.256778 0)
(-0.222525 -0.251887 0)
(-0.213262 -0.246429 0)
(-0.203376 -0.240404 0)
(-0.192891 -0.233785 0)
(-0.181864 -0.226563 0)
(-0.170411 -0.218748 0)
(-0.158647 -0.210371 0)
(-0.146689 -0.201483 0)
(-0.134652 -0.19216 0)
(-0.122662 -0.182507 0)
(-0.110916 -0.172663 0)
(-0.0997433 -0.162815 0)
(-0.0895842 -0.153198 0)
(-0.0809245 -0.144081 0)
(-0.074208 -0.13572 0)
(-0.0697144 -0.128295 0)
(-0.0674443 -0.121826 0)
(-0.0671027 -0.116154 0)
(-0.0682098 -0.111006 0)
(-0.0702609 -0.106107 0)
(-0.0728368 -0.101242 0)
(-0.0756386 -0.096281 0)
(-0.0784758 -0.0911543 0)
(-0.0812374 -0.0858346 0)
(-0.0838623 -0.080317 0)
(-0.0863175 -0.0746084 0)
(-0.088585 -0.0687213 0)
(-0.090655 -0.0626706 0)
(-0.0925222 -0.0564722 0)
(-0.0941835 -0.0501423 0)
(-0.0956375 -0.0436965 0)
(-0.096884 -0.0371499 0)
(-0.0979232 -0.0305178 0)
(-0.0987546 -0.0238145 0)
(-0.0993744 -0.0170507 0)
(-0.0997784 -0.0102425 0)
(-0.0999861 -0.00341621 0)
(0.0999807 -0.00488633 0)
(0.0996919 -0.0146102 0)
(0.0991209 -0.0242579 0)
(0.0982504 -0.0337988 0)
(0.0970938 -0.043206 0)
(0.0956634 -0.0524558 0)
(0.0939709 -0.0615253 0)
(0.092031 -0.0703942 0)
(0.0898647 -0.0790458 0)
(0.0875005 -0.0874689 0)
(0.0849762 -0.0956601 0)
(0.0823399 -0.103626 0)
(0.0796506 -0.111387 0)
(0.0769759 -0.118978 0)
(0.0743866 -0.12645 0)
(0.0719473 -0.133867 0)
(0.0697034 -0.141297 0)
(0.0676679 -0.148804 0)
(0.0658115 -0.156434 0)
(0.064062 -0.164204 0)
(0.0623128 -0.172101 0)
(0.0604399 -0.180085 0)
(0.0583206 -0.188094 0)
(0.0558493 -0.196056 0)
(0.0529459 -0.203897 0)
(0.049559 -0.211544 0)
(0.0456624 -0.218932 0)
(0.041251 -0.226005 0)
(0.036335 -0.232715 0)
(0.0309346 -0.239023 0)
(0.0250763 -0.2449 0)
(0.0187896 -0.250323 0)
(0.0121055 -0.255278 0)
(0.00505492 -0.259757 0)
(-0.00233091 -0.263758 0)
(-0.0100224 -0.267282 0)
(-0.0179922 -0.270337 0)
(-0.026215 -0.272934 0)
(-0.0346672 -0.275084 0)
(-0.0433266 -0.276805 0)
(-0.0521723 -0.278114 0)
(-0.0611844 -0.27903 0)
(-0.0703439 -0.279574 0)
(-0.0796328 -0.279767 0)
(-0.0890338 -0.279632 0)
(-0.0985302 -0.279192 0)
(-0.108105 -0.278467 0)
(-0.117743 -0.277481 0)
(-0.127425 -0.276255 0)
(-0.137136 -0.274809 0)
(-0.146855 -0.273162 0)
(-0.156563 -0.27133 0)
(-0.166235 -0.269327 0)
(-0.175844 -0.267167 0)
(-0.185355 -0.264857 0)
(-0.194718 -0.2624 0)
(-0.203844 -0.259795 0)
(-0.212658 -0.25703 0)
(-0.22119 -0.254095 0)
(-0.229519 -0.250968 0)
(-0.236988 -0.247601 0)
(-0.239954 -0.243982 0)
(-0.235889 -0.239609 0)
(-0.227313 -0.234614 0)
(-0.21752 -0.229054 0)
(-0.20714 -0.222951 0)
(-0.196152 -0.216318 0)
(-0.184613 -0.209167 0)
(-0.172646 -0.201522 0)
(-0.160383 -0.193423 0)
(-0.147952 -0.184923 0)
(-0.135484 -0.176101 0)
(-0.12312 -0.167053 0)
(-0.111087 -0.157912 0)
(-0.0997387 -0.14885 0)
(-0.089527 -0.140079 0)
(-0.0809285 -0.131832 0)
(-0.074356 -0.124326 0)
(-0.0700382 -0.11769 0)
(-0.0679201 -0.111909 0)
(-0.0676693 -0.106814 0)
(-0.0687982 -0.102152 0)
(-0.0708157 -0.0976808 0)
(-0.0733243 -0.0932214 0)
(-0.0760445 -0.0886642 0)
(-0.0787991 -0.0839531 0)
(-0.0814851 -0.0790653 0)
(-0.0840446 -0.073997 0)
(-0.0864458 -0.0687536 0)
(-0.0886705 -0.0633454 0)
(-0.0907079 -0.0577848 0)
(-0.0925516 -0.0520855 0)
(-0.094197 -0.0462612 0)
(-0.0956413 -0.0403259 0)
(-0.0968827 -0.0342931 0)
(-0.0979201 -0.0281772 0)
(-0.0987517 -0.0219917 0)
(-0.0993725 -0.0157471 0)
(-0.0997777 -0.00945947 0)
(-0.0999861 -0.00315481 0)
(0.0999809 -0.00451392 0)
(0.0996927 -0.0134973 0)
(0.0991228 -0.0224102 0)
(0.098254 -0.0312239 0)
(0.0971001 -0.0399128 0)
(0.0956741 -0.0484547 0)
(0.093988 -0.0568285 0)
(0.0920573 -0.065015 0)
(0.0899033 -0.0729991 0)
(0.0875548 -0.0807707 0)
(0.0850497 -0.0883267 0)
(0.0824362 -0.0956739 0)
(0.0797729 -0.102831 0)
(0.077127 -0.109831 0)
(0.0745693 -0.116722 0)
(0.0721641 -0.123562 0)
(0.0699575 -0.130417 0)
(0.0679633 -0.137345 0)
(0.0661536 -0.144391 0)
(0.0644573 -0.151572 0)
(0.0627689 -0.158878 0)
(0.0609643 -0.166272 0)
(0.0589203 -0.173699 0)
(0.0565293 -0.181094 0)
(0.0537094 -0.188388 0)
(0.0504063 -0.195515 0)
(0.0465913 -0.202414 0)
(0.0422566 -0.209035 0)
(0.0374098 -0.215331 0)
(0.0320688 -0.221267 0)
(0.0262577 -0.226814 0)
(0.0200042 -0.231952 0)
(0.0133371 -0.236666 0)
(0.00628592 -0.240947 0)
(-0.00112005 -0.244792 0)
(-0.00885257 -0.248203 0)
(-0.0168855 -0.251183 0)
(-0.0251946 -0.253741 0)
(-0.0337573 -0.255888 0)
(-0.0425524 -0.257637 0)
(-0.0515594 -0.259002 0)
(-0.0607587 -0.259999 0)
(-0.0701317 -0.260645 0)
(-0.0796604 -0.26096 0)
(-0.089327 -0.26096 0)
(-0.0991142 -0.260664 0)
(-0.109004 -0.260091 0)
(-0.118979 -0.259259 0)
(-0.129019 -0.258185 0)
(-0.139105 -0.256885 0)
(-0.149216 -0.255374 0)
(-0.159325 -0.253665 0)
(-0.169406 -0.251769 0)
(-0.179424 -0.249696 0)
(-0.189339 -0.247451 0)
(-0.199087 -0.245037 0)
(-0.208567 -0.242451 0)
(-0.217697 -0.239685 0)
(-0.226484 -0.236731 0)
(-0.234955 -0.233575 0)
(-0.242314 -0.230181 0)
(-0.244837 -0.226469 0)
(-0.240122 -0.222025 0)
(-0.230988 -0.217021 0)
(-0.220721 -0.21151 0)
(-0.209901 -0.205512 0)
(-0.198485 -0.199044 0)
(-0.186526 -0.192129 0)
(-0.174151 -0.184798 0)
(-0.161499 -0.177094 0)
(-0.14871 -0.169072 0)
(-0.13592 -0.160807 0)
(-0.123289 -0.152392 0)
(-0.111065 -0.143947 0)
(-0.0996253 -0.13563 0)
(-0.0894269 -0.127632 0)
(-0.0809368 -0.12016 0)
(-0.0745388 -0.113394 0)
(-0.0704157 -0.107436 0)
(-0.068464 -0.102248 0)
(-0.0683193 -0.0976623 0)
(-0.0694867 -0.0934478 0)
(-0.0714873 -0.0893885 0)
(-0.073942 -0.0853281 0)
(-0.0765888 -0.0811725 0)
(-0.0792635 -0.0768736 0)
(-0.081871 -0.072412 0)
(-0.0843583 -0.0677841 0)
(-0.0866953 -0.0629946 0)
(-0.0888647 -0.0580525 0)
(-0.0908558 -0.0529685 0)
(-0.0926614 -0.0477548 0)
(-0.0942763 -0.0424236 0)
(-0.0956968 -0.0369877 0)
(-0.0969199 -0.0314595 0)
(-0.0979436 -0.0258524 0)
(-0.0987653 -0.0201792 0)
(-0.0993793 -0.0144499 0)
(-0.0997801 -0.00867988 0)
(-0.0999863 -0.00289455 0)
(0.0999809 -0.00414311 0)
(0.0996938 -0.0123889 0)
(0.0991261 -0.0205704 0)
(0.0982609 -0.0286609 0)
(0.097112 -0.0366367 0)
(0.0956926 -0.0444773 0)
(0.094015 -0.0521634 0)
(0.0920949 -0.0596776 0)
(0.0899538 -0.0670058 0)
(0.0876206 -0.0741391 0)
(0.0851333 -0.0810748 0)
(0.0825397 -0.0878191 0)
(0.0798986 -0.0943894 0)
(0.0772768 -0.100816 0)
(0.0747449 -0.107142 0)
(0.0723674 -0.113423 0)
(0.0701907 -0.119717 0)
(0.0682294 -0.12608 0)
(0.0664564 -0.132553 0)
(0.0648017 -0.139153 0)
(0.0631602 -0.145872 0)
(0.0614079 -0.152678 0)
(0.0594206 -0.159522 0)
(0.0570897 -0.166343 0)
(0.0543313 -0.173081 0)
(0.0510891 -0.179674 0)
(0.0473324 -0.186068 0)
(0.0430512 -0.192214 0)
(0.038251 -0.198072 0)
(0.032948 -0.203607 0)
(0.0271644 -0.208794 0)
(0.0209263 -0.213611 0)
(0.0142611 -0.218045 0)
(0.00719669 -0.222088 0)
(-0.000238789 -0.225734 0)
(-0.00801823 -0.228984 0)
(-0.0161164 -0.231842 0)
(-0.0245101 -0.234313 0)
(-0.0331775 -0.236406 0)
(-0.0420977 -0.238131 0)
(-0.0512506 -0.239502 0)
(-0.0606169 -0.240529 0)
(-0.0701779 -0.241229 0)
(-0.0799154 -0.241616 0)
(-0.0898109 -0.241704 0)
(-0.0998459 -0.24151 0)
(-0.110002 -0.241048 0)
(-0.120258 -0.240333 0)
(-0.130594 -0.239378 0)
(-0.140987 -0.238197 0)
(-0.151413 -0.236802 0)
(-0.161842 -0.235203 0)
(-0.172242 -0.233408 0)
(-0.182575 -0.231425 0)
(-0.192793 -0.229258 0)
(-0.202824 -0.226909 0)
(-0.21256 -0.224374 0)
(-0.221921 -0.221652 0)
(-0.230915 -0.218744 0)
(-0.239536 -0.215658 0)
(-0.246729 -0.21239 0)
(-0.248711 -0.208708 0)
(-0.243335 -0.204286 0)
(-0.233751 -0.199367 0)
(-0.223106 -0.194014 0)
(-0.211924 -0.18824 0)
(-0.200155 -0.182057 0)
(-0.187855 -0.17549 0)
(-0.175155 -0.168572 0)
(-0.162202 -0.161346 0)
(-0.149139 -0.153869 0)
(-0.136112 -0.146208 0)
(-0.123291 -0.138452 0)
(-0.110946 -0.130711 0)
(-0.0994704 -0.12313 0)
(-0.0893229 -0.11588 0)
(-0.0809597 -0.109142 0)
(-0.0747374 -0.10307 0)
(-0.0707978 -0.0977368 0)
(-0.0689966 -0.0930903 0)
(-0.068945 -0.0889668 0)
(-0.0701455 -0.0851553 0)
(-0.0721311 -0.0814665 0)
(-0.0745398 -0.0777666 0)
(-0.077124 -0.073976 0)
(-0.0797302 -0.0700545 0)
(-0.0822697 -0.065986 0)
(-0.0846927 -0.0617678 0)
(-0.0869711 -0.0574038 0)
(-0.0890883 -0.0529017 0)
(-0.0910335 -0.0482709 0)
(-0.0927995 -0.0435219 0)
(-0.0943809 -0.0386656 0)
(-0.0957732 -0.0337131 0)
(-0.0969733 -0.0286758 0)
(-0.0979786 -0.0235658 0)
(-0.098786 -0.0183947 0)
(-0.0993897 -0.0131719 0)
(-0.0997838 -0.00791164 0)
(-0.0999865 -0.00263809 0)
(0.0999811 -0.00377411 0)
(0.0996956 -0.0112859 0)
(0.0991311 -0.0187395 0)
(0.0982708 -0.0261104 0)
(0.0971284 -0.0333769 0)
(0.0957173 -0.0405205 0)
(0.0940498 -0.0475234 0)
(0.0921416 -0.0543698 0)
(0.0900142 -0.061047 0)
(0.0876965 -0.0675469 0)
(0.0852262 -0.0738672 0)
(0.082651 -0.0800135 0)
(0.0800293 -0.0860017 0)
(0.0774277 -0.0918595 0)
(0.0749166 -0.0976266 0)
(0.0725606 -0.103353 0)
(0.0704064 -0.109092 0)
(0.0684692 -0.114896 0)
(0.066723 -0.120802 0)
(0.0650985 -0.126826 0)
(0.0634911 -0.132964 0)
(0.0617769 -0.139185 0)
(0.0598311 -0.145446 0)
(0.0575439 -0.151694 0)
(0.0548299 -0.157871 0)
(0.0516312 -0.163923 0)
(0.0479151 -0.169801 0)
(0.0436701 -0.175459 0)
(0.0389001 -0.18086 0)
(0.0336196 -0.185974 0)
(0.0278497 -0.190775 0)
(0.0216148 -0.195245 0)
(0.0149414 -0.199371 0)
(0.00785624 -0.203142 0)
(0.0003864 -0.206555 0)
(-0.00744184 -0.20961 0)
(-0.015604 -0.212307 0)
(-0.0240775 -0.214653 0)
(-0.0328409 -0.216653 0)
(-0.0418736 -0.218316 0)
(-0.0511558 -0.219652 0)
(-0.0606682 -0.220671 0)
(-0.0703919 -0.221386 0)
(-0.0803079 -0.221809 0)
(-0.0903973 -0.221952 0)
(-0.10064 -0.221827 0)
(-0.111017 -0.221448 0)
(-0.121506 -0.220826 0)
(-0.132083 -0.219972 0)
(-0.142724 -0.218898 0)
(-0.153402 -0.217612 0)
(-0.164084 -0.216124 0)
(-0.174734 -0.21444 0)
(-0.18531 -0.212567 0)
(-0.195761 -0.210508 0)
(-0.206006 -0.208266 0)
(-0.215938 -0.20584 0)
(-0.225486 -0.20323 0)
(-0.234688 -0.200444 0)
(-0.243492 -0.197504 0)
(-0.250402 -0.19442 0)
(-0.251634 -0.190788 0)
(-0.24557 -0.186481 0)
(-0.235682 -0.18174 0)
(-0.224795 -0.176636 0)
(-0.21335 -0.17117 0)
(-0.201309 -0.165353 0)
(-0.188745 -0.159209 0)
(-0.175795 -0.152769 0)
(-0.162611 -0.146076 0)
(-0.149342 -0.139182 0)
(-0.136139 -0.132151 0)
(-0.123185 -0.125062 0)
(-0.110767 -0.118018 0)
(-0.0992893 -0.111149 0)
(-0.0892138 -0.104608 0)
(-0.0809854 -0.098556 0)
(-0.0749356 -0.0931225 0)
(-0.0711702 -0.0883598 0)
(-0.06951 -0.0842076 0)
(-0.0695462 -0.0805105 0)
(-0.07078 -0.0770779 0)
(-0.0727558 -0.0737438 0)
(-0.0751258 -0.0703929 0)
(-0.0776555 -0.0669573 0)
(-0.0802004 -0.0634031 0)
(-0.0826775 -0.0597169 0)
(-0.0850405 -0.0558964 0)
(-0.0872628 -0.0519452 0)
(-0.0893288 -0.0478701 0)
(-0.091228 -0.0436792 0)
(-0.0929533 -0.0393817 0)
(-0.0944992 -0.0349873 0)
(-0.0958611 -0.0305061 0)
(-0.0970356 -0.0259479 0)
(-0.0980199 -0.0213239 0)
(-0.0988107 -0.0166445 0)
(-0.0994021 -0.0119181 0)
(-0.0997882 -0.00715794 0)
(-0.0999868 -0.00238651 0)
(0.0999812 -0.00340738 0)
(0.0996974 -0.0101896 0)
(0.0991363 -0.0169197 0)
(0.0982809 -0.0235754 0)
(0.0971452 -0.0301372 0)
(0.0957424 -0.0365884 0)
(0.0940847 -0.042913 0)
(0.0921878 -0.0490967 0)
(0.0900731 -0.0551283 0)
(0.0877694 -0.0610002 0)
(0.0853141 -0.0667106 0)
(0.0827548 -0.0722646 0)
(0.0801494 -0.0776765 0)
(0.0775645 -0.0829711 0)
(0.0750702 -0.0881843 0)
(0.0727311 -0.0933612 0)
(0.0705944 -0.0985509 0)
(0.0686757 -0.1038 0)
(0.0669498 -0.109142 0)
(0.0653481 -0.114594 0)
(0.0637663 -0.120151 0)
(0.0620804 -0.125787 0)
(0.0601652 -0.131464 0)
(0.0579099 -0.137132 0)
(0.0552278 -0.142743 0)
(0.0520595 -0.148245 0)
(0.0483712 -0.153594 0)
(0.0441498 -0.15875 0)
(0.039398 -0.163679 0)
(0.034129 -0.168353 0)
(0.0283629 -0.172748 0)
(0.0221232 -0.176847 0)
(0.0154353 -0.180637 0)
(0.0083252 -0.184111 0)
(0.000819199 -0.187263 0)
(-0.00705705 -0.190092 0)
(-0.0152796 -0.192599 0)
(-0.0238262 -0.194787 0)
(-0.0326758 -0.196662 0)
(-0.0418079 -0.198231 0)
(-0.0512029 -0.199502 0)
(-0.0608412 -0.200482 0)
(-0.0707036 -0.201184 0)
(-0.0807705 -0.201615 0)
(-0.0910224 -0.201787 0)
(-0.101438 -0.20171 0)
(-0.111997 -0.201394 0)
(-0.122676 -0.200849 0)
(-0.133449 -0.200085 0)
(-0.14429 -0.199111 0)
(-0.155169 -0.197934 0)
(-0.166052 -0.196561 0)
(-0.1769 -0.195 0)
(-0.187668 -0.193254 0)
(-0.1983 -0.191328 0)
(-0.208713 -0.189225 0)
(-0.218798 -0.186943 0)
(-0.228496 -0.184486 0)
(-0.237866 -0.181861 0)
(-0.246786 -0.179085 0)
(-0.253316 -0.176182 0)
(-0.253764 -0.172701 0)
(-0.247119 -0.168616 0)
(-0.237026 -0.164155 0)
(-0.22598 -0.159383 0)
(-0.214342 -0.154298 0)
(-0.202095 -0.148912 0)
(-0.189327 -0.143248 0)
(-0.176185 -0.137335 0)
(-0.162825 -0.131214 0)
(-0.149401 -0.124931 0)
(-0.136069 -0.118546 0)
(-0.123021 -0.112131 0)
(-0.110562 -0.105778 0)
(-0.0991035 -0.0996053 0)
(-0.0891093 -0.0937497 0)
(-0.0810135 -0.0883512 0)
(-0.0751249 -0.0835195 0)
(-0.0715173 -0.0792905 0)
(-0.0699825 -0.0755999 0)
(-0.0700959 -0.0723026 0)
(-0.0713592 -0.0692284 0)
(-0.0733269 -0.0662328 0)
(-0.0756641 -0.063217 0)
(-0.078147 -0.0601236 0)
(-0.0806388 -0.0569241 0)
(-0.0830615 -0.0536073 0)
(-0.0853714 -0.0501716 0)
(-0.0875434 -0.0466203 0)
(-0.0895626 -0.0429591 0)
(-0.0914191 -0.0391952 0)
(-0.093106 -0.0353367 0)
(-0.0946178 -0.031392 0)
(-0.09595 -0.0273699 0)
(-0.097099 -0.0232794 0)
(-0.0980622 -0.0191301 0)
(-0.0988362 -0.0149315 0)
(-0.099415 -0.0106909 0)
(-0.0997928 -0.00642026 0)
(-0.0999871 -0.00214033 0)
(0.0999813 -0.00304285 0)
(0.0996992 -0.00909972 0)
(0.0991412 -0.0151104 0)
(0.0982907 -0.0210549 0)
(0.0971613 -0.026916 0)
(0.0957663 -0.0326787 0)
(0.0941177 -0.0383287 0)
(0.0922311 -0.0438535 0)
(0.0901279 -0.0492429 0)
(0.0878365 -0.0544904 0)
(0.0853943 -0.0595941 0)
(0.0828485 -0.0645587 0)
(0.0802568 -0.0693969 0)
(0.0776855 -0.074131 0)
(0.0752045 -0.0787929 0)
(0.0728787 -0.0834229 0)
(0.0707552 -0.088065 0)
(0.0688503 -0.0927609 0)
(0.0671395 -0.0975418 0)
(0.0655545 -0.102423 0)
(0.0639915 -0.107399 0)
(0.0623264 -0.11245 0)
(0.0604334 -0.117539 0)
(0.058201 -0.122625 0)
(0.0555414 -0.127663 0)
(0.0523941 -0.132607 0)
(0.0487241 -0.137419 0)
(0.0445174 -0.142061 0)
(0.0397754 -0.146504 0)
(0.0345106 -0.150721 0)
(0.0287421 -0.154692 0)
(0.0224927 -0.158402 0)
(0.015787 -0.161838 0)
(0.00865053 -0.164992 0)
(0.00110899 -0.167859 0)
(-0.00681243 -0.170439 0)
(-0.0150901 -0.172731 0)
(-0.0237021 -0.174737 0)
(-0.0326275 -0.176463 0)
(-0.041846 -0.177913 0)
(-0.0513378 -0.179094 0)
(-0.061083 -0.180013 0)
(-0.0710621 -0.180679 0)
(-0.0812552 -0.181098 0)
(-0.0916416 -0.181281 0)
(-0.1022 -0.181235 0)
(-0.112908 -0.18097 0)
(-0.12374 -0.180492 0)
(-0.134672 -0.179811 0)
(-0.145673 -0.178933 0)
(-0.156712 -0.177866 0)
(-0.167753 -0.176614 0)
(-0.178755 -0.175185 0)
(-0.189671 -0.173581 0)
(-0.200443 -0.171806 0)
(-0.210983 -0.169863 0)
(-0.221182 -0.167753 0)
(-0.230993 -0.165475 0)
(-0.240486 -0.163039 0)
(-0.249475 -0.160456 0)
(-0.255611 -0.157777 0)
(-0.255343 -0.154529 0)
(-0.24821 -0.150751 0)
(-0.237965 -0.146644 0)
(-0.226802 -0.142265 0)
(-0.215019 -0.137616 0)
(-0.202614 -0.132708 0)
(-0.189691 -0.127564 0)
(-0.176402 -0.122212 0)
(-0.162909 -0.116688 0)
(-0.149369 -0.111035 0)
(-0.13594 -0.105305 0)
(-0.122827 -0.0995644 0)
(-0.110347 -0.0938954 0)
(-0.0989207 -0.0884035 0)
(-0.0890101 -0.0832099 0)
(-0.0810399 -0.0784362 0)
(-0.0752984 -0.0741744 0)
(-0.0718322 -0.0704483 0)
(-0.0704083 -0.0671932 0)
(-0.0705897 -0.0642762 0)
(-0.0718794 -0.0615472 0)
(-0.0738409 -0.058881 0)
(-0.0761504 -0.0561934 0)
(-0.0785932 -0.0534358 0)
(-0.0810392 -0.0505845 0)
(-0.0834143 -0.04763 0)
(-0.0856773 -0.0445714 0)
(-0.0878044 -0.0414113 0)
(-0.0897815 -0.038155 0)
(-0.0915991 -0.0348087 0)
(-0.0932506 -0.0313793 0)
(-0.0947307 -0.0278743 0)
(-0.096035 -0.0243013 0)
(-0.09716 -0.0206681 0)