/*--------------------------------*- C++ -*----------------------------------*\
  =========                 |
  \\      /  F ield         | OpenFOAM: The Open Source CFD Toolbox
   \\    /   O peration     | Website:  https://openfoam.org
    \\  /    A nd           | Version:  8
     \\/     M anipulation  |
\*---------------------------------------------------------------------------*/
FoamFile
{
    version     2.0;
    format      ascii;
    class       volScalarField;
    location    "0.4/fluid";
    object      CH4;
}
// * * * * * * * * * * * * * * * * * * * * * * * * * * * * * * * * * * * * * //

dimensions      [0 0 0 0 0 0 0];

internalField   nonuniform List<scalar> 
4000
(
0.999997
0.999986
0.999968
0.999938
0.999888
0.999805
0.999667
0.999443
0.999079
0.998497
0.99758
0.996158
0.993996
0.990782
0.986131
0.979598
0.970718
0.959065
0.94431
0.926279
0.904964
0.880518
0.853219
0.823431
0.791568
0.758066
0.72336
0.687869
0.651859
0.615667
0.579756
0.544374
0.509737
0.476027
0.443391
0.411947
0.381785
0.352968
0.325533
0.299496
0.274857
0.251599
0.229694
0.209107
0.189792
0.171699
0.154775
0.138965
0.124212
0.110459
0.0976508
0.0857328
0.0746539
0.0643663
0.0548266
0.0459984
0.0378535
0.0304815
0.0238413
0.017706
0.0123369
0.00787363
0.00457151
0.00261458
0.00146291
0.00079602
0.000418821
0.000211792
0.000102236
4.6803e-05
2.01781e-05
8.17812e-06
3.25645e-06
1.64166e-06
1.15655e-06
8.8973e-07
6.61974e-07
4.66842e-07
3.08944e-07
1.90448e-07
1.09141e-07
5.84101e-08
2.94552e-08
1.42179e-08
6.65112e-09
3.03915e-09
1.35935e-09
5.98493e-10
2.59475e-10
1.11268e-10
4.71828e-11
1.98538e-11
8.2845e-12
3.436e-12
1.41368e-12
5.76188e-13
2.30095e-13
8.79961e-14
2.9293e-14
5.26638e-15
0.999997
0.999986
0.999968
0.999938
0.999888
0.999805
0.999667
0.999442
0.999079
0.998498
0.997584
0.99617
0.994028
0.990855
0.986276
0.979855
0.971136
0.959695
0.945201
0.927464
0.906455
0.882305
0.855271
0.825701
0.793998
0.760589
0.725905
0.690272
0.654112
0.617995
0.582055
0.546578
0.511805
0.477934
0.445124
0.413499
0.383157
0.354163
0.326558
0.300361
0.275571
0.252175
0.230144
0.209442
0.190023
0.171838
0.154833
0.13895
0.124134
0.110327
0.0974721
0.0855147
0.0744027
0.0640875
0.0545256
0.0456798
0.0375221
0.0301674
0.0235294
0.0174038
0.0120609
0.0076475
0.00443227
0.00252884
0.00141066
0.000764743
0.000400554
0.000201446
9.65898e-05
4.3868e-05
1.8738e-05
7.52979e-06
3.02181e-06
1.61286e-06
1.16068e-06
8.84008e-07
6.4883e-07
4.51342e-07
2.94737e-07
1.79597e-07
1.02106e-07
5.44854e-08
2.75389e-08
1.33602e-08
6.29221e-09
2.89654e-09
1.30511e-09
5.78505e-10
2.52263e-10
1.08673e-10
4.6237e-11
1.94986e-11
8.14594e-12
3.37981e-12
1.39028e-12
5.66566e-13
2.26185e-13
8.66111e-14
2.87994e-14
5.28276e-15
0.999997
0.999986
0.999968
0.999938
0.999888
0.999804
0.999666
0.999441
0.999077
0.998497
0.997585
0.996178
0.994051
0.990906
0.986375
0.980032
0.971433
0.960158
0.945879
0.928399
0.907679
0.883833
0.857098
0.827805
0.796341
0.76312
0.728527
0.692917
0.656968
0.620829
0.584825
0.549245
0.514335
0.4803
0.447305
0.415482
0.384933
0.355729
0.327916
0.301516
0.276532
0.25295
0.230746
0.209884
0.190318
0.171999
0.154871
0.138882
0.123971
0.110081
0.0971542
0.0851355
0.0739721
0.0636146
0.0540187
0.0451464
0.0369687
0.0296448
0.0229997
0.0168912
0.011596
0.00726971
0.00420165
0.00238826
0.00132597
0.000714725
0.000371786
0.00018544
8.80478e-05
3.95366e-05
1.6674e-05
6.63376e-06
2.71256e-06
1.54394e-06
1.13999e-06
8.62689e-07
6.26824e-07
4.31594e-07
2.79235e-07
1.68942e-07
9.56625e-08
5.10065e-08
2.58292e-08
1.25651e-08
5.93857e-09
2.74401e-09
1.24119e-09
5.52227e-10
2.41644e-10
1.04413e-10
4.45361e-11
1.88169e-11
7.87171e-12
3.26842e-12
1.34501e-12
5.48075e-13
2.18813e-13
8.39523e-14
2.78877e-14
5.23441e-15
0.999997
0.999986
0.999968
0.999938
0.999888
0.999805
0.999668
0.999444
0.999083
0.998507
0.997605
0.996214
0.994112
0.991007
0.986537
0.980285
0.971808
0.960693
0.946608
0.929352
0.908876
0.885281
0.858794
0.829732
0.798472
0.76542
0.730877
0.695538
0.65961
0.623455
0.5874
0.551736
0.516711
0.482534
0.449376
0.417374
0.386634
0.357233
0.32922
0.302621
0.277442
0.253674
0.231292
0.210263
0.190541
0.172077
0.154822
0.138717
0.123703
0.109722
0.0967172
0.0846324
0.0734146
0.0630146
0.0533887
0.0445
0.0363224
0.029054
0.0222744
0.0162296
0.011015
0.00680662
0.00392282
0.00222061
0.00122636
0.000656742
0.000338954
0.000167482
7.8661e-05
3.48802e-05
1.45125e-05
5.73033e-06
2.43093e-06
1.47997e-06
1.11128e-06
8.35095e-07
6.00805e-07
4.09289e-07
2.62003e-07
1.57021e-07
8.82708e-08
4.68578e-08
2.36884e-08
1.15285e-08
5.45745e-09
2.52772e-09
1.14656e-09
5.11642e-10
2.24567e-10
9.73238e-11
4.16312e-11
1.76352e-11
7.3949e-12
3.07645e-12
1.26823e-12
5.1754e-13
2.06843e-13
7.96517e-14
2.64461e-14
5.08959e-15
0.999997
0.999986
0.999969
0.999939
0.999889
0.999806
0.99967
0.999448
0.999089
0.998519
0.997625
0.996248
0.994169
0.9911
0.986684
0.980508
0.972137
0.961157
0.947236
0.930169
0.909898
0.886516
0.860239
0.831376
0.800295
0.767369
0.733066
0.697771
0.661863
0.625699
0.589606
0.553873
0.518751
0.484454
0.451156
0.418997
0.388088
0.358511
0.330318
0.303539
0.278182
0.254242
0.231695
0.210507
0.190638
0.172042
0.154665
0.138448
0.123336
0.109269
0.0961892
0.0840415
0.0727723
0.0623322
0.0526775
0.0437717
0.035589
0.0283317
0.0215626
0.0155578
0.0104165
0.00632796
0.00363567
0.00204909
0.00112538
0.000598592
0.000306443
0.000149956
6.96529e-05
3.04963e-05
1.25243e-05
4.93104e-06
2.21508e-06
1.42981e-06
1.08179e-06
8.06753e-07
5.75022e-07
3.87911e-07
2.45979e-07
1.46225e-07
8.1716e-08
4.32275e-08
2.18242e-08
1.06233e-08
5.03401e-09
2.33507e-09
1.061e-09
4.74305e-10
2.08543e-10
9.05244e-11
3.87804e-11
1.64485e-11
6.90521e-12
2.87548e-12
1.18637e-12
4.8456e-13
1.93783e-13
7.48939e-14
2.48384e-14
4.90681e-15
0.999997
0.999986
0.999969
0.999939
0.99989
0.999808
0.999673
0.999452
0.999098
0.998533
0.997649
0.996287
0.994232
0.991199
0.986835
0.980731
0.972455
0.961593
0.947813
0.930903
0.9108
0.88759
0.86148
0.832771
0.801828
0.768972
0.734795
0.699575
0.663703
0.627541
0.591417
0.555625
0.52042
0.486019
0.452599
0.420304
0.389249
0.359518
0.331167
0.304229
0.278717
0.254624
0.231929
0.210603
0.190607
0.171892
0.154405
0.13809
0.122891
0.108747
0.0956024
0.0833999
0.0720864
0.0616123
0.0519338
0.0430145
0.0348472
0.0276049
0.02086
0.0149009
0.00983508
0.0058664
0.00336115
0.00188672
0.00103079
0.000544748
0.000276715
0.000134153
6.1653e-05
2.66695e-05
1.08233e-05
4.26542e-06
2.03812e-06
1.38303e-06
1.05066e-06
7.78336e-07
5.50052e-07
3.67605e-07
2.3092e-07
1.36116e-07
7.55562e-08
3.97823e-08
2.00291e-08
9.74003e-09
4.6153e-09
2.14227e-09
9.74454e-10
4.36213e-10
1.9209e-10
8.35137e-11
3.5834e-11
1.52211e-11
6.39895e-12
2.66796e-12
1.10196e-12
4.50608e-13
1.80315e-13
6.98823e-14
2.31709e-14
4.70631e-15
0.999997
0.999987
0.999969
0.99994
0.999891
0.999809
0.999676
0.999457
0.999106
0.998547
0.997672
0.996324
0.994291
0.99129
0.986972
0.980932
0.972738
0.961978
0.948317
0.93154
0.911578
0.888508
0.862532
0.833944
0.803096
0.770412
0.736275
0.701084
0.66522
0.629044
0.592884
0.557035
0.521753
0.487258
0.45373
0.421315
0.390132
0.360267
0.33178
0.304706
0.279059
0.254833
0.232013
0.21057
0.190463
0.171646
0.154066
0.137669
0.122395
0.108188
0.0949892
0.0827423
0.0713937
0.0608939
0.0511987
0.0422723
0.0341324
0.0269114
0.0201967
0.0142876
0.00929936
0.00544964
0.00311593
0.00174307
0.000947867
0.000497981
0.000251144
0.000120703
5.49265e-05
2.34972e-05
9.44218e-06
3.75495e-06
1.9364e-06
1.35731e-06
1.02658e-06
7.53487e-07
5.27437e-07
3.49143e-07
2.17344e-07
1.27112e-07
7.01316e-08
3.67731e-08
1.84677e-08
8.97222e-09
4.25046e-09
1.97347e-09
8.98193e-10
4.02387e-10
1.77355e-10
7.71809e-11
3.31494e-11
1.40939e-11
5.93061e-12
2.47473e-12
1.02289e-12
4.18685e-13
1.67617e-13
6.5195e-14
2.1593e-14
4.48973e-15
0.999997
0.999987
0.999969
0.99994
0.999892
0.999811
0.999678
0.999462
0.999114
0.998561
0.997694
0.99636
0.994346
0.991375
0.987098
0.981114
0.972991
0.962318
0.948758
0.932092
0.912246
0.889292
0.863426
0.834938
0.804149
0.771549
0.737466
0.702302
0.666442
0.630249
0.594052
0.558148
0.522795
0.488215
0.454591
0.422072
0.390777
0.360797
0.332193
0.305001
0.279237
0.254901
0.231977
0.210434
0.190235
0.171333
0.153676
0.13721
0.121877
0.107619
0.0943772
0.0820963
0.0707221
0.0602049
0.0505009
0.0415747
0.0334741
0.0262769
0.0195967
0.013743
0.00884112
0.00512642
0.00292221
0.00162818
0.00088104
0.000460147
0.000230446
0.000109844
4.95236e-05
2.09691e-05
8.3535e-06
3.35507e-06
1.82304e-06
1.31531e-06
9.9418e-07
7.25796e-07
5.0466e-07
3.31601e-07
2.04899e-07
1.1904e-07
6.53297e-08
3.41237e-08
1.70935e-08
8.29515e-09
3.92768e-09
1.82353e-09
8.30168e-10
3.72094e-10
1.6411e-10
7.14698e-11
3.07215e-11
1.3072e-11
5.50518e-12
2.29889e-12
9.50811e-13
3.89444e-13
1.55942e-13
6.07308e-14
2.01219e-14
4.24326e-15
0.999997
0.999987
0.99997
0.999941
0.999892
0.999813
0.999681
0.999467
0.999122
0.998573
0.997714
0.996392
0.994396
0.99145
0.98721
0.981273
0.973211
0.962613
0.949138
0.932564
0.912813
0.889954
0.864177
0.835773
0.805086
0.772513
0.738449
0.703292
0.667425
0.631208
0.594972
0.559014
0.523596
0.48894
0.45523
0.422619
0.391228
0.361148
0.332444
0.305152
0.279292
0.254864
0.231852
0.210226
0.18995
0.170979
0.15326
0.136739
0.121359
0.107061
0.093787
0.0814811
0.0700893
0.059562
0.0498557
0.0409356
0.0328841
0.0257101
0.0190651
0.0132683
0.0084554
0.00488095
0.00277257
0.00153834
0.000828339
0.000430151
0.00021399
0.000101234
4.52522e-05
1.89834e-05
7.51186e-06
3.06461e-06
1.74358e-06
1.28133e-06
9.6621e-07
7.01674e-07
4.8487e-07
3.16457e-07
1.94235e-07
1.12168e-07
6.12603e-08
3.1883e-08
1.59308e-08
7.72114e-09
3.65316e-09
1.6955e-09
7.71833e-10
3.45997e-10
1.52647e-10
6.65057e-11
2.86026e-11
1.21768e-11
5.13124e-12
2.14371e-12
8.87046e-13
3.63506e-13
1.45574e-13
5.67121e-14
1.88001e-14
4.01756e-15
0.999997
0.999987
0.99997
0.999941
0.999893
0.999814
0.999683
0.999471
0.999129
0.998584
0.997732
0.99642
0.99444
0.991517
0.987307
0.981412
0.973401
0.962865
0.949461
0.932963
0.913289
0.890503
0.86479
0.836425
0.805804
0.773272
0.739231
0.704079
0.668201
0.63196
0.595686
0.559679
0.524201
0.489476
0.455692
0.423
0.391526
0.361362
0.332571
0.305197
0.279257
0.254752
0.231666
0.209973
0.189636
0.170608
0.15284
0.136275
0.120859
0.10653
0.0932326
0.080909
0.0695055
0.0589728
0.0492676
0.0403558
0.0323567
0.0252056
0.0185951
0.0128523
0.00812267
0.00467819
0.00264948
0.00146467
0.000785251
0.000405705
0.000200629
9.42791e-05
4.18232e-05
1.74033e-05
6.85528e-06
2.85684e-06
1.69044e-06
1.25612e-06
9.43911e-07
6.8184e-07
4.68347e-07
3.03727e-07
1.85253e-07
1.0638e-07
5.78321e-08
2.99931e-08
1.49479e-08
7.23461e-09
3.41977e-09
1.58632e-09
7.21932e-10
3.23608e-10
1.42785e-10
6.22238e-11
2.67709e-11
1.14014e-11
4.80668e-12
2.00875e-12
8.31485e-13
3.40749e-13
1.36511e-13
5.33093e-14
1.76764e-14
3.84132e-15
0.999997
0.999987
0.99997
0.999941
0.999894
0.999815
0.999686
0.999475
0.999135
0.998594
0.997748
0.996445
0.994478
0.991574
0.987391
0.98153
0.973564
0.963079
0.949734
0.933299
0.913691
0.890969
0.865321
0.837017
0.806415
0.773898
0.739863
0.704706
0.668813
0.632545
0.596234
0.560181
0.524649
0.489864
0.456014
0.423254
0.391708
0.361471
0.33261
0.305167
0.27916
0.254591
0.231446
0.209699
0.189311
0.170239
0.152432
0.135835
0.12039
0.106039
0.0927242
0.0803881
0.068977
0.0584414
0.048738
0.0398331
0.0318818
0.0247559
0.018179
0.0124861
0.00783143
0.0045026
0.00254382
0.00140195
0.000748845
0.000385203
0.000189507
8.85342e-05
3.90143e-05
1.61213e-05
6.32941e-06
2.69478e-06
1.64982e-06
1.23522e-06
9.25244e-07
6.65187e-07
4.54426e-07
2.92987e-07
1.77679e-07
1.01507e-07
5.49489e-08
2.84042e-08
1.41211e-08
6.82483e-09
3.22287e-09
1.49402e-09
6.79658e-10
3.04597e-10
1.34397e-10
5.85737e-11
2.52063e-11
1.07381e-11
4.52846e-12
1.89294e-12
7.83726e-13
3.21242e-13
1.28719e-13
5.0395e-14
1.67061e-14
3.70688e-15
0.999997
0.999987
0.99997
0.999942
0.999895
0.999816
0.999688
0.999478
0.99914
0.998603
0.997761
0.996466
0.994511
0.991623
0.987462
0.98163
0.9737
0.963258
0.94996
0.933575
0.914016
0.891338
0.865726
0.837463
0.80689
0.774389
0.740359
0.705197
0.669288
0.632995
0.59665
0.560556
0.524976
0.490138
0.456231
0.423412
0.391805
0.361508
0.332589
0.305087
0.279026
0.254405
0.231212
0.20942
0.188994
0.169887
0.15205
0.135428
0.119962
0.105596
0.0922689
0.0799252
0.0685103
0.0579744
0.0482743
0.0393764
0.0314713
0.0243633
0.0178141
0.0121647
0.00757627
0.00434937
0.0024521
0.00134784
0.000717652
0.000367765
0.000180123
8.37266e-05
3.66849e-05
1.50702e-05
5.90886e-06
2.58053e-06
1.62309e-06
1.21987e-06
9.10393e-07
6.51452e-07
4.42751e-07
2.83922e-07
1.71281e-07
9.73945e-08
5.25201e-08
2.70672e-08
1.34257e-08
6.47997e-09
3.0571e-09
1.41623e-09
6.43997e-10
2.88541e-10
1.27304e-10
5.54838e-11
2.38802e-11
1.01751e-11
4.29212e-12
1.7944e-12
7.43063e-13
3.04655e-13
1.22093e-13
4.79409e-14
1.589e-14
3.60355e-15
0.999997
0.999987
0.99997
0.999942
0.999895
0.999817
0.999689
0.99948
0.999144
0.99861
0.997773
0.996484
0.994539
0.991664
0.987522
0.981714
0.973813
0.963407
0.950147
0.933803
0.914282
0.89164
0.866054
0.837821
0.807268
0.774778
0.74075
0.70558
0.669655
0.633337
0.596961
0.56083
0.525208
0.490324
0.456369
0.4235
0.391843
0.361496
0.332527
0.304979
0.278872
0.25421
0.230978
0.209152
0.188695
0.169562
0.151702
0.135062
0.119582
0.105205
0.0918715
0.0795247
0.0681101
0.0575774
0.0478828
0.0389913
0.0311232
0.0240155
0.0174878
0.011878
0.00734992
0.00421414
0.00237169
0.00130075
0.000690726
0.000352838
0.000172157
7.96815e-05
3.47427e-05
1.42028e-05
5.56796e-06
2.49454e-06
1.60257e-06
1.2066e-06
8.97348e-07
6.39433e-07
4.3261e-07
2.76113e-07
1.65812e-07
9.39043e-08
5.047e-08
2.5943e-08
1.28423e-08
6.19108e-09
2.9183e-09
1.35109e-09
6.14141e-10
2.75091e-10
1.21358e-10
5.28916e-11
2.27669e-11
9.70212e-12
4.09338e-12
1.71148e-12
7.08833e-13
2.90664e-13
1.16516e-13
4.58691e-14
1.52076e-14
3.52344e-15
0.999997
0.999987
0.99997
0.999942
0.999896
0.999818
0.999691
0.999483
0.999148
0.998616
0.997783
0.996499
0.994561
0.991698
0.987571
0.981783
0.973907
0.963529
0.950301
0.93399
0.914504
0.891895
0.86634
0.838119
0.807575
0.775088
0.741056
0.705876
0.669934
0.633594
0.597191
0.561027
0.525369
0.490447
0.456451
0.42354
0.391842
0.361453
0.332444
0.304857
0.278714
0.254019
0.230757
0.208904
0.188423
0.16927
0.151394
0.13474
0.119251
0.104868
0.091532
0.0791867
0.0677778
0.057256
0.0475791
0.0387154
0.030909
0.0236276
0.0171628
0.0116096
0.00714506
0.00409383
0.00230116
0.00125995
0.000667632
0.000340156
0.00016545
7.6304e-05
3.31342e-05
1.34894e-05
5.28628e-06
2.41377e-06
1.57947e-06
1.19174e-06
8.84359e-07
6.28274e-07
4.23569e-07
2.69324e-07
1.61138e-07
9.09564e-08
4.87521e-08
2.50059e-08
1.23577e-08
5.9515e-09
2.80336e-09
1.29717e-09
5.89418e-10
2.63953e-10
1.16432e-10
5.07422e-11
2.18429e-11
9.30936e-12
3.92821e-12
1.64264e-12
6.80395e-13
2.78969e-13
1.11904e-13
4.42128e-14
1.46667e-14
3.4515e-15
0.999997
0.999987
0.999971
0.999943
0.999896
0.999819
0.999692
0.999485
0.999151
0.998621
0.99779
0.996512
0.99458
0.991726
0.987611
0.981838
0.973982
0.963626
0.950424
0.934138
0.914677
0.892089
0.866554
0.838347
0.807811
0.775326
0.74129
0.706101
0.670145
0.633785
0.597357
0.561166
0.525478
0.490523
0.456494
0.423549
0.391816
0.361394
0.332353
0.304735
0.278564
0.253841
0.230556
0.208682
0.188183
0.169014
0.151126
0.134463
0.118967
0.10458
0.0912431
0.0788991
0.0674939
0.056978
0.0473087
0.0384536
0.030656
0.023373
0.0169251
0.0114019
0.00698214
0.00399705
0.00224403
0.00122677
0.000648836
0.00032984
0.000160007
7.35711e-05
3.18381e-05
1.29178e-05
5.06328e-06
2.35285e-06
1.56133e-06
1.17937e-06
8.73464e-07
6.18946e-07
4.16051e-07
2.63711e-07
1.57294e-07
8.85425e-08
4.73502e-08
2.42428e-08
1.19635e-08
5.7567e-09
2.70988e-09
1.2533e-09
5.69296e-10
2.5488e-10
1.12415e-10
4.89888e-11
2.10885e-11
8.9884e-12
3.7931e-12
1.58628e-12
6.57065e-13
2.69408e-13
1.08098e-13
4.28882e-14
1.42307e-14
3.39299e-15
0.999997
0.999987
0.999971
0.999943
0.999896
0.999819
0.999693
0.999486
0.999154
0.998625
0.997797
0.996521
0.994595
0.991748
0.987642
0.981882
0.974041
0.963703
0.95052
0.934253
0.914809
0.892236
0.866717
0.838521
0.80799
0.775506
0.741467
0.706269
0.670299
0.633923
0.597476
0.561262
0.525549
0.490568
0.456511
0.423539
0.391778
0.36133
0.332263
0.304621
0.278427
0.253685
0.230381
0.208491
0.187979
0.168799
0.150901
0.134231
0.11873
0.104341
0.0910028
0.0786597
0.0672568
0.0567447
0.0470805
0.0382315
0.0304421
0.0231702
0.0167385
0.011239
0.00685402
0.00392086
0.00219901
0.00120062
0.000634014
0.00032171
0.000155721
7.14237e-05
3.08225e-05
1.24722e-05
4.89226e-06
2.30954e-06
1.54881e-06
1.17043e-06
8.65291e-07
6.11783e-07
4.10196e-07
2.59305e-07
1.54263e-07
8.66357e-08
4.62417e-08
2.36389e-08
1.16512e-08
5.60217e-09
2.63565e-09
1.21842e-09
5.53278e-10
2.47651e-10
1.09212e-10
4.75889e-11
2.04857e-11
8.73172e-12
3.68499e-12
1.54117e-12
6.38403e-13
2.61721e-13
1.05064e-13
4.18286e-14
1.38826e-14
3.34628e-15
0.999997
0.999987
0.999971
0.999943
0.999897
0.99982
0.999693
0.999487
0.999155
0.998628
0.997802
0.996529
0.994606
0.991765
0.987667
0.981916
0.974086
0.963762
0.950593
0.934342
0.914913
0.892354
0.866843
0.838652
0.808125
0.77564
0.741596
0.706391
0.670411
0.634021
0.597557
0.561325
0.525593
0.490591
0.456514
0.42352
0.391738
0.36127
0.332183
0.304523
0.278312
0.253554
0.230237
0.208335
0.187812
0.168624
0.15072
0.134045
0.118541
0.104149
0.090811
0.0784687
0.0670679
0.056559
0.0468991
0.0380559
0.0302744
0.0230124
0.0165941
0.0111135
0.0067554
0.00386232
0.00216448
0.00118058
0.000622676
0.000315501
0.000152453
6.97898e-05
3.00518e-05
1.21354e-05
4.76448e-06
2.27962e-06
1.5414e-06
1.16478e-06
8.59723e-07
6.0668e-07
4.05912e-07
2.56026e-07
1.51984e-07
8.51908e-08
4.53973e-08
2.3177e-08
1.14116e-08
5.48337e-09
2.57851e-09
1.19154e-09
5.4092e-10
2.42068e-10
1.06736e-10
4.65063e-11
2.00193e-11
8.53302e-12
3.60127e-12
1.50624e-12
6.23958e-13
2.55735e-13
1.02692e-13
4.10029e-14
1.3612e-14
3.31063e-15
0.999997
0.999987
0.999971
0.999943
0.999897
0.99982
0.999694
0.999488
0.999157
0.99863
0.997805
0.996534
0.994615
0.991777
0.987684
0.981941
0.974119
0.963805
0.950646
0.934406
0.914986
0.892436
0.866932
0.838746
0.80822
0.775734
0.741687
0.706475
0.670487
0.634086
0.597611
0.561366
0.525619
0.490602
0.456509
0.423499
0.391703
0.361219
0.332118
0.304445
0.278222
0.253454
0.230127
0.208216
0.187686
0.168492
0.150583
0.133905
0.118399
0.104006
0.0906677
0.0783261
0.0669271
0.0564208
0.0467645
0.0379259
0.0301507
0.0228963
0.0164882
0.0110215
0.00668319
0.00381955
0.0021393
0.001166
0.000614444
0.000311
0.00015009
6.86105e-05
2.94968e-05
1.1894e-05
4.67441e-06
2.26028e-06
1.53734e-06
1.16147e-06
8.56184e-07
6.0328e-07
4.02977e-07
2.53741e-07
1.50375e-07
8.41606e-08
4.47898e-08
2.28425e-08
1.12373e-08
5.39675e-09
2.53679e-09
1.17189e-09
5.31883e-10
2.37984e-10
1.04925e-10
4.57142e-11
1.9678e-11
8.3876e-12
3.54e-12
1.48068e-12
6.13397e-13
2.51339e-13
1.00961e-13
4.04042e-14
1.3416e-14
3.2837e-15
0.999997
0.999987
0.999971
0.999943
0.999897
0.99982
0.999694
0.999489
0.999158
0.998632
0.997807
0.996538
0.99462
0.991785
0.987696
0.981956
0.97414
0.963832
0.95068
0.934446
0.915033
0.892489
0.866988
0.838805
0.80828
0.775794
0.741744
0.706528
0.670534
0.634127
0.597644
0.561389
0.525633
0.490606
0.456503
0.423483
0.391677
0.361183
0.332073
0.304392
0.278161
0.253385
0.230052
0.208136
0.187602
0.168404
0.150492
0.133812
0.118304
0.103911
0.0905724
0.0782316
0.0668338
0.0563293
0.0466755
0.0378402
0.0300692
0.0228201
0.0164188
0.0109612
0.00663602
0.00379162
0.00212287
0.00115649
0.000609081
0.000308073
0.000148554
6.78455e-05
2.91376e-05
1.17383e-05
4.61726e-06
2.24895e-06
1.53532e-06
1.15971e-06
8.5414e-07
6.01235e-07
4.01173e-07
2.5232e-07
1.49368e-07
8.35095e-08
4.44018e-08
2.26273e-08
1.11247e-08
5.34064e-09
2.50973e-09
1.15912e-09
5.2601e-10
2.35327e-10
1.03746e-10
4.51984e-11
1.94558e-11
8.29288e-12
3.50007e-12
1.46402e-12
6.06513e-13
2.48471e-13
9.98315e-14
4.00159e-14
1.32889e-14
3.2658e-15
0.999997
0.999987
0.999971
0.999943
0.999897
0.99982
0.999694
0.999489
0.999158
0.998632
0.997808
0.99654
0.994623
0.991789
0.987701
0.981964
0.97415
0.963845
0.950696
0.934466
0.915056
0.892514
0.867015
0.838833
0.808308
0.775822
0.74177
0.706553
0.670556
0.634146
0.597658
0.5614
0.525639
0.490607
0.456499
0.423474
0.391663
0.361165
0.332051
0.304365
0.27813
0.253351
0.230015
0.208096
0.18756
0.16836
0.150447
0.133765
0.118257
0.103864
0.0905253
0.0781848
0.0667877
0.0562842
0.0466316
0.0377979
0.0300291
0.0227825
0.0163846
0.0109316
0.00661286
0.00377791
0.00211481
0.00115184
0.000606457
0.000306642
0.000147805
6.74726e-05
2.89628e-05
1.16627e-05
4.58941e-06
2.2436e-06
1.53441e-06
1.15892e-06
8.5321e-07
6.00295e-07
4.00341e-07
2.51665e-07
1.48905e-07
8.32113e-08
4.42239e-08
2.25283e-08
1.10726e-08
5.3146e-09
2.49713e-09
1.15317e-09
5.23261e-10
2.3408e-10
1.03192e-10
4.49552e-11
1.93506e-11
8.24796e-12
3.48109e-12
1.45608e-12
6.03217e-13
2.47097e-13
9.92881e-14
3.98294e-14
1.32277e-14
3.25725e-15
0.999997
0.999987
0.999971
0.999943
0.999897
0.99982
0.999694
0.999489
0.999158
0.998632
0.997808
0.99654
0.994623
0.991789
0.987701
0.981964
0.97415
0.963845
0.950696
0.934466
0.915056
0.892514
0.867015
0.838833
0.808308
0.775822
0.74177
0.706553
0.670556
0.634146
0.597658
0.5614
0.525639
0.490607
0.456499
0.423474
0.391663
0.361165
0.332051
0.304365
0.27813
0.253351
0.230015
0.208096
0.18756
0.16836
0.150447
0.133765
0.118257
0.103864
0.0905253
0.0781848
0.0667877
0.0562842
0.0466316
0.0377979
0.030029
0.0227825
0.0163846
0.0109316
0.00661285
0.00377791
0.00211481
0.00115184
0.000606456
0.000306641
0.000147805
6.74726e-05
2.89628e-05
1.16627e-05
4.5894e-06
2.2436e-06
1.53441e-06
1.15892e-06
8.53209e-07
6.00295e-07
4.00341e-07
2.51665e-07
1.48905e-07
8.32112e-08
4.42239e-08
2.25283e-08
1.10726e-08
5.3146e-09
2.49713e-09
1.15317e-09
5.23261e-10
2.3408e-10
1.03192e-10
4.49552e-11
1.93506e-11
8.24797e-12
3.48109e-12
1.45608e-12
6.03218e-13
2.47097e-13
9.92883e-14
3.98299e-14
1.32279e-14
3.25729e-15
0.999997
0.999987
0.999971
0.999943
0.999897
0.99982
0.999694
0.999489
0.999158
0.998632
0.997807
0.996538
0.99462
0.991785
0.987696
0.981956
0.97414
0.963832
0.95068
0.934446
0.915033
0.892489
0.866988
0.838805
0.80828
0.775794
0.741744
0.706528
0.670534
0.634127
0.597644
0.561389
0.525633
0.490606
0.456503
0.423483
0.391677
0.361183
0.332073
0.304392
0.278161
0.253385
0.230052
0.208136
0.187602
0.168404
0.150492
0.133812
0.118304
0.103911
0.0905724
0.0782315
0.0668337
0.0563293
0.0466755
0.0378401
0.0300692
0.02282
0.0164187
0.0109612
0.00663601
0.00379161
0.00212286
0.00115649
0.00060908
0.000308072
0.000148554
6.78452e-05
2.91375e-05
1.17383e-05
4.61724e-06
2.24894e-06
1.53531e-06
1.15971e-06
8.54138e-07
6.01234e-07
4.01173e-07
2.5232e-07
1.49368e-07
8.35094e-08
4.44018e-08
2.26273e-08
1.11247e-08
5.34063e-09
2.50972e-09
1.15912e-09
5.2601e-10
2.35327e-10
1.03746e-10
4.51984e-11
1.94558e-11
8.29288e-12
3.50008e-12
1.46402e-12
6.06514e-13
2.48471e-13
9.98318e-14
4.00173e-14
1.32894e-14
3.26597e-15
0.999997
0.999987
0.999971
0.999943
0.999897
0.99982
0.999694
0.999488
0.999157
0.99863
0.997805
0.996534
0.994615
0.991777
0.987684
0.981941
0.974119
0.963805
0.950646
0.934406
0.914987
0.892437
0.866932
0.838746
0.80822
0.775734
0.741687
0.706476
0.670487
0.634087
0.597611
0.561366
0.525619
0.490602
0.456509
0.423499
0.391703
0.361219
0.332118
0.304445
0.278222
0.253454
0.230127
0.208216
0.187686
0.168492
0.150583
0.133905
0.118399
0.104006
0.0906676
0.0783261
0.066927
0.0564207
0.0467644
0.0379259
0.0301506
0.0228963
0.0164882
0.0110215
0.00668316
0.00381954
0.00213929
0.00116599
0.00061444
0.000310999
0.000150089
6.861e-05
2.94966e-05
1.18939e-05
4.67438e-06
2.26027e-06
1.53733e-06
1.16147e-06
8.56181e-07
6.03278e-07
4.02976e-07
2.5374e-07
1.50375e-07
8.41606e-08
4.47897e-08
2.28425e-08
1.12373e-08
5.39674e-09
2.53679e-09
1.17188e-09
5.31882e-10
2.37983e-10
1.04925e-10
4.57141e-11
1.9678e-11
8.3876e-12
3.54e-12
1.48068e-12
6.13398e-13
2.51337e-13
1.00961e-13
4.04063e-14
1.34168e-14
3.28401e-15
0.999997
0.999987
0.999971
0.999943
0.999897
0.99982
0.999693
0.999487
0.999155
0.998628
0.997802
0.996529
0.994606
0.991765
0.987667
0.981916
0.974086
0.963762
0.950593
0.934342
0.914913
0.892354
0.866843
0.838653
0.808125
0.77564
0.741596
0.706391
0.670411
0.634021
0.597557
0.561325
0.525593
0.490591
0.456514
0.42352
0.391739
0.36127
0.332183
0.304523
0.278312
0.253554
0.230237
0.208335
0.187812
0.168624
0.15072
0.134045
0.118541
0.104149
0.0908109
0.0784686
0.0670678
0.0565589
0.0468991
0.0380559
0.0302743
0.0230123
0.0165941
0.0111134
0.00675537
0.0038623
0.00216446
0.00118057
0.000622672
0.000315498
0.000152452
6.97892e-05
3.00515e-05
1.21352e-05
4.76443e-06
2.2796e-06
1.54139e-06
1.16477e-06
8.59718e-07
6.06677e-07
4.05911e-07
2.56026e-07
1.51983e-07
8.51906e-08
4.53972e-08
2.31769e-08
1.14116e-08
5.48335e-09
2.5785e-09
1.19153e-09
5.40918e-10
2.42067e-10
1.06736e-10
4.65062e-11
2.00193e-11
8.53302e-12
3.60127e-12
1.50624e-12
6.2396e-13
2.55734e-13
1.02693e-13
4.10059e-14
1.3613e-14
3.31101e-15
0.999997
0.999987
0.999971
0.999943
0.999896
0.999819
0.999693
0.999486
0.999154
0.998625
0.997797
0.996521
0.994595
0.991748
0.987642
0.981882
0.974041
0.963703
0.95052
0.934253
0.914809
0.892236
0.866717
0.838521
0.807991
0.775507
0.741467
0.706269
0.6703
0.633923
0.597476
0.561262
0.525549
0.490568
0.456511
0.423539
0.391778
0.36133
0.332263
0.304621
0.278427
0.253685
0.230381
0.208491
0.187978
0.168799
0.150901
0.134231
0.11873
0.104341
0.0910027
0.0786596
0.0672568
0.0567446
0.0470804
0.0382315
0.030442
0.0231701
0.0167384
0.011239
0.00685398
0.00392084
0.002199
0.00120061
0.000634008
0.000321707
0.000155719
7.14229e-05
3.08221e-05
1.2472e-05
4.89218e-06
2.30951e-06
1.54879e-06
1.17042e-06
8.65284e-07
6.11779e-07
4.10194e-07
2.59304e-07
1.54263e-07
8.66353e-08
4.62415e-08
2.36388e-08
1.16511e-08
5.60213e-09
2.63564e-09
1.21842e-09
5.53275e-10
2.47649e-10
1.09212e-10
4.75887e-11
2.04857e-11
8.73171e-12
3.68499e-12
1.54117e-12
6.38404e-13
2.61721e-13
1.05064e-13
4.1832e-14
1.38838e-14
3.3466e-15
0.999997
0.999987
0.999971
0.999943
0.999896
0.999819
0.999692
0.999485
0.999151
0.998621
0.99779
0.996512
0.99458
0.991726
0.987611
0.981838
0.973982
0.963627
0.950424
0.934139
0.914677
0.89209
0.866554
0.838347
0.807811
0.775326
0.74129
0.706101
0.670145
0.633785
0.597358
0.561166
0.525478
0.490523
0.456494
0.423549
0.391816
0.361394
0.332353
0.304735
0.278563
0.253841
0.230556
0.208682
0.188183
0.169014
0.151126
0.134463
0.118967
0.10458
0.091243
0.078899
0.0674938
0.0569779
0.0473086
0.0384535
0.0306559
0.023373
0.016925
0.0114019
0.00698209
0.00399701
0.00224401
0.00122676
0.000648828
0.000329836
0.000160004
7.357e-05
3.18376e-05
1.29176e-05
5.06318e-06
2.35281e-06
1.56131e-06
1.17935e-06
8.73454e-07
6.18939e-07
4.16047e-07
2.63709e-07
1.57292e-07
8.85417e-08
4.73497e-08
2.42426e-08
1.19634e-08
5.75664e-09
2.70986e-09
1.25329e-09
5.6929e-10
2.54878e-10
1.12415e-10
4.89885e-11
2.10885e-11
8.98838e-12
3.7931e-12
1.58628e-12
6.57065e-13
2.69407e-13
1.08099e-13
4.28922e-14
1.42321e-14
3.39322e-15
0.999997
0.999987
0.99997
0.999942
0.999896
0.999818
0.999691
0.999483
0.999148
0.998616
0.997783
0.996499
0.994561
0.991698
0.987571
0.981783
0.973907
0.963529
0.950301
0.933991
0.914504
0.891895
0.86634
0.838119
0.807575
0.775088
0.741056
0.705876
0.669935
0.633594
0.597191
0.561027
0.525369
0.490447
0.456451
0.42354
0.391842
0.361453
0.332444
0.304857
0.278714
0.254019
0.230757
0.208904
0.188423
0.16927
0.151394
0.13474
0.119251
0.104867
0.0915318
0.0791866
0.0677777
0.0572559
0.047579
0.0387153
0.0309089
0.0236275
0.0171627
0.0116095
0.007145
0.00409379
0.00230114
0.00125993
0.000667623
0.000340151
0.000165448
7.63026e-05
3.31335e-05
1.34891e-05
5.28616e-06
2.41373e-06
1.57945e-06
1.19172e-06
8.84343e-07
6.28264e-07
4.23562e-07
2.69319e-07
1.61135e-07
9.09547e-08
4.87512e-08
2.50054e-08
1.23575e-08
5.9514e-09
2.80331e-09
1.29714e-09
5.8941e-10
2.63949e-10
1.1643e-10
5.07417e-11
2.18428e-11
9.3093e-12
3.92819e-12
1.64264e-12
6.80392e-13
2.78966e-13
1.11904e-13
4.42167e-14
1.46681e-14
3.45166e-15
0.999997
0.999987
0.99997
0.999942
0.999895
0.999817
0.999689
0.99948
0.999144
0.99861
0.997773
0.996484
0.994539
0.991664
0.987522
0.981714
0.973813
0.963407
0.950148
0.933803
0.914283
0.89164
0.866055
0.837822
0.807269
0.774779
0.74075
0.70558
0.669655
0.633337
0.596961
0.56083
0.525208
0.490324
0.45637
0.4235
0.391843
0.361496
0.332527
0.304979
0.278872
0.25421
0.230978
0.209152
0.188695
0.169562
0.151702
0.135061
0.119582
0.105205
0.0918713
0.0795246
0.06811
0.0575773
0.0478827
0.0389912
0.0311231
0.0240154
0.0174877
0.0118779
0.00734985
0.00421409
0.00237166
0.00130074
0.000690715
0.000352832
0.000172154
7.96799e-05
3.47419e-05
1.42025e-05
5.56782e-06
2.49449e-06
1.60254e-06
1.20658e-06
8.97328e-07
6.39418e-07
4.326e-07
2.76105e-07
1.65807e-07
9.39017e-08
5.04686e-08
2.59423e-08
1.2842e-08
6.19093e-09
2.91824e-09
1.35106e-09
6.14128e-10
2.75086e-10
1.21356e-10
5.28909e-11
2.27666e-11
9.70202e-12
4.09334e-12
1.71147e-12
7.08828e-13
2.90663e-13
1.16517e-13
4.58716e-14
1.52085e-14
3.5236e-15
0.999997
0.999987
0.99997
0.999942
0.999895
0.999816
0.999688
0.999478
0.99914
0.998603
0.997761
0.996466
0.994511
0.991623
0.987462
0.98163
0.9737
0.963258
0.94996
0.933575
0.914016
0.891338
0.865727
0.837463
0.80689
0.774389
0.74036
0.705198
0.669289
0.632995
0.59665
0.560556
0.524976
0.490138
0.456231
0.423412
0.391805
0.361508
0.332589
0.305087
0.279025
0.254405
0.231212
0.20942
0.188994
0.169887
0.15205
0.135428
0.119962
0.105595
0.0922688
0.0799251
0.0685101
0.0579743
0.0482742
0.0393763
0.0314712
0.0243632
0.017814
0.0121646
0.00757618
0.00434931
0.00245206
0.00134782
0.00071764
0.000367758
0.000180119
8.37247e-05
3.6684e-05
1.50697e-05
5.90869e-06
2.58047e-06
1.62306e-06
1.21985e-06
9.10371e-07
6.51434e-07
4.42738e-07
2.83913e-07
1.71274e-07
9.73909e-08
5.25182e-08
2.70663e-08
1.34252e-08
6.47977e-09
3.05701e-09
1.41619e-09
6.4398e-10
2.88534e-10
1.27301e-10
5.54827e-11
2.38799e-11
1.0175e-11
4.29208e-12