/*--------------------------------*- C++ -*----------------------------------*\
  =========                 |
  \\      /  F ield         | OpenFOAM: The Open Source CFD Toolbox
   \\    /   O peration     | Website:  https://openfoam.org
    \\  /    A nd           | Version:  8
     \\/     M anipulation  |
\*---------------------------------------------------------------------------*/
FoamFile
{
    version     2.0;
    format      ascii;
    class       volScalarField;
    location    "0.4/fluid";
    object      CO2;
}
// * * * * * * * * * * * * * * * * * * * * * * * * * * * * * * * * * * * * * //

dimensions      [0 0 0 0 0 0 0];

internalField   nonuniform List<scalar> 
4000
(
4.74723e-07
2.07462e-06
4.76587e-06
9.27925e-06
1.68161e-05
2.93319e-05
4.9971e-05
8.37172e-05
0.000138332
0.000225652
0.000363273
0.000576552
0.000900825
0.00138269
0.00207984
0.00305877
0.00438905
0.00613453
0.00834391
0.0110434
0.0142338
0.0178924
0.0219773
0.026434
0.0312004
0.0362115
0.0414021
0.0467095
0.0520941
0.0575054
0.0628742
0.0681636
0.0733413
0.07838
0.0832578
0.0879572
0.0924647
0.0967709
0.10087
0.104761
0.108442
0.111916
0.115188
0.118262
0.121146
0.123847
0.126371
0.128728
0.130923
0.132965
0.134858
0.136605
0.138207
0.139657
0.140944
0.142041
0.142904
0.143451
0.143579
0.143098
0.141698
0.138877
0.133804
0.125825
0.116302
0.106049
0.0955668
0.085169
0.0750529
0.0653612
0.0561849
0.0475906
0.039659
0.032372
0.0255475
0.0195203
0.0142859
0.00991635
0.00646413
0.00392781
0.00222044
0.00117333
0.000584871
0.000279374
0.000129532
5.87073e-05
2.60876e-05
1.14167e-05
4.92685e-06
2.10362e-06
8.89216e-07
3.73055e-07
1.55349e-07
6.43055e-08
2.64242e-08
1.07556e-08
4.29185e-09
1.63891e-09
5.46387e-10
9.70007e-11
4.74193e-07
2.07262e-06
4.76258e-06
9.27648e-06
1.68186e-05
2.93483e-05
5.00115e-05
8.37829e-05
0.000138387
0.000225565
0.000362695
0.00057474
0.000896066
0.00137172
0.00205813
0.00302035
0.00432656
0.00604011
0.00821049
0.0108661
0.0140108
0.0176251
0.0216703
0.0260944
0.030837
0.0358342
0.0410216
0.0463502
0.0517572
0.0571574
0.0625306
0.0678341
0.0730321
0.0780949
0.0829988
0.0877252
0.0922597
0.0965923
0.100717
0.104631
0.108335
0.11183
0.115121
0.118212
0.121112
0.123826
0.126362
0.128729
0.130934
0.132983
0.134882
0.136635
0.138239
0.139691
0.140975
0.142066
0.142916
0.14344
0.143532
0.142993
0.141497
0.138521
0.133191
0.125044
0.115408
0.105078
0.0945423
0.0841077
0.0739676
0.0642671
0.0550957
0.046525
0.0386462
0.0314049
0.0246828
0.0186789
0.0135256
0.00927993
0.00597776
0.00359456
0.00201831
0.00106491
0.000532941
0.000256331
0.000119887
5.48436e-05
2.45952e-05
1.08544e-05
4.71842e-06
2.02663e-06
8.60587e-07
3.62231e-07
1.51169e-07
6.26529e-08
2.5761e-08
1.04901e-08
4.1884e-09
1.60035e-09
5.3369e-10
9.57741e-11
4.74619e-07
2.07475e-06
4.76871e-06
9.29129e-06
1.68503e-05
2.94088e-05
5.0115e-05
8.39379e-05
0.000138575
0.000225687
0.000362478
0.000573516
0.000892509
0.00136406
0.00204328
0.00299369
0.00428208
0.00597077
0.00810905
0.0107261
0.0138276
0.0173965
0.021397
0.0257796
0.0304865
0.0354556
0.0406294
0.0459547
0.0513301
0.0567337
0.0621165
0.0674355
0.0726539
0.0777413
0.0826728
0.0874288
0.0919942
0.0963582
0.100514
0.104459
0.108191
0.111714
0.11503
0.118146
0.121067
0.123801
0.126356
0.128739
0.130957
0.133018
0.134927
0.136686
0.138295
0.139747
0.141028
0.142108
0.142937
0.143423
0.143456
0.14282
0.141167
0.137937
0.132188
0.123777
0.113972
0.103537
0.0929391
0.0824747
0.0723318
0.0626541
0.0535275
0.0450267
0.0372412
0.0300664
0.0234471
0.0176281
0.0126706
0.00862787
0.00552085
0.0033049
0.00185293
0.000979174
0.000491953
0.000237661
0.00011169
5.13378e-05
2.31304e-05
1.02522e-05
4.47435e-06
1.92837e-06
8.21189e-07
3.46405e-07
1.44798e-07
6.00738e-08
2.4717e-08
1.00675e-08
4.02159e-09
1.53862e-09
5.13183e-10
9.32662e-11
4.73296e-07
2.0689e-06
4.75494e-06
9.26324e-06
1.67955e-05
2.93022e-05
4.99057e-05
8.3525e-05
0.000137765
0.000224125
0.00035955
0.000568242
0.000883484
0.00134899
0.00201894
0.00295589
0.00422582
0.00589065
0.00799984
0.0105834
0.0136485
0.0171797
0.0211433
0.0254914
0.0301678
0.0351117
0.040278
0.0455627
0.0509352
0.056341
0.0617314
0.0670631
0.0722988
0.0774073
0.0823632
0.087146
0.0917399
0.0961335
0.100319
0.104293
0.108055
0.111606
0.114949
0.118089
0.121034
0.123789
0.126363
0.128762
0.130996
0.133069
0.134988
0.136755
0.138368
0.13982
0.141094
0.14216
0.142963
0.143402
0.143366
0.142613
0.140772
0.137238
0.13099
0.122274
0.112284
0.101742
0.0910927
0.0806175
0.0705008
0.0608781
0.0518334
0.0434447
0.0357878
0.0287023
0.0222404
0.0165997
0.0118343
0.00798765
0.00506658
0.00300984
0.00167823
0.000884337
0.000444185
0.000214942
0.000101289
4.67134e-05
2.11234e-05
9.39745e-06
4.1164e-06
1.78035e-06
7.60678e-07
3.2184e-07
1.3489e-07
5.60885e-08
2.31202e-08
9.43041e-09
3.77081e-09
1.4467e-09
4.8281e-10
8.89896e-11
4.70837e-07
2.05807e-06
4.72965e-06
9.21279e-06
1.67009e-05
2.91295e-05
4.95946e-05
8.29689e-05
0.000136778
0.000222391
0.000356544
0.000563116
0.000874928
0.00133506
0.00199696
0.00292237
0.00417659
0.0058212
0.00790581
0.0104611
0.0134954
0.0169949
0.020927
0.0252454
0.029895
0.0348202
0.0399506
0.0452289
0.0505983
0.0560054
0.0614017
0.0667436
0.0719938
0.0771203
0.0820971
0.0869034
0.0915225
0.0959423
0.100155
0.104156
0.107944
0.111521
0.114888
0.118052
0.121019
0.123794
0.126385
0.128801
0.131049
0.133134
0.135063
0.136836
0.138452
0.139902
0.141169
0.142218
0.142992
0.143384
0.14327
0.142392
0.140353
0.136501
0.129737
0.120709
0.110537
0.0998971
0.0892102
0.0787406
0.0686688
0.0591206
0.0501775
0.0419226
0.0343987
0.0273983
0.0211057
0.0156468
0.0110707
0.00741259
0.00466568
0.00275396
0.00152895
0.00080406
0.000403856
0.000195682
9.2394e-05
4.27081e-05
1.93582e-05
8.63212e-06
3.78946e-06
1.64222e-06
7.02924e-07
2.97868e-07
1.25013e-07
5.20404e-08
2.14727e-08
8.76524e-09
3.50724e-09
1.34809e-09
4.50168e-10
8.42256e-11
4.67453e-07
2.04316e-06
4.69488e-06
9.14355e-06
1.65717e-05
2.88962e-05
4.91812e-05
8.22463e-05
0.00013553
0.000220266
0.000352979
0.000557246
0.000865473
0.00132022
0.00197432
0.00288896
0.00412901
0.0057559
0.00781954
0.0103513
0.0133604
0.0168342
0.0207414
0.0250367
0.0296657
0.0345804
0.039692
0.044959
0.0503231
0.0557301
0.0611309
0.0664816
0.0717442
0.0768863
0.0818814
0.086708
0.091349
0.0957918
0.100028
0.104053
0.107864
0.111463
0.114853
0.118038
0.121023
0.123816
0.126423
0.128854
0.131114
0.133209
0.135146
0.136924
0.138542
0.13999
0.141247
0.142279
0.14302
0.143363
0.14317
0.142168
0.139934
0.135769
0.128506
0.119184
0.108844
0.0981213
0.0874092
0.0769565
0.0669394
0.0574734
0.0486377
0.04052
0.0331233
0.0262045
0.0200767
0.0147888
0.0103872
0.00689981
0.00430868
0.00252547
0.00139457
0.000730845
0.00036644
0.000177534
8.38835e-05
3.8823e-05
1.76253e-05
7.87353e-06
3.46299e-06
1.50358e-06
6.44772e-07
2.73692e-07
1.15048e-07
4.79587e-08
1.98131e-08
8.09612e-09
3.24162e-09
1.24806e-09
4.17004e-10
7.92961e-11
4.63718e-07
2.02677e-06
4.65687e-06
9.06852e-06
1.64333e-05
2.86495e-05
4.87508e-05
8.15066e-05
0.000134276
0.000218168
0.000349525
0.000551657
0.000856617
0.00130652
0.00195371
0.0028589
0.00408662
0.00569827
0.00774404
0.0102559
0.0132441
0.0166969
0.020584
0.0248612
0.0294761
0.034365
0.0394706
0.0447334
0.0500962
0.0555053
0.0609115
0.0662708
0.0715449
0.0767011
0.0817123
0.0865567
0.0912169
0.0956796
0.0999362
0.103981
0.107813
0.111432
0.11484
0.118042
0.121044
0.123852
0.126473
0.128915
0.131186
0.13329
0.135232
0.137014
0.138632
0.140076
0.141323
0.142335
0.143042
0.143335
0.143062
0.141936
0.139508
0.13504
0.127325
0.117743
0.107261
0.0964714
0.0857457
0.075317
0.0653578
0.0559734
0.0472413
0.0392546
0.0319511
0.0251598
0.0191728
0.014035
0.00978835
0.00645298
0.00399978
0.00232923
0.00127987
0.000668573
0.000334631
0.000162068
7.65967e-05
3.54752e-05
1.61205e-05
7.20914e-06
3.17447e-06
1.37995e-06
5.92456e-07
2.51768e-07
1.05944e-07
4.4205e-08
1.82778e-08
7.4745e-09
2.99455e-09
1.15519e-09
3.85892e-10
7.44009e-11
4.59924e-07
2.01014e-06
4.6184e-06
8.99282e-06
1.62942e-05
2.84028e-05
4.83228e-05
8.07762e-05
0.000133048
0.000216133
0.000346206
0.000546347
0.000848301
0.00129381
0.00193482
0.00283169
0.00404871
0.00564732
0.00767797
0.0101733
0.0131441
0.0165795
0.0204502
0.0247126
0.0293186
0.034195
0.0392926
0.0445513
0.0499135
0.0553251
0.0607369
0.0661044
0.0713891
0.0765579
0.0815835
0.0864436
0.0911204
0.0956004
0.0998745
0.103937
0.107786
0.111421
0.114845
0.118062
0.121078
0.123898
0.126531
0.128983
0.131261
0.133372
0.135319
0.137103
0.13872
0.140158
0.141393
0.142385
0.143055
0.143295
0.142936
0.141675
0.139033
0.134216
0.126167
0.11639
0.105802
0.0949688
0.0842416
0.0738426
0.0639419
0.0546356
0.0460001
0.0381278
0.0309161
0.0242407
0.0183797
0.0133759
0.00926685
0.00606573
0.00373336
0.00216057
0.00118138
0.000614992
0.000307139
0.000148634
7.0234e-05
3.25365e-05
1.47929e-05
6.62034e-06
2.91775e-06
1.26955e-06
5.45601e-07
2.3208e-07
9.77509e-08
4.08205e-08
1.68902e-08
6.91103e-09
2.76976e-09
1.06956e-09
3.57075e-10
6.94381e-11
4.56296e-07
1.99425e-06
4.58173e-06
8.92088e-06
1.61625e-05
2.81703e-05
4.79216e-05
8.00957e-05
0.000131911
0.000214262
0.00034318
0.000541543
0.000840835
0.00128249
0.00191813
0.0028078
0.00401568
0.00560321
0.00762116
0.0101026
0.0130591
0.0164805
0.0203378
0.0245876
0.0291783
0.0340507
0.0391455
0.0444032
0.0497666
0.0551818
0.0605994
0.0659749
0.0712694
0.0764496
0.0814879
0.0863618
0.091053
0.0955478
0.0998369
0.103915
0.107778
0.111427
0.114864
0.118093
0.12112
0.12395
0.126592
0.129052
0.131337
0.133452
0.135402
0.137187
0.138801
0.140233
0.141456
0.142426
0.143058
0.143245
0.1428
0.141401
0.138537
0.133357
0.125064
0.115145
0.104483
0.0936222
0.0829017
0.0725382
0.0626936
0.0534598
0.0449134
0.0371416
0.0300045
0.0234343
0.0176865
0.012802
0.00881508
0.00573228
0.00350546
0.00201716
0.00109801
0.000569742
0.000283928
0.000137276
6.48409e-05
3.00373e-05
1.36597e-05
6.11572e-06
2.69682e-06
1.17418e-06
5.04966e-07
2.14946e-07
9.05984e-08
3.78551e-08
1.56713e-08
6.41488e-09
2.57126e-09
9.92425e-10
3.31203e-10
6.4956e-11
4.52947e-07
1.9796e-06
4.54797e-06
8.85475e-06
1.60417e-05
2.79577e-05
4.7556e-05
7.94777e-05
0.000130883
0.000212579
0.00034047
0.000537265
0.000834226
0.00127253
0.00190353
0.00278706
0.00398717
0.00556539
0.00757277
0.0100429
0.0129879
0.0163983
0.0202461
0.0244901
0.0290709
0.0339371
0.0390285
0.0442855
0.0496504
0.0550693
0.0604926
0.0658755
0.071179
0.0763694
0.0814189
0.0863047
0.0910084
0.0955159
0.0998177
0.103908
0.107783
0.111443
0.114891
0.11813
0.121166
0.124005
0.126654
0.12912
0.13141
0.133529
0.135481
0.137265
0.138877
0.140301
0.141512
0.142461
0.143058
0.143195
0.142668
0.141141
0.138072
0.132556
0.124064
0.114031
0.103312
0.0924342
0.0817246
0.0713967
0.0616043
0.0524368
0.0439715
0.0362856
0.0292071
0.0227313
0.0170843
0.0123055
0.00842613
0.00544679
0.00331145
0.00189568
0.00102761
0.000531586
0.000264348
0.000127682
6.02758e-05
2.79169e-05
1.26958e-05
5.68542e-06
2.50797e-06
1.09245e-06
4.70071e-07
2.00205e-07
8.44335e-08
3.52953e-08
1.46173e-08
5.98399e-09
2.39932e-09
9.26932e-10
3.09215e-10
6.1296e-11
4.49943e-07
1.96647e-06
4.51772e-06
8.79561e-06
1.59339e-05
2.77684e-05
4.72312e-05
7.89305e-05
0.000129975
0.000211099
0.000338098
0.000533535
0.000828491
0.00126393
0.00189098
0.00276931
0.00396289
0.00553332
0.00753189
0.00999255
0.0129278
0.0163285
0.0201666
0.0244015
0.0289796
0.0338436
0.0389341
0.0441916
0.0495589
0.0549818
0.0604105
0.0658003
0.0711119
0.0763113
0.0813706
0.0862668
0.0909811
0.0954994
0.0998118
0.103912
0.107797
0.111467
0.114924
0.118171
0.121215
0.12406
0.126714
0.129185
0.131478
0.1336
0.135553
0.137336
0.138945
0.140363
0.141562
0.142492
0.143057
0.143148
0.142549
0.140908
0.137658
0.131846
0.123182
0.113053
0.102288
0.0913983
0.0807012
0.0704067
0.0606618
0.0515535
0.0431604
0.0355487
0.0285147
0.0221227
0.0165645
0.0118786
0.00809323
0.00520377
0.00314724
0.00179338
0.000968553
0.00049964
0.000247966
0.000119651
5.64502e-05
2.61371e-05
1.18852e-05
5.32281e-06
2.3485e-06
1.0233e-06
4.40484e-07
1.87683e-07
7.91879e-08
3.31145e-08
1.37187e-08
5.61711e-09
2.25282e-09
8.71451e-10
2.90645e-10
5.83867e-11
4.47305e-07
1.95494e-06
4.49119e-06
8.7438e-06
1.58395e-05
2.7603e-05
4.69481e-05
7.84547e-05
0.000129189
0.000209819
0.000336053
0.000530333
0.000823585
0.0012566
0.00188033
0.00275431
0.00394249
0.00550655
0.00749802
0.00995125
0.0128792
0.0162733
0.020106
0.0243348
0.0289086
0.0337701
0.0388598
0.0441182
0.0494879
0.0549146
0.0603484
0.0657444
0.0710631
0.0762704
0.0813382
0.0862431
0.0909665
0.0954938
0.099815
0.103924
0.107817
0.111495
0.114959
0.118213
0.121262
0.124112
0.126771
0.129245
0.131541
0.133664
0.135617
0.137399
0.139005
0.140417
0.141606
0.142519
0.143056
0.143107
0.142445
0.140704
0.137296
0.131227
0.122414
0.112203
0.101401
0.0905032
0.079819
0.0695552
0.0598528
0.0507971
0.0424684
0.034917
0.0279177
0.0215995
0.0161192
0.0115142
0.00781022
0.00499819
0.00300904
0.00170767
0.000919232
0.000473013
0.00023432
0.00011296
5.32604e-05
2.46514e-05
1.12077e-05
5.0193e-06
2.21482e-06
9.65248e-07
4.1561e-07
1.77141e-07
7.47653e-08
3.1273e-08
1.29591e-08
5.30703e-09
2.129e-09
8.24775e-10
2.7501e-10
5.60404e-11
4.45033e-07
1.94501e-06
4.46837e-06
8.69926e-06
1.57586e-05
2.74613e-05
4.67059e-05
7.80484e-05
0.000128518
0.000208731
0.00033432
0.000527624
0.000819446
0.00125043
0.0018714
0.00274178
0.00392549
0.0054843
0.00746997
0.00991717
0.0128393
0.0162282
0.0200569
0.0242812
0.0288519
0.0337119
0.0388014
0.044061
0.0494331
0.0548634
0.0603019
0.0657034
0.0710283
0.0762425
0.0813175
0.0862299
0.0909608
0.0954956
0.0998241
0.10394
0.10784
0.111524
0.114994
0.118253
0.121306
0.12416
0.126822
0.129299
0.131597
0.133721
0.135673
0.137454
0.139056
0.140463
0.141643
0.142541
0.143054
0.143072
0.142355
0.140529
0.136982
0.13069
0.12175
0.111471
0.100639
0.0897367
0.0790653
0.0688294
0.0591646
0.0501549
0.0418826
0.0343804
0.0274083
0.0211541
0.0157411
0.0112057
0.00757165
0.00482565
0.00289358
0.00163636
0.000878324
0.00045097
0.000223034
0.000107425
5.06208e-05
2.34208e-05
1.0646e-05
4.7674e-06
2.10375e-06
9.16949e-07
3.9489e-07
1.6835e-07
7.10726e-08
2.97352e-08
1.23243e-08
5.04751e-09
2.02533e-09
7.85548e-10
2.61892e-10
5.41401e-11
4.43114e-07
1.93662e-06
4.4491e-06
8.66168e-06
1.56903e-05
2.73419e-05
4.65023e-05
7.77074e-05
0.000127957
0.000207822
0.000332873
0.000525369
0.000816009
0.00124532
0.00186402
0.00273145
0.0039115
0.00546603
0.00744693
0.00988909
0.0128062
0.0161901
0.0200142
0.0242367
0.0288061
0.0336656
0.0387556
0.0440167
0.0493913
0.0548249
0.0602675
0.0656739
0.0710042
0.0762242
0.0813052
0.0862239
0.090961
0.095502
0.0998365
0.103958
0.107864
0.111553
0.115027
0.11829
0.121347
0.124204
0.126868
0.129347
0.131645
0.133769
0.135722
0.137501
0.1391
0.140501
0.141672
0.142558
0.143052
0.143044
0.14228
0.14038
0.136715
0.13023
0.121183
0.110849
0.0999932
0.0890888
0.0784297
0.0682184
0.0585861
0.0496156
0.0413907
0.0339318
0.0269799
0.0207802
0.0154242
0.0109479
0.00737283
0.00468239
0.00279809
0.00157758
0.000844699
0.000432882
0.00021378
0.000102887
4.84559e-05
2.2411e-05
1.01847e-05
4.56031e-06
2.01234e-06
8.77163e-07
3.77805e-07
1.61094e-07
6.8023e-08
2.84653e-08
1.18e-08
4.8327e-09
1.94042e-09
7.54198e-10
2.51387e-10
5.25286e-11
4.41526e-07
1.92969e-06
4.43316e-06
8.63063e-06
1.5634e-05
2.72435e-05
4.63346e-05
7.74269e-05
0.000127496
0.000207076
0.00033169
0.000523528
0.000813209
0.00124117
0.00185804
0.0027231
0.00390024
0.00545138
0.00742857
0.00986692
0.0127803
0.0161609
0.0199822
0.0242025
0.0287708
0.03363
0.0387206
0.0439831
0.0493598
0.0547964
0.0602426
0.0656531
0.0709879
0.0762128
0.0812988
0.0862226
0.0909648
0.0955108
0.0998502
0.103976
0.107886
0.111579
0.115057
0.118323
0.121382
0.124242
0.126908
0.129388
0.131687
0.133811
0.135763
0.137541
0.139137
0.140533
0.141698
0.142574
0.143052
0.143019
0.142217
0.140255
0.136493
0.12985
0.120714
0.110334
0.0994588
0.0885528
0.0779042
0.0677136
0.0581086
0.049171
0.0409859
0.0335615
0.0266255
0.0204714
0.0151631
0.0107359
0.00720974
0.00456523
0.00272023
0.0015298
0.000817425
0.000418231
0.000206288
9.92133e-05
4.67028e-05
2.15927e-05
9.81061e-06
4.39226e-06
1.9381e-06
8.44823e-07
3.63905e-07
1.55186e-07
6.5538e-08
2.74293e-08
1.13715e-08
4.65713e-09
1.87078e-09
7.2895e-10
2.42934e-10
5.12226e-11
4.40246e-07
1.9241e-06
4.42033e-06
8.60564e-06
1.55886e-05
2.71644e-05
4.61999e-05
7.7202e-05
0.000127126
0.00020648
0.000330745
0.00052206
0.000810981
0.00123788
0.0018533
0.00271651
0.00389137
0.00543988
0.00741423
0.00984972
0.0127605
0.0161389
0.0199578
0.0241766
0.0287439
0.033603
0.0386942
0.043958
0.0493367
0.0547758
0.0602249
0.0656388
0.0709774
0.0762061
0.0812963
0.0862241
0.0909704
0.0955204
0.0998636
0.103993
0.107907
0.111602
0.115083
0.118351
0.121413
0.124274
0.126941
0.129422
0.131722
0.133846
0.135797
0.137574
0.139167
0.140561
0.14172
0.142587
0.143052
0.143
0.142166
0.140155
0.136315
0.129544
0.120337
0.109919
0.0990285
0.0881211
0.0774809
0.067307
0.0577239
0.048813
0.0406606
0.0332629
0.0263403
0.0202235
0.0149537
0.0105659
0.0070792
0.00447158
0.00265811
0.00149175
0.000795737
0.000406589
0.000200337
9.62938e-05
4.53089e-05
2.09417e-05
9.51281e-06
4.25839e-06
1.87893e-06
8.19028e-07
3.52813e-07
1.50469e-07
6.35532e-08
2.66018e-08
1.10292e-08
4.51646e-09
1.81494e-09
7.08777e-10
2.3622e-10
5.01888e-11
4.39253e-07
1.91976e-06
4.41037e-06
8.58625e-06
1.55535e-05
2.71031e-05
4.60957e-05
7.7028e-05
0.000126841
0.00020602
0.000330016
0.00052093
0.000809268
0.00123534
0.00184967
0.00271145
0.00388457
0.00543106
0.00740321
0.00983642
0.0127449
0.0161213
0.019939
0.0241568
0.0287238
0.033583
0.0386748
0.0439397
0.04932
0.0547612
0.0602127
0.0656293
0.0709708
0.0762026
0.0812959
0.086227
0.0909764
0.0955294
0.0998755
0.104008
0.107924
0.111622
0.115104
0.118374
0.121438
0.1243
0.126968
0.129449
0.13175
0.133874
0.135824
0.1376
0.139192
0.140582
0.141737
0.142598
0.143053
0.142985
0.142127
0.140078
0.136176
0.129308
0.120045
0.109598
0.0986945
0.0877858
0.0771519
0.0669907
0.0574245
0.0485339
0.0404064
0.0330276
0.0261246
0.0200343
0.0147931
0.0104354
0.00697878
0.00439951
0.00261028
0.00146243
0.000779014
0.000397605
0.00019574
9.40379e-05
4.42315e-05
2.04383e-05
9.2825e-06
4.15482e-06
1.83314e-06
7.99063e-07
3.44226e-07
1.46817e-07
6.20164e-08
2.59613e-08
1.07643e-08
4.40739e-09
1.77176e-09
6.93166e-10
2.3103e-10
4.93968e-11
4.38527e-07
1.91659e-06
4.40309e-06
8.57209e-06
1.55279e-05
2.70584e-05
4.60196e-05
7.69012e-05
0.000126633
0.000205685
0.000329486
0.000520109
0.000808024
0.00123351
0.00184703
0.00270779
0.00387966
0.00542471
0.00739529
0.00982691
0.0127339
0.016109
0.0199257
0.0241429
0.0287096
0.0335689
0.0386613
0.0439271
0.0493086
0.0547513
0.0602047
0.0656233
0.0709669
0.076201
0.0812966
0.08623
0.0909817
0.0955369
0.0998852
0.10402
0.107937
0.111637
0.115121
0.118392
0.121456
0.12432
0.126989
0.12947
0.131771
0.133895
0.135845
0.13762
0.13921
0.140599
0.14175
0.142606
0.143054
0.142974
0.142098
0.140021
0.136075
0.129135
0.119831
0.109362
0.0984501
0.0875403
0.0769109
0.066759
0.0572049
0.0483293
0.0402201
0.0328543
0.0259686
0.0198974
0.0146767
0.0103407
0.006906
0.0043473
0.00257561
0.00144113
0.000766816
0.000391033
0.000192371
9.23836e-05
4.34413e-05
2.00691e-05
9.1136e-06
4.07889e-06
1.79957e-06
7.84433e-07
3.37935e-07
1.44142e-07
6.08912e-08
2.54926e-08
1.05705e-08
4.32746e-09
1.74025e-09
6.81833e-10
2.27264e-10
4.88109e-11
4.38054e-07
1.91453e-06
4.39835e-06
8.56286e-06
1.55111e-05
2.70293e-05
4.59702e-05
7.68188e-05
0.000126498
0.000205467
0.000329143
0.000519577
0.000807219
0.00123232
0.00184533
0.00270543
0.0038765
0.00542062
0.00739021
0.00982083
0.0127269
0.0161011
0.0199172
0.0241341
0.0287006
0.03356
0.0386528
0.0439192
0.0493016
0.0547453
0.0601998
0.0656197
0.0709648
0.0762004
0.0812975
0.0862324
0.0909857
0.0955423
0.0998919
0.104028
0.107946
0.111647
0.115132
0.118404
0.121469
0.124333
0.127002
0.129484
0.131784
0.133909
0.135859
0.137633
0.139223
0.140609
0.141759
0.142611
0.143054
0.142967
0.142079
0.139984
0.136009
0.129021
0.119691
0.109208
0.09829
0.0873796
0.0767531
0.0666073
0.0570613
0.0481955
0.0400984
0.0327412
0.0258671
0.0198085
0.0146014
0.0102795
0.00685908
0.00431374
0.00255337
0.00142743
0.000758935
0.000386771
0.000190181
9.13069e-05
4.29267e-05
1.98286e-05
9.00356e-06
4.02941e-06
1.7777e-06
7.74896e-07
3.33835e-07
1.42399e-07
6.01577e-08
2.51869e-08
1.0444e-08
4.27535e-09
1.7197e-09
6.74479e-10
2.24821e-10
4.84265e-11
4.37823e-07
1.91352e-06
4.39605e-06
8.55839e-06
1.55031e-05
2.70153e-05
4.59464e-05
7.67794e-05
0.000126433
0.000205364
0.000328979
0.000519325
0.000806838
0.00123176
0.00184453
0.00270432
0.00387501
0.0054187
0.00738782
0.00981796
0.0127236
0.0160974
0.0199132
0.0241299
0.0286964
0.0335559
0.0386488
0.0439155
0.0492983
0.0547425
0.0601976
0.0656182
0.0709639
0.0762002
0.0812981
0.0862337
0.0909877
0.095545
0.0998953
0.104032
0.107951
0.111652
0.115137
0.11841
0.121475
0.124339
0.127009
0.129491
0.131791
0.133915
0.135865
0.137639
0.139229
0.140615
0.141763
0.142614
0.143054
0.142963
0.14207
0.139965
0.135976
0.128965
0.119623
0.109133
0.0982116
0.0873009
0.0766759
0.0665331
0.0569912
0.0481303
0.0400394
0.0326862
0.025818
0.0197656
0.0145652
0.0102503
0.00683682
0.00429794
0.00254298
0.00142108
0.00075529
0.000384797
0.000189164
9.08058e-05
4.26866e-05
1.97162e-05
8.95198e-06
4.00616e-06
1.76739e-06
7.70394e-07
3.31894e-07
1.41571e-07
5.98086e-08
2.50411e-08
1.03835e-08
4.25038e-09
1.70984e-09
6.70942e-10
2.23644e-10
4.82416e-11
4.37823e-07
1.91352e-06
4.39605e-06
8.55839e-06
1.55031e-05
2.70153e-05
4.59464e-05
7.67793e-05
0.000126433
0.000205364
0.000328979
0.000519325
0.000806838
0.00123176
0.00184453
0.00270431
0.00387501
0.0054187
0.00738782
0.00981796
0.0127236
0.0160974
0.0199132
0.0241299
0.0286964
0.0335559
0.0386487
0.0439155
0.0492983
0.0547425
0.0601976
0.0656182
0.0709639
0.0762002
0.0812981
0.0862337
0.0909877
0.095545
0.0998953
0.104032
0.107951
0.111652
0.115137
0.11841
0.121475
0.124339
0.127009
0.129491
0.131791
0.133915
0.135865
0.137639
0.139229
0.140615
0.141763
0.142614
0.143054
0.142963
0.14207
0.139965
0.135976
0.128965
0.119623
0.109133
0.0982116
0.0873009
0.0766759
0.0665331
0.0569912
0.0481303
0.0400394
0.0326862
0.025818
0.0197656
0.0145652
0.0102503
0.00683682
0.00429794
0.00254298
0.00142108
0.00075529
0.000384797
0.000189164
9.08057e-05
4.26866e-05
1.97162e-05
8.95198e-06
4.00615e-06
1.76739e-06
7.70394e-07
3.31894e-07
1.41571e-07
5.98086e-08
2.5041e-08
1.03834e-08
4.25037e-09
1.70984e-09
6.70947e-10
2.23645e-10
4.82419e-11
4.38053e-07
1.91452e-06
4.39835e-06
8.56285e-06
1.55111e-05
2.70293e-05
4.59701e-05
7.68187e-05
0.000126498
0.000205467
0.000329142
0.000519576
0.000807218
0.00123232
0.00184533
0.00270543
0.00387649
0.00542062
0.00739021
0.00982083
0.0127269
0.0161011
0.0199172
0.024134
0.0287006
0.03356
0.0386527
0.0439192
0.0493016
0.0547453
0.0601998
0.0656197
0.0709648
0.0762004
0.0812975
0.0862324
0.0909856
0.0955423
0.0998919
0.104028
0.107946
0.111647
0.115132
0.118404
0.121469
0.124333
0.127002
0.129484
0.131784
0.133909
0.135859
0.137633
0.139222
0.140609
0.141759
0.142611
0.143054
0.142967
0.142079
0.139984
0.136009
0.129021
0.119691
0.109208
0.09829
0.0873796
0.0767531
0.0666072
0.0570613
0.0481955
0.0400984
0.0327412
0.0258671
0.0198085
0.0146014
0.0102795
0.00685908
0.00431374
0.00255337
0.00142743
0.000758935
0.00038677
0.000190181
9.13068e-05
4.29266e-05
1.98286e-05
9.00354e-06
4.0294e-06
1.77769e-06
7.74894e-07
3.33834e-07
1.42398e-07
6.01575e-08
2.51869e-08
1.0444e-08
4.27533e-09
1.7197e-09
6.74491e-10
2.24826e-10
4.84282e-11
4.38526e-07
1.91659e-06
4.40309e-06
8.57207e-06
1.55278e-05
2.70584e-05
4.60196e-05
7.69011e-05
0.000126633
0.000205685
0.000329486
0.000520108
0.000808022
0.00123351
0.00184703
0.00270778
0.00387965
0.0054247
0.00739528
0.0098269
0.0127339
0.016109
0.0199257
0.0241429
0.0287096
0.0335689
0.0386613
0.0439271
0.0493086
0.0547513
0.0602047
0.0656232
0.0709669
0.076201
0.0812966
0.08623
0.0909817
0.0955369
0.0998851
0.10402
0.107937
0.111637
0.115121
0.118392
0.121456
0.12432
0.126989
0.12947
0.13177
0.133895
0.135845
0.13762
0.13921
0.140599
0.14175
0.142606
0.143053
0.142974
0.142098
0.140021
0.136075
0.129135
0.119831
0.109362
0.09845
0.0875403
0.0769108
0.0667589
0.0572049
0.0483293
0.0402201
0.0328543
0.0259686
0.0198974
0.0146767
0.0103407
0.006906
0.0043473
0.00257561
0.00144113
0.000766815
0.000391033
0.000192371
9.23834e-05
4.34411e-05
2.00691e-05
9.11356e-06
4.07887e-06
1.79956e-06
7.84429e-07
3.37933e-07
1.44142e-07
6.08909e-08
2.54924e-08
1.05704e-08
4.32741e-09
1.74025e-09
6.81852e-10
2.2727e-10
4.8814e-11
4.39252e-07
1.91976e-06
4.41036e-06
8.58623e-06
1.55535e-05
2.71031e-05
4.60956e-05
7.70279e-05
0.00012684
0.000206019
0.000330015
0.000520929
0.000809266
0.00123534
0.00184966
0.00271144
0.00388456
0.00543105
0.0074032
0.00983641
0.0127449
0.0161213
0.019939
0.0241568
0.0287238
0.033583
0.0386748
0.0439397
0.04932
0.0547611
0.0602127
0.0656293
0.0709707
0.0762026
0.0812959
0.0862269
0.0909764
0.0955294
0.0998755
0.104008
0.107924
0.111622
0.115104
0.118374
0.121438
0.1243
0.126968
0.129449
0.13175
0.133874
0.135824
0.1376
0.139192
0.140582
0.141737
0.142598
0.143053
0.142985
0.142127
0.140078
0.136176
0.129308
0.120045
0.109598
0.0986944
0.0877857
0.0771518
0.0669906
0.0574244
0.0485339
0.0404064
0.0330275
0.0261246
0.0200343
0.0147931
0.0104353
0.00697877
0.00439951
0.00261028
0.00146243
0.000779012
0.000397604
0.00019574
9.40376e-05
4.42313e-05
2.04382e-05
9.28245e-06
4.1548e-06
1.83312e-06
7.99057e-07
3.44223e-07
1.46816e-07
6.2016e-08
2.59612e-08
1.07642e-08
4.40733e-09
1.77175e-09
6.93192e-10
2.31039e-10
4.94007e-11
4.40244e-07
1.92409e-06
4.42031e-06
8.6056e-06
1.55886e-05
2.71643e-05
4.61997e-05
7.72017e-05
0.000127126
0.000206479
0.000330744
0.000522059
0.000810979
0.00123787
0.0018533
0.0027165
0.00389136
0.00543987
0.00741422
0.0098497
0.0127605
0.0161389
0.0199578
0.0241765
0.0287439
0.033603
0.0386941
0.0439579
0.0493366
0.0547757
0.0602249
0.0656388
0.0709773
0.0762061
0.0812962
0.0862241
0.0909704
0.0955203
0.0998635
0.103993
0.107907
0.111602
0.115083
0.118351
0.121413
0.124274
0.126941
0.129422
0.131722
0.133846
0.135797
0.137574
0.139167
0.14056
0.14172
0.142587
0.143052
0.143
0.142166
0.140155
0.136315
0.129544
0.120337
0.109919
0.0990284
0.088121
0.0774807
0.0673069
0.0577238
0.048813
0.0406606
0.0332629
0.0263402
0.0202234
0.0149536
0.0105659
0.00707918
0.00447157
0.0026581
0.00149174
0.000795734
0.000406588
0.000200336
9.62933e-05
4.53086e-05
2.09415e-05
9.51274e-06
4.25835e-06
1.87891e-06
8.1902e-07
3.52809e-07
1.50468e-07
6.35525e-08
2.66016e-08
1.10291e-08
4.51641e-09
1.81494e-09
7.0881e-10
2.36232e-10
5.01922e-11
4.41524e-07
1.92968e-06
4.43314e-06
8.63059e-06
1.56339e-05
2.72434e-05
4.63344e-05
7.74266e-05
0.000127495
0.000207076
0.000331688
0.000523526
0.000813207
0.00124117
0.00185804
0.0027231
0.00390023
0.00545137
0.00742856
0.0098669
0.0127803
0.0161609
0.0199821
0.0242025
0.0287708
0.0336299
0.0387205
0.043983
0.0493598
0.0547964
0.0602426
0.065653
0.0709879
0.0762127
0.0812988
0.0862226
0.0909648
0.0955107
0.0998501
0.103976
0.107886
0.111579
0.115057
0.118323
0.121382
0.124242
0.126908
0.129388
0.131687
0.133811
0.135763
0.137541
0.139137
0.140533
0.141698
0.142574
0.143051
0.143019
0.142217
0.140255
0.136493
0.12985
0.120714
0.110333
0.0994586
0.0885526
0.077904
0.0677135
0.0581084
0.0491709
0.0409858
0.0335614
0.0266255
0.0204714
0.0151631
0.0107358
0.00720971
0.00456521
0.00272022
0.0015298
0.000817419
0.000418228
0.000206287
9.92125e-05
4.67023e-05
2.15924e-05
9.81049e-06
4.3922e-06
1.93808e-06
8.44812e-07
3.639e-07
1.55184e-07
6.55371e-08
2.74289e-08
1.13713e-08
4.65705e-09
1.87078e-09
7.28993e-10
2.4295e-10
5.12257e-11
4.43111e-07
1.93661e-06
4.44907e-06
8.66163e-06
1.56902e-05
2.73418e-05
4.6502e-05
7.7707e-05
0.000127956
0.000207821
0.000332872
0.000525367
0.000816006
0.00124532
0.00186402
0.00273144
0.00391149
0.00546601
0.00744691
0.00988907
0.0128061
0.01619
0.0200142
0.0242366
0.0288061
0.0336656
0.0387556
0.0440167
0.0493912
0.0548249
0.0602675
0.0656738
0.0710041
0.0762241
0.0813052
0.0862239
0.090961
0.0955019
0.0998365
0.103958
0.107864
0.111553
0.115027
0.11829
0.121347
0.124204
0.126868
0.129347
0.131645
0.133769
0.135722
0.137501
0.1391
0.140501
0.141672
0.142558
0.143052
0.143044
0.14228
0.14038
0.136715
0.13023
0.121183
0.110849
0.099993
0.0890886
0.0784295
0.0682182
0.0585859
0.0496155
0.0413906
0.0339317
0.0269798
0.0207801
0.0154241
0.0109478
0.00737278
0.00468236
0.00279807
0.00157757
0.00084469
0.000432877
0.000213777
0.000102886
4.84552e-05
2.24106e-05
1.01845e-05
4.56023e-06
2.0123e-06
8.77146e-07
3.77797e-07
1.61091e-07
6.80216e-08
2.84648e-08
1.17998e-08
4.83259e-09
1.94042e-09
7.54239e-10
2.51403e-10
5.25308e-11
4.4503e-07
1.945e-06
4.46834e-06
8.6992e-06
1.57585e-05
2.74611e-05
4.67056e-05
7.80479e-05
0.000128518
0.00020873
0.000334318
0.000527621
0.000819442
0.00125043
0.00187139
0.00274177
0.00392547
0.00548428
0.00746995
0.00991713
0.0128393
0.0162281
0.0200568
0.0242811
0.0288519
0.0337118
0.0388013
0.0440609
0.049433
0.0548633
0.0603018
0.0657033
0.0710283
0.0762425
0.0813174
0.0862299
0.0909608
0.0954955
0.0998241
0.10394
0.10784
0.111524
0.114994
0.118253
0.121306
0.12416
0.126822
0.129299
0.131597
0.13372
0.135673
0.137454
0.139056
0.140463
0.141642
0.142541
0.143054
0.143072
0.142355
0.140528
0.136982
0.130689
0.121749
0.111471
0.100639
0.0897364
0.0790651
0.0688292
0.0591644
0.0501547
0.0418824
0.0343803
0.0274082
0.021154
0.015741
0.0112057
0.00757159
0.0048256
0.00289355
0.00163634
0.000878311
0.000450964
0.00022303
0.000107423
5.06198e-05
2.34204e-05
1.06458e-05
4.76729e-06
2.10369e-06
9.16927e-07
3.9488e-07
1.68345e-07
7.10707e-08
2.97344e-08
1.2324e-08
5.04739e-09
2.02531e-09
7.85565e-10
2.619e-10
5.41421e-11
4.47302e-07
1.95492e-06
4.49116e-06
8.74373e-06
1.58394e-05
2.76028e-05
4.69478e-05
7.84542e-05
0.000129188
0.000209818
0.000336051
0.000530329
0.000823579
0.00125659
0.00188032
0.0027543
0.00394247
0.00550652
0.00749799