/*--------------------------------*- C++ -*----------------------------------*\
  =========                 |
  \\      /  F ield         | OpenFOAM: The Open Source CFD Toolbox
   \\    /   O peration     | Website:  https://openfoam.org
    \\  /    A nd           | Version:  8
     \\/     M anipulation  |
\*---------------------------------------------------------------------------*/
FoamFile
{
    version     2.0;
    format      ascii;
    class       volScalarField;
    location    "0.4/fluid";
    object      H2O;
}
// * * * * * * * * * * * * * * * * * * * * * * * * * * * * * * * * * * * * * //

dimensions      [0 0 0 0 0 0 0];

internalField   nonuniform List<scalar> 
4000
(
3.88651e-07
1.69848e-06
3.90178e-06
7.59684e-06
1.37672e-05
2.40138e-05
4.09108e-05
6.85385e-05
0.000113251
0.000184739
0.000297409
0.000472018
0.000737498
0.001132
0.00170275
0.00250419
0.00359328
0.00502229
0.00683108
0.00904114
0.0116531
0.0146483
0.0179926
0.0216413
0.0255435
0.029646
0.0338955
0.0382406
0.0426489
0.0470792
0.0514746
0.0558049
0.0600438
0.064169
0.0681625
0.0720098
0.0757
0.0792255
0.0825817
0.0857666
0.0887803
0.0916247
0.0943032
0.0968203
0.0991813
0.101392
0.103459
0.105388
0.107186
0.108857
0.110407
0.111837
0.113149
0.114336
0.11539
0.116288
0.116994
0.117442
0.117547
0.117153
0.116007
0.113698
0.109544
0.103012
0.0952154
0.0868212
0.0782397
0.0697271
0.0614451
0.0535107
0.0459981
0.038962
0.0324685
0.0265026
0.0209155
0.0159811
0.0116957
0.00811843
0.00529213
0.00321567
0.00181785
0.000960596
0.000478829
0.000228721
0.000106047
4.80632e-05
2.13577e-05
9.34677e-06
4.03357e-06
1.72222e-06
7.27994e-07
3.05417e-07
1.27183e-07
5.26463e-08
2.16333e-08
8.80554e-09
3.5137e-09
1.34176e-09
4.47322e-10
7.94136e-11
3.88218e-07
1.69684e-06
3.89908e-06
7.59457e-06
1.37693e-05
2.40272e-05
4.09439e-05
6.85923e-05
0.000113297
0.000184668
0.000296936
0.000470535
0.000733601
0.00112301
0.00168497
0.00247273
0.00354212
0.00494498
0.00672186
0.00889597
0.0114705
0.0144295
0.0177413
0.0213632
0.025246
0.0293371
0.033584
0.0379465
0.0423732
0.0467943
0.0511932
0.0555352
0.0597907
0.0639356
0.0679504
0.0718199
0.0755322
0.0790793
0.0824563
0.0856608
0.0886928
0.0915542
0.0942482
0.0967793
0.0991529
0.101375
0.103452
0.10539
0.107195
0.108872
0.110427
0.111861
0.113175
0.114364
0.115415
0.116308
0.117004
0.117433
0.117509
0.117067
0.115842
0.113406
0.109042
0.102373
0.0944838
0.0860264
0.077401
0.0688582
0.0605566
0.0526149
0.0451064
0.0380896
0.0316393
0.0257109
0.0202076
0.0152923
0.0110733
0.0075974
0.00489394
0.00294283
0.00165238
0.000871836
0.000436314
0.000209856
9.815e-05
4.49e-05
2.01359e-05
8.88637e-06
3.86293e-06
1.65918e-06
7.04555e-07
2.96555e-07
1.23761e-07
5.12934e-08
2.10903e-08
8.58814e-09
3.42901e-09
1.31019e-09
4.36928e-10
7.84094e-11
3.88566e-07
1.69858e-06
3.9041e-06
7.6067e-06
1.37952e-05
2.40767e-05
4.10287e-05
6.87193e-05
0.00011345
0.000184768
0.000296757
0.000469533
0.00073069
0.00111674
0.00167282
0.00245091
0.0035057
0.00488822
0.00663881
0.00878136
0.0113205
0.0142423
0.0175175
0.0211055
0.024959
0.0290272
0.033263
0.0376227
0.0420235
0.0464474
0.0508542
0.0552088
0.0594811
0.0636461
0.0676835
0.0715772
0.0753149
0.0788876
0.08229
0.0855194
0.0885752
0.0914592
0.0941744
0.0967251
0.0991166
0.101355
0.103447
0.105397
0.107214
0.108901
0.110463
0.111904
0.113221
0.11441
0.115458
0.116342
0.117022
0.117419
0.117447
0.116925
0.115572
0.112928
0.108221
0.101335
0.0933082
0.0847645
0.0760885
0.0675213
0.0592174
0.0512944
0.0438225
0.0368629
0.030489
0.0246151
0.0191959
0.014432
0.0103733
0.00706356
0.00451987
0.00270569
0.00151698
0.000801641
0.000402758
0.000194571
9.14393e-05
4.20298e-05
1.89367e-05
8.39339e-06
3.66311e-06
1.57874e-06
6.723e-07
2.83599e-07
1.18545e-07
4.91819e-08
2.02356e-08
8.24219e-09
3.29244e-09
1.25965e-09
4.20138e-10
7.63562e-11
3.87483e-07
1.69379e-06
3.89282e-06
7.58374e-06
1.37504e-05
2.39895e-05
4.08574e-05
6.83812e-05
0.000112787
0.000183489
0.000294361
0.000465215
0.0007233
0.0011044
0.00165289
0.00241996
0.00345964
0.00482262
0.0065494
0.00866455
0.0111739
0.0140649
0.0173098
0.0208696
0.0246981
0.0287456
0.0329752
0.0373018
0.0417002
0.0461259
0.050539
0.054904
0.0591904
0.0633727
0.06743
0.0713457
0.0751067
0.0787036
0.0821305
0.0853841
0.0884637
0.0913705
0.0941074
0.0966785
0.0990891
0.101345
0.103452
0.105417
0.107245
0.108943
0.110514
0.11196
0.11328
0.114469
0.115512
0.116385
0.117042
0.117402
0.117373
0.116756
0.115249
0.112355
0.10724
0.100105
0.0919259
0.0832949
0.0745768
0.0660009
0.0577184
0.0498404
0.0424355
0.0355678
0.0292992
0.0234984
0.018208
0.0135901
0.00968861
0.00653942
0.00414797
0.00246413
0.00137395
0.000723999
0.00036365
0.000175972
8.29247e-05
3.82439e-05
1.72936e-05
7.69361e-06
3.37006e-06
1.45756e-06
6.22761e-07
2.63488e-07
1.10434e-07
4.59192e-08
1.89283e-08
7.7206e-09
3.08713e-09
1.1844e-09
3.95272e-10
7.2855e-11
3.8547e-07
1.68492e-06
3.87212e-06
7.54243e-06
1.36729e-05
2.38481e-05
4.06026e-05
6.79259e-05
0.000111979
0.00018207
0.000291899
0.000461018
0.000716296
0.00109301
0.00163489
0.00239252
0.00341934
0.00476576
0.00647242
0.00856445
0.0110486
0.0139136
0.0171327
0.0206682
0.0244748
0.028507
0.0327072
0.0370285
0.0414244
0.0458512
0.050269
0.0546424
0.0589407
0.0631377
0.0672122
0.071147
0.0749287
0.0785471
0.081996
0.0852717
0.088373
0.0913009
0.094058
0.0966483
0.0990769
0.101349
0.103471
0.105449
0.107289
0.108996
0.110575
0.112026
0.113349
0.114537
0.115574
0.116433
0.117066
0.117387
0.117294
0.116575
0.114906
0.111752
0.106214
0.0988236
0.0904956
0.0817848
0.0730356
0.0644642
0.0562185
0.0484015
0.0410798
0.0343216
0.0281619
0.0224308
0.0172791
0.0128099
0.00906352
0.00606863
0.00381975
0.00225464
0.00125173
0.000658277
0.000330633
0.000160204
7.56421e-05
3.49647e-05
1.58484e-05
7.06704e-06
3.1024e-06
1.34447e-06
5.75478e-07
2.43862e-07
1.02347e-07
4.26051e-08
1.75795e-08
7.17603e-09
2.87135e-09
1.10367e-09
3.68548e-10
6.89548e-11
3.827e-07
1.67272e-06
3.84365e-06
7.48574e-06
1.35671e-05
2.36571e-05
4.02642e-05
6.73343e-05
0.000110958
0.00018033
0.000288981
0.000456212
0.000708555
0.00108085
0.00161636
0.00236517
0.00338038
0.00471231
0.00640179
0.00847452
0.0109381
0.013782
0.0169808
0.0204973
0.0242871
0.0283106
0.0324955
0.0368075
0.0411991
0.0456258
0.0500473
0.0544279
0.0587364
0.0629462
0.0670356
0.0709871
0.0747866
0.0784239
0.0818921
0.0851871
0.0883075
0.091254
0.0940291
0.0966364
0.0990803
0.101367
0.103502
0.105491
0.107342
0.109057
0.110642
0.112098
0.113423
0.114608
0.115638
0.116482
0.117089
0.11737
0.117212
0.116392
0.114562
0.111153
0.105207
0.097575
0.08911
0.0803311
0.0715612
0.0630036
0.0548027
0.047053
0.0398192
0.0331733
0.0271178
0.0214534
0.0164366
0.0121075
0.0085039
0.00564881
0.00352747
0.00206758
0.00114172
0.000598337
0.000300001
0.000145346
6.86747e-05
3.17841e-05
1.44297e-05
6.44599e-06
2.83512e-06
1.23097e-06
5.27869e-07
2.24069e-07
9.41891e-08
3.92634e-08
1.62208e-08
6.62822e-09
2.65389e-09
1.02178e-09
3.41397e-10
6.49191e-11
3.79642e-07
1.6593e-06
3.81254e-06
7.42432e-06
1.34538e-05
2.34551e-05
3.99118e-05
6.67287e-05
0.000109931
0.000178613
0.000286153
0.000451637
0.000701305
0.00106964
0.00159949
0.00234055
0.00334568
0.00466513
0.00633997
0.00839644
0.0108428
0.0136696
0.0168519
0.0203536
0.0241318
0.0281344
0.0323142
0.0366228
0.0410133
0.0454417
0.0498677
0.0542553
0.0585732
0.0627945
0.0668971
0.0708632
0.0746785
0.0783321
0.0818169
0.0851287
0.0882656
0.0912283
0.0940187
0.0966401
0.0990975
0.101396
0.103542
0.105542
0.107401
0.109123
0.110713
0.112172
0.113497
0.114679
0.1157
0.116529
0.117107
0.117347
0.117124
0.116202
0.114214
0.110556
0.10424
0.0963953
0.0878133
0.0789803
0.0701993
0.0616613
0.0535079
0.0458249
0.038676
0.0321374
0.0261581
0.0205981
0.0156966
0.0114903
0.00801364
0.005283
0.00327458
0.00190692
0.00104782
0.000547355
0.000273959
0.000132683
6.2709e-05
2.90433e-05
1.31977e-05
5.90206e-06
2.59891e-06
1.12975e-06
4.85038e-07
2.0612e-07
8.67351e-08
3.61903e-08
1.49639e-08
6.11931e-09
2.45161e-09
9.45744e-10
3.15927e-10
6.09113e-11
3.76536e-07
1.64568e-06
3.78104e-06
7.36234e-06
1.33399e-05
2.32531e-05
3.95614e-05
6.61307e-05
0.000108925
0.000176946
0.000283436
0.00044729
0.000694496
0.00105923
0.00158402
0.00231828
0.00331465
0.00462341
0.00628589
0.00832876
0.0107609
0.0135735
0.0167424
0.020232
0.0240029
0.0279951
0.0321685
0.0364737
0.0408637
0.0452942
0.0497247
0.0541191
0.0584456
0.0626773
0.0667917
0.0707706
0.0745995
0.0782672
0.0817664
0.0850924
0.0882436
0.0912198
0.0940228
0.0966564
0.0991251
0.101434
0.10359
0.105597
0.107462
0.10919
0.110784
0.112245
0.113569
0.114746
0.115758
0.116569
0.117118
0.117314
0.117021
0.115988
0.113825
0.109882
0.103292
0.0952873
0.0866193
0.0777501
0.0689678
0.0604543
0.0523487
0.0447297
0.0376598
0.0312149
0.0253107
0.0198457
0.0150473
0.0109507
0.00758669
0.00496596
0.00305647
0.00176884
0.000967187
0.000503489
0.000251452
0.000121686
5.74999e-05
2.66373e-05
1.21108e-05
5.42001e-06
2.38873e-06
1.03937e-06
4.46679e-07
1.90002e-07
8.00278e-08
3.34194e-08
1.38278e-08
5.658e-09
2.26758e-09
8.75643e-10
2.92334e-10
5.68484e-11
3.73565e-07
1.63268e-06
3.75102e-06
7.30344e-06
1.32321e-05
2.30628e-05
3.9233e-05
6.55736e-05
0.000107994
0.000175415
0.000280958
0.000443356
0.000688384
0.00104996
0.00157035
0.00229872
0.0032876
0.0045873
0.00623938
0.00827093
0.0106914
0.0134924
0.0166503
0.0201297
0.023888
0.027877
0.032048
0.0363525
0.0407435
0.0451769
0.0496122
0.054013
0.0583476
0.0625886
0.0667134
0.0707036
0.0745443
0.0782242
0.0817356
0.0850739
0.0882368
0.0912241
0.094038
0.0966817
0.0991596
0.101477
0.10364
0.105654
0.107524
0.109256
0.110853
0.112314
0.113636
0.114808
0.115809
0.116603
0.117121
0.117273
0.116909
0.115764
0.113419
0.109178
0.102389
0.0942679
0.0855391
0.0766476
0.0678709
0.0593864
0.0513267
0.0437671
0.0367702
0.0304075
0.0245644
0.0191854
0.0144798
0.0104809
0.00721683
0.00469297
0.00286989
0.00165143
0.000898929
0.000466443
0.00023245
0.000112387
5.30847e-05
2.45913e-05
1.11831e-05
5.00688e-06
2.20786e-06
9.61289e-07
4.13412e-07
1.75974e-07
7.41721e-08
3.09917e-08
1.28299e-08
5.2518e-09
2.10506e-09
8.1249e-10
2.71153e-10
5.31789e-11
3.70824e-07
1.62068e-06
3.72338e-06
7.24931e-06
1.31332e-05
2.28887e-05
3.89336e-05
6.50677e-05
0.000107152
0.000174036
0.00027874
0.000439854
0.000682973
0.00104181
0.0015584
0.00228174
0.00326426
0.00455633
0.00619976
0.00822203
0.0106331
0.0134252
0.0165753
0.0200498
0.0238001
0.027784
0.0319523
0.0362561
0.0406484
0.0450848
0.0495247
0.0539317
0.0582736
0.062523
0.0666569
0.0706569
0.0745078
0.078198
0.0817199
0.0850683
0.088241
0.0912378
0.0940605
0.0967124
0.0991978
0.101522
0.103691
0.10571
0.107584
0.109319
0.110917
0.112378
0.113697
0.114864
0.115855
0.116632
0.117121
0.117232
0.116801
0.115551
0.113038
0.108523
0.10157
0.0933559
0.0845807
0.075675
0.0669072
0.0584518
0.0504349
0.0429295
0.0359991
0.0297067
0.0239116
0.0186099
0.0139867
0.0100744
0.0068984
0.00445924
0.00271106
0.00155198
0.000841299
0.000435204
0.000216419
0.000104532
4.93473e-05
2.28554e-05
1.0394e-05
4.6546e-06
2.05325e-06
8.94381e-07
3.84843e-07
1.63906e-07
6.91249e-08
2.8896e-08
1.1967e-08
4.89904e-09
1.9643e-09
7.58871e-10
2.53152e-10
5.01825e-11
3.68364e-07
1.60993e-06
3.69862e-06
7.20089e-06
1.30449e-05
2.27337e-05
3.86677e-05
6.46197e-05
0.00010641
0.000172825
0.000276798
0.000436801
0.000678278
0.00103477
0.00154813
0.00226721
0.00324438
0.00453008
0.00616629
0.00818081
0.0105839
0.013368
0.0165102
0.0199773
0.0237253
0.0277074
0.031875
0.0361793
0.0405735
0.0450131
0.0494576
0.0538702
0.0582187
0.0624754
0.0666174
0.0706258
0.0744854
0.0781845
0.0817151
0.0850719
0.0882527
0.0912573
0.0940873
0.0967458
0.0992372
0.101567
0.10374
0.105763
0.10764
0.109377
0.110976
0.112436
0.113753
0.114914
0.115896
0.116657
0.11712
0.117194
0.116704
0.11536
0.112699
0.107941
0.100848
0.0925552
0.0837423
0.074827
0.0660694
0.0576413
0.0496633
0.0422064
0.035335
0.0291034
0.0233448
0.0181116
0.0135612
0.00972494
0.00662586
0.00426028
0.00257662
0.00146823
0.000792946
0.000409051
0.000203007
9.79575e-05
4.62153e-05
2.13982e-05
9.73034e-06
4.35774e-06
1.9227e-06
8.37767e-07
3.6062e-07
1.53655e-07
6.48305e-08
2.71105e-08
1.12314e-08
4.59868e-09
1.84437e-09
7.13449e-10
2.37949e-10
4.78007e-11
3.66205e-07
1.60049e-06
3.6769e-06
7.15847e-06
1.29677e-05
2.25983e-05
3.8436e-05
6.42302e-05
0.000105766
0.000171777
0.000275124
0.000434179
0.000674261
0.00102876
0.00153941
0.00225493
0.00322768
0.00450816
0.00613856
0.008147
0.0105441
0.0133228
0.0164606
0.0199227
0.0236672
0.0276473
0.0318142
0.0361192
0.0405153
0.0449581
0.0494067
0.0538244
0.0581787
0.0624419
0.0665909
0.0706065
0.0744735
0.0781799
0.0817177
0.0850816
0.0882691
0.09128
0.0941158
0.0967797
0.0992759
0.10161
0.103786
0.105812
0.107691
0.109429
0.111028
0.112488
0.113802
0.114958
0.115931
0.116679
0.117119
0.117161
0.116618
0.115193
0.112403
0.107434
0.100219
0.0918596
0.083016
0.0740942
0.0653471
0.0569442
0.049001
0.0415872
0.0347685
0.0285863
0.022856
0.0176833
0.0131966
0.00942654
0.00639416
0.00409197
0.00246347
0.00139805
0.000752567
0.000387252
0.000191836
9.24793e-05
4.36038e-05
2.01819e-05
9.17566e-06
4.10926e-06
1.81326e-06
7.9024e-07
3.40256e-07
1.45024e-07
6.12097e-08
2.56029e-08
1.06095e-08
4.34482e-09
1.74299e-09
6.75236e-10
2.25148e-10
4.58798e-11
3.64345e-07
1.59236e-06
3.65821e-06
7.12201e-06
1.29014e-05
2.24823e-05
3.82377e-05
6.38976e-05
0.000105217
0.000170887
0.000273705
0.000431961
0.000670873
0.00102372
0.0015321
0.00224467
0.00321376
0.00448995
0.0061156
0.0081191
0.0105114
0.0132859
0.0164204
0.0198788
0.0236208
0.0275996
0.0317664
0.0360723
0.0404704
0.0449162
0.0493686
0.0537908
0.0581503
0.0624191
0.0665739
0.0705957
0.0744688
0.0781814
0.0817251
0.0850948
0.0882878
0.0913038
0.0941443
0.0968124
0.0993123
0.101649
0.103828
0.105856
0.107737
0.109476
0.111075
0.112533
0.113844
0.114996
0.115961
0.116697
0.117117
0.117132
0.116545
0.11505
0.112146
0.106994
0.0996753
0.0912603
0.0823922
0.0734666
0.0647301
0.05635
0.0484375
0.0410614
0.0342889
0.0281469
0.022439
0.0173187
0.0128871
0.00917404
0.00619884
0.00395072
0.00236895
0.00133967
0.000719076
0.000369206
0.000182596
8.79482e-05
4.14428e-05
1.91744e-05
8.71583e-06
3.90303e-06
1.72232e-06
7.50698e-07
3.23293e-07
1.37826e-07
5.81865e-08
2.43439e-08
1.00898e-08
4.13235e-09
1.65812e-09
6.43121e-10
2.14408e-10
4.4324e-11
3.62773e-07
1.5855e-06
3.64244e-06
7.09124e-06
1.28455e-05
2.23846e-05
3.8071e-05
6.36184e-05
0.000104757
0.000170142
0.00027252
0.000430115
0.00066806
0.00101954
0.00152606
0.00223622
0.00320231
0.00447499
0.00609674
0.00809611
0.0104843
0.0132547
0.0163855
0.0198423
0.0235833
0.0275617
0.0317289
0.0360361
0.0404362
0.0448847
0.0493405
0.0537666
0.0581305
0.0624041
0.0665639
0.0705908
0.074469
0.0781866
0.0817353
0.0851097
0.0883071
0.0913271
0.0941713
0.0968427
0.0993454
0.101685
0.103866
0.105895
0.107777
0.109516
0.111114
0.112571
0.11388
0.115027
0.115986
0.116711
0.117115
0.117109
0.116484
0.114928
0.111927
0.106618
0.0992116
0.0907509
0.0818635
0.0729362
0.0642097
0.0558498
0.0479639
0.0406199
0.0338862
0.0277796
0.0220882
0.0170125
0.0126277
0.00896293
0.00603607
0.00383343
0.00229077
0.00129155
0.000691547
0.000354397
0.00017502
8.42328e-05
3.96704e-05
1.83477e-05
8.33812e-06
3.73349e-06
1.64748e-06
7.18126e-07
3.09305e-07
1.31886e-07
5.56898e-08
2.33043e-08
9.66054e-09
3.95649e-09
1.5886e-09
6.17455e-10
2.05809e-10
4.30047e-11
3.61473e-07
1.57982e-06
3.62939e-06
7.06582e-06
1.27994e-05
2.2304e-05
3.79337e-05
6.33887e-05
0.000104379
0.000169532
0.000271551
0.000428608
0.000665767
0.00101614
0.00152116
0.00222938
0.0031931
0.004463
0.00608171
0.00807796
0.0104631
0.0132308
0.0163592
0.0198144
0.0235544
0.0275326
0.0317002
0.0360085
0.0404105
0.0448614
0.0493201
0.0537496
0.0581172
0.0623947
0.0665587
0.0705897
0.0744721
0.0781938
0.0817465
0.0851246
0.0883255
0.0913488
0.0941959
0.0968698
0.0993747
0.101716
0.103898
0.105928
0.107811
0.10955
0.111148
0.112603
0.11391
0.115053
0.116007
0.116724
0.117115
0.117089
0.116432
0.114826
0.111746
0.106307
0.0988278
0.0903292
0.081426
0.0724974
0.0637795
0.0554365
0.047573
0.0402558
0.0335548
0.0274765
0.0217981
0.0167598
0.0124139
0.00878935
0.00590255
0.00373751
0.00222703
0.00125244
0.000669218
0.000342402
0.000168886
8.12251e-05
3.82351e-05
1.76777e-05
8.03186e-06
3.5959e-06
1.58671e-06
6.91649e-07
2.97926e-07
1.2705e-07
5.36554e-08
2.24561e-08
9.30971e-09
3.81275e-09
1.53159e-09
5.96785e-10
1.98888e-10
4.19355e-11
3.60426e-07
1.57524e-06
3.61888e-06
7.04536e-06
1.27623e-05
2.22393e-05
3.78235e-05
6.32046e-05
0.000104077
0.000169043
0.000270778
0.000427406
0.000663943
0.00101344
0.00151728
0.00222398
0.00318583
0.00445358
0.00606997
0.00806388
0.0104469
0.0132128
0.0163393
0.0197931
0.0235324
0.0275105
0.0316786
0.035988
0.0403915
0.0448444
0.0493056
0.0537379
0.0581085
0.0623893
0.0665565
0.0705909
0.0744767
0.0782017
0.0817574
0.0851385
0.0883422
0.0913679
0.0942172
0.0968931
0.0993997
0.101742
0.103926
0.105957
0.107839
0.109579
0.111176
0.11263
0.113935
0.115076
0.116025
0.116735
0.117116
0.117073
0.11639
0.114744
0.1116
0.106057
0.0985192
0.0899899
0.0810738
0.072144
0.0634329
0.0551036
0.0472581
0.0399628
0.0332885
0.0272321
0.0215646
0.0165568
0.0122424
0.00865023
0.00579568
0.00366084
0.00217617
0.00122128
0.000651463
0.000332871
0.000164014
7.88349e-05
3.7094e-05
1.71448e-05
7.78805e-06
3.4863e-06
1.53826e-06
6.70531e-07
2.88845e-07
1.23188e-07
5.20304e-08
2.17787e-08
9.02952e-09
3.69759e-09
1.48587e-09
5.8027e-10
1.93391e-10
4.10891e-11
3.59613e-07
1.57169e-06
3.61073e-06
7.02949e-06
1.27335e-05
2.21891e-05
3.77381e-05
6.30622e-05
0.000103843
0.000168667
0.000270181
0.000426481
0.00066254
0.00101137
0.00151431
0.00221984
0.00318026
0.00444636
0.00606094
0.00805299
0.0104342
0.0131984
0.0163239
0.019777
0.0235159
0.0274941
0.0316627
0.0359731
0.0403779
0.0448325
0.0492956
0.0537301
0.0581031
0.0623864
0.0665562
0.0705932
0.0744816
0.0782091
0.0817672
0.0851505
0.0883562
0.0913839
0.0942348
0.0969121
0.0994199
0.101763
0.103948
0.105979
0.107862
0.109601
0.111198
0.112652
0.113955
0.115094
0.116039
0.116744
0.117116
0.11706
0.116358
0.11468
0.111486
0.105863
0.0982799
0.0897267
0.0808004
0.0718695
0.0631636
0.0548447
0.0470129
0.0397343
0.0330804
0.0270394
0.021388
0.0164019
0.012111
0.00854333
0.00571347
0.00360184
0.00213701
0.00119728
0.000637772
0.000325516
0.000160251
7.6988e-05
3.62119e-05
1.67327e-05
7.5995e-06
3.40152e-06
1.50077e-06
6.54186e-07
2.81815e-07
1.20198e-07
5.07723e-08
2.12543e-08
8.81266e-09
3.60829e-09
1.45052e-09
5.67489e-10
1.89142e-10
4.04407e-11
3.59018e-07
1.5691e-06
3.60478e-06
7.01789e-06
1.27125e-05
2.21525e-05
3.76759e-05
6.29584e-05
0.000103673
0.000168392
0.000269747
0.000425809
0.000661522
0.00100986
0.00151215
0.00221684
0.00317624
0.00444116
0.00605446
0.00804521
0.0104251
0.0131883
0.016313
0.0197656
0.0235043
0.0274826
0.0316516
0.0359627
0.0403686
0.0448244
0.049289
0.0537252
0.0581
0.0623851
0.0665568
0.0705957
0.0744859
0.0782152
0.0817751
0.08516
0.0883672
0.0913962
0.0942483
0.0969267
0.0994353
0.101779
0.103964
0.105996
0.107879
0.109618
0.111215
0.112668
0.11397
0.115107
0.11605
0.11675
0.117117
0.117051
0.116334
0.114634
0.111404
0.105721
0.0981049
0.089534
0.0806002
0.0716685
0.0629663
0.054655
0.0468332
0.0395668
0.0329278
0.0268976
0.0212603
0.0162898
0.0120157
0.00846583
0.00565388
0.0035591
0.00210863
0.00117984
0.000627785
0.000320135
0.000157493
7.56336e-05
3.5565e-05
1.64304e-05
7.46122e-06
3.33935e-06
1.47329e-06
6.42208e-07
2.76665e-07
1.18008e-07
4.98511e-08
2.08706e-08
8.65394e-09
3.54285e-09
1.42473e-09
5.58211e-10
1.86059e-10
3.9961e-11
3.58631e-07
1.56741e-06
3.60089e-06
7.01034e-06
1.26988e-05
2.21286e-05
3.76354e-05
6.28909e-05
0.000103563
0.000168214
0.000269466
0.000425373
0.000660863
0.00100889
0.00151076
0.00221491
0.00317365
0.00443782
0.0060503
0.00804023
0.0104194
0.0131819
0.016306
0.0197583
0.023497
0.0274753
0.0316447
0.0359563
0.0403628
0.0448195
0.0492851
0.0537223
0.0580982
0.0623846
0.0665576
0.0705977
0.0744892
0.0782196
0.0817806
0.0851666
0.0883747
0.0914046
0.0942575
0.0969365
0.0994457
0.10179
0.103976
0.106007
0.107891
0.10963
0.111226
0.112679
0.11398
0.115116
0.116057
0.116754
0.117117
0.117045
0.116319
0.114603
0.111349
0.105628
0.0979903
0.0894079
0.0804692
0.0715369
0.0628371
0.0545308
0.0467156
0.0394572
0.0328282
0.0268049
0.0211772
0.016217
0.011954
0.00841574
0.00561547
0.00353162
0.00209042
0.00116862
0.000621333
0.000316646
0.0001557
7.47521e-05
3.51437e-05
1.62335e-05
7.37114e-06
3.29884e-06
1.45538e-06
6.34401e-07
2.73308e-07
1.1658e-07
4.92506e-08
2.06203e-08
8.55043e-09
3.50019e-09
1.4079e-09
5.5219e-10
1.84059e-10
3.96463e-11
3.58442e-07
1.56658e-06
3.59901e-06
7.00668e-06
1.26922e-05
2.21172e-05
3.7616e-05
6.28586e-05
0.00010351
0.00016813
0.000269333
0.000425167
0.000660551
0.00100843
0.0015101
0.002214
0.00317243
0.00443624
0.00604834
0.00803788
0.0104167
0.0131788
0.0163028
0.0197549
0.0234935
0.0274719
0.0316414
0.0359532
0.0403601
0.0448172
0.0492833
0.053721
0.0580975
0.0623844
0.066558
0.0705988
0.0744908
0.0782219
0.0817834
0.0851699
0.0883785
0.0914087
0.094262
0.0969413
0.0994508
0.101796
0.103981
0.106013
0.107896
0.109635
0.111232
0.112684
0.113985
0.11512
0.11606
0.116757
0.117117
0.117043
0.116311
0.114588
0.111323
0.105583
0.097934
0.089346
0.080405
0.0714725
0.0627739
0.0544701
0.0466582
0.0394039
0.0327799
0.0267599
0.0211369
0.0161819
0.0119244
0.00839183
0.00559725
0.00351868
0.00208192
0.00116343
0.000618349
0.00031503
0.000154867
7.43419e-05
3.49471e-05
1.61415e-05
7.32891e-06
3.2798e-06
1.44695e-06
6.30715e-07
2.71719e-07
1.15903e-07
4.89648e-08
2.05009e-08
8.50084e-09
3.47975e-09
1.39983e-09
5.49295e-10
1.83095e-10
3.94949e-11
3.58442e-07
1.56658e-06
3.599e-06
7.00668e-06
1.26922e-05
2.21172e-05
3.76159e-05
6.28586e-05
0.00010351
0.00016813
0.000269333
0.000425167
0.000660551
0.00100843
0.0015101
0.002214
0.00317243
0.00443624
0.00604834
0.00803788
0.0104167
0.0131788
0.0163028
0.0197549
0.0234935
0.0274719
0.0316414
0.0359532
0.0403601
0.0448172
0.0492833
0.053721
0.0580975
0.0623844
0.066558
0.0705988
0.0744908
0.0782219
0.0817834
0.0851699
0.0883785
0.0914087
0.094262
0.0969413
0.0994508
0.101796
0.103981
0.106013
0.107896
0.109635
0.111232
0.112684
0.113985
0.11512
0.11606
0.116757
0.117117
0.117043
0.116311
0.114588
0.111323
0.105583
0.097934
0.089346
0.0804049
0.0714725
0.0627739
0.0544701
0.0466582
0.0394039
0.0327799
0.0267599
0.0211369
0.0161819
0.0119244
0.00839183
0.00559725
0.00351868
0.00208192
0.00116343
0.000618349
0.00031503
0.000154867
7.43419e-05
3.49471e-05
1.61415e-05
7.3289e-06
3.2798e-06
1.44695e-06
6.30715e-07
2.71719e-07
1.15903e-07
4.89648e-08
2.05009e-08
8.50084e-09
3.47974e-09
1.39983e-09
5.49298e-10
1.83096e-10
3.94953e-11
3.5863e-07
1.5674e-06
3.60089e-06
7.01033e-06
1.26988e-05
2.21286e-05
3.76353e-05
6.28908e-05
0.000103563
0.000168214
0.000269466
0.000425373
0.000660862
0.00100889
0.00151076
0.00221491
0.00317365
0.00443782
0.0060503
0.00804023
0.0104194
0.0131819
0.016306
0.0197583
0.023497
0.0274753
0.0316447
0.0359563
0.0403628
0.0448195
0.0492851
0.0537223
0.0580982
0.0623846
0.0665576
0.0705977
0.0744891
0.0782196
0.0817806
0.0851666
0.0883747
0.0914046
0.0942575
0.0969364
0.0994457
0.10179
0.103976
0.106007
0.107891
0.10963
0.111226
0.112679
0.11398
0.115116
0.116057
0.116754
0.117117
0.117045
0.116319
0.114603
0.111349
0.105628
0.0979903
0.0894079
0.0804692
0.0715369
0.0628371
0.0545308
0.0467156
0.0394572
0.0328282
0.0268049
0.0211772
0.016217
0.011954
0.00841574
0.00561547
0.00353162
0.00209042
0.00116862
0.000621333
0.000316645
0.0001557
7.4752e-05
3.51436e-05
1.62335e-05
7.37112e-06
3.29883e-06
1.45538e-06
6.34399e-07
2.73307e-07
1.1658e-07
4.92504e-08
2.06203e-08
8.5504e-09
3.50017e-09
1.4079e-09
5.522e-10
1.84063e-10
3.96478e-11
3.59017e-07
1.5691e-06
3.60477e-06
7.01788e-06
1.27125e-05
2.21524e-05
3.76758e-05
6.29582e-05
0.000103673
0.000168392
0.000269747
0.000425808
0.000661521
0.00100986
0.00151215
0.00221684
0.00317624
0.00444116
0.00605445
0.0080452
0.0104251
0.0131883
0.016313
0.0197656
0.0235043
0.0274826
0.0316516
0.0359627
0.0403685
0.0448244
0.049289
0.0537252
0.0580999
0.0623851
0.0665568
0.0705957
0.0744859
0.0782152
0.0817751
0.08516
0.0883672
0.0913962
0.0942483
0.0969266
0.0994353
0.101779
0.103964
0.105996
0.107879
0.109618
0.111215
0.112668
0.11397
0.115107
0.11605
0.11675
0.117117
0.117051
0.116334
0.114634
0.111404
0.105721
0.0981049
0.089534
0.0806002
0.0716685
0.0629662
0.0546549
0.0468331
0.0395667
0.0329278
0.0268975
0.0212603
0.0162898
0.0120157
0.00846583
0.00565388
0.0035591
0.00210863
0.00117984
0.000627785
0.000320135
0.000157493
7.56335e-05
3.55649e-05
1.64304e-05
7.46119e-06
3.33934e-06
1.47329e-06
6.42205e-07
2.76663e-07
1.18007e-07
4.98508e-08
2.08704e-08
8.65389e-09
3.54281e-09
1.42473e-09
5.58226e-10
1.86064e-10
3.99636e-11
3.59612e-07
1.57169e-06
3.61072e-06
7.02947e-06
1.27335e-05
2.2189e-05
3.7738e-05
6.3062e-05
0.000103843
0.000168666
0.000270181
0.00042648
0.000662539
0.00101136
0.0015143
0.00221983
0.00318026
0.00444636
0.00606094
0.00805298
0.0104342
0.0131984
0.0163238
0.019777
0.0235159
0.0274941
0.0316627
0.0359731
0.0403779
0.0448325
0.0492956
0.0537301
0.0581031
0.0623864
0.0665562
0.0705932
0.0744816
0.0782091
0.0817672
0.0851505
0.0883562
0.0913838
0.0942348
0.0969121
0.0994199
0.101763
0.103948
0.105979
0.107862
0.109601
0.111198
0.112652
0.113955
0.115093
0.116039
0.116743
0.117116
0.11706
0.116358
0.11468
0.111486
0.105863
0.0982798
0.0897266
0.0808003
0.0718694
0.0631635
0.0548446
0.0470129
0.0397343
0.0330804
0.0270393
0.021388
0.0164019
0.012111
0.00854332
0.00571346
0.00360184
0.00213701
0.00119728
0.00063777
0.000325515
0.00016025
7.69878e-05
3.62118e-05
1.67326e-05
7.59946e-06
3.4015e-06
1.50076e-06
6.54181e-07
2.81813e-07
1.20197e-07
5.07719e-08
2.12542e-08
8.8126e-09
3.60824e-09
1.45052e-09
5.6751e-10
1.8915e-10
4.04439e-11
3.60424e-07
1.57524e-06
3.61887e-06
7.04533e-06
1.27622e-05
2.22392e-05
3.78233e-05
6.32044e-05
0.000104077
0.000169043
0.000270777
0.000427405
0.000663941
0.00101344
0.00151728
0.00222397
0.00318582
0.00445357
0.00606996
0.00806387
0.0104469
0.0132128
0.0163393
0.0197931
0.0235324
0.0275104
0.0316786
0.035988
0.0403915
0.0448444
0.0493056
0.0537379
0.0581085
0.0623892
0.0665565
0.0705909
0.0744767
0.0782017
0.0817574
0.0851385
0.0883421
0.0913679
0.0942172
0.096893
0.0993996
0.101742
0.103926
0.105957
0.107839
0.109579
0.111176
0.11263
0.113935
0.115076
0.116025
0.116735
0.117115
0.117073
0.11639
0.114744
0.1116
0.106057
0.0985191
0.0899898
0.0810736
0.0721439
0.0634328
0.0551035
0.047258
0.0399627
0.0332884
0.027232
0.0215645
0.0165567
0.0122424
0.00865021
0.00579566
0.00366083
0.00217616
0.00122128
0.00065146
0.00033287
0.000164013
7.88345e-05
3.70938e-05
1.71447e-05
7.78799e-06
3.48627e-06
1.53825e-06
6.70524e-07
2.88842e-07
1.23187e-07
5.20299e-08
2.17785e-08
9.02944e-09
3.69755e-09
1.48588e-09
5.80296e-10
1.93401e-10
4.10919e-11
3.61471e-07
1.57981e-06
3.62937e-06
7.06579e-06
1.27993e-05
2.23039e-05
3.79335e-05
6.33885e-05
0.000104379
0.000169531
0.00027155
0.000428606
0.000665765
0.00101613
0.00152116
0.00222938
0.00319309
0.00446299
0.0060817
0.00807795
0.0104631
0.0132308
0.0163592
0.0198144
0.0235544
0.0275325
0.0317001
0.0360085
0.0404104
0.0448613
0.0493201
0.0537496
0.0581172
0.0623947
0.0665586
0.0705897
0.0744721
0.0781938
0.0817464
0.0851246
0.0883255
0.0913487
0.0941958
0.0968697
0.0993747
0.101716
0.103898
0.105928
0.107811
0.10955
0.111148
0.112603
0.11391
0.115053
0.116007
0.116724
0.117115
0.117089
0.116432
0.114826
0.111746
0.106307
0.0988276
0.090329
0.0814259
0.0724972
0.0637794
0.0554364
0.0475729
0.0402558
0.0335547
0.0274764
0.021798
0.0167597
0.0124139
0.00878931
0.00590253
0.00373749
0.00222702
0.00125243
0.000669214
0.000342399
0.000168885
8.12244e-05
3.82348e-05
1.76775e-05
8.03176e-06
3.59586e-06
1.58669e-06
6.9164e-07
2.97922e-07
1.27048e-07
5.36547e-08
2.24558e-08
9.30959e-09
3.81269e-09
1.53159e-09
5.9682e-10
1.98901e-10
4.1938e-11
3.62771e-07
1.58549e-06
3.64241e-06
7.0912e-06
1.28455e-05
2.23845e-05
3.80708e-05
6.3618e-05
0.000104757
0.000170141
0.000272519
0.000430113
0.000668057
0.00101953
0.00152605
0.00223621
0.0032023
0.00447497
0.00609672
0.00809609
0.0104843
0.0132546
0.0163854
0.0198423
0.0235833
0.0275617
0.0317288
0.0360361
0.0404361
0.0448846
0.0493404
0.0537666
0.0581305
0.062404
0.0665638
0.0705907
0.0744689
0.0781866
0.0817352
0.0851096
0.088307
0.0913271
0.0941713
0.0968426
0.0993454
0.101685
0.103866
0.105895
0.107777
0.109516
0.111114
0.112571
0.11388
0.115027
0.115986
0.116711
0.117115
0.117109
0.116484
0.114927
0.111927
0.106618
0.0992114
0.0907507
0.0818634
0.072936
0.0642095
0.0558496
0.0479638
0.0406198
0.0338861
0.0277796
0.0220881
0.0170125
0.0126276
0.00896289
0.00603603
0.00383341
0.00229075
0.00129154
0.00069154
0.000354393
0.000175017
8.42317e-05
3.96699e-05
1.83474e-05
8.33798e-06
3.73342e-06
1.64745e-06
7.18112e-07
3.09299e-07
1.31884e-07
5.56887e-08
2.33039e-08
9.66036e-09
3.9564e-09
1.5886e-09
6.17489e-10
2.05821e-10
4.30065e-11
3.64342e-07
1.59235e-06
3.65819e-06
7.12196e-06
1.29013e-05
2.24821e-05
3.82375e-05
6.38972e-05
0.000105216
0.000170886
0.000273703
0.000431959
0.00067087
0.00102371
0.00153209
0.00224466
0.00321375
0.00448993
0.00611558
0.00811907
0.0105114
0.0132858
0.0164204
0.0198787
0.0236208
0.0275996
0.0317663
0.0360723
0.0404704
0.0449161
0.0493685
0.0537907
0.0581502
0.062419
0.0665739
0.0705956
0.0744688
0.0781813
0.0817251
0.0850948
0.0882878
0.0913038
0.0941443
0.0968123
0.0993122
0.101649
0.103828
0.105856
0.107737
0.109476
0.111075
0.112533
0.113844
0.114996
0.115961
0.116697
0.117117
0.117132
0.116545
0.115049
0.112146
0.106994
0.0996751
0.0912601
0.0823919
0.0734664
0.0647299
0.0563498
0.0484374
0.0410612
0.0342888
0.0281468
0.0224389
0.0173186
0.012887
0.00917397
0.00619879
0.00395068
0.00236892
0.00133965
0.000719066
0.0003692
0.000182593
8.79467e-05
4.1442e-05
1.9174e-05
8.71564e-06
3.90294e-06
1.72228e-06
7.5068e-07
3.23285e-07
1.37823e-07
5.8185e-08
2.43433e-08
1.00896e-08
4.13225e-09