/*--------------------------------*- C++ -*----------------------------------*\
  =========                 |
  \\      /  F ield         | OpenFOAM: The Open Source CFD Toolbox
   \\    /   O peration     | Website:  https://openfoam.org
    \\  /    A nd           | Version:  8
     \\/     M anipulation  |
\*---------------------------------------------------------------------------*/
FoamFile
{
    version     2.0;
    format      ascii;
    class       volScalarField;
    location    "0.4/fluid";
    object      N2;
}
// * * * * * * * * * * * * * * * * * * * * * * * * * * * * * * * * * * * * * //

dimensions      [0 0 0 0 0 0 0];

internalField   nonuniform List<scalar> 
4000
(
2.2932e-06
1.00223e-05
2.30265e-05
4.48416e-05
8.12826e-05
0.000141818
0.00024168
0.000405022
0.000669474
0.00109244
0.00175932
0.00279319
0.00436568
0.00670326
0.0100864
0.0148387
0.0212988
0.029778
0.040514
0.0536354
0.0691473
0.0869392
0.106809
0.128492
0.151685
0.176073
0.201339
0.227176
0.253393
0.279743
0.305889
0.331651
0.356872
0.381417
0.405182
0.428079
0.450042
0.471028
0.491007
0.509968
0.527912
0.54485
0.560803
0.575798
0.589866
0.603044
0.615371
0.626888
0.637637
0.647658
0.656994
0.665684
0.673769
0.681288
0.688276
0.69477
0.700802
0.706329
0.711409
0.716271
0.720801
0.725032
0.729
0.732748
0.736309
0.739702
0.742934
0.746012
0.748934
0.751695
0.754289
0.756707
0.758933
0.760974
0.762884
0.764569
0.766031
0.767249
0.768211
0.768915
0.769388
0.769678
0.76984
0.769924
0.769965
0.769984
0.769993
0.769997
0.769999
0.769999
0.77
0.77
0.77
0.77
0.77
0.77
0.77
0.77
0.77
0.77
2.29068e-06
1.00128e-05
2.3011e-05
4.4829e-05
8.12962e-05
0.0001419
0.00024188
0.000405346
0.000669748
0.00109203
0.00175653
0.00278441
0.00434261
0.00665002
0.00998101
0.0146521
0.0209952
0.0293191
0.0398655
0.0527733
0.0680624
0.0856389
0.105315
0.126839
0.149916
0.174236
0.199486
0.225427
0.251753
0.278049
0.304216
0.330046
0.355365
0.380028
0.40392
0.426948
0.449043
0.470157
0.49026
0.509338
0.527391
0.544431
0.560476
0.575554
0.589697
0.602943
0.61533
0.626899
0.637694
0.647755
0.657124
0.665844
0.673954
0.681493
0.688499
0.695008
0.701055
0.706574
0.711663
0.716534
0.72107
0.725306
0.72928
0.733034
0.736601
0.739999
0.743237
0.746318
0.749244
0.752005
0.754596
0.757006
0.759217
0.761245
0.763126
0.764805
0.766243
0.767427
0.768346
0.769008
0.769445
0.769708
0.769854
0.76993
0.769967
0.769985
0.769993
0.769997
0.769999
0.769999
0.77
0.77
0.77
0.77
0.77
0.77
0.77
0.77
0.77
0.77
2.2928e-06
1.00234e-05
2.30412e-05
4.49016e-05
8.14509e-05
0.000142195
0.000242385
0.000406101
0.000670663
0.00109263
0.00175548
0.00277849
0.00432538
0.00661288
0.00990896
0.0145227
0.0207791
0.0289822
0.0393724
0.0520926
0.0671714
0.0845269
0.103986
0.125307
0.148211
0.172394
0.197577
0.223501
0.249673
0.275985
0.302199
0.328105
0.353523
0.378306
0.402331
0.425504
0.44775
0.469017
0.489271
0.508497
0.526692
0.543866
0.560037
0.575232
0.589483
0.602826
0.615302
0.62695
0.637813
0.647935
0.657357
0.666122
0.67427
0.681842
0.688875
0.695408
0.701475
0.706982
0.712092
0.716978
0.721521
0.725762
0.72974
0.733499
0.73707
0.740471
0.743709
0.746789
0.74971
0.752461
0.755038
0.757428
0.759611
0.761621
0.763473
0.765099
0.766483
0.767609
0.768474
0.769089
0.76949
0.769731
0.769865
0.769935
0.76997
0.769986
0.769994
0.769997
0.769999
0.769999
0.77
0.77
0.77
0.77
0.77
0.77
0.77
0.77
0.77
0.77
2.28648e-06
9.99544e-06
2.29754e-05
4.47674e-05
8.11883e-05
0.000141683
0.000241377
0.00040411
0.00066675
0.00108508
0.00174131
0.00275294
0.00428162
0.00653975
0.00979081
0.0143391
0.0205059
0.0285929
0.0388415
0.0513989
0.0663004
0.0834727
0.102751
0.123905
0.146659
0.17072
0.195866
0.221593
0.24775
0.274073
0.300324
0.326291
0.351794
0.376679
0.400823
0.424127
0.446511
0.467922
0.488322
0.507692
0.526029
0.543339
0.55964
0.574956
0.589321
0.602769
0.615338
0.62707
0.638009
0.648197
0.657676
0.66649
0.67468
0.682284
0.689343
0.695892
0.701967
0.707443
0.712677
0.717546
0.722081
0.726316
0.730292
0.734051
0.737622
0.74102
0.744254
0.747325
0.750232
0.752964
0.755515
0.757873
0.760019
0.762003
0.763811
0.765387
0.766716
0.767788
0.7686
0.769171
0.769539
0.769758
0.769879
0.769941
0.769972
0.769987
0.769994
0.769997
0.769999
0.77
0.77
0.77
0.77
0.77
0.77
0.77
0.77
0.77
0.77
0.77
2.27465e-06
9.94331e-06
2.28537e-05
4.45244e-05
8.07321e-05
0.00014085
0.000239875
0.000401422
0.000661977
0.00107668
0.00172675
0.0027281
0.00424013
0.00647221
0.00968414
0.0141763
0.0202667
0.0282554
0.0383845
0.0508045
0.0655563
0.0825735
0.101699
0.122708
0.145332
0.169301
0.194273
0.219968
0.24611
0.272439
0.298718
0.324735
0.350308
0.375281
0.399528
0.422945
0.445452
0.466991
0.487522
0.507024
0.52549
0.542926
0.559347
0.574778
0.58925
0.602795
0.615453
0.627266
0.638277
0.648528
0.658063
0.666923
0.675151
0.682787
0.68987
0.696437
0.702524
0.708006
0.713253
0.718126
0.72266
0.726892
0.730866
0.734623
0.738191
0.741583
0.744808
0.747866
0.750753
0.753461
0.755982
0.7583
0.760409
0.762369
0.764129
0.765653
0.76693
0.767949
0.768712
0.769242
0.76958
0.76978
0.76989
0.769947
0.769975
0.769988
0.769995
0.769998
0.769999
0.77
0.77
0.77
0.77
0.77
0.77
0.77
0.77
0.77
0.77
0.77
2.25834e-06
9.87145e-06
2.2686e-05
4.41903e-05
8.01085e-05
0.000139723
0.000237876
0.000397927
0.000655939
0.00106639
0.00170948
0.00269964
0.00419427
0.00640018
0.00957427
0.0140141
0.0200356
0.0279382
0.0379653
0.0502705
0.0648997
0.0817922
0.100796
0.121692
0.144216
0.168134
0.193014
0.218654
0.24477
0.271098
0.297399
0.323459
0.349093
0.374142
0.398477
0.421993
0.444608
0.466258
0.486904
0.506521
0.525101
0.542647
0.559176
0.574709
0.589273
0.602905
0.615643
0.627528
0.638602
0.648909
0.658492
0.667393
0.675655
0.683318
0.690421
0.697004
0.703088
0.708572
0.713823
0.718696
0.723226
0.727454
0.731424
0.735177
0.738739
0.742124
0.745337
0.74838
0.751245
0.753927
0.756416
0.758695
0.760767
0.762704
0.764417
0.765894
0.767121
0.768092
0.768811
0.769305
0.769617
0.7698
0.7699
0.769952
0.769977
0.769989
0.769995
0.769998
0.769999
0.77
0.77
0.77
0.77
0.77
0.77
0.77
0.77
0.77
0.77
0.77
2.24032e-06
9.79236e-06
2.25025e-05
4.3828e-05
7.94397e-05
0.00013853
0.000235795
0.000394348
0.000649868
0.00105623
0.00169274
0.00267255
0.00415133
0.00633372
0.00947422
0.0138682
0.0198297
0.0276582
0.0375983
0.0498068
0.0643341
0.0811241
0.10003
0.120838
0.143293
0.167086
0.191936
0.217556
0.243665
0.270004
0.296331
0.322433
0.348122
0.373239
0.397653
0.421257
0.443964
0.465712
0.486457
0.506174
0.524852
0.542496
0.559116
0.574733
0.589378
0.603084
0.61589
0.627836
0.638964
0.649317
0.65894
0.667875
0.676163
0.683847
0.690967
0.69756
0.703633
0.709114
0.714365
0.719234
0.723759
0.72798
0.731945
0.735693
0.739249
0.742624
0.745824
0.748851
0.751695
0.754351
0.756809
0.759051
0.761097
0.762997
0.76467
0.766105
0.767288
0.768216
0.768897
0.769359
0.769649
0.769817
0.769909
0.769956
0.769979
0.76999
0.769996
0.769998
0.769999
0.77
0.77
0.77
0.77
0.77
0.77
0.77
0.77
0.77
0.77
0.77
2.22201e-06
9.71208e-06
2.23168e-05
4.34623e-05
7.87674e-05
0.000137338
0.000233725
0.000390813
0.00064392
0.00104637
0.00167666
0.00264681
0.004111
0.00627206
0.00938256
0.013736
0.0196457
0.0274106
0.0372772
0.049405
0.0638477
0.0805535
0.0993798
0.120115
0.142527
0.166258
0.19107
0.216669
0.242776
0.269127
0.295481
0.321623
0.347363
0.372543
0.397026
0.420706
0.443495
0.465327
0.486157
0.505959
0.524722
0.542446
0.559142
0.574832
0.589544
0.603313
0.616174
0.62817
0.639342
0.649733
0.659387
0.668348
0.676657
0.684355
0.691485
0.698084
0.704137
0.709615
0.714863
0.719728
0.724246
0.728461
0.73242
0.736162
0.73971
0.743076
0.746263
0.749274
0.752097
0.754728
0.757158
0.759367
0.761387
0.763255
0.764892
0.766289
0.767434
0.768324
0.768971
0.769406
0.769676
0.769832
0.769916
0.76996
0.769981
0.769991
0.769996
0.769998
0.769999
0.77
0.77
0.77
0.77
0.77
0.77
0.77
0.77
0.77
0.77
0.77
2.20449e-06
9.63536e-06
2.21397e-05
4.31148e-05
7.81309e-05
0.000136214
0.000231784
0.00038752
0.000638416
0.00103731
0.00166199
0.00262352
0.00407479
0.00621714
0.00930152
0.0136201
0.0194852
0.0271963
0.0370011
0.0490616
0.0634347
0.0800718
0.0988327
0.119507
0.141844
0.165556
0.190354
0.215948
0.242061
0.268429
0.294811
0.320992
0.34678
0.372015
0.396561
0.420308
0.443167
0.465071
0.485974
0.505849
0.524682
0.542473
0.559233
0.574984
0.589752
0.603571
0.616478
0.628514
0.63972
0.650141
0.659819
0.668798
0.677121
0.68483
0.691965
0.698565
0.704591
0.710066
0.715311
0.720171
0.724683
0.728892
0.732845
0.736582
0.740122
0.743477
0.746652
0.749647
0.752451
0.75506
0.757464
0.759644
0.761643
0.763481
0.765087
0.76645
0.76756
0.768417
0.769035
0.769446
0.769699
0.769844
0.769923
0.769963
0.769982
0.769992
0.769996
0.769998
0.769999
0.77
0.77
0.77
0.77
0.77
0.77
0.77
0.77
0.77
0.77
0.77
2.18832e-06
9.56462e-06
2.19766e-05
4.27953e-05
7.75471e-05
0.000135185
0.000230015
0.000384529
0.000633438
0.00102916
0.00164886
0.00260278
0.00404274
0.00616882
0.00923066
0.0135194
0.0193467
0.0270126
0.036766
0.0487712
0.0630883
0.0796722
0.0983869
0.119033
0.141322
0.165003
0.189784
0.215375
0.241495
0.267881
0.294291
0.320508
0.34634
0.371625
0.396225
0.42003
0.44295
0.464916
0.485881
0.505817
0.524708
0.542555
0.559368
0.575168
0.589981
0.603841
0.616784
0.628852
0.640085
0.650528
0.660224
0.669217
0.67755
0.685265
0.692402
0.699002
0.704998
0.710469
0.715711
0.720565
0.725071
0.729274
0.733221
0.736952
0.740484
0.74383
0.746993
0.749973
0.75276
0.755349
0.757729
0.759885
0.761867
0.763678
0.765255
0.766588
0.767669
0.768497
0.769088
0.76948
0.769719
0.769855
0.769928
0.769965
0.769984
0.769992
0.769997
0.769998
0.769999
0.77
0.77
0.77
0.77
0.77
0.77
0.77
0.77
0.77
0.77
0.77
2.17381e-06
9.50117e-06
2.18304e-05
4.25095e-05
7.70259e-05
0.00013427
0.000228444
0.000381881
0.000629045
0.00102199
0.00163737
0.0025847
0.00401493
0.00612708
0.00916976
0.0134332
0.0192288
0.0268568
0.0365673
0.0485264
0.0627961
0.0793325
0.0979998
0.118602
0.140877
0.164548
0.189325
0.214918
0.24105
0.267455
0.293892
0.320142
0.346014
0.371342
0.39599
0.419845
0.442817
0.464835
0.485853
0.505839
0.524779
0.542672
0.559528
0.575368
0.590218
0.60411
0.617081
0.629173
0.640427
0.650886
0.660596
0.669599
0.677938
0.685657
0.692796
0.699396
0.705364
0.710829
0.716065
0.720912
0.725412
0.729608
0.733551
0.737275
0.7408
0.744137
0.747289
0.750255
0.753026
0.755598
0.757957
0.760091
0.762061
0.763848
0.765401
0.766708
0.767762
0.768564
0.769134
0.769508
0.769735
0.769864
0.769933
0.769968
0.769985
0.769993
0.769997
0.769999
0.769999
0.77
0.77
0.77
0.77
0.77
0.77
0.77
0.77
0.77
0.77
0.77
2.16107e-06
9.44547e-06
2.17023e-05
4.22591e-05
7.657e-05
0.00013347
0.000227075
0.000379578
0.000625236
0.00101579
0.00162746
0.00256917
0.00399113
0.00609152
0.00911807
0.0133604
0.0191297
0.0267267
0.0364027
0.0483256
0.0625598
0.0790641
0.097705
0.118277
0.140532
0.16419
0.188963
0.214561
0.240704
0.267127
0.293589
0.319869
0.345776
0.371143
0.395832
0.41973
0.442746
0.464809
0.485869
0.505897
0.524877
0.542808
0.559699
0.575571
0.590449
0.604366
0.61736
0.62947
0.640739
0.65121
0.660928
0.669937
0.678281
0.686002
0.693141
0.699741
0.705681
0.711143
0.716375
0.721217
0.72571
0.729901
0.733837
0.737555
0.741073
0.744401
0.747544
0.750498
0.753255
0.75581
0.758151
0.760268
0.762228
0.763995
0.765525
0.766809
0.76784
0.768621
0.769172
0.769532
0.769749
0.769871
0.769936
0.769969
0.769986
0.769993
0.769997
0.769999
0.769999
0.77
0.77
0.77
0.77
0.77
0.77
0.77
0.77
0.77
0.77
0.77
2.1501e-06
9.39752e-06
2.1592e-05
4.20438e-05
7.61785e-05
0.000132784
0.000225903
0.000377612
0.00062199
0.00101052
0.00161906
0.00255604
0.00397106
0.00606161
0.00907474
0.0132996
0.0190472
0.0266186
0.0362664
0.04816
0.0623657
0.0788445
0.0974663
0.118016
0.140256
0.163907
0.188679
0.214282
0.240437
0.266878
0.293363
0.31967
0.345607
0.371007
0.395731
0.419666
0.442719
0.464817
0.485914
0.505976
0.524988
0.54295
0.559869
0.575766
0.590666
0.604603
0.617613
0.629736
0.641016
0.651495
0.661219
0.67023
0.678575
0.686295
0.693433
0.700031
0.705949
0.711421
0.716652
0.721487
0.725972
0.730155
0.734085
0.737796
0.741307
0.744628
0.747762
0.750704
0.753449
0.755991
0.758315
0.760419
0.76237
0.764119
0.76563
0.766895
0.767907
0.768669
0.769204
0.769551
0.76976
0.769877
0.769939
0.769971
0.769986
0.769994
0.769997
0.769999
0.769999
0.77
0.77
0.77
0.77
0.77
0.77
0.77
0.77
0.77
0.77
0.77
2.14083e-06
9.35701e-06
2.14989e-05
4.18622e-05
7.58485e-05
0.000132207
0.000224918
0.000375961
0.000619271
0.00100612
0.00161205
0.00254511
0.00395439
0.00603682
0.00903893
0.0132494
0.0189792
0.0265298
0.0361544
0.0480235
0.0622045
0.0786591
0.0972588
0.1178
0.140033
0.163682
0.188456
0.214067
0.240233
0.266691
0.293195
0.319526
0.345489
0.370918
0.395672
0.419637
0.44272
0.464849
0.485974
0.506064
0.525103
0.543089
0.560031
0.575947
0.590865
0.604816
0.617838
0.629971
0.641257
0.651741
0.661466
0.670478
0.678818
0.686531
0.693658
0.700238
0.706115
0.711727
0.716923
0.721736
0.726205
0.730377
0.734298
0.738002
0.741506
0.744819
0.747945
0.750878
0.753613
0.756142
0.758453
0.760544
0.76249
0.764223
0.765719
0.766967
0.767962
0.768709
0.76923
0.769567
0.769769
0.769882
0.769942
0.769972
0.769987
0.769994
0.769997
0.769999
0.769999
0.77
0.77
0.77
0.77
0.77
0.77
0.77
0.77
0.77
0.77
0.77
2.13315e-06
9.3235e-06
2.14219e-05
4.17121e-05
7.55761e-05
0.000131731
0.000224106
0.000374604
0.000617038
0.00100251
0.00160631
0.00253619
0.00394081
0.00601669
0.0090099
0.0132089
0.0189245
0.0264586
0.0360651
0.0479157
0.0620788
0.0785173
0.0971028
0.117634
0.139861
0.163508
0.188285
0.213903
0.24008
0.266552
0.293074
0.319425
0.34541
0.370862
0.39564
0.41963
0.442738
0.464892
0.486041
0.506153
0.525213
0.543218
0.560177
0.576109
0.591039
0.605002
0.618033
0.630173
0.641464
0.651951
0.661677
0.670688
0.679027
0.686736
0.693859
0.700436
0.706309
0.71193
0.717123
0.72193
0.726392
0.730558
0.734474
0.738172
0.74167
0.744977
0.748096
0.751021
0.753747
0.756267
0.758566
0.760647
0.762588
0.764309
0.765791
0.767025
0.768007
0.768741
0.769252
0.76958
0.769776
0.769886
0.769944
0.769973
0.769987
0.769994
0.769997
0.769999
0.769999
0.77
0.77
0.77
0.77
0.77
0.77
0.77
0.77
0.77
0.77
0.77
2.12697e-06
9.2965e-06
2.13599e-05
4.15913e-05
7.5357e-05
0.000131349
0.000223455
0.000373515
0.000615249
0.000999618
0.00160173
0.00252907
0.00393001
0.00600069
0.0089869
0.0131768
0.0188814
0.0264028
0.0359954
0.0478321
0.0619823
0.0784105
0.0969844
0.117507
0.13973
0.163377
0.188157
0.213781
0.239968
0.266452
0.292988
0.319355
0.345359
0.37083
0.395628
0.419638
0.442765
0.464938
0.486106
0.506236
0.525312
0.543332
0.560304
0.576247
0.591188
0.605159
0.618197
0.630342
0.641636
0.652125
0.661853
0.670863
0.6792
0.686908
0.694028
0.700603
0.706474
0.712092
0.717281
0.722083
0.726541
0.730702
0.734614
0.738308
0.741802
0.745104
0.748217
0.751136
0.753855
0.756367
0.758657
0.76073
0.762667
0.764377
0.765849
0.767072
0.768043
0.768767
0.769269
0.769591
0.769782
0.769889
0.769946
0.769974
0.769988
0.769994
0.769997
0.769999
0.769999
0.77
0.77
0.77
0.77
0.77
0.77
0.77
0.77
0.77
0.77
0.77
2.12217e-06
9.27555e-06
2.13118e-05
4.14976e-05
7.51871e-05
0.000131052
0.000222951
0.000372673
0.000613867
0.000997389
0.0015982
0.00252359
0.0039217
0.0059884
0.00896925
0.0131523
0.0188484
0.0263599
0.0359419
0.0477674
0.0619068
0.0783246
0.0968926
0.117411
0.139633
0.163279
0.188063
0.213692
0.239887
0.266381
0.292929
0.319309
0.345326
0.370812
0.395626
0.419652
0.442795
0.464982
0.486164
0.506308
0.525396
0.543427
0.560409
0.576361
0.591309
0.605286
0.618328
0.630477
0.641775
0.652265
0.661993
0.671003
0.679339
0.687045
0.694163
0.700735
0.706603
0.712217
0.717403
0.722202
0.726655
0.730813
0.734722
0.738413
0.741904
0.745202
0.748312
0.751226
0.753939
0.756445
0.758727
0.760795
0.762727
0.76443
0.765893
0.767108
0.76807
0.768786
0.769282
0.769599
0.769787
0.769892
0.769947
0.769974
0.769988
0.769994
0.769998
0.769999
0.77
0.77
0.77
0.77
0.77
0.77
0.77
0.77
0.77
0.77
0.77
0.77
2.11867e-06
9.26023e-06
2.12766e-05
4.14291e-05
7.5063e-05
0.000130836
0.000222582
0.000372059
0.00061286
0.000995765
0.00159563
0.00251961
0.00391566
0.00597949
0.00895646
0.0131345
0.0188245
0.026329
0.0359034
0.0477212
0.0618532
0.0782647
0.0968279
0.117344
0.139564
0.163211
0.187997
0.21363
0.239831
0.266332
0.292889
0.319279
0.345307
0.370805
0.39563
0.419666
0.44282
0.465019
0.486211
0.506364
0.525461
0.5435
0.560489
0.576448
0.591401
0.605382
0.618428
0.630579
0.641878
0.652369
0.662097
0.671107
0.679442
0.687147
0.694263
0.700833
0.706697
0.712309
0.717493
0.722288
0.726739
0.730894
0.734801
0.73849
0.741978
0.745274
0.748381
0.751291
0.754
0.756502
0.758779
0.760843
0.76277
0.764467
0.765925
0.767134
0.76809
0.7688
0.769291
0.769604
0.76979
0.769893
0.769948
0.769975
0.769988
0.769995
0.769998
0.769999
0.77
0.77
0.77
0.77
0.77
0.77
0.77
0.77
0.77
0.77
0.77
0.77
2.11638e-06
9.25024e-06
2.12536e-05
4.13845e-05
7.49821e-05
0.000130695
0.000222343
0.00037166
0.000612206
0.000994712
0.00159397
0.00251703
0.00391176
0.00597373
0.00894821
0.013123
0.0188092
0.0263092
0.0358787
0.0476916
0.0618191
0.0782266
0.0967867
0.1173
0.13952
0.163168
0.187955
0.213592
0.239797
0.266303
0.292866
0.319262
0.345297
0.370802
0.395634
0.419678
0.44284
0.465045
0.486244
0.506403
0.525506
0.54355
0.560544
0.576506
0.591463
0.605446
0.618494
0.630647
0.641947
0.652439
0.662167
0.671176
0.67951
0.687214
0.694329
0.700897
0.70676
0.71237
0.717551
0.722345
0.726794
0.730947
0.734853
0.738541
0.742027
0.745321
0.748426
0.751334
0.754041
0.756539
0.758813
0.760874
0.762798
0.764492
0.765946
0.767151
0.768103
0.76881
0.769297
0.769608
0.769792
0.769894
0.769948
0.769975
0.769988
0.769995
0.769998
0.769999
0.77
0.77
0.77
0.77
0.77
0.77
0.77
0.77
0.77
0.77
0.77
0.77
2.11526e-06
9.24537e-06
2.12425e-05
4.13629e-05
7.49431e-05
0.000130627
0.000222228
0.000371469
0.000611894
0.00099421
0.00159318
0.00251581
0.00390991
0.00597101
0.00894431
0.0131176
0.0188019
0.0262998
0.0358671
0.0476777
0.061803
0.0782086
0.0967673
0.11728
0.139499
0.163147
0.187936
0.213574
0.23978
0.266289
0.292855
0.319255
0.345293
0.370801
0.395637
0.419685
0.442849
0.465059
0.486261
0.506423
0.525528
0.543575
0.560571
0.576535
0.591493
0.605478
0.618527
0.630681
0.641981
0.652473
0.662201
0.67121
0.679544
0.687247
0.694362
0.700929
0.706791
0.7124
0.71758
0.722373
0.72682
0.730973
0.734878
0.738565
0.742051
0.745344
0.748448
0.751355
0.75406
0.756557
0.758829
0.76089
0.762812
0.764504
0.765956
0.767159
0.768109
0.768814
0.7693
0.76961
0.769793
0.769895
0.769949
0.769975
0.769988
0.769995
0.769998
0.769999
0.77
0.77
0.77
0.77
0.77
0.77
0.77
0.77
0.77
0.77
0.77
0.77
2.11526e-06
9.24536e-06
2.12425e-05
4.13628e-05
7.4943e-05
0.000130627
0.000222228
0.000371468
0.000611893
0.00099421
0.00159318
0.00251581
0.00390991
0.00597101
0.00894431
0.0131176
0.0188019
0.0262998
0.035867
0.0476777
0.061803
0.0782086
0.0967673
0.11728
0.139499
0.163147
0.187936
0.213574
0.23978
0.266289
0.292855
0.319255
0.345293
0.370801
0.395637
0.419685
0.44285
0.465059
0.486261
0.506423
0.525528
0.543575
0.560571
0.576535
0.591493
0.605478
0.618527
0.630681
0.641981
0.652473
0.662201
0.67121
0.679544
0.687247
0.694362
0.700929
0.706791
0.7124
0.71758
0.722373
0.72682
0.730973
0.734878
0.738565
0.742051
0.745344
0.748448
0.751355
0.75406
0.756557
0.758829
0.76089
0.762812
0.764504
0.765956
0.767159
0.768109
0.768814
0.7693
0.76961
0.769793
0.769895
0.769949
0.769975
0.769988
0.769995
0.769998
0.769999
0.77
0.77
0.77
0.77
0.77
0.77
0.77
0.77
0.77
0.77
0.77
0.77
2.11637e-06
9.25021e-06
2.12536e-05
4.13844e-05
7.49819e-05
0.000130695
0.000222342
0.000371659
0.000612205
0.00099471
0.00159397
0.00251702
0.00391175
0.00597372
0.0089482
0.013123
0.0188092
0.0263092
0.0358787
0.0476916
0.0618191
0.0782266
0.0967867
0.1173
0.13952
0.163168
0.187955
0.213592
0.239797
0.266303
0.292866
0.319262
0.345297
0.370802
0.395634
0.419678
0.44284
0.465045
0.486244
0.506403
0.525506
0.54355
0.560544
0.576506
0.591463
0.605446
0.618494
0.630647
0.641947
0.652439
0.662167
0.671176
0.67951
0.687214
0.694329
0.700897
0.70676
0.71237
0.717551
0.722345
0.726794
0.730947
0.734853
0.738541
0.742027
0.745321
0.748426
0.751334
0.754041
0.756539
0.758813
0.760874
0.762798
0.764492
0.765946
0.767151
0.768103
0.76881
0.769297
0.769608
0.769792
0.769894
0.769948
0.769975
0.769988
0.769995
0.769998
0.769999
0.77
0.77
0.77
0.77
0.77
0.77
0.77
0.77
0.77
0.77
0.77
0.77
2.11865e-06
9.26018e-06
2.12765e-05
4.14289e-05
7.50626e-05
0.000130835
0.000222581
0.000372057
0.000612858
0.000995762
0.00159563
0.0025196
0.00391565
0.00597948
0.00895644
0.0131345
0.0188245
0.026329
0.0359033
0.0477211
0.0618532
0.0782647
0.0968279
0.117343
0.139563
0.163211
0.187997
0.21363
0.239831
0.266332
0.292889
0.319279
0.345307
0.370805
0.39563
0.419666
0.44282
0.465019
0.486211
0.506364
0.525461
0.5435
0.56049
0.576448
0.591401
0.605382
0.618428
0.630579
0.641878
0.652369
0.662097
0.671107
0.679442
0.687147
0.694263
0.700833
0.706698
0.712309
0.717493
0.722288
0.726739
0.730894
0.734801
0.73849
0.741979
0.745274
0.748381
0.751291
0.754
0.756502
0.758779
0.760843
0.76277
0.764467
0.765925
0.767134
0.76809
0.7688
0.769291
0.769604
0.76979
0.769893
0.769948
0.769975
0.769988
0.769995
0.769998
0.769999
0.77
0.77
0.77
0.77
0.77
0.77
0.77
0.77
0.77
0.77
0.77
0.77
2.12216e-06
9.27548e-06
2.13116e-05
4.14973e-05
7.51866e-05
0.000131052
0.000222949
0.000372671
0.000613864
0.000997383
0.0015982
0.00252358
0.00392168
0.00598838
0.00896922
0.0131522
0.0188484
0.0263599
0.0359418
0.0477674
0.0619067
0.0783246
0.0968926
0.117411
0.139633
0.163279
0.188062
0.213692
0.239886
0.26638
0.292928
0.319309
0.345326
0.370812
0.395626
0.419652
0.442795
0.464982
0.486164
0.506308
0.525396
0.543427
0.560409
0.576361
0.591309
0.605286
0.618329
0.630477
0.641775
0.652265
0.661993
0.671003
0.679339
0.687045
0.694163
0.700735
0.706603
0.712217
0.717403
0.722202
0.726655
0.730813
0.734722
0.738413
0.741904
0.745202
0.748312
0.751226
0.753939
0.756445
0.758727
0.760795
0.762727
0.76443
0.765893
0.767108
0.76807
0.768786
0.769282
0.769599
0.769787
0.769892
0.769947
0.769974
0.769988
0.769994
0.769998
0.769999
0.77
0.77
0.77
0.77
0.77
0.77
0.77
0.77
0.77
0.77
0.77
0.77
2.12695e-06
9.29642e-06
2.13597e-05
4.15909e-05
7.53563e-05
0.000131348
0.000223453
0.000373512
0.000615245
0.000999611
0.00160172
0.00252906
0.00392999
0.00600066
0.00898687
0.0131768
0.0188814
0.0264027
0.0359954
0.047832
0.0619822
0.0784104
0.0969843
0.117507
0.13973
0.163377
0.188157
0.213781
0.239967
0.266452
0.292988
0.319355
0.345359
0.37083
0.395628
0.419638
0.442766
0.464938
0.486106
0.506236
0.525312
0.543332
0.560304
0.576248
0.591188
0.605159
0.618197
0.630342
0.641637
0.652125
0.661853
0.670863
0.679201
0.686908
0.694029
0.700603
0.706474
0.712092
0.717281
0.722084
0.726541
0.730702
0.734614
0.738308
0.741802
0.745104
0.748218
0.751136
0.753855
0.756367
0.758657
0.76073
0.762667
0.764377
0.765849
0.767072
0.768043
0.768767
0.769269
0.769591
0.769782
0.769889
0.769946
0.769974
0.769988
0.769994
0.769997
0.769999
0.769999
0.77
0.77
0.77
0.77
0.77
0.77
0.77
0.77
0.77
0.77
0.77
2.13313e-06
9.32339e-06
2.14216e-05
4.17117e-05
7.55753e-05
0.00013173
0.000224104
0.0003746
0.000617032
0.0010025
0.0016063
0.00253617
0.00394079
0.00601665
0.00900986
0.0132088
0.0189245
0.0264586
0.0360651
0.0479156
0.0620787
0.0785172
0.0971027
0.117634
0.139861
0.163508
0.188285
0.213903
0.24008
0.266552
0.293074
0.319425
0.34541
0.370862
0.395641
0.419631
0.442738
0.464892
0.486041
0.506153
0.525213
0.543218
0.560177
0.576109
0.59104
0.605002
0.618033
0.630173
0.641464
0.651951
0.661677
0.670688
0.679027
0.686736
0.693859
0.700436
0.70631
0.71193
0.717124
0.72193
0.726392
0.730558
0.734474
0.738172
0.74167
0.744977
0.748096
0.751021
0.753747
0.756267
0.758566
0.760647
0.762588
0.764309
0.765791
0.767025
0.768007
0.768741
0.769252
0.76958
0.769776
0.769886
0.769944
0.769973
0.769987
0.769994
0.769997
0.769999
0.769999
0.77
0.77
0.77
0.77
0.77
0.77
0.77
0.77
0.77
0.77
0.77
2.1408e-06
9.35688e-06
2.14986e-05
4.18616e-05
7.58476e-05
0.000132206
0.000224915
0.000375957
0.000619264
0.00100611
0.00161204
0.00254509
0.00395436
0.00603679
0.00903887
0.0132493
0.0189791
0.0265297
0.0361542
0.0480234
0.0622044
0.078659
0.0972586
0.1178
0.140033
0.163682
0.188456
0.214067
0.240233
0.266691
0.293195
0.319526
0.345489
0.370918
0.395672
0.419637
0.44272
0.464849
0.485974
0.506064
0.525103
0.543089
0.560031
0.575947
0.590865
0.604816
0.617838
0.629971
0.641258
0.651741
0.661467
0.670478
0.678819
0.686532
0.693658
0.700239
0.706115
0.711728
0.716923
0.721736
0.726205
0.730377
0.734299
0.738002
0.741506
0.744819
0.747945
0.750878
0.753613
0.756142
0.758453
0.760544
0.76249
0.764223
0.765719
0.766967
0.767962
0.768709
0.76923
0.769567
0.769769
0.769882
0.769942
0.769972
0.769987
0.769994
0.769997
0.769999
0.769999
0.77
0.77
0.77
0.77
0.77
0.77
0.77
0.77
0.77
0.77
0.77
2.15006e-06
9.39737e-06
2.15916e-05
4.20432e-05
7.61774e-05
0.000132783
0.0002259
0.000377607
0.000621983
0.00101051
0.00161904
0.00255602
0.00397103
0.00606156
0.00907468
0.0132995
0.0190471
0.0266185
0.0362662
0.0481598
0.0623655
0.0788443
0.0974661
0.118016
0.140256
0.163907
0.188679
0.214282
0.240437
0.266878
0.293362
0.31967
0.345607
0.371007
0.395731
0.419666
0.442719
0.464818
0.485914
0.505976
0.524989
0.54295
0.55987
0.575766
0.590667
0.604603
0.617613
0.629737
0.641016
0.651495
0.661219
0.670231
0.678575
0.686295
0.693433
0.700031
0.70595
0.711421
0.716652
0.721487
0.725972
0.730156
0.734086
0.737797
0.741308
0.744628
0.747762
0.750705
0.75345
0.755991
0.758315
0.760419
0.76237
0.764119
0.76563
0.766895
0.767907
0.768669
0.769204
0.769551
0.76976
0.769877
0.769939
0.769971
0.769986
0.769994
0.769997
0.769999
0.769999
0.77
0.77
0.77
0.77
0.77
0.77
0.77
0.77
0.77
0.77
0.77
2.16103e-06
9.4453e-06
2.17019e-05
4.22583e-05
7.65687e-05
0.000133468
0.000227071
0.000379573
0.000625228
0.00101578
0.00162744
0.00256915
0.00399109
0.00609146
0.009118
0.0133603
0.0191296
0.0267265
0.0364025
0.0483255
0.0625597
0.0790639
0.0977049
0.118277
0.140532
0.16419
0.188963
0.214561
0.240704
0.267127
0.293589
0.319869
0.345776
0.371143
0.395832
0.41973
0.442746
0.464809
0.485869
0.505897
0.524877
0.542808
0.5597
0.575571
0.590449
0.604366
0.61736
0.62947
0.640739
0.65121
0.660929
0.669938
0.678281
0.686002
0.693142
0.699741
0.705681
0.711143
0.716376
0.721217
0.72571
0.729901
0.733837
0.737555
0.741073
0.744402
0.747544
0.750498
0.753255
0.755811
0.758151
0.760268
0.762228
0.763995
0.765525
0.766809
0.76784
0.768621
0.769172
0.769532
0.769749
0.769871
0.769936
0.769969
0.769986
0.769993
0.769997
0.769999
0.769999
0.77
0.77
0.77
0.77
0.77
0.77
0.77
0.77
0.77
0.77
0.77
2.17377e-06
9.50097e-06
2.183e-05
4.25086e-05
7.70245e-05
0.000134267
0.00022844
0.000381875
0.000629035
0.00102198
0.00163735
0.00258467
0.00401488
0.00612702
0.00916967
0.0134331
0.0192287
0.0268566
0.0365671
0.0485262
0.0627958
0.0793322
0.0979995
0.118602
0.140877
0.164548
0.189324
0.214918
0.24105
0.267455
0.293892
0.320142
0.346014
0.371342
0.39599
0.419845
0.442817
0.464836
0.485853
0.505839
0.524779
0.542672
0.559529
0.575368
0.590218
0.60411
0.617082
0.629173
0.640427
0.650887
0.660596
0.669599
0.677939
0.685658
0.692797
0.699397
0.705364
0.710829
0.716065
0.720913
0.725412
0.729609
0.733551
0.737275
0.7408
0.744137
0.74729
0.750255
0.753027
0.755598
0.757957
0.760091
0.762061
0.763848
0.765401
0.766708
0.767762
0.768564
0.769134
0.769508
0.769735
0.769864
0.769933
0.769968
0.769985
0.769993
0.769997
0.769999
0.769999
0.77
0.77
0.77
0.77
0.77
0.77
0.77
0.77
0.77
0.77
0.77
2.18827e-06
9.56439e-06
2.19761e-05
4.27943e-05
7.75455e-05
0.000135183
0.000230011
0.000384522
0.000633427
0.00102914
0.00164884
0.00260274
0.00404269
0.00616875
0.00923056
0.0135192
0.0193466
0.0270124
0.0367657
0.0487709
0.063088
0.0796719
0.0983865
0.119032
0.141322
0.165003
0.189784
0.215375
0.241495
0.267881
0.294291
0.320508
0.34634
0.371625
0.396225
0.42003
0.44295
0.464916
0.485882
0.505817
0.524708
0.542555
0.559369
0.575168
0.589982
0.603841
0.616785
0.628852
0.640085
0.650528
0.660225
0.669218
0.677551
0.685265
0.692403
0.699003
0.704998
0.71047
0.715711
0.720565
0.725071
0.729274
0.733222
0.736952
0.740485
0.74383
0.746994
0.749973
0.75276
0.755349
0.757729
0.759885
0.761867
0.763678
0.765255
0.766588
0.767669
0.768497
0.769088
0.76948
0.769719
0.769855
0.769928
0.769965
0.769984
0.769992
0.769997
0.769998
0.769999
0.77
0.77
0.77
0.77
0.77
0.77
0.77
0.77
0.77
0.77
0.77
2.20443e-06
9.63511e-06
2.21391e-05
4.31137e-05
7.8129e-05
0.00013621
0.000231779
0.000387512
0.000638403
0.0010373
0.00166197
0.00262348
0.00407473
0.00621706
0.00930141
0.0136199
0.019485
0.0271961
0.0370009
0.0490613
0.0634344
0.0800715
0.0988324
0.119507
0.141844
0.165556
0.190353
0.215948
0.24206
0.268428
0.294811
0.320992
0.34678
0.372015
0.396561
0.420308
0.443167
0.465071
0.485975
0.50585
0.524683
0.542473
0.559234
0.574984
0.589752
0.603571
0.616478
0.628514
0.639721
0.650141
0.659819
0.668799
0.677122
0.68483
0.691965
0.698566
0.704592
0.710067
0.715312
0.720171
0.724684
0.728893
0.732846
0.736582
0.740122
0.743478
0.746653
0.749647
0.752451
0.75506
0.757464
0.759644
0.761643
0.763481
0.765087
0.76645
0.76756
0.768417
0.769035
0.769446
0.769699
0.769844
0.769923
0.769963
0.769982
0.769992
0.769996
0.769998
0.769999
0.77
0.77
0.77
0.77
0.77
0.77
0.77
0.77
0.77
0.77
0.77
2.22195e-06
9.71179e-06
2.23161e-05
4.34611e-05
7.87654e-05
0.000137334
0.000233719
0.000390804
0.000643906
0.00104635
0.00167663
0.00264676
0.00411093
0.00627198
0.00938244
0.0137359
0.0196455
0.0274104
0.0372769
0.0494046
0.0638473
0.0805531
0.0993794
0.120115
0.142527
0.166258
0.191069
0.216669
0.242776
0.269126
0.295481
0.321623
0.347364
0.372543
0.397026
0.420706
0.443495
0.465327
0.486157
0.505959
0.524723
0.542446
0.559142
0.574832
0.589545
0.603313
0.616175
0.628171
0.639343
0.649734
0.659388
0.668348
0.676657
0.684356
0.691486
0.698085
0.704138
0.709616
0.714864
0.719728
0.724247
0.728462
0.73242
0.736163
0.739711
0.743076
0.746263
0.749274
0.752097
0.754729
0.757158
0.759367
0.761387
0.763255
0.764893
0.766289
0.767434
0.768324