/*--------------------------------*- C++ -*----------------------------------*\
  =========                 |
  \\      /  F ield         | OpenFOAM: The Open Source CFD Toolbox
   \\    /   O peration     | Website:  https://openfoam.org
    \\  /    A nd           | Version:  8
     \\/     M anipulation  |
\*---------------------------------------------------------------------------*/
FoamFile
{
    version     2.0;
    format      ascii;
    class       volScalarField;
    location    "0.4/fluid";
    object      O2;
}
// * * * * * * * * * * * * * * * * * * * * * * * * * * * * * * * * * * * * * //

dimensions      [0 0 0 0 0 0 0];

internalField   nonuniform List<scalar> 
4000
(
4.4825e-11
1.95894e-10
4.5e-10
8.7609e-10
1.58742e-09
2.7683e-09
4.71479e-09
7.89561e-09
1.30399e-08
2.12578e-08
3.41906e-08
5.42027e-08
8.45612e-08
1.29567e-07
1.94517e-07
2.85451e-07
4.08595e-07
5.69527e-07
7.72297e-07
1.01876e-06
1.30835e-06
1.63823e-06
2.00385e-06
2.39947e-06
2.8187e-06
3.25493e-06
3.70164e-06
4.15258e-06
4.60227e-06
5.04521e-06
5.47684e-06
5.89343e-06
6.29229e-06
6.67223e-06
7.03434e-06
7.38296e-06
7.72713e-06
8.08248e-06
8.47337e-06
8.93557e-06
9.51996e-06
1.02983e-05
1.13731e-05
1.28945e-05
1.5091e-05
1.83232e-05
2.3178e-05
3.06322e-05
4.23323e-05
6.1042e-05
9.13478e-05
0.000140739
0.000221263
0.000352089
0.000563506
0.000903153
0.00144573
0.00229608
0.00362462
0.00577219
0.00915809
0.0145195
0.0230795
0.0357999
0.0507102
0.0666323
0.0828404
0.0988804
0.114465
0.129386
0.143508
0.156732
0.168937
0.18015
0.190652
0.199929
0.207987
0.214715
0.220033
0.223941
0.226573
0.228188
0.229096
0.229568
0.2298
0.229909
0.22996
0.229982
0.229992
0.229997
0.229999
0.229999
0.23
0.23
0.23
0.23
0.23
0.23
0.23
0.23
4.48348e-11
1.95973e-10
4.50344e-10
8.7722e-10
1.5905e-09
2.77525e-09
4.72846e-09
7.91918e-09
1.30746e-08
2.12971e-08
3.42208e-08
5.41764e-08
8.43712e-08
1.29005e-07
1.93272e-07
2.83115e-07
4.04682e-07
5.6356e-07
7.63925e-07
1.00787e-06
1.29512e-06
1.62318e-06
1.98773e-06
2.38326e-06
2.80348e-06
3.24184e-06
3.6918e-06
4.14727e-06
4.60195e-06
5.05074e-06
5.489e-06
5.91281e-06
6.31936e-06
6.70733e-06
7.07768e-06
7.43466e-06
7.78731e-06
8.15133e-06
8.55138e-06
9.02383e-06
9.62066e-06
1.04154e-05
1.15132e-05
1.3069e-05
1.53188e-05
1.86362e-05
2.36307e-05
3.13025e-05
4.33798e-05
6.27355e-05
9.41415e-05
0.000145389
0.000229013
0.000364961
0.000584767
0.000938048
0.00150264
0.0023849
0.00376715
0.00600293
0.00952954
0.0151188
0.0240544
0.0370202
0.052096
0.0681321
0.0844196
0.100515
0.116135
0.131069
0.145183
0.158371
0.170494
0.181637
0.191982
0.201223
0.209157
0.215695
0.220782
0.224454
0.226885
0.228355
0.229177
0.229604
0.229815
0.229915
0.229962
0.229983
0.229993
0.229997
0.229999
0.229999
0.23
0.23
0.23
0.23
0.23
0.23
0.23
0.23
4.4958e-11
1.96538e-10
4.51757e-10
8.80244e-10
1.59641e-09
2.78612e-09
4.74726e-09
7.94964e-09
1.31203e-08
2.13596e-08
3.42888e-08
5.4221e-08
8.4327e-08
1.28752e-07
1.92612e-07
2.81756e-07
4.02262e-07
5.59693e-07
7.58277e-07
1.00026e-06
1.28559e-06
1.61204e-06
1.97561e-06
2.37102e-06
2.79221e-06
3.23276e-06
3.68632e-06
4.14649e-06
4.60737e-06
5.06364e-06
5.51052e-06
5.94402e-06
6.36118e-06
6.76055e-06
7.14294e-06
7.5125e-06
7.87824e-06
8.25601e-06
8.67091e-06
9.16026e-06
9.7777e-06
1.05995e-05
1.17353e-05
1.33472e-05
1.56832e-05
1.91357e-05
2.43357e-05
3.23932e-05
4.51087e-05
6.55457e-05
9.8786e-05
0.000153123
0.000241894
0.000386335
0.000620035
0.00099592
0.00159716
0.00253189
0.00400508
0.00638613
0.0101429
0.0161033
0.0256495
0.0390011
0.0543233
0.0705136
0.0868913
0.103029
0.118653
0.133551
0.147596
0.160676
0.172656
0.183696
0.193883
0.20284
0.210473
0.216699
0.221485
0.224901
0.22714
0.228488
0.22924
0.229633
0.229827
0.229921
0.229964
0.229984
0.229993
0.229997
0.229999
0.229999
0.23
0.23
0.23
0.23
0.23
0.23
0.23
0.23
4.49418e-11
1.96467e-10
4.5159e-10
8.79875e-10
1.59553e-09
2.78386e-09
4.74139e-09
7.93499e-09
1.30858e-08
2.1283e-08
3.41293e-08
5.39087e-08
8.37544e-08
1.27766e-07
1.91004e-07
2.79268e-07
3.98614e-07
5.54633e-07
7.51647e-07
9.92055e-07
1.27602e-06
1.60154e-06
1.96485e-06
2.36086e-06
2.78369e-06
3.22706e-06
3.68469e-06
4.15018e-06
4.6178e-06
5.08213e-06
5.53835e-06
5.98241e-06
6.41126e-06
6.82335e-06
7.21939e-06
7.60344e-06
7.98453e-06
8.37873e-06
8.81172e-06
9.32197e-06
9.96515e-06
1.08209e-05
1.20045e-05
1.3687e-05
1.61291e-05
1.97417e-05
2.52393e-05
3.37628e-05
4.72686e-05
6.90475e-05
0.000104555
0.000162679
0.000257694
0.000412292
0.000662321
0.00106416
0.00170621
0.00269828
0.00430945
0.00685584
0.0108837
0.0172848
0.0275547
0.0413502
0.0569422
0.0732869
0.089738
0.105889
0.121471
0.136283
0.150201
0.163109
0.174891
0.185795
0.19574
0.204423
0.21176
0.217684
0.222185
0.225355
0.227409
0.228634
0.229314
0.229668
0.229843
0.229928
0.229967
0.229985
0.229994
0.229997
0.229999
0.23
0.23
0.23
0.23
0.23
0.23
0.23
0.23
0.23
4.48085e-11
1.95876e-10
4.50201e-10
8.7707e-10
1.59018e-09
2.77388e-09
4.72299e-09
7.90123e-09
1.30243e-08
2.11725e-08
3.39339e-08
5.35707e-08
8.31856e-08
1.2684e-07
1.89549e-07
2.77079e-07
3.95473e-07
5.50351e-07
7.4612e-07
9.8532e-07
1.2683e-06
1.59326e-06
1.95664e-06
2.35354e-06
2.77825e-06
3.22469e-06
3.68639e-06
4.15735e-06
4.63175e-06
5.10418e-06
5.56981e-06
6.02453e-06
6.46525e-06
6.89035e-06
7.30045e-06
7.69959e-06
8.09687e-06
8.50862e-06
8.96121e-06
9.49441e-06
1.01662e-05
1.10599e-05
1.22969e-05
1.40561e-05
1.66121e-05
2.04324e-05
2.62445e-05
3.52941e-05
4.96906e-05
7.29813e-05
0.000111038
0.000173415
0.000275429
0.000441413
0.000709776
0.0011409
0.00182946
0.00289243
0.00462097
0.00734915
0.0116642
0.0185269
0.0295478
0.0437951
0.0596516
0.0761363
0.09264
0.108779
0.12429
0.138986
0.152748
0.16545
0.177028
0.1878
0.197486
0.205889
0.212935
0.21857
0.222803
0.22575
0.227639
0.228758
0.229376
0.229697
0.229857
0.229934
0.22997
0.229987
0.229994
0.229997
0.229999
0.23
0.23
0.23
0.23
0.23
0.23
0.23
0.23
0.23
4.4576e-11
1.94849e-10
4.47791e-10
8.72237e-10
1.58109e-09
2.75735e-09
4.69348e-09
7.84931e-09
1.29342e-08
2.10186e-08
3.36757e-08
5.31468e-08
8.25075e-08
1.25787e-07
1.87972e-07
2.74807e-07
3.92343e-07
5.46244e-07
7.41007e-07
9.79304e-07
1.26164e-06
1.58642e-06
1.95021e-06
2.34829e-06
2.77509e-06
3.22457e-06
3.69055e-06
4.16696e-06
4.64801e-06
5.12832e-06
5.60307e-06
6.06814e-06
6.52041e-06
6.95819e-06
7.38208e-06
7.79612e-06
8.20952e-06
8.63896e-06
9.11154e-06
9.66841e-06
1.03699e-05
1.13035e-05
1.25946e-05
1.44324e-05
1.71288e-05
2.11533e-05
2.73008e-05
3.69119e-05
5.22585e-05
7.71596e-05
0.000117927
0.000184807
0.000294206
0.000472148
0.000759666
0.0012212
0.00195604
0.00309065
0.00493518
0.00784382
0.0124424
0.0197577
0.0315023
0.0461771
0.0622753
0.0788789
0.0954159
0.111526
0.126951
0.14152
0.155117
0.167608
0.178989
0.189637
0.199069
0.207209
0.213987
0.219359
0.223352
0.226102
0.227846
0.228871
0.229434
0.229725
0.22987
0.22994
0.229973
0.229988
0.229995
0.229998
0.229999
0.23
0.23
0.23
0.23
0.23
0.23
0.23
0.23
0.23
4.43005e-11
1.93638e-10
4.44977e-10
8.66666e-10
1.57079e-09
2.73894e-09
4.66131e-09
7.79402e-09
1.28406e-08
2.08625e-08
3.34198e-08
5.27362e-08
8.18641e-08
1.24807e-07
1.86528e-07
2.72761e-07
3.89566e-07
5.42654e-07
7.36608e-07
9.74225e-07
1.25616e-06
1.58097e-06
1.94538e-06
2.34482e-06
2.77383e-06
3.22639e-06
3.69649e-06
4.1781e-06
4.66549e-06
5.15329e-06
5.63668e-06
6.11154e-06
6.57472e-06
7.02453e-06
7.46153e-06
7.88982e-06
8.31874e-06
8.76536e-06
9.25755e-06
9.83791e-06
1.05693e-05
1.1541e-05
1.28863e-05
1.48183e-05
1.76459e-05
2.1881e-05
2.83747e-05
3.8566e-05
5.48957e-05
8.14628e-05
0.00012503
0.000196555
0.000313557
0.000503784
0.000810941
0.00130358
0.00208483
0.00329147
0.0052522
0.00834057
0.0132188
0.0209746
0.0333736
0.0484254
0.0647294
0.0814263
0.0979796
0.11405
0.129384
0.143828
0.157264
0.169554
0.180792
0.191244
0.200459
0.208369
0.214909
0.220047
0.223828
0.226404
0.228023
0.228967
0.229483
0.229749
0.229881
0.229945
0.229975
0.229989
0.229995
0.229998
0.229999
0.23
0.23
0.23
0.23
0.23
0.23
0.23
0.23
0.23
4.40108e-11
1.92367e-10
4.42034e-10
8.60866e-10
1.56011e-09
2.72e-09
4.62846e-09
7.73803e-09
1.27467e-08
2.07076e-08
3.31693e-08
5.23393e-08
8.1251e-08
1.23887e-07
1.85195e-07
2.70901e-07
3.87083e-07
5.39501e-07
7.32819e-07
9.69947e-07
1.25167e-06
1.57667e-06
1.94183e-06
2.34266e-06
2.77382e-06
3.22945e-06
3.70352e-06
4.19007e-06
4.6834e-06
5.17818e-06
5.66959e-06
6.15353e-06
6.62682e-06
7.08777e-06
7.53696e-06
7.97853e-06
8.42201e-06
8.88486e-06
9.39576e-06
9.99878e-06
1.07575e-05
1.17668e-05
1.31756e-05
1.51918e-05
1.81508e-05
2.25972e-05
2.94393e-05
4.02163e-05
5.75405e-05
8.57953e-05
0.000132201
0.000208441
0.00033317
0.000535917
0.000863162
0.00138778
0.0022164
0.00349891
0.00558326
0.00886616
0.0140545
0.0223142
0.0351987
0.0505325
0.066987
0.0837454
0.100297
0.11632
0.131563
0.145885
0.159173
0.171287
0.182384
0.192658
0.201679
0.209384
0.215712
0.220644
0.224239
0.226664
0.228175
0.22905
0.229525
0.22977
0.229891
0.22995
0.229977
0.22999
0.229995
0.229998
0.229999
0.23
0.23
0.23
0.23
0.23
0.23
0.23
0.23
0.23
4.37293e-11
1.91134e-10
4.39185e-10
8.55273e-10
1.54987e-09
2.70193e-09
4.59731e-09
7.68534e-09
1.26591e-08
2.05643e-08
3.29394e-08
5.19786e-08
8.06992e-08
1.23068e-07
1.84018e-07
2.69276e-07
3.84939e-07
5.36812e-07
7.29637e-07
9.66423e-07
1.24808e-06
1.5734e-06
1.93939e-06
2.34166e-06
2.77492e-06
3.23342e-06
3.71118e-06
4.2023e-06
4.7011e-06
5.20227e-06
5.70101e-06
6.19321e-06
6.6757e-06
7.14679e-06
7.60707e-06
8.06076e-06
8.51758e-06
8.9954e-06
9.52371e-06
1.01468e-05
1.09318e-05
1.19841e-05
1.34468e-05
1.55446e-05
1.86314e-05
2.32837e-05
3.04666e-05
4.1818e-05
6.01193e-05
9.00337e-05
0.000139233
0.000220113
0.000352453
0.000567543
0.000914624
0.00147089
0.00234569
0.00370514
0.00591491
0.00939659
0.014905
0.0236917
0.0369288
0.0524675
0.0690278
0.0858227
0.102361
0.118327
0.133483
0.147694
0.160845
0.172804
0.183786
0.193898
0.202746
0.210267
0.216407
0.221157
0.22459
0.226885
0.228304
0.229119
0.229561
0.229788
0.2299
0.229953
0.229979
0.229991
0.229996
0.229998
0.229999
0.23
0.23
0.23
0.23
0.23
0.23
0.23
0.23
0.23
4.34673e-11
1.89988e-10
4.36542e-10
8.50095e-10
1.54041e-09
2.68529e-09
4.56876e-09
7.63723e-09
1.25794e-08
2.04348e-08
3.2733e-08
5.16569e-08
8.02107e-08
1.22348e-07
1.82993e-07
2.67875e-07
3.8311e-07
5.34546e-07
7.26995e-07
9.63558e-07
1.24524e-06
1.57095e-06
1.93778e-06
2.34144e-06
2.77671e-06
3.2379e-06
3.71907e-06
4.21436e-06
4.71811e-06
5.22505e-06
5.73037e-06
6.22997e-06
6.7207e-06
7.20083e-06
7.67102e-06
8.13554e-06
8.6043e-06
9.0956e-06
9.63891e-06
1.02806e-05
1.10949e-05
1.21818e-05
1.3695e-05
1.58695e-05
1.90766e-05
2.39235e-05
3.14291e-05
4.33256e-05
6.25552e-05
9.40467e-05
0.000145898
0.00023118
0.00037073
0.000597499
0.000963323
0.00154944
0.00246683
0.00389834
0.00622513
0.00989163
0.0156966
0.0249695
0.0384949
0.0541972
0.0708378
0.0876551
0.104174
0.120084
0.135159
0.149268
0.162293
0.17412
0.185013
0.19498
0.203673
0.211031
0.217006
0.221597
0.224889
0.227073
0.228412
0.229178
0.229591
0.229802
0.229907
0.229957
0.22998
0.229991
0.229996
0.229998
0.229999
0.23
0.23
0.23
0.23
0.23
0.23
0.23
0.23
0.23
4.32316e-11
1.88957e-10
4.34167e-10
8.45451e-10
1.53195e-09
2.67045e-09
4.54336e-09
7.59461e-09
1.25092e-08
2.03211e-08
3.25526e-08
5.13773e-08
7.97885e-08
1.2173e-07
1.82119e-07
2.6669e-07
3.81577e-07
5.3267e-07
7.24841e-07
9.61272e-07
1.24306e-06
1.5692e-06
1.93686e-06
2.34184e-06
2.77897e-06
3.24261e-06
3.72687e-06
4.2259e-06
4.73409e-06
5.24614e-06
5.75729e-06
6.26342e-06
6.76137e-06
7.24945e-06
7.7283e-06
8.2023e-06
8.68154e-06
9.18427e-06
9.74087e-06
1.04027e-05
1.12394e-05
1.23576e-05
1.39165e-05
1.61607e-05
1.94775e-05
2.45023e-05
3.23037e-05
4.47007e-05
6.47833e-05
9.77238e-05
0.000152011
0.000241333
0.000387499
0.000624984
0.00100801
0.00162153
0.00257735
0.00407253
0.00650317
0.0103334
0.0164002
0.0261012
0.0398754
0.0557155
0.0724209
0.0892528
0.105751
0.121608
0.136609
0.150626
0.163541
0.175254
0.186078
0.195916
0.204473
0.211688
0.217519
0.221971
0.225142
0.22723
0.228503
0.229228
0.229616
0.229815
0.229913
0.22996
0.229982
0.229992
0.229996
0.229998
0.229999
0.23
0.23
0.23
0.23
0.23
0.23
0.23
0.23
0.23
4.30246e-11
1.88052e-10
4.32085e-10
8.41385e-10
1.52456e-09
2.65751e-09
4.52127e-09
7.55763e-09
1.24484e-08
2.02231e-08
3.23978e-08
5.11384e-08
7.94296e-08
1.21207e-07
1.81385e-07
2.65702e-07
3.80311e-07
5.31137e-07
7.2311e-07
9.59479e-07
1.24142e-06
1.56801e-06
1.93648e-06
2.34267e-06
2.7815e-06
3.24734e-06
3.73434e-06
4.23669e-06
4.74877e-06
5.26531e-06
5.78154e-06
6.29334e-06
6.79754e-06
7.29246e-06
7.77875e-06
8.26087e-06
8.74895e-06
9.26127e-06
9.83194e-06
1.05084e-05
1.13646e-05
1.25101e-05
1.41091e-05
1.64144e-05
1.98278e-05
2.50096e-05
3.30724e-05
4.59122e-05
6.67496e-05
0.000100972
0.00015741
0.000250298
0.000402298
0.000649226
0.00104739
0.00168501
0.00267374
0.00422546
0.00674719
0.0107203
0.0170156
0.0270896
0.0410782
0.0570347
0.0737926
0.0906335
0.10711
0.122919
0.137854
0.15179
0.164606
0.176226
0.186997
0.196721
0.205158
0.212249
0.217955
0.222288
0.225355
0.227363
0.22858
0.229269
0.229638
0.229825
0.229918
0.229962
0.229983
0.229992
0.229997
0.229999
0.229999
0.23
0.23
0.23
0.23
0.23
0.23
0.23
0.23
0.23
4.28467e-11
1.87274e-10
4.30298e-10
8.37899e-10
1.51822e-09
2.64644e-09
4.50242e-09
7.52617e-09
1.23968e-08
2.01402e-08
3.22673e-08
5.09378e-08
7.91297e-08
1.20772e-07
1.80779e-07
2.64891e-07
3.7928e-07
5.29904e-07
7.21738e-07
9.58095e-07
1.24021e-06
1.56723e-06
1.93644e-06
2.34375e-06
2.78409e-06
3.25189e-06
3.74131e-06
4.24655e-06
4.762e-06
5.28242e-06
5.80301e-06
6.31966e-06
6.8292e-06
7.32991e-06
7.82249e-06
8.31139e-06
8.80656e-06
9.32891e-06
9.90944e-06
1.05983e-05
1.14709e-05
1.26395e-05
1.42726e-05
1.66298e-05
2.01253e-05
2.54406e-05
3.37257e-05
4.69415e-05
6.84184e-05
0.000103723
0.000161975
0.00025786
0.000414761
0.000669641
0.00108065
0.00173901
0.00275631
0.00435948
0.0069602
0.0110567
0.0175496
0.0279466
0.0421181
0.0581715
0.0749708
0.0918161
0.108271
0.124037
0.138914
0.152779
0.165508
0.177052
0.187781
0.197407
0.20574
0.212724
0.218323
0.222554
0.225533
0.227473
0.228643
0.229303
0.229655
0.229834
0.229922
0.229964
0.229984
0.229993
0.229997
0.229999
0.229999
0.23
0.23
0.23
0.23
0.23
0.23
0.23
0.23
0.23
4.26969e-11
1.8662e-10
4.28794e-10
8.34969e-10
1.51291e-09
2.63717e-09
4.48666e-09
7.49991e-09
1.23539e-08
2.00714e-08
3.21593e-08
5.07723e-08
7.88831e-08
1.20417e-07
1.80285e-07
2.64235e-07
3.78454e-07
5.28927e-07
7.20672e-07
9.5705e-07
1.23936e-06
1.56678e-06
1.93667e-06
2.34496e-06
2.78663e-06
3.25612e-06
3.74762e-06
4.25534e-06
4.77369e-06
5.29739e-06
5.82168e-06
6.34244e-06
6.85648e-06
7.36211e-06
7.86005e-06
8.35474e-06
8.85678e-06
9.38584e-06
9.97447e-06
1.06735e-05
1.15598e-05
1.27476e-05
1.44089e-05
1.68095e-05
2.03733e-05
2.57994e-05
3.42684e-05
4.77935e-05
6.97923e-05
0.00010597
0.000165661
0.000263876
0.000424478
0.000685125
0.00110493
0.00177638
0.00280937
0.00449258
0.0071502
0.0113477
0.0180078
0.0286812
0.0430057
0.0591381
0.0759695
0.0928158
0.10925
0.124978
0.139804
0.153609
0.166265
0.177742
0.188441
0.197983
0.206229
0.213122
0.218629
0.222775
0.225681
0.227563
0.228695
0.229331
0.229669
0.229841
0.229925
0.229965
0.229984
0.229993
0.229997
0.229999
0.229999
0.23
0.23
0.23
0.23
0.23
0.23
0.23
0.23
0.23
4.25735e-11
1.86081e-10
4.27556e-10
8.32559e-10
1.50854e-09
2.62956e-09
4.47374e-09
7.47843e-09
1.23189e-08
2.00154e-08
3.20716e-08
5.06384e-08
7.86844e-08
1.20131e-07
1.79891e-07
2.63715e-07
3.77804e-07
5.28169e-07
7.19859e-07
9.56279e-07
1.23877e-06
1.56656e-06
1.93705e-06
2.34619e-06
2.789e-06
3.25993e-06
3.75319e-06
4.26299e-06
4.78375e-06
5.31019e-06
5.83754e-06
6.36167e-06
6.87938e-06
7.38897e-06
7.89112e-06
8.39023e-06
8.89767e-06
9.4326e-06
1.0028e-05
1.07356e-05
1.16332e-05
1.2837e-05
1.4522e-05
1.69588e-05
2.05801e-05
2.60998e-05
3.47246e-05
4.85132e-05
7.09588e-05
0.00010789
0.000168836
0.000269114
0.000433073
0.000699138
0.00112766
0.00181313
0.00286793
0.00458896
0.00730209
0.0115866
0.0183866
0.0292884
0.0437402
0.0599384
0.0767962
0.093643
0.11006
0.125755
0.14054
0.154293
0.166888
0.178313
0.188987
0.198459
0.206631
0.213449
0.218881
0.222956
0.225801
0.227637
0.228737
0.229353
0.229681
0.229846
0.229928
0.229967
0.229985
0.229993
0.229997
0.229999
0.229999
0.23
0.23
0.23
0.23
0.23
0.23
0.23
0.23
0.23
4.24745e-11
1.85649e-10
4.26564e-10
8.30629e-10
1.50505e-09
2.62348e-09
4.46343e-09
7.46131e-09
1.2291e-08
1.99709e-08
3.20021e-08
5.05327e-08
7.85279e-08
1.19908e-07
1.79583e-07
2.63311e-07
3.77304e-07
5.27592e-07
7.19253e-07
9.55724e-07
1.23838e-06
1.5665e-06
1.93749e-06
2.34735e-06
2.79111e-06
3.26323e-06
3.75793e-06
4.26944e-06
4.79216e-06
5.32084e-06
5.85068e-06
6.37754e-06
6.89823e-06
7.41104e-06
7.91667e-06
8.41982e-06
8.93117e-06
9.47063e-06
1.00715e-05
1.07859e-05
1.16928e-05
1.29097e-05
1.46142e-05
1.70811e-05
2.075e-05
2.63477e-05
3.51028e-05
4.91121e-05
7.1933e-05
0.000109499
0.000171504
0.000273528
0.00044033
0.00071098
0.00114684
0.00184397
0.00291648
0.004666
0.00742365
0.0117783
0.0186909
0.0297761
0.0443306
0.0605822
0.0774618
0.0943093
0.110713
0.126382
0.141132
0.154845
0.167389
0.178773
0.189426
0.198841
0.206954
0.213711
0.219082
0.223101
0.225897
0.227696
0.22877
0.229371
0.22969
0.229851
0.22993
0.229968
0.229985
0.229993
0.229997
0.229999
0.229999
0.23
0.23
0.23
0.23
0.23
0.23
0.23
0.23
0.23
4.2398e-11
1.85315e-10
4.25798e-10
8.29138e-10
1.50235e-09
2.61879e-09
4.45549e-09
7.44815e-09
1.22696e-08
1.99368e-08
3.1949e-08
5.0452e-08
7.84088e-08
1.19738e-07
1.79351e-07
2.63008e-07
3.76932e-07
5.27166e-07
7.18814e-07
9.55337e-07
1.23814e-06
1.56653e-06
1.93793e-06
2.34836e-06
2.79288e-06
3.26594e-06
3.76179e-06
4.27465e-06
4.79892e-06
5.32934e-06
5.86112e-06
6.39011e-06
6.91311e-06
7.42839e-06
7.93665e-06
8.44278e-06
8.95733e-06
9.50038e-06
1.01055e-05
1.08254e-05
1.17395e-05
1.29668e-05
1.46868e-05
1.71775e-05
2.08845e-05
2.65442e-05
3.54031e-05
4.95882e-05
7.2708e-05
0.000110778
0.000173623
0.000277028
0.00044607
0.000720314
0.00116189
0.00186803
0.00295413
0.00472572
0.00751785
0.011927
0.0189269
0.030154
0.0447884
0.0610817
0.0779785
0.0948269
0.11122
0.126869
0.141594
0.155275
0.167781
0.179136
0.189759
0.199133
0.207202
0.213913
0.219237
0.223212
0.225971
0.227742
0.228796
0.229385
0.229697
0.229854
0.229932
0.229968
0.229986
0.229994
0.229997
0.229999
0.229999
0.23
0.23
0.23
0.23
0.23
0.23
0.23
0.23
0.23
4.23423e-11
1.85072e-10
4.2524e-10
8.28054e-10
1.50039e-09
2.61539e-09
4.44973e-09
7.4386e-09
1.22541e-08
1.99121e-08
3.19106e-08
5.03938e-08
7.83231e-08
1.19616e-07
1.79184e-07
2.62793e-07
3.76668e-07
5.26869e-07
7.18511e-07
9.5508e-07
1.238e-06
1.56659e-06
1.9383e-06
2.34917e-06
2.79425e-06
3.26803e-06
3.76473e-06
4.27858e-06
4.80401e-06
5.33573e-06
5.86895e-06
6.39953e-06
6.92425e-06
7.4414e-06
7.95172e-06
8.45989e-06
8.9767e-06
9.52236e-06
1.01306e-05
1.08545e-05
1.1774e-05
1.3009e-05
1.47405e-05
1.72489e-05
2.09841e-05
2.669e-05
3.5626e-05
4.99416e-05
7.32828e-05
0.000111726
0.000175192
0.000279615
0.000450303
0.000727182
0.00117294
0.00188567
0.00298169
0.00476938
0.00758667
0.0120355
0.019099
0.0304303
0.0451233
0.0614473
0.0783568
0.0952059
0.111592
0.127226
0.141932
0.15559
0.168068
0.179403
0.189999
0.199344
0.207382
0.214059
0.21935
0.223293
0.226024
0.227774
0.228815
0.229396
0.229702
0.229857
0.229933
0.229969
0.229986
0.229994
0.229997
0.229999
0.229999
0.23
0.23
0.23
0.23
0.23
0.23
0.23
0.23
0.23
4.23061e-11
1.84914e-10
4.24877e-10
8.27348e-10
1.49911e-09
2.61317e-09
4.44599e-09
7.43241e-09
1.2244e-08
1.98961e-08
3.18858e-08
5.03562e-08
7.8268e-08
1.19538e-07
1.79078e-07
2.62655e-07
3.76501e-07
5.26681e-07
7.18323e-07
9.54924e-07
1.23792e-06
1.56665e-06
1.93857e-06
2.34973e-06
2.79519e-06
3.26943e-06
3.76669e-06
4.28121e-06
4.80739e-06
5.33996e-06
5.87413e-06
6.40574e-06
6.93159e-06
7.44995e-06
7.96157e-06
8.47112e-06
8.98945e-06
9.53682e-06
1.01472e-05
1.08736e-05
1.17967e-05
1.30368e-05
1.47758e-05
1.7296e-05
2.10498e-05
2.67862e-05
3.5773e-05
5.01747e-05
7.3662e-05
0.000112351
0.000176225
0.000281317
0.000453086
0.000731695
0.00118019
0.00189725
0.00299977
0.00479803
0.00763185
0.0121068
0.0192122
0.0306114
0.0453427
0.0616867
0.0786044
0.0954541
0.111835
0.12746
0.142153
0.155797
0.168256
0.179577
0.190156
0.199481
0.207498
0.214153
0.219422
0.223345
0.226059
0.227796
0.228827
0.229402
0.229706
0.229859
0.229934
0.229969
0.229986
0.229994
0.229997
0.229999
0.229999
0.23
0.23
0.23
0.23
0.23
0.23
0.23
0.23
0.23
4.22884e-11
1.84837e-10
4.24701e-10
8.27007e-10
1.4985e-09
2.61211e-09
4.44419e-09
7.42945e-09
1.22392e-08
1.98885e-08
3.18741e-08
5.03384e-08
7.82419e-08
1.19501e-07
1.79028e-07
2.6259e-07
3.76423e-07
5.26593e-07
7.18236e-07
9.54853e-07
1.23789e-06
1.56668e-06
1.93871e-06
2.35001e-06
2.79564e-06
3.27011e-06
3.76765e-06
4.28249e-06
4.80904e-06
5.34203e-06
5.87666e-06
6.40878e-06
6.93518e-06
7.45414e-06
7.96638e-06
8.4766e-06
8.99567e-06
9.54389e-06
1.01552e-05
1.0883e-05
1.18078e-05
1.30504e-05
1.47932e-05
1.73191e-05
2.10821e-05
2.68334e-05
3.58453e-05
5.02893e-05
7.38485e-05
0.000112658
0.000176734
0.000282154
0.000454455
0.000733915
0.00118376
0.00190294
0.00300867
0.00481212
0.00765408
0.0121419
0.0192679
0.0307004
0.0454504
0.0618041
0.0787259
0.0955757
0.111954
0.127574
0.142261
0.155897
0.168347
0.179662
0.190232
0.199548
0.207554
0.214198
0.219457
0.223369
0.226075
0.227806
0.228833
0.229405
0.229707
0.229859
0.229934
0.229969
0.229986
0.229994
0.229997
0.229999
0.229999
0.23
0.23
0.23
0.23
0.23
0.23
0.23
0.23
0.23
4.22883e-11
1.84836e-10
4.247e-10
8.27005e-10
1.4985e-09
2.6121e-09
4.44418e-09
7.42944e-09
1.22392e-08
1.98885e-08
3.1874e-08
5.03384e-08
7.82418e-08
1.19501e-07
1.79028e-07
2.6259e-07
3.76422e-07
5.26593e-07
7.18235e-07
9.54852e-07
1.23789e-06
1.56668e-06
1.93871e-06
2.35001e-06
2.79564e-06
3.27011e-06
3.76765e-06
4.28249e-06
4.80904e-06
5.34203e-06
5.87666e-06
6.40878e-06
6.93518e-06
7.45414e-06
7.96638e-06
8.4766e-06
8.99567e-06
9.54389e-06
1.01552e-05
1.0883e-05
1.18078e-05
1.30504e-05
1.47932e-05
1.73191e-05
2.10821e-05
2.68334e-05
3.58453e-05
5.02893e-05
7.38485e-05
0.000112658
0.000176734
0.000282154
0.000454455
0.000733915
0.00118376
0.00190294
0.00300867
0.00481212
0.00765408
0.0121419
0.0192679
0.0307004
0.0454504
0.0618041
0.0787259
0.0955757
0.111954
0.127574
0.142261
0.155897
0.168347
0.179662
0.190232
0.199548
0.207554
0.214198
0.219457
0.223369
0.226075
0.227806
0.228833
0.229405
0.229707
0.229859
0.229934
0.229969
0.229986
0.229994
0.229997
0.229999
0.229999
0.23
0.23
0.23
0.23
0.23
0.23
0.23
0.23
0.23
4.23058e-11
1.84913e-10
4.24875e-10
8.27344e-10
1.49911e-09
2.61316e-09
4.44596e-09
7.43238e-09
1.2244e-08
1.98961e-08
3.18857e-08
5.0356e-08
7.82677e-08
1.19537e-07
1.79077e-07
2.62654e-07
3.765e-07
5.2668e-07
7.18322e-07
9.54922e-07
1.23792e-06
1.56665e-06
1.93857e-06
2.34973e-06
2.79518e-06
3.26942e-06
3.76669e-06
4.28121e-06
4.80738e-06
5.33996e-06
5.87412e-06
6.40574e-06
6.93158e-06
7.44994e-06
7.96157e-06
8.47112e-06
8.98945e-06
9.53682e-06
1.01472e-05
1.08736e-05
1.17967e-05
1.30368e-05
1.47758e-05
1.7296e-05
2.10498e-05
2.67862e-05
3.5773e-05
5.01747e-05
7.36619e-05
0.000112351
0.000176225
0.000281316
0.000453086
0.000731695
0.00118019
0.00189725
0.00299978
0.00479803
0.00763186
0.0121068
0.0192122
0.0306114
0.0453427
0.0616867
0.0786045
0.0954542
0.111835
0.12746
0.142153
0.155797
0.168256
0.179577
0.190156
0.199481
0.207498
0.214153
0.219422
0.223345
0.226059
0.227796
0.228827
0.229402
0.229706
0.229859
0.229934
0.229969
0.229986
0.229994
0.229997
0.229999
0.229999
0.23
0.23
0.23
0.23
0.23
0.23
0.23
0.23
0.23
4.23419e-11
1.8507e-10
4.25236e-10
8.28046e-10
1.50038e-09
2.61536e-09
4.44969e-09
7.43854e-09
1.2254e-08
1.9912e-08
3.19104e-08
5.03934e-08
7.83227e-08
1.19615e-07
1.79183e-07
2.62791e-07
3.76667e-07
5.26867e-07
7.18509e-07
9.55077e-07
1.238e-06
1.56658e-06
1.9383e-06
2.34917e-06
2.79425e-06
3.26802e-06
3.76472e-06
4.27858e-06
4.804e-06
5.33572e-06
5.86894e-06
6.39952e-06
6.92424e-06
7.44139e-06
7.95171e-06
8.45988e-06
8.9767e-06
9.52235e-06
1.01306e-05
1.08545e-05
1.1774e-05
1.3009e-05
1.47404e-05
1.72489e-05
2.09841e-05
2.669e-05
3.56259e-05
4.99415e-05
7.32828e-05
0.000111726
0.000175192
0.000279614
0.000450303
0.000727182
0.00117294
0.00188567
0.00298169
0.00476938
0.00758668
0.0120355
0.019099
0.0304303
0.0451234
0.0614474
0.0783569
0.095206
0.111592
0.127226
0.141932
0.15559
0.168068
0.179403
0.19
0.199344
0.207382
0.214059
0.21935
0.223293
0.226024
0.227774
0.228815
0.229396
0.229702
0.229857
0.229933
0.229969
0.229986
0.229994
0.229997
0.229999
0.229999
0.23
0.23
0.23
0.23
0.23
0.23
0.23
0.23
0.23
4.23975e-11
1.85313e-10
4.25793e-10
8.29128e-10
1.50233e-09
2.61876e-09
4.45544e-09
7.44807e-09
1.22694e-08
1.99366e-08
3.19487e-08
5.04515e-08
7.84082e-08
1.19737e-07
1.79349e-07
2.63007e-07
3.7693e-07
5.27164e-07
7.1881e-07
9.55333e-07
1.23814e-06
1.56652e-06
1.93792e-06
2.34836e-06
2.79287e-06
3.26593e-06
3.76178e-06
4.27464e-06
4.79891e-06
5.32933e-06
5.86111e-06
6.3901e-06
6.9131e-06
7.42838e-06
7.93664e-06
8.44278e-06
8.95732e-06
9.50037e-06
1.01055e-05
1.08254e-05
1.17395e-05
1.29668e-05
1.46868e-05
1.71775e-05
2.08844e-05
2.65442e-05
3.54031e-05
4.95881e-05
7.27079e-05
0.000110778
0.000173623
0.000277028
0.00044607
0.000720313
0.00116189
0.00186803
0.00295414
0.00472572
0.00751786
0.011927
0.018927
0.0301541
0.0447885
0.0610818
0.0779786
0.094827
0.11122
0.126869
0.141594
0.155275
0.167781
0.179136
0.189759
0.199133
0.207202
0.213913
0.219237
0.223212
0.225971
0.227742
0.228796
0.229385
0.229697
0.229854
0.229932
0.229968
0.229986
0.229994
0.229997
0.229999
0.229999
0.23
0.23
0.23
0.23
0.23
0.23
0.23
0.23
0.23
4.24738e-11
1.85646e-10
4.26557e-10
8.30615e-10
1.50502e-09
2.62344e-09
4.46336e-09
7.4612e-09
1.22908e-08
1.99706e-08
3.20017e-08
5.05321e-08
7.8527e-08
1.19906e-07
1.79581e-07
2.63309e-07
3.77302e-07
5.27588e-07
7.19248e-07
9.55719e-07
1.23838e-06
1.56649e-06
1.93748e-06
2.34734e-06
2.7911e-06
3.26322e-06
3.75792e-06
4.26943e-06
4.79215e-06
5.32082e-06
5.85066e-06
6.37752e-06
6.89821e-06
7.41102e-06
7.91665e-06
8.41981e-06
8.93116e-06
9.47062e-06
1.00715e-05
1.07859e-05
1.16928e-05
1.29097e-05
1.46142e-05
1.7081e-05
2.075e-05
2.63476e-05
3.51027e-05
4.9112e-05
7.19329e-05
0.000109498
0.000171503
0.000273528
0.000440329
0.00071098
0.00114684
0.00184397
0.00291648
0.00466601
0.00742366
0.0117784
0.018691
0.0297762
0.0443307
0.0605824
0.077462
0.0943095
0.110713
0.126382
0.141132
0.154845
0.167389
0.178773
0.189426
0.198841
0.206954
0.213711
0.219082
0.223101
0.225897
0.227696
0.22877
0.229371
0.22969
0.229851
0.22993
0.229968
0.229985
0.229993
0.229997
0.229999
0.229999
0.23
0.23
0.23
0.23
0.23
0.23
0.23
0.23
0.23
4.25726e-11
1.86077e-10
4.27548e-10
8.32543e-10
1.50851e-09
2.62951e-09
4.47366e-09
7.4783e-09
1.23186e-08
2.0015e-08
3.20711e-08
5.06377e-08
7.86833e-08
1.2013e-07
1.79889e-07
2.63712e-07
3.77801e-07
5.28164e-07
7.19854e-07
9.56273e-07
1.23876e-06
1.56656e-06
1.93704e-06
2.34618e-06
2.78899e-06
3.25992e-06
3.75317e-06
4.26298e-06
4.78373e-06
5.31017e-06
5.83753e-06
6.36165e-06
6.87936e-06
7.38895e-06
7.8911e-06
8.39021e-06
8.89765e-06
9.43258e-06
1.0028e-05
1.07356e-05
1.16332e-05
1.2837e-05
1.4522e-05
1.69588e-05
2.058e-05
2.60997e-05
3.47245e-05
4.8513e-05
7.09586e-05
0.00010789
0.000168835
0.000269113
0.000433072
0.000699138
0.00112766
0.00181313
0.00286793
0.00458896
0.00730211
0.0115866
0.0183866
0.0292886
0.0437404
0.0599386
0.0767964
0.0936432
0.110061
0.125755
0.14054
0.154294
0.166888
0.178313
0.188987
0.198459
0.206631
0.213449
0.218881
0.222956
0.225801
0.227637
0.228737
0.229353
0.229681
0.229846
0.229928
0.229967
0.229985
0.229993
0.229997
0.229999
0.229999
0.23
0.23
0.23
0.23
0.23
0.23
0.23
0.23
0.23
4.26958e-11
1.86616e-10
4.28784e-10
8.34949e-10
1.51287e-09
2.63711e-09
4.48656e-09
7.49975e-09
1.23536e-08
2.0071e-08
3.21587e-08
5.07715e-08
7.88819e-08
1.20415e-07
1.80283e-07
2.64232e-07
3.7845e-07
5.28922e-07
7.20666e-07
9.57042e-07
1.23935e-06
1.56677e-06
1.93666e-06
2.34494e-06
2.78662e-06
3.25611e-06
3.7476e-06
4.25532e-06
4.77366e-06
5.29737e-06
5.82166e-06
6.34241e-06
6.85646e-06
7.36209e-06
7.86003e-06
8.35471e-06
8.85676e-06
9.38582e-06
9.97445e-06
1.06735e-05
1.15598e-05
1.27476e-05
1.44089e-05
1.68095e-05
2.03732e-05
2.57993e-05
3.42683e-05
4.77934e-05
6.97921e-05
0.00010597
0.000165661
0.000263875
0.000424477
0.000685124
0.00110493
0.00177638
0.00280938
0.00449259
0.00715022
0.0113477
0.0180079
0.0286814
0.0430059
0.0591384
0.0759698
0.0928161
0.109251
0.124978
0.139805
0.153609
0.166265
0.177743
0.188441
0.197983
0.206229
0.213122
0.218629
0.222775
0.225681
0.227563
0.228695
0.229331
0.229669
0.229841
0.229925
0.229965
0.229984
0.229993
0.229997
0.229999
0.229999
0.23
0.23
0.23
0.23
0.23
0.23
0.23
0.23
0.23
4.28454e-11
1.87269e-10
4.30286e-10
8.37876e-10
1.51818e-09
2.64637e-09
4.50231e-09
7.52599e-09
1.23965e-08
2.01398e-08
3.22666e-08
5.09368e-08
7.91282e-08
1.2077e-07
1.80776e-07
2.64887e-07
3.79275e-07
5.29897e-07
7.21731e-07
9.58085e-07
1.2402e-06
1.56722e-06
1.93643e-06
2.34373e-06
2.78407e-06
3.25187e-06
3.74128e-06
4.24652e-06
4.76198e-06
5.28239e-06
5.80298e-06
6.31963e-06
6.82917e-06
7.32989e-06
7.82246e-06
8.31136e-06
8.80653e-06
9.32888e-06
9.90942e-06
1.05983e-05
1.14709e-05
1.26395e-05
1.42725e-05
1.66298e-05
2.01252e-05
2.54405e-05
3.37255e-05
4.69413e-05
6.84182e-05
0.000103723
0.000161974
0.000257859
0.000414761
0.000669641
0.00108065
0.00173901
0.00275632
0.0043595
0.00696023
0.0110568
0.0175497
0.0279468
0.0421183
0.0581718
0.0749711
0.0918164
0.108271
0.124037
0.138914
0.152779
0.165508
0.177052
0.187781
0.197407
0.205741
0.212725
0.218323
0.222554
0.225533
0.227473
0.228643
0.229303
0.229655
0.229834
0.229922
0.229964
0.229984
0.229993
0.229997
0.229999
0.229999
0.23
0.23
0.23
0.23
0.23
0.23
0.23
0.23
0.23
4.30232e-11
1.88046e-10
4.32071e-10
8.41359e-10
1.52451e-09
2.65743e-09
4.52113e-09
7.55742e-09
1.2448e-08
2.02226e-08
3.2397e-08
5.11372e-08
7.94279e-08
1.21205e-07
1.81382e-07
2.65697e-07
3.80305e-07
5.3113e-07
7.23101e-07
9.59468e-07
1.24141e-06
1.56799e-06
1.93646e-06
2.34265e-06
2.78148e-06
3.24731e-06
3.73432e-06