/*--------------------------------*- C++ -*----------------------------------*\
  =========                 |
  \\      /  F ield         | OpenFOAM: The Open Source CFD Toolbox
   \\    /   O peration     | Website:  https://openfoam.org
    \\  /    A nd           | Version:  8
     \\/     M anipulation  |
\*---------------------------------------------------------------------------*/
FoamFile
{
    version     2.0;
    format      ascii;
    class       surfaceScalarField;
    location    "0.4/fluid";
    object      phi;
}
// * * * * * * * * * * * * * * * * * * * * * * * * * * * * * * * * * * * * * //

dimensions      [1 0 -1 0 0 0 0];

internalField   nonuniform List<scalar> 
7860
(
6.57189e-07
-1.77679e-08
6.54343e-07
-5.34628e-08
6.50247e-07
-8.90108e-08
6.44833e-07
-1.24244e-07
6.37984e-07
-1.59163e-07
6.29547e-07
-1.93724e-07
6.1934e-07
-2.27842e-07
6.07167e-07
-2.61393e-07
5.92825e-07
-2.9421e-07
5.76132e-07
-3.26075e-07
5.56965e-07
-3.56715e-07
5.3534e-07
-3.85785e-07
5.11301e-07
-4.12826e-07
4.84971e-07
-4.37276e-07
4.56576e-07
-4.58489e-07
4.26462e-07
-4.75809e-07
3.95079e-07
-4.88696e-07
3.62946e-07
-4.96867e-07
3.30593e-07
-5.00418e-07
2.98498e-07
-4.99841e-07
2.67042e-07
-4.95917e-07
2.3649e-07
-4.89548e-07
2.07002e-07
-4.81585e-07
1.78655e-07
-4.72717e-07
1.51481e-07
-4.63439e-07
1.25518e-07
-4.54059e-07
1.00745e-07
-4.44733e-07
7.71072e-08
-4.35526e-07
5.45364e-08
-4.26445e-07
3.2965e-08
-4.17463e-07
1.23435e-08
-4.0855e-07
-7.3716e-09
-3.99677e-07
-2.62164e-08
-3.90825e-07
-4.42221e-08
-3.81985e-07
-6.14168e-08
-3.73159e-07
-7.78217e-08
-3.64335e-07
-9.3455e-08
-3.55473e-07
-1.08334e-07
-3.46587e-07
-1.22478e-07
-3.37696e-07
-1.35902e-07
-3.28821e-07
-1.48625e-07
-3.19988e-07
-1.60666e-07
-3.11221e-07
-1.72043e-07
-3.02547e-07
-1.82774e-07
-2.93993e-07
-1.92879e-07
-2.85586e-07
-2.02377e-07
-2.7735e-07
-2.11287e-07
-2.69314e-07
-2.19629e-07
-2.615e-07
-2.27423e-07
-2.53935e-07
-2.34687e-07
-2.46644e-07
-2.41443e-07
-2.3965e-07
-2.4771e-07
-2.32984e-07
-2.53514e-07
-2.26674e-07
-2.58879e-07
-2.20758e-07
-2.63838e-07
-2.15281e-07
-2.68432e-07
-2.103e-07
-2.72717e-07
-2.05892e-07
-2.76764e-07
-2.02196e-07
-2.80669e-07
-1.99331e-07
-2.84568e-07
-1.97461e-07
-2.88672e-07
-1.96975e-07
-2.93299e-07
-1.98401e-07
-2.98797e-07
-2.02669e-07
-3.05368e-07
-2.10739e-07
-3.12978e-07
-2.21525e-07
-3.2159e-07
-2.34503e-07
-3.31225e-07
-2.4947e-07
-3.41967e-07
-2.66416e-07
-3.53954e-07
-2.85469e-07
-3.67393e-07
-3.06865e-07
-3.8257e-07
-3.30944e-07
-3.99872e-07
-3.58133e-07
-4.19813e-07
-3.88944e-07
-4.43047e-07
-4.2406e-07
-4.70355e-07
-4.6411e-07
-5.02551e-07
-5.09226e-07
-5.40172e-07
-5.5845e-07
-5.83399e-07
-6.08915e-07
-6.32096e-07
-6.55227e-07
-6.85389e-07
-6.90336e-07
-7.41407e-07
-7.08552e-07
-7.9757e-07
-7.0865e-07
-8.51449e-07
-6.93731e-07
-9.01403e-07
-6.68407e-07
-9.46669e-07
-6.36669e-07
-9.87045e-07
-6.01159e-07
-1.02259e-06
-5.6337e-07
-1.05342e-06
-5.24113e-07
-1.07962e-06
-4.83839e-07
-1.10166e-06
-4.4276e-07
-1.12007e-06
-4.01111e-07
-1.13531e-06
-3.59093e-07
-1.1478e-06
-3.16864e-07
-1.15792e-06
-2.74545e-07
-1.16601e-06
-2.32218e-07
-1.17234e-06
-1.89927e-07
-1.17715e-06
-1.47686e-07
-1.18061e-06
-1.05479e-07
-1.18287e-06
-6.32559e-08
-2.10855e-08
6.57966e-07
-1.72004e-08
6.55836e-07
-5.13324e-08
6.52025e-07
-8.52004e-08
6.46561e-07
-1.18779e-07
6.39393e-07
-1.51995e-07
6.30436e-07
-1.84767e-07
6.19586e-07
-2.16992e-07
6.06738e-07
-2.48544e-07
5.91794e-07
-2.79266e-07
5.74683e-07
-3.08964e-07
5.55375e-07
-3.37407e-07
5.33909e-07
-3.64319e-07
5.1036e-07
-3.89278e-07
4.84866e-07
-4.11781e-07
4.57637e-07
-4.3126e-07
4.28972e-07
-4.47144e-07
3.99239e-07
-4.58963e-07
3.68855e-07
-4.66483e-07
3.38241e-07
-4.69803e-07
3.07773e-07
-4.69373e-07
2.77759e-07
-4.65902e-07
2.48416e-07
-4.60205e-07
2.19883e-07
-4.53052e-07
1.92234e-07
-4.45068e-07
1.65502e-07
-4.36707e-07
1.39715e-07
-4.28272e-07
1.14877e-07
-4.19896e-07
9.09777e-08
-4.11627e-07
6.79869e-08
-4.03455e-07
4.58838e-08
-3.9536e-07
2.46513e-08
-3.87317e-07
4.27258e-09
-3.79298e-07
-1.52705e-08
-3.71282e-07
-3.39928e-08
-3.63263e-07
-5.19117e-08
-3.55241e-07
-6.904e-08
-3.47207e-07
-8.53903e-08
-3.39123e-07
-1.00977e-07
-3.31e-07
-1.15815e-07
-3.22857e-07
-1.29922e-07
-3.14715e-07
-1.43313e-07
-3.06596e-07
-1.56008e-07
-2.98526e-07
-1.68026e-07
-2.9053e-07
-1.79387e-07
-2.82633e-07
-1.90111e-07
-2.74862e-07
-2.00219e-07
-2.67242e-07
-2.09735e-07
-2.59798e-07
-2.1868e-07
-2.52555e-07
-2.27078e-07
-2.45537e-07
-2.34953e-07
-2.38768e-07
-2.42332e-07
-2.32272e-07
-2.49242e-07
-2.26074e-07
-2.55716e-07
-2.202e-07
-2.61791e-07
-2.14683e-07
-2.67512e-07
-2.09559e-07
-2.72936e-07
-2.04876e-07
-2.78133e-07
-2.00695e-07
-2.83182e-07
-1.97146e-07
-2.88208e-07
-1.94305e-07
-2.93345e-07
-1.92324e-07
-2.98764e-07
-1.91556e-07
-3.04612e-07
-1.92553e-07
-3.10979e-07
-1.96302e-07
-3.18179e-07
-2.03539e-07
-3.26366e-07
-2.13338e-07
-3.35621e-07
-2.25249e-07
-3.46015e-07
-2.39076e-07
-3.57645e-07
-2.54786e-07
-3.70643e-07
-2.7247e-07
-3.85187e-07
-2.92321e-07
-4.01505e-07
-3.14626e-07
-4.19884e-07
-3.39754e-07
-4.40664e-07
-3.68164e-07
-4.64227e-07
-4.00497e-07
-4.91026e-07
-4.3731e-07
-5.21558e-07
-4.78695e-07
-5.56243e-07
-5.23765e-07
-5.95397e-07
-5.69761e-07
-6.39106e-07
-6.11518e-07
-6.86799e-07
-6.42643e-07
-7.36992e-07
-6.58359e-07
-7.87635e-07
-6.58007e-07
-8.36833e-07
-6.44533e-07
-8.83277e-07
-6.21963e-07
-9.26287e-07
-5.93659e-07
-9.65598e-07
-5.61847e-07
-1.00117e-06
-5.27801e-07
-1.03302e-06
-4.92258e-07
-1.06117e-06
-4.55689e-07
-1.08575e-06
-4.18179e-07
-1.10696e-06
-3.79904e-07
-1.12502e-06
-3.41029e-07
-1.14019e-06
-3.01696e-07
-1.15272e-06
-2.62019e-07
-1.16285e-06
-2.22091e-07
-1.17079e-06
-1.8198e-07
-1.17675e-06
-1.41733e-07
-1.18084e-06
-1.01382e-07
-1.18315e-06
-6.09528e-08
-2.04103e-08
6.57573e-07
-1.62395e-08
6.54827e-07
-4.85867e-08
6.50315e-07
-8.06881e-08
6.43999e-07
-1.12464e-07
6.35845e-07
-1.43841e-07
6.25811e-07
-1.74733e-07
6.13863e-07
-2.05044e-07
5.99977e-07
-2.34658e-07
5.84149e-07
-2.63438e-07
5.66398e-07
-2.91214e-07
5.46759e-07
-3.17768e-07
5.2526e-07
-3.4282e-07
5.01991e-07
-3.66008e-07
4.77098e-07
-3.86888e-07
4.50796e-07
-4.04958e-07
4.23358e-07
-4.19706e-07
3.95109e-07
-4.30714e-07
3.66397e-07
-4.37771e-07
3.37561e-07
-4.40968e-07
3.08898e-07
-4.4071e-07
2.8064e-07
-4.37645e-07
2.52952e-07
-4.32517e-07
2.25937e-07
-4.26036e-07
1.9965e-07
-4.18781e-07
1.7411e-07
-4.11168e-07
1.49298e-07
-4.0346e-07
1.25206e-07
-3.95804e-07
1.01826e-07
-3.88247e-07
7.91627e-08
-3.80792e-07
5.72266e-08
-3.73424e-07
3.60209e-08
-3.66111e-07
1.55481e-08
-3.58825e-07
-4.19082e-09
-3.51543e-07
-2.31994e-08
-3.44254e-07
-4.14813e-08
-3.36959e-07
-5.90392e-08
-3.29649e-07
-7.58771e-08
-3.22285e-07
-9.2002e-08
-3.14875e-07
-1.07423e-07
-3.07436e-07
-1.22152e-07
-2.99986e-07
-1.36201e-07
-2.92547e-07
-1.49586e-07
-2.85141e-07
-1.62323e-07
-2.77793e-07
-1.74431e-07
-2.70525e-07
-1.8593e-07
-2.63363e-07
-1.96842e-07
-2.5633e-07
-2.0719e-07
-2.49449e-07
-2.17001e-07
-2.42745e-07
-2.26301e-07
-2.36238e-07
-2.3512e-07
-2.29949e-07
-2.43492e-07
-2.239e-07
-2.51452e-07
-2.18113e-07
-2.59043e-07
-2.12609e-07
-2.66311e-07
-2.07415e-07
-2.73309e-07
-2.02561e-07
-2.80099e-07
-1.98086e-07
-2.86752e-07
-1.94041e-07
-2.93341e-07
-1.90558e-07
-2.9998e-07
-1.87666e-07
-3.06738e-07
-1.85566e-07
-3.13703e-07
-1.84592e-07
-3.20948e-07
-1.85308e-07
-3.28455e-07
-1.88795e-07
-3.36566e-07
-1.95428e-07
-3.45499e-07
-2.04405e-07
-3.55407e-07
-2.15341e-07
-3.66414e-07
-2.28069e-07
-3.78636e-07
-2.42564e-07
-3.92196e-07
-2.58911e-07
-4.07224e-07
-2.77293e-07
-4.23863e-07
-2.97986e-07
-4.42267e-07
-3.21351e-07
-4.62577e-07
-3.47854e-07
-4.84933e-07
-3.78141e-07
-5.09529e-07
-4.12715e-07
-5.36672e-07
-4.51552e-07
-5.66916e-07
-4.93521e-07
-6.00981e-07
-5.35696e-07
-6.39384e-07
-5.73116e-07
-6.81977e-07
-6.0005e-07
-7.27611e-07
-6.12724e-07
-7.74453e-07
-6.11166e-07
-8.20703e-07
-5.98282e-07
-8.65052e-07
-5.77615e-07
-9.06733e-07
-5.51978e-07
-9.45375e-07
-5.23205e-07
-9.80843e-07
-4.92333e-07
-1.01315e-06
-4.5995e-07
-1.04244e-06
-4.26406e-07
-1.06869e-06
-3.9192e-07
-1.09196e-06
-3.56643e-07
-1.11229e-06
-3.20697e-07
-1.1298e-06
-2.84188e-07
-1.14461e-06
-2.47208e-07
-1.15686e-06
-2.09839e-07
-1.16668e-06
-1.72154e-07
-1.17421e-06
-1.3421e-07
-1.17953e-06
-9.60603e-08
-1.18273e-06
-5.77525e-08
-1.93188e-08
6.57623e-07
-1.5329e-08
6.54854e-07
-4.58179e-08
6.50221e-07
-7.60545e-08
6.43722e-07
-1.05965e-07
6.3535e-07
-1.3547e-07
6.25099e-07
-1.64482e-07
6.12964e-07
-1.92908e-07
5.98946e-07
-2.20639e-07
5.83055e-07
-2.47547e-07
5.65317e-07
-2.73476e-07
5.45778e-07
-2.98228e-07
5.24507e-07
-3.21549e-07
5.01613e-07
-3.43114e-07
4.7725e-07
-3.62526e-07
4.5162e-07
-3.79328e-07
4.24973e-07
-3.93058e-07
3.97595e-07
-4.03337e-07
3.69794e-07
-4.0997e-07
3.41862e-07
-4.13037e-07
3.1406e-07
-4.12908e-07
2.86591e-07
-4.10175e-07
2.59601e-07
-4.05527e-07
2.33183e-07
-3.99619e-07
2.07394e-07
-3.92991e-07
1.82257e-07
-3.86031e-07
1.57784e-07
-3.78986e-07
1.3397e-07
-3.7199e-07
1.10813e-07
-3.65089e-07
8.83148e-08
-3.58294e-07
6.64754e-08
-3.51584e-07
4.52948e-08
-3.44931e-07
2.4774e-08
-3.38304e-07
4.91387e-09
-3.31683e-07
-1.4286e-08
-3.25054e-07
-3.28272e-08
-3.18418e-07
-5.07098e-08
-3.11766e-07
-6.79345e-08
-3.05061e-07
-8.45049e-08
-2.98305e-07
-1.00427e-07
-2.91514e-07
-1.15708e-07
-2.84705e-07
-1.3036e-07
-2.77896e-07
-1.44394e-07
-2.71107e-07
-1.57825e-07
-2.64361e-07
-1.70671e-07
-2.57679e-07
-1.82951e-07
-2.51082e-07
-1.94687e-07
-2.44594e-07
-2.05902e-07
-2.38234e-07
-2.16622e-07
-2.32024e-07
-2.26878e-07
-2.25982e-07
-2.367e-07
-2.20127e-07
-2.46124e-07
-2.14476e-07
-2.55188e-07
-2.09049e-07
-2.63935e-07
-2.03863e-07
-2.72411e-07
-1.98939e-07
-2.80667e-07
-1.94305e-07
-2.8876e-07
-1.89993e-07
-2.96747e-07
-1.86054e-07
-3.04688e-07
-1.82617e-07
-3.12672e-07
-1.79682e-07
-3.2074e-07
-1.77498e-07
-3.28942e-07
-1.7639e-07
-3.37307e-07
-1.76943e-07
-3.45785e-07
-1.80317e-07
-3.54721e-07
-1.86492e-07
-3.64342e-07
-1.94783e-07
-3.74818e-07
-2.04865e-07
-3.86284e-07
-2.16603e-07
-3.98859e-07
-2.29989e-07
-4.12654e-07
-2.45116e-07
-4.2778e-07
-2.62168e-07
-4.44351e-07
-2.81415e-07
-4.6249e-07
-3.03212e-07
-4.82317e-07
-3.28027e-07
-5.03988e-07
-3.5647e-07
-5.27748e-07
-3.88955e-07
-5.53978e-07
-4.25322e-07
-5.83204e-07
-4.64295e-07
-6.16016e-07
-5.02884e-07
-6.52782e-07
-5.3635e-07
-6.93224e-07
-5.59608e-07
-7.36236e-07
-5.69712e-07
-7.80249e-07
-5.67153e-07
-8.23796e-07
-5.54735e-07
-8.65816e-07
-5.35595e-07
-9.05655e-07
-5.12139e-07
-9.42951e-07
-4.85909e-07
-9.77516e-07
-4.57769e-07
-1.00927e-06
-4.28196e-07
-1.0382e-06
-3.97472e-07
-1.06434e-06
-3.6578e-07
-1.08773e-06
-3.33255e-07
-1.10842e-06
-3.0001e-07
-1.12646e-06
-2.66144e-07
-1.14193e-06
-2.31744e-07
-1.15487e-06
-1.96891e-07
-1.16537e-06
-1.61657e-07
-1.17347e-06
-1.26107e-07
-1.17923e-06
-9.03029e-08
-1.18268e-06
-5.43088e-08
-1.81726e-08
6.57555e-07
-1.43499e-08
6.54647e-07
-4.29098e-08
6.49824e-07
-7.12315e-08
6.43092e-07
-9.92337e-08
6.34461e-07
-1.26838e-07
6.23941e-07
-1.53962e-07
6.11548e-07
-1.80516e-07
5.97307e-07
-2.06398e-07
5.81252e-07
-2.31492e-07
5.63432e-07
-2.55657e-07
5.43914e-07
-2.78711e-07
5.22789e-07
-3.00424e-07
5.00176e-07
-3.20501e-07
4.76231e-07
-3.3858e-07
4.51147e-07
-3.54244e-07
4.25159e-07
-3.6707e-07
3.98528e-07
-3.76705e-07
3.71525e-07
-3.82967e-07
3.44412e-07
-3.85924e-07
3.17415e-07
-3.8591e-07
2.90711e-07
-3.83471e-07
2.64427e-07
-3.79243e-07
2.38644e-07
-3.73836e-07
2.13408e-07
-3.67756e-07
1.88744e-07
-3.61366e-07
1.64662e-07
-3.54904e-07
1.41159e-07
-3.48487e-07
1.18241e-07
-3.42171e-07
9.59085e-08
-3.35962e-07
7.41641e-08
-3.2984e-07
5.30099e-08
-3.23777e-07
3.24488e-08
-3.17743e-07
1.2483e-08
-3.11717e-07
-6.88555e-09
-3.05686e-07
-2.56553e-08
-2.99648e-07
-4.38274e-08
-2.93594e-07
-6.14002e-08
-2.87488e-07
-7.83752e-08
-2.8133e-07
-9.47563e-08
-2.75133e-07
-1.1055e-07
-2.68912e-07
-1.25764e-07
-2.62682e-07
-1.40409e-07
-2.56462e-07
-1.545e-07
-2.50271e-07
-1.68051e-07
-2.44128e-07
-1.81081e-07
-2.38053e-07
-1.93609e-07
-2.32066e-07
-2.05659e-07
-2.26184e-07
-2.17257e-07
-2.20426e-07
-2.2843e-07
-2.14809e-07
-2.39209e-07
-2.09348e-07
-2.49628e-07
-2.04058e-07
-2.59722e-07
-1.98955e-07
-2.69529e-07
-1.94055e-07
-2.79093e-07
-1.89376e-07
-2.88455e-07
-1.84942e-07
-2.97664e-07
-1.80785e-07
-3.06763e-07
-1.76955e-07
-3.15806e-07
-1.73573e-07
-3.24842e-07
-1.70646e-07
-3.33913e-07
-1.68427e-07
-3.43052e-07
-1.6725e-07
-3.52276e-07
-1.67718e-07
-3.6155e-07
-1.71043e-07
-3.71199e-07
-1.76843e-07
-3.8144e-07
-1.84542e-07
-3.92437e-07
-1.93868e-07
-4.04322e-07
-2.04719e-07
-4.17209e-07
-2.17102e-07
-4.31203e-07
-2.31122e-07
-4.46402e-07
-2.46968e-07
-4.6291e-07
-2.64908e-07
-4.80833e-07
-2.85289e-07
-5.00271e-07
-3.08589e-07
-5.21371e-07
-3.3537e-07
-5.44365e-07
-3.65961e-07
-5.69604e-07
-4.00084e-07
-5.97569e-07
-4.3633e-07
-6.28793e-07
-4.71659e-07
-6.63608e-07
-5.01535e-07
-7.01763e-07
-5.21453e-07
-7.42292e-07
-5.29183e-07
-7.83835e-07
-5.2561e-07
-8.25124e-07
-5.13447e-07
-8.65229e-07
-4.9549e-07
-9.03556e-07
-4.73812e-07
-9.39756e-07
-4.49709e-07
-9.73626e-07
-4.23899e-07
-1.00504e-06
-3.96779e-07
-1.03393e-06
-3.6858e-07
-1.06026e-06
-3.39454e-07
-1.084e-06
-3.09514e-07
-1.10516e-06
-2.78855e-07
-1.12374e-06
-2.47561e-07
-1.13977e-06
-2.15712e-07
-1.15328e-06
-1.83383e-07
-1.16429e-06
-1.50645e-07
-1.17283e-06
-1.17564e-07
-1.17893e-06
-8.42078e-08
-1.18259e-06
-5.06458e-08
-1.69435e-08
6.57557e-07
-1.33734e-08
6.54632e-07
-3.99851e-08
6.49772e-07
-6.63713e-08
6.42993e-07
-9.24547e-08
6.34314e-07
-1.18159e-07
6.23758e-07
-1.43406e-07
6.11353e-07
-1.6811e-07
5.97134e-07
-1.92179e-07
5.81145e-07
-2.15503e-07
5.63443e-07
-2.37954e-07
5.44099e-07
-2.59367e-07
5.23206e-07
-2.79531e-07
5.00884e-07
-2.98178e-07
4.77282e-07
-3.14978e-07
4.52587e-07
-3.29549e-07
4.2702e-07
-3.41504e-07
4.00831e-07
-3.50516e-07
3.74277e-07
-3.56413e-07
3.47607e-07
-3.59254e-07
3.21038e-07
-3.59341e-07
2.94739e-07
-3.57173e-07
2.68832e-07
-3.53336e-07
2.43394e-07
-3.48398e-07
2.18469e-07
-3.4283e-07
1.94077e-07
-3.36974e-07
1.70223e-07
-3.31051e-07
1.46911e-07
-3.25174e-07
1.24138e-07
-3.19398e-07
1.01903e-07
-3.13728e-07
8.02079e-08
-3.08144e-07
5.90521e-08
-3.02621e-07
3.8438e-08
-2.97129e-07
1.83681e-08
-2.91647e-07
-1.15602e-09
-2.86162e-07
-2.01377e-08
-2.80666e-07
-3.85724e-08
-2.7516e-07
-5.64586e-08
-2.69602e-07
-7.37972e-08
-2.63991e-07
-9.0591e-08
-2.58339e-07
-1.06845e-07
-2.52658e-07
-1.22566e-07
-2.46961e-07
-1.37763e-07
-2.41265e-07
-1.52448e-07
-2.35586e-07
-1.66635e-07
-2.29941e-07
-1.80339e-07
-2.24349e-07
-1.9358e-07
-2.18825e-07
-2.06378e-07
-2.13386e-07
-2.18756e-07
-2.08048e-07
-2.3074e-07
-2.02825e-07
-2.42356e-07
-1.97731e-07
-2.53635e-07
-1.92779e-07
-2.64607e-07
-1.87983e-07
-2.75306e-07
-1.83356e-07
-2.85766e-07
-1.78916e-07
-2.96023e-07
-1.74685e-07
-3.06113e-07
-1.70694e-07
-3.1607e-07
-1.66999e-07
-3.25938e-07
-1.63705e-07
-3.3575e-07
-1.60834e-07
-3.45542e-07
-1.58635e-07
-3.55346e-07
-1.57446e-07
-3.65185e-07
-1.5788e-07
-3.75066e-07
-1.61161e-07
-3.85283e-07
-1.66626e-07
-3.96033e-07
-1.73792e-07
-4.07464e-07
-1.82437e-07
-4.19699e-07
-1.92484e-07
-4.32845e-07
-2.03956e-07
-4.47001e-07
-2.16966e-07
-4.62265e-07
-2.31705e-07
-4.78735e-07
-2.48437e-07
-4.96523e-07
-2.67502e-07
-5.15738e-07
-2.89374e-07
-5.36553e-07
-3.14555e-07
-5.59228e-07
-3.43287e-07
-5.84137e-07
-3.75174e-07
-6.11761e-07
-4.08707e-07
-6.42579e-07
-4.40841e-07
-6.76802e-07
-4.67313e-07
-7.14046e-07
-4.84209e-07
-7.53303e-07
-4.89926e-07
-7.93306e-07
-4.85607e-07
-8.32941e-07
-4.73812e-07
-8.71419e-07
-4.57012e-07
-9.08244e-07
-4.36987e-07
-9.4312e-07
-4.14834e-07
-9.75868e-07
-3.91152e-07
-1.00637e-06
-3.66274e-07
-1.03456e-06
-3.40394e-07
-1.06037e-06
-3.1364e-07
-1.08378e-06
-2.8611e-07
-1.10475e-06
-2.57887e-07
-1.12326e-06
-2.29046e-07
-1.13931e-06
-1.99659e-07
-1.1529e-06
-1.69796e-07
-1.16402e-06
-1.39525e-07
-1.17267e-06
-1.08912e-07
-1.17886e-06
-7.80219e-08
-1.18258e-06
-4.69282e-08
-1.56998e-08
6.57548e-07
-1.2388e-08
6.54606e-07
-3.70428e-08
6.49724e-07
-6.14889e-08
6.42921e-07
-8.56518e-08
6.34221e-07
-1.0946e-07
6.23655e-07
-1.32839e-07
6.11255e-07
-1.55711e-07
5.97066e-07
-1.7799e-07
5.81139e-07
-1.99576e-07
5.63536e-07
-2.20351e-07
5.44335e-07
-2.40166e-07
5.23633e-07
-2.58829e-07
5.0155e-07
-2.76095e-07
4.78234e-07
-2.91663e-07
4.53867e-07
-3.05183e-07
4.28661e-07
-3.16297e-07
4.0285e-07
-3.24704e-07
3.76679e-07
-3.30243e-07
3.50383e-07
-3.32958e-07
3.24167e-07
-3.33125e-07
2.98195e-07
-3.312e-07
2.72582e-07
-3.27723e-07
2.47404e-07
-3.2322e-07
2.22704e-07
-3.1813e-07
1.98504e-07
-3.12774e-07
1.74805e-07
-3.07352e-07
1.51611e-07
-3.01981e-07
1.28921e-07
-2.96708e-07
1.0673e-07
-2.91537e-07
8.50389e-08
-2.86453e-07
6.38462e-08
-2.81428e-07
4.31532e-08
-2.76436e-07
2.29612e-08
-2.71455e-07
3.27115e-09
-2.66472e-07
-1.59152e-08
-2.6148e-07
-3.45987e-08
-2.56476e-07
-5.27772e-08
-2.51423e-07
-7.04504e-08
-2.46318e-07
-8.76201e-08
-2.4117e-07
-1.0429e-07
-2.35988e-07
-1.20465e-07
-2.30785e-07
-1.36154e-07
-2.25576e-07
-1.51366e-07
-2.20374e-07
-1.66113e-07
-2.15194e-07
-1.80409e-07
-2.10053e-07
-1.9427e-07
-2.04964e-07
-2.07714e-07
-1.99942e-07
-2.20761e-07
-1.95001e-07
-2.33433e-07
-1.90153e-07
-2.45753e-07
-1.85411e-07
-2.57746e-07
-1.80786e-07
-2.69439e-07
-1.7629e-07
-2.80858e-07
-1.71937e-07
-2.92032e-07
-1.67742e-07
-3.02989e-07
-1.63728e-07
-3.13758e-07
-1.59925e-07
-3.24363e-07
-1.56394e-07
-3.34841e-07
-1.53226e-07
-3.45218e-07
-1.50456e-07
-3.55522e-07
-1.48332e-07
-3.65783e-07
-1.47186e-07
-3.7603e-07
-1.47633e-07
-3.86373e-07
-1.50818e-07
-3.9705e-07
-1.5595e-07
-4.08227e-07
-1.62615e-07
-4.20038e-07
-1.70626e-07
-4.32597e-07
-1.79925e-07
-4.46005e-07
-1.90548e-07
-4.6036e-07
-2.02611e-07
-4.7576e-07
-2.16305e-07
-4.9231e-07
-2.31887e-07
-5.10128e-07
-2.49684e-07
-5.29341e-07
-2.70161e-07
-5.50137e-07
-2.93758e-07
-5.72788e-07
-3.20636e-07
-5.97653e-07
-3.50309e-07
-6.25161e-07
-3.81199e-07
-6.55689e-07
-4.10313e-07
-6.8932e-07
-4.33682e-07
-7.25601e-07
-4.47927e-07
-7.63577e-07
-4.5195e-07
-8.02123e-07
-4.47062e-07
-8.40278e-07
-4.35657e-07
-8.77364e-07
-4.19926e-07
-9.12941e-07
-4.0141e-07
-9.46739e-07
-3.81036e-07
-9.7858e-07
-3.59311e-07
-1.00834e-06
-3.36512e-07
-1.03593e-06
-3.12802e-07
-1.06129e-06
-2.88287e-07
-1.08435e-06
-2.63051e-07
-1.10507e-06
-2.37165e-07
-1.12342e-06
-2.10695e-07
-1.13937e-06
-1.83706e-07
-1.15291e-06
-1.56262e-07
-1.16401e-06
-1.28427e-07
-1.17266e-06
-1.00261e-07
-1.17885e-06
-7.18299e-08
-1.18257e-06
-4.32036e-08
-1.44526e-08
6.57553e-07
-1.14072e-08
6.5462e-07
-3.41102e-08
6.49753e-07
-5.66214e-08
6.42973e-07
-7.88715e-08
6.34306e-07
-1.00794e-07
6.23787e-07
-1.2232e-07
6.11453e-07
-1.43377e-07
5.97351e-07
-1.63887e-07
5.81534e-07
-1.83759e-07
5.64069e-07
-2.02886e-07
5.45033e-07
-2.2113e-07
5.24522e-07
-2.38319e-07
5.02655e-07
-2.54228e-07
4.79576e-07
-2.68584e-07
4.5546e-07
-2.81066e-07
4.30511e-07
-2.91348e-07
4.04957e-07
-2.99151e-07
3.79036e-07
-3.04322e-07
3.52977e-07
-3.06899e-07
3.2698e-07
-3.07129e-07
3.01207e-07
-3.05427e-07
2.75773e-07
-3.02289e-07
2.50753e-07
-2.982e-07
2.26189e-07
-2.93566e-07
2.02099e-07
-2.88683e-07
1.78489e-07
-2.83742e-07
1.55358e-07
-2.7885e-07
1.32703e-07
-2.74052e-07
1.10518e-07
-2.69352e-07
8.88009e-08
-2.64736e-07
6.75501e-08
-2.60177e-07
4.67653e-08
-2.55651e-07
2.64472e-08
-2.51137e-07
6.59666e-09
-2.46621e-07
-1.27859e-08
-2.42097e-07
-3.17005e-08
-2.37561e-07
-5.01451e-08
-2.32979e-07
-6.8119e-08
-2.28344e-07
-8.5623e-08
-2.23666e-07
-1.0266e-07
-2.18951e-07
-1.19233e-07
-2.14212e-07
-1.35349e-07
-2.0946e-07
-1.51015e-07
-2.04707e-07
-1.66242e-07
-1.99967e-07
-1.81041e-07
-1.95254e-07
-1.95425e-07
-1.90579e-07
-2.09411e-07
-1.85957e-07
-2.23014e-07
-1.81398e-07
-2.36252e-07
-1.76915e-07
-2.49146e-07
-1.72517e-07
-2.61715e-07
-1.68217e-07
-2.73982e-07
-1.64024e-07
-2.85969e-07
-1.59951e-07
-2.97698e-07
-1.56013e-07
-3.09193e-07
-1.52233e-07
-3.20477e-07
-1.48641e-07
-3.31568e-07
-1.45302e-07
-3.42501e-07
-1.42294e-07
-3.53296e-07
-1.39662e-07
-3.63977e-07
-1.3765e-07
-3.74572e-07
-1.36591e-07
-3.851e-07
-1.37105e-07
-3.95781e-07
-1.40138e-07
-4.06808e-07
-1.44923e-07
-4.18326e-07
-1.51098e-07
-4.30452e-07
-1.585e-07
-4.43292e-07
-1.67085e-07
-4.56943e-07
-1.76896e-07
-4.71503e-07
-1.88052e-07
-4.87072e-07
-2.00735e-07
-5.03764e-07
-2.15195e-07
-5.21704e-07
-2.31744e-07
-5.41039e-07
-2.50826e-07
-5.61976e-07
-2.72821e-07
-5.84796e-07
-2.97816e-07
-6.09851e-07
-3.25254e-07
-6.37524e-07
-3.53527e-07
-6.68099e-07
-3.79738e-07
-7.0154e-07
-4.00241e-07
-7.37306e-07
-4.12161e-07
-7.74448e-07
-4.14808e-07
-8.11935e-07
-4.09576e-07
-8.48919e-07
-3.98672e-07
-8.84817e-07
-3.84028e-07
-9.19254e-07
-3.66973e-07
-9.51995e-07
-3.48295e-07
-9.82882e-07
-3.28423e-07
-1.0118e-06
-3.07591e-07
-1.03867e-06
-2.85937e-07
-1.0634e-06
-2.63551e-07
-1.08595e-06
-2.40505e-07
-1.10625e-06
-2.16861e-07
-1.12427e-06
-1.92679e-07
-1.13996e-06
-1.68015e-07
-1.15329e-06
-1.42929e-07
-1.16424e-06
-1.17477e-07
-1.17279e-06
-9.17174e-08
-1.17891e-06
-6.57103e-08
-1.18259e-06
-3.95222e-08
-1.32207e-08
6.57557e-07
-1.04306e-08
6.54638e-07
-3.1191e-08
6.49794e-07
-5.17771e-08
6.43047e-07
-7.21248e-08
6.34426e-07
-9.21731e-08
6.23966e-07
-1.11859e-07
6.11706e-07
-1.31117e-07
5.97693e-07
-1.49875e-07
5.81985e-07
-1.68051e-07
5.64648e-07
-1.85548e-07
5.45759e-07
-2.02241e-07
5.25414e-07
-2.17974e-07
5.0373e-07
-2.32544e-07
4.80847e-07
-2.45701e-07
4.56937e-07
-2.57156e-07
4.32197e-07
-2.66608e-07
4.06849e-07
-2.73802e-07
3.81123e-07
-2.78596e-07
3.55244e-07
-2.8102e-07
3.29409e-07
-2.81294e-07
3.03777e-07
-2.79795e-07
2.78465e-07
-2.76977e-07
2.53546e-07
-2.73282e-07
2.29064e-07
-2.69084e-07
2.05036e-07
-2.64655e-07
1.81469e-07
-2.60175e-07
1.5836e-07
-2.55742e-07
1.35705e-07
-2.51396e-07
1.13496e-07
-2.47144e-07
9.17305e-08
-2.4297e-07
7.04053e-08
-2.38852e-07
4.95195e-08
-2.34765e-07
2.9073e-08
-2.30691e-07
9.06622e-09
-2.26614e-07
-1.05007e-08
-2.2253e-07
-2.96278e-08
-2.18434e-07
-4.83128e-08
-2.14294e-07
-6.65543e-08
-2.10103e-07
-8.43523e-08
-2.05868e-07
-1.01708e-07
-2.01596e-07
-1.18624e-07
-1.97296e-07
-1.35105e-07
-1.92979e-07
-1.51158e-07
-1.88655e-07
-1.66789e-07
-1.84336e-07
-1.82008e-07
-1.80034e-07
-1.96826e-07
-1.75761e-07
-2.11256e-07
-1.71527e-07
-2.25312e-07
-1.67343e-07
-2.39007e-07
-1.63219e-07
-2.52359e-07
-1.59166e-07
-2.65383e-07
-1.55192e-07
-2.78099e-07
-1.51308e-07
-2.90524e-07
-1.47525e-07
-3.02678e-07
-1.4386e-07
-3.14579e-07
-1.40332e-07
-3.26248e-07
-1.36973e-07
-3.37699e-07
-1.33851e-07
-3.48966e-07
-1.31027e-07
-3.60068e-07
-1.2856e-07
-3.71031e-07
-1.26686e-07
-3.81883e-07
-1.2574e-07
-3.92649e-07
-1.26338e-07
-4.03595e-07
-1.29192e-07
-4.14897e-07
-1.33621e-07
-4.26687e-07
-1.39308e-07
-4.39075e-07
-1.46112e-07
-4.5216e-07
-1.53999e-07
-4.6604e-07
-1.63017e-07
-4.80811e-07
-1.73281e-07
-4.96581e-07
-1.84966e-07
-5.13469e-07
-1.98307e-07
-5.3161e-07
-2.13603e-07
-5.5117e-07
-2.31266e-07
-5.72368e-07
-2.51623e-07
-5.95486e-07
-2.74698e-07
-6.20855e-07
-2.99885e-07
-6.48797e-07
-3.25585e-07
-6.79495e-07
-3.4904e-07
-7.12799e-07
-3.66938e-07
-7.4811e-07
-3.76851e-07
-7.84513e-07
-3.78405e-07
-8.21074e-07
-3.73014e-07
-8.57052e-07
-3.62695e-07
-8.91937e-07
-3.49143e-07
-9.25402e-07
-3.33508e-07
-9.57236e-07
-3.16461e-07
-9.87293e-07
-2.98366e-07
-1.01547e-06
-2.7942e-07
-1.04166e-06
-2.59739e-07
-1.06581e-06
-2.39401e-07
-1.08785e-06
-2.18469e-07
-1.10772e-06
-1.96995e-07
-1.12536e-06
-1.75032e-07
-1.14075e-06
-1.52632e-07
-1.15383e-06
-1.29845e-07
-1.16458e-06
-1.06725e-07
-1.17298e-06
-8.33231e-08
-1.17899e-06
-5.96955e-08
-1.18261e-06
-3.59033e-08
-1.20096e-08
6.57564e-07
-9.46036e-09
6.54663e-07
-2.82903e-08
6.49849e-07
-4.6963e-08
6.43144e-07
-6.54203e-08
6.34578e-07
-8.3607e-08
6.24185e-07
-1.01466e-07
6.12006e-07
-1.18938e-07
5.98089e-07
-1.35958e-07
5.82491e-07
-1.52453e-07
5.65276e-07
-1.68333e-07
5.46523e-07
-1.83488e-07
5.26325e-07
-1.97777e-07
5.04797e-07
-2.11016e-07
4.82077e-07
-2.22981e-07
4.5833e-07
-2.33409e-07
4.3375e-07
-2.42028e-07
4.08553e-07
-2.48606e-07
3.82967e-07
-2.5301e-07
3.57211e-07
-2.55264e-07
3.31483e-07
-2.55566e-07
3.05941e-07
-2.54254e-07
2.80702e-07
-2.51737e-07
2.55841e-07
-2.4842e-07
2.31401e-07
-2.44643e-07
2.074e-07
-2.40655e-07
1.83845e-07
-2.3662e-07
1.60732e-07
-2.32628e-07
1.38054e-07
-2.28718e-07
1.15804e-07
-2.24895e-07
9.39785e-08
-2.21144e-07
7.25725e-08
-2.17446e-07
5.15845e-08
-2.13777e-07
3.1014e-08
-2.1012e-07
1.0861e-08
-2.06461e-07
-8.87427e-09
-2.02795e-07
-2.81918e-08
-1.99117e-07
-4.70892e-08
-1.95396e-07
-6.55644e-08
-1.91628e-07
-8.36163e-08
-1.87816e-07
-1.01245e-07
-1.83967e-07
-1.18452e-07
-1.80089e-07
-1.35241e-07
-1.7619e-07
-1.51615e-07
-1.72281e-07
-1.67581e-07
-1.68371e-07
-1.83146e-07
-1.6447e-07
-1.98318e-07
-1.60589e-07
-2.13107e-07
-1.56737e-07
-2.27525e-07
-1.52925e-07
-2.41583e-07
-1.49161e-07
-2.55295e-07
-1.45454e-07
-2.68674e-07
-1.41812e-07
-2.81736e-07
-1.38246e-07
-2.94495e-07
-1.34766e-07
-3.06968e-07
-1.31387e-07
-3.19171e-07
-1.28129e-07
-3.31122e-07
-1.25022e-07
-3.42836e-07
-1.22137e-07
-3.54342e-07
-1.1952e-07
-3.65663e-07
-1.17239e-07
-3.7683e-07
-1.1552e-07
-3.87873e-07
-1.14696e-07
-3.98849e-07
-1.15361e-07
-4.10018e-07
-1.18023e-07
-4.21547e-07
-1.22092e-07
-4.33564e-07
-1.27291e-07
-4.46176e-07
-1.335e-07
-4.5948e-07
-1.40695e-07
-4.73573e-07
-1.48925e-07
-4.88554e-07
-1.58299e-07
-5.04535e-07
-1.68984e-07
-5.21644e-07
-1.81198e-07
-5.40025e-07
-1.95222e-07
-5.59857e-07
-2.11434e-07
-5.81372e-07
-2.30108e-07
-6.0485e-07
-2.51219e-07
-6.30597e-07
-2.74139e-07
-6.58877e-07
-2.97306e-07
-6.89779e-07
-3.18138e-07
-7.23055e-07
-3.33662e-07
-7.58054e-07
-3.41852e-07
-7.93891e-07
-3.42568e-07
-8.2971e-07
-3.37195e-07
-8.64854e-07
-3.27552e-07
-8.98876e-07
-3.15121e-07
-9.31491e-07
-3.00893e-07
-9.62512e-07
-2.85441e-07
-9.91807e-07
-2.69071e-07
-1.01927e-06
-2.51952e-07
-1.04483e-06
-2.34183e-07
-1.0684e-06
-2.15831e-07
-1.08992e-06
-1.96948e-07
-1.10934e-06
-1.77582e-07
-1.12659e-06
-1.57778e-07
-1.14164e-06
-1.37582e-07
-1.15445e-06
-1.17039e-07
-1.16498e-06
-9.61961e-08
-1.1732e-06
-7.51012e-08
-1.17909e-06
-5.38034e-08
-1.18264e-06
-3.23584e-08
-1.08234e-08
6.5757e-07
-8.49635e-09
6.54687e-07
-2.5408e-08
6.49904e-07
-4.21792e-08
6.43241e-07
-5.87579e-08
6.34729e-07
-7.50946e-08
6.24401e-07
-9.11384e-08
6.12299e-07
-1.06836e-07
5.9847e-07
-1.22129e-07
5.8297e-07
-1.36952e-07
5.65864e-07
-1.51227e-07
5.47229e-07
-1.64853e-07
5.27157e-07
-1.77705e-07
5.0576e-07
-1.89619e-07
4.83172e-07
-2.00393e-07
4.59557e-07
-2.09793e-07
4.35103e-07
-2.17574e-07
4.10023e-07
-2.23526e-07
3.84541e-07
-2.27528e-07
3.58875e-07
-2.29598e-07
3.33221e-07
-2.29912e-07
3.07738e-07
-2.2877e-07
2.82542e-07
-2.26542e-07
2.57711e-07
-2.23589e-07
2.33288e-07
-2.2022e-07
2.09292e-07
-2.1666e-07
1.85729e-07
-2.13057e-07
1.62595e-07
-2.09494e-07
1.39881e-07
-2.06005e-07
1.17582e-07
-2.02595e-07
9.56902e-08
-1.99253e-07
7.42021e-08
-1.95958e-07
5.31151e-08
-1.92691e-07
3.24285e-08
-1.89434e-07
1.2142e-08
-1.86175e-07
-7.74406e-09
-1.82909e-07
-2.72296e-08
-1.79631e-07
-4.63119e-08
-1.76314e-07
-6.49881e-08
-1.72951e-07
-8.32563e-08
-1.69548e-07
-1.01116e-07
-1.66108e-07
-1.18567e-07
-1.62638e-07
-1.35611e-07
-1.59146e-07
-1.52251e-07
-1.55641e-07
-1.68491e-07
-1.52131e-07
-1.84336e-07
-1.48625e-07
-1.99793e-07
-1.45132e-07
-2.1487e-07
-1.41661e-07
-2.29575e-07
-1.3822e-07
-2.43919e-07
-1.34817e-07
-2.57912e-07
-1.31461e-07
-2.71564e-07
-1.28159e-07
-2.8489e-07
-1.24921e-07
-2.97901e-07
-1.21755e-07
-3.10612e-07
-1.18677e-07
-3.23037e-07
-1.15704e-07
-3.35192e-07
-1.12866e-07
-3.47095e-07
-1.10235e-07
-3.58772e-07
-1.07843e-07
-3.70248e-07
-1.05763e-07
-3.8156e-07
-1.04208e-07
-3.92748e-07
-1.03508e-07
-4.03898e-07
-1.04211e-07
-4.15253e-07
-1.06668e-07
-4.26977e-07
-1.10368e-07
-4.39192e-07
-1.15076e-07
-4.52002e-07
-1.2069e-07
-4.65505e-07
-1.27192e-07
-4.79798e-07
-1.34632e-07
-4.94985e-07
-1.43112e-07
-5.11183e-07
-1.52787e-07
-5.28524e-07
-1.63857e-07
-5.47163e-07
-1.76583e-07
-5.67293e-07
-1.91304e-07
-5.89151e-07
-2.08251e-07
-6.13012e-07
-2.27359e-07
-6.39154e-07
-2.47997e-07
-6.67782e-07
-2.68678e-07
-6.98899e-07
-2.87021e-07
-7.32171e-07
-3.00391e-07
-7.66913e-07
-3.0711e-07
-8.02273e-07
-3.07208e-07
-8.37467e-07
-3.02002e-07
-8.71907e-07
-2.93112e-07
-9.05199e-07
-2.81829e-07
-9.37089e-07
-2.69003e-07
-9.6741e-07
-2.5512e-07
-9.9604e-07
-2.40441e-07
-1.02289e-06
-2.25108e-07
-1.04786e-06
-2.09205e-07
-1.07091e-06
-1.92789e-07
-1.09195e-06
-1.75905e-07
-1.11094e-06
-1.58596e-07
-1.12781e-06
-1.409e-07
-1.14254e-06
-1.22856e-07
-1.15507e-06
-1.04507e-07
-1.16538e-06
-8.5892e-08
-1.17342e-06
-6.70538e-08
-1.17919e-06
-4.80362e-08
-1.18266e-06
-2.88886e-08
-9.66254e-09
6.57576e-07
-7.53824e-09
6.54711e-07
-2.25431e-08
6.49956e-07
-3.7424e-08
6.43333e-07
-5.2135e-08
6.34871e-07
-6.66323e-08
6.24603e-07
-8.08709e-08
6.12571e-07
-9.48037e-08
5.98821e-07
-1.08379e-07
5.83409e-07
-1.2154e-07
5.66398e-07
-1.34216e-07
5.47864e-07
-1.46319e-07
5.27898e-07
-1.57739e-07
5.06608e-07
-1.68329e-07
4.84129e-07
-1.77913e-07
4.60618e-07
-1.86282e-07
4.36262e-07
-1.93218e-07
4.11271e-07
-1.98535e-07
3.85865e-07
-2.02122e-07
3.60262e-07
-2.03995e-07
3.34656e-07
-2.04306e-07
3.09209e-07
-2.03322e-07
2.84036e-07
-2.01369e-07
2.59217e-07
-1.9877e-07
2.34795e-07
-1.95798e-07
2.10791e-07
-1.92655e-07
1.87208e-07
-1.89474e-07
1.64043e-07
-1.86329e-07
1.41288e-07
-1.8325e-07
1.18935e-07
-1.80242e-07
9.69776e-08
-1.77295e-07
7.54108e-08
-1.74391e-07
5.4232e-08
-1.71512e-07
3.344e-08
-1.68642e-07
1.30348e-08
-1.6577e-07
-6.98361e-09
-1.62891e-07
-2.66146e-08
-1.6e-07
-4.58552e-08
-1.57073e-07
-6.47018e-08
-1.54105e-07
-8.31519e-08
-1.51097e-07
-1.01204e-07
-1.48056e-07
-1.18856e-07
-1.44985e-07
-1.3611e-07
-1.41892e-07
-1.52967e-07
-1.38784e-07
-1.69429e-07
-1.35669e-07
-1.855e-07
-1.32553e-07
-2.01185e-07
-1.29447e-07
-2.1649e-07
-1.26356e-07
-2.31422e-07
-1.23288e-07
-2.45989e-07
-1.20251e-07
-2.60198e-07
-1.17251e-07
-2.74061e-07
-1.14297e-07
-2.87587e-07
-1.11394e-07
-3.00788e-07
-1.08555e-07
-3.13675e-07
-1.0579e-07
-3.26262e-07
-1.03117e-07
-3.38566e-07
-1.00562e-07
-3.50604e-07
-9.81966e-08