/*--------------------------------*- C++ -*----------------------------------*\
  =========                 |
  \\      /  F ield         | OpenFOAM: The Open Source CFD Toolbox
   \\    /   O peration     | Website:  https://openfoam.org
    \\  /    A nd           | Version:  8
     \\/     M anipulation  |
\*---------------------------------------------------------------------------*/
FoamFile
{
    version     2.0;
    format      ascii;
    class       volScalarField;
    location    "0.4/fluid";
    object      Qdot;
}
// * * * * * * * * * * * * * * * * * * * * * * * * * * * * * * * * * * * * * //

dimensions      [1 -1 -3 0 0 0 0];

internalField   nonuniform List<scalar> 
4000
(
-3.04764e-12
0
6.3883e-16
-2.17407e-06
0
2.55532e-15
-2.17407e-06
-2.17407e-06
-2.17563e-06
-2.17407e-06
4.08851e-14
-7.33635e-19
-7.33635e-19
-2.17407e-06
-2.18656e-06
-2.49662e-08
-1.12005e-08
6.54121e-13
-4.99331e-08
-1.08704e-06
-1.03197e-06
-8.83754e-08
1.16958e-05
0.000120265
0.00102484
0.00709697
0.0404699
0.19288
0.781841
2.74008
8.42346
23.0353
56.7336
127.218
262.266
501.982
901.296
1531.74
2487.56
3900.35
5970.02
9023.52
13620.6
20742.2
32125.2
50849.8
82332.1
135892
227075
380832
636298
1.05462e+06
1.73172e+06
2.81851e+06
4.55181e+06
7.30213e+06
1.16491e+07
1.84077e+07
2.89215e+07
4.5924e+07
7.2937e+07
1.16385e+08
1.50908e+08
8.99663e+07
5.31742e+07
3.08793e+07
1.7488e+07
9.59214e+06
5.05926e+06
2.54934e+06
1.21906e+06
552438
245488
79348.6
12500.7
747.346
20.7531
0.301315
0.0029075
2.96038e-05
5.23685e-07
1.57832e-08
-3.05191e-09
-1.41081e-09
-7.16101e-10
-6.0095e-12
-2.1754e-10
-1.96084e-10
-5.4213e-11
-3.07224e-11
-5.54797e-12
-6.18746e-12
-3.0615e-12
-4.25849e-13
-6.15653e-12
-6.15513e-12
4.18446e-11
-1.08285e-14
-5.38976e-15
4.18649e-11
-1.68039e-12
1.59708e-16
-2.17407e-06
-2.17417e-06
-2.17407e-06
-2.17427e-06
-4.58522e-20
-2.17407e-06
-2.17407e-06
-2.17407e-06
4.08851e-14
-7.33635e-19
8.17702e-14
0
0
-2.17407e-06
-5.86908e-18
-4.10835e-17
6.53645e-13
-7.61806e-15
9.98675e-08
7.98928e-07
9.64344e-06
0.000103265
0.000888395
0.00625096
0.0362115
0.175404
0.721642
2.55996
7.96064
22.0023
54.7178
123.78
257.205
495.741
895.614
1530.45
2497.5
3932.69
6042.5
9164.84
13879.2
21203.6
32944.2
52311.3
84955.5
140486
235156
394854
660190
1.09465e+06
1.79798e+06
2.92716e+06
4.72871e+06
7.5885e+06
1.21106e+07
1.91222e+07
3.00632e+07
4.77758e+07
7.59509e+07
1.21331e+08
1.46776e+08
8.7394e+07
5.15544e+07
2.98597e+07
1.6853e+07
9.20428e+06
4.82856e+06
2.41746e+06
1.14727e+06
516475
228263
65094.5
8942.75
456.693
11.0634
0.144423
0.00135269
1.49411e-05
3.08336e-07
1.77558e-08
-6.44626e-09
-1.40452e-09
-7.1487e-10
3.6197e-11
-2.17431e-10
4.08702e-11
-2.31287e-12
3.553e-11
-5.54632e-12
-3.26493e-14
-3.06128e-12
-6.92172e-12
-6.15649e-12
-6.15512e-12
-3.77666e-16
-1.44343e-16
-6.1575e-12
-8.82064e-18
-3.04764e-12
-2.43813e-11
-2.17407e-06
-2.17417e-06
-2.17407e-06
-1.95051e-10
-3.90097e-10
-7.80195e-10
-2.17407e-06
2.04424e-14
-3.12078e-09
-2.17407e-06
-3.44151e-09
-1.24833e-08
-1.24831e-08
0
-2.49662e-08
-4.99331e-08
-2.75321e-08
-1.1869e-06
1.20677e-12
-2.88107e-07
8.20051e-06
8.93722e-05
0.000776629
0.00551783
0.0323561
0.158764
0.660806
2.37378
7.47124
20.8876
52.5097
119.994
251.701
489.333
891.046
1533.69
2519.31
3990.87
6165.74
9400.02
14305.8
21961.5
34286.1
54690.2
89107.9
148057
248614
418245
700008
1.16127e+06
1.90804e+06
3.10735e+06
5.02175e+06
8.06278e+06
1.28761e+07
2.03036e+07
3.19677e+07
5.08504e+07
8.0931e+07
1.29457e+08
1.3985e+08
8.31232e+07
4.88888e+07
2.81997e+07
1.58325e+07
8.59018e+06
4.47036e+06
2.21705e+06
1.04096e+06
464940
200745
50547.3
5618.6
247.107
5.35725
0.0660972
0.000640753
8.04054e-06
1.91646e-07
4.39325e-09
-1.71829e-10
-1.4414e-09
-8.74065e-10
-3.61483e-10
-2.21509e-12
-9.47589e-13
-4.09002e-13
-3.07107e-11
-1.22652e-11
-6.12686e-12
4.18532e-11
4.18609e-11
-2.24622e-15
-1.91393e-13
-2.66215e-14
-1.08218e-14
-5.99908e-15
-8.72796e-18
-3.04764e-12
-2.17407e-06
0
1.27765e-15
-2.29261e-20
-1.95051e-10
5.11064e-15
0
-2.17563e-06
2.04426e-14
4.08851e-14
-7.33635e-19
-2.17687e-06
0
-1.24831e-08
-2.49662e-08
-2.49666e-08
-2.2016e-06
-4.10835e-16
-1.08704e-06
-9.98663e-08
6.99063e-07
7.00212e-06
7.84202e-05
0.000687657
0.00493315
0.0292717
0.145102
0.611009
2.21997
7.06421
19.9587
50.6819
116.931
247.513
485.281
890.672
1544.39
2554.34
4072.3
6329.4
9705.01
14853
22928.8
35987.5
57660.9
94553.8
157732
265625
447590
749600
1.2436e+06
2.04287e+06
3.32576e+06
5.37229e+06
8.62076e+06
1.37577e+07
2.16393e+07
3.43983e+07
5.46153e+07
8.695e+07
1.39137e+08
1.31372e+08
7.7948e+07
4.56943e+07
2.62342e+07
1.46399e+07
7.88292e+06
4.06544e+06
1.99486e+06
925866
411202
169383
36889.7
3328.5
127.271
2.47803
0.0289859
0.000291159
4.15809e-06
1.26764e-07
-8.8312e-10
-2.89646e-09
-1.76245e-09
-8.72591e-10
-4.82703e-12
-2.03286e-12
-2.02084e-10
4.14877e-11
3.55487e-11
-1.22603e-11
-2.94856e-14
3.56999e-11
-6.92123e-12
3.55392e-11
4.18655e-11
-3.4504e-16
-1.32974e-16
-2.71453e-15
-1.49662e-15
-2.17408e-06
0
0
-9.75256e-11
-1.95051e-10
-1.95049e-10
-4.58522e-20
-9.17043e-20
-1.56039e-09
-1.56039e-09
-2.17719e-06
0
-2.17407e-06
0
1.63539e-13
0
-2.49666e-08
-2.93454e-17
-2.17407e-06
-4.48021e-08
-1.08704e-06
-5.87705e-07
6.20319e-06
7.05296e-05
0.000620478
0.00448891
0.0268692
0.134569
0.57244
2.10062
6.74925
19.2473
49.3155
114.762
244.927
483.954
894.759
1562.24
2600.8
4172.03
6522.73
10058.9
15482.1
24029.4
37901.5
61153.9
100764
168753
284940
480779
805483
1.3361e+06
2.19402e+06
3.57034e+06
5.76487e+06
9.24694e+06
1.47521e+07
2.3194e+07
3.68856e+07
5.85724e+07
9.33031e+07
1.49189e+08
1.22548e+08
7.25759e+07
4.23976e+07
2.42224e+07
1.34318e+07
7.17526e+06
3.66617e+06
1.77947e+06
816702
362024
136869
25979.5
1946.71
65.7504
1.16797
0.013216
0.000140121
2.28436e-06
9.22088e-08
1.18227e-08
-1.13905e-10
-3.15801e-09
-1.09499e-11
-7.42753e-10
-3.98132e-10
-5.64712e-11
-3.52309e-13
-1.51857e-13
-6.21909e-12
-6.1817e-12
-7.68953e-12
-4.79299e-15
4.16935e-11
-6.26001e-12
-4.79432e-14
-2.39348e-14
-6.1575e-12
-6.7579e-16
-3.04768e-12
1.59705e-16
0
-1.1463e-20
0
0
-4.58522e-20
-7.80195e-10
-2.17407e-06
-2.17563e-06
0
-2.17407e-06
-2.17407e-06
0
-1.24833e-08
0
-2.49662e-08
6.54133e-13
-3.46276e-16
-9.98656e-08
-7.14854e-14
3.99465e-07
5.40426e-06
6.34839e-05
0.000568102
0.00415122
0.0250548
0.126595
0.543279
2.01092
6.51555
18.7324
48.3738
113.423
243.831
485.116
902.785
1586.1
2656.23
4285.2
6736.59
10445
16158.8
25203.2
40027.4
64914.9
107456
180612
305661
516251
864981
1.43423e+06
2.35382e+06
3.82795e+06
6.17672e+06
9.90076e+06
1.57715e+07
2.4779e+07
3.9393e+07
6.25426e+07
9.96458e+07
1.58852e+08
1.14027e+08
6.74199e+07
3.92585e+07
2.23245e+07
1.23042e+07
6.52258e+06
3.30286e+06
1.5865e+06
720722
319096
110302
17921.8
1148.46
34.7588
0.569868
0.00630167
7.07657e-05
1.30121e-06
4.48274e-08
-6.08671e-09
-9.42729e-11
-3.15399e-09
-1.57636e-09
-1.01632e-11
-6.73938e-11
-4.44971e-11
-3.23962e-13
-1.72324e-11
-6.78169e-12
-7.8601e-12
-1.5345e-12
-4.4529e-15
-6.53697e-12
-9.59913e-14
-2.65572e-14
-6.1781e-12
3.57122e-11
-6.155e-12
-2.17408e-06
1.59708e-16
-4.87628e-11
0
-2.17407e-06
-8.75015e-11
-2.17407e-06
-2.17407e-06
1.02211e-14
2.04424e-14
-1.72072e-09
-2.17407e-06
8.17695e-14
-1.24833e-08
-5.60026e-09
-2.17407e-06
-2.17407e-06
-2.34763e-17
-4.99325e-08
6.49701e-13
1.24284e-12
3.99465e-07
4.90493e-06
5.93228e-05
0.000528421
0.00388872
0.0236616
0.120516
0.521272
1.94422
6.34594
18.3745
47.7743
112.755
243.928
488.238
913.811
1614.31
2717.73
4406.78
6962.32
10845.4
16855.9
26458.7
42232.3
68825
114419
192947
327170
552980
926443
1.53541e+06
2.51831e+06
4.09274e+06
6.59937e+06
1.05706e+07
1.68079e+07
2.63845e+07
4.19244e+07
6.65368e+07
1.05991e+08
1.67302e+08
1.06373e+08
6.28184e+07
3.64755e+07
2.06536e+07
1.13189e+07
5.95733e+06
2.9914e+06
1.42313e+06
641104
283502
83858.8
12492
698.275
19.128
0.292543
0.00319488
3.82413e-05
7.74491e-07
4.63388e-08
-3.50905e-10
-6.32736e-09
-2.99654e-11
-1.52739e-09
-3.93755e-10
-8.90752e-11
-5.4458e-11
4.15677e-11
-6.28376e-12
4.18109e-11
-3.07128e-12
-8.50115e-13
-7.66056e-13
-1.70839e-15
-9.59399e-14
-2.16431e-14
-6.15428e-12
-3.31811e-15
-6.15567e-12
3.99265e-17
-2.43813e-11
0
-2.17407e-06
1.27766e-15
-2.17416e-06
-3.90103e-10
-7.80205e-10
1.02213e-14
-1.56041e-09
-3.12078e-09
-6.24164e-09
-2.18031e-06
-1.46727e-18
-2.17407e-06
0
-2.19904e-06
-4.99331e-08
-4.99331e-08
-4.13183e-15
-1.1869e-06
-6.87571e-07
5.5925e-06
5.52283e-05
0.000498127
0.00368958
0.0226022
0.115926
0.504861
1.89552
6.22654
18.1395
47.4413
112.603
244.926
492.781
926.886
1645.21
2782.49
4532.03
7190.04
11247.1
17579.3
27721.5
44456.4
72778.7
121471
205441
348945
590130
988585
1.63774e+06
2.68489e+06
4.36142e+06
7.0295e+06
1.12551e+07
1.78671e+07
2.80451e+07
4.45748e+07
7.0782e+07
1.12865e+08
1.67123e+08
1.00387e+08
5.91552e+07
3.4233e+07
1.9297e+07
1.05159e+07
5.49638e+06
2.73808e+06
1.291e+06
577312
252508
68235.1
8689.21
434.976
10.9502
0.158289
0.00172365
2.20234e-05
5.01303e-07
3.4855e-08
-7.20485e-09
-3.50974e-09
-2.12195e-11
-3.64205e-10
-3.34491e-12
-1.44568e-12
4.12326e-11
-2.21519e-11
-1.19967e-13
3.57196e-11
-6.17594e-12
-9.1747e-15
-3.45649e-13
-1.06616e-13
-5.31638e-14
-2.65167e-14
4.18597e-11
-6.15749e-12
-6.74693e-16
3.99269e-17
-2.43814e-11
-2.17412e-06
0
0
2.5553e-15
-4.58522e-20
-2.17407e-06
-2.17563e-06
-1.83409e-19
-2.17719e-06
-2.17407e-06
-6.24164e-09
0
-1.24833e-08
-2.17407e-06
-2.19904e-06
-2.34763e-17
-2.17407e-06
6.50277e-13
-1.1869e-06
-7.87438e-07
5.19304e-06
5.19327e-05
0.000473249
0.00353385
0.0217914
0.112461
0.492709
1.86054
6.14532
17.9972
47.3065
112.826
246.547
498.236
941.107
1677.25
2847.89
4655.54
7413.13
11652.4
18285.7
28956.8
46637
76662.9
128407
217733
370349
626618
1.04958e+06
1.7382e+06
2.84851e+06
4.62562e+06
7.45308e+06
1.19305e+07
1.89084e+07
2.96979e+07
4.72362e+07
7.50833e+07
1.199e+08
1.61524e+08
9.58265e+07
5.6315e+07
3.24717e+07
1.82216e+07
9.87525e+06
5.12869e+06
2.53605e+06
1.18607e+06
527451
226185
55931.2
6195.98
282.25
6.59829
0.0910325
0.000994803
1.35229e-05
3.41762e-07
2.29774e-08
-2.61113e-10
-5.9609e-11
-7.19146e-10
-7.33774e-12
-9.23991e-12
-1.34242e-12
-6.74135e-12
-4.90195e-11
-2.44928e-11
3.56644e-11
-7.85491e-12
-7.00294e-12
-7.65494e-13
-6.26068e-12
-6.19751e-12
-2.42714e-16
-6.15427e-12
-3.13898e-17
-6.15418e-12
-3.5822e-22
1.59708e-16
-4.87628e-11
-2.17407e-06
-2.17407e-06
-2.17407e-06
-2.17407e-06
0
-2.17407e-06
-2.17407e-06
-2.17407e-06
-2.18031e-06
8.17702e-14
-1.24833e-08
-2.18656e-06
-2.17407e-06
-2.17407e-06
6.54138e-13
-2.64108e-16
6.50464e-13
-5.40425e-14
3.99464e-07
5.09317e-06
5.06333e-05
0.000456337
0.00341529
0.021176
0.109871
0.483841
1.83606
6.09291
17.9236
47.3141
113.304
248.558
504.168
955.694
1709.09
2911.19
4773.97
7632.41
12037.1
18956.3
30130.5
48711.7
80363
135017
229441
390710
661271
1.10743e+06
1.83339e+06
3.00343e+06
4.87557e+06
7.85346e+06
1.25682e+07
1.98836e+07
3.12468e+07
4.97283e+07
7.9107e+07
1.26464e+08
1.55485e+08
9.2084e+07
5.39862e+07
3.10286e+07
1.73415e+07
9.35186e+06
4.82927e+06
2.37226e+06
1.10164e+06
488158
203248
46418.1
4558.43
191.47
4.19566
0.0556985
0.00061334
8.86361e-06
2.37344e-07
1.09122e-08
-3.02787e-09
-1.45306e-09
-1.57787e-09
-6.787e-12
-2.1797e-10
4.06151e-11
-6.7039e-12
-4.90028e-11
-1.17272e-11
-2.7793e-12
-7.85361e-12
4.03345e-11
-3.35351e-15
-1.91868e-13
-4.32951e-14
3.5712e-11
-1.1994e-14
4.18637e-11
-4.16671e-16
0
1.59708e-16
-4.87622e-11
-9.75256e-11
-9.75244e-11
-1.95051e-10
-2.17407e-06
-2.17407e-06
0
-2.17563e-06
-3.12078e-09
-2.18031e-06
-2.18031e-06
-1.46727e-18
0
-2.17407e-06
0
-4.99331e-08
-4.99325e-08
-2.24004e-08
-1.1869e-06
-6.8757e-07
3.7616e-06
4.86807e-05
0.000440758
0.00332472
0.0207115
0.107948
0.477464
1.81944
6.06176
17.8991
47.4187
113.941
250.766
510.217
970.007
1739.46
2970.74
4887.68
7835.32
12392.2
19574.5
31212.5
50625.1
83776.8
141115
240231
409443
693102
1.16051e+06
1.92066e+06
3.1454e+06
5.10459e+06
8.22035e+06
1.31528e+07
2.07726e+07
3.26424e+07
5.19622e+07
8.27021e+07
1.32308e+08
1.5019e+08
8.88514e+07
5.19888e+07
2.97991e+07
1.65965e+07
8.91175e+06
4.57921e+06
2.23648e+06
1.03227e+06
456266
184917
38963.4
3458.14
135.561
2.8098
0.0361544
0.000402362
6.11973e-06
1.9321e-07
1.11994e-08
-2.99269e-09
-5.3971e-11
2.58302e-11
-6.34966e-12
-1.77697e-10
4.0692e-11
-4.42693e-11
-2.26267e-13
-9.79479e-14
-6.13762e-12
-3.06558e-12
-7.5454e-15
-2.13209e-13
-1.06336e-13
4.18133e-11
3.5712e-11
-8.40356e-17
-6.15687e-12
-6.15451e-12
-3.04768e-12
-6.7217e-12
-4.87622e-11
-2.17407e-06
-4.3752e-11
2.5553e-15
-2.17407e-06
-2.17407e-06
0
-1.83409e-19
0
0
-6.24156e-09
-2.17407e-06
-1.24831e-08
-2.18527e-06
-2.49666e-08
-2.34763e-17
-2.22401e-06
-1.13697e-06
-4.98519e-14
-6.87572e-07
4.59384e-06
4.59958e-05
0.000431148
0.00325663
0.020362
0.106539
0.472981
1.80869
6.04597
17.9085
47.5843
114.66
253.022
516.105
983.531
1767.57
3026.79
4990.65
8018.14
12710.9
20128
32179.7
52333.9
86822.4
146547
249823
426055
721266
1.20738e+06
1.99764e+06
3.27052e+06
5.3063e+06
8.54329e+06
1.36669e+07
2.15472e+07
3.38669e+07
5.39228e+07
8.58541e+07
1.37406e+08
1.45538e+08
8.60214e+07
5.02486e+07
2.87343e+07
1.59556e+07
8.5359e+06
4.36731e+06
2.12242e+06
974649
430429
168084
33274.4
2711.05
100.135
1.97841
0.0248197
0.000279509
4.47579e-06
1.60838e-07
1.1423e-08
-6.41243e-09
-1.76456e-09
-1.53348e-09
-7.86158e-10
-1.41831e-10
-1.08657e-10
-6.64315e-12
3.07147e-11
-1.17161e-11
-3.40084e-12
-7.53841e-12
-7.16576e-15
-2.9976e-15
4.18651e-11
-6.15468e-12
-6.16751e-12
4.18663e-11
-2.65083e-17
-6.15451e-12
-2.17408e-06
1.59708e-16
-2.18754e-11
-2.17413e-06
-4.3752e-11
-2.17407e-06
-3.90103e-10
-2.17485e-06
-2.17407e-06
-7.00032e-10
-3.12078e-09
0
0
-2.17407e-06
-2.18096e-06
0
-1.3766e-08
-2.34763e-17
-2.22401e-06
-1.13697e-06
-4.83964e-14
2.99598e-07
3.45174e-06
4.48973e-05
0.00042196
0.00320386
0.0201028
0.105522
0.469914
1.80222
6.0409
17.9398
47.7834
115.404
255.213
521.628
995.875
1793.62
3076.73
5081.75
8178.91
12989.9
20610.5
33020.1
53813.8
89451.5
151219
258035
440211
745156
1.24699e+06
2.06248e+06
3.37573e+06
5.47591e+06
8.81565e+06
1.41038e+07
2.22103e+07
3.49391e+07
5.56332e+07
8.85942e+07
1.41814e+08
1.41402e+08
8.35162e+07
4.87175e+07
2.78041e+07
1.54001e+07
8.21283e+06
4.18671e+06
2.02607e+06
926486
409141
153429
28873.5
2190.41
76.9102
1.45914
0.0179398
0.000204584
3.42503e-06
8.84916e-08
1.15691e-08
-3.55372e-09
-3.16753e-09
-1.53264e-09
-1.17992e-11
-8.56769e-12
-1.05895e-12
-4.42177e-11
-1.98016e-11
4.1778e-11
-3.80908e-14
4.18502e-11
4.18595e-11
-6.15703e-12
-6.24081e-12
-4.85429e-16
-1.9427e-16
-6.16081e-12
-1.66644e-15
-5.88558e-18
-3.5822e-22
0
0
-1.1463e-20
-9.75256e-11
2.55532e-15
-3.90103e-10
-3.50016e-10
1.02213e-14
-2.17563e-06
-3.66817e-19
4.08851e-14
-2.17407e-06
1.63539e-13
-1.24833e-08
-2.17407e-06
-2.18784e-06
-2.93454e-17
-4.99325e-08
-1.13697e-06
1.26108e-12
3.99466e-07
4.39411e-06
4.50856e-05
0.000416056
0.00316506
0.0199098
0.104798
0.467891
1.79877
6.04291
17.9836
47.9951
116.132
257.274
526.709
1007.25
1816.6
3120.35
5160.74
8317.53
13229.3
21022.9
33735.5
55068.8
91670.8
155140
264878
451904
764681
1.27895e+06
2.11397e+06
3.45755e+06
5.6042e+06
9.01397e+06
1.44056e+07
2.26365e+07
3.60001e+07
5.71542e+07
9.09603e+07
1.45574e+08
1.3769e+08
8.1296e+07
4.73758e+07
2.69972e+07
1.49227e+07
7.93762e+06
4.03415e+06
1.94534e+06
886391
391169
142891
25373.2
1817.48
61.2141
1.12333
0.0135989
0.000157072
2.74031e-06
1.15242e-07
1.16552e-08
-3.54102e-09
-4.41549e-11
-1.95176e-11
-3.61548e-10
-1.77316e-10
-1.01238e-12
-5.42201e-11
-1.11334e-11
-5.55404e-12
-6.13186e-12
-1.55337e-14
-7.68468e-13
-1.73651e-13
4.16748e-11
4.18659e-11
-1.86856e-16
-7.37783e-17
-1.66551e-15
4.18659e-11
-3.5822e-22
0
0
-5.37736e-11
1.27764e-15
2.5553e-15
0
0
1.02213e-14
-1.56041e-09
-3.12082e-09
-6.24164e-09
-2.17407e-06
-6.88302e-09
1.63539e-13
-2.17407e-06
-2.93454e-18
-2.34763e-17
-4.99331e-08
-2.75314e-08
-1.08704e-06
-6.87572e-07
3.30707e-06
4.43865e-05
0.00041195
0.00313537
0.0197712
0.104298
0.466619
1.79736
6.04909
18.0323
48.2008
116.8
259.105
531.107
1016.96
1836.24
3157.56
5227.92
8435.08
13431.8
21371.3
34339.9
56129.4
93548
158461
270685
461853
781372
1.30647e+06
2.15879e+06
3.52992e+06
5.72032e+06
9.19965e+06
1.47024e+07
2.31058e+07
3.67698e+07
5.83728e+07
9.29069e+07
1.4867e+08
1.347e+08
7.94919e+07
4.62802e+07
2.63368e+07
1.45319e+07
7.71266e+06
3.90978e+06
1.87976e+06
854005
376749
133974
22717.5
1552.86
50.5278
0.902177
0.0107911
0.000126069
2.25669e-06
8.03327e-08
1.1734e-08
-3.57926e-09
-3.60246e-11
-1.27965e-11
-3.55191e-10
3.3485e-11
-6.66589e-11
-4.32287e-13
-1.88303e-13
-6.80371e-12
-2.76974e-12
-1.38225e-12
-3.4814e-13
-3.83609e-13
-1.09543e-15
-9.56897e-14
-1.08621e-14
-7.15538e-17
-2.37277e-17
4.1866e-11
-2.17407e-06
-2.17407e-06
-2.17407e-06
1.27765e-15
-5.37724e-11
-1.95051e-10
-3.90103e-10
0
-4.30179e-10
-8.60358e-10
4.08851e-14
-6.2416e-09
-2.18031e-06
1.63539e-13
-1.46727e-18
-2.93454e-18
-2.17407e-06
-4.99325e-08
-2.22401e-06
-1.08704e-06
-4.56849e-14
1.99732e-07
4.3493e-06
4.38872e-05
0.000406869
0.003113
0.0196727
0.103961
0.465874
1.79724
6.05729
18.0807
48.3899
117.393
260.701
534.95
1025.22
1852.76
3188.62
5283.76
8532.54
13599.6
21660
34841
57010.2
95109.9
161229
275534
470176
795366
1.3296e+06
2.19655e+06
3.59099e+06
5.81839e+06
9.35621e+06
1.49512e+07
2.34945e+07
3.73849e+07
5.93484e+07
9.44705e+07
1.51146e+08
1.32342e+08
7.80673e+07
4.54139e+07
2.58142e+07
1.42227e+07
7.53476e+06
3.81155e+06
1.8281e+06
828618
365457
126691
20749
1366.21
43.2253
0.754881
0.0089452
0.000105583
1.96417e-06
9.24227e-08
1.18129e-08
-2.92453e-09
-3.11342e-09
2.95396e-11
-1.11756e-11
-1.77171e-10
-9.51638e-13
-4.18113e-13
-1.72754e-11
-5.5486e-12
-3.39515e-12
3.40172e-11
-6.15338e-15
4.16929e-11
-1.06092e-13
-5.29503e-14
-6.16748e-12
4.18663e-11
4.18647e-11
-5.57662e-18
0
-2.17408e-06
-2.17407e-06
-2.17407e-06
-5.37724e-11
-1.95051e-10
-4.58522e-20
-2.17485e-06
-4.30189e-10
-1.56041e-09
-3.12082e-09
-2.17407e-06
-3.44151e-09
1.6354e-13
-1.24831e-08
-1.3766e-08
-2.17407e-06
6.54138e-13
-4.99331e-08
-1.13697e-06
-4.51919e-14
2.99598e-07
4.23918e-06
4.34877e-05
0.00040496
0.00309868
0.0196049
0.103742
0.465476
1.7978
6.06578
18.1243
48.5518
117.888
262.006
538.045
1031.88
1866.02
3213.5
5328.37
8610.28
13733.3
21890
35240.5
57712.6
96355.9
163437
279400
476807
806498
1.34796e+06
2.22647e+06
3.63925e+06
5.89562e+06
9.47893e+06
1.51452e+07
2.37957e+07
3.78615e+07
6.01044e+07
9.56831e+07
1.53054e+08
1.30527e+08
7.69715e+07
4.47483e+07
2.54132e+07
1.39856e+07
7.39861e+06
3.73652e+06
1.78873e+06
809347
356986
120944
19331.2
1236.53
38.2724
0.656939
0.00772966
9.19172e-05
1.73448e-06
4.31159e-08
6.25435e-09
-2.92524e-09
-3.15419e-09
-1.20028e-11
-3.99377e-10
-2.1098e-12
-1.54114e-10
-5.5325e-11
2.82438e-11
-6.79953e-12
-3.35351e-14
-1.42366e-14
4.15185e-11
4.18639e-11
-6.26024e-12
-9.5667e-14
4.18531e-11
-6.83407e-17
4.18647e-11
4.18659e-11
-2.17408e-06
-2.17408e-06
0
-5.37736e-11
0
-1.95049e-10
-2.17425e-06
-4.30179e-10
-2.17442e-06
-2.17563e-06
-1.40002e-09
-6.2416e-09
-2.17407e-06
-1.46727e-18
0
-2.93454e-18
-2.17407e-06
-2.2016e-06
-2.23025e-16
-1.08704e-06
-1.1869e-06
-8.87304e-07
4.19437e-06
4.31881e-05
0.000404249
0.00308741
0.0195603
0.103605
0.46529
1.79861
6.0733
18.1601
48.6806
118.275
263.026
540.413
1036.93
1876.03
3232.19
5361.8
8668.44
13833.2
22061.8
35538.7
58236.7
97285
165082
282276
481731
814750
1.36155e+06
2.24856e+06
3.67482e+06
5.9524e+06
9.56898e+06
1.52872e+07
2.40161e+07
3.82098e+07
6.06566e+07
9.6568e+07
1.54481e+08
1.29198e+08
7.61707e+07
4.42628e+07
2.51212e+07
1.38134e+07
7.29983e+06
3.68218e+06
1.76028e+06
795492
350869
116688
18353.5
1149.49
35.0095
0.593403
0.00694723
8.31479e-05
1.58411e-06
6.85034e-08
1.18772e-08
-3.55658e-09
-1.75328e-09
-8.78292e-10
-4.80274e-12
-2.17172e-10
-1.08458e-10
-4.91647e-11
3.07522e-11
-5.54556e-12
-3.29657e-14
4.18524e-11
-5.90028e-15
-3.83431e-13
-6.1552e-12
3.56642e-11
4.18662e-11
-6.7352e-17
-1.35757e-15
-5.46849e-18
-2.17407e-06
-2.17407e-06
-4.87628e-11
-2.17417e-06
1.27764e-15
-8.7504e-11
-3.90103e-10
0
-3.50016e-10
-8.60378e-10
0
-2.18031e-06
-2.17407e-06
0
-6.88286e-09
-2.93454e-18
3.27081e-13
-4.99331e-08
-2.22401e-06
6.51122e-13
-1.08703e-06
-8.87304e-07
3.15214e-06
4.30882e-05
0.000401964
0.00308162
0.0195331
0.103528
0.465218
1.79933
6.0788
18.1851
48.7689
118.537
263.708
542.001
1040.31
1882.7
3244.65
5384.04
8707.09
13899.6
22175.8
35736.4
58584
97900.2
166170
284176
484980
820190
1.3705e+06
2.26309e+06
3.69819e+06
5.98969e+06
9.62807e+06
1.53804e+07
2.41606e+07
3.84383e+07
6.10192e+07
9.71496e+07
1.55386e+08
1.28329e+08
7.56473e+07
4.39456e+07
2.49306e+07
1.3701e+07
7.2355e+06
3.64685e+06
1.74182e+06
786538
346874
113879
17741.1
1096.03
33.0327
0.555379
0.00648232
7.79195e-05
1.53089e-06
5.49919e-08
1.19014e-08
-7.08076e-11
-3.20074e-11
-1.57201e-09
-4.73794e-12
-2.04906e-12
4.09653e-11
4.14685e-11
-1.7413e-13
-6.79738e-12
-3.2586e-14
-1.38253e-14
3.57064e-11
-3.834e-13
-6.24064e-12
-2.66709e-14
-1.08482e-14
-1.19717e-14
4.18647e-11
4.18659e-11
-2.17407e-06
1.59708e-16
6.3883e-16
-1.1463e-20
-2.17407e-06
2.5553e-15
0
-2.17407e-06
-2.17442e-06
2.04426e-14
-2.17407e-06
-6.24164e-09
-2.80005e-09
-6.88302e-09
-2.18656e-06
0
-2.19904e-06
6.54144e-13
-4.99325e-08
-1.08704e-06
-1.08703e-06
1.99732e-07
4.29424e-06
4.29884e-05
0.000402451
0.00307851
0.0195219
0.103494
0.465199
1.79973
6.08164
18.1977
48.8131
118.668
264.046
542.785
1041.97
1885.99
3250.78
5394.99
8726.11
13932.2
22231.9
35833.7
58755
98203.1
166706
285112
486580
822866
1.3749e+06
2.27024e+06
3.70969e+06
6.00803e+06
9.65713e+06
1.54263e+07
2.42316e+07
3.85506e+07
6.11975e+07
9.74357e+07
1.5583e+08
1.27902e+08
7.53903e+07
4.37899e+07
2.48372e+07
1.3646e+07
7.20405e+06
3.62959e+06
1.73282e+06
782176
344988
112497
17451.3
1071.15
32.1244
0.538101
0.00627289
7.56136e-05
1.48448e-06
4.39077e-08
1.19097e-08
-3.55315e-09
-1.71679e-09
-1.15168e-11
-1.08678e-11
-2.03691e-12
-1.08444e-10
-3.34358e-11
-1.11111e-11
4.17912e-11
-6.18651e-12
-1.69419e-12
4.15187e-11
-6.1566e-12
-1.06033e-13
4.18446e-11
-6.15434e-12
4.18544e-11
-1.35726e-15
-6.15418e-12
-3.5822e-22
-2.17408e-06
0
0
-4.37507e-11
-2.29261e-20
0
-2.17407e-06
-4.30179e-10
-2.17477e-06
-2.17407e-06
-2.17407e-06
-2.18031e-06
0
0
-2.17407e-06
-2.49666e-08
-2.24004e-08
6.53939e-13
-1.11457e-06
-4.45111e-14
2.99598e-07
4.19437e-06
4.30882e-05
0.000402451
0.00307851
0.0195215
0.103494
0.465198
1.79972
6.08163
18.1977
48.8131
118.668
264.045
542.784
1041.97
1885.99
3250.77
5394.99
8726.11
13932.2
22231.9
35833.7
58755
98203.1
166706
285111
486580
822866
1.3749e+06
2.27024e+06
3.70969e+06
6.00803e+06
9.65714e+06
1.54263e+07
2.42317e+07
3.85507e+07
6.11975e+07
9.74358e+07
1.5583e+08
1.27902e+08
7.53902e+07
4.37899e+07
2.48371e+07
1.3646e+07
7.20404e+06
3.62959e+06
1.73282e+06
782175
344987
112496
17451.3
1071.15
32.1243
0.5381
0.00627289
7.55912e-05
1.48448e-06
6.8874e-08
6.30942e-09
-1.11702e-10
-1.71679e-09
-1.7671e-11
-4.71365e-12
-2.23286e-10
-1.95946e-10
-3.34358e-11
-1.73117e-13
-5.5443e-12
-3.39325e-12
4.18526e-11
-5.82119e-15
3.55389e-11
-6.34566e-12
3.56642e-11
-1.08472e-14
-6.6487e-17
-1.6631e-15
4.1866e-11
-2.17407e-06
-1.21907e-11
-5.73152e-21
-9.75256e-11
1.27764e-15
-2.17407e-06
5.11064e-15
-2.17407e-06
-4.30179e-10
-2.17563e-06
-3.12078e-09
-2.17407e-06
-6.24164e-09
-1.46727e-18
-5.60026e-09
-1.37657e-08
-2.49662e-08
-4.99325e-08
-4.99331e-08
-1.08704e-06
-4.46167e-14
1.99732e-07
4.19437e-06
4.20012e-05
0.000401964
0.0030827
0.0195329
0.103528
0.465217
1.79932
6.07878
18.185
48.7687
118.537
263.707
542
1040.31
1882.7
3244.64
5384.04
8707.08
13899.5
22175.8
35736.3
58583.9
97900.1
166170
284176
484980
820189
1.3705e+06
2.26309e+06
3.69819e+06
5.98969e+06
9.62807e+06
1.53804e+07
2.41606e+07
3.84383e+07
6.10192e+07
9.71497e+07
1.55386e+08
1.28329e+08
7.56471e+07
4.39454e+07
2.49305e+07
1.3701e+07
7.23548e+06
3.64683e+06
1.74181e+06
786534
346872
113878
17740.9
1096.02
33.0325
0.555376
0.00648232
7.79419e-05
1.51966e-06
6.87791e-08
1.18806e-08
-1.18828e-10
9.85892e-12
-1.1614e-11
-4.34927e-10
-2.04906e-12
-8.8405e-11
-2.72837e-11
-1.97717e-11
-5.54468e-12
4.18338e-11
-6.168e-12
4.10986e-11
-2.12497e-13
4.18654e-11
-4.14246e-16
-1.32949e-14
4.18663e-11
4.18647e-11
4.1866e-11
-2.17408e-06
-5.469e-12
-5.73152e-21
-2.17407e-06
0
0
0
1.02212e-14
-2.17407e-06
-2.17407e-06
4.08848e-14
-6.24164e-09
0
-1.46727e-18
-1.24831e-08
-2.17407e-06
-2.19904e-06
6.54138e-13
-2.75321e-08
-1.10944e-06
-4.48397e-14
2.99598e-07
4.19437e-06
4.31881e-05
0.000404049
0.0030885
0.0195601
0.103604
0.465286
1.7986
6.07326
18.16
48.6804
118.275
263.025
540.412
1036.93
1876.02
3232.18
5361.79
8668.42
13833.2
22061.8
35538.6
58236.6
97284.8
165082
282275
481730
814749
1.36155e+06
2.24856e+06
3.67482e+06
5.9524e+06
9.56898e+06
1.52872e+07
2.40161e+07
3.82098e+07
6.06567e+07
9.65682e+07
1.54481e+08
1.29197e+08
7.61705e+07
4.42626e+07
2.51211e+07
1.38133e+07
7.29979e+06
3.68215e+06
1.76027e+06
795486
350866
116686
18353.3
1149.48
35.0091
0.593398
0.00694713
8.31979e-05
1.59785e-06
6.85243e-08
1.18834e-08
-1.15071e-10
-3.15335e-09
-1.17598e-11
3.70636e-11
-3.9218e-10
-8.84152e-11
-2.72887e-11
-6.33033e-12
4.17899e-11
-6.18714e-12
-1.40152e-14
-5.9161e-15
-6.15664e-12
-1.91504e-13
-4.20178e-16
-6.15434e-12
4.18544e-11
-2.23683e-17
-3.3927e-16
-2.17408e-06
-2.17408e-06
-2.17407e-06
1.27765e-15
-9.75256e-11
-1.95051e-10
5.11064e-15
0
-4.30189e-10
2.04424e-14
0
4.08844e-14
-2.17407e-06
-1.46727e-18
0
-1.12005e-08
-2.19904e-06
6.54138e-13
-2.22401e-06
-1.08704e-06
1.26313e-12
-8.87304e-07
4.29424e-06
4.35876e-05
0.000405159
0.00309859
0.0196056
0.10374
0.465471
1.79779
6.06573
18.1242
48.5515
117.887
262.005
538.042
1031.88
1866.02
3213.49
5328.35
8610.26
13733.3
21890
35240.4
57712.5
96355.6
163437
279399
476806
806497
1.34796e+06
2.22646e+06
3.63925e+06
5.89562e+06
9.47893e+06
1.51452e+07
2.37958e+07
3.78615e+07
6.01045e+07
9.56832e+07
1.53054e+08
1.30526e+08
7.69711e+07
4.47481e+07
2.54131e+07
1.39855e+07
7.39855e+06
3.73648e+06
1.78871e+06
809339
356982
120942
19330.8
1236.5
38.2717
0.656927
0.00772947
9.19173e-05
1.7345e-06
4.31369e-08
4.9445e-09
-1.18959e-10
-3.33681e-11
-1.19866e-11
-4.35089e-10
-3.92212e-10
-8.84334e-11
8.41739e-12
4.16872e-11
3.50668e-11
-3.35351e-14
-1.42366e-14
4.18604e-11
-2.12568e-13
-8.64952e-14
-4.27098e-16
-1.32999e-14
-6.6325e-15
-2.26772e-17
-5.53028e-18
-1.36725e-12
-2.86576e-21
-2.17407e-06
1.27766e-15
-5.37736e-11
-2.17407e-06
0
0
-2.17485e-06
-2.17407e-06
-3.12078e-09
0
-2.18031e-06
-1.24833e-08
1.63539e-13
-2.18784e-06
-2.49666e-08
-2.34763e-17
6.53939e-13
-4.99325e-08
-9.98663e-08
-7.87437e-07
4.39411e-06
4.38872e-05
0.000406869
0.003113
0.0196723
0.103959
0.465867
1.79722
6.05722
18.0806
48.3895
117.392
260.699
534.947
1025.22
1852.75
3188.61
5283.74
8532.51
13599.5
21659.9
34840.9
57010
95109.5
161228
275533
470175
795364
1.32959e+06
2.19654e+06
3.59098e+06
5.81839e+06
9.35621e+06
1.49512e+07
2.34945e+07
3.7385e+07
5.93485e+07
9.44708e+07
1.51146e+08
1.32341e+08
7.80668e+07
4.54136e+07
2.5814e+07
1.42225e+07
7.53468e+06
3.81151e+06
1.82808e+06
828607
365451
126689
20748.5
1366.16
43.2239
0.754857
0.00894492
0.000105533
1.94175e-06
9.24224e-08
6.19169e-09
-6.3722e-09
-3.44696e-11
-7.18513e-10
-5.01331e-12
-2.16245e-12
-7.10379e-12
-2.73049e-11
-1.72754e-11
4.17868e-11
-3.42944e-14
-7.84918e-12
-3.4795e-13
-1.73477e-13
-1.06577e-15
3.57118e-11
-1.08571e-14
-5.41065e-15
3.57108e-11
-5.59207e-18
-2.17407e-06
0
0
-9.75256e-11
0
-2.29261e-20
-2.15095e-10
-9.17043e-20
-4.30189e-10
-2.17563e-06
-3.66817e-19
-6.24164e-09
-2.18031e-06
-1.24833e-08
-2.18656e-06
0
-2.49666e-08
-2.17407e-06
-2.34763e-16
-2.75321e-08
-4.6354e-14
3.54662e-07
4.29424e-06
4.44416e-05
0.00041195
0.00313508
0.0197708
0.104296
0.466612
1.79733
6.049
18.0321
48.2002
116.799
259.102
531.103
1016.95
1836.23
3157.55
5227.89
8435.04
13431.8
21371.2
34339.7
56129.2
93547.5
158460
270683
461851
781369
1.30647e+06
2.15879e+06
3.52991e+06
5.72032e+06
9.19965e+06
1.47024e+07
2.31059e+07
3.67698e+07
5.83729e+07
9.29072e+07
1.4867e+08
1.34699e+08
7.94913e+07
4.62798e+07
2.63365e+07
1.45318e+07
7.71257e+06
3.90972e+06
1.87973e+06
853991
376742
133970
22716.7
1552.79
50.5254
0.902132
0.0107906
0.000126097
2.28425e-06
7.77702e-08
4.87193e-09
-6.37323e-09
-3.6057e-11
-8.73158e-10
-3.55191e-10
-2.17322e-10
4.08884e-11
-4.91941e-11
-1.7281e-11
-1.22727e-11
3.84703e-11
4.01709e-11
-4.26434e-13
-2.64959e-15
4.18653e-11
4.18659e-11
-1.80429e-16
-7.15538e-17
-1.359e-15
4.18659e-11
-3.5822e-22
-6.72154e-12
0
1.27766e-15
-5.37724e-11
-2.29261e-20
-2.17407e-06
-4.30189e-10
0
-8.60378e-10
-2.17407e-06
4.08851e-14
-2.17751e-06
0
-2.18656e-06
-2.17407e-06
-2.49666e-08
6.54138e-13
-2.17407e-06
-1.08704e-06
-5.50642e-08
-6.8757e-07
4.49397e-06
4.50856e-05
0.000416056
0.00316486
0.0199092
0.104797
0.467881
1.79874
6.04281
17.9833
47.9945
116.13
257.271
526.704
1007.24
1816.58
3120.33
5160.71
8317.48
13229.2
21022.7
33735.3
55068.5
91670.3
155139
264877
451902
764678
1.27895e+06
2.11397e+06
3.45754e+06
5.60419e+06
9.01397e+06
1.44056e+07
2.26365e+07
3.60001e+07
5.71544e+07
9.09607e+07
1.45575e+08
1.37689e+08
8.12953e+07
4.73753e+07
2.69969e+07
1.49225e+07
7.9375e+06
4.03408e+06
1.9453e+06
886374
391161
142887
25372
1817.38
61.2101
1.12325
0.0135979
0.000157024
2.79025e-06
1.04063e-07
6.05511e-09
-3.58295e-09
-3.15882e-09
-8.73742e-10
-3.61548e-10
-3.92415e-10
-1.01238e-12
-6.60063e-12
-1.9793e-11
-6.80649e-12
-6.19068e-12
3.43294e-11
-6.58083e-12
-3.83704e-13
-1.13497e-15
4.18659e-11
4.18555e-11
4.18544e-11
4.18663e-11
-6.15492e-12
0
1.59708e-16
0
0
-9.75256e-11
-1.07547e-10
-4.58522e-20
-2.17485e-06
1.02213e-14
0
-3.12082e-09
4.08851e-14
-2.17687e-06
-1.24833e-08
1.63539e-13
-2.49662e-08
-2.49662e-08
-2.34763e-17
-4.99325e-08
-4.99325e-08
-1.08703e-06
-6.87572e-07
3.40694e-06
4.59844e-05
0.000423047
0.00320366
0.0201011
0.105518
0.469903
1.80218
6.04078
17.9394
47.7827
115.402
255.209
521.622
995.865
1793.6
3076.7
5081.7
8178.85
12989.8
20610.3
33019.8
53813.4
89450.8
151218
258034
440209
745153
1.24699e+06
2.06247e+06
3.37572e+06
5.47591e+06
8.81566e+06
1.41038e+07
2.22103e+07
3.49393e+07