/*--------------------------------*- C++ -*----------------------------------*\
  =========                 |
  \\      /  F ield         | OpenFOAM: The Open Source CFD Toolbox
   \\    /   O peration     | Website:  https://openfoam.org
    \\  /    A nd           | Version:  8
     \\/     M anipulation  |
\*---------------------------------------------------------------------------*/
FoamFile
{
    version     2.0;
    format      ascii;
    class       volScalarField;
    location    "0.4/fluid";
    object      rho;
}
// * * * * * * * * * * * * * * * * * * * * * * * * * * * * * * * * * * * * * //

dimensions      [1 -3 0 0 0 0 0];

internalField   nonuniform List<scalar> 
4000
(
0.658526
0.658499
0.658454
0.658379
0.658253
0.658044
0.657701
0.65714
0.656234
0.654792
0.652533
0.649067
0.643882
0.636358
0.625831
0.611724
0.593729
0.57197
0.547078
0.520092
0.492235
0.464655
0.438245
0.413577
0.390928
0.370358
0.351786
0.335052
0.319972
0.30635
0.293999
0.282759
0.272493
0.263083
0.254432
0.246444
0.239013
0.232078
0.225589
0.219502
0.213779
0.208388
0.203303
0.198501
0.193961
0.189666
0.185602
0.181757
0.178119
0.17468
0.171433
0.168373
0.1655
0.162814
0.160327
0.158056
0.156035
0.154344
0.153061
0.15229
0.152331
0.153645
0.157107
0.163752
0.172979
0.184609
0.19871
0.215534
0.2355
0.259217
0.28751
0.32147
0.362505
0.412517
0.473804
0.548607
0.638142
0.740927
0.850627
0.955548
1.04267
1.10468
1.14297
1.16396
1.17453
1.17959
1.18194
1.183
1.18347
1.18367
1.18376
1.18379
1.18381
1.18382
1.18382
1.18382
1.18382
1.18382
1.18382
1.18382
0.658526
0.658499
0.658454
0.658379
0.658253
0.658044
0.6577
0.657139
0.656233
0.654794
0.652546
0.649105
0.643971
0.636537
0.626158
0.612267
0.594548
0.5731
0.548508
0.521767
0.494066
0.466546
0.44011
0.415351
0.392573
0.371854
0.353128
0.33625
0.321031
0.307273
0.294803
0.283458
0.273099
0.263607
0.254884
0.246833
0.239347
0.232363
0.22583
0.219703
0.213944
0.208521
0.203407
0.198579
0.194015
0.189699
0.185616
0.181753
0.1781
0.174647
0.171388
0.168319
0.165437
0.162745
0.160255
0.157984
0.155969
0.154297
0.153038
0.152312
0.15243
0.153881
0.157594
0.164464
0.173922
0.185814
0.200229
0.217441
0.237901
0.262254
0.291376
0.32642
0.36888
0.42077
0.48444
0.562035
0.654411
0.75926
0.869082
0.97147
1.05413
1.11156
1.14649
1.16557
1.17522
1.17987
1.18205
1.18304
1.18348
1.18368
1.18376
1.1838
1.18381
1.18382
1.18382
1.18382
1.18382
1.18382
1.18382
1.18382
0.658526
0.658499
0.658454
0.658379
0.658253
0.658043
0.657698
0.657136
0.65623
0.654792
0.652548
0.649122
0.64402
0.636648
0.626373
0.612638
0.595129
0.57393
0.549599
0.523095
0.495579
0.468174
0.44178
0.417004
0.394162
0.37335
0.354515
0.337522
0.322177
0.308305
0.295727
0.284282
0.27383
0.264253
0.25545
0.247329
0.239779
0.232736
0.226148
0.219971
0.214166
0.208701
0.203547
0.198682
0.194084
0.189737
0.185625
0.181737
0.17806
0.174586
0.171309
0.168223
0.165328
0.162628
0.160133
0.157864
0.155858
0.154217
0.152998
0.152345
0.152592
0.154268
0.158398
0.165634
0.175463
0.187765
0.202659
0.220449
0.24162
0.266862
0.297099
0.333541
0.377752
0.431812
0.498015
0.578253
0.672807
0.778462
0.88686
0.985594
1.06362
1.11703
1.14927
1.16688
1.1758
1.18012
1.18215
1.18308
1.1835
1.18368
1.18376
1.1838
1.18381
1.18382
1.18382
1.18382
1.18382
1.18382
1.18382
1.18382
0.658526
0.658499
0.658454
0.658379
0.658253
0.658045
0.657702
0.657143
0.656243
0.654817
0.652595
0.649205
0.644161
0.636879
0.626733
0.61317
0.595867
0.574893
0.550779
0.524457
0.497067
0.469725
0.443339
0.418522
0.395608
0.374704
0.355773
0.338665
0.323218
0.309249
0.296579
0.285048
0.274515
0.264861
0.255988
0.247802
0.240192
0.233094
0.226454
0.220228
0.214376
0.208868
0.203674
0.19877
0.194137
0.189756
0.185613
0.181696
0.177994
0.174497
0.171199
0.168096
0.165188
0.162479
0.15998
0.157716
0.155727
0.154127
0.152932
0.152375
0.152781
0.154734
0.159372
0.167049
0.177318
0.1901
0.205546
0.223991
0.245956
0.272172
0.303609
0.34153
0.387569
0.443855
0.512611
0.595462
0.692118
0.798492
0.905414
1.0005
1.07389
1.12317
1.15254
1.16848
1.17654
1.18046
1.1823
1.18314
1.18352
1.18369
1.18377
1.1838
1.18381
1.18382
1.18382
1.18382
1.18382
1.18382
1.18382
1.18382
0.658526
0.658499
0.658455
0.65838
0.658255
0.658048
0.657707
0.657152
0.656259
0.654845
0.652644
0.649287
0.644296
0.637094
0.62706
0.613642
0.596515
0.575731
0.551799
0.525629
0.498346
0.471058
0.444676
0.419824
0.396848
0.375866
0.356841
0.339646
0.324114
0.310061
0.297312
0.285707
0.275104
0.265385
0.25645
0.248207
0.240546
0.233398
0.226711
0.220441
0.214547
0.208999
0.203767
0.198827
0.194159
0.189747
0.185575
0.181631
0.177903
0.174383
0.171066
0.167946
0.165025
0.162308
0.159808
0.15755
0.155578
0.154011
0.152873
0.152414
0.152987
0.155231
0.16041
0.168554
0.179288
0.192573
0.208591
0.22771
0.250486
0.277686
0.310327
0.349716
0.397562
0.456013
0.527193
0.612421
0.710813
0.817438
0.92248
1.01381
1.08283
1.12842
1.15532
1.16984
1.17718
1.18075
1.18243
1.1832
1.18355
1.1837
1.18377
1.1838
1.18381
1.18382
1.18382
1.18382
1.18382
1.18382
1.18382
1.18382
0.658526
0.6585
0.658455
0.658381
0.658257
0.658052
0.657714
0.657164
0.65628
0.65488
0.652702
0.649382
0.644446
0.637323
0.627396
0.614114
0.597143
0.576521
0.552739
0.526688
0.499481
0.472225
0.445833
0.420942
0.397904
0.376853
0.357745
0.340471
0.324862
0.310737
0.29792
0.286251
0.275588
0.265814
0.256826
0.248535
0.240828
0.233638
0.22691
0.220601
0.214671
0.209087
0.203821
0.198849
0.194151
0.189711
0.185512
0.181543
0.177793
0.174253
0.170918
0.167784
0.164852
0.162128
0.159627
0.157377
0.155427
0.153896
0.152817
0.152458
0.153197
0.155733
0.161447
0.170056
0.181249
0.195028
0.211606
0.231382
0.254944
0.283096
0.316896
0.357695
0.407276
0.467782
0.541231
0.628631
0.728513
0.835174
0.938271
1.02603
1.09102
1.13326
1.1579
1.17113
1.17779
1.18102
1.18255
1.18325
1.18357
1.18371
1.18377
1.1838
1.18381
1.18382
1.18382
1.18382
1.18382
1.18382
1.18382
1.18382
0.658526
0.6585
0.658456
0.658382
0.658259
0.658056
0.657721
0.657176
0.656301
0.654915
0.652758
0.649472
0.644586
0.637534
0.627702
0.614539
0.597703
0.57722
0.553564
0.527611
0.500464
0.473228
0.446822
0.42189
0.398796
0.377671
0.358496
0.341153
0.325477
0.311289
0.298413
0.286689
0.275976
0.266153
0.257121
0.248788
0.241043
0.233816
0.227054
0.220711
0.214749
0.209135
0.203839
0.198841
0.194117
0.189652
0.18543
0.18144
0.17767
0.174113
0.170763
0.167617
0.164677
0.161949
0.15945
0.157208
0.155286
0.153792
0.152774
0.152516
0.153423
0.156246
0.162462
0.171507
0.183132
0.197376
0.214483
0.234878
0.259181
0.28823
0.323121
0.36525
0.416463
0.478893
0.554434
0.643776
0.744884
0.851344
0.952417
1.03677
1.09811
1.1374
1.16011
1.17222
1.17831
1.18127
1.18266
1.1833
1.18359
1.18372
1.18378
1.1838
1.18381
1.18382
1.18382
1.18382
1.18382
1.18382
1.18382
1.18382
0.658526
0.6585
0.658457
0.658384
0.658262
0.65806
0.657728
0.657188
0.656321
0.654948
0.652812
0.649557
0.644718
0.63773
0.627984
0.614924
0.598204
0.577839
0.554288
0.528413
0.50131
0.474084
0.447659
0.422687
0.39954
0.378354
0.359115
0.341711
0.325977
0.311734
0.298808
0.287037
0.27628
0.266416
0.257346
0.248978
0.2412
0.233942
0.22715
0.220779
0.21479
0.20915
0.203831
0.198809
0.194063
0.189577
0.185336
0.181328
0.177542
0.173971
0.170608
0.167453
0.164507
0.161777
0.159282
0.157053
0.155161
0.153707
0.152757
0.152609
0.153704
0.156862
0.163484
0.172902
0.184909
0.199574
0.217163
0.238127
0.263114
0.292992
0.328891
0.372252
0.424977
0.489177
0.566614
0.657672
0.759777
0.865882
0.964964
1.04618
1.10427
1.14099
1.16203
1.17318
1.17877
1.18148
1.18275
1.18334
1.18361
1.18373
1.18378
1.1838
1.18381
1.18382
1.18382
1.18382
1.18382
1.18382
1.18382
1.18382
0.658526
0.6585
0.658457
0.658385
0.658264
0.658064
0.657735
0.6572
0.65634
0.654979
0.652862
0.649635
0.644836
0.637905
0.628232
0.615262
0.598642
0.578376
0.554911
0.529099
0.50203
0.474808
0.448362
0.423351
0.400152
0.378913
0.359621
0.342163
0.326378
0.312089
0.299119
0.287308
0.276514
0.266616
0.257513
0.249115
0.24131
0.234025
0.227209
0.220814
0.214802
0.209141
0.203801
0.19876
0.193996
0.189493
0.185236
0.181212
0.177413
0.173831
0.170459
0.167297
0.164347
0.161618
0.159129
0.156914
0.155055
0.153642
0.15276
0.152727
0.154018
0.157532
0.16448
0.174213
0.186555
0.201593
0.219616
0.241096
0.266703
0.297335
0.334155
0.378644
0.432751
0.498559
0.577699
0.670256
0.773153
0.878788
0.975947
1.05431
1.10952
1.14404
1.16365
1.17399
1.17916
1.18166
1.18284
1.18338
1.18363
1.18374
1.18378
1.18381
1.18381
1.18382
1.18382
1.18382
1.18382
1.18382
1.18382
1.18382
0.658526
0.658501
0.658458
0.658386
0.658266
0.658067
0.657741
0.65721
0.656357
0.655007
0.652906
0.649704
0.644941
0.638059
0.62845
0.615556
0.599021
0.578838
0.555444
0.529683
0.502639
0.475416
0.44895
0.423905
0.40066
0.379372
0.360031
0.342526
0.326698
0.312368
0.299361
0.287516
0.27669
0.266763
0.257633
0.24921
0.241382
0.234076
0.227238
0.220824
0.214794
0.209115
0.203758
0.1987
0.193921
0.189404
0.185134
0.181099
0.17729
0.173698
0.170319
0.167152
0.1642
0.161473
0.15899
0.156789
0.154962
0.153588
0.152771
0.152846
0.15432
0.158169
0.165399
0.175409
0.188046
0.203417
0.221827
0.243768
0.269932
0.301244
0.338894
0.384405
0.439759
0.50701
0.587661
0.681513
0.785029
0.890127
0.985481
1.06128
1.114
1.14662
1.16501
1.17467
1.17948
1.18181
1.18291
1.18341
1.18364
1.18374
1.18379
1.18381
1.18382
1.18382
1.18382
1.18382
1.18382
1.18382
1.18382
1.18382
0.658526
0.658501
0.658458
0.658387
0.658268
0.65807
0.657746
0.657219
0.656372
0.655031
0.652945
0.649764
0.645032
0.638193
0.628637
0.615809
0.599344
0.579229
0.555894
0.530173
0.503147
0.475921
0.449433
0.424354
0.401072
0.379743
0.36036
0.342816
0.32695
0.312586
0.299548
0.287674
0.276822
0.26687
0.257717
0.249274
0.241426
0.234102
0.227247
0.220817
0.214771
0.209077
0.203707
0.198636
0.193845
0.189316
0.185035
0.180991
0.177173
0.173575
0.170191
0.16702
0.164067
0.161342
0.158865
0.156677
0.15488
0.153542
0.152783
0.152954
0.154593
0.15874
0.166222
0.176476
0.189374
0.20504
0.223793
0.246144
0.272804
0.304721
0.343111
0.389537
0.446004
0.514537
0.596515
0.691475
0.795466
0.899997
0.993686
1.06722
1.11778
1.14878
1.16616
1.17524
1.17976
1.18194
1.18296
1.18344
1.18365
1.18375
1.18379
1.18381
1.18382
1.18382
1.18382
1.18382
1.18382
1.18382
1.18382
1.18382
0.658526
0.658501
0.658459
0.658388
0.658269
0.658073
0.657751
0.657227
0.656385
0.655052
0.652978
0.649816
0.64511
0.638306
0.628797
0.616022
0.599616
0.579559
0.556271
0.530581
0.503569
0.476338
0.449832
0.424724
0.401407
0.380041
0.360623
0.343045
0.327148
0.312754
0.299689
0.287791
0.276917
0.266946
0.257774
0.249313
0.24145
0.23411
0.227242
0.220798
0.21474
0.209034
0.203652
0.198571
0.19377
0.189232
0.184943
0.180891
0.177067
0.173464
0.170076
0.166903
0.163949
0.161226
0.158756
0.156579
0.154808
0.153501
0.152793
0.153048
0.154832
0.159243
0.166947
0.177417
0.190544
0.206468
0.225523
0.248233
0.27533
0.30778
0.346822
0.394057
0.451506
0.521164
0.604296
0.700196
0.804544
0.908506
1.00069
1.07224
1.12095
1.15059
1.16712
1.17571
1.17999
1.18204
1.18301
1.18346
1.18366
1.18375
1.18379
1.18381
1.18382
1.18382
1.18382
1.18382
1.18382
1.18382
1.18382
1.18382
0.658526
0.658501
0.658459
0.658389
0.658271
0.658076
0.657755
0.657234
0.656396
0.65507
0.653006
0.64986
0.645176
0.638402
0.62893
0.6162
0.599843
0.579832
0.556582
0.530918
0.503914
0.476679
0.450156
0.425022
0.401675
0.380279
0.36083
0.343223
0.3273
0.312882
0.299796
0.287877
0.276985
0.266997
0.25781
0.249335
0.241459
0.234107
0.227227
0.220773
0.214704
0.208988
0.203598
0.198508
0.193699
0.189154
0.184859
0.180802
0.176973
0.173366
0.169975
0.166801
0.163848
0.161128
0.158664
0.156496
0.154749
0.153464
0.1528
0.153129
0.155039
0.159683
0.16758
0.178238
0.191564
0.207711
0.227027
0.250049
0.277524
0.310437
0.350047
0.397989
0.456292
0.526926
0.611048
0.707737
0.81235
0.915766
1.00661
1.07645
1.12359
1.15209
1.16791
1.17611
1.18017
1.18213
1.18305
1.18348
1.18367
1.18376
1.18379
1.18381
1.18382
1.18382
1.18382
1.18382
1.18382
1.18382
1.18382
1.18382
0.658526
0.658501
0.65846
0.658389
0.658272
0.658078
0.657758
0.657239
0.656405
0.655085
0.65303
0.649896
0.645231
0.638481
0.62904
0.616347
0.600029
0.580055
0.556836
0.531191
0.504193
0.476952
0.450413
0.425258
0.401887
0.380465
0.360992
0.343361
0.327416
0.312979
0.299874
0.28794
0.277033
0.267031
0.257832
0.249345
0.241458
0.234097
0.227207
0.220744
0.214667
0.208944
0.203546
0.19845
0.193635
0.189084
0.184784
0.180723
0.176891
0.173281
0.169889
0.166715
0.163764
0.161048
0.158591
0.156436
0.154713
0.153415
0.152796
0.153192
0.155214
0.16006
0.168125
0.178943
0.192438
0.208776
0.228314
0.251602
0.279401
0.312711
0.352807
0.401356
0.460392
0.531859
0.61682
0.714165
0.818969
0.921881
1.01156
1.07994
1.12577
1.15333
1.16856
1.17643
1.18033
1.18221
1.18309
1.18349
1.18368
1.18376
1.18379
1.18381
1.18382
1.18382
1.18382
1.18382
1.18382
1.18382
1.18382
1.18382
0.658526
0.658502
0.65846
0.65839
0.658273
0.658079
0.657761
0.657244
0.656413
0.655097
0.653049
0.649926
0.645275
0.638545
0.62913
0.616466
0.600179
0.580235
0.55704
0.531409
0.504417
0.47717
0.450618
0.425445
0.402053
0.38061
0.361116
0.343466
0.327503
0.31305
0.299931
0.287983
0.277064
0.267052
0.257843
0.249347
0.241452
0.234082
0.227186
0.220715
0.214632
0.208903
0.203499
0.198398
0.193578
0.189023
0.184719
0.180655
0.17682
0.173209
0.169816
0.166642
0.163692
0.160979
0.158527
0.15638
0.154668
0.153387
0.152799
0.153248
0.155361
0.160375
0.168579
0.179532
0.193169
0.209666
0.229391
0.252903
0.280974
0.314616
0.355123
0.404182
0.463835
0.536
0.62166
0.71954
0.824483
0.926947
1.01564
1.0828
1.12755
1.15433
1.16908
1.17669
1.18046
1.18226
1.18311
1.1835
1.18368
1.18376
1.1838
1.18381
1.18382
1.18382
1.18382
1.18382
1.18382
1.18382
1.18382
1.18382
0.658526
0.658502
0.65846
0.65839
0.658274
0.658081
0.657763
0.657248
0.656419
0.655107
0.653065
0.64995
0.64531
0.638596
0.629201
0.61656
0.600298
0.580377
0.5572
0.531581
0.504591
0.47734
0.450777
0.425589
0.40218
0.380721
0.36121
0.343545
0.327568
0.313102
0.299971
0.288013
0.277085
0.267064
0.257847
0.249344
0.241442
0.234067
0.227164
0.220689
0.214601
0.208866
0.203459
0.198353
0.193529
0.188972
0.184665
0.180598
0.176761
0.173148
0.169755
0.166581
0.163632
0.160921
0.158473
0.156333
0.15463
0.153365
0.152803
0.153294
0.155481
0.16063
0.168947
0.180009
0.193763
0.21039
0.230267
0.253962
0.282255
0.31617
0.357012
0.406491
0.466647
0.539383
0.625611
0.72392
0.828962
0.931045
1.01892
1.08509
1.12897
1.15513
1.1695
1.1769
1.18056
1.18231
1.18313
1.18351
1.18369
1.18376
1.1838
1.18381
1.18382
1.18382
1.18382
1.18382
1.18382
1.18382
1.18382
1.18382
0.658526
0.658502
0.65846
0.65839
0.658274
0.658082
0.657765
0.657251
0.656424
0.655115
0.653077
0.649968
0.645338
0.638635
0.629255
0.616632
0.600389
0.580485
0.557322
0.531711
0.504723
0.477467
0.450896
0.425696
0.402275
0.380802
0.361279
0.343602
0.327614
0.313138
0.299999
0.288033
0.277098
0.26707
0.257847
0.249339
0.241432
0.234052
0.227146
0.220666
0.214574
0.208836
0.203425
0.198316
0.19349
0.18893
0.184621
0.180552
0.176714
0.1731
0.169706
0.166533
0.163584
0.160875
0.15843
0.156295
0.1546
0.153348
0.152806
0.153331
0.155574
0.160828
0.169234
0.180381
0.194226
0.210956
0.230953
0.254791
0.283259
0.317389
0.358495
0.408303
0.468857
0.54204
0.62871
0.72735
0.832461
0.934236
1.02147
1.08687
1.13007
1.15575
1.16983
1.17706
1.18063
1.18235
1.18315
1.18352
1.18369
1.18376
1.1838
1.18381
1.18382
1.18382
1.18382
1.18382
1.18382
1.18382
1.18382
1.18382
0.658526
0.658502
0.65846
0.658391
0.658275
0.658082
0.657766
0.657253
0.656427
0.65512
0.653085
0.649981
0.645357
0.638664
0.629294
0.616684
0.600454
0.580563
0.55741
0.531804
0.504817
0.477558
0.45098
0.425772
0.402342
0.380859
0.361327
0.343641
0.327646
0.313163
0.300017
0.288046
0.277105
0.267073
0.257846
0.249334
0.241424
0.23404
0.22713
0.220648
0.214553
0.208813
0.203399
0.198288
0.19346
0.188898
0.184588
0.180518
0.176679
0.173064
0.16967
0.166496
0.163549
0.160841
0.158398
0.156266
0.154578
0.153335
0.152808
0.153357
0.155641
0.160973
0.169444
0.180655
0.194566
0.211372
0.231458
0.255402
0.283999
0.318287
0.359588
0.40964
0.470487
0.543999
0.630994
0.729872
0.835027
0.93657
1.02333
1.08817
1.13087
1.1562
1.17007
1.17718
1.18069
1.18237
1.18316
1.18353
1.18369
1.18376
1.1838
1.18381
1.18382
1.18382
1.18382
1.18382
1.18382
1.18382
1.18382
1.18382
0.658526
0.658502
0.65846
0.658391
0.658275
0.658083
0.657767
0.657254
0.656429
0.655124
0.653091
0.64999
0.64537
0.638682
0.62932
0.616718
0.600496
0.580613
0.557466
0.531864
0.504877
0.477616
0.451034
0.425821
0.402384
0.380895
0.361357
0.343666
0.327665
0.313178
0.300028
0.288053
0.27711
0.267074
0.257844
0.24933
0.241417
0.234032
0.22712
0.220635
0.214539
0.208797
0.203382
0.19827
0.19344
0.188877
0.184566
0.180495
0.176655
0.17304
0.169646
0.166472
0.163525
0.160818
0.158377
0.156248
0.154563
0.153326
0.152809
0.153374
0.155686
0.161068
0.169582
0.180834
0.19479
0.211646
0.231789
0.255803
0.284485
0.318877
0.360307
0.410519
0.471558
0.545285
0.63249
0.73152
0.836697
0.938083
1.02453
1.08901
1.13139
1.15649
1.17022
1.17726
1.18073
1.18239
1.18317
1.18353
1.18369
1.18377
1.1838
1.18381
1.18382
1.18382
1.18382
1.18382
1.18382
1.18382
1.18382
1.18382
0.658527
0.658502
0.65846
0.658391
0.658275
0.658083
0.657768
0.657255
0.656431
0.655125
0.653094
0.649994
0.645376
0.638691
0.629332
0.616734
0.600516
0.580637
0.557493
0.531892
0.504906
0.477644
0.45106
0.425844
0.402404
0.380913
0.361371
0.343678
0.327675
0.313185
0.300033
0.288057
0.277111
0.267074
0.257843
0.249328
0.241414
0.234027
0.227114
0.220629
0.214531
0.208789
0.203373
0.19826
0.19343
0.188867
0.184555
0.180484
0.176644
0.173028
0.169634
0.16646
0.163513
0.160807
0.158367
0.156238
0.154556
0.153322
0.15281
0.153382
0.155708
0.161115
0.16965
0.180923
0.1949
0.21178
0.231952
0.256
0.284723
0.319166
0.360658
0.410946
0.472078
0.545906
0.633209
0.732308
0.83749
0.938795
1.02509
1.0894
1.13164
1.15663
1.17029
1.17729
1.18074
1.1824
1.18318
1.18353
1.18369
1.18377
1.1838
1.18381
1.18382
1.18382
1.18382
1.18382
1.18382
1.18382
1.18382
1.18382
0.658527
0.658502
0.65846
0.658391
0.658275
0.658083
0.657768
0.657255
0.656431
0.655125
0.653094
0.649994
0.645376
0.638691
0.629332
0.616734
0.600516
0.580637
0.557493
0.531892
0.504906
0.477644
0.45106
0.425844
0.402404
0.380913
0.361371
0.343678
0.327675
0.313185
0.300033
0.288057
0.277111
0.267074
0.257843
0.249328
0.241414
0.234027
0.227114
0.220629
0.214531
0.208789
0.203373
0.19826
0.19343
0.188867
0.184555
0.180484
0.176644
0.173028
0.169634
0.16646
0.163513
0.160807
0.158367
0.156238
0.154556
0.153322
0.15281
0.153382
0.155708
0.161115
0.16965
0.180923
0.1949
0.21178
0.231952
0.256
0.284723
0.319166
0.360658
0.410946
0.472078
0.545906
0.633209
0.732308
0.83749
0.938795
1.02509
1.0894
1.13164
1.15663
1.17029
1.17729
1.18074
1.1824
1.18318
1.18353
1.18369
1.18377
1.1838
1.18381
1.18382
1.18382
1.18382
1.18382
1.18382
1.18382
1.18382
1.18382
0.658526
0.658502
0.65846
0.658391
0.658275
0.658083
0.657767
0.657254
0.656429
0.655124
0.653091
0.64999
0.64537
0.638682
0.62932
0.616718
0.600496
0.580613
0.557466
0.531864
0.504877
0.477616
0.451034
0.425821
0.402384
0.380895
0.361357
0.343666
0.327665
0.313178
0.300028
0.288053
0.27711
0.267074
0.257844
0.24933
0.241417
0.234032
0.22712
0.220635
0.214539
0.208797
0.203382
0.19827
0.19344
0.188877
0.184566
0.180495
0.176655
0.17304
0.169646
0.166472
0.163525
0.160818
0.158377
0.156248
0.154563
0.153327
0.152809
0.153374
0.155686
0.161068
0.169582
0.180835
0.19479
0.211646
0.231789
0.255803
0.284485
0.318878
0.360307
0.410519
0.471559
0.545285
0.63249
0.73152
0.836697
0.938083
1.02453
1.08901
1.13139
1.15649
1.17022
1.17726
1.18073
1.18239
1.18317
1.18353
1.18369
1.18377
1.1838
1.18381
1.18382
1.18382
1.18382
1.18382
1.18382
1.18382
1.18382
1.18382
0.658526
0.658502
0.65846
0.658391
0.658275
0.658082
0.657766
0.657253
0.656427
0.65512
0.653085
0.649981
0.645357
0.638664
0.629294
0.616684
0.600454
0.580563
0.55741
0.531804
0.504817
0.477558
0.45098
0.425772
0.402342
0.380859
0.361327
0.343641
0.327646
0.313163
0.300017
0.288046
0.277106
0.267073
0.257846
0.249334
0.241424
0.23404
0.22713
0.220648
0.214553
0.208813
0.203399
0.198288
0.19346
0.188898
0.184588
0.180518
0.176679
0.173064
0.16967
0.166496
0.163549
0.160841
0.158398
0.156266
0.154578
0.153335
0.152808
0.153357
0.155641
0.160973
0.169444
0.180655
0.194567
0.211372
0.231458
0.255402
0.283999
0.318287
0.359588
0.40964
0.470487
0.543999
0.630994
0.729872
0.835027
0.93657
1.02333
1.08817
1.13087
1.1562
1.17007
1.17718
1.18069
1.18237
1.18316
1.18353
1.18369
1.18376
1.1838
1.18381
1.18382
1.18382
1.18382
1.18382
1.18382
1.18382
1.18382
1.18382
0.658526
0.658502
0.65846
0.65839
0.658274
0.658082
0.657765
0.657251
0.656424
0.655115
0.653077
0.649968
0.645338
0.638635
0.629255
0.616632
0.600389
0.580485
0.557322
0.531711
0.504723
0.477467
0.450896
0.425696
0.402275
0.380802
0.361279
0.343602
0.327614
0.313138
0.299999
0.288033
0.277098
0.26707
0.257848
0.24934
0.241432
0.234052
0.227146
0.220666
0.214574
0.208836
0.203425
0.198316
0.19349
0.18893
0.184621
0.180552
0.176714
0.1731
0.169706
0.166533
0.163584
0.160875
0.15843
0.156295
0.1546
0.153348
0.152806
0.153331
0.155574
0.160828
0.169234
0.180382
0.194226
0.210956
0.230953
0.254791
0.283259
0.317389
0.358495
0.408303
0.468857
0.54204
0.628711
0.727351
0.832461
0.934237
1.02147
1.08687
1.13007
1.15575
1.16983
1.17706
1.18063
1.18235
1.18315
1.18352
1.18369
1.18376
1.1838
1.18381
1.18382
1.18382
1.18382
1.18382
1.18382
1.18382
1.18382
1.18382
0.658526
0.658502
0.65846
0.65839
0.658274
0.658081
0.657763
0.657248
0.656419
0.655107
0.653065
0.64995
0.64531
0.638596
0.629201
0.61656
0.600298
0.580377
0.5572
0.531581
0.504591
0.47734
0.450777
0.425589
0.402181
0.380721
0.36121
0.343545
0.327568
0.313102
0.299971
0.288013
0.277085
0.267064
0.257847
0.249344
0.241442
0.234067
0.227165
0.220689
0.214601
0.208867
0.203459
0.198353
0.193529
0.188972
0.184665
0.180598
0.176761
0.173148
0.169755
0.166581
0.163632
0.160921
0.158473
0.156333
0.15463
0.153365
0.152803
0.153295
0.155481
0.16063
0.168947
0.180009
0.193763
0.21039
0.230268
0.253962
0.282255
0.31617
0.357013
0.406491
0.466648
0.539384
0.625612
0.723921
0.828963
0.931046
1.01892
1.08509
1.12897
1.15513
1.1695
1.1769
1.18056
1.18231
1.18313
1.18351
1.18369
1.18376
1.1838
1.18381
1.18382
1.18382
1.18382
1.18382
1.18382
1.18382
1.18382
1.18382
0.658526
0.658502
0.65846
0.65839
0.658273
0.658079
0.657761
0.657244
0.656413
0.655097
0.653049
0.649926
0.645275
0.638545
0.62913
0.616466
0.600179
0.580236
0.55704
0.53141
0.504417
0.47717
0.450618
0.425445
0.402053
0.38061
0.361116
0.343466
0.327503
0.31305
0.299931
0.287983
0.277064
0.267052
0.257843
0.249347
0.241452
0.234083
0.227186
0.220715
0.214632
0.208903
0.203499
0.198398
0.193578
0.189023
0.184719
0.180655
0.17682
0.173209
0.169816
0.166642
0.163692
0.160979
0.158527
0.15638
0.154669
0.153387
0.152799
0.153248
0.155361
0.160375
0.16858
0.179532
0.193169
0.209667
0.229391
0.252903
0.280974
0.314617
0.355123
0.404183
0.463835
0.536001
0.621661
0.719541
0.824484
0.926948
1.01564
1.0828
1.12755
1.15433
1.16908
1.17669
1.18046
1.18226
1.18311
1.1835
1.18368
1.18376
1.1838
1.18381
1.18382
1.18382
1.18382
1.18382
1.18382
1.18382
1.18382
1.18382
0.658526
0.658501
0.65846
0.658389
0.658272
0.658078
0.657758
0.657239
0.656405
0.655085
0.65303
0.649896
0.645231
0.638481
0.62904
0.616347
0.600029
0.580055
0.556836
0.531191
0.504194
0.476952
0.450414
0.425259
0.401887
0.380466
0.360992
0.343361
0.327416
0.312979
0.299874
0.28794
0.277033
0.267031
0.257832
0.249345
0.241458
0.234097
0.227208
0.220744
0.214667
0.208944
0.203546
0.19845
0.193635
0.189084
0.184784
0.180723
0.176891
0.173281
0.169889
0.166715
0.163764
0.161048
0.158591
0.156436
0.154713
0.153415
0.152796
0.153192
0.155214
0.16006
0.168125
0.178943
0.192438
0.208776
0.228314
0.251603
0.279402
0.312711
0.352808
0.401357
0.460393
0.53186
0.616822
0.714166
0.818971
0.921883
1.01157
1.07994
1.12578
1.15333
1.16856
1.17643
1.18033
1.18221
1.18309
1.18349
1.18368
1.18376
1.18379
1.18381
1.18382
1.18382
1.18382
1.18382
1.18382
1.18382
1.18382
1.18382
0.658526
0.658501
0.658459
0.658389
0.658271
0.658076
0.657755
0.657234
0.656396
0.65507
0.653006
0.64986
0.645176
0.638402
0.62893
0.616201
0.599843
0.579832
0.556582
0.530918
0.503915
0.476679
0.450157
0.425022
0.401675
0.380279
0.36083
0.343223
0.3273
0.312883
0.299796
0.287878
0.276985
0.266997
0.25781
0.249335
0.241459
0.234107
0.227227
0.220773
0.214704
0.208988
0.203598
0.198508
0.193699
0.189154
0.184859
0.180802
0.176973
0.173366
0.169975
0.166801
0.163848
0.161128
0.158664
0.156496
0.154749
0.153464
0.1528
0.153129
0.155039
0.159683
0.16758
0.178238
0.191564
0.207711
0.227027
0.250049
0.277525
0.310438
0.350048
0.39799
0.456294
0.526927
0.61105
0.707739
0.812352
0.915768
1.00661
1.07645
1.12359
1.15209
1.16791
1.17611
1.18017
1.18213
1.18305
1.18348
1.18367
1.18376
1.18379
1.18381
1.18382
1.18382
1.18382
1.18382
1.18382
1.18382
1.18382
1.18382
0.658526
0.658501
0.658459
0.658388
0.658269
0.658073
0.657751
0.657227
0.656385
0.655052
0.652978
0.649816
0.64511
0.638306
0.628797
0.616022
0.599616
0.579559
0.556271
0.530582
0.503569
0.476339
0.449833
0.424724
0.401407
0.380042
0.360623
0.343045
0.327148
0.312754
0.29969
0.287791
0.276917
0.266946
0.257774
0.249313
0.24145
0.234111
0.227242
0.220798
0.21474
0.209034
0.203652
0.198571
0.19377
0.189232
0.184943
0.180891
0.177067
0.173464
0.170076
0.166903
0.163949
0.161226
0.158756
0.156579
0.154809
0.153501
0.152793
0.153049
0.154832
0.159243
0.166947
0.177418
0.190545
0.206468
0.225523
0.248234
0.275331
0.307781
0.346823
0.394059
0.451508
0.521166
0.604298
0.700198
0.804547
0.908509
1.00069
1.07224
1.12095
1.15059
1.16712
1.17571
1.17999
1.18204
1.18301
1.18346
1.18366
1.18375
1.18379
1.18381
1.18382
1.18382
1.18382
1.18382
1.18382
1.18382
1.18382
1.18382
0.658526
0.658501
0.658458
0.658387
0.658268
0.65807
0.657746
0.657219
0.656372
0.655031
0.652945
0.649764
0.645032
0.638193
0.628638
0.615809
0.599344
0.57923
0.555895
0.530173
0.503147
0.475921
0.449434
0.424355
0.401072
0.379743
0.360361
0.342816
0.326951
0.312586
0.299548
0.287674
0.276822
0.26687
0.257718
0.249274
0.241426
0.234102
0.227247
0.220817
0.214771
0.209077
0.203707
0.198636
0.193845
0.189316
0.185035
0.180991
0.177173
0.173575
0.170191
0.167021
0.164067
0.161342
0.158865
0.156677
0.15488
0.153542
0.152783
0.152954
0.154593
0.15874
0.166222
0.176477
0.189375
0.20504
0.223794
0.246145
0.272805
0.304722
0.343112
0.389539
0.446006
0.514539
0.596518
0.691478
0.795469
0.9
0.993689
1.06722
1.11778
1.14878
1.16616
1.17524
1.17976
1.18194
1.18296
1.18344
1.18365
1.18375
1.18379
1.18381
1.18382
1.18382
1.18382
1.18382
1.18382
1.18382
1.18382
1.18382
0.658526
0.658501
0.658458
0.658386
0.658266
0.658067
0.657741
0.65721
0.656357
0.655007
0.652906
0.649704
0.644941
0.63806
0.62845
0.615557
0.599021
0.578838
0.555445
0.529683
0.502639
0.475417
0.448951
0.423905
0.40066
0.379372
0.360031
0.342527
0.326699
0.312368
0.299361
0.287516
0.276691
0.266763
0.257633
0.24921
0.241382
0.234076
0.227239
0.220824
0.214794
0.209115
0.203758
0.1987
0.193921
0.189404
0.185134
0.181099
0.17729
0.173698
0.17032
0.167153
0.1642
0.161473
0.15899
0.156789
0.154962
0.153589
0.152771
0.152846
0.154321
0.158169
0.1654
0.17541
0.188046
0.203417
0.221828
0.243769
0.269933
0.301245
0.338895
0.384407
0.439761
0.507012
0.587664
0.681516
0.785033
0.890131
0.985485
1.06128
1.114
1.14662
1.16501
1.17467
1.17948
1.18181
1.18291
1.18341
1.18364
1.18374
1.18379
1.18381
1.18382
1.18382
1.18382
1.18382
1.18382
1.18382
1.18382
1.18382
0.658526
0.6585
0.658457
0.658385
0.658264
0.658064
0.657735
0.6572
0.65634
0.654979
0.652862
0.649635
0.644837
0.637906
0.628233
0.615262
0.598642
0.578376
0.554912
0.5291
0.502031
0.474809
0.448363
0.423352
0.400153
0.378914
0.359621
0.342163
0.326379
0.312089
0.299119
0.287308
0.276514
0.266616
0.257513
0.249115
0.24131
0.234026
0.227209
0.220814
0.214803
0.209141
0.203801
0.19876
0.193996
0.189493
0.185236
0.181213
0.177414
0.173831
0.17046
0.167297
0.164347
0.161618
0.159129
0.156914
0.155055
0.153642
0.15276
0.152727
0.154018
0.157532
0.16448
0.174214
0.186555
0.201594
0.219617
0.241097
0.266704
0.297336
0.334156
0.378646
0.432754
0.498562
0.577703
0.67026
0.773157
0.878792
0.975951
1.05431
1.10953
1.14404
1.16365
1.17399
1.17916
1.18166
1.18284
1.18338
1.18363
1.18374
1.18378
1.18381
1.18381
1.18382
1.18382
1.18382
1.18382
1.18382
1.18382
1.18382
0.658526
0.6585
0.658457
0.658384
0.658262
0.65806
0.657728
0.657188
0.656321
0.654948
0.652812
0.649557
0.644718
0.637731
0.627984
0.614924
0.598205
0.577839
0.554288
0.528413
0.501311
0.474084
0.44766
0.422687
0.399541
0.378354
0.359116
0.341711
0.325977
0.311734
0.298808
0.287037
0.27628
0.266417
0.257346
0.248978
0.2412
0.233942
0.22715
0.22078
0.21479
0.20915
0.203831
0.198809
0.194063
0.189577
0.185336
0.181328
0.177542
0.173971
0.170609
0.167453
0.164507
0.161778
0.159283
0.157053
0.155161
0.153708
0.152757
0.152609
0.153704
0.156863
0.163484
0.172902
0.18491
0.199575
0.217164
0.238128
0.263115
0.292993
0.328893
0.372254
0.42498
0.48918
0.566618
0.657676
0.759782
0.865887
0.964968
1.04618
1.10427
1.14099
1.16203
1.17318
1.17877
1.18148
1.18275
1.18334
1.18361
1.18373
1.18378
1.1838
1.18381
1.18382
1.18382
1.18382
1.18382
1.18382
1.18382
1.18382
0.658526
0.6585
0.658456
0.658382
0.658259
0.658056
0.657721
0.657176
0.656301
0.654915
0.652758
0.649472
0.644586
0.637534
0.627703
0.614539
0.597703
0.57722
0.553565
0.527612
0.500465
0.473228
0.446823
0.421891
0.398796
0.377671
0.358496
0.341153
0.325477
0.311289
0.298414
0.28669
0.275976
0.266154
0.257121
0.248788
0.241043
0.233816
0.227054
0.220711
0.214749
0.209135
0.20384
0.198841
0.194117
0.189652
0.185431
0.18144
0.17767
0.174113
0.170763
0.167617
0.164677
0.161949
0.15945
0.157209
0.155286
0.153792
0.152774
0.152516
0.153423
0.156247
0.162462
0.171507
0.183132
0.197377
0.214484
0.234879
0.259182
0.288232
0.323123
0.365252
0.416466
0.478897
0.554438
0.64378
0.744889
0.851349
0.952422
1.03677
1.09811
1.13741