/*--------------------------------*- C++ -*----------------------------------*\
  =========                 |
  \\      /  F ield         | OpenFOAM: The Open Source CFD Toolbox
   \\    /   O peration     | Website:  https://openfoam.org
    \\  /    A nd           | Version:  8
     \\/     M anipulation  |
\*---------------------------------------------------------------------------*/
FoamFile
{
    version     2.0;
    format      ascii;
    class       volScalarField;
    location    "0.4/fluid";
    object      T;
}
// * * * * * * * * * * * * * * * * * * * * * * * * * * * * * * * * * * * * * //

dimensions      [0 0 0 1 0 0 0];

internalField   nonuniform List<scalar> 
4000
(
293.004
293.017
293.039
293.077
293.139
293.242
293.412
293.69
294.14
294.86
295.995
297.753
300.424
304.388
310.115
318.143
329.022
343.238
361.13
382.833
408.266
437.168
469.17
503.865
540.865
579.835
620.503
662.656
706.162
750.914
796.771
843.646
891.447
940.071
989.396
1039.36
1089.98
1141.18
1192.85
1244.9
1297.21
1349.7
1402.24
1454.73
1507.06
1559.11
1610.78
1661.94
1712.48
1762.27
1811.19
1859.08
1905.75
1950.99
1994.47
2035.75
2074.13
2108.1
2136.32
2157.37
2166.42
2156.87
2117.67
2039.31
1937.42
1821.54
1697.79
1570.14
1441.28
1313.09
1187
1064.24
945.922
832.99
726.67
628.683
541.295
466.795
407.003
362.581
332.451
313.884
303.421
297.976
295.307
294.045
293.464
293.203
293.088
293.037
293.016
293.007
293.003
293.001
293
293
293
293
293
293
293.004
293.017
293.039
293.076
293.139
293.242
293.412
293.691
294.141
294.859
295.989
297.734
300.379
304.293
309.934
317.827
328.511
342.469
360.05
381.409
406.488
435.053
466.754
501.196
537.997
576.823
617.399
659.53
703.053
747.787
793.67
840.606
888.498
937.239
986.706
1036.82
1087.61
1138.99
1190.86
1243.12
1295.65
1348.36
1401.13
1453.85
1506.41
1558.7
1610.6
1661.99
1712.75
1762.76
1811.88
1859.96
1906.81
1952.2
1995.8
2037.14
2075.52
2109.26
2137.16
2157.62
2165.58
2154.15
2111.7
2031.07
1927.47
1810.27
1685.43
1556.85
1427.18
1298.29
1171.62
1048.42
929.845
816.878
710.893
613.811
527.954
455.608
398.416
356.672
328.856
311.952
302.494
297.565
295.135
293.976
293.438
293.193
293.084
293.036
293.015
293.006
293.003
293.001
293
293
293
293
293
293
293.004
293.017
293.039
293.077
293.139
293.242
293.413
293.692
294.142
294.86
295.987
297.725
300.353
304.233
309.815
317.61
328.149
341.906
359.231
380.286
405.03
433.249
464.61
498.735
535.253
573.835
614.219
656.207
699.573
744.231
790.076
837.013
884.945
933.764
983.346
1033.6
1084.56
1136.14
1188.24
1240.75
1293.56
1346.56
1399.65
1452.7
1505.59
1558.23
1610.48
1662.22
1713.32
1763.67
1813.11
1861.5
1908.63
1954.25
1998.03
2039.48
2077.84
2111.18
2138.63
2158.09
2164.25
2149.71
2101.94
2017.65
1911.44
1792.31
1666.01
1536.34
1405.88
1276.47
1149.57
1026.48
908.375
796.297
691.763
596.777
513.646
444.453
390.482
351.591
325.935
310.431
301.765
297.233
294.989
293.914
293.412
293.182
293.08
293.034
293.015
293.006
293.003
293.001
293
293
293
293
293
293
293.004
293.017
293.039
293.076
293.138
293.242
293.412
293.689
294.136
294.848
295.964
297.683
300.279
304.11
309.615
317.301
327.69
341.255
358.349
379.143
403.607
431.542
462.627
496.493
532.776
571.15
611.368
653.168
696.417
740.988
786.777
833.691
881.635
930.503
980.173
1030.55
1081.66
1133.42
1185.74
1238.49
1291.58
1344.89
1398.3
1451.71
1504.98
1558
1610.63
1662.77
1714.27
1765
1814.81
1863.55
1910.99
1956.87
2000.83
2042.33
2080.58
2113.37
2140.77
2158.86
2162.75
2144.42
2090.24
2001.67
1892.49
1771.27
1643.51
1512.87
1381.82
1252.2
1125.47
1002.92
885.737
774.996
672.3
579.704
499.436
433.385
382.531
346.383
322.835
308.743
300.913
296.828
294.804
293.831
293.376
293.167
293.073
293.032
293.014
293.006
293.002
293.001
293
293
293
293
293
293
293.004
293.017
293.039
293.076
293.138
293.24
293.409
293.684
294.128
294.834
295.939
297.641
300.209
303.995
309.435
317.027
327.288
340.692
357.59
378.163
402.392
430.087
460.939
494.586
530.668
568.867
608.908
650.583
693.729
738.221
783.959
830.85
878.802
927.711
977.457
1027.93
1079.18
1131.11
1183.63
1236.62
1289.98
1343.58
1397.32
1451.07
1504.71
1558.1
1611.13
1663.66
1715.56
1766.68
1816.88
1865.96
1913.72
1959.86
2004
2045.56
2083.69
2116.1
2142.81
2159.54
2161.08
2138.77
2077.9
1984.92
1872.76
1749.51
1620.42
1488.97
1357.55
1227.96
1101.63
979.875
863.817
754.618
653.919
563.806
486.408
423.411
375.497
341.86
320.183
307.313
300.194
296.484
294.645
293.76
293.344
293.153
293.067
293.029
293.013
293.005
293.002
293.001
293
293
293
293
293
293
293.004
293.017
293.039
293.075
293.137
293.238
293.406
293.678
294.118
294.816
295.91
297.593
300.131
303.873
309.25
316.754
326.9
340.161
356.894
377.283
401.319
428.821
459.488
492.963
528.888
566.956
606.872
648.444
691.508
735.942
781.643
828.522
876.488
925.441
975.26
1025.84
1077.21
1129.3
1182.01
1235.22
1288.82
1342.7
1396.75
1450.82
1504.8
1558.55
1611.95
1664.85
1717.13
1768.62
1819.17
1868.59
1916.64
1963.03
2007.32
2048.93
2086.85
2118.85
2144.78
2160.13
2159.32
2133.07
2065.7
1968.48
1853.52
1728.43
1598.19
1466.1
1334.48
1205.06
1079.27
958.403
843.525
735.886
637.147
549.404
474.684
414.481
369.216
337.813
317.794
306.008
299.526
296.16
294.493
293.69
293.313
293.14
293.062
293.027
293.011
293.005
293.002
293.001
293
293
293
293
293
293
293.004
293.017
293.038
293.075
293.136
293.236
293.402
293.672
294.107
294.799
295.882
297.547
300.059
303.761
309.081
316.508
326.555
339.694
356.285
376.519
400.396
427.74
458.257
491.594
527.4
565.349
605.179
646.68
689.69
734.087
779.77
826.653
874.644
923.647
973.542
1024.22
1075.71
1127.95
1180.84
1234.25
1288.09
1342.23
1396.54
1450.91
1505.2
1559.28
1613.02
1666.26
1718.88
1770.71
1821.58
1871.29
1919.6
1966.19
2010.61
2052.22
2089.85
2121.41
2146.52
2160.45
2157.28
2127.16
2053.86
1952.83
1835.4
1708.73
1577.53
1444.97
1313.26
1184.11
1058.9
938.922
825.195
719.028
622.138
536.597
464.332
406.661
363.765
334.331
315.752
304.898
298.959
295.885
294.363
293.631
293.287
293.128
293.056
293.025
293.011
293.005
293.002
293.001
293
293
293
293
293
293
293.004
293.017
293.038
293.074
293.134
293.234
293.399
293.666
294.097
294.782
295.854
297.503
299.99
303.657
308.926
316.285
326.246
339.281
355.753
375.859
399.604
426.82
457.218
490.448
526.163
564.032
603.796
645.247
688.223
732.601
778.282
825.179
873.206
922.263
972.235
1023.01
1074.62
1127
1180.05
1233.66
1287.7
1342.07
1396.63
1451.27
1505.84
1560.21
1614.25
1667.8
1720.72
1772.84
1823.99
1873.95
1922.48
1969.22
2013.72
2055.28
2092.55
2123.61
2147.81
2160.17
2154.37
2119.82
2041.98
1937.98
1818.59
1690.68
1558.75
1425.86
1294.16
1165.31
1040.7
921.56
808.905
704.099
608.903
525.359
455.299
399.879
359.063
331.34
314.001
303.944
298.469
295.645
294.25
293.579
293.263
293.118
293.052
293.023
293.01
293.004
293.002
293.001
293
293
293
293
293
293
293.004
293.016
293.038
293.074
293.133
293.232
293.395
293.661
294.088
294.767
295.829
297.464
299.929
303.564
308.789
316.09
325.977
338.923
355.295
375.294
398.932
426.045
456.348
489.494
525.134
562.947
602.668
644.089
687.047
731.42
777.111
824.033
872.101
921.218
971.267
1022.14
1073.86
1126.38
1179.58
1233.35
1287.59
1342.16
1396.94
1451.81
1506.63
1561.26
1615.56
1669.38
1722.56
1774.93
1826.31
1876.49
1925.19
1972.05
2016.58
2058.06
2094.91
2125.45
2148.7
2159.45
2150.9
2111.71
2030.48
1924.2
1803.3
1674.42
1541.94
1408.84
1277.21
1148.68
1024.62
906.259
794.582
691.01
597.339
515.581
447.481
394.044
355.045
328.8
312.52
303.139
298.055
295.443
294.154
293.534
293.243
293.109
293.048
293.021
293.009
293.004
293.002
293.001
293
293
293
293
293
293
293.004
293.016
293.038
293.073
293.132
293.231
293.392
293.655
294.079
294.753
295.807
297.429
299.875
303.482
308.669
315.92
325.745
338.616
354.905
374.817
398.366
425.397
455.626
488.711
524.296
562.068
601.76
643.162
686.114
730.493
776.202
823.155
871.268
920.444
970.569
1021.53
1073.36
1126
1179.33
1233.26
1287.66
1342.42
1397.4
1452.48
1507.51
1562.37
1616.89
1670.93
1724.33
1776.92
1828.5
1878.85
1927.69
1974.64
2019.19
2060.57
2096.98
2127.03
2149.39
2158.61
2147.51
2104.01
2019.95
1911.79
1789.65
1660
1527.1
1393.85
1262.32
1134.1
1010.57
892.898
782.1
679.63
587.316
507.138
440.761
389.057
351.63
326.651
311.271
302.461
297.707
295.272
294.073
293.496
293.226
293.101
293.045
293.019
293.008
293.004
293.002
293.001
293
293
293
293
293
293
293.004
293.016
293.037
293.073
293.131
293.229
293.39
293.651
294.072
294.741
295.788
297.398
299.827
303.411
308.567
315.775
325.547
338.356
354.576
374.416
397.895
424.859
455.029
488.064
523.612
561.356
601.031
642.426
685.38
729.772
775.504
822.491
870.65
919.885
970.082
1021.13
1073.05
1125.8
1179.26
1233.33
1287.88
1342.79
1397.94
1453.2
1508.42
1563.47
1618.18
1672.41
1726
1778.77
1830.51
1881.01
1929.96
1976.99
2021.54
2062.83
2098.85
2128.42
2149.97
2157.82
2144.45
2097.13
2010.61
1900.84
1777.66
1647.37
1514.14
1380.79
1249.37
1121.45
998.382
881.321
771.302
669.806
578.685
499.893
435.02
384.818
348.744
324.844
310.224
301.893
297.416
295.13
294.005
293.465
293.211
293.095
293.042
293.018
293.008
293.003
293.001
293.001
293
293
293
293
293
293
293.004
293.016
293.037
293.072
293.131
293.228
293.387
293.647
294.065
294.73
295.771
297.372
299.787
303.351
308.479
315.653
325.38
338.138
354.302
374.083
397.505
424.418
454.543
487.541
523.062
560.788
600.453
641.847
684.809
729.217
774.974
821.997
870.201
919.491
969.754
1020.88
1072.89
1125.73
1179.3
1233.49
1288.17
1343.22
1398.52
1453.93
1509.31
1564.51
1619.39
1673.78
1727.53
1780.44
1832.32
1882.93
1931.97
1979.05
2023.6
2064.81
2100.46
2129.64
2150.48
2157.13
2141.77
2091.11
2002.45
1891.29
1767.23
1636.41
1502.91
1369.51
1238.2
1110.55
987.896
871.37
762.035
661.389
571.308
493.72
430.147
381.236
346.317
323.331
309.351
301.421
297.174
295.011
293.948
293.438
293.199
293.089
293.039
293.017
293.007
293.003
293.001
293.001
293
293
293
293
293
293
293.004
293.016
293.037
293.072
293.13
293.226
293.385
293.644
294.06
294.721
295.756
297.349
299.753
303.3
308.406
315.55
325.241
337.958
354.075
373.809
397.186
424.058
454.15
487.12
522.622
560.336
599.998
641.395
684.368
728.795
774.578
821.635
869.881
919.222
969.545
1020.74
1072.83
1125.76
1179.42
1233.71
1288.5
1343.68
1399.1
1454.64
1510.15
1565.49
1620.5
1675.02
1728.89
1781.92
1833.9
1884.6
1933.7
1980.81
2025.34
2066.47
2101.82
2130.72
2150.97
2156.58
2139.46
2085.89
1995.38
1883.04
1758.24
1626.99
1493.29
1359.85
1228.65
1101.24
978.959
862.896
754.152
654.241
565.057
488.502
426.043
378.233
344.291
322.073
308.627
301.03
296.973
294.913
293.901
293.417
293.189
293.085
293.037
293.016
293.007
293.003
293.001
293.001
293
293
293
293
293
293
293.004
293.016
293.037
293.071
293.129
293.225
293.384
293.641
294.055
294.714
295.745
297.331
299.725
303.259
308.346
315.466
325.128
337.81
353.891
373.587
396.928
423.768
453.833
486.784
522.273
559.981
599.643
641.047
684.032
728.477
774.286
821.374
869.659
919.046
969.422
1020.67
1072.83
1125.84
1179.58
1233.96
1288.85
1344.12
1399.65
1455.29
1510.91
1566.36
1621.48
1676.11
1730.07
1783.19
1835.25
1886.01
1935.14
1982.24
2026.71
2067.68
2102.64
2132.04
2151.6
2156.21
2137.54
2081.42
1989.34
1876.01
1750.6
1619
1485.14
1351.69
1220.6
1093.41
971.437
855.767
747.529
648.243
559.82
484.142
422.624
375.739
342.615
321.036
308.032
300.709
296.809
294.832
293.863
293.399
293.181
293.081
293.036
293.016
293.007
293.003
293.001
293.001
293
293
293
293
293
293
293.004
293.016
293.037
293.071
293.129
293.225
293.382
293.639
294.051
294.708
295.735
297.316
299.702
303.224
308.296
315.397
325.036
337.691
353.742
373.409
396.723
423.538
453.584
486.521
522.001
559.706
599.37
640.782
683.78
728.243
774.074
821.191
869.509
918.936
969.358
1020.66
1072.87
1125.94
1179.76
1234.21
1289.17
1344.53
1400.14
1455.88
1511.59
1567.12
1622.33
1677.04
1731.09
1784.28
1836.41
1887.21
1936.38
1983.48
2027.92
2068.81
2103.64
2132.85
2151.98
2155.84
2135.92
2077.71
1984.32
1870.18
1744.26
1612.38
1478.4
1344.94
1213.94
1086.92
965.216
849.874
742.057
643.292
555.504
480.555
419.818
373.699
341.248
320.192
307.549
300.449
296.676
294.767
293.832
293.384
293.175
293.078
293.035
293.015
293.007
293.003
293.001
293.001
293
293
293
293
293
293
293.004
293.016
293.036
293.071
293.129
293.224
293.381
293.637
294.048
294.703
295.727
297.304
299.684
303.197
308.258
315.343
324.963
337.598
353.626
373.27
396.563
423.36
453.391
486.318
521.793
559.497
599.165
640.584
683.594
728.072
773.924
821.065
869.412
918.873
969.333
1020.68
1072.94
1126.06
1179.93
1234.44
1289.47
1344.89
1400.57
1456.38
1512.16
1567.77
1623.05
1677.83
1731.94
1785.19
1837.36
1888.21
1937.4
1984.52
2028.94
2069.78
2104.5
2133.5
2152.26
2155.51
2134.59
2074.72
1980.28
1865.47
1739.15
1607.04
1472.95
1339.49
1208.56
1081.69
960.198
845.121
737.645
639.303
552.029
477.671
417.565
372.064
340.155
319.52
307.164
300.242
296.57
294.715
293.807
293.373
293.169
293.076
293.033
293.015
293.006
293.003
293.001
293.001
293
293
293
293
293
293
293.004
293.016
293.036
293.071
293.128
293.224
293.38
293.635
294.046
294.699
295.721
297.294
299.669
303.177
308.228
315.302
324.908
337.526
353.538
373.165
396.441
423.226
453.247
486.167
521.638
559.343
599.014
640.44
683.46
727.952
773.82
820.981
869.352
918.839
969.329
1020.71
1073.01
1126.17
1180.08
1234.64
1289.72
1345.19
1400.93
1456.79
1512.63
1568.29
1623.62
1678.46
1732.62
1785.92
1838.13
1889.01
1938.23
1985.34
2029.75
2070.55
2105.17
2134
2152.48
2155.26
2133.56
2072.39
1977.14
1861.82
1735.18
1602.89
1468.72
1335.25
1204.38
1077.63
956.297
841.427
734.215
636.205
549.334
475.436
415.822
370.801
339.311
319
306.867
300.083
296.488
294.675
293.788
293.364
293.165
293.074
293.033
293.014
293.006
293.003
293.001
293.001
293
293
293
293
293
293
293.004
293.016
293.036
293.071
293.128
293.223
293.38
293.634
294.044
294.696
295.717
297.288
299.659
303.162
308.206
315.272
324.868
337.475
353.474
373.089
396.355
423.13
453.144
486.06
521.529
559.235
598.909
640.341
683.369
727.871
773.751
820.928
869.316
918.824
969.337
1020.74
1073.07
1126.26
1180.21
1234.8
1289.91
1345.43
1401.2
1457.1
1512.98
1568.69
1624.06
1678.93
1733.13
1786.46
1838.71
1889.61
1938.84
1985.96
2030.36
2071.12
2105.67
2134.37
2152.64
2155.08
2132.8
2070.69
1974.84
1859.15
1732.28
1599.85
1465.62
1332.15
1201.32
1074.65
953.44
838.722
731.704
633.939
547.365
473.806
414.553
369.882
338.697
318.622
306.65
299.966
296.428
294.645
293.774
293.357
293.162
293.073
293.032
293.014
293.006
293.003
293.001
293.001
293
293
293
293
293
293
293.004
293.016
293.036
293.071
293.128
293.223
293.379
293.634
294.043
294.694
295.714
297.283
299.653
303.152
308.192
315.253
324.842
337.442
353.433
373.041
396.299
423.068
453.078
485.991
521.46
559.166
598.843
640.279
683.312
727.821
773.71
820.897
869.297
918.818
969.346
1020.77
1073.11
1126.32
1180.29
1234.91
1290.05
1345.59
1401.39
1457.31
1513.22
1568.95
1624.35
1679.25
1733.47
1786.82
1839.09
1890
1939.25
1986.37
2030.76
2071.5
2106
2134.62
2152.74
2154.96
2132.31
2069.58
1973.34
1857.39
1730.37
1597.86
1463.59
1330.12
1199.32
1072.7
951.571
836.954
730.063
632.46
546.082
472.747
413.732
369.29
338.303
318.378
306.509
299.889
296.389
294.626
293.764
293.353
293.16
293.072
293.032
293.014
293.006
293.003
293.001
293.001
293
293
293
293
293
293
293.004
293.016
293.036
293.071
293.128
293.223
293.379
293.633
294.043
294.693
295.712
297.281
299.65
303.147
308.186
315.244
324.83
337.426
353.414
373.018
396.273
423.039
453.047
485.959
521.427
559.134
598.812
640.249
683.285
727.798
773.691
820.883
869.289
918.817
969.352
1020.78
1073.14
1126.36
1180.34
1234.96
1290.11
1345.66
1401.48
1457.42
1513.34
1569.08
1624.49
1679.4
1733.64
1787
1839.27
1890.2
1939.45
1986.57
2030.96
2071.68
2106.16
2134.74
2152.8
2154.9
2132.06
2069.03
1972.6
1856.53
1729.44
1596.89
1462.6
1329.12
1198.34
1071.75
950.662
836.096
729.27
631.748
545.467
472.243
413.342
369.011
338.118
318.265
306.444
299.854
296.371
294.617
293.76
293.351
293.159
293.071
293.031
293.014
293.006
293.003
293.001
293.001
293
293
293
293
293
293
293.004
293.016
293.036
293.071
293.128
293.223
293.379
293.633
294.043
294.693
295.712
297.281
299.65
303.147
308.186
315.244
324.83
337.426
353.414
373.018
396.273
423.039
453.047
485.959
521.427
559.134
598.812
640.249
683.285
727.798
773.691
820.883
869.289
918.817
969.352
1020.78
1073.14
1126.36
1180.34
1234.96
1290.11
1345.66
1401.48
1457.42
1513.34
1569.08
1624.49
1679.4
1733.64
1787
1839.27
1890.2
1939.45
1986.57
2030.96
2071.68
2106.16
2134.74
2152.8
2154.9
2132.06
2069.03
1972.6
1856.53
1729.44
1596.89
1462.6
1329.12
1198.34
1071.75
950.662
836.096
729.27
631.748
545.467
472.243
413.342
369.011
338.118
318.265
306.444
299.854
296.371
294.617
293.76
293.351
293.159
293.071
293.031
293.014
293.006
293.003
293.001
293.001
293
293
293
293
293
293
293.004
293.016
293.036
293.071
293.128
293.223
293.379
293.634
294.043
294.694
295.714
297.283
299.653
303.152
308.192
315.253
324.842
337.442
353.433
373.041
396.299
423.068
453.078
485.991
521.46
559.166
598.843
640.278
683.312
727.821
773.71
820.897
869.297
918.818
969.346
1020.77
1073.11
1126.32
1180.29
1234.91
1290.05
1345.59
1401.39
1457.31
1513.22
1568.95
1624.35
1679.25
1733.47
1786.82
1839.09
1890
1939.25
1986.37
2030.76
2071.5
2106
2134.62
2152.74
2154.95
2132.31
2069.57
1973.34
1857.39
1730.37
1597.86
1463.59
1330.12
1199.32
1072.7
951.57
836.954
730.063
632.459
546.082
472.747
413.732
369.29
338.303
318.378
306.509
299.889
296.389
294.626
293.764
293.353
293.16
293.072
293.032
293.014
293.006
293.003
293.001
293.001
293
293
293
293
293
293
293.004
293.016
293.036
293.071
293.128
293.223
293.38
293.634
294.044
294.696
295.717
297.288
299.659
303.162
308.206
315.272
324.868
337.475
353.474
373.089
396.355
423.129
453.144
486.059
521.529
559.235
598.909
640.341
683.369
727.871
773.751
820.928
869.316
918.824
969.337
1020.74
1073.07
1126.26
1180.21
1234.8
1289.91
1345.43
1401.2
1457.1
1512.98
1568.69
1624.06
1678.93
1733.13
1786.46
1838.71
1889.61
1938.84
1985.96
2030.36
2071.12
2105.67
2134.37
2152.64
2155.08
2132.8
2070.69
1974.84
1859.14
1732.27
1599.85
1465.62
1332.15
1201.32
1074.65
953.44
838.722
731.704
633.938
547.364
473.806
414.553
369.882
338.697
318.622
306.65
299.966
296.428
294.645
293.774
293.357
293.162
293.073
293.032
293.014
293.006
293.003
293.001
293.001
293
293
293
293
293
293
293.004
293.016
293.036
293.071
293.128
293.224
293.38
293.635
294.046
294.699
295.721
297.294
299.669
303.177
308.228
315.302
324.908
337.526
353.538
373.165
396.441
423.225
453.247
486.167
521.638
559.343
599.014
640.44
683.46
727.952
773.82
820.981
869.352
918.839
969.329
1020.71
1073.01
1126.17
1180.08
1234.64
1289.72
1345.19
1400.93
1456.79
1512.63
1568.29
1623.62
1678.46
1732.62
1785.92
1838.13
1889.01
1938.23
1985.34
2029.75
2070.55
2105.17
2134
2152.48
2155.26
2133.56
2072.39
1977.14
1861.82
1735.18
1602.89
1468.72
1335.25
1204.38
1077.63
956.296
841.426
734.215
636.204
549.334
475.436
415.822
370.801
339.311
319
306.867
300.083
296.488
294.675
293.788
293.364
293.165
293.074
293.033
293.014
293.006
293.003
293.001
293.001
293
293
293
293
293
293
293.004
293.016
293.036
293.071
293.129
293.224
293.381
293.637
294.048
294.703
295.727
297.304
299.684
303.197
308.258
315.343
324.963
337.597
353.626
373.27
396.562
423.36
453.391
486.318
521.793
559.497
599.165
640.584
683.594
728.072
773.923
821.064
869.412
918.872
969.332
1020.68
1072.94
1126.06
1179.93
1234.44
1289.47
1344.89
1400.57
1456.38
1512.16
1567.77
1623.05
1677.83
1731.94
1785.19
1837.36
1888.21
1937.4
1984.52
2028.94
2069.78
2104.5
2133.5
2152.26
2155.51
2134.59
2074.71
1980.28
1865.47
1739.15
1607.04
1472.95
1339.49
1208.56
1081.69
960.197
845.12
737.644
639.303
552.029
477.67
417.565
372.064
340.155
319.519
307.164
300.242
296.57
294.715
293.807
293.373
293.169
293.076
293.033
293.015
293.006
293.003
293.001
293.001
293
293
293
293
293
293
293.004
293.016
293.037
293.071
293.129
293.225
293.382
293.639
294.051
294.708
295.735
297.316
299.702
303.224
308.296
315.397
325.036
337.691
353.742
373.409
396.722
423.538
453.584
486.521
522.001
559.706
599.37
640.782
683.78
728.242
774.074
821.19
869.509
918.936
969.358
1020.66
1072.87
1125.94
1179.76
1234.21
1289.17
1344.53
1400.14
1455.88
1511.59
1567.12
1622.33
1677.04
1731.09
1784.28
1836.41
1887.21
1936.38
1983.48
2027.92
2068.81
2103.64
2132.85
2151.97
2155.84
2135.92
2077.71
1984.32
1870.17
1744.26
1612.38
1478.39
1344.94
1213.94
1086.92
965.215
849.873
742.056
643.291
555.503
480.554
419.817
373.698
341.247
320.192
307.549
300.449
296.676
294.767
293.832
293.384
293.175
293.078
293.035
293.015
293.007
293.003
293.001
293.001
293
293
293
293
293
293
293.004
293.016
293.037
293.071
293.129
293.225
293.384
293.641
294.055
294.714
295.745
297.331
299.725
303.259
308.345
315.466
325.128
337.81
353.89
373.587
396.928
423.768
453.833
486.784
522.272
559.981
599.643
641.047
684.032
728.477
774.285
821.374
869.658
919.046
969.422
1020.67
1072.83
1125.84
1179.58
1233.96
1288.84
1344.12
1399.65
1455.29
1510.91
1566.36
1621.48
1676.11
1730.07
1783.19
1835.25
1886.01
1935.14
1982.24
2026.71
2067.68
2102.64
2132.04
2151.6
2156.21
2137.54
2081.42
1989.34
1876.01
1750.6
1619
1485.14
1351.69
1220.6
1093.4
971.435
855.766
747.528
648.242
559.819
484.141
422.623
375.739
342.614
321.036
308.032
300.709
296.809
294.832
293.863
293.399
293.181
293.081
293.036
293.016
293.007
293.003
293.001
293.001
293
293
293
293
293
293
293.004
293.016
293.037
293.072
293.13
293.226
293.385
293.644
294.06
294.721
295.756
297.349
299.753
303.3
308.406
315.55
325.241
337.958
354.075
373.809
397.186
424.058
454.15
487.12
522.621
560.336
599.997
641.395
684.368
728.794
774.577
821.634
869.88
919.222
969.545
1020.73
1072.83
1125.76
1179.42
1233.71
1288.5
1343.68
1399.1
1454.64
1510.15
1565.49
1620.5
1675.02
1728.89
1781.92
1833.9
1884.6
1933.7
1980.81
2025.34
2066.47
2101.82
2130.72
2150.96
2156.57
2139.46
2085.88
1995.38
1883.04
1758.23
1626.99
1493.28
1359.85
1228.65
1101.24
978.956
862.894
754.15
654.239
565.056
488.501
426.042
378.232
344.29
322.072
308.627
301.03
296.973
294.913
293.901
293.417
293.189
293.085
293.037
293.016
293.007
293.003
293.001
293.001
293
293
293
293
293
293
293.004
293.016
293.037
293.072
293.131
293.228
293.387
293.647
294.065
294.73
295.771
297.372
299.787
303.351
308.479
315.652
325.38
338.138
354.302
374.083
397.505
424.417
454.543
487.541
523.061
560.787
600.452
641.846
684.808
729.216
774.974
821.996
870.2
919.49
969.754
1020.87
1072.89
1125.73
1179.3
1233.49
1288.17
1343.22
1398.52
1453.93
1509.31
1564.51
1619.39
1673.78
1727.53
1780.44
1832.32
1882.93
1931.97
1979.05
2023.6
2064.81
2100.46
2129.64
2150.48
2157.13
2141.77
2091.11
2002.45
1891.29
1767.22
1636.4
1502.91
1369.51
1238.2
1110.54
987.893
871.368
762.032
661.387
571.306
493.718
430.146
381.235
346.316
323.33
309.351
301.421
297.174
295.011
293.948
293.438
293.199
293.089
293.039
293.017
293.007
293.003
293.001
293.001
293
293
293
293
293
293
293.004
293.016
293.037
293.073
293.131
293.229
293.39
293.651
294.072
294.741
295.787
297.398
299.827
303.411
308.566
315.775
325.547
338.356
354.576
374.415
397.894
424.858
455.029
488.063
523.611
561.356
601.031
642.425
685.38
729.771
775.503
822.49
870.649
919.884
970.081
1021.13
1073.05
1125.8
1179.26
1233.32
1287.88
1342.79
1397.94
1453.2
1508.42
1563.46
1618.18
1672.41
1726
1778.77
1830.51
1881.01
1929.96
1976.99
2021.54
2062.83
2098.85
2128.42
2149.97
2157.82
2144.45
2097.13
2010.61
1900.84
1777.65
1647.36
1514.13
1380.79
1249.37
1121.44
998.378
881.318
771.299
669.803
578.683
499.891
435.018
384.816
348.743
324.843
310.224
301.893
297.416
295.13
294.005
293.465
293.211
293.095
293.042
293.018
293.008
293.003
293.001
293.001
293
293
293
293
293
293
293.004
293.016
293.038
293.073
293.132
293.231
293.392
293.655
294.079
294.753
295.807
297.429
299.875
303.482
308.669
315.92
325.744
338.616
354.905
374.816
398.366
425.396
455.626
488.71
524.296
562.067
601.759
643.162
686.113
730.492
776.201
823.154
871.267
920.443
970.569
1021.53
1073.36
1125.99
1179.33
1233.26
1287.66
1342.42
1397.4
1452.48
1507.51
1562.37
1616.89
1670.93
1724.33
1776.92
1828.5
1878.85
1927.69
1974.64
2019.19
2060.57
2096.98
2127.02
2149.39
2158.6
2147.51
2104
2019.94
1911.79
1789.64
1659.99
1527.1
1393.85
1262.32
1134.1
1010.57
892.894
782.096
679.627
587.313
507.135
440.759
389.055
351.629
326.651
311.271
302.46
297.707
295.272
294.073
293.496
293.226
293.101
293.045
293.019
293.008
293.004
293.002
293.001
293
293
293
293
293
293
293.004
293.016
293.038
293.074
293.133
293.232
293.395
293.661
294.088
294.767
295.829
297.464
299.929
303.564
308.789
316.09
325.977
338.923
355.295
375.294
398.931
426.044
456.347
489.494
525.133
562.946
602.668
644.088
687.046
731.419
777.11
824.033
872.1
921.217
971.267
1022.14
1073.86
1126.38
1179.57
1233.35
1287.59
1342.16
1396.94
1451.81
1506.63
1561.26
1615.56
1669.38
1722.55
1774.93
1826.31
1876.49
1925.19
1972.05
2016.58
2058.06
2094.91
2125.45
2148.7
2159.45
2150.9
2111.7
2030.47
1924.19
1803.29
1674.41
1541.93
1408.83
1277.2
1148.67
1024.62
906.255
794.578
691.007
597.336
515.578
447.479
394.042
355.044
328.799
312.519
303.138
298.055
295.443
294.154
293.534
293.243
293.109
293.048
293.021
293.009
293.004
293.002
293.001
293
293
293
293
293
293
293.004
293.017
293.038
293.074
293.134
293.234
293.399
293.666
294.097
294.782
295.854
297.503
299.99
303.657
308.926
316.285
326.246
339.28
355.752
375.858
399.603
426.819
457.217
490.447
526.162
564.031
603.795
645.246
688.222
732.6
778.281
825.178
873.205
922.262
972.235
1023.01
1074.62
1127
1180.05
1233.65
1287.7
1342.07
1396.63
1451.27
1505.84
1560.21
1614.25
1667.8
1720.72
1772.84
1823.99
1873.95
1922.47
1969.22
2013.72
2055.28
2092.55
2123.61
2147.81
2160.17
2154.36
2119.81
2041.98
1937.98
1818.59
1690.67
1558.74
1425.85
1294.16
1165.31
1040.69
921.555
808.9
704.095
608.899
525.355
455.296
399.876
359.061
331.339
314
303.943
298.468
295.645
294.25
293.579
293.263
293.118
293.052
293.023
293.01
293.004
293.002
293.001
293
293
293
293
293
293
293.004
293.017
293.038
293.075
293.136
293.236
293.402
293.672
294.107
294.799
295.881
297.547
300.059
303.761
309.081
316.508
326.555
339.693
356.285
376.519
400.395
427.739
458.256
491.593
527.399
565.348
605.178
646.679
689.689
734.086
779.77
826.652
874.644
923.646
973.541
1024.22
1075.71
1127.95
1180.84
1234.25
1288.09
1342.22
1396.54
1450.91
1505.2
1559.28
1613.01
1666.26
1718.88
1770.71
1821.58
1871.29
1919.6
1966.19
2010.61
2052.22
2089.85
2121.41
2146.52
2160.45
2157.28
2127.16
2053.85
1952.83
1835.39
1708.72
1577.52
1444.96
1313.26
1184.1
1058.9
938.917
825.19
719.023
622.133
536.593
464.329
406.659
363.763
334.33
315.752
304.897
298.958
295.884
294.363
293.631
293.287
293.128
293.056
293.025
293.011
293.005
293.002
293.001
293
293
293
293
293
293
293.004
293.017
293.039
293.075
293.137
293.238
293.406
293.678
294.118
294.816
295.91
297.593
300.131
303.873
309.249
316.753
326.9
340.161
356.893
377.282
401.319
428.821
459.487
492.962
528.887
566.955
606.871
648.443
691.507
735.941
781.642
828.521
876.487
925.44
975.259
1025.84
1077.21
1129.3
1182.01
1235.22
1288.82
1342.7
1396.75
1450.82
1504.8
1558.55
1611.95
1664.85
1717.13
1768.62
1819.17
1868.59
1916.64
1963.02
2007.32
2048.93
2086.84
2118.85
2144.78
2160.13
2159.31
2133.06
2065.7
1968.47
1853.51
1728.43
1598.18
1466.09
1334.47
1205.05
1079.26
958.397
843.519
735.88
637.142
549.4
474.68
414.478
369.214
337.811
317.793
306.007
299.526
296.16
294.493
293.69
293.313
293.14
293.062
293.027
293.011
293.005
293.002
293.001
293
293
293
293
293
293
293.004
293.017
293.039
293.076
293.138
293.24
293.409
293.684
294.128
294.834
295.939
297.641
300.209
303.995
309.435
317.027
327.288
340.691
357.59
378.162
402.391
430.086
460.938
494.585
530.667
568.866
608.907
650.582
693.728
738.22
783.958
830.849
878.801
927.71
977.456
1027.93
1079.18
1131.11
1183.63
1236.62
1289.98
1343.58
1397.32
1451.07
1504.71
1558.1
1611.13
1663.66
1715.56
1766.68
1816.88
1865.96
1913.72
1959.86
2004
2045.56
2083.69
2116.1
2142.8
2159.54
2161.08
2138.76
2077.9
1984.91
1872.75
1749.5
1620.41
1488.96
1357.54
1227.95
1101.62
979.868
863.811
754.612
653.913
563.801
486.404
423.408
375.495
341.858
320.182
307.312
300.193
296.484
294.645
293.76
293.344
293.153
293.067
293.029
293.013
293.005
293.002
293.001
293
293
293
293
293
293
293.004
293.017
293.039
293.076
293.138
293.242
293.412
293.689
294.136
294.848
295.964
297.683
300.279
304.109
309.615
317.301
327.69
341.255
358.349
379.142
403.607
431.541
462.626
496.492
532.775
571.149
611.367
653.167
696.416
740.987
786.776
833.69
881.634
930.502
980.172
1030.55
1081.66
1133.42
1185.73
1238.49
1291.58
1344.89
1398.3
1451.7
1504.98
1558
1610.63
1662.77
1714.27
1765
1814.81
1863.55
1910.99
1956.87
2000.83
2042.33
2080.58
2113.36
2140.77
2158.86
2162.75
2144.41
2090.23
2001.66
1892.48
1771.26
1643.51
1512.86
1381.81
1252.19
1125.46
1002.91
885.729
774.989
672.294
579.698
499.431
433.381
382.528
346.381
322.834
308.742
300.913
296.828
294.803
293.831
293.376
293.167
293.073
293.032
293.014
293.006
293.002
293.001
293
293
293
293
293
293
293.004
293.017
293.039
293.077
293.139
293.242
293.413
293.692
294.142
294.86
295.987
297.725
300.352
304.233
309.814
317.61
328.148
341.906
359.23
380.285
405.029
433.248
464.609
498.734
535.252
573.834
614.218
656.206
699.572
744.23
790.075
837.012
884.944
933.763
983.345
1033.6
1084.56
1136.14
1188.24
1240.75
1293.56
1346.56
1399.65
1452.7
1505.59
1558.23
1610.48
1662.22
1713.32
1763.67
1813.11
1861.5
1908.63
1954.25
1998.03
2039.48
2077.84
2111.18
2138.62
2158.09
2164.25
2149.71
2101.93
2017.64
1911.43
1792.3
1666
1536.33
1405.87
1276.46
1149.56
1026.47
908.366
796.289
691.756
596.771
513.641
444.449
390.478
351.589
325.934
310.43
301.765
297.233
294.989
293.914
293.411
293.182
293.08
293.034
293.015
293.006
293.003
293.001
293
293
293
293
293
293
293.004
293.017
293.039
293.076
293.139
293.242
293.412
293.691
294.141
294.859
295.989
297.734
300.379
304.292
309.934
317.827
328.511
342.469
360.05
381.408
406.487
435.053
466.753
501.195
537.996
576.822
617.398
659.529