/*--------------------------------*- C++ -*----------------------------------*\
  =========                 |
  \\      /  F ield         | OpenFOAM: The Open Source CFD Toolbox
   \\    /   O peration     | Website:  https://openfoam.org
    \\  /    A nd           | Version:  8
     \\/     M anipulation  |
\*---------------------------------------------------------------------------*/
FoamFile
{
    version     2.0;
    format      ascii;
    class       volVectorField;
    location    "0.4/fluid";
    object      U;
}
// * * * * * * * * * * * * * * * * * * * * * * * * * * * * * * * * * * * * * //

dimensions      [0 1 -1 0 0 0 0];

internalField   nonuniform List<vector> 
4000
(
(0.099946 -0.00714999 0)
(0.0996293 -0.02125 0)
(0.0991165 -0.0352081 0)
(0.0984079 -0.0490696 0)
(0.097499 -0.0628584 0)
(0.0963746 -0.0765792 0)
(0.0950152 -0.0902223 0)
(0.0934018 -0.103768 0)
(0.0915192 -0.117191 0)
(0.0893594 -0.130458 0)
(0.0869286 -0.143535 0)
(0.0842567 -0.156378 0)
(0.081395 -0.169001 0)
(0.0784047 -0.181428 0)
(0.0753532 -0.193701 0)
(0.072305 -0.205873 0)
(0.0693071 -0.218 0)
(0.0663744 -0.230127 0)
(0.0634801 -0.242268 0)
(0.0605576 -0.254397 0)
(0.0575124 -0.26645 0)
(0.0542414 -0.27834 0)
(0.050652 -0.289963 0)
(0.0466747 -0.301219 0)
(0.0422705 -0.312003 0)
(0.0374386 -0.322202 0)
(0.0321989 -0.331762 0)
(0.0265779 -0.340639 0)
(0.0206051 -0.348792 0)
(0.0143117 -0.356187 0)
(0.00773142 -0.362799 0)
(0.000899928 -0.368615 0)
(-0.0061466 -0.373631 0)
(-0.0133744 -0.37785 0)
(-0.0207513 -0.381286 0)
(-0.0282463 -0.383957 0)
(-0.0358312 -0.385888 0)
(-0.0434797 -0.38711 0)
(-0.0511668 -0.387658 0)
(-0.0588687 -0.387569 0)
(-0.0665632 -0.386886 0)
(-0.0742295 -0.385653 0)
(-0.0818476 -0.383915 0)
(-0.0893986 -0.381719 0)
(-0.0968641 -0.379115 0)
(-0.104227 -0.376151 0)
(-0.111469 -0.372879 0)
(-0.118575 -0.369349 0)
(-0.125527 -0.365616 0)
(-0.132309 -0.361733 0)
(-0.138904 -0.357758 0)
(-0.145296 -0.353749 0)
(-0.151466 -0.349772 0)
(-0.157393 -0.345897 0)
(-0.163055 -0.3422 0)
(-0.168418 -0.33877 0)
(-0.173433 -0.335702 0)
(-0.178029 -0.333095 0)
(-0.18213 -0.331056 0)
(-0.185613 -0.329706 0)
(-0.188172 -0.329149 0)
(-0.189219 -0.329337 0)
(-0.18802 -0.329907 0)
(-0.18426 -0.330121 0)
(-0.178533 -0.329355 0)
(-0.17161 -0.327363 0)
(-0.163955 -0.324106 0)
(-0.155818 -0.319615 0)
(-0.147359 -0.313939 0)
(-0.138696 -0.307126 0)
(-0.129926 -0.299223 0)
(-0.121139 -0.290281 0)
(-0.112422 -0.280355 0)
(-0.103862 -0.269501 0)
(-0.0955871 -0.25778 0)
(-0.0878144 -0.245286 0)
(-0.0808516 -0.232169 0)
(-0.0750846 -0.218806 0)
(-0.0709399 -0.205773 0)
(-0.0687271 -0.193573 0)
(-0.0684553 -0.182459 0)
(-0.0698154 -0.172333 0)
(-0.0723188 -0.162871 0)
(-0.0754561 -0.15373 0)
(-0.0788056 -0.144667 0)
(-0.0820813 -0.135552 0)
(-0.0851216 -0.12633 0)
(-0.0878454 -0.116981 0)
(-0.0902084 -0.107493 0)
(-0.0922201 -0.0979606 0)
(-0.0939121 -0.0884221 0)
(-0.0953212 -0.0789049 0)
(-0.0964831 -0.0694306 0)
(-0.0974307 -0.0600138 0)
(-0.0981935 -0.0506618 0)
(-0.0987974 -0.0413744 0)
(-0.0992641 -0.0321441 0)
(-0.0996104 -0.0229567 0)
(-0.0998471 -0.0137913 0)
(-0.0999828 -0.0046188 0)
(0.100007 -0.00661771 0)
(0.0998051 -0.0198184 0)
(0.0993735 -0.0329388 0)
(0.0986862 -0.0459523 0)
(0.0977476 -0.058836 0)
(0.0965565 -0.0715636 0)
(0.0951056 -0.0841047 0)
(0.0933885 -0.0964263 0)
(0.0914046 -0.108496 0)
(0.0891623 -0.120291 0)
(0.0866834 -0.131809 0)
(0.0840069 -0.143086 0)
(0.0811864 -0.154126 0)
(0.0782864 -0.164962 0)
(0.0753759 -0.175651 0)
(0.072519 -0.186272 0)
(0.0697607 -0.196908 0)
(0.0671125 -0.207632 0)
(0.0645436 -0.218488 0)
(0.0619809 -0.229475 0)
(0.059321 -0.240546 0)
(0.0564491 -0.251618 0)
(0.0532586 -0.262586 0)
(0.049666 -0.27334 0)
(0.0456186 -0.283783 0)
(0.0410936 -0.293846 0)
(0.0360987 -0.303423 0)
(0.0306574 -0.312415 0)
(0.0248013 -0.320753 0)
(0.018567 -0.328391 0)
(0.011995 -0.3353 0)
(0.00512691 -0.341463 0)
(-0.00199437 -0.346873 0)
(-0.00932908 -0.351536 0)
(-0.0168414 -0.35546 0)
(-0.0244961 -0.358664 0)
(-0.032261 -0.361171 0)
(-0.0401072 -0.363008 0)
(-0.0480077 -0.364207 0)
(-0.0559372 -0.364803 0)
(-0.0638723 -0.364833 0)
(-0.071791 -0.364337 0)
(-0.0796729 -0.363359 0)
(-0.0874986 -0.361941 0)
(-0.0952498 -0.36013 0)
(-0.102909 -0.357971 0)
(-0.11046 -0.355513 0)
(-0.117887 -0.352804 0)
(-0.125174 -0.349895 0)
(-0.132308 -0.346836 0)
(-0.139273 -0.34368 0)
(-0.146057 -0.340482 0)
(-0.152645 -0.337295 0)
(-0.159022 -0.334179 0)
(-0.165172 -0.331191 0)
(-0.171071 -0.32839 0)
(-0.17667 -0.325829 0)
(-0.181904 -0.323555 0)
(-0.186704 -0.321598 0)
(-0.190934 -0.31997 0)
(-0.194259 -0.318625 0)
(-0.195878 -0.317468 0)
(-0.194931 -0.316145 0)
(-0.191084 -0.314367 0)
(-0.185095 -0.311873 0)
(-0.177858 -0.308482 0)
(-0.169884 -0.304085 0)
(-0.16143 -0.298615 0)
(-0.152648 -0.292038 0)
(-0.143638 -0.284337 0)
(-0.13448 -0.275511 0)
(-0.125244 -0.265581 0)
(-0.115992 -0.254592 0)
(-0.10679 -0.242636 0)
(-0.0977731 -0.229884 0)
(-0.0892006 -0.216645 0)
(-0.0814679 -0.203418 0)
(-0.0750742 -0.190721 0)
(-0.0705031 -0.178976 0)
(-0.0680242 -0.168499 0)
(-0.0675542 -0.159323 0)
(-0.068712 -0.15118 0)
(-0.0709938 -0.143657 0)
(-0.0739165 -0.136379 0)
(-0.0770946 -0.129095 0)
(-0.0802659 -0.121677 0)
(-0.0832775 -0.11408 0)
(-0.0860507 -0.106315 0)
(-0.088553 -0.0984168 0)
(-0.0907625 -0.0903196 0)
(-0.0926858 -0.0820457 0)
(-0.0943367 -0.0736333 0)
(-0.0957337 -0.0651183 0)
(-0.0968976 -0.0565308 0)
(-0.0978494 -0.0478943 0)
(-0.0986089 -0.0392256 0)
(-0.0991929 -0.0305355 0)
(-0.099612 -0.02183 0)
(-0.0998735 -0.013112 0)
(-0.099999 -0.00438194 0)
(0.099977 -0.00635699 0)
(0.0997055 -0.019008 0)
(0.0991745 -0.0315694 0)
(0.0983671 -0.0440186 0)
(0.0972877 -0.0563324 0)
(0.0959381 -0.0684863 0)
(0.0943191 -0.0804545 0)
(0.0924359 -0.0922114 0)
(0.0903012 -0.103733 0)
(0.0879374 -0.115001 0)
(0.0853775 -0.126002 0)
(0.0826631 -0.136736 0)
(0.0798463 -0.147219 0)
(0.0769916 -0.157488 0)
(0.0741692 -0.167603 0)
(0.0714434 -0.177637 0)
(0.0688592 -0.187671 0)
(0.0664279 -0.197779 0)
(0.0641183 -0.208005 0)
(0.0618566 -0.218357 0)
(0.0595369 -0.2288 0)
(0.0570401 -0.239263 0)
(0.054253 -0.249653 0)
(0.0510839 -0.259867 0)
(0.0474691 -0.269801 0)
(0.0433702 -0.279363 0)
(0.0387734 -0.288472 0)
(0.0336882 -0.297061 0)
(0.0281403 -0.305075 0)
(0.0221661 -0.31247 0)
(0.0158069 -0.319213 0)
(0.00910478 -0.325285 0)
(0.00210147 -0.330673 0)
(-0.00516048 -0.335376 0)
(-0.0126424 -0.3394 0)
(-0.0203091 -0.342757 0)
(-0.0281266 -0.345465 0)
(-0.0360642 -0.347547 0)
(-0.0440937 -0.34903 0)
(-0.052189 -0.349945 0)
(-0.0603255 -0.350325 0)
(-0.0684808 -0.350207 0)
(-0.0766336 -0.349628 0)
(-0.0847646 -0.348629 0)
(-0.0928557 -0.347252 0)
(-0.10089 -0.345538 0)
(-0.108852 -0.343532 0)
(-0.116728 -0.341279 0)
(-0.124504 -0.338822 0)
(-0.13217 -0.336209 0)
(-0.139715 -0.333485 0)
(-0.14713 -0.330697 0)
(-0.154406 -0.327891 0)
(-0.161535 -0.32511 0)
(-0.168504 -0.322398 0)
(-0.175291 -0.319793 0)
(-0.181841 -0.317324 0)
(-0.188079 -0.315009 0)
(-0.193921 -0.312851 0)
(-0.199169 -0.310832 0)
(-0.203347 -0.308876 0)
(-0.20551 -0.30686 0)
(-0.204661 -0.304501 0)
(-0.200585 -0.301617 0)
(-0.194165 -0.298068 0)
(-0.186364 -0.293737 0)
(-0.177742 -0.28853 0)
(-0.16859 -0.282385 0)
(-0.159073 -0.275264 0)
(-0.149294 -0.267158 0)
(-0.13933 -0.258085 0)
(-0.129243 -0.248097 0)
(-0.119091 -0.237284 0)
(-0.108951 -0.225783 0)
(-0.0989946 -0.213798 0)
(-0.0895515 -0.201614 0)
(-0.0811081 -0.189593 0)
(-0.0742327 -0.178147 0)
(-0.0694019 -0.167657 0)
(-0.0668034 -0.15834 0)
(-0.0662597 -0.15015 0)
(-0.0673356 -0.142811 0)
(-0.0695181 -0.13595 0)
(-0.0723391 -0.129248 0)
(-0.0754325 -0.122491 0)
(-0.0785493 -0.115568 0)
(-0.0815428 -0.108437 0)
(-0.0843395 -0.101095 0)
(-0.0869101 -0.0935634 0)
(-0.0892417 -0.0858702 0)
(-0.0913257 -0.0780387 0)
(-0.0931622 -0.07009 0)
(-0.0947566 -0.0620436 0)
(-0.0961182 -0.0539175 0)
(-0.0972581 -0.0457275 0)
(-0.0981882 -0.0374867 0)
(-0.0989191 -0.0292055 0)
(-0.0994577 -0.0208923 0)
(-0.0998082 -0.0125548 0)
(-0.0999872 -0.00419836 0)
(0.0999844 -0.00599259 0)
(0.0997134 -0.01792 0)
(0.0991716 -0.0297531 0)
(0.0983408 -0.041463 0)
(0.0972298 -0.0530225 0)
(0.0958457 -0.0644038 0)
(0.0941946 -0.0755797 0)
(0.0922857 -0.0865244 0)
(0.0901345 -0.0972159 0)
(0.0877646 -0.107638 0)
(0.0852094 -0.117785 0)
(0.0825139 -0.127664 0)
(0.079735 -0.137295 0)
(0.0769394 -0.146722 0)
(0.0741977 -0.156006 0)
(0.0715739 -0.165223 0)
(0.0691121 -0.174458 0)
(0.066823 -0.183785 0)
(0.0646752 -0.193254 0)
(0.0625944 -0.202877 0)
(0.0604735 -0.212627 0)
(0.0581903 -0.222443 0)
(0.0556277 -0.232238 0)
(0.0526882 -0.241916 0)
(0.049303 -0.25138 0)
(0.045432 -0.260541 0)
(0.0410611 -0.269318 0)
(0.0361962 -0.27764 0)
(0.030858 -0.285452 0)
(0.0250771 -0.292709 0)
(0.018889 -0.299377 0)
(0.0123311 -0.305434 0)
(0.0054415 -0.310867 0)
(-0.00174052 -0.315671 0)
(-0.00917769 -0.31985 0)
(-0.0168362 -0.323413 0)
(-0.0246834 -0.326373 0)
(-0.0326892 -0.328751 0)
(-0.0408263 -0.330569 0)
(-0.0490689 -0.331854 0)
(-0.057393 -0.332634 0)
(-0.0657765 -0.332942 0)
(-0.0741989 -0.332811 0)
(-0.0826414 -0.332277 0)
(-0.0910866 -0.331375 0)
(-0.0995185 -0.330143 0)
(-0.107922 -0.328621 0)
(-0.116285 -0.326845 0)
(-0.124596 -0.324856 0)
(-0.132845 -0.322691 0)
(-0.141024 -0.320388 0)
(-0.149124 -0.317985 0)
(-0.157138 -0.315515 0)
(-0.165055 -0.313012 0)
(-0.172861 -0.310502 0)
(-0.180524 -0.308007 0)
(-0.187974 -0.30554 0)
(-0.195126 -0.303101 0)
(-0.201865 -0.30068 0)
(-0.207912 -0.298242 0)
(-0.21267 -0.29571 0)
(-0.215064 -0.292952 0)
(-0.214027 -0.28975 0)
(-0.209528 -0.285956 0)
(-0.202566 -0.281503 0)
(-0.194127 -0.276328 0)
(-0.184786 -0.270373 0)
(-0.174853 -0.263593 0)
(-0.164511 -0.255967 0)
(-0.153883 -0.247495 0)
(-0.143062 -0.238209 0)
(-0.132131 -0.228172 0)
(-0.12117 -0.217484 0)
(-0.110295 -0.206291 0)
(-0.0997374 -0.194803 0)
(-0.0898798 -0.183301 0)
(-0.0812305 -0.172136 0)
(-0.0743277 -0.161685 0)
(-0.0695741 -0.152262 0)
(-0.0670666 -0.14401 0)
(-0.0665606 -0.136826 0)
(-0.0676014 -0.130413 0)
(-0.069691 -0.124416 0)
(-0.0723894 -0.118542 0)
(-0.0753583 -0.112598 0)
(-0.0783684 -0.106483 0)
(-0.0812819 -0.100157 0)
(-0.0840246 -0.0936109 0)
(-0.08656 -0.0868554 0)
(-0.0888728 -0.0799056 0)
(-0.0909581 -0.0727815 0)
(-0.092816 -0.0655043 0)
(-0.0944495 -0.0580951 0)
(-0.0958627 -0.0505734 0)
(-0.0970612 -0.042957 0)
(-0.0980505 -0.0352618 0)
(-0.0988354 -0.0275019 0)
(-0.0994173 -0.0196901 0)
(-0.0997962 -0.0118391 0)
(-0.0999885 -0.00396011 0)
(0.0999808 -0.0056355 0)
(0.0996943 -0.0168505 0)
(0.0991276 -0.0279745 0)
(0.0982641 -0.0389791 0)
(0.0971149 -0.0498374 0)
(0.0956897 -0.0605229 0)
(0.0939973 -0.0710098 0)
(0.0920504 -0.0812748 0)
(0.0898676 -0.0912983 0)
(0.0874758 -0.101066 0)
(0.0849117 -0.110573 0)
(0.0822228 -0.119824 0)
(0.079468 -0.128842 0)
(0.0767148 -0.137663 0)
(0.074034 -0.146345 0)
(0.0714893 -0.154959 0)
(0.0691248 -0.163582 0)
(0.0669516 -0.172284 0)
(0.0649387 -0.181113 0)
(0.0630121 -0.190086 0)
(0.0610647 -0.199183 0)
(0.0589725 -0.208353 0)
(0.056615 -0.21752 0)
(0.0538903 -0.2266 0)
(0.0507237 -0.235504 0)
(0.0470702 -0.244148 0)
(0.0429103 -0.252459 0)
(0.0382454 -0.260371 0)
(0.033093 -0.26783 0)
(0.0274795 -0.274795 0)
(0.0214373 -0.281232 0)
(0.0150011 -0.287119 0)
(0.00820658 -0.292443 0)
(0.00108944 -0.297195 0)
(-0.00631399 -0.301378 0)
(-0.0139707 -0.304996 0)
(-0.0218511 -0.30806 0)
(-0.0299263 -0.310588 0)
(-0.0381699 -0.312597 0)
(-0.0465574 -0.31411 0)
(-0.0550659 -0.315152 0)
(-0.0636744 -0.315749 0)
(-0.0723632 -0.315931 0)
(-0.0811143 -0.315728 0)
(-0.0899109 -0.31517 0)
(-0.0987374 -0.314291 0)
(-0.10758 -0.313122 0)
(-0.116426 -0.311697 0)
(-0.125265 -0.310046 0)
(-0.134087 -0.308201 0)
(-0.142882 -0.306193 0)
(-0.151641 -0.30405 0)
(-0.160353 -0.301798 0)
(-0.169004 -0.299459 0)
(-0.17757 -0.297051 0)
(-0.186009 -0.294587 0)
(-0.194235 -0.292069 0)
(-0.202141 -0.289491 0)
(-0.209574 -0.286835 0)
(-0.216197 -0.284062 0)
(-0.221303 -0.281102 0)
(-0.223682 -0.277829 0)
(-0.222268 -0.274053 0)
(-0.217234 -0.26966 0)
(-0.209697 -0.264628 0)
(-0.200636 -0.258932 0)
(-0.190619 -0.252546 0)
(-0.179965 -0.245448 0)
(-0.168874 -0.237637 0)
(-0.157486 -0.22913 0)
(-0.145916 -0.219971 0)
(-0.134263 -0.210236 0)
(-0.12263 -0.200031 0)
(-0.111165 -0.189505 0)
(-0.100141 -0.178858 0)
(-0.089972 -0.168351 0)
(-0.0811772 -0.158287 0)
(-0.0742689 -0.148975 0)
(-0.0695881 -0.140644 0)
(-0.0671586 -0.133352 0)
(-0.0666862 -0.126956 0)
(-0.067703 -0.121174 0)
(-0.0697218 -0.115699 0)
(-0.0723238 -0.110292 0)
(-0.0751927 -0.104798 0)
(-0.078116 -0.0991371 0)
(-0.0809658 -0.0932778 0)
(-0.0836712 -0.0872142 0)
(-0.0861944 -0.0809548 0)
(-0.0885156 -0.0745138 0)
(-0.0906251 -0.0679078 0)
(-0.0925189 -0.0611542 0)
(-0.0941958 -0.0542698 0)
(-0.0956567 -0.0472713 0)
(-0.0969035 -0.0401743 0)
(-0.0979389 -0.0329936 0)
(-0.0987648 -0.025743 0)
(-0.0993798 -0.0184359 0)
(-0.099782 -0.0110868 0)
(-0.0999871 -0.00370876 0)
(0.0999817 -0.00526251 0)
(0.0996939 -0.0157358 0)
(0.099123 -0.0261223 0)
(0.0982528 -0.036393 0)
(0.0970958 -0.0465211 0)
(0.0956635 -0.0564805 0)
(0.0939666 -0.0662464 0)
(0.0920192 -0.0757966 0)
(0.0898416 -0.0851128 0)
(0.0874617 -0.0941824 0)
(0.0849167 -0.103001 0)
(0.0822546 -0.111576 0)
(0.0795341 -0.119929 0)
(0.0768225 -0.128096 0)
(0.07419 -0.136135 0)
(0.0717005 -0.144112 0)
(0.0693983 -0.152104 0)
(0.0672958 -0.160177 0)
(0.0653638 -0.16838 0)
(0.0635303 -0.176731 0)
(0.0616893 -0.185214 0)
(0.0597174 -0.193781 0)
(0.0574927 -0.202366 0)
(0.0549109 -0.210888 0)
(0.0518938 -0.219267 0)
(0.0483922 -0.227425 0)
(0.0443833 -0.235291 0)
(0.0398645 -0.242805 0)
(0.034849 -0.249917 0)
(0.0293596 -0.256585 0)
(0.0234254 -0.262778 0)
(0.0170785 -0.268473 0)
(0.010351 -0.273656 0)
(0.0032745 -0.27832 0)
(-0.00411266 -0.282462 0)
(-0.0117794 -0.286087 0)
(-0.0197019 -0.289204 0)
(-0.0278515 -0.291824 0)
(-0.0362028 -0.293964 0)
(-0.0447325 -0.295642 0)
(-0.0534191 -0.29688 0)
(-0.0622424 -0.297699 0)
(-0.0711837 -0.298125 0)
(-0.0802254 -0.298183 0)
(-0.0893509 -0.297899 0)
(-0.0985451 -0.2973 0)
(-0.107794 -0.296413 0)
(-0.117086 -0.295264 0)
(-0.126407 -0.293881 0)
(-0.135746 -0.292287 0)
(-0.145092 -0.290508 0)
(-0.154432 -0.288564 0)
(-0.163751 -0.286474 0)
(-0.173028 -0.284256 0)
(-0.182231 -0.281919 0)
(-0.191303 -0.279472 0)
(-0.20014 -0.276912 0)
(-0.208617 -0.274228 0)
(-0.216551 -0.271401 0)
(-0.223548 -0.268395 0)
(-0.228804 -0.265142 0)
(-0.230984 -0.261524 0)
(-0.229065 -0.257371 0)
(-0.223438 -0.252601 0)
(-0.215328 -0.247223 0)
(-0.205689 -0.241241 0)
(-0.195069 -0.234647 0)
(-0.183788 -0.227439 0)
(-0.172058 -0.21963 0)
(-0.160035 -0.211249 0)
(-0.147851 -0.202349 0)
(-0.135623 -0.193004 0)
(-0.123473 -0.183321 0)
(-0.111583 -0.173438 0)
(-0.10026 -0.163541 0)
(-0.0899443 -0.153864 0)
(-0.0811569 -0.144677 0)
(-0.0743781 -0.136242 0)
(-0.0698844 -0.128745 0)
(-0.067627 -0.12221 0)
(-0.0672644 -0.116483 0)
(-0.0683163 -0.111296 0)
(-0.0703063 -0.10637 0)
(-0.0728358 -0.10149 0)
(-0.0756099 -0.0965181 0)
(-0.0784332 -0.0913842 0)
(-0.0811895 -0.0860586 0)
(-0.0838138 -0.0805352 0)
(-0.0862711 -0.0748201 0)
(-0.0885422 -0.0689254 0)
(-0.0906168 -0.0628656 0)
(-0.0924892 -0.0566565 0)
(-0.0941561 -0.0503138 0)
(-0.0956157 -0.0438533 0)
(-0.0968674 -0.0372902 0)
(-0.0979114 -0.0306392 0)
(-0.0987469 -0.0239148 0)
(-0.0993707 -0.0171311 0)
(-0.0997791 -0.0103036 0)
(-0.0999872 -0.00344699 0)
(0.0999812 -0.0048901 0)
(0.0996914 -0.0146223 0)
(0.0991173 -0.0242735 0)
(0.0982433 -0.0338161 0)
(0.0970826 -0.0432247 0)
(0.0956474 -0.0524746 0)
(0.0939495 -0.0615429 0)
(0.0920039 -0.070409 0)
(0.0898318 -0.0790562 0)
(0.0874621 -0.0874733 0)
(0.0849327 -0.0956568 0)
(0.0822921 -0.103613 0)
(0.0795992 -0.111363 0)
(0.0769216 -0.118941 0)
(0.0743293 -0.126397 0)
(0.0718862 -0.133796 0)
(0.0696373 -0.141207 0)
(0.0675954 -0.148693 0)
(0.0657323 -0.1563 0)
(0.0639771 -0.164047 0)
(0.0622244 -0.171922 0)
(0.0603505 -0.179884 0)
(0.0582324 -0.187874 0)
(0.0557636 -0.19582 0)
(0.0528635 -0.203647 0)
(0.0494796 -0.211284 0)
(0.0455855 -0.218668 0)
(0.041176 -0.22574 0)
(0.0362612 -0.232454 0)
(0.0308612 -0.238771 0)
(0.0250023 -0.244661 0)
(0.0187142 -0.250103 0)
(0.0120272 -0.255081 0)
(0.00497185 -0.259587 0)
(-0.00241869 -0.263617 0)
(-0.0101148 -0.267175 0)
(-0.018091 -0.270267 0)
(-0.0263215 -0.272903 0)
(-0.0347826 -0.275095 0)
(-0.043452 -0.276858 0)
(-0.0523093 -0.278211 0)
(-0.0613349 -0.279171 0)
(-0.0705106 -0.27976 0)
(-0.0798189 -0.279998 0)
(-0.0892437 -0.279908 0)
(-0.0987696 -0.279511 0)
(-0.108382 -0.278831 0)
(-0.118067 -0.277888 0)
(-0.127811 -0.276704 0)
(-0.137599 -0.275299 0)
(-0.147418 -0.273692 0)
(-0.157251 -0.2719 0)
(-0.167077 -0.269936 0)
(-0.176868 -0.267814 0)
(-0.186585 -0.265541 0)
(-0.196156 -0.26312 0)
(-0.205462 -0.260547 0)
(-0.21436 -0.25781 0)
(-0.22264 -0.254892 0)
(-0.229857 -0.251757 0)
(-0.235112 -0.248338 0)
(-0.23697 -0.244516 0)
(-0.234487 -0.240152 0)
(-0.228275 -0.235205 0)
(-0.21964 -0.2297 0)
(-0.209499 -0.223649 0)
(-0.198373 -0.21706 0)
(-0.186578 -0.209945 0)
(-0.174335 -0.202324 0)
(-0.161811 -0.194236 0)
(-0.149153 -0.185736 0)
(-0.136491 -0.176902 0)
(-0.123964 -0.167833 0)
(-0.111778 -0.15866 0)
(-0.10027 -0.149555 0)
(-0.0898965 -0.140729 0)
(-0.0811711 -0.132419 0)
(-0.0745403 -0.124846 0)
(-0.070222 -0.118144 0)
(-0.06811 -0.112303 0)
(-0.0678313 -0.107158 0)
(-0.068903 -0.102459 0)
(-0.0708619 -0.0979617 0)
(-0.0733277 -0.0934846 0)
(-0.0760227 -0.0889146 0)
(-0.0787649 -0.0841929 0)
(-0.081446 -0.0792956 0)
(-0.084005 -0.0742176 0)
(-0.086408 -0.0689642 0)
(-0.0886358 -0.0635452 0)
(-0.0906771 -0.0579731 0)
(-0.0925251 -0.0522611 0)
(-0.094175 -0.0464229 0)
(-0.0956238 -0.0404724 0)
(-0.0968694 -0.0344234 0)
(-0.0979105 -0.0282894 0)
(-0.0987453 -0.0220842 0)
(-0.0993695 -0.0158215 0)
(-0.0997785 -0.0095164 0)
(-0.0999871 -0.00318369 0)
(0.0999815 -0.0045165 0)
(0.0996926 -0.0135056 0)
(0.0991203 -0.0224198 0)
(0.098249 -0.0312331 0)
(0.0970922 -0.0399215 0)
(0.0956628 -0.0484621 0)
(0.0939728 -0.0568332 0)
(0.092038 -0.0650161 0)
(0.0898798 -0.0729953 0)
(0.0875274 -0.0807607 0)
(0.0850188 -0.0883092 0)
(0.0824022 -0.0956473 0)
(0.0797364 -0.102794 0)
(0.0770885 -0.109782 0)
(0.0745284 -0.116658 0)
(0.07212 -0.123482 0)
(0.0699086 -0.130319 0)
(0.0679083 -0.137227 0)
(0.0660921 -0.144252 0)
(0.0643906 -0.151412 0)
(0.0626993 -0.158696 0)
(0.0608948 -0.16607 0)
(0.0588531 -0.173479 0)
(0.0564659 -0.180858 0)
(0.0536505 -0.188139 0)
(0.0503522 -0.195256 0)
(0.046542 -0.20215 0)
(0.0422115 -0.208769 0)
(0.0373683 -0.215068 0)
(0.0320301 -0.221012 0)
(0.0262211 -0.226571 0)
(0.0199689 -0.231726 0)
(0.0133021 -0.236461 0)
(0.00624982 -0.240767 0)
(-0.00115773 -0.24464 0)
(-0.00889214 -0.248082 0)
(-0.0169281 -0.251097 0)
(-0.0252416 -0.253693 0)
(-0.0338099 -0.255879 0)
(-0.0426118 -0.257669 0)
(-0.0516275 -0.259077 0)
(-0.0608378 -0.260118 0)
(-0.0702245 -0.260809 0)
(-0.0797706 -0.261169 0)
(-0.0894596 -0.261214 0)
(-0.0992755 -0.260963 0)
(-0.109202 -0.260435 0)
(-0.119225 -0.259648 0)
(-0.129328 -0.258618 0)
(-0.139494 -0.257361 0)
(-0.149707 -0.255894 0)
(-0.159945 -0.254228 0)
(-0.170183 -0.252375 0)
(-0.180388 -0.250344 0)
(-0.19051 -0.248142 0)
(-0.200465 -0.245768 0)
(-0.210122 -0.243219 0)
(-0.219323 -0.240483 0)
(-0.227832 -0.237544 0)
(-0.235141 -0.234367 0)
(-0.240261 -0.230883 0)
(-0.241713 -0.226974 0)
(-0.23869 -0.222544 0)
(-0.231968 -0.217586 0)
(-0.222882 -0.212124 0)
(-0.212314 -0.206174 0)
(-0.200767 -0.199751 0)
(-0.188553 -0.192872 0)
(-0.1759 -0.185566 0)
(-0.162984 -0.177874 0)
(-0.149962 -0.169854 0)
(-0.136974 -0.161579 0)
(-0.124172 -0.153143 0)
(-0.111786 -0.144668 0)
(-0.100176 -0.136309 0)
(-0.0898097 -0.128259 0)
(-0.081193 -0.120724 0)
(-0.0747397 -0.113893 0)
(-0.0706151 -0.107871 0)
(-0.0686629 -0.102625 0)
(-0.0684837 -0.0979931 0)
(-0.069592 -0.0937435 0)
(-0.0715356 -0.0896596 0)
(-0.0739502 -0.085582 0)
(-0.076574 -0.0814135 0)
(-0.0792376 -0.0771037 0)
(-0.0818409 -0.072632 0)
(-0.0843275 -0.0679941 0)
(-0.0866659 -0.0631943 0)
(-0.0888378 -0.0582412 0)
(-0.0908319 -0.0531457 0)
(-0.0926409 -0.0479194 0)
(-0.0942593 -0.0425747 0)
(-0.0956831 -0.0371242 0)
(-0.0969094 -0.0315806 0)
(-0.0979359 -0.0259567 0)
(-0.0987601 -0.0202651 0)
(-0.0993768 -0.0145191 0)
(-0.0997811 -0.00873324 0)
(-0.0999873 -0.00292171 0)
(0.0999815 -0.00414489 0)
(0.099694 -0.0123946 0)
(0.0991243 -0.0205759 0)
(0.0982571 -0.0286647 0)
(0.0971062 -0.0366389 0)
(0.0956844 -0.0444772 0)
(0.094004 -0.0521601 0)
(0.092081 -0.0596702 0)
(0.089937 -0.0669935 0)
(0.0876011 -0.0741207 0)
(0.0851114 -0.0810493 0)
(0.0825159 -0.0877853 0)
(0.0798733 -0.094346 0)
(0.0772503 -0.100761 0)
(0.0747167 -0.107075 0)
(0.0723366 -0.113341 0)
(0.0701557 -0.119618 0)
(0.0681887 -0.125963 0)
(0.0664097 -0.132416 0)
(0.0647503 -0.138996 0)
(0.0631067 -0.145695 0)
(0.0613553 -0.152482 0)
(0.0593717 -0.159308 0)
(0.0570464 -0.166114 0)
(0.0542944 -0.172839 0)
(0.0510589 -0.179423 0)
(0.0473088 -0.185811 0)
(0.043034 -0.191955 0)
(0.0382397 -0.197815 0)
(0.032942 -0.203356 0)
(0.0271631 -0.208553 0)
(0.0209289 -0.213386 0)
(0.0142666 -0.217839 0)
(0.00720414 -0.221904 0)
(-0.000230185 -0.225576 0)
(-0.00800891 -0.228856 0)
(-0.0161074 -0.231747 0)
(-0.0245027 -0.234253 0)
(-0.033173 -0.236384 0)
(-0.0420977 -0.238149 0)
(-0.0512571 -0.239561 0)
(-0.0606324 -0.240631 0)
(-0.0702057 -0.241374 0)
(-0.0799596 -0.241805 0)
(-0.089877 -0.241939 0)
(-0.099941 -0.241789 0)
(-0.110135 -0.241373 0)
(-0.120441 -0.240703 0)
(-0.130843 -0.239793 0)
(-0.141321 -0.238658 0)
(-0.151855 -0.237309 0)
(-0.16242 -0.235757 0)
(-0.172987 -0.23401 0)
(-0.183517 -0.232075 0)
(-0.193953 -0.229957 0)
(-0.204199 -0.227657 0)
(-0.214112 -0.225168 0)
(-0.223525 -0.222482 0)
(-0.232172 -0.219583 0)
(-0.239486 -0.216438 0)
(-0.244391 -0.212982 0)
(-0.24542 -0.209107 0)
(-0.241919 -0.204745 0)
(-0.234774 -0.19991 0)
(-0.22531 -0.194623 0)
(-0.214384 -0.188902 0)
(-0.202489 -0.182763 0)
(-0.189938 -0.176229 0)
(-0.17696 -0.169334 0)
(-0.163741 -0.162119 0)
(-0.150442 -0.15464 0)
(-0.137212 -0.146967 0)
(-0.124214 -0.139189 0)
(-0.111699 -0.131417 0)
(-0.100043 -0.123795 0)
(-0.0897213 -0.116492 0)
(-0.081231 -0.109694 0)
(-0.0749539 -0.103559 0)
(-0.071009 -0.098165 0)
(-0.0691992 -0.0934639 0)
(-0.0691061 -0.0892957 0)
(-0.0702451 -0.0854506 0)
(-0.072175 -0.0817376 0)
(-0.0745458 -0.0780201 0)
(-0.0771089 -0.0742156 0)
(-0.0797053 -0.0702821 0)
(-0.0822413 -0.0662023 0)
(-0.0846642 -0.0619728 0)
(-0.0869443 -0.0575974 0)
(-0.0890639 -0.0530836 0)
(-0.0910121 -0.0484406 0)
(-0.0927812 -0.0436788 0)
(-0.0943657 -0.0388089 0)
(-0.0957611 -0.0338422 0)
(-0.096964 -0.0287899 0)
(-0.0979717 -0.0236638 0)
(-0.0987813 -0.0184754 0)
(-0.0993874 -0.0132369 0)
(-0.0997848 -0.00796193 0)
(-0.0999875 -0.00266366 0)
(0.0999816 -0.00377529 0)
(0.0996959 -0.0112897 0)
(0.0991298 -0.018742 0)
(0.098268 -0.0261103 0)
(0.0971243 -0.0333744 0)
(0.0957115 -0.0405151 0)
(0.0940422 -0.0475142 0)
(0.092132 -0.0543563 0)
(0.0900027 -0.0610285 0)
(0.0876833 -0.0675225 0)
(0.0852116 -0.0738359 0)
(0.0826355 -0.0799745 0)
(0.0800131 -0.0859538 0)
(0.0774111 -0.0918012 0)
(0.074899 -0.0975565 0)
(0.0725409 -0.103269 0)
(0.0703829 -0.108993 0)
(0.0684405 -0.11478 0)
(0.0666888 -0.120668 0)
(0.0650603 -0.126674 0)
(0.0634516 -0.132793 0)
(0.0617393 -0.138996 0)
(0.0597983 -0.14524 0)
(0.0575179 -0.151473 0)
(0.0548121 -0.157638 0)
(0.0516221 -0.163682 0)
(0.0479148 -0.169553 0)
(0.0436783 -0.175209 0)
(0.0389164 -0.180612 0)
(0.0336434 -0.185731 0)
(0.0278804 -0.190542 0)
(0.0216519 -0.195025 0)
(0.0149839 -0.199167 0)
(0.00790315 -0.20296 0)
(0.000436816 -0.206397 0)
(-0.00738838 -0.209479 0)
(-0.0155484 -0.212207 0)
(-0.0240212 -0.214586 0)
(-0.0327855 -0.216622 0)
(-0.0418208 -0.218322 0)
(-0.0511079 -0.219697 0)
(-0.0606279 -0.220758 0)
(-0.0703629 -0.221514 0)
(-0.0802949 -0.22198 0)
(-0.0904062 -0.222166 0)
(-0.100679 -0.222085 0)
(-0.111095 -0.22175 0)
(-0.121637 -0.221172 0)
(-0.132284 -0.220363 0)
(-0.143015 -0.219333 0)
(-0.153807 -0.218092 0)
(-0.164633 -0.216649 0)
(-0.17546 -0.215012 0)
(-0.186243 -0.213185 0)
(-0.196919 -0.211171 0)
(-0.207381 -0.208973 0)
(-0.217478 -0.206582 0)
(-0.227033 -0.203992 0)
(-0.235755 -0.20119 0)
(-0.243026 -0.198144 0)
(-0.247682 -0.19481 0)
(-0.248311 -0.191069 0)
(-0.244391 -0.186881 0)
(-0.236888 -0.182267 0)
(-0.227106 -0.177247 0)
(-0.215885 -0.171842 0)
(-0.203706 -0.16607 0)
(-0.190884 -0.159957 0)
(-0.177651 -0.153536 0)
(-0.164197 -0.146849 0)
(-0.150689 -0.139949 0)
(-0.13728 -0.132902 0)
(-0.124143 -0.125788 0)
(-0.111546 -0.11871 0)
(-0.0998801 -0.111797 0)
(-0.0896256 -0.105204 0)
(-0.0812696 -0.0990921 0)
(-0.0751648 -0.0935965 0)
(-0.0713898 -0.0887741 0)
(-0.0697132 -0.0845693 0)
(-0.0697017 -0.0808296 0)
(-0.0708723 -0.077365 0)
(-0.0727935 -0.0740077 0)
(-0.0751277 -0.0706394 0)
(-0.0776381 -0.0671899 0)
(-0.0801744 -0.0636235 0)
(-0.0826489 -0.0599256 0)
(-0.0850123 -0.0560936 0)
(-0.0872366 -0.0521309 0)
(-0.0893052 -0.0480439 0)
(-0.0912074 -0.0438408 0)
(-0.0929358 -0.0395306 0)
(-0.0944847 -0.035123 0)
(-0.0958496 -0.0306279 0)
(-0.0970267 -0.0260555 0)
(-0.0980133 -0.0214161 0)
(-0.0988062 -0.0167203 0)
(-0.0993999 -0.0119793 0)
(-0.0997892 -0.0072053 0)
(-0.0999878 -0.0024105 0)
(0.0999817 -0.00340816 0)
(0.0996979 -0.010192 0)
(0.0991353 -0.0169201 0)
(0.098279 -0.0235727 0)
(0.0971424 -0.0301317 0)
(0.0957385 -0.0365795 0)
(0.0940796 -0.0429002 0)
(0.0921815 -0.0490795 0)
(0.0900657 -0.0551061 0)
(0.0877611 -0.0609725 0)
(0.0853052 -0.0666765 0)
(0.0827457 -0.0722233 0)
(0.0801405 -0.077627 0)
(0.0775557 -0.0829123 0)
(0.075061 -0.0881148 0)
(0.0727204 -0.0932793 0)
(0.0705803 -0.0984551 0)
(0.068657 -0.103688 0)
(0.0669261 -0.109014 0)
(0.0653209 -0.114449 0)
(0.0637386 -0.119989 0)
(0.0620557 -0.125609 0)
(0.0601466 -0.13127 0)
(0.0578996 -0.136925 0)
(0.0552271 -0.142523 0)
(0.0520692 -0.148017 0)
(0.0483915 -0.15336 0)
(0.0441805 -0.158514 0)
(0.0394388 -0.163444 0)
(0.0341795 -0.168122 0)
(0.0284224 -0.172525 0)
(0.0221912 -0.176636 0)
(0.0155109 -0.180442 0)
(0.0084073 -0.183935 0)
(0.000906835 -0.187109 0)
(-0.00696434 -0.189963 0)
(-0.0151827 -0.192498 0)
(-0.0237267 -0.194718 0)
(-0.0325754 -0.196626 0)
(-0.0417087 -0.19823 0)
(-0.0511071 -0.199537 0)
(-0.060752 -0.200556 0)
(-0.0706249 -0.201296 0)
(-0.0807076 -0.201768 0)
(-0.0909815 -0.20198 0)
(-0.101428 -0.201944 0)
(-0.112028 -0.20167 0)
(-0.122762 -0.201167 0)
(-0.133607 -0.200444 0)
(-0.144543 -0.199512 0)
(-0.155541 -0.198376 0)
(-0.166573 -0.197045 0)
(-0.177602 -0.195525 0)
(-0.188581 -0.19382 0)
(-0.19944 -0.191932 0)
(-0.210063 -0.189863 0)
(-0.22029 -0.187607 0)
(-0.229939 -0.185157 0)
(-0.238695 -0.182502 0)
(-0.2459 -0.179616 0)
(-0.250304 -0.176476 0)
(-0.250566 -0.172946 0)
(-0.246275 -0.169009 0)
(-0.238465 -0.164687 0)
(-0.22842 -0.160005 0)
(-0.216956 -0.154982 0)
(-0.204549 -0.149639 0)
(-0.191513 -0.144002 0)
(-0.178082 -0.138103 0)
(-0.164448 -0.131982 0)
(-0.150782 -0.125689 0)
(-0.13724 -0.119284 0)
(-0.124007 -0.112841 0)
(-0.111363 -0.106452 0)
(-0.0997091 -0.100235 0)
(-0.089532 -0.0943262 0)
(-0.0813077 -0.0888689 0)
(-0.0753628 -0.0839767 0)
(-0.0717406 -0.0796902 0)
(-0.0701819 -0.0759493 0)
(-0.0702422 -0.0726115 0)
(-0.0714408 -0.0695069 0)
(-0.0733552 -0.0664889 0)
(-0.0756585 -0.0634561 0)
(-0.0781239 -0.0603487 0)
(-0.0806086 -0.0571367 0)
(-0.0830297 -0.053808 0)
(-0.0853408 -0.0503606 0)
(-0.0875154 -0.0467976 0)
(-0.0895377 -0.0431245 0)
(-0.0913976 -0.0393486 0)
(-0.0930879 -0.0354776 0)
(-0.0946029 -0.0315201 0)
(-0.0959381 -0.0274847 0)
(-0.0970899 -0.0233805 0)
(-0.0980555 -0.0192167 0)
(-0.0988315 -0.0150026 0)
(-0.0994127 -0.0107483 0)
(-0.0997937 -0.00646465 0)
(-0.099988 -0.00216267 0)
(0.0999819 -0.00304333 0)
(0.0996997 -0.00910108 0)
(0.0991406 -0.0151094 0)
(0.0982893 -0.0210506 0)
(0.0971594 -0.0269086 0)
(0.0957638 -0.0326678 0)
(0.0941146 -0.038314 0)
(0.0922275 -0.0438344 0)
(0.0901238 -0.0492191 0)
(0.0878322 -0.0544612 0)
(0.08539 -0.0595591 0)
(0.0828447 -0.0645171 0)
(0.0802537 -0.069348 0)
(0.0776831 -0.0740736 0)
(0.0752023 -0.0787258 0)
(0.0728753 -0.0833447 0)
(0.070749 -0.0879743 0)
(0.0688399 -0.0926563 0)
(0.0671245 -0.0974222 0)
(0.0655366 -0.102287 0)
(0.0639737 -0.107248 0)
(0.0623125 -0.112284 0)
(0.0604267 -0.117359 0)
(0.058204 -0.122433 0)
(0.0555556 -0.127459 0)
(0.0524203 -0.132396 0)
(0.0487626 -0.137202 0)
(0.0445679 -0.141842 0)
(0.0398378 -0.146285 0)
(0.0345844 -0.150506 0)
(0.0288268 -0.154485 0)
(0.0225877 -0.158205 0)
(0.0158916 -0.161655 0)
(0.00876348 -0.164826 0)
(0.0012292 -0.167714 0)
(-0.00668542 -0.170316 0)
(-0.0149572 -0.172633 0)
(-0.023565 -0.174668 0)
(-0.0324881 -0.176424 0)
(-0.0417064 -0.177906 0)
(-0.0512005 -0.179121 0)
(-0.0609515 -0.180075 0)
(-0.0709406 -0.180776 0)
(-0.0811491 -0.181233 0)
(-0.0915579 -0.181453 0)
(-0.102147 -0.181446 0)
(-0.112897 -0.181218 0)
(-0.123787 -0.180779 0)
(-0.134793 -0.180136 0)
(-0.145891 -0.179296 0)
(-0.157053 -0.178267 0)
(-0.168247 -0.177053 0)
(-0.179434 -0.17566 0)
(-0.190563 -0.174092 0)
(-0.20156 -0.172351 0)
(-0.212301 -0.170436 0)
(-0.222621 -0.168345 0)
(-0.232331 -0.166071 0)
(-0.241098 -0.163607 0)
(-0.248227 -0.16093 0)
(-0.252391 -0.15804 0)
(-0.252323 -0.154775 0)
(-0.247706 -0.151145 0)
(-0.239633 -0.147172 0)
(-0.229369 -0.14288 0)
(-0.217708 -0.138291 0)
(-0.205119 -0.133423 0)
(-0.191915 -0.128303 0)
(-0.17833 -0.122961 0)
(-0.164559 -0.117434 0)
(-0.150775 -0.111768 0)
(-0.137136 -0.106016 0)
(-0.123835 -0.100246 0)
(-0.111165 -0.0945406 0)
(-0.0995381 -0.0890045 0)
(-0.089441 -0.083759 0)
(-0.0813411 -0.0789283 0)
(-0.0755415 -0.0746084 0)
(-0.0720555 -0.0708276 0)
(-0.0706009 -0.0675249 0)
(-0.0707246 -0.06457 0)
(-0.0719486 -0.0618125 0)
(-0.0738582 -0.0591252 0)
(-0.0761357 -0.0564212 0)
(-0.0785628 -0.05365 0)
(-0.081003 -0.0507863 0)
(-0.0833776 -0.0478202 0)
(-0.0856427 -0.0447501 0)
(-0.0877732 -0.0415786 0)
(-0.089754 -0.0383107 0)
(-0.0915756 -0.0349527 0)
(-0.0932309 -0.0315114 0)
(-0.0947146 -0.0279941 0)
(-0.0960222 -0.0244084 0)
(-0.0971502 -0.0207623 0)
(-0.0980958 -0.0170638 0)
(-0.0988558 -0.0133213 0)