/*--------------------------------*- C++ -*----------------------------------*\
  =========                 |
  \\      /  F ield         | OpenFOAM: The Open Source CFD Toolbox
   \\    /   O peration     | Website:  https://openfoam.org
    \\  /    A nd           | Version:  8
     \\/     M anipulation  |
\*---------------------------------------------------------------------------*/
FoamFile
{
    version     2.0;
    format      ascii;
    class       volScalarField;
    location    "40/fluid";
    object      CH4;
}
// * * * * * * * * * * * * * * * * * * * * * * * * * * * * * * * * * * * * * //

dimensions      [0 0 0 0 0 0 0];

internalField   nonuniform List<scalar> 
4000
(
0.999711
0.998758
0.997249
0.994951
0.991581
0.986825
0.980376
0.971979
0.961472
0.948813
0.934076
0.917428
0.899095
0.879327
0.858376
0.836472
0.813822
0.790601
0.766962
0.743032
0.718924
0.694743
0.670328
0.646017
0.621853
0.597886
0.574169
0.550757
0.527711
0.505075
0.482888
0.461178
0.439967
0.419273
0.39911
0.379488
0.360418
0.341903
0.323949
0.306563
0.289746
0.273504
0.257837
0.242742
0.228213
0.214243
0.200821
0.187935
0.175575
0.163728
0.152382
0.141522
0.131135
0.121208
0.111729
0.102666
0.0940131
0.0857562
0.07788
0.0703861
0.0632545
0.0564707
0.050019
0.0438878
0.0380693
0.0325562
0.0273424
0.0224229
0.0177943
0.0134643
0.00943891
0.00574387
0.00362073
0.00277351
0.00210305
0.00156738
0.00114672
0.000822183
0.000576486
0.000394302
0.00026237
0.000169439
0.000106168
6.49954e-05
4.00475e-05
2.69919e-05
2.00952e-05
1.50717e-05
1.08659e-05
7.41834e-06
4.74384e-06
2.81244e-06
1.53409e-06
7.67195e-07
3.57016e-07
1.57751e-07
6.64326e-08
2.61949e-08
8.9019e-09
1.57298e-09
0.999728
0.998835
0.997437
0.995329
0.992258
0.987934
0.982058
0.974351
0.964606
0.952714
0.938683
0.922629
0.904746
0.885277
0.864477
0.842596
0.819858
0.79646
0.772567
0.748313
0.723791
0.698959
0.674389
0.649853
0.625435
0.601136
0.577027
0.553181
0.52978
0.506827
0.484344
0.462353
0.440875
0.419929
0.399532
0.37966
0.360369
0.341651
0.323505
0.305948
0.288972
0.272591
0.256802
0.241603
0.226986
0.212946
0.199472
0.186552
0.17417
0.16231
0.150959
0.140101
0.12972
0.119801
0.110326
0.101285
0.0926634
0.0844495
0.07663
0.0691856
0.0621035
0.0553768
0.0489958
0.0429356
0.0371844
0.0317334
0.0265747
0.0217032
0.0171182
0.0128411
0.00888508
0.00532001
0.00355128
0.0026857
0.0020089
0.00148121
0.00107421
0.000764501
0.000532566
0.000362127
0.000239655
0.000154013
9.61507e-05
5.88794e-05
3.67102e-05
2.54649e-05
1.9018e-05
1.40832e-05
9.98196e-06
6.68257e-06
4.17994e-06
2.42119e-06
1.29352e-06
6.39674e-07
2.97138e-07
1.31698e-07
5.57991e-08
2.21665e-08
7.58673e-09
1.34618e-09
0.999748
0.998922
0.997628
0.995677
0.992833
0.988821
0.983351
0.97615
0.967002
0.955778
0.942454
0.927103
0.909882
0.890995
0.870675
0.849155
0.82666
0.803393
0.779544
0.755284
0.730671
0.705685
0.680645
0.655568
0.630478
0.605554
0.581079
0.557053
0.533373
0.510102
0.487285
0.464959
0.443152
0.421885
0.401171
0.38106
0.361528
0.342584
0.32423
0.306473
0.289324
0.272787
0.256855
0.241529
0.226801
0.212656
0.199084
0.186072
0.173607
0.161672
0.150254
0.139336
0.128906
0.118947
0.109448
0.100395
0.09177
0.0835608
0.0757321
0.0682745
0.0611755
0.0544206
0.0479979
0.0419105
0.0361451
0.0306911
0.0255396
0.0206835
0.016117
0.0118569
0.00793392
0.0045156
0.00323593
0.00244324
0.00182094
0.00133684
0.000964731
0.000682803
0.00047278
0.000319388
0.000209953
0.000134072
8.33439e-05
5.11603e-05
3.25551e-05
2.32591e-05
1.75173e-05
1.2924e-05
9.11254e-06
6.07259e-06
3.78778e-06
2.19375e-06
1.17442e-06
5.81268e-07
2.7041e-07
1.20006e-07
5.08635e-08
2.01874e-08
6.89671e-09
1.22202e-09
0.999767
0.999002
0.997804
0.995997
0.99336
0.989632
0.984533
0.977794
0.96919
0.958574
0.945893
0.931192
0.914593
0.896275
0.876448
0.855327
0.833124
0.810035
0.786237
0.761871
0.736829
0.711837
0.686454
0.660895
0.635632
0.610701
0.585959
0.5615
0.53739
0.513685
0.490434
0.467679
0.445456
0.423796
0.40267
0.382154
0.362245
0.34295
0.324272
0.30622
0.288808
0.272029
0.255885
0.240366
0.225473
0.211196
0.197518
0.184421
0.17189
0.159907
0.148456
0.13752
0.12708
0.11712
0.107621
0.098568
0.0899419
0.0817223
0.073909
0.0664837
0.0594303
0.0527335
0.0463793
0.0403563
0.0346537
0.0292619
0.0241728
0.0193801
0.0148802
0.0106908
0.00681596
0.00366568
0.00279286
0.00213487
0.0016006
0.0011772
0.000848776
0.000599131
0.000413244
0.000277887
0.000181793
0.000115619
7.18076e-05
4.44566e-05
2.92026e-05
2.14126e-05
1.61782e-05
1.18757e-05
8.31654e-06
5.49771e-06
3.39774e-06
1.94866e-06
1.03389e-06
5.08557e-07
2.36439e-07
1.05155e-07
4.47265e-08
1.78151e-08
6.10219e-09
1.08253e-09
0.999783
0.999073
0.99796
0.99628
0.993825
0.990349
0.985583
0.979262
0.971155
0.9611
0.949022
0.934934
0.918932
0.901169
0.881831
0.861121
0.839237
0.816369
0.792628
0.768015
0.743024
0.717541
0.692108
0.666784
0.641413
0.616128
0.591023
0.566179
0.541668
0.517552
0.493886
0.470717
0.448081
0.42601
0.404536
0.383673
0.363431
0.343817
0.32484
0.306512
0.288842
0.271834
0.255484
0.239779
0.22471
0.210275
0.196449
0.183217
0.170567
0.158481
0.146943
0.135935
0.12544
0.115439
0.105913
0.0968441
0.0882137
0.0800049
0.0722023
0.0647904
0.0577548
0.0510814
0.0447573
0.0387705
0.03311
0.0277689
0.0227425
0.0180266
0.0136513
0.00961798
0.00589962
0.0034289
0.00260166
0.00195575
0.00144758
0.00105364
0.000752997
0.000527367
0.000361155
0.000241279
0.000156953
9.9439e-05
6.18136e-05
3.87749e-05
2.64421e-05
1.98235e-05
1.50023e-05
1.09703e-05
7.64372e-06
5.02454e-06
3.08771e-06
1.76211e-06
9.31702e-07
4.57605e-07
2.12931e-07
9.48386e-08
4.03916e-08
1.6101e-08
5.51614e-09
9.78472e-10
0.999799
0.999138
0.998103
0.996538
0.994251
0.991005
0.986544
0.980606
0.972957
0.96342
0.951899
0.938384
0.922943
0.905704
0.886837
0.866528
0.844964
0.822225
0.79837
0.773709
0.748795
0.723711
0.698284
0.67268
0.647018
0.621407
0.595945
0.570718
0.545806
0.521277
0.497191
0.473598
0.450538
0.428034
0.406178
0.384935
0.364325
0.34436
0.325053
0.30642
0.28847
0.271204
0.254622
0.238712
0.22346
0.20886
0.194908
0.181577
0.168847
0.156699
0.145113
0.134069
0.123549
0.113533
0.104004
0.0949426
0.0863308
0.0781505
0.0703845
0.0630162
0.0560303
0.0494123
0.0431485
0.0372265
0.0316349
0.0263615
0.0214115
0.0167804
0.0125471
0.00860336
0.00506911
0.00338098
0.0025006
0.0018368
0.0013356
0.000958579
0.000677244
0.000469748
0.000319022
0.000211602
0.000136851
8.64238e-05
5.38785e-05
3.44075e-05
2.43843e-05
1.85333e-05
1.40154e-05
1.02095e-05
7.0782e-06
4.62446e-06
2.82198e-06
1.5988e-06
8.39908e-07
4.10651e-07
1.90966e-07
8.51535e-08
3.63404e-08
1.45157e-08
4.98028e-09
8.83983e-10
0.999812
0.999197
0.998232
0.996773
0.994638
0.991603
0.987421
0.981835
0.974607
0.965551
0.95455
0.94157
0.926651
0.909901
0.891464
0.871508
0.850035
0.827164
0.803659
0.779632
0.754906
0.729673
0.70408
0.678263
0.652345
0.626441
0.600654
0.575079
0.549801
0.524896
0.500431
0.476465
0.453047
0.43018
0.407936
0.38633
0.365374
0.345083
0.325473
0.306559
0.28835
0.27085
0.254054
0.237953
0.222537
0.207779
0.193683
0.180224
0.167384
0.155145
0.143487
0.132389
0.121828
0.111783
0.102235
0.0931641
0.0845509
0.0763768
0.0686243
0.0612764
0.0543174
0.0477338
0.0415141
0.0356474
0.0301228
0.0249328
0.0200597
0.0154901
0.0112948
0.00742997
0.00408843
0.00297785
0.00221948
0.00163555
0.00118962
0.000852509
0.000600724
0.000415316
0.000281056
0.000185778
0.000119834
7.56671e-05
4.74819e-05
3.10092e-05
2.26341e-05
1.74017e-05
1.31636e-05
9.56467e-06
6.60359e-06
4.29063e-06
2.60175e-06
1.46489e-06
7.65675e-07
3.73199e-07
1.7354e-07
7.74678e-08
3.31102e-08
1.32434e-08
4.54773e-09
8.07491e-10
0.999825
0.999251
0.998351
0.996989
0.994993
0.992153
0.988228
0.982966
0.97613
0.967521
0.957004
0.944522
0.930093
0.913801
0.895778
0.876033
0.854765
0.832653
0.809445
0.785375
0.760595
0.735259
0.709513
0.683495
0.657334
0.63115
0.605053
0.579144
0.553514
0.528242
0.503401
0.47905
0.455242
0.432026
0.409436
0.38749
0.366209
0.345609
0.32571
0.30653
0.288078
0.270356
0.25336
0.237082
0.221508
0.206623
0.192397
0.178834
0.165916
0.153615
0.141909
0.130777
0.120197
0.110147
0.100606
0.0915511
0.0829625
0.0748211
0.0671081
0.0598058
0.0528959
0.0463617
0.0401972
0.0343747
0.0288864
0.0237229
0.0188756
0.0143512
0.0102273
0.00642144
0.00338089
0.00257781
0.00195015
0.0014499
0.00105985
0.000761327
0.0005368
0.000370904
0.000250675
0.000165453
0.000106647
6.74795e-05
4.27577e-05
2.86889e-05
2.14521e-05
1.65916e-05
1.25284e-05
9.0677e-06
6.22705e-06
4.01938e-06
2.41949e-06
1.35253e-06
7.02736e-07
3.41244e-07
1.58591e-07
7.08567e-08
3.03318e-08
1.21513e-08
4.17743e-09
7.42128e-10
0.999837
0.999301
0.99846
0.997188
0.995321
0.992659
0.988971
0.984011
0.977539
0.969347
0.959284
0.947271
0.933299
0.917426
0.899727
0.880238
0.859658
0.837752
0.814708
0.790693
0.765892
0.740469
0.714582
0.688375
0.661986
0.63554
0.609155
0.582937
0.556982
0.531377
0.506196
0.481503
0.457348
0.433822
0.410916
0.388659
0.367076
0.34619
0.326024
0.306597
0.287919
0.269991
0.252809
0.236365
0.220646
0.205636
0.191318
0.177661
0.164647
0.152264
0.140491
0.129302
0.118676
0.108592
0.0990312
0.0899705
0.0813888
0.0732647
0.0655773
0.0583081
0.0514429
0.0449666
0.0388465
0.0330816
0.027659
0.0225696
0.0178065
0.0134058
0.00937264
0.00566879
0.0032011
0.00243422
0.0018279
0.00135153
0.000983479
0.000703654
0.000494324
0.000340399
0.000229355
0.000151012
9.72382e-05
6.16793e-05
3.95153e-05
2.72612e-05
2.07283e-05
1.60457e-05
1.20676e-05
8.68769e-06
5.92839e-06
3.79905e-06
2.26943e-06
1.25945e-06
6.50411e-07
3.15086e-07
1.4628e-07
6.53855e-08
2.80228e-08
1.12406e-08
3.86805e-09
6.87482e-10
0.999847
0.999347
0.998561
0.997371
0.995623
0.993126
0.989658
0.984977
0.978844
0.971044
0.96141
0.949841
0.936305
0.920833
0.90339
0.884601
0.864243
0.842496
0.81956
0.795597
0.770785
0.74529
0.719275
0.692895
0.666292
0.6396
0.612942
0.586431
0.560168
0.534246
0.508745
0.483735
0.459276
0.435421
0.412204
0.389655
0.367795
0.34665
0.326245
0.306598
0.287718
0.269607
0.252262
0.235671
0.219823
0.2047
0.190285
0.176557
0.163495
0.15107
0.139267
0.128065
0.117436
0.107354
0.0977961
0.0887402
0.0801667
0.0720585
0.064388
0.0571371
0.0502867
0.04382
0.0377303
0.032004
0.02663
0.0216
0.0169098
0.0126505
0.00865569
0.00508468
0.0032623
0.00242956
0.00179266
0.00130796
0.000941987
0.000668422
0.000466402
0.000319362
0.000214181
0.000140527
9.03438e-05
5.74506e-05
3.724e-05
2.63729e-05
2.02759e-05
1.56706e-05
1.17298e-05
8.39618e-06
5.69142e-06
3.61997e-06
2.14549e-06
1.18183e-06
6.06585e-07
2.931e-07
1.35932e-07
6.07727e-08
2.607e-08
1.0469e-08
3.60567e-09
6.41137e-10
0.999857
0.999389
0.998654
0.99754
0.995901
0.993556
0.990291
0.98587
0.980054
0.972622
0.963395
0.952255
0.939158
0.924151
0.907253
0.888674
0.868505
0.846911
0.824064
0.80013
0.775301
0.749736
0.723603
0.697061
0.670261
0.643341
0.616433
0.589655
0.563114
0.536908
0.511119
0.48582
0.461074
0.436931
0.413434
0.390613
0.368496
0.347112
0.326487
0.306637
0.287573
0.269297
0.251804
0.235081
0.219116
0.203892
0.189388
0.175585
0.16246
0.14999
0.138146
0.126906
0.116249
0.106152
0.0965895
0.0875382
0.0789732
0.0708704
0.0632169
0.055992
0.0491767
0.0427535
0.0367079
0.0310269
0.0257002
0.0207201
0.016095
0.0118962
0.00800451
0.0045276
0.00318213
0.00235413
0.00172645
0.00125291
0.00089814
0.000634726
0.000441327
0.000301272
0.000201548
0.000132026
8.48926e-05
5.42131e-05
3.56174e-05
2.58363e-05
1.99933e-05
1.54145e-05
1.14882e-05
8.17904e-06
5.5078e-06
3.47653e-06
2.04392e-06
1.11733e-06
5.69932e-07
2.74638e-07
1.27237e-07
5.68855e-08
2.44186e-08
9.8145e-09
3.38276e-09
6.01738e-10
0.999866
0.999428
0.998739
0.997694
0.996156
0.993951
0.990873
0.986694
0.981174
0.974088
0.965244
0.954503
0.94178
0.927034
0.910606
0.892343
0.872419
0.851027
0.828342
0.804421
0.779556
0.753908
0.727648
0.70094
0.673941
0.646797
0.619644
0.592605
0.565794
0.539311
0.513245
0.487674
0.462661
0.43826
0.414512
0.391452
0.369109
0.347514
0.326694
0.306667
0.287441
0.269019
0.251392
0.234552
0.218484
0.203171
0.188592
0.174725
0.161549
0.149036
0.137163
0.125903
0.11523
0.105121
0.0955524
0.0865004
0.0779428
0.0698573
0.0622233
0.0550209
0.0482314
0.0418377
0.0358243
0.0301775
0.0248862
0.0199421
0.0153564
0.0111933
0.00736597
0.00398359
0.00294341
0.00218805
0.00160951
0.00117017
0.000839684
0.000593728
0.00041293
0.000281945
0.000188693
0.000123736
7.97805e-05
5.12911e-05
3.42109e-05
2.5281e-05
1.97085e-05
1.51889e-05
1.12898e-05
8.0059e-06
5.36172e-06
3.3599e-06
1.95979e-06
1.0633e-06
5.39039e-07
2.59028e-07
1.19854e-07
5.3577e-08
2.30095e-08
9.25477e-09
3.19184e-09
5.67977e-10
0.999875
0.999463
0.998817
0.997836
0.99639
0.994313
0.991408
0.98745
0.982203
0.975439
0.966959
0.956614
0.944317
0.930043
0.913841
0.895802
0.876047
0.854729
0.831992
0.808208
0.783368
0.757679
0.731321
0.704473
0.677298
0.649952
0.622577
0.595303
0.568246
0.541513
0.515196
0.489373
0.464114
0.439473
0.415497
0.392219
0.369671
0.347889
0.326897
0.306713
0.287344
0.268793
0.251051
0.234107
0.217948
0.202554
0.187905
0.173978
0.160751
0.148197
0.136292
0.12501
0.114325
0.104211
0.0946435
0.0855982
0.0770515
0.068981
0.0613653
0.054184
0.0474184
0.0410509
0.0350658
0.0294491
0.0241892
0.0192773
0.0147306
0.0106007
0.00680689
0.00355149
0.00268602
0.00200962
0.00148606
0.00108505
0.000781323
0.000554058
0.000386291
0.00026435
0.00017733
0.000116626
7.55443e-05
4.8989e-05
3.32352e-05
2.49893e-05
1.95926e-05
1.50949e-05
1.11929e-05
7.89897e-06
5.25612e-06
3.2688e-06
1.8909e-06
1.0181e-06
5.12948e-07
2.45772e-07
1.13558e-07
5.0745e-08
2.17996e-08
8.77302e-09
3.02727e-09
5.3886e-10
0.999882
0.999496
0.998888
0.997965
0.996603
0.994644
0.991896
0.988142
0.983146
0.976676
0.968526
0.958531
0.946587
0.932659
0.916767
0.898996
0.879466
0.858333
0.835773
0.811977
0.787049
0.761252
0.734762
0.707754
0.680395
0.652846
0.625254
0.597753
0.570465
0.543499
0.516951
0.490902
0.465422
0.440568
0.416386
0.392913
0.370184
0.348235
0.327091
0.306768
0.287275
0.268611
0.25077
0.233739
0.217502
0.202042
0.187336
0.173361
0.160093
0.147506
0.135575
0.124273
0.113574
0.103453
0.0938833
0.0848409
0.0763015
0.0682423
0.0606414
0.053478
0.0467329
0.0403883
0.0344282
0.0288386
0.0236077
0.0187266
0.0142244
0.0101296
0.00637329
0.00328494
0.00248983
0.00186742
0.00138449
0.00101358
0.000731829
0.00052038
0.000363826
0.000249708
0.000168055
0.000110976
7.23102e-05
4.73639e-05
3.26977e-05
2.4926e-05
1.96125e-05
1.50924e-05
1.11567e-05
7.84114e-06
5.18178e-06
3.19898e-06
1.83504e-06
9.80412e-07
4.90907e-07
2.34491e-07
1.08173e-07
4.83117e-08
2.07563e-08
8.35647e-09
2.88473e-09
5.1362e-10
0.999889
0.999525
0.998952
0.998082
0.996796
0.994943
0.992339
0.98877
0.984004
0.977805
0.969957
0.960283
0.948663
0.93504
0.91943
0.901891
0.882535
0.861509
0.838983
0.815128
0.790248
0.764409
0.737828
0.710689
0.683171
0.655441
0.627652
0.599944
0.572445
0.545265
0.518506
0.49225
0.466571
0.441528
0.417166
0.393524
0.370639
0.348547
0.327273
0.306832
0.287232
0.268471
0.250544
0.233438
0.217136
0.201618
0.186863
0.172848
0.159546
0.146932
0.13498
0.123663
0.112954
0.102827
0.0932555
0.0842155
0.075682
0.0676318
0.0600427
0.0528937
0.0461652
0.0398394
0.0339
0.0283331
0.0231268
0.0182726
0.0138119
0.00975171
0.00603556
0.00310139
0.00235522
0.00176967
0.00131437
0.000964028
0.000697433
0.000497007
0.000348343
0.000239772
0.000161943
0.000107444
7.04844e-05
4.66529e-05
3.27366e-05
2.52142e-05
1.98593e-05
1.52419e-05
1.12174e-05
7.83457e-06
5.14377e-06
3.14637e-06
1.7898e-06
9.48961e-07
4.72274e-07
2.249e-07
1.03572e-07
4.6223e-08
1.98567e-08
7.99602e-09
2.7611e-09
4.91705e-10
0.999895
0.999551
0.999009
0.998186
0.996968
0.99521
0.992735
0.989332
0.984773
0.978818
0.971246
0.961869
0.950562
0.937214
0.921864
0.904545
0.885364
0.864467
0.842024
0.818224
0.793266
0.767327
0.740622
0.71334
0.685661
0.657755
0.629781
0.601883
0.57419
0.546818
0.519867
0.493425
0.467565
0.44235
0.417826
0.394041
0.37103
0.348823
0.327443
0.306906
0.287218
0.268378
0.25038
0.233211
0.216854
0.201288
0.186492
0.172441
0.159111
0.146474
0.134504
0.123173
0.112455
0.102323
0.0927507
0.0837125
0.0751837
0.0671409
0.0595615
0.0524243
0.0457096
0.0393993
0.0334771
0.0279287
0.0227422
0.0179089
0.0134795
0.0094422
0.00574908
0.00299201
0.00227352
0.00170983
0.00127145
0.000933943
0.000676905
0.000483435
0.000339707
0.000234545
0.000158995
0.000105966
6.99468e-05
4.67382e-05
3.32884e-05
2.5818e-05
2.0311e-05
1.55237e-05
1.13595e-05
7.87653e-06
5.12616e-06
3.10939e-06
1.75382e-06
9.22879e-07
4.56584e-07
2.16767e-07
9.96477e-08
4.44328e-08
1.90825e-08
7.68477e-09
2.65411e-09
4.72722e-10
0.9999
0.999573
0.999059
0.998276
0.997117
0.995442
0.993079
0.989823
0.985446
0.979708
0.972381
0.963263
0.952208
0.939128
0.924007
0.906877
0.887838
0.867031
0.844628
0.820818
0.795796
0.769821
0.743024
0.715623
0.687804
0.659745
0.631607
0.603539
0.575675
0.548133
0.521015
0.494411
0.468394
0.443023
0.418363
0.394459
0.371347
0.34905
0.327588
0.306976
0.28722
0.268318
0.250265
0.233045
0.216644
0.201041
0.186212
0.172134
0.158781
0.146125
0.134141
0.122799
0.112074
0.101937
0.0923632
0.0833258
0.0748003
0.0667627
0.0591904
0.052062
0.0453575
0.0390588
0.0331493
0.0276148
0.0224434
0.017626
0.0132208
0.0092011
0.00552535
0.00293166
0.00222967
0.00167861
0.00124981
0.000919472
0.000667662
0.000477889
0.00033668
0.000233158
0.000158624
0.0001062
7.05199e-05
4.75009e-05
3.41708e-05
2.66169e-05
2.08875e-05
1.58851e-05
1.15504e-05
7.94864e-06
5.1294e-06
3.08397e-06
1.72481e-06
9.01116e-07
4.43383e-07
2.099e-07
9.63249e-08
4.29121e-08
1.84227e-08
7.41884e-09
2.56252e-09
4.56455e-10
0.999905
0.999592
0.999099
0.99835
0.99724
0.995634
0.993365
0.990231
0.986007
0.980453
0.973333
0.964435
0.953586
0.940742
0.925819
0.908856
0.889944
0.869223
0.846862
0.823057
0.79801
0.771932
0.745043
0.717528
0.689583
0.661386
0.633105
0.604891
0.576879
0.549189
0.521926
0.49518
0.469026
0.443537
0.418775
0.394783
0.371596
0.349235
0.327716
0.30705
0.287243
0.268296
0.250199
0.232942
0.216507
0.200874
0.18602
0.17192
0.158548
0.145878
0.133882
0.122532
0.1118
0.10166
0.0920847
0.0830478
0.0745245
0.0664907
0.0589236
0.0518016
0.0451048
0.0388146
0.0329146
0.0273902
0.0222293
0.0174229
0.0130347
0.00902637
0.00536141
0.00290202
0.00221023
0.00166648
0.00124283
0.00091604
0.000666577
0.00047827
0.000337895
0.000234767
0.000160337
0.000107846
7.20177e-05
4.88396e-05
3.53739e-05
2.75653e-05
2.15348e-05
1.62791e-05
1.1756e-05
8.02894e-06
5.13952e-06
3.06525e-06
1.70133e-06
8.83234e-07
4.32507e-07
2.04237e-07
9.35826e-08
4.16557e-08
1.78769e-08
7.19848e-09
2.48655e-09
4.42949e-10
0.999908
0.999605
0.999129
0.998405
0.997331
0.995776
0.993577
0.990536
0.986429
0.981014
0.974054
0.965334
0.954681
0.941985
0.927202
0.910356
0.891533
0.870867
0.848531
0.824719
0.799639
0.773502
0.746535
0.718936
0.690896
0.662597
0.634209
0.605884
0.577759
0.549954
0.522575
0.495713
0.469456
0.443883
0.419048
0.394996
0.371758
0.349356
0.327803
0.307106
0.28727
0.268294
0.250171
0.23289
0.216433
0.20078
0.185908
0.171793
0.158409
0.145729
0.133724
0.122367
0.111631
0.101488
0.0919103
0.0828731
0.0743507
0.066319
0.0587549
0.051637
0.0449449
0.0386603
0.0327664
0.0272487
0.0220949
0.0172957
0.0129178
0.00891613
0.00525657
0.0028893
0.00220457
0.00166533
0.00124446
0.000919217
0.000670461
0.000482303
0.000341728
0.000238201
0.000163285
0.000110293
7.40019e-05
5.04295e-05
3.66446e-05
2.84914e-05
2.21384e-05
1.66334e-05
1.19347e-05
8.09617e-06
5.14714e-06
3.04887e-06
1.68241e-06
8.69264e-07
4.24175e-07
1.99957e-07
9.15262e-08
4.07173e-08
1.74699e-08
7.03434e-09
2.42998e-09
4.32909e-10
0.99991
0.999613
0.999145
0.998434
0.997381
0.995855
0.993695
0.990706
0.986663
0.981327
0.974456
0.965832
0.955277
0.942674
0.927973
0.911194
0.89242
0.871785
0.849461
0.825645
0.800549
0.774387
0.747376
0.719723
0.691626
0.663268
0.634818
0.606431
0.578242
0.550371
0.522923
0.496001
0.469695
0.444076
0.419202
0.395117
0.371852
0.349428
0.327857
0.307146
0.287295
0.268305
0.250169
0.232875
0.216407
0.200743
0.185863
0.17174
0.158349
0.145663
0.133654
0.122294
0.111555
0.10141
0.0918315
0.082794
0.0742719
0.066241
0.0586783
0.0515622
0.0448725
0.0385906
0.0326998
0.0271853
0.0220351
0.0172394
0.0128657
0.00886651
0.0052077
0.00288449
0.00220524
0.00166888
0.00124933
0.000924477
0.000675565
0.000486951
0.000345779
0.000241614
0.000166078
0.00011252
7.57345e-05
5.17382e-05
3.75828e-05
2.91147e-05
2.2517e-05
1.68405e-05
1.20295e-05
8.12452e-06
5.1426e-06
3.03423e-06
1.66858e-06
8.5978e-07
4.18745e-07
1.97222e-07
9.02342e-08
4.01363e-08
1.72211e-08
6.93503e-09
2.39603e-09
4.26906e-10
0.99991
0.999613
0.999146
0.998435
0.997381
0.995856
0.993696
0.990707
0.986664
0.981327
0.974455
0.965829
0.955271
0.942665
0.92796
0.911177
0.892399
0.871761
0.849435
0.825618
0.800522
0.774361
0.747352
0.719702
0.691608
0.663253
0.634806
0.606421
0.578233
0.550365
0.522919
0.496001
0.469698
0.444081
0.419209
0.395124
0.37186
0.349436
0.327866
0.307155
0.287305
0.268315
0.250179
0.232885
0.216416
0.200753
0.185872
0.17175
0.158359
0.145672
0.133663
0.122302
0.111563
0.101418
0.0918396
0.0828019
0.0742796
0.0662485
0.0586857
0.0515694
0.0448795
0.0385973
0.0327063
0.0271917
0.0220412
0.0172453
0.0128713
0.00887193
0.00521278
0.00288384
0.00220486
0.00166874
0.00124934
0.000924567
0.000675677
0.00048705
0.000345852
0.000241661
0.000166106
0.000112535
7.57421e-05
5.17405e-05
3.75806e-05
2.911e-05
2.25117e-05
1.68361e-05
1.20266e-05
8.12296e-06
5.14187e-06
3.03396e-06
1.6685e-06
8.59785e-07
4.18767e-07
1.97236e-07
9.02408e-08
4.01385e-08
1.72215e-08
6.93501e-09
2.39601e-09
4.2692e-10
0.999908
0.999605
0.999129
0.998405
0.997331
0.995776
0.993577
0.990535
0.986427
0.981011
0.97405
0.965325
0.954671
0.941972
0.927183
0.910329
0.891496
0.870823
0.84848
0.824666
0.799587
0.773458
0.74649
0.718895
0.690865
0.662577
0.634199
0.605884
0.577767
0.549969
0.522597
0.49574
0.469489
0.443916
0.419079
0.395025
0.371785
0.349382
0.327828
0.30713
0.287294
0.268318
0.250196
0.232915
0.216459
0.200806
0.185935
0.17182
0.158436
0.145755
0.13375
0.122393
0.111657
0.101513
0.0919353
0.0828977
0.0743748
0.0663425
0.0587778
0.0516592
0.0449665
0.0386812
0.0327867
0.0272682
0.0221138
0.0173139
0.0129352
0.00893272
0.00527209
0.00288822
0.00220393
0.00166519
0.00124469
0.000919636
0.000670923
0.000482713
0.000342045
0.000238423
0.000163429
0.000110379
7.40483e-05
5.04493e-05
3.6648e-05
2.84878e-05
2.21317e-05
1.66266e-05
1.19292e-05
8.09222e-06
5.14419e-06
3.04742e-06
1.68114e-06
8.68333e-07
4.23589e-07
1.9963e-07
9.13627e-08
4.06412e-08
1.74364e-08
7.02065e-09
2.42528e-09
4.32107e-10
0.999905
0.999592
0.999099
0.99835
0.997239
0.995632
0.993362
0.990228
0.986003
0.980449
0.973331
0.964439
0.953609
0.940744
0.925807
0.908826
0.889895
0.869156
0.846782
0.822966
0.797915
0.771839
0.744966
0.717471
0.689541
0.66136
0.633093
0.604893
0.576893
0.549213
0.521957
0.495216
0.469065
0.443577
0.418814
0.394821
0.371632
0.349272
0.327752
0.307087
0.287282
0.268336
0.250242
0.232987
0.216553
0.20092
0.186066
0.171967
0.158595
0.145924
0.133927
0.122576
0.111844
0.101703
0.0921268
0.083089
0.0745648
0.06653
0.0589619
0.0518389
0.0451409
0.0388496
0.0329485
0.027423
0.022261
0.0174536
0.013064
0.00905445
0.00538788
0.00290162
0.00221016
0.00166693
0.00124368
0.000917066
0.000667568
0.000479107
0.000338531
0.00023521
0.000160624
0.000108018
7.21117e-05
4.88833e-05
3.53885e-05
2.75666e-05
2.15286e-05
1.62704e-05
1.17482e-05
8.02336e-06
5.13584e-06
3.0621e-06
1.69932e-06
8.81899e-07
4.3168e-07
2.03771e-07
9.33449e-08
4.15424e-08
1.78258e-08
7.17729e-09
2.47916e-09
4.4168e-10
0.9999
0.999573
0.999058
0.998274
0.997114
0.995437
0.993072
0.989814
0.985435
0.979697
0.972367
0.96324
0.952153
0.939076
0.923961
0.906828
0.88778
0.866961
0.844546
0.820726
0.795701
0.769723
0.742946
0.715558
0.687754
0.659711
0.631589
0.603538
0.575688
0.548157
0.521049
0.494451
0.46844
0.443077
0.418421
0.394519
0.371407
0.34911
0.327648
0.307036
0.287281
0.26838
0.250328
0.23311
0.21671
0.201106
0.186278
0.172199
0.158845
0.146189
0.134204
0.122861
0.112135
0.101997
0.0924224
0.083384
0.0748573
0.0668185
0.0592448
0.052115
0.0454092
0.0391089
0.0331978
0.0276616
0.0224884
0.0176692
0.0132625
0.00924118
0.00556384
0.00293493
0.00223228
0.00168115
0.00125236
0.00092186
0.000669725
0.000479521
0.000337881
0.000233988
0.000159166
0.000106534
7.07142e-05
4.76048e-05
3.42152e-05
2.663e-05
2.08876e-05
1.58802e-05
1.15447e-05
7.94396e-06
5.12598e-06
3.08141e-06
1.72288e-06
8.99614e-07
4.42334e-07
2.09262e-07
9.59838e-08
4.27449e-08
1.83462e-08
7.38671e-09
2.55121e-09
4.54473e-10
0.999895
0.99955
0.999008
0.998182
0.996962
0.995201
0.992722
0.989317
0.984756
0.978803
0.971233
0.961858
0.950544
0.937192
0.921827
0.904494
0.885295
0.864377
0.841916
0.818106
0.79314
0.767226
0.740532
0.713262
0.685598
0.657711
0.629755
0.601874
0.574197
0.54684
0.519901
0.493469
0.467617
0.442407
0.417889
0.394108
0.3711
0.348895
0.327517
0.306982
0.287296
0.268459
0.250463
0.233294
0.216937
0.201372
0.186576
0.172525
0.159194
0.146556
0.134585
0.123254
0.112535
0.102402
0.0928279
0.0837882
0.0752578
0.0672133
0.059632
0.0524928
0.045776
0.0394635
0.0335389
0.027988
0.0227992
0.0179635
0.0135321
0.00949347
0.00579923
0.00300331
0.00228215
0.00171658
0.00127684
0.000938239
0.00068025
0.000485954
0.000341528
0.000235804
0.00015983
0.000106498
7.02668e-05
4.69171e-05
3.33763e-05
2.58591e-05
2.03313e-05
1.55326e-05
1.13628e-05
7.87744e-06
5.12584e-06
3.10822e-06
1.75211e-06
9.21262e-07
4.55358e-07
2.15982e-07
9.92141e-08
4.42155e-08
1.89817e-08
7.64213e-09
2.639e-09
4.70055e-10
0.999889
0.999524
0.998949
0.998077
0.996787
0.99493
0.992321
0.988749
0.983982
0.977785
0.969942
0.960275
0.948666
0.93504
0.919416
0.901861
0.882488
0.861443
0.838899
0.815039
0.79016
0.764315
0.737734
0.710604
0.683101
0.655389
0.627621
0.599934
0.572454
0.545293
0.51855
0.492308
0.466639
0.441602
0.417246
0.393608
0.370728
0.34864
0.327369
0.306931
0.287333
0.268576
0.25065
0.233544
0.217242
0.201724
0.186969
0.172952
0.15965
0.147035
0.135082
0.123763
0.113053
0.102924
0.0933519
0.0843101
0.0757748
0.0677226
0.0601313
0.0529799
0.0462489
0.0399203
0.0339779
0.0284076
0.0231974
0.0183386
0.0138725
0.00980575
0.00608013
0.00313484
0.00237808
0.00178603
0.00132636
0.00097286
0.000703883
0.000501634
0.000351584
0.000241976
0.00016339
0.000108359
7.10387e-05
4.69746e-05
3.29178e-05
2.53261e-05
1.99288e-05
1.52818e-05
1.12387e-05
7.84505e-06
5.14794e-06
3.14938e-06
1.78974e-06
9.47805e-07
4.71071e-07
2.24028e-07
1.03062e-07
4.59609e-08
1.97337e-08
7.94369e-09
2.74249e-09
4.8841e-10
0.999882
0.999494
0.998884
0.997958
0.996591
0.994626
0.991873
0.988115
0.983119
0.976654
0.968513
0.958529
0.946593
0.932664
0.916764
0.898973
0.879418
0.858257
0.835673
0.811844
0.78692
0.761126
0.734642
0.707647
0.680307
0.65278
0.62521
0.597731
0.570464
0.543517
0.516987
0.490954
0.465488
0.440647
0.416476
0.393011
0.370289
0.348345
0.327205
0.306885
0.287394
0.268731
0.250892
0.233862
0.217626
0.202166
0.18746
0.173485
0.160216
0.147629
0.135697
0.124394
0.113694
0.103571
0.0939992
0.0849547
0.0764131
0.0683516
0.0607481
0.0535821
0.0468342
0.0404867
0.0345236
0.0289307
0.0236965
0.0188118
0.0143062
0.0102083
0.00644797
0.00332039
0.00251668
0.00188766
0.00139948
0.0010245
0.00073966
0.000525927
0.00036771
0.000252394
0.000169881
0.000112184
7.30808e-05
4.78291e-05
3.29758e-05
2.51077e-05
1.97314e-05
1.51663e-05
1.11999e-05
7.86497e-06
5.19743e-06
3.20517e-06
1.83723e-06
9.80237e-07
4.89975e-07
2.33635e-07
1.07627e-07
4.80186e-08
2.06158e-08
8.29611e-09
2.86316e-09
5.09786e-10
0.999874
0.999461
0.998812
0.997826
0.996374
0.99429
0.991377
0.987415
0.982168
0.975411
0.966943
0.956612
0.944325
0.930058
0.913859
0.895815
0.876046
0.854707
0.831964
0.808163
0.7833
0.757593
0.73123
0.704386
0.677223
0.649895
0.62254
0.595287
0.568253
0.541542
0.515245
0.489442
0.4642
0.439575
0.415611
0.392343
0.369804
0.348027
0.327039
0.306857
0.28749
0.26894
0.2512
0.234258
0.2181
0.202707
0.188059
0.174132
0.160904
0.148349
0.136442
0.125158
0.114469
0.104351
0.0947788
0.0857288
0.0771777
0.0691036
0.0614847
0.0543007
0.0475325
0.0411626
0.035175
0.0295558
0.0242934
0.0193791
0.0148309
0.010699
0.00690283
0.00361
0.0027235
0.00203592
0.00150398
0.00109697
0.000789117
0.000559106
0.000389559
0.00026648
0.000178731
0.00011755
7.6149e-05
4.93746e-05
3.34686e-05
2.51484e-05
1.97126e-05
1.5181e-05
1.12511e-05
7.93662e-06
5.27849e-06
3.28118e-06
1.89641e-06
1.01943e-06
5.12534e-07
2.4503e-07
1.13013e-07
5.04353e-08
2.16474e-08
8.70687e-09
3.0035e-09
5.34623e-10
0.999866
0.999425
0.998732
0.997682
0.996135
0.993921
0.990835
0.986651
0.981131
0.974054
0.965225
0.954501
0.941792
0.927066
0.910588
0.892348
0.872427
0.850995
0.82824
0.804292
0.779413
0.753762
0.727508
0.700816
0.673839
0.646721
0.619595
0.592585
0.565802
0.539346
0.513303
0.487751
0.462755
0.438366
0.41463
0.39158
0.369247
0.347662
0.32685
0.306828
0.287607
0.269189
0.251566
0.234728
0.21866
0.203346
0.188765
0.174896
0.161716
0.149201
0.137327
0.126068
0.115403
0.105299
0.0957328
0.0866799
0.0781163
0.0700261
0.0623873
0.0551793
0.0483839
0.0419843
0.0359654
0.0303136
0.0250177
0.0200691
0.0154818
0.0113143
0.0074845
0.00407556
0.00298568
0.00221831
0.00163054
0.00118446
0.000849238
0.000600038
0.000417055
0.000284619
0.000190413
0.000124833
8.04696e-05
5.17154e-05
3.447e-05
2.54523e-05
1.98419e-05
1.52919e-05
1.13649e-05
8.05767e-06
5.39433e-06
3.3792e-06
1.96909e-06
1.06648e-06
5.39368e-07
2.58509e-07
1.19357e-07
5.3271e-08
2.28538e-08
9.18605e-09
3.16696e-09
5.63533e-10
0.999857
0.999385
0.998645
0.997524
0.995876
0.99352
0.990245
0.985821
0.98001
0.972594
0.963396
0.95229
0.939223
0.924219
0.907313
0.888715
0.868536
0.846943
0.824093
0.800104
0.77523
0.74964
0.723497
0.696959
0.670171
0.643272
0.616388
0.589636
0.563122
0.536942
0.511178
0.485905
0.461183
0.437063
0.413583
0.390777
0.368671
0.347295
0.326676
0.306832
0.287772
0.269499
0.252005
0.235283
0.219318
0.204093
0.189588
0.175784
0.162656
0.150184
0.138333
0.127081
0.116404
0.106291
0.0967203
0.0876659
0.0791058
0.0710112
0.0633632
0.0561412