/*--------------------------------*- C++ -*----------------------------------*\
  =========                 |
  \\      /  F ield         | OpenFOAM: The Open Source CFD Toolbox
   \\    /   O peration     | Website:  https://openfoam.org
    \\  /    A nd           | Version:  8
     \\/     M anipulation  |
\*---------------------------------------------------------------------------*/
FoamFile
{
    version     2.0;
    format      ascii;
    class       volScalarField;
    location    "40/fluid";
    object      CO2;
}
// * * * * * * * * * * * * * * * * * * * * * * * * * * * * * * * * * * * * * //

dimensions      [0 0 0 0 0 0 0];

internalField   nonuniform List<scalar> 
4000
(
1.0519e-06
4.58889e-06
1.05088e-05
2.03219e-05
3.63477e-05
6.19887e-05
0.000101968
0.000162441
0.00025092
0.000375968
0.000546733
0.000772376
0.00106152
0.00142176
0.00185932
0.0023788
0.00298315
0.00367367
0.00445013
0.00531099
0.00625352
0.00727401
0.00837101
0.00953688
0.0107667
0.0120553
0.0133975
0.0147877
0.0162208
0.0176919
0.0191961
0.0207289
0.0222863
0.0238642
0.0254592
0.0270678
0.0286875
0.030316
0.0319513
0.0335892
0.0352296
0.0368722
0.0385171
0.0401643
0.0418137
0.0434653
0.0451189
0.0467744
0.0484316
0.0500901
0.0517496
0.0534093
0.0550685
0.0567261
0.0583804
0.0600323
0.0616779
0.063315
0.0649408
0.0665492
0.0681376
0.0697001
0.0712297
0.0727182
0.0741551
0.0755273
0.076819
0.0780112
0.0790806
0.0799974
0.0807286
0.0811652
0.0788658
0.074105
0.0690838
0.0639077
0.0586373
0.05333
0.0480402
0.0428193
0.0377159
0.0327761
0.0280443
0.0235638
0.0193774
0.0155267
0.0120594
0.0090211
0.00644608
0.00435685
0.00275599
0.00161535
0.000870877
0.000430396
0.000197782
8.63212e-05
3.59353e-05
1.40306e-05
4.73351e-06
8.32751e-07
9.87849e-07
4.30233e-06
9.82488e-06
1.89436e-05
3.38039e-05
5.75871e-05
9.47747e-05
0.000151317
0.000234621
0.000353306
0.000516753
0.000734514
0.0010157
0.00136843
0.00179943
0.00231374
0.00291467
0.00360377
0.00438097
0.00524485
0.00619287
0.00722327
0.00832642
0.00950072
0.0107407
0.0120413
0.0133964
0.0148
0.0162466
0.017731
0.0192484
0.0207941
0.0223637
0.0239534
0.0255598
0.0271767
0.0288041
0.0304389
0.0320785
0.0337233
0.0353694
0.0370174
0.0386675
0.0403195
0.0419734
0.0436291
0.0452867
0.0469463
0.0486077
0.0502706
0.0519346
0.0535991
0.0552635
0.056927
0.0585892
0.0602466
0.0618974
0.0635387
0.0651675
0.0667823
0.0683781
0.0699489
0.0714868
0.0729853
0.0744323
0.0758138
0.0771124
0.0783065
0.0793684
0.0802593
0.0809322
0.0811837
0.0781538
0.0734009
0.0683733
0.0631698
0.057865
0.052524
0.0472055
0.0419633
0.0368474
0.0319049
0.027181
0.0227201
0.018566
0.0147615
0.0113571
0.00839657
0.00591317
0.0039266
0.0024332
0.00139502
0.000737123
0.000360171
0.000165151
7.22682e-05
3.02539e-05
1.18953e-05
4.04053e-06
7.13738e-07
9.39742e-07
4.0934e-06
9.34935e-06
1.80302e-05
3.21816e-05
5.48386e-05
9.02852e-05
0.000144235
0.000223859
0.000337598
0.000494785
0.000705099
0.000977962
0.00132197
0.00174442
0.00225099
0.00284557
0.00353023
0.00430526
0.00516933
0.00612067
0.0071554
0.00826815
0.00945438
0.0107085
0.0120236
0.0133939
0.0148143
0.0162787
0.0177814
0.0193171
0.0208807
0.0224675
0.0240727
0.0256918
0.0273256
0.0289669
0.0306131
0.0322622
0.0339125
0.0355639
0.0372167
0.038874
0.0405322
0.042192
0.0438535
0.0455169
0.047182
0.0488486
0.0505166
0.0521857
0.0538552
0.0555244
0.0571919
0.0588561
0.0605149
0.0621666
0.0638091
0.0654441
0.0670659
0.0686696
0.0702492
0.0717985
0.0733042
0.074756
0.0761404
0.0774404
0.0786351
0.0796988
0.0805953
0.0812753
0.0813164
0.0773197
0.0724234
0.0672828
0.0619901
0.0566203
0.0512378
0.0459001
0.04066
0.0355664
0.0306658
0.026003
0.0216219
0.0175654
0.0138764
0.0106028
0.00778224
0.00544083
0.00358923
0.00221327
0.00126599
0.000668933
0.000326649
0.000149868
6.56429e-05
2.74935e-05
1.08045e-05
3.66498e-06
6.4666e-07
8.99415e-07
3.91832e-06
8.95033e-06
1.72621e-05
3.08144e-05
5.25243e-05
8.6528e-05
0.000138377
0.00021509
0.000325009
0.00047744
0.000682149
0.000948768
0.00128623
0.00170226
0.00220306
0.00279306
0.00347486
0.00424928
0.00511567
0.00607263
0.00711343
0.0082365
0.00943549
0.0107039
0.0120364
0.0134269
0.014869
0.0163565
0.0178833
0.0194438
0.0210326
0.0226448
0.0242762
0.0259173
0.0275699
0.0292292
0.0308916
0.0325539
0.0342154
0.0358811
0.037546
0.0392134
0.0408807
0.0425487
0.0442165
0.0458862
0.0475582
0.0492322
0.050908
0.0525847
0.0542619
0.055939
0.0576151
0.0592892
0.0609603
0.062627
0.064288
0.065936
0.0675683
0.0691804
0.0707664
0.0723183
0.0738262
0.0752777
0.0766579
0.0779489
0.0791296
0.0801759
0.0810574
0.0817529
0.0813497
0.0765323
0.0713547
0.0660365
0.0606314
0.0551951
0.0497819
0.0444438
0.0392298
0.0341862
0.029357
0.0247846
0.0205103
0.0165738
0.013016
0.00987946
0.00719594
0.00498636
0.00325598
0.00198512
0.00112223
0.000586695
0.000284329
0.000130238
5.71313e-05
2.40075e-05
9.46917e-06
3.22132e-06
5.69157e-07
8.68496e-07
3.78429e-06
8.64559e-06
1.66763e-05
2.97715e-05
5.07552e-05
8.36444e-05
0.000133858
0.000208295
0.000315221
0.000463947
0.000664345
0.000926261
0.00125894
0.00167051
0.0021676
0.00275512
0.0034361
0.004212
0.00508281
0.00604446
0.00709457
0.00822806
0.00944021
0.0107254
0.0120772
0.0134888
0.0149538
0.0164653
0.018017
0.0196027
0.0212166
0.0228533
0.0245076
0.0261746
0.0278508
0.0295315
0.0312131
0.0328933
0.0345716
0.0362469
0.0379262
0.0396026
0.0412829
0.0429654
0.0446458
0.0463286
0.0480123
0.0496966
0.0513814
0.0530667
0.0547522
0.0564374
0.0581216
0.0598037
0.0614822
0.0631553
0.0648203
0.0664735
0.0681107
0.0697267
0.0713145
0.0728656
0.0743689
0.0758108
0.0771732
0.0784332
0.0795629
0.0805212
0.0812694
0.0817664
0.0800461
0.0750881
0.0698793
0.0645269
0.0590983
0.0536555
0.0482557
0.0429515
0.0377915
0.0328204
0.0280806
0.0236122
0.019454
0.0156423
0.0122172
0.00921609
0.00666583
0.004583
0.0029677
0.0017945
0.00100717
0.000523781
0.00025313
0.000115962
5.09301e-05
2.14318e-05
8.46226e-06
2.88028e-06
5.08933e-07
8.43038e-07
3.67364e-06
8.39296e-06
1.61888e-05
2.89024e-05
4.92832e-05
8.12576e-05
0.000130151
0.000202786
0.000307399
0.000453347
0.000650628
0.000909309
0.00123893
0.00164797
0.00214344
0.00273064
0.00341327
0.00419297
0.00506852
0.00603776
0.00709796
0.00824503
0.00947351
0.0107773
0.0121498
0.0135841
0.0150732
0.0166101
0.0181881
0.0198005
0.021441
0.0231034
0.024781
0.0264762
0.0281777
0.0298816
0.031584
0.0332834
0.0349804
0.0366766
0.0383693
0.0400616
0.0417537
0.0434483
0.0451448
0.0468376
0.0485305
0.0502242
0.0519184
0.0536128
0.0553071
0.0570007
0.0586929
0.0603825
0.0620679
0.0637472
0.0654176
0.0670755
0.0687163
0.0703341
0.071921
0.0734674
0.0749606
0.0763848
0.0777206
0.078938
0.0800043
0.08086
0.0814694
0.0816667
0.0783422
0.0734919
0.0683345
0.0629987
0.0575802
0.0521551
0.0467871
0.0415313
0.0364361
0.0315453
0.0268992
0.0225359
0.0184914
0.0147994
0.011499
0.00862243
0.00619302
0.00422374
0.00271049
0.00162335
0.000902657
0.000465689
0.000223804
0.000102407
4.50197e-05
1.89845e-05
7.51314e-06
2.56166e-06
4.52974e-07
8.22476e-07
3.58427e-06
8.18893e-06
1.57954e-05
2.82014e-05
4.80974e-05
7.93387e-05
0.000127179
0.000198392
0.000301214
0.00044507
0.00064012
0.000896672
0.00122458
0.00163267
0.00212835
0.0027175
0.00340364
0.00418786
0.00507043
0.00604994
0.00712311
0.00828547
0.00953151
0.010855
0.0122491
0.0137067
0.0152205
0.0167833
0.018388
0.020028
0.0216967
0.0233885
0.0250928
0.0268097
0.0285331
0.0302578
0.0319799
0.033698
0.0354123
0.0371228
0.0388329
0.0405401
0.042245
0.0439477
0.045656
0.0473623
0.0490685
0.0507734
0.0524774
0.0541808
0.0558835
0.0575851
0.0592847
0.0609812
0.062673
0.064358
0.0660333
0.0676952
0.0693389
0.0709579
0.0725439
0.0740861
0.0755702
0.0769802
0.0782945
0.079491
0.0805409
0.0813897
0.0819931
0.0819222
0.0774541
0.0723813
0.0670913
0.0616801
0.0562266
0.0507979
0.0454521
0.04024
0.0352063
0.030392
0.0258345
0.0215692
0.0176293
0.0140471
0.0108594
0.00809488
0.00577408
0.00390696
0.00248548
0.0014754
0.000813697
0.000417088
0.000199646
9.13074e-05
4.01782e-05
1.69699e-05
6.72638e-06
2.29591e-06
4.06152e-07
8.0541e-07
3.51002e-06
8.01917e-06
1.54676e-05
2.76174e-05
4.71113e-05
7.77492e-05
0.000124735
0.000194817
0.000296256
0.000438577
0.000632121
0.000887457
0.00121475
0.00162319
0.00212068
0.00271289
0.00340357
0.00419504
0.00508738
0.00607891
0.00716639
0.00834528
0.00960995
0.010954
0.0123703
0.0138516
0.0153902
0.0169786
0.0186094
0.0202754
0.0219697
0.023686
0.0254177
0.0271598
0.0289062
0.030652
0.0323936
0.0341304
0.0358628
0.0375912
0.0393154
0.0410366
0.0427553
0.044472
0.0461873
0.0479092
0.0496272
0.0513417
0.0530548
0.0547666
0.0564775
0.0581868
0.0598936
0.0615965
0.0632936
0.0649825
0.06666
0.0683222
0.0699641
0.0715793
0.0731593
0.0746903
0.076165
0.0775655
0.0788708
0.0800564
0.0810875
0.0819129
0.0825105
0.0818702
0.076789
0.0714602
0.0660126
0.0605108
0.0550151
0.0495798
0.0442542
0.0390834
0.0341077
0.0293644
0.0248882
0.0207118
0.0168659
0.013382
0.0102945
0.00762942
0.00540502
0.00362852
0.00228829
0.00134611
0.000736118
0.000374716
0.000178579
8.16078e-05
3.59384e-05
1.52036e-05
6.03664e-06
2.06313e-06
3.65169e-07
7.91086e-07
3.44767e-06
7.87649e-06
1.51919e-05
2.71264e-05
4.62835e-05
7.64196e-05
0.000122702
0.000191871
0.000292233
0.000433432
0.00062601
0.000880818
0.00120836
0.00161822
0.00211838
0.00271493
0.00341227
0.00421251
0.00511585
0.00612062
0.00722353
0.00841992
0.009704
0.0110691
0.012508
0.014013
0.0155762
0.0171898
0.0188459
0.0205369
0.0222553
0.0239939
0.0257529
0.0275194
0.0292882
0.031054
0.0328141
0.0345684
0.0363172
0.0380608
0.0398004
0.0415356
0.0432671
0.0449953
0.0467206
0.048443
0.0501683
0.0518971
0.053623
0.055346
0.0570663
0.0587832
0.0604963
0.0622044
0.0639057
0.0655977
0.0672771
0.0689397
0.0705797
0.0721895
0.0737597
0.0752864
0.0767487
0.0781281
0.0794017
0.0805412
0.0815025
0.0822463
0.0827313
0.0809513
0.0757664
0.0703826
0.064898
0.0593786
0.0538834
0.0484658
0.0431735
0.0380491
0.0331313
0.0284551
0.0240531
0.0199562
0.0161933
0.0127959
0.00979652
0.00721906
0.00507994
0.00338382
0.00211567
0.00123359
0.000669064
0.000338305
0.000160753
7.33816e-05
3.23322e-05
1.36957e-05
5.44561e-06
1.86311e-06
3.29916e-07
7.78785e-07
3.39408e-06
7.75377e-06
1.49547e-05
2.6704e-05
4.55726e-05
7.52819e-05
0.000120974
0.000189395
0.000288908
0.000429291
0.000621306
0.000876094
0.0012045
0.00161648
0.00212024
0.00272243
0.00342746
0.0042375
0.00515283
0.00617176
0.00729092
0.00850547
0.00980945
0.011196
0.0126575
0.0141862
0.0157738
0.0174124
0.0190937
0.0208102
0.0225543
0.0243192
0.0260983
0.027885
0.0296731
0.0314571
0.0332344
0.0350054
0.0367704
0.0385299
0.0402824
0.0420305
0.0437743
0.0455142
0.0472508
0.0489844
0.0507156
0.0524439
0.0541748
0.0559033
0.057629
0.0593515
0.0610698
0.0627824
0.0644873
0.0661815
0.0678611
0.0695248
0.0711655
0.0727753
0.0743451
0.0758585
0.0772997
0.0786482
0.0798779
0.0809555
0.0818199
0.0824526
0.0827596
0.0796207
0.0745597
0.069251
0.0638078
0.0583173
0.0528503
0.0474657
0.0422136
0.0371372
0.0322744
0.0276594
0.0233236
0.0192963
0.0156052
0.0122824
0.00935912
0.00685829
0.00479442
0.00316928
0.00196468
0.00113547
0.000610818
0.000306802
0.000145359
6.62842e-05
2.92154e-05
1.23891e-05
4.93232e-06
1.68915e-06
2.99239e-07
7.6801e-07
3.34712e-06
7.64615e-06
1.47467e-05
2.63338e-05
4.49506e-05
7.42899e-05
0.000119476
0.000187269
0.0002861
0.000425891
0.000617633
0.000872772
0.0012025
0.00161703
0.00212511
0.00273355
0.00344694
0.00426764
0.00519564
0.00622934
0.00736521
0.00859825
0.00992224
0.0113301
0.012814
0.0143658
0.0159771
0.0176396
0.019345
0.0210852
0.0228526
0.0246398
0.0264398
0.028246
0.0300521
0.0318528
0.0336462
0.0354325
0.0372123
0.0389859
0.0407515
0.0425125
0.0442685
0.0460198
0.0477669
0.0495102
0.0512498
0.0529858
0.0547176
0.056449
0.0581787
0.0599056
0.0616285
0.0633458
0.0650556
0.0667554
0.0684422
0.0701075
0.0717459
0.0733494
0.0749075
0.076406
0.0778276
0.0791499
0.0803446
0.0813733
0.0821769
0.082722
0.0828649
0.0787254
0.0736576
0.0683441
0.0629009
0.0574177
0.0519665
0.0466065
0.0413873
0.0363515
0.0315359
0.0269733
0.0226942
0.0187268
0.0150977
0.0118394
0.00898193
0.00654595
0.00454547
0.00298123
0.00183206
0.00104943
0.000559959
0.000279449
0.000132037
6.01549e-05
2.65209e-05
1.12569e-05
4.48645e-06
1.53777e-06
2.72523e-07
7.58384e-07
3.30516e-06
7.54995e-06
1.45607e-05
2.60031e-05
4.43959e-05
7.34081e-05
0.000118152
0.000185407
0.000283677
0.000423035
0.000614704
0.000870438
0.00120179
0.00161932
0.00213211
0.00274721
0.00346944
0.00430145
0.00524217
0.00629079
0.00744346
0.0086949
0.0100386
0.0114673
0.0129729
0.0145469
0.0161808
0.0178659
0.0195937
0.0213559
0.0231448
0.0249525
0.026772
0.0285964
0.030419
0.0322351
0.0340431
0.0358432
0.0376354
0.0394195
0.0412009
0.0429751
0.044743
0.0465054
0.0482629
0.050016
0.0517652
0.0535108
0.0552532
0.0569925
0.0587285
0.0604604
0.0621872
0.0639072
0.0656184
0.0673176
0.0690009
0.0706626
0.0722962
0.073893
0.0754419
0.0769289
0.0783359
0.0796407
0.0808152
0.081821
0.0826034
0.0831287
0.0831227
0.078337
0.0731168
0.0677096
0.0622119
0.0567019
0.051244
0.0458926
0.0406937
0.0356872
0.0309078
0.0263868
0.0221531
0.0182332
0.0146533
0.0114531
0.00865136
0.00626845
0.00432338
0.00281438
0.00171456
0.000973466
0.000515311
0.000255592
0.000120466
5.4837e-05
2.41828e-05
1.02731e-05
4.09829e-06
1.40578e-06
2.49216e-07
7.49654e-07
3.26709e-06
7.46266e-06
1.4392e-05
2.57032e-05
4.38938e-05
7.26119e-05
0.000116962
0.000183745
0.000281544
0.000420581
0.000612315
0.000868808
0.00120196
0.00162271
0.00214042
0.0027623
0.00349317
0.00433531
0.00528998
0.00635383
0.00752317
0.00879262
0.0101555
0.0116041
0.0131303
0.0147253
0.0163803
0.0180864
0.019835
0.0216175
0.0234259
0.0252524
0.0270897
0.0289306
0.0307684
0.0325987
0.0344206
0.0362342
0.0380399
0.039838
0.0416292
0.0434136
0.0451917
0.046964
0.0487309
0.050493
0.0522507
0.0540042
0.0557538
0.0574993
0.0592404
0.0609765
0.0627064
0.0644284
0.0661403
0.067839
0.0695204
0.0711792
0.0728084
0.0743991
0.0759402
0.0774174
0.0788126
0.0801034
0.0812621
0.0822497
0.0830155
0.0835269
0.0833069
0.0781476
0.0727608
0.0672446
0.0616792
0.0561309
0.0506565
0.0453044
0.0401168
0.0351304
0.0303781
0.0258896
0.0216934
0.0178174
0.0142959
0.0111415
0.00838441
0.0060458
0.00413479
0.00266657
0.00160983
0.000906111
0.000476071
0.000234801
0.000110424
5.02297e-05
2.21566e-05
9.41925e-06
3.76084e-06
1.29088e-06
2.28914e-07
7.41664e-07
3.23225e-06
7.38277e-06
1.42376e-05
2.5429e-05
4.34352e-05
7.1886e-05
0.00011588
0.000182242
0.000279634
0.000418427
0.000610315
0.000867664
0.00120272
0.00162678
0.00214948
0.00277829
0.0035182
0.00437176
0.0053392
0.00641698
0.00760206
0.00888859
0.0102695
0.011737
0.0132823
0.0148967
0.0165711
0.0182964
0.0200637
0.0218645
0.0236905
0.0255338
0.0273869
0.0292426
0.0310941
0.0329373
0.0347718
0.0365976
0.0384149
0.0402241
0.0420255
0.0438195
0.0456067
0.0473876
0.0491626
0.0509323
0.0526971
0.0544571
0.0562125
0.0579631
0.0597086
0.0614483
0.0631809
0.0649047
0.0666173
0.0683157
0.0699956
0.0716516
0.0732765
0.0748615
0.0763949
0.0778622
0.0792452
0.0805208
0.0816608
0.0826227
0.0833593
0.083832
0.083284
0.0779641
0.0724607
0.0668632
0.0612443
0.0556641
0.0501743
0.0448195
0.0396386
0.034666
0.029933
0.0254685
0.0213014
0.0174589
0.0139526
0.0108259
0.00810505
0.00581137
0.00395876
0.00253102
0.00151611
0.000846614
0.000441774
0.000216778
0.000101751
4.62553e-05
2.04075e-05
8.68107e-06
3.46857e-06
1.19122e-06
2.11293e-07
7.34354e-07
3.20036e-06
7.30964e-06
1.40963e-05
2.51782e-05
4.30158e-05
7.1223e-05
0.000114894
0.000180877
0.000277909
0.000416509
0.000608596
0.000866834
0.0012038
0.00163113
0.00215871
0.00279419
0.0035426
0.00440628
0.00538495
0.00647737
0.00767766
0.00898026
0.010378
0.0118626
0.0134254
0.0150572
0.0167488
0.018491
0.0202747
0.0220913
0.0239324
0.02579
0.0276567
0.0295252
0.0313887
0.0332435
0.0350893
0.0369263
0.0387544
0.0405739
0.0423852
0.0441873
0.0459826
0.0477711
0.0495533
0.0513296
0.0531004
0.0548658
0.056626
0.0583809
0.0601299
0.0618724
0.063607
0.065332
0.0670451
0.0687429
0.0704212
0.0720744
0.0736953
0.0752746
0.0768006
0.0782584
0.0796294
0.0808902
0.082012
0.0829495
0.0836594
0.0840989
0.0831817
0.0777636
0.0721862
0.0665355
0.0608806
0.0552786
0.0497782
0.0444218
0.0392465
0.0342856
0.0295691
0.0251243
0.0209765
0.0171446
0.0136632
0.0105645
0.00787473
0.00561502
0.00379784
0.00241809
0.00143556
0.000795373
0.000412341
0.000201363
9.43412e-05
4.28579e-05
1.89098e-05
8.04756e-06
3.21721e-06
1.10538e-06
1.96107e-07
7.27744e-07
3.17152e-06
7.2435e-06
1.39684e-05
2.49513e-05
4.26365e-05
7.06235e-05
0.000114003
0.000179646
0.000276361
0.000414804
0.000607108
0.000866216
0.00120503
0.00163546
0.00216769
0.0028095
0.00356599
0.00443954
0.00542992
0.00653464
0.00774837
0.00906533
0.010478
0.0119778
0.0135559
0.0152028
0.0169092
0.0186656
0.0204629
0.0222924
0.0241456
0.0260145
0.0278914
0.0297692
0.0316431
0.0335094
0.0353662
0.0372133
0.0390509
0.0408791
0.0426981
0.0445092
0.0463122
0.0481076
0.0498961
0.051678
0.0534539
0.0552239
0.0569881
0.0587463
0.0604982
0.0622428
0.0639789
0.0657048
0.067418
0.0691151
0.0707917
0.0724423
0.0740594
0.0756336
0.077153
0.0786026
0.0799633
0.0812118
0.0823188
0.0832374
0.0839282
0.0843465
0.0830634
0.0775754
0.0719471
0.0662607
0.0605824
0.054967
0.0494613
0.0441058
0.0389362
0.0339843
0.0292765
0.0248399
0.0206997
0.0168844
0.0134224
0.0103459
0.00768111
0.00544937
0.00366245
0.00231292
0.00136455
0.000751152
0.000387194
0.000188273
8.80652e-05
3.99816e-05
1.7641e-05
7.51022e-06
3.00373e-06
1.0324e-06
1.8319e-07
7.21941e-07
3.14619e-06
7.18536e-06
1.3856e-05
2.47515e-05
4.23025e-05
7.00955e-05
0.000113218
0.000178564
0.000275004
0.000413322
0.000605848
0.00086578
0.0012063
0.00163961
0.0021761
0.00282367
0.00358746
0.0044697
0.00546993
0.00658523
0.0078116
0.0091412
0.0105667
0.0120795
0.0136704
0.0153298
0.017048
0.0188157
0.0206235
0.0224625
0.0243243
0.0262006
0.0280836
0.0299686
0.0318515
0.0337286
0.0355963
0.0374535
0.0393001
0.0411364
0.0429627
0.0447813
0.0465905
0.0483916
0.0501853
0.0519718
0.0537518
0.0555253
0.0572926
0.0590534
0.0608073
0.0625534
0.0642905
0.0660167
0.0677296
0.0694256
0.0711005
0.0727485
0.074362
0.0759317
0.0774454
0.078888
0.0802404
0.0814792
0.0825753
0.0834803
0.0841583
0.084563
0.0829383
0.0774062
0.0717458
0.0660373
0.0603449
0.0547214
0.0492117
0.0438554
0.0386868
0.0337365
0.0290341
0.0246059
0.0204779
0.0166753
0.0132276
0.0101676
0.00752209
0.00531275
0.00355124
0.00222876
0.00130649
0.000714637
0.000366399
0.000177466
8.2887e-05
3.76078e-05
1.65928e-05
7.0657e-06
2.8269e-06
9.71891e-07
1.72476e-07
7.17132e-07
3.12518e-06
7.13708e-06
1.37625e-05
2.45851e-05
4.20238e-05
6.96544e-05
0.000112562
0.00017766
0.000273875
0.000412101
0.000604837
0.000865508
0.00120753
0.00164335
0.00218353
0.00283608
0.00360611
0.0044958
0.00550456
0.00662933
0.00786504
0.00920508
0.0106411
0.0121642
0.0137651
0.0154339
0.0171611
0.0189367
0.0207516
0.0225965
0.0244628
0.0263423
0.0282298
0.0301207
0.0320108
0.0338965
0.0357743
0.0376411
0.0394963
0.0413402
0.0431735
0.0449966
0.0468113
0.0486171
0.0504147
0.0522048
0.0539878
0.055764
0.0575334
0.0592959
0.061051
0.062798
0.0645354
0.0662615
0.0679736
0.0696684
0.0713414
0.0729867
0.0745969
0.0761624
0.077671
0.0791076
0.0804532
0.0816843
0.0827723
0.083668
0.0843385
0.0847369
0.0828263
0.0772658
0.071585
0.0658625
0.0601608
0.0545316
0.0490198
0.043664
0.0384981
0.0335526
0.0288556
0.0244336
0.0203125
0.0165175
0.0130789
0.01003
0.00739789
0.00520492
0.00346256
0.00216089
0.00125947
0.00068528
0.000349804
0.000168888
7.87858e-05
3.57294e-05
1.57633e-05
6.71385e-06
2.68687e-06
9.23971e-07
1.63991e-07
7.13589e-07
3.10967e-06
7.10132e-06
1.3693e-05
2.44609e-05
4.18151e-05
6.93233e-05
0.000112069
0.000176981
0.000273032
0.000411201
0.000604124
0.000865394
0.00120863
0.00164645
0.00218953
0.00284595
0.00362081
0.00451619
0.00553133
0.00666296
0.00790575
0.00925306
0.0106966
0.0122271
0.0138349
0.0155102
0.017243
0.0190235
0.020842
0.0226892
0.0245563
0.0264375
0.028328
0.0302229
0.0321181
0.0340098
0.0358948
0.0377701
0.0396329
0.0414831
0.0433216
0.0451494
0.046967
0.0487758
0.0505762
0.0523687
0.0541536
0.0559314
0.0577021
0.0594656
0.0612213
0.0629685
0.0647058
0.0664314
0.0681426
0.069836
0.0715072
0.0731501
0.0747573
0.0763191
0.0778234
0.0792551
0.0805951
0.0818204
0.0829025
0.0837922
0.0844589
0.0848556
0.0827462
0.0771652
0.0714708
0.06574
0.060034
0.0544035
0.0488922
0.0435381
0.0383749
0.0334325
0.0287388
0.0243203
0.0202029
0.0164117
0.0129779
0.00993511
0.00731106
0.00512872
0.00339982
0.00211347
0.00122597
0.000664115
0.000337772
0.000162655
7.58061e-05
3.43654e-05
1.51617e-05
6.45904e-06
2.58567e-06
8.89397e-07
1.57875e-07
7.11678e-07
3.10129e-06
7.08196e-06
1.36552e-05
2.43933e-05
4.17013e-05
6.91427e-05
0.000111801
0.000176613
0.000272579
0.000410728
0.000603773
0.000865408
0.00120936
0.00164834
0.00219309
0.00285173
0.00362933
0.00452792
0.00554667
0.00668224
0.00792922
0.00928056
0.010728
0.0122622
0.0138736
0.0155521
0.0172874
0.0190697
0.0208888
0.0227352
0.0246024
0.0264846
0.0283764
0.0302732
0.0321709
0.0340658
0.0359547
0.0378347
0.0397032
0.0415579
0.0433999
0.0452304
0.0470504
0.0488608
0.0506624
0.0524559
0.0542416
0.05602
0.0577911
0.0595548
0.0613106
0.0630576
0.0647945
0.0665195
0.0682298
0.0699221
0.0715918
0.073233
0.074838
0.0763973
0.0778987
0.079327
0.0806633
0.0818847
0.0829631
0.0838498
0.0845156
0.0849148
0.0827096
0.0771141
0.0714118
0.0656771
0.0599698
0.0543396
0.0488296
0.0434772
0.0383157
0.0333752
0.0286833
0.0242663
0.0201504
0.0163608
0.0129288
0.00988826
0.00726748
0.00508973
0.00336685
0.0020876
0.00120804
0.000652893
0.000331429
0.000159384
7.42443e-05
3.3651e-05
1.48467e-05
6.32563e-06
2.5327e-06
8.7131e-07
1.54678e-07
7.11648e-07
3.10116e-06
7.08167e-06
1.36546e-05
2.43923e-05
4.16994e-05
6.91392e-05
0.000111795
0.000176602
0.000272559
0.000410695
0.000603717
0.000865316
0.00120921
0.00164812
0.00219277
0.00285127
0.00362871
0.00452711
0.00554565
0.006681
0.00792774
0.00927884
0.010726
0.0122601
0.0138714
0.0155498
0.0172852
0.0190675
0.0208867
0.0227331
0.0246003
0.0264823
0.028374
0.0302707
0.0321682
0.0340629
0.0359516
0.0378315
0.0396999
0.0415546
0.0433967
0.0452273
0.0470474
0.0488578
0.0506595
0.0524529
0.0542387
0.056017
0.0577881
0.0595517
0.0613075
0.0630544
0.0647914
0.0665163
0.0682266
0.0699189
0.0715886
0.0732298
0.0748349
0.0763943
0.0778957
0.0793239
0.0806602
0.0818815
0.0829598
0.0838466
0.0845125
0.0849115
0.0827183
0.0771219
0.0714189
0.0656836
0.0599758
0.0543452
0.0488347
0.0434819
0.0383201
0.0333792
0.0286868
0.0242695
0.0201531
0.0163631
0.0129307
0.00988973
0.00726857
0.00509048
0.00336732
0.00208789
0.0012082
0.000652977
0.000331468
0.000159401
7.42517e-05
3.36543e-05
1.48481e-05
6.3263e-06
2.53299e-06
8.71413e-07
1.54696e-07
7.13497e-07
3.10927e-06
7.10041e-06
1.36912e-05
2.44577e-05
4.18094e-05
6.93134e-05
0.000112052
0.000176952
0.000272982
0.000411118
0.000603984
0.000865163
0.00120826
0.00164588
0.00218868
0.00284473
0.00361913
0.00451396
0.00552849
0.00665949
0.00790166
0.00924805
0.0106908
0.0122208
0.0138283
0.0155033
0.017236
0.0190165
0.0208351
0.0226825
0.0245497
0.0264309
0.0283211
0.0302156
0.0321103
0.0340017
0.0358863
0.0377613
0.0396239
0.0414741
0.0433128
0.0451407
0.0469587
0.0487676
0.0505679
0.0523602
0.0541451
0.0559228
0.0576933
0.0594566
0.0612123
0.0629593
0.0646965
0.066422
0.0681332
0.0698266
0.0714977
0.0731407
0.074748
0.0763099
0.0778143
0.0792459
0.0805858
0.0818109
0.0828928
0.0837826
0.0844496
0.0848462
0.0827712
0.077188
0.0714917
0.0657592
0.0600517
0.05442
0.0489075
0.0435523
0.0383878
0.0334442
0.0287492
0.0243294
0.0202107
0.0164183
0.0129833
0.00993927
0.00731415
0.00513086
0.00340119
0.00211427
0.00122648
0.00066441
0.000337931
0.000162736
7.58449e-05
3.43837e-05
1.51702e-05
6.46281e-06
2.58724e-06
8.89953e-07
1.57975e-07
7.16988e-07
3.12455e-06
7.13564e-06
1.37597e-05
2.458e-05
4.20146e-05
6.96384e-05
0.000112534
0.000177612
0.000273793
0.000411962
0.000604605
0.000865129
0.00120694
0.00164245
0.00218219
0.00283415
0.00360347
0.00449229
0.00550003
0.00662365
0.00785806
0.0091972
0.0106324
0.0121548
0.0137549
0.0154232
0.0171499
0.0189253
0.0207399
0.0225848
0.0244511
0.0263306
0.0282178
0.0301082
0.0319979
0.0338831
0.0357605
0.0376271
0.0394821
0.0413259
0.0431589
0.0449826
0.0467971
0.0486028
0.0504004
0.0521904
0.0539732
0.0557492
0.0575185
0.0592808
0.0610358
0.0627825
0.0645198
0.0662458
0.0679578
0.0696526
0.0713257
0.0729711
0.0745814
0.076147
0.0776557
0.0790923
0.0804377
0.0816685
0.0827563
0.0836521
0.0843231
0.0847213
0.0828661
0.0773026
0.0716192
0.0658943
0.0601904
0.0545593
0.0490457
0.0436882
0.0385205
0.0335732
0.028874
0.0244498
0.0203266
0.0165294
0.0130886
0.0100376
0.00740368
0.00520906
0.00346538
0.00216272
0.0012605
0.000685837
0.000350094
0.000169034
7.88561e-05
3.57626e-05
1.57787e-05
6.72076e-06
2.68977e-06
9.24998e-07
1.64174e-07
7.21752e-07
3.14536e-06
7.18346e-06
1.38523e-05
2.47447e-05
4.22904e-05
7.00743e-05
0.000113181
0.000178501
0.000274896
0.000413141
0.000605548
0.000865297
0.00120553
0.00163843
0.00217434
0.00282116
0.00358399
0.0044651
0.00546402
0.00657789
0.00780284
0.00913129
0.0105555
0.0120671
0.0136569
0.0153153
0.0170328
0.0187999
0.0206073
0.022446
0.0243075
0.0261836
0.0280665
0.0299511
0.0318336
0.0337102
0.0355777
0.0374347
0.0392813
0.0411177
0.0429444
0.0447622
0.0465713
0.0483723
0.0501658
0.0519521
0.0537319
0.0555052
0.0572722
0.0590328
0.0607864
0.0625323
0.0642692
0.0659952
0.067708
0.069404
0.071079
0.0727271
0.0743408
0.0759106
0.0774245
0.0788671
0.0802193
0.0814578
0.0825537
0.0834587
0.084137
0.0845411
0.0829885
0.0774543
0.0717915
0.0660806
0.0603858
0.0547602
0.0492484
0.0438898
0.038719
0.0337667
0.0290607
0.0246294
0.0204984
0.0166927
0.013242
0.0101791
0.00753085
0.00531912
0.00355561
0.00223156
0.00130813
0.000715568
0.000366903
0.000177725
8.30134e-05
3.76675e-05
1.66203e-05
7.07795e-06
2.83199e-06
9.73686e-07
1.72797e-07
7.27534e-07
3.1706e-06
7.24137e-06
1.39643e-05
2.49435e-05
4.26226e-05
7.0599e-05
0.00011396
0.000179572
0.000276234
0.000414591
0.000606756
0.000865645
0.00120412
0.00163408
0.00216565
0.00280659
0.00356199
0.00443421
0.00542302
0.00652594
0.00773839
0.00905362
0.0104645
0.0119628
0.0135394
0.015185
0.0168903
0.0186458
0.0204424
0.0222714
0.0241241
0.0259927
0.0278693
0.0297469
0.0316204
0.0334865
0.035343
0.03719
0.0390276
0.0408559
0.0426754
0.044486
0.0462886
0.0480838
0.0498719
0.0516536
0.0534291
0.0551988
0.0569627
0.0587206
0.060472
0.0622163
0.0639522
0.0656779
0.0673909
0.0690879
0.0707647
0.0724154
0.0740327
0.0756073
0.077127
0.0785768
0.0799376
0.081186
0.0822931
0.0832122
0.0839039
0.0843225
0.083122
0.0776335
0.0720038
0.0663157
0.0606352
0.0550172
0.0495086
0.0441499
0.0389768
0.0340209
0.0293108
0.0248711
0.0207274
0.0169085
0.0134425
0.010362
0.00769356
0.0054586
0.00366902
0.0023174
0.00136744
0.000752836
0.000388088
0.000188718
8.82772e-05
4.00797e-05
1.76853e-05
7.52965e-06
3.01172e-06
1.0352e-06
1.83689e-07
7.34144e-07
3.19944e-06
7.30751e-06
1.4092e-05
2.51703e-05
4.30016e-05
7.11977e-05
0.000114849
0.0001808
0.000277776
0.000416283
0.00060822
0.000866221
0.00120283
0.00162964
0.00215652
0.00279106
0.00353829
0.00440056
0.00537768
0.00646859
0.00766674
0.00896721
0.0103628
0.0118454
0.0134064
0.0150365
0.0167267
0.0184676
0.0202504
0.0220662
0.0239067
0.025764
0.0276304
0.0294986
0.0313618
0.0332163
0.0350618
0.0368983
0.0387259
0.0405448
0.0423556
0.0441585
0.045954
0.0477426
0.0495247
0.0513007
0.0530712
0.0548363
0.0565961
0.0583505
0.0600991
0.0618412
0.0635754
0.0653002
0.0670131
0.0687109
0.0703893
0.0720427
0.0736639
0.0752436
0.0767701
0.0782283
0.0795995
0.0808605
0.0819826
0.0829207
0.0836319
0.0840718
0.0832436
0.0778292
0.0722533
0.0666025
0.0609464
0.0553422
0.049839
0.044479
0.0392997
0.0343341
0.0296129
0.025164
0.0210136
0.0171802
0.0136914
0.0105866
0.0078917
0.00562763
0.00380686
0.00242422
0.0014393
0.000797549
0.000413528
0.000201975
9.46392e-05
4.29982e-05
1.8974e-05
8.07592e-06
3.22892e-06
1.10949e-06
1.96841e-07
7.41484e-07
3.23145e-06
7.38092e-06
1.42339e-05
2.54221e-05
4.34224e-05
7.1863e-05
0.000115839
0.00018217
0.000279508
0.000418211
0.00060995
0.000867064
0.00120176
0.0016253
0.00214728
0.00277511
0.00351378
0.00436576
0.00533128
0.00640727
0.00759022
0.00887444
0.010253
0.0117181
0.0132613
0.0148737
0.0165463
0.01827
0.0200361
0.0218359
0.0236612
0.025504
0.0273568
0.0292123
0.0310636
0.0329066
0.0347408
0.0365661
0.0383826
0.0401903
0.0419927
0.0437874
0.0455749
0.0473558
0.0491307
0.0509001
0.0526644
0.0544239
0.0561787
0.0579287
0.0596736
0.0614126
0.0631447
0.0648681
0.0665806
0.0682789
0.0699589
0.071615
0.0732403
0.0748256
0.0763594
0.0778272
0.0792104
0.0804865
0.0816273
0.0825913
0.0833318
0.08381
0.0833442
0.0780345
0.0725375
0.0669431
0.0613247
0.0557433
0.0502507
0.044892
0.0397063
0.0347284
0.0299893
0.0255181
0.0213432
0.0174935
0.01399
0.0108553
0.00812812
0.00582904
0.00397179
0.00254004
0.00152184
0.000849922
0.000443547
0.000217676
0.000102184
4.64576e-05
2.04997e-05
8.72159e-06
3.48525e-06
1.19707e-06
2.12338e-07
7.49534e-07
3.26656e-06
7.46142e-06
1.43894e-05
2.56983e-05
4.38845e-05
7.25946e-05
0.00011693
0.000183687
0.000281439
0.000420396
0.000611995
0.00086827
0.00120108
0.00162133
0.00213832
0.00275923
0.00348886
0.00432947
0.00528247
0.006344
0.0075109
0.00877779
0.010138
0.0115841
0.0131078
0.0147006
0.0163535
0.0180578
0.0198049
0.0215864
0.0233939
0.0252199
0.0270569
0.0288976
0.0307355
0.0325658
0.0343878
0.0362014
0.038007
0.0398048
0.0415958
0.0433801
0.0451579
0.0469297
0.0486961
0.0504576
0.0522147
0.0539675
0.0557163
0.0574609
0.0592011
0.0609361
0.0626651
0.0643865
0.0660982
0.067797
0.0694786
0.0711376
0.0727672
0.0743584
0.0758999
0.0773775
0.078773
0.0800643
0.0812237
0.0822128
0.0829816
0.0834967
0.0833418
0.0782152
0.072845
0.0673371
0.0617752
0.0562272
0.0507504
0.0453941
0.0402009
0.035208
0.0304484
0.0259524
0.0217485
0.0178634
0.0143308
0.0111762
0.00841423
0.00606776
0.00414832
0.00267671
0.00161664
0.000910253
0.000478398