/*--------------------------------*- C++ -*----------------------------------*\
  =========                 |
  \\      /  F ield         | OpenFOAM: The Open Source CFD Toolbox
   \\    /   O peration     | Website:  https://openfoam.org
    \\  /    A nd           | Version:  8
     \\/     M anipulation  |
\*---------------------------------------------------------------------------*/
FoamFile
{
    version     2.0;
    format      ascii;
    class       volScalarField;
    location    "40/fluid";
    object      H2O;
}
// * * * * * * * * * * * * * * * * * * * * * * * * * * * * * * * * * * * * * //

dimensions      [0 0 0 0 0 0 0];

internalField   nonuniform List<scalar> 
4000
(
8.61179e-07
3.75689e-06
8.6035e-06
1.66374e-05
2.97575e-05
5.07496e-05
8.34799e-05
0.000132989
0.000205426
0.000307802
0.000447605
0.000632338
0.000869058
0.00116398
0.00152221
0.0019475
0.00244228
0.0030076
0.00364329
0.00434806
0.0051197
0.00595517
0.00685328
0.00780776
0.00881459
0.0098696
0.0109684
0.0121066
0.0132798
0.0144842
0.0157156
0.0169706
0.0182456
0.0195374
0.0208432
0.0221602
0.0234862
0.0248194
0.0261582
0.0274992
0.0288421
0.0301869
0.0315336
0.0328822
0.0342325
0.0355846
0.0369384
0.0382938
0.0396505
0.0410083
0.0423669
0.0437257
0.0450841
0.0464411
0.0477955
0.0491479
0.0504952
0.0518354
0.0531664
0.0544832
0.0557836
0.0570628
0.0583152
0.0595338
0.0607101
0.0618335
0.0628911
0.063867
0.0647426
0.0654932
0.0660918
0.0664492
0.0645667
0.0606691
0.0565583
0.0523207
0.0480059
0.0436608
0.0393301
0.0350557
0.0308776
0.0268335
0.0229596
0.0192915
0.0158641
0.0127115
0.00987295
0.00738549
0.00527735
0.00356691
0.0022563
0.00132247
0.00071298
0.000352362
0.000161922
7.06704e-05
2.94199e-05
1.14867e-05
3.87528e-06
6.81766e-07
8.08744e-07
3.52228e-06
8.04355e-06
1.55089e-05
2.7675e-05
4.71461e-05
7.75912e-05
0.000123882
0.000192082
0.000289249
0.000423061
0.00060134
0.000831544
0.00112032
0.00147318
0.00189424
0.00238622
0.00295037
0.00358666
0.00429391
0.00507005
0.00591362
0.00681677
0.00777815
0.00879334
0.00985809
0.0109675
0.0121166
0.0133009
0.0145162
0.0157585
0.0170239
0.018309
0.0196105
0.0209256
0.0222493
0.0235817
0.0249201
0.0262624
0.027609
0.0289566
0.0303058
0.0316567
0.0330093
0.0343633
0.0357188
0.0370758
0.0384345
0.0397947
0.0411561
0.0425184
0.0438811
0.0452437
0.0466057
0.0479664
0.0493233
0.0506748
0.0520186
0.053352
0.054674
0.0559806
0.0572666
0.0585256
0.0597524
0.0609371
0.0620681
0.0631312
0.0641088
0.0649782
0.0657075
0.0662585
0.0664644
0.0639839
0.0600926
0.0559766
0.0517166
0.0473736
0.0430009
0.0386467
0.034355
0.0301666
0.0261202
0.0222529
0.0186008
0.0151998
0.0120851
0.00929797
0.0068742
0.00484106
0.00321467
0.00199204
0.00114209
0.000603476
0.000294869
0.000135207
5.91653e-05
2.47686e-05
9.73854e-06
3.30794e-06
5.84331e-07
7.69358e-07
3.35123e-06
7.65423e-06
1.47612e-05
2.63468e-05
4.48959e-05
7.39157e-05
0.000118084
0.000183271
0.000276389
0.000405076
0.000577258
0.000800649
0.00108228
0.00142814
0.00184287
0.00232965
0.00289017
0.00352468
0.00423209
0.00501093
0.00585807
0.00676906
0.00774022
0.00876696
0.00984359
0.0109655
0.0121283
0.0133272
0.0145575
0.0158148
0.0170949
0.0183939
0.0197081
0.0210336
0.0223712
0.0237149
0.0250627
0.0264128
0.0277638
0.0291159
0.030469
0.0318258
0.0331834
0.0345422
0.0359025
0.0372643
0.0386275
0.0399919
0.0413575
0.042724
0.0440908
0.0454573
0.0468225
0.0481849
0.049543
0.0508953
0.0522399
0.0535785
0.0549063
0.0562192
0.0575124
0.0587808
0.0600135
0.0612021
0.0623355
0.0633998
0.0643778
0.0652487
0.0659827
0.0665393
0.066573
0.063301
0.0592924
0.0550838
0.0507508
0.0463546
0.0419479
0.037578
0.033288
0.0291179
0.0251059
0.0212884
0.0177016
0.0143807
0.0113605
0.00868042
0.00637125
0.00445436
0.00293847
0.00181199
0.00103645
0.00054765
0.000267425
0.000122696
5.37412e-05
2.25087e-05
8.84551e-06
3.00048e-06
5.29415e-07
7.36343e-07
3.20789e-06
7.32756e-06
1.41323e-05
2.52275e-05
4.30012e-05
7.08397e-05
0.000113288
0.000176092
0.000266082
0.000390876
0.00055847
0.000776748
0.00105302
0.00139362
0.00180362
0.00228665
0.00284483
0.00347885
0.00418815
0.00497161
0.0058237
0.00674315
0.00772475
0.00876321
0.00985411
0.0109925
0.0121731
0.0133909
0.0146409
0.0159184
0.0172192
0.0185391
0.0198747
0.0212183
0.0225712
0.0239297
0.0252907
0.0266516
0.0280118
0.0293756
0.0307385
0.0321036
0.0334687
0.0348342
0.0361996
0.0375666
0.0389355
0.040306
0.0416779
0.0430506
0.0444238
0.0457967
0.0471689
0.0485396
0.0499077
0.0512722
0.052632
0.0539812
0.0553176
0.0566374
0.0579358
0.0592064
0.0604408
0.0616292
0.0627592
0.0638161
0.0647827
0.0656393
0.066361
0.0669304
0.0666002
0.0626563
0.0584175
0.0540635
0.0496384
0.0451877
0.040756
0.0363858
0.0321171
0.027988
0.0240343
0.0202909
0.0167916
0.0135688
0.0106561
0.00808823
0.00589125
0.00408229
0.00266564
0.0016252
0.000918761
0.000480322
0.000232778
0.000106625
4.67729e-05
1.96547e-05
7.75232e-06
2.63727e-06
4.65964e-07
7.1103e-07
3.09816e-06
7.07807e-06
1.36527e-05
2.43737e-05
4.15529e-05
6.84789e-05
0.000109588
0.000170529
0.000258068
0.00037983
0.000543893
0.000758321
0.00103068
0.00136763
0.0017746
0.00225559
0.0028131
0.00344833
0.00416125
0.00494855
0.00580826
0.00673624
0.00772862
0.0087808
0.00988747
0.0110432
0.0122425
0.01348
0.0147503
0.0160486
0.0173699
0.0187098
0.0200642
0.0214289
0.0228012
0.0241772
0.0255539
0.0269294
0.0283035
0.029675
0.0310498
0.0324223
0.0337979
0.0351754
0.0365511
0.0379288
0.0393072
0.0406861
0.0420655
0.0434452
0.0448251
0.0462048
0.0475836
0.0489607
0.050335
0.0517047
0.0530678
0.0544213
0.0557617
0.0570846
0.0583845
0.0596544
0.0608852
0.0620656
0.063181
0.0642125
0.0651374
0.065922
0.0665345
0.0669415
0.065533
0.061474
0.0572095
0.0528276
0.0483833
0.0439273
0.0395065
0.035164
0.0309395
0.0268698
0.0229893
0.0193311
0.0159268
0.0128062
0.0100021
0.00754513
0.00545725
0.00375206
0.00242963
0.00146914
0.000824564
0.000428815
0.000207236
9.4937e-05
4.1696e-05
1.7546e-05
6.92798e-06
2.35806e-06
4.16659e-07
6.90188e-07
3.00758e-06
6.87124e-06
1.32537e-05
2.36621e-05
4.03477e-05
6.65249e-05
0.000106553
0.000166019
0.000251665
0.000371151
0.000532663
0.000744443
0.0010143
0.00134918
0.00175482
0.00223555
0.00279441
0.00343274
0.00414955
0.00494306
0.00581103
0.00675013
0.00775588
0.00882328
0.00994692
0.0111212
0.0123403
0.0135985
0.0148904
0.0162105
0.0175535
0.0189146
0.020288
0.0216759
0.0230689
0.0244638
0.0258575
0.0272489
0.0286381
0.0300268
0.0314126
0.0327981
0.0341834
0.0355708
0.0369597
0.0383456
0.0397315
0.0411181
0.0425051
0.0438923
0.0452794
0.046666
0.0480514
0.0494346
0.0508145
0.0521893
0.0535568
0.0549141
0.0562575
0.0575819
0.0588811
0.0601471
0.0613696
0.0625356
0.0636292
0.0646259
0.0654989
0.0661994
0.0666983
0.0668598
0.0641381
0.0601672
0.0559448
0.0515765
0.0471404
0.0426989
0.0383042
0.0340013
0.0298299
0.0258259
0.0220222
0.01845
0.0151387
0.0121161
0.0094141
0.00705911
0.00507017
0.00345794
0.00221905
0.00132902
0.000738997
0.000381256
0.000183227
8.38399e-05
3.68572e-05
1.55424e-05
6.15094e-06
2.09721e-06
3.70845e-07
6.73354e-07
2.93441e-06
6.70421e-06
1.29315e-05
2.30882e-05
3.93769e-05
6.49539e-05
0.00010412
0.000162422
0.000246601
0.000364375
0.000524061
0.000734098
0.00100255
0.00133666
0.00174246
0.0022248
0.00278653
0.00342856
0.00415112
0.00495304
0.00583163
0.00678324
0.00780336
0.00888687
0.0100282
0.0112215
0.0124609
0.0137403
0.0150541
0.0163967
0.0177629
0.0191479
0.0205433
0.0219489
0.0233598
0.0247718
0.0261817
0.0275883
0.0289917
0.0303921
0.0317922
0.0331899
0.0345856
0.0359796
0.0373782
0.0387751
0.040172
0.0415678
0.0429628
0.0443574
0.0457513
0.0471444
0.0485359
0.0499248
0.0513098
0.0526893
0.0540609
0.0554215
0.0567671
0.0580926
0.0593911
0.0606536
0.0618687
0.063023
0.064099
0.0650786
0.0659381
0.066633
0.0671271
0.067069
0.063411
0.0592579
0.0549271
0.050497
0.0460322
0.0415878
0.0372113
0.0329441
0.0288231
0.0248817
0.0211505
0.0176585
0.014433
0.0115003
0.00889046
0.00662721
0.00472719
0.00319859
0.00203484
0.0012079
0.000666167
0.000341466
0.000163448
7.47526e-05
3.28935e-05
1.38931e-05
5.50683e-06
1.87965e-06
3.32513e-07
6.59382e-07
2.87362e-06
6.56523e-06
1.26632e-05
2.26101e-05
3.85696e-05
6.36526e-05
0.000102119
0.000159495
0.000242542
0.000359059
0.000517512
0.000726554
0.000994509
0.00132889
0.00173619
0.00222102
0.00278647
0.00343444
0.004165
0.00497675
0.00586706
0.00683221
0.00786758
0.00896792
0.0101275
0.0113402
0.0125998
0.0139003
0.0152354
0.0165993
0.0179864
0.0193915
0.0208092
0.0222355
0.0236653
0.0250945
0.0265204
0.0279423
0.0293606
0.0307756
0.0321872
0.0335963
0.0350034
0.0364088
0.0378132
0.0392229
0.0406293
0.042033
0.0434355
0.0448369
0.0462376
0.0476371
0.0490344
0.0504285
0.0518179
0.0532006
0.0545739
0.0559348
0.057279
0.0586013
0.0598949
0.0611483
0.0623556
0.0635022
0.0645708
0.0655415
0.0663856
0.0670613
0.0675506
0.0670264
0.0628665
0.0585038
0.0540439
0.0495397
0.0450404
0.0405905
0.0362306
0.0319972
0.0279237
0.0240404
0.0203757
0.0169565
0.0138079
0.0109557
0.008428
0.00624614
0.00442504
0.00297064
0.0018734
0.00110205
0.000602653
0.000306777
0.000146201
6.68116e-05
2.94225e-05
1.2447e-05
4.94214e-06
1.68906e-06
2.98961e-07
6.47655e-07
2.82257e-06
6.44842e-06
1.24375e-05
2.22082e-05
3.78919e-05
6.2564e-05
0.000100455
0.000157083
0.000239249
0.000354847
0.000512509
0.000721118
0.000989275
0.00132483
0.0017343
0.00222269
0.00279359
0.00344875
0.0041883
0.0050109
0.00591384
0.00689332
0.00794458
0.00906219
0.0102402
0.0114723
0.0127521
0.0140731
0.015429
0.0168133
0.0182202
0.0196436
0.0210837
0.0225299
0.023978
0.0254236
0.0268646
0.0283009
0.0297326
0.03116
0.0325842
0.0340048
0.0354224
0.0368372
0.0382498
0.0396598
0.0410724
0.0424877
0.0439007
0.0453113
0.0467197
0.0481253
0.0495278
0.0509262
0.052319
0.0537043
0.0550792
0.0564403
0.057783
0.0591009
0.0603864
0.0616364
0.0628335
0.0639628
0.0650055
0.0659384
0.0667254
0.0673343
0.0677314
0.0662741
0.0620293
0.0576216
0.0531314
0.0486127
0.0441139
0.0396785
0.0353457
0.0311505
0.0271243
0.0232959
0.0196921
0.016338
0.0132573
0.0104759
0.00802032
0.00591018
0.00415891
0.00277031
0.00173208
0.00100993
0.000547757
0.000276968
0.000131607
6.00769e-05
2.64701e-05
1.12125e-05
4.45827e-06
1.52532e-06
2.70099e-07
6.37584e-07
2.77871e-06
6.34794e-06
1.22433e-05
2.18623e-05
3.73099e-05
6.16326e-05
9.90404e-05
0.000155056
0.000236526
0.000351457
0.000508657
0.000717251
0.000986115
0.0013234
0.00173582
0.00222883
0.00280603
0.00346921
0.00421857
0.00505276
0.00596901
0.00696336
0.00803091
0.00916604
0.0103626
0.0116141
0.0129139
0.0142553
0.0156319
0.0170371
0.018465
0.0199099
0.0213664
0.0228292
0.0242931
0.0257536
0.0272087
0.0286586
0.0301036
0.0315441
0.0329788
0.03441
0.0358376
0.0372621
0.0386838
0.0401031
0.0415204
0.0429354
0.0443524
0.0457675
0.0471804
0.0485906
0.0499973
0.0513994
0.0527952
0.0541822
0.0555573
0.0569193
0.0582625
0.0595805
0.0608657
0.0621047
0.0632846
0.0643886
0.0653954
0.0662775
0.0669853
0.0675032
0.0677546
0.0651848
0.0610414
0.0566952
0.0522389
0.0477439
0.0432681
0.0388598
0.0345599
0.0304039
0.0264228
0.0226445
0.0190948
0.0157977
0.0127758
0.0100555
0.00766223
0.00561482
0.00392515
0.00259466
0.00160846
0.000929603
0.000500072
0.000251176
0.000119004
5.42663e-05
2.39184e-05
1.01428e-05
4.03804e-06
1.38289e-06
2.44984e-07
6.28763e-07
2.74026e-06
6.25984e-06
1.2073e-05
2.15592e-05
3.68007e-05
6.08205e-05
9.78143e-05
0.000153315
0.000234228
0.000348673
0.000505651
0.000714531
0.000984477
0.00132384
0.00173981
0.00223793
0.00282198
0.00349388
0.00425362
0.0050999
0.00602984
0.00703931
0.00812325
0.00927583
0.0104907
0.0117611
0.0130803
0.0144414
0.0158376
0.0172623
0.0187092
0.0201724
0.021646
0.0231248
0.0246034
0.0260776
0.0275458
0.0290083
0.0304654
0.0319174
0.0333629
0.0348046
0.0362422
0.037676
0.0391064
0.0405336
0.0419578
0.043379
0.0447968
0.0462143
0.0476304
0.0490442
0.0504547
0.0518607
0.0532605
0.0546521
0.056033
0.0573964
0.0587377
0.0600505
0.0613261
0.062553
0.0637168
0.0647993
0.0657774
0.0666196
0.0672775
0.0677238
0.0678407
0.0644518
0.0603028
0.0559527
0.0514964
0.0470074
0.0425445
0.0381563
0.0338835
0.0297607
0.0258181
0.0220828
0.0185795
0.0153314
0.0123603
0.00969284
0.00735343
0.00535911
0.00372133
0.0024407
0.00149989
0.000859162
0.000458434
0.000228783
0.000108097
4.92483e-05
2.17124e-05
9.2159e-06
3.67302e-06
1.25896e-06
2.23112e-07
6.20882e-07
2.70591e-06
6.18108e-06
1.19207e-05
2.12885e-05
3.63466e-05
6.00986e-05
9.67303e-05
0.000151791
0.000232244
0.000346335
0.000503252
0.00071262
0.000983898
0.00132572
0.00174554
0.00224911
0.0028404
0.00352156
0.00429172
0.00515022
0.0060939
0.00711844
0.00821855
0.00938819
0.0106208
0.0119094
0.0132471
0.0146266
0.0160412
0.0174839
0.0189484
0.0204284
0.021918
0.0234116
0.0249038
0.0263906
0.0278708
0.0293445
0.0308118
0.0322724
0.0337309
0.0351833
0.0366307
0.0380735
0.0395124
0.0409477
0.0423797
0.0438089
0.0452353
0.0466593
0.0480805
0.0494984
0.0509121
0.0523203
0.0537212
0.0551124
0.0564904
0.0578509
0.0591883
0.0604956
0.0617636
0.062981
0.0641329
0.0652012
0.0661627
0.0669862
0.0676267
0.0680567
0.0680519
0.0641338
0.0598601
0.0554332
0.0509324
0.0464213
0.041953
0.0375718
0.0333156
0.0292168
0.0253039
0.0216027
0.0181366
0.0149273
0.0119965
0.00937654
0.00708279
0.00513192
0.00353952
0.00230411
0.0014037
0.000796968
0.000421881
0.000209251
9.86241e-05
4.48945e-05
1.97983e-05
8.41046e-06
3.35524e-06
1.1509e-06
2.04031e-07
6.13735e-07
2.67474e-06
6.10962e-06
1.17826e-05
2.1043e-05
3.59355e-05
5.94468e-05
9.57559e-05
0.00015043
0.000230497
0.000344326
0.000501297
0.000711285
0.000984032
0.0013285
0.00175234
0.00226147
0.00285983
0.00354928
0.00433086
0.00520182
0.00615915
0.00719844
0.00831421
0.00950021
0.0107497
0.0120555
0.0134104
0.0148072
0.0162387
0.0176981
0.0191786
0.020674
0.0221781
0.0236852
0.0251898
0.0266883
0.0281798
0.0296646
0.0311429
0.0326151
0.0340815
0.0355424
0.0369981
0.038449
0.0398956
0.0413382
0.0427772
0.0442128
0.0456451
0.0470741
0.0484996
0.0499209
0.0513371
0.052747
0.0541485
0.0555392
0.0569158
0.0582738
0.0596076
0.0609099
0.0621716
0.0633809
0.0645232
0.06558
0.0665286
0.0673371
0.067964
0.0683827
0.0682026
0.0639787
0.0595686
0.0550526
0.0504962
0.0459539
0.041472
0.0370903
0.0328433
0.028761
0.0248702
0.0211956
0.0177602
0.014587
0.0117039
0.00912142
0.00686424
0.00494965
0.00338512
0.00218309
0.00131796
0.000741825
0.000389755
0.000192229
9.04031e-05
4.11226e-05
1.81394e-05
7.71145e-06
3.07897e-06
1.05683e-06
1.8741e-07
6.07194e-07
2.64621e-06
6.04421e-06
1.16562e-05
2.08185e-05
3.556e-05
5.88524e-05
9.487e-05
0.0001492
0.000228934
0.000342563
0.00049966
0.000710349
0.000984655
0.00133183
0.00175976
0.00227456
0.00288032
0.00357912
0.00437116
0.00525353
0.00622374
0.00727701
0.00840758
0.00960895
0.0108741
0.0121958
0.0135666
0.0149791
0.016426
0.0179003
0.0193952
0.0209043
0.0224214
0.0239407
0.0254565
0.0269655
0.0284673
0.0299621
0.03145
0.0329311
0.0344059
0.0358746
0.0373378
0.0387958
0.040249
0.0416979
0.0431426
0.0445835
0.0460207
0.0474539
0.0488829
0.0503072
0.0517256
0.0531369
0.054539
0.0559295
0.0573048
0.0586605
0.0599908
0.0612884
0.0625438
0.0637451
0.0648773
0.0659217
0.066855
0.0676425
0.0682456
0.0686325
0.0681839
0.0638285
0.0593229
0.0547403
0.0501401
0.0455717
0.0410773
0.0366933
0.0324518
0.0283808
0.0245059
0.0208508
0.0174392
0.0142934
0.0114229
0.0088631
0.00663553
0.00475772
0.003241
0.00207213
0.00124123
0.000693116
0.000361677
0.000177474
8.33025e-05
3.78688e-05
1.67075e-05
7.10711e-06
2.83969e-06
9.75238e-07
1.72984e-07
6.01209e-07
2.6201e-06
5.98434e-06
1.15405e-05
2.06132e-05
3.52167e-05
5.83096e-05
9.40625e-05
0.000148083
0.000227522
0.000340992
0.000498252
0.000709669
0.000985542
0.00133539
0.00176732
0.00228758
0.00290029
0.00360738
0.00440861
0.00530296
0.00628563
0.00735206
0.00849634
0.0097118
0.0109912
0.0123272
0.0137121
0.0151384
0.0165987
0.0180859
0.0195932
0.0211141
0.0226423
0.024172
0.0256976
0.0272162
0.0287273
0.0302312
0.0317279
0.0332175
0.0347004
0.0361758
0.0376456
0.0391098
0.0405689
0.0420231
0.0434728
0.0449182
0.0463592
0.0477959
0.0492278
0.0506544
0.0520745
0.0534868
0.0548892
0.0562792
0.0576533
0.0590067
0.0603337
0.0616267
0.062876
0.0640695
0.0651919
0.0662241
0.0671425
0.06791
0.0684912
0.0688511
0.0681001
0.0636644
0.0590982
0.0544721
0.0498425
0.0452561
0.040753
0.0363677
0.0321308
0.0280694
0.024208
0.020569
0.0171733
0.0140362
0.011186
0.00864906
0.00644697
0.00459697
0.00310926
0.00197967
0.00117528
0.000651165
0.00033758
0.000164854
7.72363e-05
3.50874e-05
1.54813e-05
6.58846e-06
2.6339e-06
9.04963e-07
1.60551e-07
5.95798e-07
2.59649e-06
5.93019e-06
1.14358e-05
2.04274e-05
3.49061e-05
5.78189e-05
9.3333e-05
0.000147075
0.000226254
0.000339596
0.000497034
0.000709163
0.000986544
0.00133894
0.00177467
0.00230011
0.00291945
0.00363461
0.00444543
0.00534985
0.00634353
0.0074217
0.00857821
0.00980614
0.0110981
0.0124464
0.0138434
0.0152814
0.0167528
0.0182506
0.0197678
0.0212978
0.0228344
0.0243718
0.0259059
0.0274339
0.028954
0.0304662
0.0319706
0.0334673
0.0349565
0.0364393
0.0379154
0.0393853
0.0408495
0.0423084
0.0437622
0.0452113
0.0466556
0.0480951
0.0495293
0.0509576
0.052379
0.053792
0.0551945
0.0565839
0.0579566
0.0593079
0.0606318
0.0619206
0.0631645
0.0643512
0.0654653
0.0664874
0.0673937
0.0681457
0.0687113
0.0690537
0.0680033
0.0635103
0.0589024
0.0542471
0.0495983
0.045001
0.0404935
0.036109
0.0318768
0.0278226
0.0239684
0.0203362
0.0169466
0.0138231
0.0109888
0.00847007
0.00628846
0.00446135
0.00299842
0.00189356
0.00111714
0.000614962
0.000316992
0.000154138
7.20982e-05
3.27326e-05
1.44425e-05
6.14856e-06
2.45913e-06
8.45218e-07
1.49976e-07
5.91047e-07
2.57575e-06
5.88259e-06
1.13438e-05
2.02639e-05
3.46327e-05
5.73866e-05
9.26906e-05
0.000146189
0.000225143
0.000338383
0.000496002
0.000708807
0.000987587
0.00134234
0.00178155
0.00231172
0.00293702
0.0036593
0.00447818
0.00539127
0.00639529
0.00748382
0.00865088
0.00988941
0.0111918
0.0125503
0.0139571
0.0154042
0.0168843
0.0183899
0.0199141
0.0214502
0.0229918
0.0245351
0.0260766
0.0276133
0.0291424
0.0306628
0.0321746
0.033678
0.0351732
0.036662
0.0381432
0.0396178
0.0410862
0.0425489
0.0440061
0.0454581
0.0469049
0.0483465
0.0497824
0.0512119
0.0526341
0.0540473
0.0554496
0.0568382
0.0582094
0.0595585
0.0608795
0.0621646
0.0634039
0.0645849
0.0656921
0.0667063
0.0676037
0.0683446
0.0688996
0.069231
0.0679008
0.0633718
0.0587377
0.0540642
0.0494038
0.0447999
0.0402892
0.035904
0.0316725
0.0276198
0.0237699
0.0201446
0.0167651
0.0136519
0.0108293
0.00832414
0.00615827
0.0043495
0.00290737
0.00182467
0.00106961
0.000585067
0.000299967
0.00014529
6.78589e-05
3.07891e-05
1.35843e-05
5.78463e-06
2.31435e-06
7.95679e-07
1.41204e-07
5.8711e-07
2.55855e-06
5.84306e-06
1.12672e-05
2.01276e-05
3.44045e-05
5.70255e-05
9.21538e-05
0.000145449
0.000224219
0.000337383
0.000495175
0.000708583
0.000988595
0.0013454
0.00178764
0.00232187
0.00295229
0.00368068
0.00450653
0.00542737
0.00643904
0.00753612
0.00871175
0.00995872
0.0112693
0.0126356
0.0140496
0.0155033
0.0169891
0.0184995
0.0200275
0.0215662
0.0231115
0.0246596
0.026207
0.0277507
0.0292881
0.0308165
0.0323353
0.0338449
0.0353457
0.0368384
0.038324
0.0398024
0.0412741
0.0427396
0.0441993
0.0456535
0.0471021
0.048545
0.0499819
0.0514121
0.0528346
0.0542477
0.0556494
0.0570369
0.0584066
0.0597536
0.0610718
0.0623535
0.0635886
0.0647647
0.0658663
0.0668742
0.067765
0.0684983
0.0690472
0.0693734
0.0678092
0.0632568
0.058606
0.053921
0.0492531
0.0446445
0.0401321
0.0357473
0.0315181
0.0274692
0.0236238
0.0200035
0.0166297
0.0135227
0.0107076
0.00821144
0.00605659
0.00426122
0.00283476
0.0017691
0.00103112
0.000561032
0.000286382
0.000138267
6.45013e-05
2.92513e-05
1.29053e-05
5.49657e-06
2.19972e-06
7.56447e-07
1.34258e-07
5.84209e-07
2.54586e-06
5.81379e-06
1.12103e-05
2.00259e-05
3.42336e-05
5.67543e-05
9.17503e-05
0.000144893
0.000223529
0.000336647
0.000494591
0.00070849
0.000989496
0.00134793
0.00179255
0.00232996
0.00296433
0.00369737
0.00452845
0.00545491
0.00647237
0.0075754
0.00875718
0.0100102
0.0113265
0.0126981
0.0141167
0.0155744
0.0170632
0.0185755
0.0201041
0.0216441
0.0231919
0.0247433
0.0262948
0.0278435
0.0293868
0.0309221
0.0324471
0.0339618
0.035467
0.0369634
0.0384515
0.0399324
0.0414063
0.0428738
0.0443351
0.0457906
0.0472402
0.048684
0.0501214
0.0515518
0.0529741
0.0543868
0.0557878
0.0571742
0.0585423
0.0598873
0.0612031
0.0624818
0.0637134
0.0648854
0.0659825
0.0669857
0.0678716
0.0686
0.0691458
0.0694706
0.0677436
0.0631745
0.0585125
0.0538207
0.0491493
0.0445397
0.0400276
0.0356443
0.0314172
0.0273709
0.0235282
0.0199108
0.0165399
0.0134361
0.0106249
0.00813378
0.0059855
0.00419883
0.00278341
0.00173028
0.00100369
0.000543705
0.000276531
0.000133165
6.20618e-05
2.81347e-05
1.24128e-05
5.28796e-06
2.11686e-06
7.28141e-07
1.29251e-07
5.82644e-07
2.539e-06
5.79794e-06
1.11794e-05
1.99706e-05
3.41405e-05
5.66065e-05
9.15305e-05
0.000144592
0.000223158
0.00033626
0.000494304
0.000708502
0.000990092
0.00134948
0.00179547
0.00233468
0.0029713
0.00370697
0.00454101
0.00547069
0.00649158
0.00759792
0.00878289
0.010039
0.0113582
0.0127323
0.0141531
0.0156122
0.0171015
0.0186131
0.0201418
0.0216827
0.0232315
0.0247844
0.026338
0.0278894
0.0294358
0.0309749
0.0325047
0.0340231
0.0355311
0.0370297
0.0385198
0.0400019
0.0414769
0.0429452
0.0444071
0.0458631
0.0473131
0.048757
0.0501944
0.0516247
0.0530467
0.0544589
0.0558592
0.0572446
0.0586116
0.0599552
0.0612692
0.0625458
0.063775
0.0649443
0.0660384
0.0670383
0.0679211
0.0686471
0.0691922
0.069519
0.0677136
0.0631326
0.0584642
0.0537693
0.0490968
0.0444874
0.0399763
0.0355944
0.0313688
0.027324
0.0234827
0.0198666
0.0164969
0.0133944
0.0105847
0.00809543
0.00594982
0.00416692
0.00275641
0.0017091
0.000989014
0.000534517
0.000271338
0.000130486
6.07831e-05
2.75498e-05
1.21548e-05
5.17873e-06
2.0735e-06
7.13334e-07
1.26633e-07
5.8262e-07
2.53889e-06
5.7977e-06
1.11789e-05
1.99697e-05
3.41389e-05
5.66036e-05
9.15254e-05
0.000144583
0.000223142
0.000336232
0.000494258
0.000708427
0.000989974
0.0013493
0.0017952
0.00233431
0.00297079
0.00370631
0.00454018
0.00546967
0.00649037
0.0075965
0.0087813
0.0100372
0.0113564
0.0127305
0.0141512
0.0156104
0.0170997
0.0186114
0.0201401
0.0216809
0.0232296
0.0247823
0.0263358
0.027887
0.0294333
0.0309723
0.032502
0.0340204
0.0355285
0.0370272
0.0385173
0.0399995
0.0414745
0.0429427
0.0444047
0.0458606
0.0473106
0.0487545
0.0501919
0.0516221
0.0530441
0.0544563
0.0558565
0.057242
0.058609
0.0599526
0.0612667
0.0625433
0.0637725
0.0649418
0.0660358
0.0670357
0.0679185
0.0686445
0.0691896
0.0695163
0.0677208
0.063139
0.05847
0.0537746
0.0491017
0.044492
0.0399806
0.0355983
0.0313723
0.0273273
0.0234856
0.0198692
0.0164992
0.0133963
0.0105862
0.00809664
0.00595072
0.00416753
0.0027568
0.00170933
0.000989146
0.000534587
0.00027137
0.0001305
6.07892e-05
2.75525e-05
1.2156e-05
5.17929e-06
2.07373e-06
7.13418e-07
1.26648e-07
5.84134e-07
2.54553e-06
5.81304e-06
1.12089e-05
2.00233e-05
3.4229e-05
5.67462e-05
9.17363e-05
0.000144869
0.000223488
0.000336578
0.000494477
0.000708302
0.000989194
0.00134747
0.00179185
0.00232896
0.00296295
0.00369554
0.00452613
0.00545206
0.00646902
0.00757129
0.00875247
0.010005
0.0113211
0.0126925
0.014111
0.0155687
0.0170575
0.0185699
0.0200986
0.0216387
0.0231862
0.0247372
0.0262884
0.0278369
0.0293798
0.0309148
0.0324397
0.0339545
0.0354598
0.0369563
0.0384447
0.0399256
0.0413995
0.0428669
0.0443281
0.0457835
0.047233
0.0486766
0.0501139
0.0515442
0.0529665
0.0543791
0.05578
0.0571664
0.0585346
0.0598797
0.0611955
0.0624742
0.0637059
0.0648779
0.0659749
0.0669779
0.0678636
0.0685921
0.0691382
0.0694629
0.067764
0.0631932
0.0585296
0.0538365
0.0491638
0.0445532
0.0400401
0.0356559
0.0314277
0.0273805
0.0235368
0.0199183
0.0165463
0.0134415
0.0106293
0.00813719
0.00598803
0.00420059
0.00278453
0.00173093
0.00100411
0.000543947
0.000276661
0.00013323
6.20936e-05
2.81497e-05
1.24197e-05
5.29105e-06
2.11815e-06
7.28597e-07
1.29332e-07
5.86992e-07
2.55804e-06
5.84188e-06
1.12649e-05
2.01234e-05
3.4397e-05
5.70124e-05
9.2131e-05
0.000145409
0.000224152
0.000337269
0.000494985
0.000708274
0.000988109
0.00134466
0.00178654
0.0023203
0.00295013
0.0036778
0.00450283
0.00542273
0.00643333
0.00752967
0.00870468
0.00995101
0.011261
0.0126268
0.0140405
0.0154939
0.0169796
0.01849
0.0200179
0.0215566
0.0231016
0.0246493
0.0261964
0.0277398
0.0292768
0.030805
0.0323236
0.0338331
0.0353338
0.0368269
0.0383124
0.0397907
0.0412624
0.0427278
0.0441874
0.0456414
0.0470899
0.0485327
0.0499694
0.0513995
0.0528218
0.0542348
0.0556365
0.057024
0.0583937
0.0597408
0.0610591
0.0623409
0.0635761
0.0647522
0.0658536
0.0668613
0.0677518
0.0684852
0.0690345
0.0693606
0.0678417
0.063287
0.058634
0.0539471
0.0492774
0.0446672
0.0401533
0.0357671
0.0315364
0.027486
0.0236389
0.0200169
0.0166412
0.0135324
0.0107156
0.00821773
0.00606133
0.00426461
0.00283707
0.0017706
0.00103196
0.000561489
0.000286619
0.000138386
6.45588e-05
2.92785e-05
1.29179e-05
5.50223e-06
2.20209e-06
7.57288e-07
1.34408e-07
5.90892e-07
2.57508e-06
5.88104e-06
1.13408e-05
2.02583e-05
3.46228e-05
5.73692e-05
9.26605e-05
0.000146137
0.000225055
0.000338235
0.000495757
0.000708411
0.000986955
0.00134137
0.00178011
0.00230966
0.00293418
0.00365554
0.00447335
0.00538526
0.00638812
0.00747571
0.0086417
0.00987922
0.0111808
0.0125385
0.0139446
0.0153913
0.016871
0.0183764
0.0199003
0.0214363
0.0229778
0.0245207
0.0260619
0.0275982
0.0291271
0.0306474
0.0321592
0.0336627
0.0351582
0.0366464
0.0381275
0.039602
0.0410703
0.0425328
0.0439898
0.0454416
0.0468883
0.0483296
0.0497653
0.0511946
0.0526166
0.0540297
0.0554319
0.0568205
0.0581917
0.059541
0.0608621
0.0621474
0.0633867
0.0645678
0.0656749
0.0666888
0.067586
0.0683269
0.0688823
0.0692131
0.067942
0.0634111
0.0587751
0.0540996
0.0494374
0.0448317
0.0403192
0.0359322
0.0316989
0.0276445
0.0237918
0.0201639
0.0167818
0.0136661
0.0108411
0.00833351
0.00616544
0.00435472
0.00291095
0.00182696
0.00107095
0.000585829
0.000300381
0.000145502
6.79623e-05
3.08381e-05
1.36069e-05
5.79466e-06
2.31852e-06
7.97148e-07
1.41467e-07
5.95625e-07
2.59574e-06
5.92845e-06
1.14324e-05
2.0421e-05
3.48948e-05
5.77988e-05
9.3298e-05
0.000147014
0.000226151
0.000339422
0.000496746
0.000708696
0.000985806
0.00133781
0.001773
0.00229773
0.00291617
0.00363025
0.00443978
0.00534273
0.00633535
0.00741212
0.00856722
0.00979382
0.0110846
0.0124318
0.0138279
0.0152651
0.016736
0.0182334
0.0197502
0.02128
0.0228164
0.0243535
0.0258874
0.0274151
0.028935
0.0304471
0.0319515
0.0334484
0.034938
0.0364203
0.0378961
0.0393657
0.0408297
0.0422884
0.043742
0.0451908
0.0466348
0.048074
0.0495079
0.050936
0.0523571
0.0537699
0.0551723
0.0565617
0.0579344
0.0592858
0.0606099
0.061899
0.0631432
0.0643301
0.0654442
0.0664663
0.0673727
0.0681251
0.0686914
0.0690341
0.0680512
0.0635578
0.0589489
0.0542921
0.0496415
0.0450421
0.0405322
0.0361451
0.0319099
0.0278526
0.0239965
0.0203618
0.0169694
0.0138428
0.0110052
0.00848327
0.00629865
0.00446891
0.00300379
0.00189723
0.00111951
0.00061634
0.000317724
0.000154502
7.22718e-05
3.28129e-05
1.44788e-05
6.16446e-06
2.46566e-06
8.47507e-07
1.50385e-07
6.01037e-07
2.61935e-06
5.98259e-06
1.1537e-05
2.06067e-05
3.52051e-05
5.8289e-05
9.40262e-05
0.000148019
0.000227413
0.000340808
0.000497945
0.000709168
0.00098475
0.00133417
0.00176552
0.00228501
0.00289676
0.0036027
0.00440266
0.00529577
0.0062767
0.00734138
0.00848394
0.00969775
0.0109757
0.0123103
0.013694
0.0151193
0.0165788
0.0180654
0.0195722
0.0210927
0.0226207
0.0241502
0.0256756
0.0271939
0.0287048
0.0302083
0.0317045
0.0331936
0.0346761
0.0361522
0.0376221
0.0390864
0.0405454
0.0419995
0.0434489
0.044894
0.0463347
0.0477711
0.0492026
0.0506288
0.0520486
0.0534607
0.054863
0.056253
0.0576271
0.0589807
0.060308
0.0616013
0.062851
0.0640448
0.0651674
0.0661998
0.0671184
0.0678865
0.0684687
0.0688289
0.0681508
0.0637181
0.0591531
0.0545269
0.0498963
0.0453082
0.0408027
0.0364146
0.0321743
0.028109
0.0242439
0.0206015
0.0172036
0.0140653
0.011209
0.00866716
0.00646086
0.00460729
0.00311664
0.00198469
0.00117834
0.000652946
0.000338552
0.000165355
7.74803e-05
3.52022e-05
1.55339e-05
6.61168e-06
2.64349e-06
9.08328e-07
1.61152e-07
6.07046e-07
2.64556e-06
6.04269e-06
1.16531e-05
2.08128e-05
3.55495e-05
5.88336e-05
9.48365e-05
0.000149141
0.00022883
0.000342385
0.000499361
0.000709858
0.000983872
0.00133062
0.00175796
0.00227196
0.0028767
0.00357421
0.00436467
0.00524558
0.00621405
0.00726543
0.00839406
0.00959354
0.0108569
0.012177
0.0135463
0.0149575
0.0164034
0.0178769
0.0193712
0.0208799
0.0223968
0.0239159
0.0254315
0.0269404
0.028442
0.0299363
0.0314235
0.0329034
0.034379
0.0358484
0.0373118
0.0387698
0.0402229
0.0416714
0.0431159
0.0445563
0.045993
0.0474257
0.0488543
0.050278
0.051696
0.053107
0.054509
0.0558994
0.0572747
0.0586306
0.0599612
0.0612591
0.0625148
0.0637164
0.0648489
0.0658936
0.0668276
0.0676167
0.068223
0.0686145
0.0682332
0.0638861
0.0593858
0.0548057
0.050206
0.0456366
0.0411398
0.0367527
0.0325072
0.0284318
0.024552
0.0208915
0.0174735
0.0143217
0.0114535
0.00888714
0.00665442
0.00477218
0.00325167
0.00207951
0.00124591
0.000695824
0.000363128
0.000178209
8.36568e-05
3.80345e-05
1.67829e-05
7.14029e-06
2.85335e-06
9.80029e-07
1.73839e-07
6.13637e-07
2.67431e-06
6.1086e-06
1.17805e-05
2.1039e-05
3.59279e-05
5.94326e-05
9.57297e-05
0.000150383
0.000230411
0.000344174
0.000501035
0.000710845
0.000983314
0.00132737
0.00175063
0.00225896
0.0028563
0.0035445
0.00432471
0.00519378
0.00614911
0.0071863
0.00829993
0.00948383
0.0107313
0.0120352
0.0133885
0.0147838
0.0162141
0.0176726
0.0191524
0.0206473
0.0221512
0.0236582
0.0251628
0.0266614
0.028153
0.0296378
0.031116
0.0325878
0.0340541
0.0355149
0.0369703
0.0384209
0.0398671
0.0413092
0.0427477
0.0441827
0.0456144
0.0470428
0.0484674
0.0498878
0.0513034
0.0527127
0.054114
0.0555048
0.0568815
0.0582397
0.0595738
0.0608765
0.0621386
0.0633483
0.0644908
0.0655479
0.0664971
0.0673069
0.0679363
0.068358
0.0682312
0.0640341
0.0596375
0.0551283
0.0505748
0.0460327
0.0415489
0.0371638
0.0329122
0.0288245
0.0249278
0.021247
0.0178053
0.0146246