/*--------------------------------*- C++ -*----------------------------------*\
  =========                 |
  \\      /  F ield         | OpenFOAM: The Open Source CFD Toolbox
   \\    /   O peration     | Website:  https://openfoam.org
    \\  /    A nd           | Version:  8
     \\/     M anipulation  |
\*---------------------------------------------------------------------------*/
FoamFile
{
    version     2.0;
    format      ascii;
    class       volScalarField;
    location    "40/fluid";
    object      N2;
}
// * * * * * * * * * * * * * * * * * * * * * * * * * * * * * * * * * * * * * //

dimensions      [0 0 0 0 0 0 0];

internalField   nonuniform List<scalar> 
4000
(
0.000286989
0.00123331
0.00273151
0.00501174
0.00835254
0.0130611
0.0194367
0.0277233
0.0380681
0.0504981
0.0649228
0.0811585
0.0989636
0.118073
0.138226
0.159182
0.18073
0.202692
0.224916
0.247278
0.269668
0.29199
0.314408
0.336596
0.358521
0.380142
0.401416
0.422297
0.442735
0.462694
0.482145
0.501066
0.519444
0.537267
0.554528
0.571225
0.587348
0.6029
0.617878
0.632283
0.646113
0.659364
0.672034
0.684127
0.695647
0.706602
0.717002
0.726859
0.736184
0.744987
0.753283
0.761084
0.768405
0.775259
0.781659
0.787632
0.79319
0.798346
0.803117
0.807506
0.811533
0.815214
0.818569
0.821613
0.824357
0.826817
0.829005
0.830933
0.832616
0.834062
0.835279
0.836222
0.835402
0.833617
0.831697
0.829656
0.82749
0.825187
0.822737
0.820126
0.817339
0.814365
0.811193
0.80782
0.804249
0.800494
0.796581
0.792563
0.78852
0.784573
0.780884
0.77763
0.774969
0.772981
0.771656
0.770859
0.770415
0.770182
0.770066
0.770012
0.00027049
0.00115693
0.00254491
0.00463654
0.00768034
0.0119599
0.0177684
0.0253714
0.0349642
0.046639
0.0603706
0.0760268
0.0933958
0.112221
0.132234
0.153177
0.174819
0.196961
0.219437
0.242117
0.264911
0.287867
0.310428
0.332825
0.354986
0.376917
0.398559
0.41985
0.44062
0.460871
0.480593
0.499772
0.518394
0.536449
0.553923
0.570854
0.587184
0.602928
0.61809
0.632653
0.646633
0.660013
0.672796
0.684984
0.696584
0.707601
0.718046
0.72793
0.737269
0.746078
0.75437
0.762162
0.769467
0.776303
0.782685
0.788627
0.794144
0.79925
0.803958
0.808287
0.812251
0.81586
0.819129
0.822082
0.82474
0.827119
0.829234
0.831102
0.832737
0.834143
0.835328
0.836186
0.835055
0.833238
0.831282
0.829196
0.826977
0.824618
0.822103
0.81942
0.816552
0.813489
0.810221
0.806749
0.803078
0.799231
0.795243
0.79118
0.787139
0.783258
0.779706
0.776661
0.774255
0.772523
0.771396
0.770725
0.770351
0.770155
0.770057
0.77001
0.000250345
0.00107074
0.00235483
0.0042898
0.00710811
0.0110784
0.0164832
0.0235849
0.0325872
0.043603
0.0566401
0.071606
0.0883291
0.106588
0.126137
0.146732
0.168144
0.190161
0.212598
0.235283
0.258163
0.281264
0.304277
0.327195
0.350001
0.372531
0.394512
0.415953
0.436967
0.457504
0.477527
0.497008
0.515929
0.534275
0.552044
0.569182
0.585728
0.601677
0.61703
0.631785
0.645927
0.659454
0.672367
0.684671
0.696372
0.707483
0.718016
0.727982
0.737396
0.74627
0.754621
0.762463
0.76981
0.776678
0.783081
0.789033
0.794552
0.799651
0.804358
0.808686
0.812651
0.81627
0.819557
0.82252
0.825177
0.827545
0.82964
0.831481
0.833084
0.834457
0.835611
0.836297
0.834717
0.832789
0.830745
0.828578
0.826279
0.823836
0.821234
0.818459
0.815497
0.812341
0.808988
0.805443
0.801722
0.797854
0.793887
0.789893
0.785974
0.782264
0.778918
0.776085
0.773866
0.772278
0.771253
0.770649
0.770314
0.770138
0.77005
0.770009
0.000231601
0.000990699
0.0021791
0.00397089
0.00658373
0.010272
0.0153079
0.0219517
0.0304152
0.0408306
0.0532326
0.0675598
0.0836714
0.101373
0.120441
0.140648
0.161775
0.18362
0.206007
0.228794
0.252093
0.275189
0.298526
0.321901
0.344855
0.367361
0.389572
0.411405
0.432808
0.453735
0.474146
0.494011
0.513301
0.531994
0.550133
0.567644
0.584534
0.600805
0.616458
0.631486
0.645866
0.659613
0.67272
0.6852
0.697051
0.708284
0.718912
0.72895
0.738415
0.747325
0.755695
0.763541
0.770883
0.777738
0.784122
0.790052
0.795544
0.800619
0.805285
0.809559
0.813459
0.817002
0.820207
0.823089
0.825666
0.827955
0.829975
0.831743
0.833274
0.834582
0.835679
0.835952
0.834093
0.83207
0.829949
0.827712
0.825346
0.822833
0.820159
0.81731
0.814278
0.811057
0.807648
0.804063
0.800323
0.796461
0.792531
0.788609
0.784799
0.781236
0.778068
0.775433
0.773411
0.77199
0.771091
0.770564
0.770273
0.77012
0.770044
0.770008
0.000215014
0.000919883
0.00202378
0.00368918
0.00612026
0.00955779
0.0142633
0.0204927
0.0284632
0.0383223
0.0501288
0.0638498
0.079373
0.0965289
0.115115
0.134919
0.155731
0.177357
0.199684
0.22271
0.245948
0.269519
0.292887
0.316004
0.339035
0.361858
0.384394
0.406572
0.428332
0.449624
0.470405
0.490638
0.510296
0.529358
0.5478
0.565613
0.582797
0.599352
0.615272
0.630546
0.645166
0.659117
0.672412
0.685055
0.697056
0.708423
0.719176
0.729328
0.738894
0.747889
0.756331
0.764234
0.771617
0.778497
0.784893
0.790824
0.796307
0.801361
0.806003
0.81025
0.814117
0.817622
0.820782
0.823612
0.826131
0.828353
0.830294
0.831971
0.833387
0.834556
0.835491
0.834979
0.833131
0.831131
0.828997
0.826726
0.824311
0.821741
0.819006
0.816097
0.813007
0.809736
0.806289
0.802682
0.79894
0.795103
0.791227
0.787393
0.783709
0.780307
0.777327
0.774886
0.773041
0.771763
0.770963
0.770497
0.77024
0.770106
0.770039
0.770007
0.000199904
0.000855326
0.00188203
0.00343178
0.00569636
0.00890401
0.0133063
0.019155
0.0266714
0.0360166
0.0472704
0.0604251
0.075394
0.0920306
0.110151
0.129556
0.150049
0.171543
0.193976
0.217041
0.24019
0.263343
0.28668
0.310047
0.333335
0.356447
0.379299
0.401815
0.42393
0.445587
0.466739
0.487348
0.507383
0.526836
0.545607
0.563755
0.581265
0.598134
0.614348
0.629893
0.644756
0.658939
0.672439
0.685265
0.697426
0.70893
0.719789
0.730024
0.739653
0.748693
0.757165
0.765088
0.77248
0.779359
0.785743
0.791652
0.797102
0.802114
0.806705
0.810894
0.814699
0.818137
0.821227
0.823986
0.826434
0.828589
0.830465
0.832074
0.8334
0.834493
0.835274
0.834034
0.832183
0.83017
0.828007
0.825696
0.823233
0.820612
0.817824
0.814864
0.811728
0.808419
0.804947
0.801331
0.7976
0.793797
0.789983
0.786242
0.782684
0.779438
0.776634
0.774375
0.772696
0.771551
0.770844
0.770434
0.77021
0.770093
0.770034
0.770006
0.000186158
0.000796591
0.00175306
0.00319758
0.00531055
0.00830851
0.0124334
0.0179321
0.025029
0.0338968
0.0446347
0.0572589
0.0717082
0.0878598
0.105552
0.124604
0.145002
0.166622
0.188697
0.211115
0.234057
0.257334
0.28081
0.304358
0.327866
0.351232
0.374366
0.397185
0.419619
0.441603
0.463084
0.484015
0.504355
0.524121
0.543242
0.561713
0.579531
0.596689
0.613173
0.628968
0.644063
0.658449
0.672135
0.685128
0.697439
0.709079
0.720058
0.730396
0.740114
0.749227
0.757753
0.765714
0.773131
0.780023
0.786412
0.792316
0.797754
0.802745
0.807309
0.811465
0.81523
0.818622
0.821659
0.824359
0.826743
0.828827
0.830634
0.832183
0.833465
0.834524
0.835108
0.833367
0.831387
0.829282
0.827047
0.824675
0.822156
0.819481
0.816644
0.813639
0.810465
0.807128
0.80364
0.800024
0.796312
0.79255
0.788804
0.785161
0.781731
0.77864
0.776009
0.773922
0.772396
0.771369
0.770742
0.770382
0.770184
0.770081
0.77003
0.770005
0.000173532
0.000742628
0.00163455
0.00298232
0.00495584
0.00776074
0.0116297
0.0168049
0.0235128
0.0319365
0.0421929
0.054321
0.0682834
0.0839777
0.101255
0.120092
0.140281
0.161133
0.182898
0.205342
0.228314
0.251669
0.275268
0.298983
0.322696
0.346301
0.369702
0.39281
0.41555
0.437854
0.459664
0.480932
0.501618
0.521683
0.541104
0.559873
0.577978
0.59541
0.612148
0.628175
0.643481
0.658064
0.671924
0.68507
0.697512
0.709266
0.720346
0.730766
0.740543
0.749701
0.758259
0.766238
0.773657
0.780539
0.786906
0.79278
0.798182
0.803131
0.807647
0.81175
0.815461
0.8188
0.821784
0.824436
0.826773
0.828815
0.830582
0.832088
0.833326
0.834345
0.834509
0.832572
0.830511
0.828342
0.826052
0.823631
0.821067
0.81835
0.815473
0.812433
0.80923
0.805873
0.802378
0.798768
0.79508
0.791365
0.787692
0.784148
0.780846
0.777907
0.77544
0.773514
0.772127
0.771208
0.770653
0.770335
0.770162
0.770071
0.770026
0.770005
0.000161905
0.000692936
0.00152543
0.00278414
0.00462923
0.00725612
0.0108886
0.0157639
0.0221095
0.0301177
0.039922
0.0515836
0.0650898
0.0803646
0.0973157
0.115892
0.135383
0.156018
0.177603
0.199971
0.222941
0.246355
0.270063
0.293931
0.317834
0.34166
0.365306
0.388678
0.411696
0.434287
0.456391
0.477958
0.49895
0.519275
0.538969
0.558007
0.576377
0.594062
0.611035
0.62728
0.642784
0.657544
0.671565
0.684853
0.697419
0.709279
0.72045
0.730949
0.740796
0.750011
0.758615
0.766631
0.77408
0.780982
0.787356
0.793223
0.798606
0.803526
0.808007
0.812068
0.815728
0.819007
0.821927
0.824509
0.826773
0.82874
0.830429
0.831845
0.833001
0.833929
0.833444
0.831532
0.829485
0.827313
0.82501
0.822566
0.819975
0.817229
0.814323
0.811257
0.808033
0.804663
0.801165
0.797567
0.793909
0.790244
0.786645
0.783203
0.780028
0.777235
0.774926
0.77315
0.77189
0.771068
0.770575
0.770295
0.770143
0.770063
0.770023
0.770004
0.000151182
0.000647114
0.00142482
0.00260144
0.0043281
0.00679063
0.0102043
0.0148009
0.0208084
0.0284267
0.0378041
0.0490224
0.0620926
0.0769651
0.0936554
0.111526
0.130785
0.151246
0.172705
0.195001
0.217956
0.241412
0.265213
0.289219
0.313297
0.337328
0.361203
0.384824
0.408104
0.430966
0.453344
0.475181
0.496429
0.517047
0.537013
0.556309
0.574924
0.592835
0.610018
0.626453
0.642129
0.657048
0.671208
0.68462
0.697294
0.709246
0.720492
0.731052
0.740946
0.750193
0.758814
0.766831
0.774271
0.781159
0.787517
0.793368
0.798732
0.803628
0.808079
0.812107
0.815734
0.818979
0.821863
0.824403
0.826622
0.828537
0.830165
0.831495
0.832593
0.833422
0.832332
0.83047
0.828456
0.826294
0.823984
0.821525
0.818912
0.816142
0.813212
0.810123
0.806884
0.803506
0.800011
0.796427
0.792798
0.789184
0.785661
0.782322
0.779272
0.776622
0.77446
0.772824
0.77168
0.770944
0.770507
0.77026
0.770126
0.770055
0.77002
0.770004
0.000141312
0.000604934
0.00133222
0.0024333
0.0040509
0.00636182
0.00957303
0.0139108
0.0196024
0.0268536
0.0358252
0.0466151
0.0592454
0.0736509
0.0897924
0.107444
0.126503
0.146796
0.168146
0.190389
0.213334
0.23683
0.260717
0.284847
0.309084
0.333301
0.357384
0.381229
0.404743
0.427847
0.450469
0.472551
0.494046
0.514914
0.535125
0.55466
0.5735
0.591621
0.608996
0.625606
0.641441
0.656502
0.670786
0.684307
0.697076
0.70911
0.720426
0.731045
0.740987
0.750275
0.758931
0.766978
0.774434
0.781325
0.787675
0.793507
0.798846
0.803715
0.808136
0.812128
0.815715
0.818918
0.821758
0.824256
0.826431
0.828302
0.829883
0.831167
0.832208
0.83296
0.83146
0.82958
0.827546
0.825362
0.823027
0.820541
0.8179
0.815103
0.812148
0.809041
0.80579
0.80241
0.798924
0.795363
0.79177
0.78821
0.784758
0.781513
0.77858
0.776064
0.774041
0.772533
0.771495
0.770836
0.770448
0.770229
0.770111
0.770049
0.770018
0.770003
0.00013225
0.000566208
0.00124721
0.0022789
0.00379626
0.0059676
0.00899189
0.0130896
0.0184865
0.0253928
0.0339813
0.0443721
0.0566283
0.0707694
0.0864348
0.103762
0.122565
0.142639
0.163807
0.186014
0.208968
0.232515
0.256496
0.280756
0.305153
0.329556
0.353843
0.377908
0.401652
0.42499
0.447848
0.470164
0.491888
0.512979
0.533407
0.553151
0.57219
0.590495
0.608039
0.624804
0.640781
0.655958
0.670351
0.683968
0.696819
0.708922
0.720295
0.730958
0.740933
0.750243
0.758912
0.766965
0.774426
0.781318
0.787665
0.793491
0.798817
0.803668
0.808067
0.812035
0.815595
0.81877
0.82158
0.824047
0.826192
0.828036
0.82959
0.830852
0.831869
0.83253
0.830775
0.82883
0.826744
0.824514
0.822139
0.819616
0.816942
0.814114
0.811134
0.808008
0.804746
0.801364
0.797885
0.794343
0.790802
0.787298
0.783911
0.780757
0.777942
0.775554
0.773662
0.772273
0.771331
0.770742
0.770396
0.770203
0.770098
0.770043
0.770016
0.770003
0.000123956
0.000530761
0.00116938
0.00213753
0.00356303
0.0056063
0.00845879
0.0123354
0.01746
0.0240454
0.0322714
0.0422661
0.054094
0.0677596
0.0831937
0.100289
0.118909
0.138894
0.160095
0.18214
0.205041
0.2286
0.252644
0.27701
0.301546
0.326113
0.350584
0.374846
0.398796
0.422347
0.44542
0.467952
0.489887
0.511185
0.531812
0.551746
0.570963
0.58943
0.607121
0.624018
0.640112
0.655401
0.66989
0.68359
0.696515
0.70868
0.720106
0.730813
0.740823
0.75016
0.758847
0.76691
0.774373
0.781261
0.787599
0.793412
0.798723
0.803556
0.807934
0.81188
0.815416
0.818566
0.82135
0.823792
0.825912
0.827731
0.829259
0.8305
0.831495
0.832014
0.830131
0.828126
0.825988
0.823712
0.821296
0.818736
0.816028
0.813171
0.810167
0.807024
0.803753
0.800375
0.796919
0.793441
0.789941
0.786494
0.783181
0.780082
0.777358
0.775089
0.773321
0.772043
0.771188
0.770659
0.770351
0.77018
0.770087
0.770038
0.770014
0.770003
0.000116399
0.000498461
0.00109846
0.00200866
0.00335031
0.00527654
0.00797179
0.0116456
0.0165203
0.0228118
0.0307087
0.0403525
0.0518263
0.0651432
0.0802609
0.0970785
0.115461
0.135244
0.156248
0.178281
0.201245
0.224882
0.249028
0.273522
0.298207
0.322942
0.347595
0.372047
0.396194
0.419943
0.443214
0.46594
0.488066
0.509548
0.530352
0.550456
0.569831
0.588442
0.606263
0.623277
0.639475
0.654856
0.669427
0.683198
0.696183
0.708399
0.719867
0.730608
0.740645
0.750002
0.758705
0.766777
0.774244
0.781132
0.787465
0.793269
0.798568
0.803386
0.807746
0.811673
0.815189
0.818317
0.821079
0.823498
0.825594
0.82739
0.82889
0.830105
0.831075
0.831412
0.829484
0.827436
0.825257
0.822943
0.820491
0.817898
0.81516
0.812277
0.809252
0.806093
0.802815
0.799443
0.796008
0.792508
0.789025
0.785626
0.782396
0.779437
0.776812
0.774667
0.773016
0.771839
0.771062
0.770587
0.770312
0.770159
0.770077
0.770034
0.770013
0.770002
0.000109572
0.000469278
0.00103436
0.00189215
0.00315788
0.00497795
0.00753021
0.0110192
0.015665
0.0216867
0.0292814
0.0386037
0.0497527
0.0627601
0.0775899
0.0941662
0.112363
0.132024
0.152976
0.175047
0.197936
0.221588
0.245796
0.270389
0.295203
0.320087
0.344904
0.369532
0.39386
0.417792
0.441245
0.46415
0.486448
0.508094
0.529056
0.549307
0.568816
0.587548
0.605479
0.622591
0.638877
0.654336
0.668977
0.682808
0.695844
0.708103
0.719607
0.730376
0.740436
0.749809
0.758523
0.766602
0.774071
0.780958
0.787286
0.793082
0.798371
0.803176
0.807522
0.811433
0.814932
0.818041
0.820785
0.823184
0.825262
0.827037
0.828512
0.829706
0.830654
0.830803
0.828842
0.826762
0.824552
0.822208
0.819728
0.817109
0.814347
0.811445
0.808406
0.80524
0.80196
0.798586
0.79513
0.791652
0.788207
0.784863
0.781705
0.778831
0.776344
0.774297
0.772749
0.771662
0.770953
0.770525
0.770279
0.770142
0.770069
0.77003
0.770011
0.770002
0.000103502
0.000443326
0.000977343
0.00178846
0.00298647
0.00471171
0.00713595
0.0104588
0.0148985
0.020676
0.0279952
0.0370205
0.0478542
0.0605835
0.0751482
0.0914962
0.109506
0.129024
0.149875
0.171869
0.194814
0.218541
0.242847
0.267555
0.292502
0.317534
0.342509
0.3673
0.391795
0.415896
0.439516
0.462585
0.485044
0.506843
0.527949
0.548324
0.567938
0.586765
0.604782
0.621973
0.63833
0.653854
0.668549
0.682428
0.695506
0.707801
0.719334
0.730128
0.740206
0.749594
0.758317
0.766401
0.773873
0.780758
0.787083
0.792872
0.798152
0.802946
0.80728
0.811177
0.814661
0.817755
0.820483
0.822866
0.824927
0.826686
0.828141
0.829318
0.83025
0.830208
0.828228
0.826127
0.823896
0.821531
0.819031
0.816394
0.813617
0.810701
0.807651
0.80447
0.801174
0.797784
0.794342
0.79089
0.787482
0.784187
0.781094
0.7783
0.7759
0.773964
0.772515
0.771509
0.77086
0.770472
0.77025
0.770127
0.770061
0.770027
0.77001
0.770002
9.82554e-05
0.000420886
0.000928008
0.00169864
0.00283779
0.00448036
0.00679262
0.0099697
0.0142274
0.0197884
0.0268629
0.0356287
0.0462096
0.058668
0.072998
0.0891489
0.107007
0.126421
0.147216
0.169203
0.192192
0.215932
0.240306
0.265111
0.290174
0.315336
0.340452
0.365391
0.390037
0.414288
0.438057
0.461273
0.483875
0.505818
0.527047
0.547524
0.567219
0.586116
0.604196
0.621444
0.637855
0.653427
0.668163
0.68208
0.695189
0.707512
0.719068
0.729881
0.739974
0.749373
0.758104
0.766193
0.773666
0.780551
0.786872
0.792657
0.79793
0.802716
0.807041
0.810927
0.8144
0.817482
0.820197
0.822568
0.824616
0.826362
0.827801
0.828965
0.829886
0.829671
0.827677
0.825561
0.823315
0.820935
0.818419
0.815763
0.812966
0.81003
0.806957
0.803764
0.800465
0.797085
0.793658
0.790228
0.786852
0.783602
0.780567
0.777845
0.775529
0.773683
0.772316
0.771379
0.770781
0.770427
0.770226
0.770115
0.770055
0.770025
0.770009
0.770002
9.39555e-05
0.000402484
0.000887493
0.00162473
0.00271515
0.00428901
0.00650784
0.00956279
0.0136676
0.0190458
0.0259133
0.0344593
0.044832
0.0570518
0.071179
0.087157
0.104878
0.124196
0.144934
0.166901
0.189897
0.213724
0.238171
0.26307
0.288241
0.313522
0.338764
0.363833
0.388612
0.412997
0.436901
0.46025
0.482983
0.505036
0.526356
0.546907
0.566662
0.585603
0.603723
0.621009
0.637455
0.65306
0.66783
0.681774
0.694909
0.707253
0.718827
0.729654
0.739759
0.749167
0.757904
0.765997
0.773473
0.780357
0.786677
0.792458
0.797726
0.802507
0.806824
0.810703
0.814168
0.817241
0.819947
0.822309
0.824348
0.826085
0.827513
0.828668
0.829581
0.829225
0.827221
0.825093
0.822831
0.820435
0.817901
0.815228
0.812416
0.809468
0.806388
0.803189
0.799889
0.796512
0.793095
0.789681
0.786329
0.783114
0.780127
0.777464
0.775217
0.773447
0.772151
0.771272
0.770717
0.770391
0.770207
0.770105
0.770051
0.770022
0.770008
0.770002
9.08045e-05
0.000388982
0.000857705
0.00157023
0.0026244
0.00414689
0.00629555
0.00925839
0.0132474
0.0184863
0.0251934
0.0335615
0.0437378
0.0558073
0.0697912
0.0856461
0.103272
0.122524
0.143228
0.16519
0.188207
0.212079
0.236592
0.261561
0.286813
0.312183
0.337521
0.36269
0.387573
0.412067
0.436083
0.459547
0.482378
0.50451
0.525895
0.546497
0.566291
0.58526
0.603398
0.620701
0.637165
0.652788
0.667575
0.681537
0.694687
0.707045
0.718632
0.729469
0.739582
0.748997
0.75774
0.765836
0.773314
0.780199
0.786518
0.792298
0.797563
0.802341
0.806654
0.810528
0.813988
0.817056
0.819756
0.822113
0.824146
0.825878
0.8273
0.82845
0.829359
0.828906
0.826891
0.824751
0.822478
0.82007
0.817525
0.814842
0.812021
0.809063
0.805976
0.802771
0.799467
0.796091
0.792676
0.789271
0.785934
0.782744
0.779792
0.777176
0.774986
0.77327
0.772026
0.771191
0.770669
0.770364
0.770192
0.770097
0.770047
0.770021
0.770008
0.770001
8.90939e-05
0.000381654
0.000841519
0.00154053
0.00257476
0.00406881
0.00617841
0.00908973
0.0130138
0.0181747
0.0247929
0.0330644
0.0431414
0.0551167
0.0690167
0.0848018
0.102374
0.121591
0.142277
0.164236
0.187263
0.211152
0.235701
0.260717
0.286019
0.311443
0.336835
0.362062
0.387006
0.411565
0.435651
0.459173
0.482054
0.504228
0.525649
0.546279
0.566094
0.585078
0.603225
0.620531
0.637
0.652631
0.667426
0.681396
0.694555
0.70692
0.718513
0.729356
0.739474
0.748893
0.757638
0.765737
0.773216
0.780102
0.786422
0.792201
0.797466
0.802242
0.806553
0.810426
0.813883
0.816949
0.819647
0.822001
0.824033
0.825763
0.827184
0.828333
0.829243
0.828745
0.826721
0.824573
0.822293
0.819879
0.817327
0.814638
0.81181
0.808847
0.805754
0.802545
0.799237
0.795858
0.792444
0.789041
0.785712
0.782534
0.7796
0.77701
0.774849
0.773168
0.771956
0.771147
0.770642
0.770349
0.770184
0.770093
0.770045
0.77002
0.770007
0.770001
8.90515e-05
0.000381491
0.000841219
0.00154007
0.00257411
0.00406795
0.00617737
0.00908861
0.0130128
0.0181744
0.0247939
0.0330676
0.0431472
0.0551257
0.0690297
0.0848191
0.102396
0.121616
0.142304
0.164265
0.187292
0.21118
0.235728
0.260742
0.286041
0.311462
0.336852
0.362077
0.387018
0.411575
0.435659
0.459178
0.482055
0.504228
0.525647
0.546277
0.566092
0.585076
0.603222
0.620528
0.636997
0.652627
0.667422
0.681392
0.69455
0.706916
0.718509
0.729352
0.739471
0.74889
0.757635
0.765734
0.773213
0.7801
0.786419
0.792199
0.797464
0.80224
0.806552
0.810425
0.813882
0.816948
0.819647
0.822001
0.824034
0.825764
0.827186
0.828336
0.829247
0.828756
0.826732
0.824584
0.822304
0.81989
0.817338
0.814649
0.81182
0.808856
0.805763
0.802553
0.799244
0.795864
0.792448
0.789044
0.785713
0.782534
0.779599
0.777008
0.774848
0.773167
0.771955
0.771146
0.770642
0.770349
0.770184
0.770093
0.770045
0.77002
0.770007
0.770001
9.07521e-05
0.000388826
0.000857537
0.00157015
0.00262451
0.00414728
0.0062963
0.00925955
0.0132491
0.0184891
0.0251985
0.0335702
0.0437479
0.0558203
0.0698108
0.0856748
0.103311
0.122572
0.143283
0.165248
0.188266
0.212131
0.236646
0.261612
0.286856
0.312216
0.337543
0.362703
0.387578
0.412065
0.436074
0.459531
0.482358
0.50449
0.525878
0.546482
0.566279
0.58525
0.603389
0.620693
0.637157
0.65278
0.667566
0.681527
0.694677
0.707034
0.71862
0.729458
0.739572
0.748987
0.75773
0.765827
0.773305
0.780191
0.786511
0.792291
0.797557
0.802335
0.806649
0.810524
0.813984
0.817053
0.819755
0.822113
0.824148
0.825881
0.827306
0.828458
0.82937
0.828938
0.826922
0.824783
0.82251
0.820103
0.817557
0.814873
0.812051
0.809091
0.806002
0.802794
0.799486
0.796106
0.792687
0.789277
0.785936
0.782741
0.779786
0.77717
0.77498
0.773266
0.772024
0.77119
0.770668
0.770364
0.770192
0.770097
0.770047
0.770021
0.770008
0.770001
9.39113e-05
0.00040239
0.000887532
0.00162511
0.00271608
0.00429066
0.00651032
0.00956603
0.0136714
0.0190496
0.0259157
0.0344558
0.0448099
0.0570509
0.0711932
0.0871895
0.104931
0.124267
0.145021
0.166999
0.190003
0.21383
0.238262
0.263142
0.288299
0.313567
0.338795
0.363851
0.388619
0.412994
0.436892
0.460236
0.482966
0.505018
0.52634
0.546893
0.56665
0.585592
0.603712
0.620998
0.637443
0.653046
0.667813
0.681755
0.694889
0.707232
0.718806
0.729634
0.73974
0.749149
0.757887
0.765981
0.773458
0.780343
0.786664
0.792447
0.797716
0.802498
0.806816
0.810696
0.814162
0.817237
0.819945
0.822309
0.824351
0.82609
0.827522
0.828679
0.829597
0.829274
0.82727
0.825142
0.822881
0.820485
0.81795
0.815277
0.812464
0.809514
0.806431
0.803228
0.799922
0.796539
0.793114
0.789693
0.786334
0.783113
0.780121
0.777456
0.77521
0.773442
0.772148
0.77127
0.770717
0.770391
0.770206
0.770105
0.770051
0.770022
0.770008
0.770002
9.82782e-05
0.000421107
0.000928797
0.00170043
0.00284106
0.00448551
0.00679985
0.00997884
0.014238
0.0198002
0.0268774
0.0356526
0.0462651
0.0587209
0.0730459
0.089201
0.10707
0.126497
0.147306
0.169305
0.1923
0.216045
0.240402
0.265196
0.290246
0.315394
0.340495
0.36542
0.390052
0.414292
0.438053
0.461262
0.483859
0.505795
0.527021
0.547496
0.567192
0.586089
0.60417
0.621419
0.637828
0.653398
0.668135
0.68205
0.69516
0.707482
0.719039
0.729852
0.739946
0.749347
0.758079
0.766169
0.773644
0.78053
0.786853
0.79264
0.797914
0.802702
0.807028
0.810916
0.814391
0.817475
0.820193
0.822566
0.824618
0.826368
0.82781
0.828977
0.829903
0.829732
0.827739
0.825625
0.823379
0.820999
0.818482
0.815825
0.813027
0.810089
0.807015
0.803815
0.800509
0.797121
0.793685
0.790245
0.786858
0.7836
0.780559
0.777835
0.77552
0.773676
0.772311
0.771377
0.770781
0.770427
0.770226
0.770115
0.770056
0.770025
0.770009
0.770002
0.000103611
0.000443941
0.000979044
0.00179194
0.00299246
0.00472079
0.00714828
0.0104738
0.0149147
0.0206913
0.0280081
0.0370323
0.0478732
0.0606078
0.0751877
0.091551
0.109581
0.129121
0.149992
0.171999
0.194955
0.218661
0.242958
0.267658
0.292592
0.317609
0.342568
0.367344
0.391824
0.415911
0.43952
0.46258
0.485031
0.506826
0.527927
0.548298
0.56791
0.586735
0.60475
0.621939
0.638294
0.653815
0.668509
0.682388
0.695465
0.707761
0.719295
0.730089
0.740169
0.749558
0.758283
0.766369
0.773842
0.78073
0.787056
0.792848
0.79813
0.802926
0.807262
0.811162
0.814648
0.817745
0.820476
0.822862
0.824927
0.82669
0.828149
0.829329
0.830267
0.830276
0.828299
0.8262
0.823971
0.821607
0.819107
0.816467
0.813686
0.810766
0.80771
0.804527
0.801226
0.797829
0.794378
0.790914
0.787493
0.784187
0.781087
0.778289
0.77589
0.773958
0.772511
0.771507
0.77086
0.770472
0.77025
0.770128
0.770062
0.770027
0.77001
0.770002
0.00010978
0.000470345
0.0010371
0.00189752
0.00316687
0.00499133
0.00754803
0.0110403
0.0156871
0.0217067
0.0292966
0.0386128
0.0497503
0.0627621
0.0776069
0.0942
0.112416
0.132098
0.15307
0.175149
0.19804
0.221702
0.245913
0.270501
0.295303
0.320172
0.344973
0.369583
0.393893
0.417808
0.441247
0.464139
0.486428
0.508068
0.529025
0.549271
0.568777
0.587506
0.605434
0.622544
0.638828
0.654286
0.668924
0.682754
0.69579
0.70805
0.719554
0.730325
0.740386
0.749762
0.758478
0.766558
0.77403
0.780919
0.78725
0.793049
0.79834
0.803148
0.807497
0.81141
0.814911
0.818024
0.820772
0.823176
0.825258
0.827039
0.828519
0.829718
0.830673
0.830866
0.828912
0.826837
0.824631
0.82229
0.819811
0.817191
0.814427
0.81152
0.808475
0.805302
0.802015
0.798637
0.795181
0.791685
0.788223
0.784865
0.781697
0.778819
0.776334
0.774287
0.772743
0.77166
0.770953
0.770526
0.770279
0.770143
0.770069
0.77003
0.770011
0.770002
0.000116722
0.000500047
0.00110237
0.00201616
0.00336267
0.00529464
0.00799546
0.011673
0.0165475
0.0228338
0.0307212
0.0403548
0.0518215
0.0651394
0.0802668
0.0971048
0.115515
0.135328
0.156359
0.178428
0.201391
0.22503
0.249174
0.273658
0.298329
0.323047
0.347681
0.372114
0.396243
0.419975
0.44323
0.465941
0.488053
0.509523
0.530318
0.550413
0.569782
0.588388
0.606206
0.623219
0.639417
0.654796
0.669364
0.683133
0.696117
0.708334
0.719802
0.730545
0.740583
0.749942
0.758647
0.766721
0.774192
0.781082
0.787419
0.793226
0.798528
0.803349
0.807712
0.811642
0.815161
0.818293
0.821059
0.823482
0.825584
0.827385
0.82889
0.830109
0.831088
0.831476
0.829555
0.827513
0.825339
0.823029
0.820579
0.817985
0.815246
0.812359
0.809329
0.806163
0.802875
0.799487
0.796035
0.792546
0.789045
0.785633
0.782394
0.779431
0.776802
0.774659
0.773011
0.771838
0.771063
0.770588
0.770314
0.77016
0.770077
0.770034
0.770013
0.770002
0.00012441
0.000532939
0.00117464
0.00214747
0.00357925
0.00562988
0.00848943
0.0123706
0.017495
0.0240739
0.0322877
0.0422681
0.0540874
0.0677463
0.0831784
0.100279
0.118915
0.138924
0.160134
0.182198
0.205126
0.228707
0.252762
0.277129
0.301657
0.326211
0.350666
0.37491
0.398841
0.422373
0.445428
0.467941
0.48986
0.511143
0.531757
0.551682
0.57089
0.589352
0.607039
0.623934
0.640027
0.655315
0.669802
0.683501
0.696426
0.708591
0.720018
0.730725
0.740737
0.750077
0.758768
0.766836
0.774304
0.781199
0.787544
0.793363
0.798679
0.803516
0.807898
0.811847
0.815387
0.81854
0.821328
0.823774
0.825899
0.827723
0.829255
0.830497
0.831497
0.832058
0.830194
0.8282
0.826071
0.823802
0.821389
0.818829
0.81612
0.81326
0.810251
0.807101
0.803822
0.800432
0.79696
0.79346
0.789966
0.78651
0.783179
0.780062
0.777341
0.775078
0.773315
0.772042
0.771189
0.770661
0.770353
0.770181
0.770087
0.770039
0.770014
0.770003
0.000132851
0.000569049
0.00125396
0.00229155
0.00381675
0.00599714
0.00902991
0.0131328
0.0185288
0.0254266
0.0340004
0.0443746
0.0566169
0.0707387
0.0864548
0.10376
0.122562
0.142678
0.16392
0.186156
0.209128
0.232684
0.256663
0.280912
0.305293
0.329674
0.353939
0.377978
0.401698
0.425013
0.44785
0.470149
0.491857
0.512935
0.533352
0.553086
0.572114
0.590409
0.607943
0.624699
0.640667
0.655846
0.670239
0.683856
0.696708
0.708813
0.720189
0.730856
0.740835
0.75015
0.758822
0.766876
0.774336
0.781226
0.787572
0.793399
0.798729
0.803586
0.807991
0.811967
0.815535
0.818718
0.821536
0.824011
0.826164
0.828014
0.829573
0.830839
0.831855
0.832544
0.830838
0.828909
0.826835
0.824612
0.82224
0.819718
0.817042
0.81421
0.811226
0.808092
0.80482
0.801425
0.797932
0.794372
0.790808
0.787286
0.783888
0.780739
0.777922
0.77554
0.773655
0.772273
0.771334
0.770745
0.770399
0.770204
0.770099
0.770044
0.770016
0.770003
0.000142079
0.000608521
0.00134066
0.00244894
0.00407602
0.00639761
0.00961824
0.0139604
0.0196473
0.0268816
0.0358247
0.0465799
0.059181
0.0735838
0.089734
0.107406
0.126477
0.146772
0.168127
0.190429
0.213423
0.236949
0.26085
0.284982
0.309211
0.333414
0.357478
0.381301
0.404793
0.427873
0.450472
0.472531
0.494002
0.514848
0.535042
0.554563
0.573392
0.591505
0.608872
0.625477
0.641309
0.656366
0.67065
0.684172
0.696942
0.708978
0.720296
0.730917
0.740862
0.750152
0.758814
0.766869
0.774339
0.781243
0.787603
0.793443
0.798788
0.80366
0.808082
0.812076
0.815667
0.818874
0.821719
0.824223
0.826405
0.828284
0.829872
0.83116
0.832206
0.832989
0.831563
0.829692
0.827666
0.825484
0.82315
0.820661
0.818016
0.815213
0.812251
0.809134
0.805871
0.802476
0.798972
0.79539
0.791774
0.788199
0.784741
0.781492
0.778559
0.776049
0.774034
0.772533
0.771499
0.770841
0.770452
0.770232
0.770112
0.77005
0.770018
0.770003
0.000152144
0.000651573
0.0014352
0.00262054
0.0043585
0.00683347
0.0102576
0.0148581
0.020858
0.0284538
0.0377947
0.048968
0.0619951
0.0768415
0.0935167
0.111494
0.13078
0.151265
0.172757
0.195094
0.218086
0.241564
0.265375
0.289377
0.313443
0.337454
0.361305
0.384899
0.40815
0.430984
0.453335
0.475146
0.496371
0.516967
0.536914
0.556193
0.574793
0.592693
0.609866
0.626294
0.641966
0.656879
0.671037
0.684447
0.69712
0.709071
0.720316
0.730874
0.740768
0.750016
0.758636
0.766656
0.774098
0.780991
0.787356
0.793214
0.798588
0.803498
0.807965
0.812005
0.815641
0.818895
0.821788
0.824341
0.826573
0.828504
0.83015
0.831494
0.832609
0.833464
0.832506
0.830637
0.828614
0.826446
0.824131
0.821665
0.819046
0.816268
0.813329
0.81023
0.806978
0.803585
0.800072
0.79647
0.792821
0.78919
0.785652
0.782304
0.779252
0.776608
0.774455
0.772826
0.771686
0.77095
0.770512
0.770263
0.770127
0.770056
0.770021
0.770004
0.000163103
0.000698448
0.00153814
0.00280735
0.00466588
0.00730725
0.0109514
0.0158297
0.0221642
0.0301436
0.0399033
0.051512
0.0649708
0.0802231
0.097164
0.115767
0.135366
0.156043
0.177668
0.200065
0.223064
0.246498
0.270216
0.294084
0.317977
0.341784
0.365405
0.388748
0.411735
0.434295
0.45637
0.47791
0.498879
0.519188
0.538861
0.557882
0.576237
0.593907
0.610868
0.627103
0.642599
0.657355
0.671374
0.684662
0.697231
0.709096
0.720274
0.730786
0.740639
0.74986
0.75847
0.766488
0.773936
0.780833
0.787204
0.79307
0.798454
0.803376
0.807861
0.811928
0.815598
0.818888
0.821822
0.82442
0.826702
0.828687
0.830395
0.83183
0.833003
0.833956
0.833647
0.831713
0.82966
0.827482
0.825171
0.822722
0.820124
0.81737
0.814455
0.811377
0.808141
0.804755
0.801239
0.797621
0.79394
0.790253
0.786637
0.783185
0.780008
0.777221
0.774921
0.773153
0.771898
0.771075
0.770581
0.770299
0.770145
0.770064
0.770024
0.770004
0.000175013
0.000749397
0.00165004
0.00301043
0.00499995
0.00782185
0.011704