/*--------------------------------*- C++ -*----------------------------------*\
  =========                 |
  \\      /  F ield         | OpenFOAM: The Open Source CFD Toolbox
   \\    /   O peration     | Website:  https://openfoam.org
    \\  /    A nd           | Version:  8
     \\/     M anipulation  |
\*---------------------------------------------------------------------------*/
FoamFile
{
    version     2.0;
    format      ascii;
    class       surfaceScalarField;
    location    "40/fluid";
    object      phi;
}
// * * * * * * * * * * * * * * * * * * * * * * * * * * * * * * * * * * * * * //

dimensions      [1 0 -1 0 0 0 0];

internalField   nonuniform List<scalar> 
7860
(
6.53948e-07
-2.36891e-08
6.44378e-07
-7.73392e-08
6.30536e-07
-1.38515e-07
6.11674e-07
-2.06592e-07
5.87293e-07
-2.79128e-07
5.57427e-07
-3.51757e-07
5.22825e-07
-4.18856e-07
4.84877e-07
-4.74625e-07
4.45284e-07
-5.14675e-07
4.0565e-07
-5.37235e-07
3.67203e-07
-5.43285e-07
3.3073e-07
-5.3577e-07
2.96649e-07
-5.18467e-07
2.65137e-07
-4.95043e-07
2.36229e-07
-4.68505e-07
2.09885e-07
-4.41023e-07
1.86028e-07
-4.14001e-07
1.64575e-07
-3.88247e-07
1.45404e-07
-3.64153e-07
1.28327e-07
-3.41865e-07
1.13141e-07
-3.21382e-07
9.96524e-08
-3.02632e-07
8.76586e-08
-2.85488e-07
7.6986e-08
-2.69822e-07
6.74781e-08
-2.55508e-07
5.89889e-08
-2.42424e-07
5.1396e-08
-2.30455e-07
4.45825e-08
-2.19501e-07
3.84541e-08
-2.09465e-07
3.29178e-08
-2.00267e-07
2.7904e-08
-1.91833e-07
2.33393e-08
-1.841e-07
1.91727e-08
-1.77008e-07
1.5345e-08
-1.70508e-07
1.18204e-08
-1.64553e-07
8.54848e-09
-1.59105e-07
5.50674e-09
-1.54126e-07
2.64942e-09
-1.49588e-07
-3.41071e-11
-1.45456e-07
-2.58547e-09
-1.41709e-07
-5.00487e-09
-1.38315e-07
-7.32821e-09
-1.35259e-07
-9.55154e-09
-1.32517e-07
-1.17047e-08
-1.30079e-07
-1.37851e-08
-1.27923e-07
-1.58133e-08
-1.2604e-07
-1.77923e-08
-1.24414e-07
-1.97319e-08
-1.23035e-07
-2.16425e-08
-1.21891e-07
-2.35233e-08
-1.20974e-07
-2.53914e-08
-1.20279e-07
-2.72386e-08
-1.19796e-07
-2.90863e-08
-1.19524e-07
-3.09227e-08
-1.19457e-07
-3.27693e-08
-1.19595e-07
-3.46147e-08
-1.19934e-07
-3.64773e-08
-1.20477e-07
-3.83483e-08
-1.21223e-07
-4.02412e-08
-1.22178e-07
-4.21511e-08
-1.23346e-07
-4.40875e-08
-1.24738e-07
-4.60503e-08
-1.26365e-07
-4.80482e-08
-1.28245e-07
-5.00886e-08
-1.30402e-07
-5.21874e-08
-1.32864e-07
-5.43709e-08
-1.35666e-07
-5.66884e-08
-1.38853e-07
-5.92219e-08
-1.42495e-07
-6.20893e-08
-1.46701e-07
-6.55386e-08
-1.51613e-07
-6.98912e-08
-1.57189e-07
-6.27695e-08
-1.63085e-07
-5.72448e-08
-1.74285e-07
-6.38038e-08
-1.89929e-07
-7.05389e-08
-2.06972e-07
-7.78629e-08
-2.26074e-07
-8.61334e-08
-2.47726e-07
-9.56569e-08
-2.72385e-07
-1.06762e-07
-3.00603e-07
-1.19822e-07
-3.33037e-07
-1.35287e-07
-3.7046e-07
-1.53707e-07
-4.13762e-07
-1.75764e-07
-4.63951e-07
-2.02307e-07
-5.22117e-07
-2.34391e-07
-5.8944e-07
-2.73257e-07
-6.66873e-07
-3.20267e-07
-7.54577e-07
-3.76742e-07
-8.51072e-07
-4.43733e-07
-9.50797e-07
-5.22286e-07
-1.04318e-06
-6.12575e-07
-1.11106e-06
-7.12498e-07
-1.13396e-06
-8.16324e-07
-1.09679e-06
-9.15311e-07
-1.00004e-06
-1.00098e-06
-8.60689e-07
-1.0689e-06
-7.00423e-07
-1.11883e-06
-5.34054e-07
-1.15298e-06
-3.70814e-07
-1.17453e-06
-2.17663e-07
-7.28142e-08
6.57659e-07
-2.28608e-08
6.53037e-07
-7.29319e-08
6.43479e-07
-1.29456e-07
6.28288e-07
-1.92354e-07
6.0686e-07
-2.59325e-07
5.7914e-07
-3.26573e-07
5.45855e-07
-3.89231e-07
5.0846e-07
-4.4213e-07
4.68799e-07
-4.81113e-07
4.28655e-07
-5.04187e-07
3.89429e-07
-5.11834e-07
3.5204e-07
-5.06464e-07
3.16986e-07
-4.91456e-07
2.84475e-07
-4.70254e-07
2.54548e-07
-4.45782e-07
2.2716e-07
-4.20203e-07
2.02223e-07
-3.94948e-07
1.79638e-07
-3.70856e-07
1.59285e-07
-3.48339e-07
1.4101e-07
-3.27521e-07
1.24639e-07
-3.08396e-07
1.10008e-07
-2.90884e-07
9.69255e-08
-2.74855e-07
8.52262e-08
-2.60195e-07
7.47559e-08
-2.46783e-07
6.5368e-08
-2.34501e-07
5.69306e-08
-2.23242e-07
4.93245e-08
-2.12913e-07
4.24491e-08
-2.0343e-07
3.6212e-08
-1.9472e-07
3.05353e-08
-1.86716e-07
2.53466e-08
-1.7936e-07
2.05864e-08
-1.72601e-07
1.61978e-08
-1.66391e-07
1.21353e-08
-1.60692e-07
8.35354e-09
-1.55464e-07
4.8179e-09
-1.50679e-07
1.49036e-09
-1.46303e-07
-1.65512e-09
-1.42315e-07
-4.64929e-09
-1.38685e-07
-7.50708e-09
-1.35394e-07
-1.02517e-08
-1.3242e-07
-1.28936e-08
-1.2975e-07
-1.54518e-08
-1.27367e-07
-1.79344e-08
-1.25258e-07
-2.03559e-08
-1.23409e-07
-2.27247e-08
-1.21809e-07
-2.50508e-08
-1.20447e-07
-2.73429e-08
-1.19312e-07
-2.96072e-08
-1.18398e-07
-3.18537e-08
-1.17696e-07
-3.40859e-08
-1.17203e-07
-3.63151e-08
-1.1691e-07
-3.85435e-08
-1.16818e-07
-4.07826e-08
-1.16922e-07
-4.30345e-08
-1.17222e-07
-4.53092e-08
-1.17717e-07
-4.76099e-08
-1.1841e-07
-4.99469e-08
-1.19303e-07
-5.23261e-08
-1.20401e-07
-5.47569e-08
-1.21711e-07
-5.72515e-08
-1.23247e-07
-5.98273e-08
-1.2502e-07
-6.25014e-08
-1.27052e-07
-6.52981e-08
-1.29362e-07
-6.82515e-08
-1.31976e-07
-7.14114e-08
-1.34922e-07
-7.48607e-08
-1.38237e-07
-7.87449e-08
-1.4197e-07
-8.32954e-08
-1.4618e-07
-8.80491e-08
-1.50861e-07
-8.07559e-08
-1.56333e-07
-7.90333e-08
-1.6756e-07
-8.47095e-08
-1.82205e-07
-9.11391e-08
-1.9849e-07
-9.84465e-08
-2.16688e-07
-1.06887e-07
-2.37215e-07
-1.16713e-07
-2.60543e-07
-1.28208e-07
-2.87211e-07
-1.41715e-07
-3.17847e-07
-1.5765e-07
-3.53185e-07
-1.76525e-07
-3.94079e-07
-1.98961e-07
-4.41498e-07
-2.25711e-07
-4.9651e-07
-2.5771e-07
-5.60259e-07
-2.96308e-07
-6.33451e-07
-3.42852e-07
-7.16394e-07
-3.98804e-07
-8.07525e-07
-4.66129e-07
-9.00505e-07
-5.46615e-07
-9.84133e-07
-6.40373e-07
-1.04152e-06
-7.43976e-07
-1.05423e-06
-8.49595e-07
-1.01124e-06
-9.4724e-07
-9.16651e-07
-1.02908e-06
-7.87508e-07
-1.09201e-06
-6.42043e-07
-1.13663e-06
-4.91496e-07
-1.16515e-06
-3.43125e-07
-1.17988e-06
-2.03204e-07
-6.89182e-08
6.56829e-07
-2.11997e-08
6.51478e-07
-6.77802e-08
6.41797e-07
-1.20236e-07
6.27052e-07
-1.78487e-07
6.06818e-07
-2.40584e-07
5.81126e-07
-3.03213e-07
5.50564e-07
-3.62046e-07
5.16236e-07
-4.12349e-07
4.79567e-07
-4.50151e-07
4.42015e-07
-4.73344e-07
4.04833e-07
-4.82078e-07
3.68937e-07
-4.78372e-07
3.34906e-07
-4.65269e-07
3.03042e-07
-4.45992e-07
2.7346e-07
-4.23351e-07
2.46162e-07
-3.99475e-07
2.21084e-07
-3.75791e-07
1.9812e-07
-3.53148e-07
1.77148e-07
-3.31972e-07
1.58056e-07
-3.12418e-07
1.40753e-07
-2.94492e-07
1.25042e-07
-2.78099e-07
1.10814e-07
-2.63123e-07
9.79384e-08
-2.49434e-07
8.62776e-08
-2.36903e-07
7.57032e-08
-2.25419e-07
6.60971e-08
-2.14879e-07
5.73536e-08
-2.05199e-07
4.93747e-08
-1.96299e-07
4.20745e-08
-1.88111e-07
3.53724e-08
-1.80573e-07
2.91997e-08
-1.73633e-07
2.34916e-08
-1.67242e-07
1.8194e-08
-1.61361e-07
1.32541e-08
-1.5595e-07
8.62962e-09
-1.5098e-07
4.27681e-09
-1.46416e-07
1.62211e-10
-1.42237e-07
-3.75135e-09
-1.38414e-07
-7.48662e-09
-1.34932e-07
-1.10703e-08
-1.31764e-07
-1.45173e-08
-1.28899e-07
-1.78498e-08
-1.26319e-07
-2.10796e-08
-1.24013e-07
-2.4225e-08
-1.21966e-07
-2.72962e-08
-1.20168e-07
-3.03068e-08
-1.18606e-07
-3.32676e-08
-1.17271e-07
-3.61881e-08
-1.16155e-07
-3.90801e-08
-1.15247e-07
-4.19502e-08
-1.14544e-07
-4.48114e-08
-1.14036e-07
-4.76689e-08
-1.13723e-07
-5.05369e-08
-1.13596e-07
-5.34212e-08
-1.13658e-07
-5.63365e-08
-1.13901e-07
-5.92904e-08
-1.14331e-07
-6.22996e-08
-1.14942e-07
-6.5374e-08
-1.15741e-07
-6.85297e-08
-1.16728e-07
-7.17816e-08
-1.17909e-07
-7.51482e-08
-1.19294e-07
-7.8649e-08
-1.20894e-07
-8.23089e-08
-1.22724e-07
-8.61555e-08
-1.24805e-07
-9.02194e-08
-1.27157e-07
-9.45313e-08
-1.29811e-07
-9.91178e-08
-1.32809e-07
-1.04005e-07
-1.36204e-07
-1.09226e-07
-1.40064e-07
-1.13395e-07
-1.44405e-07
-1.04582e-07
-1.4994e-07
-1.06967e-07
-1.61263e-07
-1.12653e-07
-1.74722e-07
-1.19366e-07
-1.89865e-07
-1.27214e-07
-2.06876e-07
-1.36346e-07
-2.26124e-07
-1.46951e-07
-2.4805e-07
-1.59268e-07
-2.7316e-07
-1.73593e-07
-3.02052e-07
-1.90282e-07
-3.35439e-07
-2.09759e-07
-3.74163e-07
-2.32531e-07
-4.19188e-07
-2.59188e-07
-4.71604e-07
-2.90484e-07
-5.32531e-07
-3.27399e-07
-6.02588e-07
-3.71248e-07
-6.81844e-07
-4.24011e-07
-7.68033e-07
-4.87764e-07
-8.54351e-07
-5.64047e-07
-9.29264e-07
-6.52419e-07
-9.76541e-07
-7.4902e-07
-9.80004e-07
-8.46613e-07
-9.32014e-07
-9.3705e-07
-8.39067e-07
-1.01457e-06
-7.17717e-07
-1.07687e-06
-5.83798e-07
-1.12395e-06
-4.46251e-07
-1.15685e-06
-3.10978e-07
-1.17677e-06
-1.83527e-07
-6.1908e-08
6.57216e-07
-1.99229e-08
6.52535e-07
-6.32852e-08
6.43753e-07
-1.11883e-07
6.30217e-07
-1.65765e-07
6.1148e-07
-2.23229e-07
5.87478e-07
-2.81373e-07
5.58651e-07
-3.36356e-07
5.2594e-07
-3.83881e-07
4.90638e-07
-4.2021e-07
4.54142e-07
-4.43197e-07
4.17713e-07
-4.52734e-07
3.82317e-07
-4.50482e-07
3.48595e-07
-4.39151e-07
3.169e-07
-4.2172e-07
2.87379e-07
-4.00859e-07
2.60047e-07
-3.78637e-07
2.34842e-07
-3.56471e-07
2.11664e-07
-3.35219e-07
1.90394e-07
-3.15326e-07
1.70921e-07
-2.96971e-07
1.53082e-07
-2.80152e-07
1.36781e-07
-2.64783e-07
1.21876e-07
-2.50755e-07
1.08238e-07
-2.37941e-07
9.57505e-08
-2.2622e-07
8.43039e-08
-2.15481e-07
7.3799e-08
-2.0563e-07
6.41402e-08
-1.96578e-07
5.52397e-08
-1.8825e-07
4.70158e-08
-1.8058e-07
3.93965e-08
-1.73511e-07
3.23145e-08
-1.66993e-07
2.57111e-08
-1.60983e-07
1.95307e-08
-1.55441e-07
1.37262e-08
-1.50336e-07
8.25074e-09
-1.45634e-07
3.06595e-09
-1.41311e-07
-1.869e-09
-1.37339e-07
-6.58354e-09
-1.33701e-07
-1.11073e-08
-1.30376e-07
-1.54596e-08
-1.27348e-07
-1.96646e-08
-1.246e-07
-2.37371e-08
-1.22122e-07
-2.76978e-08
-1.19898e-07
-3.15597e-08
-1.1792e-07
-3.53396e-08
-1.16176e-07
-3.905e-08
-1.14656e-07
-4.27038e-08
-1.1335e-07
-4.63138e-08
-1.12251e-07
-4.989e-08
-1.1135e-07
-5.34462e-08
-1.1064e-07
-5.69912e-08
-1.10118e-07
-6.05396e-08
-1.09774e-07
-6.40998e-08
-1.09609e-07
-6.76875e-08
-1.09615e-07
-7.13133e-08
-1.09792e-07
-7.49952e-08
-1.10137e-07
-7.87458e-08
-1.10649e-07
-8.25845e-08
-1.11329e-07
-8.65293e-08
-1.12178e-07
-9.06029e-08
-1.13198e-07
-9.48287e-08
-1.14395e-07
-9.92345e-08
-1.15778e-07
-1.03852e-07
-1.17356e-07
-1.0872e-07
-1.19143e-07
-1.13883e-07
-1.21152e-07
-1.19385e-07
-1.23412e-07
-1.25262e-07
-1.25972e-07
-1.31523e-07
-1.28911e-07
-1.38183e-07
-1.32274e-07
-1.41099e-07
-1.35728e-07
-1.24262e-07
-1.4078e-07
-1.29985e-07
-1.52603e-07
-1.37099e-07
-1.65621e-07
-1.44985e-07
-1.79979e-07
-1.53813e-07
-1.96072e-07
-1.63743e-07
-2.14289e-07
-1.74987e-07
-2.35035e-07
-1.87799e-07
-2.58797e-07
-2.02474e-07
-2.86161e-07
-2.19363e-07
-3.17828e-07
-2.38892e-07
-3.54623e-07
-2.61593e-07
-3.97484e-07
-2.8812e-07
-4.47481e-07
-3.19376e-07
-5.05625e-07
-3.56611e-07
-5.72308e-07
-4.01337e-07
-6.474e-07
-4.55406e-07
-7.28204e-07
-5.20649e-07
-8.07493e-07
-5.97932e-07
-8.73749e-07
-6.85932e-07
-9.11628e-07
-7.80098e-07
-9.07229e-07
-8.73286e-07
-8.55843e-07
-9.58294e-07
-7.65653e-07
-1.03041e-06
-6.52445e-07
-1.08798e-06
-5.29791e-07
-1.13119e-06
-4.04663e-07
-1.16096e-06
-2.8187e-07
-1.17823e-06
-1.66475e-07
-5.63539e-08
6.57086e-07
-1.85133e-08
6.52353e-07
-5.87261e-08
6.43761e-07
-1.03692e-07
6.30732e-07
-1.53493e-07
6.12871e-07
-2.0665e-07
5.9011e-07
-2.60613e-07
5.62803e-07
-3.11958e-07
5.31744e-07
-3.56773e-07
4.98055e-07
-3.91541e-07
4.62987e-07
-4.14116e-07
4.27712e-07
-4.24193e-07
3.93172e-07
-4.23132e-07
3.6003e-07
-4.13347e-07
3.28684e-07
-3.97586e-07
2.99325e-07
-3.78371e-07
2.72006e-07
-3.57698e-07
2.46694e-07
-3.36962e-07
2.2331e-07
-3.17024e-07
2.01749e-07
-2.98348e-07
1.81893e-07
-2.81114e-07
1.63596e-07
-2.65318e-07
1.46746e-07
-2.50903e-07
1.31222e-07
-2.37759e-07
1.1691e-07
-2.25767e-07
1.03708e-07
-2.14814e-07
9.1516e-08
-2.04789e-07
8.02374e-08
-1.95596e-07
6.97843e-08
-1.8715e-07
6.00744e-08
-1.79378e-07
5.10336e-08
-1.72217e-07
4.25929e-08
-1.65613e-07
3.46907e-08
-1.59518e-07
2.72695e-08
-1.53892e-07
2.02782e-08
-1.48698e-07
1.36686e-08
-1.43906e-07
7.39825e-09
-1.39486e-07
1.42581e-09
-1.35413e-07
-4.28501e-09
-1.31664e-07
-9.76696e-09
-1.28222e-07
-1.5043e-08
-1.25072e-07
-2.01381e-08
-1.22195e-07
-2.50707e-08
-1.19581e-07
-2.98621e-08
-1.17215e-07
-3.45283e-08
-1.1509e-07
-3.9088e-08
-1.13192e-07
-4.35557e-08
-1.11512e-07
-4.79465e-08
-1.10042e-07
-5.22741e-08
-1.08772e-07
-5.65512e-08
-1.07695e-07
-6.07918e-08
-1.06803e-07
-6.50068e-08
-1.0609e-07
-6.92105e-08
-1.05549e-07
-7.3414e-08
-1.05176e-07
-7.76321e-08
-1.04966e-07
-8.18764e-08
-1.04916e-07
-8.61625e-08
-1.05021e-07
-9.05036e-08
-1.05278e-07
-9.49162e-08
-1.05686e-07
-9.94164e-08
-1.06243e-07
-1.04024e-07
-1.06948e-07
-1.08758e-07
-1.07804e-07
-1.13641e-07
-1.08811e-07
-1.187e-07
-1.09976e-07
-1.23961e-07
-1.11306e-07
-1.29457e-07
-1.12807e-07
-1.35228e-07
-1.14485e-07
-1.41323e-07
-1.16359e-07
-1.47791e-07
-1.18466e-07
-1.54682e-07
-1.20876e-07
-1.62092e-07
-1.2357e-07
-1.59957e-07
-1.26305e-07
-1.48539e-07
-1.32489e-07
-1.5498e-07
-1.43644e-07
-1.62394e-07
-1.5604e-07
-1.70599e-07
-1.69707e-07
-1.79733e-07
-1.84979e-07
-1.89989e-07
-2.02217e-07
-2.01578e-07
-2.21831e-07
-2.14745e-07
-2.44302e-07
-2.29779e-07
-2.70208e-07
-2.47028e-07
-3.00233e-07
-2.66928e-07
-3.35179e-07
-2.90019e-07
-3.75956e-07
-3.16976e-07
-4.23607e-07
-3.48706e-07
-4.7904e-07
-3.86351e-07
-5.42507e-07
-4.3143e-07
-6.13527e-07
-4.85657e-07
-6.89057e-07
-5.50417e-07
-7.61665e-07
-6.26088e-07
-8.19851e-07
-7.1088e-07
-8.4923e-07
-8.00184e-07
-8.38054e-07
-8.87508e-07
-7.84107e-07
-9.66836e-07
-6.96736e-07
-1.03449e-06
-5.90864e-07
-1.08921e-06
-4.78223e-07
-1.13099e-06
-3.64318e-07
-1.16033e-06
-2.53119e-07
-1.17785e-06
-1.49147e-07
-5.04162e-08
6.57194e-07
-1.721e-08
6.52728e-07
-5.44224e-08
6.44584e-07
-9.59222e-08
6.32231e-07
-1.41843e-07
6.15277e-07
-1.90886e-07
5.93606e-07
-2.40798e-07
5.67482e-07
-2.88537e-07
5.37586e-07
-3.30557e-07
5.04934e-07
-3.63587e-07
4.70708e-07
-3.85527e-07
4.36056e-07
-3.95923e-07
4.01935e-07
-3.95872e-07
3.6904e-07
-3.87503e-07
3.37808e-07
-3.73326e-07
3.08465e-07
-3.55705e-07
2.81084e-07
-3.36548e-07
2.55654e-07
-3.17218e-07
2.32108e-07
-2.98576e-07
2.10335e-07
-2.81069e-07
1.90177e-07
-2.64891e-07
1.71526e-07
-2.50075e-07
1.54263e-07
-2.36565e-07
1.3828e-07
-2.24267e-07
1.23471e-07
-2.13063e-07
1.0973e-07
-2.02841e-07
9.69606e-08
-1.93494e-07
8.50723e-08
-1.84928e-07
7.39823e-08
-1.77063e-07
6.36147e-08
-1.69827e-07
5.38994e-08
-1.6316e-07
4.47728e-08
-1.5701e-07
3.61759e-08
-1.51331e-07
2.80555e-08
-1.46086e-07
2.03621e-08
-1.41239e-07
1.30507e-08
-1.36761e-07
6.07912e-09
-1.32624e-07
-5.90824e-10
-1.28807e-07
-6.99639e-09
-1.25286e-07
-1.31645e-08
-1.22048e-07
-1.91202e-08
-1.19079e-07
-2.48842e-08
-1.16364e-07
-3.0478e-08
-1.13889e-07
-3.59196e-08
-1.11645e-07
-4.12281e-08
-1.09622e-07
-4.64195e-08
-1.07811e-07
-5.15111e-08
-1.06203e-07
-5.65177e-08
-1.04788e-07
-6.1454e-08
-1.03559e-07
-6.63344e-08
-1.02509e-07
-7.11719e-08
-1.01631e-07
-7.59803e-08
-1.00917e-07
-8.07715e-08
-1.00364e-07
-8.55591e-08
-9.99641e-08
-9.03551e-08
-9.97144e-08
-9.51736e-08
-9.96099e-08
-1.00027e-07
-9.96475e-08
-1.04929e-07
-9.98238e-08
-1.09893e-07
-1.00137e-07
-1.14933e-07
-1.00584e-07
-1.20063e-07
-1.01165e-07
-1.25298e-07
-1.01881e-07
-1.30651e-07
-1.02735e-07
-1.36138e-07
-1.03731e-07
-1.41772e-07
-1.04877e-07
-1.47566e-07
-1.0618e-07
-1.53527e-07
-1.07651e-07
-1.59671e-07
-1.09302e-07
-1.66025e-07
-1.11163e-07
-1.72622e-07
-1.13312e-07
-1.79156e-07
-1.15776e-07
-1.74294e-07
-1.18797e-07
-1.74347e-07
-1.26315e-07
-1.79895e-07
-1.36194e-07
-1.86602e-07
-1.47445e-07
-1.94405e-07
-1.6007e-07
-2.03371e-07
-1.74276e-07
-2.13622e-07
-1.90383e-07
-2.2532e-07
-2.08778e-07
-2.38677e-07
-2.29919e-07
-2.53964e-07
-2.54356e-07
-2.71523e-07
-2.82746e-07
-2.91794e-07
-3.15856e-07
-3.15327e-07
-3.54563e-07
-3.42834e-07
-3.99856e-07
-3.75256e-07
-4.5253e-07
-4.13736e-07
-5.12708e-07
-4.59771e-07
-5.79549e-07
-5.15054e-07
-6.496e-07
-5.80691e-07
-7.15416e-07
-6.56617e-07
-7.65656e-07
-7.40476e-07
-7.87115e-07
-8.27276e-07
-7.70256e-07
-9.10652e-07
-7.15075e-07
-9.85187e-07
-6.31588e-07
-1.04794e-06
-5.33519e-07
-1.0982e-06
-4.30744e-07
-1.13631e-06
-3.2748e-07
-1.1629e-06
-2.27053e-07
-1.17859e-06
-1.33623e-07
-4.52191e-08
6.57198e-07
-1.5908e-08
6.52833e-07
-5.02109e-08
6.44949e-07
-8.83877e-08
6.33046e-07
-1.30595e-07
6.16746e-07
-1.75691e-07
5.95918e-07
-2.21691e-07
5.70768e-07
-2.65894e-07
5.41889e-07
-3.05099e-07
5.10198e-07
-3.36284e-07
4.76797e-07
-3.57417e-07
4.42782e-07
-3.67938e-07
4.091e-07
-3.68715e-07
3.76464e-07
-3.61613e-07
3.45345e-07
-3.48916e-07
3.16002e-07
-3.32822e-07
2.88552e-07
-3.1515e-07
2.62995e-07
-2.97211e-07
2.39223e-07
-2.79824e-07
2.1717e-07
-2.63447e-07
1.9671e-07
-2.48301e-07
1.77729e-07
-2.3444e-07
1.60114e-07
-2.21816e-07
1.43745e-07
-2.10335e-07
1.28514e-07
-1.99889e-07
1.1432e-07
-1.90369e-07
1.01067e-07
-1.81674e-07
8.86701e-08
-1.73714e-07
7.7049e-08
-1.6641e-07
6.61309e-08
-1.59694e-07
5.58493e-08
-1.53508e-07
4.61432e-08
-1.47801e-07
3.69568e-08
-1.42531e-07
2.82388e-08
-1.37661e-07
1.99426e-08
-1.33158e-07
1.20247e-08
-1.28994e-07
4.44533e-09
-1.25143e-07
-2.83409e-09
-1.21583e-07
-9.84659e-09
-1.18296e-07
-1.66177e-08
-1.15269e-07
-2.31698e-08
-1.12489e-07
-2.95245e-08
-1.09941e-07
-3.57009e-08
-1.07615e-07
-4.17184e-08
-1.05501e-07
-4.75943e-08
-1.0359e-07
-5.33458e-08
-1.01874e-07
-5.89887e-08
-1.00343e-07
-6.45397e-08
-9.89911e-08
-7.0013e-08
-9.78097e-08
-7.54224e-08
-9.67922e-08
-8.07821e-08
-9.59321e-08
-8.61055e-08
-9.52237e-08
-9.14063e-08
-9.4661e-08
-9.66968e-08
-9.42391e-08
-1.0199e-07
-9.3953e-08
-1.07299e-07
-9.37989e-08
-1.12635e-07
-9.37728e-08
-1.18011e-07
-9.38719e-08
-1.2344e-07
-9.40937e-08
-1.28934e-07
-9.44368e-08
-1.34504e-07
-9.4901e-08
-1.40162e-07
-9.54879e-08
-1.45918e-07
-9.62016e-08
-1.51782e-07
-9.70491e-08
-1.5776e-07
-9.80396e-08
-1.63856e-07
-9.9187e-08
-1.70068e-07
-1.00512e-07
-1.76381e-07
-1.02041e-07
-1.82775e-07
-1.03811e-07
-1.89283e-07
-1.05866e-07
-1.94733e-07
-1.08223e-07
-1.87361e-07
-1.11522e-07
-1.91908e-07
-1.19291e-07
-1.98113e-07
-1.28365e-07
-2.05246e-07
-1.3865e-07
-2.13448e-07
-1.5024e-07
-2.22816e-07
-1.63379e-07
-2.33479e-07
-1.78364e-07
-2.45607e-07
-1.95553e-07
-2.59424e-07
-2.15373e-07
-2.75215e-07
-2.38347e-07
-2.9334e-07
-2.651e-07
-3.14258e-07
-2.9636e-07
-3.38542e-07
-3.32971e-07
-3.66943e-07
-3.75852e-07
-4.00419e-07
-4.25685e-07
-4.40082e-07
-4.82498e-07
-4.87384e-07
-5.45061e-07
-5.43791e-07
-6.09639e-07
-6.10026e-07
-6.68865e-07
-6.85465e-07
-7.11724e-07
-7.67256e-07
-7.2626e-07
-8.50346e-07
-7.0497e-07
-9.2894e-07
-6.496e-07
-9.98542e-07
-5.70421e-07
-1.05694e-06
-4.79928e-07
-1.10373e-06
-3.86417e-07
-1.13926e-06
-2.93077e-07
-1.16409e-06
-2.02683e-07
-1.17884e-06
-1.19031e-07
-4.02648e-08
6.57236e-07
-1.46425e-08
6.53003e-07
-4.6121e-08
6.45372e-07
-8.10829e-08
6.33869e-07
-1.19702e-07
6.18127e-07
-1.60974e-07
5.97994e-07
-2.03153e-07
5.73627e-07
-2.43851e-07
5.45546e-07
-2.80195e-07
5.14592e-07
-3.09418e-07
4.81804e-07
-3.29584e-07
4.48246e-07
-3.40057e-07
4.14861e-07
-3.41507e-07
3.82378e-07
-3.35554e-07
3.51297e-07
-3.24254e-07
3.21909e-07
-3.09637e-07
2.94356e-07
-2.93415e-07
2.68627e-07
-2.76816e-07
2.44677e-07
-2.60659e-07
2.2239e-07
-2.45429e-07
2.0168e-07
-2.31334e-07
1.82427e-07
-2.18431e-07
1.64514e-07
-2.06682e-07
1.47822e-07
-1.96004e-07
1.32243e-07
-1.86299e-07
1.17675e-07
-1.77464e-07
1.04026e-07
-1.69404e-07
9.12106e-08
-1.62033e-07
7.91512e-08
-1.55275e-07
6.77771e-08
-1.49066e-07
5.7024e-08
-1.43349e-07
4.68332e-08
-1.38077e-07
3.71509e-08
-1.33209e-07
2.79284e-08
-1.28709e-07
1.91204e-08
-1.24546e-07
1.06856e-08
-1.20694e-07
2.58566e-09
-1.17128e-07
-5.2166e-09
-1.13828e-07
-1.27518e-08
-1.10776e-07
-2.00425e-08
-1.07963e-07
-2.71106e-08
-1.05376e-07
-3.39757e-08
-1.03002e-07
-4.06572e-08
-1.00829e-07
-4.71729e-08
-9.88513e-08
-5.35405e-08
-9.70586e-08
-5.97766e-08
-9.54436e-08
-6.5897e-08
-9.39984e-08
-7.19167e-08
-9.27156e-08
-7.78513e-08
-9.15885e-08
-8.37154e-08
-9.06107e-08
-8.95221e-08
-8.97762e-08
-9.52848e-08
-8.90796e-08
-1.01017e-07
-8.85157e-08
-1.06731e-07
-8.80795e-08
-1.12441e-07
-8.77666e-08
-1.18158e-07
-8.75725e-08
-1.23896e-07
-8.74933e-08
-1.29667e-07
-8.75259e-08
-1.35482e-07
-8.76676e-08
-1.41356e-07
-8.79168e-08
-1.47299e-07
-8.82731e-08
-1.53326e-07
-8.87376e-08
-1.59449e-07
-8.93135e-08
-1.65683e-07
-9.00061e-08
-1.72043e-07
-9.08235e-08
-1.78546e-07
-9.17801e-08
-1.85204e-07
-9.29004e-08
-1.92018e-07
-9.42209e-08
-1.98981e-07
-9.57881e-08
-2.06116e-07
-9.7622e-08
-2.09784e-07
-9.95015e-08
-1.9698e-07
-1.02556e-07
-2.03713e-07
-1.10456e-07
-2.11214e-07
-1.19133e-07
-2.19451e-07
-1.2874e-07
-2.28577e-07
-1.39544e-07
-2.38729e-07
-1.51812e-07
-2.50083e-07
-1.65819e-07
-2.62853e-07
-1.819e-07
-2.77299e-07
-2.00464e-07
-2.93734e-07
-2.22014e-07
-3.12548e-07
-2.47145e-07
-3.34225e-07
-2.7655e-07
-3.59368e-07
-3.11038e-07
-3.88763e-07
-3.51448e-07
-4.23384e-07
-3.98352e-07
-4.64389e-07
-4.51632e-07
-5.13107e-07
-5.09803e-07
-5.70737e-07
-5.68931e-07
-6.37738e-07
-6.21681e-07
-7.13019e-07
-6.5758e-07
-7.93305e-07
-6.66026e-07
-8.73447e-07
-6.41448e-07
-9.48038e-07
-5.86988e-07
-1.01324e-06
-5.12792e-07
-1.06744e-06
-4.29999e-07
-1.1106e-06
-3.45445e-07
-1.14321e-06
-2.61468e-07
-1.1659e-06
-1.80406e-07
-1.17931e-06
-1.05756e-07
-3.57806e-08
6.57252e-07
-1.33912e-08
6.53104e-07
-4.21073e-08
6.45658e-07
-7.39416e-08
6.34462e-07
-1.09073e-07
6.1916e-07
-1.46622e-07
5.99589e-07
-1.85059e-07
5.7587e-07
-2.22282e-07
5.48462e-07
-2.55733e-07
5.1814e-07
-2.82895e-07
4.85884e-07
-3.01952e-07
4.52722e-07
-3.12221e-07
4.19588e-07
-3.142e-07
3.87224e-07
-3.09282e-07
3.56152e-07
-2.99301e-07
3.26707e-07
-2.86123e-07
2.99004e-07
-2.71311e-07
2.73079e-07
-2.56051e-07
2.48912e-07
-2.41149e-07
2.26416e-07
-2.27064e-07
2.05478e-07
-2.14014e-07
1.85981e-07
-2.02062e-07
1.67804e-07
-1.91182e-07
1.50831e-07
-1.81302e-07
1.34952e-07
-1.7233e-07
1.20068e-07
-1.64171e-07
1.06084e-07
-1.56736e-07
9.29167e-08
-1.49944e-07
8.04898e-08
-1.43723e-07
6.87335e-08
-1.38012e-07
5.75849e-08
-1.32757e-07
4.69869e-08
-1.27912e-07
3.68875e-08
-1.2344e-07
2.72391e-08
-1.19306e-07
1.79983e-08
-1.15481e-07
9.12497e-09
-1.11939e-07
5.82548e-10
-1.08658e-07
-7.6652e-09
-1.05619e-07
-1.56458e-08
-1.02806e-07
-2.338e-08
-1.0021e-07
-3.08885e-08
-9.7821e-08
-3.81901e-08
-9.56242e-08
-4.53031e-08
-9.36116e-08
-5.22451e-08
-9.1775e-08
-5.90328e-08
-9.01068e-08
-6.56826e-08
-8.85995e-08
-7.221e-08
-8.72461e-08
-7.86299e-08
-8.60399e-08
-8.49567e-08
-8.49743e-08
-9.12047e-08
-8.40434e-08
-9.73878e-08
-8.32413e-08
-1.03519e-07
-8.25629e-08
-1.09611e-07
-8.2003e-08
-1.15674e-07
-8.15572e-08
-1.21723e-07
-8.12214e-08
-1.2777e-07
-8.09919e-08
-1.33826e-07
-8.08651e-08
-1.39904e-07
-8.08377e-08
-1.46017e-07
-8.09064e-08
-1.52177e-07
-8.10691e-08
-1.58396e-07
-8.13247e-08
-1.64689e-07
-8.16741e-08
-1.71071e-07
-8.21194e-08
-1.77558e-07
-8.26626e-08
-1.84172e-07
-8.33076e-08
-1.90935e-07
-8.40637e-08
-1.97866e-07
-8.49557e-08
-2.04979e-07
-8.60234e-08
-2.12293e-07
-8.72958e-08
-2.19902e-07
-8.87261e-08
-2.18934e-07
-9.009e-08
-2.08875e-07
-9.36042e-08
-2.16144e-07
-1.01031e-07
-2.24169e-07
-1.09239e-07
-2.32925e-07
-1.18279e-07
-2.42534e-07
-1.2841e-07
-2.53163e-07
-1.39877e-07
-2.6501e-07
-1.52944e-07
-2.78304e-07
-1.67937e-07
-2.93318e-07
-1.85251e-07
-3.10384e-07
-2.05366e-07
-3.29909e-07
-2.28848e-07
-3.524e-07
-2.56352e-07
-3.78491e-07
-2.88647e-07
-4.08989e-07
-3.26491e-07
-4.44879e-07
-3.70344e-07
-4.87306e-07
-4.19943e-07
-5.37475e-07
-4.73625e-07
-5.96329e-07
-5.27332e-07
-6.63958e-07
-5.73836e-07
-7.38803e-07
-6.03351e-07
-8.17227e-07
-6.06675e-07
-8.94142e-07
-5.79961e-07
-9.64683e-07
-5.27339e-07
-1.02572e-06
-4.5854e-07
-1.07616e-06
-3.83356e-07
-1.11619e-06
-3.07355e-07
-1.14635e-06
-2.32195e-07
-1.16728e-06
-1.59843e-07
-1.17965e-06
-9.35126e-08
-3.1628e-08
6.57269e-07
-1.21552e-08
6.53194e-07
-3.81583e-08
6.45901e-07
-6.69327e-08
6.34958e-07
-9.8657e-08
6.20018e-07
-1.32563e-07
6.00911e-07
-1.67319e-07
5.77729e-07
-2.01088e-07
5.50881e-07
-2.31609e-07
5.21083e-07
-2.56621e-07
4.89264e-07
-2.74437e-07
4.56421e-07
-2.84356e-07
4.23478e-07
-2.86732e-07
3.91189e-07
-2.82744e-07
3.60093e-07
-2.74012e-07
3.30535e-07
-2.62216e-07
3.02673e-07
-2.48802e-07
2.76574e-07
-2.34901e-07
2.522e-07
-2.21264e-07
2.29495e-07
-2.08335e-07
2.08342e-07
-1.96336e-07
1.88619e-07
-1.85341e-07
1.70207e-07
-1.75334e-07
1.52987e-07
-1.66252e-07
1.36849e-07
-1.58012e-07
1.21693e-07
-1.50526e-07
1.07425e-07
-1.43713e-07
9.39607e-08
-1.37495e-07
8.12241e-08
-1.31806e-07
6.91464e-08
-1.26588e-07
5.76654e-08
-1.2179e-07
4.67249e-08
-1.1737e-07
3.62742e-08
-1.1329e-07
2.62669e-08
-1.09519e-07
1.66608e-08
-1.0603e-07
7.41731e-09
-1.02798e-07
-1.49969e-09
-9.98018e-08
-1.01244e-08
-9.70239e-08
-1.84817e-08
-9.44519e-08
-2.65908e-08
-9.20776e-08
-3.44717e-08
-8.98891e-08
-4.21422e-08
-8.78747e-08
-4.96199e-08
-8.60262e-08
-5.69217e-08
-8.43364e-08
-6.40639e-08
-8.27982e-08
-7.10621e-08
-8.14048e-08
-7.79315e-08
-8.01495e-08
-8.46867e-08
-7.90264e-08
-9.13415e-08
-7.80296e-08
-9.79093e-08
-7.71536e-08
-1.04403e-07
-7.63934e-08
-1.10836e-07
-7.5744e-08
-1.17222e-07
-7.5201e-08
-1.23571e-07
-7.47599e-08
-1.29896e-07
-7.44161e-08
-1.36206e-07
-7.41659e-08
-1.42513e-07
-7.40056e-08
-1.48828e-07
-7.39322e-08
-1.55162e-07
-7.39432e-08
-1.61525e-07
-7.40365e-08
-1.67931e-07
-7.42107e-08
-1.74388e-07
-7.44657e-08
-1.80909e-07
-7.48023e-08
-1.87506e-07
-7.52218e-08
-1.94195e-07
-7.57247e-08
-2.00993e-07
-7.63163e-08
-2.07919e-07
-7.70194e-08
-2.1498e-07
-7.78778e-08
-2.22166e-07
-7.89348e-08
-2.29478e-07
-8.01132e-08
-2.23986e-07
-8.134e-08
-2.23023e-07
-8.58462e-08
-2.29785e-07
-9.23874e-08
-2.37516e-07
-9.97879e-08
-2.4617e-07
-1.08075e-07
-2.55823e-07
-1.17404e-07
-2.6662e-07
-1.2797e-07
-2.7874e-07
-1.40019e-07
-2.92403e-07
-1.53859e-07
-3.0788e-07
-1.69864e-07
-3.25507e-07
-1.88483e-07
-3.45705e-07
-2.10247e-07
-3.68994e-07
-2.35771e-07
-3.96031e-07
-2.65774e-07
-4.27635e-07
-3.00934e-07
-4.64791e-07
-3.41596e-07
-5.086e-07
-3.87375e-07
-5.60143e-07
-4.36472e-07
-6.20131e-07
-4.84772e-07
-6.88284e-07
-5.25271e-07
-7.62618e-07
-5.48971e-07
-8.39227e-07
-5.48092e-07
-9.13144e-07
-5.20297e-07
-9.80005e-07
-4.70351e-07
-1.03728e-06
-4.07333e-07
-1.08431e-06
-3.39699e-07
-1.12147e-06
-2.71913e-07
-1.14936e-06
-2.05091e-07
-1.16863e-06
-1.40896e-07
-1.17999e-06
-8.22701e-08
-2.78163e-08
6.5728e-07
-1.09281e-08
6.53259e-07
-3.42555e-08
6.46086e-07
-6.0024e-08
6.35345e-07
-8.8406e-08
6.20701e-07
-1.18736e-07
6.01982e-07
-1.49861e-07
5.79254e-07
-1.80193e-07
5.52884e-07
-2.07754e-07
5.23537e-07
-2.30532e-07
4.92092e-07
-2.46985e-07
4.59512e-07
-2.56413e-07
4.26711e-07
-2.59049e-07
3.94455e-07
-2.55878e-07
3.63334e-07
-2.48318e-07
3.33646e-07
-2.37868e-07
3.05626e-07
-2.25857e-07
2.79348e-07
-2.13318e-07
2.54793e-07
-2.00959e-07
2.31882e-07
-1.89205e-07
2.10515e-07
-1.78281e-07
1.90575e-07
-1.68262e-07
1.71942e-07
-1.59141e-07
1.54498e-07
-1.50867e-07
1.3813e-07
-1.43366e-07
1.22736e-07
-1.36558e-07
1.08222e-07
-1.30368e-07
9.45032e-08
-1.24726e-07
8.15032e-08
-1.19568e-07
6.91531e-08
-1.14842e-07
5.73913e-08
-1.105e-07
4.61621e-08
-1.06501e-07
3.54153e-08
-1.02813e-07
2.51056e-08
-9.94042e-08
1.51917e-08
-9.62502e-08
5.63597e-09
-9.33282e-08
-3.59733e-09
-9.06183e-08
-1.25399e-08
-8.81045e-08
-2.1214e-08
-8.57764e-08
-2.96388e-08
-8.3626e-08
-3.78324e-08
-8.16422e-08
-4.58126e-08
-7.98141e-08
-5.35961e-08
-7.81346e-08
-6.11992e-08
-7.65968e-08
-6.86377e-08
-7.51942e-08
-7.59267e-08
-7.39207e-08
-8.30809e-08
-7.27702e-08
-9.01144e-08
-7.17371e-08
-9.70406e-08
-7.08162e-08
-1.03873e-07
-7.00024e-08
-1.10623e-07
-6.92911e-08
-1.17304e-07
-6.86778e-08
-1.23926e-07
-6.81584e-08
-1.30501e-07
-6.77292e-08
-1.3704e-07
-6.73866e-08
-1.43554e-07
-6.7127e-08
-1.50053e-07
-6.69472e-08
-1.56546e-07
-6.68442e-08
-1.63042e-07
-6.68152e-08
-1.69549e-07
-6.68584e-08
-1.76077e-07
-6.69732e-08
-1.82633e-07
-6.71599e-08
-1.89225e-07
-6.74203e-08
-1.95858e-07
-6.77555e-08
-2.02541e-07
-6.81664e-08
-2.09282e-07
-6.86575e-08
-2.16089e-07
-6.92514e-08
-2.22964e-07
-7.00021e-08
-2.29896e-07
-7.09633e-08
-2.36635e-07
-7.20951e-08
-2.30047e-07
-7.34188e-08
-2.34302e-07
-7.82278e-08
-2.4116e-07
-8.40159e-08
-2.48929e-07
-9.0601e-08
-2.57665e-07
-9.80575e-08
-2.67472e-07
-1.06499e-07
-2.78498e-07
-1.16088e-07
-2.90923e-07
-1.27052e-07
-3.0497e-07
-1.39676e-07
-3.20919e-07
-1.54307e-07
-3.39115e-07
-1.71358e-07
-3.59993e-07
-1.91322e-07
-3.84091e-07
-2.1477e-07
-4.12083e-07
-2.42364e-07
-4.44804e-07
-2.747e-07
-4.83225e-07
-3.12021e-07
-5.28397e-07
-3.53834e-07
-5.81268e-07
-3.98252e-07
-6.42297e-07
-4.41184e-07
-7.10828e-07
-4.75966e-07
-7.84483e-07
-4.94482e-07
-8.59163e-07
-4.90334e-07
-9.30116e-07
-4.62442e-07
-9.93509e-07
-4.15876e-07
-1.04737e-06
-3.58897e-07
-1.09137e-06
-2.98692e-07
-1.12602e-06
-2.38781e-07
-1.15194e-06
-1.79863e-07
-1.16979e-06
-1.23339e-07
-1.18028e-06
-7.18848e-08
-2.42917e-08
6.57288e-07
-9.70756e-09
6.5331e-07
-3.03875e-08
6.46232e-07
-5.31933e-08
6.35658e-07
-7.82862e-08
6.21263e-07
-1.05095e-07
6.02873e-07
-1.32635e-07
5.80536e-07
-1.59545e-07
5.54583e-07
-1.84117e-07
5.25633e-07
-2.04588e-07
4.94523e-07
-2.19569e-07
4.62184e-07
-2.28384e-07
4.29516e-07
-2.31165e-07
3.97279e-07
-2.28723e-07
3.66041e-07
-2.22273e-07
3.36223e-07
-2.13124e-07
3.08037e-07
-2.02487e-07
2.8157e-07
-1.91302e-07
2.56827e-07
-1.80227e-07
2.33721e-07
-1.6967e-07
2.12153e-07
-1.59841e-07
1.9201e-07
-1.50821e-07
1.73174e-07
-1.42608e-07
1.55526e-07
-1.35158e-07
1.38952e-07
-1.28409e-07
1.23349e-07
-1.2229e-07
1.08621e-07
-1.1673e-07
9.46832e-08
-1.11668e-07
8.14576e-08
-1.07045e-07
6.88756e-08
-1.02813e-07
5.68755e-08
-9.89276e-08
4.54018e-08
-9.53522e-08
3.4405e-08
-9.20554e-08
2.38402e-08
-8.90098e-08
1.36669e-08
-8.61919e-08
3.84843e-09
-8.35813e-08
-5.65078e-09
-8.11593e-08
-1.486e-08
-7.89121e-08
-2.37997e-08
-7.68305e-08
-3.24884e-08
-7.49072e-08
-4.09435e-08
-7.31316e-08
-4.91821e-08
-7.1494e-08
-5.72205e-08
-6.99877e-08
-6.50744e-08
-6.86067e-08
-7.27589e-08
-6.73451e-08
-8.02889e-08
-6.61971e-08
-8.76783e-08
-6.51576e-08
-9.49408e-08
-6.42214e-08
-1.0209e-07
-6.33838e-08
-1.09137e-07
-6.26403e-08
-1.16096e-07
-6.19869e-08
-1.22977e-07
-6.14195e-08
-1.29791e-07
-6.09343e-08
-1.3655e-07
-6.05281e-08
-1.43262e-07
-6.01974e-08
-1.49938e-07
-5.99393e-08
-1.56586e-07
-5.97511e-08
-1.63217e-07
-5.96303e-08
-1.69837e-07
-5.95748e-08
-1.76455e-07