/*--------------------------------*- C++ -*----------------------------------*\
  =========                 |
  \\      /  F ield         | OpenFOAM: The Open Source CFD Toolbox
   \\    /   O peration     | Website:  https://openfoam.org
    \\  /    A nd           | Version:  8
     \\/     M anipulation  |
\*---------------------------------------------------------------------------*/
FoamFile
{
    version     2.0;
    format      ascii;
    class       volScalarField;
    location    "40/fluid";
    object      Qdot;
}
// * * * * * * * * * * * * * * * * * * * * * * * * * * * * * * * * * * * * * //

dimensions      [1 -1 -3 0 0 0 0];

internalField   nonuniform List<scalar> 
4000
(
-6.30635e-16
0
-3.10739e-07
0
-1.9393e-18
0
7.97097e-11
-3.6149e-17
-2.49154e-16
8.92607e-10
6.70951e-09
5.24802e-08
3.73011e-07
2.1265e-06
1.43514e-05
8.13013e-05
0.000416513
0.00193119
0.00809677
0.0308003
0.106777
0.339103
0.993877
2.6976
6.81957
16.14
35.9339
75.5915
150.846
286.579
519.974
903.502
1506.91
2417
3733.96
5563.26
8003.67
11132.8
14993.4
19696.5
25428.2
32229.8
40250
49658.6
60713.2
73756.1
89234.5
107717
129922
156736
189229
228753
276904
335729
407653
495798
603911
736790
900289
1.10188e+06
1.35081e+06
1.65896e+06
2.04127e+06
2.5169e+06
3.11046e+06
3.85393e+06
4.78934e+06
5.97317e+06
7.48413e+06
9.43309e+06
1.66349e+07
1.64047e+08
1.44337e+08
2.00601e+07
1.45821e+07
1.18366e+07
9.47501e+06
7.46781e+06
5.78435e+06
4.39326e+06
3.26352e+06
2.36564e+06
1.67245e+06
1.16036e+06
803618
380211
80277.5
7294.5
348.237
9.75406
0.178564
0.0027009
4.80928e-05
1.43619e-06
8.8746e-08
1.09832e-08
2.28717e-09
6.62142e-10
1.87478e-10
2.94654e-11
-4.14178e-13
0
0
-1.25548e-14
-2.68776e-14
3.75446e-11
-4.3032e-18
-2.22795e-17
-1.26755e-13
8.78351e-10
4.80187e-09
3.1711e-08
2.29915e-07
1.21542e-06
9.37104e-06
5.55811e-05
0.0002966
0.00143199
0.00624118
0.0246155
0.0882039
0.289439
0.869512
2.41314
6.22105
14.9818
33.8704
72.208
145.711
279.464
511.147
894.139
1499.5
2415.57
3743.69
5588.1
8042.7
11175.7
15051.3
19810.3
25583.9
32437.5
40530.3
50048.2
61261
74530.2
90325.8
109240
132022
159590
193077
233878
283704
344667
419378
511087
623841
762692
933944
1.14552e+06
1.40742e+06
1.73215e+06
2.13574e+06
2.63878e+06
3.26765e+06
4.05656e+06
5.05035e+06
6.30894e+06
7.91502e+06
9.98116e+06
2.15811e+07
1.87436e+08
9.55385e+07
1.81564e+07
1.43966e+07
1.15613e+07
9.16518e+06
7.15767e+06
5.4942e+06
4.13465e+06
3.04249e+06
2.18444e+06
1.5307e+06
1.05608e+06
717864
272170
48735
3591.24
142.799
3.37589
0.0549918
0.000824993
1.67381e-05
6.3358e-07
5.03712e-08
7.67726e-09
1.74286e-09
5.16826e-10
1.49187e-10
2.51834e-11
0
0
0
1.23056e-14
-1.40082e-11
0
-7.66005e-11
-2.87726e-10
-1.23253e-13
4.12309e-07
3.19581e-09
2.0711e-08
3.41174e-07
1.02048e-06
6.11416e-06
3.68247e-05
0.000201744
0.00100614
0.0045378
0.0185322
0.0688915
0.232719
0.720883
2.05904
5.45395
13.4554
31.0428
67.3365
138.055
268.547
497.312
879.33
1488.15
2415.15
3764.22
5639.64
8130.69
11289.2
15213.1
20076.8
25935.7
32896.9
41134.1
50856.7
62359.1
76037.6
92394.2
112065
135854
164748
199975
243044
295822
360624
440325
538498
659604
809227
994439
1.22414e+06
1.50959e+06
1.86511e+06
2.30886e+06
2.8641e+06
3.5606e+06
4.43649e+06
5.54065e+06
6.93573e+06
8.70165e+06
1.09353e+07
3.58826e+07
2.30159e+08
5.0194e+07
1.68871e+07
1.36481e+07
1.08875e+07
8.56274e+06
6.62851e+06
5.04011e+06
3.75534e+06
2.73519e+06
1.94422e+06
1.35111e+06
929858
597661
187528
26321
1681.03
61.1426
1.39111
0.0234927
0.000395992
9.48569e-06
4.2284e-07
3.79492e-08
6.35877e-09
1.57558e-09
4.65477e-10
1.4024e-10
2.30452e-11
2.66717e-07
-3.27347e-13
7.48926e-12
0
0
2.90991e-11
-4.08384e-18
-1.26697e-17
1.57923e-10
2.587e-10
1.71721e-09
1.34882e-08
2.87168e-07
8.5387e-07
4.05534e-06
2.46527e-05
0.000139084
0.000712601
0.00331135
0.0139529
0.0533814
0.186154
0.594778
1.74858
4.74594
11.9632
28.1856
62.3544
130.1
257.033
482.536
863.388
1475.98
2415.31
3787.71
5697.35
8225.65
11429.6
15436.2
20397
26360.5
33452.2
41866.8
51840.3
63695.6
77862.2
94883.8
115450
140432
170905
208203
253982
310292
379694
465381
571355
702643
865618
1.0683e+06
1.32089e+06
1.63636e+06
2.03132e+06
2.52709e+06
3.1511e+06
3.93874e+06
4.93571e+06
6.20086e+06
7.80983e+06
9.85789e+06
1.24327e+07
7.13021e+07
2.69472e+08
2.89693e+07
1.57815e+07
1.27337e+07
1.01011e+07
7.87959e+06
6.04044e+06
4.54424e+06
3.34868e+06
2.41267e+06
1.69846e+06
1.17304e+06
809127
461558
120018
13514
757.331
24.9833
0.534615
0.00903486
0.000165211
4.61274e-06
2.46635e-07
2.61282e-08
4.86587e-09
1.28258e-09
4.18341e-10
1.26861e-10
1.85443e-11
-7.46174e-13
1.74448e-12
0
0
0
0
-7.28409e-11
-1.2324e-17
-1.53538e-10
-3.90233e-07
1.42136e-09
8.7614e-09
6.56654e-08
4.49001e-07
2.64253e-06
1.69248e-05
9.76728e-05
0.000512986
0.00245123
0.0106502
0.0419719
0.150808
0.494688
1.48907
4.14014
10.6844
25.7197
58.0258
123.238
247.392
471.076
853.438
1474.62
2434.37
3842.48
5803.02
8387.11
11670.7
15809.2
20895.2
27003
34268.3
42899.4
53156.8
65399.6
80084.2
97796.9
119293
145519
177643
217123
265771
325847
400174
492300
606684
748962
926274
1.14771e+06
1.42486e+06
1.77262e+06
2.21019e+06
2.76248e+06
3.46203e+06
4.35164e+06
5.48812e+06
6.94737e+06
8.83165e+06
1.12626e+07
1.4423e+07
1.34718e+08
1.91438e+08
2.15585e+07
1.55938e+07
1.22801e+07
9.5537e+06
7.33096e+06
5.53862e+06
4.11171e+06
2.99301e+06
2.13266e+06
1.48789e+06
1.0233e+06
705957
341403
73010.9
6832.38
342.861
10.4566
0.216459
0.00379193
7.75511e-05
2.54884e-06
1.61921e-07
1.97253e-08
4.01952e-09
1.08244e-09
3.50227e-10
1.0668e-10
1.86379e-11
0
-1.7338e-12
0
3.12756e-07
8.89308e-19
3.41683e-11
-3.8814e-18
-1.20007e-17
3.77456e-07
-2.86908e-16
1.083e-09
5.80202e-09
4.67052e-08
3.11066e-07
1.89981e-06
1.19074e-05
6.99862e-05
0.000375886
0.00184846
0.00825338
0.0334252
0.123094
0.414392
1.28034
3.64749
9.6282
23.6653
54.4199
117.602
239.796
463.016
849.128
1482.45
2467.7
3920.13
5942.67
8593.22
11977.8
16283.5
21523.8
27807.3
35286.2
44176.9
54762.7
67433
82705.5
101194
123713
151290
185192
227005
278710
342779
422315
521217
644407
798110
990233
1.23085e+06
1.53283e+06
1.91272e+06
2.39185e+06
2.9978e+06
3.76634e+06
4.74425e+06
5.99306e+06
7.59523e+06
9.66353e+06
1.23264e+07
2.00571e+07
1.98225e+08
8.09107e+07
1.93462e+07
1.5039e+07
1.16183e+07
8.8946e+06
6.7314e+06
5.02389e+06
3.68879e+06
2.65864e+06
1.87823e+06
1.30249e+06
895734
609800
232376
43323.2
3478.51
157.939
4.47775
0.09007
0.00163822
3.7354e-05
1.43481e-06
1.06647e-07
1.47639e-08
3.16872e-09
1.0123e-09
3.20057e-10
9.35505e-11
2.16267e-11
0
-1.39939e-12
0
6.20183e-12
2.90039e-11
-2.5402e-14
-3.78384e-18
1.29255e-10
-3.66618e-07
-2.14785e-16
7.6103e-10
4.59641e-09
3.2237e-08
2.18053e-07
1.45945e-06
8.68602e-06
5.09356e-05
0.000280343
0.00141145
0.00645375
0.0268455
0.101674
0.351552
1.114
3.24973
8.76947
21.9979
51.5388
113.287
234.581
459.234
852.508
1504.02
2524.71
4034.54
6134.46
8888.94
12425.6
16901.9
22337.5
28842.1
36582.5
45783.1
56752.7
69913.1
85818
105178
128823
157853
193650
237942
292881
361160
446162
552147
684492
850000
1.0573e+06
1.31736e+06
1.64416e+06
2.05556e+06
2.57445e+06
3.23005e+06
4.05932e+06
5.11067e+06
6.44877e+06
8.15379e+06
1.0328e+07
1.30723e+07
3.86612e+07
2.51573e+08
3.65049e+07
1.74425e+07
1.36419e+07
1.05517e+07
8.06298e+06
6.07881e+06
4.51416e+06
3.29587e+06
2.36185e+06
1.66012e+06
1.14801e+06
792057
515263
167358
25336.6
1792.52
74.374
1.97837
0.0391421
0.000748962
1.92017e-05
8.61205e-07
7.39536e-08
1.158e-08
2.83146e-09
8.28333e-10
2.82722e-10
9.32483e-11
1.57772e-11
0
1.39109e-12
0
0
1.27738e-11
3.30292e-07
-3.41593e-07
-5.27117e-14
-3.0723e-17
-1.69627e-16
2.80668e-10
3.55281e-09
2.34111e-08
1.55414e-07
8.8662e-07
6.31155e-06
3.78294e-05
0.00021185
0.0010908
0.00512194
0.021887
0.0851301
0.302027
0.980795
2.92778
8.07173
20.6521
49.272
110.112
231.451
459.247
862.729
1537.68
2601.78
4180.27
6369.78
9246.56
12968
17647
23315.6
30085.5
38130.2
47685.7
59087.9
72792
89393.5
109635
134498
165124
202967
249906
308275
380998
471759
585205
727206
905192
1.12859e+06
1.40936e+06
1.76275e+06
2.20807e+06
2.77005e+06
3.48053e+06
4.38082e+06
5.52555e+06
6.98026e+06
8.83105e+06
1.11848e+07
1.41281e+07
7.68496e+07
2.65031e+08
2.37322e+07
1.57946e+07
1.24239e+07
9.6285e+06
7.35367e+06
5.53151e+06
4.09367e+06
2.97665e+06
2.12414e+06
1.48793e+06
1.02818e+06
713492
427226
118797
14970.5
947.556
36.1132
0.906469
0.017766
0.000359676
1.03728e-05
5.39255e-07
5.32069e-08
9.02408e-09
2.32975e-09
7.35491e-10
2.61268e-10
7.7832e-11
1.43364e-11
-2.22793e-20
-1.70289e-12
-2.89038e-12
-6.0264e-12
1.17176e-14
0
5.35859e-11
-3.67557e-18
-2.23377e-17
-1.2687e-16
3.4325e-07
2.46679e-09
1.69638e-08
1.12296e-07
9.12372e-07
4.53366e-06
2.81666e-05
0.000161467
0.000852528
0.00411168
0.018051
0.0720908
0.262352
0.872729
2.66465
7.5019
19.5688
47.5222
107.932
230.214
462.824
879.514
1582.8
2699.84
4360.34
6652.03
9670.64
13613.5
18526.7
24462.3
31532.6
39921.3
49872.9
61748.8
76037.5
93371.5
114546
140574
172777
212701
262322
324139
401299
497818
618747
770467
961039
1.20071e+06
1.50257e+06
1.88335e+06
2.36531e+06
2.97627e+06
3.75236e+06
4.74076e+06
6.0006e+06
7.61126e+06
9.67716e+06
1.23019e+07
1.56588e+07
1.37995e+08
2.02282e+08
2.05968e+07
1.53328e+07
1.19149e+07
9.14514e+06
6.92738e+06
5.17302e+06
3.80301e+06
2.74853e+06
1.95094e+06
1.36133e+06
940243
655344
348100
83830.9
9005.8
514.924
18.1008
0.431214
0.00843656
0.000181927
5.9094e-06
3.53503e-07
3.97265e-08
7.39215e-09
2.07153e-09
6.72443e-10
2.31695e-10
7.70133e-11
1.2885e-11
2.22381e-20
1.69305e-12
2.86174e-12
-1.32431e-11
1.15025e-14
0
-1.75035e-18
6.53943e-11
-2.16334e-17
3.34249e-07
4.74979e-10
3.26689e-07
1.18106e-08
8.23092e-08
4.1046e-07
3.40434e-06
2.11296e-05
0.000124465
0.000673957
0.00333715
0.0150441
0.0616683
0.230115
0.783838
2.44683
7.03148
18.6917
46.1852
106.565
230.578
469.551
902.457
1639.78
2817.58
4569.81
6975.13
10157
14346
19520.7
25753.3
33158.6
41922.2
52304.1
64688.9
79597.2
97695.2
119829
147069
180752
222619
274800
339998
421505
523567
651568
812349
1.01464e+06
1.26992e+06
1.59255e+06
2.00104e+06
2.51862e+06
3.17603e+06
4.013e+06
5.08123e+06
6.44842e+06
8.20447e+06
1.04689e+07
1.3352e+07
1.71436e+07
2.01328e+08
1.08338e+08
1.9751e+07
1.52194e+07
1.16434e+07
8.82634e+06
6.61821e+06
4.90013e+06
3.57618e+06
2.56847e+06
1.81383e+06
1.26145e+06
871527
606730
279750
58919.1
5519.43
287.38
9.36231
0.212991
0.00418945
9.67143e-05
3.53696e-06
2.42702e-07
3.10246e-08
6.31563e-09
1.85243e-09
5.84568e-10
2.24993e-10
6.66893e-11
1.21889e-11
3.09262e-16
0
0
2.91046e-07
0
0
-1.70405e-18
-1.1502e-10
4.85791e-14
-3.22716e-07
4.57782e-10
1.39277e-09
9.61301e-09
6.12784e-08
4.14158e-07
2.49152e-06
1.61102e-05
9.7092e-05
0.000538545
0.00273574
0.012658
0.0532317
0.203578
0.709754
2.26421
6.63889
17.9782
45.1843
105.891
232.392
479.339
931.718
1708.89
2956.17
4809.22
7348.36
10726.4
15158.6
20618.1
27171.9
34940.5
44105.3
54943.3
67861.7
83413.1
102296
125406
153877
189120
232915
287487
355620
440951
547965
682378
851483
1.06462e+06
1.33338e+06
1.67294e+06
2.10268e+06
2.64749e+06
3.33951e+06
4.22029e+06
5.34369e+06
6.77973e+06
8.62024e+06
1.09829e+07
1.39783e+07
2.11396e+07
2.44159e+08
5.27613e+07
1.89633e+07
1.45457e+07
1.1074e+07
8.35428e+06
6.23527e+06
4.59649e+06
3.34111e+06
2.39115e+06
1.68404e+06
1.17005e+06
810857
559518
217095
41593.5
3459.3
165.056
5.0053
0.109339
0.00217508
5.3954e-05
2.215e-06
1.71842e-07
2.43126e-08
5.43336e-09
1.58018e-09
5.63623e-10
2.09763e-10
6.73494e-11
7.14204e-12
0
-1.67374e-12
2.80559e-12
0
0
0
2.31022e-14
-4.67705e-14
-1.01138e-17
-6.71355e-17
-3.37969e-16
8.62402e-10
7.17297e-09
4.57938e-08
1.74219e-07
1.96215e-06
1.24908e-05
7.64634e-05
0.000434124
0.00226263
0.0107415
0.0463229
0.181481
0.647266
2.10909
6.30646
17.3887
44.4317
105.715
235.223
491.247
965.365
1786.66
3109.85
5068
7744.11
11333.8
16022.1
21780
28671.3
36822.3
46413.2
57721.8
71191.8
87400.9
107080
131168
160841
197574
243217
300097
371143
460057
571513
711431
887327
1.10875e+06
1.38786e+06
1.74019e+06
2.1856e+06
2.74955e+06
3.46472e+06
4.37316e+06
5.52888e+06
7.00145e+06
8.88079e+06
1.12792e+07
1.42976e+07
3.03982e+07
2.72653e+08
2.919e+07
1.74558e+07
1.34436e+07
1.02596e+07
7.74929e+06
5.78597e+06
4.26463e+06
3.09852e+06
2.21659e+06
1.56118e+06
1.08632e+06
756701
510954
178949
29485.4
2212.86
97.3967
2.76314
0.0583145
0.00118006
3.1531e-05
1.45017e-06
1.26664e-07
1.97394e-08
4.71039e-09
1.50521e-09
5.19859e-10
1.99102e-10
6.4119e-11
1.22522e-11
7.35023e-13
-3.01829e-12
-6.19223e-12
0
0
0
-5.91036e-11
-4.8482e-11
-4.53554e-14
-5.17052e-17
-2.67349e-16
8.27053e-10
-2.74981e-07
-2.37389e-07
3.64652e-07
1.4756e-06
9.62713e-06
6.06259e-05
0.000352688
0.00188516
0.00918015
0.0405866
0.162821
0.593794
1.97531
6.02038
16.894
43.8688
105.927
238.893
505.009
1002.99
1872.11
3275.42
5335.99
8142.38
11952.7
16899.1
22956.9
30189.5
38718.5
48730.4
60527
74566.2
91443.5
111924
136982
167835
206006
253409
312436
386102
478207
593545
738186
919822
1.14822e+06
1.43579e+06
1.79835e+06
2.2561e+06
2.83483e+06
3.56762e+06
4.49691e+06
5.67715e+06
7.1783e+06
9.09066e+06
1.15234e+07
1.45824e+07
4.33578e+07
2.83183e+08
2.04074e+07
1.59151e+07
1.23009e+07
9.414e+06
7.12656e+06
5.33067e+06
3.93501e+06
2.863e+06
2.05119e+06
1.44774e+06
1.01116e+06
709682
464851
147498
21258
1454.46
59.2204
1.57803
0.0323172
0.00066885
1.92814e-05
9.88857e-07
9.65154e-08
1.63077e-08
4.15297e-09
1.35087e-09
4.68573e-10
1.81791e-10
5.92499e-11
1.0425e-11
0
1.34638e-12
3.3806e-12
6.89012e-12
0
0
-5.74535e-11
-5.76353e-11
1.14987e-10
-4.34927e-17
2.2369e-10
7.91512e-10
3.83751e-09
2.66623e-08
1.7945e-07
1.11781e-06
7.634e-06
4.86778e-05
0.000289723
0.00158585
0.00791413
0.0358327
0.14706
0.547904
1.85921
5.7713
16.4702
43.4354
106.382
243.059
519.89
1043.12
1962.33
3446.19
5595.21
8510.38
12541.1
17733.2
24077.2
31639.5
40529.7
50944.5
63234
77846.9
95392.8
116668
142681
174680
214236
263308
324350
400447
495480
614344
763229
949968
1.18449e+06
1.47943e+06
1.85082e+06
2.31914e+06
2.91053e+06
3.65848e+06
4.60593e+06
5.80803e+06
7.33569e+06
9.2806e+06
1.17494e+07
1.48576e+07
6.00311e+07
2.71945e+08
1.88567e+07
1.4726e+07
1.1397e+07
8.73286e+06
6.61869e+06
4.9567e+06
3.66365e+06
2.66951e+06
1.91617e+06
1.35615e+06
951685
673821
425441
122784
15696.7
986.331
37.277
0.935438
0.0186794
0.000396172
1.23226e-05
7.0086e-07
7.58185e-08
1.38348e-08
3.72581e-09
1.27449e-09
4.57927e-10
1.71812e-10
5.77436e-11
1.04444e-11
0
0
0
0
0
0
1.52309e-18
-3.04443e-18
4.21157e-14
-1.77847e-10
-1.6942e-16
4.1674e-10
3.25399e-09
2.03669e-08
1.40779e-07
8.55792e-07
6.07329e-06
3.93588e-05
0.000240037
0.00134533
0.0068761
0.0318594
0.133647
0.508219
1.75748
5.55132
16.0976
43.0802
106.943
247.375
535.035
1083.72
2052.54
3610.55
5815.22
8795.61
13034.7
18441.6
25042.3
32908
42145
52968.2
65720.8
80870
99056.1
121100
148030
181131
222008
272662
335599
413963
511705
633802
786543
977874
1.21786e+06
1.51929e+06
1.89839e+06
2.37584e+06
2.97805e+06
3.73878e+06
4.70131e+06
5.92111e+06
7.4693e+06
9.43738e+06
1.19264e+07
1.50552e+07
7.87478e+07
2.55557e+08
1.7684e+07
1.38227e+07
1.07065e+07
8.21063e+06
6.22885e+06
4.67006e+06
3.45655e+06
2.52298e+06
1.81515e+06
1.2889e+06
909017
648416
389750
103568
11906.2
691.441
24.3379
0.577336
0.0112733
0.000245864
8.23875e-06
5.16755e-07
6.12563e-08
1.19438e-08
3.40358e-09
1.18789e-09
4.27928e-10
1.60892e-10
5.45938e-11
9.3605e-12
0
0
-6.00791e-12
5.44455e-12
-1.09721e-11
0
0
5.38704e-11
-5.8181e-18
-2.85818e-17
-7.78895e-14
-2.50095e-07
2.46947e-09
1.6051e-08
1.10298e-07
6.64428e-07
5.03416e-06
3.2402e-05
0.000201551
0.00115564
0.0060364
0.0285793
0.122353
0.474191
1.66882
5.35689
15.7651
42.767
107.499
251.519
549.584
1122.6
2136.95
3751.97
6110.93
9257.55
13338.3
18903.5
25707.7
33812.2
43337.3
54506.4
67676.4
83323.3
102103
124858
152638
186754
228845
280945
345605
426017
526189
651163
807300
1.00263e+06
1.2473e+06
1.55419e+06
1.93964e+06
2.42441e+06
3.035e+06
3.80522e+06
4.77838e+06
6.00993e+06
7.57088e+06
9.55242e+06
1.20503e+07
1.51893e+07
9.85648e+07
2.38374e+08
1.68975e+07
1.32047e+07
1.0227e+07
7.84424e+06
5.95397e+06
4.46803e+06
3.3114e+06
2.4212e+06
1.74583e+06
1.24344e+06
880975
632882
358973
89182.9
9327.5
503.259
16.5599
0.372908
0.00714871
0.000160407
5.76816e-06
3.95734e-07
5.08194e-08
1.05975e-08
3.14126e-09
1.07112e-09
4.10662e-10
1.59688e-10
5.14643e-11
9.37372e-12
0
8.87748e-20
-2.65308e-07
-5.01839e-15
1.00631e-14
0
0
-2.84048e-18
1.85794e-10
-2.18774e-17
-1.1704e-16
6.84356e-10
2.34076e-09
1.26517e-08
8.77327e-08
7.27198e-07
4.10338e-06
2.70687e-05
0.000171764
0.00100565
0.0053632
0.0258964
0.112948
0.445337
1.59225
5.18556
15.4641
42.4623
107.928
255.096
562.381
1156.55
2206.63
3918.82
6459.43
9826.47
13809.3
18963.2
25881.7
34137
43861.7
55288.5
68774.5
84836.2
104113
127462
155952
190918
234019
287323
353412
435514
537678
664994
823867
1.02237e+06
1.27071e+06
1.58178e+06
1.97193e+06
2.46192e+06
3.07815e+06
3.8543e+06
4.83337e+06
6.07035e+06
7.63551e+06
9.61885e+06
1.21099e+07
1.52368e+07
1.17359e+08
2.21314e+08
1.63401e+07
1.27691e+07
9.89037e+06
7.58811e+06
5.76258e+06
4.32784e+06
3.21098e+06
2.35137e+06
1.69909e+06
1.21384e+06
863912
624341
342474
78640.5
7575.99
382.1
11.8113
0.25363
0.00478744
0.000110455
4.23433e-06
3.14393e-07
4.34499e-08
9.58658e-09
2.88544e-09
1.05321e-09
3.9357e-10
1.52476e-10
5.41472e-11
1.36655e-11
3.26787e-13
2.93353e-12
0
0
2.6231e-07
-9.80152e-15
0
5.02011e-11
-2.48476e-07
-2.61153e-17
-1.50791e-10
6.74331e-14
1.5888e-09
1.07313e-08
7.28904e-08
4.26111e-07
3.52627e-06
2.33282e-05
0.000149784
0.000891932
0.00484244
0.0237824
0.105397
0.421739
1.52833
5.03879
15.1953
42.1522
108.144
257.761
572.288
1182.12
2278.47
4082.85
6764.27
10328.6
14551.3
19054
25354.8
33643.5
43446
55003.9
68674.3
84964.2
104553
128286
157241
192766
236534
290630
357656
440860
544314
673127
833719
1.03417e+06
1.28468e+06
1.59811e+06
1.99074e+06
2.48321e+06
3.10168e+06
3.87949e+06
4.85909e+06
6.09468e+06
7.65541e+06
9.62959e+06
1.21007e+07
1.51991e+07
1.33407e+08
2.06778e+08
1.5901e+07
1.24285e+07
9.62977e+06
7.39206e+06
5.61802e+06
4.22371e+06
3.13805e+06
2.30195e+06
1.66702e+06
1.19424e+06
853037
618658
328695
71027.5
6395.84
304.138
8.89484
0.183183
0.00341297
8.07164e-05
3.27376e-06
2.59689e-07
3.79708e-08
8.8679e-09
2.72872e-09
9.87504e-10
3.75884e-10
1.46158e-10
4.96522e-11
9.0242e-12
7.27115e-13
0
-2.6002e-07
0
0
9.55247e-15
-1.87882e-14
-2.4449e-07
-2.38096e-07
-2.30456e-07
-8.15727e-17
6.12488e-10
1.75853e-09
8.95327e-09
6.33953e-08
4.53565e-07
2.99322e-06
2.06563e-05
0.000134448
0.000812214
0.00447072
0.0222536
0.0998491
0.404085
1.47949
4.92342
14.9735
41.8575
108.139
259.333
578.432
1204.42
2336.15
4205.46
6993.79
10710
15120.5
19832.6
24465.2
32085.3
41799.8
53294.5
66928.5
83207.4
102806
126580
155602
191218
235101
289334
356518
439899
543540
672535
833280
1.03381e+06
1.28426e+06
1.59739e+06
1.98931e+06
2.4804e+06
3.09649e+06
3.87035e+06
4.84362e+06
6.06933e+06
7.615e+06
9.56657e+06
1.20023e+07
1.5051e+07
1.44692e+08
1.96778e+08
1.54999e+07
1.21227e+07
9.39893e+06
7.22006e+06
5.4919e+06
4.13299e+06
3.07432e+06
2.25848e+06
1.63847e+06
1.17636e+06
842423
612131
318404
65995.7
5649.92
256.285
7.16562
0.142638
0.00262966
6.34396e-05
2.68957e-06
2.24956e-07
3.42586e-08
8.07683e-09
2.66325e-09
9.64422e-10
3.59719e-10
1.38186e-10
4.65299e-11
7.56322e-12
-2.58878e-07
2.58603e-07
0
5.13491e-12
2.51845e-07
1.99039e-11
0
-8.43569e-11
-4.91271e-18
-2.19054e-07
1.66271e-10
5.76362e-10
1.64844e-09
8.36491e-09
2.30657e-07
4.16836e-07
2.69411e-06
1.91425e-05
0.000126514
0.000769865
0.00427108
0.0214174
0.0967678
0.394115
1.45131
4.85475
14.8339
41.6435
107.992
259.78
582.264
1216.6
2366.58
4270.84
7117.14
10916.7
15431.8
20263.7
25026.3
29505.3
38681.9
49851.6
63145.1
79063
98262.1
121584
150090
185105
228280
281675
347855
430028
532204
659411
817958
1.01577e+06
1.26283e+06
1.5717e+06
1.95823e+06
2.44244e+06
3.04965e+06
3.81191e+06
4.76989e+06
5.97524e+06
7.49352e+06
9.40784e+06
1.17923e+07
1.47704e+07
1.5032e+08
1.92269e+08
1.50737e+07
1.17951e+07
9.14831e+06
7.02967e+06
5.34847e+06
4.02607e+06
2.99565e+06
2.2015e+06
1.59791e+06
1.14795e+06
822574
597828
310594
63349
5288.34
233.486
6.3607
0.124157
0.0022744
5.54639e-05
2.41058e-06
2.07049e-07
3.27931e-08
8.08351e-09
2.50416e-09
9.25182e-10
3.66318e-10
1.43302e-10
4.77461e-11
8.6543e-12
7.25804e-13
-1.21579e-15
2.57395e-07
6.3111e-12
1.01266e-11
2.47398e-07
0
0
-4.91291e-18
-3.29766e-14
1.35294e-10
5.76476e-10
1.64863e-09
8.36609e-09
5.8628e-08
4.17859e-07
2.70105e-06
1.92659e-05
0.000126737
0.000771394
0.00427817
0.0214477
0.0968828
0.394498
1.45242
4.8576
14.8402
41.6553
108.01
259.799
582.267
1216.55
2366.45
4270.57
7116.75
10916.2
15431.3
20263.2
25025.7
29504.3
38695.3
49865.4
63159.1
79076.6
98274.7
121595
150098
185109
228280
281668
347841
430003
532165
659354
817877
1.01566e+06
1.26267e+06
1.57148e+06
1.95793e+06
2.44202e+06
3.04905e+06
3.81106e+06
4.7687e+06
5.97356e+06
7.49112e+06
9.40441e+06
1.17877e+07
1.4764e+07
1.49618e+08
1.92979e+08
1.50676e+07
1.17909e+07
9.14594e+06
7.02851e+06
5.34789e+06
4.02568e+06
2.99529e+06
2.20113e+06
1.59754e+06
1.1476e+06
822258
597563
310524
63334.3
5286.08
233.329
6.35563
0.124067
0.0022733
5.54559e-05
2.41049e-06
2.07308e-07
3.27802e-08
7.98579e-09
2.54403e-09
9.38208e-10
3.65586e-10
1.42566e-10
4.70952e-11
1.32756e-11
0
-2.60086e-07
-3.21566e-12
0
-2.57055e-07
0
0
-2.44454e-07
-7.66157e-11
-1.99103e-17
-1.75812e-10
2.74822e-10
1.75891e-09
8.95563e-09
6.40032e-08
4.56773e-07
3.01073e-06
2.06332e-05
0.000135277
0.000816323
0.00449034
0.0223362
0.100168
0.405169
1.48268
4.93165
14.9921
41.8947
108.203
259.424
578.533
1204.44
2335.98
4204.96
6992.81
10708.6
15118.5
19830.1
24462
32106.7
41821.9
53316.7
66950.4
83230.1
102828
126595
155609
191213
235081
289295
356455
439806
543407
672351
833026
1.03347e+06
1.28379e+06
1.59675e+06
1.98843e+06
2.4792e+06
3.09483e+06
3.86803e+06
4.84038e+06
6.06478e+06
7.60853e+06
9.55735e+06
1.19897e+07
1.50338e+07
1.42697e+08
1.98793e+08
1.54868e+07
1.21137e+07
9.39448e+06
7.21857e+06
5.49165e+06
4.13292e+06
3.074e+06
2.25787e+06
1.63768e+06
1.17554e+06
841650
611463
318315
66007.5
5651.84
256.374
7.16962
0.142771
0.00263262
6.35028e-05
2.69158e-06
2.25078e-07
3.44321e-08
8.17253e-09
2.62207e-09
9.68641e-10
3.71366e-10
1.38208e-10
4.79942e-11
8.29833e-12
3.26784e-13
-2.61578e-07
-2.62659e-07
-2.62937e-07
2.35319e-11
9.80102e-15
-1.93907e-14
-5.02036e-11
-5.3645e-18
-3.64092e-14
-1.85441e-10
6.48539e-10
1.58913e-09
1.0734e-08
7.40512e-08
6.2257e-07
3.38052e-06
2.357e-05
0.000151142
0.000899024
0.00487517
0.0239242
0.105928
0.42346
1.53326
5.05138
15.2238
42.209
108.242
257.903
572.441
1182.2
2278.24
4081.84
6762.2
10325.4
14547.1
19048.7
25369.6
33658.9
43460.2
55014.3
68676.4
84965.9
104541
128259
157198
192703
236447
290511
357497
440650
544039
672767
833248
1.03356e+06
1.28387e+06
1.59704e+06
1.98933e+06
2.48131e+06
3.09912e+06
3.876e+06
4.85431e+06
6.08805e+06
7.64611e+06
9.6165e+06
1.20829e+07
1.51748e+07
1.30217e+08
2.10038e+08
1.58907e+07
1.24232e+07
9.63007e+06
7.39575e+06
5.62257e+06
4.2275e+06
3.14049e+06
2.30311e+06
1.66726e+06
1.19394e+06
852477
618040
328679
71076.5
6402.48
304.486
8.90851
0.183574
0.00342145
8.08742e-05
3.27626e-06
2.60218e-07
3.77872e-08
8.78256e-09
2.72848e-09
9.64141e-10
3.76703e-10
1.51245e-10
4.81959e-11
9.02599e-12
7.29427e-13
0
0
1.19707e-11
0
-1.00523e-14
-2.65917e-07
0
-3.89503e-14
2.53273e-07
1.94995e-10
-2.38077e-07
2.3412e-09
1.26546e-08
8.90921e-08
7.36042e-07
4.15998e-06
2.74404e-05
0.000173956
0.00101634
0.00541405
0.0261064
0.113706
0.447776
1.59924
5.20335
15.5045
42.5429
108.068
255.295
562.58
1156.56
2206.17
3917.35
6456.8
9822.38
13803.6
18971.3
25890.6
34145.7
43869.3
55294.7
68781
84818.7
104076
127406
155874
190812
233878
287136
353165
435191
537260
664454
823170
1.02147e+06
1.26955e+06
1.58029e+06
1.97e+06
2.4594e+06
3.07486e+06
3.84997e+06
4.82763e+06
6.0627e+06
7.62524e+06
9.60503e+06
1.20918e+07
1.52134e+07
1.13169e+08
2.25492e+08
1.63479e+07
1.27757e+07
9.90024e+06
7.60022e+06
5.77454e+06
4.33788e+06
3.21843e+06
2.35626e+06
1.70196e+06
1.21526e+06
864374
624228
342818
78864.5
7605.22
383.755
11.8712
0.255122
0.00481623
0.000110977
4.24791e-06
3.14152e-07
4.30496e-08
9.58396e-09
2.88551e-09
1.04827e-09
3.93698e-10
1.52528e-10
4.9845e-11
8.65649e-12
0
0
-6.0104e-12
0
-1.02629e-14
-2.73981e-07
-2.74026e-07
-4.09948e-14
-2.90924e-18
-2.6471e-07
-1.33957e-16
2.5157e-07
2.44334e-07
1.60539e-08
1.109e-07
6.77433e-07
4.91121e-06
3.28419e-05
0.000204498
0.00117057
0.00610707
0.0288637
0.123377
0.477464
1.67814
5.38056
15.8188
42.8749
107.689
251.797
549.879
1122.64
2136.1
3749.84
6107.04
9251.45
13339.4
18904
25706.3
33807.3
43326.3
54485.9
67643.1
83272.2
102033
124764
152510
186584
228618
280646
345214
425511
525537
650330
806239
1.00128e+06
1.2456e+06
1.55204e+06
1.93692e+06
2.42098e+06
3.03065e+06
3.7997e+06
4.77135e+06
6.00092e+06
7.5592e+06
9.53713e+06
1.20301e+07
1.51624e+07
9.3872e+07
2.43165e+08
1.69456e+07
1.32422e+07
1.02605e+07
7.87478e+06
5.98016e+06
4.48878e+06
3.32661e+06
2.43168e+06
1.75254e+06
1.24744e+06
883134
633830
360029
89715.9
9399.25
507.541
16.7198
0.376951
0.00722739
0.000161897
5.79999e-06
3.96191e-07
5.07953e-08
1.05957e-08
3.1414e-09
1.07216e-09
4.1005e-10
1.59749e-10
5.14865e-11
9.01196e-12
3.07026e-16
-2.98284e-12
0
0
1.1198e-11
0
-2.1221e-14
-3.04457e-18
1.10815e-10
-2.98237e-17
-1.7528e-16
2.64053e-07
3.65802e-09
2.11478e-08
1.42162e-07
8.74731e-07
6.19642e-06
4.01374e-05
0.000244021
0.00136669
0.00697098
0.0322386
0.134991
0.512455
1.76939
5.58122
16.1649
43.2154
107.184
247.746
535.493
1084.06
2052.18
3608.6
5810.85
8790.58
13030.6
18434.5
25030.2
32887.7
42110.4
52908.5
65646.2
80777.1
98936
120941
147819
180851
221639
272180
334975
413160
510681
632505
784909
975828
1.21532e+06
1.51613e+06
1.89448e+06
2.37103e+06
2.97214e+06
3.73155e+06
4.69248e+06
5.91034e+06
7.45619e+06
9.4215e+06
1.19069e+07
1.50317e+07
7.42253e+07
2.60168e+08
1.78198e+07
1.39205e+07
1.07815e+07
8.27041e+06
6.27646e+06
4.7069e+06
3.48391e+06
2.54234e+06
1.8282e+06
1.29721e+06
914020
651305
392577
104537
12048.9
700.726
24.7087
0.58718
0.0114692
0.000249523
8.32026e-06
5.18697e-07
6.14432e-08
1.20327e-08
3.4031e-09
1.10564e-09
4.34421e-10
1.67041e-10
5.46207e-11
9.3653e-12
7.33383e-13
1.25814e-15
-3.38059e-12
6.89539e-12
2.83635e-07
-2.16344e-14
-2.90366e-07
-3.14781e-18
2.908e-07
-3.7282e-17
-2.23709e-10
7.91592e-10
3.83797e-09
2.66663e-08
1.8233e-07
1.02441e-06
7.80829e-06
4.95379e-05
0.000295141
0.00161381
0.00803712
0.036317
0.148751
0.553145
1.8737
5.8071
16.5494
43.5911
106.651
243.453
520.326
1043.31
1961.63
3443.63
5589.46
8502.24
12531.9
17719
24056.8
31611.8
40495.5
50907.4
63156.7
77722.7
95214.1
116422
142348
174238
213655
262552
323376
399202
493901
612359
760751
946902
1.18074e+06
1.47486e+06
1.84533e+06
2.31261e+06
2.90286e+06
3.64959e+06
4.59576e+06
5.79655e+06
7.32279e+06
9.26598e+06
1.17316e+07
1.48345e+07
5.5671e+07
2.76694e+08
1.90798e+07
1.48947e+07
1.15244e+07
8.82966e+06
6.69213e+06
5.01191e+06
3.70446e+06
2.69901e+06
1.93694e+06
1.3703e+06
960850
679447
429647
124500
15977.4
1006.03
38.1093
0.958451
0.0191466
0.000405234
1.25216e-05
7.0669e-07
7.61877e-08
1.40191e-08
3.7732e-09
1.20668e-09
4.58126e-10
1.67407e-10
5.77743e-11
1.00831e-11
-2.62164e-07
0
0
0
-2.89084e-07
0
-4.80679e-11
4.84388e-11
-1.30195e-17
-4.52449e-17
-2.61003e-16
8.5104e-14
5.62365e-09
3.05726e-07
2.39071e-07
1.63802e-06
9.8706e-06
6.20082e-05
0.000360291
0.00192263
0.00934296
0.0412127
0.164959
0.600281
1.99288
6.06294
16.9863
44.0472
106.231
239.33
505.487
1003.18
1871.31
3272.35
5328.76
8130.72
11936.9
16874.2
22919.8
30135.7
38642.8
48625.3
60376.4
74358.9
91162.3
111547
136481
167175
205144
252291
310999
384268
475884
590624
734543
915320
1.14271e+06
1.42912e+06
1.79039e+06
2.24671e+06
2.82394e+06
3.55524e+06
4.48315e+06
5.66231e+06
7.16288e+06
9.07531e+06
1.15078e+07
1.45657e+07
3.96722e+07
2.85658e+08
2.1104e+07
1.61709e+07
1.24842e+07
9.54325e+06
7.21698e+06
5.39399e+06
3.97961e+06
2.89457e+06
2.07352e+06
1.4634e+06
1.02192e+06
716794
471127
150200
21770.2
1493.93
61.0238
1.63128
0.0334666
0.000689746
1.97288e-05
1.00179e-06
9.68582e-08
1.6302e-08
4.15325e-09
1.37986e-09
4.68787e-10
1.81885e-10
6.09514e-11
5.74614e-12
0
-2.70679e-07
-2.78828e-07
0
-1.18574e-11
0
-2.3103e-14
6.15124e-11
4.69582e-14
-6.0425e-17
-3.51243e-16
8.62642e-10
6.71096e-09
3.28827e-07
3.18845e-07
2.14556e-06
1.28258e-05
7.82745e-05
0.000443941
0.00230933
0.0109422
0.047086
0.184048
0.654941
2.12955
6.35528
17.4928
44.6293
106.043
235.679
491.701
965.395
1785.33
3105.45
5058
7727.13
11309
15983.1
21721.5
28586
36699.5
46237.9
57494.2
70893.3
87006.4
106559
130482
159944
196405
241704
298149
368651
456883
567490
706362
880987
1.10089e+06
1.37824e+06
1.72853e+06
2.1716e+06
2.73293e+06
3.44528e+06
4.35085e+06
5.50411e+06
6.97546e+06
8.85647e+06
1.12607e+07
1.42964e+07
2.75176e+07
2.69885e+08
3.24514e+07
1.77558e+07
1.36392e+07
1.03814e+07
7.82224e+06
5.82867e+06
4.28985e+06
3.11415e+06
2.22704e+06
1.5687e+06
1.09194e+06
760863
515152
182151
30326.6
2288.72
101.18
2.88308
0.0609382
0.00122908
3.25413e-05
1.47701e-06
1.28065e-07
1.9851e-08
4.75871e-09
1.50548e-09
4.94202e-10
1.98547e-10
6.41555e-11
1.00319e-11
7.37697e-13
-2.7223e-07
-3.48254e-12
-5.85707e-12
0
0
-6.24299e-11
-5.15757e-11
1.27797e-10
-8.35707e-17
-3.18455e-07
1.79554e-09
8.73931e-09
6.25953e-08
5.67599e-07
2.70188e-06
1.65896e-05
9.97126e-05
0.000552599
0.0028002
0.0129251
0.0542127
0.206781
0.719072
2.28841
6.69514
18.0948
45.398
106.229
232.821
479.669
931.438
1706.99
2950.78
4797.33
7327.49
10694.5
15107.7
20541
27060.8
34783.9
43890.2
54654.9
67479.5
82909
101634
124541
152747
187649
231001
284998
352502
437012
542980
676063
843472
1.05441e+06
1.32067e+06
1.65739e+06
2.0835e+06
2.62389e+06
3.31055e+06
4.18492e+06
5.3008e+06
6.72836e+06
8.55979e+06
1.09133e+07
1.38992e+07
1.86217e+07
2.37465e+08
6.12685e+07
1.91781e+07
1.47196e+07
1.12029e+07
8.44316e+06
6.29328e+06
4.63303e+06
3.36382e+06
2.40542e+06
1.69328e+06
1.17622e+06
814995
563182
220728
42873.1
3598.15
172.842
5.27267
0.115543
0.00229177
5.62598e-05