/*--------------------------------*- C++ -*----------------------------------*\
  =========                 |
  \\      /  F ield         | OpenFOAM: The Open Source CFD Toolbox
   \\    /   O peration     | Website:  https://openfoam.org
    \\  /    A nd           | Version:  8
     \\/     M anipulation  |
\*---------------------------------------------------------------------------*/
FoamFile
{
    version     2.0;
    format      ascii;
    class       volScalarField;
    location    "40/fluid";
    object      rDeltaT;
}
// * * * * * * * * * * * * * * * * * * * * * * * * * * * * * * * * * * * * * //

dimensions      [0 0 -1 0 0 0 0];

internalField   nonuniform List<scalar> 
4000
(
518.265
557.539
600.288
646.474
693.898
739.339
778.81
808.399
825.454
829.253
820.88
802.591
777.087
746.953
714.339
680.866
647.667
615.478
584.776
555.811
528.666
503.344
479.763
457.814
437.414
418.457
400.854
384.499
369.311
355.193
342.081
329.889
318.569
308.042
298.274
289.194
280.782
272.964
265.739
263.478
266.388
269.81
273.672
277.941
282.675
287.855
293.515
299.661
306.3
313.471
321.157
329.419
338.227
347.656
357.672
368.351
379.668
391.689
404.402
417.863
432.076
447.092
462.937
479.679
497.381
516.125
536.035
557.344
580.555
606.638
885.489
7328.04
4449.09
773.414
712.914
742.175
771.924
802.251
833.199
864.725
896.655
928.682
960.324
990.896
1019.37
1044.29
1063.6
1075.32
1076.98
1066.17
1041.4
1002.7
952.022
893.25
831.222
769.481
708.513
647.271
587.302
529.417
517.592
556.892
599.701
644.857
690.287
733.106
769.858
797.179
812.774
816.008
807.838
790.303
765.891
737.019
705.724
673.552
641.585
610.531
580.812
552.643
526.125
501.216
477.935
456.181
435.867
416.902
399.192
382.651
367.202
352.767
339.274
326.657
314.856
303.815
293.482
283.811
274.756
266.275
260.97
261.686
265.717
270.129
274.945
280.184
285.865
292.006
298.622
305.731
313.347
321.491
330.18
339.437
349.283
359.743
370.842
382.606
395.066
408.25
422.195
436.934
452.511
468.983
486.411
504.872
524.465
545.3
567.51
591.304
617.064
645.411
1156.88
8333.05
3044.49
732.434
740.34
765.227
790.269
815.635
841.355
867.345
893.398
919.176
944.171
967.663
988.595
1005.65
1017.56
1023.05
1019.99
1007.12
983.618
949.664
906.728
857.475
804.953
751.449
696.938
640.453
583.508
527.829
516.27
552.073
590.926
632.057
673.62
713.217
747.862
774.442
790.598
795.382
789.361
774.247
752.318
725.877
696.91
666.936
637.004
607.779
579.626
552.736
527.165
502.995
480.153
458.607
438.29
419.142
401.105
384.109
368.082
352.966
338.703
325.238
312.521
300.502
289.135
278.375
268.181
258.511
255.638
260.263
265.903
271.913
278.318
285.143
292.41
300.139
308.353
317.07
326.312
336.101
346.46
357.414
368.992
381.222
394.137
407.771
422.162
437.356
453.403
470.36
488.289
507.259
527.357
548.688
571.367
595.522
621.284
648.796
678.199
709.591
1955.89
10283.4
1790.97
757.8
778.732
799.389
819.909
840.344
860.674
880.789
900.483
919.433
937.181
953.086
966.222
975.452
979.911
979.254
971.792
956.399
932.074
898.697
857.657
811.87
764.739
718.168
671.388
622.893
573.786
524.9
515.259
548.758
584.95
623.106
661.614
698.345
730.614
755.553
770.912
775.702
770.341
756.351
735.834
710.962
683.632
655.3
626.972
599.277
572.559
546.995
522.628
499.419
477.339
456.342
436.39
417.418
399.359
382.168
365.797
350.199
335.329
321.143
307.6
294.661
282.287
270.438
259.077
250.949
251.8
258.842
266.221
273.967
282.108
290.67
299.68
309.162
319.14
329.639
340.683
352.298
364.51
377.346
390.835
405.012
419.911
435.573
452.041
469.358
487.576
506.751
526.946
548.238
570.712
594.471
619.622
646.289
674.613
704.782
737.014
771.366
3756.45
10647.9
1161.85
790.124
808.385
825.387
841.448
856.764
871.434
885.464
898.768
911.171
922.403
932.02
939.374
943.683
944.405
941.074
931.945
915.846
891.906
860.233
822.393
781.11
739.156
697.773
655.871
611.956
567.149
522.591
514.151
545.011
578.175
613.058
648.256
681.93
711.698
734.939
749.508
754.36
749.739
736.945
717.877
694.558
668.787
641.965
615.066
588.705
563.235
538.759
515.34
492.94
471.541
451.071
431.459
412.659
394.627
377.315
360.683
344.692
329.308
314.495
300.219
286.447
273.145
260.281
247.818
242.64
247.927
256.676
265.763
275.22
285.075
295.358
306.093
317.308
329.029
341.282
354.094
367.492
381.505
396.161
411.495
427.534
444.314
461.868
480.234
499.45
519.558
540.599
562.616
585.657
609.771
635.005
661.396
688.958
717.697
747.656
778.863
811.129
6376.95
6400.66
891.578
824.231
836.66
847.995
858.466
868.231
877.364
885.873
893.705
900.75
906.813
911.503
914.287
914.447
911.61
905.329
894.036
876.659
852.517
821.902
786.439
748.718
711.188
674.707
637.924
599.228
559.632
520.12
513.134
541.675
572.209
604.201
636.402
667.18
694.398
715.658
728.957
733.27
728.749
716.547
698.399
676.193
651.626
626.033
600.353
575.158
550.728
527.23
504.701
483.104
462.352
442.389
423.16
404.608
386.686
369.352
352.57
336.307
320.533
305.219
290.338
275.86
261.757
247.999
234.784
233.18
243.183
253.501
264.165
275.203
286.645
298.517
310.848
323.665
336.994
350.864
365.3
380.332
395.985
412.291
429.276
446.974
465.412
484.621
504.633
525.476
547.179
569.766
593.259
617.675
643.02
669.288
696.442
724.394
753.013
782.172
811.76
1069.54
8774.61
2728.6
844.296
851.091
857.295
862.891
867.971
872.59
876.757
880.451
883.625
886.199
888.008
888.698
887.842
884.884
879.475
871.212
858.723
841.072
817.729
789.097
756.717
722.817
689.358
656.849
623.897
589.048
553.382
517.969
512.124
538.346
566.246
595.348
624.535
652.367
676.943
696.096
707.975
711.589
707.014
695.256
677.889
656.653
633.141
608.624
583.984
559.786
536.316
513.7
491.928
470.974
450.781
431.275
412.393
394.076
376.277
358.953
342.072
325.602
309.517
293.792
278.401
263.321
248.526
233.989
223.614
226.027
237.433
249.165
261.251
273.718
286.594
299.903
313.674
327.931
342.702
358.013
373.891
390.365
407.461
425.206
443.626
462.749
482.603
503.214
524.607
546.808
569.839
593.718
618.46
644.077
670.57
697.926
726.116
755.08
784.693
814.764
844.993
2062.57
10869.1
1413.42
858.863
862.288
865.028
867.136
868.67
869.689
870.235
870.33
869.975
869.134
867.669
865.266
861.582
856.193
848.749
838.843
825.336
807.398
784.668
757.687
727.957
697.455
667.771
639.115
610.007
579.051
547.337
515.926
511.148
535.155
560.538
586.859
613.113
638.026
659.91
676.815
687.057
689.704
684.793
673.212
656.39
635.932
613.328
589.743
566.011
542.692
520.066
498.212
477.143
456.81
437.143
418.069
399.522
381.442
363.78
346.497
329.559
312.936
296.606
280.544
264.729
249.138
233.748
218.536
211.354
218.005
230.651
243.633
256.979
270.712
284.857
299.438
314.479
330.007
346.044
362.618
379.752
397.473
415.806
434.778
454.411
474.729
495.756
517.513
540.021
563.3
587.367
612.237
637.92
664.425
691.758
719.926
748.933
778.755
809.372
840.734
872.622
3985.09
10590.3
1027.73
860.102
862.699
863.884
863.943
863.086
861.49
859.292
856.59
853.443
849.867
845.737
840.795
834.783
827.41
818.357
807.182
793.034
775.228
753.569
728.669
701.882
674.835
648.727
623.536
597.794
570.233
541.965
514.089
510.188
532.018
554.927
578.508
601.857
623.851
643.001
657.573
666.049
667.575
662.161
650.592
634.163
614.345
592.512
569.755
546.913
524.405
502.511
481.344
460.895
441.11
421.914
403.231
384.991
367.134
349.61
332.378
315.407
298.669
282.14
265.798
249.625
233.599
217.7
201.905
198.141
209.137
222.868
236.947
251.396
266.236
281.491
297.181
313.329
329.958
347.092
364.751
382.961
401.741
421.115
441.104
461.731
483.016
504.978
527.632
550.99
575.063
599.858
625.377
651.628
678.604
706.292
734.659
763.658
793.254
823.418
853.975
884.61
6610.24
7191.36
907.882
861.632
861.897
860.677
858.262
854.902
850.797
846.105
840.941
835.389
829.48
823.089
816
808.027
798.978
788.572
776.38
761.776
744.249
723.761
700.966
677.059
653.338
630.658
608.797
586.297
561.992
536.99
512.4
509.245
528.944
549.429
570.321
590.806
609.896
626.288
638.454
645.049
645.307
639.228
627.514
611.335
592.039
570.846
548.865
526.76
505.016
483.827
463.301
443.427
424.148
405.386
387.064
369.11
351.463
334.074
316.903
299.918
283.091
266.402
249.829
233.354
216.957
200.62
185.318
185.116
199.452
214.128
229.16
244.567
260.369
276.583
293.231
310.331
327.906
345.974
364.556
383.673
403.345
423.591
444.428
465.87
487.931
510.625
533.962
557.946
582.583
607.869
633.792
660.33
687.452
715.11
743.227
771.693
800.399
829.248
857.967
885.997
8880.56
3677.88
865.285
863.511
860.493
856.29
851.097
845.12
838.531
831.465
824.024
816.286
808.276
799.858
790.85
781.135
770.591
758.995
745.987
731.13
714.113
695.042
674.56
653.644
633.239
613.873
595.167
575.711
554.444
532.455
510.861
508.311
525.91
544.007
562.245
579.897
596.1
609.721
619.435
624.066
622.948
616.084
604.103
588.055
569.153
548.597
527.268
505.857
484.775
464.245
444.323
424.99
406.185
387.829
369.844
352.158
334.711
317.454
300.348
283.362
266.469
249.649
232.883
216.153
199.442
182.731
170.396
173.833
188.98
204.475
220.331
236.566
253.196
270.236
287.705
305.62
323.999
342.859
362.219
382.094
402.503
423.461
444.981
467.077
489.759
513.035
536.907
561.374
586.427
612.052
638.226
664.917
692.079
719.644
747.505
775.518
803.529
831.417
858.987
1049.63
10404.4
1864.71
865.62
861.25
855.668
848.993
841.433
833.195
824.44
815.291
805.842
796.169
786.283
776.047
765.322
754.058
742.187
729.554
715.914
700.997
684.684
667.204
649.152
631.256
614.117
597.969
582.305
565.775
547.416
528.272
509.45
507.386
522.911
538.649
554.27
569.121
582.455
593.304
600.53
603.13
600.54
592.784
580.433
564.435
545.89
525.836
505.13
484.371
463.916
443.99
424.626
405.798
387.437
369.462
351.794
334.363
317.109
299.983
282.948
265.974
249.035
232.112
215.187
198.244
181.265
164.235
154.876
161.879
177.729
193.932
210.5
227.447
244.787
262.535
280.704
299.31
318.369
337.896
357.907
378.416
399.437
420.982
443.063
465.688
488.863
512.592
536.874
561.702
587.063
612.939
639.3
666.111
693.321
720.859
748.618
776.449
804.196
831.747
858.978
1487.99
11362.6
1122.36
859.922
853.868
846.539
838.094
828.768
818.774
808.281
797.412
786.267
774.925
763.392
751.54
739.281
726.63
713.578
700.058
685.955
671.176
655.781
640.093
624.608
609.784
595.879
582.864
570.136
556.421
540.85
524.4
508.153
506.467
519.937
533.344
546.378
558.462
568.955
577.038
581.757
582.276
578.14
569.401
556.583
540.536
522.248
502.654
482.513
462.368
442.55
423.211
404.378
386.026
368.085
350.472
333.107
315.921
298.855
281.862
264.905
247.955
230.989
213.988
196.936
179.817
162.616
145.317
138.843
149.247
165.705
182.519
199.698
217.255
235.201
253.548
272.309
291.498
311.127
331.21
351.761
372.791
394.311
416.332
438.863
461.908
485.472
509.555
534.153
559.255
584.848
610.907
637.404
664.299
691.543
719.068
746.772
774.517
802.158
829.608
856.805
2088.06
11508.9
855.59
849.989
842.727
834.081
824.27
813.551
802.148
790.228
777.92
765.328
752.537
739.544
726.249
712.614
698.717
684.625
670.367
655.972
641.526
627.264
613.551
600.753
589.034
578.33
568.379
558.506
547.525
534.653
520.785
506.953
505.552
516.985
528.085
538.564
547.914
555.594
560.927
563.13
561.532
555.786
545.98
532.609
516.453
498.364
479.175
459.559
439.992
420.752
401.96
383.655
365.776
348.25
330.994
313.929
296.987
280.11
263.255
246.386
229.476
212.503
195.45
178.301
161.042
143.659
126.14
122.373
135.929
152.91
170.247
187.948
206.022
224.48
243.332
262.589
282.263
302.365
322.906
343.898
365.351
387.275
409.677
432.563
455.938
479.803
504.156
528.99
554.295
580.052
606.238
632.82
659.758
687
714.479
742.088
769.683
797.1
824.209
850.905
2832.94
10955.6
845.469
838.17
829.432
819.42
808.317
796.35
783.711
770.55
756.985
743.119
729.039
714.734
700.133
685.256
670.249
655.258
640.425
625.928
612.031
599.105
587.537
577.519
568.918
561.372
554.414
547.321
539.002
528.757
517.38
505.833
504.641
514.051
522.867
530.82
537.472
542.371
544.973
544.66
540.919
533.517
522.585
508.588
492.224
474.265
455.435
436.313
417.302
398.634
380.404
362.607
345.186
328.065
311.16
294.392
277.694
261.011
244.302
227.534
210.68
193.722
176.642
159.427
142.064
124.541
106.845
105.531
121.921
139.349
157.13
175.271
193.779
212.665
231.935
251.601
271.671
292.157
313.068
334.414
356.203
378.444
401.142
424.301
447.926
472.014
496.563
521.565
547.008
572.872
599.131
625.753
652.694
679.903
707.308
734.803
762.236
789.432
816.218
842.48
3661.79
10295.1
833.213
824.327
814.182
802.884
790.591
777.489
763.738
749.465
734.775
719.765
704.521
689.027
673.24
657.238
641.24
625.479
610.22
595.795
582.641
571.245
561.966
554.799
549.317
544.884
540.858
536.483
530.768
523.095
514.141
504.779
503.732
511.133
517.685
523.142
527.129
529.28
529.172
526.345
520.44
511.34
499.224
484.539
467.905
450.026
431.511
412.851
394.375
376.262
358.569
341.275
324.319
307.607
291.057
274.59
258.144
241.665
225.115
208.462
191.685
174.764
157.686
140.438
123.009
105.386
100
100
107.228
125.032
143.184
161.689
180.556
199.79
219.4
239.394
259.782
280.571
301.771
323.39
345.436
367.914
390.83
414.187
437.987
462.228
486.904
512.009
537.527
563.44
589.721
616.334
643.237
670.376
697.68
725.044
752.317
779.323
805.861
831.823
4524.61
9544.97
818.464
808.331
797.009
784.6
771.258
757.144
742.393
727.114
711.404
695.353
679.044
662.457
645.582
628.554
611.663
595.243
579.688
565.497
553.268
543.575
536.714
532.458
530.096
528.741
527.6
525.897
522.748
517.608
511.029
503.776
502.825
508.229
512.537
515.523
516.876
516.308
513.511
508.173
500.084
489.243
475.885
460.455
443.518
425.667
407.43
389.205
371.249
353.683
336.531
319.746
303.249
286.949
270.759
254.602
238.417
222.155
205.779
189.262
172.583
155.728
138.682
121.436
103.978
100
100
100
100
109.973
128.428
147.229
166.382
185.893
205.77
226.019
246.648
267.666
289.081
310.898
333.125
355.768
378.83
402.313
426.219
450.544
475.284
500.428
525.963
551.868
578.117
604.674
631.495
658.524
685.691
712.893
739.984
766.786
793.065
818.705
5334.73
8814.66
801.511
790.336
778.018
764.659
750.406
735.399
719.755
703.572
686.936
669.935
652.648
635.057
617.182
599.215
581.525
564.548
548.822
535.014
523.872
516.029
511.687
510.388
511.141
512.835
514.544
515.484
514.875
512.243
508.009
502.811
501.921
505.336
507.417
507.956
506.701
503.439
497.97
490.121
479.831
467.213
452.564
436.331
419.031
401.174
383.188
365.383
347.938
330.92
314.309
298.036
282.008
266.13
250.311
234.477
218.568
202.54
186.359
170.001
153.449
136.689
119.71
102.504
100
100
100
100
100
100
112.891
131.921
151.294
171.015
191.089
211.524
232.326
253.502
275.059
297.004
319.343
342.079
365.218
388.759
412.703
437.048
461.786
486.908
512.4
538.241
564.403
590.852
617.542
644.417
671.406
698.409
725.286
751.862
777.878
803.194
6002.89
8197.78
782.556
770.51
757.346
743.174
728.127
712.332
695.89
678.891
661.415
643.547
625.364
606.852
588.061
569.242
550.842
533.41
517.632
504.34
494.418
488.538
486.791
488.475
492.338
497.061
501.601
505.17
507.09
506.955
505.048
501.872
501.018
502.455
502.322
500.431
496.587
490.647
482.513
472.15
459.638
445.208
429.225
412.144
394.439
376.542
358.787
341.392
324.457
307.989
291.928
276.177
260.63
245.183
229.748
214.252
198.638
182.864
166.902
150.731
134.337
117.709
100.838
100
100
100
100
100
100
100
100
115.804
135.334
155.2
175.408
195.962
216.869
238.135
259.768
281.771
304.152
326.914
350.06
373.592
397.509
421.807
446.481
471.519
496.908
522.626
548.647
574.934
601.442
628.113
654.874
681.628
708.239
734.536
760.245
785.197
6467.59
7774.69
761.779
748.966
735.065
720.184
704.442
687.948
670.795
653.061
634.824
616.166
597.167
577.818
558.203
538.625
519.615
501.839
486.136
473.493
464.909
461.052
461.944
466.623
473.586
481.325
488.69
494.89
499.345
501.707
502.121
500.949
500.117
499.58
497.24
492.929
486.506
477.894
467.095
454.205
439.451
423.181
405.833
387.875
369.745
351.797
334.273
317.296
300.883
284.979
269.481
254.266
239.214
224.215
209.179
194.038
178.737
163.242
147.525
131.572
115.371
100
100
100
100
100
100
100
100
100
100
100
118.592
138.538
158.812
179.417
200.36
221.647
243.283
265.274
287.626
310.341
333.424
356.876
380.694
404.877
429.418
454.306
479.527
505.063
530.884
556.954
583.226
609.642
636.127
662.583
688.882
714.854
740.219
764.79
6695.37
7586.41
739.231
725.748
711.199
695.691
679.33
662.211
644.417
626.021
607.098
587.729
567.996
547.902
527.561
507.329
487.814
469.796
454.269
442.389
435.279
433.555
437.081
444.725
454.767
465.521
475.724
484.575
491.586
496.462
499.204
500.032
500.115
499.577
497.239
492.93
486.509
477.9
467.103
454.218
439.469
423.204
405.862
387.911
369.788
351.847
334.329
317.357
300.948
285.048
269.551
254.337
239.285
224.286
209.25
194.107
178.806
163.308
147.59
131.635
115.432
100
100
100
100
100
100
100
100
100
100
100
118.651
138.595
158.867
179.47
200.411
221.696
243.33
265.319
287.668
310.381
333.462
356.91
380.726
404.906
429.444
454.329
479.546
505.078
530.894
556.959
583.226
609.636
636.115
662.566
688.857
714.821
740.18
764.749
6664.91
7619.74
739.26
725.752
711.181
695.653
679.272
662.132
644.318
625.903
606.961
587.572
567.82
547.707
527.348
507.097
487.566
469.535
453.999
442.117
435.012
433.303
436.856
444.535
454.617
465.41
475.653
484.543
491.58
496.461
499.195
500.021
501.015
502.45
502.319
500.433
496.593
490.659
482.531
472.175
459.673
445.254
429.283
412.214
394.524
376.641
358.899
341.514
324.588
308.126
292.067
276.318
260.771
245.323
229.886
214.386
198.768
182.991
167.025
150.849
134.451
117.818
100.941
100
100
100
100
100
100
100
100
115.94
135.466
155.329
175.533
196.083
216.987
238.25
259.878
281.878
304.254
327.012
350.153
373.68
397.592
421.884
446.551
471.583
496.963
522.673
548.684
574.959
601.454
628.112
654.859
681.598
708.189
734.463
760.149
785.093
6380.39
7866.79
761.94
749.07
735.117
720.189
704.402
687.864
670.667
652.891
634.612
615.911
596.87
577.479
557.823
538.207
519.163
501.359
485.637
472.986
464.405
460.57
461.506
466.249
473.287
481.105
488.55
494.825
499.332
501.704
502.101
500.927
501.917
505.331
507.415
507.958
506.707
503.45
497.986
490.145
479.865
467.257
452.621
436.402
419.117
401.273
383.3
365.506
348.069
331.055
314.446
298.173
282.144
266.261
250.439
234.6
218.686
202.653
186.466
170.103
153.545
136.779
119.794
102.582
100
100
100
100
100
100
113.055
132.083
151.453
171.172
191.244
211.676
232.475
253.648
275.203
297.145
319.48
342.213
365.347
388.884
412.824
437.163
461.895
487.01
512.494
538.325
564.475
590.91
617.584
644.441
671.408
698.386
725.229
751.765
777.738
803.025
5860.86
8346.59
782.885
770.772
757.548
743.323
728.227
712.383
695.893
678.846
661.322
643.405
625.174
606.613
587.775
568.911
550.469
533.003
517.198
503.89
493.963
488.095
486.381
488.121
492.053
496.85
501.466
505.107
507.076
506.948
505.027
501.851
502.822
508.223
512.534
515.525
516.882
516.32
513.529
508.198
500.119
489.288
475.942
460.524
443.601
425.764
407.54
389.325
371.376
353.814
336.662
319.874
303.372
287.068
270.873
254.711
238.52
222.251
205.869
189.346
172.661
155.798
138.746
121.493
104.028
100
100
100
100
110.164
128.617
147.416
166.567
186.077
205.952
226.199
246.827
267.844
289.256
311.071
333.296
355.936
378.996
402.476
426.378
450.7
475.434
500.572
526.099
551.996
578.233
604.777
631.581
658.592
685.736
712.911
739.966
766.722
792.954
818.552
5142.12
9005.13
801.974
790.733
778.353
764.94
750.634
735.573
719.877
703.641
686.953
669.899
652.559
634.915
616.989
598.973
581.238
564.222
548.464
534.631
523.471
515.626
511.302
510.046
510.862
512.626
514.408
515.418
514.854
512.231
507.986
502.791
503.728
511.128
517.683
523.144
527.135
529.292
529.19
526.371
520.474
511.383
499.278
484.607
467.988
450.117
431.614
412.963
394.494
376.384
358.691
341.395
324.433
307.715
291.158
274.684
258.23
241.744
225.187
208.527
191.742
174.814
157.729
140.473
123.036
105.406
100
100
107.442
125.245
143.396
161.901
180.767
200
219.609
239.602
259.989
280.778
301.977
323.595
345.639
368.117
391.031
414.387
438.185
462.424
487.098
512.199
537.713
563.62
589.894
616.498
643.39
670.516
697.802
725.143
752.384
779.349
805.841
831.747
4309
9766.72
818.945
808.775
797.413
784.965
771.579
757.416
742.613
727.282
711.518
695.413
679.048
662.406
645.477
628.397
611.459
594.998
579.406
565.183
552.926
543.214
536.353
532.126
529.817
528.529
527.459
525.822
522.717
517.588
511.005
503.757
504.637
514.046
522.864
530.822
537.478
542.384
544.991
544.685
540.951
533.558
522.637
508.653
492.297
474.347
455.527
436.414
417.408
398.742
380.51
362.709
345.285
328.158
311.244
294.468
277.761
261.07
244.353
227.576
210.715
193.748
176.661
159.438
142.068
124.537
106.833
105.641
122.158
139.585
157.365
175.506
194.014
212.899
232.169
251.834
271.905
292.391
313.302
334.648
356.437
378.678
401.376
424.536
448.161
472.25
496.799
521.801
547.244
573.108
599.367
625.988
652.928
680.135
707.536
735.022
762.44
789.618
816.383
842.624
3451.44
10489.6
833.645
824.793
814.645
803.329
791.003
777.858
764.058
749.731
734.987
719.92
704.617
689.065
673.221
657.164
641.117
625.313
610.015
595.552
582.358
570.926
561.629
554.474
549.035
544.664
540.707
536.395
530.724
523.066
514.114
504.762
505.549
516.98
528.083
538.566
547.921
555.607
560.946
563.155
561.563
555.824
546.026
532.663
516.514
498.438
479.258
459.65
440.086
420.847
402.056
383.748
365.861
348.325
331.059
313.984
297.031
280.145
263.281
246.403
229.485
212.504
195.443
178.286
161.02
143.63
126.103
122.48
136.187
153.167
170.504
188.204
206.279
224.737
243.589
262.846
282.52
302.622
323.163
344.156
365.61
387.535
409.938
432.826
456.204
480.072
504.428
529.267
554.577
580.342
606.536
633.127
660.076
687.332
714.824
742.445
770.05
797.482
824.606
851.327
2629.6
11156.7
845.903
838.687
829.966
819.948
808.821
796.814
784.126
770.911
757.29
743.364
729.223
714.857
700.197
685.262
670.203
655.167
640.292
625.751
611.806
598.83
587.225
577.201
568.63
561.139
554.248
547.218
538.942
528.717
517.351
505.818
506.464
519.933
533.343
546.381
558.47
568.969
577.058
581.783
582.307
578.177
569.443
556.632
540.594
522.314
502.723
482.586
462.443
442.625
423.281
404.441
386.081
368.13
350.507
333.131
315.935
298.859
281.857
264.892
247.934
230.961
213.953
196.893
179.767
162.559
145.253
138.947
149.526
165.982
182.796
199.975
217.532
235.477
253.824
272.585
291.774
311.404
331.487
352.038
373.069
394.591
416.614
439.147
462.196
485.764
509.852
534.457
559.568
585.171
611.244
637.756
664.669
691.933
719.48
747.204
774.968
802.631
830.094
857.268
1911.64
11640.8
870.717
850.757
843.463
834.783
824.927
814.153
802.689
790.705
778.332
765.673
752.815
739.756
726.396
712.7
698.748
684.608
670.305
655.863
641.36
627.034
613.267
600.444
588.74
578.084
568.196
558.384
547.448
534.603
520.754
506.94
507.384
522.908
538.649
554.274
569.131
582.471
593.325
600.555
603.157
600.57
592.818
580.473
564.477
545.912
525.861
505.162
484.41
463.978
444.049
424.673
405.829
387.453
369.464
351.783
334.341
317.076
299.942
282.899
265.918
248.972
232.043
215.112
198.163
181.178
164.142
154.975
162.177
178.026
194.229
210.796
227.743
245.082
262.828
280.997
299.602
318.661
338.188
358.198
378.707
399.728
421.274
443.357
465.985
489.165
512.9
537.189
562.028
587.403
613.294
639.674
666.504
693.735
721.291
749.063
776.903
804.66
832.221
859.453
1343.99
11217.4
1225.1
861.004
854.892
847.478
838.948
829.538
819.464
808.893
797.949
786.731
775.315
763.709
751.787
739.46
726.747
713.643
700.076
685.921
671.079
655.609
639.848
624.317
609.49
595.622
582.665
569.997
556.329
540.79
524.368
508.142
508.31
525.909
544.009
562.253
579.911
596.119
609.744
619.458
624.087
622.963
616.094
604.11
588.069
569.196
548.636
527.316
505.898
484.788
464.238
444.304
424.959
406.142
387.775
369.779
352.084
334.629
317.366
300.254
283.262
266.365
249.541
232.77
216.036
199.32
182.604
170.489
174.152
189.297
204.79
220.646
236.879
253.507
270.546
288.013
305.927
324.304
343.163
362.521
382.395
402.803
423.759
445.278
467.374
490.057
513.334
537.211
561.685
586.752
612.398
638.6
665.326
692.531
720.144
748.065
776.153
804.26
832.248
859.845
928.801
10193.3
2147.12
866.484
862.052
856.465
849.795
842.226
833.96
825.161
815.955
806.442
796.696
786.736
776.426
765.627
754.295
742.362
729.675
715.977
700.99
684.59
667.018
648.896
630.975
613.858
597.759
582.151
565.669
547.349
528.239
509.441
509.244
528.945
549.435
570.332
590.825
609.922
626.319
638.485
645.076
645.327
639.241
627.521
611.339
592.038
570.85
548.854
526.745
504.983
483.777
463.232
443.341
424.047
405.272
386.939
368.976
351.322
333.928
316.754
299.765
282.937
266.246
249.671
233.194
216.795
200.455
185.403
185.456
199.79
214.464
229.493
244.897
260.696
276.908
293.552
310.65
328.221
346.287
364.866
383.98
403.65
423.894
444.727
466.167
488.228
510.924
534.264
558.254
582.895
608.187
634.124
660.691
687.855
715.572
743.77
772.355
801.228
830.305
859.279
887.733
8415.69
4370.11
865.876
864.262
861.342
857.197
852.031
846.051
839.435
832.319
824.814
816.999
808.906
800.403
791.313
781.52
770.906
759.247
746.173
731.237
714.12
694.937
674.359
653.391
632.986
613.658
595.002
575.595
554.372
532.423
510.853
510.189
532.023
554.937
578.527
601.886
623.889
643.045
657.616
666.086
667.603
662.177
650.598
634.159
614.328
592.479
569.702
546.832
524.313
502.404
481.215
460.745
440.941
421.73
403.035
384.786
366.923
349.396
332.164
315.193
298.456
281.928
265.588
249.416
233.391
217.491
201.695
198.212
209.494
223.221
237.297
251.742
266.579
281.829
297.514
313.657
330.281
347.407
365.059
383.261
402.033
421.4
441.383
462.006
483.286
505.241
527.887
551.24
575.309
600.099
625.612
651.85
678.815
706.495
734.87
763.899
793.55
823.787
854.464
885.358
5910.75
8249.78
908.863
863.258
863.453
862.157
859.668
856.228
852.036
847.249
841.985
836.329
830.316
823.823
816.638
808.575
799.446
788.969
776.704
762.015
744.378
723.76
700.841
676.851
653.106
630.448
608.628
586.175
561.917
536.958
512.393
511.151
535.164
560.556
586.888
613.156
638.082
659.974
676.882
687.117
689.753
684.825
673.225
656.384
635.906
613.276
589.667
565.909
542.571
519.923
498.039
476.938
456.577
436.889
417.801
399.244
381.159
363.496
346.214
329.279
312.661
296.336
280.278
264.468
248.88
233.493
218.282
211.413
218.381
231.022
244
257.342
271.07
285.209
299.785
314.821
330.342
346.374
362.941
380.066
397.778
416.101
435.058
454.675
474.975
495.982
517.716
540.199
563.449
587.483
612.313
637.946
664.384
691.627
719.669
748.509
778.112
808.413
839.32
870.576
3361.64
11036.8
1054.46
863.699
865.643
866.359
866.068
864.937
863.119
860.736
857.873
854.582
850.876
846.63
841.582
835.472
828.016
818.888
807.638
793.402
775.482
753.681
728.634
701.734
674.635
648.529
623.369
597.671
570.158
541.934
514.084
512.129
538.36
566.272
595.389
624.595
652.447
677.04
696.201
708.078
711.682
707.091
695.312
677.922
656.663
633.124
608.576
583.903
559.652
536.129
513.475
491.672
470.689
450.471
430.948
412.054
393.731
375.93
358.609
341.732
325.269
309.192
293.474
278.09
263.017
248.227
233.693
223.659
226.414
237.814
249.541
261.622
274.083
286.953
300.256
314.019
328.268
343.031
358.334
374.205
390.669
407.754
425.486
443.892
462.999
482.834
503.42
524.784
546.947
569.931
593.753
618.426
643.957
670.341
697.556
725.547
754.218
783.427
812.959
842.603
1706.8
10507.4
1572.59
861.7
864.83
867.291
869.138
870.444
871.27
871.652
871.606
871.127
870.174
868.61
866.118
862.351
856.892
849.381
839.406
825.823
807.78
784.907
757.762
727.888
697.301
667.594
638.954
609.885
578.977
547.308
515.923
513.14
541.695
572.244
604.257
636.485
667.293
694.538
715.818
729.127
733.439
728.908
716.687
698.516
676.279
651.675
626.038
600.306
575.059
550.58
527.029
504.456
482.817
462.029
442.04
422.791
404.228
386.301
368.967
352.189
335.933
320.167
304.862
289.989
275.52
261.424
247.672
234.812
233.567
243.566
253.879
264.538
275.571
287.008
298.875
311.2
324.011
337.332
351.193
365.62
380.642
396.285
412.58
429.553
447.236
465.658
484.85
504.841
525.66
547.336
569.894
593.356
617.742
643.066
669.329
696.505
724.515
753.241
782.572
812.386
886.07
8268.55
3315.4
843.792
851.063
857.669
863.533
868.773
873.475
877.677
881.374
884.53
887.071
888.843
889.494
888.598
885.606
880.155
871.852
859.314
841.581
818.105
789.301
756.752
722.735
689.226
656.715
623.792
588.985
553.36
517.969
514.159
545.035
578.218
613.127
648.361
682.076
711.886
735.163
749.759
754.626
750.008
737.206
718.119
694.772
668.964
642.095
615.141
588.714
563.172
538.654
515.167
492.707
471.256
450.747
431.107
412.288
394.243
376.927
360.295
344.308
328.93
314.124
299.856
286.092
272.798
259.939
247.481
242.651
248.29
257.034
266.116
275.569
285.419
295.695
306.425
317.635
329.351
341.6
354.407
367.8
381.81
396.461
411.788
427.82
444.593
462.141
480.502
499.714
519.821
540.865
562.894
585.956
610.105
635.398
661.885
689.608
718.607
748.965
780.76
813.938
5664.92
7849.37
937.568
823.525
836.412
848.054
858.734
868.642
877.873
886.449
894.326
901.399
907.478
912.182
914.976
915.153
912.318
906.045
894.745
877.318
853.059
822.263
786.6
748.72
711.103
674.597
637.832
599.174
559.617
520.126
515.268
548.784
584.997
623.184
661.736
698.521
730.849
755.844
771.251
776.078
770.741
756.759
736.235
711.342
683.975
655.593
627.203
599.434
572.639
546.964
522.523
499.258
477.128
456.089
436.102
417.101
399.024
381.82
365.443
349.842
334.973
320.79
307.253
294.319
281.949
270.105
258.748
250.946
252.126
259.166
266.543
274.287
282.426
290.987
299.995
309.475
319.451
329.949
340.991
352.603
364.811
377.646
391.134
405.313
420.214
435.877
452.345
469.664
487.882
507.056
527.25
548.536
570.992
594.713
619.8
646.36
674.509
704.377
736.096
769.702
3031.58
11203.3
1284.63
792.479
809.903
826.416
842.196
857.354
871.944
885.945
899.25
911.672
922.935
932.593
939.999
944.366
945.134
941.857
932.764
916.657
892.63
860.786
822.73
781.255
739.178
697.738
655.831
611.937
567.155
522.606
516.28
552.1
590.975
632.142
673.757
713.421
748.14
774.797
791.025
795.869
789.895
774.811
752.89
726.437
697.437
667.408
637.406
608.099
579.857
552.889
527.24
502.991
480.086
458.481
438.114
418.926
400.858
383.839
367.796
352.67
338.401
324.934
312.216
300.198
288.832
278.074
267.881
258.211
255.618
260.527
266.167
272.175