/*--------------------------------*- C++ -*----------------------------------*\
  =========                 |
  \\      /  F ield         | OpenFOAM: The Open Source CFD Toolbox
   \\    /   O peration     | Website:  https://openfoam.org
    \\  /    A nd           | Version:  8
     \\/     M anipulation  |
\*---------------------------------------------------------------------------*/
FoamFile
{
    version     2.0;
    format      ascii;
    class       volScalarField;
    location    "40/fluid";
    object      rho;
}
// * * * * * * * * * * * * * * * * * * * * * * * * * * * * * * * * * * * * * //

dimensions      [1 -3 0 0 0 0 0];

internalField   nonuniform List<scalar> 
4000
(
0.658086
0.656616
0.654314
0.65086
0.645898
0.63909
0.630191
0.619124
0.60601
0.591159
0.574999
0.558
0.540607
0.523201
0.50608
0.489459
0.473486
0.458249
0.443792
0.430126
0.417239
0.405102
0.393698
0.382959
0.372842
0.363301
0.35429
0.345766
0.337687
0.330014
0.322714
0.315754
0.309106
0.302746
0.29665
0.290798
0.285174
0.279761
0.274547
0.269515
0.264645
0.259923
0.255343
0.250897
0.246579
0.242383
0.238305
0.23434
0.230484
0.226735
0.223091
0.219548
0.216107
0.212766
0.209524
0.20638
0.203335
0.200389
0.197545
0.194806
0.192174
0.189653
0.187249
0.184967
0.182816
0.180809
0.178959
0.177286
0.175814
0.174575
0.173609
0.173066
0.176459
0.183694
0.192099
0.201779
0.212924
0.225761
0.240568
0.2577
0.277598
0.300823
0.32808
0.360255
0.39853
0.44439
0.4994
0.564988
0.642017
0.729853
0.82512
0.920871
1.0076
1.07685
1.12497
1.15433
1.17025
1.17813
1.18181
1.18346
0.658115
0.656745
0.654612
0.651425
0.646856
0.640577
0.63232
0.62195
0.609507
0.595217
0.579449
0.562649
0.545272
0.527728
0.510355
0.493409
0.477069
0.461452
0.44662
0.432599
0.419387
0.406972
0.395277
0.384285
0.373948
0.364219
0.355048
0.346386
0.338184
0.330404
0.32301
0.315968
0.30925
0.302827
0.296676
0.290777
0.28511
0.279659
0.27441
0.269348
0.264449
0.259702
0.255099
0.250632
0.246295
0.242082
0.237988
0.23401
0.230144
0.226385
0.222732
0.219183
0.215735
0.212389
0.209142
0.205995
0.202948
0.200003
0.197162
0.194426
0.191798
0.189284
0.186889
0.184618
0.18248
0.180486
0.178654
0.177003
0.175562
0.174374
0.17349
0.173183
0.177583
0.184893
0.193441
0.203352
0.214805
0.228028
0.243314
0.261038
0.281674
0.305827
0.33426
0.367942
0.408176
0.456549
0.514671
0.583938
0.664925
0.75626
0.853316
0.947805
1.02983
1.09226
1.13406
1.15898
1.17236
1.17899
1.1821
1.18351
0.658144
0.656869
0.654882
0.651912
0.647646
0.641763
0.633991
0.62417
0.612301
0.598557
0.583258
0.566812
0.549654
0.53219
0.514769
0.497669
0.481096
0.465188
0.450031
0.435665
0.422112
0.409366
0.397378
0.386114
0.37553
0.365572
0.356179
0.34731
0.338927
0.330988
0.323454
0.316288
0.30946
0.30294
0.296703
0.290729
0.284995
0.279487
0.274187
0.26908
0.264143
0.259362
0.254729
0.250237
0.245877
0.241645
0.237534
0.233541
0.22966
0.225889
0.222225
0.218666
0.21521
0.211855
0.208603
0.205452
0.202403
0.199458
0.196614
0.193875
0.191243
0.188723
0.186319
0.184042
0.181899
0.179904
0.178071
0.176421
0.174983
0.173799
0.172927
0.172949
0.178766
0.186463
0.195419
0.205786
0.217758
0.231581
0.247569
0.266123
0.287749
0.313085
0.342932
0.37831
0.420571
0.47126
0.531839
0.603421
0.686067
0.777703
0.8731
0.964001
1.04148
1.09975
1.13836
1.1612
1.17341
1.17943
1.18227
1.18354
0.658171
0.656983
0.655132
0.652363
0.648377
0.642862
0.635542
0.626233
0.614899
0.601667
0.586811
0.570708
0.553772
0.536409
0.518976
0.501768
0.48501
0.468863
0.453432
0.438778
0.424948
0.411879
0.399602
0.388069
0.377209
0.366984
0.35736
0.348287
0.339718
0.331611
0.323924
0.316621
0.309668
0.303036
0.296698
0.290631
0.284814
0.27923
0.273863
0.268694
0.263701
0.25887
0.254191
0.249657
0.245261
0.240996
0.236856
0.232838
0.228936
0.225147
0.221468
0.217896
0.21443
0.211068
0.207809
0.204653
0.2016
0.19865
0.195806
0.193071
0.190447
0.187938
0.185551
0.183292
0.181171
0.179201
0.177398
0.175781
0.174376
0.173219
0.172333
0.173014
0.180039
0.188335
0.197853
0.208789
0.22137
0.23587
0.25263
0.272074
0.294738
0.32129
0.352561
0.389632
0.43389
0.486838
0.549843
0.623808
0.708393
0.800906
0.895432
0.983366
1.05625
1.10953
1.14401
1.16408
1.17473
1.17998
1.18246
1.18358
0.658195
0.657086
0.655356
0.652765
0.64903
0.643848
0.63694
0.628106
0.617278
0.604538
0.590119
0.574361
0.557658
0.540409
0.522981
0.505683
0.488759
0.472391
0.456709
0.441804
0.427672
0.414344
0.401769
0.389927
0.3788
0.368339
0.358496
0.349222
0.340469
0.332193
0.324353
0.31691
0.309831
0.303084
0.296642
0.290482
0.284581
0.278921
0.273486
0.268256
0.263207
0.258326
0.253603
0.249029
0.244596
0.240299
0.23613
0.232085
0.228159
0.224349
0.220651
0.217063
0.213584
0.210211
0.206944
0.203783
0.200727
0.197777
0.194935
0.192205
0.189588
0.187092
0.184721
0.182486
0.180399
0.178475
0.176736
0.175211
0.173946
0.172985
0.17238
0.174918
0.182305
0.190905
0.200824
0.212245
0.225395
0.240554
0.258077
0.27841
0.302108
0.329866
0.362549
0.401302
0.447525
0.502655
0.567939
0.644014
0.730063
0.822743
0.915574
0.999956
1.06827
1.11717
1.14833
1.16628
1.17575
1.18042
1.18261
1.1836
0.658217
0.65718
0.655562
0.653137
0.649635
0.644762
0.638239
0.629852
0.619501
0.607231
0.593232
0.577809
0.561336
0.544206
0.526788
0.509407
0.492327
0.47576
0.459859
0.444693
0.430267
0.416613
0.403753
0.391657
0.380288
0.369601
0.359547
0.35008
0.341149
0.332711
0.324723
0.317145
0.309942
0.303082
0.296537
0.290282
0.284295
0.278557
0.27305
0.267756
0.262647
0.257712
0.252939
0.248321
0.243848
0.239514
0.235314
0.231241
0.227292
0.223462
0.219748
0.216146
0.212656
0.209275
0.206003
0.20284
0.199785
0.19684
0.194006
0.191286
0.188685
0.186208
0.183862
0.181658
0.179611
0.177738
0.176069
0.17464
0.173522
0.172755
0.17256
0.177377
0.184868
0.193697
0.203967
0.215839
0.229531
0.245328
0.263595
0.284793
0.3095
0.338437
0.372508
0.412913
0.461054
0.518302
0.58578
0.663856
0.751243
0.843977
0.935069
1.01596
1.07984
1.12453
1.15248
1.16839
1.17673
1.18082
1.18276
1.18363
0.658237
0.657266
0.655751
0.653479
0.650191
0.645604
0.63944
0.631473
0.621576
0.609758
0.596169
0.581079
0.564839
0.547833
0.530435
0.512982
0.49578
0.479051
0.462875
0.447375
0.432655
0.418736
0.405614
0.393269
0.381664
0.370758
0.360503
0.350849
0.341749
0.333155
0.325025
0.317318
0.309997
0.30303
0.296388
0.290044
0.283976
0.278164
0.272592
0.267237
0.262073
0.257087
0.252269
0.24761
0.2431
0.238733
0.234503
0.230403
0.22643
0.222579
0.218848
0.215233
0.211732
0.208343
0.205066
0.2019
0.198845
0.195902
0.193074
0.190363
0.187774
0.185313
0.182987
0.180808
0.178791
0.176954
0.17532
0.173922
0.172823
0.172065
0.172252
0.178727
0.186751
0.196073
0.20684
0.219239
0.233511
0.249958
0.268966
0.291018
0.316716
0.346809
0.38225
0.424284
0.474305
0.533621
0.603215
0.683157
0.771659
0.864141
0.953191
1.03046
1.09005
1.13088
1.15602
1.17017
1.17755
1.18117
1.18288
1.18365
0.658256
0.657347
0.655927
0.653796
0.650708
0.646388
0.64056
0.632989
0.623525
0.612142
0.598952
0.584191
0.568185
0.551307
0.533931
0.51643
0.499092
0.482083
0.465649
0.449902
0.43492
0.420736
0.407358
0.394769
0.382936
0.371818
0.361368
0.351537
0.342274
0.333533
0.325269
0.317439
0.310007
0.302939
0.296204
0.289776
0.283631
0.27775
0.272115
0.266701
0.261485
0.256451
0.25159
0.246891
0.242346
0.237948
0.233689
0.229565
0.225571
0.221704
0.217958
0.214333
0.210825
0.207433
0.204155
0.200992
0.197944
0.195011
0.192196
0.189501
0.186932
0.184493
0.182195
0.180045
0.178059
0.176254
0.174655
0.173294
0.172231
0.171487
0.172485
0.179886
0.188468
0.198301
0.209571
0.222493
0.237329
0.254407
0.274131
0.297008
0.323666
0.354882
0.391668
0.435301
0.487158
0.548485
0.620113
0.701795
0.791238
0.883271
0.970145
1.04382
1.09933
1.13659
1.15917
1.17176
1.17828
1.18148
1.18299
1.18367
0.658274
0.657421
0.656091
0.654091
0.651189
0.647119
0.641607
0.634411
0.625359
0.614396
0.601596
0.58716
0.57139
0.554644
0.537307
0.519751
0.502205
0.484997
0.468322
0.452318
0.437071
0.422626
0.408996
0.396168
0.384113
0.37279
0.362153
0.352151
0.342734
0.333853
0.325461
0.317517
0.309981
0.302818
0.295998
0.289492
0.283277
0.277332
0.271639
0.266173
0.260909
0.255831
0.25093
0.246196
0.241619
0.237193
0.23291
0.228764
0.224751
0.220867
0.217108
0.213471
0.209954
0.206555
0.203275
0.200113
0.197069
0.194145
0.191341
0.188663
0.186115
0.183704
0.181437
0.179327
0.17739
0.175648
0.174127
0.172876
0.171938
0.171358
0.173963
0.18165
0.190512
0.200678
0.21233
0.225689
0.241025
0.258678
0.279071
0.302729
0.330306
0.36261
0.40071
0.44591
0.499563
0.56285
0.636437
0.719743
0.809951
0.901328
0.985878
1.05598
1.10762
1.14162
1.16192
1.17314
1.17892
1.18175
1.18308
1.18369
0.65829
0.657491
0.656243
0.654366
0.651638
0.647802
0.642588
0.635746
0.627089
0.61653
0.604109
0.589993
0.574457
0.557848
0.540562
0.522878
0.5052
0.487801
0.470892
0.454633
0.439123
0.424419
0.41054
0.397478
0.385206
0.373685
0.362868
0.352703
0.343138
0.334125
0.325614
0.317563
0.30993
0.302679
0.295779
0.289201
0.282921
0.276918
0.271172
0.265658
0.260349
0.255232
0.250295
0.245528
0.240923
0.236471
0.232166
0.228003
0.223975
0.220079
0.216311
0.212669
0.209151
0.205753
0.202476
0.199319
0.196282
0.193368
0.190578
0.187916
0.185387
0.182999
0.180763
0.178692
0.176807
0.175133
0.173703
0.172589
0.171806
0.171471
0.175981
0.183688
0.192677
0.203066
0.215018
0.228748
0.24453
0.262711
0.283727
0.308125
0.33658
0.369937
0.409319
0.456051
0.511459
0.576655
0.652129
0.736943
0.827756
0.918307
1.00044
1.06704
1.11504
1.14607
1.16434
1.17434
1.17947
1.18198
1.18317
1.1837
0.658305
0.657556
0.656385
0.654623
0.652057
0.64844
0.643506
0.637001
0.628719
0.618549
0.606496
0.592693
0.577385
0.560898
0.543614
0.525891
0.508087
0.490499
0.473362
0.456853
0.441084
0.426124
0.412
0.398709
0.386226
0.374513
0.363522
0.353201
0.343497
0.334358
0.325735
0.317583
0.309861
0.302529
0.295557
0.288913
0.282575
0.276518
0.270726
0.265168
0.25982
0.254667
0.249698
0.244903
0.240272
0.235798
0.231474
0.227294
0.223252
0.219345
0.215568
0.211919
0.208396
0.204998
0.201722
0.19857
0.195541
0.192636
0.189859
0.187213
0.184705
0.182343
0.180137
0.178102
0.17626
0.174638
0.173277
0.172244
0.171574
0.17145
0.177389
0.185279
0.194493
0.205151
0.217419
0.231517
0.247729
0.266415
0.288029
0.313135
0.342436
0.376819
0.417453
0.465683
0.522806
0.589867
0.667159
0.753377
0.844649
0.934224
1.01388
1.07706
1.12167
1.14999
1.16645
1.17539
1.17996
1.18219
1.18324
1.18372
0.658319
0.657616
0.656518
0.654862
0.652448
0.649036
0.644365
0.638177
0.630253
0.620455
0.608758
0.595263
0.580192
0.563864
0.546591
0.528809
0.510872
0.49309
0.475718
0.458965
0.442943
0.427735
0.413374
0.399862
0.387176
0.375279
0.364123
0.353654
0.343818
0.334562
0.325835
0.31759
0.309784
0.302379
0.295339
0.288637
0.282245
0.276141
0.270305
0.264709
0.259325
0.254141
0.249144
0.244324
0.239671
0.235177
0.230836
0.226642
0.222589
0.218673
0.21489
0.211237
0.207713
0.204314
0.201041
0.197893
0.194871
0.191976
0.189211
0.186581
0.184091
0.181748
0.179565
0.177556
0.175742
0.174149
0.172818
0.171812
0.171166
0.171245
0.178109
0.18634
0.195874
0.206855
0.219464
0.233938
0.250575
0.269752
0.291941
0.317729
0.347847
0.383227
0.425081
0.474771
0.533573
0.60245
0.681493
0.769012
0.860606
0.949078
1.02622
1.08613
1.12757
1.15345
1.16831
1.17631
1.18038
1.18237
1.1833
1.18373
0.658333
0.657673
0.656641
0.655084
0.652811
0.649591
0.645166
0.639276
0.63169
0.622249
0.610895
0.597695
0.582841
0.566628
0.549417
0.531596
0.51354
0.495586
0.47801
0.460999
0.444723
0.429267
0.414673
0.400946
0.388064
0.375991
0.364677
0.354069
0.344109
0.334744
0.32592
0.317589
0.309707
0.302234
0.295135
0.288378
0.281939
0.275792
0.269918
0.264288
0.258874
0.253662
0.24864
0.243798
0.239125
0.234615
0.230259
0.226053
0.221989
0.218065
0.214277
0.210621
0.207095
0.203697
0.200428
0.197285
0.194271
0.191386
0.188633
0.186017
0.183543
0.181219
0.179056
0.17707
0.17528
0.173712
0.172408
0.171424
0.170796
0.171174
0.178578
0.187141
0.19699
0.208285
0.221225
0.236058
0.253099
0.27274
0.295474
0.321913
0.352813
0.389155
0.432193
0.483299
0.543733
0.61437
0.695087
0.783802
0.875591
0.962861
1.0375
1.09428
1.13281
1.15648
1.16993
1.17711
1.18075
1.18252
1.18336
1.18374
0.658345
0.657724
0.656754
0.655289
0.653147
0.650103
0.645907
0.640296
0.633029
0.623926
0.612902
0.599992
0.585361
0.569283
0.552114
0.534246
0.516067
0.49793
0.480129
0.46289
0.446383
0.430697
0.415884
0.401954
0.388888
0.376649
0.365188
0.354449
0.344375
0.334909
0.325996
0.317587
0.309636
0.302102
0.294948
0.288144
0.281662
0.275478
0.269571
0.263911
0.25847
0.253234
0.248191
0.243329
0.238641
0.234116
0.229748
0.225531
0.22146
0.21753
0.213737
0.210079
0.206552
0.203156
0.199889
0.196752
0.193744
0.190868
0.188126
0.185523
0.183064
0.180757
0.178614
0.176651
0.174886
0.173348
0.172081
0.171138
0.17056
0.171392
0.179054
0.187871
0.197978
0.209542
0.222772
0.237928
0.255337
0.275407
0.298648
0.325696
0.357336
0.394598
0.438771
0.491243
0.553252
0.625585
0.707894
0.797695
0.889564
0.975559
1.04774
1.10156
1.13743
1.15914
1.17134
1.17781
1.18107
1.18266
1.18341
1.18375
0.658356
0.657772
0.656858
0.655477
0.653453
0.650572
0.646586
0.641233
0.634263
0.625478
0.614766
0.602134
0.587719
0.571776
0.554652
0.536745
0.518454
0.500152
0.48215
0.464696
0.447949
0.432038
0.417013
0.402889
0.389648
0.377254
0.365656
0.354797
0.344618
0.33506
0.326067
0.317587
0.309574
0.301986
0.294785
0.287938
0.281419
0.275203
0.269267
0.263581
0.258117
0.25286
0.247799
0.242922
0.238219
0.233683
0.229305
0.22508
0.221002
0.217067
0.213271
0.209611
0.206085
0.20269
0.199427
0.196295
0.193294
0.190426
0.187694
0.185102
0.182656
0.180365
0.17824
0.176296
0.174555
0.173044
0.171813
0.170908
0.170377
0.171708
0.179558
0.188569
0.198881
0.210667
0.224144
0.23958
0.257315
0.27777
0.301474
0.329083
0.361412
0.399539
0.444787
0.498557
0.562065
0.63601
0.719813
0.810593
0.902436
0.987122
1.05693
1.10801
1.14147
1.16145
1.17256
1.17841
1.18135
1.18278
1.18345
1.18375
0.658366
0.657814
0.656951
0.655645
0.653729
0.650994
0.647199
0.642081
0.635384
0.626891
0.61647
0.604098
0.589884
0.574073
0.556994
0.53905
0.520653
0.50219
0.483993
0.466324
0.44937
0.433254
0.418037
0.403736
0.390336
0.377801
0.366079
0.355112
0.344838
0.335198
0.326134
0.317592
0.309525
0.301889
0.294646
0.287764
0.281214
0.27497
0.26901
0.263302
0.257819
0.252545
0.247469
0.242578
0.237864
0.233318
0.228932
0.224701
0.220618
0.216679
0.212881
0.20922
0.205694
0.202302
0.199042
0.195914
0.19292
0.190059
0.187336
0.184755
0.182321
0.180043
0.177934
0.176008
0.174286
0.172796
0.171592
0.170712
0.170209
0.172049
0.180045
0.18921
0.199686
0.211656
0.22534
0.241016
0.259033
0.279827
0.303943
0.332058
0.365016
0.403938
0.450182
0.505159
0.570069
0.645516
0.730696
0.82234
0.914084
0.99747
1.06504
1.11364
1.14496
1.16343
1.1736
1.17893
1.18158
1.18288
1.18349
1.18376
0.658374
0.657851
0.657032
0.655792
0.65397
0.651365
0.647739
0.64283
0.636376
0.628147
0.61799
0.605857
0.591835
0.576141
0.559104
0.541128
0.522636
0.504029
0.485656
0.467796
0.45065
0.434341
0.418947
0.404486
0.390943
0.378283
0.366451
0.355389
0.345034
0.335322
0.326197
0.317602
0.309489
0.301813
0.294535
0.287623
0.281047
0.274781
0.268802
0.263076
0.257577
0.25229
0.247202
0.242301
0.237578
0.233025
0.228633
0.224396
0.220309
0.216368
0.212569
0.208908
0.205383
0.201993
0.198736
0.195612
0.192623
0.189769
0.187054
0.184482
0.182059
0.179793
0.177696
0.175784
0.174078
0.172605
0.17142
0.170558
0.170073
0.172389
0.180493
0.189774
0.200381
0.212496
0.226349
0.242224
0.260479
0.281561
0.306031
0.334586
0.368098
0.407727
0.454864
0.510933
0.577115
0.653926
0.740347
0.832743
0.92434
1.0065
1.07205
1.11844
1.14792
1.16509
1.17447
1.17935
1.18178
1.18296
1.18352
1.18377
0.658382
0.657882
0.657099
0.655914
0.654171
0.651675
0.648192
0.643461
0.637216
0.629216
0.619288
0.607365
0.593512
0.57792
0.560921
0.542917
0.524338
0.505602
0.487074
0.469044
0.451727
0.435259
0.419714
0.405116
0.391453
0.378687
0.366764
0.355623
0.345199
0.33543
0.326254
0.317616
0.309465
0.301757
0.294453
0.287518
0.280922
0.274639
0.268645
0.262906
0.257395
0.252098
0.247
0.242092
0.237363
0.232804
0.228407
0.224167
0.220078
0.216135
0.212335
0.208674
0.20515
0.201762
0.198508
0.195389
0.192404
0.189556
0.186848
0.184283
0.181868
0.179612
0.177525
0.175624
0.17393
0.172469
0.171297
0.170446
0.169969
0.172683
0.180868
0.190237
0.200942
0.213169
0.227152
0.243182
0.261625
0.282939
0.307696
0.336613
0.370586
0.410812
0.458708
0.515715
0.582998
0.660996
0.748497
0.841536
0.93298
1.01405
1.07785
1.12238
1.15032
1.16644
1.17518
1.1797
1.18194
1.18303
1.18354
1.18377
0.658387
0.657905
0.657149
0.656006
0.654323
0.651909
0.648537
0.643944
0.637862
0.630041
0.620293
0.608533
0.594806
0.579301
0.562333
0.544306
0.525658
0.50682
0.488168
0.470006
0.452556
0.435961
0.420299
0.405596
0.391841
0.378994
0.367002
0.355801
0.345327
0.335514
0.3263
0.31763
0.309453
0.301723
0.2944
0.287449
0.280839
0.274544
0.26854
0.262792
0.257273
0.251969
0.246866
0.241953
0.237219
0.232656
0.228257
0.224015
0.219924
0.215981
0.21218
0.20852
0.204997
0.201611
0.198359
0.195243
0.192262
0.189419
0.186715
0.184156
0.181748
0.179499
0.17742
0.175528
0.173841
0.172389
0.171225
0.17038
0.169905
0.172895
0.181139
0.19057
0.201343
0.213647
0.227721
0.24386
0.262436
0.283915
0.308881
0.338064
0.372381
0.413057
0.461535
0.519268
0.587417
0.666359
0.754723
0.84828
0.939603
1.01981
1.08224
1.12534
1.15212
1.16744
1.1757
1.17995
1.18206
1.18308
1.18356
1.18377
0.65839
0.657917
0.657177
0.656056
0.654407
0.65204
0.648729
0.644215
0.638225
0.630506
0.620862
0.609195
0.595543
0.580085
0.563134
0.545091
0.526404
0.507507
0.488784
0.470546
0.45302
0.436353
0.420626
0.405865
0.392059
0.379167
0.367137
0.355903
0.3454
0.335563
0.326328
0.317641
0.30945
0.301708
0.294376
0.287417
0.2808
0.274499
0.26849
0.262737
0.257214
0.251907
0.246801
0.241885
0.237149
0.232584
0.228184
0.223941
0.219849
0.215906
0.212105
0.208445
0.204924
0.201538
0.198288
0.195174
0.192195
0.189355
0.186655
0.184099
0.181695
0.17945
0.177376
0.175488
0.173807
0.172359
0.171199
0.170355
0.169876
0.172999
0.18128
0.190746
0.201554
0.213899
0.228019
0.244213
0.262858
0.284423
0.309499
0.338824
0.373327
0.414248
0.463044
0.521179
0.58981
0.669279
0.758128
0.851975
0.943235
1.02297
1.08465
1.12695
1.15309
1.16799
1.17598
1.18009
1.18212
1.1831
1.18357
1.18378
0.65839
0.657917
0.657177
0.656057
0.654407
0.652041
0.64873
0.644216
0.638226
0.630505
0.620859
0.60919
0.595534
0.580074
0.56312
0.545076
0.526389
0.507492
0.488771
0.470535
0.453012
0.436348
0.420623
0.405864
0.392058
0.379168
0.367139
0.355906
0.345403
0.335566
0.326332
0.317645
0.309453
0.301712
0.29438
0.287421
0.280804
0.274503
0.268493
0.26274
0.257218
0.25191
0.246804
0.241888
0.237153
0.232588
0.228188
0.223945
0.219853
0.215909
0.212109
0.208449
0.204928
0.201542
0.198293
0.195178
0.1922
0.189359
0.186659
0.184103
0.181699
0.179454
0.17738
0.175492
0.173811
0.172363
0.171203
0.170358
0.169879
0.172985
0.181267
0.190732
0.201541
0.213885
0.228004
0.244197
0.262841
0.284406
0.309482
0.338807
0.373312
0.414236
0.463036
0.521177
0.589814
0.669289
0.758142
0.851988
0.943243
1.02297
1.08465
1.12695
1.15309
1.16798
1.17598
1.18009
1.18212
1.1831
1.18357
1.18378
0.658387
0.657905
0.65715
0.656007
0.654324
0.651912
0.648539
0.643946
0.637862
0.630038
0.620286
0.60852
0.594786
0.579273
0.562299
0.544267
0.525619
0.506782
0.488134
0.469978
0.452534
0.435945
0.42029
0.405593
0.391841
0.378997
0.367007
0.355809
0.345336
0.335524
0.326311
0.317641
0.309464
0.301734
0.294411
0.28746
0.28085
0.274555
0.268551
0.262803
0.257284
0.25198
0.246877
0.241964
0.23723
0.232668
0.228268
0.224026
0.219936
0.215992
0.212192
0.208532
0.205009
0.201623
0.198372
0.195255
0.192275
0.189431
0.186728
0.184169
0.181761
0.179511
0.177432
0.175539
0.173853
0.1724
0.171237
0.170391
0.169915
0.172857
0.181101
0.190531
0.201302
0.213605
0.227676
0.243812
0.262385
0.283861
0.308826
0.338008
0.372328
0.413007
0.461491
0.519232
0.587388
0.666332
0.754694
0.848245
0.939566
1.01978
1.08223
1.12533
1.15212
1.16745
1.1757
1.17995
1.18206
1.18308
1.18356
1.18377
0.658382
0.657882
0.6571
0.655916
0.654173
0.651678
0.648194
0.643463
0.637214
0.629209
0.619273
0.607338
0.593469
0.577869
0.560862
0.542853
0.524274
0.505542
0.487021
0.469001
0.451694
0.435237
0.419699
0.405109
0.391453
0.378691
0.366773
0.355634
0.345213
0.335445
0.32627
0.317633
0.309482
0.301775
0.294471
0.287535
0.280939
0.274656
0.268662
0.262923
0.257412
0.252115
0.247018
0.24211
0.237381
0.232822
0.228426
0.224186
0.220097
0.216154
0.212354
0.208694
0.20517
0.201782
0.198528
0.195409
0.192425
0.189577
0.186868
0.184304
0.181889
0.179632
0.177545
0.175644
0.173949
0.172488
0.171317
0.170465
0.169987
0.172622
0.180807
0.190175
0.200876
0.213099
0.227077
0.243102
0.26154
0.282849
0.307603
0.336518
0.370492
0.410721
0.458625
0.51564
0.582932
0.660934
0.748432
0.841465
0.932911
1.014
1.07782
1.12237
1.15033
1.16645
1.17519
1.1797
1.18194
1.18303
1.18354
1.18377
0.658374
0.657852
0.657033
0.655793
0.653972
0.651367
0.647741
0.64283
0.636372
0.628138
0.617971
0.605828
0.591797
0.576087
0.559035
0.54105
0.522554
0.50395
0.485585
0.467736
0.450603
0.434307
0.418924
0.404473
0.390939
0.378286
0.36646
0.355402
0.34505
0.335341
0.326217
0.317624
0.309511
0.301836
0.294559
0.287647
0.281071
0.274804
0.268825
0.2631
0.257601
0.252314
0.247226
0.242325
0.237603
0.23305
0.228658
0.224422
0.220335
0.216394
0.212595
0.208935
0.20541
0.20202
0.198764
0.195641
0.192651
0.189798
0.187083
0.184511
0.182087
0.179821
0.177724
0.175812
0.174105
0.172632
0.171447
0.170585
0.170099
0.172313
0.180415
0.189692
0.200293
0.212401
0.226247
0.242113
0.26036
0.281435
0.305898
0.334449
0.367958
0.407587
0.454726
0.510798
0.57698
0.653785
0.740194
0.832581
0.924188
1.00638
1.07198
1.11842
1.14792
1.1651
1.17448
1.17936
1.18179
1.18296
1.18352
1.18377
0.658366
0.657815
0.656952
0.655647
0.653731
0.650997
0.647202
0.642082
0.635379
0.626879
0.616446
0.60406
0.58983
0.574002
0.556909
0.538954
0.520554
0.502094
0.483906
0.466248
0.449309
0.433206
0.418003
0.403715
0.390326
0.377801
0.366086
0.355125
0.344856
0.335219
0.326158
0.317618
0.309552
0.301917
0.294675
0.287793
0.281242
0.274999
0.269039
0.263331
0.257848
0.252575
0.247499
0.242609
0.237895
0.233349
0.228964
0.224733
0.22065
0.216712
0.212914
0.209254
0.205729
0.202337
0.199077
0.19595
0.192955
0.190095
0.187372
0.184791
0.182357
0.18008
0.17797
0.176043
0.17432
0.17283
0.171625
0.170745
0.17024
0.171965
0.179954
0.189111
0.199578
0.211537
0.22521
0.240876
0.258882
0.279665
0.303771
0.331877
0.364829
0.403747
0.449987
0.50496
0.56986
0.645288
0.730443
0.822068
0.913825
0.997268
1.06493
1.11359
1.14496
1.16344
1.17361
1.17893
1.18159
1.18288
1.18349
1.18376
0.658356
0.657772
0.656859
0.655479
0.653456
0.650576
0.646589
0.641234
0.634258
0.625464
0.614739
0.602089
0.587652
0.571689
0.554548
0.536628
0.518332
0.500031
0.482038
0.464596
0.447866
0.431973
0.416966
0.402858
0.389631
0.377249
0.365661
0.35481
0.344636
0.335083
0.326093
0.317617
0.309605
0.302018
0.294818
0.287972
0.281454
0.275238
0.269302
0.263616
0.258152
0.252896
0.247835
0.242958
0.238256
0.23372
0.229343
0.225118
0.221041
0.217107
0.213311
0.209652
0.206126
0.202732
0.19947
0.196338
0.193337
0.190469
0.187738
0.185146
0.1827
0.180408
0.178282
0.176338
0.174595
0.173082
0.171849
0.170941
0.170406
0.171629
0.179464
0.188461
0.198758
0.210529
0.22399
0.239411
0.25713
0.27757
0.30126
0.328856
0.361174
0.399291
0.444528
0.498284
0.561771
0.635682
0.719443
0.81019
0.902045
0.986808
1.05673
1.10793
1.14146
1.16146
1.17257
1.17842
1.18135
1.18278
1.18345
1.18376
0.658345
0.657725
0.656756
0.655292
0.65315
0.650107
0.64591
0.640296
0.633023
0.62391
0.61287
0.599939
0.585285
0.569183
0.551993
0.53411
0.515924
0.497789
0.479997
0.462775
0.446285
0.430619
0.415825
0.401913
0.388864
0.376639
0.365189
0.35446
0.344394
0.334933
0.326025
0.317619
0.309671
0.302138
0.294986
0.288183
0.281701
0.275518
0.269611
0.263951
0.258511
0.253275
0.248232
0.243372
0.238683
0.234159
0.229792
0.225576
0.221505
0.217576
0.213784
0.210126
0.2066
0.203205
0.199939
0.196802
0.193795
0.190919
0.188177
0.185574
0.183114
0.180807
0.178663
0.176698
0.174932
0.173392
0.172124
0.171177
0.170594
0.171314
0.178955
0.187752
0.197838
0.209381
0.22259
0.237725
0.255113
0.275163
0.298386
0.325416
0.357038
0.394283
0.438437
0.490884
0.552858
0.62514
0.707387
0.797139
0.889016
0.975104
1.04744
1.10142
1.13739
1.15915
1.17136
1.17783
1.18108
1.18266
1.18341
1.18375
0.658333
0.657674
0.656642
0.655087
0.652815
0.649595
0.645169
0.639275
0.631683
0.62223
0.610859
0.597636
0.582756
0.566515
0.549277
0.531436
0.51337
0.495415
0.477847
0.460852
0.444598
0.429167
0.414597
0.400892
0.38803
0.375974
0.364674
0.354077
0.344127
0.334769
0.325951
0.317624
0.309745
0.302274
0.295177
0.288422
0.281983
0.275837
0.269964
0.264334
0.25892
0.253709
0.248688
0.243846
0.239174
0.234664
0.23031
0.226104
0.222041
0.218118
0.21433
0.210675
0.20715
0.203753
0.200484
0.197341
0.194327
0.191443
0.18869
0.186074
0.1836
0.181276
0.179113
0.177126
0.175336
0.173768
0.172465
0.171481
0.170852
0.171134
0.178484
0.187012
0.196828
0.208093
0.221004
0.235811
0.252827
0.272444
0.295154
0.321568
0.352444
0.388761
0.431769
0.48284
0.543222
0.61379
0.694424
0.783073
0.87486
0.962236
1.03707
1.09406
1.13273
1.15648
1.16995
1.17713
1.18076
1.18253
1.18336
1.18374
0.65832
0.657617
0.65652
0.654865
0.652452
0.649041
0.644368
0.638175
0.630244
0.620434
0.608718
0.595198
0.580098
0.563736
0.546443
0.528633
0.51068
0.492899
0.475542
0.458806
0.442807
0.427623
0.413286
0.399798
0.387133
0.375255
0.364114
0.353659
0.343834
0.334587
0.325866
0.317627
0.309825
0.302422
0.295385
0.288684
0.282293
0.27619
0.270355
0.26476
0.259377
0.254193
0.249197
0.244377
0.239725
0.235232
0.230892
0.226698
0.222646
0.218731
0.214949
0.211297
0.207775
0.204378
0.201107
0.19796
0.194939
0.192044
0.18928
0.18665
0.184159
0.181817
0.179633
0.177624
0.17581
0.174218
0.172891
0.171888
0.171249
0.171266
0.177993
0.186179
0.195672
0.206615
0.219191
0.233635
0.250243
0.269391
0.29155
0.317309
0.347396
0.382742
0.424557
0.474196
0.532932
0.60172
0.680659
0.768086
0.859665
0.948254
1.02563
1.0858
1.12745
1.15343
1.16833
1.17633
1.18039
1.18237
1.18331
1.18373
0.658305
0.657557
0.656387
0.654626
0.652061
0.648444
0.643508
0.636997
0.628707
0.618522
0.606446
0.592613
0.577271
0.560751
0.543437
0.525691
0.507871
0.490277
0.473147
0.45666
0.440918
0.425988
0.411893
0.398629
0.386171
0.374479
0.363507
0.353201
0.343509
0.334381
0.325766
0.317621
0.309903
0.302575
0.295605
0.288964
0.282627
0.276572
0.27078
0.265223
0.259876
0.254724
0.249756
0.244962
0.240332
0.235858
0.231535
0.227356
0.223315
0.219409
0.215633
0.211984
0.20846
0.205061
0.201785
0.198633
0.195606
0.192703
0.189927
0.187283
0.184776
0.182413
0.180206
0.17817
0.176326
0.174701
0.173338
0.172304
0.171632
0.171446
0.177152
0.185025
0.194211
0.204837
0.217073
0.23114
0.247321
0.265976
0.287556
0.312627
0.341891
0.376231
0.416814
0.46498
0.52202
0.588972
0.666135
0.752238
0.843477
0.93317
1.01309
1.07661
1.12148
1.14995
1.16647
1.17542
1.17997
1.18219
1.18324
1.18372
0.65829
0.657492
0.656245
0.654369
0.651641
0.647805
0.642588
0.63574
0.627073
0.616497
0.604052
0.589903
0.574327
0.557678
0.540356
0.522661
0.504967
0.487563
0.470664
0.454425
0.438942
0.424268
0.410419
0.397386
0.385141
0.373643
0.362846
0.352698
0.343148
0.334146
0.325645
0.3176
0.309973
0.302727
0.29583
0.289255
0.282977
0.276975
0.271231
0.265718
0.260411
0.255294
0.250358
0.245593
0.240989
0.236538
0.232235
0.228073
0.224046
0.220151
0.216385
0.212745
0.209229
0.205833
0.202557
0.199401
0.196365
0.19345
0.190659
0.187997
0.185467
0.183078
0.180838
0.178763
0.176872
0.175188
0.173746
0.172615
0.171806
0.171423
0.175553
0.1833
0.192296
0.202673
0.214604
0.228306
0.244055
0.262199
0.283176
0.307531
0.335939
0.369244
0.408562
0.455214
0.51052
0.575587
0.650907
0.735578
0.826334
0.916999
0.999435
1.06642
1.11477
1.14599
1.16434
1.17437
1.17949
1.18199
1.18317
1.1837
0.658274
0.657423
0.656093
0.654094
0.651192
0.647121
0.641606
0.634402
0.62534
0.614358
0.601531
0.58706
0.571248
0.554461
0.537085
0.519502
0.501951
0.48474
0.468074
0.452089
0.436869
0.422455
0.408858
0.396061
0.384035
0.372738
0.362124
0.352141
0.342739
0.333871
0.325491
0.317555
0.310026
0.302868
0.296052
0.289549
0.283337
0.277394
0.271702
0.266238
0.260974
0.255898
0.250998
0.246264
0.241688
0.237262
0.23298
0.228834
0.224822
0.220938
0.21718
0.213545
0.21003
0.206634
0.203356
0.200196
0.197154
0.19423
0.191428
0.18875
0.186201
0.183788
0.181519
0.179404
0.177462
0.175713
0.174184
0.172919
0.171963
0.171345
0.17352
0.181234
0.190099
0.20025
0.211877
0.225202
0.240499
0.258108
0.278452
0.302057
0.329576
0.361815
0.399837
0.444941
0.498473
0.561608
0.635014
0.718145
0.808266
0.899742
0.984616
1.05517
1.10723
1.14149
1.16191
1.17316
1.17893
1.18176
1.18309
1.18369
0.658256
0.657348
0.65593
0.653799
0.650711
0.646389
0.640558
0.632979
0.623502
0.6121
0.598881
0.584083
0.568033
0.551111
0.533701
0.516172
0.498832
0.481848
0.465403
0.449662
0.434701
0.420548
0.407204
0.394648
0.382847
0.371757
0.361332
0.351522
0.342277
0.33355
0.325297
0.317477
0.310053
0.302991
0.296261
0.289837
0.283695
0.277816
0.272183
0.266772
0.261557
0.256524
0.251664
0.246967
0.242424
0.238027
0.233771
0.229649
0.225658
0.221792
0.218048
0.214423
0.210915
0.207523
0.204245
0.201081
0.198032
0.195098
0.192282
0.189586
0.187015
0.184576
0.182276
0.180127
0.178141
0.176337
0.174742
0.173388
0.172335
0.171599
0.172324
0.179616
0.188131
0.197904
0.209118
0.221986
0.236768
0.253788
0.273452
0.296265
0.322853
0.353991
0.390684
0.434203
0.48592
0.54707
0.618489
0.699962
0.789279
0.881385
0.968595
1.04278
1.0988
1.1364
1.15914
1.17178
1.1783
1.18149
1.18299
1.18367
0.658238
0.657268
0.655754
0.653482
0.650194
0.645605
0.639437
0.631462
0.621552
0.609714
0.596094
0.580964
0.564676
0.54762
0.530178
0.512695
0.495469
0.478721
0.462577
0.447107
0.432416
0.418531
0.405445
0.393136
0.381565
0.370689
0.36046
0.350829
0.341748
0.333171
0.325053