/*--------------------------------*- C++ -*----------------------------------*\
  =========                 |
  \\      /  F ield         | OpenFOAM: The Open Source CFD Toolbox
   \\    /   O peration     | Website:  https://openfoam.org
    \\  /    A nd           | Version:  8
     \\/     M anipulation  |
\*---------------------------------------------------------------------------*/
FoamFile
{
    version     2.0;
    format      ascii;
    class       volScalarField;
    location    "40/fluid";
    object      T;
}
// * * * * * * * * * * * * * * * * * * * * * * * * * * * * * * * * * * * * * //

dimensions      [0 0 0 1 0 0 0];

internalField   nonuniform List<scalar> 
4000
(
293.236
294.012
295.237
297.095
299.81
303.623
308.765
315.425
323.72
333.685
345.284
358.422
372.976
388.809
405.783
423.772
442.659
462.343
482.737
503.77
525.379
547.513
570.174
593.291
616.844
640.815
665.191
689.96
715.109
740.629
766.514
792.757
819.354
846.301
873.59
901.216
929.168
957.436
986.006
1014.87
1044.06
1073.56
1103.37
1133.45
1163.8
1194.4
1225.23
1256.27
1287.49
1318.88
1350.4
1382.02
1413.71
1445.43
1477.14
1508.82
1540.41
1571.86
1603.11
1634.05
1664.62
1694.71
1724.22
1753.04
1780.97
1807.84
1833.38
1857.31
1879.26
1898.74
1915.19
1926.82
1894.8
1824.64
1749.02
1669.04
1585.34
1498.58
1409.45
1318.59
1226.65
1134.26
1042.09
950.831
861.083
773.561
689.473
610.35
537.85
473.683
419.41
376.097
343.925
321.938
308.242
300.444
296.378
294.408
293.495
293.089
293.221
293.944
295.079
296.789
299.279
302.774
307.503
313.67
321.425
330.847
341.94
354.644
368.855
384.444
401.272
419.202
438.108
457.877
478.41
499.626
521.457
543.873
566.753
590.105
613.9
638.13
662.783
687.843
713.267
739.053
765.198
791.7
818.553
845.754
873.293
901.187
929.397
957.922
986.751
1015.87
1045.32
1075.07
1105.12
1135.45
1166.04
1196.87
1227.92
1259.16
1290.57
1322.14
1353.83
1385.62
1417.48
1449.36
1481.24
1513.06
1544.77
1576.3
1607.6
1638.6
1669.2
1699.3
1728.77
1757.51
1785.35
1812.1
1837.49
1861.22
1882.85
1901.77
1917.28
1926.22
1883.42
1813.43
1737.5
1656.74
1572.04
1484.24
1394.08
1302.24
1209.38
1116.16
1023.24
931.35
841.082
753.269
669.284
590.768
519.502
457.285
405.656
365.482
336.546
317.422
305.785
299.244
295.847
294.195
293.423
293.076
293.205
293.878
294.933
296.524
298.841
302.099
306.522
312.312
319.627
328.563
339.146
351.345
365.08
380.245
396.717
414.37
433.08
452.733
473.224
494.461
516.373
538.918
562.015
585.633
609.751
634.328
659.287
684.615
710.338
736.442
762.916
789.754
816.948
844.494
872.386
900.593
929.126
957.97
987.11
1016.54
1046.29
1076.33
1106.67
1137.28
1168.14
1199.24
1230.55
1262.06
1293.74
1325.58
1357.54
1389.59
1421.69
1453.82
1485.92
1517.95
1549.85
1581.56
1613.06
1644.27
1675.1
1705.47
1735.25
1764.26
1792.34
1819.29
1844.85
1868.69
1890.41
1909.39
1924.82
1930.06
1872.04
1799.21
1720.91
1638.09
1551.62
1462.32
1370.91
1278.09
1184.52
1090.89
997.911
906.303
816.701
730.094
647.95
571.903
503.646
444.782
396.532
359.383
332.806
315.274
304.636
298.676
295.586
294.084
293.383
293.069
293.191
293.817
294.798
296.278
298.436
301.478
305.618
311.062
317.975
326.467
336.585
348.319
361.609
376.364
392.477
409.831
428.308
447.798
468.198
489.417
511.408
534.025
557.286
581.133
605.456
630.221
655.443
681.097
707.166
733.635
760.493
787.731
815.337
843.301
871.639
900.31
929.309
958.623
988.234
1018.14
1048.35
1078.86
1109.66
1140.73
1172.03
1203.56
1235.29
1267.2
1299.26
1331.46
1363.77
1396.15
1428.58
1461.01
1493.42
1525.74
1557.94
1589.97
1621.73
1653.14
1684.12
1714.58
1744.38
1773.39
1801.42
1828.25
1853.63
1877.24
1898.67
1917.4
1933.01
1930.81
1860.13
1782.56
1700.91
1615.63
1527.33
1436.68
1344.33
1250.94
1157.15
1063.67
971.214
880.443
792.028
707.055
626.99
553.408
487.919
432
386.714
352.352
328.181
312.511
303.142
297.942
295.255
293.948
293.336
293.06
293.178
293.762
294.678
296.06
298.076
300.924
304.81
309.938
316.48
324.56
334.242
345.535
358.4
372.763
388.529
405.588
423.831
443.15
463.447
484.65
506.641
529.379
552.74
576.666
601.154
626.159
651.651
677.605
704
730.82
758.052
785.684
813.703
842.101
870.857
899.962
929.405
959.17
989.236
1019.59
1050.26
1081.23
1112.48
1143.99
1175.75
1207.72
1239.9
1272.26
1304.78
1337.42
1370.15
1402.95
1435.78
1468.6
1501.36
1534.02
1566.54
1598.84
1630.85
1662.5
1693.69
1724.29
1754.18
1783.18
1811.09
1837.63
1862.48
1885.21
1905.14
1921.64
1934.04
1911.2
1838.36
1759.86
1676.96
1590.46
1501.11
1409.67
1316.83
1223.26
1129.63
1036.63
944.984
855.285
768.267
685.103
607.245
536.222
473.565
420.624
378.266
346.543
324.512
310.385
302.008
297.382
295
293.84
293.298
293.054
293.166
293.712
294.567
295.858
297.745
300.412
304.064
308.9
315.099
322.795
332.071
342.953
355.421
369.416
384.855
401.637
419.659
438.821
459.037
480.205
502.194
524.922
548.358
572.437
597.112
622.341
648.091
674.335
701.049
728.215
755.819
783.845
812.284
841.127
870.33
899.903
929.83
960.09
990.658
1021.52
1052.71
1084.19
1115.96
1147.99
1180.25
1212.74
1245.4
1278.22
1311.18
1344.26
1377.41
1410.61
1443.83
1477.02
1510.13
1543.11
1575.91
1608.46
1640.69
1672.5
1703.81
1734.47
1764.34
1793.23
1820.91
1847.09
1871.33
1893.11
1911.4
1925.77
1933.52
1886.01
1814.16
1735.73
1652.29
1565.06
1475.07
1383.16
1290.1
1196.58
1103.3
1010.94
920.203
831.64
746.055
664.687
588.958
520.351
460.328
410.121
370.433
341.118
321.053
308.364
300.925
296.849
294.757
293.739
293.262
293.047
293.155
293.666
294.466
295.674
297.441
299.943
303.378
307.945
313.823
321.16
330.053
340.547
352.639
366.286
381.417
397.941
415.771
434.813
454.922
475.993
497.966
520.756
544.292
568.513
593.366
618.808
644.802
671.319
698.334
725.826
753.777
782.17
810.989
840.235
869.874
899.894
930.279
961.005
992.045
1023.39
1055.06
1087.03
1119.28
1151.79
1184.54
1217.5
1250.65
1283.96
1317.39
1350.92
1384.52
1418.15
1451.76
1485.33
1518.81
1552.13
1585.25
1618.09
1650.57
1682.6
1714.08
1744.86
1774.78
1803.64
1831.2
1857.15
1881.13
1902.68
1920.86
1935.12
1938.5
1873.1
1797.12
1715.86
1630.42
1541.79
1450.85
1358.37
1265.09
1171.66
1078.75
987.049
897.185
809.714
725.509
645.843
572.119
505.789
448.25
400.622
363.437
336.348
318.063
306.642
300.01
296.399
294.552
293.654
293.232
293.042
293.145
293.623
294.372
295.503
297.159
299.509
302.743
307.057
312.637
319.637
328.169
338.295
350.031
363.348
378.189
394.477
412.122
430.987
450.994
472.04
494.031
516.885
540.525
564.887
589.916
615.566
641.798
668.581
695.887
723.696
751.988
780.748
809.958
839.596
869.648
900.099
930.929
962.111
993.613
1025.43
1057.57
1090.02
1122.75
1155.74
1188.96
1222.38
1256
1289.76
1323.63
1357.58
1391.58
1425.59
1459.56
1493.45
1527.22
1560.81
1594.15
1627.18
1659.81
1691.94
1723.46
1754.25
1784.11
1812.88
1840.31
1866.11
1889.88
1911.13
1928.95
1943.06
1937.24
1862.25
1781.87
1697.63
1610.16
1520.15
1428.33
1335.37
1241.93
1148.63
1056.11
965.049
875.998
789.544
706.631
628.551
556.693
492.479
437.247
392.007
357.127
332.069
315.393
305.11
299.197
296
294.37
293.577
293.205
293.037
293.136
293.583
294.285
295.345
296.898
299.106
302.153
306.232
311.53
318.212
326.402
336.18
347.577
360.582
375.15
391.214
408.657
427.395
447.325
468.347
490.362
513.283
537.031
561.536
586.739
612.593
639.055
666.092
693.676
721.783
750.394
779.492
809.06
839.061
869.498
900.349
931.593
963.2
995.132
1027.39
1059.97
1092.87
1126.05
1159.48
1193.14
1227
1261.03
1295.22
1329.52
1363.89
1398.3
1432.71
1467.07
1501.33
1535.43
1569.31
1602.91
1636.15
1668.94
1701.19
1732.75
1763.48
1793.24
1821.78
1848.85
1874.09
1897.08
1917.11
1933.53
1945.74
1921.89
1845.23
1763.77
1678.48
1590.12
1499.44
1407.18
1314
1220.55
1127.45
1035.35
944.888
856.575
771.046
689.319
612.696
542.559
480.308
427.224
384.208
351.464
328.269
313.047
303.774
298.493
295.654
294.213
293.511
293.182
293.033
293.128
293.547
294.204
295.198
296.655
298.731
301.603
305.461
310.496
316.878
324.744
334.191
345.265
357.972
372.282
388.112
405.389
424.015
443.883
464.891
486.938
509.932
533.789
558.438
583.815
609.868
636.554
663.837
691.688
720.081
748.996
778.413
808.312
838.674
869.481
900.714
932.347
964.351
996.684
1029.34
1062.34
1095.65
1129.25
1163.1
1197.17
1231.44
1265.87
1300.43
1335.08
1369.81
1404.54
1439.24
1473.88
1508.39
1542.73
1576.84
1610.64
1644.04
1676.97
1709.3
1740.92
1771.66
1801.32
1829.63
1856.3
1880.92
1902.99
1921.43
1936.17
1945.55
1900.8
1825.7
1744.85
1659.59
1571.03
1480.11
1387.67
1294.43
1201.05
1108.19
1016.47
926.529
838.861
754.154
673.494
598.194
529.633
469.194
418.104
377.153
346.38
324.886
310.974
302.602
297.877
295.353
294.075
293.454
293.161
293.029
293.12
293.512
294.128
295.061
296.429
298.382
301.09
304.743
309.53
315.628
323.188
332.318
343.084
355.503
369.556
385.184
402.308
420.831
440.648
461.652
483.738
506.81
530.781
555.573
581.12
607.368
634.269
661.786
689.888
718.549
747.746
777.459
807.669
838.358
869.505
901.088
933.082
965.451
998.153
1031.19
1064.57
1098.26
1132.23
1166.46
1200.91
1235.55
1270.34
1305.26
1340.27
1375.32
1410.38
1445.41
1480.35
1515.14
1549.72
1584.04
1618.03
1651.6
1684.64
1717.05
1748.67
1779.34
1808.85
1836.95
1863.29
1887.45
1908.82
1926.39
1939.81
1946.77
1886.59
1810.85
1729.35
1643.46
1554.37
1463.05
1370.33
1276.95
1183.59
1090.87
999.446
909.922
822.783
738.777
659.056
584.94
517.813
459.044
409.803
370.77
341.818
321.878
309.148
301.575
297.34
295.09
293.955
293.403
293.143
293.026
293.112
293.48
294.058
294.933
296.219
298.057
300.614
304.073
308.628
314.459
321.728
330.559
341.032
353.184
366.995
382.428
399.407
417.833
437.6
458.607
480.739
503.893
527.979
552.915
578.631
605.068
632.179
659.922
688.265
717.181
746.646
776.64
807.141
838.131
869.589
901.493
933.814
966.514
999.55
1032.93
1066.65
1100.68
1135
1169.57
1204.36
1239.34
1274.47
1309.71
1345.02
1380.37
1415.71
1451
1486.19
1521.22
1556.02
1590.54
1624.69
1658.39
1691.53
1723.99
1755.62
1786.27
1815.71
1843.68
1869.85
1893.79
1914.89
1932.22
1945.33
1949.96
1879.74
1801.28
1717.85
1630.58
1540.49
1448.46
1355.27
1261.62
1168.14
1075.46
984.221
894.985
808.255
724.834
645.919
572.851
507.022
449.787
402.26
365.005
337.731
319.208
307.539
300.676
296.87
294.861
293.85
293.359
293.128
293.023
293.105
293.451
293.993
294.815
296.025
297.757
300.172
303.452
307.789
313.37
320.365
328.912
339.105
350.995
364.583
379.835
396.68
415.027
434.769
455.778
477.954
501.19
525.389
550.464
576.342
602.96
630.268
658.223
686.791
715.943
745.656
775.907
806.676
837.943
869.686
901.881
934.497
967.495
1000.83
1034.51
1068.54
1102.88
1137.51
1172.39
1207.48
1242.76
1278.18
1313.71
1349.31
1384.94
1420.54
1456.07
1491.48
1526.72
1561.7
1596.38
1630.67
1664.47
1697.68
1730.18
1761.83
1792.44
1821.81
1849.66
1875.68
1899.43
1920.3
1937.41
1950.34
1951.5
1875.48
1794.21
1708.71
1619.93
1528.74
1435.93
1342.2
1248.19
1154.53
1061.8
970.65
881.594
795.161
712.208
633.984
561.844
497.189
441.365
395.424
359.814
334.081
316.844
306.125
299.89
296.462
294.661
293.758
293.32
293.114
293.021
293.099
293.424
293.934
294.707
295.846
297.48
299.765
302.879
307.013
312.361
319.1
327.379
337.31
348.956
362.332
377.412
394.13
412.395
432.098
453.12
475.352
498.675
522.988
548.201
574.236
601.028
628.524
656.678
685.456
714.827
744.767
775.253
806.264
837.779
869.777
902.233
935.113
968.375
1001.98
1035.93
1070.22
1104.84
1139.73
1174.88
1210.24
1245.78
1281.46
1317.24
1353.08
1388.94
1424.76
1460.51
1496.12
1531.53
1566.68
1601.5
1635.9
1669.79
1703.07
1735.6
1767.25
1797.82
1827.11
1854.84
1880.66
1904.16
1924.64
1941.32
1953.68
1949.63
1871.07
1787.78
1700.69
1610.69
1518.57
1425.05
1330.81
1236.45
1142.57
1049.75
958.61
869.648
783.422
700.852
623.212
551.882
488.28
433.739
389.258
355.16
330.837
314.76
304.888
299.206
296.107
294.488
293.679
293.287
293.102
293.018
293.093
293.399
293.879
294.608
295.683
297.227
299.393
302.354
306.303
311.434
317.935
325.966
335.652
347.071
360.249
375.169
391.773
409.971
429.652
450.698
472.976
496.38
520.801
546.143
572.325
599.279
626.948
655.286
684.256
713.827
743.972
774.67
805.898
837.635
869.858
902.542
935.651
969.143
1002.98
1037.16
1071.69
1106.54
1141.67
1177.04
1212.63
1248.39
1284.29
1320.29
1356.34
1392.39
1428.4
1464.32
1500.1
1535.66
1570.94
1605.88
1640.37
1674.34
1707.67
1740.23
1771.87
1802.4
1831.61
1859.21
1884.86
1908.12
1928.22
1944.47
1956.28
1946.56
1866.3
1781.61
1693.4
1602.49
1509.65
1415.57
1320.9
1226.23
1132.12
1039.18
948.007
859.077
772.99
690.711
613.555
542.93
480.268
426.893
383.742
351.026
327.976
312.938
303.814
298.615
295.8
294.338
293.61
293.258
293.092
293.017
293.088
293.377
293.83
294.519
295.536
297.001
299.059
301.882
305.662
310.596
316.879
324.683
334.143
345.352
358.349
373.123
389.623
407.759
427.419
448.479
470.813
494.299
518.825
544.291
570.611
597.714
625.542
654.046
683.189
712.937
743.266
774.152
805.572
837.504
869.925
902.804
936.105
969.789
1003.82
1038.19
1072.91
1107.96
1143.28
1178.85
1214.63
1250.58
1286.66
1322.83
1359.05
1395.27
1431.44
1467.51
1503.41
1539.1
1574.49
1609.51
1644.08
1678.11
1711.47
1744.04
1775.66
1806.15
1835.28
1862.78
1888.28
1911.35
1931.17
1947.15
1958.63
1943.1
1861.63
1775.95
1686.92
1595.34
1501.95
1407.43
1312.4
1217.45
1123.15
1030.07
938.829
849.885
763.867
681.802
605.04
535.014
473.177
420.842
378.887
347.407
325.491
311.366
302.892
298.109
295.539
294.211
293.552
293.233
293.083
293.015
293.083
293.357
293.788
294.442
295.408
296.802
298.766
301.467
305.097
309.856
315.945
323.544
332.803
343.824
356.658
371.304
387.713
405.799
425.447
446.531
468.919
492.478
517.099
542.676
569.119
596.356
624.324
652.974
682.267
712.17
742.657
773.704
805.288
837.39
869.976
903.015
936.472
970.309
1004.49
1039.02
1073.9
1109.1
1144.57
1180.3
1216.23
1252.33
1288.55
1324.87
1361.22
1397.57
1433.86
1470.04
1506.05
1541.83
1577.3
1612.4
1647.02
1681.08
1714.46
1747.03
1778.64
1809.09
1838.15
1865.55
1890.93
1913.85
1933.47
1949.26
1960.54
1939.58
1857.31
1770.95
1681.35
1589.28
1495.49
1400.64
1305.33
1210.16
1115.67
1022.46
931.122
842.121
756.121
674.197
597.736
528.2
467.062
415.624
374.711
344.31
323.377
310.037
302.117
297.686
295.32
294.104
293.503
293.212
293.076
293.014
293.08
293.341
293.753
294.378
295.302
296.637
298.52
301.119
304.621
309.231
315.153
322.577
331.663
342.522
355.218
369.756
386.09
404.134
423.775
444.881
467.315
490.947
515.653
541.327
567.877
595.228
623.314
652.088
681.507
711.539
742.158
773.34
805.062
837.295
870.007
903.167
936.742
970.693
1004.99
1039.63
1074.63
1109.94
1145.53
1181.37
1217.42
1253.63
1289.97
1326.38
1362.84
1399.28
1435.67
1471.93
1508.02
1543.86
1579.39
1614.53
1649.19
1683.27
1716.66
1749.22
1780.8
1811.21
1840.21
1867.54
1892.83
1915.64
1935.12
1950.8
1961.98
1936.5
1853.67
1766.85
1676.86
1584.46
1490.39
1395.3
1299.78
1204.42
1109.78
1016.43
924.986
835.902
749.875
668.024
591.769
522.603
462.018
411.313
371.264
341.762
321.646
308.954
301.488
297.343
295.143
294.018
293.463
293.195
293.07
293.013
293.077
293.33
293.727
294.33
295.222
296.512
298.334
300.853
304.257
308.751
314.544
321.832
330.783
341.52
354.11
368.566
384.845
402.863
422.502
443.629
466.104
489.791
514.565
540.315
566.947
594.384
622.56
651.425
680.939
711.07
741.789
773.076
804.897
837.223
870.023
903.267
936.921
970.949
1005.32
1040.04
1075.11
1110.5
1146.17
1182.08
1218.2
1254.48
1290.89
1327.38
1363.9
1400.41
1436.85
1473.16
1509.3
1545.18
1580.75
1615.91
1650.59
1684.68
1718.07
1750.62
1782.17
1812.54
1841.49
1868.75
1893.97
1916.71
1936.1
1951.72
1962.88
1934.27
1851.05
1763.91
1673.65
1581.05
1486.79
1391.54
1295.88
1200.38
1105.62
1012.16
920.609
831.431
745.347
663.508
587.365
518.437
458.238
408.066
368.664
339.843
320.348
308.146
301.021
297.09
295.014
293.956
293.435
293.183
293.065
293.012
293.075
293.323
293.712
294.303
295.178
296.442
298.231
300.705
304.053
308.482
314.201
321.413
330.288
340.955
353.487
367.898
384.147
402.151
421.79
442.93
465.427
489.146
513.957
539.75
566.428
593.912
622.138
651.054
680.621
710.807
741.586
772.926
804.797
837.17
870.015
903.302
936.997
971.064
1005.47
1040.22
1075.33
1110.76
1146.46
1182.42
1218.57
1254.89
1291.34
1327.86
1364.41
1400.95
1437.41
1473.76
1509.91
1545.81
1581.39
1616.57
1651.25
1685.34
1718.71
1751.25
1782.78
1813.12
1842.04
1869.26
1894.43
1917.12
1936.47
1952.08
1963.29
1933.18
1849.68
1762.35
1671.96
1579.25
1484.91
1389.58
1293.86
1198.29
1103.46
1009.94
918.318
829.078
742.951
661.105
585.007
516.196
456.197
406.309
367.254
338.8
319.642
307.707
300.767
296.952
294.943
293.922
293.419
293.177
293.063
293.011
293.075
293.323
293.712
294.303
295.178
296.442
298.23
300.704
304.053
308.482
314.203
321.416
330.294
340.963
353.497
367.911
384.162
402.167
421.806
442.945
465.442
489.158
513.967
539.758
566.433
593.915
622.138
651.053
680.618
710.802
741.579
772.917
804.786
837.157
870.001
903.287
936.981
971.047
1005.45
1040.2
1075.31
1110.74
1146.44
1182.39
1218.55
1254.86
1291.31
1327.83
1364.38
1400.91
1437.38
1473.72
1509.87
1545.77
1581.35
1616.52
1651.2
1685.29
1718.67
1751.2
1782.73
1813.07
1841.99
1869.21
1894.38
1917.07
1936.42
1952.03
1963.25
1933.32
1849.81
1762.47
1672.07
1579.35
1485.01
1389.67
1293.93
1198.36
1103.52
1009.98
918.354
829.101
742.963
661.107
585.003
516.188
456.188
406.303
367.251
338.799
319.642
307.708
300.768
296.953
294.943
293.922
293.419
293.177
293.063
293.011
293.077
293.329
293.726
294.329
295.221
296.511
298.333
300.853
304.257
308.753
314.548
321.84
330.796
341.538
354.135
368.597
384.881
402.901
422.541
443.666
466.137
489.819
514.588
540.331
566.956
594.384
622.553
651.412
680.919
711.043
741.757
773.038
804.855
837.177
869.976
903.218
936.871
970.897
1005.26
1039.98
1075.05
1110.43
1146.1
1182.01
1218.12
1254.4
1290.81
1327.29
1363.81
1400.31
1436.74
1473.05
1509.18
1545.06
1580.62
1615.78
1650.46
1684.54
1717.92
1750.47
1782.02
1812.39
1841.34
1868.6
1893.82
1916.55
1935.94
1951.56
1962.74
1934.68
1851.42
1764.25
1673.97
1581.35
1487.08
1391.8
1296.12
1200.6
1105.81
1012.32
920.737
831.528
745.415
663.553
587.393
518.457
458.255
408.083
368.678
339.852
320.352
308.147
301.021
297.089
295.013
293.955
293.434
293.183
293.065
293.012
293.08
293.341
293.752
294.377
295.301
296.636
298.519
301.118
304.622
309.234
315.161
322.591
331.684
342.553
355.258
369.804
386.145
404.194
423.837
444.94
467.37
490.994
515.69
541.352
567.891
595.229
623.304
652.066
681.475
711.498
742.109
773.283
805
837.228
869.937
903.094
936.665
970.613
1004.9
1039.54
1074.53
1109.84
1145.42
1181.25
1217.29
1253.49
1289.82
1326.23
1362.68
1399.12
1435.49
1471.75
1507.83
1543.66
1579.18
1614.32
1648.97
1683.04
1716.42
1748.98
1780.56
1810.96
1839.96
1867.28
1892.57
1915.38
1934.86
1950.53
1961.74
1937.14
1854.27
1767.4
1677.38
1584.96
1490.86
1395.74
1300.19
1204.79
1110.1
1016.71
925.213
836.079
750.007
668.117
591.834
522.652
462.058
411.348
371.292
341.78
321.655
308.956
301.487
297.341
295.142
294.018
293.463
293.195
293.07
293.013
293.083
293.357
293.788
294.441
295.408
296.802
298.766
301.468
305.1
309.863
315.956
323.563
332.832
343.864
356.709
371.366
387.784
405.875
425.525
446.607
468.989
492.54
517.147
542.71
569.14
596.361
624.315
652.951
682.23
712.121
742.597
773.634
805.21
837.302
869.88
902.912
936.362
970.193
1004.37
1038.89
1073.76
1108.95
1144.42
1180.13
1216.05
1252.14
1288.36
1324.66
1361.01
1397.34
1433.62
1469.79
1505.79
1541.56
1577.02
1612.1
1646.72
1680.77
1714.14
1746.7
1778.3
1808.74
1837.8
1865.19
1890.57
1913.49
1933.1
1948.89
1960.18
1940.38
1858.07
1771.68
1682.05
1589.96
1496.14
1401.25
1305.9
1210.68
1116.13
1022.86
931.463
842.4
756.343
674.371
597.872
528.312
467.157
415.704
374.773
344.35
323.396
310.042
302.116
297.683
295.318
294.102
293.502
293.212
293.075
293.014
293.088
293.377
293.83
294.519
295.536
297
299.059
301.884
305.666
310.604
316.893
324.705
334.176
345.398
358.409
373.198
389.709
407.853
427.518
448.577
470.905
494.379
518.89
544.34
570.643
597.729
625.539
654.026
683.151
712.885
743.199
774.071
805.48
837.401
869.812
902.68
935.972
969.646
1003.66
1038.03
1072.74
1107.77
1143.08
1178.64
1214.41
1250.34
1286.41
1322.57
1358.78
1394.98
1431.14
1467.19
1503.08
1538.75
1574.13
1609.14
1643.7
1677.71
1711.05
1743.61
1775.23
1805.71
1834.84
1862.33
1887.83
1910.9
1930.72
1946.7
1958.21
1943.98
1862.51
1776.82
1687.78
1596.18
1502.77
1408.21
1313.14
1218.13
1123.76
1030.61
939.293
850.274
764.188
682.065
605.258
535.201
473.34
420.981
378.995
347.477
325.527
311.378
302.892
298.106
295.536
294.208
293.551
293.232
293.083
293.015
293.093
293.399
293.879
294.607
295.682
297.227
299.394
302.357
306.308
311.444
317.951
325.992
335.69
347.124
360.319
375.256
391.875
410.082
429.769
450.814
473.084
496.477
520.883
546.208
572.37
599.303
626.951
655.268
684.217
713.768
743.896
774.576
805.789
837.512
869.722
902.393
935.49
968.97
1002.79
1036.96
1071.48
1106.31
1141.43
1176.79
1212.36
1248.11
1283.99
1319.97
1356.01
1392.04
1428.04
1463.94
1499.7
1535.24
1570.51
1605.42
1639.9
1673.85
1707.16
1739.71
1771.34
1801.87
1831.07
1858.67
1884.33
1907.6
1927.73
1944.02
1955.89
1947.34
1867.19
1782.56
1694.38
1603.48
1510.63
1416.53
1321.81
1227.08
1132.9
1039.88
948.612
859.596
773.427
691.08
613.871
543.207
480.514
427.104
383.908
351.138
328.037
312.961
303.817
298.611
295.796
294.335
293.609
293.257
293.092
293.017
293.099
293.424
293.933
294.706
295.846
297.48
299.766
302.882
307.02
312.372
319.118
327.408
337.353
349.016
362.412
377.512
394.248
412.527
432.237
453.261
475.485
498.796
523.092
548.285
574.297
601.065
628.536
656.666
685.42
714.769
744.688
775.153
806.145
837.642
869.623
902.062
934.926
968.174
1001.77
1035.7
1069.98
1104.58
1139.46
1174.59
1209.93
1245.45
1281.11
1316.88
1352.7
1388.53
1424.34
1460.06
1495.65
1531.04
1566.17
1600.97
1635.35
1669.22
1702.48
1735
1766.64
1797.2
1826.49
1854.21
1880.05
1903.56
1924.05
1940.76
1953.17
1950.41
1872
1788.82
1701.82
1611.86
1519.75
1426.21
1331.93
1237.5
1143.54
1050.63
959.385
870.326
784.007
701.353
623.648
552.27
488.627
434.04
389.497
355.326
330.93
314.8
304.898
299.204
296.102
294.484
293.677
293.286
293.102
293.018
293.105
293.451
293.993
294.815
296.025
297.758
300.174
303.457
307.797
313.383
320.386
328.944
339.153
351.062
364.673
379.947
396.813
415.174
434.924
455.933
478.104
501.328
525.509
550.562
576.415
603.006
630.286
658.214
686.755
715.881
745.568
775.795
806.541
837.786
869.507
901.683
934.28
967.26
1000.58
1034.24
1068.25
1102.58
1137.19
1172.04
1207.12
1242.38
1277.78
1313.29
1348.86
1384.46
1420.05
1455.56
1490.95
1526.16
1561.13
1595.79
1630.05
1663.83
1697.03
1729.51
1761.14
1791.74
1821.09
1848.94
1874.94
1898.68
1919.52
1936.62
1949.56
1951.83
1876.35
1795.34
1710.02
1621.34
1530.19
1437.37
1343.58
1249.5
1155.74
1062.91
971.636
882.465
795.924
712.876
634.57
562.368
497.66
441.775
395.754
360.047
334.219
316.908
306.145
299.891
296.457
294.656
293.756
293.319
293.114
293.021
293.112
293.48
294.058
294.933
296.22
298.059
300.617
304.08
308.638
314.475
321.752
330.595
341.086
353.259
367.097
382.555
399.555
418.001
437.783
458.794
480.92
504.061
528.127
553.038
578.725
605.131
632.209
659.921
688.232
717.118
746.554
776.52
806.996
837.963
869.399
901.281
933.581
966.26
999.275
1032.63
1066.33
1100.34
1134.64
1169.19
1203.96
1238.91
1274.02
1309.24
1344.53
1379.86
1415.17
1450.43
1485.57
1520.56
1555.33
1589.81
1623.94
1657.61
1690.72
1723.16
1754.78
1785.41
1814.84
1842.79
1868.94
1892.86
1913.92
1931.19
1944.22
1949.57
1880.82
1802.71
1719.51
1632.37
1542.31
1450.26
1357
1263.25
1169.65
1076.84
985.463
896.091
809.233
725.699
646.687
573.541
507.642
450.327
402.699
365.322
337.924
319.302
307.572
300.68
296.866
294.855
293.847
293.357
293.127
293.023
293.12
293.512
294.128
295.061
296.431
298.385
301.096
304.751
309.542
315.646
323.214
332.358
343.142
355.586
369.666
385.323
402.473
421.015
440.843
461.853
483.936
506.996
530.946
555.712
581.229
607.444
634.311
661.793
689.861
718.488
747.652
777.333
807.512
838.171
869.29
900.847
932.816
965.161
997.841
1030.85
1064.21
1097.88
1131.83
1166.03
1200.46
1235.07
1269.85
1304.74
1339.72
1374.75
1409.79
1444.8
1479.74
1514.53
1549.1
1583.4
1617.34
1650.87
1683.86
1716.22
1747.81
1778.46
1807.97
1836.06
1862.4
1886.58
1907.96
1925.54
1938.98
1946.64
1888.96
1813.19
1731.72
1645.86
1556.74
1465.34
1372.51
1278.99
1185.47
1092.59
1001
911.312
824.021
739.878
660.039
585.823
518.605
459.737
410.372
371.188
342.081
322.013
309.2
301.586
297.336
295.084
293.951
293.401
293.143
293.026
293.128
293.547
294.204
295.199
296.657
298.735
301.61
305.472
310.511
316.899
324.774
334.234
345.328
358.06
372.401
388.267
405.574
424.224
444.108
465.122
487.166
510.147
533.983
558.603
583.946
609.963
636.611
663.855
691.666
720.021
748.898
778.279
808.144
838.474
869.249
900.451
932.056
964.032
996.338
1028.97
1061.94
1095.23
1128.8
1162.62
1196.66
1230.9
1265.3
1299.82
1334.44
1369.13
1403.83
1438.49
1473.08
1507.55
1541.86
1575.93
1609.7
1643.09
1676.01
1708.33
1739.93
1770.66
1800.33
1828.68
1855.4
1880.12
1902.32
1920.95
1935.99
1945.92
1905.28
1829.39
1748.14
1662.65
1573.93
1482.87
1390.27
1296.87
1203.32
1110.26
1018.35
928.228
840.385
755.518
674.716
599.293
530.62
470.061
418.822
377.69
346.728
325.072
311.051
302.622
297.875
295.347
294.071
293.451
293.161
293.029
293.136
293.584
294.285
295.346
296.901
299.112
302.161
306.244
311.547
318.235
326.435
336.227
347.646
360.679
375.279
391.38
408.859
427.625
447.574
468.602
490.614
513.522
537.246
561.721
586.89
612.704
639.125
666.119
693.659
721.724
750.294
779.352
808.883
838.851
869.254
900.073
931.286
962.862
994.765
1026.99
1059.55
1092.41
1125.56
1158.97
1192.61
1226.45
1260.46
1294.64
1328.91
1363.26
1397.63
1432
1466.31
1500.52
1534.57
1568.41
1601.96
1635.16
1667.92
1700.13
1731.68
1762.41
1792.16
1820.74
1847.85
1873.15
1896.22
1916.41
1933.02
1945.67
1926.6
1849.29
1767.43
1681.91
1593.38
1502.56
1410.14
1316.8
1223.17
1129.89
1037.58
946.915
858.407
772.697
690.806
614.038
543.766
481.371
428.112
384.884
351.913
328.519
313.157
303.808
298.495
295.648
294.208
293.509
293.181
293.033
293.146
293.623
294.373
295.505
297.163
299.516
302.754
307.072
312.657
319.662
328.204
338.345
350.104
363.452
378.33
394.659
412.348
431.261
451.281
472.326
494.309
517.145
540.761
565.091
590.083
615.691
641.879
668.616
695.876
723.638
751.884
780.598
809.763
839.357
869.367
899.778
930.57
961.717
993.186
1024.97
1057.08
1089.49
1122.19
1155.14
1188.32
1221.7
1255.27
1288.98
1322.81
1356.72
1390.68
1424.66
1458.61
1492.49
1526.25
1559.83
1593.16
1626.18
1658.8
1690.93
1722.45
1753.22
1783.08
1811.81
1839.21
1864.95
1888.66
1909.82
1927.51
1941.53
1938.78
1864.84
1784.88
1700.87
1613.49
1523.48
1431.59
1338.51
1244.91
1151.42
1058.7
967.422
878.16
791.506
708.408
630.16
558.144
493.763
438.329
392.844
357.697
332.397
315.546
305.161
299.205
295.995
294.366
293.575
293.204
293.037
293.156
293.666
294.467
295.677
297.446
299.952
303.391
307.962
313.845
321.188
330.09
340.599
352.714
366.393
381.562
398.128
415.994
435.059
455.202
476.289
498.258
521.032
544.543
568.731
593.545
618.943
644.889
671.357
698.321
725.763
753.665
782.01
810.783
839.985
869.585
899.567
929.914
960.605
991.61
1022.92
1054.56
1086.5
1118.72
1151.2
1183.92
1216.87
1249.99
1283.25
1316.65
1350.13
1383.69
1417.27
1450.84
1484.36
1517.78
1551.05
1584.11
1616.9
1649.33
1681.32
1712.75
1743.5
1773.4
1802.26
1829.81
1855.75
1879.67
1901.09
1918.98
1932.89
1937.66
1875.17
1799.94
1719.16
1633.99
1545.47
1454.52
1361.95
1268.51
1174.89
1081.76
989.821
899.721
812.026
727.611
647.75
573.843
507.32
449.55
401.643
364.15
336.772
318.269
306.718
300.026
296.395
294.547
293.651
293.231
293.042
293.166
293.712
294.568
295.862
297.751
300.422
304.078
308.919
315.122
322.823
332.107
343.004
355.496
369.524
385.002
401.829
419.893
439.094
459.344
480.525
502.51
525.219
548.623
572.664
597.295
622.477
648.176
674.367
701.026
728.138
755.685
783.654
812.032
840.811
869.973
899.504
929.387
959.604
990.129
1020.95
1052.09
1083.54
1115.26
1147.24
1179.48
1211.91
1244.53
1277.32
1310.26
1343.3
1376.43
1409.6
1442.79
1475.94
1509.03
1541.98
1574.76
1607.28
1639.49
1671.29
1702.58
1733.25
1763.14
1792.07
1819.8
1846.03
1870.35
1892.21
1910.58
1924.97
1933.73
1890.9
1818.67
1740.12
1656.65
1569.4
1479.33
1387.3
1294.06
1200.33
1106.8
1014.18
923.169
834.352
748.527
666.935
590.992
522.162
461.877
411.355
371.313
341.657
321.326
308.472
300.952
296.848
294.753
293.737
293.261
293.047
293.178
293.763
294.679
296.063
298.084
300.935
304.826
309.958
316.502
324.585
334.274
345.582
358.471
372.868
388.675
405.779
424.065
443.42
463.741
484.965
506.962
529.681
553.013
576.9
601.338
626.29
651.727
677.625
703.965
730.73
757.908
785.487
813.458
841.812
870.51
899.565
928.962
958.685
988.711
1019.03
1049.66
1080.6
1111.82
1143.31
1175.03
1206.97
1239.12
1271.44
1303.91
1336.5
1369.19
1401.93
1434.71
1467.49
1500.21
1532.84
1565.31
1597.58
1629.57
1661.19
1692.34
1722.93
1752.81
1781.82
1809.75
1836.37
1861.34
1884.28
1904.6
1921.64
1935.01
1918.42
1844.66
1765.52
1682.3
1595.59
1506.07
1414.44
1321.38
1227.56
1133.66
1040.37
948.426
858.444
771.158
687.737
609.631
538.351
475.399
422.103
379.341
347.222
324.869
310.534
302.051
297.386
294.996
293.838
293.297
293.053
293.191
293.817
294.799
296.282
298.444
301.49
305.634
311.081
317.994
326.488
336.611
348.358
361.672
376.462
392.619
410.019
428.54
448.067
468.493
489.728
511.722
534.333
557.564
581.368
605.642
630.349
655.507
681.095
707.097
733.502
760.297
787.471
815.015
842.919
871.192
899.804
928.744
958.001
987.556
1017.4
1047.56
1078.02
1108.77
1139.79
1171.03
1202.51
1234.19
1266.06
1298.09
1330.27
1362.55
1394.91
1427.31
1459.72
1492.1
1524.4
1556.57
1588.55
1620.31
1651.73
1682.71
1713.18
1742.99
1772
1800.05
1826.9
1852.28
1875.87
1897.26
1915.94
1931.52
1933.03
1864.52
1787.56
1706.25
1621.1
1532.79
1442.01
1349.46
1255.82
1161.75
1067.96
975.176
884.092
795.38
710.119
629.772
555.9
490.079
433.763
388.021
353.199
328.643
312.713
303.207
297.952
295.254
293.945
293.335
293.06
293.205
293.879
294.935
296.528
298.849
302.111
306.537
312.328
319.642
328.575
339.161
351.371
365.13