/*--------------------------------*- C++ -*----------------------------------*\
  =========                 |
  \\      /  F ield         | OpenFOAM: The Open Source CFD Toolbox
   \\    /   O peration     | Website:  https://openfoam.org
    \\  /    A nd           | Version:  8
     \\/     M anipulation  |
\*---------------------------------------------------------------------------*/
FoamFile
{
    version     2.0;
    format      ascii;
    class       volVectorField;
    location    "40/fluid";
    object      U;
}
// * * * * * * * * * * * * * * * * * * * * * * * * * * * * * * * * * * * * * //

dimensions      [0 1 -1 0 0 0 0];

internalField   nonuniform List<vector> 
4000
(
(0.099858 -0.0101007 0)
(0.0990178 -0.0320964 0)
(0.0976217 -0.0570389 0)
(0.0956491 -0.0851657 0)
(0.093051 -0.115733 0)
(0.0897931 -0.147207 0)
(0.0859115 -0.177483 0)
(0.0815287 -0.20428 0)
(0.0768262 -0.225738 0)
(0.071993 -0.240905 0)
(0.0671803 -0.249826 0)
(0.0624841 -0.25331 0)
(0.0579525 -0.252544 0)
(0.0536039 -0.248769 0)
(0.0494444 -0.243065 0)
(0.0454777 -0.236266 0)
(0.0417108 -0.228952 0)
(0.0381564 -0.221496 0)
(0.0348283 -0.21413 0)
(0.0317287 -0.207019 0)
(0.0288513 -0.200243 0)
(0.0261855 -0.193837 0)
(0.0237167 -0.18781 0)
(0.0214317 -0.182162 0)
(0.0193142 -0.176879 0)
(0.0173527 -0.171953 0)
(0.0155304 -0.167364 0)
(0.0138372 -0.163107 0)
(0.0122566 -0.159159 0)
(0.0107805 -0.155518 0)
(0.00939313 -0.152162 0)
(0.00808896 -0.149092 0)
(0.00685269 -0.146286 0)
(0.00568156 -0.143751 0)
(0.00455998 -0.141463 0)
(0.0034884 -0.139435 0)
(0.00244973 -0.13764 0)
(0.00144865 -0.1361 0)
(0.000464864 -0.134778 0)
(-0.000491002 -0.133707 0)
(-0.00144325 -0.132845 0)
(-0.00237421 -0.132234 0)
(-0.00331285 -0.13183 0)
(-0.0042351 -0.131673 0)
(-0.00517484 -0.131725 0)
(-0.00610253 -0.132013 0)
(-0.00705583 -0.132518 0)
(-0.0080015 -0.133249 0)
(-0.00897906 -0.134209 0)
(-0.0099539 -0.135385 0)
(-0.0109649 -0.136806 0)
(-0.0119789 -0.13844 0)
(-0.0130318 -0.140333 0)
(-0.0140945 -0.142445 0)
(-0.0151973 -0.144828 0)
(-0.0163173 -0.147443 0)
(-0.0174777 -0.150341 0)
(-0.018662 -0.153492 0)
(-0.0198861 -0.156939 0)
(-0.0211392 -0.160667 0)
(-0.0224309 -0.164713 0)
(-0.0237558 -0.16908 0)
(-0.0251189 -0.173806 0)
(-0.0265203 -0.178916 0)
(-0.0279631 -0.184454 0)
(-0.0294547 -0.190469 0)
(-0.030998 -0.197032 0)
(-0.0326414 -0.204258 0)
(-0.034515 -0.212327 0)
(-0.036906 -0.221543 0)
(-0.0393082 -0.232135 0)
(-0.0378951 -0.243472 0)
(-0.0338775 -0.255136 0)
(-0.0326161 -0.266142 0)
(-0.0346523 -0.27692 0)
(-0.0366561 -0.288039 0)
(-0.0384019 -0.299383 0)
(-0.0401258 -0.31086 0)
(-0.0419123 -0.32242 0)
(-0.0437837 -0.334004 0)
(-0.045748 -0.345515 0)
(-0.0478075 -0.356788 0)
(-0.049959 -0.367585 0)
(-0.0521867 -0.377562 0)
(-0.0544653 -0.38623 0)
(-0.0567871 -0.392882 0)
(-0.0590368 -0.39659 0)
(-0.0613163 -0.396322 0)
(-0.0635344 -0.390584 0)
(-0.0658646 -0.378166 0)
(-0.0685607 -0.357861 0)
(-0.071925 -0.329118 0)
(-0.0760772 -0.292654 0)
(-0.0808143 -0.250798 0)
(-0.0856638 -0.206923 0)
(-0.0901266 -0.163884 0)
(-0.0938667 -0.122902 0)
(-0.096726 -0.0845274 0)
(-0.0986878 -0.0494595 0)
(-0.0998296 -0.0166179 0)
(0.10011 -0.00875169 0)
(0.0999215 -0.0282488 0)
(0.0992223 -0.0505016 0)
(0.0978517 -0.0755381 0)
(0.0957321 -0.102633 0)
(0.0928291 -0.130514 0)
(0.0891831 -0.157488 0)
(0.0849288 -0.181678 0)
(0.080271 -0.201458 0)
(0.0754283 -0.215876 0)
(0.0705808 -0.224807 0)
(0.0658458 -0.228824 0)
(0.0612816 -0.228913 0)
(0.0569073 -0.226175 0)
(0.0527231 -0.221613 0)
(0.0487249 -0.21602 0)
(0.0449113 -0.209967 0)
(0.0412845 -0.203828 0)
(0.0378513 -0.197813 0)
(0.0346191 -0.192011 0)
(0.0315859 -0.186471 0)
(0.0287491 -0.181211 0)
(0.0261022 -0.17624 0)
(0.0236321 -0.171553 0)
(0.0213297 -0.167145 0)
(0.0191803 -0.163006 0)
(0.0171732 -0.159132 0)
(0.0152925 -0.155509 0)
(0.0135291 -0.152137 0)
(0.0118676 -0.149003 0)
(0.010301 -0.146108 0)
(0.00881429 -0.143438 0)
(0.00740257 -0.140999 0)
(0.00605093 -0.138776 0)
(0.00475725 -0.136779 0)
(0.00350561 -0.134989 0)
(0.00229746 -0.133421 0)
(0.00111449 -0.132054 0)
(-3.77474e-05 -0.130908 0)
(-0.00118049 -0.129955 0)
(-0.00230249 -0.129227 0)
(-0.00342687 -0.128692 0)
(-0.00453769 -0.128384 0)
(-0.00566062 -0.128271 0)
(-0.00677647 -0.128383 0)
(-0.00791259 -0.128695 0)
(-0.00904782 -0.129225 0)
(-0.0102104 -0.129966 0)
(-0.011378 -0.130918 0)
(-0.0125789 -0.132094 0)
(-0.0137908 -0.133476 0)
(-0.015041 -0.135097 0)
(-0.0163089 -0.136927 0)
(-0.0176198 -0.139008 0)
(-0.0189559 -0.141309 0)
(-0.020339 -0.143873 0)
(-0.021755 -0.146674 0)
(-0.0232214 -0.149751 0)
(-0.0247288 -0.153088 0)
(-0.0262906 -0.15672 0)
(-0.0279022 -0.160646 0)
(-0.0295734 -0.164895 0)
(-0.031307 -0.169483 0)
(-0.0331126 -0.174443 0)
(-0.0349972 -0.179802 0)
(-0.0369668 -0.185591 0)
(-0.0390365 -0.191843 0)
(-0.0412487 -0.198588 0)
(-0.0437793 -0.205883 0)
(-0.0468629 -0.213772 0)
(-0.0497308 -0.222177 0)
(-0.0482436 -0.230706 0)
(-0.0448267 -0.240584 0)
(-0.043937 -0.251352 0)
(-0.0451989 -0.26172 0)
(-0.0464878 -0.271801 0)
(-0.0476759 -0.281706 0)
(-0.0488812 -0.291483 0)
(-0.0501611 -0.301128 0)
(-0.0515133 -0.310591 0)
(-0.0529306 -0.319761 0)
(-0.0544028 -0.328464 0)
(-0.055911 -0.336455 0)
(-0.0574213 -0.343395 0)
(-0.0588995 -0.34882 0)
(-0.0603425 -0.352083 0)
(-0.0616921 -0.352698 0)
(-0.0631148 -0.350071 0)
(-0.0646415 -0.342921 0)
(-0.0666115 -0.330007 0)
(-0.0693485 -0.310354 0)
(-0.0730582 -0.283771 0)
(-0.0776512 -0.251314 0)
(-0.082703 -0.215277 0)
(-0.0876356 -0.17836 0)
(-0.0919762 -0.142375 0)
(-0.0954509 -0.107788 0)
(-0.0979222 -0.0748558 0)
(-0.0993785 -0.0441975 0)
(-0.100032 -0.0149283 0)
(0.100018 -0.00838165 0)
(0.0997156 -0.0268429 0)
(0.0989241 -0.0477936 0)
(0.0975317 -0.0713227 0)
(0.0954857 -0.0968074 0)
(0.0927765 -0.123117 0)
(0.0894505 -0.148715 0)
(0.0856154 -0.171854 0)
(0.0814232 -0.19097 0)
(0.0770384 -0.205088 0)
(0.072606 -0.214004 0)
(0.0682315 -0.218195 0)
(0.0639778 -0.218563 0)
(0.0598731 -0.216155 0)
(0.0559244 -0.211945 0)
(0.052129 -0.206718 0)
(0.0484818 -0.201036 0)
(0.0449781 -0.195265 0)
(0.0416144 -0.189622 0)
(0.0383922 -0.184216 0)
(0.0353184 -0.179094 0)
(0.0323915 -0.174267 0)
(0.0296076 -0.169727 0)
(0.0269681 -0.165462 0)
(0.0244676 -0.161456 0)
(0.0221 -0.157699 0)
(0.0198557 -0.154178 0)
(0.0177273 -0.150885 0)
(0.0157038 -0.147809 0)
(0.013778 -0.14495 0)
(0.0119385 -0.142296 0)
(0.0101788 -0.139851 0)
(0.00848683 -0.137603 0)
(0.00685771 -0.13556 0)
(0.00527874 -0.133709 0)
(0.00374701 -0.13206 0)
(0.0022485 -0.130599 0)
(0.000782794 -0.129339 0)
(-0.00066616 -0.128261 0)
(-0.00209532 -0.127386 0)
(-0.00352111 -0.126695 0)
(-0.00493664 -0.126213 0)
(-0.00635901 -0.125919 0)
(-0.00777964 -0.125836 0)
(-0.0092162 -0.125944 0)
(-0.0106593 -0.126261 0)
(-0.0121264 -0.126777 0)
(-0.0136077 -0.127497 0)
(-0.0151205 -0.128425 0)
(-0.0166551 -0.129555 0)
(-0.0182285 -0.130904 0)
(-0.0198314 -0.132456 0)
(-0.0214807 -0.134238 0)
(-0.0231679 -0.136229 0)
(-0.0249095 -0.138461 0)
(-0.026699 -0.140914 0)
(-0.0285518 -0.143618 0)
(-0.0304648 -0.146561 0)
(-0.0324522 -0.14977 0)
(-0.0345141 -0.15324 0)
(-0.0366628 -0.156994 0)
(-0.0389025 -0.161041 0)
(-0.0412444 -0.165404 0)
(-0.043697 -0.170101 0)
(-0.0462706 -0.175156 0)
(-0.0489694 -0.180592 0)
(-0.0517972 -0.186436 0)
(-0.0548085 -0.192718 0)
(-0.0581797 -0.199468 0)
(-0.0619471 -0.206716 0)
(-0.064681 -0.21435 0)
(-0.0623443 -0.221978 0)
(-0.0590557 -0.230748 0)
(-0.0584212 -0.239975 0)
(-0.0591107 -0.248993 0)
(-0.0597919 -0.257777 0)
(-0.060396 -0.266403 0)
(-0.0610141 -0.274912 0)
(-0.061671 -0.283302 0)
(-0.0623466 -0.291527 0)
(-0.0630169 -0.299507 0)
(-0.0636568 -0.307118 0)
(-0.0642358 -0.314186 0)
(-0.0647119 -0.320456 0)
(-0.0650467 -0.325546 0)
(-0.0652197 -0.328863 0)
(-0.0653123 -0.329914 0)
(-0.0655027 -0.327927 0)
(-0.066067 -0.321471 0)
(-0.0673095 -0.309383 0)
(-0.0695021 -0.29078 0)
(-0.0727346 -0.265569 0)
(-0.0768474 -0.234896 0)
(-0.0814611 -0.201032 0)
(-0.086123 -0.166497 0)
(-0.0904426 -0.132873 0)
(-0.0941344 -0.100513 0)
(-0.0969963 -0.0696775 0)
(-0.0989097 -0.0410297 0)
(-0.0999213 -0.0138371 0)
(0.100041 -0.00779822 0)
(0.0997975 -0.0248824 0)
(0.099102 -0.0441723 0)
(0.0978429 -0.0657658 0)
(0.0959698 -0.0891248 0)
(0.0934674 -0.113271 0)
(0.0903675 -0.136868 0)
(0.0867587 -0.15836 0)
(0.0827768 -0.176313 0)
(0.0785776 -0.189786 0)
(0.074306 -0.198515 0)
(0.0700737 -0.202865 0)
(0.0659517 -0.20362 0)
(0.0619745 -0.201728 0)
(0.0581514 -0.198098 0)
(0.0544781 -0.193477 0)
(0.0509449 -0.188411 0)
(0.0475416 -0.18326 0)
(0.0442621 -0.178233 0)
(0.0411012 -0.173437 0)
(0.0380545 -0.168915 0)
(0.035122 -0.164673 0)
(0.0323018 -0.160699 0)
(0.0295903 -0.156977 0)
(0.0269846 -0.153488 0)
(0.0244807 -0.150215 0)
(0.0220741 -0.147148 0)
(0.0197594 -0.144274 0)
(0.0175313 -0.141587 0)
(0.0153823 -0.139081 0)
(0.0133064 -0.136753 0)
(0.0112954 -0.1346 0)
(0.00934353 -0.132622 0)
(0.00744168 -0.130814 0)
(0.00558489 -0.129181 0)
(0.00376316 -0.127717 0)
(0.00197247 -0.126428 0)
(0.000201323 -0.125304 0)
(-0.00155281 -0.124357 0)
(-0.0033012 -0.123577 0)
(-0.00504338 -0.122982 0)
(-0.00679024 -0.122562 0)
(-0.00854027 -0.122331 0)
(-0.0103044 -0.12228 0)
(-0.0120809 -0.122422 0)
(-0.0138804 -0.122748 0)
(-0.0157014 -0.123267 0)
(-0.017554 -0.123977 0)
(-0.019437 -0.124879 0)
(-0.0213603 -0.125979 0)
(-0.0233228 -0.127273 0)
(-0.0253347 -0.128773 0)
(-0.0273955 -0.13047 0)
(-0.0295158 -0.132382 0)
(-0.0316956 -0.134497 0)
(-0.0339464 -0.136835 0)
(-0.03627 -0.139387 0)
(-0.0386783 -0.14217 0)
(-0.0411749 -0.14518 0)
(-0.043772 -0.14843 0)
(-0.0464767 -0.151923 0)
(-0.0493019 -0.155671 0)
(-0.0522582 -0.159684 0)
(-0.05536 -0.163976 0)
(-0.0586193 -0.168557 0)
(-0.062043 -0.173442 0)
(-0.0656481 -0.178654 0)
(-0.0695239 -0.184229 0)
(-0.0739262 -0.190219 0)
(-0.0787026 -0.196628 0)
(-0.0812319 -0.203126 0)
(-0.0759136 -0.209357 0)
(-0.0705193 -0.21769 0)
(-0.0702259 -0.225784 0)
(-0.0710328 -0.233581 0)
(-0.0714665 -0.241154 0)
(-0.0716118 -0.248574 0)
(-0.071654 -0.255863 0)
(-0.0716287 -0.263011 0)
(-0.071529 -0.269984 0)
(-0.0713479 -0.276721 0)
(-0.0710801 -0.283125 0)
(-0.0707177 -0.289045 0)
(-0.0702504 -0.29425 0)
(-0.0696751 -0.298361 0)
(-0.0690513 -0.300804 0)
(-0.0685339 -0.301207 0)
(-0.0682548 -0.298684 0)
(-0.0685112 -0.291947 0)
(-0.0695473 -0.279959 0)
(-0.0715731 -0.26203 0)
(-0.0746315 -0.238302 0)
(-0.0785354 -0.21006 0)
(-0.0829058 -0.179472 0)
(-0.0873023 -0.148691 0)
(-0.0913509 -0.118877 0)
(-0.0947816 -0.0901158 0)
(-0.0974022 -0.0625774 0)
(-0.0991054 -0.0369104 0)
(-0.0999659 -0.012477 0)
(0.100025 -0.0072999 0)
(0.0997527 -0.0232117 0)
(0.0990455 -0.0411179 0)
(0.0978094 -0.0611346 0)
(0.0960053 -0.0827952 0)
(0.0936231 -0.105238 0)
(0.0906916 -0.127269 0)
(0.0872881 -0.147466 0)
(0.0835303 -0.164483 0)
(0.0795558 -0.177398 0)
(0.0754953 -0.185906 0)
(0.0714535 -0.190292 0)
(0.0675 -0.191255 0)
(0.063672 -0.189671 0)
(0.0599815 -0.186397 0)
(0.0564257 -0.182154 0)
(0.052995 -0.177473 0)
(0.0496792 -0.17271 0)
(0.046467 -0.168072 0)
(0.0433524 -0.163669 0)
(0.0403287 -0.159541 0)
(0.0373899 -0.155694 0)
(0.0345359 -0.152114 0)
(0.0317635 -0.148779 0)
(0.0290698 -0.145668 0)
(0.0264533 -0.142761 0)
(0.0239109 -0.140042 0)
(0.0214392 -0.1375 0)
(0.0190336 -0.135125 0)
(0.0166898 -0.132911 0)
(0.0144022 -0.130854 0)
(0.0121659 -0.128952 0)
(0.00997435 -0.127202 0)
(0.00782231 -0.125605 0)
(0.00570254 -0.124159 0)
(0.00360985 -0.122866 0)
(0.00153604 -0.121723 0)
(-0.000524112 -0.120732 0)
(-0.00257914 -0.119891 0)
(-0.00463202 -0.119211 0)
(-0.00668993 -0.118689 0)
(-0.00875492 -0.118336 0)
(-0.0108342 -0.118148 0)
(-0.01293 -0.118135 0)
(-0.0150494 -0.118292 0)
(-0.0171949 -0.118626 0)
(-0.0193734 -0.119135 0)
(-0.0215875 -0.119823 0)
(-0.0238438 -0.120691 0)
(-0.0261453 -0.12174 0)
(-0.0284987 -0.122975 0)
(-0.0309071 -0.124393 0)
(-0.0333778 -0.126002 0)
(-0.0359144 -0.127798 0)
(-0.038525 -0.12979 0)
(-0.0412135 -0.131975 0)
(-0.0439887 -0.134361 0)
(-0.0468554 -0.136944 0)
(-0.0498228 -0.139732 0)
(-0.0528973 -0.142724 0)
(-0.0560885 -0.145925 0)
(-0.0594047 -0.149335 0)
(-0.0628558 -0.152962 0)
(-0.066451 -0.156805 0)
(-0.0701957 -0.160864 0)
(-0.0740918 -0.165134 0)
(-0.0781517 -0.169611 0)
(-0.0825053 -0.174326 0)
(-0.0873788 -0.179315 0)
(-0.0922303 -0.184539 0)
(-0.0931774 -0.189532 0)
(-0.0877479 -0.194827 0)
(-0.0829949 -0.202642 0)
(-0.082635 -0.210243 0)
(-0.0827105 -0.217414 0)
(-0.082404 -0.22426 0)
(-0.0818686 -0.230879 0)
(-0.081218 -0.23732 0)
(-0.08047 -0.243604 0)
(-0.0796256 -0.249726 0)
(-0.078686 -0.255656 0)
(-0.0776542 -0.261322 0)
(-0.0765315 -0.266601 0)
(-0.0753202 -0.271282 0)
(-0.0740284 -0.275009 0)
(-0.0727234 -0.277257 0)
(-0.0716198 -0.277602 0)
(-0.0707924 -0.275255 0)
(-0.0705998 -0.268938 0)
(-0.0712507 -0.257677 0)
(-0.0729309 -0.24084 0)
(-0.0756632 -0.218623 0)
(-0.079249 -0.1923 0)
(-0.0833246 -0.163934 0)
(-0.0874817 -0.13553 0)
(-0.0913689 -0.108128 0)
(-0.0947164 -0.0817805 0)
(-0.0973173 -0.0566489 0)
(-0.0990442 -0.0333518 0)
(-0.0999436 -0.0112733 0)
(0.100027 -0.00677922 0)
(0.0997691 -0.0215003 0)
(0.0990971 -0.0380178 0)
(0.0979218 -0.0564514 0)
(0.0962072 -0.0763908 0)
(0.093941 -0.0970776 0)
(0.0911443 -0.117453 0)
(0.0878824 -0.136238 0)
(0.0842617 -0.152195 0)
(0.0804117 -0.164445 0)
(0.0764603 -0.17266 0)
(0.0725138 -0.177053 0)
(0.0686461 -0.178232 0)
(0.0648981 -0.176989 0)
(0.0612849 -0.174121 0)
(0.0578043 -0.170307 0)
(0.0544457 -0.166057 0)
(0.0511962 -0.161715 0)
(0.0480429 -0.157491 0)
(0.044972 -0.153489 0)
(0.0419739 -0.149755 0)
(0.0390432 -0.146292 0)
(0.0361747 -0.143084 0)
(0.0333657 -0.140111 0)
(0.0306142 -0.137349 0)
(0.0279176 -0.134778 0)
(0.0252736 -0.13238 0)
(0.0226795 -0.130142 0)
(0.0201324 -0.128056 0)
(0.0176287 -0.126113 0)
(0.0151649 -0.124309 0)
(0.0127364 -0.122642 0)
(0.0103389 -0.12111 0)
(0.00796714 -0.119711 0)
(0.00561608 -0.118446 0)
(0.00327962 -0.117314 0)
(0.000952255 -0.116315 0)
(-0.00137295 -0.115448 0)
(-0.00370067 -0.114717 0)
(-0.00603623 -0.114127 0)
(-0.0083828 -0.113684 0)
(-0.0107455 -0.11339 0)
(-0.0131279 -0.113251 0)
(-0.0155353 -0.113267 0)
(-0.0179716 -0.113441 0)
(-0.0204421 -0.113776 0)
(-0.0229511 -0.114273 0)
(-0.0255039 -0.114934 0)
(-0.0281051 -0.11576 0)
(-0.0307599 -0.116753 0)
(-0.0334731 -0.117914 0)
(-0.0362501 -0.119246 0)
(-0.0390957 -0.120748 0)
(-0.0420157 -0.122424 0)
(-0.0450149 -0.124274 0)
(-0.0480997 -0.1263 0)
(-0.0512749 -0.128502 0)
(-0.0545468 -0.130882 0)
(-0.0579202 -0.13344 0)
(-0.0614006 -0.136178 0)
(-0.0649921 -0.139094 0)
(-0.0686988 -0.142192 0)
(-0.0725229 -0.145472 0)
(-0.0764636 -0.148935 0)
(-0.0805123 -0.152576 0)
(-0.0846494 -0.156383 0)
(-0.0888825 -0.160348 0)
(-0.0933079 -0.164476 0)
(-0.0980992 -0.168819 0)
(-0.102318 -0.173364 0)
(-0.101678 -0.177764 0)
(-0.0981369 -0.1828 0)
(-0.0955195 -0.18942 0)
(-0.0943357 -0.195966 0)
(-0.0932256 -0.202168 0)
(-0.0919902 -0.208087 0)
(-0.0906628 -0.213805 0)
(-0.0892719 -0.219375 0)
(-0.0878098 -0.224824 0)
(-0.0862698 -0.230155 0)
(-0.0846516 -0.235342 0)
(-0.0829589 -0.240322 0)
(-0.081196 -0.244976 0)
(-0.0793724 -0.2491 0)
(-0.0775134 -0.252354 0)
(-0.0757042 -0.254232 0)
(-0.0741817 -0.254304 0)
(-0.073014 -0.251736 0)
(-0.0725845 -0.245389 0)
(-0.0730818 -0.23437 0)
(-0.0746585 -0.218218 0)
(-0.0772921 -0.197304 0)
(-0.0807422 -0.172969 0)
(-0.0846225 -0.147144 0)
(-0.0885304 -0.121544 0)
(-0.0921418 -0.0969467 0)
(-0.0952213 -0.0732848 0)
(-0.0975934 -0.0507067 0)
(-0.0991536 -0.0298283 0)
(-0.0999573 -0.0100901 0)
(0.100021 -0.00628722 0)
(0.0997599 -0.0198911 0)
(0.0990979 -0.0351161 0)
(0.0979529 -0.0520853 0)
(0.0962922 -0.070437 0)
(0.094104 -0.0895011 0)
(0.091406 -0.108336 0)
(0.0882563 -0.125787 0)
(0.0847521 -0.140715 0)
(0.0810142 -0.152287 0)
(0.0771646 -0.160159 0)
(0.0733076 -0.164488 0)
(0.0695178 -0.165802 0)
(0.0658389 -0.164823 0)
(0.0622885 -0.162287 0)
(0.0588664 -0.158833 0)
(0.0555624 -0.15495 0)
(0.0523575 -0.15097 0)
(0.04924 -0.147096 0)
(0.0461979 -0.143435 0)
(0.0432158 -0.140031 0)
(0.0402874 -0.136888 0)
(0.0374061 -0.133992 0)
(0.0345677 -0.131322 0)
(0.0317684 -0.128853 0)
(0.0290059 -0.126564 0)
(0.0262778 -0.124439 0)
(0.0235821 -0.122462 0)
(0.0209162 -0.120623 0)
(0.0182778 -0.118915 0)
(0.0156636 -0.117332 0)
(0.0130704 -0.115871 0)
(0.0104943 -0.11453 0)
(0.00793121 -0.113307 0)
(0.00537648 -0.112202 0)
(0.00282527 -0.111215 0)
(0.000271802 -0.110343 0)
(-0.00228919 -0.109589 0)
(-0.0048623 -0.108956 0)
(-0.00745079 -0.108449 0)
(-0.0100585 -0.108074 0)
(-0.0126891 -0.107834 0)
(-0.0153468 -0.107733 0)
(-0.0180357 -0.107773 0)
(-0.0207603 -0.107957 0)
(-0.023525 -0.108287 0)
(-0.0263347 -0.108764 0)
(-0.0291942 -0.10939 0)
(-0.0321082 -0.110166 0)
(-0.0350814 -0.111094 0)
(-0.038119 -0.112174 0)
(-0.0412258 -0.113408 0)
(-0.0444073 -0.114797 0)
(-0.0476681 -0.116341 0)
(-0.0510134 -0.118041 0)
(-0.0544479 -0.119898 0)
(-0.0579767 -0.121911 0)
(-0.0616038 -0.124082 0)
(-0.0653334 -0.126409 0)
(-0.0691683 -0.128895 0)
(-0.0731106 -0.131539 0)
(-0.0771603 -0.134345 0)
(-0.0813159 -0.137316 0)
(-0.0855701 -0.140457 0)
(-0.0899045 -0.143772 0)
(-0.0942936 -0.147268 0)
(-0.0987547 -0.150947 0)
(-0.103433 -0.154827 0)
(-0.108328 -0.158937 0)
(-0.111983 -0.163231 0)
(-0.109815 -0.167447 0)
(-0.106113 -0.172364 0)
(-0.104052 -0.177583 0)
(-0.102601 -0.182757 0)
(-0.101065 -0.187774 0)
(-0.0993465 -0.192669 0)
(-0.0975292 -0.197483 0)
(-0.0956399 -0.202242 0)
(-0.0936728 -0.206954 0)
(-0.0916263 -0.211612 0)
(-0.0895059 -0.216185 0)
(-0.0873206 -0.220611 0)
(-0.0850791 -0.224773 0)
(-0.0827962 -0.228472 0)
(-0.080517 -0.231388 0)
(-0.0783563 -0.23308 0)
(-0.0764755 -0.233009 0)
(-0.0750871 -0.230374 0)
(-0.0744456 -0.224216 0)
(-0.0747762 -0.213692 0)
(-0.0761937 -0.198443 0)
(-0.0786466 -0.178915 0)
(-0.0818831 -0.156427 0)
(-0.0855284 -0.132771 0)
(-0.089202 -0.109478 0)
(-0.0925983 -0.0871851 0)
(-0.0954939 -0.0657821 0)
(-0.0977232 -0.0454104 0)
(-0.0991918 -0.0266643 0)
(-0.099954 -0.00902083 0)
(0.100019 -0.00579906 0)
(0.0997598 -0.0183082 0)
(0.0991111 -0.0322752 0)
(0.0979943 -0.0478209 0)
(0.0963788 -0.0646257 0)
(0.0942519 -0.0820984 0)
(0.091628 -0.0994053 0)
(0.0885589 -0.115512 0)
(0.0851349 -0.129381 0)
(0.0814706 -0.140231 0)
(0.0776854 -0.147715 0)
(0.0738831 -0.151939 0)
(0.0701405 -0.153361 0)
(0.0665041 -0.152626 0)
(0.0629937 -0.150411 0)
(0.0596104 -0.147311 0)
(0.0563437 -0.143788 0)
(0.0531785 -0.140162 0)
(0.0500937 -0.136627 0)
(0.0470721 -0.13329 0)
(0.0441043 -0.130194 0)
(0.0411791 -0.127346 0)
(0.0382887 -0.124733 0)
(0.0354272 -0.122334 0)
(0.0325902 -0.120127 0)
(0.0297747 -0.11809 0)
(0.0269781 -0.116206 0)
(0.0241985 -0.114459 0)
(0.0214339 -0.112839 0)
(0.018682 -0.111339 0)
(0.0159405 -0.109951 0)
(0.0132065 -0.108673 0)
(0.010477 -0.107501 0)
(0.00774826 -0.106435 0)
(0.00501652 -0.105473 0)
(0.00227727 -0.104614 0)
(-0.00047444 -0.103857 0)
(-0.00324341 -0.103203 0)
(-0.00603295 -0.102657 0)
(-0.00884583 -0.102224 0)
(-0.011685 -0.10191 0)
(-0.0145541 -0.101716 0)
(-0.0174566 -0.101647 0)
(-0.0203965 -0.101705 0)
(-0.023378 -0.101893 0)
(-0.0264052 -0.102211 0)
(-0.0294824 -0.102663 0)
(-0.0326143 -0.103248 0)
(-0.0358056 -0.103969 0)
(-0.0390609 -0.104825 0)
(-0.0423848 -0.105819 0)
(-0.0457818 -0.10695 0)
(-0.0492569 -0.108219 0)
(-0.0528147 -0.109626 0)
(-0.0564598 -0.111171 0)
(-0.0601966 -0.112853 0)
(-0.0640292 -0.114672 0)
(-0.0679613 -0.116628 0)
(-0.0719961 -0.118719 0)
(-0.0761361 -0.120946 0)
(-0.0803829 -0.123309 0)
(-0.0847365 -0.12581 0)
(-0.089196 -0.128453 0)
(-0.0937557 -0.131242 0)
(-0.0983994 -0.134187 0)
(-0.103114 -0.137304 0)
(-0.107953 -0.140616 0)
(-0.113138 -0.144151 0)
(-0.118497 -0.147865 0)
(-0.121435 -0.151494 0)
(-0.116784 -0.154902 0)
(-0.111411 -0.159706 0)
(-0.109514 -0.164266 0)
(-0.108336 -0.168645 0)
(-0.106775 -0.172906 0)
(-0.104879 -0.177112 0)
(-0.102809 -0.18129 0)
(-0.100614 -0.18545 0)
(-0.0983044 -0.189594 0)
(-0.0958927 -0.193715 0)
(-0.0933972 -0.197785 0)
(-0.090835 -0.201742 0)
(-0.0882204 -0.205472 0)
(-0.0855761 -0.208781 0)
(-0.082971 -0.211364 0)
(-0.0805289 -0.212806 0)
(-0.0784102 -0.21254 0)
(-0.0768486 -0.209803 0)
(-0.0760764 -0.203734 0)
(-0.0763141 -0.193599 0)
(-0.0776571 -0.179166 0)
(-0.0800171 -0.160977 0)
(-0.0831172 -0.140335 0)
(-0.0865767 -0.118874 0)
(-0.0900298 -0.0979035 0)
(-0.0931952 -0.0778985 0)
(-0.0958743 -0.0587003 0)
(-0.0979231 -0.040445 0)
(-0.0992649 -0.0237104 0)
(-0.0999591 -0.00802308 0)
(0.100016 -0.00532181 0)
(0.0997545 -0.0167689 0)
(0.0991117 -0.029522 0)
(0.0980122 -0.0436978 0)
(0.096427 -0.0590141 0)
(0.0943437 -0.0749503 0)
(0.0917742 -0.0907712 0)
(0.0887661 -0.105554 0)
(0.0854035 -0.118359 0)
(0.081796 -0.128462 0)
(0.0780598 -0.135518 0)
(0.0742981 -0.139592 0)
(0.0705892 -0.141077 0)
(0.0669818 -0.140548 0)
(0.0634989 -0.138621 0)
(0.0601422 -0.135848 0)
(0.0569002 -0.132662 0)
(0.0537559 -0.129365 0)
(0.0506909 -0.126147 0)
(0.047687 -0.12311 0)
(0.0447295 -0.120298 0)
(0.041806 -0.117718 0)
(0.0389071 -0.11536 0)
(0.0360256 -0.113204 0)
(0.0331564 -0.111229 0)
(0.0302958 -0.109414 0)
(0.0274413 -0.107742 0)
(0.0245906 -0.106198 0)
(0.0217418 -0.10477 0)
(0.0188932 -0.103451 0)
(0.0160426 -0.102235 0)
(0.0131877 -0.101117 0)
(0.0103258 -0.100095 0)
(0.00745378 -0.0991661 0)
(0.00456825 -0.0983295 0)
(0.00166527 -0.0975836 0)
(-0.00125965 -0.0969268 0)
(-0.00421042 -0.096361 0)
(-0.00718962 -0.0958915 0)
(-0.0101992 -0.095523 0)
(-0.0132418 -0.0952595 0)
(-0.0163204 -0.0951043 0)
(-0.0194383 -0.0950603 0)
(-0.0225991 -0.0951299 0)
(-0.0258065 -0.095315 0)
(-0.0290645 -0.0956172 0)
(-0.0323771 -0.0960379 0)
(-0.0357485 -0.0965781 0)
(-0.039183 -0.0972388 0)
(-0.0426849 -0.0980202 0)
(-0.0462586 -0.0989231 0)
(-0.0499083 -0.0999472 0)
(-0.0536377 -0.101093 0)
(-0.0574509 -0.10236 0)
(-0.0613518 -0.103747 0)
(-0.0653439 -0.105253 0)
(-0.0694307 -0.106877 0)
(-0.073615 -0.108617 0)
(-0.0778992 -0.11047 0)
(-0.0822844 -0.112437 0)
(-0.0867706 -0.114515 0)
(-0.0913587 -0.116703 0)
(-0.0960459 -0.119001 0)
(-0.100826 -0.121405 0)
(-0.105679 -0.123919 0)
(-0.1106 -0.126556 0)
(-0.115697 -0.129343 0)
(-0.121178 -0.132277 0)
(-0.126437 -0.135284 0)
(-0.12776 -0.137982 0)
(-0.122247 -0.140612 0)
(-0.116843 -0.145226 0)
(-0.115071 -0.149609 0)
(-0.113679 -0.153707 0)
(-0.111831 -0.157635 0)
(-0.109661 -0.161474 0)
(-0.107309 -0.165255 0)
(-0.104811 -0.169 0)
(-0.102188 -0.172724 0)
(-0.0994603 -0.17643 0)
(-0.0966509 -0.180096 0)
(-0.0937798 -0.183668 0)
(-0.0908619 -0.187035 0)
(-0.0879326 -0.19001 0)
(-0.0850701 -0.192309 0)
(-0.0824024 -0.193529 0)
(-0.0801095 -0.193112 0)
(-0.078408 -0.190344 0)
(-0.07754 -0.184442 0)
(-0.0777026 -0.174786 0)
(-0.0789704 -0.161254 0)
(-0.0812269 -0.144443 0)
(-0.0841812 -0.125599 0)
(-0.0874585 -0.106196 0)
(-0.0907112 -0.0873549 0)
(-0.0936778 -0.0694331 0)
(-0.0961762 -0.0522454 0)
(-0.0980773 -0.0359227 0)
(-0.0993177 -0.0210202 0)
(-0.0999604 -0.00711214 0)
(0.100014 -0.00484961 0)
(0.0997498 -0.0152542 0)
(0.0991106 -0.0268218 0)
(0.0980231 -0.0396624 0)
(0.0964597 -0.0535274 0)
(0.0944083 -0.0679607 0)
(0.0918789 -0.0823178 0)
(0.0889152 -0.0957821 0)
(0.0855967 -0.10751 0)
(0.0820288 -0.116836 0)
(0.0783251 -0.123427 0)
(0.0745889 -0.127315 0)
(0.0709 -0.128831 0)
(0.0673086 -0.128482 0)
(0.0638401 -0.126825 0)
(0.0604991 -0.124365 0)
(0.0572731 -0.121504 0)
(0.0541431 -0.118526 0)
(0.051091 -0.115611 0)
(0.0480988 -0.11286 0)
(0.0451479 -0.110315 0)
(0.0422244 -0.107986 0)
(0.0393171 -0.105864 0)
(0.036418 -0.103931 0)
(0.0335209 -0.102167 0)
(0.0306217 -0.100552 0)
(0.0277174 -0.0990697 0)
(0.0248058 -0.0977057 0)
(0.021885 -0.0964491 0)
(0.0189532 -0.0952915 0)
(0.0160087 -0.0942268 0)
(0.0130495 -0.0932506 0)
(0.0100731 -0.0923599 0)
(0.00707703 -0.0915522 0)
(0.00405815 -0.0908259 0)
(0.00101283 -0.0901791 0)
(-0.00206279 -0.0896104 0)
(-0.00517188 -0.089122 0)
(-0.00831609 -0.0887191 0)
(-0.011497 -0.0884059 0)
(-0.0147168 -0.0881859 0)
(-0.0179781 -0.088062 0)
(-0.0212838 -0.0880367 0)
(-0.0246371 -0.0881122 0)
(-0.0280413 -0.08829 0)
(-0.0315001 -0.0885715 0)
(-0.0350171 -0.0889578 0)
(-0.0385961 -0.0894497 0)
(-0.0422407 -0.0900477 0)
(-0.0459548 -0.0907523 0)
(-0.049742 -0.0915633 0)
(-0.0536064 -0.0924806 0)
(-0.0575514 -0.0935036 0)
(-0.0615805 -0.0946316 0)
(-0.0656962 -0.0958634 0)
(-0.069901 -0.0971976 0)
(-0.0741965 -0.098632 0)
(-0.0785842 -0.100164 0)
(-0.0830651 -0.101791 0)
(-0.0876384 -0.103511 0)
(-0.0923027 -0.10532 0)
(-0.0970528 -0.107216 0)
(-0.101883 -0.109193 0)
(-0.106778 -0.111241 0)
(-0.111714 -0.113355 0)
(-0.116679 -0.115548 0)
(-0.121781 -0.117846 0)
(-0.127256 -0.120253 0)
(-0.132013 -0.12264 0)
(-0.131384 -0.124752 0)
(-0.126758 -0.127398 0)
(-0.122996 -0.131486 0)
(-0.120954 -0.135474 0)
(-0.118918 -0.139227 0)
(-0.116573 -0.142817 0)
(-0.114015 -0.146299 0)
(-0.111311 -0.149706 0)
(-0.108482 -0.153071 0)
(-0.105545 -0.156416 0)
(-0.102519 -0.159747 0)
(-0.0994248 -0.163047 0)
(-0.0962801 -0.166264 0)
(-0.0931 -0.169291 0)
(-0.0899268 -0.171952 0)
(-0.0868434 -0.173976 0)
(-0.0839917 -0.174974 0)
(-0.0815478 -0.174412 0)
(-0.0797401 -0.171621 0)
(-0.0788009 -0.165902 0)
(-0.0789179 -0.156747 0)
(-0.0801388 -0.144142 0)
(-0.0823215 -0.128724 0)
(-0.0851594 -0.111666 0)
(-0.0882809 -0.0942693 0)
(-0.0913543 -0.0774757 0)
(-0.0941381 -0.0615369 0)
(-0.0964677 -0.0462504 0)
(-0.0982292 -0.0317414 0)
(-0.0993719 -0.0185398 0)
(-0.099963 -0.00627154 0)
(0.100011 -0.00438215 0)
(0.0997439 -0.0137616 0)
(0.0991053 -0.0241684 0)
(0.0980247 -0.0357048 0)
(0.0964758 -0.048153 0)
(0.0944469 -0.0611159 0)
(0.0919467 -0.0740327 0)
(0.089016 -0.086187 0)
(0.0857302 -0.0968286 0)
(0.0821907 -0.105355 0)
(0.0785087 -0.111447 0)
(0.0747868 -0.11511 0)
(0.0711073 -0.116622 0)
(0.0675263 -0.116425 0)
(0.0640666 -0.115016 0)
(0.0607309 -0.112852 0)
(0.0575124 -0.110304 0)
(0.0543931 -0.107635 0)
(0.051351 -0.105013 0)
(0.0483647 -0.102536 0)
(0.045416 -0.100246 0)
(0.0424894 -0.0981546 0)
(0.0395727 -0.0962535 0)
(0.0366566 -0.0945271 0)
(0.0337343 -0.0929568 0)
(0.0308009 -0.0915246 0)
(0.0278531 -0.0902143 0)
(0.0248885 -0.0890128 0)
(0.0219051 -0.0879094 0)
(0.0189014 -0.0868959 0)
(0.0158756 -0.0859662 0)
(0.0128261 -0.0851159 0)
(0.00975063 -0.0843417 0)
(0.00664701 -0.083641 0)
(0.00351243 -0.0830118 0)
(0.000343575 -0.0824519 0)
(-0.00286297 -0.0819607 0)
(-0.00610932 -0.0815403 0)
(-0.00939671 -0.0811955 0)
(-0.012726 -0.0809298 0)
(-0.0160993 -0.0807463 0)
(-0.0195187 -0.0806475 0)
(-0.022987 -0.0806356 0)
(-0.0265067 -0.0807122 0)
(-0.0300811 -0.0808789 0)
(-0.0337133 -0.0811366 0)
(-0.0374065 -0.0814862 0)
(-0.0411642 -0.0819282 0)
(-0.0449895 -0.0824631 0)
(-0.0488859 -0.0830909 0)
(-0.0528565 -0.0838117 0)
(-0.056904 -0.0846249 0)
(-0.0610313 -0.08553 0)
(-0.0652409 -0.0865258 0)
(-0.0695348 -0.0876109 0)
(-0.0739145 -0.0887836 0)
(-0.0783809 -0.0900415 0)
(-0.0829334 -0.0913823 0)
(-0.0875704 -0.092803 0)
(-0.0922889 -0.0943007 0)
(-0.0970837 -0.0958728 0)
(-0.101947 -0.0975163 0)
(-0.106868 -0.0992249 0)
(-0.111825 -0.100989 0)
(-0.116785 -0.102801 0)
(-0.12173 -0.10467 0)
(-0.126779 -0.106645 0)
(-0.132085 -0.108742 0)
(-0.13648 -0.110872 0)
(-0.134887 -0.112843 0)
(-0.130883 -0.115729 0)
(-0.128027 -0.119087 0)
(-0.125758 -0.122403 0)
(-0.123304 -0.125614 0)
(-0.120595 -0.128732 0)
(-0.117719 -0.131769 0)
(-0.114717 -0.134755 0)
(-0.111605 -0.137719 0)
(-0.108399 -0.140681 0)
(-0.105118 -0.143642 0)
(-0.101781 -0.146585 0)
(-0.0984022 -0.149457 0)
(-0.094999 -0.152158 0)
(-0.0916159 -0.154519 0)
(-0.0883495 -0.156281 0)
(-0.08534 -0.157073 0)
(-0.0827768 -0.156388 0)
(-0.0808843 -0.15361 0)
(-0.0798955 -0.148125 0)
(-0.0799804 -0.139535 0)
(-0.0811639 -0.127913 0)
(-0.0832801 -0.113915 0)
(-0.086012 -0.0986144 0)
(-0.0889935 -0.0831452 0)
(-0.0919087 -0.0682872 0)
(-0.0945333 -0.054209 0)
(-0.0967174 -0.0407025 0)
(-0.098359 -0.0278859 0)
(-0.0994179 -0.0162586 0)
(-0.0999648 -0.00549759 0)
(0.100009 -0.00391753 0)
(0.0997376 -0.0122841 0)
(0.0990979 -0.0215492 0)
(0.0980208 -0.031806 0)
(0.0964815 -0.042865 0)
(0.0944687 -0.0543837 0)
(0.0919903 -0.0658792 0)
(0.0890845 -0.0767299 0)
(0.0858235 -0.0862767 0)
(0.0823054 -0.0939801 0)
(0.0786393 -0.0995424 0)
(0.0749275 -0.102947 0)
(0.0712514 -0.104423 0)
(0.0676658 -0.10435 0)
(0.0642026 -0.103168 0)
(0.0608688 -0.101286 0)
(0.0576532 -0.099038 0)
(0.0545396 -0.0966677 0)
(0.0515038 -0.0943333 0)
(0.048521 -0.0921245 0)
(0.0455724 -0.0900827 0)
(0.0426415 -0.0882195 0)
(0.0397151 -0.0865291 0)
(0.036783 -0.0849978 0)
(0.0338377 -0.0836089 0)
(0.0308738 -0.082346 0)
(0.0278877 -0.0811942 0)
(0.0248766 -0.0801412 0)
(0.0218387 -0.0791769 0)
(0.0187724 -0.0782938 0)
(0.0156761 -0.0774856 0)
(0.0125481 -0.0767482 0)
(0.00938681 -0.0760781 0)
(0.00618996 -0.0754728 0)
(0.0029552 -0.0749299 0)
(-0.000320639 -0.0744475 0)
(-0.00364024 -0.0740246 0)
(-0.0070053 -0.0736644 0)
(-0.0104161 -0.0733703 0)
(-0.0138736 -0.0731457 0)
(-0.017379 -0.0729927 0)
(-0.0209348 -0.072914 0)
(-0.0245428 -0.072911 0)
(-0.0282058 -0.0729854 0)
(-0.0319262 -0.073138 0)
(-0.035707 -0.07337 0)
(-0.039551 -0.0736818 0)
(-0.0434612 -0.0740738 0)
(-0.0474404 -0.0745462 0)
(-0.0514915 -0.075099 0)
(-0.0556171 -0.0757319 0)
(-0.0598195 -0.0764445 0)
(-0.0641009 -0.0772361 0)
(-0.0684627 -0.0781058 0)
(-0.0729062 -0.079052 0)
(-0.0774319 -0.0800733 0)
(-0.0820393 -0.0811674 0)
(-0.0867269 -0.0823318 0)
(-0.0914918 -0.0835641 0)
(-0.0963295 -0.0848622 0)
(-0.101233 -0.0862247 0)
(-0.106193 -0.0876502 0)
(-0.111196 -0.0891347 0)
(-0.116216 -0.0906706 0)
(-0.121221 -0.0922517 0)
(-0.126192 -0.0938927 0)
(-0.131268 -0.0956476 0)
(-0.136575 -0.0975645 0)
(-0.140732 -0.0995518 0)
(-0.138422 -0.101456 0)
(-0.134244 -0.104254 0)
(-0.131624 -0.107009 0)
(-0.129275 -0.10973 0)
(-0.126651 -0.112419 0)
(-0.12375 -0.115061 0)
(-0.120679 -0.117655 0)
(-0.117477 -0.120226 0)
(-0.114164 -0.122799 0)
(-0.110759 -0.125386 0)
(-0.10728 -0.127987 0)
(-0.103749 -0.130581 0)
(-0.100179 -0.133117 0)
(-0.0965886 -0.135499 0)
(-0.0930307 -0.137565 0)
(-0.0896075 -0.139073 0)
(-0.0864674 -0.139668 0)
(-0.0838044 -0.138879 0)
(-0.0818466 -0.136149 0)