/*--------------------------------*- C++ -*----------------------------------*\
  =========                 |
  \\      /  F ield         | OpenFOAM: The Open Source CFD Toolbox
   \\    /   O peration     | Website:  https://openfoam.org
    \\  /    A nd           | Version:  8
     \\/     M anipulation  |
\*---------------------------------------------------------------------------*/
FoamFile
{
    version     2.0;
    format      ascii;
    class       volScalarField;
    location    "0.5/fluid";
    object      CH4;
}
// * * * * * * * * * * * * * * * * * * * * * * * * * * * * * * * * * * * * * //

dimensions      [0 0 0 0 0 0 0];

internalField   nonuniform List<scalar> 
4000
(
0.999997
0.999986
0.999968
0.999938
0.999888
0.999805
0.999667
0.999442
0.999078
0.998496
0.997578
0.996155
0.993991
0.990775
0.986121
0.979584
0.970699
0.959039
0.944278
0.92624
0.904918
0.880465
0.853159
0.823364
0.791496
0.757989
0.72328
0.687787
0.651775
0.615581
0.57967
0.544288
0.509652
0.475943
0.443309
0.411867
0.381708
0.352893
0.325461
0.299428
0.274791
0.251537
0.229636
0.209052
0.189739
0.17165
0.154729
0.138922
0.124172
0.110421
0.0976154
0.0856998
0.0746233
0.0643378
0.0548003
0.0459741
0.0378312
0.0304619
0.0238237
0.0176905
0.0123238
0.00786357
0.00456549
0.00261099
0.0014608
0.000794807
0.000418144
0.000211428
0.000102049
4.67111e-05
2.01357e-05
8.16002e-06
3.24966e-06
1.63983e-06
1.15574e-06
8.89137e-07
6.6152e-07
4.66498e-07
3.08686e-07
1.90266e-07
1.09025e-07
5.83449e-08
2.94231e-08
1.42022e-08
6.64604e-09
3.03655e-09
1.35859e-09
5.9823e-10
2.59407e-10
1.11278e-10
4.71879e-11
1.9865e-11
8.28894e-12
3.43931e-12
1.415e-12
5.76849e-13
2.30374e-13
8.80122e-14
2.9319e-14
5.17913e-15
0.999997
0.999986
0.999968
0.999938
0.999888
0.999805
0.999667
0.999442
0.999078
0.998496
0.997582
0.996167
0.994023
0.990848
0.986266
0.97984
0.971117
0.95967
0.94517
0.927425
0.906409
0.882252
0.855211
0.825635
0.793926
0.760513
0.725825
0.690189
0.654027
0.617908
0.581968
0.546492
0.51172
0.47785
0.445042
0.413419
0.383079
0.354088
0.326486
0.300292
0.275506
0.252113
0.230085
0.209386
0.189971
0.171789
0.154786
0.138907
0.124094
0.110289
0.0974366
0.0854817
0.074372
0.0640591
0.0544992
0.0456555
0.0374998
0.0301478
0.0235117
0.0173883
0.0120479
0.00763747
0.00442627
0.00252528
0.00140857
0.000763551
0.000399891
0.000201091
9.64085e-05
4.378e-05
1.86978e-05
7.51281e-06
3.01546e-06
1.61062e-06
1.15957e-06
8.83219e-07
6.48253e-07
4.50923e-07
2.94439e-07
1.79398e-07
1.01986e-07
5.44203e-08
2.75077e-08
1.33451e-08
6.28752e-09
2.8941e-09
1.30447e-09
5.78272e-10
2.52206e-10
1.08684e-10
4.62432e-11
1.95095e-11
8.15064e-12
3.38317e-12
1.39174e-12
5.67138e-13
2.26424e-13
8.65119e-14
2.8806e-14
5.11442e-15
0.999997
0.999986
0.999968
0.999938
0.999888
0.999804
0.999666
0.999441
0.999076
0.998496
0.997583
0.996175
0.994047
0.990899
0.986365
0.980019
0.971414
0.960134
0.945848
0.928361
0.907634
0.88378
0.857039
0.82774
0.79627
0.763044
0.728447
0.692835
0.656884
0.620743
0.584738
0.549159
0.51425
0.480216
0.447223
0.415402
0.384855
0.355654
0.327844
0.301447
0.276466
0.252888
0.230687
0.209828
0.190265
0.171949
0.154825
0.138838
0.12393
0.110043
0.0971187
0.0851025
0.0739414
0.0635861
0.0539923
0.0451221
0.0369464
0.0296253
0.022982
0.0168757
0.0115829
0.00725969
0.0041957
0.00238475
0.00132392
0.000713563
0.000371147
0.000185101
8.78764e-05
3.94544e-05
1.6637e-05
6.61839e-06
2.70693e-06
1.54187e-06
1.13883e-06
8.61859e-07
6.26224e-07
4.31165e-07
2.78935e-07
1.68747e-07
9.55464e-08
5.09447e-08
2.57998e-08
1.2551e-08
5.9342e-09
2.74171e-09
1.24063e-09
5.52002e-10
2.41598e-10
1.04421e-10
4.45425e-11
1.88271e-11
7.87621e-12
3.27167e-12
1.34638e-12
5.48633e-13
2.19045e-13
8.37792e-14
2.78854e-14
4.9826e-15
0.999997
0.999986
0.999968
0.999938
0.999888
0.999805
0.999668
0.999443
0.999082
0.998506
0.997603
0.99621
0.994107
0.991
0.986527
0.980271
0.97179
0.960669
0.946578
0.929314
0.908831
0.885229
0.858735
0.829667
0.798402
0.765345
0.730798
0.695456
0.659526
0.623369
0.587314
0.551649
0.516625
0.48245
0.449294
0.417294
0.386556
0.357158
0.329147
0.302552
0.277376
0.253611
0.231233
0.210207
0.190488
0.172028
0.154775
0.138673
0.123662
0.109684
0.0966816
0.0845993
0.0733839
0.0629862
0.0533624
0.0444759
0.0363004
0.029034
0.0222566
0.016214
0.0110019
0.00679662
0.00391692
0.00221714
0.00122437
0.000655618
0.000338341
0.000167161
7.85008e-05
3.48045e-05
1.4479e-05
5.71673e-06
2.42619e-06
1.47815e-06
1.11016e-06
8.3429e-07
6.00223e-07
4.08873e-07
2.61713e-07
1.56834e-07
8.81614e-08
4.68003e-08
2.36612e-08
1.15154e-08
5.45348e-09
2.52563e-09
1.14604e-09
5.11438e-10
2.24527e-10
9.73323e-11
4.16377e-11
1.7645e-11
7.39927e-12
3.0796e-12
1.26961e-12
5.18075e-13
2.07116e-13
7.9384e-14
2.64422e-14
4.76244e-15
0.999997
0.999986
0.999969
0.999939
0.999889
0.999806
0.99967
0.999447
0.999088
0.998518
0.997623
0.996245
0.994164
0.991093
0.986674
0.980495
0.972119
0.961133
0.947206
0.930132
0.909854
0.886465
0.860181
0.831312
0.800225
0.767293
0.732987
0.697689
0.661779
0.625614
0.58952
0.553786
0.518665
0.484369
0.451073
0.418916
0.38801
0.358436
0.330245
0.303469
0.278116
0.254179
0.231635
0.210451
0.190585
0.171992
0.154618
0.138404
0.123295
0.10923
0.0961535
0.0840083
0.0727414
0.0623037
0.0526512
0.0437476
0.035567
0.0283118
0.0215447
0.0155422
0.0104035
0.00631805
0.00362985
0.00204571
0.00112344
0.000597515
0.000305862
0.000149656
6.95048e-05
3.04274e-05
1.24943e-05
4.91913e-06
2.21101e-06
1.42815e-06
1.08072e-06
8.05983e-07
5.74465e-07
3.87511e-07
2.45701e-07
1.46047e-07
8.16126e-08
4.31737e-08
2.17989e-08
1.06111e-08
5.03031e-09
2.33314e-09
1.06052e-09
4.74117e-10
2.08503e-10
9.05335e-11
3.87867e-11
1.6458e-11
6.9095e-12
2.87839e-12
1.18767e-12
4.85003e-13
1.9403e-13
7.44948e-14
2.48098e-14
4.50839e-15
0.999997
0.999986
0.999969
0.999939
0.99989
0.999808
0.999672
0.999452
0.999097
0.998532
0.997647
0.996284
0.994227
0.991192
0.986825
0.980718
0.972437
0.961569
0.947783
0.930866
0.910757
0.887539
0.861422
0.832707
0.801759
0.768898
0.734716
0.699494
0.663619
0.627455
0.59133
0.555539
0.520334
0.485934
0.452516
0.420223
0.38917
0.359442
0.331094
0.30416
0.27865
0.254561
0.231869
0.210546
0.190554
0.171842
0.154358
0.138046
0.122849
0.108709
0.0955664
0.0833665
0.0720554
0.0615837
0.0519073
0.0429902
0.0348253
0.0275851
0.0208422
0.0148855
0.00982225
0.00585676
0.00335553
0.00188348
0.00102895
0.000543736
0.000276175
0.000133876
6.15184e-05
2.66076e-05
1.07968e-05
4.25521e-06
2.03493e-06
1.38164e-06
1.04969e-06
7.77614e-07
5.49519e-07
3.67217e-07
2.3065e-07
1.35944e-07
7.5458e-08
3.97317e-08
2.00054e-08
9.72866e-09
4.61184e-09
2.14048e-09
9.73988e-10
4.36041e-10
1.9205e-10
8.35233e-11
3.58401e-11
1.52302e-11
6.40319e-12
2.67066e-12
1.10321e-12
4.5097e-13
1.80574e-13
6.9454e-14
2.31285e-14
4.24041e-15
0.999997
0.999987
0.999969
0.99994
0.999891
0.999809
0.999675
0.999457
0.999105
0.998546
0.99767
0.996321
0.994286
0.991283
0.986963
0.980919
0.97272
0.961954
0.948287
0.931503
0.911534
0.888457
0.862474
0.833881
0.803027
0.770337
0.736197
0.701002
0.665137
0.628959
0.592798
0.556948
0.521667
0.487173
0.453647
0.421234
0.390053
0.360191
0.331707
0.304636
0.278992
0.254769
0.231952
0.210513
0.19041
0.171596
0.154019
0.137624
0.122354
0.108149
0.0949531
0.0827087
0.0713626
0.0608651
0.0511722
0.0422479
0.0341106
0.0268917
0.0201792
0.0142724
0.00928704
0.00544081
0.0031108
0.00174012
0.000946197
0.000497063
0.000250656
0.000120455
5.48066e-05
2.34426e-05
9.41907e-06
3.74608e-06
1.93326e-06
1.35582e-06
1.02555e-06
7.52742e-07
5.26895e-07
3.48754e-07
2.17078e-07
1.26945e-07
7.0038e-08
3.67254e-08
1.84456e-08
8.96158e-09
4.24721e-09
1.97181e-09
8.97749e-10
4.02229e-10
1.77317e-10
7.71898e-11
3.31551e-11
1.41023e-11
5.93464e-12
2.47719e-12
1.02412e-12
4.18964e-13
1.67865e-13
6.46665e-14
2.15414e-14
3.97997e-15
0.999997
0.999987
0.999969
0.99994
0.999891
0.999811
0.999678
0.999462
0.999113
0.998559
0.997692
0.996357
0.994342
0.991368
0.987089
0.981101
0.972973
0.962295
0.948729
0.932056
0.912203
0.889241
0.863369
0.834874
0.80408
0.771475
0.737388
0.70222
0.666359
0.630163
0.593966
0.558061
0.522709
0.48813
0.454508
0.42199
0.390698
0.360721
0.332119
0.304931
0.27917
0.254837
0.231917
0.210377
0.190181
0.171282
0.153628
0.137165
0.121835
0.10758
0.0943409
0.0820626
0.0706908
0.060176
0.0504743
0.0415503
0.0334525
0.0262574
0.0195795
0.0137283
0.0088296
0.005119
0.00291781
0.00162562
0.000879577
0.000459338
0.000230015
0.000109625
4.9418e-05
2.09214e-05
8.3335e-06
3.34766e-06
1.82043e-06
1.31398e-06
9.93243e-07
7.25112e-07
5.04157e-07
3.31236e-07
2.04649e-07
1.18884e-07
6.52421e-08
3.40793e-08
1.70729e-08
8.28525e-09
3.92462e-09
1.822e-09
8.2974e-10
3.71949e-10
1.64073e-10
7.1478e-11
3.07272e-11
1.30799e-11
5.50897e-12
2.30115e-12
9.52016e-13
3.89706e-13
1.56223e-13
6.02305e-14
2.00608e-14
3.722e-15
0.999997
0.999987
0.999969
0.999941
0.999892
0.999812
0.999681
0.999466
0.999121
0.998572
0.997712
0.996389
0.994392
0.991444
0.987201
0.98126
0.973194
0.96259
0.949108
0.932528
0.91277
0.889903
0.86412
0.83571
0.805018
0.772439
0.738371
0.703211
0.667341
0.631122
0.594885
0.558928
0.52351
0.488854
0.455147
0.422537
0.391148
0.361072
0.33237
0.305081
0.279225
0.2548
0.231791
0.210169
0.189896
0.170928
0.153212
0.136694
0.121317
0.107022
0.0937505
0.0814472
0.0700579
0.059533
0.049829
0.040911
0.0328625
0.0256907
0.0190481
0.0132539
0.00844432
0.00487428
0.0027686
0.00153601
0.00082701
0.000429416
0.000213599
0.000101036
4.51572e-05
1.89406e-05
7.49423e-06
3.05834e-06
1.74142e-06
1.28019e-06
9.65397e-07
7.01072e-07
4.84416e-07
3.16119e-07
1.93999e-07
1.1202e-07
6.11772e-08
3.18409e-08
1.59113e-08
7.7118e-09
3.65024e-09
1.69406e-09
7.7142e-10
3.45858e-10
1.52611e-10
6.65118e-11
2.8608e-11
1.21839e-11
5.13469e-12
2.14591e-12
8.88255e-13
3.63748e-13
1.45873e-13
5.62658e-14
1.87417e-14
3.48862e-15
0.999997
0.999987
0.99997
0.999941
0.999893
0.999814
0.999683
0.99947
0.999128
0.998583
0.99773
0.996417
0.994436
0.99151
0.987298
0.981399
0.973384
0.962842
0.949432
0.932927
0.913246
0.890453
0.864733
0.836362
0.805735
0.773199
0.739153
0.703998
0.668118
0.631874
0.595599
0.559592
0.524114
0.489391
0.455608
0.422919
0.391446
0.361285
0.332498
0.305126
0.27919
0.254688
0.231605
0.209916
0.189581
0.170557
0.152792
0.136231
0.120816
0.106491
0.0931961
0.080875
0.069474
0.0589436
0.0492407
0.0403312
0.0323351
0.0251862
0.0185781
0.012838
0.00811171
0.00467168
0.00264563
0.00146243
0.000783981
0.000405006
0.000200259
9.40931e-05
4.17346e-05
1.73639e-05
6.83946e-06
2.85195e-06
1.6888e-06
1.25518e-06
9.43209e-07
6.81298e-07
4.67921e-07
3.03402e-07
1.85024e-07
1.06236e-07
5.7751e-08
2.99522e-08
1.49291e-08
7.22562e-09
3.41692e-09
1.58493e-09
7.21525e-10
3.2347e-10
1.42751e-10
6.22277e-11
2.67756e-11
1.14077e-11
4.80975e-12
2.01085e-12
8.32687e-13
3.41108e-13
1.36842e-13
5.28263e-14
1.75955e-14
3.29216e-15
0.999997
0.999987
0.99997
0.999941
0.999894
0.999815
0.999685
0.999474
0.999134
0.998593
0.997746
0.996442
0.994474
0.991568
0.987382
0.981517
0.973546
0.963056
0.949705
0.933263
0.913648
0.890919
0.865265
0.836954
0.806346
0.773824
0.739785
0.704625
0.668729
0.632459
0.596148
0.560094
0.524563
0.489779
0.45593
0.423172
0.391629
0.361395
0.332536
0.305096
0.279093
0.254527
0.231385
0.209641
0.189257
0.170188
0.152384
0.13579
0.120348
0.106
0.0926875
0.080354
0.0689454
0.0584122
0.0487111
0.0398084
0.0318602
0.0247365
0.018162
0.0124718
0.00782049
0.00449614
0.00254002
0.00139975
0.000747601
0.000384523
0.00018915
8.83556e-05
3.89299e-05
1.6084e-05
6.31447e-06
2.68995e-06
1.64814e-06
1.23424e-06
9.24512e-07
6.64622e-07
4.53982e-07
2.92649e-07
1.77444e-07
1.0136e-07
5.48678e-08
2.83637e-08
1.41027e-08
6.81611e-09
3.22004e-09
1.49269e-09
6.79251e-10
3.04465e-10
1.34364e-10
5.85762e-11
2.52106e-11
1.07435e-11
4.53121e-12
1.89492e-12
7.84917e-13
3.2163e-13
1.29061e-13
4.98801e-14
1.66115e-14
3.12967e-15
0.999997
0.999987
0.99997
0.999942
0.999895
0.999816
0.999687
0.999477
0.999139
0.998601
0.997759
0.996463
0.994507
0.991617
0.987453
0.981617
0.973682
0.963235
0.949931
0.933539
0.913973
0.891288
0.865669
0.8374
0.806821
0.774315
0.740281
0.705116
0.669204
0.632909
0.596563
0.560468
0.524889
0.490052
0.456147
0.42333
0.391726
0.361431
0.332515
0.305017
0.278958
0.25434
0.231151
0.209363
0.188939
0.169836
0.152002
0.135383
0.11992
0.105556
0.0922322
0.0798911
0.0684786
0.0579451
0.0482473
0.0393517
0.0314498
0.0243439
0.0177971
0.0121504
0.00756532
0.00434291
0.00244831
0.00134565
0.000716424
0.000367097
0.000179773
8.3553e-05
3.66034e-05
1.50345e-05
5.89486e-06
2.57643e-06
1.6216e-06
1.21891e-06
9.09642e-07
6.50859e-07
4.42284e-07
2.8357e-07
1.71039e-07
9.72465e-08
5.24394e-08
2.70274e-08
1.34077e-08
6.47165e-09
3.05427e-09
1.41499e-09
6.43583e-10
2.88421e-10
1.27273e-10
5.54863e-11
2.38844e-11
1.018e-11
4.29461e-12
1.79633e-12
7.44268e-13
3.05046e-13
1.22454e-13
4.73924e-14
1.57812e-14
2.99634e-15
0.999997
0.999987
0.99997
0.999942
0.999895
0.999817
0.999689
0.99948
0.999144
0.998609
0.997771
0.996482
0.994534
0.991658
0.987513
0.981701
0.973796
0.963384
0.950118
0.933767
0.914239
0.89159
0.865998
0.837758
0.807199
0.774704
0.740671
0.705498
0.66957
0.633251
0.596874
0.560742
0.525121
0.490238
0.456285
0.423418
0.391763
0.361419
0.332453
0.304908
0.278804
0.254145
0.230917
0.209094
0.18864
0.169511
0.151654
0.135016
0.11954
0.105165
0.0918348
0.0794906
0.0680784
0.0575481
0.0478558
0.0389665
0.0311017
0.0239961
0.0174707
0.0118636
0.00733893
0.00420767
0.0023679
0.00129858
0.000689507
0.000352178
0.000171814
7.95116e-05
3.46633e-05
1.41682e-05
5.55426e-06
2.49e-06
1.6008e-06
1.20546e-06
8.96487e-07
6.38775e-07
4.32108e-07
2.75745e-07
1.65566e-07
9.3757e-08
5.03909e-08
2.59044e-08
1.28251e-08
6.18332e-09
2.91555e-09
1.34998e-09
6.1374e-10
2.74992e-10
1.21333e-10
5.28969e-11
2.27715e-11
9.70686e-12
4.09577e-12
1.71343e-12
7.10045e-13
2.9108e-13
1.16871e-13
4.52996e-14
1.50801e-14
2.88485e-15
0.999997
0.999987
0.99997
0.999942
0.999896
0.999818
0.99969
0.999482
0.999147
0.998615
0.997781
0.996497
0.994557
0.991692
0.987562
0.98177
0.973889
0.963506
0.950272
0.933954
0.914461
0.891844
0.866283
0.838056
0.807506
0.775014
0.740977
0.705794
0.66985
0.633508
0.597104
0.56094
0.525282
0.490361
0.456367
0.423458
0.391762
0.361376
0.33237
0.304786
0.278646
0.253954
0.230696
0.208846
0.188368
0.169218
0.151345
0.134695
0.119208
0.104828
0.0914953
0.0791526
0.0677462
0.0572269
0.0475523
0.0386909
0.0308868
0.0236078
0.0171455
0.0115951
0.007134
0.00408733
0.00229737
0.00125777
0.000666419
0.000339501
0.000165111
7.61369e-05
3.30565e-05
1.34558e-05
5.27313e-06
2.40951e-06
1.57774e-06
1.19059e-06
8.83493e-07
6.27617e-07
4.23072e-07
2.68966e-07
1.60901e-07
9.08164e-08
4.86778e-08
2.497e-08
1.23418e-08
5.94453e-09
2.80075e-09
1.29619e-09
5.89066e-10
2.63874e-10
1.16414e-10
5.07501e-11
2.18486e-11
9.31414e-12
3.93062e-12
1.64455e-12
6.81596e-13
2.7944e-13
1.12239e-13
4.35674e-14
1.45022e-14
2.79549e-15
0.999997
0.999987
0.99997
0.999943
0.999896
0.999819
0.999691
0.999484
0.99915
0.99862
0.997789
0.996509
0.994576
0.99172
0.987602
0.981826
0.973965
0.963604
0.950395
0.934103
0.914634
0.892039
0.866497
0.838284
0.807742
0.775252
0.741212
0.706019
0.67006
0.633698
0.59727
0.561079
0.525391
0.490437
0.45641
0.423466
0.391736
0.361317
0.332278
0.304664
0.278495
0.253777
0.230495
0.208624
0.188128
0.168963
0.151078
0.134418
0.118925
0.104541
0.0912064
0.0788651
0.0674623
0.0569488
0.0472819
0.0384292
0.0306337
0.0233532
0.0169077
0.0113874
0.00697104
0.00399053
0.00224023
0.0012246
0.000647628
0.00032919
0.000159671
7.34065e-05
3.17619e-05
1.2885e-05
5.05057e-06
2.34888e-06
1.55969e-06
1.17828e-06
8.72653e-07
6.18334e-07
4.1559e-07
2.6338e-07
1.57076e-07
8.84144e-08
4.72825e-08
2.42103e-08
1.19492e-08
5.75058e-09
2.70751e-09
1.25246e-09
5.69003e-10
2.54823e-10
1.12407e-10
4.89996e-11
2.10954e-11
8.99335e-12
3.79561e-12
1.58818e-12
6.5831e-13
2.69907e-13
1.08444e-13
4.21655e-14
1.40341e-14
2.72464e-15
0.999997
0.999987
0.999971
0.999943
0.999896
0.999819
0.999692
0.999486
0.999153
0.998624
0.997795
0.996519
0.994591
0.991742
0.987633
0.98187
0.974024
0.963681
0.950491
0.934217
0.914766
0.892186
0.86666
0.838457
0.807921
0.775432
0.741388
0.706187
0.670215
0.633836
0.597388
0.561174
0.525461
0.490481
0.456427
0.423456
0.391698
0.361253
0.332188
0.30455
0.278359
0.25362
0.23032
0.208433
0.187924
0.168747
0.150853
0.134186
0.118688
0.104301
0.0909661
0.0786256
0.0672253
0.0567156
0.0470537
0.0382071
0.0304198
0.0231503
0.0167211
0.0112245
0.00684291
0.00391435
0.00219523
0.00119845
0.000632813
0.000321065
0.000155388
7.12612e-05
3.07476e-05
1.24401e-05
4.87993e-06
2.30585e-06
1.54731e-06
1.16944e-06
8.64565e-07
6.11239e-07
4.09786e-07
2.59008e-07
1.54068e-07
8.65209e-08
4.61813e-08
2.361e-08
1.16385e-08
5.59684e-09
2.63356e-09
1.21771e-09
5.53045e-10
2.47614e-10
1.09213e-10
4.76026e-11
2.04939e-11
8.73697e-12
3.68764e-12
1.54307e-12
6.39675e-13
2.62255e-13
1.05404e-13
4.10441e-14
1.36597e-14
2.66839e-15
0.999997
0.999987
0.999971
0.999943
0.999896
0.999819
0.999693
0.999487
0.999155
0.998627
0.9978
0.996526
0.994602
0.991759
0.987658
0.981904
0.974069
0.963739
0.950564
0.934306
0.91487
0.892304
0.866786
0.838589
0.808056
0.775566
0.741518
0.706309
0.670326
0.633934
0.59747
0.561237
0.525505
0.490505
0.456429
0.423437
0.391658
0.361192
0.332108
0.304451
0.278244
0.25349
0.230176
0.208277
0.187757
0.168573
0.150672
0.134
0.118499
0.10411
0.0907743
0.0784346
0.0670364
0.0565299
0.0468724
0.0380315
0.0302522
0.0229925
0.0165767
0.0110989
0.00674431
0.00385582
0.0021607
0.00117842
0.00062148
0.000314859
0.000152124
6.9629e-05
2.99778e-05
1.21038e-05
4.75252e-06
2.27619e-06
1.54008e-06
1.16392e-06
8.59101e-07
6.06214e-07
4.05557e-07
2.55766e-07
1.5181e-07
8.50884e-08
4.53434e-08
2.31513e-08
1.14004e-08
5.47873e-09
2.5767e-09
1.19094e-09
5.40739e-10
2.42049e-10
1.06746e-10
4.65226e-11
2.00286e-11
8.53859e-12
3.60405e-12
1.50813e-12
6.25236e-13
2.56326e-13
1.03049e-13
4.01745e-14
1.33692e-14
2.62493e-15
0.999997
0.999987
0.999971
0.999943
0.999897
0.99982
0.999693
0.999488
0.999156
0.998629
0.997803
0.996532
0.994611
0.991771
0.987675
0.981928
0.974102
0.963782
0.950617
0.93437
0.914943
0.892386
0.866874
0.838682
0.80815
0.77566
0.741608
0.706393
0.670402
0.634
0.597524
0.561278
0.525531
0.490516
0.456424
0.423417
0.391622
0.361142
0.332044
0.304374
0.278154
0.253389
0.230065
0.208158
0.187631
0.168441
0.150535
0.13386
0.118357
0.103967
0.090631
0.0782921
0.0668956
0.0563917
0.0467377
0.0379015
0.0301284
0.0228765
0.0164708
0.0110069
0.00667211
0.00381306
0.00213553
0.00116385
0.000613253
0.000310363
0.000149762
6.8451e-05
2.94237e-05
1.18628e-05
4.66276e-06
2.25708e-06
1.53615e-06
1.16071e-06
8.55641e-07
6.02873e-07
4.02663e-07
2.53508e-07
1.50219e-07
8.40679e-08
4.47409e-08
2.28192e-08
1.12272e-08
5.39264e-09
2.53521e-09
1.17138e-09
5.31744e-10
2.37979e-10
1.04941e-10
4.57324e-11
1.96882e-11
8.39343e-12
3.5429e-12
1.48253e-12
6.14663e-13
2.51986e-13
1.01324e-13
3.95382e-14
1.31567e-14
2.59324e-15
0.999997
0.999987
0.999971
0.999943
0.999897
0.99982
0.999694
0.999488
0.999157
0.99863
0.997806
0.996535
0.994616
0.991779
0.987687
0.981944
0.974123
0.963809
0.950651
0.93441
0.91499
0.892439
0.866931
0.838741
0.808211
0.775719
0.741665
0.706446
0.670449
0.63404
0.597556
0.561301
0.525545
0.49052
0.456418
0.4234
0.391596
0.361106
0.331999
0.30432
0.278093
0.25332
0.22999
0.208078
0.187547
0.168352
0.150444
0.133766
0.118262
0.103871
0.0905357
0.0781975
0.0668023
0.0563002
0.0466488
0.0378157
0.030047
0.0228002
0.0164014
0.0109467
0.00662495
0.00378514
0.0021191
0.00115435
0.000607894
0.000307437
0.000148229
6.76869e-05
2.90649e-05
1.17074e-05
4.60575e-06
2.24587e-06
1.53419e-06
1.15901e-06
8.53643e-07
6.00865e-07
4.00886e-07
2.52105e-07
1.49222e-07
8.34231e-08
4.43563e-08
2.26057e-08
1.11153e-08
5.33688e-09
2.5083e-09
1.15868e-09
5.25899e-10
2.35332e-10
1.03767e-10
4.52181e-11
1.94665e-11
8.29887e-12
3.50306e-12
1.46585e-12
6.07772e-13
2.49154e-13
1.002e-13
3.91242e-14
1.30184e-14
2.57276e-15
0.999997
0.999987
0.999971
0.999943
0.999897
0.99982
0.999694
0.999488
0.999157
0.998631
0.997807
0.996537
0.994618
0.991782
0.987692
0.981951
0.974133
0.963822
0.950667
0.93443
0.915012
0.892463
0.866958
0.838769
0.808239
0.775747
0.741692
0.706471
0.670472
0.634059
0.597571
0.561312
0.525551
0.490521
0.456414
0.423391
0.391582
0.361087
0.331976
0.304293
0.278062
0.253286
0.229953
0.208038
0.187505
0.168308
0.150399
0.13372
0.118215
0.103824
0.0904887
0.0781508
0.0667562
0.0562551
0.0466049
0.0377734
0.0300068
0.0227626
0.0163672
0.0109171
0.00660179
0.00377144
0.00211105
0.0011497
0.000605271
0.000306007
0.00014748
6.73145e-05
2.88904e-05
1.16319e-05
4.57792e-06
2.24057e-06
1.53331e-06
1.15824e-06
8.52731e-07
5.99939e-07
4.00064e-07
2.51457e-07
1.48764e-07
8.31277e-08
4.41799e-08
2.25074e-08
1.10636e-08
5.311e-09
2.49578e-09
1.15275e-09
5.23163e-10
2.34089e-10
1.03214e-10
4.49754e-11
1.93617e-11
8.25403e-12
3.48412e-12
1.45789e-12
6.04476e-13
2.47796e-13
9.96589e-14
3.89249e-14
1.29517e-14
2.56292e-15
0.999997
0.999987
0.999971
0.999943
0.999897
0.99982
0.999694
0.999488
0.999157
0.998631
0.997807
0.996537
0.994618
0.991782
0.987692
0.981951
0.974133
0.963822
0.950667
0.93443
0.915012
0.892463
0.866958
0.838769
0.808239
0.775747
0.741692
0.706471
0.670472
0.634059
0.597571
0.561312
0.525551
0.490521
0.456414
0.423391
0.391582
0.361087
0.331976
0.304293
0.278062
0.253286
0.229953
0.208038
0.187505
0.168308
0.150399
0.13372
0.118215
0.103824
0.0904886
0.0781508
0.0667562
0.0562551
0.0466049
0.0377734
0.0300068
0.0227626
0.0163672
0.0109171
0.00660179
0.00377143
0.00211105
0.0011497
0.000605271
0.000306007
0.00014748
6.73144e-05
2.88903e-05
1.16319e-05
4.57791e-06
2.24057e-06
1.53331e-06
1.15824e-06
8.5273e-07
5.99939e-07
4.00064e-07
2.51456e-07
1.48764e-07
8.31276e-08
4.41799e-08
2.25074e-08
1.10636e-08
5.311e-09
2.49578e-09
1.15275e-09
5.23163e-10
2.34089e-10
1.03214e-10
4.49754e-11
1.93617e-11
8.25403e-12
3.48412e-12
1.45789e-12
6.04477e-13
2.47796e-13
9.96591e-14
3.8925e-14
1.29518e-14
2.56295e-15
0.999997
0.999987
0.999971
0.999943
0.999897
0.99982
0.999694
0.999488
0.999157
0.99863
0.997806
0.996535
0.994616
0.991779
0.987687
0.981944
0.974123
0.963809
0.950651
0.934411
0.91499
0.892439
0.866931
0.838741
0.808211
0.775719
0.741665
0.706446
0.670449
0.63404
0.597556
0.561301
0.525545
0.49052
0.456418
0.4234
0.391596
0.361106
0.331999
0.30432
0.278093
0.25332
0.22999
0.208078
0.187547
0.168352
0.150444
0.133766
0.118262
0.103871
0.0905357
0.0781975
0.0668022
0.0563002
0.0466488
0.0378157
0.030047
0.0228002
0.0164014
0.0109467
0.00662494
0.00378513
0.0021191
0.00115435
0.000607892
0.000307436
0.000148228
6.76866e-05
2.90648e-05
1.17074e-05
4.60572e-06
2.24586e-06
1.53419e-06
1.159e-06
8.53641e-07
6.00863e-07
4.00885e-07
2.52104e-07
1.49222e-07
8.34229e-08
4.43562e-08
2.26056e-08
1.11153e-08
5.33687e-09
2.5083e-09
1.15868e-09
5.25898e-10
2.35331e-10
1.03767e-10
4.5218e-11
1.94665e-11
8.29887e-12
3.50306e-12
1.46585e-12
6.07773e-13
2.49155e-13
1.002e-13
3.91248e-14
1.30187e-14
2.57279e-15
0.999997
0.999987
0.999971
0.999943
0.999897
0.99982
0.999693
0.999488
0.999156
0.998629
0.997803
0.996532
0.994611
0.991771
0.987675
0.981928
0.974102
0.963782
0.950617
0.93437
0.914944
0.892386
0.866875
0.838682
0.80815
0.77566
0.741608
0.706393
0.670402
0.634
0.597524
0.561278
0.525531
0.490516
0.456424
0.423417
0.391622
0.361142
0.332044
0.304374
0.278154
0.253389
0.230065
0.208158
0.187631
0.168441
0.150535
0.13386
0.118356
0.103967
0.0906309
0.078292
0.0668955
0.0563916
0.0467377
0.0379014
0.0301284
0.0228764
0.0164708
0.0110069
0.00667209
0.00381305
0.00213552
0.00116385
0.00061325
0.000310361
0.000149761
6.84505e-05
2.94234e-05
1.18627e-05
4.66272e-06
2.25706e-06
1.53614e-06
1.16071e-06
8.55637e-07
6.02871e-07
4.02662e-07
2.53507e-07
1.50219e-07
8.40677e-08
4.47408e-08
2.28192e-08
1.12272e-08
5.39262e-09
2.5352e-09
1.17138e-09
5.31742e-10
2.37978e-10
1.04941e-10
4.57323e-11
1.96881e-11
8.39341e-12
3.5429e-12
1.48253e-12
6.14663e-13
2.51986e-13
1.01325e-13
3.95391e-14
1.3157e-14
2.59334e-15
0.999997
0.999987
0.999971
0.999943
0.999896
0.999819
0.999693
0.999487
0.999155
0.998627
0.9978
0.996526
0.994602
0.991759
0.987658
0.981904
0.974069
0.963739
0.950564
0.934306
0.91487
0.892304
0.866786
0.838589
0.808056
0.775566
0.741518
0.706309
0.670326
0.633934
0.59747
0.561237
0.525505
0.490505
0.456429
0.423437
0.391658
0.361192
0.332108
0.304451
0.278244
0.253489
0.230176
0.208277
0.187757
0.168572
0.150671
0.133999
0.118499
0.10411
0.0907743
0.0784346
0.0670363
0.0565298
0.0468723
0.0380314
0.0302521
0.0229925
0.0165767
0.0110989
0.00674428
0.0038558
0.00216069
0.00117842
0.000621476
0.000314857
0.000152122
6.96283e-05
2.99775e-05
1.21037e-05
4.75246e-06
2.27617e-06
1.54007e-06
1.16391e-06
8.59095e-07
6.0621e-07
4.05554e-07
2.55764e-07
1.5181e-07
8.5088e-08
4.53432e-08
2.31512e-08
1.14003e-08
5.4787e-09
2.57669e-09
1.19093e-09
5.40736e-10
2.42047e-10
1.06745e-10
4.65224e-11
2.00285e-11
8.53856e-12
3.60405e-12
1.50812e-12
6.25236e-13
2.56326e-13
1.03049e-13
4.01757e-14
1.33697e-14
2.62505e-15
0.999997
0.999987
0.999971
0.999943
0.999896
0.999819
0.999692
0.999486
0.999153
0.998624
0.997795
0.996519
0.994591
0.991742
0.987633
0.98187
0.974024
0.963681
0.950491
0.934218
0.914766
0.892186
0.86666
0.838457
0.807921
0.775432
0.741388
0.706187
0.670215
0.633837
0.597388
0.561174
0.525461
0.490481
0.456427
0.423456
0.391698
0.361253
0.332188
0.30455
0.278359
0.25362
0.23032
0.208433
0.187924
0.168747
0.150853
0.134186
0.118688
0.104301
0.090966
0.0786255
0.0672252
0.0567155
0.0470537
0.038207
0.0304198
0.0231502
0.016721
0.0112244
0.00684287
0.00391433
0.00219521
0.00119844
0.000632807
0.000321062
0.000155387
7.12603e-05
3.07472e-05
1.24399e-05
4.87986e-06
2.30583e-06
1.54729e-06
1.16943e-06
8.64557e-07
6.11233e-07
4.09783e-07
2.59006e-07
1.54067e-07
8.65202e-08
4.6181e-08
2.36098e-08
1.16384e-08
5.5968e-09
2.63355e-09
1.2177e-09
5.5304e-10
2.47612e-10
1.09212e-10
4.76022e-11
2.04938e-11
8.73693e-12
3.68762e-12
1.54306e-12
6.39675e-13
2.62255e-13
1.05406e-13
4.10456e-14
1.36602e-14
2.66854e-15
0.999997
0.999987
0.99997
0.999943
0.999896
0.999819
0.999691
0.999484
0.99915
0.99862
0.997789
0.996509
0.994576
0.99172
0.987602
0.981826
0.973965
0.963604
0.950395
0.934103
0.914634
0.892039
0.866497
0.838284
0.807742
0.775252
0.741212
0.706019
0.67006
0.633699
0.59727
0.561079
0.525391
0.490437
0.45641
0.423466
0.391736
0.361317
0.332278
0.304664
0.278495
0.253777
0.230495
0.208624
0.188128
0.168963
0.151078
0.134417
0.118925
0.104541
0.0912063
0.078865
0.0674622
0.0569487
0.0472819
0.0384291
0.0306337
0.0233531
0.0169076
0.0113873
0.006971
0.0039905
0.00224022
0.00122459
0.000647621
0.000329186
0.000159669
7.34054e-05
3.17614e-05
1.28848e-05
5.05048e-06
2.34885e-06
1.55967e-06
1.17826e-06
8.72642e-07
6.18326e-07
4.15585e-07
2.63377e-07
1.57074e-07
8.84133e-08
4.72819e-08
2.421e-08
1.1949e-08
5.7505e-09
2.70748e-09
1.25244e-09
5.68996e-10
2.5482e-10
1.12406e-10
4.8999e-11
2.10952e-11
8.99328e-12
3.79558e-12
1.58817e-12
6.58309e-13
2.69907e-13
1.08445e-13
4.21674e-14
1.40348e-14
2.72482e-15
0.999997
0.999987
0.99997
0.999942
0.999896
0.999818
0.99969
0.999482
0.999147
0.998615
0.997781
0.996497
0.994557
0.991692
0.987562
0.98177
0.973889
0.963506
0.950272
0.933955
0.914461
0.891845
0.866283
0.838056
0.807506
0.775014
0.740978
0.705795
0.66985
0.633508
0.597104
0.56094
0.525282
0.490361
0.456367
0.423458
0.391762
0.361376
0.33237
0.304786
0.278646
0.253954
0.230696
0.208846
0.188368
0.169218
0.151345
0.134694
0.119208
0.104828
0.0914951
0.0791525
0.0677461
0.0572268
0.0475522
0.0386908
0.0308867
0.0236077
0.0171454
0.011595
0.00713394
0.00408729
0.00229735
0.00125776
0.00066641
0.000339496
0.000165109
7.61356e-05
3.30559e-05
1.34555e-05
5.27301e-06
2.40947e-06
1.57771e-06
1.19057e-06
8.83479e-07
6.27607e-07
4.23065e-07
2.68961e-07
1.60898e-07
9.08147e-08
4.86768e-08
2.49695e-08
1.23415e-08
5.94441e-09
2.80071e-09
1.29616e-09
5.89055e-10
2.63869e-10
1.16412e-10
5.07493e-11
2.18483e-11
9.31403e-12
3.93058e-12
1.64453e-12
6.81592e-13
2.7944e-13
1.1224e-13
4.35693e-14
1.45029e-14
2.79564e-15
0.999997
0.999987
0.99997
0.999942
0.999895
0.999817
0.999689
0.99948
0.999144
0.998609
0.997771
0.996482
0.994534
0.991658
0.987513
0.981701
0.973796
0.963384
0.950118
0.933767
0.91424
0.89159
0.865998
0.837758
0.8072
0.774705
0.740672
0.705499
0.669571
0.633251
0.596874
0.560743
0.525121
0.490238
0.456285
0.423418
0.391763
0.361419
0.332453
0.304908
0.278804
0.254145
0.230917
0.209094
0.18864
0.16951
0.151654
0.135016
0.11954
0.105165
0.0918346
0.0794904
0.0680783
0.057548
0.0478556
0.0389664
0.0311015
0.0239959
0.0174706
0.0118635
0.00733886
0.00420762
0.00236788
0.00129856
0.000689497
0.000352172
0.000171811
7.951e-05
3.46626e-05
1.41679e-05
5.55412e-06
2.48995e-06
1.60077e-06
1.20543e-06
8.9647e-07
6.38762e-07
4.32098e-07
2.75738e-07
1.65562e-07
9.37545e-08
5.03895e-08
2.59037e-08
1.28247e-08
6.18315e-09
2.91549e-09
1.34994e-09
6.13726e-10
2.74984e-10
1.2133e-10
5.28956e-11
2.27711e-11
9.70668e-12
4.09571e-12
1.71341e-12
7.10039e-13
2.91079e-13
1.16871e-13
4.5301e-14
1.50806e-14
2.8849e-15
0.999997
0.999987
0.99997
0.999942
0.999895
0.999816
0.999687
0.999477
0.999139
0.998601
0.99776
0.996463
0.994507
0.991617
0.987453
0.981617
0.973683
0.963235
0.949931
0.933539
0.913973
0.891288
0.86567
0.8374
0.806821
0.774315
0.740281
0.705116
0.669205
0.632909
0.596563
0.560469
0.524889
0.490052
0.456147
0.42333
0.391726
0.361431
0.332514
0.305016
0.278958
0.25434
0.231151
0.209363
0.188939
0.169836
0.152002
0.135382
0.11992
0.105556
0.092232
0.0798909
0.0684785
0.057945
0.0482472
0.0393515
0.0314496
0.0243438
0.017797
0.0121503
0.00756523
0.00434286
0.00244828
0.00134563
0.000716412
0.00036709
0.00017977
8.35511e-05
3.66025e-05
1.50341e-05
5.89469e-06
2.57637e-06
1.62157e-06
1.21889e-06
9.09624e-07
6.50845e-07
4.42273e-07
2.83563e-07
1.71034e-07
9.72433e-08
5.24376e-08
2.70264e-08
1.34072e-08
6.47142e-09
3.05418e-09
1.41494e-09
6.43566e-10
2.88412e-10
1.2727e-10
5.54847e-11
2.38839e-11
1.01797e-11
4.29453e-12