/*--------------------------------*- C++ -*----------------------------------*\
  =========                 |
  \\      /  F ield         | OpenFOAM: The Open Source CFD Toolbox
   \\    /   O peration     | Website:  https://openfoam.org
    \\  /    A nd           | Version:  8
     \\/     M anipulation  |
\*---------------------------------------------------------------------------*/
FoamFile
{
    version     2.0;
    format      ascii;
    class       volScalarField;
    location    "0.5/fluid";
    object      CO2;
}
// * * * * * * * * * * * * * * * * * * * * * * * * * * * * * * * * * * * * * //

dimensions      [0 0 0 0 0 0 0];

internalField   nonuniform List<scalar> 
4000
(
4.7515e-07
2.07649e-06
4.77012e-06
9.28742e-06
1.68308e-05
2.9357e-05
5.00131e-05
8.37865e-05
0.000138445
0.000225831
0.000363556
0.000576991
0.000901492
0.00138368
0.00208128
0.0030608
0.00439181
0.00613817
0.00834854
0.0110491
0.0142406
0.0179002
0.0219862
0.0264438
0.031211
0.0362228
0.0414139
0.0467216
0.0521064
0.0575179
0.0628867
0.0681759
0.0733532
0.0783916
0.083269
0.0879678
0.0924747
0.0967803
0.100879
0.104769
0.108449
0.111923
0.115194
0.118268
0.121151
0.123851
0.126375
0.128731
0.130926
0.132967
0.13486
0.136607
0.138208
0.139659
0.140945
0.142042
0.142904
0.143451
0.143577
0.143094
0.14169
0.138865
0.133784
0.1258
0.116275
0.106022
0.0955403
0.0851437
0.0750292
0.0653394
0.056165
0.0475727
0.0396431
0.0323577
0.0255351
0.0195097
0.0142771
0.00990934
0.00645888
0.00392417
0.00221813
0.001172
0.00058417
0.000278987
0.000129389
5.86202e-05
2.60585e-05
1.13991e-05
4.9213e-06
2.10049e-06
8.88194e-07
3.72541e-07
1.55168e-07
6.42253e-08
2.63959e-08
1.07429e-08
4.28863e-09
1.63565e-09
5.45396e-10
9.56437e-11
4.74619e-07
2.07448e-06
4.76682e-06
9.28465e-06
1.68333e-05
2.93734e-05
5.00536e-05
8.38522e-05
0.0001385
0.000225744
0.000362977
0.000575175
0.000896724
0.00137269
0.00205954
0.00302234
0.00432926
0.00604367
0.00821502
0.0108717
0.0140174
0.0176328
0.021679
0.026104
0.0308474
0.0358453
0.0410332
0.0463623
0.0517696
0.0571699
0.062543
0.0678463
0.073044
0.0781064
0.0830099
0.0877357
0.0922696
0.0966016
0.100726
0.104639
0.108342
0.111836
0.115126
0.118218
0.121116
0.12383
0.126366
0.128733
0.130937
0.132986
0.134885
0.136636
0.138241
0.139692
0.140976
0.142066
0.142916
0.14344
0.14353
0.142989
0.14149
0.138509
0.13317
0.125019
0.115382
0.105051
0.0945159
0.0840824
0.073944
0.0642453
0.0550758
0.0465071
0.0386304
0.0313907
0.0246704
0.0186684
0.0135168
0.00927302
0.00597262
0.00359103
0.00201611
0.00106365
0.000532272
0.000255967
0.000119747
5.47609e-05
2.45666e-05
1.08375e-05
4.71294e-06
2.02357e-06
8.59574e-07
3.61729e-07
1.50994e-07
6.25776e-08
2.57366e-08
1.04778e-08
4.18416e-09
1.59661e-09
5.32618e-10
9.35025e-11
4.75046e-07
2.07661e-06
4.77295e-06
9.29947e-06
1.68649e-05
2.9434e-05
5.01572e-05
8.40073e-05
0.000138687
0.000225866
0.000362759
0.000573949
0.000893165
0.00136503
0.00204468
0.00299565
0.00428474
0.00597427
0.0081135
0.0107316
0.0138341
0.0174041
0.0214055
0.0257891
0.0304968
0.0354666
0.040641
0.0459666
0.0513424
0.056746
0.0621287
0.0674476
0.0726658
0.0777527
0.0826838
0.0874393
0.0920041
0.0963674
0.100523
0.104467
0.108198
0.11172
0.115036
0.118151
0.121072
0.123805
0.12636
0.128742
0.13096
0.133021
0.134929
0.136688
0.138296
0.139749
0.141029
0.142108
0.142937
0.143422
0.143454
0.142816
0.14116
0.137925
0.132167
0.123752
0.113946
0.103509
0.0929128
0.0824496
0.0723083
0.0626324
0.0535078
0.045009
0.0372255
0.0300522
0.0234348
0.0176176
0.012662
0.00862112
0.00551588
0.00330152
0.00185083
0.000977971
0.000491315
0.000237318
0.000111554
5.12597e-05
2.31024e-05
1.02361e-05
4.46903e-06
1.92541e-06
8.20203e-07
3.45912e-07
1.44624e-07
5.9998e-08
2.46896e-08
1.00538e-08
4.0159e-09
1.53353e-09
5.11802e-10
8.99738e-11
4.73721e-07
2.07075e-06
4.75916e-06
9.27139e-06
1.68101e-05
2.93273e-05
4.99477e-05
8.35939e-05
0.000137876
0.000224302
0.000359828
0.00056867
0.00088413
0.00134994
0.00202032
0.00295782
0.00422844
0.00589409
0.00800422
0.0105888
0.0136549
0.0171872
0.0211517
0.0255007
0.0301779
0.0351225
0.0402894
0.0455745
0.0509472
0.0563532
0.0617436
0.0670751
0.0723106
0.0774187
0.0823741
0.0871564
0.0917497
0.0961426
0.100328
0.104301
0.108062
0.111612
0.114954
0.118094
0.121038
0.123793
0.126366
0.128766
0.130999
0.133072
0.13499
0.136757
0.138369
0.139821
0.141095
0.14216
0.142963
0.143402
0.143364
0.142609
0.140765
0.137225
0.130969
0.122249
0.112257
0.101715
0.0910664
0.0805925
0.0704774
0.0608566
0.0518139
0.0434272
0.0357723
0.0286882
0.0222282
0.0165894
0.0118258
0.00798109
0.0050618
0.00300662
0.00167625
0.000883214
0.000443591
0.000214624
0.000101163
4.66407e-05
2.10972e-05
9.38243e-06
4.11135e-06
1.77758e-06
7.59736e-07
3.21378e-07
1.34724e-07
5.602e-08
2.30962e-08
9.42005e-09
3.76788e-09
1.44093e-09
4.81621e-10
8.48375e-11
4.71259e-07
2.05991e-06
4.73385e-06
9.22089e-06
1.67154e-05
2.91544e-05
4.96362e-05
8.30372e-05
0.000136888
0.000222567
0.000356819
0.000563539
0.000875567
0.00133601
0.00199832
0.00292427
0.00417917
0.00582459
0.00791013
0.0104665
0.0135018
0.0170023
0.0209353
0.0252547
0.0299051
0.034831
0.0399619
0.0452406
0.0506103
0.0560175
0.0614137
0.0667555
0.0720054
0.0771316
0.082108
0.0869137
0.0915322
0.0959514
0.100163
0.104164
0.107951
0.111527
0.114894
0.118057
0.121023
0.123798
0.126389
0.128805
0.131052
0.133137
0.135065
0.136838
0.138453
0.139904
0.14117
0.142219
0.142992
0.143383
0.143268
0.142388
0.140346
0.136489
0.129716
0.120684
0.11051
0.09987
0.0891839
0.0787156
0.0686455
0.0590992
0.0501581
0.0419053
0.0343834
0.0273843
0.0210936
0.0156367
0.0110625
0.00740624
0.0046611
0.00275091
0.00152708
0.000803009
0.000403302
0.000195385
9.22753e-05
4.26403e-05
1.93335e-05
8.61809e-06
3.78468e-06
1.63964e-06
7.02027e-07
2.97436e-07
1.24855e-07
5.19753e-08
2.14491e-08
8.75523e-09
3.50458e-09
1.34165e-09
4.48914e-10
7.92372e-11
4.67872e-07
2.04499e-06
4.69904e-06
9.15158e-06
1.65861e-05
2.89209e-05
4.92225e-05
8.2314e-05
0.00013564
0.00022044
0.000353251
0.000557664
0.000866104
0.00132115
0.00197566
0.00289084
0.00413155
0.00575925
0.0078238
0.0103566
0.0133667
0.0168415
0.0207497
0.0250459
0.0296757
0.034591
0.0397032
0.0449706
0.0503349
0.0557421
0.0611429
0.0664935
0.0717558
0.0768975
0.0818922
0.0867182
0.0913587
0.0958009
0.100036
0.104061
0.107871
0.11147
0.114859
0.118043
0.121027
0.12382
0.126427
0.128857
0.131116
0.133212
0.135148
0.136926
0.138543
0.139991
0.141249
0.142279
0.14302
0.143362
0.143168
0.142164
0.139926
0.135756
0.128485
0.119159
0.108817
0.0980941
0.0873829
0.0769315
0.0669162
0.0574521
0.0486183
0.0405028
0.0331079
0.0261909
0.0200649
0.0147789
0.0103792
0.00689366
0.00430428
0.00252257
0.00139282
0.000729861
0.000365924
0.000177256
8.37733e-05
3.87599e-05
1.76022e-05
7.86049e-06
3.4585e-06
1.50119e-06
6.43921e-07
2.73293e-07
1.14899e-07
4.78974e-08
1.97901e-08
8.08637e-09
3.2399e-09
1.24175e-09
4.15788e-10
7.3568e-11
4.64135e-07
2.02858e-06
4.66101e-06
9.07649e-06
1.64475e-05
2.8674e-05
4.87917e-05
8.15737e-05
0.000134385
0.000218341
0.000349794
0.000552071
0.000857241
0.00130744
0.00195504
0.00286075
0.00408914
0.00570159
0.00774826
0.0102611
0.0132503
0.0167041
0.0205922
0.0248703
0.029486
0.0343756
0.0394817
0.0447449
0.050108
0.0555172
0.0609234
0.0662826
0.0715564
0.0767122
0.081723
0.0865669
0.0912265
0.0956887
0.0999446
0.103989
0.10782
0.111438
0.114846
0.118047
0.121048
0.123856
0.126477
0.128919
0.131188
0.133292
0.135234
0.137016
0.138634
0.140078
0.141325
0.142336
0.143042
0.143334
0.14306
0.141931
0.139499
0.135024
0.127303
0.117717
0.107233
0.0964439
0.0857192
0.0752919
0.0653346
0.0559521
0.047222
0.0392375
0.0319357
0.0251463
0.0191611
0.0140253
0.0097805
0.006447
0.00399554
0.00232647
0.00127821
0.000667648
0.000334148
0.000161807
7.64939e-05
3.54163e-05
1.60989e-05
7.19699e-06
3.17027e-06
1.37772e-06
5.91655e-07
2.51393e-07
1.05804e-07
4.41474e-08
1.82564e-08
7.46536e-09
2.99323e-09
1.1482e-09
3.84919e-10
6.82057e-11
4.60337e-07
2.01194e-06
4.62251e-06
9.00073e-06
1.63083e-05
2.84271e-05
4.83634e-05
8.08427e-05
0.000133155
0.000216303
0.000346473
0.000546758
0.000848919
0.00129472
0.00193614
0.00283352
0.00405121
0.00565061
0.00768216
0.0101784
0.0131502
0.0165867
0.0204584
0.0247216
0.0293284
0.0342055
0.0393036
0.0445628
0.0499252
0.055337
0.0607487
0.0661162
0.0714006
0.0765691
0.0815942
0.0864538
0.09113
0.0956094
0.0998829
0.103945
0.107793
0.111428
0.114851
0.118067
0.121082
0.123902
0.126534
0.128986
0.131264
0.133374
0.135321
0.137105
0.138721
0.140159
0.141395
0.142385
0.143055
0.143293
0.142933
0.141669
0.139022
0.134197
0.126142
0.116362
0.105774
0.0949409
0.0842148
0.0738174
0.0639187
0.0546143
0.0459809
0.0381107
0.0309007
0.0242272
0.0183681
0.0133662
0.00925911
0.00605989
0.00372926
0.00215792
0.00117981
0.00061412
0.000306687
0.00014839
7.01381e-05
3.24812e-05
1.47728e-05
6.609e-06
2.91379e-06
1.26749e-06
5.44846e-07
2.31732e-07
9.76211e-08
4.0768e-08
1.68722e-08
6.90378e-09
2.76961e-09
1.06304e-09
3.56562e-10
6.32503e-11
4.56706e-07
1.99604e-06
4.58581e-06
8.92873e-06
1.61765e-05
2.81944e-05
4.79619e-05
8.01617e-05
0.000132017
0.000214431
0.000343445
0.00054195
0.000841449
0.0012834
0.00191943
0.00280963
0.00401816
0.00560648
0.00762532
0.0101078
0.0130653
0.0164877
0.0203459
0.0245966
0.0291881
0.0340612
0.0391565
0.0444146
0.0497783
0.0551936
0.0606112
0.0659866
0.0712808
0.0764607
0.0814986
0.0863719
0.0910626
0.0955568
0.0998452
0.103922
0.107785
0.111433
0.11487
0.118098
0.121124
0.123954
0.126596
0.129055
0.13134
0.133455
0.135405
0.137189
0.138803
0.140235
0.141457
0.142426
0.143058
0.143243
0.142796
0.141394
0.138525
0.133335
0.125038
0.115116
0.104454
0.093594
0.0828748
0.072513
0.0626703
0.0534385
0.0448942
0.0371245
0.029989
0.0234208
0.0176749
0.0127924
0.00880745
0.00572656
0.00350149
0.00201462
0.00109651
0.000568918
0.000283503
0.000137047
6.47511e-05
2.99855e-05
1.36408e-05
6.1051e-06
2.69311e-06
1.17224e-06
5.04254e-07
2.14621e-07
9.04771e-08
3.78097e-08
1.56573e-08
6.40966e-09
2.57252e-09
9.87616e-10
3.31328e-10
5.88269e-11
4.53355e-07
1.98138e-06
4.55202e-06
8.86256e-06
1.60556e-05
2.79817e-05
4.7596e-05
7.95433e-05
0.000130989
0.000212747
0.000340733
0.000537669
0.000834836
0.00127343
0.00190482
0.00278887
0.00398964
0.00556864
0.00757691
0.010048
0.012994
0.0164055
0.0202542
0.024499
0.0290807
0.0339476
0.0390395
0.0442969
0.0496621
0.0550812
0.0605044
0.0658872
0.0711904
0.0763805
0.0814296
0.0863149
0.091018
0.0955248
0.0998261
0.103915
0.10779
0.11145
0.114897
0.118136
0.121171
0.124009
0.126658
0.129123
0.131413
0.133531
0.135483
0.137267
0.138878
0.140303
0.141513
0.142462
0.143058
0.143193
0.142664
0.141133
0.138059
0.132534
0.124037
0.114002
0.103283
0.0924058
0.0816976
0.0713714
0.061581
0.0524155
0.0439525
0.0362686
0.0291915
0.0227177
0.0170727
0.012296
0.0084186
0.0054412
0.0033076
0.00189324
0.00102618
0.000530804
0.000263946
0.000127465
6.01914e-05
2.78681e-05
1.2678e-05
5.67543e-06
2.50448e-06
1.09063e-06
4.69398e-07
1.99898e-07
8.43184e-08
3.52543e-08
1.46066e-08
5.98172e-09
2.40174e-09
9.22451e-10
3.09606e-10
5.5043e-11
4.50349e-07
1.96823e-06
4.52175e-06
8.80337e-06
1.59477e-05
2.77922e-05
4.7271e-05
7.89957e-05
0.000130081
0.000211266
0.000338359
0.000533938
0.000829098
0.00126482
0.00189227
0.00277112
0.00396535
0.00553657
0.00753603
0.00999766
0.0129339
0.0163356
0.0201746
0.0244105
0.0289894
0.033854
0.0389451
0.0442031
0.0495706
0.0549936
0.0604224
0.065812
0.0711233
0.0763224
0.0813813
0.0862769
0.0909906
0.0955083
0.0998201
0.10392
0.107804
0.111474
0.11493
0.118176
0.121219
0.124064
0.126718
0.129188
0.131481
0.133602
0.135555
0.137338
0.138946
0.140364
0.141563
0.142493
0.143057
0.143147
0.142545
0.140901
0.137645
0.131824
0.123155
0.113024
0.102259
0.0913699
0.0806741
0.0703814
0.0606385
0.0515323
0.0431414
0.0355318
0.0284991
0.0221091
0.016553
0.0118692
0.0080858
0.00519829
0.0031435
0.00179103
0.000967184
0.000498897
0.000247586
0.000119445
5.63706e-05
2.60909e-05
1.18684e-05
5.31343e-06
2.34519e-06
1.02158e-06
4.3985e-07
1.87391e-07
7.90774e-08
3.30761e-08
1.37097e-08
5.61594e-09
2.2557e-09
8.66876e-10
2.91117e-10
5.18471e-11
4.47709e-07
1.9567e-06
4.4952e-06
8.75153e-06
1.58534e-05
2.76267e-05
4.69878e-05
7.85197e-05
0.000129294
0.000209986
0.000336314
0.000530734
0.00082419
0.00125749
0.00188162
0.00275612
0.00394495
0.00550978
0.00750215
0.00995635
0.0128854
0.0162805
0.0201141
0.0243438
0.0289184
0.0337806
0.0388708
0.0441296
0.0494996
0.0549264
0.0603602
0.0657561
0.0710745
0.0762815
0.0813488
0.0862533
0.090976
0.0955028
0.0998233
0.103932
0.107824
0.111501
0.114965
0.118218
0.121266
0.124116
0.126775
0.129248
0.131544
0.133666
0.135619
0.137401
0.139006
0.140418
0.141607
0.14252
0.143055
0.143106
0.142441
0.140697
0.137283
0.131204
0.122387
0.112174
0.101372
0.0904747
0.0797918
0.0695298
0.0598295
0.0507759
0.0424495
0.0349
0.027902
0.0215859
0.0161077
0.0115048
0.00780289
0.00499282
0.0030054
0.0017054
0.000917919
0.000472304
0.00023396
0.000112764
5.31851e-05
2.46074e-05
1.11917e-05
5.01049e-06
2.21165e-06
9.63625e-07
4.15012e-07
1.7686e-07
7.46605e-08
3.12375e-08
1.29519e-08
5.30684e-09
2.13235e-09
8.19967e-10
2.75558e-10
4.91784e-11
4.45436e-07
1.94676e-06
4.47236e-06
8.70696e-06
1.57723e-05
2.74849e-05
4.67454e-05
7.81132e-05
0.000128623
0.000208898
0.00033458
0.000528024
0.00082005
0.00125132
0.00187269
0.00274359
0.00392794
0.00548754
0.0074741
0.00992227
0.0128454
0.0162353
0.020065
0.0242902
0.0288617
0.0337223
0.0388124
0.0440724
0.0494448
0.0548752
0.0603137
0.0657151
0.0710398
0.0762536
0.0813282
0.0862401
0.0909704
0.0955045
0.0998324
0.103948
0.107847
0.11153
0.114999
0.118258
0.121311
0.124164
0.126826
0.129302
0.131599
0.133723
0.135676
0.137456
0.139058
0.140464
0.141644
0.142542
0.143054
0.143071
0.142351
0.140521
0.136969
0.130667
0.121722
0.111442
0.100609
0.089708
0.079038
0.0688039
0.0591412
0.0501337
0.0418637
0.0343635
0.0273926
0.0211406
0.0157296
0.0111964
0.00756442
0.00482039
0.00289004
0.00163416
0.000877062
0.000450293
0.000222691
0.000107238
5.05492e-05
2.33793e-05
1.06306e-05
4.75914e-06
2.10071e-06
9.15429e-07
3.94321e-07
1.68083e-07
7.09731e-08
2.97017e-08
1.23182e-08
5.04791e-09
2.02907e-09
7.80895e-10
2.62563e-10
4.69546e-11
4.43515e-07
1.93837e-06
4.45308e-06
8.66936e-06
1.5704e-05
2.73655e-05
4.65417e-05
7.7772e-05
0.000128061
0.000207988
0.000333133
0.000525768
0.000816612
0.00124621
0.00186531
0.00273325
0.00391396
0.00546926
0.00745106
0.0098942
0.0128123
0.0161972
0.0200223
0.0242457
0.0288159
0.0336761
0.0387666
0.0440281
0.049403
0.0548367
0.0602793
0.0656856
0.0710156
0.0762353
0.0813159
0.086234
0.0909706
0.0955109
0.0998448
0.103966
0.107871
0.111559
0.115032
0.118295
0.121351
0.124208
0.126872
0.12935
0.131648
0.133772
0.135724
0.137503
0.139101
0.140502
0.141673
0.142559
0.143051
0.143042
0.142276
0.140372
0.136702
0.130207
0.121156
0.110819
0.0999636
0.08906
0.0784023
0.0681929
0.0585627
0.0495944
0.0413718
0.0339149
0.0269641
0.0207666
0.0154128
0.0109386
0.0073657
0.00467724
0.00279464
0.00157546
0.000843485
0.000432233
0.000213453
0.000102708
4.83874e-05
2.23717e-05
1.01698e-05
4.55254e-06
2.00943e-06
8.75736e-07
3.77262e-07
1.6084e-07
6.79273e-08
2.84323e-08
1.17938e-08
4.83355e-09
1.94341e-09
7.48487e-10
2.51844e-10
4.51264e-11
4.41926e-07
1.93143e-06
4.43714e-06
8.63829e-06
1.56477e-05
2.7267e-05
4.63739e-05
7.74914e-05
0.0001276
0.000207242
0.000331949
0.000523927
0.000813811
0.00124206
0.00185933
0.00272491
0.0039027
0.00545462
0.00743271
0.00987203
0.0127864
0.016168
0.0199903
0.0242115
0.0287806
0.0336405
0.0387316
0.0439945
0.0493716
0.0548083
0.0602545
0.0656648
0.0709994
0.0762239
0.0813095
0.0862328
0.0909744
0.0955197
0.0998585
0.103984
0.107893
0.111585
0.115062
0.118328
0.121387
0.124246
0.126911
0.129391
0.13169
0.133814
0.135765
0.137543
0.139138
0.140535
0.141699
0.142574
0.143051
0.143017
0.142213
0.140248
0.13648
0.129827
0.120687
0.110304
0.099429
0.0885239
0.0778767
0.067688
0.0580851
0.0491498
0.0409671
0.0335446
0.0266098
0.0204579
0.0151518
0.0107267
0.00720273
0.00456018
0.00271688
0.00152775
0.000816254
0.000417607
0.000205975
9.90423e-05
4.66369e-05
2.15553e-05
9.79629e-06
4.3849e-06
1.93531e-06
8.43473e-07
3.63387e-07
1.54944e-07
6.54459e-08
2.73973e-08
1.13659e-08
4.65866e-09
1.87352e-09
7.22177e-10
2.43149e-10
4.36483e-11
4.40646e-07
1.92584e-06
4.4243e-06
8.61328e-06
1.56023e-05
2.71879e-05
4.62391e-05
7.72664e-05
0.00012723
0.000206645
0.000331003
0.000522458
0.000811583
0.00123877
0.00185459
0.00271831
0.00389382
0.00544312
0.00741837
0.00985483
0.0127666
0.0161461
0.0199659
0.0241856
0.0287538
0.0336135
0.0387052
0.0439694
0.0493484
0.0547876
0.0602368
0.0656505
0.0709888
0.0762172
0.0813069
0.0862343
0.09098
0.0955293
0.0998718
0.104001
0.107913
0.111609
0.115088
0.118356
0.121417
0.124278
0.126945
0.129425
0.131724
0.133848
0.135799
0.137575
0.139169
0.140562
0.141721
0.142587
0.143052
0.142998
0.142162
0.140148
0.136301
0.129521
0.12031
0.10989
0.0989986
0.0880921
0.0774533
0.0672813
0.0577004
0.0487918
0.0406418
0.0332461
0.0263246
0.0202101
0.0149425
0.0105569
0.00707231
0.00446664
0.00265484
0.00148975
0.000794605
0.000405988
0.000200036
9.61307e-05
4.5245e-05
2.0906e-05
9.49906e-06
4.25137e-06
1.87626e-06
8.17739e-07
3.52316e-07
1.50237e-07
6.34639e-08
2.65705e-08
1.10238e-08
4.51883e-09
1.81765e-09
7.01146e-10
2.3621e-10
4.24713e-11
4.39652e-07
1.9215e-06
4.41433e-06
8.59389e-06
1.55672e-05
2.71266e-05
4.61349e-05
7.70923e-05
0.000126945
0.000206185
0.000330275
0.000521328
0.000809869
0.00123623
0.00185095
0.00271325
0.00388702
0.0054343
0.00740735
0.00984154
0.0127511
0.0161284
0.0199471
0.0241659
0.0287337
0.0335935
0.0386859
0.0439512
0.0493318
0.054773
0.0602246
0.065641
0.0709822
0.0762137
0.0813066
0.0862371
0.090986
0.0955383
0.0998838
0.104016
0.107931
0.111628
0.11511
0.118379
0.121442
0.124304
0.126972
0.129452
0.131752
0.133876
0.135827
0.137602
0.139194
0.140584
0.141738
0.142598
0.143052
0.142983
0.142122
0.14007
0.136163
0.129285
0.120017
0.109568
0.0986645
0.0877567
0.0771242
0.066965
0.0574009
0.0485126
0.0403875
0.0330104
0.0261095
0.0200213
0.0147822
0.0104265
0.00697203
0.00439468
0.00260709
0.00146049
0.000777914
0.000397023
0.000195449
9.38813e-05
4.41693e-05
2.0404e-05
9.26925e-06
4.14807e-06
1.83057e-06
7.97824e-07
3.43747e-07
1.46593e-07
6.19294e-08
2.59302e-08
1.07589e-08
4.41059e-09
1.77442e-09
6.84884e-10
2.30845e-10
4.15618e-11
4.38926e-07
1.91833e-06
4.40705e-06
8.57972e-06
1.55415e-05
2.70818e-05
4.60588e-05
7.69655e-05
0.000126737
0.00020585
0.000329744
0.000520507
0.000808625
0.0012344
0.00184832
0.00270959
0.00388211
0.00542795
0.00739943
0.00983203
0.0127401
0.0161161
0.0199338
0.0241519
0.0287195
0.0335794
0.0386723
0.0439386
0.0493204
0.0547632
0.0602165
0.065635
0.0709783
0.0762121
0.0813073
0.0862401
0.0909913
0.0955459
0.0998934
0.104027
0.107944
0.111643
0.115126
0.118397
0.121461
0.124324
0.126992
0.129473
0.131773
0.133897
0.135847
0.137621
0.139212
0.1406
0.141751
0.142606
0.143053
0.142972
0.142094
0.140013
0.136062
0.129111
0.119803
0.109333
0.09842
0.0875111
0.0768832
0.0667332
0.0571813
0.0483079
0.0402012
0.0328372
0.0259536
0.0198845
0.0146659
0.010332
0.00689934
0.00434255
0.00257248
0.00143922
0.000765741
0.000390464
0.000192088
9.22318e-05
4.33805e-05
2.00358e-05
9.10074e-06
4.07233e-06
1.79708e-06
7.8323e-07
3.3747e-07
1.43924e-07
6.08057e-08
2.54615e-08
1.0565e-08
4.33138e-09
1.74279e-09
6.72997e-10
2.26924e-10
4.08985e-11
4.38452e-07
1.91626e-06
4.40231e-06
8.57048e-06
1.55248e-05
2.70527e-05
4.60093e-05
7.6883e-05
0.000126602
0.000205632
0.000329401
0.000519975
0.000807819
0.00123321
0.00184661
0.00270723
0.00387895
0.00542386
0.00739435
0.00982595
0.012733
0.0161083
0.0199253
0.0241431
0.0287105
0.0335706
0.0386638
0.0439307
0.0493133
0.0547572
0.0602117
0.0656315
0.0709763
0.0762115
0.0813082
0.0862426
0.0909952
0.0955512
0.0999002
0.104035
0.107953
0.111653
0.115137
0.118409
0.121473
0.124337
0.127006
0.129487
0.131787
0.133911
0.135861
0.137634
0.139224
0.140611
0.141759
0.142611
0.143053
0.142964
0.142075
0.139976
0.135995
0.128998
0.119663
0.109178
0.0982599
0.0873504
0.0767254
0.0665814
0.0570376
0.0481741
0.0400795
0.032724
0.0258521
0.0197956
0.0145906
0.0102708
0.00685246
0.00430903
0.00255027
0.00142555
0.000757876
0.000386211
0.000189902
9.11582e-05
4.28668e-05
1.97959e-05
8.99095e-06
4.02297e-06
1.77526e-06
7.73719e-07
3.33378e-07
1.42184e-07
6.0073e-08
2.51559e-08
1.04386e-08
4.27972e-09
1.72217e-09
6.65252e-10
2.24371e-10
4.04667e-11
4.38221e-07
1.91526e-06
4.4e-06
8.56601e-06
1.55167e-05
2.70387e-05
4.59856e-05
7.68436e-05
0.000126537
0.000205529
0.000329238
0.000519723
0.000807439
0.00123265
0.00184581
0.00270612
0.00387746
0.00542194
0.00739196
0.00982308
0.0127297
0.0161046
0.0199214
0.0241389
0.0287062
0.0335664
0.0386598
0.043927
0.04931
0.0547544
0.0602095
0.0656299
0.0709754
0.0762113
0.0813088
0.0862439
0.0909972
0.095554
0.0999036
0.104039
0.107958
0.111659
0.115143
0.118415
0.12148
0.124343
0.127012
0.129494
0.131794
0.133918
0.135867
0.137641
0.13923
0.140616
0.141764
0.142614
0.143053
0.142961
0.142065
0.139957
0.135962
0.128942
0.119595
0.109103
0.0981814
0.0872716
0.0766481
0.0665073
0.0569675
0.0481089
0.0400205
0.0326691
0.025803
0.0197527
0.0145544
0.0102416
0.00683022
0.00429324
0.00253989
0.00141921
0.000754238
0.000384242
0.000188888
9.06586e-05
4.26272e-05
1.96837e-05
8.93949e-06
3.99978e-06
1.76498e-06
7.69228e-07
3.31441e-07
1.41359e-07
5.97243e-08
2.50101e-08
1.03781e-08
4.25493e-09
1.71224e-09
6.61517e-10
2.23137e-10
4.02582e-11
4.38221e-07
1.91525e-06
4.4e-06
8.56601e-06
1.55167e-05
2.70387e-05
4.59856e-05
7.68435e-05
0.000126537
0.000205529
0.000329238
0.000519722
0.000807439
0.00123265
0.00184581
0.00270612
0.00387746
0.00542194
0.00739196
0.00982308
0.0127297
0.0161046
0.0199214
0.0241389
0.0287062
0.0335664
0.0386598
0.043927
0.04931
0.0547543
0.0602095
0.0656299
0.0709754
0.0762113
0.0813088
0.0862439
0.0909972
0.095554
0.0999036
0.104039
0.107958
0.111659
0.115143
0.118415
0.12148
0.124343
0.127012
0.129494
0.131794
0.133918
0.135867
0.137641
0.13923
0.140616
0.141764
0.142614
0.143053
0.142961
0.142065
0.139957
0.135962
0.128942
0.119595
0.109103
0.0981814
0.0872716
0.0766481
0.0665073
0.0569675
0.0481089
0.0400205
0.0326691
0.025803
0.0197527
0.0145544
0.0102416
0.00683022
0.00429324
0.00253989
0.00141921
0.000754238
0.000384241
0.000188888
9.06586e-05
4.26272e-05
1.96837e-05
8.93948e-06
3.99978e-06
1.76498e-06
7.69228e-07
3.31441e-07
1.41358e-07
5.97243e-08
2.50101e-08
1.03781e-08
4.25492e-09
1.71224e-09
6.61517e-10
2.23137e-10
4.02587e-11
4.38451e-07
1.91626e-06
4.4023e-06
8.57047e-06
1.55248e-05
2.70527e-05
4.60093e-05
7.68829e-05
0.000126601
0.000205632
0.0003294
0.000519974
0.000807819
0.00123321
0.00184661
0.00270723
0.00387895
0.00542386
0.00739435
0.00982595
0.012733
0.0161083
0.0199253
0.0241431
0.0287105
0.0335706
0.0386638
0.0439307
0.0493133
0.0547571
0.0602117
0.0656315
0.0709762
0.0762115
0.0813082
0.0862425
0.0909952
0.0955512
0.0999001
0.104035
0.107953
0.111653
0.115137
0.118409
0.121473
0.124337
0.127006
0.129487
0.131787
0.133911
0.135861
0.137634
0.139224
0.140611
0.141759
0.142611
0.143053
0.142964
0.142075
0.139976
0.135995
0.128998
0.119663
0.109178
0.0982599
0.0873503
0.0767253
0.0665814
0.0570376
0.0481741
0.0400795
0.032724
0.0258521
0.0197956
0.0145906
0.0102708
0.00685245
0.00430902
0.00255026
0.00142555
0.000757875
0.000386211
0.000189902
9.1158e-05
4.28667e-05
1.97959e-05
8.99093e-06
4.02296e-06
1.77526e-06
7.73716e-07
3.33377e-07
1.42184e-07
6.00728e-08
2.51558e-08
1.04385e-08
4.27971e-09
1.72217e-09
6.65255e-10
2.24372e-10
4.04671e-11
4.38925e-07
1.91833e-06
4.40705e-06
8.5797e-06
1.55415e-05
2.70818e-05
4.60587e-05
7.69653e-05
0.000126736
0.000205849
0.000329744
0.000520506
0.000808623
0.00123439
0.00184831
0.00270958
0.00388211
0.00542794
0.00739942
0.00983202
0.01274
0.0161161
0.0199338
0.0241519
0.0287195
0.0335794
0.0386723
0.0439386
0.0493204
0.0547632
0.0602165
0.065635
0.0709783
0.0762121
0.0813073
0.0862401
0.0909913
0.0955458
0.0998934
0.104027
0.107944
0.111643
0.115126
0.118397
0.121461
0.124324
0.126992
0.129473
0.131773
0.133897
0.135847
0.137621
0.139212
0.1406
0.141751
0.142606
0.143053
0.142972
0.142094
0.140013
0.136062
0.129111
0.119803
0.109332
0.0984199
0.087511
0.0768831
0.0667331
0.0571812
0.0483079
0.0402011
0.0328372
0.0259536
0.0198844
0.0146659
0.010332
0.00689933
0.00434254
0.00257247
0.00143922
0.000765739
0.000390464
0.000192087
9.22315e-05
4.33803e-05
2.00357e-05
9.1007e-06
4.07231e-06
1.79707e-06
7.83226e-07
3.37468e-07
1.43923e-07
6.08054e-08
2.54613e-08
1.0565e-08
4.33135e-09
1.74279e-09
6.73e-10
2.26926e-10
4.0899e-11
4.39651e-07
1.9215e-06
4.41432e-06
8.59386e-06
1.55671e-05
2.71265e-05
4.61347e-05
7.70921e-05
0.000126944
0.000206184
0.000330274
0.000521327
0.000809867
0.00123623
0.00185095
0.00271324
0.00388702
0.00543429
0.00740734
0.00984152
0.0127511
0.0161284
0.0199471
0.0241659
0.0287336
0.0335935
0.0386858
0.0439512
0.0493318
0.054773
0.0602246
0.065641
0.0709822
0.0762137
0.0813065
0.0862371
0.0909859
0.0955383
0.0998838
0.104016
0.107931
0.111628
0.11511
0.118379
0.121442
0.124304
0.126972
0.129452
0.131752
0.133876
0.135826
0.137602
0.139193
0.140584
0.141738
0.142598
0.143052
0.142982
0.142122
0.14007
0.136163
0.129284
0.120017
0.109568
0.0986644
0.0877566
0.0771241
0.0669649
0.0574008
0.0485125
0.0403874
0.0330104
0.0261095
0.0200213
0.0147821
0.0104265
0.00697201
0.00439467
0.00260708
0.00146048
0.000777912
0.000397021
0.000195448
9.38808e-05
4.41691e-05
2.04039e-05
9.26919e-06
4.14804e-06
1.83056e-06
7.97818e-07
3.43744e-07
1.46592e-07
6.19289e-08
2.593e-08
1.07588e-08
4.41055e-09
1.77441e-09
6.8489e-10
2.30847e-10
4.15633e-11
4.40644e-07
1.92583e-06
4.42428e-06
8.61325e-06
1.56023e-05
2.71878e-05
4.6239e-05
7.72661e-05
0.00012723
0.000206645
0.000331002
0.000522457
0.00081158
0.00123876
0.00185458
0.0027183
0.00389381
0.00544311
0.00741835
0.00985482
0.0127666
0.0161461
0.0199659
0.0241856
0.0287537
0.0336135
0.0387052
0.0439694
0.0493484
0.0547876
0.0602368
0.0656505
0.0709888
0.0762172
0.0813069
0.0862342
0.09098
0.0955293
0.0998718
0.104001
0.107913
0.111609
0.115088
0.118356
0.121417
0.124278
0.126945
0.129425
0.131724
0.133848
0.135799
0.137575
0.139169
0.140562
0.14172
0.142587
0.143052
0.142998
0.142162
0.140147
0.136301
0.129521
0.12031
0.109889
0.0989985
0.0880919
0.0774532
0.0672812
0.0577003
0.0487917
0.0406417
0.033246
0.0263246
0.02021
0.0149424
0.0105569
0.00707228
0.00446662
0.00265483
0.00148974
0.000794601
0.000405986
0.000200035
9.613e-05
4.52447e-05
2.09058e-05
9.49898e-06
4.25132e-06
1.87624e-06
8.17731e-07
3.52312e-07
1.50235e-07
6.34632e-08
2.65702e-08
1.10237e-08
4.51879e-09
1.81764e-09
7.01152e-10
2.36214e-10
4.24723e-11
4.41924e-07
1.93142e-06
4.43712e-06
8.63825e-06
1.56476e-05
2.72669e-05
4.63736e-05
7.7491e-05
0.000127599
0.000207241
0.000331947
0.000523925
0.000813808
0.00124206
0.00185932
0.0027249
0.00390269
0.0054546
0.00743269
0.00987201
0.0127864
0.016168
0.0199903
0.0242115
0.0287806
0.0336404
0.0387316
0.0439945
0.0493715
0.0548082
0.0602544
0.0656648
0.0709993
0.0762238
0.0813095
0.0862327
0.0909744
0.0955197
0.0998584
0.103984
0.107893
0.111585
0.115062
0.118328
0.121387
0.124246
0.126911
0.129391
0.13169
0.133814
0.135765
0.137542
0.139138
0.140535
0.141699
0.142574
0.143051
0.143017
0.142213
0.140248
0.13648
0.129827
0.120687
0.110304
0.0994288
0.0885237
0.0778766
0.0676879
0.058085
0.0491496
0.040967
0.0335445
0.0266097
0.0204579
0.0151517
0.0107267
0.00720269
0.00456016
0.00271686
0.00152774
0.000816248
0.000417604
0.000205974
9.90414e-05
4.66364e-05
2.15551e-05
9.79618e-06
4.38484e-06
1.93529e-06
8.4346e-07
3.63382e-07
1.54942e-07
6.5445e-08
2.73969e-08
1.13657e-08
4.65859e-09
1.8735e-09
7.22183e-10
2.43153e-10
4.3649e-11
4.43512e-07
1.93836e-06
4.45305e-06
8.66931e-06
1.5704e-05
2.73653e-05
4.65414e-05
7.77716e-05
0.00012806
0.000207987
0.000333131
0.000525766
0.000816608
0.00124621
0.0018653
0.00273324
0.00391394
0.00546924
0.00745104
0.00989417
0.0128122
0.0161972
0.0200223
0.0242456
0.0288159
0.033676
0.0387666
0.0440281
0.0494029
0.0548367
0.0602793
0.0656855
0.0710156
0.0762352
0.0813158
0.086234
0.0909705
0.0955108
0.0998448
0.103966
0.107871
0.111559
0.115032
0.118295
0.121351
0.124208
0.126872
0.12935
0.131648
0.133772
0.135724
0.137503
0.139101
0.140502
0.141673
0.142559
0.143051
0.143042
0.142276
0.140372
0.136702
0.130207
0.121156
0.110819
0.0999634
0.0890598
0.0784021
0.0681927
0.0585625
0.0495943
0.0413717
0.0339148
0.026964
0.0207665
0.0154127
0.0109386
0.00736565
0.00467721
0.00279462
0.00157544
0.000843476
0.000432228
0.00021345
0.000102707
4.83868e-05
2.23713e-05
1.01697e-05
4.55246e-06
2.0094e-06
8.75719e-07
3.77255e-07
1.60837e-07
6.7926e-08
2.84317e-08
1.17936e-08
4.83346e-09
1.94338e-09
7.48492e-10
2.51847e-10
4.51273e-11
4.45433e-07
1.94675e-06
4.47233e-06
8.7069e-06
1.57722e-05
2.74847e-05
4.67451e-05
7.81127e-05
0.000128622
0.000208896
0.000334578
0.000528021
0.000820045
0.00125132
0.00187268
0.00274357
0.00392793
0.00548752
0.00747408
0.00992224
0.0128454
0.0162353
0.0200649
0.0242901
0.0288617
0.0337223
0.0388124
0.0440724
0.0494447
0.0548752
0.0603136
0.065715
0.0710397
0.0762536
0.0813281
0.08624
0.0909703
0.0955045
0.0998324
0.103948
0.107847
0.11153
0.114999
0.118258
0.121311
0.124164
0.126826
0.129302
0.131599
0.133723
0.135676
0.137456
0.139058
0.140464
0.141644
0.142542
0.143054
0.14307
0.142351
0.140521
0.136969
0.130667
0.121722
0.111442
0.100609
0.0897077
0.0790378
0.0688037
0.059141
0.0501335
0.0418635
0.0343634
0.0273925
0.0211404
0.0157295
0.0111963
0.00756436
0.00482035
0.00289001
0.00163414
0.000877051
0.000450287
0.000222688
0.000107236
5.05484e-05
2.33789e-05
1.06304e-05
4.75903e-06
2.10066e-06
9.15406e-07
3.94312e-07
1.68079e-07
7.09714e-08
2.97009e-08
1.23179e-08
5.0478e-09
2.02903e-09
7.80894e-10
2.62563e-10
4.69553e-11
4.47705e-07
1.95668e-06
4.49517e-06
8.75146e-06
1.58532e-05
2.76265e-05
4.69874e-05
7.85192e-05
0.000129293
0.000209984
0.000336312
0.00053073
0.000824184
0.00125748
0.00188161