/*--------------------------------*- C++ -*----------------------------------*\
  =========                 |
  \\      /  F ield         | OpenFOAM: The Open Source CFD Toolbox
   \\    /   O peration     | Website:  https://openfoam.org
    \\  /    A nd           | Version:  8
     \\/     M anipulation  |
\*---------------------------------------------------------------------------*/
FoamFile
{
    version     2.0;
    format      ascii;
    class       volScalarField;
    location    "0.5/fluid";
    object      N2;
}
// * * * * * * * * * * * * * * * * * * * * * * * * * * * * * * * * * * * * * //

dimensions      [0 0 0 0 0 0 0];

internalField   nonuniform List<scalar> 
4000
(
2.29561e-06
1.00328e-05
2.30504e-05
4.48875e-05
8.13645e-05
0.000141958
0.000241914
0.000405405
0.000670092
0.00109342
0.00176085
0.00279556
0.00436927
0.00670856
0.0100941
0.0148494
0.0213132
0.0297969
0.0405378
0.0536645
0.0691817
0.0869787
0.106853
0.12854
0.151738
0.176129
0.201397
0.227237
0.253455
0.279807
0.305953
0.331715
0.356935
0.381481
0.405244
0.42814
0.450102
0.471085
0.491063
0.510022
0.527964
0.5449
0.560851
0.575843
0.589909
0.603086
0.615411
0.626926
0.637672
0.647691
0.657025
0.665714
0.673797
0.681313
0.6883
0.694792
0.700823
0.706347
0.711426
0.716287
0.720816
0.725045
0.729014
0.732761
0.736322
0.739713
0.742945
0.746021
0.748942
0.751702
0.754295
0.756711
0.758936
0.760977
0.762886
0.76457
0.766032
0.76725
0.768211
0.768916
0.769389
0.769678
0.76984
0.769924
0.769965
0.769984
0.769993
0.769997
0.769999
0.769999
0.77
0.77
0.77
0.77
0.77
0.77
0.77
0.77
0.77
0.77
2.29306e-06
1.00232e-05
2.30347e-05
4.48744e-05
8.13772e-05
0.000142039
0.000242112
0.000405725
0.000670359
0.001093
0.00175804
0.00278675
0.00434613
0.00665521
0.00998848
0.0146626
0.0210094
0.0293376
0.0398889
0.0528019
0.0680963
0.085678
0.105359
0.126887
0.149969
0.174292
0.199545
0.225488
0.251815
0.278112
0.30428
0.330111
0.355429
0.380092
0.403982
0.427009
0.449103
0.470215
0.490316
0.509392
0.527443
0.544481
0.560524
0.5756
0.589741
0.602985
0.615369
0.626937
0.637729
0.647788
0.657156
0.665874
0.673982
0.681519
0.688523
0.69503
0.701075
0.706592
0.711679
0.716549
0.721085
0.72532
0.729294
0.733047
0.736613
0.74001
0.743247
0.746327
0.749252
0.752012
0.754601
0.757011
0.75922
0.761248
0.763128
0.764806
0.766244
0.767428
0.768347
0.769008
0.769445
0.769708
0.769854
0.76993
0.769967
0.769985
0.769993
0.769997
0.769999
0.769999
0.77
0.77
0.77
0.77
0.77
0.77
0.77
0.77
0.77
0.77
2.29516e-06
1.00337e-05
2.30647e-05
4.49467e-05
8.15314e-05
0.000142333
0.000242615
0.000406478
0.000671271
0.0010936
0.00175699
0.00278081
0.00432886
0.00661801
0.00991633
0.0145329
0.020793
0.0290004
0.0393954
0.0521208
0.0672048
0.0845655
0.104029
0.125355
0.148263
0.172449
0.197636
0.223562
0.249736
0.276049
0.302263
0.328169
0.353588
0.378369
0.402394
0.425566
0.44781
0.469075
0.489327
0.508551
0.526745
0.543916
0.560086
0.575278
0.589527
0.602868
0.615342
0.626988
0.637849
0.647968
0.657388
0.666151
0.674298
0.681868
0.688899
0.69543
0.701496
0.707
0.712109
0.716993
0.721536
0.725775
0.729753
0.733512
0.737082
0.740482
0.743719
0.746798
0.749717
0.752468
0.755043
0.757432
0.759615
0.761623
0.763474
0.7651
0.766484
0.76761
0.768474
0.769089
0.769491
0.769732
0.769866
0.769935
0.76997
0.769986
0.769994
0.769997
0.769999
0.769999
0.77
0.77
0.77
0.77
0.77
0.77
0.77
0.77
0.77
0.77
2.28881e-06
1.00056e-05
2.29984e-05
4.48118e-05
8.12675e-05
0.000141819
0.000241604
0.00040448
0.000667347
0.00108602
0.00174279
0.00275521
0.00428505
0.0065448
0.00979807
0.0143493
0.0205196
0.0286108
0.0388643
0.0514267
0.0663335
0.083511
0.102794
0.123952
0.146711
0.170775
0.195925
0.221654
0.247812
0.274137
0.300388
0.326356
0.351858
0.376743
0.400886
0.424188
0.446572
0.46798
0.488379
0.507747
0.526082
0.54339
0.559688
0.575003
0.589365
0.602811
0.615378
0.627108
0.638045
0.648231
0.657708
0.66652
0.674707
0.68231
0.689366
0.695913
0.701986
0.707461
0.712694
0.717561
0.722095
0.726329
0.730305
0.734063
0.737633
0.741031
0.744263
0.747333
0.750239
0.75297
0.75552
0.757876
0.760022
0.762006
0.763812
0.765388
0.766717
0.767789
0.768601
0.769171
0.769539
0.769758
0.769879
0.769942
0.769973
0.769987
0.769994
0.769997
0.769999
0.77
0.77
0.77
0.77
0.77
0.77
0.77
0.77
0.77
0.77
0.77
2.27694e-06
9.95328e-06
2.28764e-05
4.45681e-05
8.08102e-05
0.000140983
0.000240098
0.000401787
0.000662566
0.00107762
0.00172821
0.00273034
0.00424351
0.00647719
0.00969129
0.0141863
0.0202803
0.0282732
0.038407
0.050832
0.0655891
0.0826115
0.101742
0.122755
0.145384
0.169356
0.194331
0.220029
0.246172
0.272503
0.298782
0.3248
0.350373
0.375345
0.399591
0.423007
0.445513
0.46705
0.487579
0.507079
0.525543
0.542977
0.559396
0.574825
0.589295
0.602837
0.615494
0.627305
0.638313
0.648562
0.658094
0.666953
0.675179
0.682813
0.689893
0.696458
0.702544
0.708024
0.713269
0.718141
0.722674
0.726905
0.730878
0.734635
0.738202
0.741593
0.744817
0.747874
0.75076
0.753467
0.755986
0.758304
0.760412
0.762371
0.76413
0.765655
0.766931
0.767949
0.768712
0.769242
0.769581
0.76978
0.76989
0.769947
0.769975
0.769988
0.769995
0.769998
0.769999
0.77
0.77
0.77
0.77
0.77
0.77
0.77
0.77
0.77
0.77
0.77
2.2606e-06
9.88127e-06
2.27083e-05
4.42333e-05
8.01854e-05
0.000139854
0.000238096
0.000398287
0.00065652
0.00106731
0.00171092
0.00270185
0.00419761
0.00640509
0.00958133
0.014024
0.020049
0.0279557
0.0379875
0.0502978
0.0649323
0.0818299
0.100839
0.12174
0.144268
0.168189
0.193072
0.218714
0.244832
0.271162
0.297464
0.323524
0.349157
0.374206
0.39854
0.422056
0.444668
0.466317
0.486961
0.506577
0.525155
0.542699
0.559226
0.574756
0.589318
0.602948
0.615683
0.627566
0.638638
0.648943
0.658524
0.667423
0.675682
0.683343
0.690445
0.697025
0.703108
0.70859
0.713839
0.718711
0.72324
0.727467
0.731436
0.735189
0.73875
0.742134
0.745346
0.748387
0.751252
0.753932
0.75642
0.758698
0.76077
0.762706
0.764418
0.765895
0.767122
0.768092
0.768812
0.769306
0.769618
0.7698
0.7699
0.769952
0.769977
0.76999
0.769995
0.769998
0.769999
0.77
0.77
0.77
0.77
0.77
0.77
0.77
0.77
0.77
0.77
0.77
2.24255e-06
9.80203e-06
2.25246e-05
4.38705e-05
7.95156e-05
0.00013866
0.000236012
0.000394703
0.000650441
0.00105714
0.00169416
0.00267473
0.00415462
0.00633857
0.0094812
0.0138779
0.019843
0.0276756
0.0376204
0.049834
0.0643664
0.0811616
0.100073
0.120886
0.143345
0.167141
0.191994
0.217616
0.243728
0.270067
0.296396
0.322498
0.348187
0.373304
0.397717
0.421319
0.444025
0.465772
0.486515
0.50623
0.524906
0.542547
0.559165
0.57478
0.589423
0.603127
0.615931
0.627874
0.639
0.649352
0.658972
0.667904
0.676191
0.683873
0.69099
0.697581
0.703652
0.709132
0.714381
0.719249
0.723773
0.727993
0.731957
0.735705
0.739259
0.742634
0.745833
0.748858
0.751701
0.754356
0.756813
0.759053
0.761099
0.762998
0.764671
0.766105
0.767289
0.768217
0.768898
0.76936
0.769649
0.769817
0.769909
0.769956
0.769979
0.76999
0.769996
0.769998
0.769999
0.77
0.77
0.77
0.77
0.77
0.77
0.77
0.77
0.77
0.77
0.77
2.2242e-06
9.72162e-06
2.23385e-05
4.35042e-05
7.88423e-05
0.000137466
0.000233939
0.000391164
0.000644486
0.00104727
0.00167806
0.00264897
0.00411425
0.00627687
0.00938947
0.0137457
0.0196588
0.0274279
0.0372991
0.0494319
0.0638798
0.0805908
0.099422
0.120162
0.142578
0.166313
0.191128
0.21673
0.242838
0.26919
0.295545
0.321688
0.347429
0.372607
0.39709
0.420769
0.443556
0.465386
0.486215
0.506015
0.524776
0.542498
0.559192
0.57488
0.58959
0.603356
0.616215
0.628209
0.639379
0.649768
0.65942
0.668378
0.676684
0.684381
0.691508
0.698105
0.704156
0.709633
0.714879
0.719742
0.72426
0.728474
0.732432
0.736174
0.739721
0.743085
0.746271
0.749281
0.752103
0.754733
0.757162
0.75937
0.761389
0.763256
0.764894
0.76629
0.767435
0.768325
0.768972
0.769407
0.769677
0.769832
0.769916
0.76996
0.769981
0.769991
0.769996
0.769998
0.769999
0.77
0.77
0.77
0.77
0.77
0.77
0.77
0.77
0.77
0.77
0.77
2.20666e-06
9.6448e-06
2.21612e-05
4.31562e-05
7.8205e-05
0.00013634
0.000231996
0.000387868
0.000638976
0.0010382
0.00166338
0.00262566
0.00407802
0.0062219
0.00930837
0.0136297
0.0194982
0.0272135
0.0370229
0.0490884
0.0634667
0.080109
0.0988748
0.119554
0.141895
0.165611
0.190412
0.216009
0.242123
0.268493
0.294876
0.321057
0.346846
0.37208
0.396625
0.420371
0.443228
0.465131
0.486033
0.505906
0.524737
0.542525
0.559283
0.575032
0.589797
0.603614
0.616519
0.628553
0.639757
0.650175
0.659851
0.668828
0.677149
0.684855
0.691988
0.698587
0.70461
0.710084
0.715327
0.720185
0.724697
0.728905
0.732858
0.736593
0.740132
0.743487
0.74666
0.749654
0.752457
0.755065
0.757467
0.759647
0.761645
0.763482
0.765088
0.76645
0.767561
0.768418
0.769035
0.769447
0.7697
0.769845
0.769923
0.769963
0.769982
0.769992
0.769996
0.769998
0.769999
0.77
0.77
0.77
0.77
0.77
0.77
0.77
0.77
0.77
0.77
0.77
2.19047e-06
9.57395e-06
2.19979e-05
4.28363e-05
7.76204e-05
0.000135311
0.000230225
0.000384873
0.000633993
0.00103004
0.00165024
0.0026049
0.00404594
0.00617354
0.00923747
0.0135289
0.0193597
0.0270296
0.0367876
0.0487979
0.0631202
0.0797093
0.098429
0.119079
0.141373
0.165058
0.189842
0.215436
0.241558
0.267945
0.294356
0.320573
0.346406
0.37169
0.396289
0.420093
0.443011
0.464976
0.48594
0.505874
0.524763
0.542607
0.559419
0.575216
0.590027
0.603885
0.616826
0.628891
0.640122
0.650562
0.660256
0.669247
0.677578
0.68529
0.692426
0.699024
0.705017
0.710487
0.715727
0.720579
0.725084
0.729287
0.733234
0.736963
0.740495
0.743839
0.747001
0.74998
0.752765
0.755353
0.757732
0.759887
0.761868
0.763679
0.765256
0.766589
0.767669
0.768497
0.769089
0.76948
0.769719
0.769855
0.769928
0.769965
0.769984
0.769992
0.769997
0.769998
0.769999
0.77
0.77
0.77
0.77
0.77
0.77
0.77
0.77
0.77
0.77
0.77
2.17594e-06
9.51042e-06
2.18515e-05
4.25501e-05
7.70986e-05
0.000134394
0.000228652
0.000382222
0.000629596
0.00102287
0.00163874
0.0025868
0.0040181
0.00613178
0.00917652
0.0134427
0.0192417
0.0268738
0.0365889
0.0485531
0.062828
0.0793696
0.0980419
0.118649
0.140928
0.164603
0.189383
0.214979
0.241112
0.267519
0.293957
0.320208
0.346079
0.371407
0.396054
0.419909
0.442879
0.464896
0.485912
0.505896
0.524833
0.542725
0.559579
0.575416
0.590264
0.604153
0.617123
0.629212
0.640464
0.650921
0.660628
0.669629
0.677966
0.685683
0.69282
0.699418
0.705383
0.710846
0.716081
0.720927
0.725425
0.729621
0.733563
0.737286
0.74081
0.744146
0.747297
0.750262
0.753032
0.755602
0.75796
0.760094
0.762062
0.763849
0.765401
0.766708
0.767762
0.768565
0.769135
0.769508
0.769735
0.769864
0.769933
0.769968
0.769985
0.769993
0.769997
0.769999
0.769999
0.77
0.77
0.77
0.77
0.77
0.77
0.77
0.77
0.77
0.77
0.77
2.16318e-06
9.45465e-06
2.17232e-05
4.22994e-05
7.66421e-05
0.000133594
0.000227282
0.000379917
0.000625783
0.00101666
0.00162882
0.00257127
0.00399429
0.00609618
0.00912481
0.0133698
0.0191426
0.0267436
0.0364243
0.0483523
0.0625917
0.0791012
0.0977473
0.118324
0.140583
0.164245
0.189021
0.214622
0.240766
0.267192
0.293654
0.319935
0.345842
0.371208
0.395897
0.419794
0.442808
0.464869
0.485928
0.505954
0.524932
0.542861
0.55975
0.575619
0.590495
0.60441
0.617401
0.629509
0.640776
0.651245
0.660961
0.669967
0.678309
0.686027
0.693165
0.699762
0.7057
0.71116
0.716391
0.721232
0.725723
0.729913
0.733849
0.737566
0.741083
0.74441
0.747552
0.750504
0.75326
0.755814
0.758154
0.76027
0.762229
0.763996
0.765526
0.76681
0.767841
0.768622
0.769173
0.769532
0.769749
0.769871
0.769936
0.769969
0.769986
0.769993
0.769997
0.769999
0.769999
0.77
0.77
0.77
0.77
0.77
0.77
0.77
0.77
0.77
0.77
0.77
2.15219e-06
9.40664e-06
2.16128e-05
4.20839e-05
7.62502e-05
0.000132907
0.000226108
0.000377949
0.000622534
0.00101139
0.00162041
0.00255812
0.00397421
0.00606625
0.00908145
0.013309
0.01906
0.0266355
0.0362879
0.0481866
0.0623975
0.0788816
0.0975085
0.118063
0.140307
0.163962
0.188737
0.214343
0.2405
0.266943
0.293428
0.319736
0.345673
0.371073
0.395796
0.41973
0.442781
0.464878
0.485973
0.506033
0.525044
0.543003
0.55992
0.575815
0.590713
0.604647
0.617655
0.629776
0.641053
0.65153
0.661251
0.670261
0.678603
0.68632
0.693456
0.700052
0.705968
0.711438
0.716668
0.721502
0.725986
0.730168
0.734098
0.737808
0.741318
0.744637
0.747769
0.750711
0.753455
0.755995
0.758318
0.760421
0.762372
0.76412
0.765631
0.766896
0.767907
0.76867
0.769205
0.769552
0.76976
0.769877
0.769939
0.769971
0.769986
0.769994
0.769997
0.769999
0.769999
0.77
0.77
0.77
0.77
0.77
0.77
0.77
0.77
0.77
0.77
0.77
2.14291e-06
9.36608e-06
2.15196e-05
4.19021e-05
7.59198e-05
0.00013233
0.000225122
0.000376296
0.000619812
0.00100698
0.0016134
0.00254718
0.00395753
0.00604146
0.00904562
0.0132588
0.018992
0.0265467
0.0361759
0.0480501
0.0622364
0.0786963
0.097301
0.117847
0.140084
0.163737
0.188514
0.214128
0.240296
0.266756
0.293261
0.319592
0.345555
0.370983
0.395737
0.419701
0.442782
0.46491
0.486033
0.506122
0.525159
0.543142
0.560082
0.575996
0.590911
0.60486
0.61788
0.63001
0.641295
0.651776
0.661499
0.670508
0.678846
0.686557
0.693682
0.70026
0.706134
0.711745
0.716939
0.72175
0.726218
0.73039
0.734311
0.738014
0.741517
0.744828
0.747953
0.750885
0.753618
0.756147
0.758456
0.760546
0.762492
0.764224
0.76572
0.766967
0.767962
0.768709
0.769231
0.769568
0.769769
0.769882
0.769942
0.769972
0.769987
0.769994
0.769997
0.769999
0.769999
0.77
0.77
0.77
0.77
0.77
0.77
0.77
0.77
0.77
0.77
0.77
2.13523e-06
9.33252e-06
2.14425e-05
4.17518e-05
7.56471e-05
0.000131853
0.00022431
0.000374938
0.000617577
0.00100336
0.00160766
0.00253825
0.00394394
0.00602131
0.00901658
0.0132182
0.0189373
0.0264755
0.0360867
0.0479423
0.0621107
0.0785544
0.097145
0.117681
0.139912
0.163563
0.188344
0.213964
0.240143
0.266617
0.29314
0.319491
0.345476
0.370928
0.395706
0.419695
0.442801
0.464953
0.4861
0.506211
0.525269
0.543271
0.560228
0.576157
0.591086
0.605046
0.618075
0.630212
0.641501
0.651986
0.66171
0.670718
0.679055
0.686762
0.693883
0.700457
0.706329
0.711948
0.71714
0.721945
0.726406
0.730571
0.734486
0.738184
0.741681
0.744987
0.748104
0.751028
0.753753
0.756271
0.758569
0.76065
0.76259
0.76431
0.765792
0.767026
0.768007
0.768742
0.769252
0.769581
0.769777
0.769886
0.769944
0.769973
0.769987
0.769994
0.769997
0.769999
0.769999
0.77
0.77
0.77
0.77
0.77
0.77
0.77
0.77
0.77
0.77
0.77
2.12904e-06
9.30549e-06
2.13804e-05
4.16309e-05
7.54277e-05
0.00013147
0.000223658
0.000373848
0.000615786
0.00100047
0.00160307
0.00253113
0.00393312
0.0060053
0.00899356
0.0131862
0.0188942
0.0264196
0.036017
0.0478587
0.0620142
0.0784476
0.0970266
0.117554
0.139782
0.163432
0.188215
0.213842
0.240031
0.266516
0.293054
0.319422
0.345425
0.370896
0.395693
0.419702
0.442828
0.465
0.486166
0.506294
0.525368
0.543385
0.560355
0.576296
0.591235
0.605203
0.618239
0.630381
0.641674
0.65216
0.661885
0.670893
0.679228
0.686934
0.694052
0.700624
0.706494
0.71211
0.717298
0.722099
0.726555
0.730715
0.734627
0.73832
0.741813
0.745114
0.748226
0.751144
0.753861
0.756372
0.75866
0.760733
0.76267
0.764379
0.76585
0.767073
0.768043
0.768767
0.769269
0.769591
0.769783
0.769889
0.769946
0.769974
0.769988
0.769994
0.769997
0.769999
0.769999
0.77
0.77
0.77
0.77
0.77
0.77
0.77
0.77
0.77
0.77
0.77
2.12423e-06
9.28451e-06
2.13322e-05
4.15371e-05
7.52576e-05
0.000131174
0.000223153
0.000373005
0.000614403
0.000998241
0.00159954
0.00252565
0.00392481
0.00599301
0.0089759
0.0131616
0.0188612
0.0263768
0.0359634
0.047794
0.0619387
0.0783618
0.0969349
0.117458
0.139684
0.163335
0.188121
0.213753
0.23995
0.266445
0.292994
0.319375
0.345393
0.370879
0.395692
0.419716
0.442858
0.465044
0.486224
0.506365
0.525452
0.54348
0.56046
0.57641
0.591356
0.60533
0.618371
0.630517
0.641812
0.6523
0.662025
0.671033
0.679367
0.687071
0.694187
0.700757
0.706623
0.712235
0.71742
0.722217
0.726669
0.730827
0.734735
0.738426
0.741915
0.745212
0.748321
0.751233
0.753945
0.75645
0.758731
0.760798
0.762729
0.764431
0.765895
0.767109
0.768071
0.768787
0.769282
0.769599
0.769787
0.769892
0.769947
0.769975
0.769988
0.769994
0.769998
0.769999
0.77
0.77
0.77
0.77
0.77
0.77
0.77
0.77
0.77
0.77
0.77
0.77
2.12072e-06
9.26918e-06
2.1297e-05
4.14685e-05
7.51334e-05
0.000130957
0.000222785
0.00037239
0.000613395
0.000996616
0.00159697
0.00252166
0.00391877
0.00598409
0.00896311
0.0131438
0.0188373
0.0263459
0.0359249
0.0477478
0.0618851
0.0783019
0.0968702
0.117391
0.139615
0.163266
0.188055
0.213692
0.239894
0.266397
0.292955
0.319346
0.345374
0.370871
0.395695
0.419731
0.442884
0.465081
0.486271
0.506422
0.525517
0.543554
0.560541
0.576497
0.591448
0.605427
0.61847
0.630619
0.641915
0.652404
0.66213
0.671137
0.67947
0.687173
0.694287
0.700854
0.706718
0.712328
0.71751
0.722304
0.726753
0.730908
0.734814
0.738503
0.74199
0.745285
0.74839
0.751299
0.754007
0.756507
0.758783
0.760847
0.762773
0.764469
0.765927
0.767135
0.768091
0.768801
0.769292
0.769605
0.76979
0.769893
0.769948
0.769975
0.769988
0.769995
0.769998
0.769999
0.77
0.77
0.77
0.77
0.77
0.77
0.77
0.77
0.77
0.77
0.77
0.77
2.11843e-06
9.25917e-06
2.1274e-05
4.14238e-05
7.50524e-05
0.000130816
0.000222545
0.000371991
0.00061274
0.000995562
0.0015953
0.00251908
0.00391486
0.00597833
0.00895485
0.0131324
0.0188219
0.026326
0.0359002
0.0477182
0.061851
0.0782638
0.0968291
0.117348
0.139571
0.163223
0.188014
0.213653
0.23986
0.266368
0.292932
0.319329
0.345364
0.370868
0.3957
0.419743
0.442903
0.465107
0.486304
0.506461
0.525562
0.543604
0.560595
0.576555
0.591509
0.605491
0.618536
0.630687
0.641984
0.652474
0.662199
0.671206
0.679539
0.68724
0.694353
0.700919
0.70678
0.712388
0.717568
0.72236
0.726808
0.730961
0.734866
0.738553
0.742039
0.745332
0.748435
0.751342
0.754047
0.756544
0.758817
0.760878
0.762801
0.764494
0.765948
0.767152
0.768104
0.768811
0.769298
0.769609
0.769793
0.769895
0.769948
0.769975
0.769988
0.769995
0.769998
0.769999
0.77
0.77
0.77
0.77
0.77
0.77
0.77
0.77
0.77
0.77
0.77
0.77
2.11731e-06
9.2543e-06
2.12629e-05
4.14022e-05
7.50133e-05
0.000130748
0.00022243
0.0003718
0.000612428
0.00099506
0.00159451
0.00251786
0.00391301
0.00597561
0.00895095
0.013127
0.0188147
0.0263167
0.0358886
0.0477043
0.0618349
0.0782458
0.0968097
0.117327
0.139551
0.163203
0.187994
0.213635
0.239844
0.266354
0.292921
0.319321
0.34536
0.370867
0.395702
0.419749
0.442913
0.46512
0.48632
0.506481
0.525584
0.543629
0.560622
0.576584
0.59154
0.605523
0.618569
0.63072
0.642019
0.652508
0.662234
0.671241
0.679573
0.687273
0.694386
0.700951
0.706811
0.712418
0.717597
0.722388
0.726835
0.730988
0.734892
0.738578
0.742063
0.745355
0.748457
0.751363
0.754067
0.756563
0.758834
0.760893
0.762815
0.764506
0.765958
0.76716
0.76811
0.768815
0.769301
0.76961
0.769794
0.769895
0.769949
0.769975
0.769988
0.769995
0.769998
0.769999
0.77
0.77
0.77
0.77
0.77
0.77
0.77
0.77
0.77
0.77
0.77
0.77
2.11731e-06
9.25429e-06
2.12629e-05
4.14021e-05
7.50133e-05
0.000130748
0.00022243
0.000371799
0.000612428
0.00099506
0.00159451
0.00251786
0.00391301
0.00597561
0.00895095
0.013127
0.0188147
0.0263167
0.0358885
0.0477042
0.0618349
0.0782458
0.0968097
0.117327
0.139551
0.163203
0.187994
0.213635
0.239844
0.266354
0.292921
0.319321
0.34536
0.370867
0.395702
0.419749
0.442913
0.46512
0.48632
0.506481
0.525584
0.543629
0.560622
0.576584
0.59154
0.605523
0.618569
0.63072
0.642019
0.652508
0.662234
0.671241
0.679573
0.687273
0.694386
0.700951
0.706811
0.712418
0.717597
0.722388
0.726835
0.730988
0.734892
0.738578
0.742063
0.745355
0.748457
0.751363
0.754067
0.756563
0.758834
0.760893
0.762815
0.764506
0.765958
0.76716
0.76811
0.768815
0.769301
0.76961
0.769794
0.769895
0.769949
0.769975
0.769988
0.769995
0.769998
0.769999
0.77
0.77
0.77
0.77
0.77
0.77
0.77
0.77
0.77
0.77
0.77
0.77
2.11842e-06
9.25914e-06
2.1274e-05
4.14237e-05
7.50522e-05
0.000130816
0.000222544
0.00037199
0.000612739
0.00099556
0.0015953
0.00251908
0.00391485
0.00597832
0.00895484
0.0131323
0.0188219
0.026326
0.0359002
0.0477182
0.061851
0.0782638
0.096829
0.117348
0.139571
0.163223
0.188014
0.213653
0.23986
0.266368
0.292932
0.319329
0.345364
0.370868
0.3957
0.419743
0.442903
0.465107
0.486304
0.506461
0.525562
0.543604
0.560595
0.576555
0.59151
0.605491
0.618537
0.630687
0.641985
0.652474
0.6622
0.671206
0.679539
0.68724
0.694353
0.700919
0.70678
0.712388
0.717568
0.72236
0.726808
0.730962
0.734866
0.738553
0.742039
0.745332
0.748435
0.751342
0.754047
0.756544
0.758817
0.760878
0.762801
0.764494
0.765948
0.767152
0.768104
0.768811
0.769298
0.769609
0.769793
0.769895
0.769948
0.769975
0.769988
0.769995
0.769998
0.769999
0.77
0.77
0.77
0.77
0.77
0.77
0.77
0.77
0.77
0.77
0.77
0.77
2.12071e-06
9.26913e-06
2.12969e-05
4.14683e-05
7.5133e-05
0.000130956
0.000222784
0.000372389
0.000613393
0.000996613
0.00159696
0.00252166
0.00391876
0.00598408
0.00896309
0.0131438
0.0188373
0.0263458
0.0359248
0.0477477
0.061885
0.0783018
0.0968701
0.117391
0.139615
0.163266
0.188055
0.213692
0.239894
0.266397
0.292955
0.319346
0.345374
0.370871
0.395695
0.419731
0.442884
0.465081
0.486271
0.506422
0.525517
0.543554
0.560541
0.576497
0.591448
0.605427
0.61847
0.630619
0.641916
0.652404
0.66213
0.671137
0.67947
0.687173
0.694287
0.700855
0.706718
0.712328
0.71751
0.722304
0.726753
0.730908
0.734815
0.738503
0.74199
0.745285
0.74839
0.751299
0.754007
0.756507
0.758783
0.760847
0.762773
0.764469
0.765927
0.767135
0.768091
0.768801
0.769292
0.769605
0.76979
0.769893
0.769948
0.769975
0.769988
0.769995
0.769998
0.769999
0.77
0.77
0.77
0.77
0.77
0.77
0.77
0.77
0.77
0.77
0.77
0.77
2.12422e-06
9.28445e-06
2.13321e-05
4.15368e-05
7.52571e-05
0.000131173
0.000223152
0.000373003
0.0006144
0.000998236
0.00159953
0.00252564
0.00392479
0.00599299
0.00897587
0.0131616
0.0188611
0.0263767
0.0359633
0.0477939
0.0619386
0.0783617
0.0969348
0.117458
0.139684
0.163335
0.188121
0.213753
0.23995
0.266445
0.292994
0.319375
0.345393
0.370879
0.395692
0.419716
0.442858
0.465044
0.486224
0.506365
0.525452
0.54348
0.56046
0.57641
0.591356
0.605331
0.618371
0.630517
0.641812
0.6523
0.662025
0.671033
0.679367
0.687071
0.694187
0.700757
0.706623
0.712235
0.71742
0.722217
0.72667
0.730827
0.734735
0.738426
0.741915
0.745212
0.748321
0.751233
0.753945
0.75645
0.758731
0.760798
0.762729
0.764432
0.765895
0.767109
0.768071
0.768787
0.769282
0.769599
0.769787
0.769892
0.769947
0.769975
0.769988
0.769994
0.769998
0.769999
0.77
0.77
0.77
0.77
0.77
0.77
0.77
0.77
0.77
0.77
0.77
0.77
2.12902e-06
9.30541e-06
2.13802e-05
4.16305e-05
7.5427e-05
0.000131469
0.000223656
0.000373845
0.000615782
0.00100047
0.00160306
0.00253112
0.0039331
0.00600528
0.00899353
0.0131861
0.0188941
0.0264195
0.0360169
0.0478586
0.0620141
0.0784475
0.0970265
0.117554
0.139782
0.163432
0.188215
0.213842
0.240031
0.266516
0.293054
0.319422
0.345425
0.370896
0.395693
0.419702
0.442828
0.465
0.486166
0.506294
0.525368
0.543385
0.560355
0.576297
0.591235
0.605203
0.618239
0.630381
0.641674
0.65216
0.661885
0.670894
0.679229
0.686934
0.694052
0.700625
0.706494
0.71211
0.717298
0.722099
0.726555
0.730716
0.734627
0.73832
0.741813
0.745114
0.748226
0.751144
0.753861
0.756372
0.75866
0.760733
0.76267
0.764379
0.76585
0.767073
0.768043
0.768767
0.769269
0.769591
0.769783
0.769889
0.769946
0.769974
0.769988
0.769994
0.769997
0.769999
0.769999
0.77
0.77
0.77
0.77
0.77
0.77
0.77
0.77
0.77
0.77
0.77
2.1352e-06
9.33242e-06
2.14422e-05
4.17514e-05
7.56463e-05
0.000131852
0.000224308
0.000374934
0.000617571
0.00100336
0.00160764
0.00253824
0.00394391
0.00602127
0.00901653
0.0132182
0.0189372
0.0264754
0.0360866
0.0479422
0.0621106
0.0785544
0.0971449
0.117681
0.139912
0.163563
0.188344
0.213964
0.240143
0.266617
0.29314
0.319491
0.345476
0.370928
0.395706
0.419695
0.442801
0.464953
0.4861
0.506211
0.525269
0.543271
0.560228
0.576158
0.591086
0.605046
0.618075
0.630212
0.641502
0.651986
0.66171
0.670718
0.679055
0.686762
0.693883
0.700457
0.706329
0.711948
0.71714
0.721945
0.726406
0.730571
0.734487
0.738184
0.741681
0.744987
0.748104
0.751028
0.753753
0.756271
0.758569
0.76065
0.76259
0.76431
0.765792
0.767026
0.768007
0.768742
0.769252
0.769581
0.769777
0.769886
0.769944
0.769973
0.769987
0.769994
0.769997
0.769999
0.769999
0.77
0.77
0.77
0.77
0.77
0.77
0.77
0.77
0.77
0.77
0.77
2.14288e-06
9.36595e-06
2.15193e-05
4.19015e-05
7.59189e-05
0.000132328
0.00022512
0.000376292
0.000619806
0.00100697
0.00161338
0.00254716
0.0039575
0.00604142
0.00904556
0.0132587
0.0189919
0.0265466
0.0361758
0.0480499
0.0622362
0.0786961
0.0973008
0.117846
0.140084
0.163737
0.188514
0.214128
0.240296
0.266755
0.293261
0.319592
0.345555
0.370983
0.395737
0.419701
0.442782
0.46491
0.486033
0.506122
0.525159
0.543142
0.560082
0.575996
0.590911
0.60486
0.61788
0.630011
0.641295
0.651776
0.661499
0.670508
0.678847
0.686557
0.693682
0.70026
0.706135
0.711745
0.716939
0.721751
0.726219
0.73039
0.734311
0.738014
0.741517
0.744829
0.747953
0.750885
0.753618
0.756147
0.758456
0.760546
0.762492
0.764224
0.76572
0.766967
0.767962
0.768709
0.769231
0.769568
0.769769
0.769882
0.769942
0.769972
0.769987
0.769994
0.769997
0.769999
0.769999
0.77
0.77
0.77
0.77
0.77
0.77
0.77
0.77
0.77
0.77
0.77
2.15216e-06
9.40649e-06
2.16125e-05
4.20833e-05
7.62491e-05
0.000132906
0.000226105
0.000377944
0.000622527
0.00101138
0.00162039
0.0025581
0.00397417
0.00606621
0.00908138
0.0133089
0.0190599
0.0266354
0.0362877
0.0481864
0.0623973
0.0788813
0.0975082
0.118063
0.140307
0.163962
0.188737
0.214343
0.2405
0.266943
0.293428
0.319736
0.345673
0.371073
0.395796
0.41973
0.442781
0.464878
0.485973
0.506033
0.525044
0.543003
0.55992
0.575815
0.590713
0.604647
0.617655
0.629776
0.641053
0.65153
0.661251
0.670261
0.678603
0.686321
0.693457
0.700053
0.705968
0.711438
0.716668
0.721502
0.725986
0.730169
0.734098
0.737808
0.741318
0.744637
0.74777
0.750711
0.753455
0.755995
0.758318
0.760421
0.762372
0.76412
0.765631
0.766896
0.767907
0.76867
0.769205
0.769552
0.76976
0.769877
0.769939
0.769971
0.769986
0.769994
0.769997
0.769999
0.769999
0.77
0.77
0.77
0.77
0.77
0.77
0.77
0.77
0.77
0.77
0.77
2.16314e-06
9.45449e-06
2.17228e-05
4.22987e-05
7.66409e-05
0.000133592
0.000227278
0.000379912
0.000625775
0.00101665
0.0016288
0.00257124
0.00399425
0.00609613
0.00912473
0.0133697
0.0191424
0.0267434
0.0364241
0.0483521
0.0625915
0.079101
0.0977472
0.118324
0.140583
0.164245
0.189021
0.214621
0.240766
0.267192
0.293654
0.319935
0.345842
0.371208
0.395897
0.419794
0.442808
0.46487
0.485928
0.505954
0.524932
0.542861
0.55975
0.57562
0.590495
0.60441
0.617402
0.629509
0.640776
0.651245
0.660961
0.669968
0.678309
0.686028
0.693165
0.699762
0.7057
0.711161
0.716391
0.721232
0.725724
0.729914
0.73385
0.737566
0.741083
0.744411
0.747552
0.750505
0.75326
0.755815
0.758154
0.760271
0.762229
0.763996
0.765526
0.76681
0.767841
0.768622
0.769173
0.769532
0.769749
0.769871
0.769936
0.769969
0.769986
0.769993
0.769997
0.769999
0.769999
0.77
0.77
0.77
0.77
0.77
0.77
0.77
0.77
0.77
0.77
0.77
2.17589e-06
9.51023e-06
2.18511e-05
4.25493e-05
7.70972e-05
0.000134392
0.000228649
0.000382216
0.000629586
0.00102285
0.00163871
0.00258677
0.00401806
0.00613171
0.00917643
0.0134425
0.0192416
0.0268736
0.0365887
0.0485528
0.0628277
0.0793693
0.0980416
0.118649
0.140928
0.164602
0.189382
0.214979
0.241112
0.267519
0.293957
0.320208
0.346079
0.371407
0.396055
0.419909
0.442879
0.464896
0.485912
0.505896
0.524834
0.542725
0.559579
0.575417
0.590264
0.604154
0.617123
0.629213
0.640464
0.650921
0.660628
0.669629
0.677966
0.685683
0.69282
0.699418
0.705383
0.710847
0.716081
0.720927
0.725425
0.729622
0.733563
0.737286
0.74081
0.744146
0.747297
0.750262
0.753032
0.755602
0.75796
0.760094
0.762062
0.763849
0.765401
0.766708
0.767762
0.768565
0.769135
0.769508
0.769735
0.769864
0.769933
0.769968
0.769985
0.769993
0.769997
0.769999
0.769999
0.77
0.77
0.77
0.77
0.77
0.77
0.77
0.77
0.77
0.77
0.77
2.19042e-06
9.57374e-06
2.19974e-05
4.28354e-05
7.76189e-05
0.000135308
0.000230221
0.000384867
0.000633982
0.00103002
0.00165022
0.00260486
0.00404588
0.00617347
0.00923736
0.0135288
0.0193595
0.0270294
0.0367874
0.0487976
0.0631199
0.0797089
0.0984286
0.119079
0.141373
0.165058
0.189842
0.215435
0.241557
0.267945
0.294356
0.320573
0.346406
0.37169
0.396289
0.420093
0.443012
0.464976
0.48594
0.505874
0.524763
0.542608
0.559419
0.575217
0.590028
0.603885
0.616826
0.628891
0.640122
0.650563
0.660257
0.669248
0.677578
0.685291
0.692426
0.699024
0.705017
0.710487
0.715727
0.72058
0.725085
0.729287
0.733234
0.736963
0.740495
0.743839
0.747002
0.74998
0.752765
0.755353
0.757732
0.759887
0.761868
0.763679
0.765256
0.766589
0.767669
0.768497
0.769089
0.76948
0.769719
0.769855
0.769928
0.769965
0.769984
0.769992
0.769997
0.769998
0.769999
0.77
0.77
0.77
0.77
0.77
0.77
0.77
0.77
0.77
0.77
0.77
2.2066e-06
9.64456e-06
2.21606e-05
4.31552e-05
7.82032e-05
0.000136337
0.000231992
0.00038786
0.000638964
0.00103818
0.00166336
0.00262562
0.00407796
0.00622182
0.00930826
0.0136295
0.019498
0.0272132
0.0370226
0.0490881
0.0634664
0.0801086
0.0988745
0.119554
0.141895
0.165611
0.190411
0.216008
0.242123
0.268492
0.294876
0.321057
0.346846
0.37208
0.396625
0.420371
0.443229
0.465131
0.486033
0.505906
0.524737
0.542526
0.559284
0.575032
0.589798
0.603615
0.61652
0.628553
0.639757
0.650176
0.659852
0.668829
0.67715
0.684856
0.691989
0.698587
0.704611
0.710084
0.715328
0.720186
0.724697
0.728906
0.732858
0.736593
0.740133
0.743487
0.746661
0.749654
0.752457
0.755065
0.757468
0.759647
0.761645
0.763482
0.765088
0.76645
0.767561
0.768418
0.769035
0.769447
0.7697
0.769845
0.769923
0.769963
0.769982
0.769992
0.769996
0.769998
0.769999
0.77
0.77
0.77
0.77
0.77
0.77
0.77
0.77
0.77
0.77
0.77
2.22414e-06
9.72136e-06
2.23379e-05
4.35031e-05
7.88404e-05
0.000137463
0.000233934
0.000391156
0.000644473
0.00104725
0.00167803
0.00264892
0.00411419
0.00627678
0.00938935
0.0137455
0.0196586
0.0274276
0.0372988
0.0494315
0.0638794
0.0805904
0.0994216
0.120162
0.142578
0.166312
0.191127
0.216729
0.242838
0.26919
0.295545
0.321688
0.347429
0.372607
0.39709
0.420769
0.443556
0.465387
0.486216
0.506016
0.524777
0.542499
0.559192
0.57488
0.58959
0.603356
0.616216
0.62821
0.639379
0.649768
0.65942
0.668378
0.676685
0.684382
0.691509
0.698106
0.704157
0.709633
0.71488
0.719743
0.724261
0.728475
0.732433
0.736174
0.739721
0.743085
0.746272
0.749281
0.752103
0.754733
0.757162
0.75937
0.761389
0.763256
0.764894
0.76629
0.767435
0.768325
0.768972
0.769407