/*--------------------------------*- C++ -*----------------------------------*\
  =========                 |
  \\      /  F ield         | OpenFOAM: The Open Source CFD Toolbox
   \\    /   O peration     | Website:  https://openfoam.org
    \\  /    A nd           | Version:  8
     \\/     M anipulation  |
\*---------------------------------------------------------------------------*/
FoamFile
{
    version     2.0;
    format      ascii;
    class       volScalarField;
    location    "0.5/fluid";
    object      O2;
}
// * * * * * * * * * * * * * * * * * * * * * * * * * * * * * * * * * * * * * //

dimensions      [0 0 0 0 0 0 0];

internalField   nonuniform List<scalar> 
4000
(
4.48808e-11
1.96137e-10
4.50555e-10
8.77164e-10
1.58934e-09
2.77161e-09
4.72034e-09
7.90474e-09
1.30546e-08
2.12812e-08
3.42273e-08
5.42591e-08
8.4646e-08
1.29692e-07
1.94696e-07
2.857e-07
4.0893e-07
5.69964e-07
7.72848e-07
1.01944e-06
1.30914e-06
1.63915e-06
2.00489e-06
2.40061e-06
2.81994e-06
3.25625e-06
3.70302e-06
4.15401e-06
4.60372e-06
5.04665e-06
5.47826e-06
5.89481e-06
6.29361e-06
6.6735e-06
7.03555e-06
7.38412e-06
7.72828e-06
8.08368e-06
8.47471e-06
8.93716e-06
9.52196e-06
1.0301e-05
1.13767e-05
1.28995e-05
1.50983e-05
1.83338e-05
2.31939e-05
3.06567e-05
4.23709e-05
6.11039e-05
9.14485e-05
0.000140904
0.000221532
0.000352527
0.000564216
0.000904298
0.00144757
0.00229892
0.00362914
0.00577944
0.00916967
0.0145381
0.0231096
0.0358359
0.0507488
0.0666715
0.0828788
0.0989174
0.114501
0.129419
0.143539
0.15676
0.168962
0.180173
0.190673
0.199947
0.208002
0.214727
0.220042
0.223947
0.226577
0.228191
0.229098
0.229569
0.2298
0.229909
0.22996
0.229982
0.229992
0.229997
0.229999
0.229999
0.23
0.23
0.23
0.23
0.23
0.23
0.23
0.23
4.48903e-11
1.96216e-10
4.50897e-10
8.7829e-10
1.59242e-09
2.77856e-09
4.734e-09
7.9283e-09
1.30893e-08
2.13205e-08
3.42574e-08
5.42325e-08
8.44553e-08
1.29128e-07
1.93449e-07
2.8336e-07
4.05012e-07
5.63991e-07
7.64469e-07
1.00854e-06
1.29591e-06
1.62409e-06
1.98877e-06
2.3844e-06
2.80472e-06
3.24316e-06
3.69319e-06
4.1487e-06
4.6034e-06
5.0522e-06
5.49043e-06
5.91421e-06
6.3207e-06
6.70861e-06
7.0789e-06
7.43584e-06
7.78847e-06
8.15254e-06
8.55272e-06
9.02542e-06
9.62266e-06
1.0418e-05
1.15168e-05
1.30741e-05
1.53261e-05
1.86468e-05
2.36466e-05
3.13271e-05
4.34186e-05
6.27979e-05
9.42429e-05
0.000145555
0.000229284
0.000365403
0.000585483
0.000939202
0.00150449
0.00238774
0.00377167
0.00601018
0.00954114
0.0151374
0.0240847
0.0370563
0.0521347
0.0681713
0.0844582
0.100552
0.116171
0.131102
0.145214
0.158399
0.17052
0.18166
0.192003
0.201241
0.209172
0.215707
0.220791
0.22446
0.226888
0.228358
0.229178
0.229604
0.229815
0.229915
0.229962
0.229983
0.229993
0.229997
0.229999
0.229999
0.23
0.23
0.23
0.23
0.23
0.23
0.23
0.23
4.50134e-11
1.96779e-10
4.5231e-10
8.81313e-10
1.59833e-09
2.78943e-09
4.75281e-09
7.95876e-09
1.3135e-08
2.13829e-08
3.43253e-08
5.42768e-08
8.44108e-08
1.28875e-07
1.92787e-07
2.82e-07
4.0259e-07
5.6012e-07
7.58816e-07
1.00092e-06
1.28637e-06
1.61295e-06
1.97664e-06
2.37216e-06
2.79345e-06
3.23409e-06
3.68772e-06
4.14793e-06
4.60884e-06
5.06512e-06
5.51199e-06
5.94545e-06
6.36256e-06
6.76187e-06
7.1442e-06
7.51372e-06
7.87944e-06
8.25725e-06
8.67228e-06
9.16189e-06
9.77974e-06
1.06022e-05
1.1739e-05
1.33523e-05
1.56906e-05
1.91465e-05
2.4352e-05
3.24183e-05
4.51485e-05
6.56096e-05
9.88902e-05
0.000153293
0.000242172
0.000386787
0.000620768
0.0009971
0.00159905
0.00253477
0.00400967
0.00639347
0.0101546
0.0161221
0.02568
0.0390375
0.0543621
0.070553
0.08693
0.103066
0.118688
0.133584
0.147626
0.160704
0.172681
0.18372
0.193904
0.202858
0.210488
0.21671
0.221494
0.224906
0.227143
0.22849
0.229241
0.229633
0.229827
0.229921
0.229964
0.229984
0.229993
0.229997
0.229999
0.229999
0.23
0.23
0.23
0.23
0.23
0.23
0.23
0.23
4.49968e-11
1.96706e-10
4.52139e-10
8.80937e-10
1.59743e-09
2.78714e-09
4.7469e-09
7.94405e-09
1.31004e-08
2.13062e-08
3.41654e-08
5.3964e-08
8.38373e-08
1.27888e-07
1.91177e-07
2.79508e-07
3.98938e-07
5.55056e-07
7.52182e-07
9.9271e-07
1.2768e-06
1.60245e-06
1.96588e-06
2.362e-06
2.78493e-06
3.22839e-06
3.6861e-06
4.15164e-06
4.61929e-06
5.08363e-06
5.53984e-06
5.98387e-06
6.41267e-06
6.82471e-06
7.22069e-06
7.6047e-06
7.98578e-06
8.38003e-06
8.81315e-06
9.32366e-06
9.96727e-06
1.08237e-05
1.20083e-05
1.36923e-05
1.61367e-05
1.97529e-05
2.52562e-05
3.3789e-05
4.731e-05
6.91142e-05
0.000104663
0.000162856
0.000257981
0.000412758
0.00066307
0.00106536
0.00170811
0.00270127
0.00431419
0.00686335
0.0108956
0.0173038
0.0275855
0.0413869
0.0569814
0.0733266
0.0897769
0.105927
0.121506
0.136316
0.150232
0.163137
0.174916
0.185818
0.19576
0.20444
0.211774
0.217696
0.222193
0.225361
0.227412
0.228636
0.229314
0.229668
0.229843
0.229928
0.229967
0.229985
0.229994
0.229997
0.229999
0.23
0.23
0.23
0.23
0.23
0.23
0.23
0.23
0.23
4.48631e-11
1.96114e-10
4.50746e-10
8.78123e-10
1.59207e-09
2.77714e-09
4.72845e-09
7.91021e-09
1.30388e-08
2.11955e-08
3.39697e-08
5.36256e-08
8.32678e-08
1.2696e-07
1.89721e-07
2.77317e-07
3.95794e-07
5.5077e-07
7.4665e-07
9.8597e-07
1.26907e-06
1.59416e-06
1.95766e-06
2.35468e-06
2.7795e-06
3.22603e-06
3.6878e-06
4.15882e-06
4.63326e-06
5.1057e-06
5.57132e-06
6.02602e-06
6.4667e-06
6.89175e-06
7.3018e-06
7.70091e-06
8.09818e-06
8.50999e-06
8.96273e-06
9.4962e-06
1.01684e-05
1.10628e-05
1.2301e-05
1.40617e-05
1.66201e-05
2.04443e-05
2.62625e-05
3.53221e-05
4.97349e-05
7.30527e-05
0.000111155
0.000173604
0.000275737
0.00044191
0.000710573
0.00114217
0.00183147
0.00289557
0.00462593
0.00735695
0.0116766
0.0185465
0.0295791
0.0438323
0.0596912
0.0761763
0.0926792
0.108817
0.124325
0.13902
0.152779
0.165478
0.177053
0.187824
0.197506
0.205906
0.212949
0.218581
0.22281
0.225755
0.227642
0.228759
0.229377
0.229698
0.229857
0.229934
0.22997
0.229987
0.229994
0.229997
0.229999
0.23
0.23
0.23
0.23
0.23
0.23
0.23
0.23
0.23
4.463e-11
1.95085e-10
4.48331e-10
8.73281e-10
1.58297e-09
2.76058e-09
4.69889e-09
7.85821e-09
1.29486e-08
2.10414e-08
3.37112e-08
5.32011e-08
8.25888e-08
1.25906e-07
1.88142e-07
2.75043e-07
3.92661e-07
5.46659e-07
7.41533e-07
9.7995e-07
1.26242e-06
1.58731e-06
1.95123e-06
2.34943e-06
2.77633e-06
3.22591e-06
3.69197e-06
4.16844e-06
4.64953e-06
5.12986e-06
5.60461e-06
6.06967e-06
6.52189e-06
6.95963e-06
7.38348e-06
7.7975e-06
8.2109e-06
8.64042e-06
9.11315e-06
9.67032e-06
1.03723e-05
1.13066e-05
1.2599e-05
1.44384e-05
1.71375e-05
2.11662e-05
2.73204e-05
3.69423e-05
5.23071e-05
7.72383e-05
0.000118055
0.000185016
0.000294546
0.000472697
0.000760548
0.0012226
0.00195823
0.00309406
0.00494055
0.00785224
0.0124556
0.0197785
0.0315347
0.0462151
0.0623156
0.0789194
0.0954556
0.111564
0.126987
0.141554
0.155148
0.167636
0.179015
0.18966
0.199089
0.207226
0.214001
0.21937
0.22336
0.226107
0.227849
0.228872
0.229434
0.229726
0.22987
0.22994
0.229973
0.229988
0.229995
0.229998
0.229999
0.23
0.23
0.23
0.23
0.23
0.23
0.23
0.23
0.23
4.4354e-11
1.93872e-10
4.45512e-10
8.67701e-10
1.57264e-09
2.74214e-09
4.66668e-09
7.80283e-09
1.28548e-08
2.0885e-08
3.3455e-08
5.279e-08
8.19447e-08
1.24925e-07
1.86697e-07
2.72995e-07
3.89882e-07
5.43067e-07
7.37131e-07
9.74869e-07
1.25693e-06
1.58186e-06
1.9464e-06
2.34595e-06
2.77508e-06
3.22773e-06
3.69791e-06
4.17959e-06
4.66702e-06
5.15485e-06
5.63824e-06
6.11309e-06
6.57624e-06
7.026e-06
7.46297e-06
7.89124e-06
8.32019e-06
8.76689e-06
9.25926e-06
9.83996e-06
1.05718e-05
1.15445e-05
1.28909e-05
1.48248e-05
1.76554e-05
2.18951e-05
2.83961e-05
3.85996e-05
5.49496e-05
8.15504e-05
0.000125173
0.00019679
0.00031394
0.000504405
0.000811941
0.00130518
0.00208733
0.00329537
0.00525837
0.00835026
0.0132341
0.0209987
0.033408
0.0484648
0.0647707
0.0814676
0.0980198
0.114089
0.129421
0.143861
0.157296
0.169582
0.180818
0.191267
0.200479
0.208386
0.214923
0.220058
0.223835
0.226409
0.228026
0.228968
0.229483
0.22975
0.229882
0.229945
0.229975
0.229989
0.229995
0.229998
0.229999
0.23
0.23
0.23
0.23
0.23
0.23
0.23
0.23
0.23
4.40639e-11
1.92599e-10
4.42564e-10
8.61891e-10
1.56195e-09
2.72317e-09
4.63378e-09
7.74677e-09
1.27608e-08
2.073e-08
3.32041e-08
5.23926e-08
8.13309e-08
1.24005e-07
1.85362e-07
2.71133e-07
3.87397e-07
5.39911e-07
7.3334e-07
9.70587e-07
1.25244e-06
1.57757e-06
1.94285e-06
2.34379e-06
2.77507e-06
3.23079e-06
3.70494e-06
4.19156e-06
4.68494e-06
5.17975e-06
5.67117e-06
6.15509e-06
6.62836e-06
7.08928e-06
7.53844e-06
7.98e-06
8.4235e-06
8.88645e-06
9.39756e-06
1.00009e-05
1.07603e-05
1.17705e-05
1.31805e-05
1.51988e-05
1.8161e-05
2.26124e-05
2.94626e-05
4.0253e-05
5.75997e-05
8.5892e-05
0.00013236
0.000208703
0.000333599
0.000536615
0.00086429
0.00138959
0.00221923
0.0035034
0.00559045
0.00887764
0.0140729
0.022344
0.0352363
0.0505738
0.0670294
0.0837874
0.100338
0.116358
0.131599
0.145919
0.159205
0.171315
0.18241
0.192681
0.2017
0.2094
0.215725
0.220654
0.224246
0.226669
0.228178
0.229051
0.229526
0.22977
0.229891
0.22995
0.229977
0.22999
0.229995
0.229998
0.229999
0.23
0.23
0.23
0.23
0.23
0.23
0.23
0.23
0.23
4.37819e-11
1.91364e-10
4.39711e-10
8.5629e-10
1.5517e-09
2.70508e-09
4.60259e-09
7.69401e-09
1.2673e-08
2.05865e-08
3.2974e-08
5.20315e-08
8.07785e-08
1.23184e-07
1.84184e-07
2.69507e-07
3.85251e-07
5.37221e-07
7.30155e-07
9.67061e-07
1.24884e-06
1.57429e-06
1.9404e-06
2.34279e-06
2.77617e-06
3.23476e-06
3.71261e-06
4.2038e-06
4.70265e-06
5.20384e-06
5.70259e-06
6.19478e-06
6.67726e-06
7.14831e-06
7.60857e-06
8.06225e-06
8.5191e-06
8.99704e-06
9.52557e-06
1.0149e-05
1.09347e-05
1.19879e-05
1.3452e-05
1.5552e-05
1.86421e-05
2.32999e-05
3.04914e-05
4.18574e-05
6.0183e-05
9.01382e-05
0.000139405
0.000220397
0.000352919
0.000568303
0.000915856
0.00147287
0.00234877
0.00371004
0.00592277
0.00940918
0.0149253
0.0237247
0.0369683
0.05251
0.0690711
0.0858655
0.102402
0.118366
0.13352
0.147728
0.160876
0.172832
0.183813
0.193922
0.202766
0.210284
0.216421
0.221167
0.224597
0.226889
0.228306
0.229121
0.229562
0.229788
0.2299
0.229954
0.229979
0.229991
0.229996
0.229998
0.229999
0.23
0.23
0.23
0.23
0.23
0.23
0.23
0.23
0.23
4.35196e-11
1.90216e-10
4.37064e-10
8.51104e-10
1.54223e-09
2.68842e-09
4.574e-09
7.64584e-09
1.25933e-08
2.04569e-08
3.27673e-08
5.17095e-08
8.02895e-08
1.22463e-07
1.83158e-07
2.68105e-07
3.8342e-07
5.34953e-07
7.27512e-07
9.64195e-07
1.24601e-06
1.57184e-06
1.9388e-06
2.34258e-06
2.77796e-06
3.23924e-06
3.7205e-06
4.21586e-06
4.71966e-06
5.22662e-06
5.73196e-06
6.23155e-06
6.72225e-06
7.20236e-06
7.67251e-06
8.13703e-06
8.60584e-06
9.09726e-06
9.6408e-06
1.02829e-05
1.10978e-05
1.21857e-05
1.37004e-05
1.58771e-05
1.90878e-05
2.39403e-05
3.14551e-05
4.33669e-05
6.26222e-05
9.41566e-05
0.000146079
0.000231479
0.000371221
0.000598299
0.000964617
0.00155152
0.00247003
0.00390343
0.00623328
0.00990463
0.0157174
0.0250032
0.0385351
0.0542402
0.0708815
0.0876982
0.104216
0.120124
0.135196
0.149302
0.162325
0.174149
0.18504
0.195003
0.203693
0.211048
0.217019
0.221607
0.224895
0.227077
0.228415
0.229179
0.229592
0.229803
0.229907
0.229957
0.22998
0.229991
0.229996
0.229998
0.229999
0.23
0.23
0.23
0.23
0.23
0.23
0.23
0.23
0.23
4.32835e-11
1.89183e-10
4.34686e-10
8.46454e-10
1.53375e-09
2.67356e-09
4.54857e-09
7.60317e-09
1.2523e-08
2.0343e-08
3.25868e-08
5.14296e-08
7.98669e-08
1.21845e-07
1.82284e-07
2.66919e-07
3.81887e-07
5.33075e-07
7.25357e-07
9.61908e-07
1.24382e-06
1.57009e-06
1.93788e-06
2.34297e-06
2.78022e-06
3.24396e-06
3.7283e-06
4.2274e-06
4.73563e-06
5.24772e-06
5.75887e-06
6.26499e-06
6.76292e-06
7.25096e-06
7.72979e-06
8.20378e-06
8.68306e-06
9.18592e-06
9.74275e-06
1.0405e-05
1.12423e-05
1.23615e-05
1.3922e-05
1.61685e-05
1.94889e-05
2.45195e-05
3.23304e-05
4.47432e-05
6.48524e-05
9.78374e-05
0.000152198
0.000241642
0.000388005
0.000625807
0.00100934
0.00162366
0.00258061
0.0040777
0.00651143
0.0103465
0.0164212
0.0261352
0.0399159
0.0557589
0.0724649
0.0892961
0.105792
0.121648
0.136647
0.150661
0.163573
0.175283
0.186105
0.19594
0.204493
0.211705
0.217532
0.221981
0.225148
0.227234
0.228506
0.229229
0.229617
0.229815
0.229913
0.22996
0.229982
0.229992
0.229996
0.229998
0.229999
0.23
0.23
0.23
0.23
0.23
0.23
0.23
0.23
0.23
4.30762e-11
1.88277e-10
4.326e-10
8.42383e-10
1.52635e-09
2.6606e-09
4.52644e-09
7.56614e-09
1.24621e-08
2.02449e-08
3.24318e-08
5.11904e-08
7.95077e-08
1.21322e-07
1.81549e-07
2.6593e-07
3.80619e-07
5.31542e-07
7.23625e-07
9.60115e-07
1.24218e-06
1.5689e-06
1.9375e-06
2.34381e-06
2.78275e-06
3.24869e-06
3.73578e-06
4.23819e-06
4.75032e-06
5.26688e-06
5.78311e-06
6.2949e-06
6.79907e-06
7.29395e-06
7.78022e-06
8.26233e-06
8.75046e-06
9.2629e-06
9.8338e-06
1.05107e-05
1.13675e-05
1.2514e-05
1.41146e-05
1.64223e-05
1.98393e-05
2.5027e-05
3.30995e-05
4.59554e-05
6.68199e-05
0.000101087
0.000157601
0.000250613
0.000402814
0.000650064
0.00104874
0.00168717
0.00267702
0.00423068
0.00675552
0.0107336
0.0170368
0.0271238
0.041119
0.0570784
0.0738368
0.090677
0.107152
0.122959
0.137892
0.151825
0.164637
0.176255
0.187024
0.196745
0.205178
0.212266
0.217968
0.222297
0.225361
0.227366
0.228582
0.22927
0.229638
0.229825
0.229918
0.229962
0.229983
0.229992
0.229997
0.229999
0.229999
0.23
0.23
0.23
0.23
0.23
0.23
0.23
0.23
0.23
4.2898e-11
1.87499e-10
4.30811e-10
8.38892e-10
1.52001e-09
2.64952e-09
4.50758e-09
7.53464e-09
1.24105e-08
2.01619e-08
3.23012e-08
5.09897e-08
7.92075e-08
1.20887e-07
1.80942e-07
2.65118e-07
3.79588e-07
5.30308e-07
7.22253e-07
9.58731e-07
1.24098e-06
1.56812e-06
1.93746e-06
2.34489e-06
2.78534e-06
3.25324e-06
3.74274e-06
4.24805e-06
4.76355e-06
5.28399e-06
5.80458e-06
6.32121e-06
6.83071e-06
7.33139e-06
7.82393e-06
8.31282e-06
8.80802e-06
9.33049e-06
9.91127e-06
1.06005e-05
1.14738e-05
1.26434e-05
1.4278e-05
1.66377e-05
2.01368e-05
2.54581e-05
3.37529e-05
4.6985e-05
6.84894e-05
0.00010384
0.000162167
0.000258177
0.000415281
0.000670485
0.00108201
0.00174119
0.0027596
0.00436473
0.00696858
0.0110701
0.0175708
0.027981
0.042159
0.0582153
0.0750152
0.0918597
0.108313
0.124076
0.138951
0.152813
0.165539
0.17708
0.187808
0.197431
0.20576
0.212741
0.218335
0.222563
0.225539
0.227476
0.228645
0.229304
0.229656
0.229834
0.229922
0.229964
0.229984
0.229993
0.229997
0.229999
0.229999
0.23
0.23
0.23
0.23
0.23
0.23
0.23
0.23
0.23
4.2748e-11
1.86843e-10
4.29305e-10
8.35958e-10
1.51469e-09
2.64023e-09
4.49179e-09
7.50835e-09
1.23675e-08
2.0093e-08
3.2193e-08
5.0824e-08
7.89608e-08
1.20531e-07
1.80448e-07
2.64463e-07
3.78762e-07
5.29332e-07
7.21187e-07
9.57686e-07
1.24012e-06
1.56767e-06
1.93769e-06
2.3461e-06
2.78789e-06
3.25748e-06
3.74906e-06
4.25684e-06
4.77523e-06
5.29895e-06
5.82324e-06
6.34397e-06
6.85798e-06
7.36356e-06
7.86146e-06
8.35613e-06
8.85821e-06
9.38739e-06
9.97624e-06
1.06757e-05
1.15626e-05
1.27514e-05
1.44144e-05
1.68173e-05
2.03848e-05
2.58169e-05
3.42956e-05
4.78371e-05
6.98634e-05
0.000106087
0.000165854
0.000264193
0.000424995
0.000685963
0.00110628
0.00177853
0.00281275
0.00449793
0.00715866
0.0113611
0.0180292
0.0287158
0.0430468
0.0591821
0.076014
0.0928595
0.109292
0.125017
0.139842
0.153643
0.166296
0.177771
0.188468
0.198006
0.206248
0.213138
0.218641
0.222784
0.225686
0.227567
0.228697
0.229332
0.22967
0.229841
0.229925
0.229965
0.229984
0.229993
0.229997
0.229999
0.229999
0.23
0.23
0.23
0.23
0.23
0.23
0.23
0.23
0.23
4.26245e-11
1.86304e-10
4.28066e-10
8.33545e-10
1.51031e-09
2.63262e-09
4.47886e-09
7.48685e-09
1.23324e-08
2.00369e-08
3.21053e-08
5.069e-08
7.87618e-08
1.20245e-07
1.80054e-07
2.63942e-07
3.78112e-07
5.28573e-07
7.20375e-07
9.56916e-07
1.23954e-06
1.56746e-06
1.93807e-06
2.34734e-06
2.79026e-06
3.26129e-06
3.75463e-06
4.26449e-06
4.78529e-06
5.31175e-06
5.83909e-06
6.36319e-06
6.88086e-06
7.39039e-06
7.8925e-06
8.39159e-06
8.89906e-06
9.43409e-06
1.00298e-05
1.07378e-05
1.1636e-05
1.28408e-05
1.45273e-05
1.69666e-05
2.05915e-05
2.61172e-05
3.47519e-05
4.85569e-05
7.103e-05
0.000108007
0.000169029
0.000269431
0.00043359
0.000699977
0.00112901
0.00181528
0.00287131
0.00459432
0.00731058
0.0116001
0.0184081
0.0293231
0.0437814
0.0599824
0.0768408
0.0936867
0.110102
0.125795
0.140577
0.154328
0.166919
0.178341
0.189013
0.198482
0.206651
0.213464
0.218893
0.222965
0.225806
0.227641
0.228739
0.229354
0.229681
0.229847
0.229928
0.229967
0.229985
0.229993
0.229997
0.229999
0.229999
0.23
0.23
0.23
0.23
0.23
0.23
0.23
0.23
0.23
4.25254e-11
1.85871e-10
4.27072e-10
8.31612e-10
1.50681e-09
2.62653e-09
4.46854e-09
7.46971e-09
1.23045e-08
1.99924e-08
3.20357e-08
5.05842e-08
7.86052e-08
1.20021e-07
1.79746e-07
2.63539e-07
3.77612e-07
5.27996e-07
7.19768e-07
9.56362e-07
1.23915e-06
1.5674e-06
1.93852e-06
2.3485e-06
2.79237e-06
3.26458e-06
3.75937e-06
4.27094e-06
4.7937e-06
5.32239e-06
5.85222e-06
6.37905e-06
6.89969e-06
7.41244e-06
7.91802e-06
8.42115e-06
8.93252e-06
9.47208e-06
1.00732e-05
1.0788e-05
1.16955e-05
1.29134e-05
1.46195e-05
1.70888e-05
2.07615e-05
2.63651e-05
3.51301e-05
4.91559e-05
7.20045e-05
0.000109616
0.000171698
0.000273846
0.000440849
0.000711821
0.00114819
0.00184613
0.00291987
0.00467138
0.00743216
0.0117918
0.0187125
0.0298108
0.0443719
0.0606263
0.0775064
0.094353
0.110755
0.126421
0.141169
0.154879
0.16742
0.178801
0.189452
0.198864
0.206973
0.213726
0.219094
0.223109
0.225902
0.227699
0.228772
0.229372
0.229691
0.229851
0.22993
0.229968
0.229985
0.229993
0.229997
0.229999
0.229999
0.23
0.23
0.23
0.23
0.23
0.23
0.23
0.23
0.23
4.24488e-11
1.85537e-10
4.26305e-10
8.3012e-10
1.50411e-09
2.62183e-09
4.46059e-09
7.45654e-09
1.22831e-08
1.99583e-08
3.19826e-08
5.05034e-08
7.84861e-08
1.19851e-07
1.79513e-07
2.63235e-07
3.7724e-07
5.27571e-07
7.1933e-07
9.55975e-07
1.23891e-06
1.56742e-06
1.93895e-06
2.34951e-06
2.79414e-06
3.2673e-06
3.76323e-06
4.27615e-06
4.80045e-06
5.33089e-06
5.86266e-06
6.39161e-06
6.91455e-06
7.42977e-06
7.93798e-06
8.44408e-06
8.95865e-06
9.5018e-06
1.01072e-05
1.08274e-05
1.17422e-05
1.29705e-05
1.46921e-05
1.71852e-05
2.08959e-05
2.65617e-05
3.54305e-05
4.96321e-05
7.27796e-05
0.000110896
0.000173818
0.000277347
0.00044659
0.000721157
0.00116324
0.00187019
0.00295753
0.00473111
0.00752638
0.0119405
0.0189485
0.0301887
0.0448297
0.0611258
0.078023
0.0948705
0.111262
0.126908
0.14163
0.155309
0.167812
0.179164
0.189784
0.199155
0.20722
0.213927
0.219249
0.22322
0.225976
0.227745
0.228798
0.229386
0.229698
0.229855
0.229932
0.229968
0.229986
0.229994
0.229997
0.229999
0.229999
0.23
0.23
0.23
0.23
0.23
0.23
0.23
0.23
0.23
4.2393e-11
1.85293e-10
4.25747e-10
8.29034e-10
1.50215e-09
2.61842e-09
4.45482e-09
7.44698e-09
1.22676e-08
1.99336e-08
3.19442e-08
5.04452e-08
7.84004e-08
1.1973e-07
1.79347e-07
2.6302e-07
3.76976e-07
5.27274e-07
7.19028e-07
9.55718e-07
1.23877e-06
1.56749e-06
1.93933e-06
2.35032e-06
2.79551e-06
3.26938e-06
3.76617e-06
4.28008e-06
4.80554e-06
5.33727e-06
5.87047e-06
6.40101e-06
6.92568e-06
7.44277e-06
7.95303e-06
8.46116e-06
8.978e-06
9.52375e-06
1.01322e-05
1.08565e-05
1.17767e-05
1.30127e-05
1.47457e-05
1.72566e-05
2.09955e-05
2.67074e-05
3.56533e-05
4.99855e-05
7.33546e-05
0.000111844
0.000175387
0.000279934
0.000450824
0.000728027
0.00117429
0.00188784
0.00298509
0.00477477
0.0075952
0.012049
0.0191206
0.030465
0.0451645
0.0614913
0.0784012
0.0952494
0.111634
0.127266
0.141969
0.155624
0.168099
0.17943
0.190024
0.199366
0.2074
0.214073
0.219361
0.223301
0.226029
0.227777
0.228817
0.229396
0.229703
0.229857
0.229933
0.229969
0.229986
0.229994
0.229997
0.229999
0.229999
0.23
0.23
0.23
0.23
0.23
0.23
0.23
0.23
0.23
4.23567e-11
1.85135e-10
4.25383e-10
8.28328e-10
1.50087e-09
2.61621e-09
4.45108e-09
7.44078e-09
1.22575e-08
1.99176e-08
3.19193e-08
5.04076e-08
7.83452e-08
1.19651e-07
1.79241e-07
2.62882e-07
3.76809e-07
5.27086e-07
7.1884e-07
9.55563e-07
1.23869e-06
1.56755e-06
1.9396e-06
2.35088e-06
2.79645e-06
3.27079e-06
3.76813e-06
4.28271e-06
4.80892e-06
5.3415e-06
5.87565e-06
6.40722e-06
6.93301e-06
7.4513e-06
7.96287e-06
8.47238e-06
8.99073e-06
9.5382e-06
1.01488e-05
1.08756e-05
1.17994e-05
1.30405e-05
1.47811e-05
1.73036e-05
2.10612e-05
2.68036e-05
3.58004e-05
5.02187e-05
7.37339e-05
0.000112469
0.000176421
0.000281637
0.000453608
0.00073254
0.00118155
0.00189941
0.00300317
0.00480342
0.00764039
0.0121203
0.0192338
0.0306461
0.0453839
0.0617306
0.0786488
0.0954975
0.111877
0.127499
0.14219
0.15583
0.168286
0.179605
0.190181
0.199503
0.207516
0.214168
0.219433
0.223352
0.226064
0.227799
0.228829
0.229403
0.229706
0.229859
0.229934
0.229969
0.229986
0.229994
0.229997
0.229999
0.229999
0.23
0.23
0.23
0.23
0.23
0.23
0.23
0.23
0.23
4.2339e-11
1.85058e-10
4.25207e-10
8.27986e-10
1.50026e-09
2.61514e-09
4.44928e-09
7.43782e-09
1.22528e-08
1.991e-08
3.19076e-08
5.03898e-08
7.83191e-08
1.19614e-07
1.79191e-07
2.62817e-07
3.76731e-07
5.26998e-07
7.18753e-07
9.55492e-07
1.23866e-06
1.56758e-06
1.93974e-06
2.35116e-06
2.79691e-06
3.27147e-06
3.76909e-06
4.28399e-06
4.81057e-06
5.34357e-06
5.87818e-06
6.41026e-06
6.9366e-06
7.45549e-06
7.96767e-06
8.47786e-06
8.99694e-06
9.54525e-06
1.01568e-05
1.0885e-05
1.18105e-05
1.30541e-05
1.47984e-05
1.73267e-05
2.10934e-05
2.68509e-05
3.58727e-05
5.03334e-05
7.39204e-05
0.000112777
0.000176929
0.000282474
0.000454977
0.00073476
0.00118512
0.00190511
0.00301207
0.00481751
0.00766261
0.0121554
0.0192895
0.0307351
0.0454916
0.061848
0.0787702
0.095619
0.111996
0.127613
0.142298
0.15593
0.168377
0.179689
0.190256
0.199569
0.207572
0.214213
0.219467
0.223377
0.22608
0.227808
0.228835
0.229406
0.229708
0.22986
0.229934
0.22997
0.229986
0.229994
0.229997
0.229999
0.229999
0.23
0.23
0.23
0.23
0.23
0.23
0.23
0.23
0.23
4.2339e-11
1.85057e-10
4.25206e-10
8.27984e-10
1.50026e-09
2.61514e-09
4.44927e-09
7.43781e-09
1.22527e-08
1.991e-08
3.19075e-08
5.03898e-08
7.8319e-08
1.19614e-07
1.7919e-07
2.62817e-07
3.7673e-07
5.26998e-07
7.18752e-07
9.55491e-07
1.23866e-06
1.56758e-06
1.93974e-06
2.35116e-06
2.79691e-06
3.27147e-06
3.76909e-06
4.28399e-06
4.81057e-06
5.34357e-06
5.87818e-06
6.41026e-06
6.9366e-06
7.45549e-06
7.96767e-06
8.47785e-06
8.99694e-06
9.54525e-06
1.01568e-05
1.0885e-05
1.18105e-05
1.30541e-05
1.47984e-05
1.73267e-05
2.10934e-05
2.68508e-05
3.58727e-05
5.03333e-05
7.39204e-05
0.000112777
0.000176929
0.000282474
0.000454977
0.00073476
0.00118512
0.00190511
0.00301207
0.00481751
0.00766261
0.0121554
0.0192895
0.0307351
0.0454916
0.061848
0.0787702
0.095619
0.111996
0.127613
0.142298
0.15593
0.168377
0.179689
0.190256
0.199569
0.207572
0.214213
0.219467
0.223377
0.22608
0.227808
0.228835
0.229406
0.229708
0.22986
0.229934
0.22997
0.229986
0.229994
0.229997
0.229999
0.229999
0.23
0.23
0.23
0.23
0.23
0.23
0.23
0.23
0.23
4.23565e-11
1.85134e-10
4.25381e-10
8.28323e-10
1.50087e-09
2.61619e-09
4.45106e-09
7.44075e-09
1.22575e-08
1.99175e-08
3.19192e-08
5.04074e-08
7.83449e-08
1.19651e-07
1.7924e-07
2.62881e-07
3.76808e-07
5.27085e-07
7.18839e-07
9.55561e-07
1.23869e-06
1.56755e-06
1.9396e-06
2.35088e-06
2.79645e-06
3.27078e-06
3.76813e-06
4.2827e-06
4.80891e-06
5.34149e-06
5.87565e-06
6.40722e-06
6.933e-06
7.4513e-06
7.96286e-06
8.47238e-06
8.99072e-06
9.53819e-06
1.01487e-05
1.08756e-05
1.17994e-05
1.30405e-05
1.47811e-05
1.73036e-05
2.10612e-05
2.68036e-05
3.58004e-05
5.02186e-05
7.37338e-05
0.000112469
0.00017642
0.000281637
0.000453608
0.00073254
0.00118155
0.00189941
0.00300317
0.00480342
0.00764039
0.0121203
0.0192338
0.0306461
0.0453839
0.0617306
0.0786488
0.0954975
0.111877
0.127499
0.14219
0.15583
0.168286
0.179605
0.190181
0.199503
0.207516
0.214168
0.219433
0.223352
0.226064
0.227799
0.228829
0.229403
0.229706
0.229859
0.229934
0.229969
0.229986
0.229994
0.229997
0.229999
0.229999
0.23
0.23
0.23
0.23
0.23
0.23
0.23
0.23
0.23
4.23926e-11
1.85291e-10
4.25743e-10
8.29027e-10
1.50214e-09
2.6184e-09
4.45479e-09
7.44692e-09
1.22675e-08
1.99334e-08
3.19439e-08
5.04448e-08
7.83999e-08
1.19729e-07
1.79346e-07
2.63019e-07
3.76975e-07
5.27272e-07
7.19025e-07
9.55715e-07
1.23876e-06
1.56748e-06
1.93933e-06
2.35032e-06
2.79551e-06
3.26938e-06
3.76616e-06
4.28007e-06
4.80553e-06
5.33726e-06
5.87047e-06
6.40101e-06
6.92567e-06
7.44276e-06
7.95302e-06
8.46115e-06
8.97799e-06
9.52374e-06
1.01322e-05
1.08565e-05
1.17767e-05
1.30127e-05
1.47457e-05
1.72566e-05
2.09955e-05
2.67074e-05
3.56533e-05
4.99854e-05
7.33545e-05
0.000111844
0.000175387
0.000279934
0.000450824
0.000728026
0.00117429
0.00188784
0.00298509
0.00477477
0.00759521
0.012049
0.0191206
0.030465
0.0451646
0.0614913
0.0784013
0.0952495
0.111634
0.127266
0.141969
0.155624
0.168099
0.17943
0.190024
0.199366
0.2074
0.214073
0.219361
0.223301
0.226029
0.227777
0.228817
0.229396
0.229703
0.229857
0.229933
0.229969
0.229986
0.229994
0.229997
0.229999
0.229999
0.23
0.23
0.23
0.23
0.23
0.23
0.23
0.23
0.23
4.24483e-11
1.85534e-10
4.263e-10
8.3011e-10
1.5041e-09
2.6218e-09
4.46054e-09
7.45646e-09
1.2283e-08
1.99581e-08
3.19823e-08
5.0503e-08
7.84855e-08
1.19851e-07
1.79512e-07
2.63234e-07
3.77238e-07
5.27569e-07
7.19326e-07
9.55971e-07
1.2389e-06
1.56742e-06
1.93895e-06
2.3495e-06
2.79413e-06
3.26729e-06
3.76322e-06
4.27614e-06
4.80044e-06
5.33088e-06
5.86265e-06
6.3916e-06
6.91454e-06
7.42976e-06
7.93797e-06
8.44407e-06
8.95864e-06
9.50178e-06
1.01071e-05
1.08274e-05
1.17422e-05
1.29705e-05
1.4692e-05
1.71852e-05
2.08958e-05
2.65616e-05
3.54304e-05
4.9632e-05
7.27795e-05
0.000110896
0.000173818
0.000277347
0.00044659
0.000721156
0.00116324
0.00187019
0.00295753
0.00473111
0.00752639
0.0119405
0.0189485
0.0301888
0.0448298
0.0611259
0.0780231
0.0948706
0.111262
0.126909
0.14163
0.155309
0.167812
0.179164
0.189784
0.199155
0.20722
0.213927
0.219249
0.22322
0.225976
0.227745
0.228798
0.229386
0.229698
0.229855
0.229932
0.229968
0.229986
0.229994
0.229997
0.229999
0.229999
0.23
0.23
0.23
0.23
0.23
0.23
0.23
0.23
0.23
4.25247e-11
1.85868e-10
4.27066e-10
8.31599e-10
1.50679e-09
2.62649e-09
4.46848e-09
7.46961e-09
1.23044e-08
1.99921e-08
3.20354e-08
5.05836e-08
7.86044e-08
1.2002e-07
1.79744e-07
2.63536e-07
3.7761e-07
5.27993e-07
7.19764e-07
9.56357e-07
1.23914e-06
1.56739e-06
1.93851e-06
2.34849e-06
2.79236e-06
3.26457e-06
3.75936e-06
4.27093e-06
4.79369e-06
5.32238e-06
5.8522e-06
6.37903e-06
6.89967e-06
7.41243e-06
7.918e-06
8.42113e-06
8.93251e-06
9.47207e-06
1.00732e-05
1.0788e-05
1.16955e-05
1.29134e-05
1.46195e-05
1.70887e-05
2.07614e-05
2.63651e-05
3.513e-05
4.91557e-05
7.20043e-05
0.000109616
0.000171697
0.000273846
0.000440848
0.00071182
0.00114819
0.00184613
0.00291987
0.00467139
0.00743217
0.0117919
0.0187125
0.0298109
0.044372
0.0606264
0.0775065
0.0943531
0.110755
0.126421
0.141169
0.154879
0.16742
0.178801
0.189452
0.198864
0.206973
0.213726
0.219094
0.223109
0.225902
0.227699
0.228772
0.229372
0.229691
0.229851
0.22993
0.229968
0.229985
0.229993
0.229997
0.229999
0.229999
0.23
0.23
0.23
0.23
0.23
0.23
0.23
0.23
0.23
4.26236e-11
1.863e-10
4.28057e-10
8.33529e-10
1.51028e-09
2.63257e-09
4.47878e-09
7.48672e-09
1.23322e-08
2.00366e-08
3.21048e-08
5.06893e-08
7.87608e-08
1.20244e-07
1.80052e-07
2.6394e-07
3.78109e-07
5.28569e-07
7.20369e-07
9.5691e-07
1.23953e-06
1.56745e-06
1.93806e-06
2.34732e-06
2.79025e-06
3.26127e-06
3.75461e-06
4.26448e-06
4.78527e-06
5.31173e-06
5.83908e-06
6.36318e-06
6.88084e-06
7.39038e-06
7.89248e-06
8.39157e-06
8.89904e-06
9.43407e-06
1.00297e-05
1.07377e-05
1.1636e-05
1.28407e-05
1.45273e-05
1.69665e-05
2.05915e-05
2.61171e-05
3.47518e-05
4.85567e-05
7.10297e-05
0.000108007
0.000169028
0.000269431
0.00043359
0.000699976
0.00112901
0.00181528
0.00287131
0.00459433
0.0073106
0.0116001
0.0184081
0.0293232
0.0437816
0.0599826
0.076841
0.0936869
0.110103
0.125795
0.140577
0.154328
0.166919
0.178341
0.189013
0.198482
0.206651
0.213465
0.218893
0.222965
0.225806
0.227641
0.228739
0.229354
0.229681
0.229847
0.229928
0.229967
0.229985
0.229993
0.229997
0.229999
0.229999
0.23
0.23
0.23
0.23
0.23
0.23
0.23
0.23
0.23
4.2747e-11
1.86839e-10
4.29295e-10
8.35939e-10
1.51465e-09
2.64018e-09
4.4917e-09
7.5082e-09
1.23673e-08
2.00927e-08
3.21925e-08
5.08232e-08
7.89596e-08
1.20529e-07
1.80446e-07
2.6446e-07
3.78758e-07
5.29327e-07
7.21181e-07
9.57678e-07
1.24011e-06
1.56766e-06
1.93768e-06
2.34609e-06
2.78787e-06
3.25746e-06
3.74904e-06
4.25683e-06
4.77521e-06
5.29894e-06
5.82323e-06
6.34396e-06
6.85796e-06
7.36354e-06
7.86144e-06
8.35611e-06
8.85818e-06
9.38736e-06
9.97621e-06
1.06757e-05
1.15626e-05
1.27514e-05
1.44143e-05
1.68172e-05
2.03847e-05
2.58168e-05
3.42955e-05
4.7837e-05
6.98631e-05
0.000106087
0.000165853
0.000264192
0.000424995
0.000685962
0.00110628
0.00177853
0.00281275
0.00449793
0.00715868
0.0113611
0.0180293
0.0287159
0.043047
0.0591823
0.0760143
0.0928598
0.109293
0.125018
0.139842
0.153643
0.166296
0.177771
0.188468
0.198007
0.206249
0.213138
0.218641
0.222784
0.225686
0.227567
0.228697
0.229332
0.22967
0.229841
0.229925
0.229965
0.229984
0.229993
0.229997
0.229999
0.229999
0.23
0.23
0.23
0.23
0.23
0.23
0.23
0.23
0.23
4.28969e-11
1.87493e-10
4.30799e-10
8.3887e-10
1.51997e-09
2.64945e-09
4.50747e-09
7.53447e-09
1.24102e-08
2.01615e-08
3.23005e-08
5.09887e-08
7.92061e-08
1.20885e-07
1.80939e-07
2.65115e-07
3.79583e-07
5.30302e-07
7.22246e-07
9.58722e-07
1.24097e-06
1.56811e-06
1.93745e-06
2.34487e-06
2.78533e-06
3.25322e-06
3.74272e-06
4.24803e-06
4.76353e-06
5.28396e-06
5.80456e-06
6.32119e-06
6.83069e-06
7.33137e-06
7.8239e-06
8.31279e-06
8.80799e-06
9.33046e-06
9.91123e-06
1.06005e-05
1.14738e-05
1.26433e-05
1.42779e-05
1.66376e-05
2.01368e-05
2.5458e-05
3.37528e-05
4.69848e-05
6.84891e-05
0.000103839
0.000162167
0.000258176
0.00041528
0.000670485
0.00108202
0.0017412
0.00275961
0.00436475
0.00696861
0.0110701
0.0175709
0.0279812
0.0421593
0.0582156
0.0750155
0.09186
0.108313
0.124077
0.138951
0.152813
0.165539
0.17708
0.187808
0.197431
0.205761
0.212741
0.218335
0.222563
0.225539
0.227476
0.228645
0.229304
0.229656
0.229834
0.229922
0.229964
0.229984
0.229993
0.229997
0.229999
0.229999
0.23
0.23
0.23
0.23
0.23
0.23
0.23
0.23
0.23
4.30748e-11
1.88271e-10
4.32587e-10
8.42358e-10
1.5263e-09
2.66052e-09
4.52632e-09
7.56594e-09
1.24618e-08
2.02444e-08
3.2431e-08
5.11893e-08
7.95061e-08
1.21319e-07
1.81546e-07
2.65926e-07
3.80614e-07
5.31535e-07
7.23616e-07
9.60104e-07
1.24217e-06
1.56888e-06
1.93748e-06
2.34379e-06
2.78273e-06
3.24867e-06
3.73575e-06
4.23817e-06
4.75029e-06
5.26686e-06
5.78309e-06