/*--------------------------------*- C++ -*----------------------------------*\
  =========                 |
  \\      /  F ield         | OpenFOAM: The Open Source CFD Toolbox
   \\    /   O peration     | Website:  https://openfoam.org
    \\  /    A nd           | Version:  8
     \\/     M anipulation  |
\*---------------------------------------------------------------------------*/
FoamFile
{
    version     2.0;
    format      ascii;
    class       surfaceScalarField;
    location    "0.5/fluid";
    object      phi;
}
// * * * * * * * * * * * * * * * * * * * * * * * * * * * * * * * * * * * * * //

dimensions      [1 0 -1 0 0 0 0];

internalField   nonuniform List<scalar> 
7860
(
6.57189e-07
-1.77787e-08
6.54342e-07
-5.34761e-08
6.50245e-07
-8.90268e-08
6.44829e-07
-1.24265e-07
6.37979e-07
-1.5919e-07
6.2954e-07
-1.93756e-07
6.19331e-07
-2.27878e-07
6.07154e-07
-2.61433e-07
5.92809e-07
-2.94254e-07
5.76111e-07
-3.26122e-07
5.5694e-07
-3.56765e-07
5.3531e-07
-3.85836e-07
5.11266e-07
-4.12878e-07
4.8493e-07
-4.37328e-07
4.5653e-07
-4.5854e-07
4.26411e-07
-4.75859e-07
3.95022e-07
-4.88742e-07
3.62885e-07
-4.96909e-07
3.30528e-07
-5.00456e-07
2.9843e-07
-4.99875e-07
2.66971e-07
-4.95947e-07
2.36417e-07
-4.89576e-07
2.06927e-07
-4.81611e-07
1.78579e-07
-4.72742e-07
1.51403e-07
-4.63463e-07
1.25439e-07
-4.54081e-07
1.00666e-07
-4.44754e-07
7.70274e-08
-4.35545e-07
5.44564e-08
-4.26462e-07
3.28851e-08
-4.17477e-07
1.22638e-08
-4.08561e-07
-7.45072e-09
-3.99685e-07
-2.62947e-08
-3.90831e-07
-4.42995e-08
-3.81988e-07
-6.14929e-08
-3.73159e-07
-7.78964e-08
-3.64331e-07
-9.35281e-08
-3.55466e-07
-1.08406e-07
-3.46576e-07
-1.22547e-07
-3.37682e-07
-1.35969e-07
-3.28804e-07
-1.4869e-07
-3.19968e-07
-1.60729e-07
-3.11199e-07
-1.72103e-07
-3.02522e-07
-1.82831e-07
-2.93966e-07
-1.92934e-07
-2.85556e-07
-2.02429e-07
-2.77319e-07
-2.11336e-07
-2.69281e-07
-2.19676e-07
-2.61466e-07
-2.27466e-07
-2.539e-07
-2.34728e-07
-2.46607e-07
-2.4148e-07
-2.39614e-07
-2.47745e-07
-2.32947e-07
-2.53546e-07
-2.26637e-07
-2.58908e-07
-2.20721e-07
-2.63865e-07
-2.15244e-07
-2.68457e-07
-2.10264e-07
-2.7274e-07
-2.05857e-07
-2.76785e-07
-2.02162e-07
-2.80688e-07
-1.993e-07
-2.84586e-07
-1.97433e-07
-2.8869e-07
-1.96952e-07
-2.93318e-07
-1.98385e-07
-2.98817e-07
-2.02662e-07
-3.05388e-07
-2.10738e-07
-3.12998e-07
-2.21529e-07
-3.2161e-07
-2.3451e-07
-3.31245e-07
-2.4948e-07
-3.41986e-07
-2.66428e-07
-3.53973e-07
-2.85483e-07
-3.67412e-07
-3.06883e-07
-3.82588e-07
-3.30965e-07
-3.9989e-07
-3.58159e-07
-4.19832e-07
-3.88975e-07
-4.43066e-07
-4.24099e-07
-4.70375e-07
-4.64159e-07
-5.02572e-07
-5.09285e-07
-5.40194e-07
-5.58518e-07
-5.83423e-07
-6.08988e-07
-6.3212e-07
-6.55295e-07
-6.85414e-07
-6.90386e-07
-7.41431e-07
-7.08579e-07
-7.97591e-07
-7.08653e-07
-8.51467e-07
-6.93716e-07
-9.01418e-07
-6.6838e-07
-9.46682e-07
-6.36635e-07
-9.87055e-07
-6.0112e-07
-1.0226e-06
-5.63327e-07
-1.05343e-06
-5.24067e-07
-1.07963e-06
-4.8379e-07
-1.10167e-06
-4.42708e-07
-1.12007e-06
-4.01056e-07
-1.13531e-06
-3.59035e-07
-1.1478e-06
-3.16807e-07
-1.15793e-06
-2.7449e-07
-1.16601e-06
-2.32168e-07
-1.17234e-06
-1.89884e-07
-1.17715e-06
-1.47652e-07
-1.18061e-06
-1.05452e-07
-1.18287e-06
-6.32266e-08
-2.10399e-08
6.57966e-07
-1.72109e-08
6.55835e-07
-5.13451e-08
6.52024e-07
-8.52156e-08
6.46558e-07
-1.18799e-07
6.39388e-07
-1.5202e-07
6.30429e-07
-1.84796e-07
6.19576e-07
-2.17026e-07
6.06725e-07
-2.48582e-07
5.91778e-07
-2.79307e-07
5.74663e-07
-3.09008e-07
5.55351e-07
-3.37453e-07
5.3388e-07
-3.64366e-07
5.10327e-07
-3.89325e-07
4.84828e-07
-4.11828e-07
4.57595e-07
-4.31307e-07
4.28924e-07
-4.47188e-07
3.99187e-07
-4.59005e-07
3.68799e-07
-4.66521e-07
3.38181e-07
-4.69838e-07
3.07711e-07
-4.69404e-07
2.77694e-07
-4.6593e-07
2.48349e-07
-4.60231e-07
2.19814e-07
-4.53076e-07
1.92163e-07
-4.45091e-07
1.6543e-07
-4.3673e-07
1.39641e-07
-4.28293e-07
1.14803e-07
-4.19916e-07
9.09022e-08
-4.11645e-07
6.7911e-08
-4.03471e-07
4.58076e-08
-3.95374e-07
2.45752e-08
-3.87329e-07
4.19682e-09
-3.79307e-07
-1.53457e-08
-3.71288e-07
-3.40672e-08
-3.63266e-07
-5.19851e-08
-3.55241e-07
-6.91121e-08
-3.47204e-07
-8.54609e-08
-3.39117e-07
-1.01046e-07
-3.30991e-07
-1.15882e-07
-3.22845e-07
-1.29986e-07
-3.147e-07
-1.43376e-07
-3.06579e-07
-1.56068e-07
-2.98506e-07
-1.68084e-07
-2.90507e-07
-1.79441e-07
-2.82608e-07
-1.90163e-07
-2.74835e-07
-2.00269e-07
-2.67213e-07
-2.09782e-07
-2.59768e-07
-2.18724e-07
-2.52524e-07
-2.27119e-07
-2.45505e-07
-2.34991e-07
-2.38735e-07
-2.42366e-07
-2.32238e-07
-2.49274e-07
-2.26039e-07
-2.55745e-07
-2.20166e-07
-2.61817e-07
-2.14648e-07
-2.67536e-07
-2.09525e-07
-2.72957e-07
-2.04842e-07
-2.78152e-07
-2.00662e-07
-2.832e-07
-1.97115e-07
-2.88223e-07
-1.94276e-07
-2.93359e-07
-1.92297e-07
-2.98779e-07
-1.91533e-07
-3.04627e-07
-1.92536e-07
-3.10994e-07
-1.96294e-07
-3.18195e-07
-2.03538e-07
-3.26382e-07
-2.13342e-07
-3.35637e-07
-2.25256e-07
-3.46031e-07
-2.39085e-07
-3.57661e-07
-2.54798e-07
-3.7066e-07
-2.72485e-07
-3.85203e-07
-2.92339e-07
-4.01522e-07
-3.14647e-07
-4.19901e-07
-3.3978e-07
-4.40681e-07
-3.68195e-07
-4.64244e-07
-4.00536e-07
-4.91045e-07
-4.37358e-07
-5.21576e-07
-4.78753e-07
-5.56263e-07
-5.23832e-07
-5.95418e-07
-5.69832e-07
-6.39128e-07
-6.11584e-07
-6.86823e-07
-6.42692e-07
-7.37017e-07
-6.58385e-07
-7.8766e-07
-6.58011e-07
-8.36856e-07
-6.44519e-07
-8.83298e-07
-6.21938e-07
-9.26306e-07
-5.93627e-07
-9.65616e-07
-5.6181e-07
-1.00118e-06
-5.2776e-07
-1.03304e-06
-4.92213e-07
-1.06118e-06
-4.55642e-07
-1.08576e-06
-4.18128e-07
-1.10697e-06
-3.79849e-07
-1.12503e-06
-3.40973e-07
-1.1402e-06
-3.01639e-07
-1.15273e-06
-2.61965e-07
-1.16285e-06
-2.22042e-07
-1.1708e-06
-1.81938e-07
-1.17675e-06
-1.417e-07
-1.18084e-06
-1.01355e-07
-1.18315e-06
-6.09242e-08
-2.03654e-08
6.57572e-07
-1.62495e-08
6.54826e-07
-4.85986e-08
6.50312e-07
-8.07022e-08
6.43996e-07
-1.12482e-07
6.35839e-07
-1.43864e-07
6.25803e-07
-1.74761e-07
6.13852e-07
-2.05075e-07
5.99963e-07
-2.34692e-07
5.84132e-07
-2.63476e-07
5.66378e-07
-2.91254e-07
5.46735e-07
-3.1781e-07
5.25232e-07
-3.42863e-07
5.01958e-07
-3.66051e-07
4.77062e-07
-3.86932e-07
4.50755e-07
-4.05e-07
4.23313e-07
-4.19747e-07
3.9506e-07
-4.30752e-07
3.66345e-07
-4.37806e-07
3.37507e-07
-4.40999e-07
3.08841e-07
-4.40738e-07
2.80581e-07
-4.3767e-07
2.52891e-07
-4.32541e-07
2.25873e-07
-4.26059e-07
1.99585e-07
-4.18802e-07
1.74043e-07
-4.11188e-07
1.4923e-07
-4.0348e-07
1.25137e-07
-3.95822e-07
1.01756e-07
-3.88264e-07
7.90925e-08
-3.80807e-07
5.71559e-08
-3.73437e-07
3.595e-08
-3.66123e-07
1.54773e-08
-3.58834e-07
-4.26134e-09
-3.5155e-07
-2.32693e-08
-3.44258e-07
-4.15504e-08
-3.3696e-07
-5.91072e-08
-3.29647e-07
-7.59438e-08
-3.22281e-07
-9.20673e-08
-3.14868e-07
-1.07487e-07
-3.07426e-07
-1.22214e-07
-2.99973e-07
-1.36261e-07
-2.92532e-07
-1.49643e-07
-2.85123e-07
-1.62378e-07
-2.77772e-07
-1.74483e-07
-2.70503e-07
-1.8598e-07
-2.63339e-07
-1.96889e-07
-2.56304e-07
-2.07235e-07
-2.49422e-07
-2.17043e-07
-2.42716e-07
-2.2634e-07
-2.36208e-07
-2.35157e-07
-2.29919e-07
-2.43526e-07
-2.23869e-07
-2.51484e-07
-2.18081e-07
-2.59072e-07
-2.12578e-07
-2.66337e-07
-2.07383e-07
-2.73332e-07
-2.02529e-07
-2.8012e-07
-1.98054e-07
-2.86772e-07
-1.94011e-07
-2.93358e-07
-1.90528e-07
-2.99996e-07
-1.87638e-07
-3.06753e-07
-1.8554e-07
-3.13717e-07
-1.84569e-07
-3.20961e-07
-1.85292e-07
-3.28468e-07
-1.88788e-07
-3.36579e-07
-1.95426e-07
-3.45513e-07
-2.04408e-07
-3.55422e-07
-2.15347e-07
-3.66429e-07
-2.28078e-07
-3.78651e-07
-2.42576e-07
-3.92211e-07
-2.58925e-07
-4.0724e-07
-2.7731e-07
-4.2388e-07
-2.98007e-07
-4.42284e-07
-3.21376e-07
-4.62594e-07
-3.47885e-07
-4.84951e-07
-3.7818e-07
-5.09546e-07
-4.12763e-07
-5.3669e-07
-4.5161e-07
-5.66934e-07
-4.93588e-07
-6.01001e-07
-5.35765e-07
-6.39407e-07
-5.73178e-07
-6.82004e-07
-6.00095e-07
-7.27641e-07
-6.12747e-07
-7.74484e-07
-6.11168e-07
-8.20734e-07
-5.98269e-07
-8.65081e-07
-5.77591e-07
-9.0676e-07
-5.51948e-07
-9.454e-07
-5.2317e-07
-9.80866e-07
-4.92294e-07
-1.01317e-06
-4.59907e-07
-1.04245e-06
-4.2636e-07
-1.06871e-06
-3.9187e-07
-1.09197e-06
-3.56591e-07
-1.1123e-06
-3.20643e-07
-1.12981e-06
-2.84134e-07
-1.14461e-06
-2.47156e-07
-1.15686e-06
-2.09792e-07
-1.16669e-06
-1.72113e-07
-1.17421e-06
-1.34178e-07
-1.17953e-06
-9.60348e-08
-1.18273e-06
-5.77248e-08
-1.92751e-08
6.57623e-07
-1.53384e-08
6.54853e-07
-4.58291e-08
6.50218e-07
-7.60674e-08
6.43718e-07
-1.05982e-07
6.35345e-07
-1.35491e-07
6.25092e-07
-1.64507e-07
6.12954e-07
-1.92937e-07
5.98932e-07
-2.20671e-07
5.83039e-07
-2.47582e-07
5.65298e-07
-2.73513e-07
5.45755e-07
-2.98266e-07
5.2448e-07
-3.21588e-07
5.01582e-07
-3.43154e-07
4.77216e-07
-3.62565e-07
4.51582e-07
-3.79366e-07
4.24931e-07
-3.93095e-07
3.97551e-07
-4.03371e-07
3.69746e-07
-4.10001e-07
3.41812e-07
-4.13065e-07
3.14007e-07
-4.12934e-07
2.86536e-07
-4.10199e-07
2.59544e-07
-4.05549e-07
2.33125e-07
-3.9964e-07
2.07333e-07
-3.93011e-07
1.82196e-07
-3.8605e-07
1.57721e-07
-3.79005e-07
1.33906e-07
-3.72008e-07
1.10748e-07
-3.65106e-07
8.82494e-08
-3.58309e-07
6.64094e-08
-3.51598e-07
4.52285e-08
-3.44942e-07
2.47077e-08
-3.38313e-07
4.84778e-09
-3.3169e-07
-1.43517e-08
-3.25058e-07
-3.28922e-08
-3.18419e-07
-5.0774e-08
-3.11765e-07
-6.79976e-08
-3.05057e-07
-8.45667e-08
-2.98299e-07
-1.00487e-07
-2.91505e-07
-1.15767e-07
-2.84693e-07
-1.30416e-07
-2.77882e-07
-1.44448e-07
-2.71092e-07
-1.57878e-07
-2.64343e-07
-1.70721e-07
-2.57659e-07
-1.82999e-07
-2.51061e-07
-1.94732e-07
-2.44571e-07
-2.05945e-07
-2.3821e-07
-2.16663e-07
-2.31998e-07
-2.26916e-07
-2.25955e-07
-2.36736e-07
-2.20099e-07
-2.46157e-07
-2.14448e-07
-2.55219e-07
-2.0902e-07
-2.63963e-07
-2.03833e-07
-2.72437e-07
-1.9891e-07
-2.80691e-07
-1.94275e-07
-2.88781e-07
-1.89964e-07
-2.96766e-07
-1.86026e-07
-3.04706e-07
-1.82589e-07
-3.12688e-07
-1.79656e-07
-3.20754e-07
-1.77474e-07
-3.28955e-07
-1.76369e-07
-3.3732e-07
-1.76927e-07
-3.45797e-07
-1.8031e-07
-3.54733e-07
-1.86491e-07
-3.64355e-07
-1.94786e-07
-3.74831e-07
-2.04871e-07
-3.86297e-07
-2.16612e-07
-3.98873e-07
-2.3e-07
-4.12668e-07
-2.45129e-07
-4.27795e-07
-2.62184e-07
-4.44366e-07
-2.81435e-07
-4.62506e-07
-3.03236e-07
-4.82333e-07
-3.28057e-07
-5.04004e-07
-3.56508e-07
-5.27765e-07
-3.89002e-07
-5.53995e-07
-4.2538e-07
-5.83222e-07
-4.6436e-07
-6.16037e-07
-5.0295e-07
-6.52807e-07
-5.36408e-07
-6.93253e-07
-5.59649e-07
-7.36269e-07
-5.69732e-07
-7.80282e-07
-5.67154e-07
-8.23829e-07
-5.54722e-07
-8.65848e-07
-5.35572e-07
-9.05686e-07
-5.1211e-07
-9.4298e-07
-4.85876e-07
-9.77542e-07
-4.57732e-07
-1.00929e-06
-4.28156e-07
-1.03823e-06
-3.97428e-07
-1.06436e-06
-3.65733e-07
-1.08775e-06
-3.33205e-07
-1.10843e-06
-2.99959e-07
-1.12647e-06
-2.66093e-07
-1.14194e-06
-2.31695e-07
-1.15488e-06
-1.96846e-07
-1.16538e-06
-1.61618e-07
-1.17348e-06
-1.26076e-07
-1.17923e-06
-9.02785e-08
-1.18268e-06
-5.42821e-08
-1.81306e-08
6.57554e-07
-1.43587e-08
6.54645e-07
-4.29202e-08
6.49821e-07
-7.12434e-08
6.43088e-07
-9.92491e-08
6.34455e-07
-1.26858e-07
6.23933e-07
-1.53985e-07
6.11538e-07
-1.80542e-07
5.97294e-07
-2.06427e-07
5.81236e-07
-2.31524e-07
5.63413e-07
-2.5569e-07
5.43892e-07
-2.78746e-07
5.22763e-07
-3.0046e-07
5.00147e-07
-3.20538e-07
4.76198e-07
-3.38616e-07
4.51112e-07
-3.5428e-07
4.2512e-07
-3.67104e-07
3.98486e-07
-3.76737e-07
3.7148e-07
-3.82996e-07
3.44365e-07
-3.8595e-07
3.17366e-07
-3.85934e-07
2.9066e-07
-3.83493e-07
2.64374e-07
-3.79263e-07
2.38589e-07
-3.73855e-07
2.13352e-07
-3.67774e-07
1.88686e-07
-3.61384e-07
1.64603e-07
-3.54922e-07
1.41099e-07
-3.48504e-07
1.1818e-07
-3.42187e-07
9.58473e-08
-3.35976e-07
7.41023e-08
-3.29853e-07
5.29478e-08
-3.23787e-07
3.23865e-08
-3.17752e-07
1.24208e-08
-3.11724e-07
-6.94738e-09
-3.0569e-07
-2.57167e-08
-2.9965e-07
-4.38881e-08
-2.93594e-07
-6.146e-08
-2.87485e-07
-7.84339e-08
-2.81325e-07
-9.48137e-08
-2.75126e-07
-1.10606e-07
-2.68902e-07
-1.25818e-07
-2.6267e-07
-1.40462e-07
-2.56448e-07
-1.5455e-07
-2.50255e-07
-1.681e-07
-2.4411e-07
-1.81127e-07
-2.38033e-07
-1.93653e-07
-2.32044e-07
-2.05701e-07
-2.26162e-07
-2.17297e-07
-2.20403e-07
-2.28468e-07
-2.14784e-07
-2.39245e-07
-2.09322e-07
-2.49661e-07
-2.04032e-07
-2.59752e-07
-1.98928e-07
-2.69558e-07
-1.94028e-07
-2.79119e-07
-1.89349e-07
-2.88479e-07
-1.84915e-07
-2.97686e-07
-1.80758e-07
-3.06782e-07
-1.76929e-07
-3.15824e-07
-1.73547e-07
-3.24858e-07
-1.70622e-07
-3.33927e-07
-1.68405e-07
-3.43064e-07
-1.67231e-07
-3.52287e-07
-1.67704e-07
-3.61561e-07
-1.71036e-07
-3.7121e-07
-1.76842e-07
-3.81451e-07
-1.84544e-07
-3.92448e-07
-1.93874e-07
-4.04334e-07
-2.04727e-07
-4.17221e-07
-2.17113e-07
-4.31215e-07
-2.31135e-07
-4.46416e-07
-2.46984e-07
-4.62924e-07
-2.64927e-07
-4.80847e-07
-2.85313e-07
-5.00285e-07
-3.08619e-07
-5.21387e-07
-3.35407e-07
-5.44381e-07
-3.66008e-07
-5.69621e-07
-4.0014e-07
-5.97588e-07
-4.36393e-07
-6.28815e-07
-4.71723e-07
-6.63634e-07
-5.0159e-07
-7.01794e-07
-5.21489e-07
-7.42326e-07
-5.292e-07
-7.83871e-07
-5.25609e-07
-8.2516e-07
-5.13433e-07
-8.65264e-07
-4.95468e-07
-9.0359e-07
-4.73784e-07
-9.39788e-07
-4.49677e-07
-9.73656e-07
-4.23864e-07
-1.00507e-06
-3.96741e-07
-1.03396e-06
-3.68539e-07
-1.06028e-06
-3.3941e-07
-1.08402e-06
-3.09467e-07
-1.10517e-06
-2.78806e-07
-1.12375e-06
-2.47512e-07
-1.13978e-06
-2.15666e-07
-1.15329e-06
-1.83341e-07
-1.1643e-06
-1.50609e-07
-1.17284e-06
-1.17535e-07
-1.17893e-06
-8.41848e-08
-1.18259e-06
-5.06205e-08
-1.69034e-08
6.57557e-07
-1.33815e-08
6.54631e-07
-3.99946e-08
6.4977e-07
-6.63822e-08
6.42989e-07
-9.24688e-08
6.34309e-07
-1.18177e-07
6.23751e-07
-1.43427e-07
6.11343e-07
-1.68134e-07
5.97121e-07
-1.92205e-07
5.8113e-07
-2.15532e-07
5.63424e-07
-2.37985e-07
5.44078e-07
-2.59399e-07
5.23182e-07
-2.79564e-07
5.00856e-07
-2.98212e-07
4.77251e-07
-3.15011e-07
4.52553e-07
-3.29582e-07
4.26983e-07
-3.41535e-07
4.00791e-07
-3.50545e-07
3.74235e-07
-3.5644e-07
3.47563e-07
-3.59278e-07
3.20992e-07
-3.59363e-07
2.94692e-07
-3.57192e-07
2.68783e-07
-3.53354e-07
2.43343e-07
-3.48416e-07
2.18416e-07
-3.42847e-07
1.94023e-07
-3.36991e-07
1.70169e-07
-3.31067e-07
1.46855e-07
-3.2519e-07
1.24081e-07
-3.19413e-07
1.01846e-07
-3.13741e-07
8.01496e-08
-3.08156e-07
5.89934e-08
-3.02631e-07
3.83791e-08
-2.97138e-07
1.8309e-08
-2.91654e-07
-1.21519e-09
-2.86166e-07
-2.01963e-08
-2.80669e-07
-3.86304e-08
-2.7516e-07
-5.65157e-08
-2.696e-07
-7.38534e-08
-2.63987e-07
-9.06461e-08
-2.58333e-07
-1.06899e-07
-2.52649e-07
-1.22618e-07
-2.4695e-07
-1.37813e-07
-2.41252e-07
-1.52497e-07
-2.35571e-07
-1.66682e-07
-2.29925e-07
-1.80384e-07
-2.24331e-07
-1.93623e-07
-2.18806e-07
-2.06419e-07
-2.13366e-07
-2.18795e-07
-2.08027e-07
-2.30777e-07
-2.02803e-07
-2.42391e-07
-1.97708e-07
-2.53668e-07
-1.92755e-07
-2.64638e-07
-1.87958e-07
-2.75334e-07
-1.83331e-07
-2.85792e-07
-1.78891e-07
-2.96047e-07
-1.7466e-07
-3.06136e-07
-1.70669e-07
-3.1609e-07
-1.66974e-07
-3.25956e-07
-1.63681e-07
-3.35767e-07
-1.60811e-07
-3.45557e-07
-1.58615e-07
-3.55359e-07
-1.57429e-07
-3.65195e-07
-1.57868e-07
-3.75076e-07
-1.61156e-07
-3.85293e-07
-1.66626e-07
-3.96042e-07
-1.73795e-07
-4.07473e-07
-1.82443e-07
-4.19709e-07
-1.92491e-07
-4.32856e-07
-2.03966e-07
-4.47013e-07
-2.16978e-07
-4.62277e-07
-2.3172e-07
-4.78748e-07
-2.48456e-07
-4.96536e-07
-2.67525e-07
-5.15753e-07
-2.89403e-07
-5.36568e-07
-3.14592e-07
-5.59244e-07
-3.43332e-07
-5.84154e-07
-3.75229e-07
-6.11781e-07
-4.08767e-07
-6.42604e-07
-4.409e-07
-6.76831e-07
-4.67362e-07
-7.14079e-07
-4.84241e-07
-7.53339e-07
-4.89939e-07
-7.93344e-07
-4.85605e-07
-8.32979e-07
-4.73798e-07
-8.71457e-07
-4.5699e-07
-9.0828e-07
-4.36961e-07
-9.43154e-07
-4.14803e-07
-9.759e-07
-3.91119e-07
-1.0064e-06
-3.66238e-07
-1.03459e-06
-3.40355e-07
-1.0604e-06
-3.13599e-07
-1.0838e-06
-2.86066e-07
-1.10476e-06
-2.57841e-07
-1.12328e-06
-2.29e-07
-1.13933e-06
-1.99615e-07
-1.15291e-06
-1.69757e-07
-1.16403e-06
-1.39491e-07
-1.17268e-06
-1.08884e-07
-1.17886e-06
-7.80003e-08
-1.18258e-06
-4.69044e-08
-1.5662e-08
6.57548e-07
-1.23954e-08
6.54605e-07
-3.70515e-08
6.49721e-07
-6.14988e-08
6.42917e-07
-8.56646e-08
6.34216e-07
-1.09476e-07
6.23647e-07
-1.32858e-07
6.11246e-07
-1.55733e-07
5.97054e-07
-1.78014e-07
5.81124e-07
-1.99602e-07
5.63518e-07
-2.20379e-07
5.44314e-07
-2.40195e-07
5.23609e-07
-2.58859e-07
5.01523e-07
-2.76126e-07
4.78205e-07
-2.91693e-07
4.53835e-07
-3.05212e-07
4.28626e-07
-3.16325e-07
4.02812e-07
-3.24731e-07
3.76639e-07
-3.30267e-07
3.50342e-07
-3.3298e-07
3.24124e-07
-3.33145e-07
2.9815e-07
-3.31218e-07
2.72535e-07
-3.2774e-07
2.47356e-07
-3.23237e-07
2.22655e-07
-3.18146e-07
1.98453e-07
-3.12789e-07
1.74753e-07
-3.07367e-07
1.51558e-07
-3.01995e-07
1.28867e-07
-2.96721e-07
1.06676e-07
-2.9155e-07
8.49837e-08
-2.86464e-07
6.37905e-08
-2.81438e-07
4.30972e-08
-2.76444e-07
2.29051e-08
-2.71462e-07
3.21527e-09
-2.66476e-07
-1.59709e-08
-2.61483e-07
-3.46541e-08
-2.56477e-07
-5.28319e-08
-2.51422e-07
-7.05044e-08
-2.46315e-07
-8.76731e-08
-2.41164e-07
-1.04342e-07
-2.35981e-07
-1.20516e-07
-2.30776e-07
-1.36203e-07
-2.25565e-07
-1.51414e-07
-2.20361e-07
-1.66159e-07
-2.1518e-07
-1.80453e-07
-2.10037e-07
-1.94312e-07
-2.04947e-07
-2.07754e-07
-1.99924e-07
-2.20799e-07
-1.94981e-07
-2.3347e-07
-1.90133e-07
-2.45788e-07
-1.85389e-07
-2.57779e-07
-1.80764e-07
-2.6947e-07
-1.76268e-07
-2.80887e-07
-1.71914e-07
-2.92059e-07
-1.67719e-07
-3.03014e-07
-1.63705e-07
-3.13781e-07
-1.59902e-07
-3.24384e-07
-1.56371e-07
-3.34861e-07
-1.53205e-07
-3.45236e-07
-1.50436e-07
-3.55538e-07
-1.48313e-07
-3.65797e-07
-1.47171e-07
-3.76041e-07
-1.47623e-07
-3.86383e-07
-1.50814e-07
-3.97059e-07
-1.5595e-07
-4.08236e-07
-1.62618e-07
-4.20048e-07
-1.70631e-07
-4.32607e-07
-1.79932e-07
-4.46016e-07
-1.90557e-07
-4.60371e-07
-2.02623e-07
-4.75772e-07
-2.16319e-07
-4.92323e-07
-2.31904e-07
-5.10142e-07
-2.49706e-07
-5.29356e-07
-2.70189e-07
-5.50153e-07
-2.93794e-07
-5.72805e-07
-3.20681e-07
-5.97672e-07
-3.50361e-07
-6.25183e-07
-3.81256e-07
-6.55715e-07
-4.10368e-07
-6.89351e-07
-4.33727e-07
-7.25637e-07
-4.47955e-07
-7.63615e-07
-4.51961e-07
-8.02162e-07
-4.47058e-07
-8.40317e-07
-4.35643e-07
-8.77402e-07
-4.19906e-07
-9.12979e-07
-4.01385e-07
-9.46775e-07
-3.81007e-07
-9.78614e-07
-3.5928e-07
-1.00837e-06
-3.36478e-07
-1.03596e-06
-3.12765e-07
-1.06131e-06
-2.88248e-07
-1.08437e-06
-2.6301e-07
-1.10509e-06
-2.37122e-07
-1.12344e-06
-2.10652e-07
-1.13939e-06
-1.83666e-07
-1.15292e-06
-1.56226e-07
-1.16401e-06
-1.28395e-07
-1.17266e-06
-1.00236e-07
-1.17885e-06
-7.18099e-08
-1.18258e-06
-4.31814e-08
-1.44172e-08
6.57552e-07
-1.14139e-08
6.54619e-07
-3.41181e-08
6.4975e-07
-5.66303e-08
6.42969e-07
-7.8883e-08
6.34301e-07
-1.00808e-07
6.2378e-07
-1.22337e-07
6.11444e-07
-1.43397e-07
5.97339e-07
-1.63909e-07
5.8152e-07
-1.83783e-07
5.64052e-07
-2.02911e-07
5.45013e-07
-2.21156e-07
5.245e-07
-2.38346e-07
5.0263e-07
-2.54256e-07
4.79548e-07
-2.68611e-07
4.55429e-07
-2.81093e-07
4.30478e-07
-2.91374e-07
4.04922e-07
-2.99175e-07
3.78999e-07
-3.04344e-07
3.52937e-07
-3.06919e-07
3.26939e-07
-3.07147e-07
3.01165e-07
-3.05444e-07
2.75729e-07
-3.02305e-07
2.50708e-07
-2.98215e-07
2.26142e-07
-2.9358e-07
2.02051e-07
-2.88698e-07
1.7844e-07
-2.83756e-07
1.55308e-07
-2.78864e-07
1.32652e-07
-2.74065e-07
1.10466e-07
-2.69364e-07
8.87483e-08
-2.64747e-07
6.74969e-08
-2.60187e-07
4.67117e-08
-2.55659e-07
2.63934e-08
-2.51144e-07
6.54284e-09
-2.46626e-07
-1.28396e-08
-2.421e-07
-3.17538e-08
-2.37562e-07
-5.0198e-08
-2.32978e-07
-6.81712e-08
-2.28342e-07
-8.56744e-08
-2.23661e-07
-1.0271e-07
-2.18945e-07
-1.19282e-07
-2.14204e-07
-1.35397e-07
-2.0945e-07
-1.51062e-07
-2.04696e-07
-1.66287e-07
-1.99955e-07
-1.81084e-07
-1.95239e-07
-1.95467e-07
-1.90564e-07
-2.09451e-07
-1.8594e-07
-2.23052e-07
-1.8138e-07
-2.36289e-07
-1.76896e-07
-2.49181e-07
-1.72498e-07
-2.61748e-07
-1.68196e-07
-2.74013e-07
-1.64003e-07
-2.85998e-07
-1.59929e-07
-2.97725e-07
-1.55992e-07
-3.09218e-07
-1.52212e-07
-3.20501e-07
-1.4862e-07
-3.3159e-07
-1.45281e-07
-3.42522e-07
-1.42273e-07
-3.53315e-07
-1.39643e-07
-3.63995e-07
-1.37633e-07
-3.74588e-07
-1.36577e-07
-3.85114e-07
-1.37097e-07
-3.95793e-07
-1.40135e-07
-4.0682e-07
-1.44923e-07
-4.18337e-07
-1.511e-07
-4.30463e-07
-1.58504e-07
-4.43303e-07
-1.67092e-07
-4.56955e-07
-1.76905e-07
-4.71515e-07
-1.88063e-07
-4.87085e-07
-2.00749e-07
-5.03778e-07
-2.15212e-07
-5.21718e-07
-2.31766e-07
-5.41054e-07
-2.50853e-07
-5.61993e-07
-2.72856e-07
-5.84815e-07
-2.97859e-07
-6.09872e-07
-3.25304e-07
-6.37548e-07
-3.5358e-07
-6.68128e-07
-3.79788e-07
-7.01573e-07
-4.00281e-07
-7.37343e-07
-4.12185e-07
-7.74488e-07
-4.14816e-07
-8.11976e-07
-4.09571e-07
-8.4896e-07
-3.98659e-07
-8.84857e-07
-3.84009e-07
-9.19292e-07
-3.66949e-07
-9.52031e-07
-3.48268e-07
-9.82917e-07
-3.28394e-07
-1.01184e-06
-3.0756e-07
-1.0387e-06
-2.85902e-07
-1.06343e-06
-2.63514e-07
-1.08597e-06
-2.40467e-07
-1.10627e-06
-2.16822e-07
-1.12429e-06
-1.92639e-07
-1.13997e-06
-1.67978e-07
-1.15331e-06
-1.42895e-07
-1.16425e-06
-1.17448e-07
-1.17279e-06
-9.16941e-08
-1.17891e-06
-6.56919e-08
-1.18259e-06
-3.95016e-08
-1.31877e-08
6.57556e-07
-1.04366e-08
6.54637e-07
-3.11982e-08
6.49791e-07
-5.17852e-08
6.43044e-07
-7.21351e-08
6.34421e-07
-9.2186e-08
6.23959e-07
-1.11875e-07
6.11697e-07
-1.31135e-07
5.97683e-07
-1.49895e-07
5.81972e-07
-1.68073e-07
5.64632e-07
-1.8557e-07
5.4574e-07
-2.02265e-07
5.25393e-07
-2.17998e-07
5.03706e-07
-2.32569e-07
4.80821e-07
-2.45726e-07
4.56908e-07
-2.5718e-07
4.32166e-07
-2.66631e-07
4.06815e-07
-2.73824e-07
3.81088e-07
-2.78616e-07
3.55207e-07
-2.81038e-07
3.2937e-07
-2.8131e-07
3.03737e-07
-2.79811e-07
2.78423e-07
-2.76991e-07
2.53503e-07
-2.73295e-07
2.2902e-07
-2.69097e-07
2.0499e-07
-2.64668e-07
1.81422e-07
-2.60188e-07
1.58312e-07
-2.55754e-07
1.35656e-07
-2.51408e-07
1.13446e-07
-2.47155e-07
9.16799e-08
-2.4298e-07
7.03541e-08
-2.38861e-07
4.94679e-08
-2.34773e-07
2.90211e-08
-2.30697e-07
9.01417e-09
-2.26619e-07
-1.05527e-08
-2.22533e-07
-2.96796e-08
-2.18436e-07
-4.83642e-08
-2.14293e-07
-6.66051e-08
-2.10101e-07
-8.44025e-08
-2.05864e-07
-1.01757e-07
-2.0159e-07
-1.18673e-07
-1.97289e-07
-1.35152e-07
-1.9297e-07
-1.51203e-07
-1.88645e-07
-1.66833e-07
-1.84325e-07
-1.82051e-07
-1.80022e-07
-1.96868e-07
-1.75747e-07
-2.11296e-07
-1.71512e-07
-2.2535e-07
-1.67327e-07
-2.39043e-07
-1.63202e-07
-2.52393e-07
-1.59148e-07
-2.65416e-07
-1.55173e-07
-2.7813e-07
-1.51289e-07
-2.90554e-07
-1.47506e-07
-3.02705e-07
-1.4384e-07
-3.14605e-07
-1.40312e-07
-3.26272e-07
-1.36953e-07
-3.37722e-07
-1.33831e-07
-3.48987e-07
-1.31008e-07
-3.60087e-07
-1.28543e-07
-3.71049e-07
-1.26671e-07
-3.81899e-07
-1.25728e-07
-3.92665e-07
-1.26332e-07
-4.03609e-07
-1.2919e-07
-4.14911e-07
-1.33622e-07
-4.267e-07
-1.39311e-07
-4.39088e-07
-1.46117e-07
-4.52174e-07
-1.54006e-07
-4.66053e-07
-1.63026e-07
-4.80825e-07
-1.73291e-07
-4.96595e-07
-1.84979e-07
-5.13484e-07
-1.98323e-07
-5.31626e-07
-2.13624e-07
-5.51186e-07
-2.31292e-07
-5.72386e-07
-2.51656e-07
-5.95507e-07
-2.74738e-07
-6.20879e-07
-2.99932e-07
-6.48824e-07
-3.25635e-07
-6.79526e-07
-3.49086e-07
-7.12835e-07
-3.66973e-07
-7.48149e-07
-3.76871e-07
-7.84555e-07
-3.7841e-07
-8.21117e-07
-3.73009e-07
-8.57094e-07
-3.62682e-07
-8.91978e-07
-3.49125e-07
-9.25441e-07
-3.33486e-07
-9.57273e-07
-3.16436e-07
-9.87329e-07
-2.98338e-07
-1.0155e-06
-2.7939e-07
-1.04169e-06
-2.59707e-07
-1.06584e-06
-2.39368e-07
-1.08787e-06
-2.18434e-07
-1.10774e-06
-1.96959e-07
-1.12538e-06
-1.74996e-07
-1.14076e-06
-1.52597e-07
-1.15384e-06
-1.29814e-07
-1.16459e-06
-1.06698e-07
-1.17298e-06
-8.33018e-08
-1.179e-06
-5.96787e-08
-1.18261e-06
-3.58845e-08
-1.19792e-08
6.57563e-07
-9.46574e-09
6.54661e-07
-2.82967e-08
6.49846e-07
-4.69702e-08
6.43141e-07
-6.54296e-08
6.34573e-07
-8.36185e-08
6.24179e-07
-1.0148e-07
6.11998e-07
-1.18954e-07
5.98079e-07
-1.35976e-07
5.82478e-07
-1.52472e-07
5.6526e-07
-1.68353e-07
5.46505e-07
-1.83509e-07
5.26305e-07
-1.97799e-07
5.04775e-07
-2.11038e-07
4.82052e-07
-2.23003e-07
4.58302e-07
-2.33431e-07
4.3372e-07
-2.42049e-07
4.08521e-07
-2.48625e-07
3.82933e-07
-2.53028e-07
3.57175e-07
-2.55281e-07
3.31446e-07
-2.55581e-07
3.05903e-07
-2.54267e-07
2.80662e-07
-2.5175e-07
2.55799e-07
-2.48433e-07
2.31358e-07
-2.44655e-07
2.07356e-07
-2.40667e-07
1.838e-07
-2.36632e-07
1.60685e-07
-2.3264e-07
1.38006e-07
-2.28729e-07
1.15756e-07
-2.24905e-07
9.39296e-08
-2.21154e-07
7.25229e-08
-2.17454e-07
5.15344e-08
-2.13784e-07
3.09636e-08
-2.10126e-07
1.08104e-08
-2.06466e-07
-8.92491e-09
-2.02798e-07
-2.82423e-08
-1.99118e-07
-4.71394e-08
-1.95396e-07
-6.56141e-08
-1.91626e-07
-8.36654e-08
-1.87812e-07
-1.01293e-07
-1.83962e-07
-1.185e-07
-1.80083e-07
-1.35287e-07
-1.76183e-07
-1.5166e-07
-1.72272e-07
-1.67625e-07
-1.6836e-07
-1.83188e-07
-1.64458e-07
-1.98359e-07
-1.60576e-07
-2.13147e-07
-1.56724e-07
-2.27563e-07
-1.52911e-07
-2.41619e-07
-1.49146e-07
-2.55329e-07
-1.45438e-07
-2.68707e-07
-1.41795e-07
-2.81767e-07
-1.38229e-07
-2.94524e-07
-1.34748e-07
-3.06995e-07
-1.31369e-07
-3.19197e-07
-1.28111e-07
-3.31146e-07
-1.25003e-07
-3.42858e-07
-1.22119e-07
-3.54363e-07
-1.19503e-07
-3.65682e-07
-1.17223e-07
-3.76847e-07
-1.15506e-07
-3.87889e-07
-1.14686e-07
-3.98865e-07
-1.15356e-07
-4.10032e-07
-1.18022e-07
-4.21561e-07
-1.22093e-07
-4.33579e-07
-1.27294e-07
-4.4619e-07
-1.33505e-07
-4.59495e-07
-1.40702e-07
-4.73587e-07
-1.48933e-07
-4.88569e-07
-1.5831e-07
-5.04551e-07
-1.68997e-07
-5.2166e-07
-1.81214e-07
-5.40042e-07
-1.95242e-07
-5.59876e-07
-2.11459e-07
-5.81392e-07
-2.30139e-07
-6.04873e-07
-2.51257e-07
-6.30623e-07
-2.74182e-07
-6.58907e-07
-2.97351e-07
-6.89814e-07
-3.18179e-07
-7.23094e-07
-3.33693e-07
-7.58096e-07
-3.41869e-07
-7.93935e-07
-3.42572e-07
-8.29754e-07
-3.37189e-07
-8.64897e-07
-3.27539e-07
-8.98918e-07
-3.15103e-07
-9.31532e-07
-3.00872e-07
-9.62551e-07
-2.85417e-07
-9.91843e-07
-2.69046e-07
-1.01931e-06
-2.51925e-07
-1.04486e-06
-2.34154e-07
-1.06843e-06
-2.158e-07
-1.08995e-06
-1.96916e-07
-1.10936e-06
-1.77549e-07
-1.12661e-06
-1.57745e-07
-1.14166e-06
-1.3755e-07
-1.15446e-06
-1.17011e-07
-1.16498e-06
-9.61722e-08
-1.1732e-06
-7.5082e-08
-1.17909e-06
-5.37882e-08
-1.18264e-06
-3.23412e-08
-1.07958e-08
6.57569e-07
-8.50107e-09
6.54686e-07
-2.54136e-08
6.49901e-07
-4.21855e-08
6.43238e-07
-5.87661e-08
6.34724e-07
-7.51048e-08
6.24395e-07
-9.11506e-08
6.12291e-07
-1.0685e-07
5.9846e-07
-1.22145e-07
5.82958e-07
-1.36969e-07
5.65849e-07
-1.51245e-07
5.47212e-07
-1.64872e-07
5.27138e-07
-1.77724e-07
5.05738e-07
-1.89639e-07
4.83148e-07
-2.00413e-07
4.5953e-07
-2.09813e-07
4.35074e-07
-2.17593e-07
4.09992e-07
-2.23544e-07
3.84508e-07
-2.27544e-07
3.58841e-07
-2.29613e-07
3.33185e-07
-2.29925e-07
3.077e-07
-2.28783e-07
2.82503e-07
-2.26553e-07
2.57671e-07
-2.236e-07
2.33246e-07
-2.20231e-07
2.0925e-07
-2.1667e-07
1.85686e-07
-2.13067e-07
1.6255e-07
-2.09504e-07
1.39835e-07
-2.06015e-07
1.17535e-07
-2.02604e-07
9.56426e-08
-1.99261e-07
7.41538e-08
-1.95965e-07
5.30663e-08
-1.92697e-07
3.23793e-08
-1.89439e-07
1.20926e-08
-1.86179e-07
-7.79361e-09
-1.82912e-07
-2.72791e-08
-1.79633e-07
-4.63611e-08
-1.76314e-07
-6.5037e-08
-1.7295e-07
-8.33046e-08
-1.69545e-07
-1.01163e-07
-1.66103e-07
-1.18613e-07
-1.62632e-07
-1.35657e-07
-1.59139e-07
-1.52295e-07
-1.55633e-07
-1.68534e-07
-1.52122e-07
-1.84378e-07
-1.48614e-07
-1.99834e-07
-1.4512e-07
-2.14909e-07
-1.41648e-07
-2.29613e-07
-1.38207e-07
-2.43955e-07
-1.34804e-07
-2.57946e-07
-1.31447e-07
-2.71597e-07
-1.28144e-07
-2.84921e-07
-1.24905e-07
-2.9793e-07
-1.21739e-07
-3.10639e-07
-1.1866e-07
-3.23062e-07
-1.15688e-07
-3.35216e-07
-1.1285e-07
-3.47117e-07
-1.10218e-07
-3.58792e-07
-1.07827e-07
-3.70267e-07
-1.05749e-07
-3.81577e-07
-1.04196e-07
-3.92764e-07
-1.03499e-07
-4.03913e-07
-1.04207e-07
-4.15268e-07
-1.06667e-07
-4.26991e-07
-1.1037e-07
-4.39206e-07
-1.15079e-07
-4.52016e-07
-1.20694e-07
-4.65519e-07
-1.27198e-07
-4.79813e-07
-1.3464e-07
-4.95001e-07
-1.43122e-07
-5.11199e-07
-1.52799e-07
-5.28541e-07
-1.63871e-07
-5.47182e-07
-1.76601e-07
-5.67313e-07
-1.91327e-07
-5.89173e-07
-2.0828e-07
-6.13037e-07
-2.27393e-07
-6.39183e-07
-2.48036e-07
-6.67815e-07
-2.68719e-07
-6.98937e-07
-2.87057e-07
-7.32212e-07
-3.00418e-07
-7.66957e-07
-3.07124e-07
-8.02319e-07
-3.0721e-07
-8.37512e-07
-3.01995e-07
-8.71951e-07
-2.931e-07
-9.05242e-07
-2.81813e-07
-9.3713e-07
-2.68984e-07
-9.67449e-07
-2.55099e-07
-9.96077e-07
-2.40418e-07
-1.02292e-06
-2.25083e-07
-1.0479e-06
-2.09178e-07
-1.07093e-06
-1.92761e-07
-1.09197e-06
-1.75876e-07
-1.11096e-06
-1.58566e-07
-1.12783e-06
-1.4087e-07
-1.14255e-06
-1.22828e-07
-1.15508e-06
-1.04482e-07
-1.16538e-06
-8.58705e-08
-1.17343e-06
-6.70365e-08
-1.1792e-06
-4.80226e-08
-1.18266e-06
-2.88733e-08
-9.63765e-09
6.57575e-07
-7.54236e-09
6.54709e-07
-2.2548e-08
6.49954e-07
-3.74296e-08
6.4333e-07
-5.21422e-08
6.34866e-07
-6.66413e-08
6.24597e-07
-8.08816e-08
6.12563e-07
-9.48159e-08
5.98811e-07
-1.08393e-07
5.83397e-07
-1.21555e-07
5.66384e-07
-1.34232e-07
5.47848e-07
-1.46336e-07
5.27879e-07
-1.57756e-07
5.06588e-07
-1.68347e-07
4.84106e-07
-1.77931e-07
4.60592e-07
-1.86299e-07
4.36234e-07
-1.93235e-07
4.11241e-07
-1.9855e-07
3.85833e-07
-2.02137e-07
3.60228e-07
-2.04008e-07
3.34622e-07
-2.04318e-07
3.09172e-07
-2.03333e-07
2.83998e-07
-2.0138e-07
2.59178e-07
-1.9878e-07
2.34755e-07
-1.95807e-07
2.10749e-07
-1.92665e-07
1.87165e-07
-1.89483e-07
1.63999e-07
-1.86338e-07
1.41243e-07
-1.83259e-07
1.18889e-07
-1.80251e-07
9.69311e-08
-1.77303e-07
7.53636e-08
-1.74398e-07
5.41842e-08
-1.71518e-07
3.33918e-08
-1.68646e-07
1.29862e-08
-1.65773e-07
-7.03234e-09
-1.62893e-07
-2.66634e-08
-1.60002e-07
-4.59038e-08
-1.57074e-07
-6.47501e-08
-1.54104e-07
-8.31997e-08
-1.51095e-07
-1.01251e-07
-1.48052e-07
-1.18903e-07
-1.4498e-07
-1.36156e-07
-1.41886e-07
-1.53012e-07
-1.38777e-07
-1.69473e-07
-1.35661e-07
-1.85542e-07
-1.32545e-07
-2.01226e-07
-1.29437e-07
-2.16529e-07
-1.26345e-07
-2.3146e-07
-1.23277e-07
-2.46025e-07
-1.20239e-07
-2.60233e-07
-1.17239e-07
-2.74094e-07
-1.14283e-07
-2.87618e-07
-1.11381e-07
-3.00817e-07
-1.08541e-07
-3.13702e-07
-1.05775e-07
-3.26287e-07
-1.03102e-07
-3.38589e-07
-1.00548e-07
-3.50626e-07
-9.81823e-08
-3.62424e-07