/*--------------------------------*- C++ -*----------------------------------*\
  =========                 |
  \\      /  F ield         | OpenFOAM: The Open Source CFD Toolbox
   \\    /   O peration     | Website:  https://openfoam.org
    \\  /    A nd           | Version:  8
     \\/     M anipulation  |
\*---------------------------------------------------------------------------*/
FoamFile
{
    version     2.0;
    format      ascii;
    class       volScalarField;
    location    "0.5/fluid";
    object      Qdot;
}
// * * * * * * * * * * * * * * * * * * * * * * * * * * * * * * * * * * * * * //

dimensions      [1 -1 -3 0 0 0 0];

internalField   nonuniform List<scalar> 
4000
(
-2.17407e-06
0
-2.17407e-06
-2.17407e-06
0
-2.29261e-20
0
-2.17485e-06
0
-2.17407e-06
-3.12082e-09
-2.17407e-06
-6.24164e-09
1.6354e-13
-1.24831e-08
-2.19904e-06
-2.49662e-08
-4.99331e-08
-2.17407e-06
-1.08704e-06
-1.38334e-13
9.98662e-07
1.17406e-05
0.000120864
0.00103023
0.00712646
0.0406253
0.193558
0.784342
2.74804
8.4456
23.09
56.8549
127.462
262.719
502.761
902.559
1533.7
2490.48
3904.63
5976.32
9032.92
13635
20764.9
32162
50911.1
82436.1
136069
227378
381343
637145
1.056e+06
1.73397e+06
2.82214e+06
4.55763e+06
7.31141e+06
1.16638e+07
1.84303e+07
2.89575e+07
4.59819e+07
7.30307e+07
1.16538e+08
1.50726e+08
8.98553e+07
5.31063e+07
3.08379e+07
1.74632e+07
9.5777e+06
5.05111e+06
2.54494e+06
1.2168e+06
551358
245004
79024.7
12439.7
742.571
20.5975
0.298803
0.00288265
2.93981e-05
5.24005e-07
1.58147e-08
-6.49278e-09
-5.24818e-11
-8.76479e-10
-6.0095e-12
-1.77454e-10
-8.85367e-11
-4.39373e-13
-1.11248e-11
-6.23314e-12
-3.32188e-14
4.04853e-11
4.14405e-11
-2.3609e-15
4.18654e-11
4.18397e-11
-1.08285e-14
-5.38976e-15
4.18649e-11
0
-2.17407e-06
-4.87628e-11
-1.1463e-20
-2.17416e-06
0
-2.17446e-06
0
-1.83409e-19
-2.17563e-06
-2.17719e-06
-2.17407e-06
8.17695e-14
-5.60009e-09
-1.24833e-08
0
-5.86908e-18
6.54121e-13
6.53645e-13
-7.66501e-15
9.98675e-08
-2.88106e-07
8.71133e-06
0.000103974
0.000892988
0.00627746
0.0363524
0.176022
0.723958
2.56741
7.98163
22.0547
54.8352
124.019
257.65
496.513
896.872
1532.4
2500.43
3937.01
6048.86
9174.34
13893.8
21226.5
32981.5
52373.5
85061
140666
235463
395371
661046
1.09605e+06
1.80025e+06
2.93081e+06
4.73457e+06
7.59784e+06
1.21254e+07
1.91449e+07
3.00993e+07
4.78338e+07
7.60449e+07
1.21485e+08
1.46593e+08
8.72833e+07
5.14868e+07
2.98186e+07
1.68286e+07
9.19008e+06
4.82059e+06
2.41319e+06
1.1451e+06
515446
227757
64871.2
8893.32
453.527
10.9745
0.14315
0.00134063
1.48024e-05
3.08504e-07
1.77421e-08
-2.03966e-10
-4.6197e-11
-1.57525e-09
-1.18235e-11
-2.23585e-10
-1.60335e-10
-5.42009e-11
-1.36256e-11
-1.29533e-11
-6.18682e-12
4.18528e-11
-6.92172e-12
4.1864e-11
-9.45153e-16
-4.79976e-14
-6.17813e-12
4.1863e-11
3.57122e-11
-1.68043e-12
-2.17407e-06
-4.87622e-11
-4.3752e-11
-1.95049e-10
2.5553e-15
-2.17429e-06
0
-2.17493e-06
-7.00032e-10
-2.17719e-06
-2.17407e-06
-2.80013e-09
0
-2.17407e-06
3.27081e-13
-5.86908e-18
-4.99325e-08
-2.224e-06
-9.98663e-08
-9.8717e-07
7.43864e-07
7.11347e-06
8.97717e-05
0.000780424
0.00554102
0.032481
0.159324
0.662928
2.3807
7.49098
20.9375
52.6229
120.227
252.138
490.098
892.303
1535.65
2522.27
3995.27
6172.23
9409.75
14320.8
21985.1
34324.6
54754.5
89217.1
148244
248931
418778
700888
1.16271e+06
1.91037e+06
3.11109e+06
5.02773e+06
8.07232e+06
1.28913e+07
2.03266e+07
3.20042e+07
5.09091e+07
8.1026e+07
1.29611e+08
1.39666e+08
8.30127e+07
4.88216e+07
2.81592e+07
1.58085e+07
8.57636e+06
4.46269e+06
2.21298e+06
1.03891e+06
463987
200273
50348.4
5584.81
245.292
5.31214
0.0654945
0.000635
7.97417e-06
1.80562e-07
1.12546e-08
-3.57705e-09
-1.76196e-09
-1.5802e-09
-1.14672e-11
-8.36926e-12
-9.47589e-13
4.14574e-11
3.55365e-11
3.50701e-11
-6.18568e-12
-1.31293e-14
-7.67376e-13
-2.12299e-13
-9.15493e-16
4.18184e-11
-2.39499e-14
-6.15689e-12
4.18655e-11
0
-2.17407e-06
-2.68868e-11
-2.17407e-06
0
-1.95051e-10
-2.17446e-06
-2.17407e-06
0
-1.56041e-09
-2.17579e-06
0
-2.17751e-06
-1.24833e-08
-2.17967e-06
-2.93454e-18
-2.49662e-08
-3.52145e-17
-2.224e-06
-1.08704e-06
-5.50643e-08
5.99196e-07
7.00212e-06
7.883e-05
0.000690165
0.00495592
0.0293834
0.145614
0.612973
2.22645
7.08292
20.0065
50.7915
117.159
247.946
486.045
891.937
1546.38
2557.37
4076.82
6336.12
9715.13
14868.6
22953.6
36028
57728.7
94669.1
157929
265959
448148
750519
1.2451e+06
2.04527e+06
3.32961e+06
5.37841e+06
8.63043e+06
1.37729e+07
2.16631e+07
3.44359e+07
5.46754e+07
8.70468e+07
1.39291e+08
1.31188e+08
7.78376e+07
4.56277e+07
2.61943e+07
1.46165e+07
7.86957e+06
4.05811e+06
1.99102e+06
923968
410336
168926
36726
3307.17
126.292
2.45636
0.0287149
0.00028851
4.06126e-06
1.38033e-07
5.99751e-09
-3.58554e-09
-3.15629e-09
-1.2181e-11
-7.91186e-10
-3.56427e-10
-1.08426e-10
-7.27509e-12
-6.31742e-12
-6.97278e-14
-2.95489e-14
-1.23384e-14
-5.141e-15
-2.11967e-15
-8.66061e-16
-6.15452e-12
4.18662e-11
-6.15689e-12
-8.28461e-16
-2.17408e-06
0
0
0
-2.17418e-06
-1.95049e-10
5.11064e-15
-9.17043e-20
-2.17563e-06
2.04424e-14
0
-7.33635e-19
-2.17407e-06
-1.46727e-18
-1.24831e-08
3.27078e-13
-2.49666e-08
6.54133e-13
-4.99331e-08
-1.1869e-06
1.22873e-12
-5.87706e-07
6.15838e-06
7.0874e-05
0.000622497
0.00450948
0.0269729
0.135044
0.574282
2.10677
6.76717
19.2936
49.4225
114.986
245.358
484.721
896.041
1564.28
2603.92
4176.72
6529.77
10069.5
15498.7
24055.9
37944.9
61226.9
100889
168965
285300
481380
806471
1.3377e+06
2.19659e+06
3.57443e+06
5.77136e+06
9.25715e+06
1.47681e+07
2.32189e+07
3.69249e+07
5.86347e+07
9.34031e+07
1.49341e+08
1.22365e+08
7.24667e+07
4.23321e+07
2.41835e+07
1.34093e+07
7.16251e+06
3.65926e+06
1.7759e+06
814963
361238
136461
25850.9
1933.54
65.2235
1.15742
0.01309
0.000138841
2.23609e-06
9.22327e-08
-6.43123e-10
-1.13646e-10
-1.43104e-09
-8.71328e-10
-4.40588e-12
-1.87088e-12
-2.69758e-12
-3.52309e-13
-2.45335e-11
2.89256e-11
-6.12288e-12
-1.53539e-12
-7.6672e-13
4.14834e-11
-8.08719e-16
4.18184e-11
-1.24323e-16
-6.1575e-12
-8.28044e-16
-3.04768e-12
-2.17407e-06
0
-2.17417e-06
-1.07547e-10
-1.95049e-10
-3.90103e-10
-3.50006e-10
-1.56039e-09
0
0
-2.17407e-06
-6.24164e-09
-2.17407e-06
-2.17407e-06
3.27081e-13
3.27078e-13
-4.99325e-08
6.53816e-13
-1.13184e-06
-1.08704e-06
4.9933e-07
4.41709e-06
6.38834e-05
0.000571098
0.0041693
0.0251519
0.127041
0.545029
2.01681
6.53289
18.7776
48.4792
113.646
244.262
485.891
904.091
1588.2
2659.46
4290.11
6744.01
10456.4
16176.6
25231.7
40074.6
64994.9
107593
180847
306059
516916
866073
1.436e+06
2.35666e+06
3.83248e+06
6.18389e+06
9.91205e+06
1.57889e+07
2.48061e+07
3.94356e+07
6.26099e+07
9.97531e+07
1.58995e+08
1.13849e+08
6.73145e+07
3.91957e+07
2.22875e+07
1.22828e+07
6.51065e+06
3.29646e+06
1.58323e+06
719155
318398
109886
17826.5
1140.37
34.4702
0.564565
0.00624054
7.01267e-05
1.2772e-06
1.98695e-08
-1.29618e-08
-1.00233e-10
-3.14781e-09
-1.59378e-11
-7.84206e-10
-1.61052e-10
-7.45113e-13
-3.23962e-13
-1.40215e-13
-5.99836e-14
3.43194e-11
3.48613e-11
-3.46266e-13
-3.82798e-13
-7.53354e-16
-3.01045e-16
-6.15429e-12
4.18637e-11
3.57122e-11
-2.17408e-06
1.59708e-16
-2.17409e-06
1.27766e-15
-2.17407e-06
-2.17427e-06
5.11064e-15
-2.17407e-06
-2.17407e-06
-1.83409e-19
-2.17719e-06
-3.44151e-09
-2.17407e-06
0
-1.46727e-18
-2.17407e-06
-2.17407e-06
-4.99331e-08
-2.75321e-08
-1.08704e-06
-1.08704e-06
3.99464e-07
5.99196e-06
5.98324e-05
0.000531017
0.00390541
0.0237527
0.120942
0.522952
1.94992
6.36285
18.4189
47.8787
112.977
244.362
489.022
915.143
1616.46
2721.08
4411.91
6970.15
10857.5
16875
26489.7
42284
68913.1
114571
193208
327615
553724
927668
1.5374e+06
2.52151e+06
4.09786e+06
6.60752e+06
1.05835e+07
1.68278e+07
2.64155e+07
4.19734e+07
6.66148e+07
1.06116e+08
1.67367e+08
1.06211e+08
6.2722e+07
3.6418e+07
2.06198e+07
1.12995e+07
5.9465e+06
2.98563e+06
1.4202e+06
639712
282862
83556.9
12418.8
693.083
18.9623
0.289734
0.00316336
3.78743e-05
7.75049e-07
4.63644e-08
-3.91217e-10
-6.32108e-09
-2.37788e-11
-8.7536e-10
-9.79875e-12
-1.96618e-10
-9.821e-11
-2.98652e-13
-1.29585e-13
-5.54279e-14
-2.36011e-14
-1.53374e-12
-7.66048e-13
-1.72615e-13
-6.99967e-16
-2.79789e-16
3.56883e-11
-2.70637e-15
-6.155e-12
-2.17407e-06
-2.43814e-11
-2.18754e-11
-4.3752e-11
-2.17407e-06
2.55532e-15
-2.17407e-06
-7.80205e-10
-1.56041e-09
-8.60378e-10
-1.40006e-09
-6.24164e-09
-2.80013e-09
1.6354e-13
-2.17407e-06
0
-1.12002e-08
-2.34763e-17
-2.22401e-06
-1.08704e-06
-1.08704e-06
-6.87572e-07
4.50546e-06
5.5583e-05
0.000500524
0.00370329
0.0226901
0.116335
0.50649
1.90109
6.24315
18.1834
47.5451
112.826
245.363
493.576
928.245
1647.42
2785.96
4537.38
7198.27
11259.9
17599.8
27754.9
44512.6
72875
121637
205730
349437
590955
989946
1.63996e+06
2.68848e+06
4.36718e+06
7.0387e+06
1.12697e+07
1.78897e+07
2.80809e+07
4.46323e+07
7.08748e+07
1.13017e+08
1.67002e+08
1.0025e+08
5.9072e+07
3.41827e+07
1.92672e+07
1.04986e+07
5.48674e+06
2.73294e+06
1.28841e+06
576093
251918
67971.2
8635.76
431.643
10.8529
0.156742
0.00170654
2.17423e-05
5.01679e-07
3.48628e-08
-3.20786e-10
-6.30974e-09
-3.14198e-09
-8.01806e-12
-3.34491e-12
-1.96497e-10
-5.6293e-11
-2.7638e-13
-1.19967e-13
-3.41223e-12
4.18445e-11
-9.19052e-15
-6.15801e-12
4.17597e-11
-6.25006e-12
3.56643e-11
3.57068e-11
3.57089e-11
-7.50272e-16
-2.17407e-06
0
-2.17407e-06
-9.75256e-11
0
0
0
-2.17407e-06
-2.17407e-06
-7.00012e-10
-2.17407e-06
-2.80009e-09
-2.18031e-06
0
-1.24831e-08
3.27081e-13
-2.93454e-18
-2.17407e-06
6.5388e-13
-1.13697e-06
-1.13184e-06
-6.87571e-07
5.2929e-06
5.22874e-05
0.000476732
0.00354894
0.0218759
0.112859
0.4943
1.86601
6.16172
18.0407
47.4101
113.049
246.987
499.042
942.491
1679.52
2851.47
4661.08
7421.71
11665.8
18307.3
28992.4
46697.1
76766.4
128587
218045
370882
627512
1.05106e+06
1.74061e+06
2.85241e+06
4.63189e+06
7.46312e+06
1.19465e+07
1.8933e+07
2.9737e+07
4.72991e+07
7.51854e+07
1.20067e+08
1.61326e+08
9.57036e+07
5.62399e+07
3.24261e+07
1.81945e+07
9.85951e+06
5.11993e+06
2.53138e+06
1.18373e+06
526365
225639
55701.6
6156.61
280.042
6.53863
0.0901318
0.000984915
1.33844e-05
3.66982e-07
1.74085e-08
-2.60206e-10
-1.78024e-09
-1.57949e-09
-3.57354e-10
-3.08574e-12
4.0526e-11
-1.04267e-10
-2.56639e-13
-1.35545e-11
4.18185e-11
-7.85494e-12
-6.16275e-12
-4.23689e-13
-1.91963e-13
3.56591e-11
4.18399e-11
-9.39221e-17
4.18663e-11
-4.16084e-16
-2.17407e-06
-6.7217e-12
-4.87622e-11
-4.3752e-11
0
-2.17427e-06
-2.17407e-06
-7.80205e-10
-1.56041e-09
2.04424e-14
0
4.08851e-14
-2.17407e-06
-2.17407e-06
-2.17407e-06
0
-1.3766e-08
6.54138e-13
-2.75321e-08
6.50453e-13
-9.98663e-08
-7.87438e-07
3.90627e-06
5.08778e-05
0.000458734
0.00342998
0.0212592
0.110261
0.485405
1.84146
6.10918
17.967
47.4177
113.528
249.002
504.982
957.1
1711.39
2914.85
4779.67
7641.27
12051
18978.8
30167.7
48774.9
80472.2
135207
229771
391273
662214
1.10899e+06
1.83593e+06
3.00754e+06
4.88217e+06
7.864e+06
1.25849e+07
1.99092e+07
3.12873e+07
4.97935e+07
7.92126e+07
1.26636e+08
1.55286e+08
9.19644e+07
5.39135e+07
3.09847e+07
1.73155e+07
9.33686e+06
4.82096e+06
2.36787e+06
1.09946e+06
487174
202630
46221.4
4528.88
189.947
4.15709
0.0551409
0.000607268
8.77105e-06
2.2631e-07
1.78242e-08
-1.79205e-10
-1.45902e-09
-7.23583e-10
-7.86992e-10
-1.77875e-10
-8.87533e-11
-9.80744e-11
-2.71267e-11
-6.82573e-12
-3.40565e-12
-1.3863e-12
-8.48233e-13
3.52887e-11
-6.26059e-12
4.18658e-11
4.18399e-11
3.57068e-11
-2.69976e-15
-3.39285e-16
-3.04768e-12
-5.46884e-12
-2.1741e-06
0
1.27766e-15
-1.07547e-10
-2.17407e-06
-7.80195e-10
-2.17407e-06
2.04424e-14
-3.66817e-19
-2.17407e-06
-3.44151e-09
0
-1.46727e-18
-2.49662e-08
-2.18527e-06
-2.75321e-08
6.5391e-13
-1.11457e-06
-5.19648e-14
-7.87437e-07
3.70654e-06
4.88805e-05
0.000444241
0.00333901
0.0207916
0.108331
0.479008
1.82479
6.07794
17.9424
47.5224
114.166
251.213
511.039
971.429
1741.8
2974.46
4893.49
7844.39
12406.5
19597.6
31250.9
50690.5
83890.1
141313
240573
410026
694078
1.16212e+06
1.92328e+06
3.14963e+06
5.11137e+06
8.23116e+06
1.31699e+07
2.07986e+07
3.26836e+07
5.20284e+07
8.28091e+07
1.32482e+08
1.49991e+08
8.87323e+07
5.19167e+07
2.97558e+07
1.6571e+07
8.8971e+06
4.57114e+06
2.23225e+06
1.03017e+06
455324
184392
38783
3434.73
134.448
2.7833
0.035786
0.000398294
6.1248e-06
1.82112e-07
1.12268e-08
-3.6333e-09
-5.82084e-12
-7.22223e-10
-6.31726e-12
-2.68484e-12
-1.54357e-10
-9.8042e-11
-4.89891e-11
-6.25237e-12
4.18242e-11
4.18484e-11
-8.47774e-13
-1.7407e-13
-1.06336e-13
-5.36839e-16
-2.64722e-14
-6.1596e-12
4.18631e-11
-4.15482e-16
0
-2.17408e-06
-2.1741e-06
-2.17417e-06
-2.17412e-06
-1.95051e-10
0
-2.17407e-06
0
-2.17407e-06
-2.17719e-06
-6.24164e-09
-6.24156e-09
-2.17407e-06
-1.46727e-18
-2.18784e-06
-2.93454e-18
-2.17407e-06
-2.17407e-06
-2.75314e-08
-5.01219e-14
-6.8757e-07
4.69371e-06
4.74375e-05
0.000432058
0.00326964
0.0204409
0.106918
0.474512
1.81402
6.06211
17.9518
47.6882
114.886
253.471
516.933
984.966
1769.93
3030.55
4996.55
8027.35
12725.5
20151.6
32219
52400.8
86938.4
146750
250173
426651
722262
1.20902e+06
2.0003e+06
3.27482e+06
5.3132e+06
8.55427e+06
1.36843e+07
2.15734e+07
3.39084e+07
5.39896e+07
8.59619e+07
1.37581e+08
1.45339e+08
8.5902e+07
5.01765e+07
2.86911e+07
1.59303e+07
8.52143e+06
4.35939e+06
2.11828e+06
972621
429531
167499
33113.5
2692.17
99.2916
1.95934
0.0245628
0.000276704
4.42955e-06
1.60937e-07
4.51816e-09
-1.70145e-10
-1.80371e-12
-7.14967e-10
-4.36134e-10
-1.77543e-10
-6.67884e-11
-9.80146e-11
-1.3657e-11
2.95828e-11
4.18264e-11
-1.69574e-14
-6.90791e-13
-2.13051e-13
-8.66949e-14
-4.32347e-14
-1.33325e-14
-5.41991e-15
-2.63229e-17
4.18664e-11
-2.17408e-06
-2.86576e-21
-2.17407e-06
-2.17407e-06
-2.29261e-20
-2.29261e-20
-2.17446e-06
-2.17485e-06
0
2.04426e-14
4.08848e-14
-2.18031e-06
8.17702e-14
-1.46727e-18
-2.17407e-06
0
-2.19904e-06
6.54138e-13
-2.17407e-06
-4.99331e-08
-4.86429e-14
3.99466e-07
3.40694e-06
4.6284e-05
0.000425244
0.00321646
0.0201807
0.105896
0.471437
1.80753
6.05701
17.9831
47.8876
115.631
255.664
522.46
997.318
1796
3080.52
5087.69
8188.21
13004.6
20634.4
33059.9
53881.7
89569.1
151424
258389
440814
746161
1.24864e+06
2.06516e+06
3.38006e+06
5.48285e+06
8.8267e+06
1.41213e+07
2.22365e+07
3.49809e+07
5.57004e+07
8.87027e+07
1.41989e+08
1.41202e+08
8.33962e+07
4.86452e+07
2.77609e+07
1.53749e+07
8.19847e+06
4.17888e+06
2.022e+06
924499
408251
152950
28721.1
2174.43
76.2408
1.44472
0.0177511
0.000202481
3.42785e-06
1.02333e-07
5.97328e-09
-2.95362e-09
-1.44049e-09
-8.32572e-10
-3.55653e-10
-2.17508e-10
-7.2111e-12
-4.64683e-13
-1.36474e-11
4.17778e-11
-3.39901e-12
-9.21805e-12
4.18595e-11
-3.83815e-13
-1.06213e-13
-4.85429e-16
3.57013e-11
-5.41645e-15
-6.1542e-12
-6.15492e-12
-3.5822e-22
-1.21907e-11
6.38824e-16
-9.75244e-11
-2.17407e-06
2.5553e-15
-2.17407e-06
-7.80195e-10
0
-1.83409e-19
-2.17719e-06
0
-2.17407e-06
-2.17407e-06
-6.88286e-09
-2.19904e-06
-2.49662e-08
-2.17407e-06
-2.17407e-06
-4.99331e-08
-1.08704e-06
-6.87572e-07
3.30707e-06
4.53852e-05
0.000418253
0.00317638
0.0199882
0.105172
0.469408
1.80407
6.05902
18.0269
48.0995
116.359
257.727
527.544
1008.7
1818.99
3124.16
5166.71
8326.88
13244.1
21046.9
33775.6
55137.3
91789.4
155346
265235
452508
765688
1.2806e+06
2.11665e+06
3.46186e+06
5.61108e+06
9.02489e+06
1.44228e+07
2.26634e+07
3.60425e+07
5.72219e+07
9.10694e+07
1.45749e+08
1.37488e+08
8.11751e+07
4.73031e+07
2.69539e+07
1.48975e+07
7.92332e+06
4.02639e+06
1.94132e+06
884444
390293
142406
25234
1803.94
60.6726
1.1121
0.0134553
0.00015545
2.715e-06
1.0413e-07
4.7969e-09
-2.94105e-09
-3.78712e-11
-1.33472e-11
-1.15238e-11
-2.30823e-12
-1.01238e-12
-5.03526e-11
2.20734e-11
-6.80649e-12
3.90954e-11
3.43294e-11
-3.48361e-13
-2.7445e-15
-1.06164e-13
-6.15464e-12
-1.33157e-14
-6.63683e-15
-2.41602e-17
-6.15418e-12
-3.04768e-12
-1.21907e-11
-4.87622e-11
-9.75256e-11
-5.37736e-11
2.55532e-15
-4.58522e-20
0
-3.50016e-10
-2.17407e-06
-2.17407e-06
4.08851e-14
-3.44151e-09
-5.60026e-09
-2.18656e-06
-2.93454e-18
-2.93454e-18
-2.75321e-08
-2.17407e-06
-2.24004e-08
-9.9865e-08
3.99464e-07
4.49397e-06
4.45862e-05
0.000413948
0.00314877
0.0198481
0.10467
0.468133
1.80265
6.06521
18.0757
48.3053
117.028
259.559
531.945
1018.41
1838.64
3161.39
5233.91
8444.46
13446.7
21395.5
34380.2
56198.3
93667.4
158668
271043
462459
782381
1.30812e+06
2.16147e+06
3.53422e+06
5.7272e+06
9.21057e+06
1.47196e+07
2.31327e+07
3.68124e+07
5.84408e+07
9.30166e+07
1.48844e+08
1.34496e+08
7.93705e+07
4.62073e+07
2.62935e+07
1.45067e+07
7.69843e+06
3.90207e+06
1.8758e+06
852090
375895
133483
22590.1
1541.17
50.0782
0.893148
0.0106777
0.000124815
2.23612e-06
9.16109e-08
1.17585e-08
-1.31205e-10
-1.43599e-09
-1.27803e-11
-5.16719e-12
-3.92326e-10
-1.14679e-10
-4.91941e-11
2.82341e-11
-8.18763e-14
3.90966e-11
-6.16917e-12
-4.26434e-13
-2.64959e-15
4.17798e-11
4.18659e-11
4.18424e-11
-7.04416e-17
-1.66446e-15
-4.54935e-18
-3.04768e-12
-1.21907e-11
0
-9.75244e-11
-5.37736e-11
-1.95049e-10
5.11059e-15
-2.17407e-06
-2.17442e-06
-2.17407e-06
-2.17407e-06
0
-6.24156e-09
-2.17407e-06
-1.46727e-18
-2.93454e-18
0
-4.99331e-08
-2.23025e-16
-3.12235e-15
-1.08704e-06
2.99598e-07
4.29424e-06
4.41868e-05
0.000408666
0.00312629
0.01975
0.104332
0.467386
1.80253
6.07342
18.1242
48.4946
117.621
261.156
535.789
1026.68
1855.16
3192.45
5289.76
8541.94
13614.5
21684.3
34881.5
57079.4
95229.9
161438
275893
470786
796379
1.33126e+06
2.19923e+06
3.5953e+06
5.82529e+06
9.36715e+06
1.49685e+07
2.35215e+07
3.74277e+07
5.94166e+07
9.45805e+07
1.5132e+08
1.32138e+08
7.79456e+07
4.53409e+07
2.57709e+07
1.41975e+07
7.52059e+06
3.80391e+06
1.82418e+06
826732
364625
126195
20631.3
1355.9
42.8411
0.747362
0.00885208
0.000104481
1.96566e-06
7.87028e-08
4.93271e-09
-3.57168e-09
-1.75519e-09
-1.23106e-11
-3.55021e-10
3.9712e-11
-7.10379e-12
3.52941e-11
2.82397e-11
2.95961e-11
-3.39515e-12
-7.84918e-12
-6.15338e-15
-2.12624e-13
-6.15524e-12
-5.29513e-14
-1.08576e-14
4.18663e-11
4.18663e-11
-4.14709e-16
-1.36725e-12
-1.21905e-11
0
-2.17417e-06
0
-2.17416e-06
-2.17446e-06
-2.17407e-06
-4.30179e-10
-7.00012e-10
-3.66817e-19
0
-6.24156e-09
-1.24831e-08
-5.60009e-09
0
-2.49666e-08
-2.34763e-17
-2.23025e-16
6.51063e-13
1.26287e-12
-7.87438e-07
4.39411e-06
4.37425e-05
0.000407157
0.00311189
0.0196812
0.104112
0.466987
1.8031
6.08193
18.1679
48.6567
118.116
262.462
538.885
1033.34
1868.43
3217.33
5334.37
8619.7
13748.3
21914.4
35281.1
57782.1
96476.5
163647
279761
477418
807514
1.34963e+06
2.22916e+06
3.64358e+06
5.90252e+06
9.48989e+06
1.51625e+07
2.38227e+07
3.79043e+07
6.01727e+07
9.57932e+07
1.53227e+08
1.30323e+08
7.68499e+07
4.46754e+07
2.537e+07
1.39606e+07
7.38451e+06
3.72892e+06
1.78484e+06
807485
356163
120443
19221.5
1227.24
37.9345
0.650453
0.0076502
9.1051e-05
1.72205e-06
4.31541e-08
6.25079e-09
-1.18635e-10
2.4413e-12
-6.70136e-10
-3.99369e-10
-3.92212e-10
-1.95979e-10
-4.91718e-11
-2.45606e-11
-1.22685e-11
-3.35351e-14
-1.42366e-14
-6.01101e-15
-2.51118e-15
-1.91524e-13
-6.20711e-12
-1.08537e-14
-6.15424e-12
-6.1542e-12
3.57118e-11
0
0
-4.87622e-11
-1.1463e-20
-9.75244e-11
-8.75015e-11
-2.17429e-06
-9.17043e-20
1.02211e-14
2.04426e-14
0
-2.17407e-06
8.17702e-14
-1.24833e-08
-1.24833e-08
-2.17407e-06
-2.19904e-06
-2.17407e-06
-4.99331e-08
-1.08704e-06
-9.98663e-08
-7.87438e-07
4.29424e-06
4.34877e-05
0.000404072
0.00310179
0.0196364
0.103976
0.466801
1.80391
6.08946
18.2036
48.7857
118.504
263.482
541.255
1038.39
1878.43
3236.02
5367.81
8677.86
13848.2
22086.2
35579.4
58306.4
97405.9
165292
282638
482344
815768
1.36322e+06
2.25126e+06
3.67915e+06
5.95932e+06
9.57995e+06
1.53046e+07
2.40431e+07
3.82526e+07
6.0725e+07
9.66783e+07
1.54652e+08
1.28994e+08
7.60492e+07
4.41899e+07
2.5078e+07
1.37883e+07
7.28578e+06
3.67462e+06
1.75642e+06
793650
350049
116184
18249.4
1140.9
34.7021
0.58759
0.00687659
8.23726e-05
1.58529e-06
5.73586e-08
6.26478e-09
-1.14877e-10
-1.43253e-09
-8.78276e-10
-3.93125e-10
-1.77085e-10
-1.08458e-10
-2.72877e-11
-1.76154e-13
-1.22671e-11
-3.29657e-14
-1.39835e-14
4.18604e-11
-6.15665e-12
-1.02622e-15
4.18659e-11
-6.17815e-12
-5.40681e-15
-6.15584e-12
-3.38127e-16
-3.04764e-12
-2.17407e-06
-4.87628e-11
0
1.27766e-15
0
-3.90097e-10
-2.17485e-06
-2.17485e-06
0
-2.17719e-06
4.08851e-14
-6.24164e-09
-2.17407e-06
0
-2.93454e-18
-2.19904e-06
-4.99331e-08
-4.99331e-08
-2.75321e-08
-9.9865e-08
2.99598e-07
3.1624e-06
4.3288e-05
0.000403961
0.00309489
0.0196101
0.103898
0.46673
1.80462
6.09497
18.2287
48.874
118.767
264.165
542.844
1041.77
1885.11
3248.48
5390.06
8716.52
13914.6
22200.2
35777.2
58653.8
98021.4
166381
284539
485594
821209
1.37217e+06
2.26579e+06
3.70253e+06
5.99661e+06
9.63905e+06
1.53978e+07
2.41876e+07
3.84811e+07
6.10875e+07
9.72599e+07
1.55557e+08
1.28126e+08
7.55258e+07
4.38728e+07
2.48875e+07
1.36761e+07
7.2215e+06
3.63932e+06
1.73798e+06
784708
346069
113370
17640.3
1087.85
32.7437
0.549965
0.00641699
7.72112e-05
1.507e-06
5.50274e-08
6.30372e-09
-1.1248e-10
-1.39633e-09
-6.69764e-10
-4.34927e-10
-2.04906e-12
-9.01019e-13
1.45827e-11
-1.7413e-13
-7.56755e-14
-8.92126e-12
-1.38253e-14
-3.47665e-13
-2.12497e-13
4.17603e-11
-4.16223e-16
4.18662e-11
-6.62941e-15
-1.66273e-15
-4.28674e-18
0
-2.17408e-06
6.3883e-16
0
-9.75244e-11
-1.95051e-10
-3.90103e-10
-2.17485e-06
-4.30189e-10
-7.00012e-10
-3.12082e-09
-2.18031e-06
-6.24164e-09
0
0
3.27081e-13
3.27078e-13
-4.99325e-08
-2.17407e-06
-1.13697e-06
-1.08704e-06
2.99598e-07
4.19438e-06
4.31881e-05
0.000403451
0.0030916
0.0195978
0.103864
0.466711
1.80503
6.09782
18.2414
48.9184
118.898
264.503
543.627
1043.43
1888.4
3254.61
5401
8735.54
13947.2
22256.3
35874.5
58824.9
98324.4
166917
285475
487194
823886
1.37657e+06
2.27294e+06
3.71402e+06
6.01495e+06
9.66811e+06
1.54436e+07
2.42587e+07
3.85935e+07
6.12659e+07
9.7546e+07
1.56e+08
1.27699e+08
7.52688e+07
4.37172e+07
2.47941e+07
1.36211e+07
7.19006e+06
3.62208e+06
1.72899e+06
780351
344193
111985
17352
1063.16
31.8435
0.532864
0.00620975
7.48804e-05
1.44938e-06
5.51453e-08
1.1891e-08
-6.95118e-11
-3.17159e-11
-7.17703e-10
-3.5473e-10
3.98335e-11
-8.8399e-11
1.95945e-11
-6.32729e-12
3.56369e-11
-3.23962e-14
-9.21564e-12
-6.92191e-12
3.55389e-11
4.16749e-11
-4.13257e-16
-2.39761e-14
-6.1608e-12
-2.99781e-15
3.57119e-11
-3.5822e-22
-5.46884e-12
0
0
-9.75244e-11
-1.95051e-10
0
-2.17407e-06
-4.30189e-10
-1.56039e-09
4.08851e-14
-2.18031e-06
-6.24156e-09
0
-1.24831e-08
-2.18527e-06
-2.49666e-08
-2.17407e-06
-4.99325e-08
-2.75321e-08
-5.50642e-08
-7.87437e-07
4.19437e-06
4.3288e-05
0.000404649
0.0030928
0.0195978
0.103864
0.46671
1.80502
6.09782
18.2413
48.9183
118.898
264.503
543.627
1043.43
1888.4
3254.61
5401
8735.53
13947.2
22256.3
35874.5
58824.8
98324.3
166917
285475
487194
823886
1.37657e+06
2.27294e+06
3.71402e+06
6.01495e+06
9.66811e+06
1.54436e+07
2.42587e+07
3.85935e+07
6.12659e+07
9.75461e+07
1.56e+08
1.27699e+08
7.52687e+07
4.37172e+07
2.47941e+07
1.36211e+07
7.19005e+06
3.62207e+06
1.72898e+06
780350
344193
111985
17352
1063.15
31.8433
0.532862
0.00620975
7.48805e-05
1.4494e-06
4.39657e-08
1.1891e-08
-1.11378e-10
-1.39607e-09
-1.15168e-11
-4.71365e-12
3.98295e-11
-8.9697e-13
1.95955e-11
-1.36165e-11
3.0168e-11
-3.23962e-14
-1.38101e-12
-5.82119e-15
-2.43209e-15
4.16749e-11
-6.20221e-12
4.18662e-11
-6.16614e-12
-6.15584e-12
-3.3808e-16
-1.68043e-12
-5.46884e-12
0
0
-9.75244e-11
2.55532e-15
-4.58522e-20
1.02213e-14
1.02213e-14
-1.56039e-09
0
-2.17407e-06
-7.33635e-19
-1.46727e-18
-1.24831e-08
3.27081e-13
-2.93454e-18
-2.17407e-06
6.53939e-13
-3.05192e-15
-1.08704e-06
-7.87437e-07
3.2072e-06
4.23008e-05
0.000403961
0.00309609
0.0196112
0.103898
0.466728
1.80462
6.09496
18.2286
48.8739
118.766
264.164
542.843
1041.77
1885.11
3248.48
5390.05
8716.5
13914.5
22200.2
35777.1
58653.7
98021.2
166381
284539
485594
821208
1.37217e+06
2.26579e+06
3.70253e+06
5.99661e+06
9.63905e+06
1.53978e+07
2.41876e+07
3.84811e+07
6.10876e+07
9.726e+07
1.55557e+08
1.28125e+08
7.55256e+07
4.38727e+07
2.48874e+07
1.3676e+07
7.22147e+06
3.6393e+06
1.73797e+06
784704
346068
113369
17640.1
1087.84
32.7432
0.549957
0.0064169
7.71613e-05
1.50702e-06
6.87934e-08
1.19038e-08
-2.91261e-09
-1.43819e-09
-8.7813e-10
-4.73794e-12
-1.77053e-10
-8.8405e-11
1.34393e-11
-2.45555e-11
-5.54468e-12
-3.2586e-14
4.18525e-11
-6.16001e-12
4.1483e-11
-1.01436e-15
-4.80352e-14
-1.67082e-16
-6.52511e-17
-1.66279e-15
-4.28674e-18
-1.36721e-12
-1.21905e-11
-4.87622e-11
-5.37736e-11
0
-1.95049e-10
-2.17425e-06
-2.17407e-06
0
2.04426e-14
-2.17719e-06
-2.17751e-06
8.17695e-14
-2.17407e-06
-1.24833e-08
3.27081e-13
-2.93454e-18
-2.34763e-17
-4.99331e-08
-2.2401e-08
-4.50863e-14
-8.87303e-07
4.19438e-06
4.34877e-05
0.000405159
0.00310179
0.0196364
0.103975
0.466798
1.8039
6.08943
18.2036
48.7855
118.504
263.481
541.253
1038.39
1878.43
3236.01
5367.79
8677.84
13848.2
22086.1
35579.3
58306.2
97405.6
165292
282637
482342
815766
1.36322e+06
2.25125e+06
3.67915e+06
5.95931e+06
9.57995e+06
1.53046e+07
2.40431e+07
3.82527e+07
6.0725e+07
9.66784e+07
1.54653e+08
1.28994e+08
7.60489e+07
4.41898e+07
2.50779e+07
1.37883e+07
7.28574e+06
3.6746e+06
1.75641e+06
793644
350046
116182
18249.1
1140.88
34.7014
0.587577
0.00687641
8.23727e-05
1.57407e-06
6.85622e-08
1.18858e-08
-2.87929e-09
-1.71135e-09
-1.57214e-09
-4.80274e-12
-1.41373e-10
-1.6025e-10
-2.84311e-11
3.07522e-11
-7.65613e-14
-3.29024e-14
-6.16819e-12
-7.67835e-13
3.53288e-11
-1.02425e-15
-4.20178e-16
-1.6906e-16
4.18663e-11
-6.15584e-12
-4.33308e-18
-2.17408e-06
-6.72154e-12
-2.17412e-06
-9.75244e-11
-5.37724e-11
-1.07547e-10
-2.15095e-10
-2.17485e-06
-3.50006e-10
-7.00032e-10
-2.17719e-06
0
-6.24164e-09
0
-2.17407e-06
-2.49666e-08
3.27081e-13
-2.93454e-17
-4.99331e-08
-1.13697e-06
-1.08703e-06
1.99732e-07
4.39411e-06
4.26004e-05
0.00040607
0.0031108
0.0196819
0.10411
0.466983
1.80308
6.08189
18.1678
48.6565
118.116
262.461
538.883
1033.33
1868.42
3217.32
5334.35
8619.66
13748.2
21914.3
35281
57781.9
96476.1
163646
279760
477417
807512
1.34962e+06
2.22916e+06
3.64358e+06
5.90252e+06
9.48988e+06
1.51625e+07
2.38228e+07
3.79044e+07
6.01728e+07
9.57934e+07
1.53227e+08
1.30322e+08
7.68495e+07
4.46752e+07
2.53698e+07
1.39605e+07
7.38446e+06
3.72889e+06
1.78482e+06
807477
356160
120441
19221.1
1227.21
37.9333
0.650432
0.00764998
9.10513e-05
1.72462e-06
4.31778e-08
1.18572e-08
-3.56624e-09
-1.43334e-09
2.37256e-11
-1.1046e-11
-2.1098e-12
-9.29366e-13
-4.09002e-13
-1.11172e-11
-7.79534e-14
-8.92221e-12
-1.69466e-12
3.57062e-11
-1.73425e-13
-8.64952e-14
-4.27098e-16
-1.71531e-16
-6.15424e-12
-6.1542e-12
-3.38181e-16
0
-1.21907e-11
-4.87622e-11
0
-9.75244e-11
-2.17407e-06
-2.17446e-06
-9.17043e-20
-3.50016e-10
-2.17407e-06
-3.12082e-09
-2.17407e-06
8.17702e-14
-2.17407e-06
-2.18656e-06
-2.93454e-18
-1.12002e-08
6.54138e-13
-2.28894e-16
-4.99325e-08
-9.98663e-08
-7.87437e-07
3.26227e-06
4.30549e-05
0.000409953
0.00312629
0.0197498
0.10433
0.467381
1.80251
6.07337
18.1241
48.4943
117.621
261.154
535.786
1026.67
1855.15
3192.43
5289.73
8541.89
13614.4
21684.2
34881.3
57079.1
95229.4
161437
275892
470784
796376
1.33125e+06
2.19923e+06
3.5953e+06
5.82528e+06
9.36715e+06
1.49685e+07
2.35215e+07
3.74278e+07
5.94167e+07
9.45807e+07
1.5132e+08
1.32138e+08
7.79452e+07
4.53406e+07
2.57707e+07
1.41974e+07
7.52052e+06
3.80387e+06
1.82415e+06
826721
364620
126193
20630.7
1355.85
42.8393
0.747328
0.00885172
0.000104531
1.96567e-06
7.8703e-08
-6.73705e-10
-8.21463e-11
-1.39264e-09
-1.23106e-11
3.68531e-11
-8.31257e-12
-1.08497e-10
-2.73049e-11
-1.97808e-11
4.17868e-11
3.84712e-11
-6.16876e-12
-6.15338e-15
-6.53771e-12
-8.65209e-14
-5.29503e-14
-1.33038e-14
3.57121e-11
-6.15717e-12
-4.44894e-18
-2.17407e-06
1.59708e-16
6.3883e-16
-2.17412e-06
-5.37724e-11
0
-3.90103e-10
-9.17043e-20
-7.80195e-10
-2.17407e-06
-2.17407e-06
-6.24164e-09
-7.33635e-19
-2.17407e-06
-1.24833e-08
0
-2.19904e-06
-2.22401e-06
-2.17407e-06
-4.99331e-08
-1.1869e-06
2.99598e-07
4.39411e-06
4.45862e-05
0.000413748
0.00314769
0.0198488
0.104668
0.468127
1.80263
6.06514
18.0756
48.3049
117.027
259.557
531.941
1018.4
1838.63
3161.36
5233.87
8444.4
13446.6
21395.4
34380
56197.9
93666.8
158667
271041
462457
782378
1.30812e+06
2.16147e+06
3.53422e+06
5.72719e+06
9.21056e+06
1.47196e+07
2.31328e+07
3.68125e+07
5.84409e+07
9.30168e+07
1.48845e+08
1.34495e+08
7.93699e+07
4.62069e+07
2.62932e+07
1.45065e+07
7.69834e+06
3.90202e+06
1.87577e+06
852076
375889
133480
22589.2
1541.09
50.0754
0.893093
0.0106771
0.000124816
2.23613e-06
6.66417e-08
-7.45761e-10
-8.93382e-11
-1.75668e-09
-8.73158e-10
-1.13214e-11
-3.9233e-10
-9.7796e-13
-4.91941e-11
1.72961e-11
-8.21294e-14
3.57357e-11
-1.38225e-12
4.14399e-11
-2.12703e-13
-1.09938e-15
3.57117e-11
-6.16748e-12
-7.04416e-17
3.57108e-11
-6.15418e-12
-1.36725e-12
1.59708e-16
-2.17407e-06
-2.17407e-06
-2.17412e-06
2.5553e-15
-3.90097e-10
-2.17407e-06
0
-1.56041e-09
-3.66817e-19
-2.17751e-06
-2.18031e-06
-1.24833e-08
0
-2.93454e-18
0
-4.99325e-08
6.53927e-13
-2.2401e-08
-4.74926e-14
-7.87438e-07
4.49397e-06
4.53852e-05
0.000418253
0.00317747
0.0199878
0.10517
0.469399
1.80404
6.05894
18.0267
48.0989
116.358
257.725
527.539
1008.69
1818.97
3124.14
5166.67
8326.81
13244
21046.8
33775.4
55136.8
91788.8
155345
265233
452506
765685
1.2806e+06
2.11664e+06
3.46185e+06
5.61107e+06
9.02488e+06
1.44228e+07
2.26634e+07
3.60426e+07
5.72221e+07
9.10698e+07
1.4575e+08
1.37487e+08
8.11744e+07
4.73027e+07
2.69536e+07
1.48973e+07
7.92321e+06
4.02633e+06
1.94129e+06
884427
390285
142402
25232.8
1803.83
60.6684
1.11202
0.0134543
0.000155424
2.72014e-06
1.0413e-07
1.16739e-08
-3.54063e-09
-3.79036e-11
-8.73725e-10
-1.15238e-11
3.95541e-11
-1.96062e-10
-6.60063e-12
-1.11334e-11
2.89054e-11
-3.65723e-14
4.04836e-11
-4.26655e-13
-1.73651e-13
-1.13695e-15
4.18659e-11
-1.0869e-14
4.18663e-11
4.1865e-11
-3.38467e-16
-2.17407e-06
-2.17408e-06
0
-2.17407e-06
-4.37507e-11
-1.95051e-10
-2.17407e-06
0
0
-1.56041e-09
4.08848e-14
4.08851e-14
8.17695e-14
0
-1.24833e-08
-2.93454e-18
-2.17407e-06
-2.75314e-08
-2.46501e-16
-2.75314e-08
-9.9865e-08
-7.87437e-07
3.40694e-06
4.51969e-05
0.000425244
0.00321755
0.0201801
0.105894
0.471427
1.80749
6.05692
17.9828
47.8869
115.629
255.661
522.455
997.308
1795.98
3080.49
5087.64
8188.13
13004.5
20634.2
33059.6
53881.2
89568.4
151423
258388
440811
746158
1.24864e+06
2.06516e+06
3.38005e+06
5.48285e+06
8.82671e+06
1.41213e+07
2.22366e+07
3.49811e+07