/*--------------------------------*- C++ -*----------------------------------*\
  =========                 |
  \\      /  F ield         | OpenFOAM: The Open Source CFD Toolbox
   \\    /   O peration     | Website:  https://openfoam.org
    \\  /    A nd           | Version:  8
     \\/     M anipulation  |
\*---------------------------------------------------------------------------*/
FoamFile
{
    version     2.0;
    format      ascii;
    class       volScalarField;
    location    "0.5/fluid";
    object      rho;
}
// * * * * * * * * * * * * * * * * * * * * * * * * * * * * * * * * * * * * * //

dimensions      [1 -3 0 0 0 0 0];

internalField   nonuniform List<scalar> 
4000
(
0.658526
0.658499
0.658454
0.658379
0.658253
0.658044
0.6577
0.657139
0.656232
0.654789
0.652529
0.649061
0.643872
0.636343
0.62581
0.611697
0.593694
0.571928
0.54703
0.52004
0.492181
0.464601
0.438193
0.413527
0.390882
0.370316
0.351747
0.335017
0.319939
0.306321
0.293972
0.282735
0.27247
0.263062
0.254414
0.246426
0.238997
0.232063
0.225575
0.219489
0.213767
0.208377
0.203293
0.198491
0.193952
0.189658
0.185594
0.18175
0.178112
0.174674
0.171427
0.168368
0.165494
0.162809
0.160322
0.158052
0.156031
0.154342
0.15306
0.15229
0.152334
0.153653
0.157123
0.163775
0.173008
0.184643
0.19875
0.21558
0.235553
0.259278
0.287581
0.321552
0.362602
0.412631
0.47394
0.548767
0.638325
0.741127
0.850827
0.955724
1.0428
1.10477
1.14302
1.16398
1.17454
1.1796
1.18194
1.183
1.18347
1.18367
1.18376
1.18379
1.18381
1.18382
1.18382
1.18382
1.18382
1.18382
1.18382
1.18382
0.658526
0.658499
0.658454
0.658379
0.658253
0.658044
0.657699
0.657138
0.656232
0.654791
0.652541
0.649098
0.643961
0.636522
0.626137
0.61224
0.594513
0.573058
0.548461
0.521715
0.494013
0.466493
0.440058
0.415303
0.392528
0.371812
0.35309
0.336215
0.320999
0.307244
0.294776
0.283434
0.273077
0.263587
0.254865
0.246816
0.239331
0.232348
0.225816
0.21969
0.213932
0.20851
0.203397
0.198569
0.194006
0.189691
0.185608
0.181746
0.178093
0.174641
0.171382
0.168313
0.165431
0.16274
0.16025
0.15798
0.155965
0.154294
0.153037
0.152312
0.152433
0.153889
0.15761
0.164487
0.173951
0.185849
0.20027
0.217488
0.237955
0.262316
0.291449
0.326505
0.368981
0.42089
0.484582
0.562203
0.654603
0.759467
0.869286
0.971646
1.05426
1.11164
1.14654
1.1656
1.17523
1.17988
1.18205
1.18304
1.18348
1.18368
1.18376
1.1838
1.18381
1.18382
1.18382
1.18382
1.18382
1.18382
1.18382
1.18382
0.658526
0.658499
0.658454
0.658378
0.658252
0.658043
0.657698
0.657135
0.656228
0.654789
0.652544
0.649116
0.64401
0.636634
0.626353
0.612612
0.595095
0.573889
0.549552
0.523045
0.495527
0.468121
0.441729
0.416955
0.394117
0.373308
0.354477
0.337487
0.322145
0.308275
0.2957
0.284258
0.273808
0.264232
0.255432
0.247312
0.239763
0.232721
0.226135
0.219958
0.214154
0.20869
0.203537
0.198672
0.194075
0.189729
0.185617
0.181729
0.178053
0.17458
0.171302
0.168217
0.165323
0.162623
0.160128
0.157859
0.155854
0.154214
0.152996
0.152345
0.152595
0.154276
0.158415
0.165658
0.175493
0.187801
0.202701
0.220497
0.241676
0.266927
0.297175
0.33363
0.377857
0.431937
0.498164
0.578429
0.673006
0.778675
0.887065
0.985768
1.06375
1.11711
1.14932
1.1669
1.17581
1.18013
1.18216
1.18308
1.1835
1.18368
1.18376
1.1838
1.18381
1.18382
1.18382
1.18382
1.18382
1.18382
1.18382
1.18382
0.658526
0.658499
0.658454
0.658379
0.658253
0.658045
0.657701
0.657142
0.656241
0.654814
0.65259
0.649198
0.644151
0.636865
0.626714
0.613143
0.595834
0.574853
0.550733
0.524406
0.497014
0.469673
0.443288
0.418474
0.395563
0.374662
0.355735
0.33863
0.323187
0.30922
0.296552
0.285023
0.274492
0.264841
0.255969
0.247784
0.240176
0.233079
0.22644
0.220215
0.214365
0.208857
0.203663
0.198761
0.194128
0.189747
0.185605
0.181689
0.177987
0.17449
0.171193
0.16809
0.165182
0.162473
0.159976
0.157712
0.155723
0.154124
0.15293
0.152376
0.152785
0.154742
0.15939
0.167073
0.177348
0.190137
0.205589
0.224041
0.246014
0.272239
0.303688
0.341623
0.387679
0.443987
0.512768
0.595646
0.692325
0.79871
0.905619
1.00067
1.07401
1.12324
1.15258
1.1685
1.17655
1.18046
1.1823
1.18314
1.18352
1.18369
1.18377
1.1838
1.18381
1.18382
1.18382
1.18382
1.18382
1.18382
1.18382
1.18382
0.658526
0.658499
0.658455
0.65838
0.658255
0.658047
0.657706
0.657151
0.656258
0.654842
0.652639
0.64928
0.644286
0.63708
0.62704
0.613616
0.596482
0.575691
0.551754
0.52558
0.498294
0.471006
0.444625
0.419776
0.396803
0.375825
0.356803
0.339611
0.324082
0.310032
0.297286
0.285683
0.275082
0.265365
0.256432
0.24819
0.24053
0.233383
0.226698
0.220428
0.214536
0.208988
0.203756
0.198817
0.19415
0.189739
0.185567
0.181623
0.177896
0.174377
0.171059
0.16794
0.16502
0.162303
0.159803
0.157545
0.155574
0.154009
0.152871
0.152414
0.15299
0.15524
0.160427
0.168579
0.17932
0.192611
0.208636
0.227762
0.250546
0.277756
0.310409
0.349814
0.397678
0.456151
0.527358
0.612613
0.711027
0.81766
0.922685
1.01398
1.08295
1.12849
1.15536
1.16986
1.17719
1.18075
1.18243
1.1832
1.18355
1.1837
1.18377
1.1838
1.18381
1.18382
1.18382
1.18382
1.18382
1.18382
1.18382
1.18382
0.658526
0.6585
0.658455
0.658381
0.658257
0.658051
0.657713
0.657163
0.656278
0.654877
0.652697
0.649375
0.644436
0.637309
0.627377
0.614088
0.59711
0.576481
0.552694
0.526639
0.49943
0.472173
0.445783
0.420894
0.397859
0.376811
0.357708
0.340436
0.32483
0.310708
0.297894
0.286227
0.275566
0.265793
0.256807
0.248518
0.240812
0.233623
0.226897
0.220588
0.214659
0.209076
0.20381
0.198839
0.194143
0.189703
0.185504
0.181536
0.177786
0.174246
0.170911
0.167778
0.164846
0.162123
0.159622
0.157372
0.155424
0.153894
0.152815
0.152458
0.153201
0.155742
0.161465
0.170082
0.181281
0.195067
0.211652
0.231436
0.255007
0.28317
0.316982
0.357797
0.407397
0.467927
0.541404
0.628831
0.728733
0.835398
0.938475
1.02619
1.09113
1.13332
1.15794
1.17115
1.1778
1.18103
1.18255
1.18325
1.18357
1.18371
1.18377
1.1838
1.18381
1.18382
1.18382
1.18382
1.18382
1.18382
1.18382
1.18382
0.658526
0.6585
0.658456
0.658382
0.658259
0.658055
0.65772
0.657175
0.656299
0.654912
0.652754
0.649465
0.644577
0.63752
0.627683
0.614513
0.59767
0.577181
0.553519
0.527562
0.500413
0.473176
0.446772
0.421842
0.398751
0.37763
0.358458
0.341118
0.325446
0.31126
0.298387
0.286665
0.275954
0.266133
0.257102
0.248771
0.241027
0.233802
0.22704
0.220699
0.214738
0.209124
0.203829
0.198831
0.194108
0.189644
0.185423
0.181432
0.177663
0.174106
0.170757
0.167611
0.164671
0.161943
0.159445
0.157204
0.155282
0.153789
0.152773
0.152517
0.153428
0.156258
0.162482
0.171534
0.183166
0.197417
0.214531
0.234934
0.259246
0.288307
0.323211
0.365356
0.41659
0.479045
0.554613
0.643982
0.74511
0.851571
0.952619
1.03693
1.09821
1.13747
1.16015
1.17224
1.17832
1.18127
1.18266
1.1833
1.18359
1.18372
1.18378
1.1838
1.18381
1.18382
1.18382
1.18382
1.18382
1.18382
1.18382
1.18382
0.658526
0.6585
0.658457
0.658384
0.658262
0.65806
0.657727
0.657187
0.656319
0.654945
0.652808
0.649551
0.644709
0.637717
0.627965
0.614898
0.598172
0.5778
0.554243
0.528364
0.501259
0.474032
0.447609
0.422639
0.399496
0.378312
0.359077
0.341676
0.325945
0.311705
0.298782
0.287013
0.276258
0.266396
0.257327
0.248961
0.241184
0.233927
0.227137
0.220767
0.214779
0.209139
0.203821
0.198799
0.194054
0.189569
0.185328
0.18132
0.177535
0.173964
0.170602
0.167447
0.164501
0.161772
0.159277
0.157049
0.155158
0.153705
0.152756
0.152612
0.153711
0.156878
0.163507
0.172931
0.184945
0.199616
0.217213
0.238185
0.263181
0.293071
0.328984
0.372362
0.425109
0.489335
0.566801
0.657885
0.760008
0.866111
0.965164
1.04633
1.10437
1.14105
1.16206
1.17319
1.17878
1.18148
1.18276
1.18334
1.18361
1.18373
1.18378
1.1838
1.18381
1.18382
1.18382
1.18382
1.18382
1.18382
1.18382
1.18382
0.658526
0.6585
0.658457
0.658385
0.658264
0.658063
0.657734
0.657199
0.656338
0.654976
0.652857
0.649629
0.644827
0.637892
0.628213
0.615237
0.59861
0.578337
0.554866
0.52905
0.501979
0.474757
0.448312
0.423303
0.400107
0.378872
0.359583
0.342128
0.326347
0.31206
0.299093
0.287284
0.276492
0.266596
0.257494
0.249098
0.241294
0.234011
0.227195
0.220802
0.214791
0.20913
0.203791
0.19875
0.193987
0.189484
0.185227
0.181205
0.177406
0.173824
0.170453
0.167291
0.164341
0.161613
0.159124
0.156909
0.155051
0.15364
0.15276
0.15273
0.154026
0.157549
0.164504
0.174244
0.186592
0.201637
0.219668
0.241155
0.266772
0.297417
0.334251
0.378759
0.432888
0.498722
0.577892
0.670475
0.773388
0.879017
0.976145
1.05445
1.10962
1.14409
1.16368
1.174
1.17916
1.18166
1.18284
1.18338
1.18363
1.18374
1.18379
1.18381
1.18381
1.18382
1.18382
1.18382
1.18382
1.18382
1.18382
1.18382
0.658526
0.658501
0.658458
0.658386
0.658266
0.658067
0.65774
0.657209
0.656355
0.655004
0.652902
0.649698
0.644932
0.638046
0.628431
0.615531
0.598989
0.578799
0.555399
0.529634
0.502587
0.475365
0.4489
0.423857
0.400615
0.379331
0.359993
0.342492
0.326667
0.312339
0.299335
0.287492
0.276668
0.266743
0.257615
0.249193
0.241366
0.234061
0.227225
0.220812
0.214782
0.209104
0.203748
0.198691
0.193912
0.189395
0.185126
0.181091
0.177282
0.173691
0.170313
0.167146
0.164194
0.161467
0.158985
0.156784
0.154959
0.153586
0.152771
0.152849
0.154329
0.158187
0.165425
0.175441
0.188084
0.203462
0.22188
0.243829
0.270004
0.301329
0.338993
0.384523
0.439901
0.507179
0.587859
0.681737
0.785267
0.890357
0.985677
1.06142
1.11409
1.14667
1.16504
1.17468
1.17949
1.18181
1.18291
1.18341
1.18364
1.18374
1.18379
1.18381
1.18382
1.18382
1.18382
1.18382
1.18382
1.18382
1.18382
1.18382
0.658526
0.658501
0.658458
0.658387
0.658268
0.65807
0.657746
0.657218
0.65637
0.655028
0.652941
0.649758
0.645023
0.638179
0.628619
0.615784
0.599312
0.579191
0.555849
0.530124
0.503095
0.475869
0.449383
0.424306
0.401027
0.379701
0.360322
0.342781
0.326919
0.312557
0.299521
0.28765
0.2768
0.26685
0.257699
0.249257
0.241411
0.234087
0.227234
0.220804
0.21476
0.209066
0.203696
0.198626
0.193836
0.189307
0.185027
0.180983
0.177166
0.173568
0.170184
0.167014
0.164061
0.161336
0.15886
0.156672
0.154876
0.153539
0.152783
0.152957
0.154601
0.158758
0.166247
0.176509
0.189413
0.205086
0.223847
0.246207
0.272878
0.304808
0.343213
0.389659
0.44615
0.51471
0.596718
0.691704
0.795707
0.900226
0.993879
1.06736
1.11787
1.14883
1.16619
1.17525
1.17976
1.18194
1.18297
1.18344
1.18365
1.18375
1.18379
1.18381
1.18382
1.18382
1.18382
1.18382
1.18382
1.18382
1.18382
1.18382
0.658526
0.658501
0.658459
0.658388
0.658269
0.658073
0.65775
0.657226
0.656383
0.655049
0.652974
0.64981
0.645101
0.638293
0.628778
0.615997
0.599584
0.57952
0.556226
0.530532
0.503517
0.476287
0.449782
0.424676
0.401362
0.38
0.360585
0.34301
0.327116
0.312725
0.299663
0.287767
0.276895
0.266925
0.257756
0.249296
0.241434
0.234096
0.227228
0.220786
0.214728
0.209023
0.203642
0.198561
0.193761
0.189223
0.184935
0.180884
0.17706
0.173457
0.170069
0.166897
0.163943
0.161221
0.158751
0.156574
0.154805
0.153499
0.152793
0.153052
0.15484
0.159262
0.166973
0.17745
0.190584
0.206515
0.225578
0.248298
0.275405
0.307869
0.346927
0.394182
0.451656
0.521342
0.604503
0.700428
0.804787
0.908735
1.00088
1.07237
1.12104
1.15064
1.16714
1.17573
1.17999
1.18205
1.18301
1.18346
1.18366
1.18375
1.18379
1.18381
1.18382
1.18382
1.18382
1.18382
1.18382
1.18382
1.18382
1.18382
0.658526
0.658501
0.658459
0.658388
0.658271
0.658075
0.657754
0.657233
0.656394
0.655067
0.653002
0.649854
0.645167
0.638388
0.628911
0.616175
0.599811
0.579793
0.556537
0.530868
0.503863
0.476627
0.450106
0.424974
0.40163
0.380237
0.360792
0.343188
0.327268
0.312853
0.299769
0.287853
0.276963
0.266977
0.257792
0.249318
0.241443
0.234093
0.227214
0.22076
0.214692
0.208978
0.203587
0.198498
0.19369
0.189145
0.184851
0.180794
0.176966
0.173359
0.169969
0.166795
0.163842
0.161123
0.158659
0.156492
0.154745
0.153462
0.1528
0.153132
0.155048
0.159701
0.167607
0.178272
0.191604
0.207759
0.227083
0.250115
0.277601
0.310528
0.350154
0.398117
0.456445
0.527107
0.611259
0.707972
0.812594
0.915994
1.0068
1.07658
1.12368
1.15214
1.16793
1.17612
1.18018
1.18214
1.18305
1.18348
1.18367
1.18376
1.18379
1.18381
1.18382
1.18382
1.18382
1.18382
1.18382
1.18382
1.18382
1.18382
0.658526
0.658501
0.658459
0.658389
0.658272
0.658077
0.657758
0.657238
0.656404
0.655082
0.653026
0.64989
0.645221
0.638467
0.629022
0.616322
0.599997
0.580016
0.556791
0.531141
0.504142
0.4769
0.450363
0.42521
0.401842
0.380424
0.360953
0.343326
0.327384
0.31295
0.299848
0.287916
0.277011
0.267011
0.257813
0.249328
0.241443
0.234082
0.227194
0.220732
0.214656
0.208933
0.203536
0.19844
0.193626
0.189076
0.184776
0.180715
0.176883
0.173274
0.169883
0.166709
0.163758
0.161043
0.158586
0.156432
0.154709
0.153413
0.152796
0.153196
0.155223
0.160079
0.168152
0.178977
0.192479
0.208824
0.228371
0.251669
0.27948
0.312803
0.352917
0.401486
0.460548
0.532043
0.617034
0.714402
0.819214
0.922108
1.01175
1.08007
1.12586
1.15337
1.16858
1.17644
1.18033
1.18221
1.18309
1.18349
1.18368
1.18376
1.18379
1.18381
1.18382
1.18382
1.18382
1.18382
1.18382
1.18382
1.18382
1.18382
0.658526
0.658502
0.65846
0.65839
0.658273
0.658079
0.657761
0.657243
0.656411
0.655095
0.653045
0.64992
0.645266
0.638532
0.629111
0.616441
0.600147
0.580196
0.556995
0.53136
0.504365
0.477118
0.450567
0.425396
0.402008
0.380568
0.361078
0.343431
0.327472
0.313021
0.299904
0.287959
0.277042
0.267032
0.257824
0.24933
0.241436
0.234068
0.227172
0.220703
0.214621
0.208892
0.203489
0.198388
0.193569
0.189015
0.184711
0.180647
0.176813
0.173202
0.169809
0.166636
0.163686
0.160974
0.158522
0.156376
0.154665
0.153385
0.152799
0.153252
0.15537
0.160394
0.168607
0.179566
0.193211
0.209716
0.229449
0.252971
0.281053
0.31471
0.355234
0.404314
0.463993
0.536187
0.621877
0.719779
0.824728
0.927172
1.01582
1.08293
1.12763
1.15437
1.16911
1.1767
1.18046
1.18227
1.18311
1.18351
1.18368
1.18376
1.1838
1.18381
1.18382
1.18382
1.18382
1.18382
1.18382
1.18382
1.18382
1.18382
0.658526
0.658502
0.65846
0.65839
0.658273
0.65808
0.657763
0.657247
0.656417
0.655104
0.653061
0.649943
0.645301
0.638583
0.629182
0.616535
0.600266
0.580338
0.557155
0.531532
0.504539
0.477288
0.450726
0.42554
0.402135
0.380679
0.361171
0.34351
0.327536
0.313073
0.299945
0.287989
0.277063
0.267044
0.257829
0.249327
0.241427
0.234053
0.227151
0.220676
0.214589
0.208856
0.203448
0.198343
0.19352
0.188963
0.184657
0.18059
0.176754
0.173141
0.169748
0.166575
0.163626
0.160916
0.158468
0.156328
0.154627
0.153363
0.152803
0.153298
0.15549
0.160649
0.168975
0.180044
0.193805
0.21044
0.230326
0.254031
0.282335
0.316265
0.357124
0.406624
0.466807
0.539572
0.625829
0.72416
0.829207
0.931268
1.0191
1.08522
1.12905
1.15517
1.16952
1.17691
1.18056
1.18231
1.18314
1.18351
1.18369
1.18376
1.1838
1.18381
1.18382
1.18382
1.18382
1.18382
1.18382
1.18382
1.18382
1.18382
0.658526
0.658502
0.65846
0.65839
0.658274
0.658081
0.657765
0.657249
0.656422
0.655112
0.653073
0.649962
0.645328
0.638622
0.629236
0.616607
0.600357
0.580446
0.557277
0.531661
0.504671
0.477415
0.450845
0.425648
0.40223
0.38076
0.36124
0.343567
0.327582
0.313109
0.299973
0.288009
0.277076
0.26705
0.257829
0.249323
0.241417
0.234038
0.227132
0.220653
0.214562
0.208825
0.203415
0.198307
0.193481
0.188921
0.184613
0.180545
0.176707
0.173093
0.1697
0.166526
0.163579
0.16087
0.158425
0.15629
0.154597
0.153346
0.152806
0.153334
0.155583
0.160847
0.169262
0.180417
0.194269
0.211007
0.231012
0.254861
0.28334
0.317484
0.358608
0.408438
0.469018
0.54223
0.62893
0.727591
0.832705
0.934458
1.02165
1.08699
1.13014
1.15579
1.16985
1.17707
1.18064
1.18235
1.18315
1.18352
1.18369
1.18376
1.1838
1.18381
1.18382
1.18382
1.18382
1.18382
1.18382
1.18382
1.18382
1.18382
0.658526
0.658502
0.65846
0.658391
0.658274
0.658082
0.657766
0.657252
0.656426
0.655118
0.653081
0.649975
0.645348
0.63865
0.629276
0.616659
0.600422
0.580524
0.557365
0.531755
0.504765
0.477506
0.450929
0.425724
0.402296
0.380817
0.361288
0.343606
0.327614
0.313134
0.299991
0.288022
0.277084
0.267053
0.257828
0.249317
0.241408
0.234026
0.227117
0.220635
0.214541
0.208802
0.203389
0.198279
0.193451
0.18889
0.18458
0.18051
0.176672
0.173057
0.169663
0.16649
0.163543
0.160835
0.158393
0.156262
0.154575
0.153333
0.152808
0.15336
0.155651
0.160993
0.169472
0.18069
0.194609
0.211423
0.231517
0.255472
0.28408
0.318383
0.359702
0.409776
0.470649
0.54419
0.631214
0.730113
0.83527
0.93679
1.0235
1.08829
1.13095
1.15624
1.17009
1.17719
1.18069
1.18238
1.18316
1.18353
1.18369
1.18376
1.1838
1.18381
1.18382
1.18382
1.18382
1.18382
1.18382
1.18382
1.18382
1.18382
0.658526
0.658502
0.65846
0.658391
0.658275
0.658082
0.657767
0.657253
0.656428
0.655121
0.653087
0.649984
0.645361
0.638669
0.629301
0.616693
0.600464
0.580574
0.557421
0.531814
0.504825
0.477564
0.450983
0.425772
0.402339
0.380853
0.361318
0.343631
0.327634
0.313149
0.300002
0.288029
0.277088
0.267054
0.257826
0.249313
0.241402
0.234017
0.227106
0.220623
0.214527
0.208786
0.203372
0.19826
0.193431
0.188869
0.184558
0.180488
0.176648
0.173033
0.169639
0.166466
0.163519
0.160813
0.158372
0.156243
0.15456
0.153325
0.152809
0.153378
0.155696
0.161088
0.16961
0.18087
0.194833
0.211697
0.231849
0.255873
0.284567
0.318974
0.360422
0.410655
0.471721
0.545477
0.63271
0.731761
0.83694
0.938302
1.0247
1.08913
1.13147
1.15653
1.17024
1.17727
1.18073
1.18239
1.18317
1.18353
1.18369
1.18377
1.1838
1.18381
1.18382
1.18382
1.18382
1.18382
1.18382
1.18382
1.18382
1.18382
0.658526
0.658502
0.65846
0.658391
0.658275
0.658083
0.657767
0.657254
0.656429
0.655123
0.65309
0.649988
0.645367
0.638677
0.629313
0.616709
0.600484
0.580598
0.557447
0.531843
0.504854
0.477591
0.451009
0.425795
0.402359
0.38087
0.361333
0.343643
0.327643
0.313156
0.300007
0.288033
0.277089
0.267054
0.257825
0.249311
0.241398
0.234013
0.227101
0.220616
0.21452
0.208778
0.203363
0.198251
0.193421
0.188858
0.184547
0.180476
0.176637
0.173022
0.169627
0.166454
0.163507
0.160801
0.158362
0.156234
0.154553
0.15332
0.15281
0.153386
0.155718
0.161135
0.169678
0.180958
0.194943
0.211831
0.232012
0.25607
0.284805
0.319263
0.360773
0.411083
0.472241
0.546099
0.63343
0.732549
0.837733
0.939014
1.02527
1.08951
1.13171
1.15667
1.17031
1.1773
1.18075
1.1824
1.18318
1.18353
1.18369
1.18377
1.1838
1.18381
1.18382
1.18382
1.18382
1.18382
1.18382
1.18382
1.18382
1.18382
0.658526
0.658502
0.65846
0.658391
0.658275
0.658083
0.657767
0.657254
0.656429
0.655123
0.65309
0.649988
0.645367
0.638677
0.629313
0.616709
0.600484
0.580598
0.557448
0.531843
0.504854
0.477591
0.451009
0.425795
0.402359
0.380871
0.361333
0.343643
0.327643
0.313156
0.300007
0.288033
0.277089
0.267054
0.257825
0.249311
0.241398
0.234013
0.227101
0.220616
0.21452
0.208778
0.203363
0.198251
0.193421
0.188858
0.184547
0.180476
0.176637
0.173022
0.169627
0.166454
0.163507
0.160801
0.158362
0.156234
0.154553
0.15332
0.15281
0.153386
0.155718
0.161135
0.169678
0.180958
0.194943
0.211831
0.232012
0.25607
0.284805
0.319263
0.360773
0.411083
0.472241
0.546099
0.63343
0.732549
0.837733
0.939014
1.02527
1.08951
1.13171
1.15667
1.17031
1.1773
1.18075
1.1824
1.18318
1.18353
1.18369
1.18377
1.1838
1.18381
1.18382
1.18382
1.18382
1.18382
1.18382
1.18382
1.18382
1.18382
0.658526
0.658502
0.65846
0.658391
0.658275
0.658082
0.657767
0.657253
0.656428
0.655121
0.653087
0.649984
0.645361
0.638669
0.629301
0.616693
0.600464
0.580574
0.557421
0.531814
0.504826
0.477564
0.450983
0.425772
0.402339
0.380853
0.361319
0.343631
0.327634
0.313149
0.300002
0.288029
0.277088
0.267054
0.257826
0.249313
0.241402
0.234017
0.227106
0.220623
0.214527
0.208786
0.203372
0.19826
0.193431
0.188869
0.184558
0.180488
0.176648
0.173033
0.169639
0.166466
0.163519
0.160813
0.158372
0.156244
0.15456
0.153325
0.152809
0.153378
0.155696
0.161088
0.16961
0.18087
0.194833
0.211697
0.231849
0.255874
0.284567
0.318974
0.360422
0.410655
0.471721
0.545477
0.632711
0.731762
0.83694
0.938302
1.0247
1.08913
1.13147
1.15653
1.17024
1.17727
1.18073
1.18239
1.18317
1.18353
1.18369
1.18377
1.1838
1.18381
1.18382
1.18382
1.18382
1.18382
1.18382
1.18382
1.18382
1.18382
0.658526
0.658502
0.65846
0.658391
0.658274
0.658082
0.657766
0.657252
0.656426
0.655118
0.653081
0.649975
0.645348
0.63865
0.629276
0.616659
0.600422
0.580524
0.557365
0.531755
0.504765
0.477506
0.450929
0.425724
0.402296
0.380817
0.361288
0.343606
0.327614
0.313134
0.299991
0.288022
0.277084
0.267053
0.257828
0.249317
0.241408
0.234026
0.227117
0.220635
0.214541
0.208802
0.203389
0.198279
0.193451
0.18889
0.18458
0.18051
0.176672
0.173057
0.169663
0.16649
0.163543
0.160835
0.158393
0.156262
0.154575
0.153333
0.152808
0.15336
0.155651
0.160993
0.169472
0.180691
0.19461
0.211423
0.231517
0.255472
0.284081
0.318383
0.359703
0.409776
0.47065
0.544191
0.631214
0.730114
0.835271
0.936791
1.0235
1.08829
1.13095
1.15624
1.17009
1.17719
1.18069
1.18238
1.18316
1.18353
1.18369
1.18376
1.1838
1.18381
1.18382
1.18382
1.18382
1.18382
1.18382
1.18382
1.18382
1.18382
0.658526
0.658502
0.65846
0.65839
0.658274
0.658081
0.657765
0.657249
0.656422
0.655112
0.653073
0.649962
0.645328
0.638622
0.629236
0.616607
0.600357
0.580446
0.557277
0.531661
0.504671
0.477415
0.450845
0.425648
0.40223
0.38076
0.36124
0.343567
0.327582
0.313109
0.299973
0.288009
0.277076
0.26705
0.257829
0.249323
0.241417
0.234038
0.227132
0.220653
0.214562
0.208825
0.203415
0.198307
0.193481
0.188921
0.184613
0.180545
0.176707
0.173093
0.1697
0.166526
0.163579
0.16087
0.158425
0.15629
0.154597
0.153346
0.152806
0.153334
0.155583
0.160848
0.169262
0.180417
0.194269
0.211007
0.231012
0.254861
0.28334
0.317485
0.358608
0.408438
0.469018
0.542231
0.62893
0.727591
0.832706
0.934458
1.02165
1.08699
1.13014
1.15579
1.16985
1.17707
1.18064
1.18235
1.18315
1.18352
1.18369
1.18376
1.1838
1.18381
1.18382
1.18382
1.18382
1.18382
1.18382
1.18382
1.18382
1.18382
0.658526
0.658502
0.65846
0.65839
0.658273
0.65808
0.657763
0.657247
0.656417
0.655104
0.653061
0.649943
0.645301
0.638583
0.629182
0.616535
0.600266
0.580339
0.557155
0.531532
0.50454
0.477288
0.450726
0.42554
0.402135
0.380679
0.361172
0.34351
0.327536
0.313073
0.299945
0.287989
0.277063
0.267044
0.257829
0.249328
0.241427
0.234053
0.227151
0.220676
0.214589
0.208856
0.203448
0.198343
0.193521
0.188963
0.184657
0.18059
0.176754
0.173142
0.169748
0.166575
0.163626
0.160916
0.158468
0.156328
0.154627
0.153363
0.152803
0.153298
0.15549
0.160649
0.168975
0.180044
0.193805
0.210441
0.230326
0.254031
0.282336
0.316265
0.357125
0.406625
0.466808
0.539573
0.62583
0.724161
0.829208
0.931269
1.0191
1.08522
1.12905
1.15517
1.16952
1.17691
1.18056
1.18231
1.18314
1.18351
1.18369
1.18376
1.1838
1.18381
1.18382
1.18382
1.18382
1.18382
1.18382
1.18382
1.18382
1.18382
0.658526
0.658502
0.65846
0.65839
0.658273
0.658079
0.657761
0.657243
0.656411
0.655095
0.653045
0.64992
0.645266
0.638532
0.629111
0.616441
0.600147
0.580197
0.556995
0.53136
0.504365
0.477118
0.450567
0.425397
0.402008
0.380569
0.361078
0.343431
0.327472
0.313021
0.299904
0.287959
0.277043
0.267032
0.257824
0.24933
0.241436
0.234068
0.227172
0.220703
0.214621
0.208892
0.203489
0.198388
0.193569
0.189015
0.184711
0.180647
0.176813
0.173202
0.169809
0.166636
0.163686
0.160974
0.158522
0.156376
0.154665
0.153385
0.152799
0.153252
0.15537
0.160395
0.168607
0.179567
0.193211
0.209716
0.229449
0.252971
0.281054
0.31471
0.355234
0.404315
0.463993
0.536188
0.621878
0.719781
0.824729
0.927173
1.01582
1.08293
1.12763
1.15437
1.16911
1.1767
1.18046
1.18227
1.18311
1.18351
1.18368
1.18376
1.1838
1.18381
1.18382
1.18382
1.18382
1.18382
1.18382
1.18382
1.18382
1.18382
0.658526
0.658501
0.658459
0.658389
0.658272
0.658077
0.657758
0.657238
0.656404
0.655082
0.653026
0.64989
0.645221
0.638467
0.629022
0.616322
0.599997
0.580017
0.556791
0.531142
0.504142
0.4769
0.450363
0.42521
0.401842
0.380424
0.360954
0.343326
0.327384
0.31295
0.299848
0.287916
0.277011
0.267011
0.257813
0.249328
0.241443
0.234082
0.227194
0.220732
0.214656
0.208933
0.203536
0.19844
0.193626
0.189076
0.184776
0.180715
0.176883
0.173274
0.169883
0.166709
0.163758
0.161043
0.158586
0.156432
0.154709
0.153413
0.152796
0.153196
0.155223
0.160079
0.168152
0.178977
0.19248
0.208825
0.228371
0.25167
0.27948
0.312804
0.352917
0.401487
0.460549
0.532045
0.617036
0.714404
0.819215
0.922109
1.01175
1.08007
1.12586
1.15337
1.16858
1.17644
1.18034
1.18221
1.18309
1.18349
1.18368
1.18376
1.18379
1.18381
1.18382
1.18382
1.18382
1.18382
1.18382
1.18382
1.18382
1.18382
0.658526
0.658501
0.658459
0.658388
0.658271
0.658075
0.657754
0.657233
0.656394
0.655067
0.653002
0.649854
0.645167
0.638388
0.628912
0.616176
0.599811
0.579793
0.556538
0.530869
0.503863
0.476627
0.450106
0.424974
0.40163
0.380237
0.360792
0.343189
0.327268
0.312854
0.299769
0.287854
0.276964
0.266977
0.257792
0.249318
0.241443
0.234093
0.227214
0.22076
0.214692
0.208978
0.203587
0.198498
0.19369
0.189146
0.184851
0.180794
0.176966
0.173359
0.169969
0.166795
0.163842
0.161123
0.158659
0.156492
0.154745
0.153462
0.1528
0.153132
0.155048
0.159701
0.167607
0.178272
0.191605
0.207759
0.227083
0.250115
0.277602
0.310528
0.350155
0.398118
0.456446
0.527109
0.611261
0.707974
0.812596
0.915996
1.0068
1.07658
1.12368
1.15214
1.16793
1.17612
1.18018
1.18214
1.18305
1.18348
1.18367
1.18376
1.18379
1.18381
1.18382
1.18382
1.18382
1.18382
1.18382
1.18382
1.18382
1.18382
0.658526
0.658501
0.658459
0.658388
0.658269
0.658073
0.65775
0.657226
0.656383
0.655049
0.652974
0.64981
0.645101
0.638293
0.628778
0.615997
0.599584
0.57952
0.556226
0.530533
0.503518
0.476287
0.449782
0.424676
0.401362
0.38
0.360585
0.34301
0.327116
0.312726
0.299663
0.287767
0.276895
0.266926
0.257756
0.249296
0.241434
0.234096
0.227229
0.220786
0.214728
0.209023
0.203642
0.198561
0.193761
0.189223
0.184935
0.180884
0.17706
0.173457
0.170069
0.166897
0.163944
0.161221
0.158751
0.156574
0.154805
0.153499
0.152793
0.153052
0.154841
0.159262
0.166973
0.177451
0.190585
0.206516
0.225579
0.248298
0.275406
0.307869
0.346928
0.394183
0.451657
0.521343
0.604505
0.70043
0.804789
0.908737
1.00088
1.07237
1.12104
1.15064
1.16714
1.17573
1.17999
1.18205
1.18301
1.18346
1.18366
1.18375
1.18379
1.18381
1.18382
1.18382
1.18382
1.18382
1.18382
1.18382
1.18382
1.18382
0.658526
0.658501
0.658458
0.658387
0.658268
0.65807
0.657746
0.657218
0.65637
0.655028
0.652941
0.649758
0.645023
0.638179
0.628619
0.615784
0.599312
0.579191
0.55585
0.530124
0.503096
0.475869
0.449383
0.424307
0.401027
0.379702
0.360323
0.342782
0.326919
0.312558
0.299522
0.28765
0.2768
0.26685
0.257699
0.249257
0.241411
0.234088
0.227234
0.220804
0.21476
0.209066
0.203697
0.198626
0.193836
0.189307
0.185027
0.180984
0.177166
0.173568
0.170184
0.167014
0.164061
0.161336
0.15886
0.156672
0.154876
0.15354
0.152783
0.152957
0.154601
0.158758
0.166248
0.176509
0.189414
0.205086
0.223848
0.246208
0.272879
0.304809
0.343215
0.38966
0.446152
0.514712
0.596721
0.691707
0.79571
0.900229
0.993881
1.06736
1.11787
1.14883
1.16619
1.17525
1.17976
1.18194
1.18297
1.18344
1.18365
1.18375
1.18379
1.18381
1.18382
1.18382
1.18382
1.18382
1.18382
1.18382
1.18382
1.18382
0.658526
0.658501
0.658458
0.658386
0.658266
0.658067
0.65774
0.657209
0.656355
0.655004
0.652902
0.649698
0.644932
0.638046
0.628431
0.615532
0.598989
0.578799
0.5554
0.529634
0.502588
0.475365
0.4489
0.423857
0.400615
0.379331
0.359993
0.342492
0.326667
0.31234
0.299335
0.287492
0.276669
0.266743
0.257615
0.249194
0.241367
0.234062
0.227225
0.220812
0.214782
0.209104
0.203748
0.198691
0.193912
0.189396
0.185126
0.181092
0.177282
0.173691
0.170313
0.167146
0.164194
0.161467
0.158985
0.156785
0.154959
0.153586
0.152771
0.152849
0.154329
0.158187
0.165425
0.175441
0.188084
0.203462
0.22188
0.24383
0.270005
0.30133
0.338995
0.384525
0.439903
0.507181
0.587862
0.68174
0.785271
0.89036
0.985679
1.06143
1.11409
1.14667
1.16504
1.17468
1.17949
1.18181
1.18291
1.18341
1.18364
1.18374
1.18379
1.18381
1.18382
1.18382
1.18382
1.18382
1.18382
1.18382
1.18382
1.18382
0.658526
0.6585
0.658457
0.658385
0.658264
0.658063
0.657734
0.657199
0.656338
0.654976
0.652858
0.649629
0.644827
0.637892
0.628214
0.615237
0.59861
0.578338
0.554867
0.529051
0.50198
0.474757
0.448313
0.423304
0.400108
0.378872
0.359583
0.342129
0.326347
0.31206
0.299093
0.287284
0.276492
0.266596
0.257494
0.249098
0.241294
0.234011
0.227196
0.220802
0.214791
0.20913
0.203791
0.19875
0.193987
0.189484
0.185228
0.181205
0.177406
0.173824
0.170453
0.167291
0.164341
0.161613
0.159124
0.15691
0.155051
0.15364
0.15276
0.15273
0.154026
0.15755
0.164505
0.174245
0.186593
0.201638
0.219668
0.241156
0.266774
0.297418
0.334253
0.378761
0.432891
0.498725
0.577895
0.670478
0.773392
0.879021
0.976149
1.05446
1.10962
1.1441
1.16368
1.174
1.17916
1.18166
1.18284
1.18338
1.18363
1.18374
1.18379
1.18381
1.18381
1.18382
1.18382
1.18382
1.18382
1.18382
1.18382
1.18382
0.658526
0.6585
0.658457
0.658384
0.658262
0.65806
0.657727
0.657187
0.656319
0.654945
0.652808
0.649551
0.644709
0.637717
0.627965
0.614899
0.598172
0.5778
0.554243
0.528364
0.501259
0.474033
0.447609
0.422639
0.399496
0.378313
0.359078
0.341676
0.325945
0.311706
0.298782
0.287013
0.276258
0.266397
0.257327
0.248961
0.241185
0.233928
0.227137
0.220767
0.214779
0.209139
0.203821
0.198799
0.194054
0.189569
0.185328
0.18132
0.177535
0.173964
0.170602
0.167447
0.164501
0.161772
0.159277
0.157049
0.155158
0.153705
0.152756
0.152612
0.153711
0.156878
0.163507
0.172932
0.184946
0.199617
0.217214
0.238186
0.263182
0.293072
0.328986
0.372364
0.425112
0.489337
0.566804
0.657889
0.760012
0.866115
0.965168
1.04634
1.10437
1.14105
1.16206
1.1732
1.17878
1.18148
1.18276
1.18334
1.18361
1.18373
1.18378
1.1838
1.18381
1.18382
1.18382
1.18382
1.18382
1.18382
1.18382
1.18382
0.658526
0.6585
0.658456
0.658382
0.658259
0.658055
0.65772
0.657175
0.656299
0.654912
0.652754
0.649465
0.644577
0.637521
0.627684
0.614514
0.597671
0.577181
0.55352
0.527563
0.500413
0.473177
0.446772
0.421843
0.398751
0.37763
0.358458
0.341118
0.325446
0.311261
0.298387
0.286666
0.275954
0.266134
0.257103
0.248771
0.241028
0.233802
0.227041
0.220699
0.214738
0.209124
0.203829
0.198831
0.194109
0.189644
0.185423
0.181433
0.177663
0.174106
0.170757
0.167611
0.164671
0.161943
0.159445
0.157204
0.155282
0.153789
0.152773
0.152517
0.153428
0.156258
0.162483
0.171535
0.183166
0.197417
0.214531
0.234935
0.259247
0.288308
0.323213
0.365358
0.416593