/*--------------------------------*- C++ -*----------------------------------*\
  =========                 |
  \\      /  F ield         | OpenFOAM: The Open Source CFD Toolbox
   \\    /   O peration     | Website:  https://openfoam.org
    \\  /    A nd           | Version:  8
     \\/     M anipulation  |
\*---------------------------------------------------------------------------*/
FoamFile
{
    version     2.0;
    format      ascii;
    class       volScalarField;
    location    "0.5/fluid";
    object      T;
}
// * * * * * * * * * * * * * * * * * * * * * * * * * * * * * * * * * * * * * //

dimensions      [0 0 0 1 0 0 0];

internalField   nonuniform List<scalar> 
4000
(
293.004
293.017
293.039
293.077
293.139
293.242
293.412
293.691
294.141
294.862
295.997
297.757
300.429
304.396
310.127
318.16
329.044
343.267
361.166
382.878
408.319
437.229
469.239
503.94
540.946
579.922
620.594
662.752
706.263
751.018
796.879
843.757
891.561
940.187
989.514
1039.48
1090.1
1141.3
1192.97
1245.02
1297.34
1349.82
1402.36
1454.85
1507.18
1559.23
1610.89
1662.05
1712.59
1762.38
1811.3
1859.18
1905.86
1951.09
1994.57
2035.84
2074.22
2108.17
2136.37
2157.39
2166.4
2156.78
2117.47
2039.05
1937.11
1821.22
1697.46
1569.82
1440.96
1312.79
1186.72
1063.97
945.674
832.762
726.464
628.502
541.141
466.67
406.908
362.514
332.408
313.859
303.408
297.97
295.304
294.043
293.464
293.203
293.087
293.037
293.016
293.007
293.003
293.001
293
293
293
293
293
293
293.004
293.017
293.039
293.077
293.139
293.242
293.413
293.691
294.142
294.861
295.991
297.738
300.384
304.3
309.946
317.843
328.533
342.498
360.086
381.453
406.54
435.113
466.822
501.27
538.077
576.908
617.489
659.625
703.153
747.891
793.777
840.716
888.611
937.355
986.823
1036.94
1087.73
1139.12
1190.99
1243.24
1295.77
1348.48
1401.25
1453.97
1506.53
1558.82
1610.72
1662.1
1712.87
1762.87
1811.99
1860.07
1906.92
1952.3
1995.9
2037.23
2075.6
2109.32
2137.21
2157.64
2165.56
2154.06
2111.5
2030.8
1927.17
1809.95
1685.1
1556.52
1426.87
1297.99
1171.34
1048.15
929.596
816.65
710.687
613.63
527.801
455.485
398.324
356.608
328.815
311.928
302.482
297.559
295.132
293.975
293.437
293.193
293.084
293.036
293.015
293.006
293.003
293.001
293
293
293
293
293
293
293.004
293.017
293.039
293.077
293.139
293.243
293.414
293.693
294.143
294.862
295.989
297.729
300.358
304.241
309.826
317.626
328.17
341.934
359.266
380.329
405.081
433.308
464.676
498.808
535.332
573.92
614.309
656.301
699.672
744.334
790.182
837.122
885.056
933.878
983.462
1033.72
1084.68
1136.27
1188.36
1240.87
1293.68
1346.68
1399.77
1452.82
1505.71
1558.35
1610.6
1662.33
1713.44
1763.78
1813.22
1861.6
1908.73
1954.35
1998.13
2039.57
2077.93
2111.25
2138.68
2158.11
2164.23
2149.62
2101.73
2017.38
1911.13
1791.98
1665.68
1536.01
1405.56
1276.16
1149.28
1026.21
908.126
796.069
691.558
596.598
513.495
444.333
390.392
351.529
325.896
310.409
301.753
297.227
294.986
293.912
293.411
293.182
293.079
293.034
293.015
293.006
293.003
293.001
293
293
293
293
293
293
293.004
293.017
293.039
293.076
293.139
293.242
293.412
293.689
294.137
294.849
295.966
297.687
300.284
304.117
309.626
317.317
327.711
341.283
358.384
379.185
403.658
431.6
462.692
496.565
532.853
571.233
611.456
653.261
696.514
741.089
786.881
833.799
881.746
930.617
980.288
1030.66
1081.78
1133.54
1185.86
1238.61
1291.7
1345.01
1398.43
1451.83
1505.1
1558.12
1610.75
1662.88
1714.38
1765.11
1814.93
1863.65
1911.09
1956.97
2000.93
2042.43
2080.66
2113.44
2140.82
2158.89
2162.73
2144.32
2090.03
2001.39
1892.18
1770.94
1643.18
1512.54
1381.51
1251.9
1125.18
1002.65
885.488
774.769
672.096
579.526
499.287
433.268
382.444
346.324
322.799
308.722
300.902
296.822
294.801
293.83
293.375
293.167
293.073
293.032
293.014
293.006
293.002
293.001
293
293
293
293
293
293
293.004
293.017
293.039
293.076
293.138
293.24
293.409
293.685
294.129
294.835
295.941
297.645
300.214
304.003
309.446
317.042
327.309
340.719
357.625
378.205
402.442
430.144
461.003
494.657
530.745
568.949
608.996
650.675
693.825
738.322
784.063
830.957
878.912
927.824
977.572
1028.05
1079.3
1131.23
1183.75
1236.74
1290.1
1343.7
1397.44
1451.19
1504.83
1558.22
1611.25
1663.78
1715.67
1766.8
1816.99
1866.07
1913.82
1959.96
2004.1
2045.66
2083.78
2116.18
2142.86
2159.57
2161.06
2138.67
2077.7
1984.64
1872.44
1749.18
1620.09
1488.64
1357.23
1227.65
1101.34
979.607
863.57
754.392
653.717
563.631
486.263
423.297
375.414
341.804
320.149
307.294
300.184
296.479
294.642
293.759
293.344
293.153
293.067
293.029
293.012
293.005
293.002
293.001
293
293
293
293
293
293
293.004
293.017
293.039
293.075
293.137
293.238
293.406
293.679
294.118
294.817
295.912
297.596
300.136
303.881
309.26
316.769
326.921
340.188
356.928
377.324
401.368
428.878
459.552
493.033
528.965
567.038
606.959
648.535
691.604
736.041
781.746
828.628
876.598
925.553
975.374
1025.95
1077.33
1129.42
1182.13
1235.34
1288.94
1342.83
1396.87
1450.94
1504.92
1558.67
1612.07
1664.97
1717.25
1768.74
1819.29
1868.7
1916.75
1963.13
2007.42
2049.02
2086.93
2118.92
2144.83
2160.15
2159.29
2132.96
2065.49
1968.2
1853.2
1728.1
1597.85
1465.77
1334.16
1204.75
1078.98
958.136
843.278
735.661
636.947
549.231
474.542
414.371
369.136
337.76
317.762
305.99
299.517
296.156
294.491
293.689
293.313
293.14
293.061
293.027
293.011
293.005
293.002
293.001
293
293
293
293
293
293
293.004
293.017
293.038
293.075
293.136
293.236
293.402
293.673
294.108
294.8
295.884
297.55
300.064
303.768
309.091
316.523
326.575
339.72
356.319
376.56
400.444
427.796
458.32
491.664
527.475
565.43
605.265
646.771
689.785
734.186
779.873
826.759
874.754
923.758
973.655
1024.33
1075.83
1128.07
1180.96
1234.37
1288.21
1342.35
1396.67
1451.03
1505.32
1559.4
1613.13
1666.38
1719
1770.82
1821.69
1871.4
1919.71
1966.29
2010.71
2052.32
2089.94
2121.48
2146.56
2160.46
2157.24
2127.03
2053.62
1952.54
1835.07
1708.39
1577.19
1444.63
1312.94
1183.8
1058.61
938.654
824.948
718.803
621.939
536.426
464.192
406.554
363.688
334.281
315.722
304.881
298.95
295.88
294.361
293.63
293.286
293.128
293.056
293.024
293.011
293.004
293.002
293.001
293
293
293
293
293
293
293.004
293.017
293.038
293.074
293.134
293.234
293.399
293.667
294.098
294.783
295.856
297.507
299.995
303.664
308.936
316.3
326.266
339.307
355.786
375.9
399.652
426.876
457.281
490.518
526.238
564.112
603.882
645.337
688.317
732.699
778.384
825.285
873.314
922.374
972.349
1023.13
1074.74
1127.12
1180.17
1233.78
1287.82
1342.19
1396.76
1451.39
1505.96
1560.33
1614.37
1667.92
1720.83
1772.96
1824.1
1874.06
1922.59
1969.33
2013.82
2055.38
2092.63
2123.68
2147.85
2160.17
2154.3
2119.64
2041.72
1937.67
1818.26
1690.33
1558.4
1425.52
1293.84
1165
1040.41
921.292
808.657
703.875
608.705
525.19
455.162
399.774
358.989
331.292
313.972
303.928
298.46
295.641
294.248
293.578
293.263
293.117
293.052
293.023
293.01
293.004
293.002
293.001
293
293
293
293
293
293
293.004
293.016
293.038
293.074
293.133
293.233
293.396
293.661
294.089
294.768
295.831
297.467
299.934
303.571
308.8
316.105
325.997
338.949
355.328
375.335
398.98
426.1
456.411
489.563
525.209
563.027
602.754
644.179
687.141
731.518
777.213
824.139
872.21
921.329
971.381
1022.25
1073.98
1126.5
1179.7
1233.47
1287.71
1342.28
1397.07
1451.94
1506.76
1561.39
1615.68
1669.5
1722.67
1775.05
1826.43
1876.6
1925.3
1972.16
2016.69
2058.16
2094.99
2125.51
2148.74
2159.43
2150.82
2111.5
2030.2
1923.88
1802.95
1674.07
1541.59
1408.5
1276.88
1148.37
1024.33
905.99
794.334
690.787
597.143
515.414
447.346
393.942
354.974
328.754
312.493
303.124
298.048
295.439
294.152
293.533
293.242
293.109
293.048
293.021
293.009
293.004
293.002
293.001
293
293
293
293
293
293
293.004
293.016
293.038
293.073
293.132
293.231
293.393
293.656
294.08
294.754
295.809
297.432
299.879
303.489
308.68
315.935
325.764
338.642
354.938
374.857
398.415
425.453
455.689
488.78
524.371
562.148
601.845
643.252
686.208
730.591
776.304
823.26
871.376
920.555
970.683
1021.65
1073.48
1126.11
1179.45
1233.38
1287.79
1342.54
1397.52
1452.6
1507.64
1562.49
1617.01
1671.05
1724.45
1777.04
1828.62
1878.97
1927.8
1974.75
2019.29
2060.67
2097.06
2127.09
2149.42
2158.59
2147.42
2103.79
2019.66
1911.46
1789.3
1659.64
1526.75
1393.51
1261.99
1133.79
1010.28
892.628
781.852
679.407
587.12
506.973
440.629
388.957
351.561
326.607
311.245
302.446
297.7
295.269
294.071
293.496
293.225
293.101
293.045
293.019
293.008
293.004
293.002
293.001
293
293
293
293
293
293
293.004
293.016
293.037
293.073
293.132
293.229
293.39
293.651
294.073
294.742
295.79
297.401
299.832
303.419
308.577
315.79
325.566
338.382
354.609
374.456
397.943
424.914
455.092
488.133
523.687
561.437
601.117
642.516
685.475
729.87
775.605
822.596
870.758
919.996
970.195
1021.24
1073.17
1125.92
1179.38
1233.45
1288
1342.91
1398.07
1453.32
1508.55
1563.59
1618.3
1672.53
1726.12
1778.89
1830.63
1881.13
1930.08
1977.1
2021.64
2062.93
2098.93
2128.48
2150
2157.8
2144.36
2096.92
2010.32
1900.51
1777.31
1647.01
1513.78
1380.45
1249.04
1121.14
998.09
881.05
771.054
669.583
578.49
499.729
434.889
384.72
348.677
324.801
310.2
301.88
297.409
295.126
294.003
293.464
293.211
293.094
293.042
293.018
293.008
293.003
293.001
293.001
293
293
293
293
293
293
293.004
293.016
293.037
293.072
293.131
293.228
293.387
293.648
294.066
294.731
295.773
297.375
299.792
303.358
308.49
315.667
325.4
338.164
354.335
374.123
397.553
424.473
454.606
487.61
523.137
560.868
600.538
641.937
684.903
729.315
775.076
822.102
870.309
919.602
969.868
1020.99
1073.01
1125.85
1179.43
1233.61
1288.29
1343.35
1398.65
1454.06
1509.43
1564.64
1619.51
1673.91
1727.65
1780.56
1832.44
1883.05
1932.09
1979.16
2023.71
2064.9
2100.53
2129.7
2150.51
2157.12
2141.68
2090.89
2002.16
1890.96
1766.87
1636.05
1502.56
1369.16
1237.87
1110.23
987.603
871.099
761.786
661.166
571.114
493.557
430.018
381.141
346.252
323.29
309.327
301.408
297.167
295.008
293.947
293.438
293.199
293.089
293.039
293.017
293.007
293.003
293.001
293.001
293
293
293
293
293
293
293.004
293.016
293.037
293.072
293.13
293.227
293.386
293.644
294.061
294.722
295.758
297.353
299.758
303.308
308.416
315.564
325.261
337.984
354.108
373.85
397.234
424.114
454.213
487.189
522.697
560.417
600.083
641.486
684.463
728.893
774.68
821.74
869.989
919.333
969.659
1020.85
1072.94
1125.88
1179.54
1233.83
1288.63
1343.8
1399.22
1454.76
1510.27
1565.61
1620.62
1675.14
1729.01
1782.03
1834.02
1884.71
1933.82
1980.92
2025.45
2066.57
2101.9
2130.78
2150.99
2156.56
2139.37
2085.66
1995.08
1882.7
1757.88
1626.63
1492.93
1359.5
1228.32
1100.93
978.665
862.623
753.904
654.019
564.864
488.342
425.917
378.139
344.227
322.033
308.604
301.018
296.967
294.91
293.9
293.416
293.189
293.085
293.037
293.016
293.007
293.003
293.001
293.001
293
293
293
293
293
293
293.004
293.016
293.037
293.071
293.13
293.226
293.384
293.641
294.056
294.715
295.747
297.334
299.73
303.266
308.356
315.48
325.147
337.836
353.924
373.627
396.976
423.823
453.896
486.853
522.348
560.062
599.728
641.137
684.127
728.576
774.388
821.48
869.767
919.157
969.536
1020.79
1072.95
1125.96
1179.7
1234.08
1288.97
1344.24
1399.77
1455.41
1511.04
1566.48
1621.6
1676.23
1730.19
1783.31
1835.37
1886.12
1935.26
1982.35
2026.81
2067.77
2102.72
2132.1
2151.63
2156.19
2137.45
2081.2
1989.04
1875.67
1750.24
1618.64
1484.78
1351.35
1220.27
1093.09
971.142
855.494
747.28
648.021
559.628
483.983
422.499
375.648
342.553
320.997
308.01
300.697
296.803
294.829
293.861
293.398
293.181
293.081
293.036
293.016
293.007
293.003
293.001
293.001
293
293
293
293
293
293
293.004
293.016
293.037
293.071
293.129
293.225
293.382
293.639
294.052
294.709
295.737
297.319
299.707
303.232
308.307
315.412
325.056
337.717
353.775
373.45
396.771
423.594
453.647
486.59
522.076
559.787
599.456
640.872
683.875
728.341
774.176
821.296
869.618
919.048
969.472
1020.78
1072.99
1126.06
1179.88
1234.33
1289.3
1344.65
1400.27
1456
1511.71
1567.24
1622.45
1677.16
1731.21
1784.4
1836.52
1887.32
1936.49
1983.59
2028.02
2068.91
2103.72
2132.91
2152
2155.82
2135.82
2077.48
1984.02
1869.83
1743.9
1612.02
1478.03
1344.59
1213.6
1086.61
964.92
849.601
741.808
643.071
555.313
480.396
419.694
373.609
341.187
320.155
307.527
300.438
296.67
294.764
293.83
293.384
293.174
293.078
293.034
293.015
293.007
293.003
293.001
293.001
293
293
293
293
293
293
293.004
293.016
293.036
293.071
293.129
293.224
293.381
293.637
294.049
294.704
295.729
297.307
299.688
303.205
308.268
315.358
324.983
337.623
353.659
373.311
396.611
423.416
453.454
486.388
521.868
559.578
599.251
640.674
683.688
728.171
774.026
821.17
869.521
918.984
969.446
1020.79
1073.06
1126.18
1180.05
1234.56
1289.59
1345.01
1400.7
1456.5
1512.28
1567.89
1623.17
1677.95
1732.06
1785.31
1837.48
1888.33
1937.52
1984.62
2029.04
2069.87
2104.58
2133.56
2152.29
2155.49
2134.49
2074.49
1979.98
1865.13
1738.79
1606.67
1472.59
1339.14
1208.23
1081.37
959.901
844.847
737.396
639.082
551.839
477.514
417.443
371.975
340.096
319.483
307.143
300.231
296.564
294.712
293.806
293.372
293.169
293.076
293.033
293.015
293.006
293.003
293.001
293.001
293
293
293
293
293
293
293.004
293.016
293.036
293.071
293.128
293.224
293.38
293.636
294.047
294.7
295.723
297.298
299.674
303.184
308.238
315.316
324.928
337.552
353.571
373.205
396.49
423.281
453.309
486.236
521.714
559.424
599.1
640.531
683.555
728.051
773.922
821.087
869.461
918.951
969.443
1020.82
1073.12
1126.29
1180.2
1234.76
1289.84
1345.32
1401.05
1456.91
1512.75
1568.41
1623.74
1678.58
1732.74
1786.03
1838.25
1889.12
1938.34
1985.45
2029.85
2070.64
2105.25
2134.06
2152.5
2155.24
2133.45
2072.16
1976.84
1861.47
1734.82
1602.52
1468.36
1334.9
1204.04
1077.31
956
841.153
733.966
635.984
549.144
475.28
415.701
370.713
339.253
318.964
306.847
300.072
296.483
294.672
293.786
293.363
293.165
293.074
293.033
293.014
293.006
293.003
293.001
293.001
293
293
293
293
293
293
293.004
293.016
293.036
293.071
293.128
293.223
293.38
293.635
294.045
294.697
295.719
297.291
299.664
303.169
308.217
315.287
324.888
337.501
353.507
373.13
396.403
423.185
453.207
486.129
521.605
559.316
598.995
640.431
683.463
727.97
773.854
821.033
869.425
918.936
969.451
1020.86
1073.19
1126.38
1180.33
1234.92
1290.04
1345.55
1401.33
1457.23
1513.11
1568.81
1624.18
1679.05
1733.25
1786.58
1838.82
1889.72
1938.95
1986.07
2030.46
2071.21
2105.75
2134.43
2152.66
2155.05
2132.7
2070.46
1974.54
1858.8
1731.91
1599.48
1465.26
1331.79
1200.98
1074.33
953.143
838.449
731.455
633.718
547.176
473.651
414.433
369.796
338.64
318.587
306.63
299.955
296.423
294.643
293.772
293.357
293.162
293.072
293.032
293.014
293.006
293.003
293.001
293
293
293
293
293
293
293
293.004
293.016
293.036
293.071
293.128
293.223
293.379
293.634
294.044
294.696
295.716
297.286
299.657
303.159
308.203
315.267
324.862
337.468
353.466
373.081
396.347
423.124
453.141
486.061
521.535
559.247
598.929
640.369
683.407
727.92
773.813
821.003
869.406
918.93
969.46
1020.88
1073.23
1126.44
1180.42
1235.03
1290.17
1345.71
1401.51
1457.44
1513.34
1569.07
1624.47
1679.37
1733.59
1786.94
1839.2
1890.12
1939.36
1986.48
2030.86
2071.59
2106.08
2134.68
2152.77
2154.93
2132.2
2069.34
1973.03
1857.05
1730
1597.49
1463.23
1329.76
1198.98
1072.38
951.274
836.68
729.814
632.239
545.893
472.593
413.612
369.204
338.246
318.343
306.49
299.879
296.384
294.624
293.763
293.352
293.16
293.072
293.032
293.014
293.006
293.003
293.001
293
293
293
293
293
293
293
293.004
293.016
293.036
293.071
293.128
293.223
293.379
293.634
294.043
294.695
295.715
297.284
299.654
303.154
308.196
315.258
324.85
337.452
353.447
373.058
396.321
423.095
453.11
486.028
521.503
559.215
598.898
640.34
683.38
727.897
773.794
820.989
869.398
918.928
969.466
1020.9
1073.25
1126.48
1180.46
1235.09
1290.24
1345.79
1401.6
1457.54
1513.46
1569.21
1624.62
1679.52
1733.76
1787.12
1839.39
1890.31
1939.56
1986.68
2031.06
2071.77
2106.24
2134.8
2152.82
2154.87
2131.96
2068.79
1972.29
1856.19
1729.07
1596.52
1462.23
1328.77
1198
1071.43
950.365
835.822
729.022
631.528
545.279
472.089
413.223
368.926
338.062
318.23
306.425
299.844
296.366
294.615
293.759
293.35
293.159
293.071
293.031
293.014
293.006
293.003
293.001
293
293
293
293
293
293
293
293.004
293.016
293.036
293.071
293.128
293.223
293.379
293.634
294.043
294.695
295.715
297.284
299.654
303.154
308.196
315.258
324.85
337.452
353.447
373.058
396.321
423.095
453.11
486.028
521.503
559.215
598.898
640.34
683.38
727.897
773.794
820.989
869.398
918.928
969.466
1020.9
1073.25
1126.48
1180.46
1235.09
1290.24
1345.79
1401.6
1457.54
1513.46
1569.21
1624.62
1679.52
1733.76
1787.12
1839.39
1890.31
1939.56
1986.68
2031.06
2071.77
2106.24
2134.8
2152.82
2154.87
2131.96
2068.79
1972.29
1856.19
1729.07
1596.52
1462.23
1328.77
1198
1071.43
950.365
835.822
729.021
631.528
545.279
472.089
413.223
368.926
338.062
318.23
306.425
299.844
296.366
294.615
293.759
293.35
293.159
293.071
293.031
293.014
293.006
293.003
293.001
293
293
293
293
293
293
293
293.004
293.016
293.036
293.071
293.128
293.223
293.379
293.634
294.044
294.696
295.716
297.286
299.657
303.159
308.203
315.267
324.862
337.468
353.466
373.081
396.347
423.124
453.141
486.061
521.535
559.247
598.929
640.369
683.407
727.92
773.813
821.003
869.406
918.93
969.46
1020.88
1073.23
1126.44
1180.42
1235.03
1290.17
1345.71
1401.51
1457.44
1513.34
1569.07
1624.47
1679.37
1733.59
1786.94
1839.2
1890.12
1939.36
1986.48
2030.86
2071.59
2106.08
2134.68
2152.77
2154.93
2132.2
2069.34
1973.03
1857.04
1730
1597.49
1463.23
1329.76
1198.98
1072.38
951.273
836.68
729.814
632.239
545.893
472.593
413.612
369.204
338.246
318.343
306.49
299.879
296.384
294.624
293.763
293.352
293.16
293.072
293.032
293.014
293.006
293.003
293.001
293
293
293
293
293
293
293
293.004
293.016
293.036
293.071
293.128
293.223
293.38
293.635
294.045
294.697
295.719
297.291
299.664
303.169
308.217
315.287
324.888
337.501
353.507
373.13
396.403
423.185
453.206
486.129
521.604
559.316
598.995
640.431
683.463
727.969
773.854
821.033
869.425
918.935
969.451
1020.86
1073.19
1126.38
1180.33
1234.92
1290.04
1345.55
1401.33
1457.23
1513.1
1568.81
1624.18
1679.05
1733.25
1786.58
1838.82
1889.72
1938.95
1986.07
2030.46
2071.21
2105.75
2134.43
2152.66
2155.05
2132.7
2070.46
1974.54
1858.8
1731.91
1599.48
1465.26
1331.79
1200.98
1074.33
953.142
838.448
731.455
633.718
547.175
473.651
414.433
369.796
338.64
318.587
306.63
299.955
296.423
294.643
293.772
293.357
293.162
293.072
293.032
293.014
293.006
293.003
293.001
293
293
293
293
293
293
293
293.004
293.016
293.036
293.071
293.128
293.224
293.38
293.636
294.047
294.7
295.723
297.298
299.674
303.184
308.238
315.316
324.928
337.552
353.571
373.205
396.489
423.281
453.309
486.236
521.714
559.424
599.1
640.531
683.555
728.05
773.922
821.087
869.461
918.951
969.443
1020.82
1073.12
1126.29
1180.2
1234.76
1289.84
1345.32
1401.05
1456.91
1512.75
1568.41
1623.74
1678.58
1732.74
1786.03
1838.25
1889.12
1938.34
1985.45
2029.85
2070.64
2105.25
2134.06
2152.5
2155.24
2133.45
2072.16
1976.83
1861.47
1734.82
1602.52
1468.35
1334.9
1204.04
1077.31
955.999
841.152
733.965
635.983
549.144
475.28
415.701
370.713
339.253
318.964
306.847
300.072
296.483
294.672
293.786
293.363
293.165
293.074
293.033
293.014
293.006
293.003
293.001
293.001
293
293
293
293
293
293
293.004
293.016
293.036
293.071
293.129
293.224
293.381
293.637
294.049
294.704
295.729
297.307
299.688
303.205
308.268
315.358
324.983
337.623
353.659
373.311
396.61
423.416
453.454
486.387
521.868
559.578
599.25
640.674
683.688
728.171
774.026
821.17
869.521
918.984
969.446
1020.79
1073.06
1126.18
1180.05
1234.56
1289.59
1345.01
1400.7
1456.5
1512.28
1567.89
1623.17
1677.95
1732.06
1785.31
1837.48
1888.32
1937.52
1984.62
2029.04
2069.87
2104.58
2133.56
2152.29
2155.49
2134.49
2074.49
1979.97
1865.13
1738.79
1606.67
1472.59
1339.13
1208.22
1081.37
959.9
844.846
737.395
639.081
551.838
477.513
417.442
371.975
340.095
319.483
307.143
300.231
296.564
294.712
293.806
293.372
293.169
293.076
293.033
293.015
293.006
293.003
293.001
293.001
293
293
293
293
293
293
293.004
293.016
293.037
293.071
293.129
293.225
293.382
293.639
294.052
294.709
295.737
297.319
299.707
303.232
308.307
315.412
325.055
337.717
353.775
373.449
396.771
423.594
453.646
486.59
522.076
559.787
599.456
640.872
683.874
728.341
774.176
821.296
869.618
919.047
969.472
1020.77
1072.99
1126.06
1179.88
1234.33
1289.3
1344.65
1400.26
1456
1511.71
1567.24
1622.45
1677.16
1731.21
1784.4
1836.52
1887.32
1936.49
1983.59
2028.02
2068.91
2103.72
2132.91
2152
2155.82
2135.82
2077.48
1984.02
1869.83
1743.9
1612.01
1478.03
1344.59
1213.6
1086.6
964.919
849.599
741.807
643.069
555.312
480.396
419.693
373.608
341.187
320.155
307.527
300.438
296.67
294.764
293.83
293.384
293.174
293.078
293.034
293.015
293.007
293.003
293.001
293.001
293
293
293
293
293
293
293.004
293.016
293.037
293.071
293.13
293.226
293.384
293.641
294.056
294.715
295.747
297.334
299.73
303.266
308.356
315.48
325.147
337.836
353.923
373.627
396.976
423.823
453.896
486.853
522.348
560.061
599.728
641.137
684.127
728.575
774.387
821.479
869.767
919.157
969.535
1020.79
1072.95
1125.96
1179.7
1234.08
1288.97
1344.24
1399.77
1455.41
1511.03
1566.48
1621.6
1676.23
1730.19
1783.31
1835.37
1886.12
1935.26
1982.35
2026.81
2067.77
2102.72
2132.1
2151.63
2156.19
2137.45
2081.2
1989.04
1875.67
1750.24
1618.64
1484.78
1351.34
1220.27
1093.09
971.14
855.493
747.279
648.019
559.627
483.982
422.498
375.647
342.553
320.997
308.01
300.697
296.803
294.829
293.861
293.398
293.181
293.081
293.036
293.016
293.007
293.003
293.001
293.001
293
293
293
293
293
293
293.004
293.016
293.037
293.072
293.13
293.227
293.385
293.644
294.061
294.722
295.758
297.353
299.758
303.308
308.416
315.564
325.261
337.984
354.108
373.849
397.234
424.113
454.212
487.189
522.696
560.416
600.083
641.485
684.462
728.893
774.68
821.74
869.989
919.333
969.659
1020.85
1072.94
1125.88
1179.54
1233.83
1288.62
1343.8
1399.22
1454.76
1510.27
1565.61
1620.62
1675.14
1729.01
1782.03
1834.02
1884.71
1933.81
1980.92
2025.45
2066.57
2101.9
2130.78
2150.99
2156.56
2139.37
2085.66
1995.08
1882.7
1757.88
1626.62
1492.93
1359.5
1228.32
1100.93
978.662
862.621
753.902
654.017
564.862
488.34
425.915
378.139
344.227
322.033
308.604
301.018
296.967
294.91
293.9
293.416
293.189
293.085
293.037
293.016
293.007
293.003
293.001
293.001
293
293
293
293
293
293
293.004
293.016
293.037
293.072
293.131
293.228
293.387
293.648
294.066
294.731
295.773
297.375
299.792
303.358
308.489
315.667
325.4
338.164
354.335
374.123
397.553
424.473
454.606
487.61
523.136
560.868
600.538
641.937
684.903
729.315
775.076
822.102
870.308
919.602
969.867
1020.99
1073.01
1125.85
1179.43
1233.61
1288.29
1343.35
1398.65
1454.05
1509.43
1564.64
1619.51
1673.9
1727.65
1780.56
1832.44
1883.05
1932.09
1979.16
2023.7
2064.9
2100.53
2129.7
2150.51
2157.11
2141.67
2090.89
2002.15
1890.96
1766.87
1636.05
1502.55
1369.16
1237.86
1110.23
987.6
871.096
761.784
661.164
571.112
493.556
430.017
381.14
346.251
323.289
309.327
301.408
297.167
295.008
293.947
293.438
293.199
293.089
293.039
293.017
293.007
293.003
293.001
293.001
293
293
293
293
293
293
293.004
293.016
293.037
293.073
293.132
293.229
293.39
293.651
294.073
294.742
295.79
297.401
299.832
303.418
308.577
315.79
325.566
338.382
354.609
374.456
397.942
424.914
455.091
488.132
523.686
561.436
601.116
642.516
685.474
729.869
775.605
822.596
870.758
919.995
970.195
1021.24
1073.17
1125.92
1179.38
1233.45
1288
1342.91
1398.07
1453.32
1508.54
1563.59
1618.3
1672.53
1726.12
1778.89
1830.63
1881.12
1930.07
1977.1
2021.64
2062.93
2098.92
2128.48
2150
2157.8
2144.36
2096.91
2010.32
1900.51
1777.3
1647.01
1513.78
1380.45
1249.04
1121.13
998.086
881.047
771.051
669.58
578.488
499.727
434.888
384.719
348.676
324.801
310.199
301.88
297.409
295.126
294.003
293.464
293.211
293.094
293.042
293.018
293.008
293.003
293.001
293.001
293
293
293
293
293
293
293.004
293.016
293.038
293.073
293.132
293.231
293.393
293.656
294.08
294.754
295.809
297.432
299.879
303.489
308.68
315.935
325.764
338.642
354.938
374.857
398.414
425.452
455.688
488.78
524.371
562.148
601.845
643.252
686.208
730.591
776.303
823.26
871.376
920.555
970.682
1021.64
1073.48
1126.11
1179.45
1233.38
1287.79
1342.54
1397.52
1452.6
1507.64
1562.49
1617.01
1671.05
1724.45
1777.04
1828.62
1878.97
1927.8
1974.75
2019.29
2060.67
2097.06
2127.08
2149.42
2158.59
2147.41
2103.79
2019.66
1911.46
1789.3
1659.64
1526.75
1393.51
1261.99
1133.79
1010.28
892.624
781.848
679.404
587.117
506.97
440.627
388.956
351.56
326.606
311.245
302.446
297.7
295.269
294.071
293.496
293.225
293.101
293.045
293.019
293.008
293.004
293.002
293.001
293
293
293
293
293
293
293.004
293.016
293.038
293.074
293.133
293.233
293.396
293.661
294.089
294.768
295.831
297.467
299.934
303.571
308.799
316.105
325.997
338.949
355.328
375.335
398.98
426.1
456.41
489.563
525.208
563.027
602.753
644.178
687.14
731.518
777.212
824.138
872.209
921.328
971.38
1022.25
1073.98
1126.49
1179.7
1233.47
1287.71
1342.28
1397.07
1451.94
1506.76
1561.38
1615.68
1669.5
1722.67
1775.05
1826.43
1876.6
1925.3
1972.16
2016.68
2058.16
2094.98
2125.51
2148.74
2159.43
2150.81
2111.5
2030.19
1923.87
1802.95
1674.06
1541.59
1408.49
1276.88
1148.36
1024.33
905.986
794.33
690.783
597.139
515.412
447.344
393.94
354.973
328.753
312.492
303.123
298.048
295.439
294.152
293.533
293.242
293.109
293.048
293.021
293.009
293.004
293.002
293.001
293
293
293
293
293
293
293.004
293.017
293.038
293.074
293.134
293.234
293.399
293.667
294.098
294.783
295.856
297.507
299.995
303.664
308.936
316.3
326.266
339.307
355.786
375.899
399.652
426.875
457.28
490.517
526.238
564.112
603.881
645.337
688.317
732.698
778.383
825.284
873.314
922.374
972.348
1023.13
1074.74
1127.12
1180.17
1233.78
1287.82
1342.19
1396.76
1451.39
1505.96
1560.33
1614.37
1667.92
1720.83
1772.95
1824.1
1874.06
1922.58
1969.33
2013.82
2055.38
2092.63
2123.67
2147.84
2160.17
2154.29
2119.63
2041.71
1937.67
1818.25
1690.33
1558.4
1425.52
1293.83
1165
1040.4
921.287
808.653
703.871
608.702
525.187
455.159
399.772
358.987
331.291
313.972
303.927
298.46
295.641
294.248
293.578
293.263
293.117
293.052
293.023
293.01
293.004
293.002
293.001
293
293
293
293
293
293
293.004
293.017
293.038
293.075
293.136
293.236
293.402
293.673
294.108
294.8
295.884
297.55
300.064
303.768
309.091
316.522
326.575
339.72
356.318
376.56
400.444
427.795
458.319
491.663
527.475
565.43
605.265
646.77
689.785
734.185
779.872
826.758
874.753
923.758
973.655
1024.33
1075.83
1128.07
1180.96
1234.37
1288.21
1342.35
1396.67
1451.03
1505.32
1559.4
1613.13
1666.38
1719
1770.82
1821.69
1871.4
1919.71
1966.29
2010.71
2052.31
2089.93
2121.48
2146.56
2160.46
2157.23
2127.03
2053.62
1952.53
1835.06
1708.38
1577.18
1444.63
1312.94
1183.79
1058.61
938.649
824.943
718.799
621.934
536.422
464.189
406.552
363.686
334.28
315.721
304.881
298.95
295.88
294.361
293.63
293.286
293.128
293.056
293.024
293.011
293.004
293.002
293.001
293
293
293
293
293
293
293.004
293.017
293.039
293.075
293.137
293.238
293.406
293.679
294.118
294.817
295.912
297.596
300.136
303.881
309.26
316.769
326.92
340.188
356.927
377.324
401.368
428.877
459.551
493.032
528.964
567.037
606.958
648.534
691.603
736.04
781.745
828.627
876.597
925.552
975.374
1025.95
1077.33
1129.42
1182.13
1235.34
1288.94
1342.83
1396.87
1450.94
1504.92
1558.67
1612.07
1664.97
1717.24
1768.74
1819.28
1868.7
1916.75
1963.13
2007.42
2049.02
2086.93
2118.92
2144.83
2160.15
2159.29
2132.96
2065.48
1968.19
1853.19
1728.09
1597.84
1465.76
1334.15
1204.75
1078.98
958.13
843.272
735.655
636.942
549.227
474.538
414.368
369.134
337.758
317.761
305.989
299.516
296.156
294.491
293.689
293.313
293.14
293.061
293.027
293.011
293.005
293.002
293.001
293
293
293
293
293
293
293.004
293.017
293.039
293.076
293.138
293.24
293.409
293.685
294.129
294.835
295.941
297.645
300.214
304.003
309.446
317.042
327.309
340.718
357.624
378.204
402.441
430.143
461.003
494.656
530.744
568.949
608.995
650.674
693.824
738.321
784.062
830.956
878.911
927.823
977.571
1028.05
1079.3
1131.23
1183.75
1236.74
1290.1
1343.7
1397.44
1451.19
1504.83
1558.22
1611.25
1663.78
1715.67
1766.79
1816.99
1866.07
1913.82
1959.96
2004.1
2045.65
2083.78
2116.17
2142.86
2159.56
2161.06
2138.67
2077.69
1984.63
1872.44
1749.18
1620.08
1488.63
1357.23
1227.65
1101.34
979.6
863.563
754.386
653.712
563.626
486.259
423.294
375.412
341.803
320.148
307.293
300.183
296.479
294.642
293.759
293.344
293.153
293.067
293.029
293.012
293.005
293.002
293.001
293
293
293
293
293
293
293.004
293.017
293.039
293.076
293.139
293.242
293.412
293.689
294.137
294.849
295.966
297.687
300.284
304.117
309.626
317.316
327.711
341.283
358.384
379.184
403.657
431.599
462.691
496.564
532.853
571.232
611.455
653.26
696.513
741.088
786.881
833.798
881.745
930.616
980.288
1030.66
1081.77
1133.54
1185.86
1238.61
1291.7
1345.01
1398.43
1451.83
1505.1
1558.12
1610.75
1662.88
1714.38
1765.11
1814.92
1863.65
1911.09
1956.97
2000.93
2042.42
2080.66
2113.44
2140.82
2158.88
2162.73
2144.32
2090.03
2001.39
1892.17
1770.94
1643.17
1512.53
1381.5
1251.89
1125.17
1002.65
885.481
774.762
672.09
579.521
499.283
433.264
382.441
346.323
322.797
308.721
300.902
296.822
294.801
293.83
293.375
293.167
293.073
293.032
293.014
293.006
293.002
293.001
293
293
293
293
293
293
293.004
293.017
293.039
293.077
293.139
293.243
293.414
293.693
294.143
294.862
295.989
297.729
300.358
304.24
309.826
317.626
328.17
341.934
359.266
380.328
405.081
433.307
464.675
498.807
535.331
573.919
614.308
656.3
699.671
744.333
790.181
837.121
885.056
933.877
983.461
1033.72
1084.68
1136.27
1188.36
1240.87
1293.68
1346.68
1399.77
1452.82
1505.71
1558.35
1610.59
1662.33
1713.44
1763.78
1813.22
1861.6
1908.73
1954.35
1998.13
2039.57
2077.93
2111.25
2138.67
2158.11
2164.23
2149.62
2101.73
2017.37
1911.12
1791.97
1665.67
1536
1405.55
1276.15
1149.27
1026.2
908.118
796.062
691.551
596.592
513.49
444.329
390.389
351.527
325.895
310.408
301.753
297.227
294.986
293.912
293.411
293.182
293.079
293.034
293.015
293.006
293.003
293.001
293
293
293
293
293
293
293.004
293.017
293.039
293.077
293.139
293.242
293.413
293.691
294.142
294.861
295.991
297.738
300.384
304.3
309.945
317.843
328.532
342.497
360.086
381.452
406.539
435.112
466.821
501.269
538.076
576.907
617.488
659.624
703.152
747.89