/*--------------------------------*- C++ -*----------------------------------*\
  =========                 |
  \\      /  F ield         | OpenFOAM: The Open Source CFD Toolbox
   \\    /   O peration     | Website:  https://openfoam.org
    \\  /    A nd           | Version:  8
     \\/     M anipulation  |
\*---------------------------------------------------------------------------*/
FoamFile
{
    version     2.0;
    format      ascii;
    class       volVectorField;
    location    "0.5/fluid";
    object      U;
}
// * * * * * * * * * * * * * * * * * * * * * * * * * * * * * * * * * * * * * //

dimensions      [0 1 -1 0 0 0 0];

internalField   nonuniform List<vector> 
4000
(
(0.0999459 -0.00715414 0)
(0.0996292 -0.0212552 0)
(0.0991163 -0.0352145 0)
(0.0984076 -0.049078 0)
(0.0974984 -0.062869 0)
(0.0963737 -0.0765919 0)
(0.095014 -0.0902371 0)
(0.0934003 -0.103785 0)
(0.0915172 -0.117209 0)
(0.089357 -0.130478 0)
(0.0869257 -0.143556 0)
(0.0842534 -0.156401 0)
(0.0813913 -0.169025 0)
(0.0784006 -0.181455 0)
(0.0753488 -0.19373 0)
(0.0723003 -0.205903 0)
(0.0693022 -0.218034 0)
(0.066369 -0.230164 0)
(0.0634742 -0.242307 0)
(0.0605509 -0.254439 0)
(0.0575045 -0.266495 0)
(0.0542321 -0.278387 0)
(0.050641 -0.290012 0)
(0.0466619 -0.301269 0)
(0.0422556 -0.312054 0)
(0.0374217 -0.322253 0)
(0.03218 -0.331812 0)
(0.026557 -0.340688 0)
(0.0205822 -0.348839 0)
(0.014287 -0.356232 0)
(0.00770496 -0.362841 0)
(0.000871909 -0.368654 0)
(-0.00617602 -0.373666 0)
(-0.013405 -0.377881 0)
(-0.020783 -0.381312 0)
(-0.0282789 -0.383978 0)
(-0.0358646 -0.385904 0)
(-0.0435136 -0.387121 0)
(-0.0512011 -0.387664 0)
(-0.0589032 -0.38757 0)
(-0.0665978 -0.386882 0)
(-0.074264 -0.385644 0)
(-0.0818819 -0.3839 0)
(-0.0894325 -0.3817 0)
(-0.0968975 -0.379091 0)
(-0.104259 -0.376123 0)
(-0.111501 -0.372847 0)
(-0.118606 -0.369314 0)
(-0.125557 -0.365577 0)
(-0.132338 -0.361692 0)
(-0.138932 -0.357713 0)
(-0.145323 -0.353703 0)
(-0.151491 -0.349724 0)
(-0.157417 -0.345847 0)
(-0.163077 -0.342149 0)
(-0.168439 -0.338718 0)
(-0.173452 -0.335651 0)
(-0.178046 -0.333045 0)
(-0.182144 -0.331007 0)
(-0.185625 -0.329659 0)
(-0.188179 -0.329104 0)
(-0.18922 -0.329293 0)
(-0.188013 -0.329863 0)
(-0.184247 -0.330075 0)
(-0.178515 -0.329307 0)
(-0.171589 -0.327312 0)
(-0.163932 -0.324053 0)
(-0.155794 -0.319562 0)
(-0.147334 -0.313885 0)
(-0.13867 -0.307071 0)
(-0.1299 -0.299169 0)
(-0.121114 -0.290229 0)
(-0.112397 -0.280304 0)
(-0.103837 -0.269452 0)
(-0.0955635 -0.257734 0)
(-0.0877923 -0.245244 0)
(-0.0808317 -0.232133 0)
(-0.0750675 -0.218774 0)
(-0.0709264 -0.205747 0)
(-0.0687174 -0.193553 0)
(-0.0684491 -0.182444 0)
(-0.069812 -0.172321 0)
(-0.0723173 -0.162861 0)
(-0.0754558 -0.153721 0)
(-0.0788059 -0.144659 0)
(-0.0820818 -0.135543 0)
(-0.0851222 -0.126321 0)
(-0.087846 -0.116971 0)
(-0.0902089 -0.107482 0)
(-0.0922206 -0.0979494 0)
(-0.0939125 -0.0884102 0)
(-0.0953216 -0.0788927 0)
(-0.0964834 -0.0694184 0)
(-0.097431 -0.0600021 0)
(-0.0981937 -0.0506512 0)
(-0.0987975 -0.0413653 0)
(-0.0992642 -0.0321368 0)
(-0.0996104 -0.0229509 0)
(-0.0998471 -0.0137851 0)
(-0.0999828 -0.00460921 0)
(0.100007 -0.00662176 0)
(0.0998051 -0.0198233 0)
(0.0993733 -0.0329446 0)
(0.0986858 -0.04596 0)
(0.0977471 -0.0588457 0)
(0.0965557 -0.0715751 0)
(0.0951044 -0.0841179 0)
(0.093387 -0.096441 0)
(0.0914027 -0.108512 0)
(0.08916 -0.120308 0)
(0.0866807 -0.131828 0)
(0.0840038 -0.143106 0)
(0.081183 -0.154148 0)
(0.0782826 -0.164985 0)
(0.0753719 -0.175676 0)
(0.0725149 -0.186299 0)
(0.0697564 -0.196937 0)
(0.067108 -0.207665 0)
(0.0645387 -0.218523 0)
(0.0619753 -0.229513 0)
(0.0593145 -0.240587 0)
(0.0564413 -0.251661 0)
(0.0532493 -0.262631 0)
(0.0496549 -0.273387 0)
(0.0456056 -0.283831 0)
(0.0410786 -0.293895 0)
(0.0360816 -0.303471 0)
(0.0306382 -0.312461 0)
(0.0247801 -0.320798 0)
(0.018544 -0.328434 0)
(0.0119702 -0.335341 0)
(0.0051005 -0.3415 0)
(-0.00202224 -0.346908 0)
(-0.00935822 -0.351566 0)
(-0.0168717 -0.355486 0)
(-0.0245273 -0.358686 0)
(-0.032293 -0.361188 0)
(-0.0401398 -0.363021 0)
(-0.0480407 -0.364215 0)
(-0.0559704 -0.364806 0)
(-0.0639056 -0.364831 0)
(-0.0718243 -0.364332 0)
(-0.0797059 -0.363349 0)
(-0.0875312 -0.361927 0)
(-0.0952819 -0.360111 0)
(-0.102941 -0.357948 0)
(-0.110491 -0.355487 0)
(-0.117917 -0.352775 0)
(-0.125203 -0.349862 0)
(-0.132335 -0.3468 0)
(-0.1393 -0.343642 0)
(-0.146082 -0.340441 0)
(-0.152668 -0.337253 0)
(-0.159044 -0.334136 0)
(-0.165193 -0.331147 0)
(-0.17109 -0.328344 0)
(-0.176687 -0.325784 0)
(-0.181919 -0.323509 0)
(-0.186716 -0.321553 0)
(-0.190944 -0.319925 0)
(-0.194264 -0.318581 0)
(-0.195876 -0.317425 0)
(-0.194921 -0.3161 0)
(-0.191066 -0.314322 0)
(-0.185073 -0.311826 0)
(-0.177833 -0.308434 0)
(-0.169857 -0.304035 0)
(-0.161403 -0.298565 0)
(-0.15262 -0.291987 0)
(-0.14361 -0.284285 0)
(-0.134452 -0.27546 0)
(-0.125217 -0.26553 0)
(-0.115965 -0.254542 0)
(-0.106764 -0.242588 0)
(-0.0977478 -0.22984 0)
(-0.089177 -0.216604 0)
(-0.0814468 -0.203382 0)
(-0.0750565 -0.190692 0)
(-0.0704894 -0.178952 0)
(-0.0680147 -0.168481 0)
(-0.0675484 -0.159309 0)
(-0.0687091 -0.151169 0)
(-0.0709929 -0.143648 0)
(-0.0739169 -0.136371 0)
(-0.0770955 -0.129087 0)
(-0.0802672 -0.121668 0)
(-0.0832788 -0.114071 0)
(-0.0860519 -0.106305 0)
(-0.0885541 -0.0984065 0)
(-0.0907636 -0.0903086 0)
(-0.0926867 -0.0820341 0)
(-0.0943375 -0.0736213 0)
(-0.0957344 -0.0651063 0)
(-0.0968982 -0.0565193 0)
(-0.0978498 -0.0478838 0)
(-0.0986092 -0.0392166 0)
(-0.0991931 -0.0305283 0)
(-0.0996121 -0.0218243 0)
(-0.0998736 -0.0131058 0)
(-0.0999991 -0.00437239 0)
(0.099977 -0.00636088 0)
(0.0997054 -0.0190127 0)
(0.0991742 -0.0315749 0)
(0.0983667 -0.0440258 0)
(0.097287 -0.0563415 0)
(0.0959371 -0.0684971 0)
(0.0943178 -0.0804669 0)
(0.0924343 -0.0922253 0)
(0.0902991 -0.103748 0)
(0.087935 -0.115017 0)
(0.0853747 -0.126019 0)
(0.08266 -0.136754 0)
(0.0798428 -0.147239 0)
(0.076988 -0.15751 0)
(0.0741654 -0.167626 0)
(0.0714396 -0.177662 0)
(0.0688553 -0.187699 0)
(0.0664239 -0.197809 0)
(0.0641141 -0.208038 0)
(0.0618519 -0.218392 0)
(0.0595315 -0.228838 0)
(0.0570336 -0.239303 0)
(0.0542451 -0.249695 0)
(0.0510745 -0.25991 0)
(0.0474579 -0.269846 0)
(0.0433571 -0.279408 0)
(0.0387583 -0.288517 0)
(0.0336711 -0.297105 0)
(0.0281213 -0.305118 0)
(0.0221453 -0.31251 0)
(0.0157844 -0.319252 0)
(0.00908059 -0.32532 0)
(0.00207582 -0.330705 0)
(-0.00518746 -0.335405 0)
(-0.0126705 -0.339425 0)
(-0.0203383 -0.342778 0)
(-0.0281566 -0.345482 0)
(-0.0360948 -0.34756 0)
(-0.0441249 -0.349039 0)
(-0.0522205 -0.349949 0)
(-0.0603572 -0.350325 0)
(-0.0685124 -0.350202 0)
(-0.0766652 -0.34962 0)
(-0.0847958 -0.348617 0)
(-0.0928864 -0.347235 0)
(-0.10092 -0.345518 0)
(-0.108882 -0.343508 0)
(-0.116757 -0.341251 0)
(-0.124532 -0.338792 0)
(-0.132196 -0.336176 0)
(-0.13974 -0.33345 0)
(-0.147154 -0.33066 0)
(-0.154429 -0.327852 0)
(-0.161557 -0.32507 0)
(-0.168525 -0.322357 0)
(-0.17531 -0.319751 0)
(-0.181858 -0.317281 0)
(-0.188094 -0.314965 0)
(-0.193934 -0.312808 0)
(-0.199179 -0.310788 0)
(-0.203352 -0.308832 0)
(-0.205507 -0.306817 0)
(-0.204648 -0.304457 0)
(-0.200565 -0.301572 0)
(-0.19414 -0.298022 0)
(-0.186336 -0.29369 0)
(-0.177713 -0.288483 0)
(-0.16856 -0.282336 0)
(-0.159042 -0.275215 0)
(-0.149263 -0.267109 0)
(-0.139299 -0.258036 0)
(-0.129214 -0.248049 0)
(-0.119062 -0.237238 0)
(-0.108923 -0.22574 0)
(-0.098968 -0.213758 0)
(-0.089527 -0.201578 0)
(-0.0810865 -0.189562 0)
(-0.0742149 -0.178122 0)
(-0.0693886 -0.167637 0)
(-0.0667946 -0.158324 0)
(-0.0662547 -0.150139 0)
(-0.0673336 -0.142801 0)
(-0.069518 -0.135942 0)
(-0.0723402 -0.129241 0)
(-0.0754342 -0.122483 0)
(-0.0785511 -0.11556 0)
(-0.0815447 -0.108428 0)
(-0.0843413 -0.101086 0)
(-0.0869117 -0.0935535 0)
(-0.0892432 -0.0858596 0)
(-0.0913271 -0.0780275 0)
(-0.0931633 -0.0700784 0)
(-0.0947575 -0.062032 0)
(-0.0961189 -0.0539064 0)
(-0.0972587 -0.0457174 0)
(-0.0981887 -0.037478 0)
(-0.0989194 -0.0291985 0)
(-0.0994579 -0.0208868 0)
(-0.0998083 -0.0125489 0)
(-0.0999873 -0.00418902 0)
(0.0999844 -0.00599627 0)
(0.0997133 -0.0179244 0)
(0.0991713 -0.0297582 0)
(0.0983403 -0.0414696 0)
(0.0972291 -0.0530308 0)
(0.0958447 -0.0644137 0)
(0.0941933 -0.0755911 0)
(0.092284 -0.0865371 0)
(0.0901325 -0.0972298 0)
(0.0877622 -0.107653 0)
(0.0852067 -0.117801 0)
(0.0825109 -0.127681 0)
(0.0797318 -0.137314 0)
(0.0769361 -0.146742 0)
(0.0741943 -0.156027 0)
(0.0715705 -0.165246 0)
(0.0691087 -0.174483 0)
(0.0668197 -0.183812 0)
(0.0646718 -0.193284 0)
(0.0625906 -0.202909 0)
(0.060469 -0.212662 0)
(0.058185 -0.22248 0)
(0.0556211 -0.232276 0)
(0.0526801 -0.241956 0)
(0.0492932 -0.251422 0)
(0.0454205 -0.260583 0)
(0.0410477 -0.269359 0)
(0.0361809 -0.277682 0)
(0.0308408 -0.285492 0)
(0.0250582 -0.292747 0)
(0.0188684 -0.299413 0)
(0.0123089 -0.305468 0)
(0.00541777 -0.310898 0)
(-0.00176558 -0.315699 0)
(-0.00920392 -0.319875 0)
(-0.0168635 -0.323434 0)
(-0.0247115 -0.326391 0)
(-0.0327181 -0.328765 0)
(-0.0408558 -0.330579 0)
(-0.0490987 -0.331859 0)
(-0.0574231 -0.332636 0)
(-0.0658067 -0.33294 0)
(-0.0742291 -0.332805 0)
(-0.0826714 -0.332266 0)
(-0.0911162 -0.331361 0)
(-0.0995477 -0.330126 0)
(-0.107951 -0.3286 0)
(-0.116313 -0.326821 0)
(-0.124623 -0.324829 0)
(-0.132871 -0.322661 0)
(-0.141049 -0.320356 0)
(-0.149148 -0.317951 0)
(-0.157161 -0.31548 0)
(-0.165077 -0.312975 0)
(-0.172882 -0.310464 0)
(-0.180543 -0.307968 0)
(-0.187992 -0.3055 0)
(-0.195142 -0.30306 0)
(-0.201878 -0.300639 0)
(-0.207922 -0.298201 0)
(-0.212674 -0.295669 0)
(-0.21506 -0.292911 0)
(-0.214012 -0.289707 0)
(-0.209505 -0.285913 0)
(-0.202538 -0.281459 0)
(-0.194096 -0.276283 0)
(-0.184754 -0.270327 0)
(-0.17482 -0.263547 0)
(-0.164478 -0.25592 0)
(-0.15385 -0.247449 0)
(-0.14303 -0.238164 0)
(-0.132099 -0.228127 0)
(-0.121139 -0.217441 0)
(-0.110265 -0.206251 0)
(-0.0997096 -0.194766 0)
(-0.0898546 -0.183268 0)
(-0.0812086 -0.172108 0)
(-0.0743102 -0.161661 0)
(-0.0695613 -0.152244 0)
(-0.0670583 -0.143996 0)
(-0.0665562 -0.136815 0)
(-0.0675999 -0.130404 0)
(-0.0696913 -0.124409 0)
(-0.0723908 -0.118535 0)
(-0.0753603 -0.112591 0)
(-0.0783705 -0.106476 0)
(-0.0812841 -0.100148 0)
(-0.0840267 -0.0936021 0)
(-0.086562 -0.0868459 0)
(-0.0888746 -0.0798955 0)
(-0.0909597 -0.0727707 0)
(-0.0928174 -0.0654932 0)
(-0.0944506 -0.058084 0)
(-0.0958637 -0.0505628 0)
(-0.0970619 -0.0429473 0)
(-0.0980511 -0.0352535 0)
(-0.0988358 -0.0274952 0)
(-0.0994176 -0.0196848 0)
(-0.0997964 -0.0118333 0)
(-0.0999886 -0.00395106 0)
(0.0999808 -0.00563896 0)
(0.0996942 -0.0168546 0)
(0.0991273 -0.0279792 0)
(0.0982636 -0.0389853 0)
(0.0971142 -0.0498451 0)
(0.0956887 -0.060532 0)
(0.0939961 -0.0710202 0)
(0.0920488 -0.0812865 0)
(0.0898656 -0.091311 0)
(0.0874735 -0.10108 0)
(0.0849091 -0.110588 0)
(0.0822199 -0.11984 0)
(0.0794649 -0.128858 0)
(0.0767117 -0.137681 0)
(0.0740309 -0.146365 0)
(0.0714863 -0.15498 0)
(0.0691219 -0.163605 0)
(0.0669488 -0.172309 0)
(0.0649358 -0.181141 0)
(0.063009 -0.190116 0)
(0.061061 -0.199216 0)
(0.0589681 -0.208387 0)
(0.0566095 -0.217556 0)
(0.0538833 -0.226637 0)
(0.0507152 -0.235542 0)
(0.04706 -0.244187 0)
(0.0428983 -0.252498 0)
(0.0382317 -0.260409 0)
(0.0330774 -0.267867 0)
(0.0274622 -0.274831 0)
(0.0214183 -0.281266 0)
(0.0149806 -0.287152 0)
(0.00818458 -0.292472 0)
(0.00106614 -0.297222 0)
(-0.00633848 -0.301401 0)
(-0.0139963 -0.305016 0)
(-0.0218776 -0.308077 0)
(-0.0299536 -0.310601 0)
(-0.0381978 -0.312607 0)
(-0.0465858 -0.314116 0)
(-0.0550947 -0.315154 0)
(-0.0637033 -0.315748 0)
(-0.0723921 -0.315926 0)
(-0.0811432 -0.315719 0)
(-0.0899395 -0.315159 0)
(-0.0987657 -0.314276 0)
(-0.107608 -0.313104 0)
(-0.116454 -0.311675 0)
(-0.125292 -0.310022 0)
(-0.134113 -0.308175 0)
(-0.142907 -0.306164 0)
(-0.151665 -0.304019 0)
(-0.160376 -0.301765 0)
(-0.169026 -0.299425 0)
(-0.177591 -0.297016 0)
(-0.186029 -0.294551 0)
(-0.194253 -0.292032 0)
(-0.202157 -0.289454 0)
(-0.209588 -0.286797 0)
(-0.216207 -0.284024 0)
(-0.221307 -0.281063 0)
(-0.223676 -0.277789 0)
(-0.222251 -0.274013 0)
(-0.217208 -0.269619 0)
(-0.209666 -0.264585 0)
(-0.200602 -0.258889 0)
(-0.190583 -0.252502 0)
(-0.179929 -0.245404 0)
(-0.168838 -0.237593 0)
(-0.157451 -0.229086 0)
(-0.145881 -0.219929 0)
(-0.134229 -0.210195 0)
(-0.122597 -0.199992 0)
(-0.111134 -0.189468 0)
(-0.100112 -0.178825 0)
(-0.0899462 -0.168321 0)
(-0.0811552 -0.158262 0)
(-0.0742515 -0.148955 0)
(-0.0695757 -0.140628 0)
(-0.0671508 -0.13334 0)
(-0.0666822 -0.126947 0)
(-0.0677018 -0.121166 0)
(-0.0697224 -0.115692 0)
(-0.0723255 -0.110285 0)
(-0.075195 -0.104791 0)
(-0.0781184 -0.0991299 0)
(-0.0809683 -0.09327 0)
(-0.0836736 -0.0872058 0)
(-0.0861966 -0.0809458 0)
(-0.0885176 -0.0745042 0)
(-0.0906269 -0.0678976 0)
(-0.0925204 -0.0611436 0)
(-0.0941971 -0.0542593 0)
(-0.0956578 -0.0472612 0)
(-0.0969044 -0.0401652 0)
(-0.0979396 -0.0329858 0)
(-0.0987653 -0.0257367 0)
(-0.0993802 -0.0184309 0)
(-0.0997822 -0.0110813 0)
(-0.0999872 -0.00370009 0)
(0.0999817 -0.00526572 0)
(0.0996938 -0.0157396 0)
(0.0991227 -0.0261266 0)
(0.0982523 -0.0363986 0)
(0.0970951 -0.0465281 0)
(0.0956625 -0.0564888 0)
(0.0939654 -0.0662559 0)
(0.0920177 -0.0758072 0)
(0.0898398 -0.0851244 0)
(0.0874595 -0.094195 0)
(0.0849142 -0.103015 0)
(0.0822519 -0.111591 0)
(0.0795312 -0.119944 0)
(0.0768196 -0.128113 0)
(0.0741872 -0.136152 0)
(0.0716978 -0.144131 0)
(0.0693958 -0.152125 0)
(0.0672934 -0.1602 0)
(0.0653614 -0.168405 0)
(0.0635277 -0.176759 0)
(0.0616863 -0.185243 0)
(0.0597137 -0.193813 0)
(0.057488 -0.202399 0)
(0.0549049 -0.210923 0)
(0.0518864 -0.219303 0)
(0.0483832 -0.227461 0)
(0.0443725 -0.235327 0)
(0.039852 -0.242841 0)
(0.0348347 -0.249952 0)
(0.0293436 -0.256618 0)
(0.0234078 -0.26281 0)
(0.0170593 -0.268503 0)
(0.0103304 -0.273684 0)
(0.00325283 -0.278345 0)
(-0.00413555 -0.282485 0)
(-0.0118036 -0.286107 0)
(-0.0197271 -0.28922 0)
(-0.0278775 -0.291837 0)
(-0.0362295 -0.293974 0)
(-0.0447598 -0.295649 0)
(-0.0534467 -0.296883 0)
(-0.0622703 -0.297699 0)
(-0.0712118 -0.298122 0)
(-0.0802534 -0.298176 0)
(-0.0893788 -0.297889 0)
(-0.0985728 -0.297287 0)
(-0.107822 -0.296397 0)
(-0.117112 -0.295246 0)
(-0.126433 -0.293859 0)
(-0.135772 -0.292264 0)
(-0.145117 -0.290482 0)
(-0.154457 -0.288536 0)
(-0.163775 -0.286445 0)
(-0.173051 -0.284224 0)
(-0.182253 -0.281887 0)
(-0.191323 -0.279439 0)
(-0.200159 -0.276878 0)
(-0.208634 -0.274193 0)
(-0.216564 -0.271366 0)
(-0.223557 -0.268359 0)
(-0.228807 -0.265106 0)
(-0.230977 -0.261487 0)
(-0.229046 -0.257332 0)
(-0.22341 -0.252561 0)
(-0.215294 -0.247183 0)
(-0.205652 -0.241199 0)
(-0.195031 -0.234605 0)
(-0.18375 -0.227397 0)
(-0.17202 -0.219588 0)
(-0.159998 -0.211208 0)
(-0.147814 -0.202308 0)
(-0.135588 -0.192966 0)
(-0.12344 -0.183284 0)
(-0.111551 -0.173404 0)
(-0.10023 -0.16351 0)
(-0.0899181 -0.153837 0)
(-0.0811349 -0.144654 0)
(-0.074361 -0.136224 0)
(-0.0698724 -0.128731 0)
(-0.0676197 -0.122199 0)
(-0.0672609 -0.116475 0)
(-0.0683156 -0.111289 0)
(-0.0703073 -0.106364 0)
(-0.0728379 -0.101483 0)
(-0.0756124 -0.0965116 0)
(-0.0784359 -0.0913774 0)
(-0.0811922 -0.0860512 0)
(-0.0838164 -0.0805272 0)
(-0.0862734 -0.0748116 0)
(-0.0885444 -0.0689163 0)
(-0.0906188 -0.062856 0)
(-0.0924909 -0.0566465 0)
(-0.0941575 -0.0503039 0)
(-0.0956169 -0.0438438 0)
(-0.0968684 -0.0372816 0)
(-0.0979121 -0.0306319 0)
(-0.0987474 -0.0239089 0)
(-0.0993711 -0.0171264 0)
(-0.0997793 -0.0102985 0)
(-0.0999874 -0.00343876 0)
(0.0999812 -0.00489304 0)
(0.0996913 -0.0146258 0)
(0.0991171 -0.0242775 0)
(0.0982429 -0.0338212 0)
(0.0970819 -0.0432311 0)
(0.0956465 -0.0524822 0)
(0.0939483 -0.0615516 0)
(0.0920024 -0.0704187 0)
(0.08983 -0.0790668 0)
(0.08746 -0.0874848 0)
(0.0849304 -0.0956691 0)
(0.0822896 -0.103626 0)
(0.0795966 -0.111377 0)
(0.0769189 -0.118956 0)
(0.0743267 -0.126413 0)
(0.0718839 -0.133814 0)
(0.0696351 -0.141226 0)
(0.0675934 -0.148714 0)
(0.0657304 -0.156323 0)
(0.0639751 -0.164072 0)
(0.062222 -0.171949 0)
(0.0603475 -0.179913 0)
(0.0582285 -0.187905 0)
(0.0557584 -0.195852 0)
(0.0528569 -0.20368 0)
(0.0494714 -0.211318 0)
(0.0455757 -0.218701 0)
(0.0411646 -0.225773 0)
(0.0362481 -0.232486 0)
(0.0308464 -0.238802 0)
(0.0249859 -0.244691 0)
(0.0186962 -0.250131 0)
(0.0120078 -0.255108 0)
(0.00495112 -0.259611 0)
(-0.00244064 -0.263639 0)
(-0.0101378 -0.267194 0)
(-0.018115 -0.270283 0)
(-0.0263464 -0.272916 0)
(-0.0348082 -0.275105 0)
(-0.0434783 -0.276865 0)
(-0.052336 -0.278214 0)
(-0.061362 -0.279171 0)
(-0.0705379 -0.279757 0)
(-0.0798463 -0.279992 0)
(-0.0892711 -0.279899 0)
(-0.0987969 -0.2795 0)
(-0.108409 -0.278817 0)
(-0.118094 -0.277871 0)
(-0.127837 -0.276685 0)
(-0.137625 -0.275278 0)
(-0.147443 -0.273669 0)
(-0.157275 -0.271874 0)
(-0.167101 -0.269909 0)
(-0.176892 -0.267786 0)
(-0.186607 -0.265511 0)
(-0.196177 -0.263089 0)
(-0.205481 -0.260515 0)
(-0.214377 -0.257778 0)
(-0.222655 -0.254859 0)
(-0.229866 -0.251723 0)
(-0.235114 -0.248303 0)
(-0.23696 -0.24448 0)
(-0.234465 -0.240114 0)
(-0.228244 -0.235167 0)
(-0.219604 -0.22966 0)
(-0.209461 -0.223609 0)
(-0.198333 -0.21702 0)
(-0.186538 -0.209905 0)
(-0.174295 -0.202285 0)
(-0.161772 -0.194197 0)
(-0.149115 -0.185699 0)
(-0.136455 -0.176866 0)
(-0.123929 -0.167799 0)
(-0.111746 -0.158628 0)
(-0.10024 -0.149526 0)
(-0.0898701 -0.140704 0)
(-0.0811492 -0.132399 0)
(-0.0745235 -0.124829 0)
(-0.0702105 -0.118131 0)
(-0.0681032 -0.112293 0)
(-0.0678282 -0.10715 0)
(-0.0689026 -0.102452 0)
(-0.0708632 -0.0979559 0)
(-0.0733299 -0.0934788 0)
(-0.0760253 -0.0889085 0)
(-0.0787678 -0.0841865 0)
(-0.0814488 -0.0792886 0)
(-0.0840077 -0.0742101 0)
(-0.0864105 -0.0689561 0)
(-0.0886381 -0.0635367 0)
(-0.0906792 -0.0579641 0)
(-0.0925269 -0.0522518 0)
(-0.0941765 -0.0464136 0)
(-0.0956251 -0.0404635 0)
(-0.0968704 -0.0344153 0)
(-0.0979113 -0.0282825 0)
(-0.0987459 -0.0220787 0)
(-0.0993699 -0.0158171 0)
(-0.0997788 -0.00951154 0)
(-0.0999873 -0.00317595 0)
(0.0999814 -0.00451918 0)
(0.0996925 -0.0135087 0)
(0.09912 -0.0224234 0)
(0.0982485 -0.0312377 0)
(0.0970915 -0.0399273 0)
(0.0956619 -0.0484689 0)
(0.0939717 -0.0568411 0)
(0.0920366 -0.0650249 0)
(0.0898782 -0.0730049 0)
(0.0875255 -0.0807711 0)
(0.0850166 -0.0883203 0)
(0.0823998 -0.0956592 0)
(0.079734 -0.102806 0)
(0.077086 -0.109795 0)
(0.0745261 -0.116673 0)
(0.0721178 -0.123498 0)
(0.0699067 -0.130336 0)
(0.0679066 -0.137247 0)
(0.0660906 -0.144273 0)
(0.0643891 -0.151435 0)
(0.0626975 -0.158721 0)
(0.0608923 -0.166097 0)
(0.0588497 -0.173507 0)
(0.0564615 -0.180887 0)
(0.0536447 -0.188169 0)
(0.0503449 -0.195287 0)
(0.046533 -0.202181 0)
(0.0422009 -0.2088 0)
(0.037356 -0.215098 0)
(0.0320162 -0.221041 0)
(0.0262057 -0.226599 0)
(0.0199519 -0.231752 0)
(0.0132837 -0.236485 0)
(0.00623007 -0.240789 0)
(-0.00117872 -0.24466 0)
(-0.00891426 -0.2481 0)
(-0.0169513 -0.251112 0)
(-0.0252656 -0.253705 0)
(-0.0338347 -0.255889 0)
(-0.0426373 -0.257676 0)
(-0.0516535 -0.259081 0)
(-0.0608642 -0.260119 0)
(-0.0702513 -0.260807 0)
(-0.0797975 -0.261164 0)
(-0.0894866 -0.261206 0)
(-0.0993024 -0.260953 0)
(-0.109229 -0.260423 0)
(-0.119252 -0.259633 0)
(-0.129354 -0.2586 0)
(-0.13952 -0.257342 0)
(-0.149732 -0.255872 0)
(-0.15997 -0.254204 0)
(-0.170207 -0.25235 0)
(-0.180411 -0.250318 0)
(-0.190532 -0.248114 0)
(-0.200486 -0.24574 0)
(-0.210141 -0.243189 0)
(-0.219341 -0.240452 0)
(-0.227846 -0.237513 0)
(-0.23515 -0.234335 0)
(-0.24026 -0.230849 0)
(-0.2417 -0.22694 0)
(-0.238665 -0.222507 0)
(-0.231935 -0.217548 0)
(-0.222845 -0.212086 0)
(-0.212275 -0.206136 0)
(-0.200726 -0.199713 0)
(-0.188512 -0.192834 0)
(-0.175859 -0.185529 0)
(-0.162944 -0.177838 0)
(-0.149923 -0.169819 0)
(-0.136937 -0.161546 0)
(-0.124136 -0.153112 0)
(-0.111753 -0.144639 0)
(-0.100146 -0.136283 0)
(-0.0897833 -0.128236 0)
(-0.0811714 -0.120705 0)
(-0.0747234 -0.113878 0)
(-0.0706041 -0.107859 0)
(-0.0686566 -0.102617 0)
(-0.068481 -0.0979862 0)
(-0.0695919 -0.0937377 0)
(-0.0715371 -0.0896541 0)
(-0.0739526 -0.0855765 0)
(-0.0765768 -0.0814077 0)
(-0.0792405 -0.0770977 0)
(-0.0818438 -0.0726255 0)
(-0.0843303 -0.0679871 0)
(-0.0866685 -0.0631868 0)
(-0.0888402 -0.0582332 0)
(-0.0908341 -0.0531373 0)
(-0.0926427 -0.0479107 0)
(-0.0942608 -0.0425661 0)
(-0.0956844 -0.037116 0)
(-0.0969104 -0.0315732 0)
(-0.0979367 -0.0259503 0)
(-0.0987607 -0.02026 0)
(-0.0993773 -0.0145151 0)
(-0.0997814 -0.00872872 0)
(-0.0999875 -0.00291448 0)
(0.0999814 -0.00414731 0)
(0.0996938 -0.0123975 0)
(0.099124 -0.0205792 0)
(0.0982567 -0.0286689 0)
(0.0971055 -0.0366441 0)
(0.0956835 -0.0444834 0)
(0.094003 -0.0521672 0)
(0.0920797 -0.0596781 0)
(0.0899354 -0.0670022 0)
(0.0875993 -0.0741301 0)
(0.0851093 -0.0810594 0)
(0.0825137 -0.0877961 0)
(0.079871 -0.0943575 0)
(0.077248 -0.100774 0)
(0.0747146 -0.107088 0)
(0.0723347 -0.113355 0)
(0.0701541 -0.119634 0)
(0.0681873 -0.125981 0)
(0.0664085 -0.132436 0)
(0.0647491 -0.139017 0)
(0.0631052 -0.145718 0)
(0.0613533 -0.152507 0)
(0.0593689 -0.159334 0)
(0.0570424 -0.166141 0)
(0.0542892 -0.172867 0)
(0.0510522 -0.179451 0)
(0.0473006 -0.185839 0)
(0.0430242 -0.191983 0)
(0.0382283 -0.197843 0)
(0.0329289 -0.203383 0)
(0.0271484 -0.208579 0)
(0.0209127 -0.21341 0)
(0.014249 -0.217862 0)
(0.00718516 -0.221925 0)
(-0.000250415 -0.225595 0)
(-0.00803029 -0.228873 0)
(-0.0161298 -0.231761 0)
(-0.024526 -0.234265 0)
(-0.0331972 -0.236393 0)
(-0.0421226 -0.238156 0)
(-0.0512826 -0.239565 0)
(-0.0606584 -0.240632 0)
(-0.0702321 -0.241373 0)
(-0.0799862 -0.241802 0)
(-0.0899037 -0.241932 0)
(-0.0999677 -0.241781 0)
(-0.110161 -0.241361 0)
(-0.120468 -0.240689 0)
(-0.130869 -0.239778 0)
(-0.141347 -0.238641 0)
(-0.15188 -0.23729 0)
(-0.162445 -0.235735 0)
(-0.173012 -0.233987 0)
(-0.183541 -0.232051 0)
(-0.193976 -0.229932 0)
(-0.204221 -0.22763 0)
(-0.214132 -0.225141 0)
(-0.223543 -0.222453 0)
(-0.232186 -0.219553 0)
(-0.239494 -0.216407 0)
(-0.244388 -0.212951 0)
(-0.245404 -0.209074 0)
(-0.241892 -0.204712 0)
(-0.23474 -0.199875 0)
(-0.225272 -0.194588 0)
(-0.214344 -0.188867 0)
(-0.202447 -0.182728 0)
(-0.189896 -0.176195 0)
(-0.176918 -0.1693 0)
(-0.1637 -0.162085 0)
(-0.150403 -0.154608 0)
(-0.137174 -0.146937 0)
(-0.124178 -0.139161 0)
(-0.111666 -0.131391 0)
(-0.100013 -0.123771 0)
(-0.089695 -0.116472 0)
(-0.0812097 -0.109677 0)
(-0.074938 -0.103546 0)
(-0.0709985 -0.0981547 0)
(-0.0691934 -0.093456 0)
(-0.0691038 -0.0892894 0)
(-0.0702453 -0.0854452 0)
(-0.0721767 -0.0817325 0)
(-0.0745483 -0.0780149 0)
(-0.0771118 -0.0742103 0)
(-0.0797083 -0.0702764 0)
(-0.0822443 -0.0661962 0)
(-0.0846671 -0.0619663 0)
(-0.0869469 -0.0575905 0)
(-0.0890663 -0.0530762 0)
(-0.0910142 -0.0484328 0)
(-0.0927831 -0.0436708 0)
(-0.0943673 -0.0388009 0)
(-0.0957624 -0.0338346 0)
(-0.096965 -0.0287831 0)
(-0.0979725 -0.0236579 0)
(-0.0987819 -0.0184707 0)
(-0.0993879 -0.0132332 0)
(-0.0997851 -0.00795778 0)
(-0.0999877 -0.00265697 0)
(0.0999816 -0.00377746 0)
(0.0996958 -0.0112922 0)
(0.0991295 -0.0187449 0)
(0.0982676 -0.026114 0)
(0.0971237 -0.0333791 0)
(0.0957107 -0.0405206 0)
(0.0940411 -0.0475206 0)
(0.0921307 -0.0543634 0)
(0.0900012 -0.0610363 0)
(0.0876816 -0.0675309 0)
(0.0852096 -0.073845 0)
(0.0826334 -0.0799842 0)
(0.080011 -0.0859642 0)
(0.077409 -0.0918124 0)
(0.0748971 -0.0975686 0)
(0.0725392 -0.103282 0)
(0.0703815 -0.109008 0)
(0.0684394 -0.114796 0)
(0.0666879 -0.120685 0)
(0.0650594 -0.126693 0)
(0.0634505 -0.132813 0)
(0.0617377 -0.139018 0)
(0.0597959 -0.145264 0)
(0.0575145 -0.151498 0)
(0.0548074 -0.157664 0)
(0.051616 -0.163707 0)
(0.0479071 -0.169579 0)
(0.043669 -0.175235 0)
(0.0389055 -0.180637 0)
(0.0336309 -0.185756 0)
(0.0278664 -0.190566 0)
(0.0216363 -0.195048 0)
(0.0149669 -0.199189 0)
(0.00788479 -0.202979 0)
(0.000417189 -0.206415 0)
(-0.00740918 -0.209495 0)
(-0.0155703 -0.212221 0)
(-0.0240441 -0.214597 0)
(-0.0328092 -0.216631 0)
(-0.0418453 -0.218329 0)
(-0.051133 -0.219701 0)
(-0.0606535 -0.220759 0)
(-0.0703889 -0.221514 0)
(-0.0803212 -0.221977 0)
(-0.0904327 -0.22216 0)
(-0.100706 -0.222078 0)
(-0.111122 -0.22174 0)
(-0.121663 -0.22116 0)
(-0.13231 -0.220349 0)
(-0.143041 -0.219317 0)
(-0.153833 -0.218075 0)
(-0.164659 -0.21663 0)
(-0.175484 -0.214991 0)
(-0.186267 -0.213162 0)
(-0.196942 -0.211148 0)
(-0.207403 -0.208948 0)
(-0.217498 -0.206557 0)
(-0.22705 -0.203966 0)
(-0.235769 -0.201162 0)
(-0.243033 -0.198116 0)
(-0.247678 -0.194781 0)
(-0.248294 -0.191039 0)
(-0.244363 -0.186851 0)
(-0.236853 -0.182235 0)
(-0.227068 -0.177216 0)
(-0.215843 -0.17181 0)
(-0.203663 -0.166038 0)
(-0.190841 -0.159926 0)
(-0.177609 -0.153505 0)
(-0.164156 -0.146819 0)
(-0.150649 -0.13992 0)
(-0.137241 -0.132874 0)
(-0.124107 -0.125762 0)
(-0.111513 -0.118686 0)
(-0.0998497 -0.111776 0)
(-0.0895995 -0.105186 0)
(-0.0812486 -0.099077 0)
(-0.0751494 -0.0935845 0)
(-0.0713798 -0.0887649 0)
(-0.0697078 -0.0845622 0)
(-0.0696998 -0.0808239 0)
(-0.0708728 -0.07736 0)
(-0.0727954 -0.074003 0)
(-0.0751304 -0.0706347 0)
(-0.0776411 -0.067185 0)
(-0.0801775 -0.0636182 0)
(-0.082652 -0.05992 0)
(-0.0850152 -0.0560876 0)
(-0.0872393 -0.0521245 0)
(-0.0893077 -0.0480371 0)
(-0.0912096 -0.0438336 0)
(-0.0929377 -0.0395233 0)
(-0.0944864 -0.0351158 0)
(-0.0958509 -0.030621 0)
(-0.0970278 -0.0260492 0)
(-0.0980142 -0.0214108 0)
(-0.0988068 -0.0167161 0)
(-0.0994004 -0.0119759 0)
(-0.0997896 -0.0072015 0)
(-0.099988 -0.00240436 0)
(0.0999817 -0.00341008 0)
(0.0996977 -0.0101942 0)
(0.099135 -0.0169226 0)
(0.0982786 -0.023576 0)
(0.0971418 -0.0301358 0)
(0.0957377 -0.0365845 0)
(0.0940786 -0.0429059 0)
(0.0921803 -0.0490859 0)
(0.0900643 -0.0551131 0)
(0.0877594 -0.06098 0)
(0.0853034 -0.0666846 0)
(0.0827438 -0.072232 0)
(0.0801385 -0.0776363 0)
(0.0775538 -0.0829223 0)
(0.0750592 -0.0881257 0)
(0.0727189 -0.0932912 0)
(0.0705791 -0.0984681 0)
(0.0686561 -0.103703 0)
(0.0669254 -0.10903 0)
(0.0653203 -0.114467 0)
(0.0637378 -0.120008 0)
(0.0620545 -0.125629 0)
(0.0601446 -0.131291 0)
(0.0578966 -0.136947 0)
(0.0552229 -0.142546 0)
(0.0520636 -0.14804 0)
(0.0483843 -0.153384 0)
(0.0441718 -0.158537 0)
(0.0394284 -0.163467 0)
(0.0341675 -0.168144 0)
(0.0284089 -0.172547 0)
(0.0221761 -0.176657 0)
(0.0154944 -0.180462 0)
(0.00838944 -0.183953 0)
(0.000887695 -0.187125 0)
(-0.00698467 -0.189978 0)
(-0.0152041 -0.192511 0)
(-0.0237492 -0.194728 0)
(-0.0325988 -0.196634 0)
(-0.0417328 -0.198236 0)
(-0.0511319 -0.199541 0)
(-0.0607774 -0.200558 0)
(-0.0706507 -0.201296 0)
(-0.0807337 -0.201765 0)
(-0.0910079 -0.201976 0)
(-0.101455 -0.201938 0)
(-0.112055 -0.201661 0)
(-0.122788 -0.201156 0)
(-0.133634 -0.200432 0)
(-0.144569 -0.199498 0)
(-0.155567 -0.198361 0)
(-0.166599 -0.197028 0)
(-0.177627 -0.195506 0)
(-0.188605 -0.1938 0)
(-0.199463 -0.191911 0)
(-0.210084 -0.189841 0)
(-0.22031 -0.187584 0)
(-0.229956 -0.185133 0)
(-0.238708 -0.182477 0)
(-0.245906 -0.17959 0)
(-0.250299 -0.17645 0)
(-0.250548 -0.172919 0)
(-0.246246 -0.168981 0)
(-0.238429 -0.164659 0)
(-0.22838 -0.159976 0)
(-0.216914 -0.154953 0)
(-0.204506 -0.14961 0)
(-0.191469 -0.143973 0)
(-0.178039 -0.138075 0)
(-0.164406 -0.131954 0)
(-0.150742 -0.125662 0)
(-0.137202 -0.119259 0)
(-0.12397 -0.112817 0)
(-0.111329 -0.10643 0)
(-0.0996787 -0.100216 0)
(-0.0895061 -0.0943099 0)
(-0.0812872 -0.0888554 0)
(-0.0753479 -0.083966 0)
(-0.0717311 -0.079682 0)
(-0.070177 -0.0759429 0)
(-0.0702406 -0.0726063 0)
(-0.0714415 -0.0695023 0)
(-0.0733573 -0.0664846 0)
(-0.0756614 -0.0634517 0)
(-0.0781271 -0.0603441 0)
(-0.0806118 -0.0571318 0)
(-0.0830328 -0.0538029 0)
(-0.0853437 -0.0503551 0)
(-0.0875181 -0.0467917 0)
(-0.0895402 -0.0431183 0)
(-0.0913998 -0.0393421 0)
(-0.0930898 -0.035471 0)
(-0.0946045 -0.0315135 0)
(-0.0959395 -0.0274785 0)
(-0.097091 -0.0233749 0)
(-0.0980563 -0.0192119 0)
(-0.0988322 -0.0149988 0)
(-0.0994132 -0.0107452 0)
(-0.0997941 -0.00646123 0)
(-0.0999882 -0.00215712 0)
(0.0999818 -0.00304501 0)
(0.0996996 -0.00910309 0)
(0.0991403 -0.0151117 0)
(0.0982889 -0.0210536 0)
(0.0971589 -0.0269123 0)
(0.0957631 -0.0326722 0)
(0.0941136 -0.038319 0)
(0.0922263 -0.04384 0)
(0.0901224 -0.0492252 0)
(0.0878306 -0.0544679 0)
(0.0853883 -0.0595663 0)
(0.0828428 -0.0645248 0)
(0.0802518 -0.0693562 0)
(0.0776813 -0.0740825 0)
(0.0752007 -0.0787355 0)
(0.072874 -0.0833553 0)
(0.070748 -0.0879859 0)
(0.0688392 -0.0926691 0)
(0.0671241 -0.0974363 0)
(0.0655362 -0.102303 0)
(0.0639732 -0.107265 0)
(0.0623115 -0.112301 0)
(0.060425 -0.117378 0)
(0.0582013 -0.122452 0)
(0.0555517 -0.12748 0)
(0.052415 -0.132417 0)
(0.0487558 -0.137223 0)
(0.0445596 -0.141863 0)
(0.0398278 -0.146306 0)
(0.0345729 -0.150526 0)
(0.0288137 -0.154504 0)
(0.0225731 -0.158223 0)
(0.0158755 -0.161672 0)
(0.008746 -0.164842 0)
(0.00121043 -0.167728 0)
(-0.0067054 -0.170329 0)
(-0.0149783 -0.172645 0)
(-0.0235872 -0.174678 0)
(-0.0325112 -0.176432 0)
(-0.0417303 -0.177912 0)
(-0.0512251 -0.179125 0)
(-0.0609767 -0.180077 0)
(-0.0709663 -0.180776 0)
(-0.0811751 -0.181231 0)
(-0.0915842 -0.181449 0)
(-0.102174 -0.18144 0)
(-0.112924 -0.181211 0)
(-0.123813 -0.18077 0)
(-0.134819 -0.180125 0)
(-0.145917 -0.179284 0)
(-0.157079 -0.178253 0)
(-0.168273 -0.177038 0)
(-0.179459 -0.175643 0)
(-0.190587 -0.174074 0)
(-0.201583 -0.172332 0)
(-0.212323 -0.170416 0)
(-0.22264 -0.168324 0)
(-0.232348 -0.166049 0)
(-0.241111 -0.163585 0)
(-0.248233 -0.160907 0)
(-0.252386 -0.158017 0)
(-0.252305 -0.154751 0)
(-0.247676 -0.15112 0)
(-0.239596 -0.147147 0)
(-0.229328 -0.142855 0)
(-0.217665 -0.138265 0)
(-0.205076 -0.133397 0)
(-0.191871 -0.128277 0)
(-0.178287 -0.122936 0)
(-0.164517 -0.117409 0)
(-0.150734 -0.111744 0)
(-0.137097 -0.105993 0)
(-0.123798 -0.100225 0)
(-0.111131 -0.0945215 0)
(-0.0995078 -0.0889875 0)
(-0.0894153 -0.0837445 0)
(-0.0813208 -0.0789164 0)
(-0.075527 -0.074599 0)
(-0.0720465 -0.0708203 0)
(-0.0705963 -0.0675193 0)
(-0.0707233 -0.0645655 0)
(-0.0719496 -0.0618084 0)
(-0.0738604 -0.0591213 0)
(-0.0761387 -0.0564172 0)
(-0.078566 -0.0536459 0)
(-0.0810062 -0.0507819 0)
(-0.0833808 -0.0478156 0)
(-0.0856457 -0.0447451 0)
(-0.0877759 -0.0415733 0)
(-0.0897565 -0.0383051 0)
(-0.0915778 -0.0349469 0)
(-0.0932328 -0.0315054 0)
(-0.0947162 -0.0279882 0)
(-0.0960235 -0.0244028 0)
(-0.0971513 -0.0207573 0)