/*--------------------------------*- C++ -*----------------------------------*\
  =========                 |
  \\      /  F ield         | OpenFOAM: The Open Source CFD Toolbox
   \\    /   O peration     | Website:  https://openfoam.org
    \\  /    A nd           | Version:  8
     \\/     M anipulation  |
\*---------------------------------------------------------------------------*/
FoamFile
{
    version     2.0;
    format      ascii;
    class       volScalarField;
    location    "500/fluid";
    object      CH4;
}
// * * * * * * * * * * * * * * * * * * * * * * * * * * * * * * * * * * * * * //

dimensions      [0 0 0 0 0 0 0];

internalField   nonuniform List<scalar> 
4000
(
0.999997
0.999987
0.999969
0.99994
0.999892
0.999812
0.99968
0.999464
0.999116
0.998559
0.997681
0.996321
0.994253
0.991179
0.986723
0.980451
0.971902
0.960646
0.946348
0.928812
0.908011
0.884077
0.857269
0.827938
0.796484
0.763332
0.728903
0.693607
0.657823
0.6219
0.586151
0.550847
0.516223
0.482471
0.449747
0.418176
0.387851
0.358843
0.331192
0.304922
0.280034
0.256517
0.234348
0.213492
0.19391
0.175554
0.158374
0.142318
0.127331
0.113357
0.100344
0.0882378
0.0769893
0.0665502
0.0568764
0.0479271
0.0396665
0.0321055
0.0253129
0.0189479
0.0131878
0.00803457
0.00356393
0.00249194
0.00172189
0.00117351
0.000787206
0.000518629
0.000334802
0.000211314
0.000130236
7.8552e-05
4.69947e-05
2.92527e-05
2.09348e-05
1.6022e-05
1.19039e-05
8.39351e-06
5.55654e-06
3.4262e-06
1.96282e-06
1.04927e-06
5.28191e-07
2.54408e-07
1.18861e-07
5.42035e-08
2.42349e-08
1.06597e-08
4.62475e-09
1.98328e-09
8.42171e-10
3.54625e-10
1.48244e-10
6.15577e-11
2.53794e-11
1.03584e-11
4.14679e-12
1.58523e-12
5.29901e-13
9.29372e-14
0.999997
0.999987
0.999969
0.99994
0.999891
0.99981
0.999677
0.999459
0.999106
0.998544
0.99766
0.996294
0.994224
0.991156
0.986726
0.980507
0.97205
0.960931
0.946814
0.929495
0.908932
0.885238
0.858653
0.829511
0.798205
0.765153
0.730776
0.695484
0.659665
0.623672
0.587824
0.552401
0.517641
0.483744
0.450872
0.41915
0.388678
0.359528
0.331742
0.305345
0.280341
0.256718
0.234449
0.213505
0.193845
0.175422
0.158184
0.142077
0.127046
0.113037
0.0999933
0.0878635
0.0765962
0.0661433
0.0564604
0.0475067
0.0392466
0.0317188
0.0249299
0.0185775
0.0128514
0.00776094
0.00339906
0.00238397
0.0016502
0.00112535
0.000754625
0.000496541
0.00031989
0.000201364
0.00012374
7.4477e-05
4.46355e-05
2.81613e-05
2.05249e-05
1.56455e-05
1.15032e-05
8.01539e-06
5.24214e-06
3.19816e-06
1.81977e-06
9.71555e-07
4.91225e-07
2.38308e-07
1.12319e-07
5.16924e-08
2.33147e-08
1.03342e-08
4.51199e-09
1.9444e-09
8.28531e-10
3.49647e-10
1.46325e-10
6.07757e-11
2.50474e-11
1.02151e-11
4.08567e-12
1.56049e-12
5.21264e-13
9.14141e-14
0.999997
0.999986
0.999969
0.999939
0.99989
0.999808
0.999673
0.999453
0.999098
0.998533
0.997645
0.996276
0.994204
0.991139
0.98672
0.980532
0.972134
0.96111
0.947126
0.929977
0.909614
0.886138
0.859775
0.830845
0.799726
0.766826
0.73256
0.697335
0.661537
0.625524
0.589619
0.554106
0.519229
0.485195
0.45217
0.420287
0.389649
0.360331
0.332381
0.305825
0.280666
0.256894
0.234496
0.213434
0.193667
0.175147
0.157823
0.14164
0.126545
0.11248
0.0993904
0.0872228
0.0759256
0.0654503
0.0557519
0.0467898
0.0385286
0.0310361
0.0242796
0.0179537
0.0122594
0.00722486
0.00323819
0.00226956
0.00156847
0.00106707
0.000713353
0.000467661
0.000300024
0.000188017
0.000115066
6.91278e-05
4.16583e-05
2.6919e-05
2.00202e-05
1.51789e-05
1.1048e-05
7.61676e-06
4.93212e-06
2.98543e-06
1.69085e-06
9.01712e-07
4.56782e-07
2.22319e-07
1.05227e-07
4.86582e-08
2.20541e-08
9.82236e-09
4.30764e-09
1.86366e-09
7.96766e-10
3.3713e-10
1.41362e-10
5.87899e-11
2.42462e-11
9.89077e-12
3.95561e-12
1.5104e-12
5.04338e-13
8.8426e-14
0.999997
0.999986
0.999969
0.999939
0.99989
0.999807
0.999672
0.999452
0.999096
0.99853
0.997643
0.996276
0.994211
0.991163
0.986774
0.980633
0.972302
0.96137
0.947502
0.930493
0.910286
0.886974
0.860775
0.832
0.801019
0.768233
0.734053
0.698883
0.663106
0.627082
0.591133
0.555547
0.520574
0.486422
0.453262
0.421233
0.390441
0.360965
0.332854
0.306135
0.280825
0.256918
0.234388
0.213203
0.193324
0.174702
0.157288
0.141026
0.125861
0.111738
0.0985993
0.086392
0.0750637
0.0645652
0.054851
0.0458799
0.0376158
0.0301361
0.0233886
0.0170787
0.0114147
0.00639752
0.00316885
0.00220312
0.00151126
0.00102089
0.000677802
0.000441357
0.000281274
0.00017516
0.000106649
6.39745e-05
3.88984e-05
2.59367e-05
1.95368e-05
1.46854e-05
1.05653e-05
7.19577e-06
4.60456e-06
2.75865e-06
1.55076e-06
8.23577e-07
4.1677e-07
2.03107e-07
9.63823e-08
4.47168e-08
2.03431e-08
9.09553e-09
4.00438e-09
1.73894e-09
7.46032e-10
3.16653e-10
1.33138e-10
5.54978e-11
2.29315e-11
9.36827e-12
3.75074e-12
1.43321e-12
4.78728e-13
8.3952e-14
0.999997
0.999986
0.999969
0.999939
0.999889
0.999807
0.999672
0.999451
0.999095
0.99853
0.997644
0.996281
0.994224
0.991189
0.986823
0.980719
0.972441
0.961581
0.947806
0.930906
0.910821
0.887639
0.861568
0.832914
0.80204
0.769341
0.735226
0.700093
0.664328
0.628287
0.592297
0.556646
0.521586
0.487329
0.454052
0.421892
0.390958
0.361334
0.333079
0.306228
0.280789
0.256753
0.234102
0.212804
0.19282
0.174105
0.156607
0.140272
0.125045
0.110869
0.0976878
0.0854467
0.0740932
0.0635776
0.0538536
0.0448791
0.0366175
0.0291728
0.0224643
0.0161897
0.0105491
0.00556166
0.00311773
0.0021493
0.00146176
0.000979202
0.000644852
0.000416621
0.000263532
0.000162994
9.87195e-05
5.9163e-05
3.63891e-05
2.51463e-05
1.9015e-05
1.415e-05
1.00665e-05
6.77998e-06
4.29404e-06
2.55114e-06
1.42605e-06
7.55308e-07
3.82139e-07
1.86504e-07
8.87073e-08
4.12666e-08
1.88258e-08
8.43989e-09
3.72513e-09
1.62139e-09
6.97024e-10
2.96377e-10
1.24801e-10
5.20877e-11
2.15442e-11
8.80829e-12
3.52849e-12
1.34873e-12
4.50537e-13
7.90104e-14
0.999997
0.999986
0.999969
0.999939
0.999889
0.999807
0.999672
0.999452
0.999097
0.998533
0.997651
0.996294
0.994246
0.991227
0.986885
0.980814
0.972583
0.961783
0.948081
0.931265
0.911272
0.888183
0.862204
0.833634
0.802831
0.770189
0.736111
0.700996
0.665227
0.629162
0.593127
0.557412
0.522272
0.48792
0.454532
0.422251
0.391196
0.361456
0.333086
0.306115
0.280558
0.256409
0.233652
0.212256
0.192184
0.173388
0.15582
0.139425
0.124146
0.109929
0.096715
0.0844506
0.0730822
0.0625598
0.0528362
0.0438685
0.0356343
0.0282411
0.0215475
0.0152745
0.00965622
0.00475536
0.00305519
0.00207757
0.0013978
0.00092803
0.000606465
0.00038914
0.00024463
0.000150495
9.08184e-05
5.44705e-05
3.39506e-05
2.41306e-05
1.83026e-05
1.35292e-05
9.54709e-06
6.37496e-06
4.00392e-06
2.36187e-06
1.31344e-06
6.93556e-07
3.50481e-07
1.7114e-07
8.15027e-08
3.79804e-08
1.73609e-08
7.79952e-09
3.44976e-09
1.50461e-09
6.48069e-10
2.76048e-10
1.16424e-10
4.86571e-11
2.0148e-11
8.24486e-12
3.30492e-12
1.26375e-12
4.22189e-13
7.40413e-14
0.999997
0.999986
0.999969
0.999939
0.99989
0.999808
0.999673
0.999453
0.999099
0.998538
0.997659
0.996307
0.994268
0.991262
0.98694
0.980897
0.972705
0.961953
0.948309
0.931558
0.911634
0.888614
0.862699
0.834186
0.80343
0.77082
0.736759
0.701644
0.665859
0.62976
0.593676
0.557897
0.522676
0.488232
0.454748
0.422372
0.39122
0.361376
0.332899
0.305824
0.280166
0.255922
0.233077
0.2116
0.191454
0.172594
0.15497
0.138527
0.123211
0.108963
0.0957291
0.0834525
0.0720808
0.0615637
0.0518553
0.042914
0.0346885
0.0273391
0.0206534
0.0144102
0.00882295
0.00397173
0.00275431
0.00188674
0.00127487
0.000848276
0.000554754
0.000355866
0.000223527
0.000137407
8.29782e-05
5.00492e-05
3.17866e-05
2.31528e-05
1.75962e-05
1.29512e-05
9.08643e-06
6.02767e-06
3.761e-06
2.20599e-06
1.22165e-06
6.43454e-07
3.24786e-07
1.58614e-07
7.55854e-08
3.52551e-08
1.61323e-08
7.25572e-09
3.21293e-09
1.40291e-09
6.04928e-10
2.57937e-10
1.08888e-10
4.55455e-11
1.88728e-11
7.72729e-12
3.09861e-12
1.18507e-12
3.95877e-13
6.94232e-14
0.999997
0.999986
0.999969
0.999939
0.99989
0.999808
0.999674
0.999455
0.999102
0.998542
0.997667
0.99632
0.994289
0.991295
0.986991
0.980972
0.972811
0.962097
0.948497
0.931794
0.911919
0.888947
0.863076
0.834598
0.803867
0.771271
0.73721
0.702083
0.666272
0.630133
0.593993
0.558147
0.522854
0.488336
0.454773
0.422311
0.391067
0.361131
0.332562
0.305399
0.279658
0.255336
0.232418
0.210876
0.190672
0.171762
0.154095
0.137618
0.122275
0.108009
0.0947639
0.0824837
0.0711153
0.0606081
0.050915
0.0419926
0.0338331
0.0265937
0.0198029
0.0136766
0.0082229
0.00355009
0.00247845
0.00170705
0.00115834
0.000773159
0.00050675
0.000325562
0.000204724
0.000126029
7.6362e-05
4.64874e-05
3.02138e-05
2.24664e-05
1.70848e-05
1.25257e-05
8.74307e-06
5.7655e-06
3.5752e-06
2.08525e-06
1.14963e-06
6.03588e-07
3.04031e-07
1.48359e-07
7.06776e-08
3.29674e-08
1.50898e-08
6.78999e-09
3.00845e-09
1.31449e-09
5.67197e-10
2.42019e-10
1.02237e-10
4.27905e-11
1.77408e-11
7.26686e-12
2.91477e-12
1.11486e-12
3.72378e-13
6.52964e-14
0.999997
0.999986
0.999969
0.999939
0.99989
0.999809
0.999675
0.999456
0.999105
0.998547
0.997674
0.996332
0.994308
0.991324
0.987034
0.981035
0.972897
0.962213
0.948646
0.931979
0.912139
0.889198
0.863353
0.834894
0.804173
0.771577
0.737506
0.702356
0.66651
0.630325
0.594133
0.558231
0.522876
0.488288
0.454649
0.422107
0.390783
0.360768
0.332123
0.304887
0.279077
0.254692
0.231716
0.210123
0.189874
0.170926
0.153229
0.136729
0.121369
0.107094
0.0938455
0.0815695
0.0702124
0.0597243
0.0500593
0.0411768
0.0330928
0.0258915
0.0191424
0.0130917
0.0077527
0.00331202
0.00231247
0.00159323
0.00108154
0.000722184
0.000473504
0.000304305
0.000191459
0.000118022
7.17868e-05
4.41746e-05
2.9438e-05
2.2208e-05
1.68682e-05
1.23096e-05
8.5389e-06
5.59306e-06
3.44515e-06
1.99724e-06
1.09564e-06
5.73081e-07
2.87875e-07
1.40265e-07
6.67546e-08
3.11179e-08
1.42382e-08
6.40589e-09
2.83836e-09
1.24038e-09
5.35358e-10
2.28508e-10
9.65645e-11
4.04306e-11
1.67678e-11
6.87001e-12
2.75598e-12
1.05412e-12
3.52032e-13
6.17175e-14
0.999997
0.999986
0.999969
0.99994
0.99989
0.999809
0.999675
0.999458
0.999107
0.998551
0.99768
0.996342
0.994324
0.991349
0.98707
0.981086
0.972967
0.962305
0.948762
0.932119
0.912302
0.88938
0.863549
0.835097
0.804375
0.771769
0.737678
0.702499
0.666615
0.63039
0.594151
0.558194
0.522777
0.488123
0.454416
0.421805
0.390413
0.360331
0.331623
0.304327
0.278461
0.254025
0.231004
0.209371
0.189089
0.170114
0.152396
0.135881
0.120512
0.106233
0.0929875
0.0807189
0.069374
0.0589022
0.0492569
0.0403958
0.0323539
0.0251927
0.0184709
0.0124392
0.00710071
0.00321113
0.00223619
0.00153748
0.00104195
0.000694809
0.000455071
0.000292244
0.000183832
0.000113424
6.92414e-05
4.30406e-05
2.92959e-05
2.22788e-05
1.68648e-05
1.22474e-05
8.44666e-06
5.4928e-06
3.35939e-06
1.93498e-06
1.05579e-06
5.49903e-07
2.75335e-07
1.33885e-07
6.36238e-08
2.96262e-08
1.35452e-08
6.09096e-09
2.69799e-09
1.17887e-09
5.08808e-10
2.17197e-10
9.17994e-11
3.84429e-11
1.59464e-11
6.53444e-12
2.62152e-12
1.00264e-12
3.34783e-13
5.86785e-14
0.999997
0.999987
0.999969
0.99994
0.999891
0.99981
0.999676
0.999459
0.999109
0.998554
0.997686
0.996351
0.994338
0.991369
0.987099
0.981126
0.973022
0.962376
0.948849
0.932222
0.912419
0.889507
0.863681
0.835227
0.804496
0.771873
0.737758
0.702549
0.666632
0.630365
0.594077
0.558066
0.522593
0.487881
0.454114
0.421444
0.389994
0.359857
0.331096
0.30375
0.27784
0.253364
0.230308
0.208646
0.18834
0.169346
0.151614
0.135091
0.119719
0.105442
0.0922018
0.0799434
0.0686123
0.0581577
0.0485323
0.0396936
0.0316824
0.0245523
0.0178654
0.0118632
0.00655111
0.00317472
0.00220564
0.0015136
0.00102421
0.000682171
0.000446403
0.000286531
0.000180249
0.000111344
6.82223e-05
4.2799e-05
2.97153e-05
2.26724e-05
1.70752e-05
1.23189e-05
8.43593e-06
5.44766e-06
3.30713e-06
1.8925e-06
1.02699e-06
5.32572e-07
2.65742e-07
1.28928e-07
6.11612e-08
2.8441e-08
1.29899e-08
5.83681e-09
2.58402e-09
1.12867e-09
4.87046e-10
2.0789e-10
8.78668e-11
3.67985e-11
1.52657e-11
6.25598e-12
2.50987e-12
9.59866e-13
3.20446e-13
5.61555e-14
0.999997
0.999987
0.999969
0.99994
0.999891
0.99981
0.999677
0.99946
0.999111
0.998557
0.997691
0.996358
0.994349
0.991385
0.987122
0.981157
0.973063
0.962428
0.948912
0.932295
0.912498
0.88959
0.863762
0.835301
0.804555
0.771913
0.737774
0.702536
0.666582
0.630273
0.59394
0.557881
0.522357
0.487593
0.453775
0.421055
0.389557
0.359373
0.330569
0.303184
0.277238
0.252731
0.229649
0.207965
0.187642
0.168636
0.150897
0.13437
0.118999
0.104727
0.0914961
0.0792499
0.0679342
0.0574979
0.0478933
0.0390789
0.0311041
0.0240002
0.0173318
0.0113543
0.00607066
0.00314768
0.00218728
0.00150114
0.00101586
0.000676701
0.000442941
0.000284441
0.000179081
0.000110809
6.81589e-05
4.31627e-05
3.05299e-05
2.32777e-05
1.74234e-05
1.24839e-05
8.48671e-06
5.44003e-06
3.27993e-06
1.86495e-06
1.00677e-06
5.19876e-07
2.5853e-07
1.25138e-07
5.92542e-08
2.75141e-08
1.25521e-08
5.6351e-09
2.49305e-09
1.08842e-09
4.69523e-10
2.00371e-10
8.46804e-11
3.54629e-11
1.47118e-11
6.02911e-12
2.41888e-12
9.25058e-13
3.08821e-13
5.41146e-14
0.999997
0.999987
0.999969
0.99994
0.999891
0.99981
0.999677
0.999461
0.999113
0.998559
0.997694
0.996364
0.994357
0.991397
0.987139
0.981181
0.973093
0.962465
0.948956
0.932343
0.912549
0.889639
0.863805
0.835333
0.804573
0.771911
0.737746
0.702477
0.666488
0.63014
0.593766
0.557664
0.522096
0.487288
0.453426
0.420664
0.389125
0.358903
0.330064
0.302648
0.276675
0.252144
0.229042
0.207343
0.187009
0.167995
0.150253
0.133726
0.118359
0.104094
0.0908736
0.0786406
0.0673408
0.0569226
0.0473397
0.0385498
0.0306035
0.0235197
0.0168758
0.0109233
0.00567085
0.0031254
0.00217441
0.00149401
0.00101218
0.000675003
0.000442335
0.000284412
0.000179351
0.000111238
6.86984e-05
4.3825e-05
3.13345e-05
2.38947e-05
1.78042e-05
1.26859e-05
8.57074e-06
5.45843e-06
3.27101e-06
1.84963e-06
9.93554e-07
5.11035e-07
2.53328e-07
1.22346e-07
5.78269e-08
2.68117e-08
1.22171e-08
5.47947e-09
2.42239e-09
1.05696e-09
4.55762e-10
1.94441e-10
8.21584e-11
3.44027e-11
1.4271e-11
5.84826e-12
2.34626e-12
8.97257e-13
2.99535e-13
5.24845e-14
0.999997
0.999987
0.999969
0.99994
0.999891
0.99981
0.999678
0.999462
0.999114
0.998561
0.997697
0.996368
0.994363
0.991406
0.987152
0.981197
0.973114
0.96249
0.948985
0.932374
0.912578
0.889664
0.863822
0.835338
0.804562
0.771878
0.737688
0.702391
0.666369
0.629987
0.593576
0.557437
0.521832
0.486986
0.453088
0.42029
0.388718
0.358465
0.329599
0.302158
0.276163
0.251614
0.228498
0.206788
0.186447
0.16743
0.149687
0.133163
0.117801
0.103545
0.090335
0.078115
0.0668309
0.0564322
0.0468704
0.0380973
0.0301752
0.0231132
0.01649
0.0105577
0.00534536
0.00310688
0.00216541
0.00149048
0.00101158
0.000675835
0.000443728
0.0002859
0.000180719
0.000112424
6.97321e-05
4.47882e-05
3.22839e-05
2.45932e-05
1.82457e-05
1.29343e-05
8.6896e-06
5.5018e-06
3.27823e-06
1.84467e-06
9.86798e-07
5.05666e-07
2.49895e-07
1.20429e-07
5.68193e-08
2.63055e-08
1.19717e-08
5.36396e-09
2.36939e-09
1.03317e-09
4.45279e-10
1.89898e-10
8.02168e-11
3.35833e-11
1.39293e-11
5.7077e-12
2.28972e-12
8.75604e-13
2.923e-13
5.12109e-14
0.999997
0.999987
0.999969
0.99994
0.999891
0.999811
0.999678
0.999462
0.999115
0.998563
0.997699
0.996371
0.994368
0.991413
0.987161
0.981209
0.973129
0.962507
0.949003
0.932391
0.912593
0.889673
0.863821
0.835325
0.804532
0.771829
0.737616
0.702292
0.666243
0.62983
0.593389
0.557218
0.521581
0.486704
0.452775
0.419948
0.388349
0.358072
0.329184
0.301724
0.275712
0.251151
0.228025
0.206307
0.185962
0.166943
0.149202
0.132682
0.117327
0.103079
0.0898795
0.077673
0.0664048
0.0560211
0.046471
0.0377138
0.0298178
0.0227756
0.0161716
0.0102591
0.00508334
0.00309171
0.00215965
0.00148988
0.0010135
0.000678731
0.000446742
0.000288614
0.000182981
0.000114238
7.11858e-05
4.60141e-05
3.3372e-05
2.53791e-05
1.87516e-05
1.32301e-05
8.84262e-06
5.56888e-06
3.30107e-06
1.84877e-06
9.85151e-07
5.03261e-07
2.47998e-07
1.19268e-07
5.61718e-08
2.59666e-08
1.18025e-08
5.28259e-09
2.33142e-09
1.0159e-09
4.37592e-10
1.86538e-10
7.87716e-11
3.29701e-11
1.36725e-11
5.60175e-12
2.24702e-12
8.59247e-13
2.86831e-13
5.02457e-14
0.999997
0.999987
0.999969
0.99994
0.999891
0.999811
0.999678
0.999462
0.999115
0.998564
0.997701
0.996373
0.994371
0.991417
0.987167
0.981217
0.973138
0.962517
0.949013
0.932399
0.912597
0.889671
0.863811
0.835302
0.804494
0.771773
0.73754
0.702194
0.666121
0.629683
0.593216
0.557018
0.521355
0.486453
0.4525
0.41965
0.38803
0.357734
0.328828
0.301354
0.27533
0.250759
0.227626
0.205904
0.185557
0.166539
0.148799
0.132284
0.116936
0.102697
0.089509
0.077315
0.0660571
0.0556835
0.0461475
0.0374053
0.0295265
0.0224992
0.0159074
0.0100035
0.00484673
0.00307957
0.00215681
0.00149187
0.00101763
0.000683419
0.000451163
0.000292396
0.000186026
0.000116606
7.30159e-05
4.74807e-05
3.4584e-05
2.62438e-05
1.93144e-05
1.3567e-05
9.02477e-06
5.65593e-06
3.33694e-06
1.86089e-06
9.87899e-07
5.03071e-07
2.4729e-07
1.18697e-07
5.58124e-08
2.57629e-08
1.16953e-08
5.22904e-09
2.30575e-09
1.00399e-09
4.32209e-10
1.84159e-10
7.7739e-11
3.25292e-11
1.3487e-11
5.52509e-12
2.21613e-12
8.47394e-13
2.82864e-13
4.95457e-14
0.999997
0.999987
0.999969
0.99994
0.999891
0.999811
0.999678
0.999463
0.999116
0.998564
0.997702
0.996375
0.994373
0.991421
0.987171
0.981222
0.973144
0.962523
0.949018
0.932402
0.912596
0.889664
0.863795
0.835276
0.804456
0.77172
0.73747
0.702106
0.666013
0.629556
0.593067
0.556849
0.521166
0.486243
0.452271
0.419404
0.387768
0.357457
0.328539
0.301054
0.275022
0.250444
0.227306
0.205582
0.185233
0.166216
0.14848
0.13197
0.116629
0.102398
0.089217
0.0770294
0.0657811
0.0554193
0.0458956
0.0371656
0.0293036
0.0222886
0.015708
0.00981433
0.0046781
0.00307026
0.00215657
0.00149615
0.00102368
0.000689674
0.000456811
0.000297108
0.000189753
0.000119453
7.5163e-05
4.91328e-05
3.58826e-05
2.71608e-05
1.99138e-05
1.39304e-05
9.22613e-06
5.75655e-06
3.38186e-06
1.87865e-06
9.93968e-07
5.0469e-07
2.47469e-07
1.18551e-07
5.56518e-08
2.5655e-08
1.16334e-08
5.19645e-09
2.28954e-09
9.96276e-10
4.28662e-10
1.8257e-10
7.70447e-11
3.22317e-11
1.33618e-11
5.47323e-12
2.19515e-12
8.39316e-13
2.80152e-13
4.90699e-14
0.999997
0.999987
0.999969
0.99994
0.999891
0.999811
0.999678
0.999463
0.999116
0.998565
0.997702
0.996376
0.994375
0.991423
0.987174
0.981225
0.973147
0.962527
0.94902
0.932403
0.912593
0.889656
0.86378
0.835253
0.804422
0.771675
0.737413
0.702035
0.665927
0.629454
0.592951
0.556717
0.521019
0.486082
0.452096
0.419216
0.387568
0.357247
0.32832
0.300827
0.274789
0.250207
0.227066
0.20534
0.184992
0.165977
0.148244
0.131738
0.116401
0.102174
0.0889991
0.0768197
0.06558
0.0552275
0.0457133
0.0369931
0.0291444
0.0221387
0.0155663
0.00967918
0.00455545
0.00306352
0.00215865
0.00150242
0.00103135
0.000697203
0.000463433
0.000302541
0.000193996
0.000122653
7.75299e-05
5.08902e-05
3.72048e-05
2.80806e-05
2.05126e-05
1.4294e-05
9.42959e-06
5.86046e-06
3.43007e-06
1.89894e-06
1.00168e-06
5.07295e-07
2.48223e-07
1.18707e-07
5.56448e-08
2.56211e-08
1.16067e-08
5.18038e-09
2.28099e-09
9.92035e-10
4.26657e-10
1.81657e-10
7.66386e-11
3.20549e-11
1.32862e-11
5.44152e-12
2.1822e-12
8.34294e-13
2.7846e-13
4.87722e-14
0.999997
0.999987
0.999969
0.99994
0.999891
0.999811
0.999679
0.999463
0.999116
0.998565
0.997703
0.996377
0.994376
0.991424
0.987175
0.981227
0.973149
0.962528
0.949021
0.932402
0.91259
0.889649
0.863769
0.835235
0.804398
0.771643
0.737372
0.701985
0.665867
0.629384
0.592871
0.556627
0.520918
0.485972
0.451977
0.419089
0.387434
0.357107
0.328174
0.300676
0.274635
0.25005
0.226908
0.205182
0.184834
0.16582
0.148088
0.131584
0.11625
0.102027
0.0888579
0.0766843
0.0654508
0.055105
0.0455977
0.0368845
0.029045
0.0220456
0.015478
0.00959384
0.00447556
0.00305916
0.00216262
0.00151006
0.00103996
0.000705342
0.000470436
0.000308201
0.000198366
0.00012591
7.9899e-05
5.25943e-05
3.84241e-05
2.89054e-05
2.10398e-05
1.46105e-05
9.60589e-06
5.95084e-06
3.47256e-06
1.91725e-06
1.00891e-06
5.09892e-07
2.49135e-07
1.18999e-07
5.57241e-08
2.56349e-08
1.16043e-08
5.1761e-09
2.27794e-09
9.90282e-10
4.25753e-10
1.8122e-10
7.64363e-11
3.19641e-11
1.32465e-11
5.42457e-12
2.17518e-12
8.31548e-13
2.77529e-13
4.86079e-14
0.999997
0.999987
0.999969
0.99994
0.999891
0.999811
0.999679
0.999463
0.999116
0.998565
0.997703
0.996377
0.994376
0.991425
0.987176
0.981228
0.97315
0.962529
0.949021
0.932401
0.912588
0.889645
0.863763
0.835226
0.804386
0.771627
0.737352
0.70196
0.665838
0.62935
0.592831
0.556582
0.520869
0.485918
0.451918
0.419026
0.387367
0.357037
0.328101
0.300602
0.274558
0.249972
0.226829
0.205103
0.184755
0.165741
0.148011
0.131508
0.116176
0.101957
0.0887902
0.0766198
0.0653899
0.0550477
0.0455443
0.036835
0.0290006
0.0220044
0.0154389
0.00955493
0.0044364
0.00305705
0.00216723
0.0015172
0.00104746
0.000712148
0.000476133
0.000312718
0.000201802
0.000128438
8.17069e-05
5.38479e-05
3.92557e-05
2.94378e-05
2.1367e-05
1.48011e-05
9.70978e-06
6.00336e-06
3.49712e-06
1.92788e-06
1.01316e-06
5.11456e-07
2.49711e-07
1.19198e-07
5.57873e-08
2.56523e-08
1.16076e-08
5.17586e-09
2.2772e-09
9.89731e-10
4.25434e-10
1.81055e-10
7.63569e-11
3.19275e-11
1.32301e-11
5.41748e-12
2.17221e-12
8.30375e-13
2.77129e-13
4.85371e-14
0.999997
0.999987
0.999969
0.99994
0.999891
0.999811
0.999679
0.999463
0.999116
0.998565
0.997703
0.996377
0.994376
0.991424
0.987176
0.981228
0.97315
0.962529
0.949021
0.932401
0.912587
0.889644
0.863762
0.835226
0.804385
0.771626
0.737351
0.701959
0.665837
0.629349
0.59283
0.556581
0.520868
0.485917
0.451918
0.419026
0.387367
0.357036
0.328101
0.300601
0.274558
0.249972
0.226829
0.205102
0.184755
0.165741
0.14801
0.131508
0.116176
0.101956
0.0887899
0.0766195
0.0653896
0.0550475
0.0455441
0.0368348
0.0290005
0.0220043
0.0154388
0.00955482
0.00443631
0.00305705
0.00216723
0.0015172
0.00104746
0.000712148
0.000476132
0.000312717
0.000201802
0.000128438
8.17067e-05
5.38477e-05
3.92557e-05
2.94378e-05
2.1367e-05
1.48011e-05
9.70977e-06
6.00335e-06
3.49712e-06
1.92787e-06
1.01315e-06
5.11455e-07
2.4971e-07
1.19198e-07
5.57871e-08
2.56522e-08
1.16075e-08
5.17584e-09
2.27719e-09
9.89726e-10
4.25432e-10
1.81054e-10
7.63564e-11
3.19273e-11
1.323e-11
5.41745e-12
2.1722e-12
8.30369e-13
2.77127e-13
4.85368e-14
0.999997
0.999987
0.999969
0.99994
0.999891
0.999811
0.999679
0.999463
0.999116
0.998565
0.997703
0.996377
0.994376
0.991424
0.987175
0.981227
0.973149
0.962528
0.94902
0.932401
0.912588
0.889647
0.863767
0.835233
0.804396
0.771641
0.73737
0.701982
0.665865
0.629382
0.592868
0.556625
0.520916
0.48597
0.451975
0.419087
0.387432
0.357105
0.328172
0.300675
0.274633
0.250048
0.226906
0.20518
0.184833
0.165819
0.148087
0.131583
0.116249
0.102026
0.088857
0.0766835
0.0654501
0.0551043
0.0455971
0.036884
0.0290446
0.0220452
0.0154776
0.00959351
0.00447528
0.00305917
0.00216262
0.00151006
0.00103996
0.000705341
0.000470434
0.0003082
0.000198365
0.000125909
7.98984e-05
5.2594e-05
3.8424e-05
2.89054e-05
2.10398e-05
1.46105e-05
9.60586e-06
5.95082e-06
3.47254e-06
1.91724e-06
1.0089e-06
5.09887e-07
2.49132e-07
1.18997e-07
5.57232e-08
2.56345e-08
1.16041e-08
5.17601e-09
2.27789e-09
9.90263e-10
4.25744e-10
1.81216e-10
7.64346e-11
3.19634e-11
1.32462e-11
5.42444e-12
2.17513e-12
8.31526e-13
2.77522e-13
4.86066e-14
0.999997
0.999987
0.999969
0.99994
0.999891
0.999811
0.999678
0.999463
0.999116
0.998565
0.997702
0.996376
0.994375
0.991422
0.987173
0.981225
0.973147
0.962525
0.949019
0.932401
0.912591
0.889653
0.863777
0.835249
0.804419
0.771671
0.737409
0.702031
0.665923
0.62945
0.592946
0.556713
0.521014
0.486078
0.452092
0.419212
0.387564
0.357244
0.328316
0.300824
0.274786
0.250204
0.227064
0.205338
0.18499
0.165975
0.148242
0.131736
0.116399
0.102172
0.0889977
0.0768184
0.0655788
0.0552263
0.0457123
0.0369922
0.0291436
0.022138
0.0155656
0.00967862
0.00455498
0.00306352
0.00215865
0.00150242
0.00103135
0.000697201
0.000463431
0.000302539
0.000193995
0.000122652
7.75291e-05
5.089e-05
3.7205e-05
2.80808e-05
2.05126e-05
1.4294e-05
9.42957e-06
5.86043e-06
3.43004e-06
1.89892e-06
1.00167e-06
5.07286e-07
2.48218e-07
1.18704e-07
5.56433e-08
2.56204e-08
1.16063e-08
5.18022e-09
2.28092e-09
9.92002e-10
4.26642e-10
1.8165e-10
7.66357e-11
3.20536e-11
1.32856e-11
5.44129e-12
2.1821e-12
8.34257e-13
2.78448e-13
4.87699e-14
0.999997
0.999987
0.999969
0.99994
0.999891
0.999811
0.999678
0.999463
0.999116
0.998564
0.997702
0.996375
0.994373
0.99142
0.98717
0.981221
0.973143
0.962522
0.949016
0.9324
0.912593
0.88966
0.863791
0.835272
0.804451
0.771715
0.737465
0.7021
0.666007
0.62955
0.593061
0.556843
0.52116
0.486238
0.452266
0.419399
0.387763
0.357452
0.328534
0.301049
0.275017
0.25044
0.227302
0.205578
0.18523
0.166213
0.148477
0.131967
0.116626
0.102395
0.0892149
0.0770275
0.0657793
0.0554178
0.0458941
0.0371643
0.0293024
0.0222875
0.0157071
0.00981353
0.00467742
0.00307025
0.00215656
0.00149615
0.00102368
0.00068967
0.000456808
0.000297104
0.00018975
0.000119451
7.5162e-05
4.91324e-05
3.58828e-05
2.7161e-05
1.99139e-05
1.39304e-05
9.2261e-06
5.75651e-06
3.38182e-06
1.87862e-06
9.93946e-07
5.04677e-07
2.47461e-07
1.18547e-07
5.56498e-08
2.5654e-08
1.16329e-08
5.19621e-09
2.28943e-09
9.96225e-10
4.28639e-10
1.8256e-10
7.70403e-11
3.22298e-11
1.3361e-11
5.47288e-12
2.19501e-12
8.39261e-13
2.80134e-13
4.90666e-14
0.999997
0.999987
0.999969
0.99994
0.999891
0.999811
0.999678
0.999462
0.999115
0.998563
0.9977
0.996373
0.994371
0.991417
0.987166
0.981216
0.973137
0.962515
0.94901
0.932396
0.912593
0.889666
0.863805
0.835296
0.804488
0.771767
0.737533
0.702187
0.666113
0.629676
0.593208
0.557011
0.521348
0.486446
0.452493
0.419643
0.388023
0.357728
0.328822
0.301348
0.275325
0.250754
0.227621
0.2059
0.185552
0.166535
0.148795
0.13228
0.116932
0.102694
0.0895063
0.0773125
0.0660549
0.0556814
0.0461457
0.0374036
0.029525
0.0224978
0.0159062
0.0100024
0.00484583
0.00307955
0.00215679
0.00149186
0.00101762
0.000683412
0.000451157
0.000292391
0.000186022
0.000116603
7.30145e-05
4.74803e-05
3.45842e-05
2.6244e-05
1.93144e-05
1.3567e-05
9.02472e-06
5.65587e-06
3.33688e-06
1.86084e-06
9.87869e-07
5.03052e-07
2.4728e-07
1.18692e-07
5.58096e-08
2.57615e-08
1.16946e-08
5.22871e-09
2.3056e-09
1.00392e-09
4.32178e-10
1.84145e-10
7.7733e-11
3.25266e-11
1.34859e-11
5.52462e-12
2.21594e-12
8.47319e-13
2.82839e-13
4.95412e-14
0.999997
0.999987
0.999969
0.99994
0.999891
0.999811
0.999678
0.999462
0.999114
0.998562
0.997699
0.996371
0.994367
0.991412
0.98716
0.981208
0.973127
0.962505
0.948999
0.932387
0.912588
0.889667
0.863815
0.835318
0.804524
0.771821
0.737607
0.702283
0.666234
0.629821
0.593379
0.557208
0.521572
0.486695
0.452766
0.41994
0.388341
0.358065
0.329176
0.301717
0.275706
0.251144
0.228019
0.206302
0.185957
0.166939
0.149197
0.132677
0.117323
0.103075
0.0898761
0.07767
0.066402
0.0560185
0.0464687
0.0377117
0.0298159
0.0227739
0.0161701
0.0102577
0.00508222
0.00309166
0.00215962
0.00148986
0.00101349
0.000678718
0.000446732
0.000288606
0.000182975
0.000114234
7.11836e-05
4.60131e-05
3.3372e-05
2.53792e-05
1.87516e-05
1.32301e-05
8.84253e-06
5.56879e-06
3.30099e-06
1.84871e-06
9.85111e-07
5.03239e-07
2.47985e-07
1.19262e-07
5.61682e-08
2.59648e-08
1.18017e-08
5.28219e-09
2.33123e-09
1.01581e-09
4.37552e-10
1.86521e-10
7.87639e-11
3.29668e-11
1.36711e-11
5.60116e-12
2.24678e-12
8.59153e-13
2.86801e-13
5.02386e-14
0.999997
0.999987
0.999969
0.99994
0.999891
0.99981
0.999678
0.999461
0.999114
0.998561
0.997697
0.996367
0.994363
0.991405
0.98715
0.981196
0.973112
0.962487
0.948981
0.932369
0.912573
0.889657
0.863814
0.835329
0.804552
0.771869
0.737678
0.70238
0.666359
0.629976
0.593565
0.557426
0.521821
0.486976
0.453077
0.42028
0.388708
0.358456
0.32959
0.302149
0.276155
0.251607
0.228491
0.206781
0.186441
0.167424
0.149681
0.133158
0.117797
0.10354
0.0903309
0.0781113
0.0668274
0.0564291
0.0468675
0.0380946
0.0301729
0.0231111
0.0164881
0.0105561
0.00534397
0.00310682
0.00216537
0.00149046
0.00101157
0.000675822
0.000443717
0.000285892
0.000180713
0.00011242
6.97297e-05
4.47871e-05
3.22839e-05
2.45933e-05
1.82457e-05
1.29342e-05
8.68948e-06
5.50168e-06
3.27813e-06
1.84459e-06
9.8675e-07
5.05638e-07
2.49879e-07
1.2042e-07
5.68149e-08
2.63033e-08
1.19706e-08
5.36346e-09
2.36915e-09
1.03306e-09
4.45231e-10
1.89877e-10
8.02075e-11
3.35793e-11
1.39276e-11
5.70698e-12
2.28942e-12
8.75489e-13
2.92263e-13
5.12023e-14
0.999997
0.999987
0.999969
0.99994
0.999891
0.99981
0.999677
0.999461
0.999112
0.998559
0.997694
0.996363
0.994356
0.991396
0.987138
0.981179
0.97309
0.962461
0.948951
0.932338
0.912542
0.889632
0.863796
0.835323
0.804562
0.7719
0.737734
0.702465
0.666475
0.630127
0.593753
0.557651
0.522084
0.487276
0.453414
0.420652
0.389114
0.358893
0.330054
0.302638
0.276665
0.252135
0.229034
0.207335
0.187001
0.167989
0.150246
0.13372
0.118354
0.104089
0.0908689
0.0786362
0.0673368
0.056919
0.0473364
0.0385468
0.0306009
0.0235173
0.0168736
0.0109213
0.00566911
0.00312531
0.00217435
0.00149397
0.00101214
0.000674979
0.000442317
0.000284399
0.000179342
0.000111232
6.86948e-05
4.38233e-05
3.13342e-05
2.38946e-05
1.78041e-05
1.26857e-05
8.57056e-06
5.45826e-06
3.27087e-06
1.84953e-06
9.93493e-07
5.10999e-07
2.53308e-07
1.22336e-07
5.78216e-08
2.68091e-08
1.22159e-08
5.47886e-09
2.42211e-09
1.05684e-09
4.55705e-10
1.94416e-10
8.21473e-11
3.43979e-11
1.4269e-11
5.84741e-12
2.34591e-12
8.97122e-13
2.99492e-13
5.24745e-14
0.999997
0.999987
0.999969
0.99994
0.999891
0.99981
0.999677
0.99946
0.999111
0.998557
0.99769
0.996357
0.994348
0.991384
0.98712
0.981155
0.97306
0.962424
0.948907
0.932288
0.912491
0.889581
0.863752
0.83529
0.804544
0.7719
0.737761
0.702523
0.666568
0.630258
0.593925
0.557866
0.522343
0.487579
0.453761
0.421042
0.389544
0.359361
0.330557
0.303173
0.277227
0.252721
0.22964
0.207956
0.187634
0.168628
0.15089
0.134363
0.118993
0.104721
0.0914906
0.0792448
0.0679296
0.0574936
0.0478894
0.0390752
0.0311009
0.0239972
0.0173291
0.011352
0.00606857
0.00314759
0.00218722
0.0015011
0.00101582
0.000676674
0.000442921
0.000284426
0.00017907
0.000110802
6.81545e-05
4.31605e-05
3.05295e-05
2.32777e-05
1.74233e-05
1.24837e-05
8.48649e-06
5.43982e-06
3.27977e-06
1.86484e-06
1.00669e-06
5.19833e-07
2.58506e-07
1.25126e-07
5.9248e-08
2.7511e-08
1.25507e-08
5.63439e-09
2.49273e-09
1.08827e-09