/*--------------------------------*- C++ -*----------------------------------*\
  =========                 |
  \\      /  F ield         | OpenFOAM: The Open Source CFD Toolbox
   \\    /   O peration     | Website:  https://openfoam.org
    \\  /    A nd           | Version:  8
     \\/     M anipulation  |
\*---------------------------------------------------------------------------*/
FoamFile
{
    version     2.0;
    format      ascii;
    class       volScalarField;
    location    "500/fluid";
    object      CO2;
}
// * * * * * * * * * * * * * * * * * * * * * * * * * * * * * * * * * * * * * //

dimensions      [0 0 0 0 0 0 0];

internalField   nonuniform List<scalar> 
4000
(
4.56873e-07
1.99611e-06
4.58298e-06
8.91598e-06
1.61418e-05
2.81243e-05
4.78575e-05
8.00831e-05
0.000132184
0.000215424
0.000346567
0.000549821
0.00085885
0.00131835
0.00198426
0.00292167
0.0041994
0.00588159
0.00801866
0.0106396
0.0137485
0.0173258
0.0213326
0.0257168
0.0304183
0.0353739
0.0405203
0.0457966
0.051146
0.0565162
0.0618607
0.0671387
0.0723154
0.0773618
0.0822545
0.086975
0.0915088
0.0958456
0.0999787
0.103905
0.107622
0.111133
0.11444
0.117548
0.12046
0.123183
0.125723
0.128084
0.130271
0.132289
0.13414
0.135824
0.13734
0.138681
0.139838
0.140797
0.141534
0.142018
0.142206
0.142053
0.14148
0.140389
0.138681
0.128217
0.117512
0.106766
0.0961353
0.0857383
0.0756694
0.0660044
0.0568064
0.0481307
0.0400281
0.0325789
0.0257695
0.0196978
0.0144287
0.0100266
0.00654176
0.00397547
0.00224488
0.00118325
0.000587596
0.000279414
0.000128998
5.81835e-05
2.57536e-05
1.1224e-05
4.82895e-06
2.0552e-06
8.66755e-07
3.62741e-07
1.50808e-07
6.23207e-08
2.55863e-08
1.04057e-08
4.15363e-09
1.58437e-09
5.28851e-10
9.26941e-11
4.59263e-07
2.00719e-06
4.61115e-06
8.97813e-06
1.62697e-05
2.83737e-05
4.832e-05
8.08976e-05
0.000133541
0.000217545
0.000349633
0.000553809
0.00086321
0.00132166
0.00198384
0.00291329
0.00417721
0.00583891
0.00794883
0.0105372
0.0136106
0.0171521
0.0211256
0.0254813
0.0301607
0.0351013
0.0402399
0.0455155
0.0508701
0.0562508
0.06161
0.0669059
0.0721028
0.0771708
0.0820857
0.0868286
0.0913844
0.0957423
0.0998955
0.10384
0.107575
0.111102
0.114424
0.117544
0.120467
0.1232
0.125747
0.128115
0.130308
0.13233
0.134183
0.135869
0.137383
0.138722
0.139874
0.140823
0.141545
0.142002
0.14215
0.141929
0.141246
0.139978
0.137988
0.127359
0.116539
0.105711
0.0950208
0.0845805
0.0744809
0.0647966
0.0555905
0.0469189
0.0388352
0.0314295
0.0246803
0.0186986
0.0135516
0.00930287
0.00599287
0.00360129
0.00201907
0.00106289
0.000530396
0.000254237
0.00011853
5.40168e-05
2.41473e-05
1.06174e-05
4.60215e-06
1.97035e-06
8.34711e-07
3.50443e-07
1.45998e-07
6.04057e-08
2.48144e-08
1.00937e-08
4.02911e-09
1.53681e-09
5.12959e-10
8.9935e-11
4.63175e-07
2.02472e-06
4.65325e-06
9.06419e-06
1.64317e-05
2.86619e-05
4.88074e-05
8.16813e-05
0.000134734
0.000219252
0.000351892
0.000556529
0.000866196
0.00132427
0.00198462
0.00290939
0.00416449
0.00581211
0.00790214
0.0104651
0.0135085
0.0170173
0.0209576
0.0252816
0.029933
0.0348508
0.0399729
0.0452385
0.0505897
0.0559734
0.0613411
0.0666504
0.0718647
0.0769532
0.0818908
0.0866578
0.0912384
0.0956213
0.0997988
0.103767
0.107525
0.111074
0.114414
0.117551
0.12049
0.123236
0.125795
0.128173
0.130374
0.132402
0.134259
0.135947
0.137462
0.138798
0.139945
0.140885
0.141592
0.142023
0.142137
0.14186
0.141086
0.139663
0.136618
0.125824
0.114889
0.103985
0.0932457
0.0827811
0.0726793
0.063014
0.0538489
0.0452416
0.0372473
0.0299544
0.0233526
0.0175489
0.012605
0.00857413
0.0054777
0.00327174
0.00182916
0.000963486
0.000482409
0.000232237
0.00010881
4.98433e-05
2.23955e-05
9.89493e-06
4.30787e-06
1.85147e-06
7.86876e-07
3.31207e-07
1.38249e-07
5.72746e-08
2.35471e-08
9.5821e-09
3.82545e-09
1.4591e-09
4.86956e-10
8.53698e-11
4.65449e-07
2.03462e-06
4.6758e-06
9.10738e-06
1.65077e-05
2.87873e-05
4.90025e-05
8.19645e-05
0.000135109
0.000219681
0.000352269
0.000556555
0.000865083
0.00132068
0.00197657
0.00289435
0.00413932
0.00577318
0.00784573
0.0103879
0.013408
0.0168922
0.0208079
0.0251088
0.0297395
0.0346401
0.0397492
0.0450065
0.0503546
0.0557399
0.0611141
0.0664342
0.0716629
0.076769
0.0817266
0.0865154
0.0911189
0.0955252
0.0997267
0.103719
0.107499
0.111068
0.114427
0.117582
0.120536
0.123296
0.125868
0.128255
0.130464
0.132499
0.13436
0.13605
0.137566
0.1389
0.140043
0.140977
0.141676
0.142098
0.142201
0.141918
0.141147
0.139759
0.134594
0.123773
0.112809
0.101885
0.0911421
0.0806931
0.0706282
0.0610227
0.0519412
0.0434424
0.0355826
0.0284221
0.0220046
0.0164031
0.0116744
0.00786253
0.00497362
0.00294517
0.00163645
0.000859241
0.000430055
0.000207388
9.74423e-05
4.47908e-05
2.02016e-05
8.9606e-06
3.91633e-06
1.68951e-06
7.2056e-07
3.04254e-07
1.27351e-07
5.28846e-08
2.17848e-08
8.87894e-09
3.54902e-09
1.35482e-09
4.52357e-10
7.93247e-11
4.66406e-07
2.0387e-06
4.68483e-06
9.12405e-06
1.65358e-05
2.88315e-05
4.90665e-05
8.20469e-05
0.000135192
0.000219703
0.000352057
0.000555769
0.000863166
0.00131671
0.00196913
0.00288149
0.00411851
0.00574153
0.00780028
0.010326
0.0133277
0.0167925
0.020689
0.0249718
0.0295865
0.0344739
0.0395734
0.044825
0.0501713
0.0555589
0.0609393
0.066269
0.0715106
0.0766322
0.0816075
0.0864157
0.0910402
0.0954686
0.0996916
0.103703
0.107502
0.111089
0.114466
0.117637
0.120606
0.123378
0.12596
0.128356
0.130572
0.132611
0.134476
0.136166
0.13768
0.13901
0.140147
0.141072
0.14176
0.142167
0.142254
0.141951
0.141155
0.13973
0.13236
0.121551
0.110593
0.0996794
0.0889601
0.0785517
0.0685475
0.059024
0.0500466
0.041674
0.033969
0.0269674
0.0207377
0.015339
0.0108221
0.00722114
0.00452711
0.00266073
0.00147086
0.000770384
0.000385501
0.000186153
8.76497e-05
4.03889e-05
1.82631e-05
8.12115e-06
3.55787e-06
1.53822e-06
6.5732e-07
2.78031e-07
1.16549e-07
4.846e-08
1.9983e-08
8.15135e-09
3.26022e-09
1.24507e-09
4.15766e-10
7.29129e-11
4.66383e-07
2.03851e-06
4.68399e-06
9.12122e-06
1.65275e-05
2.88098e-05
4.90139e-05
8.1927e-05
0.000134933
0.000219173
0.000351034
0.000553882
0.00085983
0.00131106
0.00195995
0.00286719
0.00409723
0.00571123
0.007759
0.0102721
0.0132601
0.0167109
0.0205936
0.0248638
0.0294677
0.0343467
0.0394404
0.0446893
0.0500361
0.0554273
0.0608143
0.0661535
0.0714069
0.0765427
0.0815345
0.0863606
0.0910033
0.0954488
0.0996886
0.103718
0.107534
0.111137
0.114529
0.117713
0.120694
0.123477
0.126067
0.128469
0.13069
0.132731
0.134595
0.136283
0.137791
0.139113
0.140238
0.141149
0.141818
0.142203
0.142267
0.141936
0.141109
0.139658
0.130187
0.119419
0.108471
0.0975685
0.0868739
0.07651
0.0665718
0.0571357
0.0482659
0.04002
0.0324766
0.0256346
0.0195834
0.0143762
0.0100569
0.00664958
0.0041315
0.00240921
0.00132393
0.000690804
0.000345033
0.000166598
7.85049e-05
3.62245e-05
1.64083e-05
7.31048e-06
3.20919e-06
1.39027e-06
5.95258e-07
2.52238e-07
1.05911e-07
4.41008e-08
1.8208e-08
7.43472e-09
2.97582e-09
1.137e-09
3.79737e-10
6.65986e-11
4.6571e-07
2.03549e-06
4.67669e-06
9.10597e-06
1.64975e-05
2.87524e-05
4.8906e-05
8.17274e-05
0.000134569
0.000218523
0.000349895
0.00055193
0.000856572
0.00130577
0.00195166
0.00285464
0.00407897
0.00568572
0.00772483
0.0102282
0.0132059
0.0166463
0.0205193
0.0247809
0.0293778
0.0342518
0.039343
0.0445917
0.0499408
0.0553369
0.0607311
0.0660799
0.0713453
0.0764947
0.0815009
0.0863411
0.090998
0.0954587
0.0997142
0.103759
0.107589
0.111206
0.11461
0.117805
0.120795
0.123585
0.126181
0.128588
0.130809
0.13285
0.13471
0.136392
0.13789
0.139197
0.140303
0.141188
0.141827
0.142173
0.142196
0.141824
0.140971
0.139554
0.128801
0.117761
0.106667
0.0956967
0.0849889
0.0746515
0.0647705
0.0554162
0.0466488
0.0385222
0.0311195
0.0244233
0.0185408
0.0135163
0.00938094
0.00615061
0.00379016
0.00219448
0.00119949
0.000623706
0.000310941
0.000150084
7.07457e-05
3.26681e-05
1.48121e-05
6.60686e-06
2.90387e-06
1.25958e-06
5.39971e-07
2.29083e-07
9.62954e-08
4.01372e-08
1.65859e-08
6.77714e-09
2.71399e-09
1.03724e-09
3.46424e-10
6.07548e-11
4.64696e-07
2.03099e-06
4.66608e-06
9.08451e-06
1.64568e-05
2.86776e-05
4.87715e-05
8.14891e-05
0.000134154
0.000217809
0.000348691
0.000549942
0.000853368
0.00130075
0.00194402
0.00284343
0.0040631
0.00566413
0.00769661
0.0101927
0.0131629
0.0165962
0.0204627
0.0247189
0.0293119
0.0341839
0.0392747
0.0445252
0.0498782
0.0552802
0.0606825
0.0660411
0.0713173
0.0764778
0.0814954
0.0863484
0.0910188
0.0954931
0.0997617
0.103819
0.107661
0.111288
0.114702
0.117905
0.120903
0.123698
0.126298
0.128706
0.130927
0.132964
0.134819
0.13649
0.137974
0.139263
0.140341
0.141187
0.14177
0.142039
0.141952
0.141416
0.140319
0.138545
0.127468
0.116226
0.105016
0.093994
0.0832814
0.0729751
0.0631532
0.0538804
0.0452122
0.0371985
0.0299131
0.0233617
0.0176277
0.0127628
0.00879428
0.00572209
0.00349933
0.00201246
0.00109417
0.000566823
0.00028191
0.000135947
6.4065e-05
2.95887e-05
1.34226e-05
5.99141e-06
2.63567e-06
1.14435e-06
4.91063e-07
2.08543e-07
8.77454e-08
3.66058e-08
1.51382e-08
6.18945e-09
2.47971e-09
9.47904e-10
3.16571e-10
5.5516e-11
4.63582e-07
2.02609e-06
4.65462e-06
9.06167e-06
1.64142e-05
2.86008e-05
4.8636e-05
8.12543e-05
0.000133753
0.000217136
0.00034758
0.000548146
0.000850532
0.00129639
0.00193751
0.00283404
0.00405004
0.00564666
0.00767414
0.010165
0.0131299
0.0165584
0.0204208
0.0246741
0.0292655
0.0341373
0.0392297
0.0444834
0.0498415
0.0552503
0.0606604
0.0660273
0.0713125
0.0764832
0.0815121
0.0863767
0.0910588
0.0955446
0.0998242
0.103892
0.107744
0.111379
0.114801
0.11801
0.121012
0.123811
0.126412
0.12882
0.131039
0.133072
0.13492
0.136582
0.138052
0.139322
0.140374
0.141187
0.141719
0.141921
0.141731
0.141036
0.139679
0.137306
0.126064
0.114719
0.103456
0.0924212
0.0817274
0.0714658
0.0617106
0.0525238
0.0439602
0.0360717
0.028926
0.0225357
0.0169228
0.0121645
0.00830938
0.00536375
0.00325595
0.00186027
0.0010062
0.000519295
0.000257616
0.000124087
5.84418e-05
2.69873e-05
1.22442e-05
5.4674e-06
2.40641e-06
1.04548e-06
4.48954e-07
1.908e-07
8.03385e-08
3.35387e-08
1.38782e-08
5.677e-09
2.27513e-09
8.69804e-10
2.90461e-10
5.09292e-11
4.62499e-07
2.02133e-06
4.64356e-06
9.03977e-06
1.63736e-05
2.85284e-05
4.85097e-05
8.10376e-05
0.000133387
0.00021653
0.000346594
0.000546576
0.000848089
0.00129269
0.00193208
0.00282634
0.00403951
0.00563282
0.00765668
0.0101438
0.0131053
0.0165308
0.0203911
0.0246432
0.0292347
0.0341078
0.0392031
0.0444611
0.0498245
0.0552393
0.0606562
0.0660311
0.0713254
0.0765058
0.0815447
0.0864193
0.0911114
0.0956067
0.0998954
0.103971
0.107831
0.111473
0.1149
0.118114
0.121119
0.12392
0.126521
0.128928
0.131145
0.133173
0.135015
0.136668
0.138128
0.139385
0.140422
0.141217
0.14173
0.141916
0.141718
0.141037
0.139749
0.135902
0.124625
0.113262
0.102
0.0909828
0.0803248
0.070116
0.0604297
0.051327
0.0428621
0.0350903
0.0280509
0.0217546
0.0162897
0.0116652
0.00791384
0.00506221
0.00305048
0.00173187
0.000932082
0.000479287
0.000237161
0.000114092
5.3697e-05
2.47886e-05
1.12464e-05
5.02284e-06
2.21153e-06
9.61266e-07
4.13018e-07
1.75632e-07
7.39963e-08
3.09086e-08
1.27963e-08
5.23653e-09
2.09913e-09
8.02578e-10
2.67984e-10
4.69769e-11
4.6152e-07
2.01703e-06
4.63361e-06
9.02016e-06
1.63375e-05
2.84644e-05
4.83988e-05
8.0849e-05
0.000133072
0.000216013
0.000345762
0.000545265
0.000846074
0.00128968
0.00192772
0.00282024
0.0040313
0.00562221
0.00764354
0.0101282
0.0130876
0.0165115
0.020371
0.0246232
0.0292159
0.0340915
0.0391902
0.0444524
0.0498207
0.0552415
0.0606655
0.0660482
0.0713507
0.0765397
0.0815872
0.0864705
0.0911708
0.0956741
0.0999701
0.104052
0.107918
0.111565
0.114996
0.118213
0.12122
0.124021
0.126622
0.129027
0.131241
0.133265
0.135101
0.136747
0.138198
0.139445
0.140471
0.141255
0.141756
0.141933
0.14173
0.141049
0.139767
0.134513
0.123244
0.111899
0.100664
0.0896851
0.0790761
0.0689271
0.0593123
0.05029
0.0419111
0.0342179
0.0272325
0.0210297
0.0156578
0.0111553
0.00754842
0.00480132
0.00287203
0.00162181
0.000869158
0.000445536
0.000219973
0.000105709
4.97194e-05
2.29449e-05
1.04091e-05
4.64934e-06
2.04758e-06
8.90314e-07
3.82695e-07
1.62814e-07
6.86292e-08
2.86803e-08
1.18788e-08
4.86269e-09
1.94968e-09
7.4547e-10
2.48887e-10
4.36219e-11
4.60676e-07
2.01334e-06
4.62507e-06
9.00336e-06
1.63068e-05
2.841e-05
4.83051e-05
8.06908e-05
0.00013281
0.000215586
0.00034508
0.000544201
0.000844457
0.00128729
0.00192431
0.00281554
0.00402508
0.00561432
0.00763397
0.0101171
0.0130754
0.0164987
0.0203584
0.0246117
0.0292064
0.0340847
0.0391867
0.0444531
0.0498266
0.0552535
0.060684
0.0660737
0.0713835
0.0765799
0.0816348
0.0865253
0.0912325
0.0957421
0.100044
0.104132
0.108001
0.111652
0.115085
0.118304
0.121311
0.124113
0.126712
0.129115
0.131325
0.133344
0.135174
0.136813
0.138256
0.139494
0.140511
0.141284
0.141774
0.141941
0.141729
0.141042
0.139758
0.133272
0.122012
0.110688
0.0994846
0.0885515
0.0779995
0.0679146
0.0583662
0.0494029
0.0410763
0.0334306
0.0265256
0.0204103
0.0151307
0.0107241
0.0072119
0.00457624
0.00272167
0.00152859
0.000816315
0.000417342
0.00020566
9.87364e-05
4.64126e-05
2.14119e-05
9.71241e-06
4.33831e-06
1.91091e-06
8.31098e-07
3.57357e-07
1.5209e-07
6.41336e-08
2.68117e-08
1.11086e-08
4.54868e-09
1.82414e-09
6.97537e-10
2.32892e-10
4.08161e-11
4.59975e-07
2.01027e-06
4.61799e-06
8.98948e-06
1.62814e-05
2.83654e-05
4.82286e-05
8.05623e-05
0.000132598
0.000215243
0.000344538
0.000543364
0.000843198
0.00128546
0.00192172
0.00281203
0.00402052
0.00560865
0.00762728
0.0101097
0.0130675
0.016491
0.0203515
0.0246063
0.029203
0.034084
0.0391897
0.0444605
0.0498391
0.0552714
0.0607078
0.0661037
0.0714198
0.0766224
0.0816835
0.0865799
0.0912927
0.0958075
0.100114
0.104205
0.108078
0.111731
0.115166
0.118385
0.121393
0.124193
0.12679
0.12919
0.131396
0.13341
0.135234
0.136866
0.138301
0.13953
0.140536
0.141299
0.141778
0.141935
0.141713
0.141018
0.139732
0.132204
0.120947
0.109639
0.09847
0.0875782
0.0770634
0.067013
0.0574952
0.0485791
0.0403138
0.0327457
0.0259182
0.019883
0.0146861
0.0103636
0.00693405
0.00437469
0.00259953
0.00145328
0.000772767
0.0003941
0.000193887
9.30054e-05
4.36946e-05
2.01513e-05
9.13911e-06
4.08211e-06
1.7982e-06
7.82204e-07
3.3641e-07
1.43213e-07
6.04077e-08
2.52613e-08
1.0469e-08
4.2877e-09
1.71973e-09
6.57663e-10
2.19586e-10
3.84821e-11
4.59411e-07
2.0078e-06
4.6123e-06
8.97835e-06
1.62611e-05
2.83298e-05
4.81679e-05
8.04607e-05
0.000132431
0.000214976
0.000344119
0.000542722
0.000842244
0.00128408
0.00191981
0.00280948
0.00401727
0.00560474
0.00762282
0.0101049
0.0130629
0.0164869
0.0203485
0.0246049
0.0292039
0.0340878
0.0391971
0.044472
0.0498551
0.0552922
0.0607338
0.0661349
0.0714563
0.0766642
0.0817303
0.0866315
0.0913487
0.0958673
0.100177
0.104271
0.108146
0.111801
0.115236
0.118455
0.121462
0.12426
0.126855
0.129251
0.131453
0.133462
0.135279
0.136904
0.138331
0.13955
0.140548
0.1413
0.141768
0.141915
0.141683
0.140979
0.139693
0.131303
0.12004
0.108743
0.0975913
0.0867147
0.0762285
0.0662176
0.0567514
0.0478886
0.0396803
0.0321732
0.02541
0.0194424
0.0143157
0.0100649
0.00670575
0.00421119
0.0024902
0.00139228
0.000738399
0.000375387
0.000184331
8.83535e-05
4.14873e-05
1.91265e-05
8.6725e-06
3.8733e-06
1.70621e-06
7.42247e-07
3.19268e-07
1.35941e-07
5.7352e-08
2.39885e-08
9.94348e-09
4.07312e-09
1.63385e-09
6.24865e-10
2.0864e-10
3.656e-11
4.58969e-07
2.00587e-06
4.60785e-06
8.96966e-06
1.62453e-05
2.83022e-05
4.81209e-05
8.03826e-05
0.000132304
0.000214773
0.000343803
0.000542243
0.000841539
0.00128308
0.00191844
0.00280769
0.00401506
0.00560215
0.00762001
0.0101021
0.0130605
0.0164853
0.0203481
0.0246062
0.0292074
0.0340942
0.0392066
0.0444851
0.0498721
0.0553135
0.0607593
0.0661648
0.0714905
0.0767026
0.0817727
0.0866776
0.0913981
0.0959196
0.100232
0.104328
0.108204
0.111859
0.115295
0.118513
0.121518
0.124314
0.126906
0.129298
0.131495
0.133499
0.13531
0.136928
0.138347
0.139558
0.140546
0.141289
0.141748
0.141886
0.141646
0.140935
0.139647
0.130551
0.119278
0.107988
0.096846
0.0859941
0.0755383
0.0655632
0.0561375
0.0473189
0.0391581
0.0317015
0.0249913
0.0190798
0.0140116
0.00982039
0.00651991
0.0040792
0.00240307
0.00133848
0.000710234
0.000360791
0.000176807
8.46453e-05
3.97197e-05
1.8304e-05
8.29719e-06
3.70506e-06
1.63199e-06
7.09965e-07
3.05406e-07
1.30054e-07
5.48766e-08
2.29567e-08
9.51726e-09
3.89903e-09
1.56418e-09
5.98267e-10
1.99765e-10
3.50001e-11
4.58632e-07
2.0044e-06
4.60447e-06
8.96306e-06
1.62333e-05
2.82814e-05
4.80856e-05
8.03241e-05
0.000132209
0.000214623
0.000343571
0.000541895
0.000841032
0.00128237
0.00191749
0.00280648
0.0040136
0.00560052
0.00761837
0.0101007
0.0130595
0.0164851
0.0203492
0.024609
0.0292123
0.0341015
0.0392167
0.0444983
0.0498885
0.0553333
0.0607826
0.0661915
0.0715206
0.076736
0.0818091
0.0867167
0.0914396
0.0959631
0.100277
0.104374
0.10825
0.111906
0.115341
0.118558
0.121561
0.124354
0.126943
0.129332
0.131524
0.133522
0.135327
0.136938
0.13835
0.139553
0.140533
0.141269
0.141721
0.141856
0.141619
0.140921
0.139668
0.129943
0.118659
0.107367
0.0962385
0.0854072
0.0749774
0.0650324
0.0556402
0.0468579
0.038736
0.0313204
0.0246534
0.0187876
0.0137668
0.00962414
0.00637128
0.00397416
0.00233427
0.00129653
0.000686053
0.000348639
0.000170935
8.17585e-05
3.83256e-05
1.76508e-05
7.99855e-06
3.57115e-06
1.5729e-06
6.84262e-07
2.94367e-07
1.25366e-07
5.29058e-08
2.21356e-08
9.17815e-09
3.76066e-09
1.50887e-09
5.7716e-10
1.92722e-10
3.37634e-11
4.58385e-07
2.00332e-06
4.60198e-06
8.95822e-06
1.62246e-05
2.82661e-05
4.80599e-05
8.02817e-05
0.000132141
0.000214515
0.000343406
0.000541649
0.000840679
0.00128188
0.00191685
0.00280568
0.00401268
0.00559956
0.00761749
0.0101001
0.0130594
0.0164859
0.020351
0.0246122
0.0292173
0.0341085
0.039226
0.04451
0.0499028
0.0553502
0.0608022
0.0662138
0.0715454
0.076763
0.0818383
0.0867476
0.091472
0.0959967
0.100311
0.104409
0.108285
0.11194
0.115374
0.11859
0.121591
0.124382
0.126967
0.129352
0.131539
0.133532
0.135331
0.136935
0.13834
0.139535
0.140508
0.141235
0.141681
0.14181
0.141568
0.140869
0.13962
0.129474
0.118173
0.106879
0.0957595
0.0849441
0.0745351
0.0646145
0.0552493
0.0464963
0.0384053
0.0310224
0.0243894
0.0185596
0.0135763
0.00947174
0.00625619
0.00389312
0.00228138
0.00126445
0.000667719
0.000338523
0.000165807
7.93915e-05
3.72293e-05
1.71427e-05
7.76638e-06
3.467e-06
1.52699e-06
6.64337e-07
2.8583e-07
1.21748e-07
5.13883e-08
2.15049e-08
8.91841e-09
3.65483e-09
1.46658e-09
5.6102e-10
1.87336e-10
3.28199e-11
4.58212e-07
2.00256e-06
4.60025e-06
8.95484e-06
1.62184e-05
2.82555e-05
4.8042e-05
8.02524e-05
0.000132094
0.000214442
0.000343293
0.000541484
0.000840443
0.00128156
0.00191643
0.00280518
0.00401212
0.00559901
0.00761706
0.0100999
0.0130597
0.0164868
0.0203529
0.0246153
0.0292217
0.0341144
0.0392336
0.0445194
0.0499141
0.0553634
0.0608173
0.0662307
0.071564
0.0767832
0.0818596
0.08677
0.0914952
0.0960204
0.100335
0.104433
0.108309
0.111963
0.115396
0.11861
0.121609
0.124397
0.126979
0.12936
0.131543
0.13353
0.135324
0.136922
0.13832
0.139508
0.140473
0.141193
0.141632
0.141756
0.141512
0.140815
0.139578
0.129126
0.117808
0.106511
0.0953981
0.0845953
0.0742029
0.0643015
0.0549575
0.046227
0.0381598
0.0308016
0.0241943
0.0183914
0.0134361
0.00935994
0.00617207
0.00383411
0.00224303
0.00124131
0.000654624
0.000331501
0.000162223
7.76063e-05
3.64046e-05
1.67709e-05
7.59942e-06
3.3927e-06
1.49436e-06
6.50176e-07
2.79758e-07
1.19174e-07
5.0307e-08
2.10547e-08
8.73264e-09
3.57902e-09
1.43625e-09
5.49437e-10
1.8347e-10
3.21424e-11
4.58104e-07
2.00209e-06
4.59916e-06
8.95272e-06
1.62146e-05
2.82489e-05
4.80308e-05
8.0234e-05
0.000132065
0.000214396
0.000343224
0.000541382
0.000840299
0.00128137
0.00191619
0.00280489
0.00401181
0.00559873
0.00761689
0.0101
0.0130601
0.0164877
0.0203544
0.0246175
0.0292249
0.0341186
0.0392389
0.0445259
0.0499219
0.0553724
0.0608275
0.066242
0.0715763
0.0767962
0.0818733
0.086784
0.0915094
0.0960346
0.100349
0.104446
0.108322
0.111975
0.115407
0.118619
0.121616
0.124402
0.126982
0.129359
0.131538
0.133522
0.13531
0.136903
0.138294
0.139477
0.140435
0.141149
0.141582
0.141703
0.141459
0.140768
0.139546
0.128897
0.11756
0.106259
0.0951504
0.0843568
0.0739767
0.0640895
0.0547608
0.0460464
0.0379958
0.0306547
0.024065
0.0182804
0.0133438
0.00928667
0.0061172
0.00379585
0.0022183
0.00122642
0.000646207
0.000326991
0.000159965
7.64994e-05
3.58666e-05
1.652e-05
7.4877e-06
3.34369e-06
1.47302e-06
6.40986e-07
2.75841e-07
1.1752e-07
4.96145e-08
2.07669e-08
8.61391e-09
3.53056e-09
1.41685e-09
5.42025e-10
1.80994e-10
3.17085e-11
4.58053e-07
2.00187e-06
4.59865e-06
8.95173e-06
1.62128e-05
2.82458e-05
4.80256e-05
8.02255e-05
0.000132051
0.000214375
0.000343192
0.000541335
0.000840234
0.00128128
0.00191608
0.00280476
0.00401168
0.00559862
0.00761683
0.0101
0.0130603
0.0164882
0.0203552
0.0246187
0.0292265
0.0341208
0.0392416
0.0445292
0.0499258
0.0553769
0.0608325
0.0662475
0.0715822
0.0768025
0.0818798
0.0867905
0.0915156
0.0960407
0.100355
0.104452
0.108327
0.11198
0.11541
0.118622
0.121617
0.124402
0.126979
0.129355
0.131531
0.133512
0.135297
0.136886
0.138274
0.139451
0.140405
0.141115
0.141544
0.141663
0.141419
0.140735
0.139529
0.128783
0.117431
0.106126
0.0950193
0.0842315
0.073859
0.0639804
0.0546606
0.0459552
0.0379138
0.0305819
0.0240015
0.0182263
0.0132993
0.00925156
0.00609113
0.00377782
0.00220675
0.00121952
0.000642318
0.000324909
0.00015893
7.59966e-05
3.56264e-05
1.64073e-05
7.43525e-06
3.32008e-06
1.46267e-06
6.36523e-07
2.7394e-07
1.16719e-07
4.92793e-08
2.06277e-08
8.55654e-09
3.50715e-09
1.40748e-09
5.3844e-10
1.79796e-10
3.14984e-11
4.58057e-07
2.00188e-06
4.59869e-06
8.95181e-06
1.6213e-05
2.8246e-05
4.8026e-05
8.02262e-05
0.000132052
0.000214376
0.000343195
0.000541339
0.000840241
0.00128129
0.00191609
0.00280478
0.0040117
0.00559866
0.00761688
0.0101001
0.0130604
0.0164882
0.0203553
0.0246188
0.0292266
0.0341209
0.0392417
0.0445293
0.0499259
0.055377
0.0608326
0.0662476
0.0715823
0.0768026
0.0818799
0.0867906
0.0915157
0.0960408
0.100355
0.104452
0.108327
0.11198
0.11541
0.118622
0.121618
0.124402
0.126979
0.129355
0.131531
0.133512
0.135297
0.136886
0.138274
0.139451
0.140405
0.141115
0.141544
0.141663
0.141419
0.140735
0.139529
0.128783
0.117431
0.106126
0.0950191
0.0842313
0.0738589
0.0639802
0.0546604
0.0459551
0.0379137
0.0305818
0.0240014
0.0182263
0.0132992
0.00925152
0.0060911
0.0037778
0.00220674
0.00121951
0.000642313
0.000324907
0.000158929
7.59961e-05
3.56262e-05
1.64072e-05
7.43521e-06
3.32006e-06
1.46266e-06
6.36519e-07
2.73939e-07
1.16718e-07
4.92791e-08
2.06276e-08
8.55649e-09
3.50713e-09
1.40747e-09
5.38437e-10
1.79795e-10
3.14982e-11
4.58115e-07
2.00214e-06
4.59927e-06
8.95295e-06
1.6215e-05
2.82496e-05
4.8032e-05
8.0236e-05
0.000132068
0.000214401
0.000343232
0.000541395
0.000840319
0.0012814
0.00191623
0.00280495
0.00401189
0.00559884
0.00761702
0.0101001
0.0130603
0.0164879
0.0203547
0.0246178
0.0292252
0.034119
0.0392393
0.0445263
0.0499223
0.0553728
0.0608278
0.0662423
0.0715766
0.0767965
0.0818736
0.0867843
0.0915097
0.0960349
0.10035
0.104447
0.108322
0.111976
0.115407
0.11862
0.121616
0.124402
0.126982
0.129359
0.131538
0.133522
0.13531
0.136903
0.138295
0.139477
0.140435
0.141149
0.141582
0.141703
0.141459
0.140768
0.139546
0.128896
0.117559
0.106259
0.0951497
0.0843562
0.0739761
0.064089
0.0547604
0.046046
0.0379955
0.0306544
0.0240647
0.0182802
0.0133436
0.00928654
0.00611711
0.00379579
0.00221826
0.0012264
0.000646194
0.000326985
0.000159961
7.64978e-05
3.58658e-05
1.65197e-05
7.48755e-06
3.34364e-06
1.473e-06
6.40977e-07
2.75837e-07
1.17518e-07
4.96137e-08
2.07665e-08
8.61374e-09
3.53049e-09
1.41682e-09
5.42013e-10
1.8099e-10
3.17078e-11
4.58232e-07
2.00265e-06
4.60045e-06
8.95523e-06
1.62191e-05
2.82567e-05
4.80441e-05
8.02558e-05
0.0001321
0.000214451
0.000343308
0.000541506
0.000840477
0.00128161
0.00191651
0.00280528
0.00401226
0.00559919
0.0076173
0.0101002
0.0130601
0.0164872
0.0203534
0.0246158
0.0292222
0.034115
0.0392342
0.04452
0.0499147
0.0553641
0.0608179
0.0662313
0.0715646
0.0767837
0.0818602
0.0867706
0.0914957
0.096021
0.100336
0.104433
0.108309
0.111963
0.115396
0.11861
0.121609
0.124397
0.126979
0.12936
0.131543
0.133531
0.135324
0.136922
0.13832
0.139508
0.140473
0.141193
0.141632
0.141756
0.141512
0.140815
0.139578
0.129125
0.117806
0.10651
0.095397
0.0845943
0.0742019
0.0643007
0.0549568
0.0462263
0.0381592
0.0308011
0.0241939
0.0183911
0.0134358
0.00935971
0.0061719
0.003834
0.00224296
0.00124126
0.000654601
0.000331489
0.000162216
7.76034e-05
3.64033e-05
1.67702e-05
7.59916e-06
3.39257e-06
1.4943e-06
6.5015e-07
2.79747e-07
1.19169e-07
5.03049e-08
2.10538e-08
8.73226e-09
3.57887e-09
1.43619e-09
5.49413e-10
1.83462e-10
3.21409e-11
4.58412e-07
2.00344e-06
4.60226e-06
8.95875e-06
1.62255e-05
2.82678e-05
4.80627e-05
8.02864e-05
0.000132149
0.000214528
0.000343425
0.00054168
0.000840726
0.00128195
0.00191695
0.00280582
0.00401287
0.00559981
0.00761781
0.0101005
0.0130599
0.0164864
0.0203516
0.0246129
0.029218
0.0341093
0.0392268
0.0445108
0.0499037
0.0553511
0.0608031
0.0662146
0.0715462
0.0767639
0.0818391
0.0867484
0.0914728
0.0959974
0.100312
0.104409
0.108286
0.111941
0.115375
0.11859
0.121591
0.124382
0.126967
0.129352
0.131539
0.133532
0.135331
0.136935
0.13834
0.139536
0.140508
0.141236
0.141681
0.14181
0.141568
0.140869
0.13962
0.129472
0.118172
0.106877
0.095758
0.0849427
0.0745338
0.0646133
0.0552483
0.0464953
0.0384045
0.0310217
0.0243888
0.0185591
0.0135759
0.00947142
0.00625596
0.00389296
0.00228127
0.00126439
0.000667686
0.000338505
0.000165798
7.93873e-05
3.72275e-05
1.71418e-05
7.76596e-06
3.46681e-06
1.52691e-06
6.64296e-07
2.85812e-07
1.21741e-07
5.1385e-08
2.15035e-08
8.91782e-09
3.65459e-09
1.46648e-09
5.60982e-10
1.87323e-10
3.28177e-11
4.58667e-07
2.00455e-06
4.60482e-06
8.96374e-06
1.62346e-05
2.82835e-05
4.80892e-05
8.03302e-05
0.000132219
0.000214639
0.000343596
0.000541934
0.000841092
0.00128246
0.00191762
0.00280666
0.00401384
0.00560085
0.00761878
0.0101012
0.0130601
0.0164858
0.02035
0.0246098
0.0292132
0.0341025
0.0392178
0.0444993
0.0498896
0.0553344
0.0607837
0.0661926
0.0715217
0.076737
0.0818102
0.0867177
0.0914405
0.095964
0.100278
0.104375
0.108251
0.111907
0.115341
0.118558
0.121562
0.124355
0.126944
0.129332
0.131524
0.133522
0.135327
0.136938
0.13835
0.139553
0.140533
0.141269
0.141721
0.141856
0.141618
0.140921
0.139668
0.129941
0.118656
0.107364
0.0962364
0.0854053
0.0749757
0.0650308
0.0556388
0.0468567
0.0387349
0.0313195
0.0246526
0.0187869
0.0137663
0.00962372
0.00637097
0.00397395
0.00233413
0.00129645
0.000686008
0.000348615
0.000170923
8.17528e-05
3.83227e-05
1.76494e-05
7.99791e-06
3.57086e-06
1.57277e-06
6.84205e-07
2.94343e-07
1.25356e-07
5.29012e-08
2.21336e-08
9.17734e-09
3.76033e-09
1.50874e-09
5.77107e-10
1.92705e-10
3.37602e-11
4.59011e-07
2.00605e-06
4.60827e-06
8.97048e-06
1.62468e-05
2.83048e-05
4.81253e-05
8.039e-05
0.000132316
0.000214793
0.000343833
0.000542291
0.000841611
0.00128319
0.0019186
0.00280791
0.00401536
0.00560255
0.00762052
0.0101027
0.0130612
0.0164861
0.020349
0.0246072
0.0292086
0.0340954
0.0392079
0.0444865
0.0498735
0.0553148
0.0607607
0.0661661
0.0714918
0.0767039
0.081774
0.0866788
0.0913993
0.0959208
0.100233
0.104329
0.108205
0.11186
0.115296
0.118514
0.121519
0.124315
0.126907
0.129299
0.131496
0.133499
0.135311
0.136928
0.138347
0.139558
0.140546
0.141289
0.141748
0.141886
0.141646
0.140935
0.139646
0.130548
0.119275
0.107985
0.0968434
0.0859917
0.0755362
0.0655613
0.0561357
0.0473174
0.0391568
0.0317003
0.0249903
0.019079
0.0140109
0.00981985
0.00651952
0.00407892
0.00240289
0.00133837
0.000710176
0.000360762
0.000176792
8.46378e-05
3.9716e-05
1.83023e-05
8.29638e-06
3.70469e-06
1.63182e-06
7.09891e-07
3.05374e-07
1.3004e-07
5.48706e-08
2.29542e-08
9.51621e-09
3.89859e-09
1.564e-09
5.98199e-10
1.99743e-10
3.4995e-11
4.59461e-07
2.00802e-06
4.6128e-06
8.97932e-06
1.62628e-05
2.83329e-05
4.8173e-05
8.04693e-05
0.000132446
0.000214999
0.000344155
0.000542778
0.000842329
0.00128421
0.00192
0.00280974
0.00401763
0.0056052
0.00762341
0.0101056
0.0130637
0.0164879
0.0203497
0.0246061
0.0292052
0.0340893
0.0391986
0.0444735
0.0498567
0.0552939
0.0607354
0.0661365
0.0714579
0.0766657
0.0817318
0.086633
0.0913501
0.0958687
0.100178
0.104272
0.108147
0.111802
0.115237
0.118456
0.121463
0.124261
0.126856
0.129252
0.131453
0.133462
0.13528
0.136905
0.138331
0.139551
0.140548
0.1413
0.141768
0.141915
0.141683
0.140979
0.139693
0.131299
0.120036
0.10874
0.0975882
0.0867119
0.0762259
0.0662153
0.0567493
0.0478867
0.0396786
0.0321718
0.0254087
0.0194414
0.0143149
0.0100642
0.00670526
0.00421085
0.00248998
0.00139215
0.000738327
0.000375348
0.00018431
8.83432e-05
4.14824e-05
1.91242e-05
8.67144e-06
3.87283e-06
1.706e-06
7.42153e-07
3.19227e-07
1.35923e-07
5.73445e-08
2.39853e-08
9.94215e-09
4.07256e-09
1.63363e-09
6.24779e-10
2.08613e-10
3.65536e-11
4.60032e-07
2.01052e-06
4.61856e-06
8.9906e-06
1.62834e-05
2.83689e-05
4.82345e-05
8.05721e-05
0.000132614
0.000215269
0.000344579
0.000543429
0.000843297
0.0012856
0.00192194
0.00281233
0.00402092
0.00560919
0.00762796
0.0101105
0.0130685
0.0164921
0.0203528
0.0246077
0.0292046
0.0340857
0.0391914
0.0444623
0.049841
0.0552733
0.0607097
0.0661056
0.0714216
0.0766243
0.0816853
0.0865817
0.0912944
0.0958091
0.100115
0.104207
0.108079
0.111733
0.115167
0.118387
0.121394
0.124194
0.126791
0.129191
0.131397
0.133411
0.135235
0.136867
0.138301
0.13953
0.140537
0.141299
0.141778
0.141935
0.141713
0.141018
0.139732
0.1322
0.120942
0.109635
0.0984665
0.0875748
0.0770603
0.0670102
0.0574927
0.0485769
0.0403119
0.0327439
0.0259167
0.0198818
0.0146851
0.0103628
0.00693344
0.00437427
0.00259926
0.00145312
0.000772673
0.000394049
0.000193861
9.29927e-05
4.36886e-05
2.01484e-05
9.1378e-06
4.08152e-06
1.79793e-06
7.82088e-07
3.36359e-07
1.43191e-07
6.03984e-08
2.52573e-08
1.04674e-08
4.28701e-09
1.71946e-09
6.57557e-10
2.19552e-10
3.84743e-11
4.60741e-07
2.01362e-06
4.62572e-06
9.00463e-06
1.6309e-05
2.8414e-05
4.83118e-05
8.0702e-05
0.000132828
0.000215615
0.000345126
0.000544274
0.000844569
0.00128746
0.00192455
0.00281588
0.00402554
0.00561493
0.00763474
0.0101181