/*--------------------------------*- C++ -*----------------------------------*\
  =========                 |
  \\      /  F ield         | OpenFOAM: The Open Source CFD Toolbox
   \\    /   O peration     | Website:  https://openfoam.org
    \\  /    A nd           | Version:  8
     \\/     M anipulation  |
\*---------------------------------------------------------------------------*/
FoamFile
{
    version     2.0;
    format      ascii;
    class       volScalarField;
    location    "500/fluid";
    object      H2O;
}
// * * * * * * * * * * * * * * * * * * * * * * * * * * * * * * * * * * * * * //

dimensions      [0 0 0 0 0 0 0];

internalField   nonuniform List<scalar> 
4000
(
3.74038e-07
1.6342e-06
3.75205e-06
7.29943e-06
1.32151e-05
2.30251e-05
3.91805e-05
6.55633e-05
0.000108218
0.000176366
0.000283732
0.000450133
0.000703133
0.00107932
0.0016245
0.00239195
0.00343801
0.00481521
0.0065648
0.00871055
0.0112558
0.0141845
0.0174649
0.0210541
0.0249032
0.0289603
0.0331736
0.0374933
0.0418728
0.0462693
0.0506448
0.0549659
0.059204
0.0633354
0.067341
0.0712057
0.0749175
0.0784679
0.0818516
0.0850658
0.0881095
0.090984
0.0936914
0.0962353
0.0986197
0.100849
0.102928
0.104861
0.106652
0.108304
0.109819
0.111198
0.112439
0.113537
0.114485
0.115269
0.115873
0.116269
0.116423
0.116298
0.115828
0.114935
0.113537
0.10497
0.0962058
0.0874086
0.0787051
0.0701932
0.0619499
0.0540372
0.0465069
0.0394042
0.0327707
0.0266721
0.0210973
0.0161264
0.0118126
0.00820865
0.00535568
0.00325468
0.00183786
0.000968715
0.000481059
0.000228754
0.00010561
4.76343e-05
2.10842e-05
9.18899e-06
3.95342e-06
1.68257e-06
7.09605e-07
2.96973e-07
1.23466e-07
5.10214e-08
2.09473e-08
8.51904e-09
3.40054e-09
1.29711e-09
4.32965e-10
7.58878e-11
3.75995e-07
1.64327e-06
3.77511e-06
7.35031e-06
1.33198e-05
2.32293e-05
3.95591e-05
6.62302e-05
0.000109329
0.000178102
0.000286241
0.000453398
0.000706702
0.00108203
0.00162415
0.00238509
0.00341984
0.00478026
0.00650763
0.00862675
0.0111429
0.0140423
0.0172954
0.0208613
0.0246923
0.0287371
0.0329441
0.0372631
0.0416469
0.0460521
0.0504396
0.0547753
0.0590299
0.063179
0.0672029
0.0710858
0.0748156
0.0783834
0.0817836
0.085013
0.0880709
0.0909582
0.0936775
0.096232
0.0986254
0.100863
0.102948
0.104887
0.106682
0.108337
0.109855
0.111234
0.112475
0.11357
0.114514
0.115291
0.115882
0.116255
0.116377
0.116196
0.115637
0.114599
0.11297
0.104268
0.0954092
0.0865449
0.0777927
0.0692453
0.0609769
0.0530484
0.0455115
0.0384121
0.031794
0.0257311
0.0202056
0.0153083
0.0110945
0.00761618
0.00490631
0.00294834
0.001653
0.000870176
0.000434231
0.000208142
9.70397e-05
4.42231e-05
1.97692e-05
8.69241e-06
3.76774e-06
1.61311e-06
6.83371e-07
2.86904e-07
1.19528e-07
4.94536e-08
2.03153e-08
8.2636e-09
3.2986e-09
1.25817e-09
4.19955e-10
7.3629e-11
3.79197e-07
1.65762e-06
3.80958e-06
7.42077e-06
1.34525e-05
2.34652e-05
3.99581e-05
6.68718e-05
0.000110306
0.0001795
0.000288091
0.000455625
0.000709147
0.00108417
0.00162479
0.00238189
0.00340943
0.00475832
0.00646941
0.00856769
0.0110593
0.0139319
0.0171578
0.0206979
0.0245059
0.0285321
0.0327255
0.0370363
0.0414174
0.0458249
0.0502194
0.0545661
0.058835
0.0630009
0.0670433
0.070946
0.0746961
0.0782843
0.0817044
0.0849532
0.0880298
0.090935
0.0936699
0.0962382
0.0986442
0.100892
0.102987
0.104934
0.106736
0.108396
0.109917
0.111299
0.112539
0.113633
0.114572
0.115341
0.11592
0.116273
0.116366
0.11614
0.115506
0.114341
0.111848
0.103011
0.0940587
0.0851313
0.0763394
0.0677722
0.0595019
0.051589
0.0440857
0.0370389
0.030494
0.0245234
0.0191186
0.0143671
0.0103196
0.00701957
0.00448455
0.00267855
0.00149752
0.000788798
0.000394944
0.00019013
8.90816e-05
4.08063e-05
1.8335e-05
8.10089e-06
3.52682e-06
1.51578e-06
6.44209e-07
2.71156e-07
1.13183e-07
4.68902e-08
1.92778e-08
7.84478e-09
3.13186e-09
1.19455e-09
3.98666e-10
6.98915e-11
3.81059e-07
1.66572e-06
3.82804e-06
7.45613e-06
1.35147e-05
2.35679e-05
4.01179e-05
6.71036e-05
0.000110612
0.000179851
0.000288399
0.000455646
0.000708236
0.00108123
0.0016182
0.00236958
0.00338883
0.00472645
0.00642323
0.00850446
0.010977
0.0138295
0.0170353
0.0205564
0.0243475
0.0283595
0.0325423
0.0368464
0.0412248
0.0456338
0.0500336
0.0543891
0.0586698
0.0628501
0.0669089
0.0708294
0.0745982
0.0782057
0.0816454
0.0849139
0.0880088
0.0909301
0.0936805
0.0962632
0.0986821
0.100942
0.103047
0.105001
0.10681
0.108475
0.11
0.111383
0.112624
0.113716
0.114652
0.115416
0.115989
0.116334
0.116419
0.116187
0.115556
0.11442
0.110191
0.101332
0.0923557
0.0834122
0.0746172
0.0660627
0.0578227
0.0499587
0.0425238
0.0355659
0.0291311
0.023269
0.018015
0.0134291
0.00955775
0.00643698
0.00407186
0.00241118
0.00133975
0.000703453
0.000352082
0.000169786
7.97752e-05
3.66698e-05
1.65389e-05
7.33596e-06
3.20627e-06
1.38319e-06
5.89916e-07
2.4909e-07
1.04261e-07
4.32962e-08
1.78351e-08
7.26911e-09
2.90555e-09
1.10918e-09
3.70341e-10
6.49424e-11
3.81843e-07
1.66906e-06
3.83543e-06
7.46978e-06
1.35377e-05
2.36041e-05
4.01703e-05
6.71711e-05
0.00011068
0.000179869
0.000288226
0.000455004
0.000706666
0.00107798
0.00161211
0.00235905
0.00337179
0.00470054
0.00638602
0.00845379
0.0109113
0.0137479
0.0169379
0.0204442
0.0242222
0.0282235
0.0323984
0.0366978
0.0410748
0.0454856
0.0498904
0.0542539
0.0585451
0.0627381
0.0668114
0.0707478
0.0745338
0.0781593
0.0816166
0.084901
0.0880112
0.0909478
0.0937124
0.0963082
0.0987388
0.101009
0.103122
0.105084
0.106898
0.108568
0.110094
0.111478
0.112717
0.113806
0.114737
0.115495
0.116058
0.116391
0.116462
0.116214
0.115562
0.114395
0.108362
0.0995123
0.0905412
0.0816066
0.0728308
0.0643096
0.0561192
0.0483225
0.0409727
0.0341181
0.0278101
0.022078
0.0169778
0.0125579
0.00885997
0.00591188
0.0037063
0.00217832
0.00120418
0.000630706
0.000315606
0.000152402
7.1758e-05
3.30661e-05
1.49518e-05
6.64871e-06
2.91279e-06
1.25932e-06
5.38142e-07
2.27622e-07
9.54174e-08
3.96738e-08
1.63599e-08
6.67344e-09
2.66911e-09
1.01933e-09
3.40384e-10
5.96931e-11
3.81824e-07
1.66891e-06
3.83475e-06
7.46746e-06
1.3531e-05
2.35864e-05
4.01273e-05
6.70729e-05
0.000110468
0.000179435
0.000287388
0.000453458
0.000703935
0.00107335
0.00160459
0.00234735
0.00335437
0.00467573
0.00635222
0.00840967
0.0108559
0.0136811
0.0168598
0.0203558
0.0241249
0.0281193
0.0322895
0.0365867
0.0409641
0.0453779
0.0497881
0.0541593
0.0584602
0.0626649
0.0667515
0.0707027
0.0745036
0.0781431
0.0816142
0.0849129
0.0880371
0.0909869
0.0937638
0.0963706
0.098811
0.101089
0.10321
0.105177
0.106994
0.108665
0.110192
0.111573
0.112808
0.113891
0.114812
0.115557
0.116105
0.11642
0.116472
0.116202
0.115525
0.114337
0.106583
0.0977672
0.0888045
0.0798785
0.0711229
0.0626381
0.0545018
0.0467765
0.0395149
0.032764
0.0265883
0.0209868
0.0160327
0.0117697
0.00823346
0.00544395
0.00338242
0.0019724
0.00108389
0.000565555
0.000282476
0.000136393
6.42713e-05
2.96567e-05
1.34333e-05
5.98502e-06
2.62734e-06
1.13821e-06
4.87332e-07
2.06505e-07
8.67083e-08
3.6105e-08
1.49067e-08
6.08674e-09
2.43628e-09
9.30849e-10
3.10887e-10
5.45237e-11
3.81273e-07
1.66644e-06
3.82876e-06
7.45498e-06
1.35064e-05
2.35393e-05
4.00389e-05
6.69095e-05
0.000110171
0.000178903
0.000286456
0.00045186
0.000701268
0.00106903
0.0015978
0.00233707
0.00333942
0.00465485
0.00632425
0.00837372
0.0108115
0.0136282
0.016799
0.0202879
0.0240513
0.0280417
0.0322097
0.0365068
0.0408861
0.0453039
0.04972
0.054099
0.0584098
0.0626256
0.066724
0.0706867
0.0744993
0.0781512
0.0816351
0.0849462
0.0880823
0.091043
0.0938299
0.0964456
0.0988936
0.101178
0.103303
0.105274
0.107092
0.108763
0.110286
0.111663
0.112889
0.11396
0.114865
0.11559
0.116113
0.116396
0.116414
0.11611
0.115412
0.114252
0.105448
0.0964102
0.0873273
0.078346
0.0695797
0.0611165
0.053027
0.0453688
0.0381909
0.0315378
0.0254773
0.0199951
0.0151792
0.0110656
0.00768009
0.00503545
0.00310297
0.00179661
0.000982009
0.000510623
0.000254565
0.000122873
5.79189e-05
2.67451e-05
1.21265e-05
5.40898e-06
2.37738e-06
1.03121e-06
4.42069e-07
1.87548e-07
7.88362e-08
3.286e-08
1.35787e-08
5.54838e-09
2.22192e-09
8.49181e-10
2.83614e-10
4.97395e-11
3.80442e-07
1.66276e-06
3.82008e-06
7.43741e-06
1.3473e-05
2.34781e-05
3.99288e-05
6.67144e-05
0.00010983
0.000178319
0.00028547
0.000450233
0.000698645
0.00106491
0.00159155
0.00232789
0.00332642
0.00463718
0.00630114
0.00834468
0.0107764
0.0135871
0.0167526
0.0202371
0.0239974
0.027986
0.0321539
0.0364524
0.0408348
0.0452574
0.0496802
0.0540673
0.0583869
0.0626117
0.0667196
0.0706926
0.0745163
0.0781793
0.081674
0.0849955
0.0881412
0.0911109
0.0939057
0.0965282
0.0989818
0.101271
0.103399
0.10537
0.107189
0.108856
0.110375
0.111743
0.112958
0.114013
0.114896
0.115589
0.116066
0.116286
0.116215
0.115776
0.114878
0.113426
0.104357
0.0951529
0.0859757
0.076952
0.0681817
0.059744
0.0517029
0.0441114
0.0370149
0.0304541
0.0244896
0.019126
0.0144316
0.0104488
0.0071998
0.00468462
0.00286487
0.00164758
0.000895788
0.000464053
0.000230797
0.000111299
5.24494e-05
2.4224e-05
1.0989e-05
4.90511e-06
2.1578e-06
9.36868e-07
4.02029e-07
1.70732e-07
7.18364e-08
2.99688e-08
1.23935e-08
5.06725e-09
2.03012e-09
7.76041e-10
2.59174e-10
4.54505e-11
3.7953e-07
1.65874e-06
3.81069e-06
7.41871e-06
1.34381e-05
2.34152e-05
3.98179e-05
6.65221e-05
0.000109502
0.000177767
0.000284561
0.000448763
0.000696323
0.00106134
0.00158622
0.0023202
0.00331573
0.00462287
0.00628275
0.00832196
0.0107494
0.0135562
0.0167184
0.0202005
0.0239594
0.0279479
0.032117
0.0364182
0.0408048
0.0452329
0.0496621
0.054056
0.0583829
0.0626161
0.0667332
0.0707158
0.0745491
0.0782215
0.0817252
0.0850551
0.0882087
0.0911853
0.0939862
0.0966138
0.0990714
0.101363
0.103492
0.105464
0.107281
0.108945
0.110458
0.111818
0.113022
0.114061
0.114923
0.115588
0.116024
0.116189
0.116034
0.115465
0.114354
0.112411
0.103207
0.0939192
0.0846988
0.0756645
0.0669095
0.0585084
0.0505219
0.0430008
0.0359898
0.0295316
0.0236815
0.0184498
0.0138545
0.00995898
0.00680281
0.00439126
0.00266562
0.00152299
0.000823764
0.000425142
0.000210908
0.000101589
4.78458e-05
2.20942e-05
1.00242e-05
4.47611e-06
1.97011e-06
8.55924e-07
3.67554e-07
1.56206e-07
6.57724e-08
2.74578e-08
1.1362e-08
4.64771e-09
1.86263e-09
7.12101e-10
2.37798e-10
4.16953e-11
3.78644e-07
1.65484e-06
3.80164e-06
7.40078e-06
1.3405e-05
2.33559e-05
3.97145e-05
6.63448e-05
0.000109203
0.000177272
0.000283754
0.000447477
0.000694323
0.00105831
0.00158178
0.0023139
0.00330711
0.00461154
0.00626846
0.00830463
0.0107292
0.0135336
0.016694
0.0201752
0.0239342
0.0279238
0.0320952
0.0363999
0.0407909
0.045224
0.0496587
0.0540591
0.0583934
0.0626346
0.0667599
0.0707508
0.0745921
0.0782724
0.0817835
0.0851203
0.08828
0.0912621
0.0940675
0.0966987
0.0991589
0.101452
0.103582
0.105552
0.107367
0.109028
0.110536
0.111889
0.113084
0.114113
0.114962
0.115613
0.116033
0.116185
0.116023
0.115466
0.114411
0.111262
0.10203
0.0927269
0.0835064
0.0744868
0.0657612
0.0574034
0.0494733
0.0420209
0.0350908
0.0287281
0.0229651
0.0178103
0.0133362
0.00955022
0.00647899
0.00414439
0.0024974
0.00141787
0.000763087
0.000392388
0.000194162
9.34063e-05
4.39613e-05
2.02942e-05
9.20734e-06
4.11216e-06
1.81056e-06
7.8698e-07
3.38134e-07
1.43788e-07
6.05801e-08
2.53046e-08
1.04762e-08
4.2871e-09
1.71854e-09
6.57063e-10
2.19396e-10
3.84596e-11
3.77842e-07
1.65133e-06
3.7935e-06
7.38472e-06
1.33754e-05
2.33035e-05
3.96236e-05
6.61904e-05
0.000108945
0.000176848
0.000283072
0.000446403
0.000692673
0.00105585
0.00157821
0.00230891
0.00330039
0.00460286
0.0062577
0.00829187
0.0107147
0.0135178
0.0166776
0.0201588
0.0239188
0.0279104
0.0320847
0.0363928
0.0407878
0.0452257
0.0496663
0.0540731
0.0584142
0.0626624
0.0667947
0.0707926
0.0746408
0.0783275
0.0818446
0.0851869
0.0883514
0.0913375
0.0941461
0.0967797
0.0992413
0.101535
0.103664
0.105634
0.107446
0.109103
0.110606
0.111953
0.113141
0.114162
0.115003
0.115644
0.116055
0.116199
0.116033
0.115475
0.114426
0.110124
0.100899
0.0916103
0.0824126
0.0734244
0.0647389
0.05643
0.0485584
0.041172
0.0343123
0.0280139
0.022295
0.0172168
0.0128189
0.00913271
0.00617983
0.0039308
0.00235131
0.00132776
0.000711572
0.000364757
0.00018009
8.65428e-05
4.07048e-05
1.87848e-05
8.52182e-06
3.80637e-06
1.67634e-06
7.28892e-07
3.13309e-07
1.33294e-07
5.61861e-08
2.34803e-08
9.72506e-09
3.98104e-09
1.59619e-09
6.1031e-10
2.03761e-10
3.57129e-11
3.77151e-07
1.6483e-06
3.7865e-06
7.37097e-06
1.33502e-05
2.3259e-05
3.95469e-05
6.60608e-05
0.00010873
0.000176498
0.000282514
0.000445533
0.00069135
0.0010539
0.00157542
0.00230506
0.0032953
0.00459639
0.00624987
0.00828281
0.0107047
0.0135074
0.0166672
0.0201494
0.023911
0.0279048
0.0320818
0.0363933
0.0407926
0.0452355
0.0496815
0.054094
0.0584411
0.0626953
0.0668337
0.0708375
0.0746913
0.0783833
0.0819052
0.0852516
0.0884197
0.0914086
0.0942195
0.0968544
0.0993167
0.10161
0.103738
0.105705
0.107514
0.109168
0.110666
0.112008
0.113189
0.114203
0.115035
0.115668
0.116069
0.116206
0.116032
0.11547
0.114419
0.109108
0.0998902
0.0906189
0.0814472
0.0724963
0.0638575
0.0556011
0.0477839
0.0404457
0.0336288
0.0273694
0.0217163
0.0167097
0.0123874
0.00877976
0.00590432
0.00374653
0.00222821
0.00125145
0.00066831
0.000341674
0.000168372
8.08347e-05
3.79976e-05
1.75297e-05
7.95146e-06
3.55174e-06
1.56444e-06
6.80412e-07
2.92565e-07
1.24515e-07
5.25056e-08
2.19505e-08
9.09454e-09
3.72397e-09
1.49341e-09
5.71067e-10
1.90667e-10
3.34157e-11
3.76578e-07
1.64579e-06
3.78071e-06
7.35961e-06
1.33294e-05
2.32225e-05
3.94843e-05
6.59556e-05
0.000108557
0.000176218
0.00028207
0.000444847
0.000690319
0.00105239
0.0015733
0.00230218
0.00329156
0.00459176
0.00624439
0.00827669
0.0106983
0.013501
0.0166616
0.020145
0.0239082
0.0279043
0.0320843
0.0363994
0.0408028
0.0452502
0.049701
0.0541185
0.0584707
0.0627301
0.0668736
0.0708822
0.0747406
0.0784367
0.0819623
0.0853119
0.0884826
0.0914735
0.0942856
0.0969211
0.0993831
0.101676
0.103802
0.105767
0.107573
0.109222
0.110715
0.112051
0.113226
0.114232
0.115056
0.11568
0.116072
0.116201
0.116019
0.11545
0.114397
0.108234
0.0990179
0.0897605
0.0806165
0.0716995
0.0630911
0.054863
0.0470708
0.0397713
0.0330046
0.0268086
0.021219
0.0162781
0.0120234
0.00848457
0.00567684
0.00358152
0.00212822
0.00118979
0.000632658
0.000322646
0.000158733
7.61427e-05
3.57724e-05
1.64977e-05
7.48211e-06
3.34199e-06
1.47217e-06
6.40384e-07
2.75416e-07
1.17247e-07
4.94553e-08
2.06812e-08
8.57089e-09
3.5103e-09
1.40793e-09
5.38423e-10
1.79773e-10
3.15049e-11
3.76116e-07
1.64377e-06
3.77605e-06
7.3505e-06
1.33128e-05
2.31934e-05
3.94346e-05
6.58725e-05
0.00010842
0.000175999
0.000281727
0.000444322
0.000689538
0.00105127
0.00157173
0.0023001
0.00328891
0.00458855
0.00624074
0.0082728
0.0106944
0.0134977
0.0166592
0.0201438
0.0239089
0.0279074
0.0320903
0.0364088
0.0408159
0.0452673
0.0497222
0.054144
0.0585006
0.0627643
0.0669119
0.0709244
0.0747864
0.0784857
0.0820141
0.0853659
0.0885383
0.0915303
0.094343
0.0969784
0.0994397
0.101731
0.103855
0.105817
0.107619
0.109264
0.110752
0.112082
0.11325
0.114249
0.115065
0.115681
0.116064
0.116184
0.115994
0.115418
0.114365
0.107497
0.0982757
0.0890269
0.0798971
0.0709925
0.0624076
0.0542118
0.0464619
0.039206
0.0324859
0.0263399
0.0208029
0.0159173
0.0117202
0.00824001
0.00548994
0.00344767
0.00203871
0.00113985
0.000604521
0.000307326
0.00015091
7.23342e-05
3.39653e-05
1.56587e-05
7.1001e-06
3.17104e-06
1.39686e-06
6.07671e-07
2.61382e-07
1.11293e-07
4.69536e-08
1.96392e-08
8.14064e-09
3.33462e-09
1.33762e-09
5.11572e-10
1.70812e-10
2.99313e-11
3.75754e-07
1.64219e-06
3.77241e-06
7.34338e-06
1.32999e-05
2.31708e-05
3.93962e-05
6.58086e-05
0.000108316
0.000175833
0.000281468
0.00044393
0.00068896
0.00105044
0.00157061
0.00229863
0.00328709
0.00458643
0.00623844
0.00827052
0.0106925
0.0134963
0.0166588
0.0201449
0.0239119
0.0279126
0.0320981
0.0364196
0.0408299
0.0452847
0.0497431
0.0541685
0.0585286
0.0627957
0.0669466
0.0709622
0.0748268
0.0785286
0.0820589
0.0854122
0.0885856
0.0915782
0.0943908
0.0970256
0.0994857
0.101775
0.103897
0.105856
0.107654
0.109294
0.110777
0.112102
0.113263
0.114255
0.115064
0.115672
0.116048
0.116161
0.115964
0.115382
0.114327
0.106881
0.097652
0.0884086
0.0792869
0.0704026
0.0618425
0.053676
0.0459593
0.0387396
0.0320584
0.0259537
0.0204601
0.0156205
0.0114712
0.00803986
0.00533779
0.0033396
0.00196737
0.0010958
0.000581462
0.000295377
0.00014475
6.92984e-05
3.25182e-05
1.49853e-05
6.79284e-06
3.0333e-06
1.33609e-06
5.81242e-07
2.50033e-07
1.06474e-07
4.4927e-08
1.87945e-08
7.7917e-09
3.1921e-09
1.28058e-09
4.89796e-10
1.63545e-10
2.86543e-11
3.75478e-07
1.64098e-06
3.76964e-06
7.33798e-06
1.32901e-05
2.31537e-05
3.93672e-05
6.57607e-05
0.000108239
0.00017571
0.000281278
0.000443645
0.000688546
0.00104986
0.00156983
0.00229764
0.0032859
0.0045851
0.00623709
0.00826934
0.0106917
0.0134962
0.0166597
0.0201471
0.0239158
0.0279186
0.0321064
0.0364303
0.0408433
0.0453009
0.0497621
0.0541904
0.0585533
0.0628231
0.0669764
0.0709942
0.0748608
0.0785641
0.0820957
0.0854499
0.0886237
0.0916163
0.0944284
0.0970622
0.0995208
0.101808
0.103927
0.105883
0.107677
0.109313
0.110791
0.11211
0.113266
0.114251
0.115053
0.115655
0.116026
0.116136
0.115942
0.115371
0.114345
0.106384
0.0971448
0.0879001
0.0787896
0.0699221
0.0613833
0.0532414
0.0455521
0.0383622
0.0317128
0.0256418
0.0201835
0.0153812
0.0112708
0.0078792
0.00521611
0.00325361
0.00191104
0.00106146
0.000561666
0.000285427
0.000139943
6.6935e-05
3.13768e-05
1.44505e-05
6.54834e-06
2.92367e-06
1.28772e-06
5.60199e-07
2.40996e-07
1.02636e-07
4.33135e-08
1.81222e-08
7.51407e-09
3.07882e-09
1.2353e-09
4.72516e-10
1.5778e-10
2.76418e-11
3.75276e-07
1.6401e-06
3.7676e-06
7.33401e-06
1.32829e-05
2.31412e-05
3.93462e-05
6.57259e-05
0.000108183
0.000175622
0.000281143
0.000443444
0.000688257
0.00104946
0.00156931
0.00229699
0.00328514
0.00458431
0.00623637
0.00826885
0.0106916
0.0134968
0.0166612
0.0201498
0.02392
0.0279244
0.032114
0.0364399
0.040855
0.0453147
0.0497782
0.0542086
0.0585736
0.0628452
0.0670003
0.0710195
0.0748874
0.0785917
0.0821239
0.0854785
0.0886523
0.0916445
0.0944558
0.0970884
0.0995453
0.10183
0.103947
0.105899
0.10769
0.109321
0.110794
0.112108
0.113258
0.114236
0.115033
0.115628
0.115993
0.116098
0.115901
0.115329
0.114306
0.105999
0.0967475
0.087501
0.0783975
0.069543
0.0610212
0.0528993
0.0452321
0.0380661
0.0314421
0.0253977
0.0199674
0.0151946
0.0111148
0.00775443
0.00512189
0.00318726
0.00186774
0.0010352
0.000546656
0.000277146
0.000135745
6.49971e-05
3.04793e-05
1.40346e-05
6.35826e-06
2.8384e-06
1.25014e-06
5.43886e-07
2.34006e-07
9.96742e-08
4.20712e-08
1.76059e-08
7.30142e-09
2.99218e-09
1.20068e-09
4.59302e-10
1.5337e-10
2.68693e-11
3.75134e-07
1.63948e-06
3.76618e-06
7.33125e-06
1.32779e-05
2.31325e-05
3.93316e-05
6.57019e-05
0.000108144
0.000175562
0.000281051
0.000443308
0.000688064
0.0010492
0.00156897
0.00229658
0.00328469
0.00458386
0.00623602
0.00826872
0.0106919
0.0134976
0.0166628
0.0201523
0.0239235
0.0279292
0.0321202
0.0364476
0.0408643
0.0453256
0.0497906
0.0542225
0.0585888
0.0628617
0.0670177
0.0710378
0.0749063
0.0786111
0.0821436
0.0854981
0.0886716
0.0916632
0.0944735
0.0971047
0.0995599
0.101843
0.103957
0.105906
0.107693
0.10932
0.110789
0.112097
0.113241
0.114214
0.115004
0.115594
0.115953
0.116054
0.115855
0.115284
0.114271
0.105715
0.096448
0.0871996
0.0781016
0.0692574
0.0607492
0.0526431
0.0449932
0.0378456
0.0312411
0.025217
0.0198077
0.0150569
0.011
0.0076629
0.00505302
0.00313896
0.00183635
0.00101625
0.000535935
0.000271397
0.00013281
6.35356e-05
2.98042e-05
1.37302e-05
6.22158e-06
2.77757e-06
1.22342e-06
5.32293e-07
2.29035e-07
9.75667e-08
4.11859e-08
1.72373e-08
7.14933e-09
2.93011e-09
1.17585e-09
4.4982e-10
1.50205e-10
2.63147e-11
3.75045e-07
1.63909e-06
3.76529e-06
7.32951e-06
1.32748e-05
2.31271e-05
3.93224e-05
6.56869e-05
0.00010812
0.000175524
0.000280994
0.000443224
0.000687946
0.00104904
0.00156877
0.00229634
0.00328443
0.00458363
0.00623588
0.00826875
0.0106922
0.0134983
0.016664
0.0201542
0.0239261
0.0279326
0.0321246
0.036453
0.0408706
0.0453329
0.0497989
0.0542317
0.0585989
0.0628724
0.0670289
0.0710493
0.0749179
0.0786227
0.0821551
0.0855093
0.0886824
0.0916732
0.0944826
0.0971126
0.0995662
0.101847
0.103959
0.105905
0.107689
0.109313
0.110777
0.112081
0.11322
0.114188
0.114973
0.115558
0.115912
0.116011
0.115811
0.115245
0.114245
0.105527
0.0962455
0.0869935
0.0778988
0.0690621
0.060564
0.0524695
0.0448322
0.0376978
0.0311068
0.0250967
0.0197018
0.014966
0.0109245
0.00760291
0.0050081
0.00310763
0.0018161
0.00100406
0.000529044
0.000267705
0.000130962
6.26294e-05
2.93636e-05
1.35248e-05
6.13011e-06
2.73745e-06
1.20595e-06
5.2477e-07
2.25829e-07
9.62129e-08
4.0619e-08
1.70016e-08
7.05213e-09
2.89044e-09
1.15997e-09
4.43751e-10
1.48179e-10
2.59595e-11
3.75004e-07
1.63891e-06
3.76487e-06
7.3287e-06
1.32733e-05
2.31246e-05
3.93181e-05
6.56799e-05
0.000108109
0.000175507
0.000280968
0.000443186
0.000687892
0.00104897
0.00156868
0.00229623
0.00328432
0.00458354
0.00623583
0.00826879
0.0106924
0.0134987
0.0166646
0.0201551
0.0239275
0.0279344
0.0321268
0.0364557
0.0408738
0.0453366
0.049803
0.0542363
0.0586037
0.0628775
0.0670342
0.0710546
0.074923
0.0786277
0.0821598
0.0855138
0.0886864
0.0916768
0.0944855
0.0971146
0.0995671
0.101847
0.103957
0.105901
0.107683
0.109305
0.110767
0.112067
0.113203
0.114168
0.114949
0.115529
0.115881
0.115978
0.115779
0.115218
0.114232
0.105434
0.0961397
0.0868844
0.0777915
0.0689596
0.0604678
0.0523802
0.0447501
0.0376231
0.0310397
0.0250371
0.0196498
0.0149217
0.010888
0.00757417
0.00498676
0.00309287
0.00180665
0.000998408
0.00052586
0.000266001
0.000130115
6.22178e-05
2.9167e-05
1.34325e-05
6.08718e-06
2.71812e-06
1.19747e-06
5.21116e-07
2.24273e-07
9.55567e-08
4.03445e-08
1.68877e-08
7.00517e-09
2.87127e-09
1.15229e-09
4.40816e-10
1.47198e-10
2.57875e-11
3.75007e-07
1.63892e-06
3.76491e-06
7.32877e-06
1.32734e-05
2.31248e-05
3.93185e-05
6.56805e-05
0.00010811
0.000175508
0.00028097
0.00044319
0.000687898
0.00104898
0.00156869
0.00229625
0.00328435
0.00458357
0.00623587
0.00826884
0.0106924
0.0134988
0.0166647
0.0201552
0.0239275
0.0279345
0.0321268
0.0364558
0.0408739
0.0453367
0.0498031
0.0542364
0.0586038
0.0628776
0.0670343
0.0710547
0.0749231
0.0786278
0.0821599
0.0855139
0.0886865
0.0916768
0.0944855
0.0971146
0.0995672
0.101847
0.103957
0.105902
0.107683
0.109305
0.110767
0.112067
0.113203
0.114168
0.114949
0.115529
0.115881
0.115978
0.115779
0.115218
0.114231
0.105433
0.0961395
0.0868842
0.0777913
0.0689594
0.0604676
0.05238
0.04475
0.037623
0.0310396
0.025037
0.0196498
0.0149217
0.0108879
0.00757414
0.00498673
0.00309285
0.00180664
0.000998402
0.000525856
0.000265999
0.000130114
6.22174e-05
2.91668e-05
1.34324e-05
6.08714e-06
2.7181e-06
1.19747e-06
5.21113e-07
2.24271e-07
9.55562e-08
4.03443e-08
1.68876e-08
7.00513e-09
2.87126e-09
1.15229e-09
4.40813e-10
1.47197e-10
2.57873e-11
3.75055e-07
1.63913e-06
3.76539e-06
7.3297e-06
1.32751e-05
2.31277e-05
3.93234e-05
6.56885e-05
0.000108123
0.000175528
0.000281001
0.000443235
0.000687962
0.00104907
0.0015688
0.00229639
0.0032845
0.00458372
0.00623599
0.00826889
0.0106923
0.0134985
0.0166642
0.0201544
0.0239264
0.0279329
0.0321248
0.0364533
0.0408709
0.0453332
0.0497992
0.054232
0.0585991
0.0628726
0.0670292
0.0710495
0.0749182
0.078623
0.0821553
0.0855096
0.0886826
0.0916734
0.0944828
0.0971127
0.0995663
0.101847
0.103959
0.105905
0.107689
0.109313
0.110777
0.112081
0.113221
0.114188
0.114973
0.115558
0.115912
0.116011
0.115811
0.115245
0.114245
0.105526
0.0962449
0.086993
0.0778983
0.0690617
0.0605636
0.0524691
0.0448318
0.0376974
0.0311066
0.0250965
0.0197016
0.0149658
0.0109243
0.00760281
0.00500803
0.00310758
0.00181607
0.00100404
0.000529033
0.0002677
0.000130959
6.26281e-05
2.9363e-05
1.35245e-05
6.12999e-06
2.73741e-06
1.20593e-06
5.24762e-07
2.25825e-07
9.62113e-08
4.06183e-08
1.70013e-08
7.05199e-09
2.89038e-09
1.15994e-09
4.43741e-10
1.48175e-10
2.59589e-11
3.7515e-07
1.63955e-06
3.76634e-06
7.33157e-06
1.32785e-05
2.31335e-05
3.93332e-05
6.57047e-05
0.000108149
0.000175569
0.000281063
0.000443326
0.000688091
0.00104924
0.00156903
0.00229666
0.0032848
0.00458401
0.00623621
0.00826896
0.0106922
0.013498
0.0166631
0.0201527
0.023924
0.0279296
0.0321207
0.0364481
0.0408648
0.0453261
0.0497911
0.054223
0.0585893
0.0628622
0.0670182
0.0710383
0.0749068
0.0786115
0.082144
0.0854985
0.088672
0.0916635
0.0944738
0.097105
0.0995601
0.101843
0.103957
0.105906
0.107693
0.10932
0.110789
0.112097
0.113241
0.114214
0.115004
0.115594
0.115953
0.116054
0.115855
0.115284
0.114271
0.105714
0.0964469
0.0871987
0.0781007
0.0692566
0.0607485
0.0526424
0.0449926
0.0378451
0.0312406
0.0252166
0.0198073
0.0150566
0.0109998
0.00766272
0.00505288
0.00313886
0.0018363
0.00101621
0.000535916
0.000271387
0.000132805
6.35332e-05
2.9803e-05
1.37296e-05
6.22136e-06
2.77747e-06
1.22337e-06
5.32272e-07
2.29026e-07
9.75628e-08
4.11842e-08
1.72366e-08
7.14903e-09
2.92999e-09
1.1758e-09
4.49799e-10
1.50198e-10
2.63135e-11
3.75298e-07
1.64019e-06
3.76783e-06
7.33445e-06
1.32837e-05
2.31426e-05
3.93485e-05
6.57298e-05
0.000108189
0.000175632
0.000281159
0.000443469
0.000688295
0.00104952
0.00156939
0.0022971
0.0032853
0.00458451
0.00623663
0.00826917
0.010692
0.0134973
0.0166617
0.0201504
0.0239206
0.027925
0.0321146
0.0364406
0.0408557
0.0453154
0.0497789
0.0542093
0.0585743
0.0628459
0.0670009
0.0710202
0.074888
0.0785923
0.0821245
0.085479
0.0886528
0.091645
0.0944563
0.0970888
0.0995457
0.101831
0.103947
0.105899
0.10769
0.109321
0.110795
0.112108
0.113258
0.114237
0.115033
0.115628
0.115993
0.116098
0.115901
0.115328
0.114306
0.105998
0.096746
0.0874996
0.0783962
0.0695418
0.0610202
0.0528983
0.0452313
0.0380653
0.0314414
0.0253972
0.0199669
0.0151942
0.0111144
0.00775417
0.0051217
0.00318713
0.00186766
0.00103515
0.000546628
0.000277131
0.000135737
6.49937e-05
3.04778e-05
1.40338e-05
6.35793e-06
2.83825e-06
1.25006e-06
5.43853e-07
2.33992e-07
9.96679e-08
4.20684e-08
1.76047e-08
7.30094e-09
2.99198e-09
1.2006e-09
4.59271e-10
1.5336e-10
2.68675e-11
3.75507e-07
1.64111e-06
3.76992e-06
7.33854e-06
1.32911e-05
2.31554e-05
3.93702e-05
6.57656e-05
0.000108247
0.000175723
0.000281299
0.000443677
0.000688594
0.00104994
0.00156994
0.00229779
0.0032861
0.00458536
0.00623743
0.00826976
0.0106922
0.0134968
0.0166603
0.0201479
0.0239166
0.0279194
0.0321072
0.0364312
0.0408442
0.0453018
0.0497631
0.0541913
0.0585542
0.0628239
0.0669773
0.070995
0.0748616
0.0785649
0.0820964
0.0854506
0.0886244
0.0916169
0.094429
0.0970628
0.0995213
0.101808
0.103928
0.105883
0.107678
0.109313
0.110791
0.11211
0.113266
0.114251
0.115054
0.115655
0.116026
0.116136
0.115942
0.115371
0.114345
0.106382
0.0971429
0.0878983
0.0787879
0.0699206
0.0613819
0.0532402
0.045551
0.0383612
0.0317119
0.025641
0.0201828
0.0153807
0.0112703
0.00787886
0.00521586
0.00325344
0.00191093
0.00106139
0.000561629
0.000285408
0.000139933
6.69303e-05
3.13745e-05
1.44494e-05
6.54782e-06
2.92343e-06
1.28761e-06
5.60153e-07
2.40976e-07
1.02628e-07
4.33098e-08
1.81206e-08
7.5134e-09
3.07855e-09
1.23519e-09
4.72473e-10
1.57766e-10
2.76392e-11
3.75788e-07
1.64234e-06
3.77275e-06
7.34406e-06
1.33011e-05
2.31729e-05
3.93998e-05
6.58145e-05
0.000108326
0.000175849
0.000281493
0.000443969
0.00068902
0.00105053
0.00157074
0.00229881
0.00328734
0.00458675
0.00623885
0.00827102
0.0106931
0.013497
0.0166596
0.0201457
0.0239128
0.0279136
0.0320992
0.0364207
0.040831
0.0452858
0.0497442
0.0541696
0.0585297
0.0627968
0.0669477
0.0709632
0.0748278
0.0785295
0.0820598
0.0854131
0.0885864
0.0915789
0.0943915
0.0970262
0.0994863
0.101775
0.103897
0.105856
0.107654
0.109295
0.110778
0.112102
0.113264
0.114255
0.115064
0.115672
0.116048
0.116161
0.115964
0.115382
0.114327
0.106878
0.0976496
0.0884063
0.0792849
0.0704007
0.0618408
0.0536744
0.0459578
0.0387383
0.0320573
0.0259528
0.0204593
0.0156198
0.0114706
0.00803943
0.00533747
0.00333938
0.00196723
0.00109572
0.000581415
0.000295353
0.000144738
6.92922e-05
3.25151e-05
1.49839e-05
6.79217e-06
3.033e-06
1.33596e-06
5.81182e-07
2.50007e-07
1.06462e-07
4.49221e-08
1.87924e-08
7.79083e-09
3.19174e-09
1.28043e-09
4.8974e-10
1.63528e-10
2.86501e-11
3.76156e-07
1.64395e-06
3.77646e-06
7.35129e-06
1.33142e-05
2.31959e-05
3.94388e-05
6.58795e-05
0.000108432
0.000176018
0.000281756
0.000444368
0.000689607
0.00105137
0.00157188
0.00230031
0.0032892
0.00458893
0.00624122
0.00827339
0.0106952
0.0134985
0.0166601
0.0201448
0.0239101
0.0279086
0.0320915
0.0364101
0.0408172
0.0452686
0.0497235
0.0541454
0.0585019
0.0627656
0.0669131
0.0709256
0.0747875
0.0784869
0.0820152
0.0853669
0.0885393
0.0915313
0.0943438
0.0969792
0.0994405
0.101731
0.103856
0.105817
0.10762
0.109264
0.110752
0.112083
0.113251
0.114249
0.115065
0.115681
0.116064
0.116184
0.115994
0.115418
0.114365
0.107493
0.0982728
0.0890241
0.0798946
0.0709902
0.0624055
0.0542099
0.0464602
0.0392044
0.0324846
0.0263388
0.0208019
0.0159165
0.0117195
0.00823947
0.00548953
0.00344739
0.00203852
0.00113974
0.000604462
0.000307294
0.000150893
7.23258e-05
3.39613e-05
1.56569e-05
7.09924e-06
3.17065e-06
1.39668e-06
6.07594e-07
2.61349e-07
1.11279e-07
4.69474e-08
1.96366e-08
8.13955e-09
3.33417e-09
1.33744e-09
5.11501e-10
1.7079e-10
2.99261e-11
3.76625e-07
1.64599e-06
3.78118e-06
7.36052e-06
1.33311e-05
2.32254e-05
3.94892e-05
6.59637e-05
0.00010857
0.000176239
0.000282104
0.0004449
0.0006904
0.00105251
0.00157347
0.00230243
0.00329189
0.00459219
0.00624495
0.00827738
0.0106991
0.013502
0.0166626
0.0201461
0.0239095
0.0279057
0.0320857
0.0364009
0.0408044
0.0452518
0.0497025
0.0541201
0.0584723
0.0627316
0.0668751
0.0708836
0.0747419
0.0784381
0.0819636
0.0853131
0.0884837
0.0914746
0.0942866
0.096922
0.099384
0.101676
0.103803
0.105767
0.107573
0.109222
0.110715
0.112051
0.113226
0.114232
0.115056
0.11568
0.116073
0.116201
0.116019
0.11545
0.114397
0.108231
0.0990144
0.0897573
0.0806136
0.0716967
0.0630886
0.0548607
0.0470688
0.0397695
0.033003
0.0268072
0.0212178
0.016277
0.0120225
0.00848391
0.00567635
0.00358118
0.00212799
0.00118965
0.000632581
0.000322604
0.000158712
7.61323e-05
3.57674e-05
1.64954e-05
7.48104e-06
3.3415e-06
1.47195e-06
6.40288e-07
2.75374e-07