/*--------------------------------*- C++ -*----------------------------------*\
  =========                 |
  \\      /  F ield         | OpenFOAM: The Open Source CFD Toolbox
   \\    /   O peration     | Website:  https://openfoam.org
    \\  /    A nd           | Version:  8
     \\/     M anipulation  |
\*---------------------------------------------------------------------------*/
FoamFile
{
    version     2.0;
    format      ascii;
    class       volScalarField;
    location    "500/fluid";
    object      N2;
}
// * * * * * * * * * * * * * * * * * * * * * * * * * * * * * * * * * * * * * //

dimensions      [0 0 0 0 0 0 0];

internalField   nonuniform List<scalar> 
4000
(
2.22573e-06
9.72439e-06
2.23268e-05
4.34358e-05
7.86376e-05
0.000137012
0.000233146
0.000390137
0.000643954
0.00104947
0.00168834
0.00267851
0.00418397
0.00642245
0.00966646
0.014233
0.0204574
0.0286521
0.0390626
0.0518301
0.0669746
0.0844004
0.103918
0.125274
0.148174
0.172312
0.197378
0.223076
0.249129
0.275283
0.30131
0.327013
0.352222
0.376795
0.400619
0.423605
0.445683
0.466802
0.486933
0.50606
0.52418
0.541303
0.557445
0.572632
0.586893
0.600262
0.612777
0.624478
0.635404
0.645597
0.655097
0.663946
0.672182
0.679843
0.686966
0.693588
0.699741
0.705427
0.710604
0.715548
0.720144
0.724417
0.728339
0.732101
0.735698
0.739136
0.742417
0.745541
0.748509
0.751316
0.753959
0.756434
0.758732
0.760836
0.762753
0.764461
0.765942
0.76718
0.76816
0.768882
0.769369
0.769667
0.769835
0.769921
0.769964
0.769984
0.769993
0.769997
0.769999
0.769999
0.77
0.77
0.77
0.77
0.77
0.77
0.77
0.77
0.77
0.77
2.23749e-06
9.77882e-06
2.2465e-05
4.37404e-05
7.92637e-05
0.000138232
0.000235407
0.000394119
0.000650586
0.00105983
0.00170333
0.00269802
0.00420533
0.00643874
0.00966465
0.0141925
0.0203497
0.0284446
0.038723
0.0513323
0.0663036
0.0835552
0.102911
0.124128
0.146921
0.170986
0.196014
0.221709
0.247788
0.273993
0.300092
0.325883
0.35119
0.375868
0.399801
0.422896
0.445081
0.466304
0.486533
0.505752
0.523957
0.541157
0.557372
0.572623
0.58694
0.600359
0.612917
0.624655
0.635613
0.645832
0.655355
0.664222
0.672472
0.680145
0.687277
0.693904
0.700062
0.70573
0.710915
0.715868
0.720468
0.724744
0.72866
0.732425
0.736026
0.739469
0.742755
0.745883
0.748853
0.751662
0.754306
0.756777
0.759068
0.761159
0.763059
0.764741
0.766189
0.767384
0.768314
0.768987
0.769432
0.769701
0.769851
0.769928
0.769967
0.769985
0.769993
0.769997
0.769999
0.769999
0.77
0.77
0.77
0.77
0.77
0.77
0.77
0.77
0.77
0.77
2.2566e-06
9.86447e-06
2.26707e-05
4.41608e-05
8.00554e-05
0.00013964
0.000237788
0.000397948
0.000656417
0.00106818
0.00171438
0.00271133
0.00421995
0.00645155
0.00966856
0.0141737
0.020288
0.0283145
0.0384961
0.0509815
0.0658071
0.0828995
0.102093
0.123156
0.145813
0.169767
0.194715
0.220361
0.246424
0.272644
0.298785
0.324641
0.350033
0.374811
0.398855
0.422068
0.444374
0.465719
0.486068
0.505402
0.52372
0.541029
0.557338
0.572675
0.587071
0.60056
0.613181
0.624974
0.63598
0.64624
0.655797
0.664693
0.672966
0.680656
0.687802
0.694439
0.700601
0.706249
0.711419
0.716367
0.720969
0.725244
0.729169
0.732944
0.736552
0.739998
0.743284
0.74641
0.749374
0.752173
0.754801
0.757252
0.759516
0.761574
0.763432
0.765064
0.766455
0.767588
0.768459
0.76908
0.769485
0.769729
0.769864
0.769935
0.769969
0.769986
0.769994
0.769997
0.769999
0.769999
0.77
0.77
0.77
0.77
0.77
0.77
0.77
0.77
0.77
0.77
2.26773e-06
9.91289e-06
2.2781e-05
4.43721e-05
8.0427e-05
0.000140254
0.000238743
0.000399335
0.000658252
0.00107028
0.00171624
0.00271148
0.00421457
0.00643414
0.00962945
0.0141006
0.0201657
0.0281253
0.0382219
0.050606
0.0653183
0.0822912
0.101366
0.122316
0.144872
0.168742
0.193628
0.219234
0.245281
0.27151
0.297682
0.323591
0.349053
0.373918
0.39806
0.421379
0.443797
0.465257
0.485723
0.505176
0.523604
0.541011
0.557416
0.572843
0.587321
0.600885
0.613572
0.625424
0.63648
0.646784
0.656378
0.665303
0.6736
0.681309
0.688468
0.695113
0.70128
0.70692
0.712087
0.717024
0.721602
0.725854
0.72979
0.73357
0.73718
0.740623
0.743902
0.747016
0.749964
0.752741
0.755343
0.75776
0.759985
0.762005
0.76381
0.765386
0.766716
0.767788
0.768601
0.769171
0.76954
0.769758
0.769879
0.769942
0.769973
0.769987
0.769994
0.769997
0.769999
0.77
0.77
0.77
0.77
0.77
0.77
0.77
0.77
0.77
0.77
0.77
2.27242e-06
9.93292e-06
2.28253e-05
4.4454e-05
8.0565e-05
0.000140471
0.000239058
0.000399741
0.000658664
0.0010704
0.00171523
0.0027077
0.00420531
0.00641492
0.00959342
0.0140382
0.0200647
0.0279716
0.0380011
0.0503053
0.0649282
0.0818069
0.100788
0.12165
0.144129
0.167935
0.192774
0.218352
0.244392
0.270631
0.296835
0.32279
0.348316
0.373257
0.397484
0.420899
0.443419
0.464987
0.485559
0.505109
0.523631
0.541131
0.557625
0.573135
0.587689
0.601321
0.61407
0.625975
0.637077
0.647421
0.657047
0.665998
0.674315
0.682038
0.689206
0.695856
0.702024
0.707642
0.712783
0.717699
0.722266
0.726506
0.730455
0.734235
0.737839
0.741274
0.744539
0.747636
0.750561
0.753311
0.75588
0.75826
0.76044
0.762413
0.764166
0.765685
0.766955
0.767968
0.768726
0.769251
0.769586
0.769783
0.769892
0.769948
0.769975
0.769989
0.769995
0.769998
0.769999
0.77
0.77
0.77
0.77
0.77
0.77
0.77
0.77
0.77
0.77
0.77
2.27235e-06
9.93216e-06
2.28216e-05
4.44409e-05
8.05261e-05
0.000140368
0.000238806
0.000399163
0.000657414
0.00106784
0.00171027
0.00269856
0.00418914
0.0063875
0.00954885
0.0139688
0.0199614
0.0278244
0.0378006
0.0500435
0.0645999
0.0814102
0.100325
0.121126
0.143552
0.167318
0.192129
0.217695
0.243737
0.269994
0.29623
0.322232
0.347816
0.372826
0.397134
0.420636
0.443246
0.464899
0.485554
0.505191
0.523799
0.541382
0.557953
0.573534
0.588153
0.601845
0.614645
0.626595
0.637736
0.648111
0.657762
0.666731
0.675061
0.682792
0.689963
0.696612
0.702765
0.708349
0.713485
0.718407
0.722965
0.727146
0.731113
0.734888
0.738484
0.741905
0.745154
0.74823
0.75113
0.753851
0.756386
0.758728
0.76086
0.762788
0.764491
0.765955
0.767171
0.768129
0.768838
0.769322
0.769627
0.769806
0.769903
0.769953
0.769978
0.76999
0.769995
0.769998
0.769999
0.77
0.77
0.77
0.77
0.77
0.77
0.77
0.77
0.77
0.77
0.77
2.26911e-06
9.91762e-06
2.27865e-05
4.43674e-05
8.03812e-05
0.000140091
0.000238285
0.000398198
0.000655656
0.0010647
0.00170476
0.0026891
0.00417334
0.00636188
0.00950863
0.013908
0.0198728
0.0277006
0.0376348
0.0498304
0.0643367
0.0810969
0.0999641
0.120724
0.143116
0.166858
0.191657
0.217223
0.243277
0.269558
0.29583
0.321879
0.347522
0.372599
0.396977
0.420548
0.443229
0.464957
0.48569
0.505403
0.524084
0.541737
0.558373
0.574013
0.588686
0.602425
0.615267
0.627252
0.638422
0.64882
0.658488
0.667469
0.675804
0.683535
0.6907
0.697336
0.70349
0.709051
0.714193
0.719104
0.723645
0.727778
0.731733
0.7355
0.739084
0.742491
0.745722
0.748777
0.751652
0.754343
0.756845
0.759151
0.761243
0.763128
0.764784
0.766197
0.767361
0.768269
0.768934
0.769382
0.769662
0.769824
0.769912
0.769958
0.76998
0.769991
0.769996
0.769998
0.769999
0.77
0.77
0.77
0.77
0.77
0.77
0.77
0.77
0.77
0.77
0.77
2.2642e-06
9.89588e-06
2.27351e-05
4.42636e-05
8.01842e-05
0.000139729
0.000237633
0.000397044
0.000653642
0.00106124
0.00169892
0.00267947
0.00415781
0.00633752
0.00947159
0.0138536
0.0197958
0.0275959
0.0374979
0.0496585
0.0641286
0.0808541
0.0996901
0.120424
0.142798
0.16653
0.191328
0.216903
0.242976
0.269287
0.295599
0.321696
0.347392
0.372523
0.396958
0.420592
0.44334
0.465135
0.485935
0.505712
0.524455
0.542164
0.558853
0.574541
0.589257
0.603033
0.615907
0.627918
0.639109
0.649522
0.6592
0.668186
0.676523
0.684252
0.691413
0.698045
0.704164
0.709662
0.714916
0.719783
0.72429
0.728385
0.732319
0.736069
0.739637
0.743027
0.746238
0.74927
0.75212
0.754783
0.757253
0.759525
0.761582
0.763427
0.76504
0.766409
0.767525
0.76839
0.769015
0.769434
0.769692
0.76984
0.769921
0.769962
0.769982
0.769992
0.769996
0.769998
0.769999
0.77
0.77
0.77
0.77
0.77
0.77
0.77
0.77
0.77
0.77
0.77
2.25881e-06
9.87213e-06
2.26797e-05
4.4153e-05
7.99779e-05
0.000139357
0.000236977
0.000395907
0.0006517
0.00105797
0.00169354
0.00267076
0.00414406
0.00631638
0.00944005
0.0138081
0.0197325
0.0275113
0.0373891
0.0495241
0.063969
0.0806714
0.0994881
0.120208
0.142575
0.166307
0.191113
0.216704
0.242803
0.269147
0.295497
0.321636
0.347376
0.372558
0.397049
0.420741
0.443546
0.465399
0.486255
0.506085
0.524878
0.542634
0.559365
0.575091
0.58984
0.603644
0.616541
0.62857
0.639774
0.650196
0.659878
0.668864
0.677196
0.684915
0.692061
0.698673
0.704748
0.710236
0.715486
0.720339
0.724831
0.728916
0.732841
0.736579
0.740133
0.743507
0.7467
0.74971
0.752535
0.755169
0.757608
0.759843
0.76186
0.763659
0.765238
0.766577
0.767662
0.76849
0.769084
0.769476
0.769717
0.769854
0.769927
0.769965
0.769984
0.769992
0.769997
0.769998
0.769999
0.77
0.77
0.77
0.77
0.77
0.77
0.77
0.77
0.77
0.77
0.77
2.25357e-06
9.84909e-06
2.26261e-05
4.40469e-05
7.97815e-05
0.000139006
0.000236365
0.000394857
0.00064993
0.00105504
0.00168877
0.00266315
0.00413223
0.00629847
0.00941377
0.0137708
0.0196816
0.0274444
0.0373048
0.049422
0.0638503
0.0805386
0.0993452
0.12006
0.142428
0.166167
0.190987
0.2166
0.242725
0.2691
0.295484
0.321662
0.347448
0.372678
0.397219
0.420961
0.443816
0.465717
0.486619
0.506494
0.525327
0.543121
0.559885
0.57564
0.590414
0.604238
0.617151
0.629192
0.640404
0.650829
0.660511
0.669494
0.67782
0.68553
0.692665
0.699265
0.705313
0.710775
0.716006
0.720841
0.725313
0.729387
0.733303
0.73703
0.740572
0.743932
0.747107
0.750098
0.7529
0.755508
0.757918
0.760119
0.762105
0.763878
0.765416
0.766717
0.767773
0.768575
0.769141
0.769512
0.769738
0.769865
0.769933
0.769968
0.769985
0.769993
0.769997
0.769999
0.769999
0.77
0.77
0.77
0.77
0.77
0.77
0.77
0.77
0.77
0.77
0.77
2.24882e-06
9.82829e-06
2.25779e-05
4.39519e-05
7.96067e-05
0.000138696
0.000235828
0.000393944
0.000648404
0.00105253
0.00168473
0.00265681
0.00412248
0.0062839
0.00939268
0.0137413
0.0196419
0.0273932
0.0372414
0.049347
0.0637652
0.0804463
0.0992494
0.119965
0.14234
0.166091
0.19093
0.216563
0.242713
0.269118
0.295538
0.321755
0.347582
0.372854
0.397439
0.421224
0.444121
0.466063
0.487004
0.506914
0.525781
0.543603
0.560393
0.576171
0.590962
0.604801
0.617724
0.629772
0.640987
0.651412
0.661092
0.670069
0.678386
0.686086
0.693209
0.699795
0.705822
0.711263
0.716468
0.721281
0.725731
0.729805
0.733714
0.737431
0.740961
0.744305
0.747464
0.750436
0.753216
0.755801
0.758186
0.760364
0.762335
0.764081
0.765593
0.76686
0.767875
0.768648
0.769191
0.769543
0.769755
0.769875
0.769938
0.76997
0.769986
0.769994
0.769997
0.769999
0.769999
0.77
0.77
0.77
0.77
0.77
0.77
0.77
0.77
0.77
0.77
0.77
2.24474e-06
9.8104e-06
2.25366e-05
4.38706e-05
7.94577e-05
0.000138433
0.000235374
0.000393178
0.000647133
0.00105047
0.00168143
0.00265166
0.00411466
0.00627237
0.00937622
0.0137186
0.019612
0.0273552
0.0371955
0.0492941
0.0637072
0.0803859
0.0991904
0.119912
0.142297
0.166062
0.190917
0.216573
0.24275
0.269185
0.295638
0.321891
0.347754
0.373064
0.397685
0.421507
0.44444
0.466416
0.487388
0.507327
0.52622
0.544065
0.560875
0.576668
0.591473
0.605321
0.618251
0.630302
0.641517
0.65194
0.661614
0.670583
0.678891
0.68658
0.693689
0.700259
0.706262
0.711685
0.716879
0.721674
0.726103
0.730174
0.734073
0.73778
0.741298
0.744627
0.747769
0.750721
0.753482
0.75605
0.75842
0.760585
0.762532
0.764254
0.76574
0.766981
0.76797
0.768712
0.769234
0.76957
0.76977
0.769882
0.769942
0.769972
0.769987
0.769994
0.769997
0.769999
0.769999
0.77
0.77
0.77
0.77
0.77
0.77
0.77
0.77
0.77
0.77
0.77
2.24135e-06
9.79555e-06
2.25023e-05
4.38035e-05
7.93349e-05
0.000138217
0.000235004
0.000392556
0.000646109
0.00104881
0.00167882
0.00264762
0.00410859
0.00626351
0.00936375
0.0137018
0.0195901
0.0273281
0.0371637
0.0492586
0.0636702
0.08035
0.0991591
0.119889
0.142284
0.166064
0.190938
0.216616
0.242819
0.269282
0.295765
0.322049
0.347944
0.373286
0.39794
0.421793
0.444755
0.466759
0.487757
0.507719
0.526632
0.544495
0.561319
0.577124
0.591937
0.605792
0.618725
0.630776
0.64199
0.652408
0.662076
0.671037
0.679335
0.687012
0.694108
0.700662
0.706646
0.712056
0.717234
0.722012
0.726418
0.73049
0.734382
0.73808
0.741585
0.744902
0.748032
0.750974
0.753726
0.756281
0.758633
0.760776
0.762702
0.764402
0.765865
0.767082
0.768047
0.768768
0.769268
0.769591
0.769782
0.769889
0.769945
0.769974
0.769988
0.769994
0.769997
0.769999
0.769999
0.77
0.77
0.77
0.77
0.77
0.77
0.77
0.77
0.77
0.77
0.77
2.23862e-06
9.7836e-06
2.24748e-05
4.37496e-05
7.92368e-05
0.000138045
0.000234711
0.000392066
0.000645305
0.00104752
0.00167679
0.00264453
0.00410399
0.0062569
0.00935457
0.0136896
0.0195746
0.0273095
0.0371426
0.0492364
0.0636488
0.080332
0.099147
0.119885
0.142292
0.166088
0.19098
0.216679
0.242905
0.269394
0.295903
0.322214
0.348137
0.373507
0.398187
0.422066
0.445053
0.467079
0.488097
0.508077
0.527006
0.544883
0.561718
0.577531
0.59235
0.606208
0.619142
0.631193
0.642403
0.652816
0.662478
0.671431
0.679719
0.687384
0.694466
0.70101
0.706978
0.712375
0.71754
0.722305
0.726679
0.730757
0.734643
0.738333
0.741832
0.745143
0.748265
0.751196
0.753934
0.756474
0.75881
0.760936
0.762844
0.764525
0.765968
0.767165
0.768111
0.768814
0.769299
0.769608
0.769792
0.769894
0.769948
0.769975
0.769988
0.769995
0.769998
0.769999
0.77
0.77
0.77
0.77
0.77
0.77
0.77
0.77
0.77
0.77
0.77
0.77
2.23648e-06
9.77426e-06
2.24533e-05
4.37076e-05
7.91604e-05
0.000137911
0.000234484
0.000391688
0.000644691
0.00104654
0.00167527
0.00264222
0.0041006
0.00625209
0.00934802
0.013681
0.0195641
0.0272974
0.0371296
0.0492239
0.0636384
0.0803258
0.0991471
0.119895
0.142314
0.166124
0.191033
0.216751
0.242998
0.269508
0.29604
0.322375
0.348321
0.373714
0.398416
0.422316
0.445322
0.467367
0.488401
0.508396
0.527336
0.545223
0.562066
0.577885
0.592708
0.606567
0.619501
0.631549
0.642756
0.653165
0.662819
0.671764
0.680042
0.687698
0.694774
0.701308
0.707259
0.712643
0.717795
0.722547
0.726893
0.73098
0.734861
0.738546
0.74204
0.745343
0.748456
0.751377
0.754104
0.756632
0.758955
0.761068
0.762961
0.764626
0.766053
0.767234
0.768163
0.768851
0.769323
0.769623
0.7698
0.769898
0.76995
0.769976
0.769989
0.769995
0.769998
0.769999
0.77
0.77
0.77
0.77
0.77
0.77
0.77
0.77
0.77
0.77
0.77
0.77
2.23485e-06
9.76715e-06
2.24369e-05
4.36757e-05
7.91025e-05
0.000137811
0.000234313
0.000391406
0.000644234
0.00104582
0.00167416
0.00264055
0.00409817
0.0062487
0.00934349
0.0136753
0.0195572
0.0272899
0.0371222
0.0492178
0.0636351
0.080327
0.0991551
0.119911
0.142342
0.166165
0.191089
0.216823
0.243087
0.269616
0.296167
0.322521
0.348486
0.373897
0.398617
0.422534
0.445556
0.467615
0.488662
0.508667
0.527617
0.545511
0.56236
0.578182
0.593007
0.606867
0.6198
0.631846
0.643049
0.653452
0.6631
0.672037
0.680309
0.687959
0.695026
0.701551
0.707491
0.712864
0.718006
0.722747
0.727069
0.731159
0.735037
0.738718
0.742207
0.745504
0.74861
0.751523
0.754241
0.756759
0.759072
0.761173
0.763054
0.764707
0.766121
0.767289
0.768205
0.76888
0.769342
0.769635
0.769807
0.769902
0.769952
0.769977
0.769989
0.769995
0.769998
0.769999
0.77
0.77
0.77
0.77
0.77
0.77
0.77
0.77
0.77
0.77
0.77
0.77
2.23365e-06
9.76192e-06
2.24249e-05
4.36523e-05
7.90602e-05
0.000137737
0.000234189
0.000391201
0.000643904
0.0010453
0.00167336
0.00263937
0.00409649
0.00624638
0.00934046
0.0136716
0.019553
0.0272855
0.0371185
0.0492156
0.0636358
0.0803321
0.0991662
0.11993
0.14237
0.166204
0.19114
0.216887
0.243165
0.269709
0.296275
0.322644
0.348624
0.37405
0.398785
0.422715
0.445749
0.467818
0.488875
0.508888
0.527845
0.545744
0.562596
0.578422
0.593248
0.607108
0.620039
0.632082
0.643281
0.653679
0.663323
0.672257
0.680524
0.688167
0.695227
0.701745
0.707673
0.713038
0.718173
0.722907
0.727212
0.731298
0.735173
0.738852
0.742336
0.745629
0.74873
0.751637
0.754348
0.756859
0.759164
0.761256
0.763127
0.76477
0.766174
0.767331
0.768237
0.768903
0.769357
0.769644
0.769812
0.769905
0.769953
0.769978
0.76999
0.769995
0.769998
0.769999
0.77
0.77
0.77
0.77
0.77
0.77
0.77
0.77
0.77
0.77
0.77
0.77
2.23282e-06
9.75826e-06
2.24165e-05
4.36359e-05
7.90306e-05
0.000137686
0.000234103
0.00039106
0.000643677
0.00104495
0.00167282
0.00263858
0.00409536
0.00624486
0.00933851
0.0136692
0.0195505
0.0272832
0.0371169
0.0492155
0.0636382
0.0803382
0.0991772
0.119947
0.142394
0.166236
0.191182
0.21694
0.243228
0.269783
0.296361
0.322741
0.348732
0.374169
0.398914
0.422853
0.445896
0.467973
0.489036
0.509056
0.528017
0.54592
0.562775
0.578602
0.593428
0.607287
0.620217
0.632258
0.643455
0.653852
0.663493
0.672422
0.680684
0.688322
0.695377
0.701889
0.707809
0.713169
0.718298
0.723026
0.727319
0.731401
0.735274
0.73895
0.742432
0.745721
0.748818
0.75172
0.754427
0.756932
0.759231
0.761316
0.763181
0.764817
0.766213
0.767362
0.768261
0.768919
0.769368
0.76965
0.769816
0.769907
0.769954
0.769978
0.76999
0.769995
0.769998
0.769999
0.77
0.77
0.77
0.77
0.77
0.77
0.77
0.77
0.77
0.77
0.77
0.77
2.23229e-06
9.75596e-06
2.24112e-05
4.36256e-05
7.9012e-05
0.000137654
0.000234049
0.000390971
0.000643535
0.00104472
0.00167249
0.00263809
0.00409468
0.00624394
0.00933735
0.0136679
0.0195491
0.027282
0.0371163
0.0492161
0.0636407
0.0803433
0.0991857
0.11996
0.142412
0.16626
0.191212
0.216976
0.243272
0.269834
0.296419
0.322807
0.348806
0.37425
0.399001
0.422947
0.445995
0.468077
0.489145
0.509168
0.528132
0.546037
0.562893
0.578721
0.593548
0.607407
0.620336
0.632377
0.643573
0.653967
0.663605
0.672532
0.680791
0.688425
0.695477
0.701985
0.7079
0.713255
0.718381
0.723105
0.727389
0.731469
0.735341
0.739015
0.742495
0.745782
0.748876
0.751776
0.754478
0.75698
0.759275
0.761356
0.763216
0.764847
0.766239
0.767382
0.768276
0.76893
0.769375
0.769654
0.769818
0.769908
0.769955
0.769978
0.76999
0.769995
0.769998
0.769999
0.77
0.77
0.77
0.77
0.77
0.77
0.77
0.77
0.77
0.77
0.77
0.77
2.23204e-06
9.75488e-06
2.24087e-05
4.36208e-05
7.90033e-05
0.000137638
0.000234023
0.000390929
0.000643468
0.00104462
0.00167233
0.00263786
0.00409436
0.00624352
0.00933683
0.0136673
0.0195485
0.0272815
0.0371162
0.0492166
0.0636421
0.080346
0.0991901
0.119967
0.142421
0.166272
0.191226
0.216994
0.243294
0.26986
0.296449
0.32284
0.348843
0.37429
0.399045
0.422993
0.446045
0.468129
0.489199
0.509224
0.52819
0.546096
0.562953
0.578781
0.593608
0.607467
0.620396
0.632436
0.643631
0.654024
0.663661
0.672586
0.680844
0.688476
0.695526
0.702033
0.707945
0.713298
0.718422
0.723145
0.727424
0.731502
0.735373
0.739047
0.742526
0.745811
0.748904
0.751803
0.754504
0.757004
0.759296
0.761376
0.763234
0.764862
0.766251
0.767392
0.768283
0.768935
0.769378
0.769656
0.769819
0.769908
0.769955
0.769979
0.76999
0.769995
0.769998
0.769999
0.77
0.77
0.77
0.77
0.77
0.77
0.77
0.77
0.77
0.77
0.77
0.77
2.23206e-06
9.75496e-06
2.24089e-05
4.36211e-05
7.90039e-05
0.00013764
0.000234025
0.000390933
0.000643474
0.00104463
0.00167235
0.00263788
0.00409439
0.00624357
0.0093369
0.0136674
0.0195486
0.0272817
0.0371164
0.0492169
0.0636424
0.0803464
0.0991906
0.119967
0.142421
0.166272
0.191227
0.216995
0.243295
0.269861
0.296449
0.322841
0.348843
0.374291
0.399045
0.422994
0.446045
0.46813
0.489199
0.509224
0.52819
0.546096
0.562953
0.578782
0.593608
0.607467
0.620396
0.632437
0.643631
0.654024
0.663661
0.672586
0.680844
0.688477
0.695526
0.702033
0.707945
0.713298
0.718422
0.723145
0.727424
0.731502
0.735373
0.739047
0.742526
0.745812
0.748904
0.751803
0.754504
0.757004
0.759296
0.761376
0.763234
0.764862
0.766251
0.767392
0.768283
0.768935
0.769378
0.769656
0.769819
0.769908
0.769955
0.769979
0.76999
0.769995
0.769998
0.769999
0.77
0.77
0.77
0.77
0.77
0.77
0.77
0.77
0.77
0.77
0.77
0.77
2.23234e-06
9.75618e-06
2.24117e-05
4.36266e-05
7.90138e-05
0.000137657
0.000234054
0.00039098
0.000643549
0.00104475
0.00167253
0.00263815
0.00409477
0.00624407
0.00933755
0.0136682
0.0195495
0.0272825
0.037117
0.0492169
0.0636417
0.0803444
0.099187
0.119961
0.142413
0.166261
0.191213
0.216978
0.243274
0.269836
0.296421
0.322809
0.348808
0.374251
0.399003
0.422948
0.445997
0.468079
0.489146
0.509169
0.528133
0.546038
0.562895
0.578722
0.593549
0.607408
0.620337
0.632378
0.643573
0.653968
0.663606
0.672532
0.680791
0.688426
0.695477
0.701986
0.7079
0.713256
0.718381
0.723106
0.727389
0.731469
0.735341
0.739015
0.742495
0.745782
0.748876
0.751776
0.754478
0.75698
0.759275
0.761356
0.763217
0.764847
0.766239
0.767382
0.768276
0.76893
0.769375
0.769654
0.769818
0.769908
0.769955
0.769978
0.76999
0.769995
0.769998
0.769999
0.77
0.77
0.77
0.77
0.77
0.77
0.77
0.77
0.77
0.77
0.77
0.77
2.2329e-06
9.75863e-06
2.24173e-05
4.36376e-05
7.90336e-05
0.000137691
0.000234112
0.000391075
0.000643702
0.00104499
0.00167289
0.00263868
0.00409552
0.00624509
0.00933884
0.0136697
0.0195511
0.027284
0.037118
0.0492169
0.0636399
0.0803401
0.0991794
0.11995
0.142397
0.166239
0.191185
0.216943
0.243231
0.269786
0.296364
0.322744
0.348735
0.374172
0.398917
0.422856
0.445899
0.467976
0.489039
0.509058
0.528019
0.545922
0.562777
0.578603
0.59343
0.607289
0.620218
0.63226
0.643456
0.653853
0.663494
0.672423
0.680685
0.688323
0.695378
0.70189
0.70781
0.713169
0.718298
0.723027
0.727319
0.731401
0.735275
0.73895
0.742432
0.745721
0.748818
0.751721
0.754427
0.756932
0.759231
0.761316
0.763181
0.764817
0.766213
0.767362
0.768261
0.768919
0.769368
0.76965
0.769816
0.769907
0.769954
0.769978
0.76999
0.769995
0.769998
0.769999
0.77
0.77
0.77
0.77
0.77
0.77
0.77
0.77
0.77
0.77
0.77
0.77
2.23377e-06
9.76243e-06
2.24261e-05
4.36546e-05
7.90643e-05
0.000137744
0.000234202
0.000391222
0.000643938
0.00104536
0.00167345
0.00263951
0.0040967
0.0062467
0.00934092
0.0136722
0.0195539
0.0272867
0.03712
0.0492175
0.063638
0.0803347
0.0991692
0.119934
0.142373
0.166207
0.191144
0.216891
0.24317
0.269713
0.296279
0.322649
0.348629
0.374055
0.398789
0.422718
0.445753
0.467822
0.488878
0.508891
0.527848
0.545747
0.562599
0.578424
0.59325
0.60711
0.620041
0.632084
0.643283
0.653681
0.663325
0.672259
0.680525
0.688168
0.695228
0.701746
0.707674
0.713039
0.718174
0.722908
0.727213
0.731299
0.735174
0.738852
0.742337
0.745629
0.74873
0.751637
0.754348
0.756859
0.759164
0.761256
0.763128
0.76477
0.766175
0.767331
0.768237
0.768903
0.769357
0.769644
0.769812
0.769905
0.769953
0.769978
0.76999
0.769995
0.769998
0.769999
0.77
0.77
0.77
0.77
0.77
0.77
0.77
0.77
0.77
0.77
0.77
0.77
2.235e-06
9.7678e-06
2.24384e-05
4.36786e-05
7.91079e-05
0.00013782
0.000234329
0.000391433
0.000644278
0.00104589
0.00167427
0.00264073
0.00409845
0.00624911
0.00934409
0.0136761
0.0195584
0.0272914
0.0371242
0.0492202
0.063638
0.0803304
0.0991589
0.119916
0.142346
0.166169
0.191094
0.216828
0.243092
0.269621
0.296172
0.322526
0.348491
0.373902
0.398622
0.422539
0.445561
0.467619
0.488666
0.508671
0.527621
0.545515
0.562363
0.578186
0.59301
0.60687
0.619803
0.631849
0.643051
0.653454
0.663102
0.672039
0.680311
0.68796
0.695028
0.701552
0.707492
0.712865
0.718007
0.722748
0.72707
0.73116
0.735038
0.738719
0.742207
0.745504
0.74861
0.751524
0.754242
0.75676
0.759073
0.761174
0.763055
0.764707
0.766122
0.767289
0.768205
0.76888
0.769342
0.769635
0.769807
0.769902
0.769952
0.769977
0.769989
0.769995
0.769998
0.769999
0.77
0.77
0.77
0.77
0.77
0.77
0.77
0.77
0.77
0.77
0.77
0.77
2.23666e-06
9.77505e-06
2.24551e-05
4.37111e-05
7.91669e-05
0.000137923
0.000234503
0.000391721
0.000644744
0.00104663
0.00167541
0.00264244
0.00410094
0.00625259
0.00934875
0.0136821
0.0195655
0.0272993
0.037132
0.0492268
0.063642
0.08033
0.0991518
0.1199
0.142319
0.16613
0.19104
0.216758
0.243004
0.269515
0.296047
0.322382
0.348327
0.37372
0.398422
0.422322
0.445328
0.467372
0.488406
0.508401
0.527341
0.545228
0.56207
0.577889
0.592712
0.606571
0.619504
0.631553
0.642759
0.653167
0.662822
0.671767
0.680044
0.6877
0.694775
0.70131
0.70726
0.712644
0.717796
0.722548
0.726894
0.730981
0.734862
0.738547
0.74204
0.745344
0.748457
0.751378
0.754105
0.756632
0.758956
0.761068
0.762961
0.764626
0.766053
0.767234
0.768164
0.768851
0.769323
0.769623
0.7698
0.769898
0.76995
0.769976
0.769989
0.769995
0.769998
0.769999
0.77
0.77
0.77
0.77
0.77
0.77
0.77
0.77
0.77
0.77
0.77
0.77
2.23883e-06
9.78454e-06
2.24769e-05
4.37538e-05
7.92444e-05
0.000138058
0.000234734
0.000392104
0.000645368
0.00104762
0.00167696
0.00264478
0.00410438
0.00625749
0.00935543
0.0136908
0.0195763
0.0273118
0.0371455
0.04924
0.063653
0.0803369
0.0991525
0.119891
0.142299
0.166095
0.190988
0.216687
0.242913
0.269402
0.295911
0.322222
0.348145
0.373515
0.398195
0.422073
0.44506
0.467086
0.488104
0.508084
0.527012
0.544888
0.561723
0.577536
0.592355
0.606212
0.619146
0.631196
0.642406
0.65282
0.662481
0.671434
0.679722
0.687386
0.694468
0.701012
0.70698
0.712376
0.717541
0.722306
0.72668
0.730758
0.734644
0.738334
0.741833
0.745144
0.748266
0.751197
0.753934
0.756474
0.758811
0.760937
0.762844
0.764525
0.765969
0.767166
0.768112
0.768814
0.769299
0.769608
0.769792
0.769894
0.769948
0.769975
0.769988
0.769995
0.769998
0.769999
0.77
0.77
0.77
0.77
0.77
0.77
0.77
0.77
0.77
0.77
0.77
0.77
2.2416e-06
9.79664e-06
2.25048e-05
4.38084e-05
7.93438e-05
0.000138232
0.000235031
0.000392601
0.000646182
0.00104893
0.00167901
0.00264792
0.00410904
0.0062642
0.00936474
0.0137032
0.019592
0.0273307
0.0371669
0.0492627
0.063675
0.0803556
0.0991654
0.119896
0.142292
0.166072
0.190947
0.216625
0.242828
0.269291
0.295774
0.322058
0.347953
0.373295
0.397949
0.421801
0.444764
0.466767
0.487764
0.507726
0.526638
0.544501
0.561325
0.57713
0.591943
0.605797
0.618729
0.630781
0.641994
0.652412
0.66208
0.67104
0.679338
0.687015
0.694111
0.700665
0.706648
0.712058
0.717236
0.722014
0.726419
0.730492
0.734383
0.738081
0.741586
0.744903
0.748033
0.750975
0.753727
0.756281
0.758634
0.760777
0.762703
0.764402
0.765865
0.767082
0.768048
0.768768
0.769268
0.769591
0.769782
0.769889
0.769945
0.769974
0.769988
0.769994
0.769997
0.769999
0.769999
0.77
0.77
0.77
0.77
0.77
0.77
0.77
0.77
0.77
0.77
0.77
2.24502e-06
9.81164e-06
2.25395e-05
4.38763e-05
7.94679e-05
0.000138451
0.000235405
0.000393229
0.000647217
0.0010506
0.00168165
0.002652
0.00411519
0.00627315
0.00937735
0.0137203
0.0196142
0.0273582
0.0371993
0.0492987
0.0637127
0.0803923
0.0991976
0.11992
0.142305
0.166072
0.190927
0.216583
0.24276
0.269196
0.295648
0.321901
0.347764
0.373074
0.397695
0.421517
0.44445
0.466425
0.487397
0.507336
0.526228
0.544073
0.560882
0.576675
0.591479
0.605327
0.618256
0.630307
0.641522
0.651944
0.661618
0.670587
0.678895
0.686583
0.693692
0.700262
0.706265
0.711687
0.716881
0.721676
0.726104
0.730175
0.734075
0.737781
0.741299
0.744629
0.74777
0.750722
0.753483
0.756051
0.75842
0.760585
0.762533
0.764255
0.765741
0.766981
0.76797
0.768712
0.769234
0.76957
0.76977
0.769882
0.769942
0.769972
0.769987
0.769994
0.769997
0.769999
0.769999
0.77
0.77
0.77
0.77
0.77
0.77
0.77
0.77
0.77
0.77
0.77
2.24915e-06
9.82971e-06
2.25812e-05
4.39583e-05
7.96184e-05
0.000138716
0.000235863
0.000394002
0.000648499
0.00105269
0.00168498
0.00265719
0.00412307
0.00628478
0.00939396
0.0137431
0.0196444
0.0273965
0.0372456
0.0493521
0.0637714
0.0804534
0.0992576
0.119974
0.142349
0.166102
0.190941
0.216575
0.242725
0.26913
0.29555
0.321767
0.347594
0.372866
0.39745
0.421235
0.444132
0.466074
0.487014
0.506924
0.52579
0.543612
0.560401
0.576178
0.590969
0.604808
0.617731
0.629778
0.640993
0.651417
0.661096
0.670073
0.67839
0.686089
0.693212
0.699798
0.705825
0.711265
0.71647
0.721283
0.725732
0.729807
0.733715
0.737432
0.740962
0.744307
0.747465
0.750437
0.753217
0.755802
0.758186
0.760365
0.762335
0.764081
0.765593
0.76686
0.767875
0.768649
0.769192
0.769543
0.769755
0.769875
0.769938
0.76997
0.769986
0.769994
0.769997
0.769999
0.769999
0.77
0.77
0.77
0.77
0.77
0.77
0.77
0.77
0.77
0.77
0.77
2.25393e-06
9.85068e-06
2.26298e-05
4.40541e-05
7.97946e-05
0.000139029
0.000236404
0.000394923
0.000650038
0.00105521
0.00168904
0.00266359
0.00413289
0.00629946
0.00941521
0.0137728
0.0196843
0.027448
0.0373094
0.0494277
0.0638571
0.0805465
0.0993542
0.12007
0.142439
0.166179
0.191
0.216613
0.242739
0.269113
0.295497
0.321676
0.347461
0.372691
0.397231
0.420973
0.443828
0.465729
0.486631
0.506504
0.525338
0.543131
0.559894
0.575649
0.590422
0.604246
0.617158
0.629199
0.64041
0.650835
0.660516
0.669499
0.677824
0.685534
0.692669
0.699268
0.705316
0.710777
0.716008
0.720843
0.725315
0.729389
0.733305
0.737032
0.740574
0.743933
0.747109
0.750099
0.752901
0.755509
0.757919
0.76012
0.762106
0.763878
0.765416
0.766717
0.767773
0.768575
0.769141
0.769513
0.769738
0.769865
0.769933
0.769968
0.769985
0.769993
0.769997
0.769999
0.769999
0.77
0.77
0.77
0.77
0.77
0.77
0.77
0.77
0.77
0.77
0.77
2.25922e-06
9.87392e-06
2.26838e-05
4.41611e-05
7.99926e-05
0.000139382
0.000237021
0.00039598
0.00065182
0.00105817
0.00169385
0.00267124
0.0041448
0.00631748
0.00944165
0.0138103
0.0197356
0.0275153
0.0373943
0.0495305
0.0639766
0.0806802
0.0994981
0.120219
0.142587
0.16632
0.191127
0.216718
0.242817
0.269162
0.295512
0.321651
0.347391
0.372572
0.397063
0.420755
0.44356
0.465412
0.486267
0.506097
0.524889
0.542645
0.559376
0.575101
0.589849
0.603653
0.616549
0.628578
0.639781
0.650202
0.659884
0.668869
0.677201
0.68492
0.692066
0.698677
0.704751
0.710239
0.715488
0.720342
0.724833
0.728918
0.732843
0.736581
0.740135
0.743509
0.746701
0.749711
0.752536
0.75517
0.757609
0.759844
0.761861
0.763659
0.765239
0.766577
0.767662
0.768491
0.769084
0.769477
0.769717
0.769854
0.769928
0.769965
0.769984
0.769992
0.769997
0.769998
0.769999
0.77
0.77
0.77
0.77
0.77
0.77
0.77
0.77
0.77
0.77
0.77
2.26466e-06
9.89789e-06
2.27398e-05
4.42726e-05
8.02007e-05
0.000139757
0.000237682
0.000397126
0.000653777
0.00106145
0.00169927
0.00268
0.00415863
0.00633874
0.00947337
0.0138561
0.0197992
0.0276004
0.0375036
0.0496654
0.064137
0.0808638
0.099701
0.120436
0.142811
0.166544
0.191343
0.216919
0.242992
0.269303
0.295615
0.321713
0.347408
0.372539
0.396974
0.420608
0.443355
0.46515
0.485949
0.505725
0.524467
0.542176
0.558864
0.574552
0.589267
0.603043
0.615916
0.627926
0.639116
0.649529
0.659206
0.668192
0.676529
0.684257
0.691417
0.698049
0.704168
0.709666
0.714919
0.719786
0.724292
0.728388
0.732322
0.736071
0.739639
0.743029
0.74624
0.749272
0.752121
0.754784
0.757254
0.759526
0.761583
0.763427
0.765041
0.766409
0.767526
0.76839
0.769015
0.769434