/*--------------------------------*- C++ -*----------------------------------*\
  =========                 |
  \\      /  F ield         | OpenFOAM: The Open Source CFD Toolbox
   \\    /   O peration     | Website:  https://openfoam.org
    \\  /    A nd           | Version:  8
     \\/     M anipulation  |
\*---------------------------------------------------------------------------*/
FoamFile
{
    version     2.0;
    format      ascii;
    class       volScalarField;
    location    "500/fluid";
    object      O2;
}
// * * * * * * * * * * * * * * * * * * * * * * * * * * * * * * * * * * * * * //

dimensions      [0 0 0 0 0 0 0];

internalField   nonuniform List<scalar> 
4000
(
4.41939e-10
1.92949e-09
4.42287e-09
8.5822e-09
1.5481e-08
2.6845e-08
4.541e-08
7.54428e-08
1.23468e-07
1.99231e-07
3.16873e-07
4.96224e-07
7.63925e-07
1.15404e-06
1.70735e-06
2.46076e-06
3.45986e-06
4.73568e-06
6.30183e-06
8.15104e-06
1.02549e-05
1.25674e-05
1.50308e-05
1.75816e-05
2.01553e-05
2.26909e-05
2.51324e-05
2.74314e-05
2.9547e-05
3.14473e-05
3.31109e-05
3.45293e-05
3.57137e-05
3.67036e-05
3.75809e-05
3.84843e-05
3.96226e-05
4.12867e-05
4.38595e-05
4.78309e-05
5.38232e-05
6.26324e-05
7.52821e-05
9.30969e-05
0.000117724
0.000151514
0.000197395
0.000259215
0.000342025
0.000452453
0.000599175
0.000793538
0.00105034
0.00138886
0.00183416
0.00241873
0.00318468
0.00418086
0.00545364
0.00715312
0.00936068
0.0122236
0.0158785
0.0322195
0.0488625
0.0655156
0.0819555
0.0980085
0.113537
0.128431
0.142597
0.155953
0.168422
0.179884
0.190359
0.199699
0.207805
0.214576
0.219937
0.223885
0.226547
0.22818
0.229096
0.22957
0.229802
0.22991
0.22996
0.229983
0.229993
0.229997
0.229999
0.229999
0.23
0.23
0.23
0.23
0.23
0.23
0.23
0.23
4.5035e-10
1.96752e-09
4.51552e-09
8.77642e-09
1.58622e-08
2.75626e-08
4.67176e-08
7.77553e-08
1.27438e-07
2.05837e-07
3.27491e-07
5.12633e-07
7.87924e-07
1.18733e-06
1.74975e-06
2.52242e-06
3.54608e-06
4.85076e-06
6.45097e-06
8.34046e-06
1.04917e-05
1.28593e-05
1.53852e-05
1.80051e-05
2.06532e-05
2.32666e-05
2.57875e-05
2.81652e-05
3.0357e-05
3.23293e-05
3.40592e-05
3.55376e-05
3.67754e-05
3.78138e-05
3.8738e-05
3.96927e-05
4.08967e-05
4.26536e-05
4.53622e-05
4.953e-05
5.5799e-05
6.49872e-05
7.80639e-05
9.63487e-05
0.000121794
0.000156553
0.000203605
0.000266856
0.000351441
0.000464104
0.000613699
0.000811848
0.00107379
0.00141951
0.00187522
0.00247532
0.00326506
0.00429464
0.00562852
0.00742915
0.00979705
0.0129188
0.0169826
0.0335642
0.0503755
0.0671493
0.0836772
0.0997944
0.115369
0.130291
0.144469
0.157818
0.170258
0.181652
0.192035
0.201236
0.209154
0.215689
0.220781
0.22446
0.226894
0.228365
0.229184
0.229609
0.229818
0.229917
0.229963
0.229984
0.229993
0.229997
0.229999
0.229999
0.23
0.23
0.23
0.23
0.23
0.23
0.23
0.23
4.62928e-10
2.02324e-09
4.64647e-09
9.03762e-09
1.63439e-08
2.8409e-08
4.81514e-08
8.01085e-08
1.31189e-07
2.11644e-07
3.36136e-07
5.25111e-07
8.05721e-07
1.21451e-06
1.79372e-06
2.59098e-06
3.64276e-06
4.98192e-06
6.62483e-06
8.56684e-06
1.07817e-05
1.32244e-05
1.5837e-05
1.85542e-05
2.1309e-05
2.40362e-05
2.66757e-05
2.91739e-05
3.14856e-05
3.35746e-05
3.54157e-05
3.69982e-05
3.83327e-05
3.94619e-05
4.04755e-05
4.15275e-05
4.28507e-05
4.47679e-05
4.77022e-05
5.2185e-05
5.88585e-05
6.85098e-05
8.22628e-05
0.00010165
0.000128304
0.000164543
0.000213396
0.00027884
0.000366101
0.00048205
0.000635725
0.000839013
0.00110755
0.00146195
0.00192936
0.00254575
0.00335881
0.00441847
0.00579881
0.00767934
0.0101802
0.0135263
0.0191279
0.0359524
0.0529316
0.0698186
0.0864171
0.102569
0.118145
0.133036
0.147149
0.160399
0.172701
0.183921
0.194077
0.203005
0.21061
0.21681
0.221574
0.224967
0.227186
0.228518
0.229258
0.229643
0.229833
0.229923
0.229966
0.229985
0.229993
0.229997
0.229999
0.229999
0.23
0.23
0.23
0.23
0.23
0.23
0.23
0.23
4.74895e-10
2.07569e-09
4.7674e-09
9.2739e-09
1.67732e-08
2.91574e-08
4.94185e-08
8.22009e-08
1.34558e-07
2.16935e-07
3.44396e-07
5.38928e-07
8.29808e-07
1.25151e-06
1.84646e-06
2.66044e-06
3.73715e-06
5.11104e-06
6.8002e-06
8.80158e-06
1.109e-05
1.3621e-05
1.63362e-05
1.91693e-05
2.20513e-05
2.49149e-05
2.76972e-05
3.03419e-05
3.28007e-05
3.50346e-05
3.7016e-05
3.87323e-05
4.01935e-05
4.14444e-05
4.25808e-05
4.37675e-05
4.52567e-05
4.73896e-05
5.05988e-05
5.53894e-05
6.24808e-05
7.29158e-05
8.78015e-05
0.000108413
0.000136579
0.000174667
0.000225767
0.000293924
0.000384452
0.000504323
0.000662699
0.000871615
0.00114688
0.00150931
0.00198626
0.00261386
0.00343981
0.00451193
0.00590482
0.00779251
0.0102809
0.0135697
0.0222564
0.0391221
0.0561444
0.0730593
0.089661
0.105787
0.121304
0.136102
0.150086
0.163167
0.175262
0.186278
0.196151
0.204767
0.212041
0.217905
0.222349
0.225469
0.227483
0.228678
0.229338
0.229681
0.22985
0.229931
0.229969
0.229986
0.229994
0.229997
0.229999
0.23
0.23
0.23
0.23
0.23
0.23
0.23
0.23
0.23
4.85415e-10
2.1211e-09
4.87019e-09
9.47152e-09
1.71284e-08
2.97759e-08
5.04796e-08
8.40153e-08
1.37681e-07
2.22396e-07
3.54119e-07
5.54218e-07
8.5181e-07
1.28374e-06
1.89364e-06
2.72888e-06
3.83504e-06
5.24865e-06
6.9899e-06
9.05755e-06
1.14277e-05
1.40566e-05
1.68856e-05
1.98472e-05
2.2871e-05
2.5887e-05
2.88297e-05
3.16398e-05
3.4266e-05
3.66662e-05
3.881e-05
4.06828e-05
4.22944e-05
4.3692e-05
4.49805e-05
4.63312e-05
4.80019e-05
5.03358e-05
5.38296e-05
5.91268e-05
6.7086e-05
7.84907e-05
9.44952e-05
0.000116552
0.00014653
0.000186858
0.000240699
0.000312193
0.000406764
0.000531516
0.000695764
0.000911715
0.00119538
0.00156776
0.00205646
0.00269783
0.00353985
0.00462653
0.0060361
0.0079464
0.0104683
0.0138079
0.0257046
0.0425531
0.059565
0.0764612
0.093025
0.109086
0.124508
0.139179
0.153002
0.165889
0.177745
0.188516
0.198099
0.206404
0.213352
0.218892
0.223036
0.225907
0.227737
0.228815
0.229407
0.229714
0.229865
0.229938
0.229972
0.229988
0.229995
0.229998
0.229999
0.23
0.23
0.23
0.23
0.23
0.23
0.23
0.23
0.23
4.97047e-10
2.17255e-09
4.99039e-09
9.70967e-09
1.75671e-08
3.05513e-08
5.18114e-08
8.62453e-08
1.41315e-07
2.28111e-07
3.62649e-07
5.67254e-07
8.71804e-07
1.31424e-06
1.93969e-06
2.79736e-06
3.93503e-06
5.39165e-06
7.18975e-06
9.33009e-06
1.17902e-05
1.45267e-05
1.74809e-05
2.05841e-05
2.37638e-05
2.6948e-05
3.00681e-05
3.30617e-05
3.58743e-05
3.84605e-05
4.07871e-05
4.28373e-05
4.46223e-05
4.61828e-05
4.76176e-05
4.90966e-05
5.09219e-05
5.35261e-05
5.75409e-05
6.36106e-05
7.24007e-05
8.48822e-05
0.000102258
0.000126048
0.000158196
0.000201224
0.00025841
0.000334042
0.000433723
0.000564786
0.000736815
0.000962345
0.00125777
0.00164454
0.00215076
0.00281332
0.00367816
0.00478726
0.00622855
0.00817962
0.0107444
0.0141035
0.0290624
0.0458485
0.0628428
0.0797199
0.0962427
0.112233
0.127552
0.142087
0.155743
0.168434
0.180041
0.190567
0.199875
0.207885
0.21453
0.219771
0.223644
0.226294
0.227963
0.228937
0.229469
0.229744
0.229879
0.229944
0.229975
0.229989
0.229995
0.229998
0.229999
0.23
0.23
0.23
0.23
0.23
0.23
0.23
0.23
0.23
5.07915e-10
2.2199e-09
5.09884e-09
9.92026e-09
1.79477e-08
3.12129e-08
5.29335e-08
8.81158e-08
1.44389e-07
2.33101e-07
3.70664e-07
5.80007e-07
8.91873e-07
1.34541e-06
1.98734e-06
2.86892e-06
4.04034e-06
5.54316e-06
7.40252e-06
9.62138e-06
1.21788e-05
1.50322e-05
1.81223e-05
2.13797e-05
2.47298e-05
2.8098e-05
3.1413e-05
3.46089e-05
3.76278e-05
4.04208e-05
4.2953e-05
4.51955e-05
4.71437e-05
4.883e-05
5.03838e-05
5.20424e-05
5.42385e-05
5.74133e-05
6.2022e-05
6.87668e-05
7.84806e-05
9.21788e-05
0.000111121
0.000136899
0.000171552
0.000217724
0.000278859
0.000359458
0.000465408
0.000604407
0.000786522
0.0010249
0.00133672
0.00174436
0.00227696
0.00297236
0.00388219
0.00504088
0.00654361
0.00855195
0.0111493
0.0144439
0.031263
0.0484422
0.0656467
0.0826175
0.0991542
0.115099
0.130327
0.144735
0.158232
0.170739
0.182129
0.19243
0.201479
0.209208
0.215569
0.220539
0.22417
0.226624
0.228155
0.229041
0.229522
0.229769
0.229891
0.22995
0.229977
0.22999
0.229996
0.229998
0.229999
0.23
0.23
0.23
0.23
0.23
0.23
0.23
0.23
0.23
5.17995e-10
2.26388e-09
5.19961e-09
1.0116e-08
1.83021e-08
3.18312e-08
5.39889e-08
8.98907e-08
1.47339e-07
2.37957e-07
3.78572e-07
5.92744e-07
9.12133e-07
1.37718e-06
2.03635e-06
2.94311e-06
4.15031e-06
5.70238e-06
7.62729e-06
9.93046e-06
1.25927e-05
1.55721e-05
1.88095e-05
2.22342e-05
2.57698e-05
2.93392e-05
3.28678e-05
3.62866e-05
3.95349e-05
4.25513e-05
4.52817e-05
4.7683e-05
4.97692e-05
5.16225e-05
5.34893e-05
5.56028e-05
5.82101e-05
6.18074e-05
6.70047e-05
7.45405e-05
8.52983e-05
0.000100348
0.000121013
0.000148967
0.000186358
0.000235972
0.000301448
0.000387551
0.000500527
0.000648575
0.000842463
0.00109635
0.00142887
0.00186459
0.002436
0.00318616
0.00416731
0.00541899
0.00711523
0.00934878
0.0122905
0.0160932
0.0333773
0.0508459
0.068213
0.085254
0.101792
0.117685
0.13282
0.1471
0.160443
0.172776
0.183985
0.194063
0.202883
0.210367
0.216472
0.221198
0.224617
0.226904
0.228317
0.229128
0.229566
0.229791
0.229901
0.229954
0.229979
0.229991
0.229996
0.229998
0.229999
0.23
0.23
0.23
0.23
0.23
0.23
0.23
0.23
0.23
5.27686e-10
2.3062e-09
5.2968e-09
1.03055e-08
1.86463e-08
3.24347e-08
5.50249e-08
9.16442e-08
1.50275e-07
2.4282e-07
3.86547e-07
6.05675e-07
9.32833e-07
1.40984e-06
2.087e-06
3.02018e-06
4.26505e-06
5.8692e-06
7.86367e-06
1.02566e-05
1.30308e-05
1.61456e-05
1.95416e-05
2.31473e-05
2.68844e-05
3.06734e-05
3.4437e-05
3.80969e-05
4.15732e-05
4.47889e-05
4.76988e-05
5.02999e-05
5.27108e-05
5.49977e-05
5.72077e-05
5.9613e-05
6.26008e-05
6.6699e-05
7.25637e-05
8.09787e-05
9.28742e-05
0.000109371
0.000131854
0.000162074
0.000202279
0.00025539
0.000325222
0.000416772
0.000536599
0.000693324
0.000898288
0.00116644
0.00151752
0.00197767
0.00258161
0.00337566
0.0044168
0.00576227
0.00760643
0.0100677
0.0133836
0.0180542
0.0355756
0.0531902
0.0706299
0.087685
0.10419
0.120012
0.135042
0.149188
0.16237
0.174509
0.185503
0.195334
0.203968
0.211287
0.217218
0.221749
0.224991
0.227138
0.228452
0.229201
0.229604
0.229809
0.22991
0.229958
0.229981
0.229992
0.229996
0.229998
0.229999
0.23
0.23
0.23
0.23
0.23
0.23
0.23
0.23
0.23
5.37145e-10
2.34754e-09
5.39189e-09
1.04911e-08
1.89846e-08
3.30297e-08
5.60501e-08
9.33862e-08
1.53203e-07
2.47694e-07
3.94575e-07
6.18754e-07
9.5387e-07
1.44318e-06
2.13896e-06
3.0996e-06
4.38381e-06
6.04254e-06
8.11027e-06
1.05982e-05
1.34914e-05
1.67505e-05
2.03168e-05
2.41178e-05
2.80738e-05
3.21009e-05
3.61054e-05
3.99934e-05
4.36849e-05
4.7136e-05
5.04028e-05
5.34634e-05
5.62308e-05
5.87887e-05
6.1305e-05
6.40686e-05
6.75022e-05
7.21761e-05
7.87893e-05
8.81676e-05
0.000101282
0.000119299
0.000143655
0.000176166
0.000219164
0.000275674
0.000349639
0.00044622
0.000572172
0.000736355
0.000950395
0.00122957
0.00159399
0.00207015
0.00269304
0.00350898
0.00457005
0.0059312
0.00778158
0.0102162
0.013426
0.0202375
0.0378057
0.0554432
0.0728793
0.0899039
0.106352
0.122091
0.137014
0.15103
0.16406
0.176019
0.186849
0.196535
0.204942
0.212055
0.217826
0.222213
0.225307
0.227336
0.228566
0.229263
0.229635
0.229824
0.229917
0.229962
0.229983
0.229992
0.229997
0.229999
0.229999
0.23
0.23
0.23
0.23
0.23
0.23
0.23
0.23
0.23
5.46398e-10
2.388e-09
5.48503e-09
1.06733e-08
1.93172e-08
3.3616e-08
5.70629e-08
9.51122e-08
1.56114e-07
2.52555e-07
4.02615e-07
6.31901e-07
9.751e-07
1.47696e-06
2.19181e-06
3.18069e-06
4.50553e-06
6.22092e-06
8.36503e-06
1.09524e-05
1.3971e-05
1.73833e-05
2.11313e-05
2.51427e-05
2.93297e-05
3.35943e-05
3.78284e-05
4.19645e-05
4.60258e-05
4.99554e-05
5.36154e-05
5.69861e-05
6.00782e-05
6.29734e-05
6.58597e-05
6.90545e-05
7.30153e-05
7.83537e-05
8.58089e-05
9.62435e-05
0.000110665
0.000130277
0.000156563
0.000191393
0.000237167
0.000296988
0.000374895
0.000476151
0.000607632
0.000778317
0.000999951
0.00128791
0.00166233
0.00214964
0.00278456
0.0036128
0.00468425
0.00605247
0.00790391
0.0103317
0.0135246
0.022383
0.0399374
0.0575467
0.0749386
0.0919031
0.108274
0.123921
0.138733
0.152626
0.165523
0.177361
0.188108
0.19765
0.205914
0.21284
0.218388
0.222614
0.225582
0.227505
0.228663
0.229315
0.229662
0.229837
0.229924
0.229965
0.229984
0.229993
0.229997
0.229999
0.229999
0.23
0.23
0.23
0.23
0.23
0.23
0.23
0.23
0.23
5.55383e-10
2.4273e-09
5.57557e-09
1.08506e-08
1.96414e-08
3.41885e-08
5.80539e-08
9.68054e-08
1.58977e-07
2.57352e-07
4.10572e-07
6.44958e-07
9.96257e-07
1.51075e-06
2.24486e-06
3.26239e-06
4.62866e-06
6.40207e-06
8.62481e-06
1.13153e-05
1.44646e-05
1.80377e-05
2.19773e-05
2.62018e-05
3.0614e-05
3.51311e-05
3.96942e-05
4.42873e-05
4.87559e-05
5.30351e-05
5.70665e-05
6.08174e-05
6.43005e-05
6.76071e-05
7.09469e-05
7.46665e-05
7.92569e-05
8.53689e-05
9.37783e-05
0.00010538
0.000121214
0.00014252
0.000170821
0.00020804
0.000256632
0.000319771
0.000401571
0.000507378
0.000644152
0.000820956
0.00104961
0.00134552
0.00172884
0.00222593
0.00287131
0.00371017
0.00479027
0.00616728
0.00802757
0.0104594
0.01365
0.0242985
0.0418371
0.0594124
0.0767546
0.0936482
0.109931
0.125479
0.140189
0.15399
0.166807
0.178572
0.189195
0.198603
0.206724
0.213503
0.218906
0.22296
0.225813
0.227649
0.228744
0.229358
0.229684
0.229848
0.229929
0.229967
0.229985
0.229993
0.229997
0.229999
0.229999
0.23
0.23
0.23
0.23
0.23
0.23
0.23
0.23
0.23
5.63991e-10
2.46496e-09
5.66238e-09
1.10207e-08
1.99528e-08
3.47394e-08
5.90095e-08
9.84419e-08
1.61751e-07
2.62012e-07
4.18325e-07
6.57718e-07
1.017e-06
1.54398e-06
2.29723e-06
3.34333e-06
4.75108e-06
6.5829e-06
8.88522e-06
1.16807e-05
1.49642e-05
1.87023e-05
2.28317e-05
2.72642e-05
3.19306e-05
3.67963e-05
4.17817e-05
4.67463e-05
5.16124e-05
5.63084e-05
6.07747e-05
6.49774e-05
6.89317e-05
7.27409e-05
7.66388e-05
8.10008e-05
8.63472e-05
9.33644e-05
0.000102861
0.00011576
0.000133133
0.000156253
0.000186688
0.000226406
0.000277924
0.000344477
0.000430251
0.00054067
0.000682771
0.000865695
0.00110133
0.00140513
0.00179728
0.00230409
0.00295979
0.00380925
0.00489976
0.00628792
0.00815763
0.0105956
0.0137825
0.0259456
0.043479
0.0610269
0.0783161
0.0951457
0.111371
0.126866
0.141528
0.155257
0.16798
0.179626
0.190129
0.199413
0.207408
0.214057
0.219333
0.22327
0.226001
0.227764
0.228811
0.229394
0.229702
0.229857
0.229933
0.229969
0.229986
0.229994
0.229997
0.229999
0.229999
0.23
0.23
0.23
0.23
0.23
0.23
0.23
0.23
0.23
5.72075e-10
2.50033e-09
5.74397e-09
1.11808e-08
2.02462e-08
3.52591e-08
5.99125e-08
9.99913e-08
1.64384e-07
2.66446e-07
4.25722e-07
6.69929e-07
1.03691e-06
1.57599e-06
2.34785e-06
3.42185e-06
4.87029e-06
6.75964e-06
9.14072e-06
1.20405e-05
1.54569e-05
1.93551e-05
2.36763e-05
2.83666e-05
3.33846e-05
3.86033e-05
4.39367e-05
4.92958e-05
5.45963e-05
5.97617e-05
6.47289e-05
6.94622e-05
7.39807e-05
7.84022e-05
8.29869e-05
8.81341e-05
9.43863e-05
0.000102461
0.000113193
0.000127534
0.000146585
0.000171657
0.000204361
0.000246716
0.000301297
0.000371406
0.000461299
0.000576473
0.000724043
0.000913222
0.00115596
0.00146778
0.0018688
0.00238503
0.00305083
0.0039121
0.00501404
0.00641311
0.00829354
0.0107399
0.0139174
0.0273365
0.0448756
0.0624062
0.079668
0.0964738
0.112655
0.128089
0.142672
0.156319
0.168954
0.180506
0.190911
0.200091
0.207978
0.214517
0.219684
0.223522
0.226169
0.227858
0.228864
0.229423
0.229716
0.229864
0.229936
0.229971
0.229987
0.229994
0.229997
0.229999
0.23
0.23
0.23
0.23
0.23
0.23
0.23
0.23
0.23
0.23
5.79472e-10
2.53271e-09
5.81866e-09
1.13274e-08
2.05152e-08
3.57363e-08
6.07432e-08
1.01419e-07
1.66816e-07
2.70552e-07
4.3259e-07
6.813e-07
1.05552e-06
1.60601e-06
2.39548e-06
3.49606e-06
4.98346e-06
6.92824e-06
9.38563e-06
1.23867e-05
1.59301e-05
1.99843e-05
2.45298e-05
2.95096e-05
3.48189e-05
4.03744e-05
4.60893e-05
5.1877e-05
5.76535e-05
6.33414e-05
6.88768e-05
7.42249e-05
7.94114e-05
8.45723e-05
8.99943e-05
9.60921e-05
0.000103418
0.000112713
0.000124837
0.000140767
0.000161637
0.000188797
0.000223906
0.000269037
0.000326826
0.000400639
0.000494803
0.000614884
0.000768067
0.000963633
0.00121355
0.00153322
0.00194271
0.00246844
0.0031452
0.00401711
0.00512784
0.00653557
0.00842393
0.0108765
0.0140492
0.0284965
0.0460489
0.0635682
0.0808141
0.0975817
0.113716
0.129095
0.143616
0.157195
0.169757
0.181231
0.191555
0.200649
0.208445
0.214893
0.21997
0.223725
0.226303
0.227941
0.228907
0.229445
0.229728
0.22987
0.229939
0.229972
0.229987
0.229994
0.229997
0.229999
0.23
0.23
0.23
0.23
0.23
0.23
0.23
0.23
0.23
0.23
5.86001e-10
2.56129e-09
5.88464e-09
1.1457e-08
2.07532e-08
3.61592e-08
6.14804e-08
1.02689e-07
1.68983e-07
2.74219e-07
4.38741e-07
6.91513e-07
1.07228e-06
1.63314e-06
2.43872e-06
3.56372e-06
5.08721e-06
7.08383e-06
9.61365e-06
1.27124e-05
1.63858e-05
2.06245e-05
2.53806e-05
3.05924e-05
3.61843e-05
4.20743e-05
4.81778e-05
5.44105e-05
6.06907e-05
6.69431e-05
7.3106e-05
7.91493e-05
8.51101e-05
9.11467e-05
9.75712e-05
0.000104795
0.000113366
0.000124041
0.0001377
0.000155349
0.000178158
0.000207522
0.000245149
0.000293173
0.000354288
0.000431928
0.000530484
0.000655595
0.000814467
0.00101635
0.00127314
0.00160042
0.00201871
0.00255403
0.00323969
0.00411964
0.00523584
0.00664482
0.00852658
0.0109574
0.0140709
0.0294341
0.0470027
0.0645231
0.0817476
0.0984833
0.114578
0.12991
0.14438
0.157904
0.170406
0.181817
0.192074
0.201098
0.208822
0.215195
0.220199
0.223886
0.226409
0.228005
0.228945
0.229464
0.229737
0.229874
0.229941
0.229973
0.229988
0.229995
0.229998
0.229999
0.23
0.23
0.23
0.23
0.23
0.23
0.23
0.23
0.23
0.23
5.91485e-10
2.5853e-09
5.94009e-09
1.1566e-08
2.09536e-08
3.65155e-08
6.21026e-08
1.03763e-07
1.70819e-07
2.77333e-07
4.43976e-07
7.0023e-07
1.08663e-06
1.65645e-06
2.47599e-06
3.62223e-06
5.17719e-06
7.21901e-06
9.81155e-06
1.2995e-05
1.67852e-05
2.11752e-05
2.61163e-05
3.15519e-05
3.7413e-05
4.36233e-05
5.01037e-05
5.67753e-05
6.35621e-05
7.0395e-05
7.72197e-05
8.40166e-05
9.08406e-05
9.78787e-05
0.000105462
0.000113973
0.000123932
0.00013611
0.000151406
0.000170858
0.000195674
0.000227299
0.000267499
0.000318469
0.000382966
0.000464484
0.000567461
0.000697553
0.000862001
0.00107019
0.00133448
0.00167036
0.00209755
0.00264191
0.0033369
0.00422596
0.00534962
0.00676464
0.00864999
0.0110806
0.0141831
0.0301581
0.0477492
0.065272
0.082483
0.0991943
0.115257
0.130552
0.144981
0.15846
0.170914
0.182275
0.19248
0.201448
0.209115
0.215429
0.220376
0.224011
0.22649
0.228055
0.228973
0.229479
0.229745
0.229878
0.229943
0.229974
0.229988
0.229995
0.229998
0.229999
0.23
0.23
0.23
0.23
0.23
0.23
0.23
0.23
0.23
0.23
5.95758e-10
2.60401e-09
5.98332e-09
1.1651e-08
2.111e-08
3.6794e-08
6.25894e-08
1.04604e-07
1.7226e-07
2.79782e-07
4.48103e-07
7.07119e-07
1.098e-06
1.67497e-06
2.50571e-06
3.66906e-06
5.24951e-06
7.32824e-06
9.97274e-06
1.32283e-05
1.71178e-05
2.16261e-05
2.67188e-05
3.23434e-05
3.84359e-05
4.49258e-05
5.17406e-05
5.88089e-05
6.60632e-05
7.34448e-05
8.09121e-05
8.84637e-05
9.61819e-05
0.00010429
0.00011313
0.000123022
0.000134441
0.000148162
0.000165106
0.000186342
0.000213125
0.00024695
0.000289638
0.00034344
0.000411172
0.000496392
0.000603598
0.000738568
0.000908823
0.00112379
0.00139537
0.00173906
0.00217477
0.00272818
0.00343245
0.00433053
0.00546148
0.00688194
0.00876913
0.0111949
0.0142767
0.0306947
0.0483116
0.0658369
0.0830372
0.0997291
0.115767
0.131032
0.145429
0.158873
0.171291
0.182614
0.19278
0.201707
0.20933
0.215601
0.220505
0.224102
0.226549
0.22809
0.228993
0.22949
0.22975
0.229881
0.229944
0.229974
0.229988
0.229995
0.229998
0.229999
0.23
0.23
0.23
0.23
0.23
0.23
0.23
0.23
0.23
0.23
5.98675e-10
2.61678e-09
6.01282e-09
1.1709e-08
2.12168e-08
3.69841e-08
6.29219e-08
1.05179e-07
1.73246e-07
2.81459e-07
4.50932e-07
7.11846e-07
1.10581e-06
1.68773e-06
2.52623e-06
3.70152e-06
5.29988e-06
7.40487e-06
1.0087e-05
1.33958e-05
1.7351e-05
2.19454e-05
2.71484e-05
3.29116e-05
3.91757e-05
4.58755e-05
5.29447e-05
6.03196e-05
6.79421e-05
7.57651e-05
8.3763e-05
9.19566e-05
0.000100461
0.000109538
0.000119516
0.00013077
0.000143583
0.000158729
0.000177151
0.00019996
0.000228455
0.000264187
0.000309034
0.000365309
0.000435904
0.000524462
0.000635607
0.000775189
0.00095055
0.00117117
0.00144913
0.00179991
0.00224335
0.00280496
0.00351757
0.0044236
0.00556075
0.00698493
0.00887118
0.0112876
0.0143437
0.0310488
0.0486911
0.0662223
0.0834163
0.100094
0.116113
0.131357
0.14573
0.15915
0.171543
0.18284
0.192978
0.201877
0.209472
0.215713
0.220589
0.22416
0.226587
0.228113
0.229006
0.229497
0.229754
0.229882
0.229945
0.229975
0.229988
0.229995
0.229998
0.229999
0.23
0.23
0.23
0.23
0.23
0.23
0.23
0.23
0.23
0.23
6.0014e-10
2.62319e-09
6.02758e-09
1.1738e-08
2.12699e-08
3.70786e-08
6.30867e-08
1.05463e-07
1.73732e-07
2.82285e-07
4.52325e-07
7.14176e-07
1.10967e-06
1.69404e-06
2.53641e-06
3.71768e-06
5.32506e-06
7.44328e-06
1.01442e-05
1.34776e-05
1.74659e-05
2.21039e-05
2.73632e-05
3.31977e-05
3.95509e-05
4.63608e-05
5.3565e-05
6.11046e-05
6.89274e-05
7.69942e-05
8.52895e-05
9.38484e-05
0.000102804
0.000112422
0.0001231
0.000135266
0.00014929
0.000165517
0.000184984
0.000208863
0.000238507
0.000275515
0.000321811
0.000379756
0.000452286
0.000543084
0.000656795
0.000799299
0.000978055
0.00120257
0.00148496
0.00184071
0.00228965
0.00285716
0.00357588
0.00448782
0.00562961
0.00705637
0.00894103
0.0113479
0.0143788
0.031224
0.0488888
0.0664258
0.0836161
0.100285
0.116293
0.131524
0.145884
0.15929
0.171668
0.182952
0.193076
0.20196
0.20954
0.215767
0.220629
0.224188
0.226605
0.228124
0.229012
0.2295
0.229756
0.229883
0.229945
0.229975
0.229989
0.229995
0.229998
0.229999
0.23
0.23
0.23
0.23
0.23
0.23
0.23
0.23
0.23
0.23
6.00148e-10
2.62322e-09
6.02768e-09
1.17382e-08
2.12703e-08
3.70792e-08
6.30878e-08
1.05465e-07
1.73736e-07
2.82291e-07
4.52336e-07
7.14194e-07
1.1097e-06
1.69409e-06
2.53648e-06
3.71778e-06
5.3252e-06
7.44344e-06
1.01443e-05
1.34776e-05
1.74657e-05
2.21037e-05
2.73629e-05
3.31975e-05
3.95506e-05
4.63605e-05
5.35647e-05
6.11042e-05
6.89271e-05
7.69938e-05
8.52892e-05
9.38481e-05
0.000102804
0.000112422
0.0001231
0.000135265
0.00014929
0.000165518
0.000184984
0.000208863
0.000238508
0.000275516
0.000321811
0.000379757
0.000452288
0.000543086
0.000656798
0.000799303
0.00097806
0.00120257
0.00148497
0.00184072
0.00228966
0.00285718
0.0035759
0.00448784
0.00562964
0.00705641
0.00894108
0.0113479
0.0143789
0.0312244
0.0488892
0.0664262
0.0836164
0.100286
0.116293
0.131524
0.145884
0.15929
0.171669
0.182952
0.193076
0.201961
0.20954
0.215767
0.220629
0.224188
0.226605
0.228124
0.229012
0.2295
0.229756
0.229883
0.229945
0.229975
0.229989
0.229995
0.229998
0.229999
0.23
0.23
0.23
0.23
0.23
0.23
0.23
0.23
0.23
0.23
5.98699e-10
2.61689e-09
6.01307e-09
1.17095e-08
2.12177e-08
3.69859e-08
6.29251e-08
1.05185e-07
1.73256e-07
2.81475e-07
4.50961e-07
7.11896e-07
1.1059e-06
1.68787e-06
2.52646e-06
3.70188e-06
5.30044e-06
7.40567e-06
1.0088e-05
1.33954e-05
1.73502e-05
2.19446e-05
2.71475e-05
3.29107e-05
3.91747e-05
4.58745e-05
5.29437e-05
6.03185e-05
6.79411e-05
7.57641e-05
8.3762e-05
9.19556e-05
0.00010046
0.000109537
0.000119516
0.000130769
0.000143583
0.000158728
0.000177151
0.00019996
0.000228456
0.000264188
0.000309035
0.000365311
0.000435907
0.000524467
0.000635615
0.000775199
0.000950564
0.00117119
0.00144915
0.00179994
0.00224339
0.002805
0.00351763
0.00442368
0.00556084
0.00698504
0.00887132
0.0112878
0.0143439
0.0310501
0.0486923
0.0662234
0.0834173
0.100095
0.116114
0.131358
0.145731
0.159151
0.171543
0.18284
0.192979
0.201878
0.209472
0.215714
0.220589
0.224161
0.226587
0.228113
0.229006
0.229497
0.229754
0.229882
0.229945
0.229975
0.229988
0.229995
0.229998
0.229999
0.23
0.23
0.23
0.23
0.23
0.23
0.23
0.23
0.23
0.23
5.95788e-10
2.60414e-09
5.98362e-09
1.16516e-08
2.11111e-08
3.67959e-08
6.25926e-08
1.0461e-07
1.72269e-07
2.79797e-07
4.48127e-07
7.07155e-07
1.09805e-06
1.67505e-06
2.50581e-06
3.6692e-06
5.24971e-06
7.32858e-06
9.97346e-06
1.32297e-05
1.71187e-05
2.16266e-05
2.67192e-05
3.23439e-05
3.84366e-05
4.49267e-05
5.17417e-05
5.88101e-05
6.60646e-05
7.34463e-05
8.09138e-05
8.84656e-05
9.61841e-05
0.000104292
0.000113133
0.000123026
0.000134445
0.000148167
0.000165111
0.000186348
0.000213132
0.000246958
0.000289647
0.000343449
0.000411182
0.000496402
0.000603611
0.000738585
0.000908845
0.00112382
0.0013954
0.0017391
0.00217483
0.00272826
0.00343254
0.00433065
0.00546163
0.00688213
0.00876937
0.0111952
0.0142771
0.0306968
0.0483135
0.0658387
0.0830389
0.0997307
0.115768
0.131034
0.14543
0.158874
0.171292
0.182615
0.19278
0.201707
0.209331
0.215601
0.220505
0.224102
0.226549
0.22809
0.228993
0.22949
0.22975
0.229881
0.229944
0.229974
0.229988
0.229995
0.229998
0.229999
0.23
0.23
0.23
0.23
0.23
0.23
0.23
0.23
0.23
0.23
5.91523e-10
2.58546e-09
5.94047e-09
1.15667e-08
2.09549e-08
3.65179e-08
6.21066e-08
1.03769e-07
1.7083e-07
2.7735e-07
4.44003e-07
7.00272e-07
1.08669e-06
1.65653e-06
2.47609e-06
3.62234e-06
5.17726e-06
7.21897e-06
9.81136e-06
1.29953e-05
1.67839e-05
2.11733e-05
2.61146e-05
3.15508e-05
3.74124e-05
4.36231e-05
5.01039e-05
5.67758e-05
6.35629e-05
7.03959e-05
7.72208e-05
8.40179e-05
9.08422e-05
9.78805e-05
0.000105464
0.000113976
0.000123936
0.000136114
0.000151411
0.000170863
0.00019568
0.000227307
0.000267509
0.000318481
0.000382981
0.0004645
0.00056748
0.000697575
0.000862028
0.00107023
0.00133452
0.00167042
0.00209762
0.002642
0.00333702
0.00422612
0.00534981
0.00676488
0.0086503
0.011081
0.0141836
0.030161
0.047752
0.0652746
0.0824853
0.0991965
0.115259
0.130554
0.144982
0.158461
0.170915
0.182276
0.192481
0.201449
0.209115
0.215429
0.220376
0.224011
0.226491
0.228055
0.228973
0.229479
0.229745
0.229878
0.229943
0.229974
0.229988
0.229995
0.229998
0.229999
0.23
0.23
0.23
0.23
0.23
0.23
0.23
0.23
0.23
0.23
5.86045e-10
2.56148e-09
5.88508e-09
1.14578e-08
2.07548e-08
3.61618e-08
6.14849e-08
1.02697e-07
1.68995e-07
2.74238e-07
4.38771e-07
6.91558e-07
1.07234e-06
1.63324e-06
2.43886e-06
3.56389e-06
5.08738e-06
7.08388e-06
9.61323e-06
1.27113e-05
1.63826e-05
2.06137e-05
2.53757e-05
3.059e-05
3.6183e-05
4.20735e-05
4.81774e-05
5.44103e-05
6.06907e-05
6.69433e-05
7.31064e-05
7.91499e-05
8.51109e-05
9.11478e-05
9.75725e-05
0.000104797
0.000113368
0.000124044
0.000137704
0.000155354
0.000178164
0.00020753
0.000245159
0.000293185
0.000354303
0.000431946
0.000530507
0.000655623
0.000814501
0.00101639
0.00127319
0.00160048
0.0020188
0.00255414
0.00323983
0.00411982
0.00523606
0.00664511
0.00852694
0.0109578
0.0140714
0.0294378
0.0470063
0.0645264
0.0817507
0.0984862
0.114581
0.129913
0.144383
0.157906
0.170407
0.181818
0.192075
0.201099
0.208822
0.215195
0.220199
0.223887
0.226409
0.228006
0.228945
0.229464
0.229737
0.229874
0.229941
0.229973
0.229988
0.229995
0.229998
0.229999
0.23
0.23
0.23
0.23
0.23
0.23
0.23
0.23
0.23
0.23
5.79521e-10
2.53292e-09
5.81916e-09
1.13283e-08
2.05169e-08
3.57392e-08
6.07481e-08
1.01427e-07
1.66829e-07
2.70572e-07
4.32621e-07
6.81347e-07
1.05558e-06
1.6061e-06
2.39562e-06
3.49624e-06
4.98371e-06
6.92858e-06
9.3862e-06
1.23882e-05
1.59349e-05
1.99952e-05
2.45341e-05
2.95109e-05
3.4819e-05
4.03739e-05
4.60886e-05
5.18763e-05
5.76529e-05
6.3341e-05
6.88766e-05
7.42248e-05
7.94114e-05
8.45725e-05
8.99949e-05
9.6093e-05
0.000103419
0.000112715
0.00012484
0.000140771
0.000161642
0.000188804
0.000223914
0.000269048
0.00032684
0.000400657
0.000494824
0.000614912
0.000768102
0.000963678
0.0012136
0.00153329
0.0019428
0.00246856
0.00314536
0.00401731
0.00512809
0.00653589
0.00842435
0.010877
0.0140498
0.0285013
0.0460535
0.0635724
0.080818
0.0975852
0.11372
0.129098
0.143619
0.157198
0.169759
0.181233
0.191556
0.20065
0.208446
0.214894
0.219971
0.223725
0.226303
0.227941
0.228907
0.229445
0.229728
0.22987
0.229939
0.229972
0.229987
0.229994
0.229997
0.229999
0.23
0.23
0.23
0.23
0.23
0.23
0.23
0.23
0.23
0.23
5.7213e-10
2.50057e-09
5.74452e-09
1.11818e-08
2.0248e-08
3.52623e-08
5.99179e-08
1e-07
1.64398e-07
2.66467e-07
4.25754e-07
6.69976e-07
1.03698e-06
1.57609e-06
2.34798e-06
3.42204e-06
4.87058e-06
6.7601e-06
9.14149e-06
1.20418e-05
1.54595e-05
1.93598e-05
2.36803e-05
2.83695e-05
3.33858e-05
3.86027e-05
4.39351e-05
4.92938e-05
5.45945e-05
5.97602e-05
6.47277e-05
6.94612e-05
7.39799e-05
7.84018e-05
8.29866e-05
8.81342e-05
9.43869e-05
0.000102462
0.000113195
0.000127537
0.000146589
0.000171663
0.000204368
0.000246726
0.00030131
0.000371423
0.000461321
0.000576502
0.00072408
0.00091327
0.00115602
0.00146786
0.00186891
0.00238516
0.003051
0.00391232
0.00501432
0.00641347
0.00829401
0.0107405
0.0139181
0.0273424
0.0448812
0.0624114
0.0796727
0.0964782
0.112659
0.128092
0.142676
0.156322
0.168956
0.180508
0.190913
0.200093
0.207979
0.214518
0.219685
0.223522
0.22617
0.227858
0.228864
0.229423
0.229716
0.229864
0.229936
0.229971
0.229987
0.229994
0.229997
0.229999
0.23
0.23
0.23
0.23
0.23
0.23
0.23
0.23
0.23
0.23
5.64051e-10
2.46522e-09
5.66297e-09
1.10219e-08
1.99549e-08
3.47429e-08
5.90154e-08
9.84514e-08
1.61766e-07
2.62036e-07
4.1836e-07
6.57771e-07
1.01708e-06
1.54409e-06
2.29738e-06
3.34353e-06
4.75135e-06
6.58326e-06
8.88572e-06
1.16813e-05
1.49648e-05
1.87033e-05
2.28331e-05
2.72646e-05
3.19268e-05
3.67896e-05
4.17766e-05
4.67429e-05
5.16101e-05
5.63068e-05
6.07736e-05
6.49765e-05
6.89309e-05
7.27402e-05
7.66383e-05
8.10006e-05
8.63474e-05
9.33651e-05
0.000102862
0.000115762
0.000133136
0.000156258
0.000186695
0.000226416
0.000277936
0.000344493
0.000430272
0.000540697
0.000682806
0.00086574
0.00110138
0.00140521
0.00179738
0.00230422
0.00295995
0.00380946
0.00490003
0.0062883
0.00815814
0.0105962
0.0137833
0.0259527
0.0434856
0.0610329
0.0783216
0.0951509
0.111376
0.12687
0.141532
0.155261
0.167983
0.179628
0.190132
0.199415
0.20741
0.214059
0.219334
0.223271
0.226001
0.227765
0.228811
0.229394
0.229702
0.229857
0.229933
0.229969
0.229986
0.229994
0.229997
0.229999
0.229999
0.23
0.23
0.23
0.23
0.23
0.23
0.23
0.23
0.23
5.55448e-10
2.42758e-09
5.57622e-09
1.08519e-08
1.96436e-08
3.41923e-08
5.80603e-08
9.68159e-08
1.58994e-07
2.57378e-07
4.10612e-07
6.45017e-07
9.96343e-07
1.51087e-06
2.24503e-06
3.26261e-06
4.62895e-06
6.40244e-06
8.62528e-06
1.13159e-05
1.44653e-05
1.80385e-05
2.19786e-05
2.62046e-05
3.06206e-05
3.51403e-05
3.97026e-05
4.42934e-05
4.87599e-05
5.30376e-05
5.70679e-05
6.08181e-05
6.43006e-05
6.76069e-05
7.09466e-05
7.46662e-05
7.92569e-05
8.53694e-05
9.37795e-05
0.000105382
0.000121217
0.000142525