/*--------------------------------*- C++ -*----------------------------------*\
  =========                 |
  \\      /  F ield         | OpenFOAM: The Open Source CFD Toolbox
   \\    /   O peration     | Website:  https://openfoam.org
    \\  /    A nd           | Version:  8
     \\/     M anipulation  |
\*---------------------------------------------------------------------------*/
FoamFile
{
    version     2.0;
    format      ascii;
    class       surfaceScalarField;
    location    "500/fluid";
    object      phi;
}
// * * * * * * * * * * * * * * * * * * * * * * * * * * * * * * * * * * * * * //

dimensions      [1 0 -1 0 0 0 0];

internalField   nonuniform List<scalar> 
7860
(
6.57311e-07
-1.76009e-08
6.54729e-07
-5.27929e-08
6.51054e-07
-8.78047e-08
6.4618e-07
-1.22539e-07
6.3998e-07
-1.56998e-07
6.32299e-07
-1.91141e-07
6.22957e-07
-2.24889e-07
6.11764e-07
-2.58129e-07
5.98522e-07
-2.907e-07
5.83042e-07
-3.22392e-07
5.65153e-07
-3.52929e-07
5.44729e-07
-3.81956e-07
5.21727e-07
-4.0903e-07
4.96273e-07
-4.33621e-07
4.6864e-07
-4.55107e-07
4.39165e-07
-4.72826e-07
4.0829e-07
-4.86208e-07
3.76534e-07
-4.94922e-07
3.44445e-07
-4.99003e-07
3.1253e-07
-4.98883e-07
2.81207e-07
-4.95306e-07
2.50775e-07
-4.8916e-07
2.21424e-07
-4.81305e-07
1.93284e-07
-4.72453e-07
1.66423e-07
-4.63118e-07
1.40816e-07
-4.53621e-07
1.16396e-07
-4.44146e-07
9.30885e-08
-4.34776e-07
7.08195e-08
-4.25536e-07
4.95239e-08
-4.16417e-07
2.91454e-08
-4.07396e-07
9.6364e-09
-3.98452e-07
-9.03861e-09
-3.89568e-07
-2.6906e-08
-3.80736e-07
-4.39953e-08
-3.71959e-07
-6.03342e-08
-3.63237e-07
-7.59439e-08
-3.54527e-07
-9.08443e-08
-3.45835e-07
-1.05054e-07
-3.37178e-07
-1.18592e-07
-3.28576e-07
-1.31475e-07
-3.20048e-07
-1.43721e-07
-3.11615e-07
-1.55347e-07
-3.03297e-07
-1.66371e-07
-2.95117e-07
-1.7681e-07
-2.87096e-07
-1.86682e-07
-2.79255e-07
-1.96003e-07
-2.71615e-07
-2.04791e-07
-2.64195e-07
-2.13064e-07
-2.57018e-07
-2.20838e-07
-2.50102e-07
-2.28133e-07
-2.4347e-07
-2.34965e-07
-2.37145e-07
-2.41354e-07
-2.31153e-07
-2.47322e-07
-2.25522e-07
-2.52889e-07
-2.20287e-07
-2.58084e-07
-2.1549e-07
-2.62941e-07
-2.1118e-07
-2.67498e-07
-2.07435e-07
-2.71808e-07
-2.04344e-07
-2.75915e-07
-2.01942e-07
-2.79911e-07
-2.00443e-07
-2.84163e-07
-2.00018e-07
-2.896e-07
-2.0064e-07
-2.96653e-07
-2.11598e-07
-3.04741e-07
-2.23901e-07
-3.13664e-07
-2.3746e-07
-3.23473e-07
-2.52445e-07
-3.34284e-07
-2.69088e-07
-3.46255e-07
-2.87654e-07
-3.59596e-07
-3.08459e-07
-3.7459e-07
-3.3189e-07
-3.91619e-07
-3.58406e-07
-4.11195e-07
-3.88535e-07
-4.33982e-07
-4.2298e-07
-4.60828e-07
-4.62447e-07
-4.92711e-07
-5.07048e-07
-5.30568e-07
-5.55855e-07
-5.7482e-07
-6.06156e-07
-6.25279e-07
-6.52708e-07
-6.80891e-07
-6.88427e-07
-7.39402e-07
-7.0738e-07
-7.97856e-07
-7.08042e-07
-8.53616e-07
-6.93396e-07
-9.04987e-07
-6.68115e-07
-9.51219e-07
-6.36335e-07
-9.92091e-07
-6.00769e-07
-1.02748e-06
-5.62924e-07
-1.05769e-06
-5.23532e-07
-1.08326e-06
-4.83036e-07
-1.10474e-06
-4.41773e-07
-1.12264e-06
-4.00004e-07
-1.13741e-06
-3.57927e-07
-1.14948e-06
-3.15697e-07
-1.15922e-06
-2.73428e-07
-1.16695e-06
-2.31196e-07
-1.17297e-06
-1.89043e-07
-1.17751e-06
-1.4698e-07
-1.18077e-06
-1.04983e-07
-1.18291e-06
-6.29949e-08
-2.10041e-08
6.57927e-07
-1.69947e-08
6.55862e-07
-5.07275e-08
6.52263e-07
-8.42059e-08
6.4713e-07
-1.17406e-07
6.40398e-07
-1.50266e-07
6.31971e-07
-1.82714e-07
6.21739e-07
-2.14657e-07
6.09588e-07
-2.45978e-07
5.95416e-07
-2.76527e-07
5.7914e-07
-3.06115e-07
5.60712e-07
-3.34498e-07
5.40126e-07
-3.61366e-07
5.17437e-07
-3.86335e-07
4.92782e-07
-4.08956e-07
4.66374e-07
-4.28684e-07
4.38484e-07
-4.44917e-07
4.09458e-07
-4.57156e-07
3.79692e-07
-4.65125e-07
3.49604e-07
-4.68877e-07
3.19582e-07
-4.68818e-07
2.89946e-07
-4.65625e-07
2.60934e-07
-4.60101e-07
2.32703e-07
-4.53026e-07
2.05355e-07
-4.45059e-07
1.78952e-07
-4.3667e-07
1.53508e-07
-4.28136e-07
1.29014e-07
-4.19613e-07
1.05449e-07
-4.11175e-07
8.27873e-08
-4.02841e-07
6.10028e-08
-3.94602e-07
4.00708e-08
-3.86436e-07
1.99679e-08
-3.78323e-07
6.71331e-10
-3.70248e-07
-1.78399e-08
-3.62202e-07
-3.55841e-08
-3.54192e-07
-5.25798e-08
-3.46218e-07
-6.88432e-08
-3.3824e-07
-8.43909e-08
-3.30264e-07
-9.92397e-08
-3.22306e-07
-1.13407e-07
-3.14386e-07
-1.2691e-07
-3.06522e-07
-1.39767e-07
-2.98735e-07
-1.51996e-07
-2.91046e-07
-1.63615e-07
-2.83476e-07
-1.74643e-07
-2.76046e-07
-1.851e-07
-2.68777e-07
-1.95005e-07
-2.61688e-07
-2.04378e-07
-2.54801e-07
-2.13242e-07
-2.48134e-07
-2.21616e-07
-2.41708e-07
-2.29524e-07
-2.35543e-07
-2.36991e-07
-2.2966e-07
-2.44042e-07
-2.24084e-07
-2.50709e-07
-2.18839e-07
-2.57026e-07
-2.13956e-07
-2.63034e-07
-2.09468e-07
-2.68785e-07
-2.05418e-07
-2.74335e-07
-2.01877e-07
-2.79771e-07
-1.98903e-07
-2.85204e-07
-1.96509e-07
-2.90802e-07
-1.94854e-07
-2.96773e-07
-1.94068e-07
-3.0327e-07
-1.94598e-07
-3.10501e-07
-2.04421e-07
-3.18915e-07
-2.15549e-07
-3.2843e-07
-2.28015e-07
-3.39044e-07
-2.41911e-07
-3.50832e-07
-2.57389e-07
-3.63924e-07
-2.7466e-07
-3.78499e-07
-2.93995e-07
-3.94784e-07
-3.15728e-07
-4.13063e-07
-3.40265e-07
-4.3367e-07
-3.68079e-07
-4.56976e-07
-3.99845e-07
-4.8344e-07
-4.36172e-07
-5.13599e-07
-4.77095e-07
-5.47989e-07
-5.21681e-07
-5.87003e-07
-5.67357e-07
-6.30788e-07
-6.09115e-07
-6.78892e-07
-6.40477e-07
-7.29862e-07
-6.56518e-07
-7.8154e-07
-6.56429e-07
-8.31872e-07
-6.43099e-07
-8.79432e-07
-6.20573e-07
-9.23499e-07
-5.92276e-07
-9.63779e-07
-5.60493e-07
-1.00011e-06
-5.26596e-07
-1.03247e-06
-4.91176e-07
-1.06095e-06
-4.54551e-07
-1.08574e-06
-4.16987e-07
-1.10705e-06
-3.78692e-07
-1.12514e-06
-3.39833e-07
-1.14029e-06
-3.0055e-07
-1.15277e-06
-2.60953e-07
-1.16283e-06
-2.21133e-07
-1.17072e-06
-1.81157e-07
-1.17663e-06
-1.41068e-07
-1.18072e-06
-1.00891e-07
-1.18308e-06
-6.06357e-08
-2.02626e-08
6.57639e-07
-1.60999e-08
6.55049e-07
-4.81378e-08
6.50776e-07
-7.99324e-08
6.44785e-07
-1.11415e-07
6.37037e-07
-1.42518e-07
6.27484e-07
-1.7316e-07
6.16079e-07
-2.03251e-07
6.02783e-07
-2.32682e-07
5.87576e-07
-2.61319e-07
5.7046e-07
-2.88998e-07
5.51469e-07
-3.15505e-07
5.30671e-07
-3.40565e-07
5.08169e-07
-3.63827e-07
4.84077e-07
-3.84855e-07
4.58548e-07
-4.03144e-07
4.31825e-07
-4.18178e-07
4.04211e-07
-4.29521e-07
3.76047e-07
-4.36935e-07
3.47677e-07
-4.40476e-07
3.19411e-07
-4.40517e-07
2.91501e-07
-4.37677e-07
2.64132e-07
-4.32692e-07
2.37416e-07
-4.26272e-07
2.11404e-07
-4.19008e-07
1.86102e-07
-4.11331e-07
1.61519e-07
-4.03518e-07
1.37663e-07
-3.95724e-07
1.14537e-07
-3.88019e-07
9.21428e-08
-3.80418e-07
7.04784e-08
-3.72911e-07
4.95408e-08
-3.65475e-07
2.93251e-08
-3.58085e-07
9.82478e-09
-3.50727e-07
-8.96691e-09
-3.43391e-07
-2.7059e-08
-3.36081e-07
-4.44608e-08
-3.28797e-07
-6.11806e-08
-3.21501e-07
-7.72291e-08
-3.14196e-07
-9.26182e-08
-3.06897e-07
-1.07362e-07
-2.99622e-07
-1.21473e-07
-2.9239e-07
-1.34968e-07
-2.8522e-07
-1.47861e-07
-2.78132e-07
-1.60172e-07
-2.71145e-07
-1.71918e-07
-2.64279e-07
-1.83121e-07
-2.57554e-07
-1.93801e-07
-2.50989e-07
-2.03981e-07
-2.44601e-07
-2.13686e-07
-2.38411e-07
-2.22941e-07
-2.32434e-07
-2.31776e-07
-2.2669e-07
-2.40222e-07
-2.21197e-07
-2.48316e-07
-2.15974e-07
-2.56097e-07
-2.11043e-07
-2.63612e-07
-2.06426e-07
-2.70918e-07
-2.0215e-07
-2.78078e-07
-1.98246e-07
-2.85165e-07
-1.94779e-07
-2.92273e-07
-1.91784e-07
-2.99506e-07
-1.89265e-07
-3.06971e-07
-1.87377e-07
-3.14767e-07
-1.86242e-07
-3.22101e-07
-1.87782e-07
-3.29991e-07
-1.96593e-07
-3.38949e-07
-2.06658e-07
-3.48997e-07
-2.18041e-07
-3.6018e-07
-2.30808e-07
-3.72574e-07
-2.45083e-07
-3.8628e-07
-2.61051e-07
-4.01417e-07
-2.78964e-07
-4.18125e-07
-2.99137e-07
-4.3656e-07
-3.21961e-07
-4.56868e-07
-3.47915e-07
-4.79188e-07
-3.77685e-07
-5.03734e-07
-4.11801e-07
-5.30826e-07
-4.50189e-07
-5.60965e-07
-4.91733e-07
-5.94948e-07
-5.33557e-07
-6.33466e-07
-5.70758e-07
-6.76439e-07
-5.97629e-07
-7.22676e-07
-6.10366e-07
-7.70229e-07
-6.08927e-07
-8.17189e-07
-5.96167e-07
-8.62177e-07
-5.756e-07
-9.04408e-07
-5.50052e-07
-9.43541e-07
-5.21363e-07
-9.79556e-07
-4.90582e-07
-1.01243e-06
-4.58301e-07
-1.04213e-06
-4.24857e-07
-1.06865e-06
-3.90464e-07
-1.09206e-06
-3.55278e-07
-1.11247e-06
-3.19427e-07
-1.13e-06
-2.83019e-07
-1.1448e-06
-2.46153e-07
-1.15702e-06
-2.08913e-07
-1.16681e-06
-1.7137e-07
-1.17429e-06
-1.33584e-07
-1.17958e-06
-9.56035e-08
-1.18275e-06
-5.74649e-08
-1.91901e-08
6.57653e-07
-1.52192e-08
6.54989e-07
-4.54739e-08
6.50537e-07
-7.54807e-08
6.44295e-07
-1.05173e-07
6.36252e-07
-1.34475e-07
6.26398e-07
-1.63306e-07
6.14721e-07
-1.91575e-07
6.01219e-07
-2.19179e-07
5.85895e-07
-2.45994e-07
5.68767e-07
-2.71869e-07
5.49872e-07
-2.96608e-07
5.29269e-07
-3.1996e-07
5.07051e-07
-3.41605e-07
4.83351e-07
-3.61148e-07
4.58352e-07
-3.78135e-07
4.32286e-07
-3.92099e-07
4.05428e-07
-4.02646e-07
3.78077e-07
-4.09563e-07
3.50529e-07
-4.12902e-07
3.2305e-07
-4.13009e-07
2.95858e-07
-4.10455e-07
2.69117e-07
-4.05918e-07
2.42933e-07
-4.00056e-07
2.17371e-07
-3.93414e-07
1.92461e-07
-3.86391e-07
1.68217e-07
-3.79245e-07
1.4464e-07
-3.72121e-07
1.21729e-07
-3.65082e-07
9.948e-08
-3.58145e-07
7.78881e-08
-3.51297e-07
5.69503e-08
-3.44516e-07
3.6663e-08
-3.37779e-07
1.70226e-08
-3.31069e-07
-1.97564e-09
-3.24377e-07
-2.03369e-08
-3.17704e-07
-3.80664e-08
-3.11052e-07
-5.51696e-08
-3.04382e-07
-7.16539e-08
-2.97695e-07
-8.7528e-08
-2.91006e-07
-1.02801e-07
-2.84332e-07
-1.17486e-07
-2.77689e-07
-1.31594e-07
-2.71094e-07
-1.45143e-07
-2.64566e-07
-1.58148e-07
-2.58122e-07
-1.70628e-07
-2.51781e-07
-1.82604e-07
-2.45561e-07
-1.94097e-07
-2.39479e-07
-2.0513e-07
-2.33551e-07
-2.1573e-07
-2.27794e-07
-2.25925e-07
-2.22223e-07
-2.35745e-07
-2.16854e-07
-2.45225e-07
-2.11702e-07
-2.54403e-07
-2.06782e-07
-2.6332e-07
-2.02111e-07
-2.72027e-07
-1.97706e-07
-2.80576e-07
-1.93588e-07
-2.89029e-07
-1.8978e-07
-2.97454e-07
-1.86342e-07
-3.05933e-07
-1.83295e-07
-3.14551e-07
-1.80638e-07
-3.23408e-07
-1.78512e-07
-3.32605e-07
-1.77009e-07
-3.40708e-07
-1.80076e-07
-3.49354e-07
-1.88008e-07
-3.5894e-07
-1.97138e-07
-3.69517e-07
-2.07535e-07
-3.81148e-07
-2.19254e-07
-3.93904e-07
-2.3241e-07
-4.07868e-07
-2.47178e-07
-4.23132e-07
-2.63799e-07
-4.39799e-07
-2.8258e-07
-4.57983e-07
-3.03896e-07
-4.77792e-07
-3.28238e-07
-4.9936e-07
-3.5626e-07
-5.22948e-07
-3.88369e-07
-5.48945e-07
-4.24355e-07
-5.77909e-07
-4.62933e-07
-6.105e-07
-5.0112e-07
-6.4719e-07
-5.342e-07
-6.87784e-07
-5.57135e-07
-7.31189e-07
-5.67027e-07
-7.75768e-07
-5.64387e-07
-8.19958e-07
-5.51999e-07
-8.62611e-07
-5.32957e-07
-9.03021e-07
-5.09647e-07
-9.40806e-07
-4.8358e-07
-9.75785e-07
-4.55603e-07
-1.0079e-06
-4.26187e-07
-1.03715e-06
-3.9561e-07
-1.06355e-06
-3.6406e-07
-1.08715e-06
-3.31675e-07
-1.10801e-06
-2.9857e-07
-1.12618e-06
-2.64847e-07
-1.14174e-06
-2.30596e-07
-1.15476e-06
-1.95898e-07
-1.1653e-06
-1.60827e-07
-1.17343e-06
-1.2545e-07
-1.17921e-06
-8.98247e-08
-1.18267e-06
-5.40073e-08
-1.80384e-08
6.5759e-07
-1.42751e-08
6.54783e-07
-4.26673e-08
6.50126e-07
-7.08241e-08
6.43625e-07
-9.86716e-08
6.35284e-07
-1.26134e-07
6.25112e-07
-1.53133e-07
6.13118e-07
-1.79581e-07
5.99322e-07
-2.05382e-07
5.83752e-07
-2.30424e-07
5.66449e-07
-2.54565e-07
5.47473e-07
-2.7763e-07
5.26905e-07
-2.9939e-07
5.04855e-07
-3.19551e-07
4.81465e-07
-3.37753e-07
4.56915e-07
-3.53577e-07
4.31421e-07
-3.66595e-07
4.05233e-07
-3.76444e-07
3.78614e-07
-3.82927e-07
3.51824e-07
-3.86093e-07
3.25096e-07
-3.86258e-07
2.98619e-07
-3.83953e-07
2.72532e-07
-3.79806e-07
2.4693e-07
-3.74427e-07
2.21868e-07
-3.68326e-07
1.97377e-07
-3.61875e-07
1.73471e-07
-3.55316e-07
1.50157e-07
-3.48784e-07
1.27435e-07
-3.42339e-07
1.05304e-07
-3.35995e-07
8.37643e-08
-3.29739e-07
6.28136e-08
-3.23549e-07
4.24514e-08
-3.17402e-07
2.26762e-08
-3.1128e-07
3.48544e-09
-3.05173e-07
-1.51242e-08
-2.99082e-07
-3.31567e-08
-2.93007e-07
-5.06152e-08
-2.8691e-07
-6.75041e-08
-2.80793e-07
-8.38296e-08
-2.74667e-07
-9.96001e-08
-2.68547e-07
-1.14826e-07
-2.62448e-07
-1.2952e-07
-2.56385e-07
-1.43696e-07
-2.50375e-07
-1.57371e-07
-2.44433e-07
-1.7056e-07
-2.38577e-07
-1.83284e-07
-2.32822e-07
-1.95564e-07
-2.27184e-07
-2.07423e-07
-2.21677e-07
-2.18887e-07
-2.16316e-07
-2.29981e-07
-2.11114e-07
-2.40738e-07
-2.06083e-07
-2.51189e-07
-2.01237e-07
-2.61369e-07
-1.96588e-07
-2.71318e-07
-1.92149e-07
-2.81079e-07
-1.87933e-07
-2.90698e-07
-1.83957e-07
-3.00229e-07
-1.80239e-07
-3.09725e-07
-1.76837e-07
-3.19257e-07
-1.73755e-07
-3.28895e-07
-1.70993e-07
-3.38717e-07
-1.68684e-07
-3.4877e-07
-1.66929e-07
-3.57646e-07
-1.71432e-07
-3.67093e-07
-1.78618e-07
-3.77331e-07
-1.86961e-07
-3.8843e-07
-1.96501e-07
-4.00466e-07
-2.07289e-07
-4.13515e-07
-2.19437e-07
-4.27658e-07
-2.33119e-07
-4.42976e-07
-2.48572e-07
-4.59559e-07
-2.66096e-07
-4.77504e-07
-2.86058e-07
-4.96897e-07
-3.08962e-07
-5.1787e-07
-3.35414e-07
-5.40669e-07
-3.65705e-07
-5.65665e-07
-3.99499e-07
-5.93378e-07
-4.35358e-07
-6.24411e-07
-4.70213e-07
-6.5917e-07
-4.99545e-07
-6.97446e-07
-5.18936e-07
-7.38252e-07
-5.26271e-07
-7.80175e-07
-5.22493e-07
-8.21893e-07
-5.10296e-07
-8.62438e-07
-4.9242e-07
-9.01195e-07
-4.70894e-07
-9.378e-07
-4.46977e-07
-9.72039e-07
-4.21365e-07
-1.00378e-06
-3.94443e-07
-1.03296e-06
-3.66438e-07
-1.05952e-06
-3.375e-07
-1.08345e-06
-3.07742e-07
-1.10476e-06
-2.77261e-07
-1.12346e-06
-2.46144e-07
-1.13958e-06
-2.14471e-07
-1.15316e-06
-1.82321e-07
-1.16422e-06
-1.49765e-07
-1.1728e-06
-1.16873e-07
-1.17892e-06
-8.37075e-08
-1.18259e-06
-5.0333e-08
-1.6808e-08
6.57584e-07
-1.3325e-08
6.54741e-07
-3.98244e-08
6.50018e-07
-6.61011e-08
6.4343e-07
-9.20834e-08
6.34993e-07
-1.17697e-07
6.24727e-07
-1.42867e-07
6.12657e-07
-1.67511e-07
5.98813e-07
-1.91538e-07
5.83234e-07
-2.14844e-07
5.6597e-07
-2.37301e-07
5.47086e-07
-2.58745e-07
5.26666e-07
-2.78968e-07
5.04819e-07
-2.97701e-07
4.81683e-07
-3.14613e-07
4.57433e-07
-3.29321e-07
4.32275e-07
-3.4143e-07
4.0645e-07
-3.50608e-07
3.80209e-07
-3.56673e-07
3.538e-07
-3.59668e-07
3.27444e-07
-3.59885e-07
3.01322e-07
-3.57812e-07
2.75566e-07
-3.5403e-07
2.50264e-07
-3.49105e-07
2.25469e-07
-3.43512e-07
2.01209e-07
-3.37596e-07
1.77495e-07
-3.31584e-07
1.5433e-07
-3.25601e-07
1.31711e-07
-3.19705e-07
1.09638e-07
-3.13907e-07
8.81079e-08
-3.08194e-07
6.71184e-08
-3.02546e-07
4.66684e-08
-2.96939e-07
2.67562e-08
-2.91356e-07
7.37977e-09
-2.85787e-07
-1.14634e-08
-2.80229e-07
-2.97757e-08
-2.74684e-07
-4.75588e-08
-2.69117e-07
-6.48161e-08
-2.63524e-07
-8.15532e-08
-2.57919e-07
-9.7778e-08
-2.52311e-07
-1.135e-07
-2.46715e-07
-1.28729e-07
-2.41144e-07
-1.43478e-07
-2.35613e-07
-1.57761e-07
-2.30137e-07
-1.71594e-07
-2.24731e-07
-1.84996e-07
-2.19408e-07
-1.97985e-07
-2.14182e-07
-2.10583e-07
-2.09066e-07
-2.22813e-07
-2.04073e-07
-2.347e-07
-1.99214e-07
-2.46271e-07
-1.94501e-07
-2.57553e-07
-1.89943e-07
-2.68577e-07
-1.85553e-07
-2.79375e-07
-1.8134e-07
-2.8998e-07
-1.77317e-07
-3.00431e-07
-1.73497e-07
-3.10766e-07
-1.69896e-07
-3.21025e-07
-1.66571e-07
-3.31266e-07
-1.63508e-07
-3.41548e-07
-1.60706e-07
-3.51958e-07
-1.58271e-07
-3.62577e-07
-1.56305e-07
-3.72331e-07
-1.61769e-07
-3.82514e-07
-1.68486e-07
-3.93312e-07
-1.76216e-07
-4.04844e-07
-1.85026e-07
-4.17203e-07
-1.94991e-07
-4.30474e-07
-2.06233e-07
-4.44737e-07
-2.18929e-07
-4.60077e-07
-2.33311e-07
-4.76582e-07
-2.49676e-07
-4.94352e-07
-2.68381e-07
-5.13481e-07
-2.89933e-07
-5.34133e-07
-3.1487e-07
-5.56582e-07
-3.4337e-07
-5.8122e-07
-3.74976e-07
-6.08571e-07
-4.08119e-07
-6.39178e-07
-4.39707e-07
-6.73312e-07
-4.65492e-07
-7.10618e-07
-4.81687e-07
-7.50068e-07
-4.86857e-07
-7.90349e-07
-4.82234e-07
-8.30301e-07
-4.70355e-07
-8.69103e-07
-4.53622e-07
-9.06242e-07
-4.33758e-07
-9.41414e-07
-4.11807e-07
-9.74435e-07
-3.88344e-07
-1.00519e-06
-3.63688e-07
-1.0336e-06
-3.38028e-07
-1.05961e-06
-3.11489e-07
-1.08319e-06
-2.84168e-07
-1.1043e-06
-2.56148e-07
-1.12294e-06
-2.27508e-07
-1.13909e-06
-1.9832e-07
-1.15275e-06
-1.68657e-07
-1.16393e-06
-1.38587e-07
-1.17262e-06
-1.08177e-07
-1.17884e-06
-7.74923e-08
-1.18257e-06
-4.65988e-08
-1.55603e-08
6.57571e-07
-1.23625e-08
6.54698e-07
-3.69516e-08
6.49932e-07
-6.13342e-08
6.43289e-07
-8.54405e-08
6.34792e-07
-1.09201e-07
6.24468e-07
-1.32543e-07
6.12348e-07
-1.55391e-07
5.98471e-07
-1.77661e-07
5.82883e-07
-1.99256e-07
5.65643e-07
-2.2006e-07
5.4682e-07
-2.39922e-07
5.26505e-07
-2.58652e-07
5.0481e-07
-2.76004e-07
4.81872e-07
-2.91673e-07
4.57864e-07
-3.05308e-07
4.32985e-07
-3.16545e-07
4.07463e-07
-3.25079e-07
3.81538e-07
-3.30738e-07
3.55444e-07
-3.33562e-07
3.2939e-07
-3.33818e-07
3.03548e-07
-3.31955e-07
2.78043e-07
-3.2851e-07
2.52961e-07
-3.24008e-07
2.28352e-07
-3.18888e-07
2.04244e-07
-3.13473e-07
1.80646e-07
-3.07971e-07
1.5756e-07
-3.02502e-07
1.34985e-07
-2.97117e-07
1.12917e-07
-2.91827e-07
9.13534e-08
-2.8662e-07
7.02913e-08
-2.81474e-07
4.97289e-08
-2.76367e-07
2.96647e-08
-2.71283e-07
1.00976e-08
-2.66211e-07
-8.9741e-09
-2.6115e-07
-2.75529e-08
-2.56098e-07
-4.56405e-08
-2.51021e-07
-6.32402e-08
-2.45916e-07
-8.03567e-08
-2.40793e-07
-9.6996e-08
-2.35662e-07
-1.13166e-07
-2.30535e-07
-1.28875e-07
-2.25425e-07
-1.44135e-07
-2.20343e-07
-1.58958e-07
-2.15304e-07
-1.73358e-07
-2.1032e-07
-1.87352e-07
-2.05403e-07
-2.00956e-07
-2.00566e-07
-2.1419e-07
-1.95821e-07
-2.27074e-07
-1.91178e-07
-2.3963e-07
-1.86648e-07
-2.51879e-07
-1.82241e-07
-2.63847e-07
-1.77966e-07
-2.75557e-07
-1.73833e-07
-2.87035e-07
-1.69853e-07
-2.98306e-07
-1.66038e-07
-3.09393e-07
-1.62402e-07
-3.20321e-07
-1.58961e-07
-3.31112e-07
-1.55776e-07
-3.41807e-07
-1.5281e-07
-3.52405e-07
-1.50109e-07
-3.6296e-07
-1.47721e-07
-3.73647e-07
-1.45735e-07
-3.84146e-07
-1.51294e-07
-3.95003e-07
-1.57663e-07
-4.0636e-07
-1.64899e-07
-4.18348e-07
-1.73084e-07
-4.31072e-07
-1.82319e-07
-4.44622e-07
-1.92739e-07
-4.59089e-07
-2.04524e-07
-4.74561e-07
-2.17906e-07
-4.91137e-07
-2.33172e-07
-5.08925e-07
-2.50672e-07
-5.28038e-07
-2.70903e-07
-5.48667e-07
-2.94331e-07
-5.71094e-07
-3.21035e-07
-5.95703e-07
-3.5046e-07
-6.22965e-07
-3.80946e-07
-6.53313e-07
-4.09435e-07
-6.86876e-07
-4.3199e-07
-7.23206e-07
-4.454e-07
-7.61316e-07
-4.48774e-07
-8.00046e-07
-4.43518e-07
-8.38409e-07
-4.32e-07
-8.75708e-07
-4.16327e-07
-9.11496e-07
-3.97972e-07
-9.45496e-07
-3.77808e-07
-9.77526e-07
-3.56314e-07
-1.00746e-06
-3.33752e-07
-1.03521e-06
-3.10277e-07
-1.06071e-06
-2.85994e-07
-1.08389e-06
-2.60984e-07
-1.10472e-06
-2.35319e-07
-1.12317e-06
-2.09066e-07
-1.13919e-06
-1.82293e-07
-1.15279e-06
-1.55063e-07
-1.16393e-06
-1.27441e-07
-1.17262e-06
-9.94913e-08
-1.17883e-06
-7.12766e-08
-1.18257e-06
-4.28612e-08
-1.43108e-08
6.57571e-07
-1.13998e-08
6.54694e-07
-3.4075e-08
6.4992e-07
-5.656e-08
6.43269e-07
-7.87896e-08
6.34767e-07
-1.00698e-07
6.24444e-07
-1.22219e-07
6.12335e-07
-1.43282e-07
5.98485e-07
-1.6381e-07
5.82942e-07
-1.83713e-07
5.65767e-07
-2.02885e-07
5.47034e-07
-2.21189e-07
5.26833e-07
-2.3845e-07
5.05273e-07
-2.54443e-07
4.82493e-07
-2.6889e-07
4.58658e-07
-2.81469e-07
4.33964e-07
-2.91848e-07
4.08632e-07
-2.99742e-07
3.82897e-07
-3.04996e-07
3.56986e-07
-3.07644e-07
3.31105e-07
-3.07928e-07
3.0542e-07
-3.0626e-07
2.80056e-07
-3.03136e-07
2.55095e-07
-2.99037e-07
2.30587e-07
-2.94369e-07
2.06556e-07
-2.89431e-07
1.83011e-07
-2.84416e-07
1.59953e-07
-2.79434e-07
1.37378e-07
-2.74533e-07
1.15281e-07
-2.69721e-07
9.36578e-08
-2.64988e-07
7.2505e-08
-2.60313e-07
5.18209e-08
-2.55676e-07
3.16041e-08
-2.5106e-07
1.18533e-08
-2.46454e-07
-7.43386e-09
-2.41857e-07
-2.62604e-08
-2.37265e-07
-4.46276e-08
-2.32647e-07
-6.25376e-08
-2.27999e-07
-7.99934e-08
-2.2333e-07
-9.69999e-08
-2.18648e-07
-1.13563e-07
-2.13964e-07
-1.29691e-07
-2.09289e-07
-1.45393e-07
-2.04633e-07
-1.6068e-07
-2.00009e-07
-1.75564e-07
-1.95427e-07
-1.90059e-07
-1.90899e-07
-2.0418e-07
-1.86437e-07
-2.17943e-07
-1.82049e-07
-2.31366e-07
-1.77746e-07
-2.44468e-07
-1.73537e-07
-2.57269e-07
-1.69431e-07
-2.69788e-07
-1.65438e-07
-2.82047e-07
-1.61565e-07
-2.94067e-07
-1.57825e-07
-3.0587e-07
-1.54228e-07
-3.17476e-07
-1.50789e-07
-3.28898e-07
-1.47534e-07
-3.40153e-07
-1.44519e-07
-3.51262e-07
-1.417e-07
-3.62199e-07
-1.39175e-07
-3.72925e-07
-1.37004e-07
-3.83517e-07
-1.35357e-07
-3.94265e-07
-1.40572e-07
-4.05457e-07
-1.46502e-07
-4.17176e-07
-1.53216e-07
-4.29507e-07
-1.60793e-07
-4.42538e-07
-1.69332e-07
-4.56355e-07
-1.78971e-07
-4.71046e-07
-1.89886e-07
-4.86703e-07
-2.02305e-07
-5.03434e-07
-2.16502e-07
-5.21354e-07
-2.32816e-07
-5.40602e-07
-2.51724e-07
-5.6139e-07
-2.73614e-07
-5.84014e-07
-2.98484e-07
-6.08849e-07
-3.25697e-07
-6.36314e-07
-3.53547e-07
-6.66741e-07
-3.79065e-07
-7.00119e-07
-3.98655e-07
-7.35901e-07
-4.09648e-07
-7.73113e-07
-4.1158e-07
-8.10697e-07
-4.05944e-07
-8.47793e-07
-3.94909e-07
-8.83806e-07
-3.80316e-07
-9.18359e-07
-3.6342e-07
-9.51214e-07
-3.44954e-07
-9.82211e-07
-3.25317e-07
-1.01124e-06
-3.04727e-07
-1.0382e-06
-2.83315e-07
-1.06302e-06
-2.61169e-07
-1.08565e-06
-2.38358e-07
-1.10602e-06
-2.14945e-07
-1.1241e-06
-1.9099e-07
-1.13984e-06
-1.66552e-07
-1.15321e-06
-1.41688e-07
-1.1642e-06
-1.1646e-07
-1.17276e-06
-9.0924e-08
-1.1789e-06
-6.5141e-08
-1.18259e-06
-3.91711e-08
-1.30779e-08
6.57571e-07
-1.04374e-08
6.54696e-07
-3.12e-08
6.49926e-07
-5.17893e-08
6.43281e-07
-7.2145e-08
6.34789e-07
-9.22067e-08
6.24483e-07
-1.11913e-07
6.12399e-07
-1.31199e-07
5.98584e-07
-1.49994e-07
5.83089e-07
-1.68218e-07
5.65977e-07
-1.85772e-07
5.47321e-07
-2.02533e-07
5.27213e-07
-2.18341e-07
5.05763e-07
-2.32992e-07
4.83106e-07
-2.46232e-07
4.59404e-07
-2.57767e-07
4.34851e-07
-2.67293e-07
4.09663e-07
-2.74551e-07
3.84067e-07
-2.79396e-07
3.58287e-07
-2.81859e-07
3.32524e-07
-2.82159e-07
3.06942e-07
-2.80673e-07
2.81665e-07
-2.77852e-07
2.56774e-07
-2.74138e-07
2.32316e-07
-2.69905e-07
2.08317e-07
-2.65425e-07
1.84784e-07
-2.60877e-07
1.61717e-07
-2.5636e-07
1.3911e-07
-2.5192e-07
1.16959e-07
-2.47564e-07
9.52574e-08
-2.43281e-07
7.4003e-08
-2.39054e-07
5.3193e-08
-2.34861e-07
3.28251e-08
-2.30687e-07
1.28972e-08
-2.26522e-07
-6.59298e-09
-2.22362e-07
-2.56477e-08
-2.18206e-07
-4.42677e-08
-2.14022e-07
-6.24538e-08
-2.09808e-07
-8.02083e-08
-2.0557e-07
-9.75347e-08
-2.01316e-07
-1.14438e-07
-1.97055e-07
-1.30924e-07
-1.92796e-07
-1.47001e-07
-1.8855e-07
-1.62678e-07
-1.84325e-07
-1.77964e-07
-1.80134e-07
-1.92872e-07
-1.75984e-07
-2.07414e-07
-1.71887e-07
-2.21604e-07
-1.67852e-07
-2.35457e-07
-1.63886e-07
-2.48988e-07
-1.59998e-07
-2.62215e-07
-1.56197e-07
-2.75155e-07
-1.52491e-07
-2.87826e-07
-1.48888e-07
-3.00247e-07
-1.45397e-07
-3.12437e-07
-1.42032e-07
-3.24415e-07
-1.38805e-07
-3.36195e-07
-1.35749e-07
-3.47806e-07
-1.32903e-07
-3.59262e-07
-1.30241e-07
-3.70552e-07
-1.27881e-07
-3.81624e-07
-1.25927e-07
-3.92192e-07
-1.2503e-07
-4.03035e-07
-1.29755e-07
-4.14407e-07
-1.3516e-07
-4.26345e-07
-1.4131e-07
-4.38911e-07
-1.48261e-07
-4.52177e-07
-1.56103e-07
-4.66221e-07
-1.64967e-07
-4.81127e-07
-1.75022e-07
-4.96994e-07
-1.86484e-07
-5.13932e-07
-1.99611e-07
-5.32069e-07
-2.1473e-07
-5.51562e-07
-2.32284e-07
-5.7264e-07
-2.5259e-07
-5.956e-07
-2.75579e-07
-6.20793e-07
-3.00557e-07
-6.48573e-07
-3.25814e-07
-6.79157e-07
-3.4852e-07
-7.12407e-07
-3.65435e-07
-7.47707e-07
-3.74366e-07
-7.84123e-07
-3.75176e-07
-8.20704e-07
-3.69369e-07
-8.56704e-07
-3.58912e-07
-8.91614e-07
-3.45408e-07
-9.25106e-07
-3.29928e-07
-9.5697e-07
-3.1309e-07
-9.8706e-07
-2.95227e-07
-1.01526e-06
-2.76522e-07
-1.04149e-06
-2.57084e-07
-1.06568e-06
-2.36988e-07
-1.08774e-06
-2.16293e-07
-1.10763e-06
-1.95053e-07
-1.1253e-06
-1.73321e-07
-1.1407e-06
-1.51149e-07
-1.1538e-06
-1.28589e-07
-1.16457e-06
-1.05696e-07
-1.17297e-06
-8.25213e-08
-1.17899e-06
-5.91208e-08
-1.18261e-06
-3.555e-08
-1.18682e-08
6.57574e-07
-9.47785e-09
6.54707e-07
-2.83324e-08
6.49948e-07
-4.70306e-08
6.4332e-07
-6.55173e-08
6.34851e-07
-8.37375e-08
6.24573e-07
-1.01635e-07
6.12526e-07
-1.19152e-07
5.98755e-07
-1.36224e-07
5.83314e-07
-1.52777e-07
5.66265e-07
-1.68723e-07
5.47682e-07
-1.8395e-07
5.27655e-07
-1.98314e-07
5.06294e-07
-2.1163e-07
4.83731e-07
-2.23669e-07
4.60128e-07
-2.34163e-07
4.35674e-07
-2.42837e-07
4.1058e-07
-2.49456e-07
3.85073e-07
-2.53887e-07
3.59372e-07
-2.56156e-07
3.33677e-07
-2.56461e-07
3.08152e-07
-2.55144e-07
2.82917e-07
-2.52614e-07
2.58055e-07
-2.49272e-07
2.33613e-07
-2.45459e-07
2.09614e-07
-2.41422e-07
1.86066e-07
-2.37324e-07
1.62966e-07
-2.33257e-07
1.40311e-07
-2.2926e-07
1.18093e-07
-2.25342e-07
9.63071e-08
-2.21492e-07
7.49488e-08
-2.17692e-07
5.40145e-08
-2.13923e-07
3.35017e-08
-2.10171e-07
1.34087e-08
-2.06426e-07
-6.26629e-09
-2.02685e-07
-2.55252e-08
-1.98944e-07
-4.43682e-08
-1.95176e-07
-6.27953e-08
-1.91378e-07
-8.08078e-08
-1.87554e-07
-9.8408e-08
-1.83712e-07
-1.15599e-07
-1.79859e-07
-1.32387e-07
-1.76004e-07
-1.48776e-07
-1.72155e-07
-1.64774e-07
-1.68322e-07
-1.80389e-07
-1.64513e-07
-1.95631e-07
-1.60737e-07
-2.1051e-07
-1.57003e-07
-2.25038e-07
-1.53318e-07
-2.39226e-07
-1.49692e-07
-2.53087e-07
-1.46131e-07
-2.66636e-07
-1.42643e-07
-2.79886e-07
-1.39234e-07
-2.92854e-07
-1.35915e-07
-3.05553e-07
-1.32692e-07
-3.18002e-07
-1.29578e-07
-3.30216e-07
-1.26586e-07
-3.42214e-07
-1.23746e-07
-3.54017e-07
-1.21095e-07
-3.65645e-07
-1.18609e-07
-3.77128e-07
-1.16394e-07
-3.88516e-07
-1.14524e-07
-3.99268e-07
-1.14485e-07
-4.10309e-07
-1.18739e-07
-4.21872e-07
-1.23622e-07
-4.34012e-07
-1.29198e-07
-4.46786e-07
-1.35516e-07
-4.60261e-07
-1.42659e-07
-4.74513e-07
-1.50747e-07
-4.89631e-07
-1.59939e-07
-5.05714e-07
-1.70436e-07
-5.22884e-07
-1.82478e-07
-5.41276e-07
-1.96375e-07
-5.61067e-07
-2.12532e-07
-5.82497e-07
-2.31198e-07
-6.05859e-07
-2.52255e-07
-6.31477e-07
-2.74976e-07
-6.59637e-07
-2.97683e-07
-6.90451e-07
-3.1773e-07
-7.23666e-07
-3.32236e-07
-7.58618e-07
-3.39425e-07
-7.94403e-07
-3.39396e-07
-8.30165e-07
-3.33611e-07
-8.65247e-07
-3.23831e-07
-8.99211e-07
-3.11445e-07
-9.31772e-07
-2.97367e-07
-9.62746e-07
-2.82116e-07
-9.92001e-07
-2.65972e-07
-1.01944e-06
-2.49088e-07
-1.04496e-06
-2.31557e-07
-1.06851e-06
-2.13441e-07
-1.09001e-06
-1.94792e-07
-1.10941e-06
-1.75657e-07
-1.12665e-06
-1.56081e-07
-1.14168e-06
-1.36112e-07
-1.15448e-06
-1.15794e-07
-1.165e-06
-9.51768e-08
-1.17321e-06
-7.43074e-08
-1.1791e-06
-5.32348e-08
-1.18264e-06
-3.20095e-08
-1.06857e-08
6.57577e-07
-8.52117e-09
6.54718e-07
-2.54734e-08
6.49973e-07
-4.22858e-08
6.43365e-07
-5.89088e-08
6.3492e-07
-7.5293e-08
6.24673e-07
-9.1388e-08
6.12662e-07
-1.07141e-07
5.98934e-07
-1.22495e-07
5.83541e-07
-1.37384e-07
5.66547e-07
-1.51728e-07
5.48024e-07
-1.65428e-07
5.28064e-07
-1.78354e-07
5.06772e-07
-1.90339e-07
4.84282e-07
-2.01179e-07
4.60752e-07
-2.10633e-07
4.36368e-07
-2.18454e-07
4.11341e-07
-2.24429e-07
3.85892e-07
-2.28439e-07
3.60241e-07
-2.30505e-07
3.34586e-07
-2.30806e-07
3.09088e-07
-2.29646e-07
2.8387e-07
-2.27395e-07
2.59014e-07
-2.24415e-07
2.34565e-07
-2.21009e-07
2.10547e-07
-2.17403e-07
1.86968e-07
-2.13743e-07
1.63824e-07
-2.10112e-07
1.41111e-07
-2.06545e-07
1.18822e-07
-2.0305e-07
9.69491e-08
-1.99617e-07
7.54879e-08
-1.96228e-07
5.44349e-08
-1.92868e-07
3.37879e-08
-1.89522e-07
1.35453e-08
-1.86181e-07
-6.29453e-09
-1.82843e-07
-2.57332e-08
-1.79504e-07
-4.477e-08
-1.76137e-07
-6.34045e-08
-1.72741e-07
-8.16368e-08
-1.69319e-07
-9.94681e-08
-1.65878e-07
-1.16901e-07
-1.62423e-07
-1.33938e-07
-1.58963e-07
-1.50585e-07
-1.55505e-07
-1.66845e-07
-1.52057e-07
-1.82727e-07
-1.48627e-07
-1.98238e-07
-1.45222e-07
-2.13385e-07
-1.41851e-07
-2.28179e-07
-1.3852e-07
-2.42629e-07
-1.35237e-07
-2.56746e-07
-1.32009e-07
-2.70543e-07
-1.28842e-07
-2.8403e-07
-1.25743e-07
-2.9722e-07
-1.22719e-07
-3.10129e-07
-1.1978e-07
-3.22769e-07
-1.16934e-07
-3.35157e-07
-1.14194e-07
-3.4731e-07
-1.11589e-07
-3.59252e-07
-1.09149e-07
-3.71006e-07
-1.06853e-07
-3.82606e-07
-1.0479e-07
-3.94075e-07
-1.03043e-07
-4.05021e-07
-1.03684e-07
-4.1629e-07
-1.07491e-07
-4.28064e-07
-1.11869e-07
-4.40404e-07
-1.1688e-07
-4.53374e-07
-1.22569e-07
-4.67044e-07
-1.29013e-07
-4.81494e-07
-1.36322e-07
-4.96815e-07
-1.44643e-07
-5.13117e-07
-1.5416e-07
-5.30527e-07
-1.65094e-07
-5.49193e-07
-1.77736e-07
-5.69305e-07
-1.92446e-07
-5.91113e-07
-2.09416e-07
-6.14901e-07
-2.28491e-07
-6.40958e-07
-2.48938e-07
-6.69505e-07
-2.69153e-07
-7.00551e-07
-2.86696e-07
-7.33751e-07
-2.99044e-07
-7.68404e-07
-3.04777e-07
-8.03651e-07
-3.04152e-07
-8.38713e-07
-2.98549e-07
-8.73014e-07
-2.89531e-07
-9.06169e-07
-2.78291e-07
-9.3793e-07
-2.65606e-07
-9.68131e-07
-2.51915e-07
-9.96654e-07
-2.3745e-07
-1.0234e-06
-2.2234e-07
-1.04829e-06
-2.06664e-07
-1.07126e-06
-1.90475e-07
-1.09224e-06
-1.73817e-07
-1.11116e-06
-1.5673e-07
-1.12799e-06
-1.39255e-07
-1.14267e-06
-1.21431e-07
-1.15516e-06
-1.033e-07
-1.16544e-06
-8.49039e-08
-1.17346e-06
-6.62845e-08
-1.17921e-06
-4.74854e-08
-1.18267e-06
-2.85514e-08
-9.53082e-09
6.5758e-07
-7.56748e-09
6.5473e-07
-2.2623e-08
6.49999e-07
-3.7555e-08
6.4341e-07
-5.23195e-08
6.34989e-07
-6.68727e-08
6.24771e-07
-8.11699e-08
6.12794e-07
-9.51644e-08
5.99104e-07
-1.08805e-07
5.83754e-07
-1.22034e-07
5.66806e-07
-1.34781e-07
5.48334e-07
-1.46956e-07
5.28426e-07
-1.58446e-07
5.07189e-07
-1.69102e-07
4.84752e-07
-1.78743e-07
4.61274e-07
-1.87156e-07
4.36939e-07
-1.9412e-07
4.11955e-07
-1.99446e-07
3.86542e-07
-2.03028e-07
3.60918e-07
-2.04883e-07
3.35281e-07
-2.0517e-07
3.09793e-07
-2.0416e-07
2.84575e-07
-2.02179e-07
2.59708e-07
-1.99549e-07
2.3524e-07
-1.96542e-07
2.11193e-07
-1.93357e-07
1.87575e-07
-1.90125e-07
1.64383e-07
-1.8692e-07
1.41609e-07
-1.83772e-07
1.19248e-07
-1.80688e-07
9.72903e-08
-1.77659e-07
7.57327e-08
-1.7467e-07
5.45711e-08
-1.71706e-07
3.38036e-08
-1.68754e-07
1.34285e-08
-1.65805e-07
-6.55537e-09
-1.62858e-07
-2.61493e-08
-1.59908e-07
-4.5352e-08
-1.56933e-07
-6.41622e-08
-1.53929e-07
-8.25793e-08
-1.509e-07
-1.00603e-07
-1.47852e-07
-1.18235e-07
-1.44789e-07
-1.35478e-07
-1.41719e-07
-1.52334e-07
-1.38647e-07
-1.68807e-07
-1.35581e-07
-1.84902e-07
-1.32528e-07
-2.00626e-07
-1.29495e-07
-2.15986e-07
-1.26488e-07
-2.30988e-07
-1.23515e-07
-2.45641e-07
-1.2058e-07
-2.59955e-07
-1.17691e-07
-2.7394e-07
-1.14854e-07
-2.87605e-07
-1.12074e-07
-3.00963e-07
-1.09358e-07
-3.14025e-07
-1.06714e-07
-3.26804e-07
-1.04151e-07
-3.39316e-07
-1.01679e-07
-3.51577e-07
-9.93256e-08
-3.63609e-07