/*--------------------------------*- C++ -*----------------------------------*\
  =========                 |
  \\      /  F ield         | OpenFOAM: The Open Source CFD Toolbox
   \\    /   O peration     | Website:  https://openfoam.org
    \\  /    A nd           | Version:  8
     \\/     M anipulation  |
\*---------------------------------------------------------------------------*/
FoamFile
{
    version     2.0;
    format      ascii;
    class       volScalarField;
    location    "500/fluid";
    object      rDeltaT;
}
// * * * * * * * * * * * * * * * * * * * * * * * * * * * * * * * * * * * * * //

dimensions      [0 0 -1 0 0 0 0];

internalField   nonuniform List<scalar> 
4000
(
513.368
539.18
563.839
587.486
610.065
631.48
651.611
670.323
687.492
703.02
716.87
729.091
739.847
749.447
758.35
767.066
775.995
785.342
795.042
804.744
813.874
821.75
827.712
831.215
831.899
829.569
824.104
815.463
803.675
788.818
771.011
750.397
743.384
768.784
811.306
853.1
894.099
934.247
973.498
1011.82
1049.18
1085.57
1120.96
1155.35
1188.72
1221.07
1252.38
1282.65
1311.86
1340
1367.05
1393
1417.83
1441.51
1464.03
1485.35
1505.46
1524.27
1541.61
1557.78
1572.65
1586.94
16784.3
1572.38
1538.08
1498.37
1453.83
1405.04
1352.48
1296.58
1237.76
1176.54
1113.51
1049.24
984.448
920.54
859.514
803.807
756.367
719.955
695.776
682.579
677.159
675.907
675.871
675.181
672.793
668.308
661.739
653.27
643.14
631.589
618.842
605.099
590.527
575.264
559.414
543.053
526.221
508.871
512.908
538.08
561.967
584.508
605.676
625.4
643.592
660.167
675.063
688.262
699.822
709.895
718.752
726.793
734.501
742.34
750.695
759.769
769.495
779.52
789.247
797.951
804.907
809.5
811.273
809.909
805.233
797.194
785.829
771.239
753.569
732.989
709.684
717.254
759.374
802.411
844.811
886.502
927.426
967.538
1006.8
1045.19
1082.69
1119.27
1154.92
1189.63
1223.39
1256.2
1288.03
1318.88
1348.74
1377.6
1405.45
1432.28
1458.07
1482.81
1506.48
1528.92
1550.04
1570.1
1588.83
1605.99
16644.8
1585.58
1545.93
1502.24
1454.5
1402.86
1347.52
1288.74
1226.81
1162.14
1095.21
1026.49
956.842
888.11
822.917
764.555
716.4
680.946
658.601
647.28
643.423
643.511
644.896
645.939
645.778
643.945
640.268
634.768
627.551
618.763
608.562
597.104
584.535
570.981
556.545
541.304
525.298
508.558
512.229
535.895
558.106
578.832
598.014
615.594
631.521
645.761
658.316
669.241
678.667
686.815
694.01
700.662
707.219
714.122
721.75
730.312
739.755
749.738
759.678
768.853
776.524
782.031
784.831
784.527
780.893
773.844
763.398
749.642
732.714
712.778
690.018
681.315
706.549
750.163
793.393
836.155
878.379
920.012
961.01
1001.34
1040.96
1079.86
1118.01
1155.41
1192.03
1227.88
1262.95
1297.22
1330.7
1363.39
1395.28
1426.37
1456.66
1486.13
1514.74
1542.26
1568.58
1593.79
1617.19
3132.14
15086.7
1607.67
1562.29
1513.06
1460.02
1403.25
1342.9
1279.15
1212.27
1142.68
1070.9
997.516
923.759
851.916
785.011
726.588
679.879
646.715
626.686
617.232
614.771
615.985
618.436
620.617
621.781
621.553
619.756
616.339
611.327
604.788
596.809
587.487
576.919
565.195
552.397
538.588
523.818
508.105
511.561
533.883
554.681
573.912
591.535
607.514
621.824
634.461
645.457
654.889
662.903
669.723
675.663
681.126
686.576
692.48
699.228
707.024
715.814
725.256
734.765
743.618
751.067
756.444
759.212
758.991
755.547
748.773
738.658
725.265
708.704
689.121
666.679
645.111
656.989
700.983
744.846
788.491
831.848
874.856
917.46
959.614
1001.29
1042.46
1083.11
1123.21
1162.75
1201.72
1240.11
1277.91
1315.12
1351.71
1387.69
1423.03
1457.7
1491.64
1524.78
1556.8
1587.53
1616.94
1644.29
7418.37
11186.5
1621.5
1571.72
1517.65
1459.56
1397.65
1332.18
1263.44
1191.83
1117.9
1042.34
965.924
890.268
817.918
751.945
695.621
651.692
621.398
603.808
596.133
594.886
596.994
600.245
603.263
605.309
606.03
605.28
603.025
599.281
594.094
587.52
579.623
570.464
560.104
548.598
535.992
522.324
507.618
510.844
531.705
550.99
568.663
584.692
599.051
611.731
622.748
632.152
640.044
646.588
652.027
656.689
660.987
665.385
670.346
676.249
683.291
691.415
700.278
709.302
717.765
724.92
730.09
732.731
732.45
729.004
722.271
712.229
698.927
682.462
662.965
640.588
615.494
617.092
654.463
698.857
743.275
787.637
831.875
875.939
919.786
963.382
1006.69
1049.69
1092.36
1134.67
1176.61
1218.15
1259.28
1299.97
1340.19
1379.92
1419.08
1457.63
1495.44
1532.36
1567.96
1601.98
1634.34
1664.13
11484.1
7140.66
1625.64
1572.62
1514.71
1452.41
1386.14
1316.35
1243.49
1168.11
1090.92
1012.69
934.366
857.85
785.773
721.171
667.095
625.867
598.186
582.684
576.435
576.089
578.825
582.65
586.327
589.174
590.844
591.172
590.095
587.604
583.717
578.469
571.901
564.055
554.977
544.707
533.284
520.739
507.099
510.123
529.542
547.372
563.578
578.136
591.03
602.263
611.863
619.891
626.459
631.739
635.976
639.501
642.719
646.089
650.068
655.027
661.162
668.417
676.457
684.713
692.475
699.003
703.624
705.793
705.116
701.339
694.331
684.059
670.558
653.913
634.241
611.679
586.378
580.635
610.698
655.536
700.608
745.84
791.169
836.541
881.907
927.227
972.464
1017.59
1062.56
1107.35
1151.94
1196.28
1240.35
1284.08
1327.44
1370.34
1412.71
1454.41
1495.28
1535.06
1573.23
1609.54
1643.79
1674.89
15304.8
3135.59
1621
1565.61
1504.57
1438.8
1368.98
1295.76
1219.73
1141.58
1062.17
982.296
903.112
826.695
755.721
693.141
641.763
603.496
578.559
565.227
560.472
561.074
564.419
568.703
572.818
576.159
578.413
579.43
579.143
577.533
574.605
570.376
564.868
558.11
550.131
540.96
530.626
519.154
506.572
509.392
527.352
543.72
558.468
571.575
583.033
592.851
601.067
607.75
613.019
617.052
620.101
622.494
624.638
626.986
629.986
634.003
639.225
645.594
652.777
660.211
667.19
672.981
676.916
678.451
677.191
672.879
665.379
654.651
640.721
623.665
603.591
580.626
554.91
543.912
568.896
614.098
659.733
705.727
752.012
798.529
845.227
892.059
938.983
985.958
1032.94
1079.89
1126.77
1173.52
1220.08
1266.39
1312.37
1357.9
1402.87
1447.08
1490.33
1532.32
1572.35
1610.19
1645.49
1677.01
18106.3
1661.34
1610.09
1551.9
1488.07
1419.54
1347.1
1271.45
1193.3
1113.43
1032.77
952.154
872.899
797.203
727.736
667.347
618.604
583.053
560.521
549.022
545.502
546.888
550.763
555.478
560.031
563.869
566.7
568.378
568.833
568.038
565.986
562.683
558.143
552.384
545.425
537.289
527.998
517.575
506.044
508.661
525.167
540.092
553.409
565.102
575.169
583.627
590.516
595.913
599.941
602.78
604.682
605.976
607.06
608.382
610.381
613.414
617.664
623.07
629.303
635.804
641.877
646.795
649.896
650.639
648.629
643.608
635.439
624.074
609.535
591.892
571.244
547.71
521.42
506.864
528.571
574.062
620.161
666.79
713.88
761.368
809.199
857.319
905.68
954.231
1002.92
1051.7
1100.5
1149.26
1197.91
1246.34
1294.47
1342.15
1389.22
1435.46
1480.61
1524.22
1565.5
1604.5
1639.9
1670.31
17909.5
1647.68
1593.3
1532.55
1466.47
1395.91
1321.66
1244.44
1165.02
1084.25
1003.07
922.372
843.606
769.055
701.368
643.292
597.176
564.243
543.984
534.211
531.866
534.01
538.394
543.507
548.442
552.698
556.01
558.24
559.321
559.221
557.929
555.442
551.768
546.915
540.898
533.731
525.433
516.023
505.523
507.93
522.985
536.471
548.367
558.661
567.355
574.469
580.05
584.179
586.979
588.635
589.397
589.591
589.613
589.902
590.888
592.921
596.176
600.589
605.832
611.348
616.448
620.412
622.582
622.423
619.542
613.683
604.708
592.568
577.281
558.912
537.555
513.322
486.34
469.475
489.22
534.915
581.371
628.509
676.255
724.544
773.315
822.507
872.065
921.928
972.036
1022.32
1072.71
1123.12
1173.47
1223.62
1273.47
1322.85
1371.56
1419.35
1465.91
1510.71
1553.05
1592.75
1628.35
1974.68
17120.2
1628.63
1571.77
1509.05
1441.32
1369.38
1293.98
1215.86
1135.82
1054.75
973.595
893.278
815.381
742.234
676.452
620.673
577.048
546.517
528.297
520.054
518.754
521.591
526.466
531.982
537.31
541.99
545.777
548.545
550.224
550.784
550.207
548.488
545.627
541.632
536.509
530.27
522.929
514.503
505.012
507.202
520.81
532.865
543.351
552.257
559.591
565.378
569.666
572.54
574.126
574.607
574.235
573.331
572.286
571.531
571.489
572.499
574.729
578.112
582.319
586.797
590.861
593.798
594.957
593.808
589.962
583.166
573.283
560.264
544.125
524.928
502.765
477.744
449.985
431.732
450.472
496.282
542.989
590.511
638.77
687.699
737.228
787.293
837.829
888.768
940.038
991.561
1043.25
1095.01
1146.73
1198.28
1249.51
1300.24
1350.26
1399.29
1447.01
1492.87
1536.18
1576.85
1613.63
5165.1
14420.3
1603.85
1545.8
1482.03
1413.41
1340.74
1264.8
1186.34
1106.18
1025.26
944.52
864.916
788.141
716.543
652.707
599.171
557.901
529.593
513.238
506.394
506.066
509.567
514.929
520.855
526.579
531.681
535.935
539.22
541.473
542.66
542.763
541.774
539.69
536.513
532.248
526.903
520.489
513.02
504.513
506.476
518.641
529.271
538.351
545.876
551.857
556.322
559.322
560.945
561.317
560.625
559.115
557.108
554.988
553.178
552.094
552.063
553.249
555.577
558.717
562.119
565.102
566.96
567.048
564.843
559.962
552.155
541.287
527.31
510.243
490.146
467.108
441.234
412.641
393.642
412.029
457.866
504.722
552.51
601.152
650.572
700.699
751.461
802.786
854.597
906.815
959.349
1012.1
1064.97
1117.82
1170.52
1222.9
1274.77
1325.9
1376.01
1424.74
1471.54
1515.74
1557.26
1594.87
7875.16
11802.1
1575.22
1516.79
1452.63
1383.69
1310.81
1234.77
1156.38
1076.5
996.056
916.006
837.343
761.842
691.865
629.958
578.568
539.492
513.217
498.548
492.972
493.54
497.678
503.53
509.882
516.024
521.567
526.299
530.108
532.933
534.74
535.511
535.234
533.906
531.525
528.094
523.619
518.107
511.571
504.025
505.752
516.479
525.688
533.366
539.514
544.145
547.29
549.005
549.377
548.536
546.666
544.014
540.898
537.694
534.819
532.679
531.593
531.714
532.965
535.011
537.306
539.172
539.909
538.881
535.57
529.6
520.725
508.816
493.828
475.779
454.731
430.771
404.003
374.543
355.224
373.674
419.455
466.363
514.311
563.214
612.995
663.577
714.882
766.831
819.341
872.324
925.682
979.309
1033.08
1086.88
1140.53
1193.87
1246.69
1298.75
1349.76
1399.36
1446.96
1491.91
1534.13
1572.33
10211.2
9543.15
1544.28
1485.85
1421.7
1352.82
1280.08
1204.3
1126.3
1046.96
967.253
888.092
810.515
736.384
668.052
608.028
558.671
521.634
497.217
484.083
479.667
481.076
485.834
492.184
498.982
505.564
511.567
516.793
521.136
524.538
526.966
528.399
528.827
528.243
526.644
524.031
520.407
515.779
510.155
503.549
505.029
514.323
522.113
528.392
533.165
536.447
538.272
538.7
537.819
535.761
532.71
528.911
524.677
520.381
516.431
513.224
511.069
510.112
510.268
511.2
512.362
513.083
512.668
510.489
506.035
498.936
488.956
475.966
459.927
440.86
418.827
393.917
366.233
335.888
316.504
335.253
380.899
427.772
475.781
524.84
574.865
625.777
677.492
729.925
782.988
836.584
890.608
944.947
999.473
1054.04
1108.49
1162.64
1216.26
1269.12
1320.9
1371.24
1419.53
1465.15
1507.97
1546.68
12162.9
7672.96
1511.84
1453.65
1389.78
1321.23
1248.91
1173.64
1096.28
1017.71
938.905
860.77
784.392
711.682
644.988
586.78
539.337
504.18
481.46
469.721
466.371
468.573
473.941
480.8
488.066
495.114
501.602
507.344
512.238
516.23
519.285
521.385
522.517
522.672
521.848
520.043
517.258
513.497
508.769
503.082
504.309
512.171
518.545
523.427
526.824
528.756
529.262
528.401
526.264
522.986
518.748
513.796
508.438
503.041
498.008
493.724
490.49
488.442
487.488
487.29
487.301
486.856
485.265
481.908
476.284
468.03
456.914
442.818
425.703
405.595
382.558
356.682
328.072
296.839
277.515
296.659
342.099
388.857
436.839
485.958
536.127
587.26
639.271
692.069
745.56
799.642
854.204
909.124
964.267
1019.48
1074.6
1129.43
1183.75
1237.29
1289.74
1340.75
1389.67
1435.89
1479.28
1518.51
13752
6162.37
1478.45
1420.65
1357.24
1289.23
1217.53
1142.98
1066.43
988.777
911.009
834.01
758.905
687.642
622.562
566.096
520.448
487.025
465.852
455.383
453.019
455.976
461.947
469.329
477.086
484.627
491.625
497.905
503.37
507.967
511.662
514.436
516.275
517.171
517.119
516.115
514.16
511.256
507.408
502.625
503.59
510.023
514.981
518.467
520.489
521.071
520.255
518.102
514.707
510.203
504.775
498.663
492.175
485.673
479.548
474.18
469.858
466.709
464.634
463.293
462.14
460.511
457.727
453.175
446.361
436.932
424.665
409.444
391.239
370.078
346.028
319.182
289.644
257.528
238.292
257.824
302.991
349.562
397.441
446.537
496.761
548.022
600.231
653.293
707.109
761.57
816.562
871.957
927.613
983.374
1039.06
1094.48
1149.39
1203.54
1256.61
1308.22
1357.73
1404.53
1448.5
1488.28
15001.7
4957.32
1444.42
1387.12
1324.32
1257.01
1186.08
1112.39
1036.8
960.189
883.559
807.775
733.991
664.185
600.685
545.883
501.916
470.093
450.332
441.018
439.562
443.241
449.814
457.733
466.006
474.065
481.6
488.442
494.499
499.718
504.067
507.525
510.079
511.72
512.44
512.235
511.104
509.048
506.07
502.176
502.872
507.877
511.422
513.511
514.157
513.388
511.248
507.801
503.145
497.412
490.788
483.514
475.89
468.275
461.055
454.595
449.178
444.921
441.718
439.224
436.895
434.072
430.083
424.322
416.307
405.692
392.261
375.907
356.605
334.387
309.324
281.511
251.053
218.065
198.87
218.708
263.543
309.863
357.569
406.569
456.77
508.079
560.402
613.642
667.695
722.448
777.781
833.562
889.645
945.867
1002.05
1057.98
1113.43
1168.13
1221.77
1273.94
1324.02
1371.42
1416
1456.48
16252.9
3882.55
1409.85
1353.2
1291.14
1224.66
1154.65
1081.95
1007.41
931.948
856.531
782.018
709.586
641.232
579.268
526.054
483.666
453.332
434.88
426.612
425.971
430.342
437.518
445.992
454.804
463.407
471.504
478.931
485.6
491.459
496.477
500.632
503.91
506.301
507.796
508.39
508.081
506.867
504.749
501.733
502.155
505.734
507.865
508.557
507.827
505.706
502.24
497.497
491.576
484.612
476.789
468.347
459.584
450.853
442.531
434.976
428.459
423.088
418.75
415.097
411.585
407.561
402.358
395.381
386.158
374.35
359.752
342.262
321.862
298.59
272.519
243.746
212.381
178.538
159.286
179.292
223.741
269.751
317.224
366.063
416.173
467.46
519.826
573.169
627.384
682.354
737.955
794.05
850.49
907.108
963.72
1020.12
1076.06
1131.28
1185.44
1238.17
1288.82
1336.8
1381.99
1423.09
17034.8
3150.74
1375.01
1319.09
1257.87
1192.32
1123.32
1051.7
978.313
904.058
829.908
756.703
685.637
618.715
558.232
506.515
465.596
436.641
419.437
412.189
412.271
417.3
425.071
434.108
443.475
452.642
461.321
469.355
476.655
483.172
488.873
493.738
497.751
500.899
503.175
504.57
505.081
504.706
503.443
501.295
501.438
503.592
504.31
503.605
501.498
498.023
493.23
487.189
480.001
471.802
462.778
453.165
443.26
433.409
423.983
415.329
407.708
401.219
395.742
390.925
386.226
380.995
374.575
366.379
355.943
342.942
327.176
308.553
287.06
262.74
235.671
205.953
173.697
139.019
119.574
139.574
183.589
229.238
276.421
325.04
375
426.201
478.546
531.928
586.239
641.361
697.165
753.513
810.251
867.211
924.204
981.017
1037.41
1093.1
1147.78
1201.04
1252.24
1300.81
1346.62
1388.38
17630.4
2629.91
1339.98
1284.87
1224.58
1160.04
1092.13
1021.67
949.503
876.517
803.676
731.807
662.11
596.594
537.533
487.221
447.648
419.93
403.861
397.639
398.452
404.119
412.476
422.077
432.009
441.756
451.036
459.694
467.644
474.836
481.238
486.826
491.584
495.5
498.563
500.764
502.097
502.559
502.147
500.861
500.722
501.451
500.756
498.654
495.169
490.339
484.217
476.876
468.419
458.984
448.755
437.97
426.92
415.947
405.414
395.659
386.932
379.323
372.704
366.721
360.832
354.392
346.752
337.336
325.689
311.496
294.566
274.816
252.238
226.881
198.827
168.181
135.054
100
100
100
143.101
188.34
235.184
283.532
333.285
384.345
436.61
489.972
544.321
599.536
655.487
712.032
769.015
826.266
883.592
940.78
997.586
1053.73
1108.89
1162.67
1214.43
1263.59
1310.05
1352.51
18031.7
2303.79
1304.81
1250.59
1191.3
1127.86
1061.11
991.88
920.987
849.314
777.815
707.304
638.981
574.845
517.149
468.156
429.814
403.201
388.106
382.815
384.43
390.743
399.687
409.861
420.372
430.717
440.618
449.922
458.543
466.429
473.548
479.875
485.393
490.088
493.946
496.959
499.119
500.419
500.857
500.43
500.006
499.31
497.202
493.702
488.838
482.652
475.2
466.558
456.83
446.157
434.722
422.762
410.566
398.469
386.827
375.97
366.136
357.405
349.644
342.493
335.412
327.764
318.905
308.269
295.415
280.034
261.947
241.078
217.426
191.046
162.025
130.469
100
100
100
100
102.302
147.088
193.545
241.572
291.069
341.934
394.065
447.354
501.685
556.939
612.982
669.671
726.85
784.345
841.963
899.489
956.678
1013.25
1068.87
1123.17
1175.48
1225.25
1272.35
1315.53
18242.9
2157.49
1269.5
1216.26
1158.06
1095.79
1030.27
962.324
892.751
822.429
752.299
683.164
616.214
553.435
497.054
449.305
412.103
386.495
372.23
367.668
370.093
377.072
386.625
397.397
408.515
419.486
430.034
440.009
449.324
457.927
465.782
472.867
479.16
484.647
489.312
493.146
496.139
498.282
499.57
500
500.006
499.309
497.201
493.7
488.837
482.65
475.198
466.555
456.827
446.153
434.718
422.757
410.561
398.464
386.822
375.963
366.129
357.398
349.636
342.485
335.404
327.755
318.895
308.259
295.404
280.023
261.936
241.066
217.414
191.034
162.013
130.457
100
100
100
100
102.294
147.081
193.538
241.566
291.063
341.929
394.061
447.35
501.682
556.936
612.979
669.669
726.848
784.344
841.962
899.488
956.677
1013.25
1068.87
1123.17
1175.48
1225.25
1272.35
1315.53
18243.3
2157.04
1269.5
1216.26
1158.06
1095.79
1030.28
962.325
892.753
822.431
752.301
683.166
616.217
553.437
497.057
449.308
412.106
386.498
372.233
367.671
370.096
377.075
386.628
397.399
408.517
419.488
430.036
440.011
449.326
457.928
465.784
472.868
479.161
484.647
489.313
493.147
496.139
498.282
499.57
500
500.722
501.45
500.754
498.651
495.166
490.335
484.212
476.87
468.412
458.976
448.747
437.96
426.91
415.936
405.402
395.646
386.919
379.309
372.689
366.705
360.814
354.374
346.733
337.315
325.668
311.474
294.543
274.792
252.213
226.855
198.802
168.155
135.028
100
100
100
143.088
188.328
235.173
283.522
333.276
384.337
436.603
489.966
544.316
599.532
655.484
712.029
769.014
826.265
883.592
940.781
997.587
1053.73
1108.89
1162.67
1214.43
1263.6
1310.05
1352.51
18033
2302.42
1304.81
1250.58
1191.29
1127.86
1061.11
991.882
920.989
849.316
777.818
707.308
638.985
574.849
517.154
468.161
429.819
403.206
388.111
382.82
384.435
390.748
399.692
409.865
420.377
430.721
440.622
449.926
458.546
466.432
473.55
479.877
485.395
490.089
493.947
496.96
499.12
500.42
500.857
500.43
501.438
503.591
504.308
503.603
501.495
498.019
493.225
487.183
479.994
471.795
462.769
453.156
443.25
433.398
423.971
415.316
407.695
401.205
395.727
390.908
386.208
380.976
374.555
366.357
355.921
342.918
327.151
308.527
287.033
262.712
235.642
205.924
173.668
138.99
119.554
139.565
183.58
229.23
276.414
325.035
374.995
426.198
478.543
531.927
586.239
641.362
697.167
753.515
810.254
867.215
924.208
981.021
1037.41
1093.11
1147.78
1201.04
1252.24
1300.81
1346.63
1388.39
17632.5
2627.59
1339.98
1284.87
1224.57
1160.04
1092.13
1021.67
949.502
876.516
803.676
731.807
662.112
596.596
537.535
487.225
447.652
419.934
403.866
397.644
398.457
404.124
412.481
422.082
432.013
441.76
451.039
459.697
467.647
474.839
481.24
486.828
491.586
495.502
498.564
500.765
502.098
502.559
502.147
500.861
502.155
505.733
507.864
508.555
507.824
505.702
502.235
497.491
491.569
484.604
476.78
468.337
459.574
450.842
442.519
434.963
428.445
423.073
418.734
415.079
411.567
407.541
402.337
395.359
386.134
374.325
359.726
342.235
321.834
298.56
272.488
243.715
212.349
178.506
159.266
179.286
223.737
269.748
317.222
366.062
416.174
467.461
519.828
573.173
627.389
682.359
737.961
794.057
850.497
907.116
963.728
1020.13
1076.07
1131.28
1185.45
1238.18
1288.82
1336.81
1382
1423.09
17037.8
3147.46
1375
1319.08
1257.87
1192.31
1123.31
1051.69
978.308
904.055
829.906
756.701
685.635
618.714
558.233
506.517
465.599
436.645
419.442
412.194
412.277
417.305
425.076
434.113
443.479
452.646
461.325
469.358
476.658
483.175
488.876
493.74
497.753
500.901
503.176
504.571
505.082
504.706
503.443
501.295
502.872
507.876
511.421
513.508
514.154
513.384
511.243
507.796
503.138
497.405
490.78
483.504
475.88
468.264
461.042
454.582
449.164
444.906
441.701
439.206
436.876
434.053
430.062
424.299
416.283
405.666
392.234
375.878
356.574
334.355
309.291
281.477
251.018
218.03
198.851
218.707
263.544
309.864
357.572
406.573
456.775
508.086
560.41
613.651
667.704
722.458
777.792
833.574
889.657
945.879
1002.06
1057.99
1113.44
1168.15
1221.78
1273.95
1324.03
1371.43
1416.01
1456.48
16257
3878.24
1409.84
1353.19
1291.13
1224.65
1154.64
1081.94
1007.41
931.941
856.525
782.013
709.582
641.23
579.267
526.054
483.668
453.335
434.884
426.617
425.976
430.348
437.523
445.997
454.808
463.412
471.508
478.935
485.603
491.462
496.479
500.634
503.912
506.302
507.797
508.391
508.082
506.867
504.749
501.733
503.59
510.022
514.98
518.464
520.486
521.067
520.25
518.096
514.7
510.196
504.766
498.654
492.165
485.661
479.536
474.166
469.843
466.693
464.618
463.275
462.121
460.491
457.706
453.151
446.336
436.905
424.636
409.413
391.206
370.044
345.993
319.145
289.607
257.49
238.274
257.828
302.997
349.569
397.449
446.547
496.771
548.034
600.244
653.307
707.123
761.586
816.578
871.973
927.629
983.39
1039.08
1094.5
1149.41
1203.56
1256.63
1308.23
1357.74
1404.54
1448.5
1488.29
15006.7
4951.9
1444.4
1387.11
1324.31
1256.99
1186.07
1112.38
1036.78
960.178
883.55
807.767
733.984
664.18
600.681
545.881
501.916
470.095
450.335
441.022
439.567
443.246
449.819
457.738
466.011
474.07
481.604
488.446
494.502
499.721
504.069
507.527
510.081
511.721
512.441
512.236
511.105
509.048
506.07
502.176
504.309
512.17
518.543
523.424
526.821
528.753
529.257
528.395
526.258
522.978
518.739
513.786
508.427
503.03
497.996
493.711
490.476
488.427
487.472
487.272
487.283
486.836
485.243
481.884
476.258
468.002
456.884
442.786
425.669
405.559
382.521
356.643
328.031
296.797
277.498
296.668
342.11
388.869
436.853
485.973
536.143
587.278
639.289
692.089
745.58
799.663
854.225
909.145
964.289
1019.5
1074.62
1129.45
1183.77
1237.31
1289.76
1340.76
1389.68
1435.9
1479.29
1518.52
13758.3
6155.7
1478.43
1420.63
1357.22
1289.22
1217.51
1142.96
1066.41
988.762
910.996
833.998
758.894
687.634
622.556
566.093
520.446
487.026
465.855
455.388
453.024
455.981
461.953
469.334
477.091
484.631
491.629
497.909
503.374
507.97
511.664
514.438
516.277
517.173
517.12
516.116
514.161
511.256
507.408
502.625
505.029
514.322
522.111
528.39
533.162
536.443
538.268
538.695
537.813
535.754
532.702
528.901
524.666
520.369
516.419
513.21
511.055
510.097
510.251
511.182
512.344
513.063
512.646
510.465
506.008
498.907
488.924
475.933
459.892
440.822
418.787
393.875
366.189
335.843
316.488
335.268
380.916
427.79
475.8
524.861
574.888
625.8
677.516
729.95
783.013
836.61
890.635
944.974
999.499
1054.07
1108.52
1162.66
1216.29
1269.14
1320.92
1371.26
1419.55
1465.16
1507.98
1546.69
12170.6
7664.54
1511.82
1453.62
1389.75
1321.21
1248.88
1173.62
1096.26
1017.69
938.887
860.754
784.378
711.67
644.979
586.774
539.334
504.18
481.462
469.725
466.376
468.579
473.947
480.805
488.071
495.119
501.607
507.348
512.242
516.233
519.288
521.387
522.519
522.674
521.849
520.044
517.258
513.498
508.769
503.082
505.751
516.478
525.687
533.364
539.512
544.142
547.286
549
549.37
548.529
546.658
544.005
540.887
537.682
534.807
532.665
531.579
531.7
532.949
534.994
537.287
539.152
539.887
538.856
535.543
529.57
520.693
508.781
493.791
475.739
454.688
430.726
403.957
374.494
355.209
373.695
419.478
466.388
514.336
563.241
613.024
663.606
714.912
766.862
819.373
872.356
925.714
979.341
1033.12
1086.91
1140.56
1193.9
1246.72
1298.78
1349.79
1399.38
1446.97
1491.93
1534.14
1572.34
10220.6
9533.06
1544.25
1485.81
1421.67
1352.79
1280.05
1204.27
1126.27
1046.94
967.23
888.071
810.496
736.368
668.04
608.019
558.666
521.632
497.218
484.086
479.672
481.082
485.84
492.19
498.987
505.569
511.572
516.797
521.14
524.542
526.969
528.402
528.829
528.244
526.645
524.032
520.408
515.779
510.155
503.549
506.475
518.641
529.27
538.349
545.874
551.854
556.318
559.318
560.939
561.311
560.617
559.106
557.098
554.976
553.166
552.081
552.049
553.234
555.561
558.7
562.1
565.082
566.938
567.023
564.816
559.932
552.122
541.251
527.271
510.201
490.102
467.061
441.184
412.589
393.628
412.056
457.895
504.752
552.542
601.185
650.607
700.735
751.498
802.823
854.635
906.852
959.387
1012.14
1065.01
1117.86
1170.56
1222.94
1274.81
1325.93
1376.03
1424.76
1471.56
1515.76
1557.28
1594.88
7886.03
11791.3
1575.18
1516.74
1452.59
1383.65
1310.77
1234.74
1156.35
1076.47
996.028
915.98
837.319
761.822
691.849
629.946
578.56
539.489
513.217
498.552
492.977
493.546
497.684
503.536
509.888
516.03
521.572
526.303
530.112
532.936
534.743
535.513
535.236
533.907
531.526
528.095
523.619
518.107
511.571
504.025
507.202
520.809
532.865
543.349
552.255
559.589
565.375
569.662
572.535
574.119
574.6
574.226
573.321
572.275
571.519
571.476
572.485
574.715
578.097
582.302
586.779
590.841
593.776
594.932
593.78
589.931
583.132
573.245
560.223
544.081
524.881
502.715
477.691
449.929
431.719
450.506
496.318
543.027
590.55
638.811
687.74
737.271
787.337
837.873
888.812
940.082
991.604
1043.29
1095.05
1146.77
1198.32
1249.55
1300.28
1350.29
1399.33
1447.04
1492.9
1536.2
1576.87
1613.65
5177.97
14408
1603.8
1545.75
1481.98
1413.36
1340.7
1264.75
1186.3
1106.15
1025.23
944.489
864.888
788.117
716.523
652.691
599.161
557.896
529.593
513.241
506.399
506.072
509.574
514.935
520.861
526.585
531.686
535.939
539.224
541.477
542.663
542.766
541.776
539.692
536.514
532.249
526.903
520.489
513.02
504.513
507.93
522.985
536.471
548.366
558.659
567.352
574.466
580.046
584.174
586.973
588.628
589.388
589.582
589.603
589.89
590.876
592.908
596.162
600.575
605.816
611.331
616.429
620.389
622.556
622.394
619.51
613.648
604.669
592.525
577.235
558.863
537.502
513.266
486.281
469.464
489.262
534.958
581.417
628.556
676.303
724.594
773.365
822.558
872.115
921.979
972.086
1022.37
1072.76
1123.17
1173.51
1223.67
1273.51
1322.89
1371.6
1419.39
1465.94
1510.75
1553.08
1592.78
1628.38
1986.22
17110.5
1628.59
1571.73
1509
1441.27
1369.33
1293.93
1215.82
1135.78
1054.71
973.559
893.245
815.352
742.21
676.433
620.66
577.041
546.515
528.299
520.059
518.761
521.598
526.473
531.989
537.316
541.995
545.782
548.549
550.228
550.787
550.209
548.489
545.629
541.633
536.509
530.27
522.93
514.504
505.012
508.661
525.167
540.092
553.408
565.101
575.168
583.624
590.513
595.909
599.936
602.774
604.675
605.967
607.05
608.371
610.369
613.402
617.651
623.056
629.287
635.787
641.858
646.773
649.871
650.61
648.596
643.572
635.398
624.029
609.487
591.84
571.188
547.65
521.357
506.855
528.621
574.113
620.214
666.845
713.936
761.425
809.256
857.377
905.738
954.289
1002.98
1051.75
1100.55
1149.31
1197.96
1246.4
1294.52
1342.2
1389.26
1435.51
1480.64
1524.25
1565.53
1604.52
1639.92
1670.31
17907.4
1647.64
1593.26
1532.51
1466.42
1395.86
1321.61
1244.39
1164.98
1084.2
1003.03
922.335
843.573
769.026
701.346
643.276
597.166
564.239
543.986
534.216
531.873
534.017
538.402
543.515
548.449
552.704
556.014
558.244
559.324
559.224
557.931
555.444
551.769
546.916
540.898
533.732
525.434
516.023
505.523
509.392
527.352
543.72
558.468
571.575
583.031
592.849
601.064
607.746
613.014
617.046
620.093
622.486
624.629
626.976
629.975
633.991
639.213
645.581
652.763
660.194
667.171
672.959
676.89
678.422
677.158
672.841
665.337
654.604
640.67
623.61
603.532
580.562
554.843
543.905
568.954
614.158
659.795
705.79
752.076
798.594
845.292
892.125
939.049
986.023
1033.01
1079.96
1126.83
1173.58
1220.14
1266.45
1312.42
1357.95
1402.91
1447.13
1490.37
1532.35
1572.38
1610.22
1645.5
1677.01
18107.8
1661.31
1610.05
1551.85
1488.02
1419.49
1347.05
1271.4
1193.25
1113.39
1032.72
952.112
872.861
797.171
727.71
667.327
618.591
583.048
560.522
549.026
545.509
546.896
550.771
555.485
560.038
563.875
566.705
568.382
568.837
568.041
565.988
562.685
558.144
552.385
545.426
537.289
527.998
517.575
506.044
510.123
529.542
547.372
563.579
578.136
591.029
602.262
611.861
619.888
626.455
631.734
635.97
639.493
642.71
646.08
650.058
655.016
661.151
668.404
676.443
684.697
692.457
698.981
703.599
705.764
705.082
701.3
694.288
684.011
670.505
653.855
634.178
611.611
586.306
580.63
610.766
655.605
700.679
745.912
791.242
836.614
881.98
927.3
972.537
1017.66
1062.63
1107.42
1152.01
1196.35
1240.41
1284.14
1327.5
1370.4
1412.76
1454.46
1495.32
1535.1
1573.27
1609.57
1643.81
1674.9
15321.2
3116.82
1620.94
1565.55
1504.52
1438.74
1368.93
1295.7
1219.67
1141.53
1062.12
982.25
903.069
826.658
755.69
693.118
641.747
603.488
578.559
565.231
560.48
561.083
564.428
568.711
572.825
576.165
578.419
579.434
579.146
577.536
574.607
570.377
564.869
558.111
550.132
540.96
530.626
519.154
506.572
510.844
531.705
550.99
568.664
584.693
599.051
611.731
622.747
632.15
640.041
646.584
652.021
656.683
660.98
665.376
670.337
676.239
683.281
691.403
700.265
709.287
717.748
724.899
730.065
732.701
732.416
728.964
722.226
712.179
698.871
682.401
662.898
640.516
615.417
617.089
654.54
698.936
743.355
787.718
831.957
876.021
919.868
963.463
1006.77
1049.77
1092.44
1134.75
1176.68
1218.22
1259.35
1300.03
1340.26
1379.97
1419.14
1457.68
1495.49
1532.41
1568
1602.01
1634.37
1664.15
11502.9
7121.48
1625.58
1572.56
1514.65
1452.35
1386.08
1316.29
1243.43
1168.06
1090.87
1012.64
934.319
857.807
785.737
721.143
667.076
625.857
598.184
582.688
576.442
576.099
578.835
582.659
586.335
589.181
590.849
591.176
590.098
587.606
583.719
578.47
571.901
564.056
554.977
544.707
533.283
520.739
507.099
511.561
533.884
554.683
573.913
591.536
607.515
621.824
634.461
645.456
654.887
662.9
669.718
675.658
681.12
686.569
692.472
699.219
707.015
715.804
725.244
734.751
743.6
751.046
756.418
759.182
758.956
755.506
748.726
738.605
725.206
708.639
689.05
666.602
645.112
657.075
701.07
744.935
788.582
831.939
874.947
917.551
959.704
1001.38
1042.55
1083.19
1123.29
1162.83
1201.8
1240.19
1277.98
1315.18
1351.77
1387.75
1423.08
1457.75
1491.69
1524.82
1556.84
1587.56
1616.97
1644.32
7440.89
11161.7
1621.44
1571.65
1517.59
1459.5
1397.59
1332.12
1263.38
1191.77
1117.85
1042.29
965.872
890.22
817.876
751.911
695.597
651.678
621.394
603.811
596.141
594.895
597.004
600.254
603.27
605.315
606.035
605.284
603.028
599.283
594.095
587.521
579.623
570.464
560.104
548.598
535.992
522.324
507.618
512.229
535.896
558.108
578.834
598.016
615.596
631.523
645.762
658.316
669.24
678.665
686.812
694.006
700.657
707.214
714.115
721.743
730.304
739.746
749.727