/*--------------------------------*- C++ -*----------------------------------*\
  =========                 |
  \\      /  F ield         | OpenFOAM: The Open Source CFD Toolbox
   \\    /   O peration     | Website:  https://openfoam.org
    \\  /    A nd           | Version:  8
     \\/     M anipulation  |
\*---------------------------------------------------------------------------*/
FoamFile
{
    version     2.0;
    format      ascii;
    class       volScalarField;
    location    "500/fluid";
    object      rho;
}
// * * * * * * * * * * * * * * * * * * * * * * * * * * * * * * * * * * * * * //

dimensions      [1 -3 0 0 0 0 0];

internalField   nonuniform List<scalar> 
4000
(
0.658526
0.6585
0.658457
0.658385
0.658265
0.658065
0.657737
0.657202
0.656338
0.654964
0.652813
0.649512
0.644567
0.637374
0.627279
0.613693
0.596266
0.575064
0.550648
0.524
0.496321
0.468768
0.442266
0.417424
0.394559
0.373755
0.35495
0.337994
0.322704
0.308888
0.296363
0.284968
0.274561
0.265023
0.256255
0.248164
0.240643
0.233625
0.227058
0.220899
0.215109
0.209657
0.204515
0.199661
0.195075
0.190741
0.186646
0.182778
0.179128
0.17569
0.172458
0.16943
0.166606
0.163988
0.161582
0.159398
0.157452
0.155777
0.154422
0.153367
0.152711
0.152543
0.152999
0.161612
0.171847
0.183904
0.198067
0.214716
0.23435
0.257623
0.285388
0.318744
0.359105
0.408374
0.468929
0.543024
0.631991
0.734601
0.844801
0.950951
1.03966
1.10307
1.14225
1.16367
1.17443
1.17957
1.18193
1.183
1.18347
1.18367
1.18376
1.18379
1.18381
1.18382
1.18382
1.18382
1.18382
1.18382
1.18382
1.18382
0.658526
0.6585
0.658457
0.658384
0.658263
0.658061
0.657729
0.657188
0.656316
0.654929
0.652763
0.649448
0.644498
0.637323
0.627285
0.613811
0.596559
0.57558
0.551405
0.52498
0.49747
0.470015
0.443539
0.418665
0.395727
0.374826
0.355912
0.338848
0.323453
0.30954
0.296928
0.285454
0.274976
0.265375
0.25655
0.248411
0.240847
0.23379
0.22719
0.221
0.215183
0.209706
0.204542
0.199667
0.195064
0.190714
0.186604
0.182724
0.179064
0.175616
0.172377
0.169343
0.166514
0.163894
0.161489
0.159309
0.157373
0.155721
0.154395
0.153391
0.152824
0.152806
0.153517
0.162371
0.172858
0.185203
0.199708
0.21678
0.23695
0.260915
0.289579
0.324116
0.36603
0.417359
0.480548
0.557754
0.649922
0.754912
0.865353
0.968751
1.05249
1.11074
1.14616
1.16546
1.17519
1.17987
1.18205
1.18304
1.18348
1.18368
1.18376
1.1838
1.18381
1.18382
1.18382
1.18382
1.18382
1.18382
1.18382
1.18382
0.658526
0.6585
0.658456
0.658383
0.65826
0.658056
0.657721
0.657175
0.656296
0.654901
0.652727
0.649404
0.64445
0.637283
0.627274
0.613866
0.596727
0.575905
0.551914
0.525674
0.498325
0.470988
0.44458
0.419726
0.396766
0.375816
0.356836
0.339694
0.324219
0.310225
0.297536
0.285988
0.275442
0.265777
0.256893
0.2487
0.241087
0.233985
0.227343
0.221114
0.215261
0.209751
0.204556
0.199655
0.195026
0.190654
0.186524
0.182625
0.178948
0.175486
0.172235
0.169191
0.166355
0.163729
0.161322
0.159144
0.157215
0.155584
0.154286
0.153326
0.152831
0.152942
0.154598
0.163771
0.174618
0.187381
0.202391
0.220083
0.241023
0.265955
0.295838
0.331911
0.375755
0.429508
0.495553
0.575772
0.670496
0.776569
0.885597
0.985002
1.06353
1.11717
1.14946
1.16702
1.17589
1.18017
1.18218
1.1831
1.18351
1.18369
1.18376
1.1838
1.18381
1.18382
1.18382
1.18382
1.18382
1.18382
1.18382
1.18382
0.658526
0.6585
0.658456
0.658382
0.658259
0.658054
0.657718
0.65717
0.65629
0.654894
0.65272
0.649404
0.644468
0.637338
0.627394
0.614079
0.59706
0.576376
0.552529
0.526419
0.499171
0.471897
0.445512
0.420649
0.397656
0.376656
0.357614
0.340407
0.324865
0.310805
0.298051
0.286443
0.275838
0.266118
0.257182
0.248941
0.241284
0.23414
0.227458
0.22119
0.215302
0.20976
0.204536
0.199606
0.194952
0.190555
0.186403
0.182484
0.17879
0.175312
0.172047
0.168992
0.166147
0.163515
0.161103
0.158924
0.156995
0.155369
0.154074
0.153116
0.152617
0.152696
0.156251
0.1657
0.176903
0.190115
0.205682
0.224064
0.24586
0.271855
0.30306
0.340769
0.38665
0.442909
0.511826
0.594989
0.692097
0.799003
0.906382
1.00168
1.07499
1.124
1.15309
1.16879
1.17671
1.18054
1.18234
1.18316
1.18353
1.1837
1.18377
1.1838
1.18381
1.18382
1.18382
1.18382
1.18382
1.18382
1.18382
1.18382
0.658526
0.6585
0.658456
0.658382
0.658258
0.658053
0.657717
0.657169
0.656289
0.654894
0.652724
0.649416
0.644498
0.6374
0.627505
0.614261
0.597335
0.576761
0.553026
0.527019
0.499849
0.472624
0.446257
0.421386
0.398364
0.377321
0.358229
0.340968
0.32537
0.311256
0.29845
0.286791
0.276138
0.266372
0.257393
0.249111
0.241414
0.234232
0.227514
0.221216
0.215298
0.209727
0.204475
0.199519
0.19484
0.190421
0.186249
0.182312
0.178601
0.175109
0.171832
0.168768
0.165916
0.163279
0.160866
0.158687
0.156761
0.155147
0.153867
0.152926
0.152447
0.152558
0.15812
0.167846
0.179413
0.193086
0.209227
0.228319
0.250994
0.278073
0.310617
0.34997
0.397889
0.456618
0.528288
0.614151
0.713236
0.82043
0.925668
1.0167
1.08505
1.1299
1.1562
1.17032
1.17742
1.18087
1.18248
1.18323
1.18356
1.18371
1.18377
1.1838
1.18381
1.18382
1.18382
1.18382
1.18382
1.18382
1.18382
1.18382
0.658526
0.6585
0.658456
0.658382
0.658258
0.658054
0.657718
0.657171
0.656293
0.654903
0.652741
0.649447
0.644551
0.637487
0.627642
0.614464
0.597617
0.57713
0.553479
0.527542
0.500422
0.473222
0.446857
0.421968
0.398916
0.377833
0.358696
0.341389
0.325745
0.311586
0.298736
0.287035
0.276343
0.266539
0.257523
0.249205
0.241476
0.234265
0.22752
0.221194
0.215249
0.209652
0.204377
0.199399
0.194699
0.19026
0.186071
0.182118
0.178394
0.174891
0.171606
0.168536
0.165681
0.163044
0.160634
0.158462
0.156551
0.154957
0.153693
0.152768
0.152314
0.152473
0.159978
0.169959
0.18189
0.19603
0.21275
0.232553
0.256099
0.284247
0.3181
0.359054
0.408956
0.470052
0.544313
0.632641
0.733389
0.840551
0.943485
1.03038
1.09415
1.13524
1.15904
1.17173
1.17809
1.18117
1.18262
1.18329
1.18359
1.18372
1.18378
1.1838
1.18381
1.18382
1.18382
1.18382
1.18382
1.18382
1.18382
1.18382
0.658526
0.6585
0.658456
0.658382
0.658259
0.658055
0.657719
0.657174
0.656299
0.654914
0.652759
0.649478
0.644603
0.637569
0.627765
0.614642
0.597859
0.57744
0.553854
0.52797
0.500884
0.473696
0.447327
0.422418
0.399335
0.378216
0.35904
0.341693
0.32601
0.311813
0.298927
0.287192
0.276466
0.26663
0.257584
0.249239
0.241485
0.23425
0.22748
0.22113
0.215163
0.209546
0.20425
0.199253
0.194536
0.190082
0.185879
0.181914
0.17818
0.17467
0.17138
0.168309
0.165456
0.162827
0.160429
0.158275
0.156383
0.154821
0.153584
0.15269
0.152257
0.152403
0.161149
0.171629
0.184056
0.198731
0.21606
0.236576
0.260976
0.290158
0.32527
0.367758
0.419555
0.482881
0.559544
0.650075
0.752161
0.858978
0.959468
1.0424
1.10201
1.1398
1.16146
1.17292
1.17866
1.18143
1.18274
1.18334
1.18361
1.18373
1.18378
1.1838
1.18381
1.18382
1.18382
1.18382
1.18382
1.18382
1.18382
1.18382
0.658526
0.6585
0.658456
0.658382
0.658259
0.658056
0.657722
0.657178
0.656306
0.654925
0.652779
0.64951
0.644654
0.637647
0.627879
0.614801
0.59807
0.577704
0.554165
0.528316
0.501249
0.474066
0.447685
0.422755
0.399643
0.378491
0.359282
0.3419
0.326184
0.311956
0.299039
0.287275
0.276522
0.266662
0.257594
0.249228
0.241452
0.234195
0.227405
0.221037
0.215051
0.209416
0.204105
0.199093
0.194362
0.189896
0.185682
0.181709
0.177968
0.174454
0.171164
0.168094
0.165248
0.162631
0.160251
0.158124
0.156281
0.154792
0.153614
0.152864
0.152643
0.153118
0.162303
0.173217
0.186098
0.201273
0.219173
0.240361
0.265563
0.295716
0.332009
0.375942
0.429515
0.494911
0.573762
0.666233
0.769367
0.875615
0.973651
1.0529
1.10879
1.14372
1.16353
1.17395
1.17915
1.18166
1.18284
1.18338
1.18363
1.18374
1.18379
1.18381
1.18382
1.18382
1.18382
1.18382
1.18382
1.18382
1.18382
1.18382
0.658526
0.6585
0.658456
0.658383
0.65826
0.658057
0.657724
0.657182
0.656312
0.654936
0.652797
0.649539
0.644699
0.637714
0.627976
0.614935
0.598244
0.577917
0.554413
0.528587
0.501531
0.474345
0.447951
0.422999
0.399861
0.37868
0.359442
0.342031
0.326288
0.312032
0.299091
0.287305
0.276533
0.266653
0.257566
0.249181
0.241387
0.234113
0.227307
0.220923
0.214923
0.209275
0.20395
0.198927
0.194185
0.18971
0.185488
0.181509
0.177764
0.174248
0.170958
0.167893
0.165055
0.16245
0.160089
0.157991
0.156194
0.154759
0.153662
0.153046
0.153051
0.154072
0.163575
0.17483
0.188091
0.203701
0.22211
0.243905
0.26984
0.300885
0.338266
0.383538
0.438758
0.50605
0.58687
0.68102
0.78494
0.89045
0.986084
1.06195
1.11457
1.14702
1.16527
1.17481
1.17956
1.18185
1.18293
1.18342
1.18365
1.18375
1.18379
1.18381
1.18382
1.18382
1.18382
1.18382
1.18382
1.18382
1.18382
1.18382
0.658526
0.6585
0.658456
0.658383
0.658261
0.658059
0.657726
0.657186
0.656318
0.654946
0.652813
0.649565
0.644738
0.637772
0.628058
0.615044
0.598384
0.578087
0.554605
0.528794
0.501742
0.474549
0.44814
0.423168
0.400006
0.378801
0.359537
0.342103
0.326336
0.312061
0.299102
0.287298
0.276508
0.266612
0.257509
0.249109
0.241302
0.234014
0.227195
0.220799
0.214787
0.209128
0.203794
0.198761
0.194012
0.18953
0.185302
0.181319
0.177572
0.174055
0.170766
0.167705
0.164872
0.162275
0.159924
0.157838
0.156059
0.154638
0.153549
0.152922
0.15287
0.155217
0.164937
0.176452
0.190022
0.206001
0.224855
0.247189
0.273783
0.305634
0.344004
0.390502
0.447222
0.516222
0.598795
0.694382
0.798868
0.903539
0.996884
1.0697
1.11946
1.1498
1.16673
1.17554
1.17991
1.18201
1.183
1.18345
1.18366
1.18375
1.18379
1.18381
1.18382
1.18382
1.18382
1.18382
1.18382
1.18382
1.18382
1.18382
0.658526
0.6585
0.658457
0.658383
0.658262
0.65806
0.657728
0.657189
0.656324
0.654955
0.652827
0.649586
0.64477
0.637818
0.628123
0.615131
0.598493
0.578217
0.554751
0.528947
0.501894
0.474692
0.448269
0.423277
0.400095
0.378868
0.359584
0.34213
0.326347
0.312056
0.299081
0.287263
0.276459
0.26655
0.257435
0.249024
0.241205
0.233907
0.227077
0.220672
0.214651
0.208984
0.203642
0.198603
0.193848
0.189361
0.185129
0.181143
0.177395
0.173879
0.170592
0.167533
0.164705
0.162114
0.159771
0.157693
0.155923
0.154511
0.153429
0.152803
0.152746
0.156366
0.166263
0.177994
0.191827
0.208127
0.227372
0.250185
0.277366
0.309941
0.349199
0.396804
0.454873
0.5254
0.609512
0.706317
0.811189
0.91497
1.00618
1.07629
1.12358
1.15213
1.16795
1.17614
1.1802
1.18215
1.18306
1.18348
1.18367
1.18376
1.18379
1.18381
1.18382
1.18382
1.18382
1.18382
1.18382
1.18382
1.18382
1.18382
0.658526
0.6585
0.658457
0.658384
0.658262
0.658061
0.65773
0.657192
0.656328
0.654962
0.652838
0.649603
0.644796
0.637855
0.628174
0.615198
0.598576
0.578313
0.554857
0.529056
0.501999
0.474787
0.448349
0.423341
0.400141
0.378897
0.359597
0.342129
0.326332
0.312027
0.29904
0.28721
0.276396
0.266476
0.257352
0.248932
0.241104
0.233798
0.226961
0.220548
0.214521
0.208847
0.2035
0.198456
0.193696
0.189206
0.184973
0.180986
0.177237
0.173722
0.170438
0.167382
0.164559
0.161975
0.159639
0.157569
0.15581
0.154408
0.153332
0.152713
0.152661
0.157409
0.167468
0.179392
0.193459
0.210042
0.229633
0.252869
0.280572
0.313789
0.353836
0.402427
0.461701
0.533574
0.619024
0.716847
0.821965
0.924852
1.01412
1.08185
1.12702
1.15406
1.16896
1.17664
1.18043
1.18226
1.18311
1.1835
1.18368
1.18376
1.1838
1.18381
1.18382
1.18382
1.18382
1.18382
1.18382
1.18382
1.18382
1.18382
0.658526
0.6585
0.658457
0.658384
0.658262
0.658061
0.657731
0.657194
0.656332
0.654968
0.652847
0.649617
0.644816
0.637884
0.628212
0.615248
0.598637
0.578383
0.554931
0.52913
0.502067
0.474845
0.448394
0.423371
0.400157
0.3789
0.359587
0.342107
0.326298
0.311983
0.298986
0.287148
0.276325
0.266398
0.257267
0.24884
0.241006
0.233693
0.22685
0.220432
0.2144
0.208722
0.20337
0.198323
0.193561
0.18907
0.184835
0.180848
0.177101
0.173588
0.170306
0.167255
0.164438
0.161859
0.159532
0.157471
0.155723
0.154329
0.153263
0.152652
0.152609
0.158313
0.168522
0.180621
0.194895
0.211728
0.231621
0.255227
0.283384
0.317163
0.357905
0.407367
0.467695
0.540743
0.627344
0.726009
0.831268
0.933301
1.02084
1.0865
1.12988
1.15566
1.1698
1.17705
1.18063
1.18235
1.18315
1.18352
1.18369
1.18376
1.1838
1.18381
1.18382
1.18382
1.18382
1.18382
1.18382
1.18382
1.18382
1.18382
0.658526
0.6585
0.658457
0.658384
0.658263
0.658062
0.657732
0.657195
0.656334
0.654972
0.652854
0.649627
0.644831
0.637905
0.628241
0.615284
0.59868
0.578431
0.55498
0.529177
0.502107
0.474876
0.448414
0.42338
0.400154
0.378885
0.359562
0.342072
0.326255
0.311932
0.298928
0.287083
0.276254
0.266322
0.257185
0.248753
0.240914
0.233597
0.22675
0.220328
0.214292
0.208611
0.203257
0.198208
0.193445
0.188952
0.184718
0.180731
0.176986
0.173475
0.170197
0.167151
0.16434
0.161768
0.159449
0.157396
0.155658
0.154274
0.153217
0.152615
0.152583
0.159079
0.169422
0.181676
0.196131
0.213178
0.233333
0.257259
0.285811
0.320078
0.361421
0.411637
0.472875
0.546931
0.634507
0.733863
0.839189
0.94043
1.02645
1.09036
1.13224
1.15698
1.17048
1.17739
1.18079
1.18242
1.18319
1.18354
1.1837
1.18377
1.1838
1.18381
1.18382
1.18382
1.18382
1.18382
1.18382
1.18382
1.18382
1.18382
0.658526
0.6585
0.658457
0.658384
0.658263
0.658062
0.657733
0.657197
0.656336
0.654975
0.652859
0.649635
0.644842
0.637921
0.628262
0.61531
0.59871
0.578463
0.555012
0.529204
0.502128
0.474889
0.448417
0.423373
0.400138
0.37886
0.359529
0.342032
0.326208
0.31188
0.298871
0.28702
0.276187
0.266251
0.257111
0.248676
0.240833
0.233513
0.226663
0.220238
0.2142
0.208517
0.203161
0.198111
0.193347
0.188855
0.184621
0.180636
0.176893
0.173386
0.170112
0.167071
0.164265
0.1617
0.159387
0.157341
0.155613
0.154237
0.153189
0.152595
0.152575
0.159715
0.170177
0.182564
0.197174
0.214406
0.234783
0.25898
0.287867
0.322546
0.3644
0.415256
0.477265
0.55217
0.640558
0.740472
0.845815
0.94635
1.03107
1.09351
1.13415
1.15804
1.17103
1.17766
1.18092
1.18248
1.18321
1.18355
1.1837
1.18377
1.1838
1.18381
1.18382
1.18382
1.18382
1.18382
1.18382
1.18382
1.18382
1.18382
0.658526
0.6585
0.658457
0.658384
0.658263
0.658063
0.657733
0.657198
0.656338
0.654978
0.652863
0.649641
0.64485
0.637932
0.628276
0.615327
0.598729
0.578483
0.55503
0.529219
0.502137
0.47489
0.44841
0.423358
0.400116
0.378832
0.359494
0.341992
0.326164
0.311831
0.298818
0.286965
0.276129
0.26619
0.257047
0.24861
0.240765
0.233442
0.22659
0.220164
0.214124
0.20844
0.203084
0.198033
0.19327
0.188778
0.184546
0.180563
0.176822
0.173318
0.170049
0.167012
0.164212
0.161652
0.159345
0.157306
0.155583
0.15421
0.15316
0.152557
0.152515
0.160233
0.170798
0.183297
0.198037
0.215422
0.235982
0.260404
0.289566
0.324586
0.366861
0.418246
0.48089
0.556491
0.645539
0.745893
0.851225
0.951155
1.0348
1.09604
1.13568
1.15888
1.17147
1.17787
1.18102
1.18253
1.18324
1.18356
1.18371
1.18377
1.1838
1.18381
1.18382
1.18382
1.18382
1.18382
1.18382
1.18382
1.18382
1.18382
0.658526
0.6585
0.658457
0.658384
0.658263
0.658063
0.657734
0.657198
0.656339
0.65498
0.652866
0.649645
0.644856
0.637939
0.628286
0.615338
0.598742
0.578495
0.55504
0.529225
0.502138
0.474885
0.448399
0.423341
0.400093
0.378804
0.359462
0.341956
0.326125
0.311789
0.298774
0.286919
0.276081
0.26614
0.256996
0.248558
0.240711
0.233387
0.226534
0.220107
0.214067
0.208382
0.203026
0.197975
0.193212
0.188722
0.184491
0.180511
0.176773
0.173273
0.170007
0.166975
0.164179
0.161625
0.159324
0.15729
0.155574
0.154206
0.15316
0.152558
0.152517
0.160642
0.171293
0.183886
0.19873
0.216237
0.236944
0.261543
0.290924
0.326213
0.368822
0.420627
0.483773
0.559923
0.649486
0.750175
0.85548
0.954915
1.0377
1.09801
1.13687
1.15954
1.1718
1.17804
1.1811
1.18257
1.18325
1.18357
1.18371
1.18377
1.1838
1.18381
1.18382
1.18382
1.18382
1.18382
1.18382
1.18382
1.18382
1.18382
0.658526
0.6585
0.658457
0.658385
0.658264
0.658063
0.657734
0.657199
0.65634
0.654981
0.652867
0.649647
0.64486
0.637944
0.628292
0.615345
0.598749
0.578502
0.555045
0.529226
0.502135
0.474878
0.448387
0.423325
0.400073
0.37878
0.359436
0.341927
0.326094
0.311757
0.29874
0.286884
0.276045
0.266103
0.256959
0.24852
0.240672
0.233348
0.226495
0.220067
0.214027
0.208342
0.202986
0.197936
0.193174
0.188685
0.184456
0.180478
0.176743
0.173246
0.169983
0.166956
0.164165
0.161617
0.159321
0.157293
0.155582
0.154218
0.153174
0.15257
0.152523
0.160947
0.171668
0.184333
0.199258
0.216858
0.237674
0.262407
0.29195
0.327439
0.370297
0.422414
0.485934
0.562489
0.652429
0.753357
0.858626
0.957682
1.03983
1.09944
1.13774
1.16002
1.17205
1.17816
1.18116
1.1826
1.18327
1.18357
1.18371
1.18377
1.1838
1.18381
1.18382
1.18382
1.18382
1.18382
1.18382
1.18382
1.18382
1.18382
0.658526
0.6585
0.658457
0.658385
0.658264
0.658063
0.657734
0.657199
0.65634
0.654982
0.652869
0.649649
0.644862
0.637947
0.628295
0.61535
0.598753
0.578505
0.555047
0.529226
0.502132
0.474872
0.448378
0.423313
0.400058
0.378764
0.359417
0.341908
0.326073
0.311735
0.298718
0.28686
0.276021
0.266079
0.256935
0.248496
0.240649
0.233325
0.226471
0.220043
0.214003
0.208318
0.202963
0.197914
0.193153
0.188665
0.184438
0.180462
0.176729
0.173235
0.169976
0.166952
0.164166
0.161622
0.159331
0.157308
0.155602
0.154241
0.153196
0.152588
0.15253
0.161149
0.171924
0.184643
0.199624
0.217287
0.238177
0.262997
0.292648
0.32827
0.371293
0.423616
0.48738
0.564201
0.654385
0.75546
0.860694
0.959489
1.04121
1.10037
1.1383
1.16033
1.17221
1.17824
1.1812
1.18261
1.18327
1.18358
1.18371
1.18377
1.1838
1.18381
1.18382
1.18382
1.18382
1.18382
1.18382
1.18382
1.18382
1.18382
0.658526
0.6585
0.658457
0.658385
0.658264
0.658063
0.657734
0.657199
0.656341
0.654982
0.652869
0.64965
0.644863
0.637949
0.628297
0.615351
0.598755
0.578507
0.555047
0.529226
0.502131
0.474868
0.448373
0.423307
0.400051
0.378755
0.359408
0.341898
0.326063
0.311724
0.298706
0.286849
0.276009
0.266068
0.256924
0.248485
0.240638
0.233314
0.226461
0.220033
0.213993
0.208309
0.202954
0.197905
0.193145
0.188658
0.184432
0.180457
0.176727
0.173235
0.169978
0.166957
0.164174
0.161633
0.159346
0.157326
0.155623
0.154263
0.153218
0.152605
0.152535
0.16125
0.172059
0.184808
0.199819
0.217514
0.23844
0.263303
0.293006
0.328692
0.371793
0.424214
0.488094
0.565039
0.655334
0.756473
0.861681
0.960343
1.04186
1.10081
1.13856
1.16047
1.17229
1.17828
1.18122
1.18262
1.18328
1.18358
1.18371
1.18378
1.1838
1.18381
1.18382
1.18382
1.18382
1.18382
1.18382
1.18382
1.18382
1.18382
0.658526
0.6585
0.658457
0.658385
0.658264
0.658063
0.657734
0.657199
0.656341
0.654982
0.652869
0.64965
0.644863
0.637948
0.628297
0.615351
0.598755
0.578506
0.555047
0.529225
0.50213
0.474868
0.448373
0.423306
0.40005
0.378755
0.359408
0.341897
0.326062
0.311724
0.298706
0.286849
0.276009
0.266068
0.256923
0.248485
0.240638
0.233314
0.226461
0.220033
0.213993
0.208309
0.202954
0.197905
0.193145
0.188658
0.184432
0.180457
0.176727
0.173234
0.169978
0.166957
0.164174
0.161633
0.159346
0.157326
0.155623
0.154263
0.153218
0.152605
0.152535
0.16125
0.17206
0.184809
0.199819
0.217514
0.23844
0.263303
0.293006
0.328692
0.371794
0.424215
0.488095
0.56504
0.655335
0.756474
0.861683
0.960344
1.04186
1.10081
1.13856
1.16047
1.17229
1.17828
1.18122
1.18262
1.18328
1.18358
1.18371
1.18378
1.1838
1.18381
1.18382
1.18382
1.18382
1.18382
1.18382
1.18382
1.18382
1.18382
0.658526
0.6585
0.658457
0.658385
0.658264
0.658063
0.657734
0.657199
0.65634
0.654982
0.652868
0.649649
0.644862
0.637947
0.628295
0.615349
0.598752
0.578504
0.555045
0.529224
0.502131
0.47487
0.448376
0.423311
0.400057
0.378762
0.359416
0.341907
0.326072
0.311734
0.298717
0.286859
0.27602
0.266079
0.256934
0.248495
0.240648
0.233324
0.22647
0.220043
0.214002
0.208318
0.202962
0.197914
0.193153
0.188665
0.184438
0.180461
0.176729
0.173235
0.169976
0.166952
0.164166
0.161622
0.159331
0.157308
0.155602
0.15424
0.153196
0.152588
0.15253
0.16115
0.171925
0.184644
0.199625
0.217288
0.238178
0.262999
0.29265
0.328272
0.371295
0.423618
0.487383
0.564204
0.654388
0.755464
0.860698
0.959492
1.04121
1.10038
1.1383
1.16033
1.17221
1.17824
1.1812
1.18261
1.18327
1.18358
1.18371
1.18377
1.1838
1.18381
1.18382
1.18382
1.18382
1.18382
1.18382
1.18382
1.18382
1.18382
0.658526
0.6585
0.658457
0.658385
0.658264
0.658063
0.657734
0.657199
0.65634
0.654981
0.652867
0.649647
0.644859
0.637943
0.628291
0.615344
0.598747
0.578499
0.555042
0.529224
0.502132
0.474875
0.448384
0.423322
0.40007
0.378778
0.359434
0.341926
0.326092
0.311755
0.298739
0.286882
0.276044
0.266102
0.256958
0.248519
0.240672
0.233347
0.226494
0.220066
0.214026
0.208341
0.202985
0.197935
0.193174
0.188684
0.184456
0.180477
0.176742
0.173245
0.169983
0.166955
0.164165
0.161616
0.15932
0.157293
0.155582
0.154218
0.153174
0.15257
0.152523
0.160948
0.171669
0.184335
0.19926
0.21686
0.237676
0.262409
0.291952
0.327442
0.370301
0.422418
0.485938
0.562495
0.652435
0.753363
0.858632
0.957687
1.03983
1.09945
1.13774
1.16002
1.17205
1.17816
1.18116
1.1826
1.18327
1.18357
1.18371
1.18377
1.1838
1.18381
1.18382
1.18382
1.18382
1.18382
1.18382
1.18382
1.18382
1.18382
0.658526
0.6585
0.658457
0.658384
0.658263
0.658063
0.657734
0.657198
0.656339
0.654979
0.652865
0.649644
0.644855
0.637938
0.628284
0.615336
0.598739
0.578492
0.555036
0.529221
0.502134
0.474881
0.448395
0.423337
0.400089
0.378801
0.359459
0.341954
0.326122
0.311787
0.298772
0.286917
0.276079
0.266139
0.256995
0.248556
0.24071
0.233386
0.226533
0.220106
0.214066
0.208381
0.203025
0.197974
0.193212
0.188721
0.18449
0.18051
0.176772
0.173272
0.170006
0.166974
0.164178
0.161625
0.159323
0.15729
0.155574
0.154206
0.15316
0.152557
0.152517
0.160644
0.171295
0.183888
0.198732
0.216239
0.236947
0.261546
0.290927
0.326217
0.368827
0.420633
0.48378
0.559931
0.649495
0.750185
0.855489
0.954923
1.03771
1.09801
1.13687
1.15954
1.17181
1.17804
1.1811
1.18257
1.18325
1.18357
1.18371
1.18377
1.1838
1.18381
1.18382
1.18382
1.18382
1.18382
1.18382
1.18382
1.18382
1.18382
0.658526
0.6585
0.658457
0.658384
0.658263
0.658063
0.657733
0.657198
0.656338
0.654978
0.652862
0.64964
0.644849
0.63793
0.628274
0.615324
0.598726
0.578479
0.555025
0.529214
0.502132
0.474885
0.448405
0.423354
0.400111
0.378828
0.35949
0.341989
0.326161
0.311828
0.298816
0.286963
0.276127
0.266188
0.257045
0.248608
0.240763
0.233441
0.226589
0.220162
0.214123
0.208439
0.203083
0.198032
0.193269
0.188777
0.184545
0.180562
0.176821
0.173318
0.170048
0.167012
0.164211
0.161652
0.159344
0.157305
0.155582
0.15421
0.15316
0.152557
0.152515
0.160235
0.1708
0.1833
0.19804
0.215425
0.235986
0.260408
0.289571
0.324591
0.366867
0.418254
0.480899
0.556501
0.645551
0.745905
0.851237
0.951165
1.0348
1.09605
1.13569
1.15889
1.17147
1.17788
1.18102
1.18253
1.18324
1.18356
1.18371
1.18377
1.1838
1.18381
1.18382
1.18382
1.18382
1.18382
1.18382
1.18382
1.18382
1.18382
0.658526
0.6585
0.658457
0.658384
0.658263
0.658062
0.657733
0.657197
0.656336
0.654975
0.652859
0.649634
0.644841
0.637919
0.628259
0.615306
0.598706
0.578458
0.555006
0.529198
0.502122
0.474882
0.448411
0.423367
0.400132
0.378855
0.359524
0.342028
0.326205
0.311876
0.298867
0.287018
0.276185
0.266249
0.257109
0.248674
0.240831
0.233511
0.226661
0.220236
0.214198
0.208515
0.20316
0.19811
0.193346
0.188854
0.18462
0.180635
0.176892
0.173385
0.170111
0.16707
0.164264
0.161699
0.159386
0.157341
0.155612
0.154236
0.153188
0.152594
0.152575
0.159717
0.17018
0.182567
0.197178
0.21441
0.234787
0.258986
0.287873
0.322553
0.364408
0.415265
0.477276
0.552183
0.640572
0.740486
0.845829
0.946363
1.03108
1.09352
1.13416
1.15804
1.17103
1.17766
1.18092
1.18248
1.18321
1.18355
1.1837
1.18377
1.1838
1.18381
1.18382
1.18382
1.18382
1.18382
1.18382
1.18382
1.18382
1.18382
0.658526
0.6585
0.658457
0.658384
0.658263
0.658062
0.657732
0.657195
0.656334
0.654972
0.652853
0.649626
0.64483
0.637903
0.628238
0.61528
0.598675
0.578425
0.554974
0.529169
0.5021
0.474869
0.448406
0.423373
0.400147
0.37888
0.359557
0.342067
0.32625
0.311928
0.298924
0.287079
0.276251
0.266319
0.257182
0.248751
0.240912
0.233595
0.226748
0.220326
0.21429
0.208609
0.203255
0.198206
0.193443
0.188951
0.184716
0.18073
0.176985
0.173474
0.170196
0.16715
0.164339
0.161768
0.159448
0.157396
0.155657
0.154273
0.153217
0.152615
0.152583
0.159082
0.169426
0.18168
0.196135
0.213183
0.233338
0.257265
0.285818
0.320086
0.36143
0.411648
0.472888
0.546946
0.634524
0.733881
0.839207
0.940446
1.02646
1.09037
1.13224
1.15698
1.17048
1.17739
1.18079
1.18242
1.18319
1.18354
1.1837
1.18377
1.1838
1.18381
1.18382
1.18382
1.18382
1.18382
1.18382
1.18382
1.18382
1.18382
0.658526
0.6585
0.658457
0.658384
0.658262
0.658061
0.657731
0.657194
0.656331
0.654967
0.652846
0.649616
0.644814
0.637881
0.628209
0.615243
0.598631
0.578376
0.554923
0.529121
0.502058
0.474837
0.448386
0.423364
0.40015
0.378893
0.359581
0.342101
0.326293
0.311978
0.298982
0.287144
0.276321
0.266395
0.257264
0.248837
0.241003
0.233691
0.226848
0.22043
0.214398
0.20872
0.203368
0.198321
0.19356
0.189068
0.184834
0.180847
0.177099
0.173586
0.170305
0.167254
0.164437
0.161858
0.159531
0.15747
0.155722
0.154328
0.153263
0.152652
0.152609
0.158317
0.168526
0.180626
0.1949
0.211734
0.231627
0.255234
0.283392
0.317173
0.357916
0.40738
0.46771
0.540761
0.627364
0.726031
0.83129
0.93332
1.02085
1.08651
1.12989
1.15567
1.1698
1.17705
1.18063
1.18235
1.18315
1.18352
1.18369
1.18376
1.1838
1.18381
1.18382
1.18382
1.18382
1.18382
1.18382
1.18382
1.18382
1.18382
0.658526
0.6585
0.658457
0.658384
0.658262
0.65806
0.657729
0.657191
0.656328
0.654961
0.652837
0.649602
0.644794
0.637853
0.62817
0.615193
0.59857
0.578306
0.554848
0.529047
0.501989
0.474778
0.44834
0.423332
0.400132
0.378889
0.35959
0.342123
0.326326
0.312022
0.299035
0.287205
0.276391
0.266473
0.257348
0.248928
0.241101
0.233795
0.226958
0.220545
0.214518
0.208845
0.203497
0.198454
0.193694
0.189205
0.184971
0.180984
0.177236
0.173721
0.170436
0.167381
0.164558
0.161974
0.159638
0.157568
0.15581
0.154407
0.153332
0.152712
0.152661
0.157413
0.167473
0.179398
0.193465
0.210049
0.22964
0.252877
0.280581
0.3138
0.353849
0.402442
0.461719
0.533595
0.619048
0.716872
0.82199
0.924875
1.01414
1.08186
1.12703
1.15407
1.16896
1.17664
1.18043
1.18226
1.18311
1.1835
1.18368
1.18376
1.1838
1.18381
1.18382
1.18382
1.18382
1.18382
1.18382
1.18382
1.18382
1.18382
0.658526
0.6585
0.658457
0.658383
0.658261
0.65806
0.657728
0.657189
0.656323
0.654954
0.652826
0.649585
0.644768
0.637815
0.628119
0.615125
0.598486
0.578208
0.554741
0.528937
0.501883
0.474682
0.448258
0.423267
0.400086
0.37886
0.359576
0.342123
0.326341
0.31205
0.299076
0.287258
0.276455
0.266546
0.257431
0.24902
0.241201
0.233903
0.227074
0.220669
0.214649
0.208981
0.203639
0.1986
0.193845
0.189359
0.185127
0.181142
0.177393
0.173877
0.17059
0.167531
0.164704
0.162113
0.15977
0.157692
0.155922
0.154511
0.153428
0.152802
0.152745
0.156371
0.166268
0.177999
0.191834
0.208134
0.22738
0.250194
0.277377
0.309954
0.349214
0.396821
0.454893
0.525423
0.609539
0.706346
0.811218
0.914997
1.00621
1.0763
1.12359
1.15213
1.16795
1.17614
1.1802
1.18215
1.18306
1.18348
1.18367
1.18376
1.18379
1.18381
1.18382
1.18382
1.18382
1.18382
1.18382
1.18382
1.18382
1.18382
0.658526
0.6585
0.658456
0.658383
0.658261
0.658058
0.657726
0.657186
0.656318
0.654946
0.652812
0.649563
0.644736
0.637768
0.628053
0.615038
0.598376
0.578077
0.554595
0.528783
0.50173
0.474537
0.448128
0.423156
0.399995
0.378791
0.359528
0.342095
0.326329
0.312054
0.299095
0.287292
0.276503
0.266607
0.257504
0.249105
0.241298
0.234011
0.227192
0.220796
0.214784
0.209125
0.203791
0.198759
0.194009
0.189527
0.1853
0.181317
0.17757
0.174053
0.170765
0.167703
0.16487
0.162273
0.159923
0.157837
0.156058
0.154638
0.153549
0.152921
0.152869
0.155222
0.164943
0.176458
0.190028
0.206009
0.224864
0.247199
0.273794
0.305648
0.34402
0.390521
0.447245
0.516248
0.598825
0.694416
0.798902
0.903571
0.99691
1.06972
1.11947
1.14981
1.16674
1.17554
1.17991
1.18201
1.183
1.18345
1.18366
1.18375
1.18379
1.18381
1.18382
1.18382
1.18382
1.18382
1.18382
1.18382
1.18382
1.18382
0.658526
0.6585
0.658456
0.658383
0.65826
0.658057
0.657724
0.657182
0.656312
0.654936
0.652796
0.649538
0.644697
0.637711
0.627972
0.614928
0.598235
0.577907
0.554401
0.528574
0.501518
0.474332
0.447938
0.422986
0.399849
0.37867
0.359432
0.342022
0.326279
0.312025
0.299084
0.287299
0.276527
0.266648
0.25756
0.249176
0.241383
0.234109
0.227303
0.220919
0.21492
0.209271
0.203947
0.198924
0.194182
0.189707
0.185485
0.181506
0.177762
0.174246
0.170956
0.167891
0.165053
0.162448
0.160088
0.15799
0.156193
0.154758
0.153662
0.153045
0.15305
0.154076
0.16358
0.174836
0.188098
0.203709
0.22212
0.243916
0.269853
0.3009
0.338283
0.38356
0.438784
0.506079
0.586904
0.681058
0.78498
0.890487
0.986114
1.06197
1.11458
1.14703
1.16527
1.17481
1.17956
1.18185
1.18293
1.18342
1.18365
1.18375
1.18379
1.18381
1.18382
1.18382
1.18382
1.18382
1.18382
1.18382
1.18382
1.18382
0.658526
0.6585
0.658456
0.658382
0.658259
0.658056
0.657722
0.657178
0.656305
0.654925
0.652778
0.649509
0.644651
0.637643
0.627874
0.614794
0.598061
0.577693
0.554152
0.528302
0.501235
0.474051
0.447671
0.422741
0.39963
0.37848
0.359271
0.34189
0.326175
0.311947
0.299032
0.287268
0.276516
0.266656
0.257588
0.249222
0.241447
0.234191
0.227401
0.221033
0.215047
0.209413
0.204101
0.19909
0.194359
0.189893
0.185679
0.181706
0.177966
0.174452
0.171161
0.168092
0.165246
0.162629
0.160249
0.158123
0.15628
0.154791
0.153614
0.152864
0.152645
0.153122
0.162308
0.173223
0.186105
0.201282
0.219183
0.240373
0.265577
0.295733
0.332028
0.375965
0.429543
0.494944
0.573801
0.666276
0.769412
0.875658
0.973688
1.05292
1.10881
1.14373
1.16353
1.17395
1.17915
1.18166
1.18284
1.18338
1.18363
1.18374
1.18379
1.18381
1.18382
1.18382
1.18382
1.18382
1.18382
1.18382
1.18382
1.18382
0.658526
0.6585
0.658456
0.658382
0.658259
0.658055
0.657719
0.657174
0.656298
0.654913
0.652758
0.649476
0.6446
0.637565
0.627759
0.614634
0.597849
0.577428
0.55384
0.527955
0.500868
0.473681
0.447311
0.422403
0.399321
0.378203
0.359029
0.341682
0.326
0.311803
0.298918
0.287184
0.276459
0.266623
0.257577
0.249233
0.24148
0.234244
0.227475
0.221126
0.215159
0.209541
0.204246
0.19925
0.194533
0.190079
0.185875
0.181911
0.178177
0.174668
0.171378
0.168307
0.165454
0.162825
0.160427
0.158274
0.156382
0.15482
0.153583
0.152691
0.152258
0.152405
0.161154
0.171635
0.184064
0.19874
0.216071
0.236589
0.260991
0.290176
0.325291
0.367784
0.419585
0.482918
0.559586
0.650123
0.752213
0.859028
0.95951
1.04243
1.10203
1.13981