/*--------------------------------*- C++ -*----------------------------------*\
  =========                 |
  \\      /  F ield         | OpenFOAM: The Open Source CFD Toolbox
   \\    /   O peration     | Website:  https://openfoam.org
    \\  /    A nd           | Version:  8
     \\/     M anipulation  |
\*---------------------------------------------------------------------------*/
FoamFile
{
    version     2.0;
    format      ascii;
    class       volScalarField;
    location    "500/fluid";
    object      T;
}
// * * * * * * * * * * * * * * * * * * * * * * * * * * * * * * * * * * * * * //

dimensions      [0 0 0 1 0 0 0];

internalField   nonuniform List<scalar> 
4000
(
293.004
293.016
293.038
293.073
293.133
293.232
293.394
293.66
294.089
294.775
295.855
297.529
300.072
303.852
309.322
317.009
327.458
341.161
358.475
379.562
404.367
432.654
464.066
498.205
534.681
573.158
613.361
655.075
698.141
742.433
787.853
834.311
881.717
929.972
978.961
1028.59
1078.9
1129.81
1181.23
1233.06
1285.19
1337.52
1389.93
1442.32
1494.56
1546.52
1598.08
1649.09
1699.4
1748.87
1797.31
1844.54
1890.34
1934.46
1976.61
2016.42
2053.47
2087.01
2115.96
2140.85
2159.77
2171.29
2173.26
2065.15
1949.15
1827.64
1702.56
1575.51
1447.85
1320.81
1195.53
1073.12
954.751
841.378
734.171
635.109
546.538
470.798
409.8
364.328
333.409
314.342
303.611
298.049
295.332
294.052
293.466
293.203
293.087
293.037
293.016
293.007
293.003
293.001
293
293
293
293
293
293
293.004
293.017
293.038
293.074
293.134
293.234
293.398
293.667
294.1
294.792
295.88
297.562
300.108
303.879
309.319
316.94
327.277
340.814
357.911
378.741
403.271
431.285
462.449
496.375
532.683
571.037
611.16
652.835
695.896
740.215
785.688
832.224
879.73
928.105
977.232
1027.01
1077.48
1128.56
1180.17
1232.18
1284.51
1337.04
1389.67
1442.27
1494.71
1546.88
1598.63
1649.83
1700.34
1749.98
1798.58
1845.96
1891.89
1936.12
1978.33
2018.16
2055.14
2088.37
2116.97
2141.18
2158.87
2168.26
2166.61
2056.17
1938.38
1815.43
1689.15
1561.04
1432.46
1304.61
1178.64
1055.71
937.013
823.537
716.646
618.516
531.595
458.228
400.131
357.673
329.368
312.18
302.581
297.595
295.143
293.977
293.437
293.192
293.083
293.036
293.015
293.006
293.003
293.001
293
293
293
293
293
293
293.004
293.017
293.038
293.075
293.135
293.236
293.402
293.673
294.11
294.807
295.899
297.584
300.133
303.9
309.325
316.908
327.173
340.596
357.534
378.163
402.459
430.223
461.135
494.823
530.917
569.089
609.065
650.63
693.618
737.899
783.37
829.938
877.509
925.982
975.239
1025.17
1075.82
1127.11
1178.93
1231.2
1283.79
1336.61
1389.53
1442.42
1495.17
1547.64
1599.7
1651.21
1702
1751.93
1800.81
1848.43
1894.59
1939.01
1981.37
2021.29
2058.28
2091.26
2119.51
2143.14
2159.83
2167.4
2152.55
2039.63
1919.86
1795.28
1667.64
1538.44
1409
1280.55
1154.28
1031.41
913.18
800.583
695.214
599.36
515.425
445.543
391.043
351.805
325.966
310.393
301.716
297.198
294.967
293.901
293.405
293.179
293.078
293.033
293.014
293.006
293.002
293.001
293
293
293
293
293
293
293.004
293.017
293.039
293.075
293.136
293.237
293.404
293.675
294.113
294.81
295.902
297.584
300.124
303.871
309.259
316.785
326.967
340.279
357.078
377.543
401.66
429.237
459.965
493.479
529.416
567.45
607.311
648.785
691.708
735.953
781.415
828.005
875.63
924.189
973.563
1023.64
1074.46
1125.95
1178.01
1230.55
1283.43
1336.54
1389.76
1442.98
1496.07
1548.89
1601.3
1653.15
1704.29
1754.54
1803.74
1851.66
1898.09
1942.75
1985.32
2025.4
2062.51
2095.53
2123.81
2147.47
2164.21
2172.21
2131.1
2017.16
1896.25
1770.57
1641.98
1512.03
1382.11
1253.48
1127.4
1005.12
887.877
776.705
673.371
580.195
499.472
433.123
382.132
345.982
322.51
308.516
300.772
296.749
294.762
293.81
293.365
293.162
293.071
293.031
293.013
293.005
293.002
293.001
293
293
293
293
293
293
293.004
293.017
293.039
293.075
293.136
293.238
293.404
293.676
294.114
294.81
295.9
297.578
300.108
303.838
309.198
316.679
326.797
340.022
356.71
377.047
401.021
428.451
459.035
492.413
528.228
566.158
605.933
647.342
690.221
734.445
779.912
826.532
874.214
922.859
972.349
1022.57
1073.57
1125.27
1177.57
1230.34
1283.48
1336.88
1390.42
1443.98
1497.4
1550.57
1603.33
1655.54
1707.02
1757.61
1807.12
1855.33
1902.02
1946.9
1989.66
2029.88
2067.08
2100
2128.12
2151.57
2168.06
2175.58
2107.31
1992.69
1870.95
1744.47
1615.2
1484.78
1354.66
1226.16
1100.58
979.199
863.198
753.702
652.628
562.265
484.789
421.89
374.219
340.899
319.535
306.914
299.967
296.365
294.584
293.73
293.33
293.147
293.064
293.028
293.012
293.005
293.002
293.001
293
293
293
293
293
293
293.004
293.017
293.039
293.075
293.136
293.237
293.404
293.675
294.112
294.806
295.892
297.562
300.08
303.792
309.122
316.562
326.623
339.776
356.377
376.614
400.483
427.807
458.289
491.574
527.307
565.168
604.891
646.264
689.125
733.35
778.839
825.502
873.252
921.99
971.604
1021.98
1073.15
1125.03
1177.53
1230.54
1283.95
1337.64
1391.48
1445.35
1499.1
1552.6
1605.69
1658.23
1710.03
1760.92
1810.7
1859.17
1906.06
1951.11
1993.97
2034.24
2071.35
2104.02
2132
2155.29
2171.45
2178.18
2084.2
1969.2
1846.67
1719.37
1589.44
1458.63
1328.42
1200.19
1075.24
954.883
840.202
732.445
633.626
545.985
471.572
411.859
367.194
336.397
316.89
305.477
299.234
296.01
294.418
293.654
293.296
293.132
293.058
293.025
293.011
293.005
293.002
293.001
293
293
293
293
293
293
293.004
293.017
293.039
293.075
293.136
293.237
293.403
293.673
294.109
294.801
295.883
297.546
300.054
303.748
309.054
316.459
326.474
339.568
356.1
376.262
400.052
427.298
457.707
490.929
526.609
564.431
604.127
645.488
688.353
732.599
778.125
824.847
872.679
921.524
971.262
1021.77
1073.09
1125.16
1177.87
1231.11
1284.77
1338.72
1392.84
1447
1501.05
1554.85
1608.25
1661.07
1713.15
1764.3
1814.31
1862.96
1909.98
1955.09
1997.93
2038.06
2075.03
2107.32
2134.99
2157.86
2173.72
2180.55
2070.33
1951.24
1826.04
1697.01
1566
1434.62
1304.29
1176.33
1052.04
932.688
819.299
713.234
616.565
531.474
459.893
403.082
361.114
332.538
314.642
304.261
298.615
295.71
294.277
293.59
293.267
293.119
293.052
293.023
293.01
293.004
293.002
293.001
293
293
293
293
293
293
293.004
293.017
293.038
293.075
293.136
293.236
293.402
293.672
294.105
294.795
295.873
297.53
300.027
303.707
308.991
316.368
326.344
339.392
355.872
375.977
399.71
426.902
457.264
490.447
526.098
563.902
603.593
644.961
687.846
732.127
777.708
824.501
872.42
921.361
971.21
1021.86
1073.33
1125.58
1178.49
1231.94
1285.83
1340.03
1394.4
1448.82
1503.14
1557.21
1610.87
1663.95
1716.26
1767.62
1817.81
1866.59
1913.69
1958.79
2001.51
2041.4
2077.74
2108.97
2136.08
2156.86
2169.6
2171.67
2056.81
1934.45
1807.01
1676.48
1544.55
1412.74
1282.37
1154.74
1031.11
912.736
800.578
696.111
601.444
518.698
449.685
395.473
355.883
329.24
312.726
303.224
298.086
295.453
294.156
293.534
293.242
293.108
293.048
293.021
293.009
293.004
293.002
293.001
293
293
293
293
293
293
293.004
293.017
293.038
293.075
293.135
293.236
293.401
293.67
294.102
294.789
295.864
297.515
300.004
303.671
308.938
316.291
326.238
339.25
355.69
375.754
399.447
426.604
456.936
490.098
525.738
563.54
603.24
644.629
687.549
731.878
777.518
824.38
872.377
921.416
971.383
1022.17
1073.8
1126.21
1179.3
1232.95
1287.05
1341.46
1396.07
1450.72
1505.28
1559.58
1613.47
1666.77
1719.28
1770.81
1821.14
1870.02
1917.15
1962.21
2004.78
2044.37
2080.08
2110.61
2136.61
2155.47
2164.98
2159.37
2041.88
1917.58
1788.76
1657.3
1524.84
1392.83
1262.58
1135.35
1012.41
894.949
783.936
680.952
588.132
507.524
440.825
388.925
351.421
326.448
311.114
302.355
297.642
295.236
294.053
293.486
293.221
293.099
293.043
293.019
293.008
293.003
293.001
293.001
293
293
293
293
293
293
293.004
293.017
293.038
293.074
293.135
293.235
293.4
293.668
294.099
294.784
295.855
297.502
299.984
303.64
308.893
316.227
326.152
339.138
355.549
375.584
399.251
426.386
456.703
489.858
525.499
563.311
603.031
644.451
687.412
731.788
777.484
824.416
872.5
921.64
971.72
1022.63
1074.4
1126.97
1180.22
1234.05
1288.34
1342.95
1397.76
1452.62
1507.38
1561.89
1615.97
1669.45
1722.13
1773.81
1824.26
1873.23
1920.41
1965.48
2008.01
2047.51
2083.02
2113.36
2139.27
2158.29
2168.58
2144.44
2025.95
1900.82
1771.36
1639.5
1506.85
1374.87
1244.86
1118.1
995.836
879.239
769.295
667.685
576.525
497.83
433.189
383.324
347.635
324.095
309.761
301.627
297.271
295.055
293.968
293.447
293.203
293.091
293.04
293.017
293.007
293.003
293.001
293.001
293
293
293
293
293
293
293.004
293.017
293.038
293.074
293.135
293.235
293.399
293.666
294.097
294.78
295.849
297.491
299.967
303.616
308.858
316.177
326.085
339.051
355.443
375.459
399.11
426.234
456.546
489.702
525.353
563.184
602.93
644.383
687.382
731.808
777.566
824.571
872.739
921.974
972.16
1023.19
1075.09
1127.8
1181.2
1235.19
1289.64
1344.42
1399.41
1454.44
1509.38
1564.06
1618.31
1671.94
1724.77
1776.57
1827.12
1876.16
1923.39
1968.47
2010.99
2050.45
2085.87
2116.11
2141.92
2160.91
2171.25
2129.57
2010.62
1885.11
1755.37
1623.36
1490.71
1358.87
1229.17
1102.89
981.288
865.492
756.533
656.158
566.491
489.49
426.655
378.564
344.439
322.122
308.632
301.021
296.962
294.905
293.896
293.414
293.188
293.084
293.037
293.016
293.007
293.003
293.001
293.001
293
293
293
293
293
293
293.004
293.017
293.038
293.074
293.134
293.234
293.398
293.665
294.094
294.776
295.843
297.483
299.954
303.596
308.83
316.139
326.034
338.987
355.365
375.37
399.013
426.133
456.447
489.612
525.279
563.131
602.903
644.39
687.432
731.91
777.728
824.803
873.049
922.371
972.654
1023.79
1075.8
1128.63
1182.17
1236.3
1290.89
1345.83
1400.96
1456.15
1511.24
1566.06
1620.44
1674.2
1727.14
1779.04
1829.66
1878.75
1926.01
1971.09
2013.58
2052.98
2088.27
2118.4
2144.14
2163.02
2173.25
2116.24
1996.87
1871.07
1741.16
1609.08
1476.49
1344.84
1215.46
1089.64
968.662
853.592
745.497
646.222
557.871
482.36
421.103
374.543
341.757
320.475
307.693
300.518
296.707
294.78
293.837
293.386
293.175
293.078
293.034
293.015
293.006
293.003
293.001
293
293
293
293
293
293
293
293.004
293.017
293.038
293.074
293.134
293.234
293.397
293.664
294.093
294.773
295.838
297.476
299.944
303.581
308.808
316.11
325.996
338.941
355.311
375.31
398.95
426.072
456.393
489.57
525.253
563.127
602.928
644.45
687.535
732.062
777.936
825.074
873.392
922.793
973.161
1024.39
1076.51
1129.45
1183.1
1237.34
1292.06
1347.12
1402.38
1457.69
1512.91
1567.85
1622.34
1676.2
1729.22
1781.19
1831.87
1880.99
1928.25
1973.31
2015.75
2055.06
2090.22
2120.25
2145.86
2164.6
2174.68
2104.81
1985
1858.9
1728.83
1596.71
1464.21
1332.76
1203.7
1078.3
957.859
843.408
736.071
637.751
550.543
476.322
416.423
371.174
339.523
319.109
306.918
300.105
296.496
294.677
293.788
293.363
293.165
293.074
293.032
293.014
293.006
293.003
293.001
293
293
293
293
293
293
293
293.004
293.017
293.038
293.074
293.134
293.233
293.397
293.663
294.091
294.771
295.835
297.47
299.936
303.57
308.793
316.089
325.97
338.909
355.275
375.271
398.912
426.039
456.37
489.56
525.26
563.157
602.987
644.543
687.666
732.238
778.163
825.358
873.738
923.208
973.651
1024.96
1077.16
1130.2
1183.95
1238.29
1293.11
1348.28
1403.64
1459.06
1514.37
1569.4
1623.98
1677.91
1731
1783.02
1833.72
1882.85
1930.1
1975.12
2017.49
2056.73
2091.77
2121.67
2147.14
2165.75
2175.61
2095.24
1974.96
1848.58
1718.37
1586.24
1453.81
1322.53
1193.73
1068.7
948.713
834.796
728.114
630.615
544.386
471.265
412.52
368.378
337.677
317.986
306.283
299.766
296.325
294.594
293.748
293.345
293.156
293.07
293.031
293.013
293.006
293.002
293.001
293
293
293
293
293
293
293
293.004
293.017
293.038
293.074
293.134
293.233
293.397
293.662
294.09
294.77
295.832
297.466
299.93
303.561
308.781
316.075
325.952
338.888
355.252
375.249
398.893
426.027
456.367
489.57
525.288
563.207
603.063
644.649
687.807
732.418
778.387
825.631
874.065
923.593
974.099
1025.47
1077.75
1130.86
1184.69
1239.12
1294.03
1349.27
1404.72
1460.22
1515.6
1570.71
1625.35
1679.34
1732.47
1784.51
1835.23
1884.35
1931.57
1976.55
2018.88
2058.04
2092.95
2122.74
2148.09
2166.57
2176.19
2087.36
1966.63
1839.97
1709.63
1577.47
1445.11
1313.98
1185.41
1060.69
941.098
827.632
721.503
624.697
539.291
467.092
409.311
366.088
336.172
317.074
305.768
299.492
296.186
294.526
293.716
293.33
293.15
293.067
293.029
293.013
293.006
293.002
293.001
293
293
293
293
293
293
293
293.004
293.017
293.038
293.074
293.134
293.233
293.396
293.662
294.089
294.768
295.831
297.464
299.926
303.556
308.773
316.065
325.94
338.875
355.239
375.237
398.886
426.026
456.376
489.592
525.327
563.265
603.143
644.755
687.942
732.586
778.592
825.876
874.354
923.93
974.487
1025.91
1078.25
1131.42
1185.32
1239.81
1294.78
1350.09
1405.61
1461.17
1516.61
1571.77
1626.45
1680.48
1733.63
1785.68
1836.39
1885.49
1932.69
1977.63
2019.9
2059
2093.83
2123.57
2148.93
2167.53
2177.41
2080.99
1959.83
1832.93
1702.47
1570.29
1437.99
1306.99
1178.62
1054.16
934.897
821.804
716.134
619.898
535.167
463.723
406.726
364.25
334.968
316.346
305.358
299.275
296.075
294.472
293.691
293.318
293.144
293.064
293.028
293.012
293.005
293.002
293.001
293
293
293
293
293
293
293
293.004
293.017
293.038
293.074
293.134
293.233
293.396
293.662
294.089
294.767
295.829
297.462
299.923
303.552
308.768
316.058
325.932
338.867
355.232
375.233
398.885
426.032
456.39
489.618
525.366
563.32
603.217
644.85
688.061
732.731
778.766
826.081
874.594
924.207
974.802
1026.27
1078.65
1131.87
1185.81
1240.36
1295.38
1350.74
1406.3
1461.9
1517.38
1572.57
1627.28
1681.32
1734.48
1786.53
1837.23
1886.31
1933.47
1978.36
2020.56
2059.58
2094.32
2123.99
2149.29
2167.86
2177.7
2075.97
1954.43
1827.31
1696.76
1564.57
1432.33
1301.45
1173.25
1049.01
930.012
817.222
711.919
616.139
531.944
461.096
404.717
362.824
334.035
315.783
305.042
299.106
295.99
294.431
293.671
293.309
293.14
293.063
293.028
293.012
293.005
293.002
293.001
293
293
293
293
293
293
293
293.004
293.017
293.038
293.074
293.134
293.233
293.396
293.661
294.088
294.767
295.828
297.46
299.921
303.549
308.765
316.054
325.928
338.862
355.228
375.231
398.888
426.039
456.405
489.642
525.4
563.367
603.278
644.926
688.155
732.844
778.9
826.239
874.777
924.416
975.038
1026.54
1078.95
1132.2
1186.17
1240.75
1295.8
1351.2
1406.79
1462.41
1517.92
1573.13
1627.85
1681.9
1735.05
1787.09
1837.77
1886.82
1933.93
1978.75
2020.89
2059.84
2094.48
2124.09
2149.36
2167.95
2177.84
2072.25
1950.36
1823.05
1692.42
1560.23
1428.05
1297.27
1169.22
1045.16
926.37
813.815
708.793
613.357
529.566
459.164
403.244
361.782
333.355
315.372
304.81
298.983
295.928
294.4
293.657
293.302
293.137
293.061
293.027
293.012
293.005
293.002
293.001
293
293
293
293
293
293
293
293.004
293.016
293.038
293.074
293.134
293.233
293.396
293.661
294.088
294.766
295.828
297.459
299.92
303.547
308.763
316.052
325.925
338.86
355.227
375.232
398.891
426.046
456.417
489.659
525.425
563.4
603.32
644.979
688.219
732.922
778.991
826.345
874.898
924.553
975.193
1026.71
1079.14
1132.41
1186.4
1241
1296.07
1351.48
1407.09
1462.73
1518.25
1573.46
1628.19
1682.23
1735.37
1787.39
1838.04
1887.05
1934.11
1978.88
2020.94
2059.83
2094.4
2123.96
2149.22
2167.86
2177.89
2069.79
1947.58
1820.12
1689.42
1557.25
1425.12
1294.43
1166.49
1042.57
923.928
811.54
706.715
611.516
527.997
457.895
402.281
361.104
332.915
315.107
304.66
298.903
295.888
294.381
293.647
293.298
293.135
293.06
293.027
293.012
293.005
293.002
293.001
293
293
293
293
293
293
293
293.004
293.016
293.038
293.074
293.134
293.233
293.396
293.661
294.088
294.766
295.827
297.459
299.919
303.547
308.762
316.05
325.924
338.859
355.226
375.232
398.893
426.05
456.423
489.669
525.438
563.417
603.342
645.006
688.252
732.96
779.037
826.398
874.958
924.621
975.268
1026.79
1079.23
1132.51
1186.51
1241.11
1296.19
1351.61
1407.22
1462.87
1518.39
1573.6
1628.32
1682.36
1735.49
1787.49
1838.12
1887.09
1934.11
1978.84
2020.86
2059.69
2094.21
2123.74
2148.99
2167.7
2177.9
2068.57
1946.12
1818.54
1687.83
1555.67
1423.59
1292.96
1165.09
1041.25
922.705
810.411
705.694
610.619
527.239
457.287
401.823
360.785
332.709
314.984
304.591
298.866
295.869
294.372
293.643
293.296
293.134
293.06
293.026
293.011
293.005
293.002
293.001
293
293
293
293
293
293
293
293.004
293.016
293.038
293.074
293.134
293.233
293.396
293.661
294.088
294.766
295.827
297.459
299.919
303.547
308.762
316.051
325.924
338.859
355.227
375.233
398.893
426.051
456.424
489.669
525.439
563.418
603.343
645.007
688.253
732.961
779.038
826.399
874.959
924.622
975.269
1026.79
1079.23
1132.51
1186.51
1241.11
1296.19
1351.61
1407.22
1462.87
1518.39
1573.6
1628.33
1682.36
1735.49
1787.49
1838.12
1887.09
1934.12
1978.84
2020.86
2059.69
2094.21
2123.74
2148.99
2167.7
2177.9
2068.57
1946.11
1818.54
1687.82
1555.67
1423.59
1292.96
1165.09
1041.25
922.703
810.41
705.693
610.617
527.239
457.286
401.823
360.785
332.709
314.984
304.591
298.866
295.869
294.372
293.643
293.296
293.134
293.06
293.026
293.011
293.005
293.002
293.001
293
293
293
293
293
293
293
293.004
293.016
293.038
293.074
293.134
293.233
293.396
293.661
294.088
294.767
295.828
297.459
299.92
303.548
308.763
316.052
325.926
338.861
355.228
375.233
398.892
426.048
456.419
489.662
525.428
563.403
603.323
644.982
688.222
732.925
778.995
826.349
874.902
924.557
975.196
1026.71
1079.14
1132.41
1186.41
1241
1296.07
1351.49
1407.09
1462.73
1518.25
1573.46
1628.19
1682.23
1735.38
1787.4
1838.05
1887.05
1934.11
1978.88
2020.95
2059.83
2094.4
2123.96
2149.22
2167.86
2177.89
2069.78
1947.57
1820.11
1689.42
1557.24
1425.12
1294.43
1166.48
1042.56
923.923
811.535
706.711
611.512
527.995
457.893
402.28
361.103
332.914
315.107
304.66
298.903
295.888
294.381
293.647
293.298
293.135
293.06
293.027
293.012
293.005
293.002
293.001
293
293
293
293
293
293
293
293.004
293.017
293.038
293.074
293.134
293.233
293.396
293.661
294.089
294.767
295.828
297.46
299.921
303.549
308.765
316.055
325.929
338.864
355.23
375.234
398.89
426.043
456.409
489.645
525.405
563.371
603.282
644.931
688.16
732.85
778.906
826.245
874.782
924.421
975.044
1026.54
1078.96
1132.21
1186.18
1240.76
1295.81
1351.2
1406.79
1462.42
1517.93
1573.13
1627.86
1681.9
1735.06
1787.1
1837.78
1886.82
1933.93
1978.76
2020.89
2059.84
2094.49
2124.09
2149.36
2167.95
2177.84
2072.24
1950.35
1823.04
1692.41
1560.22
1428.04
1297.26
1169.2
1045.15
926.361
813.807
708.786
613.351
529.561
459.16
403.241
361.78
333.354
315.372
304.81
298.983
295.928
294.4
293.657
293.302
293.137
293.061
293.027
293.012
293.005
293.002
293.001
293
293
293
293
293
293
293
293.004
293.017
293.038
293.074
293.134
293.233
293.396
293.662
294.089
294.768
295.829
297.462
299.923
303.552
308.769
316.059
325.934
338.869
355.234
375.236
398.889
426.036
456.395
489.623
525.372
563.326
603.224
644.857
688.068
732.738
778.773
826.089
874.602
924.215
974.811
1026.28
1078.66
1131.88
1185.82
1240.36
1295.38
1350.75
1406.3
1461.91
1517.39
1572.58
1627.29
1681.33
1734.49
1786.54
1837.24
1886.32
1933.48
1978.36
2020.56
2059.59
2094.32
2123.99
2149.29
2167.87
2177.7
2075.95
1954.41
1827.29
1696.74
1564.55
1432.31
1301.43
1173.23
1049
930
817.211
711.909
616.13
531.937
461.091
404.713
362.821
334.033
315.782
305.041
299.106
295.99
294.431
293.671
293.309
293.14
293.063
293.028
293.012
293.005
293.002
293.001
293
293
293
293
293
293
293
293.004
293.017
293.038
293.074
293.134
293.233
293.396
293.662
294.089
294.768
295.831
297.464
299.926
303.556
308.775
316.066
325.942
338.877
355.242
375.242
398.891
426.031
456.382
489.599
525.334
563.273
603.151
644.764
687.951
732.596
778.601
825.886
874.364
923.941
974.497
1025.93
1078.26
1131.44
1185.33
1239.82
1294.79
1350.11
1405.62
1461.18
1516.62
1571.78
1626.46
1680.49
1733.64
1785.69
1836.4
1885.5
1932.7
1977.64
2019.9
2059
2093.83
2123.57
2148.93
2167.53
2177.42
2080.96
1959.8
1832.9
1702.44
1570.27
1437.96
1306.97
1178.6
1054.14
934.881
821.79
716.121
619.887
535.158
463.716
406.721
364.246
334.965
316.345
305.357
299.274
296.075
294.472
293.691
293.318
293.144
293.064
293.028
293.012
293.005
293.002
293.001
293
293
293
293
293
293
293
293.004
293.017
293.038
293.074
293.134
293.233
293.397
293.662
294.09
294.77
295.833
297.467
299.93
303.562
308.783
316.076
325.954
338.891
355.256
375.254
398.899
426.033
456.374
489.578
525.297
563.217
603.073
644.66
687.818
732.43
778.399
825.643
874.077
923.606
974.112
1025.49
1077.77
1130.88
1184.7
1239.13
1294.04
1349.29
1404.74
1460.23
1515.62
1570.72
1625.37
1679.35
1732.48
1784.53
1835.24
1884.37
1931.59
1976.56
2018.89
2058.05
2092.96
2122.74
2148.09
2166.57
2176.19
2087.33
1966.6
1839.94
1709.6
1577.44
1445.08
1313.95
1185.38
1060.67
941.078
827.613
721.487
624.683
539.279
467.083
409.304
366.083
336.169
317.072
305.767
299.492
296.185
294.526
293.716
293.33
293.15
293.067
293.029
293.013
293.006
293.002
293.001
293
293
293
293
293
293
293
293.004
293.017
293.038
293.074
293.134
293.233
293.397
293.663
294.091
294.771
295.835
297.471
299.936
303.571
308.794
316.091
325.973
338.913
355.28
375.277
398.919
426.047
456.379
489.569
525.271
563.168
602.999
644.555
687.679
732.252
778.177
825.372
873.753
923.223
973.667
1024.97
1077.18
1130.21
1183.96
1238.31
1293.13
1348.29
1403.66
1459.07
1514.38
1569.42
1624
1677.93
1731.02
1783.03
1833.74
1882.87
1930.12
1975.13
2017.5
2056.74
2091.78
2121.68
2147.15
2165.76
2175.61
2095.2
1974.92
1848.54
1718.33
1586.2
1453.77
1322.49
1193.7
1068.67
948.688
834.773
728.094
630.598
544.371
471.254
412.511
368.372
337.673
317.984
306.281
299.765
296.324
294.593
293.748
293.345
293.156
293.07
293.031
293.013
293.006
293.002
293.001
293
293
293
293
293
293
293
293.004
293.017
293.038
293.074
293.134
293.234
293.397
293.664
294.093
294.774
295.839
297.476
299.944
303.582
308.81
316.113
326
338.945
355.317
375.316
398.958
426.081
456.403
489.581
525.265
563.14
602.942
644.465
687.55
732.078
777.953
825.091
873.409
922.811
973.18
1024.41
1076.52
1129.47
1183.12
1237.36
1292.08
1347.14
1402.4
1457.72
1512.93
1567.87
1622.36
1676.22
1729.24
1781.21
1831.89
1881
1928.27
1973.33
2015.77
2055.08
2090.24
2120.27
2145.87
2164.61
2174.68
2104.76
1984.95
1858.85
1728.79
1596.67
1464.17
1332.72
1203.66
1078.27
957.83
843.381
736.047
637.731
550.526
476.308
416.413
371.167
339.518
319.106
306.916
300.104
296.496
294.677
293.788
293.363
293.165
293.074
293.032
293.014
293.006
293.003
293.001
293
293
293
293
293
293
293
293.004
293.017
293.038
293.074
293.134
293.234
293.398
293.665
294.095
294.777
295.843
297.483
299.955
303.597
308.831
316.142
326.037
338.992
355.371
375.377
399.022
426.143
456.459
489.625
525.292
563.145
602.919
644.406
687.449
731.928
777.747
824.822
873.069
922.392
972.675
1023.81
1075.82
1128.66
1182.2
1236.32
1290.92
1345.85
1400.98
1456.17
1511.26
1566.08
1620.47
1674.23
1727.16
1779.06
1829.69
1878.77
1926.03
1971.11
2013.6
2053
2088.28
2118.42
2144.15
2163.03
2173.26
2116.18
1996.82
1871.01
1741.11
1609.03
1476.44
1344.79
1215.42
1089.61
968.628
853.561
745.469
646.197
557.85
482.343
421.09
374.534
341.751
320.471
307.691
300.517
296.706
294.78
293.837
293.386
293.175
293.078
293.034
293.015
293.006
293.003
293.001
293
293
293
293
293
293
293
293.004
293.017
293.038
293.074
293.135
293.235
293.399
293.666
294.097
294.78
295.849
297.492
299.968
303.617
308.86
316.181
326.089
339.057
355.45
375.467
399.12
426.245
456.559
489.716
525.368
563.2
602.948
644.402
687.402
731.829
777.587
824.593
872.762
921.997
972.184
1023.21
1075.11
1127.82
1181.23
1235.22
1289.67
1344.45
1399.43
1454.47
1509.41
1564.09
1618.34
1671.97
1724.79
1776.6
1827.15
1876.18
1923.41
1968.49
2011.01
2050.47
2085.89
2116.12
2141.94
2160.92
2171.26
2129.51
2010.57
1885.05
1755.32
1623.3
1490.66
1358.82
1229.13
1102.85
981.248
865.456
756.5
656.129
566.466
489.47
426.64
378.553
344.432
322.117
308.629
301.019
296.962
294.904
293.896
293.413
293.188
293.084
293.037
293.016
293.007
293.003
293.001
293.001
293
293
293
293
293
293
293.004
293.017
293.038
293.075
293.135
293.235
293.4
293.668
294.099
294.784
295.856
297.503
299.985
303.642
308.896
316.231
326.156
339.144
355.557
375.593
399.262
426.399
456.718
489.874
525.516
563.329
603.05
644.472
687.433
731.811
777.508
824.441
872.525
921.666
971.747
1022.66
1074.43
1127
1180.25
1234.08
1288.37
1342.98
1397.79
1452.65
1507.41
1561.92
1616
1669.48
1722.16
1773.84
1824.29
1873.25
1920.44
1965.5
2008.03
2047.53
2083.04
2113.38
2139.29
2158.31
2168.6
2144.38
2025.89
1900.76
1771.3
1639.44
1506.79
1374.81
1244.81
1118.05
995.79
879.197
769.256
667.651
576.496
497.806
433.171
383.311
347.626
324.089
309.758
301.625
297.27
295.055
293.967
293.447
293.203
293.091
293.04
293.017
293.007
293.003
293.001
293.001
293
293
293
293
293
293
293.004
293.017
293.038
293.075
293.135
293.236
293.401
293.67
294.102
294.789
295.864
297.516
300.005
303.673
308.941
316.294
326.243
339.257
355.699
375.764
399.459
426.618
456.952
490.116
525.757
563.561
603.262
644.652
687.573
731.903
777.544
824.407
872.405
921.445
971.413
1022.2
1073.83
1126.24
1179.33
1232.98
1287.08
1341.5
1396.1
1450.76
1505.31
1559.62
1613.5
1666.8
1719.31
1770.85
1821.17
1870.05
1917.18
1962.24
2004.81
2044.39
2080.1
2110.63
2136.63
2155.49
2165
2159.31
2041.82
1917.52
1788.69
1657.24
1524.78
1392.77
1262.52
1135.3
1012.36
894.901
783.892
680.913
588.097
507.496
440.803
388.909
351.41
326.442
311.11
302.353
297.641
295.236
294.053
293.486
293.221
293.099
293.043
293.019
293.008
293.003
293.001
293.001
293
293
293
293
293
293
293.004
293.017
293.038
293.075
293.136
293.236
293.402
293.672
294.106
294.795
295.873
297.531
300.029
303.709
308.994
316.372
326.35
339.4
355.881
375.988
399.723
426.918
457.281
490.466
526.119
563.924
603.617
644.986
687.873
732.155
777.737
824.531
872.451
921.393
971.243
1021.89
1073.37
1125.62
1178.52
1231.98
1285.87
1340.06
1394.44
1448.86
1503.18
1557.25
1610.91
1663.99
1716.3
1767.66
1817.85
1866.62
1913.72
1958.82
2001.54
2041.43
2077.77
2108.99
2136.09
2156.86
2169.59
2171.63
2056.75
1934.39
1806.94
1676.41
1544.49
1412.67
1282.3
1154.68
1031.05
912.681
800.527
696.065
601.405
518.665
449.658
395.454
355.87
329.232
312.721
303.222
298.085
295.452
294.155
293.534
293.242
293.108
293.048
293.021
293.009
293.004
293.002
293.001
293
293
293
293
293
293
293.004
293.017
293.039
293.075
293.136
293.237
293.403
293.674
294.109
294.801
295.883
297.547
300.055
303.75
309.057
316.464
326.48
339.576
356.11
376.274
400.066
427.315
457.726
490.95
526.632
564.455
604.153
645.516
688.383
732.629
778.157
824.88
872.713
921.559
971.299
1021.81
1073.13
1125.2
1177.91
1231.15
1284.81
1338.76
1392.88
1447.04
1501.09
1554.89
1608.29
1661.11
1713.19
1764.34
1814.35
1862.99
1910.02
1955.13
1997.96
2038.09
2075.05
2107.34
2135
2157.86
2173.71
2180.53
2070.28
1951.17
1825.97
1696.93
1565.92
1434.54
1304.22
1176.26
1051.97
932.625
819.241
713.181
616.518
531.435
459.862
403.059
361.098
332.528
314.636
304.258
298.613
295.709
294.277
293.59
293.267
293.119
293.052
293.023
293.01
293.004
293.002
293.001
293
293
293
293
293
293
293.004
293.017
293.039
293.075
293.136
293.237
293.404
293.675
294.112
294.806
295.893
297.563
300.082
303.794
309.126
316.567
326.63
339.784
356.388
376.628
400.499
427.826
458.309
491.597
527.332
565.195
604.919
646.294
689.157
733.384
778.874
825.539
873.289
922.029
971.644
1022.02
1073.19
1125.08
1177.58
1230.59
1284
1337.69
1391.53
1445.39
1499.15
1552.65
1605.74
1658.27
1710.07
1760.96
1810.75
1859.21
1906.1
1951.15
1994
2034.27
2071.38
2104.05
2132.02
2155.31
2171.46
2178.18
2084.09
1969.1
1846.57
1719.28
1589.35
1458.54
1328.34
1200.11
1075.16
954.811
840.135
732.384
633.572
545.939
471.535
411.831
367.175
336.384
316.883
305.473
299.232
296.009
294.418
293.654
293.296
293.132
293.058
293.025
293.011
293.005
293.002
293.001
293
293
293
293
293
293
293.004
293.017
293.039
293.075
293.136
293.238
293.404
293.676
294.114
294.811
295.901
297.579
300.11
303.841
309.201
316.685
326.804
340.032
356.722
377.061
401.038
428.471
459.057
492.438
528.255
566.186
605.964
647.375
690.256
734.482
779.95
826.572
874.255
922.901
972.392
1022.62
1073.61
1125.32
1177.62
1230.39
1283.53
1336.94
1390.48
1444.03
1497.46
1550.62
1603.38
1655.59
1707.07
1757.66
1807.17
1855.38
1902.07
1946.95
1989.7
2029.92
2067.12
2100.04
2128.15
2151.59
2168.08
2175.6
2107.2
1992.57
1870.84
1744.37
1615.1
1484.68
1354.56
1226.07
1100.49
979.117
863.122
753.631
652.565
562.211
484.745
421.857
374.196
340.884
319.526
306.91
299.964
296.364
294.584
293.73
293.33
293.147
293.064
293.028
293.012
293.005
293.002
293.001
293
293
293
293
293
293
293.004
293.017
293.039
293.075
293.136
293.237
293.404
293.676
294.114
294.811
295.903
297.586
300.126
303.874
309.263
316.791
326.975
340.29
357.091
377.559
401.678
429.258
459.989
493.506
529.445
567.481
607.344
648.82
691.745
735.992
781.456
828.048
875.675
924.235
973.61
1023.69
1074.51
1126
1178.07
1230.6
1283.48
1336.59
1389.82
1443.04
1496.12
1548.94
1601.35
1653.2
1704.34
1754.6
1803.79
1851.71
1898.14
1942.8
1985.36
2025.45
2062.55
2095.57
2123.84
2147.5
2164.24
2172.23
2130.97
2017.04
1896.13
1770.46
1641.87
1511.92
1382
1253.38
1127.3
1005.03
887.789
776.624
673.299
580.132
499.421
433.083
382.104
345.963
322.499
308.51
300.769
296.748
294.761
293.809
293.365
293.162
293.071
293.031
293.013
293.005
293.002
293.001
293
293
293
293
293
293
293.004
293.017
293.038
293.075
293.135
293.236
293.402
293.673
294.111
294.807
295.9
297.586
300.135
303.903
309.329
316.914
327.181
340.607
357.548
378.18
402.479
430.246
461.161
494.851
530.948
569.122
609.101
650.668
693.658
737.941
783.414
829.984
877.557
926.032
975.29
1025.23
1075.87
1127.16
1178.99
1231.25
1283.85
1336.68
1389.59
1442.48
1495.23
1547.7
1599.76
1651.27
1702.06
1751.99
1800.86
1848.49
1894.64
1939.06
1981.42
2021.34
2058.32
2091.31
2119.55
2143.18
2159.87
2167.44
2152.44
2039.52
1919.74
1795.16
1667.52
1538.32
1408.88
1280.44
1154.17
1031.31
913.081
800.492
695.131
599.288
515.364
445.496
391.009
351.783
325.953
310.386
301.713
297.196
294.966
293.901
293.405
293.179
293.078
293.033
293.014
293.006
293.002
293.001
293
293
293
293
293
293
293.004
293.017
293.038
293.074
293.134
293.234
293.398
293.667
294.101
294.793
295.881
297.563
300.111
303.882
309.323
316.947
327.286
340.826
357.926
378.76
403.292
431.31
462.476
496.405
532.716
571.073
611.198
652.876
695.939
740.26
785.735
832.273
879.782
928.159
977.287
1027.07