/*--------------------------------*- C++ -*----------------------------------*\
  =========                 |
  \\      /  F ield         | OpenFOAM: The Open Source CFD Toolbox
   \\    /   O peration     | Website:  https://openfoam.org
    \\  /    A nd           | Version:  8
     \\/     M anipulation  |
\*---------------------------------------------------------------------------*/
FoamFile
{
    version     2.0;
    format      ascii;
    class       volVectorField;
    location    "500/fluid";
    object      U;
}
// * * * * * * * * * * * * * * * * * * * * * * * * * * * * * * * * * * * * * //

dimensions      [0 1 -1 0 0 0 0];

internalField   nonuniform List<vector> 
4000
(
(0.0999476 -0.00698159 0)
(0.0996623 -0.0207756 0)
(0.0992019 -0.0344553 0)
(0.098566 -0.0480583 0)
(0.097747 -0.0616028 0)
(0.0967281 -0.0750909 0)
(0.0954895 -0.0885133 0)
(0.0940127 -0.101851 0)
(0.0922828 -0.11508 0)
(0.0902916 -0.128171 0)
(0.0880407 -0.1411 0)
(0.0855448 -0.153846 0)
(0.0828358 -0.166401 0)
(0.0799682 -0.178755 0)
(0.0770176 -0.190935 0)
(0.0740594 -0.203011 0)
(0.0711476 -0.215043 0)
(0.068305 -0.227069 0)
(0.0655139 -0.239102 0)
(0.0627169 -0.251116 0)
(0.0598268 -0.263049 0)
(0.0567445 -0.274812 0)
(0.0533787 -0.286302 0)
(0.0496651 -0.297398 0)
(0.0455735 -0.307995 0)
(0.041093 -0.318036 0)
(0.0362255 -0.32746 0)
(0.0309845 -0.336218 0)
(0.0253923 -0.344267 0)
(0.0194767 -0.35158 0)
(0.0132684 -0.358137 0)
(0.00679904 -0.363932 0)
(0.000101514 -0.368967 0)
(-0.00679037 -0.373255 0)
(-0.0138446 -0.376812 0)
(-0.021033 -0.379662 0)
(-0.0283302 -0.381832 0)
(-0.0357125 -0.383354 0)
(-0.0431571 -0.384264 0)
(-0.0506424 -0.384598 0)
(-0.0581479 -0.384394 0)
(-0.065654 -0.383694 0)
(-0.073142 -0.382535 0)
(-0.0805934 -0.380961 0)
(-0.0879903 -0.379009 0)
(-0.0953145 -0.376722 0)
(-0.102548 -0.37414 0)
(-0.109673 -0.371303 0)
(-0.11667 -0.368253 0)
(-0.123521 -0.365032 0)
(-0.130205 -0.361683 0)
(-0.136701 -0.358253 0)
(-0.142986 -0.354789 0)
(-0.149036 -0.351343 0)
(-0.154825 -0.347974 0)
(-0.160323 -0.344747 0)
(-0.165491 -0.341736 0)
(-0.170274 -0.339023 0)
(-0.174636 -0.336699 0)
(-0.1786 -0.334897 0)
(-0.182265 -0.333859 0)
(-0.185232 -0.333964 0)
(-0.185511 -0.335213 0)
(-0.181515 -0.33611 0)
(-0.174981 -0.335279 0)
(-0.167897 -0.332764 0)
(-0.160544 -0.32887 0)
(-0.152861 -0.323762 0)
(-0.144863 -0.317512 0)
(-0.136623 -0.310168 0)
(-0.128221 -0.301773 0)
(-0.119744 -0.292372 0)
(-0.11128 -0.282018 0)
(-0.102924 -0.27077 0)
(-0.0948171 -0.258697 0)
(-0.0871936 -0.245912 0)
(-0.0803804 -0.232616 0)
(-0.0747528 -0.219089 0)
(-0.0706958 -0.205856 0)
(-0.0685247 -0.193457 0)
(-0.0683086 -0.182163 0)
(-0.0697769 -0.1719 0)
(-0.0724219 -0.162352 0)
(-0.0756953 -0.153168 0)
(-0.0791521 -0.144089 0)
(-0.0824963 -0.134959 0)
(-0.0855482 -0.125677 0)
(-0.0882318 -0.116274 0)
(-0.0905422 -0.106804 0)
(-0.0925036 -0.0973011 0)
(-0.0941502 -0.0877973 0)
(-0.0955182 -0.07832 0)
(-0.0966427 -0.0688909 0)
(-0.0975559 -0.0595248 0)
(-0.0982873 -0.0502289 0)
(-0.0988628 -0.0410032 0)
(-0.0993048 -0.0318408 0)
(-0.0996308 -0.0227278 0)
(-0.099853 -0.0136429 0)
(-0.0999818 -0.00455781 0)
(0.0999998 -0.00655956 0)
(0.0998006 -0.0196193 0)
(0.0993891 -0.032593 0)
(0.0987423 -0.0454642 0)
(0.0978618 -0.0582157 0)
(0.0967434 -0.0708258 0)
(0.0953781 -0.0832684 0)
(0.0937583 -0.0955135 0)
(0.0918818 -0.10753 0)
(0.0897553 -0.119291 0)
(0.0873975 -0.130775 0)
(0.0848416 -0.141979 0)
(0.082136 -0.152928 0)
(0.0793449 -0.163693 0)
(0.0765406 -0.174349 0)
(0.0737901 -0.184947 0)
(0.0711416 -0.195556 0)
(0.0686115 -0.206239 0)
(0.0661743 -0.217035 0)
(0.0637632 -0.227941 0)
(0.0612796 -0.238912 0)
(0.0586114 -0.249871 0)
(0.0556529 -0.260721 0)
(0.0523205 -0.271375 0)
(0.0485611 -0.281737 0)
(0.0443529 -0.291676 0)
(0.0396947 -0.301091 0)
(0.0346019 -0.309908 0)
(0.0291019 -0.318072 0)
(0.0232289 -0.325549 0)
(0.0170205 -0.332317 0)
(0.0105145 -0.338366 0)
(0.00374787 -0.343696 0)
(-0.00324222 -0.348318 0)
(-0.0104209 -0.352247 0)
(-0.0177571 -0.355508 0)
(-0.0252215 -0.358126 0)
(-0.0327878 -0.360131 0)
(-0.0404316 -0.361557 0)
(-0.0481302 -0.362438 0)
(-0.055862 -0.36281 0)
(-0.0636071 -0.36271 0)
(-0.0713462 -0.362175 0)
(-0.0790607 -0.361243 0)
(-0.0867324 -0.359952 0)
(-0.0943438 -0.358341 0)
(-0.101878 -0.356446 0)
(-0.109317 -0.354308 0)
(-0.116644 -0.351964 0)
(-0.123841 -0.349455 0)
(-0.130891 -0.34682 0)
(-0.137775 -0.344101 0)
(-0.144473 -0.341341 0)
(-0.150966 -0.338586 0)
(-0.157234 -0.335883 0)
(-0.163252 -0.33328 0)
(-0.168986 -0.33083 0)
(-0.174387 -0.328579 0)
(-0.179429 -0.326576 0)
(-0.18417 -0.324865 0)
(-0.188743 -0.323485 0)
(-0.192657 -0.322431 0)
(-0.193421 -0.321401 0)
(-0.189187 -0.319687 0)
(-0.182067 -0.317046 0)
(-0.174498 -0.313345 0)
(-0.166783 -0.30855 0)
(-0.158781 -0.302649 0)
(-0.150465 -0.295638 0)
(-0.141882 -0.287517 0)
(-0.133093 -0.278299 0)
(-0.124163 -0.268007 0)
(-0.115158 -0.256692 0)
(-0.106147 -0.24444 0)
(-0.0972706 -0.231406 0)
(-0.0888 -0.21787 0)
(-0.0811274 -0.204279 0)
(-0.0747224 -0.191264 0)
(-0.070058 -0.179307 0)
(-0.067454 -0.168677 0)
(-0.0669144 -0.159391 0)
(-0.0680991 -0.151177 0)
(-0.0704755 -0.143609 0)
(-0.073513 -0.136304 0)
(-0.0767988 -0.12901 0)
(-0.0800626 -0.121609 0)
(-0.0831545 -0.114087 0)
(-0.0859877 -0.106368 0)
(-0.0885235 -0.0984172 0)
(-0.0907552 -0.0902632 0)
(-0.092691 -0.0819462 0)
(-0.094347 -0.0735054 0)
(-0.095744 -0.0649753 0)
(-0.0969044 -0.0563842 0)
(-0.0978509 -0.0477542 0)
(-0.0986049 -0.0391007 0)
(-0.0991843 -0.0304331 0)
(-0.0996013 -0.0217552 0)
(-0.0998642 -0.0130657 0)
(-0.0999951 -0.00436051 0)
(0.0999795 -0.00628946 0)
(0.0997237 -0.0187996 0)
(0.0992226 -0.0312214 0)
(0.098458 -0.0435357 0)
(0.0974338 -0.0557216 0)
(0.0961509 -0.0677565 0)
(0.0946086 -0.079617 0)
(0.0928097 -0.0912791 0)
(0.0907637 -0.102721 0)
(0.0884898 -0.113925 0)
(0.0860188 -0.12488 0)
(0.0833951 -0.135587 0)
(0.0806759 -0.14606 0)
(0.077926 -0.15633 0)
(0.0752106 -0.166448 0)
(0.0725906 -0.176483 0)
(0.0701121 -0.186509 0)
(0.0677908 -0.196596 0)
(0.0656009 -0.206784 0)
(0.0634745 -0.21708 0)
(0.061311 -0.227448 0)
(0.058995 -0.237819 0)
(0.0564149 -0.248101 0)
(0.0534753 -0.258192 0)
(0.0501049 -0.267993 0)
(0.0462624 -0.277415 0)
(0.0419361 -0.28638 0)
(0.037136 -0.294822 0)
(0.0318867 -0.30269 0)
(0.0262214 -0.309946 0)
(0.0201777 -0.316563 0)
(0.0137942 -0.322528 0)
(0.00710953 -0.327836 0)
(0.000161183 -0.33249 0)
(-0.00701456 -0.336502 0)
(-0.0143843 -0.339891 0)
(-0.0219176 -0.342678 0)
(-0.0295872 -0.34489 0)
(-0.0373677 -0.346555 0)
(-0.0452358 -0.347705 0)
(-0.0531696 -0.348373 0)
(-0.0611483 -0.348591 0)
(-0.0691521 -0.348394 0)
(-0.0771625 -0.347817 0)
(-0.085162 -0.346894 0)
(-0.0931339 -0.345661 0)
(-0.101062 -0.344152 0)
(-0.108931 -0.342404 0)
(-0.116724 -0.34045 0)
(-0.124428 -0.338327 0)
(-0.132028 -0.336069 0)
(-0.139508 -0.333713 0)
(-0.146855 -0.331293 0)
(-0.154055 -0.328846 0)
(-0.161092 -0.326406 0)
(-0.16795 -0.324007 0)
(-0.174596 -0.32168 0)
(-0.180984 -0.319449 0)
(-0.1871 -0.317333 0)
(-0.193013 -0.31535 0)
(-0.198779 -0.313515 0)
(-0.20348 -0.311773 0)
(-0.204183 -0.309598 0)
(-0.19931 -0.306504 0)
(-0.191534 -0.302638 0)
(-0.183279 -0.29794 0)
(-0.174848 -0.292325 0)
(-0.166113 -0.285743 0)
(-0.157043 -0.278174 0)
(-0.147679 -0.269622 0)
(-0.138073 -0.260115 0)
(-0.128284 -0.249712 0)
(-0.11837 -0.238508 0)
(-0.108417 -0.226644 0)
(-0.0986073 -0.214329 0)
(-0.0892785 -0.201856 0)
(-0.0808955 -0.1896 0)
(-0.073995 -0.177973 0)
(-0.0690625 -0.167355 0)
(-0.0663488 -0.15796 0)
(-0.0657511 -0.149737 0)
(-0.0668572 -0.142395 0)
(-0.0691193 -0.135544 0)
(-0.072026 -0.128851 0)
(-0.07519 -0.122096 0)
(-0.0783622 -0.11517 0)
(-0.0814064 -0.108037 0)
(-0.0842545 -0.100704 0)
(-0.0868683 -0.0931923 0)
(-0.0892286 -0.0855219 0)
(-0.0913299 -0.0777139 0)
(-0.0931756 -0.0697895 0)
(-0.0947738 -0.0617689 0)
(-0.0961356 -0.053671 0)
(-0.0972736 -0.045512 0)
(-0.0982007 -0.0373053 0)
(-0.0989282 -0.0290612 0)
(-0.0994629 -0.0207874 0)
(-0.0998089 -0.0124889 0)
(-0.099987 -0.00416897 0)
(0.099984 -0.00594611 0)
(0.0997228 -0.0177734 0)
(0.0992029 -0.0295083 0)
(0.0984052 -0.0411251 0)
(0.0973383 -0.0525981 0)
(0.0960088 -0.0639016 0)
(0.0944216 -0.07501 0)
(0.0925852 -0.085899 0)
(0.0905136 -0.0965474 0)
(0.0882291 -0.106939 0)
(0.0857636 -0.117066 0)
(0.0831602 -0.126934 0)
(0.080474 -0.136564 0)
(0.0777699 -0.145996 0)
(0.0751175 -0.15529 0)
(0.0725818 -0.164519 0)
(0.0702091 -0.173763 0)
(0.0680137 -0.183091 0)
(0.0659676 -0.19255 0)
(0.0640004 -0.20215 0)
(0.0620083 -0.211863 0)
(0.0598721 -0.221626 0)
(0.0574761 -0.231352 0)
(0.0547231 -0.240947 0)
(0.0515429 -0.250313 0)
(0.0478933 -0.25936 0)
(0.0437584 -0.268009 0)
(0.0391421 -0.276194 0)
(0.0340631 -0.283862 0)
(0.0285492 -0.290976 0)
(0.0226338 -0.297507 0)
(0.0163521 -0.30344 0)
(0.00973993 -0.308769 0)
(0.0028327 -0.313494 0)
(-0.00433472 -0.317624 0)
(-0.0117297 -0.321174 0)
(-0.0193227 -0.324163 0)
(-0.0270871 -0.326613 0)
(-0.034998 -0.328551 0)
(-0.0430323 -0.330003 0)
(-0.0511679 -0.330999 0)
(-0.0593844 -0.331567 0)
(-0.067663 -0.331739 0)
(-0.0759862 -0.331545 0)
(-0.0843374 -0.331017 0)
(-0.0927005 -0.330185 0)
(-0.10106 -0.329081 0)
(-0.109402 -0.327734 0)
(-0.117712 -0.326175 0)
(-0.125977 -0.324434 0)
(-0.134182 -0.322538 0)
(-0.142316 -0.320517 0)
(-0.150365 -0.318395 0)
(-0.158316 -0.316199 0)
(-0.166153 -0.313951 0)
(-0.173858 -0.311669 0)
(-0.181391 -0.309369 0)
(-0.1887 -0.307056 0)
(-0.195782 -0.304729 0)
(-0.202732 -0.302397 0)
(-0.209486 -0.300068 0)
(-0.214416 -0.29768 0)
(-0.214301 -0.294516 0)
(-0.208463 -0.290315 0)
(-0.200124 -0.285423 0)
(-0.191275 -0.279837 0)
(-0.182124 -0.273471 0)
(-0.172583 -0.266271 0)
(-0.16266 -0.258218 0)
(-0.152414 -0.249325 0)
(-0.141915 -0.239629 0)
(-0.131241 -0.229201 0)
(-0.120474 -0.218149 0)
(-0.10974 -0.206623 0)
(-0.0992861 -0.19484 0)
(-0.0895065 -0.18309 0)
(-0.0808944 -0.171729 0)
(-0.073962 -0.161139 0)
(-0.0691179 -0.151636 0)
(-0.0665175 -0.143358 0)
(-0.0659826 -0.136189 0)
(-0.067072 -0.129816 0)
(-0.069251 -0.123868 0)
(-0.0720412 -0.118043 0)
(-0.0750865 -0.112143 0)
(-0.0781551 -0.106069 0)
(-0.0811135 -0.0997768 0)
(-0.083892 -0.0932596 0)
(-0.0864574 -0.0865266 0)
(-0.0887953 -0.0795967 0)
(-0.0909012 -0.0724921 0)
(-0.0927754 -0.0652355 0)
(-0.0944213 -0.0578486 0)
(-0.0958439 -0.0503514 0)
(-0.097049 -0.0427622 0)
(-0.0980432 -0.0350971 0)
(-0.0988314 -0.0273702 0)
(-0.0994148 -0.0195935 0)
(-0.0997932 -0.0117777 0)
(-0.0999872 -0.00393245 0)
(0.0999811 -0.00560054 0)
(0.0997045 -0.0167393 0)
(0.0991584 -0.0277884 0)
(0.098325 -0.0387221 0)
(0.0972152 -0.0495144 0)
(0.095838 -0.0601404 0)
(0.0942018 -0.0705758 0)
(0.0923179 -0.0807987 0)
(0.0902041 -0.0907905 0)
(0.0878857 -0.100538 0)
(0.0853981 -0.110035 0)
(0.0827874 -0.119288 0)
(0.0801113 -0.128317 0)
(0.0774367 -0.137159 0)
(0.074834 -0.145867 0)
(0.0723677 -0.154509 0)
(0.0700834 -0.163158 0)
(0.0679942 -0.171881 0)
(0.0660714 -0.180723 0)
(0.0642432 -0.189697 0)
(0.0624045 -0.198781 0)
(0.0604337 -0.207922 0)
(0.0582116 -0.217045 0)
(0.0556368 -0.226062 0)
(0.0526346 -0.234887 0)
(0.0491588 -0.243436 0)
(0.0451893 -0.251637 0)
(0.0407265 -0.259427 0)
(0.0357855 -0.266757 0)
(0.0303914 -0.27359 0)
(0.0245746 -0.279897 0)
(0.0183683 -0.285663 0)
(0.0118062 -0.290877 0)
(0.00492176 -0.29554 0)
(-0.00225208 -0.299658 0)
(-0.00968417 -0.30324 0)
(-0.0173462 -0.306305 0)
(-0.0252122 -0.30887 0)
(-0.0332581 -0.310957 0)
(-0.0414612 -0.31259 0)
(-0.049801 -0.313794 0)
(-0.0582582 -0.314594 0)
(-0.0668151 -0.315018 0)
(-0.0754548 -0.315092 0)
(-0.0841611 -0.314843 0)
(-0.0929186 -0.314298 0)
(-0.101713 -0.313483 0)
(-0.110529 -0.312422 0)
(-0.119354 -0.311141 0)
(-0.128174 -0.309664 0)
(-0.136975 -0.308013 0)
(-0.145744 -0.306208 0)
(-0.154464 -0.304268 0)
(-0.16312 -0.302211 0)
(-0.171693 -0.300048 0)
(-0.180156 -0.29779 0)
(-0.188456 -0.295439 0)
(-0.196528 -0.29299 0)
(-0.204383 -0.290435 0)
(-0.212133 -0.287775 0)
(-0.219535 -0.285014 0)
(-0.224176 -0.282084 0)
(-0.222882 -0.278162 0)
(-0.216109 -0.273273 0)
(-0.207325 -0.267774 0)
(-0.197975 -0.261668 0)
(-0.188168 -0.254884 0)
(-0.177877 -0.247384 0)
(-0.167161 -0.239167 0)
(-0.156106 -0.23026 0)
(-0.144809 -0.220714 0)
(-0.133368 -0.210613 0)
(-0.121888 -0.200072 0)
(-0.110532 -0.189246 0)
(-0.0995954 -0.178346 0)
(-0.0895039 -0.167642 0)
(-0.0807561 -0.157443 0)
(-0.0738381 -0.148057 0)
(-0.0690985 -0.139706 0)
(-0.0666147 -0.13244 0)
(-0.066145 -0.126099 0)
(-0.0672238 -0.120381 0)
(-0.069329 -0.114971 0)
(-0.072012 -0.109622 0)
(-0.0749459 -0.104181 0)
(-0.0779199 -0.0985689 0)
(-0.0808103 -0.0927545 0)
(-0.0835489 -0.0867336 0)
(-0.0860994 -0.0805148 0)
(-0.0884431 -0.0741126 0)
(-0.0905709 -0.067544 0)
(-0.0924792 -0.0608267 0)
(-0.0941677 -0.0539783 0)
(-0.0956375 -0.0470157 0)
(-0.0968911 -0.0399552 0)
(-0.0979317 -0.0328119 0)
(-0.0987611 -0.0255999 0)
(-0.0993778 -0.0183323 0)
(-0.0997794 -0.0110218 0)
(-0.099986 -0.00368027 0)
(0.0999816 -0.00523946 0)
(0.0997017 -0.0156606 0)
(0.0991478 -0.0259962 0)
(0.0983025 -0.0362195 0)
(0.0971783 -0.0463046 0)
(0.0957863 -0.0562266 0)
(0.0941366 -0.065962 0)
(0.0922426 -0.0754898 0)
(0.0901236 -0.0847925 0)
(0.0878065 -0.0938581 0)
(0.0853274 -0.102683 0)
(0.0827331 -0.111272 0)
(0.0800812 -0.119648 0)
(0.0774382 -0.127847 0)
(0.0748742 -0.135921 0)
(0.0724536 -0.143938 0)
(0.070222 -0.151969 0)
(0.0681931 -0.160078 0)
(0.0663387 -0.16831 0)
(0.0645883 -0.176681 0)
(0.0628369 -0.18517 0)
(0.0609628 -0.19373 0)
(0.0588456 -0.20229 0)
(0.0563818 -0.210771 0)
(0.0534939 -0.21909 0)
(0.0501327 -0.22717 0)
(0.0462743 -0.234943 0)
(0.0419155 -0.242349 0)
(0.0370684 -0.249343 0)
(0.0317547 -0.255886 0)
(0.026002 -0.261953 0)
(0.019841 -0.267527 0)
(0.013303 -0.272597 0)
(0.00641928 -0.277162 0)
(-0.000779143 -0.281226 0)
(-0.00826251 -0.284796 0)
(-0.0160034 -0.287887 0)
(-0.023977 -0.290514 0)
(-0.0321605 -0.292696 0)
(-0.0405329 -0.294453 0)
(-0.0490746 -0.295806 0)
(-0.0577673 -0.296779 0)
(-0.0665936 -0.297393 0)
(-0.0755369 -0.297672 0)
(-0.0845814 -0.297638 0)
(-0.0937121 -0.297313 0)
(-0.102914 -0.29672 0)
(-0.112172 -0.295879 0)
(-0.121473 -0.294809 0)
(-0.1308 -0.29353 0)
(-0.140138 -0.292058 0)
(-0.149469 -0.290408 0)
(-0.158775 -0.288593 0)
(-0.168034 -0.286625 0)
(-0.177219 -0.284508 0)
(-0.186292 -0.282246 0)
(-0.195183 -0.279835 0)
(-0.203819 -0.277264 0)
(-0.212226 -0.274519 0)
(-0.220528 -0.271597 0)
(-0.228283 -0.268485 0)
(-0.232346 -0.265142 0)
(-0.229811 -0.260769 0)
(-0.22224 -0.25555 0)
(-0.213069 -0.249742 0)
(-0.20325 -0.243362 0)
(-0.192836 -0.236377 0)
(-0.181869 -0.228775 0)
(-0.170453 -0.220574 0)
(-0.158703 -0.211812 0)
(-0.146738 -0.202548 0)
(-0.134675 -0.192868 0)
(-0.122641 -0.182885 0)
(-0.110836 -0.172746 0)
(-0.0995933 -0.162646 0)
(-0.0893611 -0.152827 0)
(-0.080635 -0.143562 0)
(-0.0738685 -0.13511 0)
(-0.0693474 -0.127643 0)
(-0.0670733 -0.121173 0)
(-0.0667457 -0.115528 0)
(-0.0678777 -0.110423 0)
(-0.0699584 -0.105573 0)
(-0.0725648 -0.10076 0)
(-0.0753963 -0.0958476 0)
(-0.0782617 -0.0907678 0)
(-0.0810502 -0.0854921 0)
(-0.0837005 -0.0800155 0)
(-0.0861796 -0.0743448 0)
(-0.0884694 -0.0684927 0)
(-0.09056 -0.0624741 0)
(-0.0924458 -0.0563052 0)
(-0.094124 -0.0500022 0)
(-0.0955928 -0.0435811 0)
(-0.0968519 -0.0370578 0)
(-0.0979017 -0.0304473 0)
(-0.0987416 -0.0237642 0)
(-0.0993678 -0.0170224 0)
(-0.099776 -0.0102358 0)
(-0.099986 -0.00341795 0)
(0.0999811 -0.00487628 0)
(0.099698 -0.0145754 0)
(0.0991385 -0.0241944 0)
(0.0982856 -0.0337078 0)
(0.0971524 -0.0430906 0)
(0.095751 -0.0523193 0)
(0.0940926 -0.061372 0)
(0.0921918 -0.070229 0)
(0.090069 -0.0788746 0)
(0.087752 -0.087298 0)
(0.085278 -0.095496 0)
(0.0826945 -0.103475 0)
(0.0800597 -0.111256 0)
(0.0774404 -0.118871 0)
(0.0749069 -0.126371 0)
(0.0725237 -0.133818 0)
(0.0703362 -0.141277 0)
(0.0683581 -0.14881 0)
(0.0665616 -0.15646 0)
(0.0648756 -0.164242 0)
(0.0631954 -0.17214 0)
(0.0613982 -0.180111 0)
(0.0593623 -0.188094 0)
(0.0569826 -0.196015 0)
(0.0541793 -0.203799 0)
(0.0509005 -0.211376 0)
(0.0471198 -0.21868 0)
(0.0428316 -0.225659 0)
(0.0380453 -0.232267 0)
(0.0327803 -0.23847 0)
(0.0270619 -0.244242 0)
(0.0209187 -0.249566 0)
(0.0143802 -0.254432 0)
(0.00747607 -0.258836 0)
(0.000235966 -0.26278 0)
(-0.00731161 -0.266272 0)
(-0.0151406 -0.26932 0)
(-0.0232278 -0.27194 0)
(-0.0315516 -0.274146 0)
(-0.0400918 -0.275956 0)
(-0.0488295 -0.277388 0)
(-0.0577466 -0.278461 0)
(-0.0668261 -0.279194 0)
(-0.0760517 -0.279607 0)
(-0.0854076 -0.279717 0)
(-0.0948783 -0.279545 0)
(-0.104448 -0.279106 0)
(-0.114101 -0.278419 0)
(-0.123822 -0.277498 0)
(-0.133592 -0.276358 0)
(-0.143393 -0.275013 0)
(-0.153204 -0.273473 0)
(-0.163001 -0.271747 0)
(-0.172754 -0.269843 0)
(-0.18243 -0.267764 0)
(-0.191979 -0.265509 0)
(-0.201315 -0.263073 0)
(-0.210353 -0.260441 0)
(-0.219123 -0.257601 0)
(-0.227739 -0.254532 0)
(-0.235604 -0.251187 0)
(-0.239092 -0.247539 0)
(-0.235499 -0.242955 0)
(-0.227148 -0.237652 0)
(-0.217467 -0.231759 0)
(-0.207154 -0.225313 0)
(-0.196207 -0.218324 0)
(-0.184682 -0.210809 0)
(-0.172707 -0.202798 0)
(-0.160416 -0.194339 0)
(-0.147941 -0.185495 0)
(-0.135414 -0.176351 0)
(-0.122983 -0.167014 0)
(-0.110876 -0.157623 0)
(-0.0994579 -0.148357 0)
(-0.0891874 -0.139434 0)
(-0.0805503 -0.131091 0)
(-0.0739647 -0.12354 0)
(-0.0696587 -0.116905 0)
(-0.0675705 -0.111155 0)
(-0.0673578 -0.106108 0)
(-0.0685246 -0.101502 0)
(-0.0705761 -0.0970867 0)
(-0.0731137 -0.0926811 0)
(-0.0758588 -0.088175 0)
(-0.0786355 -0.083512 0)
(-0.0813417 -0.0786698 0)
(-0.0839202 -0.0736443 0)
(-0.0863392 -0.0684412 0)
(-0.0885805 -0.0630709 0)
(-0.0906336 -0.0575458 0)
(-0.0924915 -0.0518796 0)
(-0.0941499 -0.0460862 0)
(-0.0956057 -0.04018 0)
(-0.0968571 -0.034175 0)
(-0.0979029 -0.0280853 0)
(-0.0987412 -0.0219246 0)
(-0.0993671 -0.0157067 0)
(-0.0997757 -0.00944524 0)
(-0.0999859 -0.00315396 0)
(0.0999812 -0.00451049 0)
(0.0996977 -0.0134825 0)
(0.0991373 -0.0223805 0)
(0.0982831 -0.03118 0)
(0.0971487 -0.0398575 0)
(0.0957468 -0.0483909 0)
(0.0940891 -0.0567595 0)
(0.0921907 -0.0649453 0)
(0.0900728 -0.0729335 0)
(0.0877636 -0.0807145 0)
(0.0853005 -0.0882856 0)
(0.0827311 -0.0956536 0)
(0.0801137 -0.102837 0)
(0.077515 -0.109868 0)
(0.0750051 -0.116793 0)
(0.0726483 -0.12367 0)
(0.0704904 -0.130562 0)
(0.0685453 -0.137526 0)
(0.0667856 -0.144603 0)
(0.0651411 -0.151808 0)
(0.0635068 -0.159127 0)
(0.06176 -0.166523 0)
(0.059778 -0.173938 0)
(0.0574541 -0.181306 0)
(0.0547068 -0.188557 0)
(0.0514821 -0.195627 0)
(0.0477515 -0.202456 0)
(0.043507 -0.208993 0)
(0.0387559 -0.215197 0)
(0.0335156 -0.221036 0)
(0.0278096 -0.226485 0)
(0.0216648 -0.231527 0)
(0.0151092 -0.236152 0)
(0.00817132 -0.240355 0)
(0.000879294 -0.244137 0)
(-0.00673985 -0.247503 0)
(-0.0146614 -0.250462 0)
(-0.0228628 -0.253026 0)
(-0.0313233 -0.255206 0)
(-0.0400232 -0.257017 0)
(-0.0489439 -0.258475 0)
(-0.0580676 -0.259595 0)
(-0.0673776 -0.260394 0)
(-0.0768573 -0.260887 0)
(-0.0864905 -0.261091 0)
(-0.0962609 -0.261019 0)
(-0.106152 -0.260687 0)
(-0.116146 -0.260108 0)
(-0.126226 -0.259294 0)
(-0.136371 -0.258256 0)
(-0.14656 -0.257005 0)
(-0.156768 -0.255548 0)
(-0.166966 -0.253891 0)
(-0.177121 -0.25204 0)
(-0.18719 -0.249996 0)
(-0.19711 -0.247759 0)
(-0.206778 -0.24532 0)
(-0.216108 -0.242668 0)
(-0.225108 -0.239794 0)
(-0.233814 -0.236673 0)
(-0.241485 -0.233244 0)
(-0.244384 -0.229445 0)
(-0.239987 -0.224795 0)
(-0.230983 -0.219523 0)
(-0.220773 -0.213705 0)
(-0.20998 -0.207376 0)
(-0.198564 -0.200564 0)
(-0.186582 -0.1933 0)
(-0.174164 -0.185624 0)
(-0.161453 -0.177585 0)
(-0.148593 -0.169249 0)
(-0.135725 -0.160699 0)
(-0.123012 -0.152032 0)
(-0.110713 -0.143378 0)
(-0.099212 -0.134901 0)
(-0.0889767 -0.126795 0)
(-0.0804804 -0.119267 0)
(-0.0741079 -0.112495 0)
(-0.0700344 -0.106567 0)
(-0.0681434 -0.101432 0)
(-0.0680572 -0.0969089 0)
(-0.0692731 -0.0927563 0)
(-0.0713105 -0.0887555 0)
(-0.0737923 -0.0847497 0)
(-0.0764594 -0.0806453 0)
(-0.0791503 -0.0763948 0)
(-0.0817718 -0.0719791 0)
(-0.0842717 -0.0673949 0)
(-0.0866206 -0.062647 0)
(-0.0888013 -0.0577445 0)
(-0.090803 -0.0526981 0)
(-0.0926184 -0.04752 0)
(-0.0942424 -0.0422226 0)
(-0.0956709 -0.0368188 0)
(-0.0969011 -0.0313217 0)
(-0.0979309 -0.0257442 0)
(-0.0987575 -0.0200993 0)
(-0.0993752 -0.0144001 0)
(-0.0997786 -0.00865976 0)
(-0.0999862 -0.00289162 0)
(0.0999812 -0.004145 0)
(0.0996978 -0.0123904 0)
(0.0991378 -0.0205681 0)
(0.0982843 -0.0286552 0)
(0.097151 -0.0366301 0)
(0.095751 -0.0444721 0)
(0.0940962 -0.0521624 0)
(0.0922022 -0.0596842 0)
(0.0900901 -0.0670242 0)
(0.0877887 -0.0741737 0)
(0.0853355 -0.0811303 0)
(0.0827782 -0.0879004 0)
(0.0801749 -0.0945014 0)
(0.0775926 -0.100963 0)
(0.0751011 -0.107328 0)
(0.0727649 -0.113651 0)
(0.0706298 -0.119988 0)
(0.0687101 -0.126393 0)
(0.0669785 -0.132904 0)
(0.0653649 -0.139536 0)
(0.0637645 -0.146279 0)
(0.0620538 -0.153097 0)
(0.0601096 -0.159939 0)
(0.057824 -0.166745 0)
(0.0551139 -0.173452 0)
(0.0519236 -0.179999 0)
(0.0482231 -0.186334 0)
(0.0440025 -0.192408 0)
(0.0392676 -0.198183 0)
(0.0340342 -0.20363 0)
(0.0283245 -0.208724 0)
(0.0221642 -0.21345 0)
(0.01558 -0.217797 0)
(0.00859905 -0.22176 0)
(0.00124822 -0.22534 0)
(-0.00644635 -0.22854 0)
(-0.0144606 -0.231367 0)
(-0.0227727 -0.233829 0)
(-0.0313623 -0.235938 0)
(-0.04021 -0.237705 0)
(-0.0492975 -0.239144 0)
(-0.0586072 -0.240266 0)
(-0.0681219 -0.241087 0)
(-0.0778246 -0.241619 0)
(-0.0876986 -0.241874 0)
(-0.0977266 -0.241865 0)
(-0.107891 -0.241604 0)
(-0.118172 -0.2411 0)
(-0.12855 -0.240365 0)
(-0.139002 -0.239405 0)
(-0.149504 -0.238229 0)
(-0.160028 -0.236841 0)
(-0.170539 -0.235247 0)
(-0.181 -0.23345 0)
(-0.191362 -0.231448 0)
(-0.20155 -0.229242 0)
(-0.211455 -0.226825 0)
(-0.220989 -0.22419 0)
(-0.230147 -0.221339 0)
(-0.238913 -0.218275 0)
(-0.24632 -0.214977 0)
(-0.248601 -0.211217 0)
(-0.243448 -0.20658 0)
(-0.233891 -0.201396 0)
(-0.223228 -0.195749 0)
(-0.212019 -0.18966 0)
(-0.200209 -0.183152 0)
(-0.187851 -0.17626 0)
(-0.17508 -0.169023 0)
(-0.162044 -0.161495 0)
(-0.148893 -0.153737 0)
(-0.135775 -0.145827 0)
(-0.122868 -0.137856 0)
(-0.110452 -0.129944 0)
(-0.09893 -0.12224 0)
(-0.0887721 -0.114919 0)
(-0.0804375 -0.10816 0)
(-0.0742786 -0.10211 0)
(-0.0704237 -0.096829 0)
(-0.0687101 -0.0922496 0)
(-0.0687338 -0.0881952 0)
(-0.0699907 -0.0844482 0)
(-0.0720146 -0.080818 0)
(-0.0744479 -0.0771716 0)
(-0.0770478 -0.0734309 0)
(-0.0796646 -0.0695565 0)
(-0.0822122 -0.065533 0)
(-0.0846421 -0.061358 0)
(-0.086927 -0.0570355 0)
(-0.0890502 -0.0525734 0)
(-0.0910014 -0.047981 0)
(-0.0927731 -0.0432688 0)
(-0.0943597 -0.0384477 0)
(-0.0957569 -0.0335291 0)
(-0.0969613 -0.0285248 0)
(-0.0979703 -0.0234465 0)
(-0.0987808 -0.0183061 0)
(-0.0993869 -0.0131155 0)
(-0.0997827 -0.00788726 0)
(-0.0999864 -0.0026336 0)
(0.0999812 -0.00378011 0)
(0.0996987 -0.0113001 0)
(0.09914 -0.0187585 0)
(0.0982886 -0.0261346 0)
(0.0971583 -0.0334084 0)
(0.0957621 -0.040561 0)
(0.0941121 -0.0475752 0)
(0.092224 -0.0544356 0)
(0.0901191 -0.0611303 0)
(0.0878261 -0.0676512 0)
(0.0853826 -0.0739964 0)
(0.0828363 -0.0801719 0)
(0.0802452 -0.0861935 0)
(0.0776759 -0.0920887 0)
(0.0751986 -0.097897 0)
(0.0728775 -0.103667 0)
(0.0707585 -0.109453 0)
(0.0688562 -0.115302 0)
(0.0671437 -0.121251 0)
(0.065551 -0.127314 0)
(0.0639732 -0.133481 0)
(0.0622866 -0.139722 0)
(0.060367 -0.14599 0)
(0.0581057 -0.152231 0)
(0.0554183 -0.158387 0)
(0.052248 -0.164403 0)
(0.048563 -0.17023 0)
(0.0443524 -0.175825 0)
(0.0396206 -0.181154 0)
(0.0343824 -0.186187 0)
(0.0286588 -0.190903 0)
(0.0224743 -0.195287 0)
(0.0158544 -0.199329 0)
(0.00882542 -0.203023 0)
(0.00141362 -0.206369 0)
(-0.00635555 -0.209369 0)
(-0.0144586 -0.212029 0)
(-0.0228741 -0.214356 0)
(-0.0315821 -0.216359 0)
(-0.0405634 -0.218047 0)
(-0.0497997 -0.219432 0)
(-0.059273 -0.220523 0)
(-0.0689659 -0.221333 0)
(-0.0788609 -0.221872 0)
(-0.0889402 -0.22215 0)
(-0.0991854 -0.222178 0)
(-0.109577 -0.221965 0)
(-0.120095 -0.221519 0)
(-0.130716 -0.220847 0)
(-0.141416 -0.219957 0)
(-0.152167 -0.218854 0)
(-0.162937 -0.217543 0)
(-0.17369 -0.216026 0)
(-0.184382 -0.214305 0)
(-0.194961 -0.212382 0)
(-0.205345 -0.210255 0)
(-0.215423 -0.207922 0)
(-0.225124 -0.205379 0)
(-0.23448 -0.202637 0)
(-0.243433 -0.199722 0)
(-0.250474 -0.19664 0)
(-0.251807 -0.192919 0)
(-0.245779 -0.188375 0)
(-0.235856 -0.183361 0)
(-0.224917 -0.17797 0)
(-0.213411 -0.172209 0)
(-0.2013 -0.166091 0)
(-0.188652 -0.159649 0)
(-0.175609 -0.152922 0)
(-0.162325 -0.145959 0)
(-0.148956 -0.138819 0)
(-0.135655 -0.131573 0)
(-0.122615 -0.124304 0)
(-0.110135 -0.117123 0)
(-0.0986313 -0.110164 0)
(-0.088574 -0.103582 0)
(-0.0804089 -0.0975344 0)
(-0.0744584 -0.0921434 0)
(-0.0708091 -0.087447 0)
(-0.0692597 -0.0833696 0)
(-0.069385 -0.0797443 0)
(-0.0706811 -0.0763759 0)
(-0.0726956 -0.0730985 0)
(-0.0750875 -0.0697987 0)
(-0.0776284 -0.0664106 0)
(-0.0801788 -0.0629014 0)
(-0.0826587 -0.0592584 0)
(-0.0850233 -0.0554797 0)
(-0.0872471 -0.0515691 0)
(-0.0893145 -0.0475333 0)
(-0.0912153 -0.0433805 0)
(-0.0929424 -0.0391198 0)
(-0.09449 -0.0347611 0)
(-0.0958538 -0.0303143 0)
(-0.09703 -0.0257899 0)
(-0.0980158 -0.0211986 0)
(-0.098808 -0.016551 0)
(-0.0994005 -0.011858 0)
(-0.0997875 -0.00713085 0)
(-0.0999867 -0.00238096 0)
(0.0999813 -0.00341636 0)
(0.0996996 -0.010213 0)
(0.0991425 -0.0169544 0)
(0.0982937 -0.0236216 0)
(0.0971666 -0.0301966 0)
(0.0957745 -0.0366624 0)
(0.0941296 -0.0430033 0)
(0.0922473 -0.0492055 0)
(0.090149 -0.0552582 0)
(0.0878636 -0.0611543 0)
(0.0854284 -0.066892 0)
(0.0828911 -0.0724768 0)
(0.0803097 -0.0779231 0)
(0.0777507 -0.0832559 0)
(0.0752841 -0.0885109 0)
(0.0729742 -0.0937325 0)
(0.0708671 -0.098969 0)
(0.0689774 -0.104265 0)
(0.0672783 -0.109653 0)
(0.0657001 -0.115146 0)
(0.0641377 -0.120737 0)
(0.062467 -0.126398 0)
(0.0605632 -0.132088 0)
(0.0583166 -0.137756 0)
(0.055642 -0.143352 0)
(0.0524813 -0.148826 0)
(0.048802 -0.154134 0)
(0.0445919 -0.159236 0)
(0.0398546 -0.1641 0)
(0.0346038 -0.1687 0)
(0.0288596 -0.173018 0)
(0.0226455 -0.177037 0)
(0.0159866 -0.180749 0)
(0.00890855 -0.184149 0)
(0.00143695 -0.187235 0)
(-0.00640319 -0.190009 0)
(-0.0145888 -0.192474 0)
(-0.0230987 -0.194638 0)
(-0.0319131 -0.196506 0)
(-0.0410128 -0.198087 0)
(-0.0503794 -0.199391 0)
(-0.0599946 -0.200425 0)
(-0.0698405 -0.201199 0)
(-0.079899 -0.201723 0)
(-0.0901515 -0.202004 0)
(-0.100578 -0.20205 0)
(-0.111159 -0.20187 0)
(-0.121871 -0.201471 0)
(-0.132691 -0.200857 0)
(-0.143591 -0.200036 0)
(-0.154541 -0.199011 0)
(-0.165508 -0.197785 0)
(-0.176451 -0.196362 0)
(-0.187326 -0.194744 0)
(-0.198074 -0.192931 0)
(-0.208612 -0.190923 0)
(-0.218827 -0.188719 0)
(-0.228663 -0.186317 0)
(-0.23818 -0.183729 0)
(-0.247235 -0.180972 0)
(-0.253761 -0.178064 0)
(-0.254083 -0.174464 0)
(-0.247327 -0.170139 0)
(-0.237172 -0.165417 0)
(-0.226061 -0.160376 0)
(-0.214342 -0.155019 0)
(-0.202001 -0.149361 0)
(-0.18913 -0.143429 0)
(-0.175878 -0.137261 0)
(-0.162407 -0.130902 0)
(-0.148875 -0.124407 0)
(-0.135442 -0.11784 0)
(-0.122311 -0.111277 0)
(-0.109802 -0.104817 0)
(-0.0983398 -0.0985811 0)
(-0.0883925 -0.0927075 0)
(-0.0803931 -0.0873324 0)
(-0.0746365 -0.0825566 0)
(-0.0711729 -0.0784016 0)
(-0.0697683 -0.0747884 0)
(-0.0699818 -0.0715622 0)
(-0.0713117 -0.0685497 0)
(-0.073318 -0.0656075 0)
(-0.0756742 -0.0626394 0)
(-0.0781643 -0.0595902 0)
(-0.0806569 -0.0564328 0)
(-0.0830776 -0.0531567 0)
(-0.0853844 -0.0497606 0)
(-0.0875534 -0.0462479 0)
(-0.0895698 -0.0426245 0)
(-0.0914241 -0.0388975 0)
(-0.0931092 -0.0350749 0)
(-0.0946196 -0.0311652 0)
(-0.0959508 -0.0271772 0)
(-0.0970992 -0.0231202 0)
(-0.098062 -0.0190035 0)
(-0.0988357 -0.0148367 0)
(-0.0994145 -0.0106295 0)
(-0.0997925 -0.00639192 0)
(-0.099987 -0.00213417 0)
(0.0999814 -0.00305375 0)
(0.0997005 -0.00912924 0)
(0.0991451 -0.0151556 0)
(0.0982988 -0.021116 0)
(0.097175 -0.0269942 0)
(0.0957869 -0.0327751 0)
(0.0941466 -0.0384447 0)
(0.0922697 -0.0439906 0)
(0.0901775 -0.0494033 0)
(0.0878986 -0.0546763 0)
(0.0854704 -0.0598082 0)
(0.0829405 -0.0648039 0)
(0.0803668 -0.0696764 0)
(0.0778156 -0.074448 0)
(0.075357 -0.0791508 0)
(0.0730551 -0.0838247 0)
(0.0709562 -0.0885129 0)
(0.0690751 -0.0932557 0)
(0.0673852 -0.0980824 0)
(0.0658165 -0.103005 0)
(0.0642639 -0.108018 0)
(0.062603 -0.113096 0)
(0.0607085 -0.118202 0)
(0.0584698 -0.123293 0)
(0.055801 -0.128321 0)
(0.0526432 -0.133244 0)
(0.0489628 -0.138021 0)
(0.0447472 -0.142617 0)
(0.0399989 -0.147003 0)
(0.0347309 -0.151155 0)
(0.0289627 -0.155057 0)
(0.0227172 -0.158693 0)
(0.0160191 -0.162057 0)
(0.00889344 -0.165141 0)
(0.00136553 -0.167946 0)
(-0.00654 -0.170471 0)
(-0.0148003 -0.172721 0)
(-0.0233944 -0.174698 0)
(-0.0323025 -0.176411 0)
(-0.0415054 -0.177864 0)
(-0.0509843 -0.179065 0)
(-0.0607207 -0.180023 0)
(-0.0706962 -0.180744 0)
(-0.080892 -0.181235 0)
(-0.0912887 -0.181505 0)
(-0.101866 -0.181558 0)
(-0.112601 -0.181403 0)
(-0.123472 -0.181044 0)
(-0.134451 -0.180486 0)
(-0.145511 -0.179733 0)
(-0.15662 -0.17879 0)
(-0.16774 -0.17766 0)
(-0.178832 -0.176344 0)
(-0.189847 -0.174844 0)
(-0.200725 -0.173161 0)
(-0.211376 -0.171295 0)
(-0.221689 -0.169245 0)
(-0.231621 -0.167009 0)
(-0.241252 -0.164597 0)
(-0.250351 -0.162022 0)
(-0.256345 -0.15933 0)
(-0.255746 -0.155951 0)
(-0.248385 -0.151949 0)
(-0.238059 -0.147602 0)
(-0.226823 -0.142979 0)
(-0.214942 -0.138085 0)
(-0.202425 -0.132933 0)
(-0.189383 -0.127552 0)
(-0.175972 -0.121977 0)
(-0.162359 -0.116247 0)
(-0.148707 -0.110413 0)
(-0.135178 -0.104531 0)
(-0.121989 -0.0986711 0)
(-0.109473 -0.0929203 0)
(-0.0980639 -0.087387 0)
(-0.0882277 -0.0821927 0)
(-0.0803843 -0.0774549 0)
(-0.0748042 -0.0732563 0)
(-0.0715058 -0.0696067 0)
(-0.0702284 -0.0664277 0)
(-0.0705188 -0.0635785 0)
(-0.0718781 -0.0609068 0)
(-0.0738776 -0.0582898 0)
(-0.0762034 -0.0556458 0)
(-0.0786497 -0.0529286 0)
(-0.0810924 -0.0501159 0)
(-0.0834613 -0.047199 0)
(-0.0857171 -0.044177 0)
(-0.0878372 -0.0410531 0)
(-0.0898078 -0.0378323 0)
(-0.0916198 -0.0345208 0)
(-0.0932664 -0.0311255 0)
(-0.0947423 -0.0276539 0)
(-0.0960431 -0.0241137 0)
(-0.0971653 -0.0205128 0)
(-0.0981062 -0.0168595 0)
(-0.0988623 -0.0131623 0)