/*--------------------------------*- C++ -*----------------------------------*\
  =========                 |
  \\      /  F ield         | OpenFOAM: The Open Source CFD Toolbox
   \\    /   O peration     | Website:  https://openfoam.org
    \\  /    A nd           | Version:  8
     \\/     M anipulation  |
\*---------------------------------------------------------------------------*/
FoamFile
{
    version     2.0;
    format      ascii;
    class       volScalarField;
    location    "940/fluid";
    object      CH4;
}
// * * * * * * * * * * * * * * * * * * * * * * * * * * * * * * * * * * * * * //

dimensions      [0 0 0 0 0 0 0];

internalField   nonuniform List<scalar> 
4000
(
0.999997
0.999986
0.999968
0.999938
0.999888
0.999805
0.999667
0.999442
0.999079
0.998497
0.99758
0.996159
0.993996
0.990782
0.986128
0.979587
0.970692
0.959013
0.944224
0.926148
0.904779
0.880272
0.852907
0.82305
0.791115
0.757535
0.722738
0.687137
0.651113
0.615015
0.579154
0.543798
0.509177
0.47548
0.442858
0.411428
0.381284
0.352486
0.325072
0.299057
0.274442
0.251208
0.229329
0.208766
0.189477
0.17141
0.154513
0.138732
0.12401
0.110291
0.0975208
0.0856462
0.0746166
0.0643844
0.0549059
0.0461413
0.0380561
0.0307226
0.0240878
0.0178779
0.0122808
0.0073082
0.00327959
0.00229996
0.00159243
0.00108654
0.000729171
0.000480278
0.000309786
0.000195269
0.000120165
7.24092e-05
4.34003e-05
2.73085e-05
1.98773e-05
1.52553e-05
1.13161e-05
7.95727e-06
5.24957e-06
3.22508e-06
1.84166e-06
9.82301e-07
4.93936e-07
2.37911e-07
1.11219e-07
5.0768e-08
2.27265e-08
1.001e-08
4.34911e-09
1.8678e-09
7.94271e-10
3.34913e-10
1.40183e-10
5.82785e-11
2.40523e-11
9.8255e-12
3.9363e-12
1.5056e-12
5.03479e-13
8.8319e-14
0.999997
0.999986
0.999968
0.999938
0.999888
0.999804
0.999666
0.99944
0.999075
0.998493
0.997577
0.99616
0.994012
0.990831
0.986238
0.979799
0.971057
0.959588
0.945061
0.927284
0.906232
0.882035
0.854952
0.825333
0.79358
0.760122
0.725388
0.689792
0.653724
0.61754
0.581559
0.546057
0.511271
0.477396
0.444589
0.412974
0.382646
0.35367
0.326085
0.29991
0.275145
0.251773
0.229767
0.20909
0.189698
0.17154
0.154562
0.138709
0.123924
0.110152
0.0973352
0.0854213
0.0743587
0.0640992
0.0545983
0.0458159
0.0377167
0.0303767
0.0237381
0.0175232
0.0119239
0.00695892
0.00322719
0.00226124
0.00156333
0.00106456
0.000712644
0.000468005
0.000300848
0.000188933
0.000115839
6.96268e-05
4.18117e-05
2.668e-05
1.96953e-05
1.50251e-05
1.10275e-05
7.66533e-06
4.99973e-06
3.04261e-06
1.728e-06
9.2161e-07
4.65873e-07
2.26067e-07
1.06616e-07
4.91087e-08
2.21711e-08
9.83771e-09
4.29995e-09
1.85504e-09
7.91286e-10
3.34256e-10
1.40006e-10
5.81946e-11
2.39981e-11
9.79153e-12
3.9174e-12
1.49646e-12
4.9991e-13
8.76686e-14
0.999997
0.999986
0.999968
0.999938
0.999887
0.999803
0.999665
0.999438
0.999073
0.99849
0.997575
0.996162
0.994026
0.990869
0.986322
0.97996
0.971335
0.96003
0.945715
0.928195
0.907433
0.883543
0.856766
0.827433
0.79593
0.762676
0.728091
0.692589
0.656558
0.620358
0.584312
0.548705
0.51378
0.47974
0.446747
0.414933
0.384398
0.355212
0.32742
0.301043
0.276083
0.252527
0.230349
0.209513
0.189974
0.171682
0.154584
0.138625
0.123747
0.109892
0.097004
0.085029
0.0739146
0.0636118
0.0540755
0.045265
0.0371447
0.0297982
0.0231562
0.0169438
0.0113624
0.00640695
0.00318619
0.00222065
0.00152735
0.0010347
0.000689025
0.000450049
0.0002877
0.000179677
0.000109627
6.57384e-05
3.96923e-05
2.59383e-05
1.94178e-05
1.4703e-05
1.06767e-05
7.34282e-06
4.74355e-06
2.86565e-06
1.62089e-06
8.63931e-07
4.37708e-07
2.13138e-07
1.00964e-07
4.67356e-08
2.12075e-08
9.45694e-09
4.15257e-09
1.79877e-09
7.69917e-10
3.26117e-10
1.36872e-10
5.69675e-11
2.3509e-11
9.59412e-12
3.8379e-12
1.46558e-12
4.89373e-13
8.5796e-14
0.999997
0.999986
0.999968
0.999938
0.999887
0.999804
0.999665
0.99944
0.999077
0.998498
0.997591
0.996193
0.994081
0.990963
0.986475
0.980199
0.971694
0.960545
0.94642
0.929121
0.9086
0.88496
0.858429
0.829327
0.798032
0.764952
0.730503
0.695093
0.659111
0.622915
0.586832
0.551149
0.516114
0.481936
0.448784
0.416792
0.386068
0.356685
0.328694
0.30212
0.276967
0.253226
0.230872
0.20987
0.190176
0.171742
0.154517
0.138443
0.123462
0.109518
0.0965516
0.0845095
0.0733386
0.0629891
0.0534151
0.0445755
0.0364342
0.0290918
0.0224617
0.0162572
0.0106735
0.00573573
0.00314719
0.00217963
0.00148936
0.00100228
0.000662979
0.000430144
0.00027316
0.000169528
0.000102902
6.16018e-05
3.75006e-05
2.52149e-05
1.90417e-05
1.42904e-05
1.02625e-05
6.97804e-06
4.45951e-06
2.66977e-06
1.50064e-06
7.97374e-07
4.03916e-07
1.97046e-07
9.36209e-08
4.34934e-08
1.98137e-08
8.87094e-09
3.91069e-09
1.70038e-09
7.3034e-10
3.10316e-10
1.30592e-10
5.4477e-11
2.25226e-11
9.20471e-12
3.686e-12
1.40854e-12
4.70466e-13
8.24932e-14
0.999997
0.999986
0.999968
0.999938
0.999888
0.999805
0.999667
0.999443
0.999082
0.998508
0.997609
0.996224
0.994134
0.99105
0.986614
0.980413
0.97201
0.960992
0.94703
0.929916
0.909598
0.886169
0.859846
0.830939
0.799819
0.766887
0.732553
0.697223
0.661284
0.625094
0.588981
0.553236
0.51811
0.483815
0.450524
0.418378
0.387487
0.35793
0.329761
0.303007
0.277678
0.253765
0.231247
0.210088
0.190251
0.171688
0.154342
0.138158
0.123081
0.109051
0.0960116
0.0839073
0.0726846
0.0622933
0.0526867
0.0438223
0.0356744
0.0283588
0.0217276
0.0155139
0.00994494
0.00506608
0.00310703
0.00213273
0.00144498
0.000964631
0.000633248
0.000407913
0.000257301
0.000158721
9.59083e-05
5.73924e-05
3.53468e-05
2.45725e-05
1.8586e-05
1.38148e-05
9.81949e-06
6.61114e-06
4.18784e-06
2.48987e-06
1.39352e-06
7.39242e-07
3.74682e-07
1.83146e-07
8.72472e-08
4.06509e-08
1.85732e-08
8.33885e-09
3.68563e-09
1.60626e-09
6.91326e-10
2.9426e-10
1.24021e-10
5.17996e-11
2.14369e-11
8.7677e-12
3.5129e-12
1.34282e-12
4.4854e-13
7.86482e-14
0.999997
0.999986
0.999968
0.999939
0.999889
0.999806
0.99967
0.999448
0.99909
0.998522
0.997631
0.996261
0.994194
0.991144
0.986759
0.980628
0.972317
0.961415
0.947589
0.930631
0.910479
0.887219
0.861061
0.832309
0.801326
0.768508
0.734262
0.698991
0.66308
0.62689
0.590747
0.554945
0.519737
0.48534
0.451929
0.419649
0.388612
0.358904
0.330579
0.303669
0.278186
0.254124
0.231459
0.210165
0.190201
0.171519
0.154066
0.137787
0.122624
0.108521
0.0954191
0.0832633
0.0719999
0.061578
0.0519503
0.0430796
0.0349221
0.0276147
0.020971
0.0147666
0.00921618
0.00439774
0.00300671
0.00204099
0.00137123
0.000909253
0.000593492
0.000380363
0.000238814
0.000146719
8.84115e-05
5.2953e-05
3.2974e-05
2.34867e-05
1.78493e-05
1.32189e-05
9.34446e-06
6.25145e-06
3.93481e-06
2.32669e-06
1.29717e-06
6.8671e-07
3.47881e-07
1.70198e-07
8.12021e-08
3.79052e-08
1.73544e-08
7.80824e-09
3.45839e-09
1.51027e-09
6.51244e-10
2.77676e-10
1.1721e-10
4.90194e-11
2.03086e-11
8.31349e-12
3.33303e-12
1.27455e-12
4.25772e-13
7.46562e-14
0.999997
0.999986
0.999969
0.999939
0.99989
0.999807
0.999672
0.999452
0.999098
0.998535
0.997653
0.996297
0.99425
0.991232
0.986892
0.980822
0.972591
0.961789
0.94808
0.931251
0.911237
0.888116
0.862092
0.833462
0.802586
0.769855
0.735673
0.700443
0.664547
0.628347
0.592171
0.556314
0.521031
0.486541
0.453024
0.420625
0.389462
0.35962
0.331159
0.304113
0.278495
0.254301
0.231516
0.210107
0.190036
0.171254
0.153711
0.137352
0.122119
0.107956
0.0948042
0.0826091
0.0713171
0.0608781
0.0512464
0.0423752
0.034224
0.0269962
0.0202054
0.0140594
0.00855874
0.0037974
0.0026531
0.00182675
0.00123877
0.000826377
0.00054146
0.000347854
0.000218775
0.000134665
8.14555e-05
4.92264e-05
3.13572e-05
2.28157e-05
1.73243e-05
1.27547e-05
8.9631e-06
5.96133e-06
3.73152e-06
2.19622e-06
1.22035e-06
6.4479e-07
3.26393e-07
1.59737e-07
7.6267e-08
3.56356e-08
1.63328e-08
7.35679e-09
3.26209e-09
1.42612e-09
6.15604e-10
2.62739e-10
1.11005e-10
4.64615e-11
1.9262e-11
7.88931e-12
3.16416e-12
1.2102e-12
4.04253e-13
7.08777e-14
0.999997
0.999986
0.999969
0.99994
0.99989
0.999809
0.999675
0.999457
0.999106
0.998548
0.997675
0.996331
0.994304
0.991314
0.987014
0.980998
0.972837
0.962119
0.948509
0.931789
0.911887
0.888878
0.86296
0.834426
0.803631
0.770964
0.736827
0.701621
0.66573
0.629513
0.593301
0.55739
0.522037
0.487464
0.453852
0.421349
0.390076
0.360121
0.331546
0.304385
0.278651
0.254348
0.231459
0.209952
0.189789
0.170924
0.153306
0.136881
0.121592
0.10738
0.0941889
0.0819626
0.0706471
0.0601915
0.0505482
0.0416739
0.0335679
0.0263691
0.0196069
0.0135199
0.00811288
0.00349756
0.00244006
0.00168053
0.00114064
0.000761603
0.000499294
0.000320771
0.000201635
0.000124012
7.50181e-05
4.55785e-05
2.95586e-05
2.20357e-05
1.68353e-05
1.23926e-05
8.68406e-06
5.75049e-06
3.58154e-06
2.09794e-06
1.16124e-06
6.11853e-07
3.09161e-07
1.51201e-07
7.21746e-08
3.37261e-08
1.54621e-08
6.96776e-09
3.09132e-09
1.35231e-09
5.84128e-10
2.49472e-10
1.05468e-10
4.41704e-11
1.83217e-11
7.50734e-12
3.01181e-12
1.15205e-12
3.84792e-13
6.74586e-14
0.999997
0.999987
0.999969
0.99994
0.999891
0.999811
0.999678
0.999462
0.999113
0.99856
0.997694
0.996362
0.994352
0.991388
0.987122
0.981153
0.973051
0.962406
0.948878
0.932247
0.912438
0.889519
0.863686
0.835226
0.804492
0.771871
0.737765
0.702571
0.666675
0.630436
0.594187
0.558223
0.522806
0.488156
0.45446
0.421866
0.390496
0.360442
0.331765
0.304505
0.27868
0.254287
0.231311
0.209724
0.189486
0.170554
0.152877
0.136399
0.121065
0.106816
0.0935961
0.0813483
0.0700191
0.0595578
0.0499177
0.0410571
0.0329922
0.025816
0.019086
0.0130469
0.00770858
0.00331383
0.00231136
0.00159172
0.00108058
0.000721949
0.000473851
0.000305003
0.00019228
0.000118785
7.236e-05
4.44624e-05
2.9376e-05
2.20419e-05
1.67599e-05
1.22745e-05
8.55157e-06
5.62633e-06
3.4827e-06
2.02901e-06
1.1181e-06
5.87129e-07
2.95934e-07
1.44533e-07
6.8929e-08
3.21906e-08
1.47532e-08
6.64739e-09
2.94923e-09
1.29033e-09
5.5749e-10
2.38166e-10
1.00721e-10
4.21968e-11
1.75086e-11
7.17593e-12
2.87929e-12
1.10139e-12
3.67817e-13
6.44711e-14
0.999997
0.999987
0.999969
0.99994
0.999892
0.999812
0.99968
0.999466
0.99912
0.998571
0.997712
0.99639
0.994395
0.991453
0.987217
0.981288
0.973237
0.962652
0.949193
0.932636
0.912902
0.890056
0.864288
0.835886
0.805197
0.772609
0.73852
0.70333
0.667423
0.63116
0.594872
0.558859
0.523382
0.488665
0.454894
0.422222
0.39077
0.360632
0.331871
0.304529
0.278624
0.254155
0.231107
0.209453
0.189155
0.170169
0.152443
0.135925
0.120556
0.10628
0.0930383
0.0807754
0.0694371
0.0589724
0.0493343
0.0404806
0.0324433
0.0252871
0.0185697
0.0125398
0.00720085
0.00322735
0.00224728
0.00154508
0.00104718
0.00069842
0.000457569
0.000293967
0.000185008
0.000114206
6.97105e-05
4.32236e-05
2.91949e-05
2.21577e-05
1.68266e-05
1.22715e-05
8.50806e-06
5.56688e-06
3.42396e-06
1.98325e-06
1.08761e-06
5.68921e-07
2.859e-07
1.39369e-07
6.63725e-08
3.09643e-08
1.41805e-08
6.38601e-09
2.83235e-09
1.239e-09
5.35292e-10
2.28698e-10
9.673e-11
4.05316e-11
1.68206e-11
6.89495e-12
2.76675e-12
1.05831e-12
3.53378e-13
6.19245e-14
0.999997
0.999987
0.99997
0.999941
0.999893
0.999813
0.999682
0.999469
0.999126
0.998581
0.997727
0.996414
0.994433
0.991509
0.987299
0.981404
0.973395
0.962861
0.949459
0.932962
0.913289
0.890501
0.864785
0.836426
0.80577
0.773204
0.739125
0.703932
0.66801
0.63172
0.595396
0.559338
0.523807
0.489029
0.455192
0.422451
0.390928
0.360718
0.331888
0.304478
0.278506
0.253975
0.230868
0.209161
0.188815
0.169785
0.152023
0.135473
0.120078
0.105781
0.0925246
0.0802516
0.0689079
0.0584419
0.0488061
0.0399581
0.0319362
0.0247944
0.0180924
0.0120797
0.00676001
0.00319216
0.00222083
0.00152628
0.00103444
0.000690169
0.000452474
0.000290987
0.000183379
0.00011341
6.9446e-05
4.33555e-05
2.96993e-05
2.26135e-05
1.7099e-05
1.24021e-05
8.5455e-06
5.55621e-06
3.3975e-06
1.9561e-06
1.06732e-06
5.56043e-07
2.78524e-07
1.35479e-07
6.44099e-08
3.00085e-08
1.37285e-08
6.17763e-09
2.73837e-09
1.19742e-09
5.17203e-10
2.20943e-10
9.34477e-11
3.91577e-11
1.62515e-11
6.66211e-12
2.67339e-12
1.02253e-12
3.41385e-13
5.98104e-14
0.999997
0.999987
0.99997
0.999941
0.999893
0.999814
0.999684
0.999472
0.999131
0.998589
0.997741
0.996435
0.994465
0.991557
0.987369
0.981502
0.973529
0.963036
0.949681
0.933234
0.913609
0.890866
0.865191
0.836864
0.806233
0.77368
0.739604
0.704405
0.668466
0.632151
0.595792
0.559692
0.524113
0.489282
0.45539
0.422589
0.391005
0.360736
0.331847
0.30438
0.278354
0.253771
0.230617
0.208866
0.188482
0.169419
0.151628
0.135054
0.11964
0.105329
0.0920619
0.0797831
0.0684376
0.0579741
0.0483467
0.0395119
0.031503
0.0243717
0.0176814
0.0116819
0.00637523
0.00316995
0.0022061
0.0015165
0.00102806
0.000686145
0.00045004
0.000289619
0.000182728
0.000113248
6.96403e-05
4.38477e-05
3.05014e-05
2.32652e-05
1.75129e-05
1.26311e-05
8.64914e-06
5.58648e-06
3.39411e-06
1.94364e-06
1.05513e-06
5.47424e-07
2.73303e-07
1.32633e-07
6.29404e-08
2.92803e-08
1.33795e-08
6.01495e-09
2.66436e-09
1.16444e-09
5.02772e-10
2.14726e-10
9.08056e-11
3.80482e-11
1.57908e-11
6.47334e-12
2.59767e-12
9.93567e-13
3.31709e-13
5.81106e-14
0.999997
0.999987
0.99997
0.999941
0.999894
0.999815
0.999686
0.999475
0.999135
0.998596
0.997752
0.996453
0.994492
0.991597
0.987427
0.981584
0.97364
0.963182
0.949864
0.933457
0.913871
0.891164
0.86552
0.837218
0.806602
0.774058
0.739982
0.704773
0.668817
0.632477
0.596088
0.559949
0.524328
0.489452
0.455511
0.42266
0.391027
0.360708
0.33177
0.304255
0.278184
0.25356
0.230368
0.208583
0.188169
0.16908
0.151267
0.134675
0.119247
0.104926
0.0916531
0.0793719
0.0680284
0.0575713
0.0479505
0.039119
0.0311233
0.024007
0.0173305
0.0113448
0.0060514
0.00315177
0.00219683
0.00151244
0.00102684
0.000686348
0.000450875
0.000290654
0.000183757
0.000114204
7.0543e-05
4.47758e-05
3.15731e-05
2.40659e-05
1.80248e-05
1.29263e-05
8.79734e-06
5.6465e-06
3.40953e-06
1.94169e-06
1.04944e-06
5.423e-07
2.69858e-07
1.30664e-07
6.18907e-08
2.8748e-08
1.31199e-08
5.89231e-09
2.60794e-09
1.13907e-09
4.9159e-10
2.0988e-10
8.87361e-11
3.71757e-11
1.54274e-11
6.32406e-12
2.5377e-12
9.70606e-13
3.24039e-13
5.67629e-14
0.999997
0.999987
0.99997
0.999942
0.999894
0.999816
0.999687
0.999477
0.999139
0.998602
0.997761
0.996468
0.994515
0.991631
0.987475
0.981652
0.973731
0.963301
0.950014
0.933638
0.914084
0.891405
0.865784
0.837499
0.806895
0.774355
0.740276
0.705058
0.669085
0.632722
0.596305
0.560134
0.524477
0.489561
0.455579
0.422686
0.391011
0.360651
0.331672
0.30412
0.278013
0.253355
0.230134
0.208322
0.187884
0.168775
0.150945
0.134341
0.118903
0.104576
0.0913012
0.0790221
0.0676828
0.0572281
0.0476097
0.0387864
0.0308045
0.0237005
0.0170359
0.0110623
0.00578049
0.00313641
0.00219051
0.00151111
0.00102803
0.000688597
0.000453359
0.000292959
0.00018572
0.000115814
7.18692e-05
4.59387e-05
3.27032e-05
2.49061e-05
1.85739e-05
1.32537e-05
8.97137e-06
5.72587e-06
3.43851e-06
1.94836e-06
1.04854e-06
5.40053e-07
2.67921e-07
1.2945e-07
6.12022e-08
2.83845e-08
1.29374e-08
5.80419e-09
2.56673e-09
1.12031e-09
4.83233e-10
2.06229e-10
8.71664e-11
3.65103e-11
1.51492e-11
6.2094e-12
2.49154e-12
9.52901e-13
3.18133e-13
5.57222e-14
0.999997
0.999987
0.99997
0.999942
0.999895
0.999817
0.999688
0.999479
0.999142
0.998607
0.997769
0.99648
0.994533
0.991658
0.987515
0.981707
0.973805
0.963397
0.950135
0.933784
0.914253
0.891596
0.865992
0.837721
0.807124
0.774585
0.740503
0.705274
0.669287
0.632904
0.596462
0.560263
0.524575
0.489628
0.455611
0.422685
0.390975
0.360581
0.33157
0.303986
0.277851
0.253167
0.229922
0.20809
0.187634
0.16851
0.150668
0.134054
0.118612
0.104283
0.0910077
0.0787275
0.067387
0.0569357
0.0473246
0.0385096
0.0305401
0.0234464
0.0167907
0.0108251
0.00556304
0.0031239
0.00218705
0.00151241
0.0010315
0.000692715
0.000457314
0.000296378
0.000188495
0.000117985
7.35574e-05
4.72988e-05
3.38742e-05
2.57745e-05
1.91514e-05
1.36068e-05
9.16662e-06
5.82145e-06
3.4789e-06
1.96244e-06
1.05196e-06
5.39988e-07
2.672e-07
1.28839e-07
6.0813e-08
2.81622e-08
1.28195e-08
5.74511e-09
2.53835e-09
1.10711e-09
4.77267e-10
2.03589e-10
8.60213e-11
3.60212e-11
1.49438e-11
6.1242e-12
2.4574e-12
9.39635e-13
3.13771e-13
5.49551e-14
0.999997
0.999987
0.99997
0.999942
0.999895
0.999817
0.999689
0.99948
0.999145
0.998611
0.997775
0.996489
0.994548
0.99168
0.987546
0.98175
0.973864
0.963473
0.95023
0.933898
0.914386
0.891745
0.866154
0.837892
0.8073
0.774761
0.740674
0.705437
0.669436
0.633036
0.596574
0.560352
0.524639
0.489665
0.455622
0.422667
0.390931
0.360509
0.331473
0.303865
0.277707
0.253003
0.22974
0.207892
0.187422
0.168288
0.150439
0.13382
0.118374
0.104041
0.0907623
0.0784825
0.0671458
0.0566995
0.0470947
0.038287
0.030328
0.0232428
0.0165946
0.0106355
0.00538947
0.00311381
0.00218597
0.00151589
0.00103685
0.000698392
0.000462511
0.000300751
0.000191975
0.000120656
7.55797e-05
4.88599e-05
3.51432e-05
2.66997e-05
1.97692e-05
1.39893e-05
9.38326e-06
5.9321e-06
3.5294e-06
1.98287e-06
1.05914e-06
5.42005e-07
2.67484e-07
1.28705e-07
6.06422e-08
2.80446e-08
1.2752e-08
5.70886e-09
2.5202e-09
1.09838e-09
4.73237e-10
2.01772e-10
8.52256e-11
3.56766e-11
1.48007e-11
6.06294e-12
2.4341e-12
9.30264e-13
3.10752e-13
5.4411e-14
0.999997
0.999987
0.99997
0.999942
0.999895
0.999818
0.99969
0.999482
0.999146
0.998614
0.99778
0.996497
0.994559
0.991696
0.98757
0.981783
0.973909
0.963531
0.950302
0.933985
0.914486
0.891857
0.866276
0.83802
0.807431
0.774892
0.7408
0.705555
0.669543
0.63313
0.596651
0.560412
0.524679
0.489684
0.45562
0.422645
0.390887
0.360446
0.33139
0.303763
0.277589
0.25287
0.229594
0.207734
0.187256
0.168114
0.150258
0.133633
0.118182
0.103847
0.0905695
0.0782919
0.0669587
0.0565171
0.0469179
0.0381164
0.0301654
0.023087
0.0164445
0.0104895
0.00525434
0.00310594
0.00218703
0.00152131
0.00104387
0.00070544
0.000468796
0.000305959
0.000196074
0.000123769
7.78993e-05
5.06023e-05
3.64975e-05
2.76721e-05
2.04179e-05
1.4393e-05
9.61479e-06
6.05321e-06
3.5869e-06
2.0077e-06
1.06889e-06
5.45447e-07
2.68523e-07
1.28952e-07
6.06581e-08
2.80118e-08
1.27215e-08
5.69004e-09
2.50991e-09
1.09319e-09
4.70759e-10
2.00628e-10
8.47227e-11
3.54531e-11
1.47112e-11
6.02378e-12
2.41946e-12
9.24217e-13
3.08825e-13
5.40628e-14
0.999997
0.999987
0.99997
0.999942
0.999895
0.999818
0.99969
0.999482
0.999148
0.998616
0.997784
0.996502
0.994567
0.991709
0.987588
0.981808
0.973941
0.963573
0.950354
0.934047
0.914558
0.891938
0.866364
0.838112
0.807525
0.774984
0.740889
0.705638
0.669618
0.633194
0.596703
0.56045
0.524703
0.489693
0.455613
0.422622
0.390849
0.360393
0.331324
0.303685
0.2775
0.25277
0.229484
0.207615
0.187129
0.167981
0.15012
0.133492
0.11804
0.103705
0.0904289
0.0781537
0.0668237
0.0563862
0.0467916
0.0379952
0.0300497
0.0229765
0.0163376
0.0103845
0.00515515
0.00310014
0.00219
0.00152839
0.00105226
0.00071358
0.000475923
0.000311797
0.00020063
0.000127199
8.04243e-05
5.24549e-05
3.78797e-05
2.86459e-05
2.10623e-05
1.47927e-05
9.84462e-06
6.17467e-06
3.64571e-06
2.03385e-06
1.07962e-06
5.49521e-07
2.69938e-07
1.29411e-07
6.07888e-08
2.80364e-08
1.27205e-08
5.68438e-09
2.50604e-09
1.0908e-09
4.69621e-10
2.00037e-10
8.44778e-11
3.53349e-11
1.46643e-11
6.00239e-12
2.41142e-12
9.20817e-13
3.07753e-13
5.38661e-14
0.999997
0.999987
0.99997
0.999942
0.999896
0.999818
0.999691
0.999483
0.999149
0.998618
0.997786
0.996506
0.994573
0.991716
0.987599
0.981823
0.973962
0.9636
0.950388
0.934088
0.914605
0.89199
0.866419
0.83817
0.807584
0.775043
0.740945
0.70569
0.669664
0.633233
0.596735
0.560473
0.524716
0.489696
0.455606
0.422605
0.390822
0.360357
0.331278
0.30363
0.277437
0.2527
0.229407
0.207534
0.187044
0.167892
0.150029
0.1334
0.117948
0.103614
0.0903388
0.0780657
0.0667384
0.0563041
0.0467131
0.0379205
0.0299786
0.0229087
0.0162716
0.0103183
0.00508995
0.00309632
0.00219452
0.00153656
0.00106136
0.000722155
0.000483299
0.000317767
0.000205246
0.000130644
8.2928e-05
5.42474e-05
3.91571e-05
2.95189e-05
2.16283e-05
1.51386e-05
1.00418e-05
6.27858e-06
3.6962e-06
2.05649e-06
1.08904e-06
5.53184e-07
2.71276e-07
1.29857e-07
6.09723e-08
2.80844e-08
1.27392e-08
5.68688e-09
2.50685e-09
1.0903e-09
4.69401e-10
1.99831e-10
8.43945e-11
3.52856e-11
1.46452e-11
5.99266e-12
2.40789e-12
9.19182e-13
3.07263e-13
5.3772e-14
0.999997
0.999987
0.99997
0.999942
0.999896
0.999818
0.999691
0.999483
0.999149
0.998618
0.997787
0.996507
0.994575
0.99172
0.987604
0.981831
0.973972
0.963613
0.950404
0.934107
0.914627
0.892014
0.866446
0.838198
0.807612
0.77507
0.740972
0.705714
0.669686
0.633252
0.596749
0.560483
0.524722
0.489697
0.455602
0.422596
0.390808
0.360338
0.331255
0.303603
0.277406
0.252666
0.22937
0.207495
0.187003
0.16785
0.149986
0.133356
0.117904
0.10357
0.0902965
0.0780247
0.0666992
0.0562668
0.0466781
0.0378877
0.0299479
0.0228798
0.0162432
0.0102885
0.00505774
0.00309444
0.00219938
0.00154397
0.00106912
0.000729203
0.000489212
0.000322467
0.000208833
0.000133291
8.48257e-05
5.55672e-05
4.00337e-05
3.00842e-05
2.19797e-05
1.53466e-05
1.01574e-05
6.33847e-06
3.72502e-06
2.06938e-06
1.09442e-06
5.55292e-07
2.72061e-07
1.30122e-07
6.10868e-08
2.81177e-08
1.2753e-08
5.69e-09
2.50809e-09
1.0904e-09
4.69435e-10
1.99785e-10
8.43761e-11
3.52702e-11
1.46392e-11
5.98925e-12
2.40668e-12
9.18569e-13
3.07083e-13
5.3737e-14
0.999997
0.999987
0.99997
0.999942
0.999896
0.999818
0.999691
0.999483
0.999149
0.998618
0.997787
0.996507
0.994575
0.99172
0.987604
0.981831
0.973972
0.963613
0.950404
0.934107
0.914627
0.892014
0.866446
0.838198
0.807612
0.77507
0.740971
0.705714
0.669686
0.633251
0.596749
0.560483
0.524722
0.489697
0.455602
0.422596
0.390808
0.360338
0.331255
0.303603
0.277406
0.252666
0.22937
0.207495
0.187003
0.16785
0.149986
0.133357
0.117904
0.10357
0.0902965
0.0780247
0.0666992
0.0562668
0.0466781
0.0378877
0.0299479
0.0228798
0.0162433
0.0102886
0.00505776
0.00309444
0.00219938
0.00154397
0.00106912
0.000729205
0.000489213
0.000322468
0.000208834
0.000133291
8.48261e-05
5.55674e-05
4.00338e-05
3.00843e-05
2.19797e-05
1.53466e-05
1.01575e-05
6.3385e-06
3.72503e-06
2.06939e-06
1.09443e-06
5.55295e-07
2.72065e-07
1.30124e-07
6.1086e-08
2.81179e-08
1.27527e-08
5.68998e-09
2.50803e-09
1.09039e-09
4.69422e-10
1.99782e-10
8.43736e-11
3.52695e-11
1.46388e-11
5.98912e-12
2.40657e-12
9.18556e-13
3.07062e-13
5.37356e-14
0.999997
0.999987
0.99997
0.999942
0.999896
0.999818
0.999691
0.999483
0.999149
0.998618
0.997786
0.996506
0.994573
0.991716
0.987599
0.981823
0.973962
0.9636
0.950388
0.934087
0.914605
0.891989
0.866419
0.83817
0.807584
0.775042
0.740945
0.70569
0.669664
0.633233
0.596734
0.560472
0.524716
0.489696
0.455606
0.422605
0.390822
0.360356
0.331278
0.30363
0.277436
0.2527
0.229407
0.207534
0.187044
0.167892
0.150029
0.1334
0.117948
0.103614
0.0903389
0.0780657
0.0667385
0.0563041
0.0467132
0.0379206
0.0299787
0.0229088
0.0162717
0.0103184
0.00509001
0.00309633
0.00219452
0.00153656
0.00106136
0.000722158
0.000483301
0.000317768
0.000205247
0.000130644
8.29287e-05
5.42479e-05
3.91573e-05
2.95191e-05
2.16284e-05
1.51387e-05
1.00419e-05
6.27866e-06
3.69625e-06
2.05652e-06
1.08906e-06
5.53193e-07
2.71286e-07
1.2986e-07
6.09706e-08
2.80851e-08
1.27387e-08
5.6869e-09
2.50671e-09
1.09029e-09
4.69371e-10
1.99825e-10
8.43886e-11
3.52842e-11
1.4644e-11
5.99238e-12
2.4076e-12
9.19158e-13
3.07205e-13
5.37686e-14
0.999997
0.999987
0.99997
0.999942
0.999895
0.999818
0.99969
0.999482
0.999148
0.998616
0.997784
0.996502
0.994567
0.991708
0.987587
0.981808
0.973941
0.963573
0.950354
0.934047
0.914558
0.891937
0.866363
0.838111
0.807524
0.774984
0.740888
0.705637
0.669617
0.633193
0.596703
0.56045
0.524703
0.489693
0.455613
0.422622
0.390849
0.360393
0.331324
0.303685
0.2775
0.25277
0.229484
0.207615
0.187129
0.167981
0.15012
0.133492
0.11804
0.103705
0.090429
0.0781538
0.0668239
0.0563863
0.0467918
0.0379953
0.0300498
0.0229766
0.0163377
0.0103846
0.00515525
0.00310016
0.00219002
0.0015284
0.00105226
0.000713586
0.000475928
0.000311801
0.000200633
0.000127201
8.04255e-05
5.24557e-05
3.78801e-05
2.86462e-05
2.10625e-05
1.47929e-05
9.84477e-06
6.17478e-06
3.64579e-06
2.0339e-06
1.07965e-06
5.49536e-07
2.69949e-07
1.29415e-07
6.07899e-08
2.80375e-08
1.27204e-08
5.68452e-09
2.50599e-09
1.0908e-09
4.69604e-10
2.00035e-10
8.44732e-11
3.53341e-11
1.46632e-11
6.00216e-12
2.41106e-12
9.20801e-13
3.07679e-13
5.38619e-14
0.999997
0.999987
0.99997
0.999942
0.999895
0.999818
0.99969
0.999482
0.999146
0.998614
0.99778
0.996497
0.994559
0.991696
0.98757
0.981783
0.973909
0.963531
0.950302
0.933984
0.914486
0.891857
0.866276
0.83802
0.807431
0.774891
0.7408
0.705555
0.669543
0.633129
0.596651
0.560411
0.524679
0.489684
0.45562
0.422644
0.390886
0.360445
0.331389
0.303763
0.277589
0.25287
0.229594
0.207734
0.187256
0.168114
0.150258
0.133633
0.118182
0.103847
0.0905696
0.0782921
0.0669589
0.0565173
0.0469181
0.0381166
0.0301655
0.0230872
0.0164446
0.0104897
0.00525447
0.00310596
0.00218704
0.00152133
0.00104388
0.000705448
0.000468802
0.000305963
0.000196077
0.000123771
7.79009e-05
5.06033e-05
3.64979e-05
2.76724e-05
2.04182e-05
1.43933e-05
9.615e-06
6.05336e-06
3.58701e-06
2.00777e-06
1.06893e-06
5.45469e-07
2.68535e-07
1.28958e-07
6.06608e-08
2.80131e-08
1.2722e-08
5.69023e-09
2.51001e-09
1.09322e-09
4.70771e-10
2.00634e-10
8.47235e-11
3.54539e-11
1.47107e-11
6.02389e-12
2.419e-12
9.2425e-13
3.08733e-13
5.40633e-14
0.999997
0.999987
0.99997
0.999942
0.999895
0.999817
0.999689
0.99948
0.999145
0.998611
0.997775
0.996489
0.994548
0.99168
0.987546
0.98175
0.973864
0.963473
0.950229
0.933898
0.914385
0.891744
0.866154
0.837891
0.807299
0.774761
0.740673
0.705436
0.669435
0.633035
0.596573
0.560352
0.524639
0.489665
0.455621
0.422667
0.39093
0.360509
0.331472
0.303865
0.277707
0.253003
0.22974
0.207892
0.187423
0.168289
0.150439
0.13382
0.118374
0.104041
0.0907625
0.0784827
0.067146
0.0566997
0.047095
0.0382873
0.0303282
0.023243
0.0165948
0.0106357
0.00538964
0.00311384
0.00218599
0.00151591
0.00103687
0.000698404
0.000462519
0.000300757
0.000191979
0.00012066
7.55818e-05
4.88611e-05
3.51438e-05
2.67001e-05
1.97696e-05
1.39896e-05
9.38352e-06
5.9323e-06
3.52953e-06
1.98296e-06
1.05919e-06
5.42033e-07
2.67499e-07
1.28712e-07
6.06458e-08
2.80465e-08
1.27526e-08
5.70923e-09
2.52034e-09
1.09845e-09
4.73263e-10
2.01784e-10
8.52301e-11
3.56791e-11
1.48004e-11
6.06364e-12
2.43362e-12
9.30404e-13
3.10624e-13
5.44192e-14
0.999997
0.999987
0.99997
0.999942
0.999895
0.999817
0.999688
0.999479
0.999142
0.998607
0.997769
0.99648
0.994533
0.991658
0.987515
0.981706
0.973805
0.963397
0.950134
0.933783
0.914252
0.891595
0.865992
0.83772
0.807123
0.774584
0.740502
0.705273
0.669286
0.632903
0.596461
0.560262
0.524575
0.489627
0.455611
0.422684
0.390975
0.36058
0.33157
0.303986
0.277851
0.253167
0.229922
0.20809
0.187634
0.16851
0.150668
0.134054
0.118612
0.104283
0.091008
0.0787278
0.0673873
0.0569359
0.0473248
0.0385098
0.0305404
0.0234466
0.016791
0.0108254
0.00556323
0.00312393
0.00218707
0.00151243
0.00103152
0.000692729
0.000457325
0.000296386
0.000188501
0.000117989
7.35603e-05
4.73005e-05
3.3875e-05
2.5775e-05
1.91518e-05
1.36071e-05
9.16692e-06
5.82168e-06
3.47907e-06
1.96254e-06
1.05202e-06
5.40022e-07
2.67218e-07
1.28847e-07
6.08174e-08
2.81642e-08
1.28205e-08
5.74555e-09
2.53854e-09
1.1072e-09
4.77303e-10
2.03605e-10
8.60277e-11
3.60239e-11
1.49447e-11
6.12476e-12
2.45731e-12
9.39891e-13
3.13702e-13
5.49592e-14
0.999997
0.999987
0.99997
0.999942
0.999894
0.999816
0.999687
0.999477
0.999139
0.998602
0.997761
0.996467
0.994514
0.99163
0.987475
0.981651
0.973731
0.963301
0.950014
0.933638
0.914083
0.891404
0.865783
0.837498
0.806894
0.774354
0.740275
0.705057
0.669084
0.632721
0.596304
0.560133
0.524476
0.48956
0.455578
0.422686
0.39101
0.36065
0.331672
0.304119
0.278013
0.253355
0.230134
0.208322
0.187884
0.168775
0.150946
0.134341
0.118904
0.104576
0.0913015
0.0790224
0.0676832
0.0572284
0.04761
0.0387867
0.0308048
0.0237008
0.0170361
0.0110626
0.0057807
0.00313647
0.00219056
0.00151115
0.00102807
0.000688622
0.000453376
0.00029297
0.000185727
0.000115818
7.18712e-05
4.59394e-05
3.27032e-05
2.49062e-05
1.85742e-05
1.3254e-05
8.97166e-06
5.72611e-06
3.43868e-06
1.94847e-06
1.04861e-06
5.40091e-07
2.67941e-07
1.2946e-07
6.12071e-08
2.83869e-08
1.29385e-08
5.8047e-09
2.56696e-09
1.12041e-09
4.83277e-10
2.06248e-10
8.71744e-11
3.65137e-11
1.51505e-11
6.20999e-12
2.49172e-12
9.53028e-13
3.18135e-13
5.57268e-14
0.999997
0.999987
0.99997
0.999941
0.999894
0.999815
0.999686
0.999475
0.999135
0.998596
0.997752
0.996453
0.994492
0.991597
0.987427
0.981584
0.973639
0.963181
0.949864
0.933456
0.91387
0.891163
0.865519
0.837216
0.806601
0.774056
0.739981
0.704772
0.668816
0.632476
0.596086
0.559948
0.524327
0.489451
0.45551
0.422659
0.391026
0.360707
0.331769
0.304255
0.278184
0.25356
0.230368
0.208583
0.188169
0.16908
0.151267
0.134675
0.119247
0.104926
0.0916534
0.0793722
0.0680288
0.0575718
0.047951
0.0391194
0.0311237
0.0240073
0.0173307
0.011345
0.00605156
0.00315181
0.00219683
0.00151242
0.00102683
0.000686339
0.000450874
0.000290659
0.000183764
0.000114212
7.05499e-05
4.47806e-05
3.15752e-05
2.40669e-05
1.80253e-05
1.29266e-05
8.79763e-06
5.64673e-06
3.4097e-06
1.94181e-06
1.04951e-06
5.42341e-07
2.6988e-07
1.30675e-07
6.18962e-08
2.87507e-08
1.31212e-08
5.89289e-09
2.6082e-09
1.13919e-09
4.91641e-10
2.09902e-10
8.87453e-11
3.71795e-11
1.5429e-11
6.32473e-12
2.53795e-12
9.70723e-13
3.24071e-13
5.67661e-14
0.999997
0.999987
0.99997
0.999941
0.999893
0.999814
0.999684
0.999472
0.999131
0.998589
0.99774
0.996435
0.994465
0.991556
0.987368
0.981502
0.973528
0.963036
0.94968
0.933233
0.913608
0.890865
0.86519
0.836863
0.806231
0.773678
0.739603
0.704403
0.668465
0.632149
0.595791
0.559691
0.524112
0.489281
0.455389
0.422588
0.391005
0.360735
0.331847
0.304379
0.278353
0.253771
0.230617
0.208866
0.188482
0.169419
0.151628
0.135054
0.11964
0.105329
0.0920621
0.0797834
0.0684379
0.0579745
0.0483472
0.0395124
0.0315035
0.0243721
0.0176817
0.0116821
0.00637533
0.00317008
0.0022063
0.00151675
0.00102829
0.000686324
0.000450158
0.000289685
0.000182755
0.000113253
6.96358e-05
4.38413e-05
3.04962e-05
2.32627e-05
1.7512e-05
1.26309e-05
8.64922e-06
5.58664e-06
3.39425e-06
1.94374e-06
1.05519e-06
5.47465e-07
2.73326e-07
1.32645e-07
6.29462e-08
2.92831e-08
1.33808e-08
6.01556e-09
2.66463e-09
1.16456e-09
5.02825e-10
2.14749e-10
9.08155e-11
3.80523e-11
1.57925e-11