/*--------------------------------*- C++ -*----------------------------------*\
  =========                 |
  \\      /  F ield         | OpenFOAM: The Open Source CFD Toolbox
   \\    /   O peration     | Website:  https://openfoam.org
    \\  /    A nd           | Version:  8
     \\/     M anipulation  |
\*---------------------------------------------------------------------------*/
FoamFile
{
    version     2.0;
    format      ascii;
    class       volScalarField;
    location    "940/fluid";
    object      CO2;
}
// * * * * * * * * * * * * * * * * * * * * * * * * * * * * * * * * * * * * * //

dimensions      [0 0 0 0 0 0 0];

internalField   nonuniform List<scalar> 
4000
(
4.73564e-07
2.06933e-06
4.75259e-06
9.25038e-06
1.67577e-05
2.92192e-05
4.97624e-05
8.33455e-05
0.000137696
0.000224609
0.000361646
0.000574158
0.00089735
0.00137779
0.00207344
0.00305114
0.00438073
0.00612637
0.00833702
0.011039
0.0142332
0.0178966
0.0219873
0.0264507
0.0312247
0.0362448
0.0414468
0.0467694
0.0521552
0.0575522
0.0629141
0.0682004
0.0733771
0.0784157
0.0832938
0.0879933
0.0925005
0.0968061
0.100904
0.104792
0.108469
0.111938
0.115201
0.118264
0.121133
0.123812
0.126308
0.128627
0.130773
0.132751
0.134561
0.136206
0.137681
0.138981
0.140094
0.141003
0.141683
0.142092
0.142191
0.141913
0.141162
0.139811
0.137089
0.126555
0.115846
0.105141
0.0945797
0.0842707
0.0743017
0.0647435
0.055656
0.0470922
0.0391016
0.0317705
0.025071
0.0191091
0.0139489
0.00965375
0.00627058
0.0037942
0.00213487
0.00112265
0.000556965
0.000264927
0.000122427
5.52955e-05
2.45147e-05
1.07025e-05
4.6127e-06
1.96655e-06
8.30734e-07
3.482e-07
1.44966e-07
5.99817e-08
2.46529e-08
1.00353e-08
4.00878e-09
1.52997e-09
5.10893e-10
8.9562e-11
4.7399e-07
2.07167e-06
4.76007e-06
9.27063e-06
1.6806e-05
2.93223e-05
4.99609e-05
8.36895e-05
0.000138221
0.000225277
0.000362211
0.000573949
0.00089494
0.00137053
0.00205704
0.00301947
0.00432607
0.00604032
0.00821181
0.010869
0.0140159
0.0176328
0.0216813
0.026109
0.0308557
0.0358575
0.0410502
0.0463719
0.0517642
0.057174
0.0625538
0.067862
0.0730633
0.0781284
0.083034
0.0877613
0.092296
0.0966281
0.100751
0.104663
0.108363
0.111852
0.115134
0.118214
0.121097
0.12379
0.126297
0.128626
0.130781
0.132765
0.134582
0.136231
0.13771
0.139013
0.140127
0.141037
0.141717
0.142125
0.142222
0.14194
0.141182
0.13982
0.136262
0.125657
0.114892
0.104142
0.0935431
0.0832041
0.073212
0.0636384
0.0545445
0.0459849
0.0380122
0.0307177
0.0240762
0.0182006
0.0131567
0.00900629
0.0057856
0.00346867
0.00194193
0.00102187
0.000510184
0.000244784
0.000114265
5.21444e-05
2.33429e-05
1.02779e-05
4.46086e-06
1.91222e-06
8.10995e-07
3.40826e-07
1.42114e-07
5.88397e-08
2.41841e-08
9.84093e-09
3.92908e-09
1.49878e-09
5.00278e-10
8.77087e-11
4.75036e-07
2.07651e-06
4.77239e-06
9.29749e-06
1.68594e-05
2.94209e-05
5.01296e-05
8.39542e-05
0.000138593
0.000225712
0.000362525
0.000573632
0.000892864
0.00136472
0.00204435
0.00299533
0.00428452
0.0059743
0.00811397
0.0107327
0.0138361
0.0174071
0.0214098
0.0257947
0.0305039
0.0354751
0.0406453
0.045953
0.0513397
0.0567519
0.0621411
0.067465
0.072687
0.0777769
0.0827101
0.0874671
0.0920327
0.096396
0.10055
0.104492
0.10822
0.111737
0.115044
0.118147
0.121052
0.123763
0.126288
0.128632
0.130799
0.132794
0.13462
0.136276
0.13776
0.139067
0.140184
0.141094
0.141773
0.142177
0.142268
0.141977
0.141204
0.139819
0.134795
0.12414
0.113329
0.102542
0.0919171
0.0815656
0.071576
0.0620219
0.0529664
0.0444665
0.036577
0.0293795
0.0228767
0.0171672
0.0123115
0.00836091
0.00533371
0.00318254
0.00177869
0.000937237
0.000469706
0.000226376
0.000106203
4.87174e-05
2.19205e-05
9.69839e-06
4.22785e-06
1.8193e-06
7.74066e-07
3.26134e-07
1.36244e-07
5.64808e-08
2.32316e-08
9.45643e-09
3.77569e-09
1.44009e-09
4.80566e-10
8.42401e-11
4.74429e-07
2.07382e-06
4.76605e-06
9.28428e-06
1.68322e-05
2.9363e-05
5.00037e-05
8.36794e-05
0.000138004
0.000224492
0.000360106
0.000569073
0.000884713
0.00135078
0.0020215
0.00295949
0.00423075
0.00589723
0.00800835
0.0105941
0.0136615
0.0171951
0.0211608
0.025511
0.0301891
0.0351342
0.040284
0.0455776
0.0509571
0.0563685
0.0617633
0.0670984
0.0723367
0.0774471
0.0824042
0.0871876
0.0917814
0.096174
0.100358
0.104329
0.108086
0.111629
0.114962
0.11809
0.121016
0.123748
0.126291
0.12865
0.13083
0.132837
0.134671
0.136334
0.137823
0.139132
0.140249
0.141158
0.141832
0.142227
0.142306
0.141998
0.141201
0.139783
0.13297
0.122296
0.111465
0.100663
0.0900358
0.0796975
0.0697394
0.060237
0.0512552
0.0428523
0.0350847
0.0280045
0.0216698
0.0161443
0.0114838
0.00773076
0.00488952
0.00289621
0.00161053
0.000846673
0.000424418
0.000204955
9.64382e-05
4.43924e-05
2.00495e-05
8.9047e-06
3.89661e-06
1.68286e-06
7.18428e-07
3.03611e-07
1.27171e-07
5.28382e-08
2.17737e-08
8.87604e-09
3.54794e-09
1.35427e-09
4.52106e-10
7.92673e-11
4.72461e-07
2.06512e-06
4.74563e-06
9.24319e-06
1.67542e-05
2.92189e-05
4.974e-05
8.32002e-05
0.00013714
0.000222948
0.000357389
0.000564378
0.000876781
0.00133773
0.00200072
0.00292754
0.00418351
0.00583019
0.00791715
0.010475
0.013512
0.017014
0.0209486
0.0252695
0.0299213
0.0348442
0.0399767
0.0452583
0.0506312
0.0560416
0.0614407
0.066785
0.0720369
0.0771647
0.0821422
0.0869487
0.0915673
0.0959858
0.100196
0.104193
0.107976
0.111545
0.114902
0.118052
0.120999
0.123749
0.126307
0.12868
0.130873
0.132889
0.134731
0.136399
0.13789
0.139198
0.140312
0.141213
0.141877
0.142257
0.142317
0.141983
0.141151
0.13969
0.131048
0.120382
0.109546
0.0987425
0.0881254
0.077814
0.0679021
0.0584663
0.0495716
0.0412762
0.033648
0.0267122
0.020544
0.0152001
0.0107291
0.00716435
0.00449633
0.0026464
0.00146544
0.000768984
0.000385544
0.000186461
8.79248e-05
4.05728e-05
1.83706e-05
8.179e-06
3.58728e-06
1.55252e-06
6.64035e-07
2.81089e-07
1.17905e-07
4.90473e-08
2.02315e-08
8.25388e-09
3.30119e-09
1.26056e-09
4.20865e-10
7.37921e-11
4.69431e-07
2.05176e-06
4.71436e-06
9.1807e-06
1.66371e-05
2.90063e-05
4.93611e-05
8.25339e-05
0.000135982
0.000220963
0.000354039
0.00055883
0.000867796
0.00132356
0.00197902
0.00289538
0.00413754
0.00576692
0.00783331
0.010368
0.0133801
0.0168567
0.0207665
0.0250642
0.0296955
0.0346012
0.0397204
0.044993
0.0503614
0.0557718
0.0611752
0.0665279
0.0717919
0.0769349
0.0819303
0.0867567
0.0913969
0.0958379
0.100071
0.104092
0.107897
0.111487
0.114865
0.118035
0.120999
0.123765
0.126337
0.128722
0.130924
0.132947
0.134793
0.136462
0.137951
0.139254
0.140359
0.141248
0.141894
0.142251
0.142285
0.141919
0.141052
0.139565
0.129362
0.118662
0.107785
0.0969567
0.0863372
0.0760479
0.066182
0.0568144
0.0480079
0.039818
0.0323205
0.0255221
0.0195174
0.0143483
0.0100533
0.0066598
0.00414695
0.00242407
0.00133539
0.000698456
0.000349642
0.000169103
7.98064e-05
3.68765e-05
1.67251e-05
7.46032e-06
3.27844e-06
1.42162e-06
6.09179e-07
2.58316e-07
1.08524e-07
4.52075e-08
1.86697e-08
7.62404e-09
3.05149e-09
1.16574e-09
3.89264e-10
6.82539e-11
4.65949e-07
2.03646e-06
4.67885e-06
9.11047e-06
1.65073e-05
2.87744e-05
4.89554e-05
8.18348e-05
0.000134793
0.000218969
0.000350745
0.000553486
0.000859304
0.00131038
0.00195914
0.00286632
0.00409647
0.00571096
0.00775985
0.010275
0.0132664
0.0167222
0.020612
0.0248912
0.0295065
0.034399
0.0395084
0.0447749
0.0501408
0.0555525
0.0609608
0.0663216
0.0715967
0.0767534
0.0817646
0.0866085
0.0912674
0.095728
0.0999812
0.104021
0.107846
0.111456
0.114851
0.118036
0.121015
0.123793
0.126377
0.128771
0.130979
0.133006
0.134853
0.13652
0.138004
0.139296
0.140385
0.141251
0.141867
0.142183
0.14217
0.141746
0.140817
0.139291
0.128454
0.117399
0.106327
0.0953978
0.0847403
0.0744567
0.0646296
0.0553271
0.0466085
0.0385281
0.0311772
0.0245151
0.0186373
0.0136046
0.00946186
0.00622032
0.0038449
0.00223328
0.00122442
0.000638444
0.000319079
0.000154278
7.28343e-05
3.36791e-05
1.52896e-05
6.82752e-06
3.00389e-06
1.30413e-06
5.59497e-07
2.3752e-07
9.98928e-08
4.16521e-08
1.72158e-08
7.03511e-09
2.81717e-09
1.07653e-09
3.59479e-10
6.30286e-11
4.62343e-07
2.02065e-06
4.64224e-06
9.03835e-06
1.63746e-05
2.85388e-05
4.85462e-05
8.11354e-05
0.000133615
0.000217014
0.000347552
0.000548367
0.000851273
0.00129809
0.00194084
0.00283992
0.00405966
0.00566142
0.00769556
0.0101945
0.013169
0.016608
0.0204817
0.0247466
0.0293495
0.0342323
0.0393349
0.0445975
0.0499627
0.0553767
0.0607902
0.0661589
0.0714443
0.0766133
0.0816386
0.0864979
0.0911731
0.0956504
0.0999205
0.103978
0.107819
0.111444
0.114853
0.118051
0.121042
0.123831
0.126423
0.128823
0.131036
0.133065
0.13491
0.136573
0.138047
0.139325
0.140392
0.141227
0.141794
0.142046
0.141936
0.141365
0.140213
0.138349
0.127309
0.116104
0.104935
0.0939549
0.0832848
0.0730194
0.063236
0.0539987
0.0453631
0.0373795
0.0301188
0.023578
0.017835
0.0129419
0.0089426
0.00583954
0.00358541
0.00206998
0.00112946
0.000586928
0.000292699
0.000141407
6.67434e-05
3.08691e-05
1.4021e-05
6.26548e-06
2.75895e-06
1.19891e-06
5.14853e-07
2.18778e-07
9.2096e-08
3.84339e-08
1.58975e-08
6.50038e-09
2.60417e-09
9.95351e-10
3.32361e-10
5.82698e-11
4.58853e-07
2.00537e-06
4.60696e-06
8.9691e-06
1.62477e-05
2.83147e-05
4.81592e-05
8.04783e-05
0.000132516
0.000215204
0.000344621
0.000543709
0.000844028
0.0012871
0.00192461
0.00281668
0.00402749
0.00561845
0.0076402
0.0101257
0.0130863
0.0165116
0.0203727
0.0246263
0.0292199
0.0340957
0.0391937
0.0444542
0.04982
0.0552371
0.060656
0.0660324
0.0713273
0.0765074
0.0815452
0.0864179
0.0911071
0.0955989
0.0998835
0.103955
0.107809
0.111447
0.114868
0.118077
0.121077
0.123874
0.126472
0.128877
0.131092
0.133121
0.134965
0.136622
0.138088
0.139353
0.140401
0.14121
0.141741
0.141944
0.141761
0.141086
0.139772
0.137315
0.126134
0.114841
0.103624
0.0926305
0.0819743
0.0717471
0.0620228
0.052863
0.0443207
0.0364439
0.0292947
0.0228703
0.0172444
0.0124551
0.00853407
0.0055233
0.00336657
0.00193206
0.00104926
0.000543409
0.000270379
0.000130489
6.15605e-05
2.84689e-05
1.2933e-05
5.78146e-06
2.54714e-06
1.10755e-06
4.75944e-07
2.02388e-07
8.52563e-08
3.56032e-08
1.47354e-08
6.02806e-09
2.41574e-09
9.23458e-10
3.08332e-10
5.40487e-11
4.5561e-07
1.99118e-06
4.57424e-06
8.905e-06
1.61306e-05
2.81084e-05
4.78042e-05
7.9878e-05
0.000131517
0.000213567
0.000341984
0.000539543
0.000837589
0.00127739
0.00191037
0.00279644
0.00399966
0.00558153
0.00759295
0.0100674
0.0130166
0.016431
0.0202821
0.024527
0.0291137
0.0339845
0.0390796
0.0443394
0.0497066
0.0551272
0.0605516
0.0659352
0.0712388
0.0764289
0.0814775
0.0863618
0.0910631
0.0955671
0.099864
0.103947
0.107812
0.11146
0.114891
0.118108
0.121116
0.123919
0.126521
0.128929
0.131146
0.133174
0.135016
0.136669
0.138128
0.139384
0.140422
0.141218
0.141733
0.141923
0.141732
0.141061
0.139786
0.136189
0.124956
0.11363
0.1024
0.0914102
0.0807743
0.0705815
0.0609038
0.0518019
0.0433273
0.0355286
0.0284517
0.0221259
0.01661
0.0119491
0.00817267
0.0052577
0.00317947
0.00181429
0.000981051
0.000506457
0.000251426
0.000121209
5.71474e-05
2.64213e-05
1.20028e-05
5.3667e-06
2.36523e-06
1.02892e-06
4.42389e-07
1.88226e-07
7.93361e-08
3.31492e-08
1.37264e-08
5.61756e-09
2.25182e-09
8.60877e-10
2.87413e-10
5.037e-11
4.52685e-07
1.97838e-06
4.54478e-06
8.84738e-06
1.60255e-05
2.79238e-05
4.74874e-05
7.93441e-05
0.000130631
0.000212122
0.000339667
0.000535899
0.000831982
0.00126897
0.00189809
0.00277907
0.00397592
0.00555018
0.00755305
0.0100183
0.0129584
0.0163641
0.0202073
0.0244456
0.0290272
0.0338945
0.038988
0.044248
0.0496172
0.0550415
0.0604711
0.0658613
0.0711727
0.0763716
0.0814298
0.0863241
0.0910357
0.09555
0.0998568
0.103949
0.107824
0.11148
0.114918
0.118142
0.121155
0.123962
0.126568
0.128978
0.131195
0.133222
0.135061
0.13671
0.138165
0.139414
0.140445
0.141232
0.141739
0.141922
0.141727
0.141057
0.139789
0.135081
0.123839
0.112518
0.101303
0.0903388
0.0797409
0.0695967
0.0599768
0.0509412
0.0425286
0.0347857
0.0277549
0.0215007
0.0160697
0.0115007
0.0078207
0.00502307
0.00302424
0.00171451
0.000923271
0.000475242
0.000235438
0.000113384
5.34247e-05
2.46922e-05
1.12163e-05
5.01544e-06
2.2109e-06
9.62091e-07
4.1382e-07
1.76148e-07
7.42794e-08
3.10502e-08
1.28625e-08
5.26575e-09
2.11125e-09
8.07188e-10
2.69467e-10
4.72161e-11
4.50106e-07
1.96711e-06
4.51884e-06
8.79669e-06
1.59333e-05
2.7762e-05
4.72104e-05
7.88783e-05
0.000129861
0.000210868
0.000337663
0.000532759
0.00082717
0.00126178
0.00188764
0.00276435
0.00395587
0.00552384
0.00751967
0.00997754
0.0129103
0.016309
0.020146
0.0243793
0.0289572
0.0338222
0.0389149
0.0441758
0.0495472
0.0549752
0.0604097
0.0658058
0.0711242
0.0763307
0.081397
0.0862998
0.09102
0.0955427
0.0998575
0.103958
0.10784
0.111502
0.114947
0.118175
0.121192
0.124002
0.12661
0.12902
0.131237
0.133263
0.135099
0.136744
0.138194
0.139437
0.140461
0.141241
0.141741
0.141918
0.141719
0.141048
0.139785
0.134086
0.122838
0.111521
0.100326
0.0893966
0.0788385
0.068731
0.0591452
0.0501374
0.0417698
0.0340878
0.0271341
0.0209577
0.0156072
0.011121
0.00752372
0.00480356
0.00288866
0.0016323
0.000874722
0.000448964
0.000222015
0.000106821
5.03035e-05
2.32421e-05
1.05562e-05
4.72038e-06
2.08112e-06
9.05826e-07
3.89735e-07
1.65953e-07
7.00057e-08
2.92743e-08
1.21309e-08
4.96761e-09
1.99212e-09
7.61729e-10
2.54301e-10
4.45558e-11
4.47877e-07
1.95737e-06
4.49644e-06
8.75298e-06
1.58538e-05
2.76228e-05
4.69725e-05
7.84793e-05
0.000129202
0.0002098
0.00033596
0.000530097
0.000823103
0.00125572
0.00187886
0.00275203
0.00393915
0.00550195
0.00749205
0.00994392
0.0128707
0.0162639
0.0200962
0.0243258
0.0289009
0.0337646
0.0388571
0.0441191
0.0494928
0.0549242
0.0603631
0.0657645
0.0710888
0.0763019
0.0813751
0.0862849
0.0910121
0.0955417
0.0998632
0.10397
0.107857
0.111525
0.114973
0.118206
0.121225
0.124037
0.126646
0.129056
0.131271
0.133295
0.135128
0.136769
0.138212
0.13945
0.140467
0.14124
0.141733
0.141904
0.141701
0.141029
0.139771
0.133229
0.121969
0.110658
0.0994787
0.0885623
0.0780172
0.0679371
0.0583906
0.0494352
0.0411222
0.0334986
0.0266071
0.0204974
0.0152166
0.0108022
0.00727635
0.00462307
0.00276513
0.00156216
0.000835421
0.000427272
0.000210866
0.000101381
4.77176e-05
2.20404e-05
1.00088e-05
4.4754e-06
1.97323e-06
8.58985e-07
3.69655e-07
1.57441e-07
6.64333e-08
2.7788e-08
1.1518e-08
4.71763e-09
1.89218e-09
7.23581e-10
2.41574e-10
4.23237e-11
4.45988e-07
1.94912e-06
4.47747e-06
8.716e-06
1.57866e-05
2.75053e-05
4.6772e-05
7.81434e-05
0.000128649
0.000208904
0.000334535
0.000527875
0.000819716
0.00125069
0.00187159
0.00274186
0.00392539
0.00548399
0.00746947
0.00991653
0.0128386
0.0162276
0.0200562
0.0242829
0.0288562
0.033719
0.0388117
0.0440749
0.0494508
0.0548853
0.060328
0.065734
0.0710633
0.0762818
0.0813607
0.0862763
0.0910091
0.0955442
0.0998708
0.103982
0.107874
0.111545
0.114997
0.118231
0.121253
0.124065
0.126674
0.129083
0.131296
0.133317
0.135146
0.136782
0.13822
0.139452
0.140462
0.141229
0.141715
0.141881
0.141674
0.141002
0.139751
0.132499
0.121225
0.109914
0.0987366
0.0878358
0.0773186
0.0672705
0.0577607
0.0488469
0.0405795
0.0330051
0.0261659
0.0201123
0.0148905
0.010537
0.00707189
0.00447538
0.00266579
0.00149954
0.000802401
0.000410225
0.000201977
9.69651e-05
4.5608e-05
2.10578e-05
9.56012e-06
4.2742e-06
1.88445e-06
8.20379e-07
3.53082e-07
1.50407e-07
6.34772e-08
2.65569e-08
1.10098e-08
4.51025e-09
1.80923e-09
6.91909e-10
2.31012e-10
4.04699e-11
4.44422e-07
1.94228e-06
4.46175e-06
8.68535e-06
1.57309e-05
2.74081e-05
4.66064e-05
7.78663e-05
0.000128194
0.000208167
0.000333365
0.000526055
0.000816947
0.00124658
0.00186568
0.00273359
0.00391424
0.00546949
0.00745128
0.00989454
0.012813
0.0161986
0.0200244
0.024249
0.028821
0.0336834
0.0387765
0.0440408
0.0494187
0.0548558
0.0603018
0.0657115
0.071045
0.0762678
0.0813512
0.0862712
0.0910085
0.0955478
0.0998784
0.103993
0.107888
0.111562
0.115016
0.118252
0.121274
0.124086
0.126694
0.129101
0.131312
0.133329
0.135154
0.136785
0.138218
0.139443
0.140447
0.141207
0.141686
0.141847
0.141638
0.140968
0.139728
0.131898
0.120603
0.109286
0.0981174
0.087233
0.0767384
0.0667177
0.0572392
0.0483603
0.0401309
0.0325974
0.0258016
0.0197945
0.0146218
0.0103191
0.00690455
0.00435525
0.00258578
0.00144992
0.000773294
0.00039556
0.000194924
9.34882e-05
4.39154e-05
2.0261e-05
9.19506e-06
4.11028e-06
1.81203e-06
7.88846e-07
3.39532e-07
1.44651e-07
6.1057e-08
2.55485e-08
1.05936e-08
4.34031e-09
1.74134e-09
6.65962e-10
2.22381e-10
3.89567e-11
4.43156e-07
1.93675e-06
4.44905e-06
8.66061e-06
1.56861e-05
2.73298e-05
4.6473e-05
7.76436e-05
0.000127828
0.000207576
0.000332428
0.0005246
0.000814737
0.00124331
0.00186097
0.00272704
0.00390541
0.00545802
0.00743693
0.00987725
0.0127928
0.0161759
0.0199997
0.0242227
0.0287938
0.0336559
0.0387495
0.0440149
0.0493944
0.0548336
0.0602823
0.0656949
0.0710316
0.0762579
0.0813447
0.0862681
0.0910086
0.095551
0.0998845
0.104002
0.107899
0.111574
0.115029
0.118265
0.121287
0.124099
0.126705
0.12911
0.131318
0.133332
0.135153
0.136779
0.138206
0.139425
0.140422
0.141175
0.141649
0.141806
0.141596
0.140929
0.139703
0.131411
0.120099
0.108776
0.0976125
0.0867413
0.0762654
0.0662676
0.0568153
0.0479652
0.0397672
0.0322671
0.0255069
0.0195377
0.0144049
0.0101435
0.00677003
0.00425905
0.00252203
0.00141071
0.000750576
0.000382827
0.000188424
9.05162e-05
4.25607e-05
1.96261e-05
8.90187e-06
3.97783e-06
1.75348e-06
7.63357e-07
3.28595e-07
1.40008e-07
5.91075e-08
2.47366e-08
1.02596e-08
4.20376e-09
1.68729e-09
6.45253e-10
2.15512e-10
3.77497e-11
4.42171e-07
1.93245e-06
4.43917e-06
8.64138e-06
1.56512e-05
2.7269e-05
4.63696e-05
7.74708e-05
0.000127544
0.000207119
0.000331704
0.000523476
0.000813033
0.00124079
0.00185735
0.002722
0.00389864
0.00544925
0.00742598
0.00986407
0.0127775
0.0161587
0.0199809
0.0242029
0.0287734
0.0336354
0.0387293
0.0439956
0.0493764
0.0548173
0.0602679
0.0656828
0.0710219
0.0762505
0.0813397
0.0862655
0.0910082
0.0955527
0.099888
0.104007
0.107905
0.111581
0.115037
0.118273
0.121294
0.124104
0.126709
0.129111
0.131316
0.133326
0.135142
0.136763
0.138184
0.139397
0.140388
0.141136
0.141605
0.14176
0.14155
0.140889
0.13968
0.131027
0.119695
0.108367
0.0972095
0.0863498
0.0758899
0.0659112
0.0564805
0.0476539
0.0394812
0.032008
0.0252759
0.0193367
0.0142355
0.0100066
0.00666549
0.00418451
0.00247284
0.00138064
0.00073341
0.00037354
0.000183606
8.80677e-05
4.13913e-05
1.91081e-05
8.67082e-06
3.87496e-06
1.70804e-06
7.43576e-07
3.20107e-07
1.36409e-07
5.76003e-08
2.41098e-08
1.00036e-08
4.09925e-09
1.64598e-09
6.29407e-10
2.1026e-10
3.68277e-11
4.41449e-07
1.9293e-06
4.43194e-06
8.6273e-06
1.56257e-05
2.72245e-05
4.62939e-05
7.73446e-05
0.000127337
0.000206785
0.000331176
0.000522658
0.000811793
0.00123896
0.00185472
0.00271835
0.00389374
0.0054429
0.00741807
0.00985456
0.0127665
0.0161464
0.0199675
0.0241887
0.0287588
0.0336207
0.038715
0.0439819
0.0493637
0.0548058
0.0602578
0.0656742
0.0710148
0.0762451
0.0813357
0.0862629
0.091007
0.0955526
0.0998889
0.104009
0.107907
0.111584
0.115039
0.118275
0.121295
0.124103
0.126706
0.129106
0.131307
0.133313
0.135125
0.136741
0.138157
0.139364
0.140349
0.141092
0.141557
0.14171
0.141502
0.14085
0.13966
0.130742
0.119391
0.108058
0.0969034
0.0860529
0.075606
0.0656428
0.0562292
0.0474212
0.039268
0.0318153
0.0251046
0.019188
0.0141105
0.0099059
0.00658878
0.00412999
0.00243695
0.00135874
0.000720927
0.000366827
0.00018016
8.63672e-05
4.0573e-05
1.87192e-05
8.49798e-06
3.7995e-06
1.67545e-06
7.29544e-07
3.14134e-07
1.33874e-07
5.65452e-08
2.3669e-08
9.82314e-09
4.02532e-09
1.61663e-09
6.18135e-10
2.06519e-10
3.61705e-11
4.40978e-07
1.92724e-06
4.42721e-06
8.6181e-06
1.5609e-05
2.71955e-05
4.62445e-05
7.72623e-05
0.000127202
0.000206568
0.000330832
0.000522126
0.000810987
0.00123777
0.00185302
0.00271598
0.00389056
0.00543879
0.00741295
0.00984842
0.0127594
0.0161384
0.0199589
0.0241796
0.0287494
0.0336114
0.0387058
0.0439731
0.0493555
0.0547983
0.0602512
0.0656685
0.0710101
0.0762412
0.0813326
0.0862604
0.091005
0.0955512
0.0998878
0.104008
0.107907
0.111583
0.115037
0.118272
0.121291
0.124098
0.126698
0.129096
0.131294
0.133297
0.135105
0.136716
0.138127
0.139329
0.140309
0.141047
0.141509
0.141661
0.141457
0.140815
0.139645
0.130555
0.119184
0.107844
0.0966918
0.0858482
0.0754112
0.0654597
0.0560589
0.0472642
0.039125
0.0316866
0.0249907
0.0190895
0.014028
0.00983973
0.00653862
0.00409453
0.0024137
0.00134456
0.000712837
0.000362474
0.00017793
8.52742e-05
4.00648e-05
1.84782e-05
8.38734e-06
3.74899e-06
1.65377e-06
7.20173e-07
3.10221e-07
1.32218e-07
5.58614e-08
2.33839e-08
9.70694e-09
3.97776e-09
1.59781e-09
6.10898e-10
2.04124e-10
3.57493e-11
4.40748e-07
1.92623e-06
4.42492e-06
8.61365e-06
1.5601e-05
2.71815e-05
4.62208e-05
7.72229e-05
0.000127138
0.000206464
0.000330669
0.000521873
0.000810605
0.00123721
0.00185221
0.00271486
0.00388906
0.00543685
0.00741054
0.00984552
0.012756
0.0161346
0.0199548
0.0241753
0.028745
0.0336069
0.0387014
0.0439689
0.0493516
0.0547948
0.060248
0.0656657
0.0710077
0.0762391
0.0813308
0.0862588
0.0910033
0.0955495
0.0998861
0.104006
0.107905
0.111581
0.115035
0.118269
0.121287
0.124093
0.126691
0.129087
0.131283
0.133284
0.135088
0.136696
0.138104
0.139302
0.140279
0.141013
0.141473
0.141624
0.141422
0.140788
0.139637
0.130462
0.119075
0.10773
0.0965786
0.0857396
0.0753089
0.0653647
0.0559715
0.0471846
0.0390531
0.0316226
0.0249346
0.0190415
0.013988
0.00980795
0.00651473
0.00407778
0.00240283
0.00133799
0.000709099
0.000360462
0.000176898
8.4769e-05
3.98324e-05
1.83684e-05
8.33791e-06
3.7263e-06
1.64372e-06
7.15708e-07
3.08324e-07
1.31408e-07
5.55264e-08
2.32442e-08
9.65006e-09
3.9545e-09
1.58862e-09
6.07362e-10
2.02954e-10
3.55436e-11
4.40749e-07
1.92624e-06
4.42493e-06
8.61366e-06
1.5601e-05
2.71815e-05
4.62209e-05
7.7223e-05
0.000127138
0.000206465
0.000330669
0.000521874
0.000810606
0.00123721
0.00185222
0.00271487
0.00388907
0.00543686
0.00741054
0.00984552
0.012756
0.0161346
0.0199548
0.0241753
0.028745
0.0336069
0.0387014
0.0439689
0.0493516
0.0547948
0.060248
0.0656657
0.0710077
0.0762391
0.0813309
0.0862588
0.0910034
0.0955495
0.0998861
0.104006
0.107905
0.111581
0.115035
0.118269
0.121287
0.124093
0.126691
0.129087
0.131283
0.133284
0.135088
0.136696
0.138104
0.139302
0.140279
0.141013
0.141473
0.141624
0.141422
0.140788
0.139637
0.130462
0.119075
0.10773
0.0965786
0.0857396
0.075309
0.0653647
0.0559715
0.0471846
0.0390531
0.0316226
0.0249347
0.0190415
0.0139881
0.00980798
0.00651476
0.0040778
0.00240284
0.001338
0.000709103
0.000360465
0.000176899
8.47697e-05
3.98323e-05
1.83684e-05
8.33782e-06
3.72627e-06
1.6437e-06
7.15696e-07
3.08317e-07
1.31405e-07
5.5525e-08
2.32437e-08
9.6498e-09
3.9544e-09
1.58856e-09
6.07345e-10
2.02944e-10
3.55422e-11
4.4098e-07
1.92725e-06
4.42724e-06
8.61815e-06
1.56091e-05
2.71956e-05
4.62448e-05
7.72627e-05
0.000127203
0.000206569
0.000330834
0.000522128
0.00081099
0.00123778
0.00185303
0.00271599
0.00389057
0.00543881
0.00741298
0.00984845
0.0127594
0.0161384
0.0199589
0.0241796
0.0287495
0.0336114
0.0387058
0.0439731
0.0493555
0.0547984
0.0602512
0.0656685
0.0710101
0.0762412
0.0813326
0.0862604
0.091005
0.0955512
0.0998879
0.104008
0.107907
0.111583
0.115037
0.118272
0.121291
0.124098
0.126698
0.129096
0.131294
0.133297
0.135105
0.136716
0.138127
0.139329
0.140309
0.141047
0.141509
0.141661
0.141457
0.140815
0.139645
0.130555
0.119184
0.107845
0.096692
0.0858484
0.0754114
0.0654599
0.0560591
0.0472644
0.0391251
0.0316867
0.0249909
0.0190897
0.0140281
0.00983982
0.0065387
0.00409458
0.00241373
0.00134459
0.00071285
0.000362481
0.000177934
8.52763e-05
4.00648e-05
1.84783e-05
8.38716e-06
3.74892e-06
1.6537e-06
7.20148e-07
3.10206e-07
1.32213e-07
5.58585e-08
2.33829e-08
9.70635e-09
3.97753e-09
1.59766e-09
6.10857e-10
2.04096e-10
3.57455e-11
4.41453e-07
1.92931e-06
4.43198e-06
8.62738e-06
1.56258e-05
2.72248e-05
4.62943e-05
7.73452e-05
0.000127338
0.000206787
0.000331178
0.000522662
0.000811799
0.00123897
0.00185474
0.00271837
0.00389376
0.00544293
0.00741811
0.0098546
0.0127666
0.0161464
0.0199676
0.0241888
0.0287589
0.0336208
0.038715
0.0439819
0.0493637
0.0548058
0.0602578
0.0656742
0.0710149
0.0762451
0.0813357
0.0862629
0.091007
0.0955527
0.099889
0.104009
0.107907
0.111584
0.115039
0.118275
0.121295
0.124103
0.126706
0.129106
0.131307
0.133313
0.135125
0.136741
0.138157
0.139364
0.140349
0.141092
0.141557
0.14171
0.141502
0.14085
0.13966
0.130742
0.119391
0.108058
0.0969037
0.0860532
0.0756063
0.0656431
0.0562295
0.0474215
0.0392683
0.0318155
0.0251048
0.0191882
0.0141106
0.00990606
0.00658891
0.00413009
0.00243701
0.00135878
0.00072095
0.000366839
0.000180167
8.63703e-05
4.05743e-05
1.87198e-05
8.49805e-06
3.79951e-06
1.67541e-06
7.29525e-07
3.14119e-07
1.33867e-07
5.65416e-08
2.36676e-08
9.82235e-09
4.02501e-09
1.61642e-09
6.18076e-10
2.0648e-10
3.61651e-11
4.42176e-07
1.93247e-06
4.43923e-06
8.64149e-06
1.56514e-05
2.72693e-05
4.63701e-05
7.74717e-05
0.000127546
0.000207121
0.000331707
0.000523482
0.000813041
0.0012408
0.00185737
0.00272203
0.00389867
0.00544929
0.00742604
0.00986413
0.0127776
0.0161588
0.019981
0.024203
0.0287735
0.0336355
0.0387294
0.0439957
0.0493765
0.0548174
0.060268
0.0656829
0.071022
0.0762506
0.0813398
0.0862655
0.0910083
0.0955528
0.099888
0.104007
0.107905
0.111581
0.115037
0.118273
0.121294
0.124104
0.126709
0.129111
0.131316
0.133326
0.135142
0.136763
0.138184
0.139397
0.140388
0.141136
0.141605
0.14176
0.14155
0.140889
0.13968
0.131027
0.119695
0.108368
0.0972098
0.0863501
0.0758902
0.0659116
0.0564808
0.0476543
0.0394815
0.0320083
0.0252762
0.019337
0.0142357
0.0100068
0.00666566
0.00418464
0.00247292
0.0013807
0.000733441
0.000373557
0.000183615
8.80719e-05
4.13932e-05
1.91089e-05
8.6711e-06
3.87503e-06
1.70807e-06
7.43587e-07
3.20111e-07
1.3641e-07
5.76003e-08
2.41097e-08
1.00033e-08
4.09913e-09
1.64577e-09
6.29366e-10
2.10216e-10
3.68235e-11
4.43162e-07
1.93678e-06
4.44912e-06
8.66074e-06
1.56863e-05
2.73302e-05
4.64737e-05
7.76447e-05
0.000127829
0.000207579
0.000332432
0.000524607
0.000814747
0.00124333
0.00186099
0.00272707
0.00390545
0.00545807
0.007437
0.00987732
0.0127929
0.016176
0.0199998
0.0242229
0.028794
0.0336561
0.0387496
0.044015
0.0493945
0.0548338
0.0602824
0.065695
0.0710317
0.076258
0.0813448
0.0862682
0.0910087
0.0955511
0.0998845
0.104002
0.107899
0.111574
0.115029
0.118266
0.121287
0.124099
0.126705
0.12911
0.131318
0.133332
0.135153
0.136779
0.138206
0.139425
0.140422
0.141175
0.141649
0.141806
0.141596
0.140929
0.139703
0.131412
0.120099
0.108776
0.0976129
0.0867417
0.0762659
0.066268
0.0568157
0.0479656
0.0397676
0.0322676
0.0255073
0.019538
0.0144052
0.0101438
0.00677026
0.00425922
0.00252215
0.00141078
0.000750616
0.000382849
0.000188436
9.05218e-05
4.25633e-05
1.96273e-05
8.90238e-06
3.97813e-06
1.75361e-06
7.63415e-07
3.28619e-07
1.40018e-07
5.91112e-08
2.47383e-08
1.02598e-08
4.204e-09
1.68713e-09
6.4526e-10
2.15462e-10
3.77495e-11
4.44429e-07
1.94231e-06
4.46183e-06
8.6855e-06
1.57312e-05
2.74086e-05
4.66072e-05
7.78677e-05
0.000128196
0.00020817
0.00033337
0.000526064
0.00081696
0.0012466
0.0018657
0.00273363
0.00391429
0.00546955
0.00745135
0.00989463
0.0128131
0.0161987
0.0200246
0.0242492
0.0288212
0.0336835
0.0387766
0.0440409
0.0494189
0.0548559
0.0603019
0.0657116
0.0710451
0.0762679
0.0813513
0.0862713
0.0910086
0.0955479
0.0998785
0.103993
0.107888
0.111562
0.115016
0.118252
0.121274
0.124086
0.126694
0.129101
0.131312
0.133329
0.135154
0.136785
0.138218
0.139443
0.140447
0.141207
0.141686
0.141847
0.141638
0.140968
0.139728
0.131898
0.120604
0.109286
0.0981178
0.0872334
0.0767388
0.0667181
0.0572397
0.0483607
0.0401314
0.0325979
0.0258021
0.019795
0.0146222
0.0103194
0.00690481
0.00435545
0.00258591
0.00145
0.000773343
0.000395586
0.000194937
9.34943e-05
4.39185e-05
2.02625e-05
9.19583e-06
4.11062e-06
1.81218e-06
7.88913e-07
3.39561e-07
1.44663e-07
6.10621e-08
2.55506e-08
1.05943e-08
4.34066e-09
1.74138e-09
6.66054e-10
2.22365e-10
3.8959e-11
4.45998e-07
1.94916e-06
4.47756e-06
8.71617e-06
1.57869e-05
2.75059e-05
4.67729e-05
7.81449e-05
0.000128652
0.000208908
0.000334541
0.000527885
0.00081973
0.00125071
0.00187162
0.0027419
0.00392544
0.00548406
0.00746955
0.00991664
0.0128388
0.0162277
0.0200564
0.0242831
0.0288564
0.0337192
0.0388119
0.0440751
0.049451
0.0548854
0.0603282
0.0657341
0.0710635
0.0762819
0.0813608
0.0862764
0.0910092
0.0955442
0.0998709
0.103982
0.107874
0.111545
0.114997
0.118231
0.121253
0.124065
0.126674
0.129083
0.131296
0.133317
0.135146
0.136782
0.13822
0.139452
0.140462
0.141229
0.141715
0.141881
0.141673
0.141002
0.139751
0.1325
0.121225
0.109914
0.098737
0.0878362
0.077319
0.067271
0.0577612
0.0488474
0.04058
0.0330056
0.0261664
0.0201127
0.0148909
0.0105374
0.00707218
0.00447559
0.00266594
0.00149963
0.000802454
0.000410252
0.000201991
9.69728e-05
4.56118e-05
2.10596e-05
9.56098e-06
4.2746e-06
1.88463e-06
8.20456e-07
3.53116e-07
1.50421e-07
6.34832e-08
2.65594e-08
1.10108e-08
4.51067e-09
1.80938e-09
6.91981e-10
2.31024e-10
4.04733e-11
4.47888e-07
1.95742e-06
4.49654e-06
8.75318e-06
1.58541e-05
2.76234e-05
4.69736e-05
7.8481e-05
0.000129205
0.000209804
0.000335967
0.000530108
0.000823119
0.00125574
0.0018789
0.00275208
0.00393921
0.00550203
0.00749215
0.00994404
0.0128709
0.0162641
0.0200964
0.0243259
0.0289011
0.0337648
0.0388573
0.0441193
0.049493
0.0549244
0.0603633
0.0657647
0.071089
0.076302
0.0813752
0.086285
0.0910123
0.0955418
0.0998632
0.10397
0.107857
0.111525
0.114973
0.118206
0.121225
0.124037
0.126646
0.129056
0.131271
0.133295
0.135128
0.136769
0.138212
0.13945
0.140467
0.14124
0.141733
0.141904
0.141701
0.141029
0.139771
0.133229
0.121969
0.110658
0.0994791
0.0885627
0.0780176
0.0679375
0.0583909
0.0494355
0.0411226
0.033499
0.0266075
0.0204977
0.0152169
0.0108025
0.00727659
0.00462326
0.00276527
0.00156225
0.000835472
0.000427303
0.000210883
0.00010139
4.77218e-05
2.20424e-05
1.00097e-05
4.47583e-06
1.97342e-06
8.59069e-07
3.69692e-07
1.57457e-07
6.64399e-08
2.77908e-08
1.15191e-08
4.7181e-09
1.89236e-09
7.23654e-10
2.41597e-10
4.23266e-11
4.50117e-07
1.96716e-06
4.51895e-06
8.79692e-06
1.59337e-05
2.77627e-05
4.72115e-05
7.88803e-05
0.000129864
0.000210873
0.000337671
0.000532771
0.000827188
0.00126181
0.00188768
0.0027644