/*--------------------------------*- C++ -*----------------------------------*\
  =========                 |
  \\      /  F ield         | OpenFOAM: The Open Source CFD Toolbox
   \\    /   O peration     | Website:  https://openfoam.org
    \\  /    A nd           | Version:  8
     \\/     M anipulation  |
\*---------------------------------------------------------------------------*/
FoamFile
{
    version     2.0;
    format      ascii;
    class       volScalarField;
    location    "940/fluid";
    object      H2O;
}
// * * * * * * * * * * * * * * * * * * * * * * * * * * * * * * * * * * * * * //

dimensions      [0 0 0 0 0 0 0];

internalField   nonuniform List<scalar> 
4000
(
3.87703e-07
1.69414e-06
3.8909e-06
7.5732e-06
1.37193e-05
2.39215e-05
4.074e-05
6.82343e-05
0.00011273
0.000183885
0.000296077
0.000470058
0.000734652
0.00112798
0.00169751
0.00249794
0.00358646
0.00501561
0.00682545
0.00903757
0.0116526
0.0146518
0.0180008
0.0216549
0.0255634
0.0296733
0.0339322
0.0382897
0.042699
0.0471175
0.0515072
0.0558351
0.0600731
0.0641982
0.0681919
0.0720393
0.0757294
0.0792543
0.0826092
0.0857921
0.0888026
0.0916424
0.0943142
0.096822
0.0991703
0.101364
0.103407
0.105306
0.107063
0.108682
0.110164
0.111511
0.112718
0.113782
0.114694
0.115438
0.115994
0.116329
0.11641
0.116183
0.115568
0.114462
0.112234
0.10361
0.0948423
0.0860782
0.0774315
0.0689917
0.0608301
0.0530049
0.0455651
0.038554
0.0320121
0.0260102
0.0205254
0.0156444
0.0114198
0.00790344
0.00513367
0.00310628
0.0017478
0.000919105
0.000455982
0.000216894
0.00010023
4.527e-05
2.007e-05
8.76208e-06
3.77638e-06
1.61e-06
6.80115e-07
2.85068e-07
1.18683e-07
4.91065e-08
2.01831e-08
8.21583e-09
3.28195e-09
1.25257e-09
4.18263e-10
7.33236e-11
3.88051e-07
1.69606e-06
3.89703e-06
7.58979e-06
1.37589e-05
2.40059e-05
4.09026e-05
6.85158e-05
0.000113161
0.000184432
0.000296539
0.000469887
0.00073268
0.00112204
0.00168408
0.00247201
0.00354172
0.00494515
0.00672294
0.00889836
0.0114747
0.0144358
0.0177503
0.0213752
0.0252613
0.0293562
0.0336075
0.0379642
0.0423789
0.0468079
0.0512122
0.055558
0.0598163
0.0639631
0.0679792
0.0718494
0.0755619
0.0791086
0.0824843
0.0856867
0.0887155
0.091572
0.0942591
0.0967807
0.0991411
0.101345
0.103398
0.105305
0.107069
0.108694
0.110181
0.111531
0.112742
0.113808
0.114721
0.115466
0.116023
0.116357
0.116436
0.116205
0.115585
0.11447
0.111556
0.102874
0.0940613
0.0852601
0.076583
0.0681185
0.059938
0.0521002
0.0446551
0.0376474
0.0311202
0.0251483
0.019711
0.0149007
0.0107713
0.00737337
0.00473662
0.00283977
0.00158984
0.000836596
0.000417683
0.000200402
9.35477e-05
4.26902e-05
1.91107e-05
8.41446e-06
3.65207e-06
1.56552e-06
6.63954e-07
2.79031e-07
1.16347e-07
4.81715e-08
1.97993e-08
8.05669e-09
3.2167e-09
1.22704e-09
4.09573e-10
7.18063e-11
3.88908e-07
1.70002e-06
3.90712e-06
7.61177e-06
1.38027e-05
2.40866e-05
4.10406e-05
6.87326e-05
0.000113465
0.000184788
0.000296796
0.000469627
0.00073098
0.00111728
0.00167369
0.00245225
0.0035077
0.0048911
0.00664284
0.00878676
0.0113275
0.014251
0.017528
0.0211179
0.0249732
0.0290432
0.033276
0.0376213
0.0420314
0.0464623
0.0508744
0.055233
0.0595082
0.0636753
0.067714
0.0716085
0.0753463
0.0789186
0.0823197
0.0855467
0.088599
0.0914777
0.0941856
0.0967262
0.0991039
0.101324
0.103391
0.10531
0.107084
0.108718
0.110212
0.111568
0.112783
0.113853
0.114767
0.115513
0.116068
0.116399
0.116474
0.116235
0.115602
0.114468
0.110355
0.101633
0.0927818
0.08395
0.0752517
0.066777
0.0585987
0.0507768
0.0433631
0.0364043
0.0299453
0.0240527
0.018729
0.0140546
0.0100793
0.006845
0.00436666
0.00260552
0.0014562
0.000767307
0.000384544
0.000185332
8.69478e-05
3.98845e-05
1.79461e-05
7.93999e-06
3.46131e-06
1.48945e-06
6.33721e-07
2.67003e-07
1.11541e-07
4.62403e-08
1.90195e-08
7.7419e-09
3.09113e-09
1.17898e-09
3.93436e-10
6.89666e-11
3.88411e-07
1.69782e-06
3.90193e-06
7.60096e-06
1.37803e-05
2.40393e-05
4.09376e-05
6.85076e-05
0.000112983
0.000183789
0.000294815
0.000465895
0.000724307
0.00110587
0.00165499
0.00242291
0.00346368
0.00482801
0.00655637
0.00867329
0.0111845
0.0140775
0.0173242
0.0208856
0.0247156
0.028764
0.0329802
0.037314
0.0417181
0.0461484
0.050565
0.0549328
0.0592214
0.0634052
0.0674636
0.0713797
0.0751406
0.0787368
0.0821621
0.0854131
0.0884887
0.0913898
0.0941187
0.0966789
0.099075
0.101312
0.103393
0.105324
0.10711
0.108752
0.110254
0.111616
0.112835
0.113906
0.114821
0.115565
0.116116
0.11644
0.116505
0.116252
0.1156
0.114439
0.108861
0.100123
0.0912552
0.0824118
0.0737115
0.0652476
0.057095
0.0493155
0.0419622
0.0350828
0.0287235
0.0229271
0.0177409
0.0132172
0.00940169
0.0063291
0.004003
0.0023711
0.00131852
0.000693164
0.000347467
0.000167795
7.89531e-05
3.63437e-05
1.64143e-05
7.2902e-06
3.19012e-06
1.37774e-06
5.88171e-07
2.48564e-07
1.04114e-07
4.32582e-08
1.78259e-08
7.26674e-09
2.90467e-09
1.10873e-09
3.70135e-10
6.48954e-11
3.868e-07
1.6907e-06
3.88521e-06
7.56732e-06
1.37166e-05
2.39213e-05
4.07217e-05
6.81153e-05
0.000112275
0.000182526
0.000292591
0.000462051
0.000717813
0.00109519
0.00163797
0.00239675
0.003425
0.00477313
0.0064817
0.00857581
0.0110621
0.0139292
0.0171505
0.0206879
0.0244963
0.0285266
0.0327286
0.0370525
0.0414513
0.0458808
0.0503009
0.0546763
0.058976
0.063174
0.0672491
0.0711841
0.0749653
0.0785827
0.0820296
0.0853022
0.0883991
0.0913207
0.094069
0.0966477
0.0990606
0.101312
0.103407
0.10535
0.107145
0.108795
0.110303
0.111668
0.112889
0.11396
0.114872
0.11561
0.116153
0.116464
0.116514
0.11624
0.115559
0.114363
0.107288
0.0985556
0.0896844
0.0808396
0.0721475
0.0637056
0.0555908
0.0478659
0.0405839
0.0337925
0.0275473
0.021869
0.0168192
0.0124441
0.00878383
0.00586539
0.0036811
0.00216659
0.00119975
0.00062956
0.000315641
0.000152654
7.19832e-05
3.32166e-05
1.50398e-05
6.69608e-06
2.93687e-06
1.27104e-06
5.43639e-07
2.30125e-07
9.65277e-08
4.01546e-08
1.65633e-08
6.75738e-09
2.70266e-09
1.03201e-09
3.44558e-10
6.04129e-11
3.84319e-07
1.67976e-06
3.85961e-06
7.51616e-06
1.36207e-05
2.37472e-05
4.04115e-05
6.75698e-05
0.000111327
0.000180901
0.000289848
0.000457509
0.000710457
0.00108359
0.0016202
0.00237042
0.00338737
0.00472132
0.00641306
0.00848818
0.0109541
0.0138004
0.0170014
0.0205198
0.0243114
0.0283277
0.0325187
0.0368354
0.0412304
0.0456599
0.0500836
0.0544658
0.0587754
0.0629859
0.0670756
0.071027
0.0748258
0.0784617
0.0819275
0.0852189
0.0883342
0.0912737
0.0940393
0.0966338
0.0990608
0.101325
0.103431
0.105384
0.107186
0.108842
0.110354
0.11172
0.11294
0.114006
0.114911
0.115638
0.116167
0.11646
0.116488
0.116188
0.115478
0.114261
0.105907
0.0971472
0.0882429
0.0793776
0.0706835
0.0622597
0.0541826
0.0465134
0.0393036
0.0325987
0.0264605
0.0208947
0.0159788
0.0117468
0.00823056
0.00545232
0.00339507
0.00198456
0.00109327
0.00057182
0.000286249
0.000138444
6.53368e-05
3.01904e-05
1.36927e-05
6.1077e-06
2.68403e-06
1.16386e-06
4.98729e-07
2.11481e-07
8.88474e-08
3.70109e-08
1.52847e-08
6.24173e-09
2.49822e-09
9.54381e-10
3.18687e-10
5.58789e-11
3.81469e-07
1.66723e-06
3.83054e-06
7.45866e-06
1.35144e-05
2.35573e-05
4.00794e-05
6.69974e-05
0.000110354
0.000179268
0.000287152
0.000453134
0.000703504
0.0010728
0.00160393
0.00234663
0.00335375
0.00467551
0.00635292
0.00841207
0.0108611
0.0136904
0.0168749
0.0203782
0.0241567
0.0281622
0.0323452
0.0366568
0.0410499
0.0454804
0.049908
0.0542969
0.0586156
0.0628373
0.06694
0.0709056
0.0747198
0.0783717
0.0818537
0.0851615
0.0882927
0.0912477
0.0940275
0.0966348
0.0990738
0.101349
0.103464
0.105423
0.107232
0.108891
0.110403
0.111768
0.112982
0.11404
0.114932
0.115641
0.116145
0.116404
0.116394
0.116046
0.115286
0.114037
0.105164
0.0961137
0.0870489
0.0781014
0.0693762
0.0609571
0.0529116
0.0452958
0.038158
0.0315426
0.0255245
0.0200703
0.0152582
0.011138
0.00774634
0.00509252
0.00314779
0.00182836
0.00100242
0.000522689
0.000261227
0.000126306
5.96288e-05
2.75728e-05
1.25174e-05
5.58963e-06
2.45926e-06
1.06768e-06
4.58055e-07
1.94455e-07
8.17813e-08
3.41002e-08
1.40944e-08
5.75958e-09
2.30639e-09
8.81342e-10
2.94302e-10
5.1601e-11
3.78516e-07
1.65429e-06
3.80056e-06
7.39962e-06
1.34058e-05
2.33645e-05
3.97444e-05
6.64248e-05
0.000109389
0.000177667
0.000284538
0.000448943
0.00069693
0.00106274
0.00158895
0.00232502
0.00332361
0.00463495
0.00630029
0.00834617
0.0107814
0.0135968
0.0167682
0.0202598
0.0240282
0.0280257
0.0322031
0.0365116
0.040904
0.0453364
0.0497684
0.0541637
0.0584908
0.0627227
0.0668368
0.0708151
0.0746426
0.0783082
0.0818041
0.0851255
0.0882704
0.0912379
0.0940293
0.0966476
0.0990963
0.101379
0.103501
0.105466
0.107278
0.108939
0.11045
0.111811
0.113018
0.114064
0.114938
0.115621
0.116086
0.116292
0.116201
0.115734
0.114791
0.113265
0.104226
0.0950531
0.085909
0.07692
0.0681845
0.0597804
0.0517708
0.0442083
0.0371383
0.0306023
0.024658
0.0193031
0.0146013
0.0105954
0.00732123
0.00478078
0.00293534
0.00169468
0.000924677
0.000480513
0.00023963
0.000115769
5.46423e-05
2.52722e-05
1.14788e-05
5.1295e-06
2.25873e-06
9.81535e-07
4.21506e-07
1.79112e-07
7.53981e-08
3.14655e-08
1.30152e-08
5.3218e-09
2.13201e-09
8.14885e-10
2.72101e-10
4.77049e-11
3.75659e-07
1.64178e-06
3.77168e-06
7.34292e-06
1.33019e-05
2.3181e-05
3.94275e-05
6.58869e-05
0.00010849
0.000176186
0.000282138
0.00044513
0.000690998
0.00105373
0.00157566
0.00230599
0.00329727
0.00459977
0.00625497
0.00828983
0.0107136
0.0135179
0.016679
0.0201614
0.0239221
0.0279139
0.0320875
0.0363943
0.0407872
0.0452221
0.0496585
0.0540601
0.058395
0.062636
0.0667603
0.0707495
0.0745886
0.078266
0.0817738
0.085107
0.0882627
0.0912404
0.0940415
0.0966685
0.0991249
0.101415
0.103542
0.10551
0.107324
0.108985
0.110494
0.111851
0.113051
0.114087
0.114945
0.115608
0.116042
0.116208
0.116059
0.115505
0.11443
0.112418
0.103265
0.0940194
0.0848364
0.0758358
0.0671116
0.0587387
0.0507776
0.0432785
0.0362849
0.0298363
0.0239833
0.0187237
0.0141178
0.0101969
0.00698677
0.00452188
0.00275618
0.00158176
0.00085902
0.000444885
0.000221357
0.000106831
5.0399e-05
2.33073e-05
1.05881e-05
4.73323e-06
2.08532e-06
9.06739e-07
3.89652e-07
1.65693e-07
6.97986e-08
2.9148e-08
1.20637e-08
4.93512e-09
1.97774e-09
7.56027e-10
2.52428e-10
4.42492e-11
3.73004e-07
1.63016e-06
3.74489e-06
7.29045e-06
1.3206e-05
2.30121e-05
3.91369e-05
6.53954e-05
0.000107672
0.000174845
0.000279979
0.000441719
0.000685727
0.00104578
0.001564
0.00228942
0.00327449
0.00456955
0.00621628
0.00824205
0.0106566
0.013452
0.0166048
0.0200801
0.0238351
0.0278228
0.0319941
0.0363003
0.0406944
0.0451322
0.0495731
0.0539805
0.0583225
0.0625716
0.0667049
0.0707037
0.0745526
0.0782399
0.0817578
0.0851004
0.0882651
0.0912514
0.0940603
0.0966942
0.0991566
0.101451
0.103582
0.105553
0.107368
0.109029
0.110536
0.111889
0.113084
0.114113
0.114962
0.115614
0.116036
0.116191
0.116035
0.115485
0.114441
0.111497
0.102301
0.0930282
0.0838339
0.0748367
0.0661292
0.0577845
0.0498614
0.0424097
0.0354717
0.029087
0.0232932
0.0181142
0.0135985
0.0097826
0.00669089
0.00430443
0.00260301
0.00148534
0.000803178
0.000414632
0.00020584
9.92328e-05
4.67861e-05
2.16309e-05
9.82659e-06
4.39367e-06
1.93639e-06
8.42367e-07
3.6218e-07
1.54099e-07
6.49518e-08
2.71389e-08
1.12377e-08
4.59905e-09
1.84354e-09
7.04793e-10
2.35303e-10
4.12375e-11
3.70609e-07
1.61969e-06
3.72077e-06
7.24327e-06
1.312e-05
2.2861e-05
3.88775e-05
6.49583e-05
0.000106947
0.000173662
0.000278082
0.000438736
0.000681137
0.0010389
0.00155395
0.0022752
0.00325505
0.00454388
0.00618362
0.00820193
0.010609
0.0133972
0.0165435
0.0200134
0.0237643
0.0277491
0.0319191
0.0362255
0.0406212
0.045062
0.0495072
0.0539201
0.0582685
0.0625248
0.0666659
0.0706728
0.0745301
0.078226
0.0817518
0.0851022
0.0882744
0.0912675
0.0940825
0.0967219
0.0991887
0.101487
0.10362
0.105593
0.107408
0.109068
0.110574
0.111924
0.113114
0.114137
0.114981
0.115626
0.11604
0.11619
0.116031
0.115482
0.114444
0.11059
0.101386
0.0921176
0.0829359
0.0739596
0.0652832
0.0569782
0.0491025
0.0417051
0.0348178
0.0284787
0.0227227
0.0176024
0.0131561
0.00941555
0.00640274
0.00411234
0.00247592
0.00140365
0.000755873
0.000389076
0.000192751
9.28264e-05
4.37384e-05
2.02153e-05
9.18266e-06
4.1061e-06
1.81004e-06
7.87656e-07
3.38791e-07
1.44211e-07
6.08119e-08
2.54206e-08
1.05305e-08
4.31102e-09
1.72846e-09
6.60838e-10
2.2061e-10
3.86554e-11
3.68498e-07
1.61046e-06
3.69953e-06
7.20178e-06
1.30444e-05
2.27285e-05
3.86507e-05
6.4577e-05
0.000106316
0.000172636
0.000276442
0.000436165
0.000677197
0.00103301
0.0015454
0.00226315
0.00323863
0.00452232
0.00615629
0.00816853
0.0105695
0.013352
0.0164934
0.0199591
0.023707
0.02769
0.0318593
0.0361663
0.0405639
0.0450077
0.0494569
0.0538747
0.0582287
0.0624913
0.066639
0.0706529
0.0745172
0.07822
0.0817525
0.0851093
0.0882874
0.0912859
0.0941057
0.096749
0.0992191
0.10152
0.103655
0.105628
0.107443
0.109101
0.110605
0.111951
0.113138
0.114156
0.114994
0.115633
0.116042
0.116187
0.116024
0.115475
0.114441
0.109775
0.100566
0.0913016
0.0821363
0.0731882
0.0645444
0.0562695
0.0484216
0.0410471
0.0341966
0.0279074
0.0222144
0.0171579
0.0127774
0.00910468
0.0061596
0.00393263
0.00236492
0.00133635
0.000716127
0.000367563
0.000181761
8.74535e-05
4.11831e-05
1.90281e-05
8.64227e-06
3.86453e-06
1.7038e-06
7.41592e-07
3.19072e-07
1.35864e-07
5.73131e-08
2.39666e-08
9.93146e-09
4.06694e-09
1.63093e-09
6.23621e-10
2.08194e-10
3.64774e-11
3.66673e-07
1.60248e-06
3.6812e-06
7.16599e-06
1.29793e-05
2.26146e-05
3.8456e-05
6.42503e-05
0.000105777
0.000171761
0.000275047
0.000433986
0.000673867
0.00102805
0.00153821
0.00225306
0.00322495
0.0045044
0.00613368
0.008141
0.0105371
0.0133152
0.0164526
0.0199153
0.0236609
0.0276428
0.031812
0.0361199
0.0405193
0.0449659
0.0494187
0.0538408
0.0581998
0.0624677
0.0666211
0.0706407
0.0745108
0.0782192
0.0817571
0.085119
0.0883017
0.0913043
0.0941277
0.0967739
0.0992461
0.101548
0.103684
0.105657
0.107471
0.109127
0.110628
0.111971
0.113153
0.114167
0.114999
0.115632
0.116036
0.116176
0.116009
0.115459
0.114429
0.109073
0.0998552
0.0905945
0.0814424
0.0725052
0.063872
0.0556195
0.0478039
0.0404721
0.0336664
0.027425
0.021783
0.016781
0.0124577
0.00884366
0.00595709
0.00378486
0.00226379
0.00127893
0.000683952
0.000349804
0.000172634
8.29998e-05
3.9066e-05
1.80443e-05
8.1941e-06
3.66397e-06
1.61546e-06
7.03243e-07
3.02634e-07
1.28896e-07
5.43883e-08
2.27498e-08
9.42965e-09
3.86228e-09
1.54911e-09
5.92389e-10
1.97774e-10
3.465e-11
3.65127e-07
1.59573e-06
3.66567e-06
7.13571e-06
1.29243e-05
2.25184e-05
3.82918e-05
6.39753e-05
0.000105324
0.000171028
0.00027388
0.000432167
0.000671094
0.00102393
0.00153226
0.00224473
0.00321368
0.00448969
0.00611519
0.00811858
0.0105109
0.0132854
0.0164198
0.0198802
0.0236243
0.0276055
0.0317748
0.0360837
0.040485
0.0449341
0.04939
0.0538158
0.0581789
0.0624513
0.0666093
0.0706337
0.0745084
0.0782212
0.0817634
0.0851292
0.0883154
0.0913211
0.0941469
0.0967951
0.0992686
0.101571
0.103707
0.105679
0.107491
0.109146
0.110643
0.111982
0.11316
0.114168
0.114995
0.115623
0.11602
0.116156
0.115987
0.115437
0.114413
0.108476
0.0992459
0.0899857
0.0808348
0.0719104
0.0633
0.0550738
0.0472882
0.0399905
0.0332221
0.027021
0.0214218
0.0164657
0.0121907
0.00862657
0.0057897
0.00366395
0.00218246
0.00122766
0.000656919
0.000335848
0.000165357
7.93845e-05
3.73389e-05
1.72399e-05
7.82678e-06
3.49925e-06
1.54279e-06
6.71637e-07
2.89065e-07
1.23137e-07
5.19682e-08
2.17419e-08
9.01364e-09
3.6925e-09
1.4812e-09
5.6646e-10
1.89128e-10
3.31324e-11
3.63844e-07
1.59012e-06
3.65279e-06
7.11062e-06
1.28788e-05
2.24388e-05
3.81562e-05
6.37485e-05
0.000104951
0.000170424
0.000272923
0.000430677
0.000668828
0.00102057
0.00152741
0.00223797
0.00320455
0.00447782
0.0061003
0.00810057
0.0104899
0.0132616
0.0163938
0.0198525
0.0235955
0.0275763
0.0317459
0.0360558
0.0404587
0.0449099
0.0493685
0.0537974
0.0581639
0.0624398
0.0666015
0.0706295
0.0745078
0.0782241
0.0817696
0.0851383
0.0883271
0.0913349
0.0941623
0.0968116
0.0992856
0.101588
0.103723
0.105694
0.107504
0.109155
0.11065
0.111985
0.113158
0.114161
0.114983
0.115605
0.115997
0.116129
0.115958
0.115409
0.114394
0.107984
0.0987368
0.0894713
0.0803278
0.0714169
0.0628251
0.0546212
0.0468612
0.0395921
0.0328548
0.0266872
0.0211236
0.0162056
0.0119708
0.00844817
0.00565269
0.00356561
0.00211695
0.00118703
0.000633089
0.000323841
0.000159582
7.6538e-05
3.59531e-05
1.65875e-05
7.52792e-06
3.36505e-06
1.48349e-06
6.45821e-07
2.77972e-07
1.18425e-07
4.99868e-08
2.09163e-08
8.67286e-09
3.55337e-09
1.42562e-09
5.45217e-10
1.82061e-10
3.18935e-11
3.62808e-07
1.5856e-06
3.6424e-06
7.09037e-06
1.28421e-05
2.23747e-05
3.80471e-05
6.35661e-05
0.000104651
0.000169941
0.000272156
0.000429485
0.000667018
0.00101789
0.00152356
0.0022326
0.00319732
0.00446843
0.00608855
0.00808641
0.0104734
0.0132431
0.0163735
0.0198309
0.0235733
0.0275538
0.0317238
0.0360346
0.0404388
0.0448918
0.0493526
0.0537839
0.058153
0.0624317
0.0665962
0.0706269
0.074508
0.0782268
0.0817745
0.0851453
0.0883358
0.0913449
0.0941733
0.0968229
0.0992969
0.101599
0.103732
0.105701
0.107509
0.109158
0.110648
0.111979
0.113148
0.114146
0.114962
0.115579
0.115967
0.116096
0.115923
0.115378
0.114374
0.107585
0.0983241
0.0890536
0.0799145
0.0710143
0.0624378
0.0542527
0.0465142
0.0392687
0.032557
0.0264168
0.0208822
0.0159953
0.0117932
0.00830438
0.00554257
0.00348685
0.00206477
0.00115493
0.00061449
0.000313417
0.000154261
7.41048e-05
3.48441e-05
1.60677e-05
7.28788e-06
3.25661e-06
1.43556e-06
6.24953e-07
2.69018e-07
1.14623e-07
4.83908e-08
2.02516e-08
8.39944e-09
3.44158e-09
1.38137e-09
5.28263e-10
1.76438e-10
3.09053e-11
3.62001e-07
1.58208e-06
3.63431e-06
7.07462e-06
1.28135e-05
2.23249e-05
3.79623e-05
6.34247e-05
0.000104419
0.000169566
0.000271563
0.000428565
0.000665623
0.00101582
0.0015206
0.00222848
0.00319178
0.00446125
0.00607959
0.00807563
0.0104609
0.013229
0.0163582
0.0198147
0.0235565
0.027537
0.0317073
0.0360188
0.040424
0.0448785
0.0493408
0.053774
0.058145
0.0624256
0.0665921
0.0706248
0.0745076
0.0782282
0.0817774
0.0851495
0.0883409
0.0913507
0.0941794
0.0968289
0.0993023
0.101603
0.103735
0.105702
0.107507
0.109153
0.11064
0.111967
0.11313
0.114123
0.114935
0.115547
0.115931
0.116057
0.115885
0.115345
0.114355
0.10727
0.0979929
0.0887194
0.0795845
0.0706938
0.0621304
0.0539609
0.0462401
0.0390139
0.0323229
0.0262046
0.0206931
0.0158308
0.0116545
0.00819234
0.00545697
0.00342582
0.00202449
0.00113032
0.000600436
0.000305814
0.000150316
7.21002e-05
3.38867e-05
1.56436e-05
7.09873e-06
3.1724e-06
1.39835e-06
6.08759e-07
2.62068e-07
1.11677e-07
4.71569e-08
1.97384e-08
8.18989e-09
3.35602e-09
1.34755e-09
5.1529e-10
1.72138e-10
3.01505e-11
3.61411e-07
1.5795e-06
3.62839e-06
7.0631e-06
1.27926e-05
2.22885e-05
3.79004e-05
6.33213e-05
0.00010425
0.000169293
0.000271131
0.000427895
0.000664607
0.00101432
0.00151845
0.00222549
0.00318777
0.00445606
0.00607311
0.00806784
0.0104518
0.0132189
0.0163472
0.0198031
0.0235446
0.027525
0.0316956
0.0360076
0.0404136
0.044869
0.0493325
0.0537669
0.0581392
0.0624212
0.0665888
0.0706227
0.0745066
0.0782281
0.0817782
0.0851509
0.0883428
0.0913527
0.0941813
0.0968303
0.0993029
0.101602
0.103733
0.105698
0.1075
0.109142
0.110626
0.111948
0.113108
0.114096
0.114903
0.115511
0.115891
0.116017
0.115846
0.115313
0.114338
0.107037
0.0977441
0.088466
0.079334
0.0704508
0.0618979
0.0537412
0.0460344
0.0388233
0.0321484
0.0260469
0.0205529
0.0157091
0.0115521
0.00810988
0.00539418
0.00338119
0.00199511
0.00111239
0.000590217
0.000300318
0.000147496
7.07081e-05
3.32168e-05
1.53253e-05
6.95722e-06
3.11061e-06
1.37168e-06
5.97272e-07
2.57178e-07
1.09601e-07
4.62931e-08
1.93776e-08
8.04212e-09
3.29549e-09
1.32352e-09
5.06061e-10
1.69075e-10
2.96124e-11
3.61025e-07
1.57781e-06
3.62452e-06
7.05557e-06
1.2779e-05
2.22647e-05
3.786e-05
6.3254e-05
0.000104139
0.000169115
0.00027085
0.00042746
0.000663948
0.00101335
0.00151705
0.00222355
0.00318517
0.00445269
0.00606892
0.00806282
0.010446
0.0132124
0.0163401
0.0197956
0.0235369
0.0275173
0.0316881
0.0360004
0.0404069
0.0448629
0.0493271
0.0537622
0.0581353
0.062418
0.0665863
0.0706206
0.074505
0.0782269
0.0817773
0.0851502
0.0883421
0.0913519
0.09418
0.0968284
0.0993
0.101598
0.103727
0.10569
0.10749
0.109129
0.110609
0.111928
0.113083
0.114067
0.11487
0.115474
0.115852
0.115977
0.115809
0.115284
0.114326
0.106884
0.0975746
0.0882913
0.0791608
0.0702832
0.0617385
0.0535913
0.0458949
0.0386948
0.0320313
0.0259415
0.0204597
0.0156284
0.0114846
0.0080557
0.00535311
0.00335215
0.00197607
0.00110078
0.000583594
0.000296754
0.00014567
6.98132e-05
3.28007e-05
1.51279e-05
6.86664e-06
3.06926e-06
1.35392e-06
5.89599e-07
2.53976e-07
1.08246e-07
4.57333e-08
1.91442e-08
7.94699e-09
3.25655e-09
1.30811e-09
5.00137e-10
1.67115e-10
2.92676e-11
3.60837e-07
1.57699e-06
3.62264e-06
7.05192e-06
1.27724e-05
2.22533e-05
3.78406e-05
6.32217e-05
0.000104087
0.00016903
0.000270716
0.000427253
0.000663635
0.00101289
0.00151639
0.00222263
0.00318394
0.00445111
0.00606694
0.00806044
0.0104433
0.0132093
0.0163368
0.0197921
0.0235333
0.0275137
0.0316845
0.035997
0.0404037
0.04486
0.0493245
0.0537599
0.0581334
0.0624163
0.0665848
0.0706193
0.0745036
0.0782255
0.0817759
0.0851487
0.0883405
0.09135
0.0941777
0.0968256
0.0992964
0.101594
0.103721
0.105682
0.107481
0.109118
0.110596
0.111912
0.113064
0.114046
0.114845
0.115446
0.115822
0.115946
0.115781
0.115262
0.11432
0.106808
0.0974853
0.0881976
0.079068
0.0701942
0.0616548
0.0535135
0.0458234
0.0386296
0.0319724
0.0258891
0.0204138
0.0155891
0.0114519
0.00802968
0.00533355
0.00333845
0.00196717
0.0010954
0.000580533
0.000295107
0.000144825
6.93996e-05
3.26104e-05
1.5038e-05
6.82617e-06
3.05069e-06
1.3457e-06
5.85944e-07
2.52422e-07
1.07582e-07
4.54589e-08
1.90298e-08
7.90042e-09
3.23751e-09
1.30059e-09
4.97242e-10
1.66157e-10
2.90992e-11
3.60837e-07
1.57699e-06
3.62265e-06
7.05193e-06
1.27724e-05
2.22533e-05
3.78406e-05
6.32218e-05
0.000104087
0.000169031
0.000270716
0.000427253
0.000663636
0.00101289
0.00151639
0.00222264
0.00318394
0.00445111
0.00606695
0.00806044
0.0104433
0.0132093
0.0163368
0.0197921
0.0235333
0.0275137
0.0316845
0.035997
0.0404037
0.04486
0.0493245
0.05376
0.0581334
0.0624163
0.0665849
0.0706193
0.0745036
0.0782255
0.0817759
0.0851487
0.0883405
0.09135
0.0941777
0.0968256
0.0992964
0.101594
0.103721
0.105682
0.107481
0.109118
0.110596
0.111912
0.113064
0.114046
0.114845
0.115446
0.115822
0.115946
0.115781
0.115262
0.11432
0.106808
0.0974854
0.0881977
0.0790681
0.0701943
0.0616548
0.0535135
0.0458234
0.0386296
0.0319724
0.0258891
0.0204138
0.0155891
0.0114519
0.00802971
0.00533357
0.00333846
0.00196718
0.00109541
0.000580536
0.000295109
0.000144826
6.94002e-05
3.26104e-05
1.5038e-05
6.8261e-06
3.05066e-06
1.34568e-06
5.85934e-07
2.52417e-07
1.0758e-07
4.54578e-08
1.90294e-08
7.90021e-09
3.23743e-09
1.30054e-09
4.97228e-10
1.66148e-10
2.90981e-11
3.61027e-07
1.57782e-06
3.62454e-06
7.0556e-06
1.2779e-05
2.22648e-05
3.78602e-05
6.32543e-05
0.00010414
0.000169116
0.000270851
0.000427461
0.000663951
0.00101336
0.00151706
0.00222356
0.00318518
0.00445271
0.00606894
0.00806284
0.010446
0.0132124
0.0163402
0.0197957
0.0235369
0.0275174
0.0316881
0.0360004
0.0404069
0.0448629
0.0493271
0.0537623
0.0581354
0.062418
0.0665863
0.0706206
0.074505
0.0782269
0.0817773
0.0851502
0.0883421
0.0913519
0.09418
0.0968284
0.0993
0.101598
0.103727
0.10569
0.10749
0.109129
0.110609
0.111928
0.113083
0.114067
0.11487
0.115474
0.115852
0.115977
0.115809
0.115284
0.114326
0.106884
0.0975747
0.0882914
0.0791609
0.0702833
0.0617386
0.0535914
0.0458951
0.0386949
0.0320314
0.0259417
0.0204598
0.0156285
0.0114847
0.00805577
0.00535317
0.0033522
0.0019761
0.0011008
0.000583604
0.00029676
0.000145673
6.98149e-05
3.28007e-05
1.5128e-05
6.8665e-06
3.06921e-06
1.35387e-06
5.89579e-07
2.53963e-07
1.08242e-07
4.57309e-08
1.91433e-08
7.94651e-09
3.25637e-09
1.30799e-09
5.00103e-10
1.67092e-10
2.92645e-11
3.61414e-07
1.57951e-06
3.62842e-06
7.06316e-06
1.27927e-05
2.22887e-05
3.79007e-05
6.33219e-05
0.000104251
0.000169294
0.000271133
0.000427898
0.000664612
0.00101433
0.00151846
0.0022255
0.00318779
0.00445608
0.00607314
0.00806788
0.0104519
0.0132189
0.0163473
0.0198032
0.0235446
0.0275251
0.0316957
0.0360076
0.0404137
0.0448691
0.0493326
0.0537669
0.0581393
0.0624212
0.0665889
0.0706227
0.0745066
0.0782281
0.0817782
0.0851509
0.0883428
0.0913527
0.0941813
0.0968303
0.0993029
0.101602
0.103733
0.105698
0.1075
0.109142
0.110626
0.111948
0.113108
0.114096
0.114903
0.115511
0.115891
0.116017
0.115846
0.115313
0.114338
0.107038
0.0977444
0.0884663
0.0793342
0.070451
0.0618982
0.0537414
0.0460346
0.0388235
0.0321486
0.0260471
0.0205531
0.0157092
0.0115523
0.00811001
0.00539428
0.00338127
0.00199516
0.00111242
0.000590236
0.000300328
0.000147501
7.07106e-05
3.32178e-05
1.53257e-05
6.95728e-06
3.11063e-06
1.37165e-06
5.97256e-07
2.57167e-07
1.09596e-07
4.62901e-08
1.93765e-08
8.04147e-09
3.29524e-09
1.32335e-09
5.06013e-10
1.69043e-10
2.9608e-11
3.62006e-07
1.5821e-06
3.63436e-06
7.07471e-06
1.28137e-05
2.23252e-05
3.79628e-05
6.34254e-05
0.00010442
0.000169568
0.000271566
0.00042857
0.00066563
0.00101583
0.00152061
0.0022285
0.00319181
0.00446129
0.00607963
0.00807568
0.0104609
0.0132291
0.0163583
0.0198148
0.0235566
0.0275371
0.0317074
0.0360189
0.0404241
0.0448785
0.0493409
0.053774
0.0581451
0.0624257
0.0665922
0.0706248
0.0745077
0.0782282
0.0817774
0.0851495
0.088341
0.0913507
0.0941794
0.0968289
0.0993023
0.101603
0.103735
0.105702
0.107507
0.109153
0.11064
0.111967
0.11313
0.114123
0.114935
0.115547
0.115931
0.116057
0.115885
0.115345
0.114355
0.107271
0.0979932
0.0887196
0.0795848
0.0706941
0.0621307
0.0539612
0.0462404
0.0390142
0.0323232
0.0262049
0.0206934
0.015831
0.0116547
0.00819252
0.00545712
0.00342593
0.00202456
0.00113036
0.000600462
0.000305828
0.000150324
7.21037e-05
3.38883e-05
1.56443e-05
7.09895e-06
3.17245e-06
1.39839e-06
6.08768e-07
2.62072e-07
1.11678e-07
4.71568e-08
1.97384e-08
8.18963e-09
3.35592e-09
1.34738e-09
5.15256e-10
1.72102e-10
3.01471e-11
3.62813e-07
1.58562e-06
3.64245e-06
7.09047e-06
1.28422e-05
2.2375e-05
3.80476e-05
6.3567e-05
0.000104653
0.000169943
0.00027216
0.000429491
0.000667027
0.0010179
0.00152358
0.00223262
0.00319736
0.00446848
0.00608861
0.00808648
0.0104735
0.0132432
0.0163736
0.019831
0.0235734
0.0275539
0.0317239
0.0360347
0.0404389
0.0448919
0.0493527
0.053784
0.0581531
0.0624317
0.0665962
0.070627
0.074508
0.0782268
0.0817746
0.0851453
0.0883358
0.0913449
0.0941733
0.0968229
0.0992969
0.101599
0.103732
0.105701
0.107509
0.109158
0.110648
0.111979
0.113148
0.114146
0.114962
0.115579
0.115967
0.116096
0.115923
0.115378
0.114374
0.107586
0.0983244
0.089054
0.0799149
0.0710147
0.0624382
0.0542531
0.0465145
0.039269
0.0325574
0.0264172
0.0208826
0.0159956
0.0117934
0.00830461
0.00554275
0.00348698
0.00206486
0.00115499
0.000614523
0.000313435
0.000154271
7.41094e-05
3.48462e-05
1.60687e-05
7.2883e-06
3.25686e-06
1.43566e-06
6.25001e-07
2.69037e-07
1.14631e-07
4.83938e-08
2.0253e-08
8.39959e-09
3.44178e-09
1.38124e-09
5.28269e-10
1.76397e-10
3.09051e-11
3.6385e-07
1.59015e-06
3.65286e-06
7.11074e-06
1.2879e-05
2.24392e-05
3.81569e-05
6.37496e-05
0.000104953
0.000170427
0.000272927
0.000430684
0.000668838
0.00102058
0.00152744
0.002238
0.00320459
0.00447787
0.00610036
0.00810065
0.0104899
0.0132617
0.0163939
0.0198526
0.0235956
0.0275764
0.0317461
0.0360559
0.0404588
0.04491
0.0493686
0.0537975
0.058164
0.0624399
0.0666016
0.0706296
0.0745079
0.0782242
0.0817696
0.0851383
0.0883271
0.0913349
0.0941624
0.0968116
0.0992856
0.101588
0.103723
0.105694
0.107504
0.109155
0.11065
0.111985
0.113158
0.114161
0.114983
0.115605
0.115997
0.116129
0.115958
0.115409
0.114394
0.107984
0.0987372
0.0894717
0.0803282
0.0714173
0.0628254
0.0546216
0.0468616
0.0395925
0.0328552
0.0266876
0.021124
0.016206
0.0119711
0.00844844
0.00565291
0.00356577
0.00211706
0.0011871
0.000633129
0.000323863
0.000159593
7.6543e-05
3.59556e-05
1.65887e-05
7.52855e-06
3.36533e-06
1.48362e-06
6.45877e-07
2.77996e-07
1.18435e-07
4.9991e-08
2.0918e-08
8.6735e-09
3.55366e-09
1.42565e-09
5.45293e-10
1.82048e-10
3.18954e-11
3.65134e-07
1.59576e-06
3.66574e-06
7.13585e-06
1.29246e-05
2.25188e-05
3.82926e-05
6.39766e-05
0.000105326
0.000171031
0.000273886
0.000432175
0.000671106
0.00102394
0.00153228
0.00224477
0.00321372
0.00448975
0.00611526
0.00811866
0.010511
0.0132855
0.01642
0.0198803
0.0236245
0.0276056
0.031775
0.0360839
0.0404851
0.0449342
0.0493901
0.053816
0.058179
0.0624514
0.0666094
0.0706337
0.0745084
0.0782212
0.0817634
0.0851292
0.0883154
0.0913211
0.0941469
0.0967951
0.0992686
0.101571
0.103707
0.105679
0.107491
0.109146
0.110643
0.111982
0.11316
0.114168
0.114995
0.115623
0.11602
0.116156
0.115987
0.115437
0.114413
0.108476
0.0992462
0.089986
0.0808351
0.0719107
0.0633004
0.0550741
0.0472886
0.0399909
0.0332225
0.0270214
0.0214222
0.0164661
0.012191
0.00862685
0.00578993
0.00366413
0.00218258
0.00122773
0.000656962
0.000335869
0.000165368
7.93908e-05
3.7342e-05
1.72414e-05
7.82749e-06
3.49958e-06
1.54293e-06
6.717e-07
2.89093e-07
1.23149e-07
5.19732e-08
2.1744e-08
9.01447e-09
3.69284e-09
1.48132e-09
5.66518e-10
1.89138e-10
3.31351e-11
3.66682e-07
1.60252e-06
3.68128e-06
7.16615e-06
1.29796e-05
2.26151e-05
3.84568e-05
6.42517e-05
0.000105779
0.000171765
0.000275053
0.000433995
0.00067388
0.00102807
0.00153824
0.0022531
0.003225
0.00450446
0.00613376
0.0081411
0.0105373
0.0133153
0.0164527
0.0199154
0.0236611
0.0276429
0.0318122
0.03612
0.0405195
0.0449661
0.0494189
0.053841
0.0581999
0.0624678
0.0666212
0.0706408
0.0745109
0.0782192
0.0817572
0.085119
0.0883017
0.0913044
0.0941277
0.0967739
0.0992461
0.101548
0.103684
0.105657
0.107471
0.109127
0.110628
0.111971
0.113153
0.114167
0.114999
0.115632
0.116036
0.116176
0.116009
0.115459
0.114429
0.109073
0.0998553
0.0905946
0.0814426
0.0725055
0.0638723
0.0556199
0.0478041
0.0404724
0.0336667
0.0274253
0.0217833
0.0167813
0.0124579
0.00884389
0.00595728
0.00378502
0.0022639
0.001279
0.000683994
0.000349829
0.000172648
8.30068e-05
3.90694e-05
1.80459e-05
8.19486e-06
3.66432e-06
1.61562e-06
7.03313e-07
3.02664e-07
1.28909e-07
5.43938e-08
2.27521e-08
9.43058e-09
3.86266e-09
1.54926e-09