/*--------------------------------*- C++ -*----------------------------------*\
  =========                 |
  \\      /  F ield         | OpenFOAM: The Open Source CFD Toolbox
   \\    /   O peration     | Website:  https://openfoam.org
    \\  /    A nd           | Version:  8
     \\/     M anipulation  |
\*---------------------------------------------------------------------------*/
FoamFile
{
    version     2.0;
    format      ascii;
    class       volScalarField;
    location    "940/fluid";
    object      N2;
}
// * * * * * * * * * * * * * * * * * * * * * * * * * * * * * * * * * * * * * //

dimensions      [0 0 0 0 0 0 0];

internalField   nonuniform List<scalar> 
4000
(
2.30657e-06
1.0079e-05
2.31483e-05
4.50556e-05
8.16214e-05
0.000142318
0.000242379
0.000405954
0.00067068
0.00109401
0.00176149
0.00279659
0.00437079
0.0067109
0.0100993
0.0148614
0.0213374
0.0298398
0.040607
0.0537673
0.0693245
0.0871666
0.107089
0.128827
0.152077
0.176524
0.201858
0.227777
0.254004
0.280284
0.306392
0.332132
0.357337
0.38187
0.40562
0.428502
0.450448
0.471414
0.491372
0.510312
0.528234
0.54515
0.561081
0.576054
0.590102
0.603261
0.615571
0.627072
0.637806
0.647814
0.657139
0.665821
0.673899
0.681413
0.688399
0.694893
0.700927
0.706459
0.71154
0.7164
0.720921
0.725129
0.728995
0.732706
0.736257
0.739651
0.742891
0.745976
0.748905
0.751676
0.754285
0.756726
0.758991
0.761061
0.762947
0.764624
0.766076
0.767284
0.768236
0.768932
0.769399
0.769684
0.769843
0.769925
0.769966
0.769984
0.769993
0.769997
0.769999
0.769999
0.77
0.77
0.77
0.77
0.77
0.77
0.77
0.77
0.77
0.77
2.30866e-06
1.00905e-05
2.31848e-05
4.51545e-05
8.18572e-05
0.000142821
0.000243347
0.000407632
0.000673247
0.00109728
0.00176426
0.0027956
0.0043591
0.00667561
0.0100195
0.0147073
0.0210714
0.0294211
0.0399977
0.0529399
0.0682667
0.085883
0.1056
0.127165
0.150282
0.174641
0.199929
0.225844
0.252103
0.278446
0.304642
0.330488
0.355813
0.380475
0.404359
0.427376
0.449456
0.470552
0.490635
0.509691
0.527722
0.544739
0.560762
0.575819
0.589942
0.603167
0.615536
0.62709
0.637869
0.647917
0.657276
0.665987
0.67409
0.681624
0.688627
0.695134
0.701179
0.706716
0.711801
0.716666
0.72119
0.725395
0.729267
0.732988
0.736547
0.739948
0.743194
0.746285
0.749218
0.751992
0.7546
0.757039
0.759298
0.761357
0.763227
0.76488
0.766298
0.767466
0.768372
0.769024
0.769454
0.769712
0.769856
0.769931
0.769968
0.769985
0.769993
0.769997
0.769999
0.769999
0.77
0.77
0.77
0.77
0.77
0.77
0.77
0.77
0.77
0.77
2.31376e-06
1.01141e-05
2.3245e-05
4.52856e-05
8.2118e-05
0.000143302
0.00024417
0.000408924
0.000675062
0.00109941
0.00176581
0.00279409
0.00434904
0.00664738
0.00995778
0.0145899
0.0208693
0.0290999
0.0395218
0.0522768
0.0673923
0.084785
0.10428
0.125636
0.148571
0.172782
0.197961
0.223808
0.25004
0.276395
0.302637
0.32856
0.353987
0.378769
0.402789
0.42595
0.448181
0.469429
0.489663
0.508867
0.52704
0.544191
0.56034
0.575513
0.589742
0.603066
0.615522
0.627153
0.638001
0.648109
0.65752
0.666276
0.674418
0.681984
0.689013
0.695542
0.701604
0.707147
0.712236
0.717101
0.721616
0.72582
0.729711
0.733445
0.737013
0.74042
0.743669
0.746758
0.749687
0.752452
0.755048
0.757468
0.759702
0.761733
0.763564
0.76517
0.766536
0.767647
0.768499
0.769104
0.769499
0.769736
0.769868
0.769936
0.76997
0.769986
0.769994
0.769997
0.769999
0.769999
0.77
0.77
0.77
0.77
0.77
0.77
0.77
0.77
0.77
0.77
2.31082e-06
1.01011e-05
2.32143e-05
4.52216e-05
8.19858e-05
0.000143022
0.000243559
0.00040759
0.000672201
0.00109348
0.00175405
0.00277192
0.00430939
0.00657957
0.00984666
0.0144156
0.0206078
0.028725
0.039008
0.0516027
0.066543
0.083754
0.10307
0.124257
0.147041
0.171125
0.196205
0.221985
0.248181
0.274533
0.300803
0.326782
0.352288
0.377171
0.401307
0.424597
0.446966
0.468357
0.488736
0.508084
0.526397
0.543683
0.55996
0.575253
0.589596
0.603024
0.615573
0.627288
0.638211
0.648385
0.657854
0.66666
0.674843
0.682445
0.689503
0.696055
0.702134
0.707677
0.71276
0.717624
0.722147
0.726347
0.730253
0.733994
0.737566
0.740973
0.744217
0.747298
0.750214
0.752961
0.755534
0.757924
0.760123
0.76212
0.763903
0.765457
0.766769
0.767825
0.768624
0.769185
0.769547
0.769762
0.769881
0.769942
0.769973
0.769988
0.769994
0.769997
0.769999
0.77
0.77
0.77
0.77
0.77
0.77
0.77
0.77
0.77
0.77
0.77
2.30125e-06
1.00588e-05
2.3115e-05
4.50218e-05
8.16071e-05
0.000142321
0.000242278
0.00040526
0.000667998
0.00108597
0.00174084
0.00274909
0.00427082
0.00651615
0.00974561
0.0142602
0.020378
0.028399
0.0385645
0.0510237
0.0658161
0.0828739
0.102038
0.123083
0.14574
0.169716
0.194712
0.220434
0.2466
0.272947
0.299239
0.325263
0.350836
0.375804
0.40004
0.423443
0.445933
0.467452
0.48796
0.507439
0.52588
0.543292
0.559689
0.575096
0.589544
0.603066
0.615704
0.627499
0.638493
0.64873
0.658253
0.667105
0.675328
0.682962
0.690047
0.696619
0.702707
0.708233
0.713322
0.718201
0.722722
0.726889
0.730823
0.734567
0.738138
0.741541
0.744776
0.747844
0.750742
0.753467
0.756012
0.75837
0.760528
0.762483
0.764219
0.765723
0.766981
0.767984
0.768735
0.769255
0.769588
0.769784
0.769891
0.769948
0.769975
0.769989
0.769995
0.769998
0.769999
0.77
0.77
0.77
0.77
0.77
0.77
0.77
0.77
0.77
0.77
0.77
2.28652e-06
9.99377e-06
2.29629e-05
4.47179e-05
8.10376e-05
0.000141287
0.000240435
0.00040202
0.000662368
0.00107632
0.00172454
0.0027221
0.00422712
0.00644721
0.00964003
0.0141038
0.0201545
0.0280914
0.0381569
0.0505034
0.0651751
0.0821095
0.101153
0.122086
0.144643
0.168536
0.193469
0.219147
0.245292
0.27164
0.297953
0.324019
0.349651
0.374694
0.399018
0.422519
0.445115
0.466744
0.487366
0.506958
0.525511
0.543031
0.559535
0.575042
0.589582
0.603191
0.615908
0.627773
0.63883
0.649122
0.658692
0.667583
0.675838
0.683497
0.6906
0.697182
0.703281
0.708808
0.713914
0.718794
0.723311
0.727439
0.731374
0.735121
0.738689
0.742085
0.745309
0.748361
0.751239
0.75394
0.756456
0.758783
0.760902
0.762818
0.764508
0.765962
0.767171
0.768126
0.768833
0.769318
0.769624
0.769803
0.769902
0.769952
0.769978
0.76999
0.769995
0.769998
0.769999
0.77
0.77
0.77
0.77
0.77
0.77
0.77
0.77
0.77
0.77
0.77
2.26958e-06
9.91939e-06
2.27902e-05
4.43764e-05
8.04061e-05
0.000140159
0.000238462
0.00039862
0.000656587
0.00106662
0.00170853
0.00269612
0.00418583
0.00638315
0.0095434
0.0139625
0.0199549
0.0278194
0.0377999
0.0500517
0.0646232
0.0814565
0.100403
0.121247
0.143726
0.167556
0.192442
0.218091
0.244224
0.27058
0.296917
0.323023
0.34871
0.37382
0.398221
0.421809
0.444497
0.466223
0.486944
0.506636
0.525289
0.542904
0.559496
0.575086
0.589705
0.603387
0.61617
0.628094
0.639204
0.649541
0.659149
0.668071
0.676349
0.684025
0.691135
0.697723
0.703827
0.709303
0.714536
0.719387
0.723883
0.727978
0.731901
0.73564
0.739201
0.742586
0.745797
0.748833
0.75169
0.754366
0.756854
0.759147
0.761225
0.763101
0.764755
0.766171
0.767337
0.768249
0.768918
0.769371
0.769655
0.76982
0.76991
0.769957
0.769979
0.769991
0.769996
0.769998
0.769999
0.77
0.77
0.77
0.77
0.77
0.77
0.77
0.77
0.77
0.77
0.77
2.25205e-06
9.84247e-06
2.26122e-05
4.40257e-05
7.9761e-05
0.000139014
0.000236472
0.00039522
0.000650859
0.00105711
0.001693
0.00267123
0.00414679
0.0063234
0.00945447
0.0138342
0.019776
0.0275787
0.0374876
0.0496608
0.0641502
0.080902
0.0997714
0.120545
0.142966
0.166749
0.191602
0.217233
0.243364
0.269731
0.296095
0.32224
0.347978
0.373149
0.397619
0.421282
0.44405
0.465859
0.486663
0.506438
0.525175
0.542871
0.559539
0.575202
0.589887
0.60363
0.616468
0.628442
0.639594
0.649968
0.659606
0.668554
0.676853
0.684545
0.691671
0.69827
0.704352
0.709824
0.715062
0.71991
0.724396
0.728473
0.732387
0.736116
0.739667
0.743041
0.746238
0.749257
0.752095
0.754747
0.757209
0.759473
0.761523
0.763365
0.764981
0.766358
0.767483
0.768356
0.768991
0.769417
0.769682
0.769835
0.769918
0.76996
0.769981
0.769991
0.769996
0.769998
0.769999
0.77
0.77
0.77
0.77
0.77
0.77
0.77
0.77
0.77
0.77
0.77
2.23508e-06
9.76819e-06
2.24407e-05
4.3689e-05
7.91442e-05
0.000137924
0.000234591
0.000392025
0.000645517
0.00104832
0.00167875
0.00264859
0.00411158
0.00626996
0.00937558
0.0137213
0.0196197
0.02737
0.0372189
0.0493268
0.063749
0.0804349
0.099243
0.119963
0.142339
0.166088
0.19092
0.216542
0.242676
0.269059
0.295451
0.321634
0.347419
0.372645
0.397178
0.420907
0.443746
0.465627
0.486505
0.506353
0.525156
0.542917
0.559648
0.57537
0.590111
0.603903
0.616786
0.628798
0.639984
0.650386
0.660048
0.669013
0.677325
0.685025
0.692154
0.698749
0.70481
0.710279
0.715512
0.720352
0.724831
0.728905
0.732815
0.736539
0.740081
0.743443
0.746625
0.749626
0.752442
0.75507
0.757504
0.759736
0.761754
0.763563
0.765147
0.766494
0.767598
0.768445
0.769052
0.769456
0.769705
0.769847
0.769924
0.769963
0.769983
0.769992
0.769996
0.769998
0.769999
0.77
0.77
0.77
0.77
0.77
0.77
0.77
0.77
0.77
0.77
0.77
2.21932e-06
9.69921e-06
2.22816e-05
4.33775e-05
7.85749e-05
0.000136922
0.000232866
0.000389108
0.000640661
0.00104036
0.00166594
0.00262835
0.00408029
0.00622279
0.00930643
0.013623
0.0194846
0.0271908
0.0369897
0.0490439
0.0634114
0.0800445
0.0988045
0.119483
0.141826
0.165552
0.19037
0.21599
0.242132
0.268534
0.294952
0.321171
0.347
0.372275
0.396862
0.420649
0.443547
0.465489
0.486429
0.506336
0.525198
0.543016
0.559799
0.57557
0.590355
0.604188
0.617105
0.629149
0.64036
0.650784
0.660463
0.669441
0.677762
0.685467
0.692597
0.699191
0.705235
0.710692
0.715918
0.72075
0.725218
0.729288
0.733195
0.736915
0.740451
0.743804
0.746975
0.749962
0.752762
0.755372
0.757785
0.759994
0.761991
0.763772
0.765325
0.766636
0.767699
0.76852
0.769105
0.769489
0.769724
0.769857
0.769929
0.769966
0.769984
0.769993
0.769997
0.769998
0.769999
0.77
0.77
0.77
0.77
0.77
0.77
0.77
0.77
0.77
0.77
0.77
2.2051e-06
9.63705e-06
2.21385e-05
4.30975e-05
7.80643e-05
0.000136025
0.000231327
0.000386515
0.00063636
0.00103334
0.00165469
0.00261065
0.00405307
0.00618195
0.00924684
0.0135387
0.0193694
0.0270388
0.0367963
0.0488065
0.0631297
0.0797208
0.0984431
0.11909
0.141409
0.165119
0.18993
0.215552
0.241705
0.268126
0.294571
0.320824
0.346692
0.372012
0.396646
0.420483
0.443434
0.465428
0.486418
0.506375
0.525286
0.543149
0.559975
0.575785
0.590606
0.60447
0.617416
0.629483
0.640715
0.651154
0.660846
0.669833
0.678159
0.685867
0.692998
0.69959
0.705624
0.711072
0.716287
0.721105
0.725557
0.729626
0.733529
0.737242
0.740768
0.744111
0.747269
0.75024
0.753024
0.755614
0.758009
0.760202
0.762186
0.763947
0.765476
0.766762
0.767798
0.768586
0.769148
0.769517
0.76974
0.769866
0.769934
0.769968
0.769985
0.769993
0.769997
0.769999
0.769999
0.77
0.77
0.77
0.77
0.77
0.77
0.77
0.77
0.77
0.77
0.77
2.19257e-06
9.58229e-06
2.20125e-05
4.28513e-05
7.76161e-05
0.000135239
0.000229981
0.000384253
0.000632618
0.00102726
0.00164496
0.00259541
0.00402971
0.00614705
0.00919613
0.0134673
0.0192722
0.0269112
0.0366347
0.0486091
0.0628968
0.0794546
0.0981477
0.118771
0.141073
0.164773
0.189581
0.215208
0.241374
0.267813
0.294284
0.320567
0.34647
0.371828
0.396503
0.420384
0.443378
0.465416
0.486449
0.506448
0.525399
0.543299
0.560161
0.576003
0.590852
0.604741
0.617709
0.629794
0.64104
0.651491
0.661191
0.670184
0.678513
0.686221
0.693347
0.699931
0.705957
0.711398
0.716606
0.721414
0.725854
0.729922
0.733822
0.737529
0.741047
0.744379
0.747524
0.750485
0.753258
0.755839
0.758222
0.760398
0.76236
0.764099
0.765606
0.766869
0.767881
0.768647
0.769187
0.76954
0.769754
0.769874
0.769937
0.76997
0.769986
0.769993
0.769997
0.769999
0.769999
0.77
0.77
0.77
0.77
0.77
0.77
0.77
0.77
0.77
0.77
0.77
2.18175e-06
9.535e-06
2.19037e-05
4.26391e-05
7.72303e-05
0.000134563
0.000228827
0.000382316
0.000629422
0.00102207
0.00163669
0.0025825
0.00400998
0.00611766
0.00915358
0.0134076
0.0191913
0.0268053
0.0365011
0.0484467
0.062706
0.0792378
0.0979084
0.118514
0.140804
0.164498
0.189307
0.214941
0.241119
0.267576
0.29407
0.32038
0.346314
0.371705
0.396416
0.420333
0.443364
0.465438
0.486508
0.506541
0.525524
0.543456
0.560345
0.576212
0.591084
0.604993
0.617977
0.630076
0.641333
0.651793
0.661498
0.670494
0.678823
0.686528
0.69365
0.700233
0.706252
0.711683
0.716881
0.721679
0.726108
0.730177
0.734073
0.737775
0.741286
0.744613
0.747754
0.750707
0.753469
0.756036
0.758403
0.760563
0.762507
0.764228
0.765715
0.766958
0.767951
0.768698
0.769221
0.76956
0.769765
0.76988
0.769941
0.769971
0.769987
0.769994
0.769997
0.769999
0.769999
0.77
0.77
0.77
0.77
0.77
0.77
0.77
0.77
0.77
0.77
0.77
2.17259e-06
9.49496e-06
2.18117e-05
4.24596e-05
7.69042e-05
0.000133993
0.000227854
0.000380686
0.000626739
0.00101772
0.00162978
0.00257173
0.00399357
0.00609327
0.00911837
0.0133584
0.0191247
0.0267185
0.036392
0.0483146
0.0625516
0.079063
0.0977165
0.118309
0.140591
0.164282
0.189093
0.214734
0.240924
0.267398
0.293913
0.320247
0.346207
0.371627
0.396368
0.420316
0.443377
0.465482
0.48658
0.506642
0.525652
0.543607
0.560519
0.576406
0.591295
0.60522
0.618216
0.630326
0.641591
0.652056
0.661764
0.67076
0.679087
0.686791
0.693914
0.700493
0.706502
0.711926
0.717116
0.721904
0.726322
0.730393
0.734286
0.737984
0.741494
0.744815
0.747948
0.750892
0.753644
0.7562
0.758554
0.7607
0.76263
0.764335
0.765806
0.767032
0.768008
0.768739
0.769249
0.769578
0.769774
0.769884
0.769943
0.769973
0.769987
0.769994
0.769997
0.769999
0.769999
0.77
0.77
0.77
0.77
0.77
0.77
0.77
0.77
0.77
0.77
0.77
2.16499e-06
9.46176e-06
2.17354e-05
4.2311e-05
7.66345e-05
0.000133522
0.000227051
0.000379343
0.00062453
0.00101415
0.00162411
0.00256291
0.00398016
0.0060734
0.00908975
0.0133184
0.0190708
0.0266485
0.0363044
0.0482087
0.0624283
0.0789241
0.0975648
0.118148
0.140424
0.164115
0.188929
0.214577
0.240778
0.267267
0.293799
0.320153
0.346136
0.37158
0.396346
0.420318
0.443405
0.465534
0.486657
0.506741
0.525772
0.543747
0.560677
0.57658
0.591482
0.605418
0.618424
0.630541
0.641811
0.652278
0.661988
0.670986
0.679316
0.687019
0.694138
0.700712
0.706714
0.712131
0.717314
0.722096
0.726496
0.730572
0.734463
0.73816
0.741665
0.744981
0.748108
0.751045
0.753788
0.756335
0.758679
0.760814
0.762732
0.764424
0.765881
0.767093
0.768055
0.768773
0.769272
0.769592
0.769782
0.769889
0.769945
0.769974
0.769988
0.769994
0.769997
0.769999
0.769999
0.77
0.77
0.77
0.77
0.77
0.77
0.77
0.77
0.77
0.77
0.77
2.15885e-06
9.43497e-06
2.16739e-05
4.21911e-05
7.64171e-05
0.000133143
0.000226405
0.000378264
0.000622758
0.00101129
0.00161958
0.00255586
0.00396947
0.00605757
0.009067
0.0132868
0.0190282
0.0265932
0.0362354
0.0481257
0.0623319
0.0788159
0.0974471
0.118024
0.140297
0.163987
0.188805
0.214459
0.24067
0.267172
0.293718
0.32009
0.346091
0.371554
0.39634
0.420332
0.443439
0.465589
0.48673
0.506833
0.52588
0.54387
0.560813
0.576728
0.591641
0.605585
0.618597
0.630719
0.641993
0.652464
0.662177
0.671176
0.679505
0.687206
0.694322
0.700892
0.706888
0.712299
0.717477
0.722253
0.726636
0.730716
0.734606
0.7383
0.741802
0.745115
0.748237
0.751168
0.753904
0.756444
0.758779
0.760905
0.762813
0.764495
0.765941
0.767142
0.768092
0.7688
0.769289
0.769602
0.769788
0.769892
0.769947
0.769974
0.769988
0.769994
0.769997
0.769999
0.77
0.77
0.77
0.77
0.77
0.77
0.77
0.77
0.77
0.77
0.77
0.77
2.15408e-06
9.41414e-06
2.16261e-05
4.2098e-05
7.62483e-05
0.000132848
0.000225904
0.000377428
0.000621386
0.00100908
0.00161608
0.00255043
0.00396123
0.0060454
0.00904953
0.0132625
0.0189956
0.026551
0.0361828
0.0480626
0.0622588
0.0787341
0.0973585
0.117931
0.140201
0.163892
0.188713
0.214374
0.240593
0.267104
0.293663
0.320047
0.346063
0.371541
0.396342
0.420351
0.443473
0.465637
0.486793
0.506909
0.525969
0.543971
0.560924
0.576847
0.591767
0.605718
0.618736
0.630863
0.642141
0.652615
0.662329
0.671327
0.679655
0.687354
0.694467
0.701035
0.707025
0.712432
0.717606
0.722376
0.726747
0.73083
0.734719
0.738411
0.74191
0.745219
0.748337
0.751264
0.753995
0.756529
0.758858
0.760977
0.762877
0.764551
0.765988
0.76718
0.768122
0.768821
0.769303
0.769611
0.769793
0.769895
0.769948
0.769975
0.769988
0.769995
0.769998
0.769999
0.77
0.77
0.77
0.77
0.77
0.77
0.77
0.77
0.77
0.77
0.77
0.77
2.15059e-06
9.39889e-06
2.15911e-05
4.20299e-05
7.61248e-05
0.000132633
0.000225538
0.000376817
0.000620385
0.00100747
0.00161352
0.00254648
0.00395524
0.00603656
0.00903686
0.0132449
0.018972
0.0265205
0.0361448
0.0480171
0.0622063
0.0786755
0.0972952
0.117864
0.140134
0.163825
0.188649
0.214314
0.240539
0.267058
0.293626
0.32002
0.346046
0.371536
0.396349
0.420369
0.443502
0.465678
0.486844
0.506969
0.526038
0.544048
0.561008
0.576938
0.591865
0.605821
0.618843
0.630973
0.642253
0.652728
0.662442
0.67144
0.679767
0.687464
0.694576
0.70114
0.707128
0.712531
0.717701
0.722468
0.726829
0.730914
0.734802
0.738492
0.74199
0.745296
0.748411
0.751334
0.754062
0.756591
0.758916
0.761029
0.762924
0.764592
0.766023
0.767208
0.768143
0.768836
0.769313
0.769617
0.769797
0.769897
0.769949
0.769976
0.769989
0.769995
0.769998
0.769999
0.77
0.77
0.77
0.77
0.77
0.77
0.77
0.77
0.77
0.77
0.77
0.77
2.14831e-06
9.38894e-06
2.15682e-05
4.19854e-05
7.60443e-05
0.000132493
0.000225299
0.00037642
0.000619734
0.00100642
0.00161187
0.00254391
0.00395135
0.00603084
0.00902865
0.0132335
0.0189568
0.0265008
0.0361204
0.0479879
0.0621725
0.0786379
0.0972546
0.117822
0.140091
0.163783
0.188608
0.214276
0.240506
0.26703
0.293603
0.320004
0.346038
0.371535
0.396355
0.420383
0.443524
0.465706
0.48688
0.507012
0.526086
0.544102
0.561067
0.577002
0.591932
0.60589
0.618915
0.631046
0.642327
0.652803
0.662517
0.671515
0.679841
0.687537
0.694647
0.70121
0.707196
0.712597
0.717765
0.722529
0.726883
0.73097
0.734856
0.738546
0.742042
0.745347
0.74846
0.751381
0.754107
0.756633
0.758954
0.761064
0.762955
0.764619
0.766046
0.767226
0.768157
0.768846
0.76932
0.769621
0.769799
0.769898
0.76995
0.769976
0.769989
0.769995
0.769998
0.769999
0.77
0.77
0.77
0.77
0.77
0.77
0.77
0.77
0.77
0.77
0.77
0.77
2.1472e-06
9.38411e-06
2.15571e-05
4.19639e-05
7.60055e-05
0.000132425
0.000225185
0.00037623
0.000619423
0.00100592
0.00161108
0.00254269
0.00394952
0.00602813
0.00902478
0.0132281
0.0189496
0.0264915
0.0361088
0.047974
0.0621566
0.0786201
0.0972355
0.117802
0.14007
0.163763
0.188589
0.214259
0.24049
0.267017
0.293593
0.319997
0.346034
0.371535
0.396359
0.42039
0.443535
0.465721
0.486898
0.507033
0.526111
0.544129
0.561097
0.577033
0.591965
0.605925
0.61895
0.631082
0.642364
0.65284
0.662554
0.671552
0.679877
0.687574
0.694683
0.701245
0.70723
0.71263
0.717797
0.72256
0.72691
0.730997
0.734883
0.738572
0.742068
0.745372
0.748485
0.751404
0.754128
0.756653
0.758973
0.761081
0.76297
0.764632
0.766057
0.767235
0.768164
0.768851
0.769323
0.769623
0.7698
0.769898
0.76995
0.769976
0.769989
0.769995
0.769998
0.769999
0.77
0.77
0.77
0.77
0.77
0.77
0.77
0.77
0.77
0.77
0.77
0.77
2.14721e-06
9.38413e-06
2.15572e-05
4.1964e-05
7.60056e-05
0.000132425
0.000225186
0.000376231
0.000619424
0.00100592
0.00161108
0.0025427
0.00394952
0.00602814
0.00902479
0.0132281
0.0189496
0.0264916
0.0361089
0.0479741
0.0621566
0.0786202
0.0972355
0.117802
0.14007
0.163763
0.188589
0.214259
0.24049
0.267017
0.293593
0.319997
0.346034
0.371535
0.396359
0.42039
0.443535
0.465721
0.486898
0.507033
0.526111
0.544129
0.561097
0.577033
0.591965
0.605925
0.61895
0.631082
0.642364
0.65284
0.662554
0.671552
0.679877
0.687574
0.694683
0.701245
0.70723
0.71263
0.717797
0.72256
0.72691
0.730997
0.734883
0.738572
0.742068
0.745372
0.748485
0.751404
0.754128
0.756653
0.758973
0.761081
0.76297
0.764632
0.766057
0.767235
0.768164
0.76885
0.769323
0.769623
0.7698
0.769898
0.76995
0.769976
0.769989
0.769995
0.769998
0.769999
0.77
0.77
0.77
0.77
0.77
0.77
0.77
0.77
0.77
0.77
0.77
0.77
2.14833e-06
9.38901e-06
2.15684e-05
4.19857e-05
7.60448e-05
0.000132494
0.000225301
0.000376422
0.000619738
0.00100642
0.00161188
0.00254392
0.00395138
0.00603087
0.00902869
0.0132335
0.0189569
0.0265009
0.0361205
0.047988
0.0621727
0.0786381
0.0972548
0.117822
0.140091
0.163783
0.188609
0.214277
0.240506
0.26703
0.293604
0.320005
0.346038
0.371535
0.396355
0.420383
0.443524
0.465706
0.48688
0.507012
0.526087
0.544102
0.561067
0.577002
0.591932
0.60589
0.618915
0.631046
0.642327
0.652802
0.662517
0.671515
0.679841
0.687537
0.694647
0.70121
0.707196
0.712597
0.717765
0.722529
0.726883
0.73097
0.734856
0.738546
0.742042
0.745347
0.74846
0.751381
0.754107
0.756633
0.758954
0.761064
0.762955
0.764619
0.766046
0.767226
0.768157
0.768846
0.76932
0.769621
0.769799
0.769898
0.76995
0.769976
0.769989
0.769995
0.769998
0.769999
0.77
0.77
0.77
0.77
0.77
0.77
0.77
0.77
0.77
0.77
0.77
0.77
2.15062e-06
9.39901e-06
2.15913e-05
4.20304e-05
7.61257e-05
0.000132635
0.00022554
0.000376821
0.000620392
0.00100748
0.00161354
0.0025465
0.00395528
0.00603662
0.00903693
0.013245
0.0189722
0.0265207
0.036145
0.0480174
0.0622066
0.0786758
0.0972955
0.117865
0.140134
0.163826
0.188649
0.214314
0.240539
0.267058
0.293626
0.32002
0.346047
0.371536
0.396349
0.420369
0.443502
0.465677
0.486844
0.506969
0.526038
0.544048
0.561008
0.576938
0.591865
0.605821
0.618843
0.630973
0.642253
0.652727
0.662442
0.67144
0.679766
0.687464
0.694576
0.70114
0.707128
0.712531
0.717701
0.722468
0.726829
0.730914
0.734801
0.738492
0.74199
0.745296
0.748411
0.751334
0.754062
0.756591
0.758916
0.761029
0.762924
0.764592
0.766023
0.767208
0.768143
0.768836
0.769313
0.769617
0.769797
0.769897
0.769949
0.769976
0.769989
0.769995
0.769998
0.769999
0.77
0.77
0.77
0.77
0.77
0.77
0.77
0.77
0.77
0.77
0.77
0.77
2.15412e-06
9.4143e-06
2.16264e-05
4.20987e-05
7.62495e-05
0.00013285
0.000225907
0.000377434
0.000621395
0.00100909
0.0016161
0.00255047
0.00396128
0.00604548
0.00904963
0.0132626
0.0189958
0.0265512
0.036183
0.0480629
0.0622592
0.0787345
0.0973589
0.117931
0.140202
0.163893
0.188714
0.214374
0.240593
0.267104
0.293663
0.320048
0.346063
0.371542
0.396343
0.420351
0.443473
0.465637
0.486794
0.50691
0.525969
0.543971
0.560924
0.576847
0.591767
0.605718
0.618736
0.630862
0.642141
0.652615
0.662328
0.671327
0.679655
0.687354
0.694467
0.701034
0.707025
0.712432
0.717606
0.722376
0.726747
0.73083
0.734718
0.73841
0.74191
0.745219
0.748337
0.751263
0.753995
0.756528
0.758858
0.760976
0.762877
0.764551
0.765988
0.76718
0.768122
0.768821
0.769303
0.769611
0.769793
0.769895
0.769948
0.769975
0.769988
0.769995
0.769998
0.769999
0.77
0.77
0.77
0.77
0.77
0.77
0.77
0.77
0.77
0.77
0.77
0.77
2.1589e-06
9.43517e-06
2.16743e-05
4.2192e-05
7.64187e-05
0.000133145
0.000226409
0.000378271
0.000622769
0.00101131
0.00161961
0.00255591
0.00396953
0.00605767
0.00906713
0.0132869
0.0190285
0.0265935
0.0362357
0.0481261
0.0623323
0.0788164
0.0974477
0.118025
0.140297
0.163987
0.188805
0.21446
0.240671
0.267172
0.293719
0.32009
0.346091
0.371554
0.39634
0.420333
0.443439
0.465589
0.486731
0.506833
0.52588
0.54387
0.560813
0.576728
0.591641
0.605585
0.618597
0.630719
0.641992
0.652464
0.662177
0.671176
0.679505
0.687206
0.694322
0.700892
0.706888
0.712299
0.717477
0.722253
0.726636
0.730716
0.734606
0.7383
0.741802
0.745114
0.748236
0.751167
0.753904
0.756443
0.758779
0.760905
0.762813
0.764495
0.765941
0.767142
0.768092
0.7688
0.769289
0.769602
0.769788
0.769892
0.769947
0.769974
0.769988
0.769994
0.769997
0.769999
0.77
0.77
0.77
0.77
0.77
0.77
0.77
0.77
0.77
0.77
0.77
0.77
2.16504e-06
9.462e-06
2.1736e-05
4.2312e-05
7.66364e-05
0.000133525
0.000227056
0.000379352
0.000624544
0.00101418
0.00162415
0.00256296
0.00398024
0.00607351
0.0090899
0.0133186
0.0190711
0.0266488
0.0363048
0.0482092
0.0624288
0.0789247
0.0975655
0.118149
0.140425
0.164115
0.18893
0.214578
0.240779
0.267268
0.2938
0.320154
0.346137
0.37158
0.396346
0.420319
0.443405
0.465535
0.486657
0.506742
0.525772
0.543747
0.560677
0.576579
0.591482
0.605418
0.618424
0.630541
0.641811
0.652278
0.661987
0.670985
0.679315
0.687019
0.694138
0.700712
0.706714
0.712131
0.717314
0.722096
0.726496
0.730572
0.734463
0.738159
0.741665
0.744981
0.748108
0.751044
0.753788
0.756335
0.758679
0.760814
0.762731
0.764424
0.765881
0.767093
0.768055
0.768773
0.769271
0.769591
0.769782
0.769889
0.769945
0.769974
0.769988
0.769994
0.769997
0.769999
0.769999
0.77
0.77
0.77
0.77
0.77
0.77
0.77
0.77
0.77
0.77
0.77
2.17265e-06
9.49524e-06
2.18123e-05
4.24608e-05
7.69064e-05
0.000133997
0.00022786
0.000380696
0.000626755
0.00101775
0.00162982
0.00257179
0.00399366
0.0060934
0.00911855
0.0133586
0.019125
0.0267189
0.0363925
0.0483151
0.0625522
0.0790637
0.0977173
0.11831
0.140592
0.164283
0.189094
0.214735
0.240925
0.267399
0.293913
0.320247
0.346207
0.371628
0.396368
0.420316
0.443377
0.465482
0.48658
0.506642
0.525652
0.543607
0.560519
0.576406
0.591295
0.60522
0.618216
0.630326
0.641591
0.652055
0.661764
0.670759
0.679087
0.686791
0.693914
0.700492
0.706502
0.711926
0.717115
0.721903
0.726322
0.730393
0.734286
0.737984
0.741494
0.744815
0.747948
0.750892
0.753644
0.7562
0.758554
0.7607
0.76263
0.764335
0.765806
0.767032
0.768008
0.768739
0.769249
0.769578
0.769774
0.769884
0.769943
0.769973
0.769987
0.769994
0.769997
0.769999
0.769999
0.77
0.77
0.77
0.77
0.77
0.77
0.77
0.77
0.77
0.77
0.77
2.18183e-06
9.53532e-06
2.19045e-05
4.26405e-05
7.72328e-05
0.000134568
0.000228834
0.000382327
0.000629441
0.0010221
0.00163674
0.00258257
0.00401008
0.0061178
0.00915378
0.0134079
0.0191916
0.0268057
0.0365017
0.0484473
0.0627068
0.0792386
0.0979093
0.118515
0.140805
0.164499
0.189308
0.214942
0.241119
0.267577
0.29407
0.320381
0.346314
0.371706
0.396417
0.420334
0.443364
0.465438
0.486508
0.506541
0.525524
0.543456
0.560345
0.576212
0.591084
0.604993
0.617977
0.630076
0.641333
0.651792
0.661498
0.670494
0.678823
0.686527
0.69365
0.700233
0.706251
0.711683
0.716881
0.721678
0.726108
0.730177
0.734072
0.737774
0.741286
0.744612
0.747754
0.750707
0.753468
0.756036
0.758403
0.760563
0.762507
0.764228
0.765715
0.766958
0.767951
0.768698
0.769221
0.76956
0.769765
0.76988
0.769941
0.769971
0.769987
0.769994
0.769997
0.769999
0.769999
0.77
0.77
0.77
0.77
0.77
0.77
0.77
0.77
0.77
0.77
0.77
2.19266e-06
9.58264e-06
2.20133e-05
4.28529e-05
7.76189e-05
0.000135244
0.000229989
0.000384266
0.000632639
0.00102729
0.00164501
0.00259549
0.00402983
0.00614721
0.00919636
0.0134676
0.0192726
0.0269117
0.0366353
0.0486098
0.0628976
0.0794555
0.0981487
0.118772
0.141074
0.164774
0.189582
0.21521
0.241375
0.267814
0.294285
0.320568
0.346471
0.371829
0.396504
0.420384
0.443379
0.465416
0.48645
0.506448
0.525399
0.5433
0.560161
0.576003
0.590852
0.604741
0.617708
0.629794
0.64104
0.651491
0.661191
0.670184
0.678513
0.686221
0.693346
0.69993
0.705957
0.711398
0.716606
0.721414
0.725854
0.729922
0.733821
0.737529
0.741047
0.744378
0.747524
0.750485
0.753258
0.75584
0.758222
0.760398
0.76236
0.764099
0.765606
0.766869
0.767881
0.768647
0.769187
0.76954
0.769754
0.769874
0.769937
0.76997
0.769986
0.769993
0.769997
0.769999
0.769999
0.77
0.77
0.77
0.77
0.77
0.77
0.77
0.77
0.77
0.77
0.77
2.20519e-06
9.63744e-06
2.21394e-05
4.30992e-05
7.80674e-05
0.00013603
0.000231335
0.000386529
0.000636382
0.00103338
0.00165474
0.00261074
0.00405319
0.00618212
0.00924708
0.0135391
0.0193699
0.0270394
0.0367969
0.0488072
0.0631306
0.0797218
0.0984442
0.119091
0.14141
0.16512
0.189931
0.215553
0.241706
0.268127
0.294572
0.320825
0.346693
0.372012
0.396646
0.420484
0.443434
0.465428
0.486418
0.506375
0.525286
0.543149
0.559975
0.575785
0.590606
0.60447
0.617416
0.629483
0.640715
0.651154
0.660845
0.669833
0.678159
0.685867
0.692997
0.699589
0.705623
0.711071
0.716287
0.721105
0.725557
0.729626
0.73353
0.737243
0.74077
0.744113
0.747271
0.750242
0.753025
0.755614
0.758009
0.760202
0.762186
0.763948
0.765476
0.766763
0.767798
0.768586
0.769149
0.769517
0.76974
0.769866
0.769934
0.769968
0.769985
0.769993
0.769997
0.769999
0.769999
0.77
0.77
0.77
0.77
0.77
0.77
0.77
0.77
0.77
0.77
0.77
2.21941e-06
9.69963e-06
2.22826e-05
4.33793e-05
7.85782e-05
0.000136927
0.000232875
0.000389124
0.000640686
0.0010404
0.001666
0.00262844
0.00408043
0.00622299
0.00930669
0.0136234
0.0194851
0.0271914
0.0369904
0.0490447
0.0634123
0.0800456
0.0988056
0.119484
0.141827
0.165553
0.190371
0.215991
0.242133
0.268535
0.294953
0.321172
0.347001
0.372276
0.396863
0.42065
0.443548
0.46549
0.48643
0.506337
0.525198
0.543016
0.559799
0.57557
0.590355
0.604188
0.617105
0.629149
0.64036
0.650784
0.660463
0.669441
0.677762
0.685467
0.692598
0.699192
0.705236
0.710693
0.715918
0.72075
0.725218
0.729288
0.733195
0.736915
0.74045
0.743804
0.746975
0.749962
0.752763
0.755372
0.757784
0.759992
0.761991
0.763773
0.765326
0.766638
0.7677
0.76852
0.769105
0.769489
0.769724
0.769857
0.769929
0.769966
0.769984
0.769993
0.769997
0.769998
0.769999
0.77
0.77
0.77
0.77
0.77
0.77
0.77
0.77
0.77
0.77
0.77
2.23519e-06
9.76864e-06
2.24417e-05
4.3691e-05
7.91478e-05
0.000137931
0.000234601
0.000392042
0.000645544
0.00104836
0.00167882
0.00264869
0.00411172
0.00627017
0.00937587
0.0137217
0.0196203
0.0273707
0.0372197
0.0493277
0.06375
0.080436
0.0992443
0.119964
0.14234
0.16609
0.190921
0.216543
0.242678
0.269061
0.295452
0.321635
0.34742
0.372646
0.397178
0.420907
0.443746
0.465626
0.486504
0.506352
0.525156
0.542917
0.559648
0.57537
0.590111
0.603903
0.616785
0.628798
0.639984
0.650386
0.660048
0.669013
0.677325
0.685026
0.692154
0.69875
0.704811
0.71028
0.715513
0.720353
0.724833
0.728906
0.732817
0.736541
0.740084
0.743447
0.74663
0.749631
0.752449
0.755078
0.757512
0.759744
0.761757
0.763563
0.765146
0.766493
0.767597
0.768445
0.769052
0.769456
0.769705
0.769847
0.769924
0.769963
0.769983
0.769992
0.769996
0.769998
0.769999
0.77
0.77
0.77
0.77
0.77
0.77
0.77
0.77
0.77
0.77
0.77
2.25216e-06
9.84296e-06
2.26133e-05
4.40278e-05
7.97648e-05
0.00013902
0.000236483
0.000395237
0.000650887
0.00105716
0.00169307
0.00267134
0.00414694
0.00632362
0.00945478
0.0138346
0.0197765
0.0275794
0.0374885
0.0496618
0.0641513
0.0809032
0.0997727
0.120547
0.142967
0.16675
0.191603
0.217235
0.243365
0.269732
0.296096
0.322241
0.347979
0.37315
0.39762
0.421283
0.444051
0.46586
0.486665
0.50644
0.525176
0.542871
0.559539
0.575202
0.589887
0.60363
0.616468
0.628442
0.639594
0.649968
0.659607
0.668554
0.676853
0.684545
0.691671
0.69827
0.704353
0.709825
0.715063
0.71991
0.724397
0.728474
0.732387
0.736117
0.739668
0.743041
0.746238
0.749256
0.752094
0.754747
0.757209
0.759475
0.761526
0.763366
0.764981
0.766357
0.767483
0.768357
0.768991
0.769417