/*--------------------------------*- C++ -*----------------------------------*\
  =========                 |
  \\      /  F ield         | OpenFOAM: The Open Source CFD Toolbox
   \\    /   O peration     | Website:  https://openfoam.org
    \\  /    A nd           | Version:  8
     \\/     M anipulation  |
\*---------------------------------------------------------------------------*/
FoamFile
{
    version     2.0;
    format      ascii;
    class       volScalarField;
    location    "940/fluid";
    object      O2;
}
// * * * * * * * * * * * * * * * * * * * * * * * * * * * * * * * * * * * * * //

dimensions      [0 0 0 0 0 0 0];

internalField   nonuniform List<scalar> 
4000
(
4.58799e-10
2.00333e-09
4.59322e-09
8.91576e-09
1.60891e-08
2.79113e-08
4.7233e-08
7.84985e-08
1.28498e-07
2.0736e-07
3.29751e-07
5.16194e-07
7.94277e-07
1.19877e-06
1.77039e-06
2.55225e-06
3.58399e-06
4.89426e-06
6.49393e-06
8.37216e-06
1.04969e-05
1.28188e-05
1.52777e-05
1.78084e-05
2.03457e-05
2.28283e-05
2.52009e-05
2.74158e-05
2.94336e-05
3.12242e-05
3.27685e-05
3.40614e-05
3.51185e-05
3.59857e-05
3.67522e-05
3.75645e-05
3.86387e-05
4.02703e-05
4.28448e-05
4.68544e-05
5.29266e-05
6.18698e-05
7.47326e-05
9.28805e-05
0.000118097
0.000152718
0.000199807
0.00026339
0.000348642
0.000462711
0.000614759
0.000816831
0.00108474
0.00143923
0.00190751
0.00252525
0.00333931
0.00439673
0.00577085
0.00762685
0.0100692
0.0132906
0.0184027
0.0348291
0.0514625
0.0680431
0.084369
0.100281
0.115653
0.13038
0.144374
0.157556
0.169852
0.181131
0.191436
0.200607
0.208544
0.215151
0.220355
0.224164
0.226716
0.228273
0.229143
0.229592
0.229812
0.229915
0.229962
0.229984
0.229993
0.229997
0.229999
0.229999
0.23
0.23
0.23
0.23
0.23
0.23
0.23
0.23
4.6584e-10
2.03549e-09
4.67269e-09
9.08477e-09
1.64247e-08
2.85491e-08
4.8403e-08
8.05767e-08
1.32071e-07
2.13285e-07
3.39155e-07
5.30177e-07
8.14936e-07
1.22846e-06
1.81177e-06
2.6084e-06
3.65862e-06
4.99211e-06
6.62104e-06
8.53605e-06
1.07062e-05
1.30829e-05
1.56057e-05
1.82084e-05
2.08243e-05
2.33898e-05
2.58475e-05
2.81472e-05
3.02473e-05
3.21157e-05
3.37317e-05
3.50891e-05
3.62031e-05
3.71205e-05
3.79337e-05
3.87949e-05
3.9929e-05
4.16439e-05
4.43398e-05
4.85247e-05
5.48426e-05
6.41169e-05
7.74095e-05
9.60974e-05
0.000121975
0.000157388
0.000205369
0.000269805
0.000356379
0.000471892
0.000625535
0.000829371
0.00109923
0.00145587
0.00192653
0.00254696
0.00336415
0.00442485
0.00580316
0.00766632
0.0101193
0.0133563
0.0196877
0.0362195
0.0529364
0.0695851
0.085967
0.101925
0.117331
0.132081
0.146084
0.159259
0.171528
0.18275
0.192966
0.202004
0.209762
0.216147
0.221101
0.224665
0.227013
0.228428
0.229215
0.229623
0.229824
0.22992
0.229964
0.229984
0.229993
0.229997
0.229999
0.229999
0.23
0.23
0.23
0.23
0.23
0.23
0.23
0.23
4.75148e-10
2.07618e-09
4.76668e-09
9.26939e-09
1.67623e-08
2.91415e-08
4.94133e-08
8.22625e-08
1.34843e-07
2.17826e-07
3.46714e-07
5.43373e-07
8.35438e-07
1.25865e-06
1.85486e-06
2.66864e-06
3.74153e-06
5.1048e-06
6.77242e-06
8.73684e-06
1.09686e-05
1.34201e-05
1.60308e-05
1.87337e-05
2.14605e-05
2.41456e-05
2.67286e-05
2.91563e-05
3.13842e-05
3.33772e-05
3.5112e-05
3.65804e-05
3.77966e-05
3.88085e-05
3.9712e-05
4.0668e-05
4.1915e-05
4.37796e-05
4.66849e-05
5.11647e-05
5.78891e-05
6.7707e-05
8.17036e-05
0.000101277
0.000128238
0.000164902
0.000214205
0.000280651
0.000369342
0.0004873
0.000643746
0.000850779
0.00112427
0.00148505
0.00196046
0.00258643
0.00341028
0.00447802
0.00586584
0.0077433
0.0102157
0.0134855
0.0219528
0.0385617
0.0553484
0.0720531
0.0884733
0.104449
0.11985
0.134569
0.148513
0.161596
0.173736
0.184809
0.194811
0.203594
0.211062
0.217139
0.221796
0.225105
0.227264
0.228558
0.229277
0.229652
0.229837
0.229925
0.229966
0.229985
0.229993
0.229997
0.229999
0.229999
0.23
0.23
0.23
0.23
0.23
0.23
0.23
0.23
4.86187e-10
2.125e-09
4.88106e-09
9.49711e-09
1.71835e-08
2.98871e-08
5.06907e-08
8.43889e-08
1.38281e-07
2.23207e-07
3.5479e-07
5.54757e-07
8.52017e-07
1.28303e-06
1.89066e-06
2.72087e-06
3.81703e-06
5.21255e-06
6.92374e-06
8.94522e-06
1.12492e-05
1.37889e-05
1.65037e-05
1.93255e-05
2.21843e-05
2.50119e-05
2.77451e-05
3.03276e-05
3.27116e-05
3.48588e-05
3.6743e-05
3.83535e-05
3.97036e-05
4.08421e-05
4.18703e-05
4.29591e-05
4.43642e-05
4.64358e-05
4.96259e-05
5.45004e-05
6.17635e-05
7.22989e-05
8.7228e-05
0.000107989
0.000136362
0.000174653
0.000226184
0.000295087
0.000386737
0.000508215
0.000668822
0.000880761
0.00116004
0.00152768
0.00201128
0.00264714
0.00348313
0.00456347
0.00596725
0.00786883
0.0103776
0.0136946
0.0247692
0.0414074
0.0582249
0.0749502
0.0913728
0.107327
0.122678
0.137317
0.151146
0.164079
0.176031
0.186923
0.196668
0.205167
0.212336
0.218109
0.222479
0.225545
0.227523
0.228698
0.229347
0.229685
0.229852
0.229932
0.229969
0.229986
0.229994
0.229997
0.229999
0.23
0.23
0.23
0.23
0.23
0.23
0.23
0.23
0.23
4.95969e-10
2.16774e-09
4.97923e-09
9.68806e-09
1.75286e-08
3.04854e-08
5.17004e-08
8.6058e-08
1.40994e-07
2.27549e-07
3.61646e-07
5.65451e-07
8.68518e-07
1.3082e-06
1.92857e-06
2.7772e-06
3.89947e-06
5.33113e-06
7.091e-06
9.17598e-06
1.15601e-05
1.41974e-05
1.70273e-05
1.9981e-05
2.29864e-05
2.59729e-05
2.88745e-05
3.16315e-05
3.41928e-05
3.65166e-05
3.85735e-05
4.03505e-05
4.18595e-05
4.31515e-05
4.43338e-05
4.55901e-05
4.71965e-05
4.95309e-05
5.30789e-05
5.84432e-05
6.63661e-05
7.7769e-05
9.38122e-05
0.000115902
0.000145884
0.00018632
0.00024072
0.000312983
0.000408651
0.000534972
0.000701435
0.000920471
0.00120838
0.00158652
0.00208299
0.00273472
0.00358868
0.00468689
0.00611919
0.00806247
0.0106231
0.0139911
0.0277334
0.0443623
0.0611861
0.0779124
0.0943177
0.110229
0.125508
0.140043
0.153737
0.166504
0.178241
0.188911
0.198399
0.206619
0.213496
0.21898
0.223084
0.225929
0.227746
0.228817
0.229407
0.229713
0.229865
0.229938
0.229972
0.229987
0.229994
0.229998
0.229999
0.23
0.23
0.23
0.23
0.23
0.23
0.23
0.23
0.23
5.04451e-10
2.20469e-09
5.06371e-09
9.85159e-09
1.7823e-08
3.09954e-08
5.25631e-08
8.74939e-08
1.43353e-07
2.31385e-07
3.6782e-07
5.75294e-07
8.84057e-07
1.33246e-06
1.966e-06
2.83409e-06
3.98446e-06
5.45552e-06
7.26883e-06
9.42376e-06
1.18961e-05
1.46409e-05
1.75976e-05
2.06961e-05
2.38627e-05
2.70243e-05
3.01117e-05
3.30619e-05
3.58202e-05
3.83414e-05
4.05927e-05
4.25585e-05
4.42501e-05
4.57207e-05
4.70861e-05
4.85448e-05
5.0397e-05
5.30529e-05
5.70367e-05
6.29933e-05
7.17109e-05
8.41415e-05
0.000101395
0.000124968
0.000157165
0.000200568
0.000258252
0.000334598
0.00043533
0.000567931
0.000742189
0.000970912
0.00127086
0.001664
0.00217912
0.00285299
0.00373546
0.00486682
0.00634207
0.00833198
0.010943
0.0143373
0.0303506
0.0470294
0.063911
0.0806718
0.0970771
0.112951
0.128157
0.142586
0.156144
0.168748
0.180284
0.190742
0.199978
0.207929
0.214536
0.219756
0.223621
0.226271
0.227946
0.228926
0.229462
0.22974
0.229877
0.229943
0.229974
0.229989
0.229995
0.229998
0.229999
0.23
0.23
0.23
0.23
0.23
0.23
0.23
0.23
0.23
5.12268e-10
2.2388e-09
5.14187e-09
1.00035e-08
1.8098e-08
3.14753e-08
5.33829e-08
8.88738e-08
1.4565e-07
2.35172e-07
3.74005e-07
5.85294e-07
9.00052e-07
1.35774e-06
2.00537e-06
2.89443e-06
4.07515e-06
5.58885e-06
7.46006e-06
9.6908e-06
1.22589e-05
1.51204e-05
1.82148e-05
2.1471e-05
2.48134e-05
2.81663e-05
3.14575e-05
3.46203e-05
3.75964e-05
4.03367e-05
4.28049e-05
4.4983e-05
4.68814e-05
4.85571e-05
5.01355e-05
5.18336e-05
5.39787e-05
5.7017e-05
6.1514e-05
6.81577e-05
7.7779e-05
9.13223e-05
0.00011005
0.000135865
0.000170608
0.000216972
0.00027844
0.000359581
0.000466374
0.000606651
0.000790662
0.00103181
0.00134763
0.001761
0.00230177
0.00300987
0.00393763
0.00511302
0.00669505
0.00876126
0.0114551
0.0148969
0.0318285
0.0490202
0.0661846
0.0830884
0.0995451
0.115406
0.13055
0.144876
0.158298
0.170733
0.182042
0.192291
0.201332
0.209073
0.215446
0.220432
0.224086
0.226565
0.228117
0.229018
0.229509
0.229763
0.229888
0.229948
0.229976
0.229989
0.229995
0.229998
0.229999
0.23
0.23
0.23
0.23
0.23
0.23
0.23
0.23
0.23
5.19745e-10
2.27144e-09
5.21682e-09
1.01495e-08
1.83632e-08
3.19402e-08
5.41809e-08
9.02254e-08
1.47916e-07
2.38937e-07
3.80208e-07
5.95418e-07
9.164e-07
1.38381e-06
2.04635e-06
2.95771e-06
4.17088e-06
5.73033e-06
7.66379e-06
9.97618e-06
1.26475e-05
1.56351e-05
1.88785e-05
2.23057e-05
2.58393e-05
2.94011e-05
3.29153e-05
3.6312e-05
3.95287e-05
4.25122e-05
4.52226e-05
4.76389e-05
4.97714e-05
5.16811e-05
5.35055e-05
5.54829e-05
5.79714e-05
6.14585e-05
6.65583e-05
7.39898e-05
8.45474e-05
9.93343e-05
0.000119953
0.000147872
0.00018526
0.000234927
0.000300546
0.000386925
0.000500373
0.000649172
0.000844209
0.0010998
0.00143481
0.00187414
0.00245076
0.00320847
0.0041997
0.00546811
0.00719374
0.00947111
0.0124861
0.0164147
0.0336384
0.0510462
0.0683485
0.0853224
0.101793
0.117622
0.132697
0.146922
0.160214
0.1725
0.183671
0.193732
0.202566
0.210093
0.216244
0.221018
0.224485
0.226816
0.228263
0.229097
0.22955
0.229782
0.229897
0.229953
0.229978
0.22999
0.229996
0.229998
0.229999
0.23
0.23
0.23
0.23
0.23
0.23
0.23
0.23
0.23
5.27091e-10
2.30354e-09
5.29063e-09
1.02936e-08
1.86258e-08
3.24024e-08
5.49781e-08
9.15829e-08
1.50206e-07
2.42766e-07
3.86556e-07
6.05845e-07
9.33338e-07
1.41097e-06
2.08923e-06
3.0242e-06
4.27181e-06
5.8799e-06
7.87966e-06
1.02792e-05
1.3061e-05
1.61839e-05
1.95876e-05
2.31996e-05
2.69407e-05
3.073e-05
3.44888e-05
3.8143e-05
4.16261e-05
4.48807e-05
4.78627e-05
5.05481e-05
5.29466e-05
5.51244e-05
5.72324e-05
5.95315e-05
6.2411e-05
6.63969e-05
7.21378e-05
8.03456e-05
9.19789e-05
0.000108385
0.000130763
0.000160871
0.000200967
0.000253981
0.000323741
0.00041526
0.000535112
0.000691937
0.000897092
0.00116553
0.00151698
0.00197751
0.00258169
0.00337548
0.00441498
0.00575296
0.00758128
0.0100099
0.0132583
0.0180478
0.0354746
0.0530087
0.0703774
0.0873686
0.103815
0.119583
0.134565
0.14867
0.161818
0.173939
0.184938
0.194821
0.203474
0.210841
0.216873
0.221504
0.224821
0.227028
0.228386
0.229164
0.229584
0.229799
0.229905
0.229956
0.22998
0.229991
0.229996
0.229998
0.229999
0.23
0.23
0.23
0.23
0.23
0.23
0.23
0.23
0.23
5.34373e-10
2.33539e-09
5.36393e-09
1.0437e-08
1.88877e-08
3.28644e-08
5.57777e-08
9.29496e-08
1.52521e-07
2.46654e-07
3.93031e-07
6.16528e-07
9.5077e-07
1.43904e-06
2.13372e-06
3.09341e-06
4.3772e-06
6.03649e-06
8.10626e-06
1.05981e-05
1.34973e-05
1.67643e-05
2.03398e-05
2.41508e-05
2.81164e-05
3.21535e-05
3.61801e-05
4.01185e-05
4.38978e-05
4.74561e-05
5.07448e-05
5.37368e-05
5.64416e-05
5.89312e-05
6.13726e-05
6.40528e-05
6.73963e-05
7.19628e-05
7.8368e-05
8.74734e-05
0.000100471
0.000118347
0.00014254
0.000174868
0.00021766
0.00027394
0.000347649
0.000443937
0.000569549
0.000733321
0.000946841
0.00122532
0.00158875
0.00206346
0.00268414
0.00349663
0.00455268
0.00590647
0.00774554
0.0101643
0.0133537
0.0197987
0.0373004
0.0548812
0.0722683
0.0892506
0.105664
0.121378
0.136288
0.150303
0.163347
0.175347
0.186235
0.195965
0.20445
0.21162
0.217429
0.221912
0.225109
0.227209
0.228491
0.229221
0.229613
0.229814
0.229912
0.229959
0.229982
0.229992
0.229996
0.229998
0.229999
0.23
0.23
0.23
0.23
0.23
0.23
0.23
0.23
0.23
5.4159e-10
2.36695e-09
5.43667e-09
1.05794e-08
1.91484e-08
3.33255e-08
5.65778e-08
9.43213e-08
1.54851e-07
2.50582e-07
3.99597e-07
6.27398e-07
9.68565e-07
1.46778e-06
2.17942e-06
3.1647e-06
4.48602e-06
6.19862e-06
8.3415e-06
1.09301e-05
1.39528e-05
1.73724e-05
2.11307e-05
2.51546e-05
2.93623e-05
3.36685e-05
3.79883e-05
4.22406e-05
4.63499e-05
5.02499e-05
5.38874e-05
5.72318e-05
6.02927e-05
6.3149e-05
6.59848e-05
6.91133e-05
7.2989e-05
7.81588e-05
8.53581e-05
9.56706e-05
0.00010994
0.000129372
0.000155448
0.000190033
0.00023552
0.000295001
0.000372501
0.000473263
0.000604129
0.000774038
0.000994674
0.00128132
0.00165401
0.00213898
0.00277077
0.00359463
0.00466022
0.00602114
0.00786289
0.0102764
0.0134497
0.0215108
0.0390244
0.0565964
0.0739584
0.0909004
0.107255
0.122894
0.137714
0.151627
0.164575
0.17649
0.187306
0.196927
0.205281
0.212309
0.21797
0.222273
0.225348
0.227363
0.22858
0.229269
0.229638
0.229826
0.229918
0.229962
0.229983
0.229992
0.229997
0.229999
0.229999
0.23
0.23
0.23
0.23
0.23
0.23
0.23
0.23
0.23
5.48677e-10
2.39796e-09
5.50817e-09
1.07197e-08
1.94054e-08
3.37808e-08
5.73696e-08
9.56821e-08
1.57169e-07
2.545e-07
4.06165e-07
6.38304e-07
9.86471e-07
1.49679e-06
2.22566e-06
3.23704e-06
4.59677e-06
6.36411e-06
8.58236e-06
1.12711e-05
1.44225e-05
1.8002e-05
2.1953e-05
2.62031e-05
3.067e-05
3.5267e-05
3.99068e-05
4.45048e-05
4.89819e-05
5.3267e-05
5.73026e-05
6.10549e-05
6.45343e-05
6.78291e-05
7.11457e-05
7.48292e-05
7.93267e-05
8.52656e-05
9.3508e-05
0.00010494
0.000120587
0.000141676
0.000169726
0.000206645
0.000254879
0.00031758
0.000398838
0.000503967
0.000639879
0.000815574
0.00104278
0.0013368
0.0017176
0.00221125
0.00285162
0.00368352
0.00475707
0.00612457
0.00796989
0.0103813
0.0135439
0.0230465
0.0405685
0.0581315
0.0754618
0.0923504
0.108643
0.124225
0.138993
0.152863
0.165742
0.177563
0.188261
0.197762
0.205992
0.212893
0.218427
0.222611
0.225556
0.227489
0.228654
0.229309
0.229658
0.229836
0.229923
0.229964
0.229984
0.229993
0.229997
0.229999
0.229999
0.23
0.23
0.23
0.23
0.23
0.23
0.23
0.23
0.23
5.5553e-10
2.42796e-09
5.57737e-09
1.08555e-08
1.96546e-08
3.42232e-08
5.81404e-08
9.70097e-08
1.59437e-07
2.58342e-07
4.12621e-07
6.49051e-07
1.00416e-06
1.52553e-06
2.2716e-06
3.30912e-06
4.70746e-06
6.53005e-06
8.82474e-06
1.16157e-05
1.4899e-05
1.86437e-05
2.27955e-05
2.72832e-05
3.20251e-05
3.69336e-05
4.192e-05
4.68971e-05
5.17824e-05
5.65008e-05
6.09902e-05
6.52139e-05
6.91829e-05
7.29951e-05
7.68779e-05
8.11907e-05
8.63647e-05
9.32083e-05
0.00010263
0.000115395
0.000132584
0.000155474
0.000185625
0.000224996
0.000276084
0.000342101
0.000427198
0.000536752
0.000677734
0.000859199
0.00109291
0.00139415
0.00178267
0.00228432
0.00293334
0.00377509
0.00485643
0.00622958
0.00807833
0.0104882
0.0136409
0.0243695
0.0419062
0.0594607
0.0767657
0.0936335
0.109906
0.125446
0.140153
0.153943
0.166738
0.178469
0.189071
0.19847
0.206593
0.213383
0.218807
0.222888
0.225746
0.227597
0.228715
0.229343
0.229676
0.229844
0.229927
0.229966
0.229985
0.229993
0.229997
0.229999
0.229999
0.23
0.23
0.23
0.23
0.23
0.23
0.23
0.23
0.23
5.62015e-10
2.45634e-09
5.6429e-09
1.09842e-08
1.98911e-08
3.46435e-08
5.88741e-08
9.8276e-08
1.61603e-07
2.62021e-07
4.18819e-07
6.59396e-07
1.02124e-06
1.55334e-06
2.31619e-06
3.3793e-06
4.81559e-06
6.69276e-06
9.06337e-06
1.19564e-05
1.53726e-05
1.92847e-05
2.36419e-05
2.83752e-05
3.34042e-05
3.86419e-05
4.39993e-05
4.93879e-05
5.47229e-05
5.99264e-05
6.49334e-05
6.97047e-05
7.42542e-05
7.86913e-05
8.32655e-05
8.83127e-05
9.45583e-05
0.000102535
0.000113141
0.000127318
0.000146161
0.000170975
0.000203358
0.000245314
0.000299395
0.000368868
0.000457944
0.000572059
0.000718251
0.000905573
0.0011457
0.00145378
0.00184979
0.00236026
0.00301894
0.00386941
0.00495804
0.00633673
0.0081881
0.0105946
0.0137343
0.0254948
0.0430523
0.0606048
0.0779069
0.0947504
0.11098
0.126471
0.141121
0.154847
0.167572
0.179228
0.189749
0.199062
0.207094
0.213791
0.219121
0.223116
0.225899
0.227693
0.228766
0.229369
0.229689
0.229851
0.22993
0.229968
0.229985
0.229993
0.229997
0.229999
0.229999
0.23
0.23
0.23
0.23
0.23
0.23
0.23
0.23
0.23
5.6798e-10
2.48246e-09
5.70322e-09
1.11028e-08
2.01092e-08
3.50317e-08
5.95526e-08
9.9449e-08
1.63615e-07
2.65444e-07
4.24599e-07
6.69065e-07
1.03724e-06
1.57947e-06
2.35821e-06
3.44566e-06
4.91821e-06
6.84776e-06
9.29169e-06
1.2284e-05
1.58303e-05
1.9908e-05
2.447e-05
2.94509e-05
3.47729e-05
4.03509e-05
4.60971e-05
5.19237e-05
5.77459e-05
6.34848e-05
6.90748e-05
7.44781e-05
7.9716e-05
8.49186e-05
9.03671e-05
9.64296e-05
0.000103705
0.000112934
0.000124943
0.000140708
0.000161357
0.000188235
0.000222988
0.00026767
0.000324892
0.00039798
0.000491189
0.000609981
0.000761332
0.000954344
0.00120086
0.00151666
0.00192154
0.00244084
0.00310809
0.00396697
0.00506257
0.00644634
0.0082996
0.0107019
0.0138191
0.0264227
0.0440094
0.0615708
0.0788584
0.0956765
0.111871
0.12732
0.141923
0.155595
0.168262
0.179854
0.190309
0.19955
0.207507
0.214126
0.219379
0.2233
0.226022
0.22777
0.22881
0.229392
0.2297
0.229856
0.229932
0.229969
0.229986
0.229994
0.229997
0.229999
0.229999
0.23
0.23
0.23
0.23
0.23
0.23
0.23
0.23
0.23
5.73265e-10
2.50561e-09
5.75669e-09
1.1208e-08
2.03028e-08
3.53767e-08
6.01567e-08
1.00495e-07
1.65411e-07
2.68508e-07
4.29783e-07
6.77758e-07
1.05166e-06
1.6031e-06
2.39632e-06
3.50603e-06
5.0119e-06
6.98987e-06
9.50197e-06
1.25872e-05
1.62563e-05
2.04916e-05
2.52507e-05
3.04725e-05
3.6083e-05
4.20008e-05
4.81414e-05
5.44196e-05
6.07528e-05
6.70641e-05
7.32894e-05
7.93935e-05
8.54048e-05
9.14677e-05
9.78659e-05
0.000105128
0.000113675
0.000124416
0.000137991
0.000155475
0.000178051
0.000207109
0.000244339
0.000291847
0.000352275
0.00042897
0.000526238
0.000649632
0.00080631
0.00100573
0.00125974
0.00158327
0.00199612
0.00252381
0.00319953
0.00406645
0.00516839
0.00655614
0.00840945
0.0108047
0.013897
0.0271734
0.044785
0.0623547
0.0796337
0.0964315
0.112598
0.128011
0.142574
0.156202
0.168821
0.180362
0.190762
0.199945
0.207841
0.214396
0.219586
0.223448
0.22612
0.22783
0.228845
0.229411
0.22971
0.229861
0.229935
0.22997
0.229986
0.229994
0.229997
0.229999
0.229999
0.23
0.23
0.23
0.23
0.23
0.23
0.23
0.23
0.23
5.77714e-10
2.52509e-09
5.80173e-09
1.12966e-08
2.04661e-08
3.5668e-08
6.06673e-08
1.0138e-07
1.66935e-07
2.71111e-07
4.34195e-07
6.85174e-07
1.06399e-06
1.62335e-06
2.42908e-06
3.5581e-06
5.093e-06
7.11339e-06
9.68555e-06
1.28532e-05
1.66321e-05
2.10097e-05
2.59485e-05
3.13924e-05
3.72724e-05
4.35124e-05
5.00328e-05
5.67543e-05
6.36001e-05
7.04997e-05
7.73968e-05
8.42676e-05
9.11602e-05
9.82524e-05
0.000105856
0.000114374
0.000124293
0.000136373
0.000151621
0.000170927
0.000195493
0.000226751
0.000266443
0.000316727
0.000380316
0.000460659
0.000562302
0.000690846
0.000853512
0.0010593
0.00132007
0.00165103
0.0020718
0.0026077
0.00329153
0.00416586
0.00527331
0.00666363
0.00851476
0.0108998
0.0139641
0.0277668
0.0454069
0.0629814
0.0802519
0.097032
0.113174
0.128558
0.143088
0.15668
0.16926
0.18076
0.191117
0.200254
0.208101
0.214607
0.219746
0.223563
0.226196
0.227876
0.228872
0.229425
0.229718
0.229865
0.229936
0.229971
0.229987
0.229994
0.229997
0.229999
0.23
0.23
0.23
0.23
0.23
0.23
0.23
0.23
0.23
0.23
5.81183e-10
2.54029e-09
5.83686e-09
1.13658e-08
2.05937e-08
3.58957e-08
6.10668e-08
1.02074e-07
1.6813e-07
2.73156e-07
4.37669e-07
6.91022e-07
1.07374e-06
1.6394e-06
2.45511e-06
3.59959e-06
5.15785e-06
7.21251e-06
9.83349e-06
1.30686e-05
1.6938e-05
2.14337e-05
2.65231e-05
3.21552e-05
3.82665e-05
4.47866e-05
5.16428e-05
5.8763e-05
6.60792e-05
7.35309e-05
8.10743e-05
8.87028e-05
9.64893e-05
0.000104644
0.000113524
0.00012344
0.000134821
0.000148426
0.000165155
0.000186139
0.000212605
0.000246026
0.000288204
0.00034137
0.000408328
0.000492623
0.000598592
0.000731928
0.00089986
0.00111161
0.00137898
0.00171714
0.00214556
0.00268931
0.00338078
0.00426185
0.00537399
0.00676554
0.00861242
0.0109842
0.0140175
0.0282057
0.0458736
0.0634557
0.0807207
0.0974867
0.113609
0.12897
0.143473
0.157037
0.169587
0.181056
0.191381
0.200482
0.208293
0.214761
0.219864
0.223647
0.226251
0.22791
0.228891
0.229436
0.229723
0.229867
0.229938
0.229971
0.229987
0.229994
0.229997
0.229999
0.23
0.23
0.23
0.23
0.23
0.23
0.23
0.23
0.23
0.23
5.83554e-10
2.55067e-09
5.86086e-09
1.14131e-08
2.06808e-08
3.60514e-08
6.134e-08
1.02549e-07
1.68948e-07
2.74557e-07
4.4005e-07
6.95038e-07
1.08044e-06
1.65045e-06
2.47307e-06
3.62831e-06
5.20286e-06
7.28154e-06
9.93688e-06
1.32197e-05
1.71536e-05
2.17341e-05
2.69325e-05
3.27021e-05
3.89841e-05
4.57135e-05
5.2824e-05
6.02511e-05
6.79359e-05
7.58298e-05
8.39041e-05
9.21738e-05
0.000100744
0.000109865
0.000119904
0.000131201
0.000144058
0.00015917
0.000177479
0.000200094
0.00022831
0.000263663
0.00030801
0.000363637
0.000433385
0.00052082
0.000630441
0.000767958
0.000940634
0.00115772
0.00143104
0.00177569
0.00221104
0.00276193
0.00346033
0.00434746
0.00546371
0.00685577
0.00869736
0.0110542
0.0140551
0.0284951
0.0461911
0.0637821
0.081044
0.0977995
0.113907
0.12925
0.143734
0.157278
0.169807
0.181254
0.191555
0.200634
0.20842
0.214863
0.219941
0.223701
0.226287
0.227932
0.228903
0.229442
0.229726
0.229869
0.229938
0.229972
0.229987
0.229994
0.229997
0.229999
0.23
0.23
0.23
0.23
0.23
0.23
0.23
0.23
0.23
0.23
5.84739e-10
2.55586e-09
5.87282e-09
1.14366e-08
2.0724e-08
3.61282e-08
6.14745e-08
1.02782e-07
1.69349e-07
2.75241e-07
4.41213e-07
6.96996e-07
1.08371e-06
1.65584e-06
2.48184e-06
3.64235e-06
5.22491e-06
7.31547e-06
9.9879e-06
1.32946e-05
1.7261e-05
2.18845e-05
2.71388e-05
3.29793e-05
3.93502e-05
4.61898e-05
5.34357e-05
6.10282e-05
6.89147e-05
7.70544e-05
8.54293e-05
9.40693e-05
0.000103099
0.000112777
0.000123499
0.0001357
0.000149764
0.00016601
0.000185397
0.0002091
0.000238466
0.000275079
0.00032084
0.000378075
0.000449669
0.00053923
0.000651307
0.000791654
0.000967575
0.00118836
0.00146583
0.0018151
0.00225546
0.00281163
0.00351532
0.00440729
0.00552705
0.00691999
0.00875777
0.0111023
0.014075
0.0286374
0.0463577
0.0639563
0.0812165
0.097965
0.114063
0.129395
0.143868
0.1574
0.169917
0.181352
0.191641
0.200707
0.208481
0.214912
0.219978
0.223727
0.226304
0.227942
0.228909
0.229445
0.229728
0.22987
0.229939
0.229972
0.229987
0.229994
0.229997
0.229999
0.23
0.23
0.23
0.23
0.23
0.23
0.23
0.23
0.23
0.23
5.8474e-10
2.55586e-09
5.87283e-09
1.14366e-08
2.0724e-08
3.61283e-08
6.14746e-08
1.02782e-07
1.69349e-07
2.75242e-07
4.41213e-07
6.96997e-07
1.08371e-06
1.65584e-06
2.48185e-06
3.64235e-06
5.22492e-06
7.31548e-06
9.98792e-06
1.32947e-05
1.7261e-05
2.18846e-05
2.71388e-05
3.29794e-05
3.93503e-05
4.619e-05
5.34359e-05
6.10285e-05
6.8915e-05
7.70548e-05
8.54298e-05
9.40699e-05
0.0001031
0.000112778
0.0001235
0.000135702
0.000149766
0.000166011
0.000185399
0.000209101
0.000238467
0.00027508
0.000320841
0.000378076
0.00044967
0.000539231
0.000651308
0.000791655
0.000967576
0.00118836
0.00146583
0.0018151
0.00225546
0.00281163
0.00351532
0.00440729
0.00552705
0.00691999
0.00875777
0.0111023
0.014075
0.0286373
0.0463576
0.0639562
0.0812164
0.0979649
0.114062
0.129395
0.143868
0.1574
0.169917
0.181352
0.191641
0.200707
0.208481
0.214912
0.219978
0.223727
0.226304
0.227942
0.228909
0.229445
0.229728
0.22987
0.229939
0.229972
0.229987
0.229994
0.229997
0.229999
0.23
0.23
0.23
0.23
0.23
0.23
0.23
0.23
0.23
0.23
5.83555e-10
2.55068e-09
5.86088e-09
1.14131e-08
2.06809e-08
3.60515e-08
6.13402e-08
1.02549e-07
1.68949e-07
2.74558e-07
4.40052e-07
6.95041e-07
1.08045e-06
1.65046e-06
2.47308e-06
3.62832e-06
5.20288e-06
7.28157e-06
9.93692e-06
1.32198e-05
1.71537e-05
2.17342e-05
2.69327e-05
3.27023e-05
3.89843e-05
4.57139e-05
5.28244e-05
6.02517e-05
6.79366e-05
7.58305e-05
8.39047e-05
9.21739e-05
0.000100743
0.000109863
0.000119905
0.000131204
0.000144062
0.000159175
0.000177483
0.000200098
0.000228313
0.000263666
0.000308013
0.000363639
0.000433387
0.000520823
0.000630444
0.000767961
0.000940637
0.00115773
0.00143105
0.0017757
0.00221105
0.00276193
0.00346033
0.00434747
0.00546371
0.00685577
0.00869736
0.0110542
0.0140551
0.0284949
0.0461908
0.0637818
0.0810438
0.0977993
0.113906
0.12925
0.143734
0.157277
0.169807
0.181253
0.191555
0.200633
0.20842
0.214863
0.219941
0.223701
0.226287
0.227932
0.228903
0.229442
0.229726
0.229869
0.229938
0.229972
0.229987
0.229994
0.229997
0.229999
0.23
0.23
0.23
0.23
0.23
0.23
0.23
0.23
0.23
0.23
5.81186e-10
2.5403e-09
5.83688e-09
1.13659e-08
2.05938e-08
3.58959e-08
6.10671e-08
1.02075e-07
1.68131e-07
2.73157e-07
4.3767e-07
6.91025e-07
1.07375e-06
1.6394e-06
2.45511e-06
3.5996e-06
5.15786e-06
7.21252e-06
9.83349e-06
1.30686e-05
1.6938e-05
2.14337e-05
2.65231e-05
3.21552e-05
3.82665e-05
4.47867e-05
5.1643e-05
5.87634e-05
6.60799e-05
7.35322e-05
8.10767e-05
8.87072e-05
9.6497e-05
0.000104658
0.000113531
0.000123444
0.000134824
0.000148429
0.000165157
0.000186141
0.000212606
0.000246028
0.000288205
0.000341372
0.00040833
0.000492626
0.000598596
0.000731932
0.000899865
0.00111161
0.00137899
0.00171715
0.00214557
0.00268932
0.00338078
0.00426185
0.005374
0.00676554
0.00861241
0.0109842
0.0140175
0.0282053
0.0458732
0.0634553
0.0807203
0.0974863
0.113608
0.128969
0.143473
0.157037
0.169587
0.181056
0.19138
0.200482
0.208293
0.214761
0.219864
0.223647
0.226251
0.22791
0.228891
0.229436
0.229723
0.229867
0.229938
0.229971
0.229987
0.229994
0.229997
0.229999
0.23
0.23
0.23
0.23
0.23
0.23
0.23
0.23
0.23
0.23
5.77718e-10
2.52511e-09
5.80176e-09
1.12967e-08
2.04662e-08
3.56682e-08
6.06676e-08
1.01381e-07
1.66936e-07
2.71112e-07
4.34197e-07
6.85176e-07
1.064e-06
1.62335e-06
2.42908e-06
3.5581e-06
5.09301e-06
7.11339e-06
9.68554e-06
1.28532e-05
1.66321e-05
2.10096e-05
2.59484e-05
3.13922e-05
3.72721e-05
4.3512e-05
5.00323e-05
5.67537e-05
6.35992e-05
7.04985e-05
7.73949e-05
8.42644e-05
9.11543e-05
9.8241e-05
0.00010585
0.00011437
0.00012429
0.00013637
0.000151619
0.000170926
0.000195493
0.000226751
0.000266443
0.000316728
0.000380319
0.000460662
0.000562307
0.000690851
0.000853518
0.00105931
0.00132008
0.00165104
0.00207181
0.00260771
0.00329154
0.00416587
0.00527332
0.00666363
0.00851476
0.0108998
0.0139641
0.0277663
0.0454064
0.0629809
0.0802514
0.0970314
0.113173
0.128558
0.143088
0.156679
0.16926
0.18076
0.191117
0.200253
0.208101
0.214606
0.219746
0.223563
0.226196
0.227876
0.228872
0.229425
0.229718
0.229865
0.229936
0.229971
0.229987
0.229994
0.229997
0.229999
0.23
0.23
0.23
0.23
0.23
0.23
0.23
0.23
0.23
0.23
5.7327e-10
2.50563e-09
5.75674e-09
1.12081e-08
2.0303e-08
3.5377e-08
6.01571e-08
1.00496e-07
1.65413e-07
2.6851e-07
4.29785e-07
6.77762e-07
1.05167e-06
1.6031e-06
2.39632e-06
3.50603e-06
5.01189e-06
6.98986e-06
9.50193e-06
1.25871e-05
1.62562e-05
2.04914e-05
2.52504e-05
3.04721e-05
3.60824e-05
4.2e-05
4.81403e-05
5.44181e-05
6.0751e-05
6.7062e-05
7.32871e-05
7.93913e-05
8.54035e-05
9.14689e-05
9.78645e-05
0.000105126
0.000113673
0.000124414
0.00013799
0.000155476
0.000178053
0.000207112
0.000244343
0.000291851
0.000352279
0.000428975
0.000526243
0.000649638
0.000806318
0.00100574
0.00125975
0.00158328
0.00199613
0.00252383
0.00319955
0.00406646
0.0051684
0.00655615
0.00840945
0.0108047
0.013897
0.0271728
0.0447844
0.0623541
0.079633
0.0964308
0.112597
0.128011
0.142573
0.156201
0.16882
0.180361
0.190762
0.199944
0.20784
0.214396
0.219585
0.223448
0.22612
0.22783
0.228845
0.229411
0.22971
0.229861
0.229935
0.22997
0.229986
0.229994
0.229997
0.229999
0.229999
0.23
0.23
0.23
0.23
0.23
0.23
0.23
0.23
0.23
5.67985e-10
2.48248e-09
5.70327e-09
1.11029e-08
2.01094e-08
3.5032e-08
5.95531e-08
9.94498e-08
1.63616e-07
2.65446e-07
4.24601e-07
6.69068e-07
1.03724e-06
1.57948e-06
2.35822e-06
3.44566e-06
4.9182e-06
6.84774e-06
9.29163e-06
1.22839e-05
1.58301e-05
1.99077e-05
2.44696e-05
2.94503e-05
3.47721e-05
4.03498e-05
4.60958e-05
5.19221e-05
5.77439e-05
6.34824e-05
6.9072e-05
7.44749e-05
7.97121e-05
8.49135e-05
9.03626e-05
9.64264e-05
0.000103702
0.000112932
0.000124942
0.000140707
0.000161357
0.000188236
0.00022299
0.000267674
0.000324896
0.000397985
0.000491196
0.000609989
0.000761341
0.000954355
0.00120088
0.00151667
0.00192156
0.00244085
0.00310811
0.003967
0.00506259
0.00644636
0.00829961
0.0107019
0.0138191
0.0264221
0.0440088
0.0615702
0.0788578
0.0956759
0.111871
0.12732
0.141922
0.155594
0.168261
0.179854
0.190309
0.19955
0.207507
0.214126
0.219378
0.2233
0.226022
0.227769
0.22881
0.229391
0.2297
0.229856
0.229932
0.229969
0.229986
0.229994
0.229997
0.229999
0.229999
0.23
0.23
0.23
0.23
0.23
0.23
0.23
0.23
0.23
5.62021e-10
2.45637e-09
5.64296e-09
1.09843e-08
1.98913e-08
3.46439e-08
5.88747e-08
9.82769e-08
1.61605e-07
2.62024e-07
4.18823e-07
6.594e-07
1.02124e-06
1.55335e-06
2.31619e-06
3.3793e-06
4.81558e-06
6.69272e-06
9.0633e-06
1.19563e-05
1.53724e-05
1.92844e-05
2.36414e-05
2.83746e-05
3.34033e-05
3.86408e-05
4.39979e-05
4.93861e-05
5.47209e-05
5.99241e-05
6.49308e-05
6.97021e-05
7.42518e-05
7.86897e-05
8.32657e-05
8.83136e-05
9.45618e-05
0.000102536
0.000113141
0.000127318
0.000146162
0.000170976
0.00020336
0.000245318
0.0002994
0.000368875
0.000457952
0.000572068
0.000718262
0.000905585
0.00114571
0.0014538
0.00184981
0.00236028
0.00301897
0.00386945
0.00495808
0.00633678
0.00818815
0.0105947
0.0137344
0.0254943
0.0430518
0.0606043
0.0779063
0.0947498
0.110979
0.12647
0.141121
0.154846
0.167572
0.179227
0.189749
0.199061
0.207094
0.213791
0.219121
0.223115
0.225899
0.227693
0.228766
0.229369
0.229689
0.229851
0.22993
0.229968
0.229985
0.229993
0.229997
0.229999
0.229999
0.23
0.23
0.23
0.23
0.23
0.23
0.23
0.23
0.23
5.55537e-10
2.42798e-09
5.57744e-09
1.08556e-08
1.96548e-08
3.42236e-08
5.8141e-08
9.70108e-08
1.59438e-07
2.58344e-07
4.12624e-07
6.49056e-07
1.00417e-06
1.52554e-06
2.2716e-06
3.30912e-06
4.70745e-06
6.53002e-06
8.82468e-06
1.16155e-05
1.48988e-05
1.86434e-05
2.2795e-05
2.72826e-05
3.20242e-05
3.69325e-05
4.19186e-05
4.68955e-05
5.17805e-05
5.64986e-05
6.09878e-05
6.52112e-05
6.91799e-05
7.29918e-05
7.68739e-05
8.11863e-05
8.63579e-05
9.32048e-05
0.000102628
0.000115395
0.000132585
0.000155476
0.000185628
0.000225001
0.00027609
0.000342109
0.000427208
0.000536763
0.000677747
0.000859213
0.00109293
0.00139417
0.00178269
0.00228433
0.00293336
0.00377512
0.00485646
0.00622962
0.00807837
0.0104882
0.013641
0.0243692
0.0419061
0.0594607
0.0767653
0.0936329
0.109905
0.125445
0.140153
0.153942
0.166737
0.178468
0.189071
0.198469
0.206592
0.213383
0.218807
0.222888
0.225746
0.227597
0.228715
0.229343
0.229676
0.229844
0.229927
0.229966
0.229985
0.229993
0.229997
0.229999
0.229999
0.23
0.23
0.23
0.23
0.23
0.23
0.23
0.23
0.23
5.48685e-10
2.398e-09
5.50825e-09
1.07198e-08
1.94056e-08
3.37812e-08
5.73703e-08
9.56833e-08
1.57171e-07
2.54503e-07
4.06169e-07
6.3831e-07
9.86479e-07
1.4968e-06
2.22567e-06
3.23705e-06
4.59677e-06
6.36409e-06
8.58231e-06
1.1271e-05
1.44223e-05
1.80017e-05
2.19526e-05
2.62025e-05
3.06693e-05
3.5266e-05
3.99056e-05
4.45034e-05
4.89803e-05
5.32652e-05
5.73005e-05
6.10526e-05
6.45318e-05
6.78265e-05
7.11427e-05
7.48259e-05
7.93234e-05
8.5264e-05
9.35076e-05
0.000104941
0.000120588
0.00014168
0.00016973