/*--------------------------------*- C++ -*----------------------------------*\
  =========                 |
  \\      /  F ield         | OpenFOAM: The Open Source CFD Toolbox
   \\    /   O peration     | Website:  https://openfoam.org
    \\  /    A nd           | Version:  8
     \\/     M anipulation  |
\*---------------------------------------------------------------------------*/
FoamFile
{
    version     2.0;
    format      ascii;
    class       surfaceScalarField;
    location    "940/fluid";
    object      phi;
}
// * * * * * * * * * * * * * * * * * * * * * * * * * * * * * * * * * * * * * //

dimensions      [1 0 -1 0 0 0 0];

internalField   nonuniform List<scalar> 
7860
(
6.57257e-07
-1.77789e-08
6.54562e-07
-5.33389e-08
6.50726e-07
-8.87226e-08
6.45639e-07
-1.23826e-07
6.39164e-07
-1.58651e-07
6.3114e-07
-1.9315e-07
6.21378e-07
-2.27241e-07
6.09679e-07
-2.60801e-07
5.95838e-07
-2.93662e-07
5.79659e-07
-3.25601e-07
5.60969e-07
-3.5633e-07
5.39649e-07
-3.8548e-07
5.15673e-07
-4.12595e-07
4.89222e-07
-4.37131e-07
4.60576e-07
-4.58447e-07
4.30103e-07
-4.75879e-07
3.98276e-07
-4.88871e-07
3.65643e-07
-4.9713e-07
3.32766e-07
-5.00747e-07
3.00156e-07
-5.0021e-07
2.6822e-07
-4.96307e-07
2.37241e-07
-4.89948e-07
2.074e-07
-4.81991e-07
1.78828e-07
-4.73133e-07
1.51573e-07
-4.63856e-07
1.25595e-07
-4.54457e-07
1.00827e-07
-4.45097e-07
7.71926e-08
-4.35844e-07
5.46205e-08
-4.26706e-07
3.30492e-08
-4.17667e-07
1.24261e-08
-4.08696e-07
-7.2886e-09
-3.99767e-07
-2.61233e-08
-3.9086e-07
-4.41075e-08
-3.81965e-07
-6.1272e-08
-3.73087e-07
-7.764e-08
-3.64213e-07
-9.32311e-08
-3.55306e-07
-1.08064e-07
-3.46378e-07
-1.22158e-07
-3.3745e-07
-1.35532e-07
-3.28545e-07
-1.48203e-07
-3.19687e-07
-1.60193e-07
-3.10902e-07
-1.71519e-07
-3.02217e-07
-1.82202e-07
-2.9366e-07
-1.92263e-07
-2.85259e-07
-2.01721e-07
-2.7704e-07
-2.10598e-07
-2.69032e-07
-2.18915e-07
-2.61259e-07
-2.26692e-07
-2.53749e-07
-2.33953e-07
-2.46527e-07
-2.40717e-07
-2.39621e-07
-2.4701e-07
-2.33056e-07
-2.52854e-07
-2.26864e-07
-2.58276e-07
-2.21076e-07
-2.63305e-07
-2.1573e-07
-2.67974e-07
-2.1087e-07
-2.72329e-07
-2.06549e-07
-2.76423e-07
-2.0286e-07
-2.80313e-07
-1.99873e-07
-2.84075e-07
-1.97649e-07
-2.87841e-07
-1.96427e-07
-2.92051e-07
-1.96381e-07
-2.96956e-07
-1.98637e-07
-3.0381e-07
-2.09768e-07
-3.11712e-07
-2.22216e-07
-3.20472e-07
-2.35955e-07
-3.30141e-07
-2.51166e-07
-3.40839e-07
-2.68087e-07
-3.52725e-07
-2.86991e-07
-3.66017e-07
-3.08205e-07
-3.81009e-07
-3.32121e-07
-3.98095e-07
-3.59205e-07
-4.17803e-07
-3.89991e-07
-4.40819e-07
-4.25199e-07
-4.68003e-07
-4.6549e-07
-5.00326e-07
-5.10888e-07
-5.38682e-07
-5.60336e-07
-5.83349e-07
-6.10923e-07
-6.34088e-07
-6.57191e-07
-6.89707e-07
-6.9204e-07
-7.47858e-07
-7.09818e-07
-8.0562e-07
-7.09393e-07
-8.60485e-07
-6.93969e-07
-9.10899e-07
-6.68221e-07
-9.56202e-07
-6.36187e-07
-9.96211e-07
-6.00492e-07
-1.03081e-06
-5.62586e-07
-1.06034e-06
-5.23164e-07
-1.08534e-06
-4.82665e-07
-1.10636e-06
-4.41421e-07
-1.12387e-06
-3.99684e-07
-1.13833e-06
-3.57648e-07
-1.15016e-06
-3.15464e-07
-1.1597e-06
-2.73241e-07
-1.16728e-06
-2.31052e-07
-1.17318e-06
-1.88938e-07
-1.17763e-06
-1.46907e-07
-1.18083e-06
-1.04939e-07
-1.18292e-06
-6.2973e-08
-2.09983e-08
6.57905e-07
-1.71506e-08
6.55761e-07
-5.11942e-08
6.52021e-07
-8.49828e-08
6.46685e-07
-1.1849e-07
6.39683e-07
-1.51649e-07
6.30917e-07
-1.84384e-07
6.20271e-07
-2.16595e-07
6.07629e-07
-2.4816e-07
5.92888e-07
-2.7892e-07
5.75964e-07
-3.08678e-07
5.56814e-07
-3.37179e-07
5.35439e-07
-3.64106e-07
5.1191e-07
-3.89066e-07
4.8639e-07
-4.11611e-07
4.5911e-07
-4.31168e-07
4.30369e-07
-4.47138e-07
4.00537e-07
-4.59039e-07
3.70033e-07
-4.66628e-07
3.39285e-07
-4.7e-07
3.08678e-07
-4.69604e-07
2.78521e-07
-4.66151e-07
2.49034e-07
-4.60463e-07
2.2036e-07
-4.53318e-07
1.92595e-07
-4.45369e-07
1.65792e-07
-4.37053e-07
1.39959e-07
-4.28626e-07
1.15088e-07
-4.20227e-07
9.11598e-08
-4.11916e-07
6.81531e-08
-4.037e-07
4.60468e-08
-3.95561e-07
2.48213e-08
-3.87471e-07
4.45712e-09
-3.79403e-07
-1.50639e-08
-3.71339e-07
-3.37586e-08
-3.63271e-07
-5.16443e-08
-3.55202e-07
-6.87351e-08
-3.47123e-07
-8.50445e-08
-3.38997e-07
-1.00588e-07
-3.30835e-07
-1.15381e-07
-3.22657e-07
-1.29442e-07
-3.14485e-07
-1.42788e-07
-3.06341e-07
-1.55438e-07
-2.98252e-07
-1.67412e-07
-2.90243e-07
-1.78732e-07
-2.82341e-07
-1.89418e-07
-2.74573e-07
-1.99494e-07
-2.66965e-07
-2.08983e-07
-2.59544e-07
-2.17907e-07
-2.52335e-07
-2.26292e-07
-2.45364e-07
-2.34164e-07
-2.38656e-07
-2.4155e-07
-2.32235e-07
-2.48479e-07
-2.26128e-07
-2.54983e-07
-2.20361e-07
-2.61097e-07
-2.14962e-07
-2.66863e-07
-2.09964e-07
-2.72331e-07
-2.05402e-07
-2.77563e-07
-2.01318e-07
-2.82634e-07
-1.9779e-07
-2.87647e-07
-1.9486e-07
-2.92747e-07
-1.92549e-07
-2.98164e-07
-1.91012e-07
-3.04177e-07
-1.90369e-07
-3.09919e-07
-1.9288e-07
-3.16942e-07
-2.02743e-07
-3.25195e-07
-2.13962e-07
-3.34577e-07
-2.26571e-07
-3.4508e-07
-2.4066e-07
-3.56779e-07
-2.56384e-07
-3.69808e-07
-2.73959e-07
-3.84349e-07
-2.9366e-07
-4.00637e-07
-3.15828e-07
-4.18966e-07
-3.40871e-07
-4.3968e-07
-3.69271e-07
-4.63161e-07
-4.01711e-07
-4.89884e-07
-4.38759e-07
-5.2038e-07
-4.80383e-07
-5.55159e-07
-5.25547e-07
-5.94537e-07
-5.71536e-07
-6.38587e-07
-6.13131e-07
-6.86729e-07
-6.4389e-07
-7.37428e-07
-6.59114e-07
-7.88553e-07
-6.58264e-07
-8.38158e-07
-6.44362e-07
-8.84929e-07
-6.21449e-07
-9.28221e-07
-5.92895e-07
-9.67775e-07
-5.60938e-07
-1.00344e-06
-5.26926e-07
-1.03519e-06
-4.91408e-07
-1.06315e-06
-4.54709e-07
-1.08748e-06
-4.17092e-07
-1.1084e-06
-3.78763e-07
-1.12616e-06
-3.39883e-07
-1.14104e-06
-3.00588e-07
-1.15329e-06
-2.60986e-07
-1.16318e-06
-2.21164e-07
-1.17093e-06
-1.81186e-07
-1.17675e-06
-1.41095e-07
-1.18077e-06
-1.00914e-07
-1.18309e-06
-6.06521e-08
-2.02686e-08
6.57606e-07
-1.62225e-08
6.54921e-07
-4.85094e-08
6.50491e-07
-8.05526e-08
6.4428e-07
-1.12279e-07
6.36247e-07
-1.43616e-07
6.26343e-07
-1.7448e-07
6.1452e-07
-2.04773e-07
6.00742e-07
-2.34382e-07
5.8499e-07
-2.63169e-07
5.67274e-07
-2.90961e-07
5.47635e-07
-3.1754e-07
5.26151e-07
-3.42623e-07
5.02936e-07
-3.6585e-07
4.78105e-07
-3.8678e-07
4.5184e-07
-4.04904e-07
4.24408e-07
-4.19707e-07
3.96134e-07
-4.30766e-07
3.67374e-07
-4.3787e-07
3.38478e-07
-4.41106e-07
3.09753e-07
-4.40881e-07
2.81441e-07
-4.3784e-07
2.53709e-07
-4.32732e-07
2.26654e-07
-4.26266e-07
2.00306e-07
-4.19022e-07
1.74668e-07
-4.11417e-07
1.4975e-07
-4.03709e-07
1.25562e-07
-3.9604e-07
1.02109e-07
-3.88464e-07
7.93973e-08
-3.80989e-07
5.74298e-08
-3.73594e-07
3.62081e-08
-3.6625e-07
1.57323e-08
-3.58928e-07
-3.99932e-09
-3.51608e-07
-2.29909e-08
-3.4428e-07
-4.12488e-08
-3.36944e-07
-5.87772e-08
-3.29595e-07
-7.55814e-08
-3.22193e-07
-9.16695e-08
-3.14748e-07
-1.07052e-07
-3.07275e-07
-1.2174e-07
-2.99797e-07
-1.35749e-07
-2.92333e-07
-1.49094e-07
-2.84908e-07
-1.61792e-07
-2.77545e-07
-1.73862e-07
-2.70271e-07
-1.85326e-07
-2.63109e-07
-1.96206e-07
-2.56085e-07
-2.06526e-07
-2.49224e-07
-2.16312e-07
-2.42549e-07
-2.25592e-07
-2.36084e-07
-2.34396e-07
-2.29852e-07
-2.42758e-07
-2.23874e-07
-2.50714e-07
-2.18173e-07
-2.58305e-07
-2.12771e-07
-2.65576e-07
-2.07691e-07
-2.72582e-07
-2.02959e-07
-2.79384e-07
-1.98601e-07
-2.86054e-07
-1.94648e-07
-2.92676e-07
-1.91168e-07
-2.99355e-07
-1.88182e-07
-3.06212e-07
-1.85694e-07
-3.13384e-07
-1.8384e-07
-3.21034e-07
-1.8272e-07
-3.27762e-07
-1.86139e-07
-3.35534e-07
-1.94969e-07
-3.44383e-07
-2.0511e-07
-3.54334e-07
-2.16617e-07
-3.65433e-07
-2.29557e-07
-3.77758e-07
-2.44056e-07
-3.91409e-07
-2.60303e-07
-4.06514e-07
-2.78551e-07
-4.23216e-07
-2.9912e-07
-4.4168e-07
-3.22402e-07
-4.62058e-07
-3.48887e-07
-4.84503e-07
-3.79258e-07
-5.09246e-07
-4.14008e-07
-5.36613e-07
-4.53006e-07
-5.67106e-07
-4.95044e-07
-6.01502e-07
-5.3713e-07
-6.40352e-07
-5.74272e-07
-6.83439e-07
-6.00796e-07
-7.29502e-07
-6.13046e-07
-7.76632e-07
-6.11132e-07
-8.23011e-07
-5.9798e-07
-8.67351e-07
-5.77109e-07
-9.08928e-07
-5.51317e-07
-9.47436e-07
-5.22429e-07
-9.82878e-07
-4.91484e-07
-1.01522e-06
-4.59063e-07
-1.04443e-06
-4.25501e-07
-1.07052e-06
-3.91007e-07
-1.09354e-06
-3.55736e-07
-1.11361e-06
-3.19813e-07
-1.13086e-06
-2.83345e-07
-1.14542e-06
-2.46427e-07
-1.15744e-06
-2.0914e-07
-1.16707e-06
-1.71555e-07
-1.17444e-06
-1.33729e-07
-1.17964e-06
-9.57087e-08
-1.18277e-06
-5.753e-08
-1.92125e-08
6.57625e-07
-1.53142e-08
6.54876e-07
-4.57604e-08
6.50281e-07
-7.59574e-08
6.43837e-07
-1.05835e-07
6.35534e-07
-1.35313e-07
6.2536e-07
-1.64306e-07
6.13308e-07
-1.92721e-07
5.99375e-07
-2.20448e-07
5.83567e-07
-2.47361e-07
5.65908e-07
-2.73303e-07
5.4644e-07
-2.98072e-07
5.25233e-07
-3.21415e-07
5.02388e-07
-3.43006e-07
4.78054e-07
-3.62447e-07
4.52431e-07
-3.79282e-07
4.2577e-07
-3.93047e-07
3.98361e-07
-4.03359e-07
3.70515e-07
-4.10025e-07
3.42532e-07
-4.13124e-07
3.14673e-07
-4.13024e-07
2.87148e-07
-4.10317e-07
2.60105e-07
-4.05691e-07
2.3364e-07
-3.99803e-07
2.07806e-07
-3.93189e-07
1.82627e-07
-3.86239e-07
1.58111e-07
-3.79195e-07
1.34262e-07
-3.72192e-07
1.11078e-07
-3.65281e-07
8.85585e-08
-3.58471e-07
6.67036e-08
-3.5174e-07
4.55141e-08
-3.45061e-07
2.49911e-08
-3.38406e-07
5.13501e-09
-3.31753e-07
-1.40549e-08
-3.2509e-07
-3.2581e-08
-3.18419e-07
-5.04442e-08
-3.11733e-07
-6.76457e-08
-3.04992e-07
-8.41898e-08
-2.98204e-07
-1.00083e-07
-2.91383e-07
-1.15334e-07
-2.84546e-07
-1.29954e-07
-2.77713e-07
-1.43957e-07
-2.70906e-07
-1.57356e-07
-2.64147e-07
-1.70171e-07
-2.57457e-07
-1.82421e-07
-2.5086e-07
-1.94128e-07
-2.4438e-07
-2.05315e-07
-2.38038e-07
-2.1601e-07
-2.31855e-07
-2.26242e-07
-2.25853e-07
-2.36042e-07
-2.20052e-07
-2.45445e-07
-2.14471e-07
-2.54491e-07
-2.09128e-07
-2.63221e-07
-2.04041e-07
-2.71684e-07
-1.99229e-07
-2.79932e-07
-1.94711e-07
-2.88026e-07
-1.90507e-07
-2.96032e-07
-1.86643e-07
-3.04022e-07
-1.83178e-07
-3.12084e-07
-1.8012e-07
-3.20308e-07
-1.7747e-07
-3.2879e-07
-1.75359e-07
-3.37619e-07
-1.73893e-07
-3.45341e-07
-1.78405e-07
-3.53934e-07
-1.86373e-07
-3.63448e-07
-1.95594e-07
-3.73945e-07
-2.06117e-07
-3.85495e-07
-2.18004e-07
-3.98176e-07
-2.31371e-07
-4.12078e-07
-2.46398e-07
-4.27298e-07
-2.63326e-07
-4.43948e-07
-2.82464e-07
-4.62153e-07
-3.04191e-07
-4.8203e-07
-3.29002e-07
-5.03735e-07
-3.57544e-07
-5.2754e-07
-3.90194e-07
-5.53839e-07
-4.26697e-07
-5.83165e-07
-4.65707e-07
-6.1612e-07
-5.04164e-07
-6.53074e-07
-5.37309e-07
-6.93736e-07
-5.60126e-07
-7.36981e-07
-5.69795e-07
-7.81212e-07
-5.66898e-07
-8.24937e-07
-5.54254e-07
-8.67071e-07
-5.34973e-07
-9.06951e-07
-5.11437e-07
-9.4422e-07
-4.85161e-07
-9.78712e-07
-4.56992e-07
-1.01037e-06
-4.27401e-07
-1.03921e-06
-3.96668e-07
-1.06524e-06
-3.64978e-07
-1.0885e-06
-3.32468e-07
-1.10907e-06
-2.99253e-07
-1.12698e-06
-2.6543e-07
-1.14232e-06
-2.31088e-07
-1.15515e-06
-1.96307e-07
-1.16555e-06
-1.61158e-07
-1.17357e-06
-1.25706e-07
-1.17927e-06
-9.00083e-08
-1.18268e-06
-5.41187e-08
-1.8076e-08
6.57563e-07
-1.43432e-08
6.54676e-07
-4.28734e-08
6.49885e-07
-7.11672e-08
6.43197e-07
-9.91466e-08
6.34617e-07
-1.26733e-07
6.24154e-07
-1.53843e-07
6.1182e-07
-1.80387e-07
5.97638e-07
-2.06266e-07
5.81638e-07
-2.31362e-07
5.63868e-07
-2.55533e-07
5.44394e-07
-2.78598e-07
5.23306e-07
-3.00327e-07
5.00722e-07
-3.20424e-07
4.76799e-07
-3.38524e-07
4.51729e-07
-3.54212e-07
4.25744e-07
-3.67063e-07
3.99105e-07
-3.76722e-07
3.72087e-07
-3.83009e-07
3.44951e-07
-3.85989e-07
3.17925e-07
-3.86e-07
2.91188e-07
-3.83583e-07
2.64869e-07
-3.79374e-07
2.3905e-07
-3.73985e-07
2.13777e-07
-3.67919e-07
1.89076e-07
-3.61539e-07
1.64957e-07
-3.55078e-07
1.41425e-07
-3.48661e-07
1.18482e-07
-3.4234e-07
9.61296e-08
-3.3612e-07
7.43702e-08
-3.29982e-07
5.32064e-08
-3.23899e-07
3.26412e-08
-3.17841e-07
1.26768e-08
-3.11789e-07
-6.68556e-09
-3.05729e-07
-2.5446e-08
-2.99659e-07
-4.36045e-08
-2.93575e-07
-6.11602e-08
-2.87437e-07
-7.81154e-08
-2.8125e-07
-9.44745e-08
-2.75024e-07
-1.10244e-07
-2.68777e-07
-1.25433e-07
-2.62525e-07
-1.40052e-07
-2.56287e-07
-1.54116e-07
-2.50083e-07
-1.6764e-07
-2.43933e-07
-1.80643e-07
-2.37858e-07
-1.93144e-07
-2.31879e-07
-2.05168e-07
-2.26014e-07
-2.1674e-07
-2.20284e-07
-2.27887e-07
-2.14707e-07
-2.3864e-07
-2.09299e-07
-2.49033e-07
-2.04078e-07
-2.59102e-07
-1.9906e-07
-2.68886e-07
-1.94258e-07
-2.78427e-07
-1.89688e-07
-2.87773e-07
-1.85365e-07
-2.96974e-07
-1.81307e-07
-3.06086e-07
-1.77531e-07
-3.15166e-07
-1.74099e-07
-3.24286e-07
-1.71e-07
-3.33514e-07
-1.68242e-07
-3.42926e-07
-1.65947e-07
-3.52586e-07
-1.64235e-07
-3.61282e-07
-1.69701e-07
-3.70683e-07
-1.76969e-07
-3.80847e-07
-1.85426e-07
-3.9186e-07
-1.95101e-07
-4.03807e-07
-2.06053e-07
-4.16774e-07
-2.184e-07
-4.30846e-07
-2.3232e-07
-4.46116e-07
-2.4805e-07
-4.62681e-07
-2.65893e-07
-4.80649e-07
-2.86216e-07
-5.0012e-07
-3.09523e-07
-5.21242e-07
-3.36413e-07
-5.44271e-07
-3.67154e-07
-5.69574e-07
-4.01383e-07
-5.97642e-07
-4.37627e-07
-6.29015e-07
-4.7278e-07
-6.64011e-07
-5.02304e-07
-7.02349e-07
-5.2178e-07
-7.43032e-07
-5.29108e-07
-7.84685e-07
-5.25241e-07
-8.26046e-07
-5.12892e-07
-8.6619e-07
-4.94828e-07
-9.04534e-07
-4.73093e-07
-9.40731e-07
-4.48963e-07
-9.74577e-07
-4.23145e-07
-1.00595e-06
-3.96029e-07
-1.03477e-06
-3.67843e-07
-1.06101e-06
-3.38737e-07
-1.08466e-06
-3.08826e-07
-1.10571e-06
-2.78202e-07
-1.12418e-06
-2.46954e-07
-1.14011e-06
-2.15159e-07
-1.15352e-06
-1.82894e-07
-1.16445e-06
-1.50229e-07
-1.17293e-06
-1.17231e-07
-1.17897e-06
-8.39631e-08
-1.18261e-06
-5.04872e-08
-1.68599e-08
6.5756e-07
-1.33698e-08
6.54647e-07
-3.99604e-08
6.49807e-07
-6.63271e-08
6.43056e-07
-9.2395e-08
6.3441e-07
-1.18087e-07
6.23892e-07
-1.43325e-07
6.11528e-07
-1.68023e-07
5.97351e-07
-1.92089e-07
5.81404e-07
-2.15415e-07
5.63741e-07
-2.37871e-07
5.44435e-07
-2.59292e-07
5.23575e-07
-2.79468e-07
5.0128e-07
-2.98129e-07
4.77698e-07
-3.14943e-07
4.53016e-07
-3.29531e-07
4.27455e-07
-3.41502e-07
4.01262e-07
-3.50531e-07
3.74698e-07
-3.56447e-07
3.48013e-07
-3.59306e-07
3.21424e-07
-3.59412e-07
2.95102e-07
-3.57263e-07
2.6917e-07
-3.53445e-07
2.43706e-07
-3.48524e-07
2.18754e-07
-3.42969e-07
1.94336e-07
-3.37123e-07
1.7046e-07
-3.31204e-07
1.47127e-07
-3.25329e-07
1.24336e-07
-3.1955e-07
1.02087e-07
-3.13872e-07
8.03802e-08
-3.08276e-07
5.92165e-08
-3.02736e-07
3.8598e-08
-2.97224e-07
1.85269e-08
-2.91719e-07
-9.95482e-10
-2.86207e-07
-1.99693e-08
-2.80686e-07
-3.83938e-08
-2.75151e-07
-5.62674e-08
-2.69564e-07
-7.35912e-08
-2.63927e-07
-9.0368e-08
-2.58248e-07
-1.06603e-07
-2.52543e-07
-1.22304e-07
-2.46826e-07
-1.3748e-07
-2.41113e-07
-1.52143e-07
-2.35421e-07
-1.66307e-07
-2.2977e-07
-1.79987e-07
-2.24178e-07
-1.93204e-07
-2.18662e-07
-2.05979e-07
-2.13241e-07
-2.18333e-07
-2.07931e-07
-2.30292e-07
-2.02748e-07
-2.41884e-07
-1.97708e-07
-2.53139e-07
-1.92825e-07
-2.64086e-07
-1.88113e-07
-2.7476e-07
-1.83585e-07
-2.85195e-07
-1.79253e-07
-2.95428e-07
-1.75133e-07
-3.05497e-07
-1.71238e-07
-3.15444e-07
-1.67584e-07
-3.25307e-07
-1.64236e-07
-3.35157e-07
-1.6115e-07
-3.45023e-07
-1.58375e-07
-3.54989e-07
-1.55981e-07
-3.65136e-07
-1.54087e-07
-3.74859e-07
-1.59977e-07
-3.84993e-07
-1.66833e-07
-3.95716e-07
-1.74699e-07
-4.07164e-07
-1.8365e-07
-4.19439e-07
-1.93774e-07
-4.32631e-07
-2.05203e-07
-4.46832e-07
-2.18114e-07
-4.62133e-07
-2.32743e-07
-4.78633e-07
-2.49386e-07
-4.9644e-07
-2.68399e-07
-5.15666e-07
-2.90286e-07
-5.36487e-07
-3.1558e-07
-5.59182e-07
-3.44447e-07
-5.84134e-07
-3.76419e-07
-6.11828e-07
-4.0992e-07
-6.42744e-07
-4.41852e-07
-6.77081e-07
-4.67957e-07
-7.14436e-07
-4.84418e-07
-7.53788e-07
-4.89751e-07
-7.93863e-07
-4.85164e-07
-8.33545e-07
-4.73208e-07
-8.72048e-07
-4.56324e-07
-9.08877e-07
-4.36263e-07
-9.43741e-07
-4.141e-07
-9.76463e-07
-3.90423e-07
-1.00693e-06
-3.6556e-07
-1.03507e-06
-3.39702e-07
-1.06083e-06
-3.12977e-07
-1.08418e-06
-2.85481e-07
-1.10508e-06
-2.57297e-07
-1.12353e-06
-2.28502e-07
-1.13952e-06
-1.99168e-07
-1.15305e-06
-1.69365e-07
-1.16412e-06
-1.3916e-07
-1.17273e-06
-1.0862e-07
-1.17889e-06
-7.78083e-08
-1.18259e-06
-4.67889e-08
-1.56241e-08
6.57551e-07
-1.23872e-08
6.54618e-07
-3.70272e-08
6.4975e-07
-6.14596e-08
6.42967e-07
-8.56121e-08
6.34292e-07
-1.09412e-07
6.23753e-07
-1.32785e-07
6.11383e-07
-1.55653e-07
5.97225e-07
-1.77931e-07
5.81328e-07
-1.99518e-07
5.63754e-07
-2.20297e-07
5.44581e-07
-2.40119e-07
5.23903e-07
-2.5879e-07
5.0184e-07
-2.76066e-07
4.7854e-07
-2.91644e-07
4.54184e-07
-3.05176e-07
4.28983e-07
-3.16302e-07
4.03171e-07
-3.24722e-07
3.76995e-07
-3.30273e-07
3.5069e-07
-3.33003e-07
3.24461e-07
-3.33185e-07
2.98472e-07
-3.31276e-07
2.72841e-07
-3.27816e-07
2.47644e-07
-3.23329e-07
2.22924e-07
-3.18252e-07
1.98702e-07
-3.12904e-07
1.74986e-07
-3.0749e-07
1.51777e-07
-3.02122e-07
1.29072e-07
-2.96847e-07
1.06869e-07
-2.91671e-07
8.51674e-08
-2.86576e-07
6.39673e-08
-2.81537e-07
4.32699e-08
-2.76527e-07
2.30764e-08
-2.71526e-07
3.38822e-09
-2.6652e-07
-1.57944e-08
-2.61504e-07
-3.44712e-08
-2.56475e-07
-5.26405e-08
-2.51396e-07
-7.03023e-08
-2.46265e-07
-8.74586e-08
-2.41093e-07
-1.04113e-07
-2.35889e-07
-1.20272e-07
-2.30667e-07
-1.35943e-07
-2.25442e-07
-1.51135e-07
-2.20229e-07
-1.65862e-07
-2.15044e-07
-1.80138e-07
-2.09903e-07
-1.93978e-07
-2.04823e-07
-2.07402e-07
-1.99818e-07
-2.20429e-07
-1.94905e-07
-2.33081e-07
-1.90097e-07
-2.45381e-07
-1.85408e-07
-2.57356e-07
-1.80851e-07
-2.69031e-07
-1.76438e-07
-2.80434e-07
-1.72182e-07
-2.91593e-07
-1.68095e-07
-3.02535e-07
-1.64191e-07
-3.1329e-07
-1.60484e-07
-3.23879e-07
-1.56995e-07
-3.34327e-07
-1.53788e-07
-3.44675e-07
-1.50802e-07
-3.54925e-07
-1.48125e-07
-3.65102e-07
-1.45804e-07
-3.75222e-07
-1.43953e-07
-3.856e-07
-1.49597e-07
-3.96362e-07
-1.56067e-07
-4.07637e-07
-1.63421e-07
-4.19546e-07
-1.71737e-07
-4.32195e-07
-1.81121e-07
-4.45682e-07
-1.9171e-07
-4.60102e-07
-2.03688e-07
-4.75553e-07
-2.17287e-07
-4.92142e-07
-2.32792e-07
-5.09986e-07
-2.50551e-07
-5.29216e-07
-2.71055e-07
-5.50026e-07
-2.94764e-07
-5.727e-07
-3.21762e-07
-5.97609e-07
-3.51498e-07
-6.25185e-07
-3.8233e-07
-6.55807e-07
-4.11218e-07
-6.89544e-07
-4.3421e-07
-7.25925e-07
-4.4803e-07
-7.63977e-07
-4.51693e-07
-8.02576e-07
-4.46562e-07
-8.40762e-07
-4.3502e-07
-8.77862e-07
-4.19223e-07
-9.1344e-07
-4.00685e-07
-9.47227e-07
-3.80313e-07
-9.79046e-07
-3.58604e-07
-1.00878e-06
-3.35829e-07
-1.03633e-06
-3.12148e-07
-1.06164e-06
-2.87667e-07
-1.08465e-06
-2.62469e-07
-1.10533e-06
-2.36624e-07
-1.12363e-06
-2.10201e-07
-1.13953e-06
-1.83263e-07
-1.15302e-06
-1.55875e-07
-1.16408e-06
-1.281e-07
-1.1727e-06
-1.00001e-07
-1.17887e-06
-7.16398e-08
-1.18258e-06
-4.30794e-08
-1.43838e-08
6.57554e-07
-1.14079e-08
6.54628e-07
-3.41005e-08
6.4977e-07
-5.66021e-08
6.43004e-07
-7.88454e-08
6.34354e-07
-1.00763e-07
6.23854e-07
-1.22285e-07
6.11541e-07
-1.4334e-07
5.9746e-07
-1.6385e-07
5.81666e-07
-1.83724e-07
5.64222e-07
-2.02854e-07
5.45206e-07
-2.21103e-07
5.24714e-07
-2.38298e-07
5.02862e-07
-2.54215e-07
4.79796e-07
-2.68578e-07
4.55688e-07
-2.81069e-07
4.30744e-07
-2.91359e-07
4.05191e-07
-2.9917e-07
3.79267e-07
-3.04351e-07
3.53202e-07
-3.06939e-07
3.27195e-07
-3.07182e-07
3.0141e-07
-3.05494e-07
2.75963e-07
-3.02371e-07
2.50928e-07
-2.98296e-07
2.26347e-07
-2.93674e-07
2.02242e-07
-2.88801e-07
1.78618e-07
-2.83868e-07
1.55474e-07
-2.78979e-07
1.32806e-07
-2.7418e-07
1.1061e-07
-2.69476e-07
8.8884e-08
-2.64851e-07
6.76262e-08
-2.6028e-07
4.68368e-08
-2.55739e-07
2.65165e-08
-2.51207e-07
6.66629e-09
-2.4667e-07
-1.27138e-08
-2.42125e-07
-3.16236e-08
-2.37566e-07
-5.00612e-08
-2.32959e-07
-6.80259e-08
-2.28302e-07
-8.55188e-08
-2.23601e-07
-1.02543e-07
-2.18866e-07
-1.19101e-07
-2.14109e-07
-1.35202e-07
-2.09343e-07
-1.50851e-07
-2.0458e-07
-1.6606e-07
-1.99835e-07
-1.80841e-07
-1.95123e-07
-1.95208e-07
-1.90457e-07
-2.09176e-07
-1.85851e-07
-2.22762e-07
-1.81319e-07
-2.35985e-07
-1.76874e-07
-2.48866e-07
-1.72528e-07
-2.61426e-07
-1.68292e-07
-2.73687e-07
-1.64178e-07
-2.85673e-07
-1.60197e-07
-2.97408e-07
-1.56361e-07
-3.08917e-07
-1.52683e-07
-3.20222e-07
-1.49179e-07
-3.31341e-07
-1.45876e-07
-3.42302e-07
-1.42828e-07
-3.53114e-07
-1.39989e-07
-3.63775e-07
-1.37464e-07
-3.74252e-07
-1.35325e-07
-3.84375e-07
-1.33803e-07
-3.94931e-07
-1.39037e-07
-4.0597e-07
-1.45024e-07
-4.17562e-07
-1.51823e-07
-4.29788e-07
-1.59505e-07
-4.42731e-07
-1.6817e-07
-4.56477e-07
-1.77954e-07
-4.71118e-07
-1.89035e-07
-4.86755e-07
-2.01636e-07
-5.03499e-07
-2.1603e-07
-5.21478e-07
-2.32552e-07
-5.40839e-07
-2.51672e-07
-5.61803e-07
-2.73781e-07
-5.84664e-07
-2.98887e-07
-6.09775e-07
-3.26374e-07
-6.3752e-07
-3.54572e-07
-6.68183e-07
-3.80544e-07
-7.01713e-07
-4.0067e-07
-7.37555e-07
-4.1218e-07
-7.74753e-07
-4.14491e-07
-8.12275e-07
-4.09038e-07
-8.49279e-07
-3.98015e-07
-8.85184e-07
-3.83318e-07
-9.19618e-07
-3.6625e-07
-9.52347e-07
-3.47583e-07
-9.83217e-07
-3.27733e-07
-1.01212e-06
-3.06931e-07
-1.03895e-06
-2.8531e-07
-1.06366e-06
-2.62962e-07
-1.08617e-06
-2.39956e-07
-1.10644e-06
-2.16356e-07
-1.12442e-06
-1.9222e-07
-1.14008e-06
-1.67606e-07
-1.15338e-06
-1.42573e-07
-1.1643e-06
-1.17178e-07
-1.17282e-06
-9.14797e-08
-1.17892e-06
-6.5537e-08
-1.1826e-06
-3.94088e-08
-1.31573e-08
6.57558e-07
-1.04322e-08
6.54643e-07
-3.11855e-08
6.49806e-07
-5.1765e-08
6.43069e-07
-7.21085e-08
6.3446e-07
-9.21538e-08
6.24013e-07
-1.11838e-07
6.11768e-07
-1.31095e-07
5.97771e-07
-1.49854e-07
5.82079e-07
-1.68032e-07
5.64757e-07
-1.85531e-07
5.45882e-07
-2.02229e-07
5.25551e-07
-2.17967e-07
5.03878e-07
-2.32543e-07
4.81005e-07
-2.45706e-07
4.571e-07
-2.57166e-07
4.32364e-07
-2.66624e-07
4.07016e-07
-2.73824e-07
3.81288e-07
-2.78625e-07
3.55404e-07
-2.81057e-07
3.29562e-07
-2.81342e-07
3.0392e-07
-2.79855e-07
2.78597e-07
-2.7705e-07
2.53665e-07
-2.73368e-07
2.2917e-07
-2.69181e-07
2.05129e-07
-2.64763e-07
1.8155e-07
-2.6029e-07
1.58429e-07
-2.5586e-07
1.35761e-07
-2.51515e-07
1.13542e-07
-2.47259e-07
9.17682e-08
-2.43078e-07
7.04361e-08
-2.38949e-07
4.95453e-08
-2.34849e-07
2.9096e-08
-2.30758e-07
9.08854e-09
-2.26664e-07
-1.04769e-08
-2.2256e-07
-2.96003e-08
-2.18443e-07
-4.82796e-08
-2.14281e-07
-6.65132e-08
-2.10069e-07
-8.43013e-08
-2.05813e-07
-1.01645e-07
-2.01523e-07
-1.18548e-07
-1.97207e-07
-1.35015e-07
-1.92877e-07
-1.51051e-07
-1.88545e-07
-1.66665e-07
-1.84222e-07
-1.81867e-07
-1.79922e-07
-1.96669e-07
-1.75656e-07
-2.11082e-07
-1.71439e-07
-2.25121e-07
-1.67281e-07
-2.38803e-07
-1.63194e-07
-2.52143e-07
-1.59188e-07
-2.6516e-07
-1.55276e-07
-2.77873e-07
-1.51465e-07
-2.90302e-07
-1.47768e-07
-3.02468e-07
-1.44196e-07
-3.14391e-07
-1.40761e-07
-3.26093e-07
-1.37478e-07
-3.37592e-07
-1.34378e-07
-3.48918e-07
-1.31502e-07
-3.60086e-07
-1.28822e-07
-3.71102e-07
-1.26449e-07
-3.8195e-07
-1.24478e-07
-3.92167e-07
-1.23559e-07
-4.0288e-07
-1.28321e-07
-4.14119e-07
-1.33784e-07
-4.25934e-07
-1.40007e-07
-4.3839e-07
-1.47049e-07
-4.51561e-07
-1.55001e-07
-4.65528e-07
-1.63989e-07
-4.80381e-07
-1.74184e-07
-4.96223e-07
-1.85797e-07
-5.13172e-07
-1.99084e-07
-5.31362e-07
-2.14363e-07
-5.50958e-07
-2.32072e-07
-5.72191e-07
-2.52538e-07
-5.95354e-07
-2.75711e-07
-6.20782e-07
-3.00932e-07
-6.48798e-07
-3.26541e-07
-6.79582e-07
-3.49748e-07
-7.12969e-07
-3.67273e-07
-7.48348e-07
-3.76794e-07
-7.84798e-07
-3.78036e-07
-8.21386e-07
-3.72447e-07
-8.57375e-07
-3.62024e-07
-8.92261e-07
-3.48432e-07
-9.25718e-07
-3.32793e-07
-9.57538e-07
-3.15763e-07
-9.87577e-07
-2.97695e-07
-1.01573e-06
-2.78782e-07
-1.0419e-06
-2.59138e-07
-1.06602e-06
-2.3884e-07
-1.08803e-06
-2.17949e-07
-1.10786e-06
-1.96519e-07
-1.12548e-06
-1.74602e-07
-1.14084e-06
-1.5225e-07
-1.1539e-06
-1.29514e-07
-1.16463e-06
-1.06447e-07
-1.173e-06
-8.31034e-08
-1.17901e-06
-5.95356e-08
-1.18262e-06
-3.57988e-08
-1.19512e-08
6.57564e-07
-9.46256e-09
6.54666e-07
-2.82876e-08
6.49857e-07
-4.69558e-08
6.43159e-07
-6.54107e-08
6.34601e-07
-8.3596e-08
6.24218e-07
-1.01454e-07
6.12049e-07
-1.18927e-07
5.98143e-07
-1.35948e-07
5.82555e-07
-1.52444e-07
5.65351e-07
-1.68327e-07
5.46608e-07
-1.83486e-07
5.2642e-07
-1.97779e-07
5.049e-07
-2.11023e-07
4.82185e-07
-2.22992e-07
4.58442e-07
-2.33424e-07
4.33864e-07
-2.42047e-07
4.08667e-07
-2.48629e-07
3.83078e-07
-2.53038e-07
3.57318e-07
-2.55299e-07
3.31584e-07
-2.55609e-07
3.06034e-07
-2.54308e-07
2.80785e-07
-2.51803e-07
2.55912e-07
-2.48498e-07
2.31461e-07
-2.44731e-07
2.07449e-07
-2.40753e-07
1.83882e-07
-2.36725e-07
1.60757e-07
-2.32737e-07
1.38068e-07
-2.28828e-07
1.15808e-07
-2.25001e-07
9.39738e-08
-2.21245e-07
7.25606e-08
-2.17538e-07
5.15673e-08
-2.13857e-07
3.09934e-08
-2.10185e-07
1.08391e-08
-2.0651e-07
-8.89544e-09
-2.02826e-07
-2.82101e-08
-1.99129e-07
-4.71025e-08
-1.95389e-07
-6.55706e-08
-1.91601e-07
-8.36134e-08
-1.87771e-07
-1.01231e-07
-1.83906e-07
-1.18426e-07
-1.80014e-07
-1.352e-07
-1.76104e-07
-1.51558e-07
-1.72187e-07
-1.67508e-07
-1.68274e-07
-1.83055e-07
-1.64375e-07
-1.9821e-07
-1.60503e-07
-2.12982e-07
-1.56668e-07
-2.27383e-07
-1.5288e-07
-2.41427e-07
-1.49151e-07
-2.55126e-07
-1.4549e-07
-2.68496e-07
-1.41906e-07
-2.81553e-07
-1.38409e-07
-2.94314e-07
-1.35009e-07
-3.06794e-07
-1.31716e-07
-3.19014e-07
-1.28542e-07
-3.30992e-07
-1.25501e-07
-3.42747e-07
-1.22623e-07
-3.54304e-07
-1.19945e-07
-3.65684e-07
-1.17442e-07
-3.7692e-07
-1.15213e-07
-3.8806e-07
-1.13338e-07
-3.98488e-07
-1.13089e-07
-4.09414e-07
-1.17389e-07
-4.20857e-07
-1.22332e-07
-4.32877e-07
-1.27976e-07
-4.45539e-07
-1.34374e-07
-4.58914e-07
-1.4161e-07
-4.73083e-07
-1.49803e-07
-4.8814e-07
-1.5911e-07
-5.0419e-07
-1.69729e-07
-5.2136e-07
-1.81897e-07
-5.39793e-07
-1.95913e-07
-5.5967e-07
-2.12179e-07
-5.81232e-07
-2.30961e-07
-6.04766e-07
-2.52164e-07
-6.30578e-07
-2.75105e-07
-6.58933e-07
-2.98172e-07
-6.89916e-07
-3.18752e-07
-7.23265e-07
-3.33915e-07
-7.58319e-07
-3.41734e-07
-7.94189e-07
-3.42162e-07
-8.30023e-07
-3.3661e-07
-8.65168e-07
-3.26878e-07
-8.99184e-07
-3.14416e-07
-9.31785e-07
-3.00191e-07
-9.62789e-07
-2.84759e-07
-9.92063e-07
-2.6842e-07
-1.01951e-06
-2.51337e-07
-1.04504e-06
-2.33607e-07
-1.06858e-06
-2.15295e-07
-1.09008e-06
-1.96455e-07
-1.10946e-06
-1.77132e-07
-1.12669e-06
-1.57373e-07
-1.14172e-06
-1.37223e-07
-1.15451e-06
-1.16729e-07
-1.16502e-06
-9.59376e-08
-1.17322e-06
-7.48967e-08
-1.1791e-06
-5.36547e-08
-1.18264e-06
-3.22614e-08
-1.07697e-08
6.5757e-07
-8.49876e-09
6.54689e-07
-2.54071e-08
6.49909e-07
-4.21754e-08
6.43251e-07
-5.87529e-08
6.34744e-07
-7.50892e-08
6.24423e-07
-9.11332e-08
6.12328e-07
-1.06831e-07
5.98506e-07
-1.22126e-07
5.83014e-07
-1.36952e-07
5.65915e-07
-1.51229e-07
5.47286e-07
-1.64858e-07
5.2722e-07
-1.77713e-07
5.05828e-07
-1.89631e-07
4.83244e-07
-2.00408e-07
4.5963e-07
-2.09811e-07
4.35177e-07
-2.17595e-07
4.10096e-07
-2.2355e-07
3.84611e-07
-2.27555e-07
3.58941e-07
-2.29631e-07
3.3328e-07
-2.29952e-07
3.07789e-07
-2.28819e-07
2.82585e-07
-2.26601e-07
2.57743e-07
-2.23659e-07
2.33309e-07
-2.203e-07
2.09303e-07
-2.16749e-07
1.85728e-07
-2.13152e-07
1.62582e-07
-2.09593e-07
1.39857e-07
-2.06105e-07
1.17548e-07
-2.02693e-07
9.56471e-08
-1.99346e-07
7.41515e-08
-1.96043e-07
5.30587e-08
-1.92765e-07
3.23681e-08
-1.89496e-07
1.20797e-08
-1.86223e-07
-7.80633e-09
-1.82941e-07
-2.72897e-08
-1.79647e-07
-4.63675e-08
-1.76312e-07
-6.50372e-08
-1.72932e-07
-8.32969e-08
-1.69513e-07
-1.01146e-07
-1.66058e-07
-1.18584e-07
-1.62576e-07
-1.35615e-07
-1.59075e-07
-1.52239e-07
-1.55563e-07
-1.68463e-07
-1.52051e-07
-1.84291e-07
-1.48548e-07
-1.99731e-07
-1.45064e-07
-2.14791e-07
-1.41609e-07
-2.2948e-07
-1.38192e-07
-2.43809e-07
-1.34823e-07
-2.5779e-07
-1.3151e-07
-2.71435e-07
-1.28262e-07
-2.84757e-07
-1.25088e-07
-2.97771e-07
-1.21996e-07
-3.10491e-07
-1.18996e-07
-3.22935e-07
-1.16099e-07
-3.35118e-07
-1.13318e-07
-3.47062e-07
-1.1068e-07
-3.58791e-07
-1.08217e-07
-3.70328e-07
-1.05906e-07
-3.81706e-07
-1.03835e-07
-3.92961e-07
-1.02085e-07
-4.03628e-07
-1.02389e-07
-4.1477e-07
-1.06243e-07
-4.26419e-07
-1.10681e-07
-4.38638e-07
-1.15755e-07
-4.51494e-07
-1.21515e-07
-4.65063e-07
-1.28038e-07
-4.79428e-07
-1.35435e-07
-4.94685e-07
-1.43849e-07
-5.10946e-07
-1.53462e-07
-5.28344e-07
-1.64491e-07
-5.47032e-07
-1.77215e-07
-5.67205e-07
-1.91994e-07
-5.89112e-07
-2.09042e-07
-6.1303e-07
-2.28231e-07
-6.39239e-07
-2.48882e-07
-6.67942e-07
-2.69456e-07
-6.99133e-07
-2.87549e-07
-7.32467e-07
-3.00571e-07
-7.67251e-07
-3.06943e-07
-8.02631e-07
-3.06778e-07
-8.37827e-07
-3.01412e-07
-8.72257e-07
-2.92446e-07
-9.05532e-07
-2.8114e-07
-9.37401e-07
-2.68322e-07
-9.67697e-07
-2.54463e-07
-9.96301e-07
-2.39816e-07
-1.02312e-06
-2.2452e-07
-1.04807e-06
-2.08656e-07
-1.07108e-06
-1.92281e-07
-1.0921e-06
-1.75439e-07
-1.11106e-06
-1.58172e-07
-1.12791e-06
-1.40519e-07
-1.14261e-06
-1.22521e-07
-1.15513e-06
-1.04218e-07
-1.16541e-06
-8.56511e-08
-1.17345e-06
-6.68636e-08
-1.1792e-06
-4.78981e-08
-1.18267e-06
-2.87988e-08
-9.6133e-09
6.57576e-07
-7.54069e-09
6.54712e-07
-2.25434e-08
6.49959e-07
-3.74224e-08
6.43339e-07
-5.2133e-08
6.34881e-07
-6.66306e-08
6.24617e-07
-8.08699e-08
6.1259e-07
-9.48038e-08
5.98844e-07
-1.08381e-07
5.83437e-07
-1.21544e-07
5.6643e-07
-1.34222e-07
5.479e-07
-1.46328e-07
5.27937e-07
-1.57751e-07
5.0665e-07
-1.68344e-07
4.84172e-07
-1.77931e-07
4.60661e-07
-1.86301e-07
4.36305e-07
-1.9324e-07
4.11311e-07
-1.98558e-07
3.85902e-07
-2.02148e-07
3.60294e-07
-2.04025e-07
3.34683e-07
-2.04342e-07
3.09227e-07
-2.03366e-07
2.84046e-07
-2.01422e-07
2.59217e-07
-1.98833e-07
2.34784e-07
-1.9587e-07
2.10768e-07
-1.92735e-07
1.87174e-07
-1.8956e-07
1.63997e-07
-1.86418e-07
1.41231e-07
-1.83341e-07
1.18868e-07
-1.80332e-07
9.69009e-08
-1.7738e-07
7.53262e-08
-1.7447e-07
5.4141e-08
-1.71581e-07
3.33444e-08
-1.687e-07
1.29365e-08
-1.65816e-07
-7.08244e-09
-1.62923e-07
-2.67119e-08
-1.60018e-07
-4.59487e-08
-1.57076e-07
-6.47894e-08
-1.54093e-07
-8.32315e-08
-1.51071e-07
-1.01273e-07
-1.48017e-07
-1.18914e-07
-1.44936e-07
-1.36155e-07
-1.41835e-07
-1.52997e-07
-1.38722e-07
-1.69443e-07
-1.35606e-07
-1.85498e-07
-1.32494e-07
-2.01166e-07
-1.29396e-07
-2.16455e-07
-1.26321e-07
-2.31372e-07
-1.23276e-07
-2.45926e-07
-1.2027e-07
-2.60127e-07
-1.1731e-07
-2.73984e-07
-1.14406e-07
-2.8751e-07
-1.11563e-07
-3.00718e-07
-1.0879e-07
-3.1362e-07
-1.06095e-07
-3.26231e-07
-1.03488e-07
-3.38568e-07
-1.00982e-07
-3.50649e-07
-9.85996e-08
-3.62498e-07
-9.63692e-08