/*--------------------------------*- C++ -*----------------------------------*\
  =========                 |
  \\      /  F ield         | OpenFOAM: The Open Source CFD Toolbox
   \\    /   O peration     | Website:  https://openfoam.org
    \\  /    A nd           | Version:  8
     \\/     M anipulation  |
\*---------------------------------------------------------------------------*/
FoamFile
{
    version     2.0;
    format      ascii;
    class       volScalarField;
    location    "940/fluid";
    object      Qdot;
}
// * * * * * * * * * * * * * * * * * * * * * * * * * * * * * * * * * * * * * //

dimensions      [1 -1 -3 0 0 0 0];

internalField   nonuniform List<scalar> 
4000
(
-3.72613e-13
2.0514e-17
0
1.28436e-20
1.56437e-11
0
-2.71912e-11
3.47503e-07
0
0
2.93816e-10
1.01874e-18
-1.43949e-14
-2.09197e-18
-8.46241e-18
-2.99417e-17
2.53588e-09
-3.13176e-15
3.24563e-08
3.04582e-07
4.38729e-06
5.732e-05
0.000678389
0.00667554
0.0535885
0.350463
1.88428
8.4503
32.1328
105.293
301.725
765.745
1740.37
3578.12
6715.2
11631.2
18842.2
28936.1
42715.4
61361.4
86563.3
120569
166298
227611
309632
419265
565689
760962
1.02068e+06
1.36627e+06
1.82509e+06
2.43309e+06
3.23747e+06
4.30027e+06
5.70319e+06
7.55423e+06
9.99674e+06
1.31792e+07
1.73353e+07
2.29855e+07
3.04977e+07
7.06817e+07
3.7736e+08
2.95482e+07
2.1269e+07
1.51237e+07
1.06033e+07
7.31581e+06
4.95742e+06
3.29339e+06
2.14364e+06
1.37173e+06
877003
563218
150193
11295.1
311.969
4.42245
0.0420558
0.000430122
8.08829e-06
3.80656e-07
4.24314e-08
8.71717e-09
2.75605e-09
1.08811e-09
4.61074e-10
2.00328e-10
6.95567e-11
3.27268e-11
9.06752e-12
5.85958e-12
2.46116e-12
1.00066e-12
4.42013e-13
1.66246e-13
8.89272e-13
2.8274e-14
9.60121e-15
1.65563e-15
0
0
0
0
0
2.90788e-11
-7.83995e-16
0
1.3837e-10
4.81003e-19
0
0
0
-2.02732e-18
-1.20067e-09
-3.30913e-17
-4.44585e-09
-3.01064e-15
3.13923e-08
7.58373e-08
3.92556e-06
5.14924e-05
0.000610703
0.00606093
0.04925
0.326664
1.78233
8.10924
31.2592
103.729
300.669
770.841
1766.67
3656.77
6898.9
11989.3
19451.7
29868.3
44022.8
63069.7
88668.1
123031
169073
230658
312946
422868
569542
764706
1.02541e+06
1.37214e+06
1.83257e+06
2.44304e+06
3.25136e+06
4.32055e+06
5.73387e+06
7.60173e+06
1.00713e+07
1.3295e+07
1.75162e+07
2.32748e+07
3.09569e+07
1.10852e+08
3.42134e+08
2.93964e+07
2.10849e+07
1.49435e+07
1.0442e+07
7.1785e+06
4.84488e+06
3.20442e+06
2.07614e+06
1.32345e+06
846120
518880
112938
6811.98
162.974
2.08629
0.0194545
0.00021837
4.89033e-06
2.76658e-07
3.64707e-08
8.56808e-09
2.98446e-09
1.10784e-09
4.41374e-10
1.92825e-10
8.20733e-11
3.54376e-11
1.32626e-11
5.73217e-12
2.41735e-12
9.86511e-13
4.37276e-13
1.90866e-13
6.91936e-14
2.51225e-14
9.58881e-15
1.47546e-15
-3.71761e-13
2.03876e-17
0
-2.99856e-07
3.0982e-07
-1.28342e-11
3.27088e-07
3.34346e-07
0
0
0
-3.54961e-07
5.67442e-10
1.95284e-18
1.15508e-09
-3.57823e-17
-3.71899e-07
-2.94025e-15
4.15694e-07
2.65688e-07
3.85581e-06
4.76508e-05
0.000564457
0.00562665
0.0461025
0.309157
1.70804
7.87445
30.7601
103.407
303.487
787.226
1822.74
3802.96
7223.55
12610.9
20507.4
31494.5
46338.7
66167.2
92613.4
127865
174852
237486
321006
432255
580093
778110
1.04183e+06
1.39262e+06
1.8586e+06
2.47686e+06
3.29638e+06
4.38197e+06
5.81962e+06
7.72392e+06
1.02483e+07
1.35503e+07
1.78892e+07
2.38267e+07
3.17604e+07
1.80484e+08
2.76384e+08
2.94698e+07
2.09947e+07
1.47783e+07
1.02554e+07
7.00047e+06
4.6903e+06
3.07913e+06
1.98087e+06
1.25647e+06
805121
444222
75301.6
3661.64
77.8204
0.942211
0.00912649
0.000117111
3.13726e-06
2.07393e-07
3.02558e-08
7.12947e-09
2.53815e-09
9.44932e-10
3.67673e-10
1.57377e-10
7.95047e-11
3.12127e-11
1.29267e-11
6.09026e-12
2.37215e-12
1.0192e-12
4.31951e-13
5.79933e-12
7.15834e-14
2.5038e-14
8.83533e-15
5.06645e-12
0
2.7646e-07
2.89048e-12
2.97253e-07
0
-2.82239e-11
0
6.49756e-11
1.07528e-10
2.43084e-10
0
0
-4.49324e-10
1.89758e-18
-7.64636e-18
-3.46835e-17
2.28041e-09
-4.60899e-09
1.69158e-08
2.56924e-07
3.4104e-06
4.44296e-05
0.00052925
0.00531288
0.0439533
0.298112
1.66735
7.78457
30.7949
104.81
311.292
816.667
1910.42
4018.08
7677.11
13460.4
21931.8
33673.5
49435.3
70324.1
97954.6
134522
183013
247437
333026
446677
598349
800657
1.07009e+06
1.42845e+06
1.90456e+06
2.53651e+06
3.37473e+06
4.48617e+06
5.95988e+06
7.91481e+06
1.05104e+07
1.39046e+07
1.8372e+07
2.45e+07
3.27061e+07
2.64149e+08
1.95243e+08
2.946e+07
2.08282e+07
1.45436e+07
1.00088e+07
6.77408e+06
4.49955e+06
2.92891e+06
1.87003e+06
1.18111e+06
760488
356176
46722
1879.37
35.7516
0.411742
0.00415792
6.09651e-05
1.94753e-06
1.50596e-07
2.43845e-08
6.28814e-09
2.25588e-09
8.67451e-10
4.16078e-10
1.63615e-10
8.17993e-11
3.22184e-11
1.27153e-11
5.52451e-12
2.55592e-12
-4.71567e-12
6.11827e-12
1.73937e-13
6.22925e-14
2.50021e-14
-7.56589e-13
1.661e-15
0
-2.02236e-17
-6.01724e-21
0
2.55387e-20
1.24816e-11
0
0
-3.27051e-07
-2.37486e-10
4.50964e-19
4.3368e-10
9.73063e-10
1.84086e-18
8.83604e-10
-3.3564e-17
-2.78238e-16
-2.80215e-15
1.63345e-08
6.80403e-08
3.26569e-06
4.23495e-05
0.000507251
0.00512483
0.0427869
0.293293
1.65918
7.83748
31.3682
107.991
324.313
859.838
2031.03
4303.69
8258.8
14529
23696.4
36340.2
53189.6
75336.2
104383
142569
192967
259493
347571
464871
621972
830974
1.10899e+06
1.47855e+06
1.96945e+06
2.62106e+06
3.48559e+06
4.63238e+06
6.15377e+06
8.17316e+06
1.08507e+07
1.43414e+07
1.89575e+07
2.53018e+07
3.37858e+07
3.45942e+08
1.12929e+08
2.92177e+07
2.04687e+07
1.41634e+07
9.6604e+06
6.48093e+06
4.26792e+06
2.75552e+06
1.74726e+06
1.10023e+06
711422
256207
27980
962.018
16.6759
0.186418
0.00199773
3.36596e-05
1.27165e-06
1.13425e-07
2.01045e-08
5.52398e-09
2.0828e-09
7.93083e-10
3.45665e-10
1.44656e-10
6.94612e-11
2.97375e-11
1.15693e-11
8.79259e-14
-2.60975e-12
6.60065e-12
3.96798e-13
1.49057e-13
6.20995e-14
2.4975e-14
8.10916e-15
7.44559e-13
-6.96185e-22
0
2.83393e-07
0
-1.75876e-16
0
0
-1.06802e-19
0
-1.04258e-10
-8.8105e-19
-3.28903e-07
-5.22412e-10
1.78974e-18
-2.50584e-14
-3.97771e-17
1.73739e-09
-4.30824e-09
-3.32305e-07
4.13406e-07
3.16133e-06
4.1484e-05
0.000494787
0.00503512
0.0424297
0.293861
1.68048
8.02559
32.4721
112.984
342.802
917.702
2186.83
4663.48
8976.62
15825.6
25805.5
39484.5
57565.9
81128.1
111768
151780
204151
273064
365102
488079
651530
868935
1.15806e+06
1.54234e+06
2.05276e+06
2.73032e+06
3.62934e+06
4.82192e+06
6.40401e+06
8.50028e+06
1.12819e+07
1.49014e+07
1.9689e+07
2.62322e+07
3.49373e+07
4.19101e+08
4.02245e+07
2.81726e+07
1.95657e+07
1.34383e+07
9.10467e+06
6.07019e+06
3.97418e+06
2.55259e+06
1.61276e+06
1.01615e+06
653988
194642
16579.7
501.527
8.04006
0.0883322
0.00101031
1.9464e-05
8.61675e-07
8.7323e-08
1.63888e-08
4.82327e-09
1.95012e-09
7.24046e-10
3.51614e-10
1.42247e-10
6.46274e-11
2.44187e-11
1.23447e-11
4.54691e-12
1.99045e-12
8.41367e-13
3.94139e-13
1.48399e-13
5.58005e-14
2.49546e-14
7.3845e-15
1.31144e-15
2.6369e-07
3.06156e-12
0
0
0
1.2143e-11
-3.06758e-07
1.04899e-19
0
-2.2738e-10
3.18742e-07
-3.20157e-07
0
0
8.32445e-10
-3.72683e-09
-2.06677e-09
-2.73485e-15
1.10466e-08
2.24278e-07
3.11788e-06
4.06188e-05
0.000490334
0.00502945
0.0427722
0.299191
1.72866
8.34146
34.0958
119.817
367.01
991.315
2380.96
5107.4
9852.35
17358.5
28259.4
43088.8
62523.3
87650.3
120068
161982
216726
289578
386117
514437
685169
912371
1.21463e+06
1.61655e+06
2.15069e+06
2.86018e+06
3.80218e+06
5.05238e+06
6.71096e+06
8.91365e+06
1.18412e+07
1.56114e+07
2.07518e+07
2.75653e+07
3.65599e+07
4.5161e+08
3.55175e+07
2.52417e+07
1.76931e+07
1.22193e+07
8.30236e+06
5.54034e+06
3.62557e+06
2.32565e+06
1.46779e+06
927163
579274
142899
9942.29
271.342
4.08706
0.04471
0.000549008
1.20331e-05
6.12956e-07
7.01065e-08
1.49631e-08
4.51426e-09
1.706e-09
6.99365e-10
3.01129e-10
1.32599e-10
5.98126e-11
2.40797e-11
1.05318e-11
1.03735e-11
2.06308e-12
8.34659e-13
-4.88602e-13
1.35352e-13
5.41397e-12
2.19345e-14
-5.15211e-12
-5.04333e-12
-3.69108e-13
0
0
2.86427e-07
1.71835e-16
0
0
-1.03047e-19
0
9.98228e-11
0
0
0
-1.6905e-18
1.80073e-09
1.99117e-09
1.99994e-09
-2.73906e-15
1.47214e-08
7.60166e-08
3.09336e-06
4.05825e-05
0.000492992
0.005098
0.0437464
0.308952
1.80265
8.78405
36.2516
128.586
397.396
1082.27
2617.78
5642.45
10891.1
19135.2
31048.5
47099.9
67924.5
94574.8
128595
172521
230420
306665
407627
541743
720153
957599
1.27362e+06
1.69417e+06
2.25376e+06
2.99842e+06
3.98958e+06
5.30952e+06
7.06869e+06
9.41605e+06
1.25353e+07
1.65958e+07
2.21936e+07
2.96945e+07
3.97445e+07
4.41239e+08
3.25949e+07
2.31682e+07
1.62548e+07
1.12388e+07
7.64506e+06
5.10811e+06
3.34837e+06
2.15427e+06
1.36795e+06
874341
521853
107058
6265.29
155.988
2.22471
0.0243812
0.000321189
7.92638e-06
4.56595e-07
5.70414e-08
1.31441e-08
4.21712e-09
1.57503e-09
6.5371e-10
2.81957e-10
1.28115e-10
5.14126e-11
2.37584e-11
1.12175e-11
4.67199e-12
-3.61115e-12
8.28067e-13
3.16968e-13
1.34756e-13
4.9464e-14
2.1094e-14
6.67289e-15
1.2309e-15
0
0
0
1.66779e-16
1.69885e-16
-2.93522e-07
-2.93968e-11
0
3.01987e-07
0
0
-1.14464e-14
-3.04293e-07
0
-9.85264e-18
1.56866e-09
1.5732e-09
-3.88627e-09
1.73776e-08
2.28978e-07
3.13418e-06
4.11088e-05
0.000502121
0.00523343
0.0453033
0.322919
1.90194
9.35487
38.9626
139.433
434.571
1192.65
2902.9
6279.17
12104.4
21165
34172.3
51508
73748.8
101795
137436
183796
244221
323696
428822
568330
753740
1.00031e+06
1.32827e+06
1.76454e+06
2.34497e+06
3.1174e+06
4.14586e+06
5.51619e+06
7.34383e+06
9.78464e+06
1.30345e+07
1.72923e+07
2.31915e+07
3.11534e+07
5.84676e+07
4.19995e+08
3.07038e+07
2.18004e+07
1.52768e+07
1.05474e+07
7.1619e+06
4.7747e+06
3.1218e+06
2.00354e+06
1.27122e+06
817212
460033
80109.1
4102.48
94.807
1.29559
0.0143168
0.000201994
5.55213e-06
3.56964e-07
4.88788e-08
1.1764e-08
3.7743e-09
1.44822e-09
5.91339e-10
2.82618e-10
1.21419e-10
5.24702e-11
2.59179e-11
1.0276e-11
4.22021e-12
2.02339e-12
8.21294e-13
3.14963e-13
-6.64701e-13
4.93333e-14
1.89216e-14
6.67981e-15
1.14503e-15
0
-1.51155e-12
5.81642e-21
0
-1.67928e-16
-2.89492e-07
0
-1.38492e-15
-1.99755e-19
0
-2.9728e-07
-5.57682e-15
0
-1.59427e-18
-6.36551e-18
-3.38279e-09
-2.93004e-16
3.74767e-09
1.6733e-08
3.83723e-07
3.20368e-06
4.21387e-05
0.000516825
0.0054304
0.0474129
0.340994
2.02668
10.0586
42.265
152.552
479.334
1325.12
3243.38
7031.1
13506.2
23447.2
37595.4
56195.1
79693.1
109141
146753
195041
257835
340268
449115
593291
784548
1.03842e+06
1.37549e+06
1.82308e+06
2.41753e+06
3.20721e+06
4.25668e+06
5.65215e+06
7.50902e+06
9.98213e+06
1.32539e+07
1.75262e+07
2.34134e+07
3.12864e+07
1.19197e+08
3.68599e+08
2.96253e+07
2.10128e+07
1.4716e+07
1.01587e+07
6.90048e+06
4.60458e+06
3.0152e+06
1.93973e+06
1.23574e+06
800606
410376
62226.7
2839.67
61.2639
0.80694
0.00902531
0.000135821
4.11326e-06
2.90686e-07
4.35842e-08
1.07929e-08
3.5064e-09
1.32419e-09
6.25207e-10
2.724e-10
1.19449e-10
4.54091e-11
2.15374e-11
9.35766e-12
4.35003e-12
1.80627e-12
7.65315e-13
2.88489e-13
1.3342e-13
4.31984e-14
1.8896e-14
6.68278e-15
5.03049e-12
2.62162e-07
1.97195e-17
-6.1437e-12
0
-1.65983e-16
0
-5.16312e-11
0
0
0
0
-5.43108e-15
0
0
-6.16308e-18
-3.6888e-17
-3.01084e-16
-2.87428e-15
1.97103e-08
2.44372e-07
3.13848e-06
4.33211e-05
0.000536945
0.0056847
0.0500491
0.363099
2.17715
10.9005
46.2001
168.162
532.61
1482.8
3647.54
7913.85
15111.1
25986
41323.8
61136.5
85877.6
116950
156102
206201
271198
356329
468475
616652
812722
1.07232e+06
1.41614e+06
1.87154e+06
2.47487e+06
3.27435e+06
4.33414e+06
5.73967e+06
7.60493e+06
1.00819e+07
1.33457e+07
1.75947e+07
2.34299e+07
3.12077e+07
1.73354e+08
3.17234e+08
2.89377e+07
2.04945e+07
1.43309e+07
9.87772e+06
6.6997e+06
4.46488e+06
2.92151e+06
1.88034e+06
1.20132e+06
784045
373238
49535.1
2060.32
41.9535
0.535878
0.00607115
9.7027e-05
3.20028e-06
2.45103e-07
3.83756e-08
9.46682e-09
3.24344e-09
1.30317e-09
5.27551e-10
2.54106e-10
1.11941e-10
4.91733e-11
2.27786e-11
1.00138e-11
3.91007e-12
1.68065e-12
7.58615e-13
-4.68776e-13
1.15311e-13
5.26794e-12
1.8861e-14
5.59442e-15
1.10115e-15
-3.66977e-13
0
2.72058e-07
-5.55417e-12
-1.25221e-11
-3.30868e-16
2.83086e-07
1.33485e-15
-2.84059e-07
-2.03521e-10
0
0
0
2.08824e-14
-5.96079e-18
-4.15396e-17
4.09274e-14
-2.95306e-15
1.26115e-08
3.8454e-07
3.26856e-06
4.49349e-05
0.000561843
0.00599127
0.0531821
0.389121
2.35338
11.885
50.8059
186.483
595.348
1668.94
4123.64
8939.62
16915.7
28738.5
45235.1
66279.3
92403.2
124763
165384
217222
284314
371967
487119
638836
839012
1.1033e+06
1.45233e+06
1.91339e+06
2.52255e+06
3.32762e+06
4.39201e+06
5.79975e+06
7.66194e+06
1.01276e+07
1.33713e+07
1.75859e+07
2.3359e+07
3.10335e+07
2.21261e+08
2.71935e+08
2.83715e+07
2.01044e+07
1.4066e+07
9.70055e+06
6.58308e+06
4.38967e+06
2.87435e+06
1.85225e+06
1.18681e+06
779346
338223
40672
1564.95
30.3025
0.377504
0.00433749
7.31322e-05
2.59749e-06
2.12042e-07
3.54406e-08
9.26446e-09
3.36174e-09
1.27092e-09
6.06051e-10
2.39399e-10
1.09971e-10
5.00438e-11
2.01448e-11
9.11218e-12
3.47925e-12
1.76869e-12
7.03693e-13
2.84353e-13
1.19981e-13
-7.17024e-13
1.58918e-14
5.95499e-15
1.06284e-15
-1.64398e-13
0
0
-5.50257e-12
-5.55169e-12
3.26202e-16
-4.99621e-11
0
2.78324e-07
0
-5.17865e-15
5.14047e-15
0
-2.70314e-07
-1.53094e-09
-4.57611e-17
-3.18842e-16
-3.03907e-15
1.20812e-08
3.91846e-07
3.29003e-06
4.69365e-05
0.000590447
0.00634394
0.056766
0.418814
2.55458
13.0122
56.1036
207.677
668.357
1886.39
4678.19
10110.9
18878.5
31567.3
49098.3
71256.9
98634.4
132311
174403
227968
297110
387188
505172
660147
864000
1.13234e+06
1.48571e+06
1.95119e+06
2.56455e+06
3.37297e+06
4.43857e+06
5.84379e+06
7.69934e+06
1.01539e+07
1.33713e+07
1.75416e+07
2.32427e+07
3.08041e+07
2.61603e+08
2.34272e+08
2.7808e+07
1.97291e+07
1.38187e+07
9.54014e+06
6.48147e+06
4.32738e+06
2.83806e+06
1.83306e+06
1.1791e+06
778870
303485
34372.3
1239.38
22.9851
0.280593
0.00327006
5.78422e-05
2.19206e-06
1.90878e-07
3.28493e-08
9.04777e-09
3.10522e-09
1.24266e-09
5.72633e-10
2.33937e-10
1.0795e-10
4.62163e-11
1.9089e-11
8.98373e-12
3.04994e-12
1.55924e-12
6.96998e-13
2.58413e-13
1.19228e-13
4.27015e-14
1.73079e-14
7.51931e-13
9.7485e-16
4.79396e-18
-1.48641e-12
0
-2.70865e-07
2.72611e-07
0
0
2.73335e-07
0
3.65072e-19
7.24111e-19
0
0
1.95495e-14
-5.55546e-18
-3.8397e-14
-1.30422e-09
-3.13477e-15
1.73234e-08
2.6804e-07
3.59164e-06
4.91889e-05
0.000622107
0.0067336
0.0607237
0.451682
2.77829
14.2735
62.0777
231.788
752.133
2137.38
5316.19
11423.1
20933.7
34313.6
52966
76218.9
104612
139465
182956
238207
309353
401783
522475
680511
887745
1.15971e+06
1.51683e+06
1.98583e+06
2.60181e+06
3.411e+06
4.47516e+06
5.87735e+06
7.72568e+06
1.01622e+07
1.33472e+07
1.74672e+07
2.30866e+07
3.05212e+07
2.95383e+08
2.03089e+08
2.7246e+07
1.93671e+07
1.35899e+07
9.39902e+06
6.3972e+06
4.27929e+06
2.81258e+06
1.82154e+06
1.17626e+06
780230
280946
29800.1
1018.79
18.2245
0.218938
0.00258684
4.77154e-05
1.91122e-06
1.75481e-07
3.10379e-08
8.47536e-09
3.20315e-09
1.21339e-09
5.14863e-10
2.29075e-10
1.05869e-10
4.53973e-11
2.02547e-11
8.85158e-12
3.76429e-12
1.54122e-12
5.75392e-12
-4.87729e-12
1.01467e-13
4.83263e-14
1.72539e-14
5.06396e-12
9.75614e-16
0
-1.93889e-17
0
0
6.66183e-12
0
9.08351e-20
0
0
-3.56238e-19
-3.74778e-10
-4.84975e-15
2.54484e-07
-1.88885e-14
-6.38382e-10
-4.2324e-17
-3.35383e-16
-2.48253e-09
1.65222e-08
2.7452e-07
3.52693e-06
5.17547e-05
0.000655612
0.00714641
0.0649312
0.486818
3.01919
15.6439
68.636
258.553
846.14
2420.97
6032.94
12840.2
22937.5
36792.9
56218.6
80317
109659
145634
190494
247395
320494
415188
538460
699372
909702
1.18481e+06
1.54471e+06
2.01581e+06
2.63305e+06
3.44342e+06
4.50756e+06
5.90445e+06
7.73996e+06
1.01542e+07
1.33018e+07
1.73654e+07
2.28953e+07
3.01938e+07
3.22843e+08
1.78358e+08
2.6682e+07
1.90095e+07
1.33691e+07
9.26724e+06
6.32211e+06
4.23933e+06
2.79371e+06
1.81491e+06
1.17655e+06
782279
268736
26500.5
867.636
15.0648
0.178714
0.00213838
4.08821e-05
1.71244e-06
1.62885e-07
3.01831e-08
8.24471e-09
2.94917e-09
1.2309e-09
5.23252e-10
2.4644e-10
1.03732e-10
4.38287e-11
1.91787e-11
8.71595e-12
3.71262e-12
1.52265e-12
6.82802e-13
2.77298e-13
1.05973e-13
4.51717e-14
1.71935e-14
5.93257e-15
5.007e-12
4.77965e-18
2.62869e-07
-2.64696e-07
0
0
3.12265e-16
0
0
0
1.84726e-10
-3.64509e-10
0
-3.89678e-10
0
-7.54741e-10
-1.21061e-09
1.4697e-09
-3.33561e-15
1.80688e-08
2.83629e-07
3.70904e-06
5.38813e-05
0.000689234
0.0075625
0.0692003
0.522744
3.26783
17.0737
75.5615
287.175
947.786
2728.86
6797.15
14232.3
24485
38314.6
58230.8
83002.1
113137
150118
196251
254696
329614
426376
551914
715176
927836
1.20519e+06
1.56728e+06
2.0409e+06
2.66051e+06
3.47066e+06
4.53082e+06
5.91923e+06
7.73913e+06
1.01271e+07
1.32323e+07
1.72327e+07
2.26634e+07
2.98131e+07
3.44739e+08
1.589e+08
2.61175e+07
1.86559e+07
1.31546e+07
9.14258e+06
6.25391e+06
4.20545e+06
2.7798e+06
1.81199e+06
1.17928e+06
786081
259807
24194.8
764.954
12.9609
0.152215
0.00184093
3.62507e-05
1.57389e-06
1.54779e-07
2.92805e-08
8.65457e-09
2.94139e-09
1.19859e-09
5.09723e-10
2.40837e-10
1.01547e-10
4.65093e-11
1.95605e-11
9.29795e-12
8.48784e-12
1.50355e-12
-4.41851e-12
2.74769e-13
1.10954e-13
4.20359e-14
1.56903e-14
5.72362e-15
7.36184e-13
0
-1.92293e-17
7.72387e-17
1.11025e-20
-2.21728e-20
2.34818e-11
0
0
1.19616e-15
0
3.54228e-10
-4.55831e-15
0
2.33888e-07
2.29527e-07
2.58356e-09
-3.54059e-16
5.02318e-09
1.98826e-08
2.93402e-07
3.88368e-06
5.61411e-05
0.00072091
0.00795596
0.0732684
0.557299
3.50959
18.4814
82.4768
316.184
1052.19
3046.26
7561.4
15433.2
25191.5
38277.6
58303.6
83246.9
113882
151646
198807
258491
334821
433136
560341
725396
940209
1.21997e+06
1.58457e+06
2.05949e+06
2.67863e+06
3.48628e+06
4.54058e+06
5.91795e+06
7.71897e+06
1.00764e+07
1.3134e+07
1.70641e+07
2.23858e+07
2.93738e+07
3.61999e+08
1.44035e+08
2.55522e+07
1.83046e+07
1.2944e+07
9.0224e+06
6.19013e+06
4.17549e+06
2.76911e+06
1.81148e+06
1.18352e+06
790568
253982
22661.9
697.066
11.5814
0.134925
0.00164558
3.31586e-05
1.48154e-06
1.50414e-07
2.8341e-08
8.38786e-09
3.03269e-09
1.20247e-09
5.38603e-10
2.35125e-10
1.0721e-10
4.90401e-11
1.92024e-11
7.40125e-12
3.52551e-12
1.57428e-12
6.6781e-13
2.49345e-13
1.04374e-13
4.17886e-14
4.30901e-12
-5.01291e-12
9.75516e-16
0
-1.46162e-12
5.85475e-12
0
-2.59586e-07
2.57787e-07
0
1.70208e-19
2.4854e-07
0
0
0
-3.63274e-10
-2.42282e-18
-9.47923e-18
-1.36099e-09
3.13721e-14
4.76687e-09
2.35055e-08
4.1223e-07
4.04232e-06
5.79115e-05
0.000747881
0.00829509
0.0768031
0.587606
3.72396
19.7455
88.7733
342.969
1149.51
3339.04
8207.4
16048.7
24169.3
35674.5
55406.5
80211.9
110923
149022
196748
257204
334492
433950
562495
729106
945177
1.22575e+06
1.59038e+06
2.0645e+06
2.68133e+06
3.48427e+06
4.53016e+06
5.89348e+06
7.67205e+06
9.99456e+06
1.29996e+07
1.6853e+07
2.20568e+07
2.88718e+07
3.749e+08
1.33442e+08
2.49856e+07
1.79531e+07
1.27339e+07
8.90306e+06
6.12723e+06
4.14632e+06
2.75899e+06
1.81125e+06
1.18764e+06
794795
250817
21733.3
654.836
10.7172
0.124076
0.00152233
3.11868e-05
1.42177e-06
1.45646e-07
2.8572e-08
7.9772e-09
3.00963e-09
1.21194e-09
5.24206e-10
2.50882e-10
9.70492e-11
4.73398e-11
1.74599e-11
7.59335e-12
3.55076e-12
7.43849e-13
6.6005e-13
2.46879e-13
1.03531e-13
-4.228e-12
1.69814e-14
5.01129e-12
-4.9918e-12
0
8.02487e-13
-7.61648e-17
0
0
-2.2774e-11
0
-3.97514e-11
4.79944e-11
-3.20829e-19
1.49668e-10
0
-3.50032e-10
-2.32632e-18
-6.8017e-18
-4.42476e-17
-2.30054e-09
4.50995e-09
2.65849e-08
3.09555e-07
4.1538e-06
5.9217e-05
0.000767748
0.00854525
0.0794282
0.610307
3.88614
20.7126
93.6483
363.92
1225.52
3555.89
8555.52
15513.5
23598.5
31270.7
48763.9
73138.2
103574
141534
189216
249668
326931
426275
554520
720490
935596
1.21465e+06
1.5769e+06
2.04739e+06
2.65872e+06
3.45342e+06
4.48702e+06
5.83212e+06
7.58379e+06
9.86676e+06
1.28146e+07
1.65862e+07
2.16663e+07
2.83013e+07
3.83699e+08
1.26837e+08
2.44142e+07
1.75951e+07
1.25164e+07
8.77617e+06
6.05729e+06
4.11098e+06
2.7437e+06
1.80674e+06
1.18811e+06
796452
249477
21266.7
631.815
10.2312
0.117914
0.00145205
3.00625e-05
1.38884e-06
1.45314e-07
2.81132e-08
8.13091e-09
2.91245e-09
1.21039e-09
5.09547e-10
2.39238e-10
1.10389e-10
4.89796e-11
1.84663e-11
8.14489e-12
2.7919e-12
1.53172e-12
-6.57815e-14
2.44377e-13
1.05198e-13
4.1261e-14
1.5486e-14
5.87669e-15
9.74107e-16
-2.58821e-07
0
0
0
2.135e-20
2.49894e-07
2.4608e-07
0
-3.80912e-11
-2.31198e-07
2.2539e-07
2.1904e-07
-2.13075e-07
6.53697e-10
-6.49322e-18
-4.62768e-17
-1.89682e-07
4.25225e-09
2.68252e-08
3.11551e-07
4.2277e-06
5.99516e-05
0.000778059
0.00867419
0.0807912
0.622189
3.97177
21.2279
96.2657
375.132
1264.06
3634.67
8364.43
15855.6
24588.6
32604.3
39285.1
61040.5
90350.6
127107
173457
232366
307781
404864
530312
692794
903539
1.17711e+06
1.53242e+06
1.99404e+06
2.59397e+06
3.37386e+06
4.38806e+06
5.70746e+06
7.42474e+06
9.66116e+06
1.25461e+07
1.62324e+07
2.11881e+07
2.7646e+07
3.88387e+08
1.23939e+08
2.38248e+07
1.72097e+07
1.22676e+07
8.6183e+06
5.95929e+06
4.05177e+06
2.70904e+06
1.78704e+06
1.17683e+06
789778
248313
21112.5
622.898
10.0299
0.115304
0.00142217
2.95885e-05
1.37505e-06
1.43754e-07
2.81415e-08
8.12612e-09
2.96062e-09
1.21402e-09
5.7241e-10
2.37318e-10
1.00306e-10
4.52875e-11
1.94179e-11
7.9966e-12
2.74565e-12
1.50999e-12
6.44171e-13
2.64019e-13
1.07391e-13
4.0991e-14
1.54124e-14
4.25326e-12
1.06184e-15
3.62823e-13
0
0
-6.32148e-12
-5.09288e-12
-1.23618e-11
2.46084e-07
-1.13593e-15
2.36642e-07
-2.17276e-15
-2.25212e-07
4.11921e-15
6.1075e-10
-2.2296e-18
1.50712e-14
-2.93529e-14
-1.20105e-09
4.25224e-09
2.26653e-08
3.13798e-07
4.22769e-06
5.99515e-05
0.000778069
0.00867434
0.0807926
0.622201
3.97187
21.2285
96.2691
375.148
1264.13
3634.91
8365.02
15856.7
24590
32605.9
39286.8
61042.2
90352.6
127109
173459
232367
307782
404865
530312
692794
903539
1.17711e+06
1.53242e+06
1.99404e+06
2.59397e+06
3.37386e+06
4.38806e+06
5.70746e+06
7.42474e+06
9.66115e+06
1.25461e+07
1.62324e+07
2.11881e+07
2.7646e+07
3.88385e+08
1.23941e+08
2.38248e+07
1.72097e+07
1.22676e+07
8.6183e+06
5.95929e+06
4.05177e+06
2.70904e+06
1.78704e+06
1.17683e+06
789779
248316
21113.1
622.921
10.0303
0.115309
0.00142223
2.95905e-05
1.37505e-06
1.42655e-07
2.81414e-08
8.25086e-09
3.04184e-09
1.24391e-09
5.73022e-10
2.42812e-10
1.02596e-10
4.6456e-11
2.08206e-11
7.69338e-12
3.6096e-12
1.50999e-12
6.88114e-13
2.64019e-13
1.07391e-13
4.38024e-14
1.54124e-14
5.50646e-15
1.06184e-15
0
-2.59563e-07
-7.61648e-17
2.58129e-07
0
-2.53842e-07
0
-2.46909e-07
-1.14034e-15
-2.37782e-07
1.49663e-10
-6.12367e-19
-2.84797e-10
-2.32632e-18
2.10502e-07
-4.42475e-17
2.01361e-07
4.50987e-09
2.65848e-08
3.09554e-07
4.15764e-06
5.9213e-05
0.000767782
0.00854563
0.0794315
0.610336
3.88635
20.7139
93.6557
363.958
1225.69
3556.54
8557.55
15517.7
23602.9
31275.5
48770.6
73147.5
103583
141541
189222
249672
326934
426277
554522
720491
935597
1.21465e+06
1.57691e+06
2.04739e+06
2.65872e+06
3.45342e+06
4.48702e+06
5.83212e+06
7.58379e+06
9.86675e+06
1.28146e+07
1.65862e+07
2.16663e+07
2.83012e+07
3.83693e+08
1.26843e+08
2.44142e+07
1.75951e+07
1.25164e+07
8.7762e+06
6.05731e+06
4.111e+06
2.74372e+06
1.80675e+06
1.18812e+06
796459
249489
21268.7
631.886
10.2325
0.117929
0.00145223
3.00631e-05
1.38882e-06
1.45312e-07
2.81128e-08
8.42788e-09
2.98059e-09
1.21038e-09
5.09545e-10
2.43819e-10
1.02831e-10
4.63204e-11
1.84663e-11
8.45298e-12
3.59076e-12
1.53172e-12
6.52165e-13
2.44377e-13
1.08307e-13
4.1262e-14
1.5486e-14
5.52176e-15
9.74137e-16
3.63855e-13
0
0
0
-1.16443e-11
0
0
0
-4.00059e-11
0
0
6.33376e-19
-2.95562e-10
-2.24948e-07
2.2072e-07
3.22905e-14
-2.42246e-09
4.76685e-09
2.56144e-08
4.07584e-07
4.04231e-06
5.79112e-05
0.000748028
0.00829556
0.0768061
0.587627
3.7241
19.7462
88.7758
342.976
1149.52
3338.97
8206.91
16047.1
24171.3
35682.1
55426.9
80259.4
110953
149040
196759
257212
334497
433954
562499
729110
945181
1.22576e+06
1.59039e+06
2.06451e+06
2.68134e+06
3.48428e+06
4.53017e+06
5.89349e+06
7.67205e+06
9.99456e+06
1.29996e+07
1.6853e+07
2.20568e+07
2.88717e+07
3.7489e+08
1.33452e+08
2.49857e+07
1.79532e+07
1.27339e+07
8.90309e+06
6.12726e+06
4.14635e+06
2.75901e+06
1.81127e+06
1.18765e+06
794805
250836
21736.6
654.961
10.7195
0.124104
0.00152265
3.1191e-05
1.42411e-06
1.46297e-07
2.79707e-08
7.80822e-09
3.00962e-09
1.24788e-09
5.24217e-10
2.3976e-10
1.02382e-10
4.46269e-11
1.95973e-11
7.90651e-12
3.55075e-12
1.464e-12
6.60049e-13
2.46887e-13
1.09211e-13
-4.9609e-12
1.55573e-14
5.89248e-15
9.74927e-16
0
1.4678e-12
-2.64495e-12
1.18073e-11
0
0
0
2.57485e-07
2.54423e-07
0
0
4.5583e-15
-2.37835e-07
-2.5191e-18
1.31451e-09
2.26133e-07
-3.54058e-16
5.02316e-09
2.36303e-07
4.00152e-07
3.88366e-06
5.61452e-05
0.000720842
0.00795631
0.073271
0.557315
3.50966
18.4816
82.4769
316.181
1052.17
3046.18
7561.23
15433.2
25188.4
38268.9
58281.7
83195.5
113852
151629
198797
258486
334819
433135
560342
725399
940214
1.21997e+06
1.58457e+06
2.0595e+06
2.67864e+06
3.48629e+06
4.5406e+06
5.91796e+06
7.71897e+06
1.00764e+07
1.3134e+07
1.70641e+07
2.23857e+07
2.93737e+07
3.61985e+08
1.44049e+08
2.55523e+07
1.83047e+07
1.2944e+07
9.02246e+06
6.19018e+06
4.17554e+06
2.76914e+06
1.81151e+06
1.18354e+06
790584
254010
22666.8
697.253
11.5849
0.134968
0.00164606
3.31627e-05
1.48286e-06
1.50411e-07
2.83404e-08
8.07214e-09
2.94385e-09
1.20246e-09
5.386e-10
2.35117e-10
1.04764e-10
4.5576e-11
1.99105e-11
8.43591e-12
3.60586e-12
1.48401e-12
6.67808e-13
2.49345e-13
1.10095e-13
7.81968e-13
1.70572e-14
-7.32194e-13
9.75545e-16
0
-1.93076e-17
0
1.12099e-20
0
0
-8.9275e-20
0
2.60443e-07
0
1.63526e-10
0
0
7.66743e-10
7.54721e-10
-4.56737e-17
-1.46969e-09
5.27878e-09
1.86071e-08
4.02238e-07
3.82754e-06
5.37644e-05
0.000689505
0.00756284
0.0692023
0.522756
3.26786
17.0736
75.5602
287.164
947.728
2728.59
6796.14
14229.1
24480.4
38307.5
58219.6
82986.9
113124
150108
196245
254694
329614
426379
551919
715182
927843
1.2052e+06
1.56729e+06
2.04091e+06
2.66053e+06
3.47067e+06
4.53084e+06
5.91925e+06
7.73915e+06
1.01271e+07
1.32323e+07
1.72327e+07
2.26634e+07
2.9813e+07
3.44723e+08
1.58918e+08
2.61176e+07
1.8656e+07
1.31547e+07
9.14267e+06
6.25399e+06
4.20551e+06
2.77984e+06
1.81203e+06
1.1793e+06
786100
259843
24201.6
765.22
12.966
0.152277
0.00184163
3.62625e-05
1.57498e-06
1.54209e-07
2.86403e-08
8.32962e-09
2.95834e-09
1.23647e-09
5.0972e-10
2.40836e-10
1.01547e-10
4.80633e-11
1.95604e-11
8.97442e-12
3.65986e-12
1.59495e-12
6.29465e-13
2.74761e-13
1.10954e-13
4.20359e-14
1.71277e-14
5.92074e-15
9.75934e-16
-3.65404e-13
1.48019e-12
0
1.20359e-11
-5.42028e-12
1.0852e-11
4.83006e-11
0
0
-1.89423e-10
4.90987e-15
-2.57886e-07
0
2.51062e-07
1.42298e-09
-2.81316e-09
2.7865e-09
-3.05108e-09
2.20296e-08
3.94044e-07
3.53183e-06
5.16188e-05
0.000655525
0.00714663
0.0649334
0.486828
3.01922
15.6438
68.6347
258.545
846.102
2420.84
6032.63
12839.7
22936.6
36790.4
56214.6
80311.9
109654
145630
190492
247394
320496
415192
538465
699380
909711
1.18483e+06
1.54472e+06
2.01583e+06
2.63307e+06
3.44345e+06
4.50759e+06
5.90448e+06
7.73999e+06
1.01542e+07
1.33018e+07
1.73654e+07
2.28953e+07
3.01937e+07
3.22826e+08
1.78377e+08
2.66822e+07
1.90097e+07
1.33692e+07
9.26738e+06
6.32222e+06
4.23942e+06
2.79378e+06
1.81495e+06
1.17658e+06
782301
268780
26509.4
868.004
15.072
0.178803
0.00213937
4.08981e-05
1.71094e-06
1.62883e-07
3.01824e-08
8.57887e-09
3.04287e-09
1.23083e-09
5.2254e-10
2.24064e-10
1.03732e-10
4.45533e-11
1.99116e-11
8.71592e-12
8.77343e-12
1.52265e-12
6.82801e-13
1.02842e-12
1.05973e-13
7.94279e-13
1.86372e-14
5.57379e-15
9.75946e-16
3.6593e-13
2.65084e-07
-7.88552e-17
1.59182e-16
0
0
0
0
0
1.94123e-10
-2.68231e-07
0
-9.88382e-15
0
-8.33318e-18
-4.40445e-17
-1.30422e-09
7.26786e-14
1.73234e-08
2.6545e-07
3.46602e-06
4.91888e-05
0.000622162
0.006734
0.0607261
0.451695
2.77834
14.2736
62.0773
231.784
752.113
2137.3
5315.95
11422.5
20932.3
34313
52967.9
76219.2
104612
139465
182956
238209
309357
401789
522483
680521
887757
1.15973e+06
1.51685e+06
1.98585e+06
2.60183e+06
3.41102e+06
4.47518e+06
5.87737e+06
7.7257e+06
1.01622e+07
1.33472e+07
1.74672e+07
2.30866e+07
3.05211e+07
2.95367e+08
2.03108e+08
2.72461e+07
1.93672e+07
1.359e+07
9.39911e+06
6.3973e+06
4.27939e+06
2.81267e+06
1.82161e+06
1.17632e+06
780271
281004
29812.3
1019.31
18.2349
0.219067
0.00258828
4.77411e-05
1.91115e-06
1.74734e-07
3.17157e-08
8.66463e-09
3.20313e-09
1.21338e-09
5.10957e-10
2.41662e-10
1.05867e-10
4.17335e-11
2.02541e-11
8.85155e-12
3.76415e-12
1.54118e-12
6.43064e-13
2.79743e-13
1.18428e-13
4.54105e-14
1.72539e-14
5.58281e-15
9.75614e-16
-6.89157e-22
2.66199e-07
-2.7021e-07
0
-1.2375e-11
3.26202e-16
0
1.88042e-19
1.30759e-15
0
-3.95293e-10
0
0
-2.90226e-18
-5.75829e-18
-2.64862e-07
-3.13148e-16
-3.03906e-15
1.81218e-08
2.54092e-07
3.55397e-06
4.70686e-05
0.000590362
0.00634456
0.0567691
0.418831
2.55466
13.0125
56.104
207.676
668.348
1886.35
4678.04
10110.5
18877.5
31565
49093.4
71254
98633.2
132311
174404
227972
297116
387196
505182
660159
864016
1.13236e+06
1.48573e+06
1.95121e+06
2.56457e+06
3.37299e+06
4.43857e+06
5.84378e+06
7.69936e+06
1.01539e+07
1.33714e+07
1.75417e+07
2.32428e+07
3.08041e+07
2.61596e+08
2.34287e+08
2.7809e+07
1.97302e+07
1.38196e+07
9.54081e+06
6.4819e+06
4.32762e+06
2.83817e+06
1.83309e+06
1.17908e+06
778836
303572
34385.8
1240.05
22.9996
0.28078
0.00327213
5.78739e-05
2.19322e-06
1.9087e-07
3.25355e-08
9.04759e-09
3.10514e-09
1.33344e-09
5.88325e-10
2.33928e-10
1.19741e-10
4.62172e-11
2.57381e-11
8.9837e-12
3.81446e-12
1.65409e-12
6.96982e-13
2.82093e-13
1.19228e-13
-7.12579e-13
1.73074e-14
5.94997e-15
7.38176e-13
-2.61785e-07
2.8189e-21
5.73776e-21
2.75999e-07
-2.79159e-07
0
-2.27871e-11
-1.01891e-10
0
0
-7.62687e-19
7.58766e-19
-1.05074e-14
-2.99767e-18
-8.94117e-18
3.15546e-09
-3.07805e-16
-6.29361e-09
1.89173e-08
3.8454e-07
3.28126e-06
4.50991e-05
0.000561741
0.00599196
0.0531861
0.389144
2.3535
11.8855
50.8072
186.486
595.353
1668.94
4123.61
8939.51
16915.5
28738.3
45235.2
66279.3
92404
124765
165388
217227
284322
371977
487133
638853
839034
1.10332e+06
1.45236e+06
1.91342e+06
2.52259e+06
3.32766e+06
4.39205e+06
5.79979e+06
7.6619e+06
1.01276e+07
1.33713e+07
1.75859e+07
2.33589e+07
3.10334e+07
2.21276e+08
2.71932e+08
2.837e+07
2.01021e+07
1.40636e+07
9.6986e+06
6.58178e+06
4.38897e+06
2.87413e+06
1.85232e+06
1.18698e+06
779500
338376
40695
1565.99
30.3245
0.377787
0.00434055
7.31759e-05
2.60027e-06
2.13464e-07
3.50443e-08