/*--------------------------------*- C++ -*----------------------------------*\
  =========                 |
  \\      /  F ield         | OpenFOAM: The Open Source CFD Toolbox
   \\    /   O peration     | Website:  https://openfoam.org
    \\  /    A nd           | Version:  8
     \\/     M anipulation  |
\*---------------------------------------------------------------------------*/
FoamFile
{
    version     2.0;
    format      ascii;
    class       volScalarField;
    location    "940/fluid";
    object      rDeltaT;
}
// * * * * * * * * * * * * * * * * * * * * * * * * * * * * * * * * * * * * * //

dimensions      [0 0 -1 0 0 0 0];

internalField   nonuniform List<scalar> 
4000
(
513.505
539.557
564.416
588.227
610.926
632.413
652.558
671.219
688.264
703.59
717.159
729.027
739.37
748.523
756.979
765.24
773.693
782.52
791.619
800.601
808.86
815.703
820.476
822.657
821.928
818.102
811.072
800.808
787.35
770.783
751.23
741.721
765.076
809.716
853.529
896.401
938.25
979.005
1018.61
1057.02
1094.22
1130.18
1164.9
1198.37
1230.6
1261.6
1291.37
1319.93
1347.3
1373.48
1398.49
1422.35
1445.05
1466.61
1487.04
1506.32
1524.47
1541.34
1556.93
1571.48
1584.88
2795.29
15116.6
1574.47
1537.92
1496.48
1450.62
1400.87
1347.65
1291.33
1232.32
1171.1
1108.24
1044.27
979.912
916.614
856.376
801.615
755.29
720.046
696.874
684.338
679.191
677.908
677.666
676.696
674.01
669.253
662.454
653.799
643.522
631.858
619.026
605.219
590.601
575.304
559.433
543.057
526.218
508.869
513.028
538.421
562.487
585.157
606.403
626.148
644.298
660.764
675.479
688.426
699.665
709.358
717.79
725.39
732.642
740.019
747.903
756.481
765.664
775.065
784.06
791.905
797.869
801.353
801.904
799.217
793.135
783.618
770.716
754.54
735.241
712.996
715.566
753.025
798.051
842.336
885.775
928.278
969.773
1010.21
1049.53
1087.73
1124.78
1160.67
1195.39
1228.95
1261.37
1292.64
1322.78
1351.81
1379.75
1406.6
1432.39
1457.15
1480.87
1503.59
1525.3
1545.87
1565.35
1584.05
1601.86
4387.06
13722.4
1585.14
1543.86
1498.96
1450.32
1398.04
1342.31
1283.33
1221.41
1156.9
1090.28
1021.99
952.941
884.999
820.792
763.574
716.601
682.216
660.652
649.736
645.95
645.888
647.01
647.755
647.3
645.186
641.26
635.546
628.15
619.214
608.893
597.339
584.695
571.083
556.605
541.334
525.309
508.56
512.323
536.155
558.485
579.279
598.476
616.013
631.836
645.91
658.236
668.875
677.964
685.734
692.519
698.74
704.844
711.288
718.457
726.549
735.493
744.925
754.239
762.7
769.562
774.165
775.959
774.56
769.757
761.473
749.735
734.637
716.32
694.953
678.021
694.89
740.21
785.093
829.418
873.08
915.994
958.091
999.319
1039.64
1079.02
1117.44
1154.89
1191.37
1226.89
1261.44
1295.05
1327.73
1359.5
1390.39
1420.42
1449.63
1478.03
1505.64
1532.46
1558.29
1583.11
1607.06
1629.56
7151.35
11108.5
1604.18
1558.19
1508.46
1455.07
1398.1
1337.7
1274.05
1207.43
1138.21
1066.93
994.141
921.128
850.182
784.3
726.971
681.285
648.934
629.413
620.153
617.638
618.643
620.81
622.688
623.558
623.055
621.004
617.359
612.148
605.435
597.308
587.862
577.191
565.384
552.519
538.659
523.852
508.114
511.634
534.083
554.962
574.226
591.832
607.74
621.925
634.381
645.141
654.284
661.961
668.403
673.935
678.97
683.981
689.445
695.75
703.097
711.418
720.352
729.3
737.526
744.278
748.888
750.822
749.706
745.311
737.535
726.371
711.883
694.185
673.422
649.76
649.909
685.554
730.752
775.676
820.22
864.292
907.818
950.736
993.001
1034.57
1075.43
1115.55
1154.94
1193.57
1231.45
1268.6
1305.02
1340.72
1375.73
1410.05
1443.7
1476.66
1508.9
1540.37
1570.73
1599.86
1627.76
1653.65
10483
7867.51
1616.53
1566.68
1512.57
1454.49
1392.7
1327.46
1259.08
1187.94
1114.6
1039.71
964.04
889.235
817.804
752.762
697.307
654.094
624.287
606.922
599.245
597.835
599.69
602.652
605.375
607.138
607.594
606.603
604.129
600.19
594.829
588.104
580.075
570.804
560.349
548.765
536.095
522.377
507.634
510.896
531.843
551.172
568.845
584.827
599.091
611.627
622.451
631.613
639.218
645.434
650.51
654.783
658.673
662.653
667.193
672.673
679.29
686.975
695.378
703.907
711.833
718.404
722.945
724.911
723.914
719.713
712.189
701.319
687.153
669.787
649.352
625.998
612.482
633.843
679.213
724.577
769.829
814.875
859.638
904.054
948.071
991.646
1034.75
1077.36
1119.44
1161
1202.02
1242.5
1282.43
1321.81
1360.63
1398.87
1436.5
1473.46
1509.68
1544.97
1578.9
1611.33
1642.09
1670.18
13752.5
4562.3
1620.3
1567.54
1509.84
1447.78
1381.85
1312.51
1240.2
1165.48
1089.02
1011.58
934.091
858.437
787.199
723.35
669.877
629.049
601.545
586.022
579.61
579.023
581.481
585.025
588.427
591.014
592.44
592.542
591.257
588.576
584.519
579.118
572.415
564.451
555.27
544.913
533.415
520.81
507.121
510.157
529.629
547.474
563.658
578.151
590.939
602.023
611.431
619.227
625.522
630.493
634.39
637.549
640.383
643.358
646.935
651.49
657.218
664.06
671.677
679.494
686.795
692.838
696.95
698.587
697.353
692.997
685.387
674.487
660.332
643.002
622.613
599.3
575.085
585.326
630.781
676.473
722.296
768.156
813.976
859.688
905.237
950.576
995.667
1040.47
1084.97
1129.12
1172.92
1216.34
1259.36
1301.93
1344.04
1385.61
1426.58
1466.83
1506.2
1544.48
1581.09
1615.84
1648.46
1677.79
16689.2
1664.06
1616.08
1560.97
1500.24
1434.87
1365.57
1292.97
1217.66
1140.32
1061.76
982.754
904.43
828.821
758.542
696.487
645.418
607.234
582.187
568.619
563.573
563.873
566.928
570.942
574.808
577.916
579.954
580.768
580.294
578.511
575.425
571.051
565.413
558.538
550.456
541.193
530.779
519.24
506.599
509.411
527.394
543.755
558.462
571.493
582.838
592.508
600.538
607.001
612.016
615.764
618.499
620.555
622.344
624.323
626.946
630.582
635.422
641.408
648.207
655.255
661.846
667.244
670.78
671.911
670.238
665.504
657.571
646.394
631.996
614.45
593.859
570.346
544.051
545.833
584.729
630.667
676.952
723.491
770.205
817.025
863.892
910.751
957.554
1004.26
1050.83
1097.23
1143.42
1189.35
1234.99
1280.27
1325.12
1369.46
1413.16
1456.07
1497.96
1538.55
1577.06
1613.68
1647.33
1677
18015.7
1657.5
1605.88
1547.79
1484.32
1416.34
1344.6
1269.76
1192.49
1113.55
1033.82
954.104
875.68
800.688
731.736
671.621
622.893
587.132
564.243
552.337
548.432
549.482
553.069
557.536
561.869
565.505
568.149
569.651
569.941
568.992
566.796
563.361
558.699
552.828
545.768
537.54
528.167
517.671
506.075
508.667
525.175
540.074
553.337
564.948
574.903
583.218
589.935
595.13
598.927
601.508
603.127
604.115
604.874
605.856
607.504
610.179
614.071
619.124
625.012
631.179
636.931
641.54
644.343
644.798
642.505
637.204
628.751
617.097
602.258
584.297
563.308
539.407
512.722
508.092
540.598
586.697
633.334
680.417
727.863
775.602
823.568
871.7
919.947
968.256
1016.58
1064.86
1113.04
1161.08
1208.89
1256.4
1303.52
1350.12
1396.05
1441.11
1485.04
1527.4
1567.47
1605.22
1639.35
1668.46
17636.5
1643.49
1589.25
1528.9
1463.42
1393.62
1320.23
1243.96
1165.53
1085.74
1005.53
925.719
847.719
773.733
706.351
648.287
601.903
568.493
547.669
537.354
534.556
536.344
540.451
545.342
550.087
554.174
557.329
559.412
560.353
560.121
558.704
556.1
552.315
547.359
541.246
533.992
525.612
516.127
505.557
507.927
522.964
536.412
548.247
558.457
567.043
574.025
579.449
583.396
585.991
587.418
587.929
587.85
587.579
587.558
588.221
589.923
592.848
596.938
601.874
607.107
611.949
615.682
617.647
617.305
614.259
608.246
599.123
586.835
571.394
552.858
531.317
506.877
479.659
470.138
497.862
544.04
590.924
638.42
686.447
734.926
783.788
832.969
882.406
932.038
981.804
1031.64
1081.47
1131.23
1180.82
1230.15
1279.09
1327.5
1375.19
1421.93
1467.42
1511.16
1552.44
1591.16
1625.95
2311.73
16817.7
1624.27
1568.05
1506.04
1439.14
1368.12
1293.71
1216.63
1137.62
1057.56
977.354
897.881
820.643
747.897
682.206
626.19
582.037
550.799
531.841
522.953
521.156
523.632
528.246
533.568
538.738
543.282
546.944
549.593
551.159
551.609
550.927
549.107
546.151
542.063
536.852
530.531
523.111
514.61
505.048
507.19
520.768
532.777
543.199
552.024
559.258
564.925
569.075
571.79
573.197
573.481
572.889
571.746
570.441
569.407
569.07
569.776
571.704
574.796
578.735
582.977
586.844
589.623
590.662
589.426
585.52
578.683
568.771
555.728
539.564
520.334
498.121
473.031
445.176
431.948
456.132
502.307
549.336
597.125
645.587
694.643
744.218
794.242
844.644
895.356
946.303
997.409
1048.59
1099.76
1150.8
1201.61
1252.04
1301.91
1351.04
1399.15
1445.94
1490.87
1533.27
1573.08
1609.04
4716.16
14784.3
1599.98
1542.75
1479.86
1412.2
1340.56
1265.67
1188.3
1109.2
1029.28
949.447
870.617
794.378
723.009
659.05
605.041
563.011
533.799
516.568
509.003
508.149
511.293
516.415
522.176
527.775
532.773
536.933
540.128
542.294
543.395
543.414
542.342
540.177
536.92
532.577
527.156
520.668
513.127
504.548
506.459
518.585
529.164
538.181
545.63
551.521
555.882
558.764
560.252
560.474
559.614
557.918
555.704
553.357
551.299
549.95
549.644
550.556
552.625
555.534
558.748
561.591
563.359
563.405
561.199
556.351
548.603
537.812
523.921
506.94
486.924
463.953
438.128
409.561
393.52
415.09
461.183
508.26
556.228
604.997
654.484
704.611
755.299
806.473
858.054
909.96
962.104
1014.39
1066.72
1118.96
1170.99
1222.66
1273.76
1324.1
1373.39
1421.3
1467.3
1510.72
1551.49
1588.38
6865.02
12744.6
1572.15
1514.6
1451.4
1383.48
1311.67
1236.73
1159.43
1080.59
1001.12
921.93
843.953
768.859
698.945
636.719
584.643
544.608
517.265
501.612
495.26
495.288
499.079
504.715
510.931
516.98
522.449
527.117
530.864
533.627
535.372
536.079
535.738
534.345
531.898
528.401
523.858
518.279
511.675
504.06
505.731
516.415
525.572
533.191
539.271
543.825
546.882
548.499
548.762
547.798
545.791
542.986
539.695
536.296
533.204
530.828
529.496
529.372
530.396
532.249
534.399
536.179
536.888
535.888
532.654
526.801
518.074
506.333
491.525
473.659
452.789
428.996
402.379
373.047
354.859
374.497
420.432
467.471
515.516
564.477
614.267
664.803
716.002
767.782
820.056
872.736
925.724
978.915
1032.2
1085.43
1138.49
1191.18
1243.33
1294.69
1344.98
1393.86
1440.78
1485.08
1526.68
1564.32
8769.63
10939.5
1542.03
1484.5
1421.35
1353.52
1281.88
1207.21
1130.3
1051.99
973.199
894.832
817.855
744.003
675.578
615.058
564.831
526.663
501.049
486.848
481.619
482.484
486.909
493.068
499.758
506.277
512.236
517.425
521.733
525.098
527.486
528.877
529.259
528.626
526.975
524.308
520.627
515.939
510.253
503.582
505.007
514.255
521.996
528.223
532.937
536.156
537.912
538.263
537.298
535.145
531.986
528.064
523.687
519.227
515.091
511.677
509.304
508.131
508.091
508.867
509.928
510.611
510.226
508.138
503.83
496.922
487.166
474.423
458.644
439.842
418.07
393.41
365.961
335.83
315.981
334.175
379.884
426.804
474.836
523.887
573.869
624.692
676.271
728.516
781.336
834.634
888.306
942.239
996.308
1050.37
1104.28
1157.85
1210.88
1263.11
1314.28
1364.01
1411.74
1456.82
1499.16
1537.47
10376.2
9435.81
1510.35
1453.08
1390.22
1322.75
1251.53
1177.37
1101.08
1023.49
945.554
868.151
792.281
719.736
652.811
593.953
545.483
509.057
485.034
472.168
467.983
469.643
474.695
481.387
488.573
495.585
502.056
507.788
512.672
516.65
519.688
521.765
522.869
522.993
522.131
520.284
517.453
513.642
508.859
503.113
504.287
512.105
518.435
523.272
526.623
528.507
528.962
528.045
525.849
522.502
518.185
513.138
507.668
502.138
496.947
492.485
489.06
486.825
485.706
485.386
485.337
484.899
483.389
480.181
474.764
466.764
455.939
442.156
425.369
405.593
382.885
357.328
329.02
298.07
276.907
293.997
339.417
386.146
434.085
483.139
533.214
584.221
636.067
688.66
741.903
795.692
849.916
904.456
959.179
1013.94
1068.57
1122.88
1176.67
1229.67
1281.6
1332.1
1380.56
1426.36
1469.39
1508.38
11723.5
8187.94
1477.6
1420.74
1358.36
1291.44
1220.84
1147.37
1071.86
995.155
918.199
841.869
767.187
695.988
630.555
573.307
526.502
491.699
469.144
457.507
454.295
456.716
462.39
469.628
477.331
484.861
491.868
498.162
503.64
508.245
511.943
514.714
516.544
517.424
517.349
516.317
514.327
511.383
507.488
502.653
503.57
509.963
514.885
518.335
520.323
520.873
520.024
517.837
514.405
509.858
504.377
498.2
491.627
485.018
478.764
473.245
468.76
465.452
463.242
461.812
460.635
459.057
456.4
452.046
445.492
436.371
424.449
409.597
391.774
370.999
347.333
320.859
291.678
259.898
237.661
253.872
298.946
345.422
393.197
442.176
492.263
543.364
595.384
648.225
701.786
755.959
810.627
865.664
920.93
976.272
1031.52
1086.48
1140.94
1194.62
1247.24
1298.42
1347.57
1394.04
1437.76
1477.44
12820.2
7196.74
1444.11
1387.78
1326.01
1259.77
1189.93
1117.31
1042.71
967.008
891.137
815.962
742.528
672.694
608.738
553.046
507.818
474.528
453.328
442.819
440.51
443.664
449.958
457.756
465.997
474.07
481.636
488.515
494.607
499.854
504.226
507.699
510.261
511.901
512.613
512.393
511.24
509.153
506.138
502.2
502.854
507.827
511.343
513.407
514.034
513.248
511.093
507.632
502.96
497.208
490.557
483.242
475.56
467.866
460.541
453.956
448.402
444.013
440.703
438.152
435.833
433.099
429.277
423.758
416.046
405.785
392.743
376.802
357.925
336.135
311.496
284.095
254.033
221.421
198.268
213.741
258.419
304.585
352.136
400.973
450.999
502.118
554.231
607.237
661.03
715.497
770.518
825.961
881.682
937.523
993.308
1048.84
1103.88
1158.18
1211.43
1263.25
1313.04
1360.18
1404.58
1444.96
13695.5
6415.78
1410.08
1354.37
1293.32
1227.89
1158.93
1087.26
1013.68
939.068
864.358
790.397
718.249
649.79
587.287
533.096
489.369
457.505
437.571
428.101
426.603
430.462
437.378
445.751
454.553
463.191
471.34
478.825
485.548
491.456
496.514
500.701
504.003
506.408
507.91
508.502
508.182
506.949
504.804
501.753
502.141
505.695
507.807
508.487
507.751
505.628
502.164
497.426
491.51
484.548
476.72
468.261
459.464
450.677
442.275
434.62
427.99
422.512
418.095
414.413
410.942
407.039
402.039
395.34
386.456
375.038
360.863
343.819
323.876
301.061
275.442
247.11
216.167
182.725
158.755
173.567
217.805
263.611
310.883
359.521
409.424
460.494
512.631
565.729
619.681
674.368
729.668
785.443
841.546
897.814
954.064
1010.09
1065.67
1120.53
1174.36
1226.78
1277.21
1324.99
1370.08
1411.18
14386.2
5818.48
1375.66
1320.65
1260.42
1195.88
1127.89
1057.26
984.789
911.339
837.848
765.146
694.307
627.218
566.132
513.377
471.063
440.535
421.817
413.372
412.608
417.139
424.667
433.622
442.997
452.217
460.968
469.076
476.449
483.031
488.79
493.703
497.754
500.932
503.228
504.634
505.147
504.763
503.484
501.31
501.428
503.566
504.276
503.571
501.471
498.009
493.234
487.215
480.05
471.873
462.863
453.255
443.337
433.452
423.967
415.235
407.525
400.953
395.422
390.602
385.972
380.891
374.702
366.812
356.745
344.159
328.841
310.686
289.67
265.826
239.225
209.962
178.142
143.879
119.147
133.332
177.09
222.493
269.439
317.825
367.551
418.515
470.616
523.745
577.792
632.635
688.148
744.191
800.612
857.244
913.902
970.379
1026.44
1081.81
1136.19
1189.19
1240.22
1288.65
1334.42
1376.25
14902.7
5392.52
1340.94
1286.71
1227.36
1163.81
1096.87
1027.36
956.059
883.831
811.604
740.195
670.681
604.951
545.241
493.851
452.852
423.544
405.948
398.525
398.507
403.694
411.825
421.361
431.318
441.135
450.502
459.252
467.291
474.564
481.037
486.688
491.5
495.459
498.554
500.779
502.125
502.591
502.173
500.872
500.717
501.439
500.747
498.656
495.191
490.387
484.298
476.994
468.577
459.18
448.984
438.22
427.176
416.188
405.616
395.803
387.009
379.338
372.688
366.726
360.929
354.663
347.278
338.189
326.93
313.169
296.703
277.432
255.34
230.466
202.886
172.697
140.009
104.936
100
100
136.275
181.236
227.813
275.902
325.402
376.21
428.221
481.326
535.411
590.353
646.021
702.275
758.958
815.901
872.916
929.793
986.294
1042.15
1097.04
1150.59
1202.21
1251.27
1297.72
1340.3
15255.1
5126.84
1305.98
1252.61
1194.22
1131.71
1065.9
997.567
927.5
856.542
785.617
715.529
647.354
582.971
524.598
474.505
434.725
406.522
389.918
383.435
384.234
390.081
398.812
408.935
419.486
429.915
439.918
449.327
458.05
466.031
473.235
479.639
485.223
489.973
493.877
496.925
499.11
500.425
500.868
500.435
500.006
499.313
497.218
493.741
488.908
482.761
475.354
466.761
457.086
446.465
435.077
423.154
410.98
398.884
387.221
376.323
366.439
357.667
349.894
342.785
335.817
328.36
319.773
309.479
297.024
282.084
264.465
244.077
220.91
195.009
166.454
135.348
101.802
100
100
100
100
139.857
186.026
233.777
283.007
333.612
385.485
438.515
492.586
547.573
603.345
659.756
716.65
773.856
831.182
888.416
945.319
1001.62
1057
1111.08
1163.27
1212.95
1260.07
1303.39
15442.8
5010.31
1270.81
1218.37
1161.02
1099.64
1035.01
967.903
899.111
829.461
759.87
691.127
624.301
561.257
504.189
455.338
416.704
389.519
373.765
368.026
369.656
376.186
385.542
396.276
407.447
418.514
429.177
439.27
448.699
457.408
465.362
472.535
478.906
484.46
489.183
493.064
496.092
498.261
499.565
500
500.006
499.313
497.218
493.74
488.908
482.761
475.353
466.761
457.086
446.465
435.077
423.154
410.979
398.883
387.22
376.322
366.439
357.667
349.893
342.784
335.816
328.359
319.772
309.479
297.023
282.083
264.464
244.076
220.909
195.008
166.453
135.347
101.801
100
100
100
100
139.856
186.025
233.776
283.006
333.611
385.484
438.514
492.585
547.573
603.344
659.756
716.65
773.855
831.181
888.416
945.319
1001.62
1057
1111.08
1163.27
1212.95
1260.07
1303.39
15442.7
5010.39
1270.81
1218.37
1161.02
1099.63
1035
967.903
899.11
829.461
759.869
691.127
624.301
561.256
504.188
455.337
416.703
389.517
373.764
368.024
369.655
376.185
385.541
396.275
407.446
418.513
429.176
439.269
448.698
457.407
465.361
472.534
478.906
484.46
489.183
493.063
496.092
498.261
499.565
500
500.717
501.439
500.747
498.656
495.19
490.387
484.297
476.994
468.576
459.179
448.983
438.219
427.175
416.187
405.615
395.802
387.007
379.337
372.686
366.724
360.927
354.661
347.276
338.187
326.928
313.168
296.701
277.43
255.338
230.464
202.884
172.695
140.007
104.934
100
100
136.274
181.235
227.811
275.901
325.401
376.209
428.22
481.325
535.41
590.352
646.021
702.274
758.958
815.901
872.916
929.793
986.294
1042.15
1097.04
1150.59
1202.21
1251.27
1297.72
1340.3
15254.8
5127.1
1305.98
1252.61
1194.22
1131.71
1065.9
997.567
927.499
856.541
785.617
715.529
647.353
582.97
524.597
474.504
434.723
406.52
389.915
383.433
384.231
390.078
398.81
408.933
419.484
429.913
439.916
449.325
458.048
466.029
473.234
479.638
485.222
489.972
493.876
496.925
499.11
500.425
500.867
500.435
501.428
503.566
504.276
503.57
501.47
498.008
493.233
487.214
480.049
471.872
462.862
453.254
443.336
433.451
423.966
415.234
407.524
400.952
395.42
390.601
385.97
380.889
374.701
366.81
356.743
344.157
328.839
310.684
289.668
265.824
239.223
209.96
178.14
143.877
119.145
133.331
177.088
222.492
269.437
317.823
367.55
418.514
470.615
523.745
577.791
632.635
688.148
744.191
800.612
857.244
913.902
970.379
1026.44
1081.81
1136.19
1189.19
1240.22
1288.65
1334.42
1376.26
14902.3
5392.94
1340.94
1286.71
1227.36
1163.81
1096.87
1027.36
956.06
883.831
811.604
740.195
670.682
604.951
545.241
493.85
452.85
423.542
405.946
398.522
398.504
403.691
411.822
421.358
431.316
441.133
450.5
459.25
467.289
474.562
481.036
486.687
491.499
495.458
498.554
500.778
502.125
502.591
502.173
500.872
502.141
505.695
507.807
508.487
507.75
505.627
502.163
497.425
491.509
484.547
476.719
468.26
459.463
450.676
442.274
434.618
427.989
422.511
418.093
414.411
410.941
407.038
402.038
395.338
386.454
375.036
360.861
343.817
323.874
301.059
275.44
247.107
216.165
182.723
158.753
173.565
217.803
263.61
310.882
359.52
409.423
460.494
512.63
565.729
619.68
674.368
729.668
785.443
841.547
897.814
954.065
1010.09
1065.67
1120.53
1174.36
1226.78
1277.21
1325
1370.08
1411.18
14385.6
5819.06
1375.66
1320.66
1260.42
1195.88
1127.89
1057.26
984.791
911.341
837.85
765.148
694.309
627.219
566.132
513.377
471.062
440.533
421.815
413.37
412.605
417.136
424.664
433.619
442.994
452.215
460.965
469.074
476.447
483.03
488.789
493.702
497.753
500.931
503.227
504.634
505.146
504.763
503.484
501.31
502.854
507.826
511.343
513.407
514.033
513.248
511.092
507.632
502.959
497.208
490.556
483.241
475.559
467.864
460.54
453.955
448.401
444.011
440.702
438.15
435.832
433.097
429.275
423.756
416.044
405.783
392.741
376.8
357.923
336.133
311.494
284.093
254.031
221.419
198.266
213.739
258.418
304.584
352.135
400.972
450.999
502.117
554.23
607.237
661.03
715.497
770.518
825.961
881.683
937.524
993.309
1048.84
1103.88
1158.18
1211.43
1263.25
1313.05
1360.18
1404.59
1444.96
13694.9
6416.49
1410.08
1354.38
1293.33
1227.89
1158.93
1087.26
1013.69
939.071
864.361
790.4
718.252
649.792
587.289
533.097
489.369
457.504
437.569
428.099
426.6
430.459
437.374
445.748
454.55
463.188
471.338
478.823
485.546
491.454
496.512
500.7
504.002
506.408
507.909
508.502
508.182
506.949
504.804
501.753
503.57
509.963
514.884
518.335
520.323
520.873
520.023
517.836
514.404
509.857
504.376
498.199
491.626
485.017
478.763
473.244
468.758
465.45
463.241
461.811
460.633
459.055
456.398
452.044
445.49
436.37
424.447
409.594
391.772
370.997
347.331
320.857
291.675
259.895
237.659
253.871
298.945
345.421
393.197
442.176
492.263
543.364
595.384
648.225
701.787
755.96
810.628
865.665
920.931
976.274
1031.52
1086.48
1140.94
1194.63
1247.24
1298.42
1347.57
1394.05
1437.77
1477.44
12819.5
7197.52
1444.11
1387.78
1326.02
1259.78
1189.94
1117.31
1042.72
967.013
891.142
815.966
742.532
672.698
608.741
553.048
507.819
474.528
453.326
442.816
440.507
443.661
449.955
457.753
465.994
474.067
481.634
488.513
494.605
499.853
504.224
507.698
510.26
511.9
512.612
512.392
511.239
509.153
506.138
502.2
504.287
512.105
518.435
523.272
526.623
528.507
528.961
528.045
525.848
522.501
518.184
513.137
507.667
502.136
496.945
492.483
489.059
486.824
485.705
485.385
485.335
484.898
483.388
480.179
474.762
466.762
455.937
442.154
425.366
405.59
382.883
357.325
329.018
298.067
276.906
293.996
339.416
386.145
434.085
483.138
533.214
584.221
636.068
688.661
741.903
795.692
849.917
904.457
959.18
1013.94
1068.57
1122.88
1176.67
1229.68
1281.61
1332.1
1380.57
1426.36
1469.4
1508.38
11722.9
8188.7
1477.6
1420.75
1358.37
1291.44
1220.84
1147.38
1071.87
995.161
918.205
841.875
767.193
695.993
630.56
573.311
526.504
491.699
469.143
457.504
454.292
456.713
462.387
469.625
477.328
484.858
491.865
498.16
503.638
508.244
511.942
514.713
516.543
517.423
517.348
516.316
514.327
511.382
507.488
502.653
505.007
514.255
521.996
528.223
532.937
536.155
537.912
538.263
537.297
535.144
531.985
528.063
523.686
519.226
515.09
511.676
509.303
508.13
508.09
508.866
509.926
510.61
510.224
508.136
503.828
496.921
487.164
474.421
458.642
439.84
418.068
393.408
365.958
335.828
315.98
334.175
379.884
426.804
474.836
523.887
573.869
624.692
676.271
728.517
781.337
834.635
888.308
942.241
996.31
1050.38
1104.28
1157.86
1210.88
1263.12
1314.28
1364.01
1411.75
1456.83
1499.16
1537.48
10376
9436.28
1510.36
1453.09
1390.23
1322.76
1251.54
1177.38
1101.09
1023.5
945.562
868.159
792.288
719.743
652.817
593.957
545.486
509.058
485.034
472.167
467.981
469.64
474.692
481.384
488.57
495.582
502.054
507.786
512.67
516.649
519.687
521.764
522.868
522.992
522.131
520.284
517.453
513.642
508.859
503.113
505.731
516.415
525.572
533.191
539.271
543.824
546.882
548.499
548.761
547.798
545.79
542.985
539.694
536.294
533.203
530.827
529.494
529.371
530.394
532.248
534.398
536.177
536.887
535.886
532.653
526.799
518.073
506.331
491.523
473.657
452.787
428.994
402.377
373.045
354.858
374.497
420.432
467.471
515.516
564.477
614.267
664.803
716.003
767.782
820.057
872.737
925.725
978.917
1032.2
1085.44
1138.49
1191.19
1243.33
1294.69
1344.98
1393.86
1440.78
1485.08
1526.69
1564.33
8770.33
10939.5
1542.04
1484.51
1421.36
1353.53
1281.89
1207.22
1130.31
1052
973.209
894.842
817.864
744.012
675.586
615.064
564.835
526.665
501.049
486.847
481.617
482.481
486.906
493.065
499.755
506.274
512.233
517.423
521.731
525.097
527.485
528.876
529.258
528.625
526.975
524.308
520.627
515.939
510.253
503.582
506.459
518.585
529.164
538.181
545.63
551.521
555.881
558.763
560.251
560.474
559.613
557.917
555.703
553.356
551.298
549.949
549.643
550.555
552.624
555.533
558.746
561.59
563.357
563.403
561.198
556.35
548.602
537.81
523.919
506.938
486.922
463.951
438.126
409.559
393.519
415.09
461.183
508.261
556.229
604.997
654.485
704.611
755.3
806.474
858.055
909.961
962.105
1014.39
1066.72
1118.96
1171
1222.66
1273.77
1324.1
1373.39
1421.31
1467.3
1510.72
1551.5
1588.39
6867.42
12743.3
1572.16
1514.6
1451.4
1383.49
1311.67
1236.73
1159.44
1080.6
1001.13
921.94
843.963
768.869
698.954
636.727
584.649
544.611
517.266
501.612
495.258
495.286
499.076
504.712
510.929
516.978
522.447
527.115
530.862
533.626
535.371
536.078
535.738
534.344
531.897
528.4
523.858
518.279
511.675
504.06
507.19
520.768
532.777
543.198
552.023
559.257
564.924
569.074
571.789
573.197
573.48
572.888
571.745
570.44
569.406
569.069
569.775
571.703
574.795
578.734
582.976
586.843
589.622
590.661
589.425
585.518
578.682
568.77
555.726
539.562
520.332
498.119
473.029
445.174
431.948
456.133
502.308
549.336
597.125
645.587
694.643
744.219
794.242
844.645
895.356
946.303
997.41
1048.59
1099.76
1150.81
1201.61
1252.04
1301.92
1351.04
1399.16
1445.94
1490.87
1533.28
1573.09
1609.06
4720.3
14783.9
1599.99
1542.76
1479.87
1412.21
1340.57
1265.69
1188.31
1109.21
1029.29
949.458
870.628
794.39
723.02
659.059
605.048
563.016
533.801
516.568
509.002
508.147
511.29
516.413
522.173
527.773
532.771
536.931
540.127
542.293
543.394
543.413
542.341
540.176
536.92
532.577
527.156
520.668
513.127
504.548
507.927
522.964
536.412
548.247
558.457
567.043
574.025
579.449
583.396
585.991
587.417
587.928
587.849
587.578
587.557
588.22
589.922
592.847
596.937
601.873
607.106
611.948
615.681
617.646
617.304
614.257
608.245
599.122
586.833
571.392
552.857
531.315
506.875
479.657
470.137
497.862
544.04
590.924
638.421
686.447
734.927
783.789
832.969
882.406
932.039
981.805
1031.64
1081.47
1131.23
1180.82
1230.15
1279.09
1327.5
1375.19
1421.94
1467.42
1511.16
1552.45
1591.17
1625.96
2320.56
16810
1624.28
1568.05
1506.05
1439.15
1368.13
1293.72
1216.64
1137.64
1057.57
977.371
897.895
820.656
747.909
682.217
626.199
582.043
550.802
531.842
522.953
521.154
523.63
528.244
533.566
538.737
543.28
546.943
549.592
551.159
551.609
550.927
549.107
546.151
542.063
536.852
530.531
523.111
514.61
505.048
508.667
525.175
540.074
553.337
564.948
574.903
583.218
589.935
595.13
598.926
601.507
603.126
604.114
604.873
605.855
607.503
610.178
614.071
619.123
625.011
631.179
636.93
641.54
644.342
644.797
642.504
637.202
628.75
617.096
602.256
584.295
563.306
539.405
512.72
508.092
540.599
586.698
633.335
680.417
727.863
775.602
823.568
871.7
919.947
968.255
1016.58
1064.86
1113.04
1161.08
1208.89
1256.41
1303.52
1350.12
1396.05
1441.12
1485.04
1527.41
1567.47
1605.23
1639.36
1668.47
17636
1643.49
1589.25
1528.91
1463.43
1393.63
1320.24
1243.97
1165.54
1085.76
1005.54
925.735
847.731
773.742
706.36
648.296
601.909
568.497
547.671
537.354
534.555
536.343
540.449
545.34
550.086
554.173
557.328
559.411
560.353
560.121
558.703
556.099
552.315
547.359
541.246
533.992
525.612
516.127
505.557
509.411
527.394
543.755
558.462
571.492
582.838
592.508
600.538
607.001
612.016
615.763
618.498
620.555
622.343
624.322
626.945
630.581
635.421
641.407
648.207
655.255
661.845
667.243
670.779
671.91
670.237
665.503
657.57
646.392
631.995
614.449
593.857
570.345
544.049
545.832
584.73
630.668
676.952
723.492
770.206
817.025
863.892
910.751
957.554
1004.26
1050.83
1097.23
1143.42
1189.35
1234.99
1280.27
1325.12
1369.46
1413.16
1456.07
1497.97
1538.56
1577.06
1613.69
1647.34
1677.01
18016.2
1657.51
1605.89
1547.8
1484.33
1416.35
1344.61
1269.77
1192.5
1113.56
1033.83
954.119
875.699
800.707
731.751
671.633
622.902
587.138
564.246
552.338
548.432
549.481
553.068
557.535
561.868
565.504
568.148
569.65
569.941
568.991
566.796
563.361
558.699
552.828
545.768
537.541
528.167
517.671
506.075
510.157
529.629
547.474
563.658
578.151
590.939
602.023
611.431
619.226
625.522
630.492
634.389
637.548
640.382
643.357
646.934
651.489
657.217
664.06
671.677
679.493
686.794
692.837
696.949
698.586
697.352
692.996
685.386
674.486
660.33
643
622.611
599.299
575.084
585.327
630.782
676.474
722.296
768.157
813.976
859.688
905.236
950.576
995.666
1040.47
1084.97
1129.12
1172.92
1216.34
1259.36
1301.93
1344.04
1385.61
1426.58
1466.83
1506.2
1544.48
1581.09
1615.84
1648.47
1677.8
16689.6
1664.07
1616.09
1560.98
1500.25
1434.87
1365.58
1292.98
1217.67
1140.33
1061.77
982.766
904.441
828.833
758.554
696.498
645.427
607.24
582.191
568.621
563.573
563.872
566.927
570.941
574.807
577.916
579.953
580.768
580.294
578.511
575.425
571.051
565.413
558.538
550.456
541.193
530.779
519.24
506.599
510.896
531.843
551.172
568.845
584.827
599.091
611.627
622.451
631.613
639.218
645.433
650.509
654.782
658.672
662.652
667.192
672.673
679.29
686.975
695.378
703.906
711.832
718.404
722.944
724.91
723.913
719.712
712.187
701.318
687.151
669.785
649.35
625.995
612.482
633.844
679.214
724.579
769.83
814.876
859.639
904.055
948.071
991.647
1034.75
1077.36
1119.44
1161
1202.02
1242.5
1282.43
1321.81
1360.63
1398.87
1436.5
1473.47
1509.68
1544.98
1578.91
1611.33
1642.1
1670.19
13751.7
4562.56
1620.31
1567.55
1509.85
1447.79
1381.86
1312.52
1240.21
1165.49
1089.03
1011.59
934.103
858.449
787.21
723.36
669.886
629.055
601.549
586.024
579.611
579.023
581.481
585.024
588.427
591.014
592.44
592.541
591.257
588.576
584.519
579.119
572.415
564.452
555.271
544.913
533.415
520.81
507.121
511.634
534.083
554.962
574.226
591.832
607.74
621.925
634.381
645.141
654.284
661.961
668.403
673.935
678.97
683.981
689.444
695.749
703.097
711.417
720.352
729.3
737.526
744.278
748.887
750.821
749.705
745.31
737.533
726.369
711.881
694.183
673.419
649.758
649.908
685.556
730.753
775.678
820.222
864.294
907.819
950.737
993.001
1034.57
1075.43
1115.55
1154.94
1193.57
1231.45
1268.6
1305.02
1340.72
1375.73
1410.05
1443.7
1476.66
1508.9
1540.37
1570.73
1599.86
1627.76
1653.66
10480.7
7869.26
1616.53
1566.69
1512.58
1454.5
1392.71
1327.47
1259.09
1187.95
1114.61
1039.72
964.051
889.246
817.814
752.772
697.315
654.101
624.291
606.925
599.246
597.836
599.69
602.652
605.375
607.138
607.594
606.603
604.129
600.19
594.829
588.104
580.075
570.804
560.35
548.765
536.095
522.377
507.634
512.323
536.155
558.485
579.279
598.476
616.013
631.836
645.91
658.236
668.875
677.964
685.734
692.519
698.739
704.844
711.288
718.457
726.549
735.493