/*--------------------------------*- C++ -*----------------------------------*\
  =========                 |
  \\      /  F ield         | OpenFOAM: The Open Source CFD Toolbox
   \\    /   O peration     | Website:  https://openfoam.org
    \\  /    A nd           | Version:  8
     \\/     M anipulation  |
\*---------------------------------------------------------------------------*/
FoamFile
{
    version     2.0;
    format      ascii;
    class       volScalarField;
    location    "940/fluid";
    object      rho;
}
// * * * * * * * * * * * * * * * * * * * * * * * * * * * * * * * * * * * * * //

dimensions      [1 -3 0 0 0 0 0];

internalField   nonuniform List<scalar> 
4000
(
0.658526
0.658499
0.658454
0.658379
0.658254
0.658047
0.657705
0.657147
0.656247
0.654813
0.652567
0.649119
0.643957
0.636457
0.625956
0.611871
0.593889
0.572132
0.547228
0.520221
0.492339
0.464735
0.438304
0.413621
0.390964
0.37039
0.351816
0.335083
0.32
0.306372
0.294018
0.282776
0.272508
0.263098
0.254447
0.246457
0.239026
0.232092
0.225604
0.219518
0.213799
0.208414
0.203336
0.198544
0.194018
0.189743
0.185704
0.181892
0.178297
0.174912
0.171733
0.168757
0.165985
0.16342
0.161069
0.158943
0.157062
0.155475
0.154209
0.15327
0.152776
0.152844
0.154219
0.163095
0.173587
0.185911
0.200364
0.217337
0.237345
0.261057
0.289343
0.323327
0.364446
0.414652
0.476313
0.551602
0.641666
0.744914
0.85482
0.959484
1.04587
1.10692
1.14434
1.1647
1.17491
1.17978
1.18202
1.18304
1.18348
1.18368
1.18376
1.1838
1.18381
1.18382
1.18382
1.18382
1.18382
1.18382
1.18382
1.18382
0.658526
0.658499
0.658454
0.658379
0.658254
0.658045
0.657702
0.657142
0.656238
0.654802
0.652558
0.649123
0.643995
0.636569
0.626199
0.612316
0.594604
0.573159
0.548567
0.521822
0.494115
0.466588
0.440145
0.415381
0.392598
0.371877
0.353149
0.336266
0.321042
0.307285
0.294816
0.283472
0.273113
0.263621
0.254898
0.246846
0.23936
0.232376
0.225844
0.219719
0.213964
0.208547
0.203441
0.198623
0.194074
0.189778
0.18572
0.181891
0.178281
0.174882
0.171692
0.168706
0.165925
0.163352
0.160994
0.158864
0.156978
0.155388
0.154121
0.153182
0.152689
0.152763
0.154883
0.163924
0.174612
0.187178
0.201933
0.219292
0.239798
0.264158
0.293294
0.328392
0.37098
0.423129
0.487249
0.565401
0.658329
0.763559
0.87337
0.975216
1.05694
1.11339
1.14755
1.16613
1.17549
1.18001
1.18211
1.18307
1.18349
1.18368
1.18376
1.1838
1.18381
1.18382
1.18382
1.18382
1.18382
1.18382
1.18382
1.18382
0.658526
0.658499
0.658454
0.658379
0.658253
0.658044
0.657699
0.657137
0.656232
0.654795
0.652553
0.649128
0.644028
0.636659
0.626387
0.612655
0.595148
0.57395
0.549619
0.523114
0.495597
0.46819
0.441795
0.417017
0.394174
0.373361
0.354524
0.337523
0.322182
0.308312
0.295736
0.284292
0.273841
0.264264
0.255461
0.24734
0.23979
0.232747
0.226161
0.219986
0.214185
0.208726
0.203581
0.198727
0.194144
0.189818
0.185732
0.181878
0.178245
0.174827
0.171618
0.168616
0.165821
0.163237
0.160869
0.15873
0.156839
0.155247
0.15398
0.153045
0.152563
0.152651
0.156085
0.16535
0.176324
0.189248
0.204453
0.222377
0.243593
0.268851
0.299122
0.33565
0.380034
0.434424
0.501152
0.582002
0.67713
0.783131
0.891418
0.989493
1.06651
1.11889
1.15034
1.16744
1.17608
1.18026
1.18222
1.18311
1.18351
1.18369
1.18376
1.1838
1.18381
1.18382
1.18382
1.18382
1.18382
1.18382
1.18382
1.18382
0.658526
0.658499
0.658454
0.658379
0.658253
0.658045
0.657701
0.657142
0.656242
0.654815
0.652593
0.649202
0.644157
0.636874
0.626726
0.61316
0.595855
0.574878
0.550761
0.524437
0.497047
0.469707
0.443323
0.418509
0.395598
0.374697
0.355762
0.33866
0.323218
0.309252
0.296584
0.285054
0.274522
0.264869
0.255996
0.24781
0.240201
0.233103
0.226465
0.220241
0.214395
0.208892
0.203707
0.198816
0.194199
0.18984
0.185725
0.181844
0.178186
0.174745
0.171517
0.168498
0.165689
0.163092
0.160715
0.158569
0.156675
0.155087
0.153827
0.152902
0.152434
0.152549
0.157606
0.167119
0.178415
0.191746
0.20746
0.226016
0.24802
0.274257
0.305743
0.343775
0.390027
0.446701
0.516022
0.599491
0.696679
0.803291
0.909944
1.00423
1.07656
1.12484
1.15349
1.16897
1.17679
1.18057
1.18235
1.18317
1.18354
1.1837
1.18377
1.1838
1.18381
1.18382
1.18382
1.18382
1.18382
1.18382
1.18382
1.18382
0.658526
0.658499
0.658455
0.65838
0.658255
0.658047
0.657706
0.65715
0.656256
0.654841
0.652637
0.649277
0.644283
0.637075
0.627035
0.613611
0.596477
0.575687
0.551751
0.52558
0.498298
0.471013
0.444637
0.419791
0.396821
0.375844
0.356824
0.339634
0.324107
0.310058
0.297312
0.285708
0.275107
0.265389
0.256455
0.248212
0.240551
0.233405
0.22672
0.220453
0.214565
0.209023
0.203801
0.198875
0.194225
0.189836
0.185693
0.181786
0.178105
0.174644
0.171398
0.168364
0.165542
0.162936
0.160553
0.158404
0.156513
0.154938
0.153688
0.152779
0.15234
0.152508
0.159234
0.168996
0.180624
0.194378
0.210618
0.229826
0.252632
0.279859
0.312564
0.352087
0.400186
0.459083
0.530861
0.616714
0.715604
0.822383
0.927042
1.01748
1.0854
1.13
1.1562
1.1703
1.17741
1.18085
1.18248
1.18322
1.18356
1.18371
1.18377
1.1838
1.18381
1.18382
1.18382
1.18382
1.18382
1.18382
1.18382
1.18382
0.658526
0.6585
0.658455
0.658381
0.658256
0.658051
0.657712
0.657161
0.656276
0.654873
0.652692
0.649367
0.644425
0.637294
0.627358
0.614066
0.597084
0.576454
0.552666
0.526613
0.499408
0.472156
0.445772
0.420889
0.39786
0.376812
0.357716
0.34045
0.324847
0.310727
0.297914
0.286247
0.275587
0.265813
0.256827
0.248536
0.240831
0.233642
0.226917
0.220612
0.214688
0.209112
0.203857
0.1989
0.194222
0.189806
0.185639
0.181709
0.178009
0.17453
0.171269
0.168224
0.165394
0.162784
0.1604
0.158257
0.156372
0.154812
0.153576
0.152687
0.152274
0.15248
0.160701
0.170729
0.182712
0.196906
0.213682
0.233541
0.257138
0.285331
0.319215
0.360175
0.410046
0.471051
0.545128
0.633155
0.733498
0.840225
0.942828
1.02961
1.09347
1.13475
1.15873
1.17155
1.178
1.18112
1.1826
1.18328
1.18358
1.18372
1.18378
1.1838
1.18381
1.18382
1.18382
1.18382
1.18382
1.18382
1.18382
1.18382
0.658526
0.6585
0.658456
0.658382
0.658259
0.658054
0.657719
0.657173
0.656295
0.654906
0.652746
0.649453
0.64456
0.637498
0.627654
0.614477
0.597628
0.577134
0.55347
0.527515
0.500369
0.473139
0.446742
0.421821
0.398736
0.377622
0.358458
0.341123
0.325455
0.311273
0.298402
0.286681
0.27597
0.26615
0.257118
0.248787
0.241043
0.233818
0.227059
0.220721
0.214766
0.209161
0.203878
0.198895
0.194193
0.189754
0.185567
0.181619
0.177902
0.17441
0.171139
0.168086
0.165254
0.162645
0.16027
0.158139
0.156275
0.154755
0.153524
0.152687
0.152327
0.15258
0.161447
0.172001
0.184475
0.199176
0.216513
0.237018
0.261384
0.2905
0.325505
0.367828
0.419379
0.482355
0.558549
0.648523
0.750057
0.856503
0.956982
1.04029
1.10048
1.13882
1.16089
1.17262
1.17851
1.18136
1.1827
1.18332
1.1836
1.18373
1.18378
1.1838
1.18381
1.18382
1.18382
1.18382
1.18382
1.18382
1.18382
1.18382
0.658526
0.6585
0.658456
0.658383
0.658261
0.658058
0.657726
0.657184
0.656315
0.654938
0.652798
0.649536
0.644688
0.637688
0.627927
0.614851
0.598116
0.577737
0.554177
0.528298
0.501198
0.473979
0.447564
0.422604
0.399467
0.378294
0.359068
0.341674
0.325948
0.311713
0.298791
0.287024
0.27627
0.266409
0.257341
0.248974
0.241198
0.233943
0.227155
0.22079
0.214808
0.209178
0.203873
0.198868
0.194145
0.189688
0.185484
0.181521
0.177791
0.174289
0.171011
0.167955
0.165122
0.162519
0.160154
0.158043
0.156219
0.15475
0.153594
0.152877
0.152709
0.153271
0.16245
0.17335
0.186207
0.201341
0.219178
0.240272
0.265343
0.295313
0.331354
0.374944
0.428054
0.492847
0.57097
0.662666
0.765162
0.871173
0.969562
1.04966
1.10657
1.14236
1.16277
1.17356
1.17896
1.18157
1.1828
1.18336
1.18362
1.18373
1.18378
1.18381
1.18381
1.18382
1.18382
1.18382
1.18382
1.18382
1.18382
1.18382
0.658526
0.6585
0.658457
0.658384
0.658263
0.658062
0.657732
0.657195
0.656333
0.654968
0.652846
0.649611
0.644803
0.637858
0.628169
0.615181
0.598544
0.578262
0.554787
0.528971
0.501904
0.47469
0.448256
0.423258
0.400073
0.378848
0.359568
0.342121
0.326345
0.312063
0.299099
0.287292
0.276501
0.266606
0.257506
0.24911
0.241307
0.234026
0.227213
0.220825
0.214822
0.209172
0.203847
0.198825
0.194085
0.189613
0.185395
0.18142
0.177681
0.174172
0.170888
0.16783
0.164999
0.162401
0.160047
0.157955
0.156162
0.154731
0.153632
0.153004
0.152975
0.154072
0.163519
0.174708
0.18789
0.203398
0.221676
0.243298
0.269006
0.299752
0.33674
0.381495
0.436035
0.502481
0.582336
0.675533
0.778784
0.884243
0.980611
1.05778
1.11179
1.14537
1.16437
1.17435
1.17933
1.18174
1.18288
1.1834
1.18364
1.18374
1.18379
1.18381
1.18382
1.18382
1.18382
1.18382
1.18382
1.18382
1.18382
1.18382
0.658526
0.658501
0.658458
0.658385
0.658265
0.658066
0.657738
0.657205
0.656349
0.654995
0.652889
0.649679
0.644905
0.638009
0.628382
0.615469
0.598914
0.578714
0.555309
0.529543
0.502501
0.475287
0.448832
0.4238
0.400572
0.3793
0.359972
0.34248
0.326661
0.312339
0.299338
0.287498
0.276677
0.266753
0.257625
0.249205
0.241379
0.234077
0.227244
0.220837
0.214816
0.209149
0.203808
0.198771
0.194019
0.189534
0.185305
0.181322
0.177575
0.174059
0.170772
0.167712
0.164882
0.162287
0.159938
0.157853
0.156074
0.154653
0.153561
0.152927
0.152865
0.154986
0.164628
0.176045
0.189494
0.205322
0.223983
0.24607
0.272345
0.303787
0.341628
0.387439
0.443278
0.511213
0.592611
0.68711
0.790939
0.895776
0.990238
1.06477
1.11625
1.14792
1.16572
1.17502
1.17966
1.18189
1.18294
1.18343
1.18365
1.18375
1.18379
1.18381
1.18382
1.18382
1.18382
1.18382
1.18382
1.18382
1.18382
1.18382
0.658526
0.658501
0.658458
0.658386
0.658267
0.658069
0.657743
0.657214
0.656364
0.655019
0.652927
0.649738
0.644994
0.638139
0.628566
0.615716
0.599231
0.579099
0.555751
0.530025
0.503001
0.475784
0.44931
0.424246
0.40098
0.379666
0.360298
0.342766
0.326911
0.312555
0.299524
0.287655
0.276807
0.266859
0.25771
0.249269
0.241424
0.234104
0.227255
0.220832
0.214797
0.209116
0.203763
0.198714
0.193951
0.189457
0.185219
0.181229
0.177476
0.173956
0.170666
0.167605
0.164775
0.162182
0.159836
0.157755
0.155982
0.154565
0.153476
0.152842
0.152775
0.155901
0.1657
0.177308
0.190986
0.20709
0.226087
0.248584
0.275364
0.307426
0.346029
0.392787
0.449786
0.519048
0.601805
0.697417
0.80168
0.905861
0.998555
1.07074
1.12002
1.15008
1.16685
1.17559
1.17993
1.18202
1.183
1.18345
1.18366
1.18375
1.18379
1.18381
1.18382
1.18382
1.18382
1.18382
1.18382
1.18382
1.18382
1.18382
0.658526
0.658501
0.658458
0.658387
0.658268
0.658071
0.657748
0.657222
0.656377
0.65504
0.652959
0.649788
0.645071
0.638251
0.628722
0.615926
0.599499
0.579423
0.556122
0.530426
0.503416
0.476195
0.449702
0.42461
0.401311
0.379962
0.360558
0.342993
0.327107
0.312723
0.299665
0.287773
0.276904
0.266936
0.257768
0.24931
0.24145
0.234115
0.227253
0.220817
0.21477
0.209078
0.203715
0.198657
0.193885
0.189384
0.18514
0.181144
0.177388
0.173865
0.170573
0.167512
0.164683
0.162092
0.15975
0.157674
0.155905
0.154493
0.153406
0.152773
0.152703
0.156733
0.166673
0.178447
0.192326
0.208672
0.227964
0.250821
0.278043
0.310651
0.349927
0.397529
0.455562
0.525995
0.609937
0.706492
0.811072
0.914598
1.00568
1.07581
1.1232
1.15188
1.1678
1.17606
1.18015
1.18212
1.18305
1.18348
1.18367
1.18376
1.18379
1.18381
1.18382
1.18382
1.18382
1.18382
1.18382
1.18382
1.18382
1.18382
0.658526
0.658501
0.658459
0.658388
0.65827
0.658074
0.657752
0.657228
0.656388
0.655057
0.652987
0.649831
0.645135
0.638345
0.628854
0.616102
0.599722
0.579692
0.556429
0.530758
0.503757
0.476531
0.450022
0.424905
0.401577
0.380198
0.360765
0.343172
0.32726
0.312852
0.299773
0.287861
0.276974
0.26699
0.257807
0.249335
0.241462
0.234116
0.227243
0.220797
0.21474
0.20904
0.203669
0.198604
0.193826
0.189319
0.185071
0.181071
0.177312
0.173788
0.170495
0.167434
0.164607
0.162019
0.159681
0.157609
0.155845
0.154438
0.153355
0.152723
0.152651
0.157453
0.167523
0.179447
0.193502
0.210058
0.229605
0.252776
0.280385
0.313471
0.353337
0.401681
0.46062
0.532073
0.617037
0.714384
0.819188
0.922085
1.01174
1.08007
1.12586
1.15338
1.16859
1.17645
1.18034
1.18221
1.18309
1.18349
1.18368
1.18376
1.18379
1.18381
1.18382
1.18382
1.18382
1.18382
1.18382
1.18382
1.18382
1.18382
0.658526
0.658501
0.658459
0.658389
0.658271
0.658076
0.657755
0.657234
0.656397
0.655072
0.653011
0.649867
0.645189
0.638423
0.628962
0.616247
0.599906
0.579913
0.55668
0.531029
0.504035
0.476803
0.450279
0.425142
0.401789
0.380385
0.360928
0.343311
0.327378
0.312951
0.299854
0.287926
0.277025
0.267027
0.257832
0.24935
0.241467
0.234111
0.227229
0.220775
0.214712
0.209005
0.203627
0.198557
0.193774
0.189263
0.185012
0.18101
0.177249
0.173725
0.170433
0.167374
0.16455
0.161965
0.15963
0.157562
0.155803
0.1544
0.15332
0.152688
0.152612
0.158065
0.16825
0.180305
0.194512
0.211251
0.231019
0.25446
0.282402
0.3159
0.356275
0.405259
0.464979
0.537308
0.623142
0.721148
0.826105
0.92842
1.01682
1.08363
1.12806
1.15462
1.16924
1.17677
1.18049
1.18228
1.18312
1.18351
1.18368
1.18376
1.1838
1.18381
1.18382
1.18382
1.18382
1.18382
1.18382
1.18382
1.18382
1.18382
0.658526
0.658501
0.658459
0.658389
0.658272
0.658077
0.657758
0.657239
0.656405
0.655084
0.65303
0.649897
0.645233
0.638487
0.629051
0.616365
0.600055
0.580092
0.556883
0.531247
0.504257
0.477021
0.450484
0.425329
0.401957
0.380532
0.361054
0.343419
0.327469
0.313026
0.299915
0.287975
0.277061
0.267053
0.257849
0.249358
0.241467
0.234104
0.227215
0.220756
0.214686
0.208974
0.203592
0.198518
0.193732
0.189218
0.184965
0.180962
0.177201
0.173678
0.170388
0.16733
0.164508
0.161926
0.159595
0.157531
0.155778
0.154378
0.1533
0.152667
0.152586
0.158569
0.168857
0.181026
0.195365
0.212259
0.232214
0.255884
0.284107
0.317953
0.35876
0.408286
0.468666
0.541733
0.628295
0.72684
0.8319
0.933695
1.02102
1.08655
1.12987
1.15563
1.16977
1.17703
1.18062
1.18234
1.18315
1.18352
1.18369
1.18376
1.1838
1.18381
1.18382
1.18382
1.18382
1.18382
1.18382
1.18382
1.18382
1.18382
0.658526
0.658502
0.65846
0.658389
0.658272
0.658079
0.65776
0.657242
0.656411
0.655094
0.653045
0.64992
0.645268
0.638537
0.629122
0.616459
0.600174
0.580233
0.557043
0.531418
0.504432
0.477191
0.450644
0.425475
0.402086
0.380645
0.361152
0.343502
0.327538
0.313082
0.299961
0.28801
0.277088
0.267072
0.25786
0.249363
0.241466
0.234098
0.227204
0.22074
0.214666
0.20895
0.203565
0.198488
0.1937
0.189185
0.184931
0.180928
0.177168
0.173645
0.170356
0.167301
0.164482
0.161904
0.159577
0.157518
0.155769
0.154372
0.153294
0.152659
0.152572
0.158979
0.169357
0.181623
0.196071
0.213094
0.233204
0.257061
0.285516
0.319649
0.360811
0.410784
0.471707
0.545382
0.632537
0.731515
0.836642
0.93799
1.02442
1.0889
1.13131
1.15644
1.17019
1.17724
1.18072
1.18239
1.18317
1.18353
1.18369
1.18377
1.1838
1.18381
1.18382
1.18382
1.18382
1.18382
1.18382
1.18382
1.18382
1.18382
0.658526
0.658502
0.65846
0.65839
0.658273
0.65808
0.657762
0.657245
0.656415
0.655102
0.653057
0.649939
0.645295
0.638576
0.629176
0.616531
0.600264
0.580342
0.557165
0.531549
0.504564
0.47732
0.450765
0.425585
0.402184
0.38073
0.361224
0.343563
0.327589
0.313124
0.299994
0.288036
0.277108
0.267086
0.257869
0.249367
0.241466
0.234094
0.227196
0.220729
0.214652
0.208934
0.203547
0.198468
0.193679
0.189164
0.184909
0.180906
0.177147
0.173626
0.170339
0.167287
0.164471
0.161897
0.159575
0.157519
0.155774
0.154379
0.153301
0.15266
0.152564
0.159303
0.169755
0.182101
0.196638
0.213765
0.233998
0.258005
0.286643
0.321002
0.362446
0.412773
0.474126
0.54828
0.635901
0.735211
0.840378
0.941362
1.02708
1.09074
1.13244
1.15707
1.17052
1.1774
1.1808
1.18242
1.18319
1.18354
1.1837
1.18377
1.1838
1.18381
1.18382
1.18382
1.18382
1.18382
1.18382
1.18382
1.18382
1.18382
0.658526
0.658502
0.65846
0.65839
0.658273
0.65808
0.657763
0.657247
0.656419
0.655107
0.653066
0.649952
0.645315
0.638605
0.629215
0.616583
0.60033
0.58042
0.557253
0.531643
0.50466
0.477413
0.450852
0.425664
0.402253
0.38079
0.361276
0.343606
0.327625
0.313154
0.300018
0.288055
0.277122
0.267096
0.257876
0.249371
0.241467
0.234092
0.227193
0.220723
0.214645
0.208925
0.203537
0.198458
0.193668
0.189152
0.184898
0.180896
0.177138
0.173619
0.170335
0.167286
0.164474
0.161904
0.159585
0.157533
0.15579
0.154396
0.153317
0.15267
0.15256
0.159542
0.170058
0.182467
0.197073
0.214278
0.234603
0.258721
0.287497
0.322025
0.363677
0.414268
0.47594
0.550448
0.638411
0.737961
0.843146
0.943849
1.02904
1.09209
1.13326
1.15753
1.17076
1.17752
1.18086
1.18245
1.1832
1.18354
1.1837
1.18377
1.1838
1.18381
1.18382
1.18382
1.18382
1.18382
1.18382
1.18382
1.18382
1.18382
0.658526
0.658502
0.65846
0.65839
0.658274
0.658081
0.657764
0.657249
0.656421
0.655111
0.653071
0.64996
0.645328
0.638623
0.629241
0.616617
0.600373
0.580471
0.557311
0.531704
0.504722
0.477473
0.450908
0.425714
0.402298
0.380829
0.361309
0.343634
0.327648
0.313173
0.300033
0.288067
0.277131
0.267103
0.257881
0.249374
0.24147
0.234093
0.227193
0.220722
0.214643
0.208922
0.203534
0.198454
0.193664
0.189149
0.184896
0.180895
0.177139
0.173622
0.170341
0.167295
0.164486
0.161919
0.159604
0.157555
0.155814
0.154421
0.153339
0.152684
0.152559
0.159701
0.170265
0.182721
0.197376
0.214635
0.235022
0.259214
0.28808
0.322719
0.36451
0.415275
0.477157
0.551896
0.64008
0.739781
0.844969
0.945476
1.03032
1.09296
1.1338
1.15784
1.17092
1.1776
1.18089
1.18247
1.18321
1.18355
1.1837
1.18377
1.1838
1.18381
1.18382
1.18382
1.18382
1.18382
1.18382
1.18382
1.18382
1.18382
0.658526
0.658502
0.65846
0.65839
0.658274
0.658081
0.657764
0.657249
0.656422
0.655112
0.653074
0.649965
0.645334
0.638632
0.629253
0.616633
0.600393
0.580495
0.557338
0.531733
0.504751
0.477501
0.450934
0.425738
0.402319
0.380848
0.361325
0.343648
0.327659
0.313182
0.300041
0.288073
0.277136
0.267107
0.257884
0.249377
0.241472
0.234095
0.227194
0.220723
0.214644
0.208923
0.203534
0.198455
0.193665
0.189151
0.184898
0.180899
0.177144
0.173628
0.170349
0.167305
0.164499
0.161935
0.159622
0.157576
0.155837
0.154445
0.153361
0.152699
0.152559
0.159779
0.170375
0.182859
0.19754
0.214825
0.235243
0.259471
0.28838
0.323073
0.36493
0.415778
0.477758
0.552606
0.640892
0.740659
0.84584
0.946247
1.03091
1.09337
1.13405
1.15798
1.17099
1.17764
1.18091
1.18248
1.18321
1.18355
1.1837
1.18377
1.1838
1.18381
1.18382
1.18382
1.18382
1.18382
1.18382
1.18382
1.18382
1.18382
0.658526
0.658502
0.65846
0.65839
0.658274
0.658081
0.657764
0.657249
0.656422
0.655112
0.653074
0.649965
0.645334
0.638632
0.629253
0.616633
0.600393
0.580495
0.557338
0.531733
0.504751
0.477501
0.450934
0.425738
0.402319
0.380848
0.361325
0.343648
0.327659
0.313182
0.300041
0.288073
0.277136
0.267107
0.257884
0.249377
0.241472
0.234095
0.227194
0.220723
0.214644
0.208923
0.203534
0.198455
0.193665
0.189151
0.184898
0.180899
0.177144
0.173628
0.170349
0.167305
0.164499
0.161935
0.159622
0.157576
0.155837
0.154445
0.15336
0.152699
0.152559
0.159779
0.170375
0.182858
0.197539
0.214825
0.235242
0.259471
0.28838
0.323073
0.36493
0.415777
0.477757
0.552605
0.640891
0.740657
0.845839
0.946246
1.03091
1.09337
1.13405
1.15798
1.17099
1.17764
1.18091
1.18248
1.18321
1.18355
1.1837
1.18377
1.1838
1.18381
1.18382
1.18382
1.18382
1.18382
1.18382
1.18382
1.18382
1.18382
0.658526
0.658502
0.65846
0.65839
0.658274
0.658081
0.657764
0.657249
0.656421
0.655111
0.653071
0.64996
0.645328
0.638623
0.629241
0.616617
0.600372
0.580471
0.55731
0.531704
0.504722
0.477472
0.450908
0.425714
0.402298
0.380829
0.361309
0.343634
0.327648
0.313173
0.300033
0.288067
0.277131
0.267103
0.257881
0.249374
0.241469
0.234093
0.227192
0.220722
0.214643
0.208922
0.203533
0.198454
0.193664
0.189149
0.184896
0.180895
0.177139
0.173622
0.170341
0.167295
0.164486
0.161919
0.159604
0.157555
0.155814
0.154421
0.153339
0.152684
0.152559
0.159701
0.170265
0.182721
0.197376
0.214634
0.235021
0.259213
0.288079
0.322718
0.364509
0.415273
0.477155
0.551894
0.640078
0.739778
0.844966
0.945474
1.03031
1.09296
1.1338
1.15784
1.17092
1.1776
1.18089
1.18247
1.18321
1.18355
1.1837
1.18377
1.1838
1.18381
1.18382
1.18382
1.18382
1.18382
1.18382
1.18382
1.18382
1.18382
0.658526
0.658502
0.65846
0.65839
0.658273
0.65808
0.657763
0.657247
0.656419
0.655107
0.653066
0.649952
0.645315
0.638605
0.629215
0.616583
0.60033
0.58042
0.557253
0.531643
0.50466
0.477412
0.450851
0.425663
0.402253
0.38079
0.361275
0.343606
0.327624
0.313153
0.300018
0.288055
0.277121
0.267096
0.257875
0.24937
0.241467
0.234092
0.227192
0.220723
0.214645
0.208925
0.203537
0.198457
0.193667
0.189152
0.184898
0.180896
0.177138
0.173619
0.170335
0.167286
0.164474
0.161903
0.159585
0.157532
0.15579
0.154396
0.153316
0.152669
0.15256
0.159542
0.170057
0.182466
0.197072
0.214277
0.234602
0.25872
0.287495
0.322023
0.363675
0.414265
0.475937
0.550444
0.638406
0.737955
0.843141
0.943844
1.02904
1.09208
1.13326
1.15753
1.17076
1.17752
1.18086
1.18245
1.1832
1.18354
1.1837
1.18377
1.1838
1.18381
1.18382
1.18382
1.18382
1.18382
1.18382
1.18382
1.18382
1.18382
0.658526
0.658502
0.65846
0.65839
0.658273
0.65808
0.657762
0.657245
0.656415
0.655102
0.653057
0.649939
0.645295
0.638576
0.629176
0.61653
0.600264
0.580341
0.557164
0.531548
0.504564
0.477319
0.450764
0.425584
0.402183
0.380729
0.361224
0.343562
0.327588
0.313124
0.299994
0.288036
0.277107
0.267085
0.257868
0.249366
0.241465
0.234093
0.227196
0.220728
0.214652
0.208934
0.203547
0.198468
0.193679
0.189163
0.184909
0.180906
0.177147
0.173625
0.170339
0.167287
0.164471
0.161897
0.159574
0.157519
0.155773
0.154378
0.1533
0.15266
0.152563
0.159302
0.169755
0.1821
0.196637
0.213764
0.233996
0.258003
0.286641
0.321
0.362443
0.412769
0.474121
0.548274
0.635894
0.735204
0.840371
0.941355
1.02708
1.09073
1.13243
1.15707
1.17052
1.1774
1.1808
1.18242
1.18319
1.18354
1.1837
1.18377
1.1838
1.18381
1.18382
1.18382
1.18382
1.18382
1.18382
1.18382
1.18382
1.18382
0.658526
0.658502
0.65846
0.658389
0.658272
0.658079
0.65776
0.657242
0.656411
0.655094
0.653045
0.64992
0.645268
0.638537
0.629121
0.616458
0.600173
0.580233
0.557042
0.531417
0.504431
0.47719
0.450643
0.425474
0.402085
0.380644
0.361151
0.343501
0.327537
0.313082
0.29996
0.28801
0.277087
0.267071
0.25786
0.249362
0.241465
0.234097
0.227203
0.220739
0.214665
0.20895
0.203565
0.198487
0.193699
0.189184
0.18493
0.180927
0.177167
0.173644
0.170356
0.167301
0.164481
0.161903
0.159577
0.157517
0.155768
0.154371
0.153294
0.152658
0.152571
0.158978
0.169356
0.181621
0.196069
0.213092
0.233202
0.257059
0.285513
0.319645
0.360807
0.410779
0.471701
0.545374
0.632528
0.731505
0.836632
0.937982
1.02442
1.0889
1.13131
1.15644
1.17019
1.17724
1.18072
1.18239
1.18317
1.18353
1.18369
1.18377
1.1838
1.18381
1.18382
1.18382
1.18382
1.18382
1.18382
1.18382
1.18382
1.18382
0.658526
0.658501
0.658459
0.658389
0.658272
0.658077
0.657758
0.657239
0.656405
0.655084
0.65303
0.649897
0.645233
0.638486
0.629051
0.616365
0.600055
0.580091
0.556882
0.531246
0.504256
0.477019
0.450483
0.425328
0.401956
0.380531
0.361053
0.343418
0.327468
0.313025
0.299914
0.287974
0.277061
0.267053
0.257848
0.249357
0.241466
0.234103
0.227215
0.220755
0.214685
0.208973
0.203591
0.198517
0.193731
0.189217
0.184964
0.180961
0.1772
0.173677
0.170387
0.167329
0.164507
0.161925
0.159594
0.15753
0.155777
0.154377
0.153299
0.152666
0.152585
0.158568
0.168856
0.181025
0.195363
0.212257
0.232211
0.25588
0.284103
0.317949
0.358755
0.408279
0.468658
0.541724
0.628284
0.726828
0.831888
0.933684
1.02101
1.08654
1.12986
1.15563
1.16977
1.17703
1.18062
1.18234
1.18315
1.18352
1.18369
1.18376
1.1838
1.18381
1.18382
1.18382
1.18382
1.18382
1.18382
1.18382
1.18382
1.18382
0.658526
0.658501
0.658459
0.658389
0.658271
0.658076
0.657755
0.657234
0.656397
0.655072
0.653011
0.649867
0.645189
0.638422
0.628962
0.616247
0.599905
0.579912
0.556679
0.531028
0.504033
0.476802
0.450278
0.425141
0.401788
0.380384
0.360927
0.34331
0.327377
0.31295
0.299853
0.287925
0.277024
0.267026
0.257831
0.249349
0.241466
0.23411
0.227228
0.220774
0.214711
0.209004
0.203626
0.198556
0.193773
0.189262
0.185011
0.181009
0.177248
0.173724
0.170432
0.167373
0.164548
0.161963
0.159629
0.15756
0.155802
0.154399
0.153319
0.152687
0.152611
0.158063
0.168248
0.180303
0.194509
0.211248
0.231015
0.254456
0.282397
0.315894
0.356269
0.405252
0.46497
0.537297
0.623129
0.721134
0.826091
0.928407
1.01681
1.08362
1.12806
1.15462
1.16924
1.17677
1.18049
1.18228
1.18312
1.18351
1.18368
1.18376
1.1838
1.18381
1.18382
1.18382
1.18382
1.18382
1.18382
1.18382
1.18382
1.18382
0.658526
0.658501
0.658459
0.658388
0.65827
0.658074
0.657752
0.657228
0.656388
0.655057
0.652987
0.649831
0.645135
0.638344
0.628853
0.616101
0.599721
0.579691
0.556427
0.530757
0.503756
0.476529
0.45002
0.424904
0.401575
0.380197
0.360764
0.343171
0.327259
0.312851
0.299772
0.28786
0.276973
0.266988
0.257805
0.249334
0.241461
0.234115
0.227241
0.220796
0.214739
0.209039
0.203668
0.198602
0.193824
0.189317
0.185069
0.181069
0.17731
0.173786
0.170494
0.167433
0.164606
0.162018
0.15968
0.157607
0.155843
0.154436
0.153353
0.152721
0.152649
0.157451
0.167521
0.179444
0.193499
0.210055
0.229601
0.252771
0.28038
0.313465
0.35333
0.401672
0.46061
0.53206
0.617022
0.714368
0.819171
0.92207
1.01172
1.08006
1.12586
1.15338
1.16859
1.17645
1.18034
1.18221
1.18309
1.18349
1.18368
1.18376
1.18379
1.18381
1.18382
1.18382
1.18382
1.18382
1.18382
1.18382
1.18382
1.18382
0.658526
0.658501
0.658458
0.658387
0.658268
0.658071
0.657748
0.657222
0.656377
0.65504
0.652959
0.649788
0.64507
0.63825
0.628722
0.615925
0.599498
0.579421
0.55612
0.530425
0.503414
0.476193
0.449701
0.424609
0.401309
0.37996
0.360557
0.342992
0.327106
0.312722
0.299664
0.287772
0.276902
0.266934
0.257766
0.249309
0.241449
0.234114
0.227251
0.220816
0.214769
0.209077
0.203714
0.198656
0.193884
0.189382
0.185139
0.181143
0.177386
0.173863
0.170572
0.16751
0.164681
0.16209
0.159748
0.157672
0.155903
0.154491
0.153404
0.152771
0.152701
0.156731
0.166671
0.178444
0.192322
0.208668
0.227959
0.250816
0.278038
0.310644
0.349919
0.397519
0.45555
0.525981
0.609921
0.706474
0.811054
0.914581
1.00567
1.0758
1.1232
1.15188
1.1678
1.17606
1.18015
1.18212
1.18305
1.18348
1.18367
1.18376
1.18379
1.18381
1.18382
1.18382
1.18382
1.18382
1.18382
1.18382
1.18382
1.18382
0.658526
0.658501
0.658458
0.658386
0.658267
0.658069
0.657743
0.657214
0.656364
0.655019
0.652927
0.649737
0.644994
0.638139
0.628565
0.615716
0.59923
0.579098
0.55575
0.530023
0.502999
0.475782
0.449308
0.424244
0.400978
0.379665
0.360296
0.342765
0.32691
0.312554
0.299522
0.287654
0.276806
0.266858
0.257708
0.249267
0.241423
0.234102
0.227253
0.220831
0.214795
0.209115
0.203761
0.198712
0.193949
0.189455
0.185218
0.181227
0.177474
0.173954
0.170664
0.167603
0.164773
0.162179
0.159834
0.157753
0.155979
0.154563
0.153473
0.152839
0.152772
0.155898
0.165697
0.177304
0.190981
0.207085
0.226082
0.248578
0.275357
0.307419
0.34602
0.392777
0.449774
0.519033
0.601788
0.697398
0.80166
0.905842
0.99854
1.07073
1.12002
1.15007
1.16685
1.17558
1.17993
1.18202
1.183
1.18345
1.18366
1.18375
1.18379
1.18381
1.18382
1.18382
1.18382
1.18382
1.18382
1.18382
1.18382
1.18382
0.658526
0.658501
0.658458
0.658385
0.658265
0.658066
0.657738
0.657205
0.656349
0.654995
0.652889
0.649678
0.644905
0.638008
0.628382
0.615468
0.598913
0.578713
0.555308
0.529541
0.502499
0.475285
0.44883
0.423798
0.40057
0.379298
0.35997
0.342478
0.32666
0.312338
0.299337
0.287497
0.276675
0.266751
0.257624
0.249203
0.241378
0.234075
0.227242
0.220835
0.214814
0.209147
0.203807
0.19877
0.194017
0.189532
0.185303
0.181319
0.177573
0.174057
0.17077
0.16771
0.164879
0.162284
0.159935
0.15785
0.15607
0.154649
0.153557
0.152923
0.152861
0.154983
0.164624
0.176042
0.189491
0.205318
0.223979
0.246065
0.27234
0.30378
0.34162
0.38743
0.443265
0.511198
0.592593
0.687089
0.790918
0.895757
0.990221
1.06476
1.11624
1.14792
1.16571
1.17502
1.17966
1.18189
1.18294
1.18343
1.18365
1.18375
1.18379
1.18381
1.18382
1.18382
1.18382
1.18382
1.18382
1.18382
1.18382
1.18382
0.658526
0.6585
0.658457
0.658384
0.658263
0.658062
0.657732
0.657195
0.656333
0.654968
0.652846
0.649611
0.644802
0.637858
0.628169
0.615181
0.598543
0.578261
0.554785
0.528969
0.501902
0.474687
0.448253
0.423256
0.400071
0.378846
0.359566
0.342119
0.326343
0.312061
0.299097
0.28729
0.2765
0.266605
0.257504
0.249108
0.241305
0.234024
0.227212
0.220823
0.21482
0.20917
0.203845
0.198823
0.194083
0.189611
0.185393
0.181418
0.177679
0.174169
0.170886
0.167827
0.164996
0.162398
0.160044
0.157951
0.156159
0.154727
0.153628
0.152999
0.152969
0.15407
0.163516
0.174705
0.187886
0.203393
0.22167
0.243291
0.268998
0.299742
0.336729
0.381482
0.436022
0.502466
0.582319
0.675513
0.778762
0.884223
0.980594
1.05777
1.11179
1.14536
1.16436
1.17435
1.17933
1.18174
1.18288
1.1834
1.18364
1.18374
1.18379
1.18381
1.18382
1.18382
1.18382
1.18382
1.18382
1.18382
1.18382
1.18382
0.658526
0.6585
0.658456
0.658383
0.658261
0.658058
0.657725
0.657184
0.656315
0.654938
0.652798
0.649536
0.644687
0.637688
0.627926
0.61485
0.598115
0.577736
0.554175
0.528296
0.501196
0.473976
0.447562
0.422601
0.399464
0.378292
0.359066
0.341672
0.325947
0.311711
0.29879
0.287023
0.276269
0.266408
0.257339
0.248972
0.241197
0.233941
0.227153
0.220788
0.214806
0.209176
0.203871
0.198866
0.194143
0.189686
0.185481
0.181518
0.177789
0.174287
0.171008
0.167952
0.165119
0.162516
0.160151
0.15804
0.156216
0.154746
0.153591
0.152874
0.152706
0.153269
0.162447
0.173348
0.186204
0.201338
0.219174
0.240268
0.265338
0.295307
0.331347
0.374935
0.428042
0.492832
0.570952
0.662645
0.76514
0.871151
0.969544
1.04965
1.10656
1.14235
1.16277
1.17356
1.17895
1.18157
1.1828
1.18336
1.18362
1.18373
1.18378
1.18381
1.18381
1.18382
1.18382
1.18382
1.18382
1.18382
1.18382
1.18382
0.658526
0.6585
0.658456
0.658382
0.658259
0.658054
0.657719
0.657173
0.656295
0.654906
0.652745
0.649453
0.64456
0.637497
0.627653
0.614476
0.597626
0.577132
0.553468
0.527512
0.500367
0.473137
0.44674
0.421818
0.398733
0.37762
0.358455
0.341121
0.325453
0.311271
0.2984
0.286679
0.275968
0.266148
0.257117
0.248785
0.241042
0.233816
0.227057
0.220719
0.214764
0.209159
0.203876
0.198893
0.194191
0.189752
0.185565
0.181617
0.1779
0.174408
0.171136
0.168084
0.165251
0.162643
0.160267
0.158137
0.156272
0.154752
0.153521
0.152684
0.152325
0.152578
0.161444
0.171999
0.184472
0.199173
0.216509
0.237014
0.261379
0.290494
0.325497
0.367818