/*--------------------------------*- C++ -*----------------------------------*\
  =========                 |
  \\      /  F ield         | OpenFOAM: The Open Source CFD Toolbox
   \\    /   O peration     | Website:  https://openfoam.org
    \\  /    A nd           | Version:  8
     \\/     M anipulation  |
\*---------------------------------------------------------------------------*/
FoamFile
{
    version     2.0;
    format      ascii;
    class       volScalarField;
    location    "940/fluid";
    object      T;
}
// * * * * * * * * * * * * * * * * * * * * * * * * * * * * * * * * * * * * * //

dimensions      [0 0 0 1 0 0 0];

internalField   nonuniform List<scalar> 
4000
(
293.004
293.017
293.039
293.076
293.138
293.241
293.41
293.687
294.135
294.851
295.979
297.729
300.389
304.34
310.054
318.069
328.938
343.149
361.045
382.76
408.213
437.142
469.174
503.899
540.93
579.932
620.635
662.831
706.363
751.109
796.97
843.853
891.665
940.3
989.635
1039.6
1090.23
1141.43
1193.1
1245.13
1297.42
1349.87
1402.34
1454.74
1506.94
1558.8
1610.21
1661.02
1711.09
1760.25
1808.34
1855.17
1900.5
1944.1
1985.64
2024.75
2060.95
2093.19
2120.86
2144.02
2160.53
2168.58
2157.5
2047.63
1930.7
1808.86
1683.86
1557.2
1430.17
1303.93
1179.58
1058.23
941.013
828.834
722.937
625.341
538.373
464.331
405.029
361.107
331.442
313.254
303.059
297.788
295.213
294
293.443
293.193
293.083
293.036
293.015
293.006
293.003
293.001
293
293
293
293
293
293
293.004
293.017
293.039
293.076
293.138
293.242
293.412
293.69
294.139
294.856
295.984
297.727
300.369
304.28
309.919
317.809
328.491
342.45
360.034
381.398
406.488
435.067
466.785
501.246
538.068
576.916
617.516
659.654
703.168
747.931
793.838
840.796
888.708
937.467
986.948
1037.07
1087.88
1139.26
1191.12
1243.36
1295.87
1348.54
1401.24
1453.87
1506.29
1558.39
1610.02
1661.06
1711.34
1760.71
1809
1856.02
1901.53
1945.29
1986.99
2026.24
2062.56
2094.88
2122.61
2145.82
2162.34
2170.29
2148.83
2037.85
1919.93
1797.16
1671.29
1543.8
1415.98
1289.03
1164.07
1042.24
924.73
812.474
706.913
610.238
524.867
453.078
396.482
355.315
327.988
311.443
302.217
297.424
295.066
293.943
293.422
293.186
293.081
293.035
293.015
293.006
293.003
293.001
293
293
293
293
293
293
293.004
293.017
293.039
293.077
293.139
293.242
293.413
293.692
294.142
294.86
295.987
297.725
300.352
304.232
309.815
317.612
328.152
341.913
359.244
380.306
405.06
433.29
464.665
498.805
535.339
573.939
614.335
656.312
699.707
744.391
790.261
837.221
885.173
934.011
983.609
1033.88
1084.85
1136.43
1188.53
1241.02
1293.8
1346.76
1399.78
1452.73
1505.48
1557.92
1609.9
1661.27
1711.89
1761.59
1810.19
1857.51
1903.31
1947.34
1989.27
2028.74
2065.24
2097.66
2125.45
2148.66
2165.04
2172.8
2133.22
2021.2
1902.18
1778.34
1651.48
1523.11
1394.59
1267.12
1141.91
1020.15
903.073
791.656
687.541
593.01
510.418
441.837
388.506
350.218
325.062
309.92
301.486
297.092
294.92
293.881
293.396
293.175
293.076
293.033
293.014
293.006
293.002
293.001
293
293
293
293
293
293
293.004
293.017
293.039
293.077
293.139
293.242
293.412
293.69
294.137
294.85
295.967
297.687
300.285
304.118
309.627
317.318
327.713
341.287
358.391
379.195
403.673
431.621
462.72
496.601
532.898
571.287
611.498
653.321
696.592
741.185
786.995
833.93
881.893
930.78
980.465
1030.85
1081.97
1133.74
1186.05
1238.79
1291.85
1345.11
1398.45
1451.75
1504.87
1557.68
1610.04
1661.79
1712.78
1762.85
1811.82
1859.48
1905.6
1949.92
1992.11
2031.8
2068.47
2100.92
2128.65
2151.76
2168
2175.39
2113.77
2000.89
1880.92
1756.15
1628.44
1499.41
1370.43
1242.79
1117.73
996.507
880.315
770.205
667.961
575.88
496.215
430.828
380.645
345.106
322.042
308.288
300.668
296.704
294.743
293.802
293.362
293.161
293.07
293.03
293.013
293.005
293.002
293.001
293
293
293
293
293
293
293.004
293.017
293.039
293.076
293.138
293.241
293.41
293.686
294.13
294.837
295.944
297.649
300.22
304.011
309.457
317.056
327.327
340.742
357.654
378.24
402.484
430.195
461.062
494.724
530.821
569.032
609.088
650.779
693.944
738.456
784.213
831.124
879.095
928.022
977.783
1028.27
1079.53
1131.47
1183.98
1236.95
1290.28
1343.83
1397.49
1451.12
1504.6
1557.77
1610.5
1662.63
1714
1764.44
1813.75
1861.74
1908.16
1952.75
1995.17
2035.02
2071.76
2104.08
2131.74
2154.72
2170.57
2177.14
2093.35
1979.8
1858.98
1733.36
1604.93
1475.37
1346.13
1218.54
1093.87
973.426
858.326
749.711
649.502
559.951
483.198
420.895
373.668
340.636
319.432
306.885
299.965
296.369
294.589
293.733
293.332
293.148
293.065
293.028
293.012
293.005
293.002
293.001
293
293
293
293
293
293
293.004
293.017
293.039
293.076
293.137
293.239
293.407
293.68
294.12
294.821
295.917
297.603
300.146
303.894
309.278
316.793
326.952
340.227
356.976
377.382
401.436
428.955
459.638
493.129
529.07
567.142
607.079
648.67
691.755
736.208
781.929
828.828
876.814
925.784
975.619
1026.21
1077.59
1129.69
1182.39
1235.58
1289.15
1342.97
1396.92
1450.87
1504.67
1558.19
1611.27
1663.75
1715.46
1766.23
1815.85
1864.12
1910.79
1955.57
1998.12
2038.02
2074.77
2106.97
2134.55
2157.27
2172.78
2178.73
2075.37
1960.79
1838.76
1712.04
1582.77
1452.66
1323.21
1195.75
1071.57
951.97
838.007
730.915
632.691
545.545
471.503
412.018
367.449
336.647
317.087
305.609
299.314
296.054
294.441
293.666
293.302
293.135
293.059
293.026
293.011
293.005
293.002
293.001
293
293
293
293
293
293
293.004
293.017
293.039
293.075
293.136
293.237
293.403
293.674
294.111
294.804
295.89
297.559
300.076
303.786
309.115
316.555
326.616
339.772
356.382
376.636
400.532
427.895
458.43
491.784
527.604
565.571
605.419
646.938
689.968
734.384
780.087
826.989
875.001
924.021
973.932
1024.62
1076.13
1128.37
1181.25
1234.64
1288.44
1342.51
1396.73
1450.96
1505.06
1558.88
1612.27
1665.06
1717.07
1768.12
1818.01
1866.5
1913.33
1958.21
2000.77
2040.6
2077.16
2108.76
2136.57
2158.54
2173.25
2178.47
2066.88
1947.3
1822.12
1693.39
1562.85
1432.03
1302.31
1174.98
1051.29
932.512
819.628
713.994
617.645
532.733
461.173
404.239
362.046
333.21
315.078
304.52
298.759
295.785
294.315
293.608
293.276
293.123
293.054
293.024
293.01
293.004
293.002
293.001
293
293
293
293
293
293
293.004
293.017
293.038
293.074
293.135
293.235
293.4
293.669
294.101
294.788
295.863
297.517
300.01
303.685
308.965
316.338
326.316
339.369
355.862
375.99
399.757
426.994
457.411
490.66
526.387
564.276
604.06
645.53
688.526
732.924
778.625
825.543
873.589
922.665
972.654
1023.44
1075.06
1127.45
1180.48
1234.06
1288.06
1342.36
1396.82
1451.3
1505.67
1559.76
1613.42
1666.48
1718.75
1770.04
1820.14
1868.81
1915.77
1960.71
2003.25
2042.91
2078.97
2109.9
2136.69
2156.96
2168.92
2169.71
2055.11
1933.07
1806.02
1675.95
1544.53
1413.25
1283.41
1156.28
1033.11
915.118
803.265
698.984
604.35
521.463
452.137
397.476
357.375
330.25
313.351
303.582
298.279
295.55
294.204
293.557
293.253
293.113
293.05
293.022
293.009
293.004
293.002
293.001
293
293
293
293
293
293
293.004
293.017
293.038
293.074
293.134
293.233
293.397
293.663
294.092
294.773
295.839
297.478
299.95
303.594
308.832
316.148
326.053
339.02
355.415
375.438
399.098
426.234
456.558
489.725
525.383
563.215
602.955
644.395
687.372
731.766
777.477
824.42
872.508
921.643
971.709
1022.59
1074.33
1126.84
1180.03
1233.78
1287.96
1342.45
1397.12
1451.83
1506.43
1560.76
1614.65
1667.94
1720.43
1771.92
1822.2
1871
1918.06
1963.03
2005.51
2045.01
2080.65
2111.1
2137.1
2156.12
2166.08
2159.35
2042.55
1918.85
1790.59
1659.67
1527.73
1396.19
1266.38
1139.53
1016.89
899.647
788.748
685.722
592.655
511.603
444.281
391.637
353.371
327.729
311.887
302.789
297.872
295.352
294.11
293.513
293.233
293.104
293.046
293.02
293.009
293.004
293.002
293.001
293
293
293
293
293
293
293.004
293.016
293.038
293.073
293.133
293.232
293.394
293.658
294.084
294.76
295.817
297.444
299.897
303.514
308.715
315.982
325.826
338.72
355.033
374.969
398.544
425.598
455.849
488.953
524.559
562.351
602.063
643.485
686.457
730.856
776.586
823.56
871.693
920.888
971.029
1022
1073.84
1126.47
1179.8
1233.7
1288.04
1342.71
1397.57
1452.47
1507.27
1561.8
1615.89
1669.37
1722.05
1773.72
1824.14
1873.07
1920.21
1965.24
2007.73
2047.19
2082.68
2113.01
2138.95
2158.04
2168.46
2147.44
2029.56
1905
1776.08
1644.72
1512.52
1380.94
1251.26
1124.74
1002.63
886.078
776.051
674.154
582.486
503.057
437.499
386.624
349.955
325.589
310.648
302.118
297.529
295.184
294.03
293.476
293.216
293.097
293.043
293.019
293.008
293.003
293.001
293.001
293
293
293
293
293
293
293.004
293.016
293.037
293.073
293.132
293.23
293.391
293.654
294.076
294.748
295.798
297.414
299.851
303.445
308.614
315.84
325.631
338.465
354.71
374.576
398.081
425.07
455.264
488.32
523.889
561.653
601.347
642.762
685.736
730.148
775.9
822.909
871.088
920.341
970.554
1021.61
1073.54
1126.29
1179.73
1233.76
1288.25
1343.07
1398.09
1453.16
1508.12
1562.83
1617.09
1670.74
1723.57
1775.37
1825.92
1874.95
1922.18
1967.26
2009.78
2049.25
2084.7
2114.99
2140.9
2160
2170.47
2135.55
2017.09
1892.06
1762.78
1631.18
1498.89
1367.35
1237.87
1111.7
990.104
874.201
764.975
664.097
573.677
495.687
431.681
382.346
347.056
323.782
309.606
301.556
297.241
295.043
293.963
293.445
293.202
293.09
293.04
293.017
293.007
293.003
293.001
293.001
293
293
293
293
293
293
293.004
293.016
293.037
293.072
293.131
293.229
293.389
293.65
294.07
294.737
295.782
297.388
299.811
303.386
308.528
315.719
325.468
338.25
354.44
374.248
397.697
424.635
454.785
487.805
523.346
561.092
600.777
642.191
685.173
729.601
775.379
822.421
870.645
919.954
970.232
1021.37
1073.38
1126.22
1179.77
1233.92
1288.53
1343.48
1398.64
1453.85
1508.96
1563.8
1618.21
1671.98
1724.94
1776.86
1827.5
1876.62
1923.9
1969.01
2011.54
2050.98
2086.4
2116.66
2142.55
2161.63
2172.13
2124.84
2005.9
1880.51
1750.99
1619.25
1486.94
1355.5
1226.24
1100.42
979.287
863.946
755.411
655.43
566.104
489.373
426.72
378.718
344.609
322.265
308.734
301.086
297
294.925
293.907
293.419
293.19
293.085
293.038
293.016
293.007
293.003
293.001
293.001
293
293
293
293
293
293
293.004
293.016
293.037
293.072
293.131
293.228
293.387
293.647
294.065
294.729
295.768
297.366
299.778
303.336
308.456
315.618
325.331
338.072
354.217
373.978
397.382
424.28
454.395
487.388
522.911
560.646
600.327
641.744
684.736
729.182
774.985
822.061
870.326
919.685
970.023
1021.22
1073.32
1126.24
1179.88
1234.12
1288.84
1343.91
1399.18
1454.5
1509.73
1564.69
1619.2
1673.09
1726.14
1778.14
1828.86
1878.03
1925.35
1970.47
2012.99
2052.43
2087.8
2118.01
2143.85
2162.9
2173.42
2115.66
1996.22
1870.5
1740.77
1608.94
1476.65
1345.32
1216.26
1090.74
970.014
855.161
747.228
648.028
559.654
484.011
422.522
375.662
342.56
320.999
308.009
300.695
296.801
294.828
293.86
293.397
293.18
293.081
293.036
293.015
293.007
293.003
293.001
293.001
293
293
293
293
293
293
293.004
293.016
293.037
293.072
293.13
293.227
293.385
293.644
294.06
294.721
295.756
297.348
299.75
303.295
308.396
315.535
325.219
337.926
354.034
373.758
397.127
423.993
454.082
487.056
522.565
560.293
599.973
641.396
684.4
728.863
774.691
821.797
870.1
919.503
969.892
1021.15
1073.31
1126.3
1180.02
1234.34
1289.15
1344.31
1399.67
1455.09
1510.41
1565.46
1620.07
1674.03
1727.16
1779.22
1829.98
1879.17
1926.5
1971.63
2014.15
2053.56
2088.87
2119.02
2144.83
2163.87
2174.44
2107.93
1988.02
1861.99
1732.08
1600.19
1467.9
1336.67
1207.79
1082.53
962.164
847.73
740.316
641.785
554.223
479.509
419.009
373.115
340.858
319.952
307.41
300.374
296.637
294.747
293.822
293.38
293.172
293.077
293.034
293.015
293.006
293.003
293.001
293
293
293
293
293
293
293
293.004
293.016
293.037
293.072
293.13
293.226
293.384
293.642
294.056
294.715
295.746
297.333
299.727
303.261
308.348
315.467
325.128
337.808
353.887
373.582
396.922
423.764
453.834
486.793
522.293
560.017
599.699
641.128
684.144
728.624
774.472
821.606
869.94
919.381
969.813
1021.12
1073.33
1126.38
1180.16
1234.56
1289.43
1344.66
1400.1
1455.59
1510.99
1566.11
1620.78
1674.8
1727.97
1780.07
1830.85
1880.07
1927.41
1972.53
2015.02
2054.39
2089.64
2119.75
2145.53
2164.59
2175.18
2101.6
1981.22
1854.89
1724.82
1592.85
1460.58
1329.43
1200.71
1075.69
955.622
841.543
734.57
636.601
549.72
475.783
416.11
371.02
339.463
319.096
306.923
300.113
296.504
294.682
293.791
293.365
293.166
293.074
293.033
293.014
293.006
293.003
293.001
293
293
293
293
293
293
293
293.004
293.016
293.037
293.071
293.129
293.225
293.383
293.64
294.053
294.71
295.739
297.321
299.709
303.234
308.309
315.413
325.055
337.715
353.771
373.443
396.762
423.585
453.64
486.589
522.083
559.805
599.489
640.925
683.951
728.445
774.311
821.467
869.828
919.299
969.765
1021.11
1073.36
1126.46
1180.29
1234.74
1289.67
1344.95
1400.45
1456
1511.44
1566.61
1621.33
1675.38
1728.58
1780.71
1831.51
1880.73
1928.05
1973.15
2015.6
2054.93
2090.11
2120.18
2145.95
2165.04
2175.69
2096.48
1975.66
1849.07
1718.85
1586.82
1454.58
1323.51
1194.93
1070.1
950.288
836.504
729.895
632.389
546.067
472.767
413.768
369.331
338.342
318.41
306.533
299.904
296.397
294.63
293.766
293.353
293.16
293.072
293.032
293.014
293.006
293.003
293.001
293
293
293
293
293
293
293
293.004
293.016
293.037
293.071
293.129
293.225
293.382
293.638
294.051
294.706
295.733
297.312
299.695
303.213
308.279
315.372
325
337.643
353.682
373.337
396.64
423.45
453.494
486.435
521.925
559.647
599.334
640.774
683.809
728.314
774.195
821.368
869.749
919.243
969.735
1021.11
1073.39
1126.52
1180.39
1234.87
1289.84
1345.17
1400.7
1456.29
1511.77
1566.98
1621.72
1675.8
1729.02
1781.15
1831.95
1881.15
1928.45
1973.51
2015.92
2055.19
2090.33
2120.36
2146.13
2165.28
2176.04
2092.46
1971.25
1844.41
1714.07
1582.01
1449.79
1318.8
1190.34
1065.68
946.078
832.534
726.218
629.082
543.205
470.408
411.941
368.016
337.47
317.877
306.229
299.742
296.314
294.589
293.747
293.344
293.156
293.07
293.031
293.013
293.006
293.002
293.001
293
293
293
293
293
293
293
293.004
293.016
293.037
293.071
293.129
293.224
293.381
293.637
294.049
294.704
295.728
297.305
299.685
303.198
308.258
315.342
324.96
337.592
353.618
373.261
396.553
423.352
453.389
486.325
521.812
559.534
599.223
640.668
683.709
728.222
774.114
821.299
869.694
919.204
969.713
1021.1
1073.41
1126.57
1180.46
1234.96
1289.96
1345.31
1400.87
1456.48
1511.99
1567.21
1621.97
1676.06
1729.28
1781.41
1832.19
1881.36
1928.63
1973.64
2016
2055.22
2090.31
2120.33
2146.11
2165.35
2176.27
2089.49
1967.91
1840.87
1710.43
1578.35
1446.16
1315.24
1186.89
1062.37
942.931
829.574
723.485
626.63
541.088
468.669
410.598
367.052
336.831
317.486
306.007
299.622
296.253
294.56
293.733
293.338
293.153
293.069
293.03
293.013
293.006
293.002
293.001
293
293
293
293
293
293
293
293.004
293.016
293.036
293.071
293.129
293.224
293.381
293.637
294.048
294.702
295.725
297.301
299.678
303.189
308.244
315.323
324.934
337.558
353.577
373.211
396.496
423.29
453.322
486.254
521.74
559.462
599.152
640.6
683.645
728.164
774.062
821.255
869.659
919.178
969.698
1021.1
1073.42
1126.59
1180.49
1235.01
1290.03
1345.39
1400.97
1456.59
1512.11
1567.34
1622.09
1676.18
1729.39
1781.5
1832.26
1881.4
1928.62
1973.59
2015.9
2055.07
2090.13
2120.12
2145.93
2165.27
2176.4
2087.53
1965.62
1838.4
1707.89
1575.81
1443.65
1312.8
1184.54
1060.12
940.813
827.593
721.664
625.003
539.69
467.525
409.718
366.424
336.417
317.233
305.862
299.544
296.213
294.54
293.723
293.334
293.151
293.068
293.03
293.013
293.006
293.002
293.001
293
293
293
293
293
293
293
293.004
293.016
293.036
293.071
293.129
293.224
293.381
293.636
294.048
294.701
295.724
297.299
299.675
303.184
308.237
315.313
324.922
337.543
353.557
373.188
396.469
423.26
453.29
486.221
521.706
559.427
599.118
640.568
683.614
728.136
774.037
821.233
869.641
919.165
969.689
1021.1
1073.42
1126.59
1180.5
1235.03
1290.05
1345.42
1401
1456.63
1512.14
1567.37
1622.12
1676.21
1729.41
1781.5
1832.23
1881.35
1928.54
1973.47
2015.73
2054.87
2089.89
2119.87
2145.69
2165.13
2176.46
2086.56
1964.4
1837.07
1706.52
1574.45
1442.33
1311.53
1183.33
1058.98
939.748
826.606
720.767
624.209
539.012
466.975
409.299
366.128
336.223
317.115
305.795
299.508
296.195
294.531
293.719
293.332
293.15
293.067
293.03
293.013
293.006
293.002
293.001
293
293
293
293
293
293
293
293.004
293.016
293.036
293.071
293.129
293.224
293.381
293.636
294.048
294.701
295.724
297.299
299.675
303.184
308.237
315.313
324.922
337.543
353.557
373.188
396.469
423.26
453.29
486.221
521.706
559.427
599.118
640.568
683.614
728.136
774.037
821.234
869.641
919.165
969.689
1021.1
1073.42
1126.59
1180.5
1235.03
1290.05
1345.42
1401
1456.63
1512.14
1567.37
1622.12
1676.21
1729.41
1781.5
1832.23
1881.35
1928.54
1973.47
2015.73
2054.87
2089.89
2119.87
2145.7
2165.13
2176.46
2086.57
1964.4
1837.07
1706.52
1574.45
1442.33
1311.53
1183.33
1058.99
939.749
826.607
720.768
624.21
539.013
466.976
409.299
366.128
336.223
317.115
305.795
299.508
296.195
294.531
293.719
293.332
293.15
293.067
293.03
293.013
293.006
293.002
293.001
293
293
293
293
293
293
293
293.004
293.016
293.036
293.071
293.129
293.224
293.381
293.637
294.048
294.702
295.725
297.301
299.678
303.189
308.244
315.323
324.934
337.559
353.577
373.212
396.496
423.29
453.322
486.255
521.74
559.462
599.153
640.601
683.645
728.164
774.062
821.255
869.659
919.179
969.699
1021.1
1073.42
1126.59
1180.49
1235.02
1290.03
1345.39
1400.97
1456.59
1512.11
1567.34
1622.1
1676.18
1729.4
1781.5
1832.26
1881.4
1928.63
1973.59
2015.9
2055.08
2090.13
2120.12
2145.93
2165.27
2176.4
2087.54
1965.62
1838.41
1707.9
1575.81
1443.66
1312.8
1184.54
1060.13
940.817
827.596
721.667
625.006
539.692
467.527
409.719
366.425
336.418
317.233
305.862
299.544
296.213
294.54
293.723
293.334
293.151
293.068
293.03
293.013
293.006
293.002
293.001
293
293
293
293
293
293
293
293.004
293.016
293.037
293.071
293.129
293.224
293.381
293.637
294.049
294.704
295.728
297.305
299.685
303.198
308.258
315.342
324.96
337.592
353.618
373.261
396.553
423.353
453.39
486.326
521.813
559.535
599.224
640.669
683.71
728.223
774.115
821.3
869.696
919.206
969.715
1021.11
1073.41
1126.57
1180.46
1234.97
1289.96
1345.31
1400.87
1456.49
1511.99
1567.22
1621.97
1676.07
1729.29
1781.41
1832.19
1881.37
1928.63
1973.64
2016
2055.23
2090.32
2120.33
2146.11
2165.35
2176.27
2089.5
1967.92
1840.87
1710.44
1578.35
1446.16
1315.25
1186.89
1062.37
942.937
829.58
723.491
626.635
541.093
468.673
410.6
367.054
336.832
317.487
306.007
299.622
296.253
294.56
293.733
293.338
293.153
293.069
293.03
293.013
293.006
293.002
293.001
293
293
293
293
293
293
293
293.004
293.016
293.037
293.071
293.129
293.225
293.382
293.638
294.051
294.706
295.733
297.312
299.695
303.214
308.279
315.372
325
337.644
353.683
373.337
396.641
423.451
453.495
486.436
521.926
559.648
599.335
640.776
683.81
728.316
774.197
821.37
869.751
919.245
969.737
1021.11
1073.39
1126.53
1180.39
1234.88
1289.85
1345.17
1400.71
1456.29
1511.78
1566.98
1621.72
1675.81
1729.03
1781.16
1831.96
1881.16
1928.46
1973.51
2015.92
2055.2
2090.33
2120.37
2146.13
2165.29
2176.05
2092.47
1971.26
1844.42
1714.08
1582.02
1449.8
1318.81
1190.35
1065.69
946.087
832.542
726.226
629.089
543.211
470.413
411.945
368.019
337.471
317.878
306.23
299.742
296.314
294.59
293.747
293.345
293.156
293.07
293.031
293.013
293.006
293.002
293.001
293
293
293
293
293
293
293
293.004
293.016
293.037
293.071
293.129
293.225
293.383
293.64
294.053
294.71
295.739
297.321
299.709
303.234
308.309
315.413
325.056
337.715
353.771
373.443
396.763
423.586
453.641
486.59
522.084
559.807
599.491
640.927
683.952
728.447
774.313
821.469
869.83
919.302
969.768
1021.11
1073.37
1126.46
1180.3
1234.74
1289.67
1344.96
1400.45
1456
1511.45
1566.62
1621.33
1675.39
1728.59
1780.72
1831.52
1880.74
1928.06
1973.16
2015.61
2054.93
2090.12
2120.19
2145.96
2165.05
2175.7
2096.49
1975.68
1849.08
1718.86
1586.84
1454.59
1323.52
1194.94
1070.11
950.299
836.514
729.905
632.397
546.074
472.773
413.773
369.335
338.344
318.412
306.533
299.904
296.397
294.63
293.766
293.353
293.16
293.072
293.032
293.014
293.006
293.003
293.001
293
293
293
293
293
293
293
293.004
293.016
293.037
293.072
293.13
293.226
293.384
293.642
294.056
294.715
295.746
297.333
299.727
303.261
308.348
315.467
325.128
337.809
353.887
373.582
396.923
423.765
453.835
486.794
522.294
560.019
599.701
641.13
684.146
728.626
774.475
821.608
869.943
919.384
969.816
1021.12
1073.33
1126.39
1180.17
1234.56
1289.44
1344.67
1400.1
1455.6
1510.99
1566.12
1620.79
1674.81
1727.98
1780.08
1830.86
1880.08
1927.42
1972.54
2015.03
2054.4
2089.65
2119.76
2145.54
2164.6
2175.2
2101.62
1981.24
1854.91
1724.84
1592.87
1460.6
1329.45
1200.73
1075.7
955.636
841.556
734.582
636.612
549.729
475.791
416.116
371.024
339.466
319.098
306.924
300.113
296.504
294.682
293.791
293.365
293.166
293.074
293.033
293.014
293.006
293.003
293.001
293
293
293
293
293
293
293
293.004
293.016
293.037
293.072
293.13
293.227
293.385
293.644
294.06
294.721
295.756
297.348
299.75
303.295
308.396
315.535
325.219
337.927
354.035
373.759
397.128
423.994
454.084
487.057
522.567
560.295
599.975
641.398
684.402
728.866
774.693
821.801
870.103
919.507
969.896
1021.15
1073.31
1126.31
1180.03
1234.35
1289.16
1344.31
1399.68
1455.1
1510.42
1565.47
1620.08
1674.04
1727.17
1779.23
1829.99
1879.19
1926.51
1971.64
2014.17
2053.58
2088.89
2119.04
2144.84
2163.89
2174.46
2107.95
1988.05
1862.01
1732.11
1600.21
1467.93
1336.69
1207.81
1082.55
962.181
847.746
740.331
641.798
554.234
479.518
419.016
373.12
340.861
319.954
307.411
300.375
296.637
294.747
293.822
293.38
293.172
293.077
293.034
293.015
293.006
293.003
293.001
293
293
293
293
293
293
293
293.004
293.016
293.037
293.072
293.131
293.228
293.387
293.647
294.065
294.729
295.768
297.366
299.778
303.336
308.456
315.618
325.332
338.073
354.217
373.979
397.384
424.281
454.397
487.39
522.913
560.648
600.329
641.746
684.739
729.185
774.988
822.065
870.33
919.69
970.027
1021.23
1073.32
1126.25
1179.89
1234.13
1288.85
1343.91
1399.18
1454.51
1509.74
1564.7
1619.22
1673.1
1726.15
1778.16
1828.88
1878.04
1925.36
1970.49
2013.01
2052.45
2087.82
2118.03
2143.87
2162.93
2173.45
2115.69
1996.25
1870.53
1740.79
1608.97
1476.68
1345.34
1216.28
1090.76
970.034
855.18
747.245
648.044
559.667
484.022
422.531
375.668
342.564
321.001
308.01
300.696
296.801
294.828
293.86
293.397
293.18
293.081
293.036
293.015
293.007
293.003
293.001
293.001
293
293
293
293
293
293
293.004
293.016
293.037
293.072
293.131
293.229
293.389
293.65
294.07
294.737
295.782
297.388
299.812
303.386
308.528
315.719
325.468
338.251
354.441
374.249
397.698
424.637
454.787
487.807
523.349
561.095
600.78
642.194
685.176
729.605
775.382
822.426
870.65
919.959
970.238
1021.37
1073.39
1126.23
1179.78
1233.92
1288.54
1343.49
1398.65
1453.86
1508.97
1563.81
1618.22
1672
1724.96
1776.87
1827.52
1876.64
1923.92
1969.04
2011.56
2051.01
2086.42
2116.69
2142.58
2161.66
2172.17
2124.88
2005.93
1880.54
1751.02
1619.28
1486.97
1355.52
1226.26
1100.44
979.31
863.967
755.43
655.447
566.119
489.386
426.729
378.725
344.614
322.268
308.736
301.086
297.001
294.925
293.907
293.419
293.19
293.085
293.038
293.016
293.007
293.003
293.001
293.001
293
293
293
293
293
293
293.004
293.016
293.037
293.073
293.132
293.23
293.391
293.654
294.076
294.748
295.798
297.414
299.851
303.445
308.614
315.84
325.632
338.465
354.711
374.577
398.082
425.072
455.266
488.322
523.891
561.656
601.351
642.766
685.74
730.152
775.905
822.913
871.093
920.347
970.56
1021.62
1073.55
1126.3
1179.74
1233.77
1288.26
1343.08
1398.1
1453.17
1508.14
1562.84
1617.11
1670.75
1723.59
1775.39
1825.94
1874.98
1922.21
1967.29
2009.81
2049.28
2084.73
2115.03
2140.94
2160.04
2170.52
2135.59
2017.14
1892.1
1762.82
1631.22
1498.93
1367.39
1237.9
1111.73
990.128
874.223
764.995
664.116
573.694
495.701
431.692
382.354
347.061
323.786
309.608
301.557
297.241
295.043
293.963
293.445
293.202
293.09
293.04
293.017
293.007
293.003
293.001
293.001
293
293
293
293
293
293
293.004
293.016
293.038
293.073
293.133
293.232
293.394
293.658
294.084
294.76
295.817
297.444
299.897
303.515
308.715
315.982
325.826
338.721
355.034
374.971
398.546
425.6
455.852
488.956
524.562
562.354
602.067
643.489
686.461
730.861
776.59
823.565
871.698
920.894
971.036
1022.01
1073.85
1126.48
1179.81
1233.71
1288.05
1342.72
1397.58
1452.48
1507.28
1561.81
1615.91
1669.39
1722.07
1773.74
1824.16
1873.1
1920.24
1965.27
2007.76
2047.23
2082.73
2113.06
2139
2158.1
2168.53
2147.49
2029.6
1905.04
1776.11
1644.74
1512.55
1380.96
1251.29
1124.77
1002.65
886.098
776.072
674.174
582.505
503.073
437.511
386.633
349.961
325.593
310.65
302.119
297.529
295.184
294.03
293.476
293.216
293.097
293.043
293.019
293.008
293.003
293.001
293.001
293
293
293
293
293
293
293.004
293.017
293.038
293.074
293.134
293.233
293.397
293.663
294.092
294.773
295.839
297.479
299.95
303.594
308.832
316.148
326.054
339.021
355.416
375.439
399.1
426.236
456.561
489.728
525.386
563.218
602.959
644.399
687.377
731.771
777.482
824.426
872.514
921.65
971.716
1022.6
1074.33
1126.85
1180.04
1233.79
1287.97
1342.47
1397.14
1451.85
1506.44
1560.77
1614.67
1667.96
1720.45
1771.95
1822.22
1871.03
1918.09
1963.06
2005.55
2045.05
2080.69
2111.15
2137.16
2156.18
2166.16
2159.39
2042.58
1918.9
1790.63
1659.71
1527.77
1396.24
1266.43
1139.58
1016.93
899.684
788.775
685.742
592.673
511.617
444.293
391.646
353.377
327.733
311.889
302.79
297.873
295.352
294.11
293.513
293.233
293.104
293.046
293.02
293.009
293.004
293.002
293.001
293
293
293
293
293
293
293.004
293.017
293.038
293.074
293.135
293.235
293.4
293.669
294.101
294.788
295.863
297.517
300.01
303.685
308.965
316.339
326.316
339.371
355.864
375.992
399.759
426.996
457.414
490.663
526.391
564.28
604.064
645.535
688.531
732.929
778.631
825.549
873.596
922.672
972.661
1023.45
1075.07
1127.46
1180.49
1234.07
1288.08
1342.38
1396.83
1451.32
1505.68
1559.78
1613.44
1666.5
1718.77
1770.07
1820.17
1868.84
1915.8
1960.74
2003.28
2042.95
2079.01
2109.95
2136.74
2157
2168.97
2169.75
2055.14
1933.1
1806.04
1675.97
1544.56
1413.27
1283.43
1156.3
1033.13
915.143
803.289
699.006
604.369
521.48
452.15
397.486
357.382
330.255
313.354
303.584
298.279
295.551
294.204
293.557
293.253
293.113
293.05
293.022
293.009
293.004
293.002
293.001
293
293
293
293
293
293
293.004
293.017
293.039
293.075
293.136
293.237
293.403
293.674
294.111
294.804
295.89
297.559
300.076
303.786
309.116
316.555
326.617
339.774
356.384
376.638
400.534
427.897
458.433
491.787
527.608
565.575
605.423
646.943
689.973
734.389
780.093
826.996
875.008
924.028
973.94
1024.63
1076.14
1128.38
1181.26
1234.65
1288.45
1342.52
1396.74
1450.97
1505.07
1558.9
1612.29
1665.08
1717.09
1768.15
1818.03
1866.52
1913.36
1958.24
2000.81
2040.63
2077.2
2108.8
2136.61
2158.58
2173.28
2178.5
2066.91
1947.33
1822.15
1693.41
1562.87
1432.06
1302.34
1175.01
1051.32
932.541
819.662
714.027
617.671
532.752
461.187
404.249
362.053
333.214
315.081
304.522
298.76
295.785
294.315
293.608
293.276
293.123
293.054
293.024
293.01
293.004
293.002
293.001
293
293
293
293
293
293
293.004
293.017
293.039
293.076
293.137
293.239
293.407
293.68
294.12
294.821
295.917
297.603
300.146
303.894
309.279
316.793
326.953
340.229
356.978
377.384
401.438
428.958
459.641
493.132
529.074
567.146
607.083
648.675
691.76
736.214
781.935
828.835
876.821
925.792
975.627
1026.22
1077.6
1129.7
1182.4
1235.59
1289.16
1342.98
1396.94
1450.89
1504.69
1558.21
1611.28
1663.76
1715.48
1766.25
1815.88
1864.15
1910.81
1955.59
1998.15
2038.05
2074.8
2107
2134.57
2157.3
2172.8
2178.76
2075.4
1960.82
1838.79
1712.07
1582.79
1452.68
1323.23
1195.77
1071.59
951.987
838.02
730.928
632.706
545.56
471.515
412.028
367.456
336.652
317.089
305.611
299.315
296.055
294.441
293.666
293.302
293.135
293.059
293.026
293.011
293.005
293.002
293.001
293
293
293
293
293
293
293.004
293.017
293.039
293.076
293.138
293.241
293.41
293.686
294.13
294.837
295.944
297.649
300.22
304.011
309.457
317.057
327.328
340.743
357.655
378.243
402.487
430.197
461.065
494.728
530.825
569.036
609.093
650.785
693.949
738.462
784.219
831.13
879.102
928.029
977.791
1028.28
1079.54
1131.48
1183.99
1236.96
1290.29
1343.84
1397.5
1451.13
1504.61
1557.79
1610.51
1662.65
1714.02
1764.46
1813.77
1861.76
1908.18
1952.77
1995.19
2035.04
2071.78
2104.1
2131.76
2154.73
2170.59
2177.15
2093.37
1979.82
1859
1733.38
1604.95
1475.39
1346.15
1218.56
1093.89
973.442
858.341
749.726
649.516
559.965
483.21
420.905
373.675
340.641
319.435
306.887
299.966
296.37
294.589
293.733
293.332
293.148
293.065
293.028
293.012
293.005
293.002
293.001
293
293
293
293
293
293
293.004
293.017
293.039
293.077
293.139
293.242
293.412
293.69
294.137
294.85
295.967
297.687
300.285
304.118
309.628
317.319
327.714
341.288
358.392
379.197
403.675
431.624
462.724
496.605
532.902
571.291
611.503
653.326
696.598
741.191
787.002
833.937
881.901
930.788
980.474
1030.86
1081.98
1133.75
1186.06
1238.8
1291.86
1345.13
1398.47
1451.76
1504.88
1557.7
1610.05
1661.8
1712.8
1762.87
1811.84
1859.49
1905.62
1949.93
1992.13
2031.81
2068.48
2100.93
2128.67
2151.77
2168.01
2175.39
2113.78
2000.91
1880.94
1756.16
1628.46
1499.42
1370.44
1242.81
1117.75
996.522
880.33
770.219
667.975
575.893
496.226
430.837
380.652
345.111
322.045
308.29
300.669
296.705
294.743
293.802
293.362
293.161
293.07
293.03
293.013
293.005
293.002
293.001
293
293
293
293
293
293
293.004
293.017
293.039
293.077
293.139
293.242
293.413
293.692
294.142
294.86
295.987
297.725
300.352
304.233
309.815
317.612
328.153
341.915
359.245
380.308
405.063
433.293
464.669
498.809
535.344
573.944
614.34
656.317
699.712
744.398
790.268
837.228
885.181
934.019
983.618
1033.89
1084.86
1136.44
1188.54
1241.03
1293.81
1346.77
1399.79
1452.74
1505.5
1557.93
1609.91
1661.28
1711.9
1761.6
1810.21
1857.52
1903.32
1947.35
1989.28
2028.74
2065.25
2097.67
2125.45
2148.66
2165.04
2172.79
2133.24
2021.21
1902.19
1778.35
1651.49
1523.13
1394.6
1267.14
1141.92
1020.17
903.088
791.67
687.554
593.022
510.429
441.846
388.513
350.223
325.065
309.922
301.487
297.092
294.92
293.881
293.396
293.175
293.076
293.033
293.014
293.006
293.002
293.001
293
293
293
293
293
293
293.004
293.017
293.039
293.076
293.138
293.242
293.412
293.69
294.139
294.856
295.984
297.728
300.369
304.281
309.92
317.81
328.492
342.451
360.036
381.401
406.491
435.07
466.789
501.25
538.073
576.921
617.521
659.66
703.174
747.937
793.845
840.803
888.716
937.475
986.957
1037.08
1087.88
1139.27