/*--------------------------------*- C++ -*----------------------------------*\
  =========                 |
  \\      /  F ield         | OpenFOAM: The Open Source CFD Toolbox
   \\    /   O peration     | Website:  https://openfoam.org
    \\  /    A nd           | Version:  8
     \\/     M anipulation  |
\*---------------------------------------------------------------------------*/
FoamFile
{
    version     2.0;
    format      ascii;
    class       volVectorField;
    location    "940/fluid";
    object      U;
}
// * * * * * * * * * * * * * * * * * * * * * * * * * * * * * * * * * * * * * //

dimensions      [0 1 -1 0 0 0 0];

internalField   nonuniform List<vector> 
4000
(
(0.0999452 -0.00706228 0)
(0.0996475 -0.0210148 0)
(0.0991669 -0.0348527 0)
(0.0985031 -0.0486147 0)
(0.0976479 -0.0623189 0)
(0.0965835 -0.075967 0)
(0.0952891 -0.0895481 0)
(0.0937452 -0.103042 0)
(0.0919361 -0.116421 0)
(0.0898533 -0.129657 0)
(0.0874984 -0.142721 0)
(0.084887 -0.155595 0)
(0.0820532 -0.168267 0)
(0.0790562 -0.180725 0)
(0.0759747 -0.193014 0)
(0.0728812 -0.205205 0)
(0.0698263 -0.217357 0)
(0.0668273 -0.229514 0)
(0.0638601 -0.241687 0)
(0.0608603 -0.253849 0)
(0.0577358 -0.265937 0)
(0.0543852 -0.277859 0)
(0.0507192 -0.289509 0)
(0.0466817 -0.300754 0)
(0.0422476 -0.311503 0)
(0.03741 -0.321692 0)
(0.0321751 -0.331255 0)
(0.0265608 -0.340135 0)
(0.0205936 -0.348287 0)
(0.0143049 -0.355674 0)
(0.00772896 -0.362273 0)
(0.000901798 -0.368071 0)
(-0.0061392 -0.373066 0)
(-0.0133577 -0.377263 0)
(-0.0207205 -0.380674 0)
(-0.0281977 -0.38332 0)
(-0.0357617 -0.385226 0)
(-0.0433863 -0.386422 0)
(-0.0510468 -0.386945 0)
(-0.0587198 -0.386834 0)
(-0.0663832 -0.386129 0)
(-0.074016 -0.384877 0)
(-0.0815986 -0.383123 0)
(-0.0891117 -0.380916 0)
(-0.0965369 -0.378303 0)
(-0.103856 -0.375335 0)
(-0.111052 -0.372062 0)
(-0.118106 -0.368536 0)
(-0.125001 -0.364809 0)
(-0.131719 -0.360934 0)
(-0.13824 -0.356965 0)
(-0.144546 -0.352958 0)
(-0.150615 -0.348972 0)
(-0.156425 -0.345067 0)
(-0.161952 -0.341312 0)
(-0.167168 -0.337779 0)
(-0.172031 -0.334552 0)
(-0.176491 -0.331715 0)
(-0.180522 -0.32937 0)
(-0.18416 -0.32767 0)
(-0.187474 -0.326891 0)
(-0.18985 -0.327389 0)
(-0.189188 -0.329013 0)
(-0.184301 -0.330026 0)
(-0.177252 -0.329321 0)
(-0.169769 -0.327022 0)
(-0.162055 -0.32342 0)
(-0.154046 -0.318658 0)
(-0.145765 -0.312795 0)
(-0.13728 -0.305868 0)
(-0.128672 -0.297907 0)
(-0.120025 -0.288944 0)
(-0.111426 -0.27902 0)
(-0.10297 -0.268183 0)
(-0.0948038 -0.25649 0)
(-0.0871683 -0.244052 0)
(-0.0803914 -0.231068 0)
(-0.0748417 -0.217816 0)
(-0.0708954 -0.20486 0)
(-0.0688497 -0.192712 0)
(-0.0687407 -0.181616 0)
(-0.0702718 -0.171489 0)
(-0.0729294 -0.162023 0)
(-0.0761756 -0.152885 0)
(-0.0795818 -0.143832 0)
(-0.0828655 -0.134719 0)
(-0.0858539 -0.12545 0)
(-0.0884791 -0.116067 0)
(-0.0907388 -0.10662 0)
(-0.0926575 -0.09714 0)
(-0.0942688 -0.0876592 0)
(-0.0956079 -0.0782043 0)
(-0.0967091 -0.0687963 0)
(-0.0976037 -0.0594495 0)
(-0.0983205 -0.0501708 0)
(-0.0988847 -0.04096 0)
(-0.0993181 -0.0318102 0)
(-0.0996379 -0.0227078 0)
(-0.0998559 -0.0136319 0)
(-0.0999821 -0.00455425 0)
(0.0999999 -0.00662238 0)
(0.0997932 -0.0198092 0)
(0.0993657 -0.0329104 0)
(0.0986933 -0.0459078 0)
(0.0977776 -0.0587829 0)
(0.0966141 -0.0715122 0)
(0.0951933 -0.0840675 0)
(0.0935073 -0.0964169 0)
(0.0915539 -0.108528 0)
(0.0893403 -0.12037 0)
(0.086886 -0.131924 0)
(0.0842256 -0.143188 0)
(0.0814094 -0.154193 0)
(0.0785047 -0.165023 0)
(0.0755843 -0.175737 0)
(0.0727149 -0.186395 0)
(0.0699427 -0.197072 0)
(0.0672796 -0.207836 0)
(0.0646949 -0.218727 0)
(0.0621153 -0.229743 0)
(0.0594369 -0.240838 0)
(0.0565442 -0.251932 0)
(0.0533312 -0.262931 0)
(0.0497159 -0.273755 0)
(0.0456506 -0.284283 0)
(0.0411171 -0.294385 0)
(0.0361185 -0.303956 0)
(0.0306748 -0.312919 0)
(0.0248177 -0.321216 0)
(0.0185857 -0.328805 0)
(0.0120198 -0.335659 0)
(0.0051618 -0.341764 0)
(-0.00194746 -0.347114 0)
(-0.00926836 -0.351714 0)
(-0.0167635 -0.355575 0)
(-0.0243981 -0.358717 0)
(-0.0321407 -0.361162 0)
(-0.0399625 -0.362939 0)
(-0.0478366 -0.36408 0)
(-0.0557379 -0.364619 0)
(-0.063643 -0.364596 0)
(-0.07153 -0.364051 0)
(-0.0793783 -0.363026 0)
(-0.0871684 -0.361565 0)
(-0.0948816 -0.359713 0)
(-0.1025 -0.357518 0)
(-0.110007 -0.355027 0)
(-0.117384 -0.352287 0)
(-0.124615 -0.349347 0)
(-0.131684 -0.346257 0)
(-0.138574 -0.343066 0)
(-0.145267 -0.339827 0)
(-0.151748 -0.336591 0)
(-0.157997 -0.333412 0)
(-0.163999 -0.330344 0)
(-0.169731 -0.327444 0)
(-0.175161 -0.324768 0)
(-0.180247 -0.32237 0)
(-0.184989 -0.320298 0)
(-0.189488 -0.318608 0)
(-0.193854 -0.31735 0)
(-0.197133 -0.316511 0)
(-0.196687 -0.315598 0)
(-0.191366 -0.314018 0)
(-0.183809 -0.311556 0)
(-0.17595 -0.308104 0)
(-0.167952 -0.303615 0)
(-0.159684 -0.298064 0)
(-0.151133 -0.291435 0)
(-0.142348 -0.283721 0)
(-0.133389 -0.274922 0)
(-0.124323 -0.265051 0)
(-0.115211 -0.25415 0)
(-0.106127 -0.242297 0)
(-0.0972177 -0.229647 0)
(-0.0887614 -0.216481 0)
(-0.0811503 -0.203251 0)
(-0.074846 -0.190589 0)
(-0.0703053 -0.178913 0)
(-0.0678216 -0.168496 0)
(-0.0673702 -0.159354 0)
(-0.0685963 -0.151216 0)
(-0.0709703 -0.143676 0)
(-0.073975 -0.13637 0)
(-0.0772119 -0.129063 0)
(-0.0804208 -0.121647 0)
(-0.0834589 -0.114115 0)
(-0.0862402 -0.106379 0)
(-0.0887292 -0.0984143 0)
(-0.0909197 -0.0902515 0)
(-0.0928199 -0.0819301 0)
(-0.0944457 -0.0734882 0)
(-0.0958175 -0.0649592 0)
(-0.0969572 -0.0563707 0)
(-0.0978872 -0.0477438 0)
(-0.0986281 -0.0390935 0)
(-0.0991977 -0.0304287 0)
(-0.0996078 -0.0217531 0)
(-0.0998664 -0.0130651 0)
(-0.0999951 -0.00436051 0)
(0.0999787 -0.00634248 0)
(0.0997134 -0.0189595 0)
(0.0991939 -0.0314882 0)
(0.0984012 -0.0439081 0)
(0.097339 -0.0561968 0)
(0.0960086 -0.0683302 0)
(0.0944091 -0.0802832 0)
(0.0925436 -0.0920306 0)
(0.0904225 -0.103549 0)
(0.0880657 -0.11482 0)
(0.0855058 -0.125832 0)
(0.0827888 -0.136586 0)
(0.0799731 -0.147098 0)
(0.0771235 -0.1574 0)
(0.0743056 -0.167547 0)
(0.0715813 -0.177612 0)
(0.0689957 -0.187677 0)
(0.0665613 -0.197811 0)
(0.0642479 -0.20806 0)
(0.0619823 -0.218431 0)
(0.0596598 -0.228888 0)
(0.057162 -0.239361 0)
(0.0543758 -0.249756 0)
(0.0512052 -0.259971 0)
(0.0475801 -0.269905 0)
(0.0434632 -0.279466 0)
(0.0388465 -0.288572 0)
(0.033744 -0.297155 0)
(0.0281838 -0.305156 0)
(0.0222026 -0.312532 0)
(0.015841 -0.319253 0)
(0.00914112 -0.325296 0)
(0.00214459 -0.330652 0)
(-0.00510781 -0.33532 0)
(-0.0125774 -0.339306 0)
(-0.0202282 -0.342623 0)
(-0.0280271 -0.34529 0)
(-0.0359438 -0.34733 0)
(-0.0439505 -0.348772 0)
(-0.0520209 -0.349646 0)
(-0.0601307 -0.349987 0)
(-0.0682574 -0.34983 0)
(-0.0763797 -0.349215 0)
(-0.0844778 -0.348181 0)
(-0.0925331 -0.346771 0)
(-0.100528 -0.345026 0)
(-0.108446 -0.34299 0)
(-0.116271 -0.340707 0)
(-0.123988 -0.338221 0)
(-0.131583 -0.335577 0)
(-0.139043 -0.332819 0)
(-0.146355 -0.329992 0)
(-0.153506 -0.32714 0)
(-0.160485 -0.324305 0)
(-0.167281 -0.321531 0)
(-0.17388 -0.318856 0)
(-0.180251 -0.316315 0)
(-0.186357 -0.313934 0)
(-0.192213 -0.311732 0)
(-0.197931 -0.309726 0)
(-0.203501 -0.307917 0)
(-0.207406 -0.306245 0)
(-0.206688 -0.30408 0)
(-0.200761 -0.301144 0)
(-0.192704 -0.297519 0)
(-0.184292 -0.293123 0)
(-0.17567 -0.287858 0)
(-0.166739 -0.281661 0)
(-0.157494 -0.274503 0)
(-0.147979 -0.266378 0)
(-0.13825 -0.257306 0)
(-0.128365 -0.247335 0)
(-0.118382 -0.236553 0)
(-0.108389 -0.225094 0)
(-0.098578 -0.213159 0)
(-0.0892887 -0.201036 0)
(-0.0809839 -0.189091 0)
(-0.0741914 -0.177728 0)
(-0.0693756 -0.167318 0)
(-0.0667598 -0.15807 0)
(-0.0662232 -0.149932 0)
(-0.0673497 -0.142622 0)
(-0.0695988 -0.135768 0)
(-0.0724709 -0.129053 0)
(-0.0755893 -0.122269 0)
(-0.0787123 -0.115314 0)
(-0.0817083 -0.108154 0)
(-0.0845109 -0.1008 0)
(-0.0870821 -0.0932712 0)
(-0.0894035 -0.0855865 0)
(-0.0914701 -0.077767 0)
(-0.0932853 -0.0698335 0)
(-0.0948572 -0.0618059 0)
(-0.0961968 -0.0537022 0)
(-0.0973164 -0.0455383 0)
(-0.0982287 -0.0373272 0)
(-0.0989447 -0.0290788 0)
(-0.0994711 -0.0208006 0)
(-0.0998119 -0.0124974 0)
(-0.0999872 -0.00417195 0)
(0.0999835 -0.00598724 0)
(0.0997141 -0.0178976 0)
(0.0991773 -0.029715 0)
(0.0983538 -0.0414124 0)
(0.097252 -0.0529625 0)
(0.095879 -0.0643381 0)
(0.09424 -0.0755121 0)
(0.0923435 -0.0864588 0)
(0.0902044 -0.0971559 0)
(0.0878456 -0.107587 0)
(0.0853001 -0.117743 0)
(0.0826124 -0.127631 0)
(0.0798387 -0.137273 0)
(0.0770454 -0.146711 0)
(0.0743029 -0.156009 0)
(0.0716762 -0.165244 0)
(0.0692106 -0.174498 0)
(0.0669177 -0.183845 0)
(0.0647661 -0.193334 0)
(0.0626809 -0.202978 0)
(0.0605549 -0.212749 0)
(0.0582661 -0.222583 0)
(0.0556978 -0.232397 0)
(0.0527529 -0.242092 0)
(0.0493623 -0.251571 0)
(0.0454861 -0.260741 0)
(0.0411105 -0.269519 0)
(0.036242 -0.277836 0)
(0.0309018 -0.285636 0)
(0.0251204 -0.292874 0)
(0.0189334 -0.299519 0)
(0.012379 -0.305548 0)
(0.00549562 -0.310949 0)
(-0.00167848 -0.315718 0)
(-0.00910625 -0.319859 0)
(-0.0167528 -0.323381 0)
(-0.0245857 -0.3263 0)
(-0.0325754 -0.328635 0)
(-0.0406944 -0.33041 0)
(-0.0489171 -0.331652 0)
(-0.0572194 -0.33239 0)
(-0.065579 -0.332656 0)
(-0.0739752 -0.332485 0)
(-0.0823886 -0.331911 0)
(-0.0908014 -0.330971 0)
(-0.0991962 -0.329703 0)
(-0.107557 -0.328145 0)
(-0.115869 -0.326335 0)
(-0.124118 -0.324311 0)
(-0.132292 -0.32211 0)
(-0.140378 -0.319771 0)
(-0.148365 -0.317328 0)
(-0.156241 -0.314816 0)
(-0.163996 -0.312266 0)
(-0.171618 -0.309707 0)
(-0.17909 -0.307161 0)
(-0.186371 -0.304646 0)
(-0.193414 -0.302167 0)
(-0.200241 -0.299724 0)
(-0.20697 -0.297317 0)
(-0.213431 -0.29494 0)
(-0.217465 -0.292535 0)
(-0.216035 -0.289382 0)
(-0.209402 -0.285421 0)
(-0.200901 -0.280845 0)
(-0.191962 -0.275612 0)
(-0.182677 -0.269629 0)
(-0.172995 -0.262837 0)
(-0.162946 -0.255209 0)
(-0.152598 -0.246748 0)
(-0.142021 -0.237484 0)
(-0.131294 -0.22748 0)
(-0.1205 -0.216832 0)
(-0.109766 -0.205687 0)
(-0.0993426 -0.194251 0)
(-0.0896234 -0.182808 0)
(-0.0810929 -0.171707 0)
(-0.0742504 -0.161323 0)
(-0.0694877 -0.151966 0)
(-0.0669451 -0.143772 0)
(-0.066437 -0.136636 0)
(-0.0675241 -0.130257 0)
(-0.0696798 -0.124281 0)
(-0.0724342 -0.118416 0)
(-0.0754379 -0.112474 0)
(-0.0784636 -0.106358 0)
(-0.0813801 -0.100028 0)
(-0.0841191 -0.0934767 0)
(-0.086648 -0.0867131 0)
(-0.0889526 -0.0797563 0)
(-0.0910285 -0.0726283 0)
(-0.0928761 -0.0653514 0)
(-0.0944987 -0.0579467 0)
(-0.0959012 -0.0504339 0)
(-0.0970895 -0.0428305 0)
(-0.0980698 -0.0351523 0)
(-0.0988471 -0.027413 0)
(-0.0994226 -0.0196243 0)
(-0.099796 -0.0117965 0)
(-0.0999874 -0.00393881 0)
(0.0999805 -0.00563137 0)
(0.099696 -0.0168323 0)
(0.0991341 -0.0279432 0)
(0.0982766 -0.0389368 0)
(0.0971345 -0.0497858 0)
(0.0957174 -0.0604639 0)
(0.0940338 -0.0709456 0)
(0.0920955 -0.081208 0)
(0.0899207 -0.0912312 0)
(0.0875359 -0.101001 0)
(0.0849771 -0.110513 0)
(0.0822918 -0.119772 0)
(0.0795387 -0.128799 0)
(0.0767859 -0.137632 0)
(0.0741043 -0.146328 0)
(0.0715587 -0.154957 0)
(0.0691939 -0.163597 0)
(0.0670211 -0.172316 0)
(0.0650089 -0.181162 0)
(0.0630826 -0.190153 0)
(0.061134 -0.199266 0)
(0.0590392 -0.208451 0)
(0.0566778 -0.217632 0)
(0.0539484 -0.226723 0)
(0.0507768 -0.235635 0)
(0.0471181 -0.244286 0)
(0.0429536 -0.252598 0)
(0.0382854 -0.260507 0)
(0.0331307 -0.267959 0)
(0.0275163 -0.274912 0)
(0.0214745 -0.281333 0)
(0.0150406 -0.2872 0)
(0.00825044 -0.292499 0)
(0.00113979 -0.297224 0)
(-0.00625617 -0.301375 0)
(-0.0139042 -0.30496 0)
(-0.0217735 -0.307989 0)
(-0.0298359 -0.31048 0)
(-0.038065 -0.312451 0)
(-0.0464363 -0.313925 0)
(-0.0549267 -0.314927 0)
(-0.0635148 -0.315486 0)
(-0.0721806 -0.315629 0)
(-0.0809055 -0.315388 0)
(-0.0896718 -0.314794 0)
(-0.0984627 -0.313879 0)
(-0.107263 -0.312675 0)
(-0.116057 -0.311214 0)
(-0.124833 -0.309529 0)
(-0.133576 -0.307651 0)
(-0.142273 -0.305608 0)
(-0.150911 -0.30343 0)
(-0.159477 -0.301141 0)
(-0.167955 -0.298763 0)
(-0.17633 -0.296314 0)
(-0.184572 -0.293807 0)
(-0.192629 -0.291248 0)
(-0.200441 -0.288631 0)
(-0.208039 -0.285949 0)
(-0.215544 -0.283199 0)
(-0.222599 -0.280368 0)
(-0.226402 -0.277412 0)
(-0.224044 -0.273585 0)
(-0.21673 -0.269001 0)
(-0.207849 -0.263857 0)
(-0.198436 -0.258126 0)
(-0.188532 -0.251735 0)
(-0.178144 -0.244644 0)
(-0.167347 -0.236847 0)
(-0.156235 -0.22836 0)
(-0.144903 -0.219229 0)
(-0.13345 -0.209526 0)
(-0.121979 -0.199358 0)
(-0.110653 -0.188873 0)
(-0.0997674 -0.178273 0)
(-0.089741 -0.16782 0)
(-0.0810627 -0.157817 0)
(-0.0742068 -0.148568 0)
(-0.0695112 -0.140296 0)
(-0.0670468 -0.133057 0)
(-0.0665731 -0.126704 0)
(-0.0676305 -0.120952 0)
(-0.0697042 -0.115496 0)
(-0.0723512 -0.110098 0)
(-0.0752482 -0.104608 0)
(-0.0781859 -0.0989494 0)
(-0.0810416 -0.093092 0)
(-0.0837475 -0.0870318 0)
(-0.0862673 -0.0807771 0)
(-0.0885827 -0.0743423 0)
(-0.0906846 -0.0677441 0)
(-0.0925698 -0.0609998 0)
(-0.0942377 -0.0541268 0)
(-0.0956896 -0.0471415 0)
(-0.0969281 -0.0400599 0)
(-0.0979561 -0.0328965 0)
(-0.0987757 -0.0256652 0)
(-0.0993851 -0.018379 0)
(-0.099782 -0.01105 0)
(-0.0999862 -0.00368975 0)
(0.0999811 -0.00526068 0)
(0.0996943 -0.0157248 0)
(0.0991265 -0.0261028 0)
(0.0982601 -0.0363667 0)
(0.0971077 -0.0464895 0)
(0.0956807 -0.0564449 0)
(0.0939896 -0.0662085 0)
(0.0920482 -0.0757582 0)
(0.0898764 -0.0850757 0)
(0.0875017 -0.0941484 0)
(0.084961 -0.102972 0)
(0.0823019 -0.111553 0)
(0.0795829 -0.119913 0)
(0.0768714 -0.12809 0)
(0.0742383 -0.136139 0)
(0.071748 -0.144129 0)
(0.0694457 -0.152134 0)
(0.0673442 -0.160222 0)
(0.0654135 -0.16844 0)
(0.0635808 -0.176806 0)
(0.0617392 -0.185304 0)
(0.0597652 -0.193885 0)
(0.0575372 -0.202483 0)
(0.0549514 -0.211016 0)
(0.0519304 -0.219404 0)
(0.0484254 -0.227567 0)
(0.0444134 -0.235435 0)
(0.0398924 -0.242948 0)
(0.0348755 -0.250053 0)
(0.0293856 -0.256711 0)
(0.023452 -0.26289 0)
(0.0171067 -0.268567 0)
(0.0103827 -0.273729 0)
(0.00331329 -0.278367 0)
(-0.00406821 -0.282482 0)
(-0.0117304 -0.286076 0)
(-0.0196447 -0.289159 0)
(-0.0277841 -0.291745 0)
(-0.0361238 -0.293849 0)
(-0.0446403 -0.29549 0)
(-0.0533117 -0.29669 0)
(-0.0621177 -0.297471 0)
(-0.0710389 -0.297859 0)
(-0.0800568 -0.297879 0)
(-0.0891541 -0.297558 0)
(-0.0983142 -0.296923 0)
(-0.107522 -0.296 0)
(-0.116761 -0.294817 0)
(-0.126017 -0.2934 0)
(-0.135275 -0.291773 0)
(-0.144519 -0.289961 0)
(-0.153733 -0.287984 0)
(-0.162898 -0.285861 0)
(-0.171993 -0.283608 0)
(-0.180993 -0.281236 0)
(-0.189858 -0.278752 0)
(-0.19852 -0.276155 0)
(-0.206908 -0.273435 0)
(-0.21506 -0.270581 0)
(-0.223093 -0.267583 0)
(-0.230477 -0.264413 0)
(-0.233852 -0.261056 0)
(-0.230568 -0.256863 0)
(-0.222667 -0.251983 0)
(-0.213418 -0.24654 0)
(-0.203541 -0.24053 0)
(-0.193061 -0.233926 0)
(-0.182038 -0.226718 0)
(-0.170587 -0.218915 0)
(-0.158825 -0.210547 0)
(-0.146866 -0.201666 0)
(-0.134828 -0.192348 0)
(-0.122834 -0.182696 0)
(-0.111082 -0.172851 0)
(-0.0998992 -0.162999 0)
(-0.0897255 -0.153375 0)
(-0.0810463 -0.144246 0)
(-0.0743065 -0.135871 0)
(-0.069788 -0.128431 0)
(-0.0674947 -0.121946 0)
(-0.0671341 -0.116261 0)
(-0.0682275 -0.111104 0)
(-0.0702697 -0.106197 0)
(-0.0728403 -0.101327 0)
(-0.0756391 -0.0963609 0)
(-0.0784748 -0.0912304 0)
(-0.0812356 -0.0859073 0)
(-0.0838602 -0.0803864 0)
(-0.0863153 -0.0746747 0)
(-0.0885829 -0.0687844 0)
(-0.090653 -0.0627304 0)
(-0.0925203 -0.0565286 0)
(-0.0941818 -0.0501949 0)
(-0.0956361 -0.0437451 0)
(-0.0968828 -0.0371945 0)
(-0.0979222 -0.0305579 0)
(-0.0987538 -0.0238496 0)
(-0.0993739 -0.0170833 0)
(-0.0997782 -0.0102724 0)
(-0.0999861 -0.0034302 0)
(0.0999807 -0.00488928 0)
(0.0996915 -0.0146148 0)
(0.0991201 -0.0242597 0)
(0.0982489 -0.0337975 0)
(0.0970915 -0.0432022 0)
(0.0956601 -0.0524491 0)
(0.0939664 -0.0615155 0)
(0.0920251 -0.0703809 0)
(0.0898571 -0.0790287 0)
(0.087491 -0.0874478 0)
(0.0849644 -0.0956345 0)
(0.0823254 -0.103596 0)
(0.079633 -0.111351 0)
(0.0769547 -0.118937 0)
(0.0743613 -0.126402 0)
(0.0719175 -0.133811 0)
(0.0696687 -0.141234 0)
(0.0676282 -0.148732 0)
(0.0657671 -0.156352 0)
(0.0640133 -0.164113 0)
(0.0622606 -0.172001 0)
(0.060385 -0.179977 0)
(0.0582638 -0.187978 0)
(0.0557911 -0.195934 0)
(0.0528869 -0.203769 0)
(0.0494994 -0.211412 0)
(0.0456024 -0.218798 0)
(0.0411907 -0.225869 0)
(0.0362743 -0.232578 0)
(0.0308735 -0.238888 0)
(0.0250147 -0.244767 0)
(0.0187275 -0.250193 0)
(0.0120428 -0.255153 0)
(0.0049917 -0.259636 0)
(-0.00239458 -0.263642 0)
(-0.0100864 -0.267173 0)
(-0.0180563 -0.270235 0)
(-0.026279 -0.272838 0)
(-0.0347307 -0.274997 0)
(-0.0433893 -0.276725 0)
(-0.0522336 -0.278042 0)
(-0.061244 -0.278966 0)
(-0.0704014 -0.279518 0)
(-0.0796878 -0.27972 0)
(-0.0890858 -0.279593 0)
(-0.0985786 -0.279161 0)
(-0.10815 -0.278445 0)
(-0.117783 -0.277468 0)
(-0.12746 -0.276251 0)
(-0.137166 -0.274813 0)
(-0.14688 -0.273174 0)
(-0.156582 -0.27135 0)
(-0.166248 -0.269356 0)
(-0.175851 -0.267204 0)
(-0.185356 -0.264901 0)
(-0.194714 -0.262452 0)
(-0.203836 -0.259853 0)
(-0.212649 -0.257094 0)
(-0.221183 -0.254165 0)
(-0.22952 -0.251041 0)
(-0.237014 -0.247678 0)
(-0.240019 -0.244068 0)
(-0.235998 -0.239713 0)
(-0.227453 -0.234735 0)
(-0.21768 -0.229189 0)
(-0.207311 -0.2231 0)
(-0.196331 -0.21648 0)
(-0.184797 -0.20934 0)
(-0.172833 -0.201705 0)
(-0.160571 -0.193613 0)
(-0.14814 -0.185118 0)
(-0.13567 -0.176298 0)
(-0.123303 -0.16725 0)
(-0.111262 -0.158105 0)
(-0.0999028 -0.149037 0)
(-0.089674 -0.140256 0)
(-0.0810531 -0.131997 0)
(-0.0744547 -0.124476 0)
(-0.07011 -0.117824 0)
(-0.0679675 -0.112028 0)
(-0.0676973 -0.10692 0)
(-0.0688125 -0.102248 0)
(-0.0708214 -0.0977703 0)
(-0.073325 -0.0933054 0)
(-0.0760426 -0.0887438 0)
(-0.078796 -0.0840289 0)
(-0.0814815 -0.0791377 0)
(-0.084041 -0.074066 0)
(-0.0864423 -0.0688194 0)
(-0.0886672 -0.0634079 0)
(-0.0907049 -0.0578441 0)
(-0.0925489 -0.0521412 0)
(-0.0941947 -0.0463131 0)
(-0.0956393 -0.0403737 0)
(-0.0968811 -0.034337 0)
(-0.0979188 -0.0282166 0)
(-0.0987507 -0.0220261 0)
(-0.0993719 -0.015779 0)
(-0.0997773 -0.00948863 0)
(-0.099986 -0.00316844 0)
(0.0999809 -0.0045165 0)
(0.0996924 -0.0135009 0)
(0.0991221 -0.0224108 0)
(0.0982527 -0.031221 0)
(0.0970982 -0.039907 0)
(0.0956714 -0.0484459 0)
(0.0939843 -0.0568161 0)
(0.0920525 -0.064999 0)
(0.0898971 -0.0729791 0)
(0.0875471 -0.0807465 0)
(0.0850401 -0.088298 0)
(0.0824243 -0.0956402 0)
(0.0797583 -0.102792 0)
(0.0771093 -0.109786 0)
(0.0745478 -0.11667 0)
(0.0721385 -0.123503 0)
(0.0699274 -0.13035 0)
(0.0679286 -0.13727 0)
(0.0661146 -0.144306 0)
(0.0644146 -0.151478 0)
(0.0627234 -0.158774 0)
(0.060917 -0.16616 0)
(0.0588721 -0.17358 0)
(0.0564811 -0.180968 0)
(0.0536618 -0.188256 0)
(0.0503597 -0.195378 0)
(0.0465461 -0.202275 0)
(0.0422129 -0.208893 0)
(0.0373677 -0.215189 0)
(0.0320282 -0.221126 0)
(0.0262186 -0.226675 0)
(0.0199666 -0.231816 0)
(0.013301 -0.236535 0)
(0.00625121 -0.240821 0)
(-0.0011533 -0.244672 0)
(-0.00888427 -0.248088 0)
(-0.0169155 -0.251076 0)
(-0.0252227 -0.253642 0)
(-0.0337834 -0.255797 0)
(-0.0425762 -0.257554 0)
(-0.0515807 -0.258927 0)
(-0.0607772 -0.259934 0)
(-0.070147 -0.26059 0)
(-0.0796722 -0.260913 0)
(-0.0893351 -0.260923 0)
(-0.0991182 -0.260637 0)
(-0.109004 -0.260074 0)
(-0.118974 -0.259251 0)
(-0.12901 -0.258187 0)
(-0.139091 -0.256896 0)
(-0.149196 -0.255395 0)
(-0.1593 -0.253696 0)
(-0.169376 -0.251809 0)
(-0.179389 -0.249746 0)
(-0.1893 -0.24751 0)
(-0.199044 -0.245105 0)
(-0.208523 -0.242527 0)
(-0.217652 -0.239769 0)
(-0.22644 -0.236822 0)
(-0.234919 -0.233667 0)
(-0.242312 -0.230266 0)
(-0.244888 -0.226562 0)
(-0.240228 -0.22214 0)
(-0.231127 -0.217157 0)
(-0.220879 -0.211662 0)
(-0.210074 -0.205677 0)
(-0.198668 -0.199221 0)
(-0.186717 -0.192315 0)
(-0.174346 -0.184991 0)
(-0.161697 -0.177292 0)
(-0.148907 -0.169273 0)
(-0.136115 -0.161008 0)
(-0.123479 -0.152591 0)
(-0.111247 -0.144141 0)
(-0.0997943 -0.135817 0)
(-0.089577 -0.127809 0)
(-0.0810624 -0.120322 0)
(-0.0746363 -0.113541 0)
(-0.0704847 -0.107566 0)
(-0.0685077 -0.102364 0)
(-0.0683433 -0.0977663 0)
(-0.0694972 -0.0935427 0)
(-0.0714894 -0.0894765 0)
(-0.0739395 -0.0854109 0)
(-0.0765841 -0.081251 0)
(-0.0792579 -0.0769483 0)
(-0.0818653 -0.0724832 0)
(-0.0843528 -0.067852 0)
(-0.0866902 -0.0630593 0)
(-0.0888601 -0.0581139 0)
(-0.0908517 -0.0530266 0)
(-0.0926578 -0.0478093 0)
(-0.0942733 -0.0424744 0)
(-0.0956942 -0.0370345 0)
(-0.0969178 -0.0315023 0)
(-0.097942 -0.0258908 0)
(-0.0987641 -0.0202127 0)
(-0.0993785 -0.0144808 0)
(-0.0997797 -0.00870818 0)
(-0.0999862 -0.00290777 0)
(0.0999809 -0.00414535 0)
(0.0996935 -0.0123918 0)
(0.0991255 -0.0205701 0)
(0.0982598 -0.0286568 0)
(0.0971104 -0.0366295 0)
(0.0956905 -0.0444669 0)
(0.0940122 -0.0521494 0)
(0.0920912 -0.0596596 0)
(0.0899491 -0.0669839 0)
(0.0876147 -0.0741129 0)
(0.0851258 -0.081044 0)
(0.0825304 -0.0877835 0)
(0.0798869 -0.0943486 0)
(0.0772623 -0.100769 0)
(0.074727 -0.107089 0)
(0.0723457 -0.113363 0)
(0.0701648 -0.119649 0)
(0.0681993 -0.126004 0)
(0.0664225 -0.132468 0)
(0.0647646 -0.139058 0)
(0.0631209 -0.145768 0)
(0.0613675 -0.152566 0)
(0.0593804 -0.159402 0)
(0.0570506 -0.166216 0)
(0.0542941 -0.172948 0)
(0.0510544 -0.179537 0)
(0.0473005 -0.185928 0)
(0.0430224 -0.192072 0)
(0.0382255 -0.197929 0)
(0.0329257 -0.203465 0)
(0.0271455 -0.208653 0)
(0.0209106 -0.213474 0)
(0.0142486 -0.217912 0)
(0.00718745 -0.221959 0)
(-0.000244844 -0.225611 0)
(-0.00802109 -0.228868 0)
(-0.016116 -0.231733 0)
(-0.0245064 -0.234212 0)
(-0.0331702 -0.236314 0)
(-0.0420868 -0.238048 0)
(-0.051236 -0.239428 0)
(-0.0605983 -0.240465 0)
(-0.0701553 -0.241175 0)
(-0.0798884 -0.241571 0)
(-0.0897795 -0.24167 0)
(-0.0998101 -0.241485 0)
(-0.109961 -0.241034 0)
(-0.120213 -0.240329 0)
(-0.130544 -0.239384 0)
(-0.140933 -0.238214 0)
(-0.151354 -0.236828 0)
(-0.161778 -0.235239 0)
(-0.172174 -0.233454 0)
(-0.182504 -0.23148 0)
(-0.192719 -0.229322 0)
(-0.202748 -0.22698 0)
(-0.212483 -0.224454 0)
(-0.22184 -0.221737 0)
(-0.230826 -0.218833 0)
(-0.239438 -0.215746 0)
(-0.246674 -0.212469 0)
(-0.248757 -0.208806 0)
(-0.243472 -0.204409 0)
(-0.233913 -0.199513 0)
(-0.223279 -0.194177 0)
(-0.212107 -0.188416 0)
(-0.200347 -0.182243 0)
(-0.188054 -0.175684 0)
(-0.175359 -0.168771 0)
(-0.162408 -0.161549 0)
(-0.149346 -0.154072 0)
(-0.136317 -0.146411 0)
(-0.123492 -0.13865 0)
(-0.111138 -0.130903 0)
(-0.0996455 -0.123313 0)
(-0.089476 -0.116052 0)
(-0.0810855 -0.1093 0)
(-0.0748328 -0.103212 0)
(-0.0708631 -0.0978632 0)
(-0.069036 -0.0932026 0)
(-0.0689646 -0.0890677 0)
(-0.0701518 -0.0852475 0)
(-0.0721295 -0.0815522 0)
(-0.074534 -0.0778473 0)
(-0.0771164 -0.0740526 0)
(-0.0797221 -0.0701274 0)
(-0.0822617 -0.0660556 0)
(-0.0846853 -0.061834 0)
(-0.0869643 -0.0574668 0)
(-0.0890822 -0.0529615 0)
(-0.0910282 -0.0483274 0)
(-0.092795 -0.0435749 0)
(-0.094377 -0.0387148 0)
(-0.09577 -0.0337584 0)
(-0.0969708 -0.0287173 0)
(-0.0979767 -0.0236029 0)
(-0.0987846 -0.0184271 0)
(-0.0993888 -0.0132017 0)
(-0.0997833 -0.00793891 0)
(-0.0999865 -0.00265081 0)
(0.099981 -0.00377604 0)
(0.0996954 -0.0112881 0)
(0.0991306 -0.0187384 0)
(0.0982699 -0.0261055 0)
(0.0971272 -0.0333689 0)
(0.0957157 -0.0405091 0)
(0.0940477 -0.0475083 0)
(0.0921389 -0.0543508 0)
(0.0900108 -0.061024 0)
(0.0876922 -0.0675197 0)
(0.0852207 -0.0738355 0)
(0.082644 -0.0799771 0)
(0.0800203 -0.0859603 0)
(0.0774163 -0.0918126 0)
(0.0749021 -0.0975735 0)
(0.0725425 -0.103293 0)
(0.0703844 -0.109025 0)
(0.0684434 -0.11482 0)
(0.0666937 -0.120717 0)
(0.0650664 -0.126733 0)
(0.0634575 -0.132862 0)
(0.0617429 -0.139075 0)
(0.0597981 -0.145328 0)
(0.0575129 -0.151569 0)
(0.0548019 -0.15774 0)
(0.0516069 -0.163788 0)
(0.0478951 -0.169662 0)
(0.0436546 -0.175319 0)
(0.0388894 -0.180719 0)
(0.0336137 -0.185834 0)
(0.0278486 -0.190637 0)
(0.0216186 -0.19511 0)
(0.01495 -0.199239 0)
(0.00786956 -0.203015 0)
(0.00040441 -0.206434 0)
(-0.00741917 -0.209495 0)
(-0.0155767 -0.2122 0)
(-0.0240454 -0.214554 0)
(-0.0328041 -0.216562 0)
(-0.0418321 -0.218234 0)
(-0.0511094 -0.21958 0)
(-0.0606169 -0.220609 0)
(-0.0703356 -0.221334 0)
(-0.0802467 -0.221767 0)
(-0.090331 -0.22192 0)
(-0.100569 -0.221806 0)
(-0.110941 -0.221437 0)
(-0.121424 -0.220826 0)
(-0.131997 -0.219982 0)
(-0.142634 -0.218918 0)
(-0.153307 -0.217643 0)
(-0.163984 -0.216164 0)
(-0.17463 -0.21449 0)
(-0.185203 -0.212625 0)
(-0.195651 -0.210574 0)
(-0.205894 -0.20834 0)
(-0.215823 -0.20592 0)
(-0.225367 -0.203316 0)
(-0.234561 -0.200535 0)
(-0.24336 -0.197598 0)
(-0.250341 -0.194514 0)
(-0.251703 -0.190902 0)
(-0.245731 -0.186618 0)
(-0.235861 -0.181896 0)
(-0.224978 -0.176806 0)
(-0.213541 -0.171351 0)
(-0.201509 -0.165543 0)
(-0.188951 -0.159405 0)
(-0.176005 -0.15297 0)
(-0.162823 -0.146279 0)
(-0.149555 -0.139385 0)
(-0.13635 -0.132351 0)
(-0.12339 -0.125257 0)
(-0.110961 -0.118205 0)
(-0.0994667 -0.111326 0)
(-0.0893675 -0.104774 0)
(-0.0811099 -0.0987072 0)
(-0.0750281 -0.0932583 0)
(-0.0712315 -0.0884804 0)
(-0.0695448 -0.0843149 0)
(-0.0695612 -0.0806071 0)
(-0.0707821 -0.0771664 0)
(-0.0727504 -0.0738263 0)
(-0.0751167 -0.0704706 0)
(-0.0776449 -0.0670311 0)
(-0.0801896 -0.0634734 0)
(-0.0826672 -0.0597839 0)
(-0.085031 -0.0559602 0)
(-0.0872543 -0.0520059 0)
(-0.0893212 -0.0479275 0)
(-0.0912214 -0.0437334 0)
(-0.0929477 -0.0394326 0)
(-0.0944945 -0.0350346 0)
(-0.0958572 -0.0305495 0)
(-0.0970325 -0.0259876 0)
(-0.0980176 -0.0213594 0)
(-0.0988091 -0.0166755 0)
(-0.099401 -0.0119466 0)
(-0.0997877 -0.00718398 0)
(-0.0999867 -0.00239865 0)
(0.0999811 -0.00340904 0)
(0.0996972 -0.0101913 0)
(0.0991358 -0.016918 0)
(0.0982803 -0.02357 0)
(0.0971444 -0.0301286 0)
(0.0957413 -0.0365764 0)
(0.0940833 -0.0428974 0)
(0.0921861 -0.0490774 0)
(0.0900709 -0.055105 0)
(0.0877666 -0.0609729 0)
(0.0853105 -0.0666791 0)
(0.08275 -0.0722286 0)
(0.0801429 -0.0776357 0)
(0.0775558 -0.0829251 0)
(0.0750587 -0.0881325 0)
(0.0727164 -0.0933029 0)
(0.070576 -0.0984855 0)
(0.0686537 -0.103727 0)
(0.0669247 -0.109061 0)
(0.0653206 -0.114504 0)
(0.0637377 -0.120053 0)
(0.0620521 -0.125681 0)
(0.0601385 -0.13135 0)
(0.0578861 -0.137012 0)
(0.055208 -0.142617 0)
(0.0520445 -0.148115 0)
(0.0483616 -0.153461 0)
(0.044146 -0.158615 0)
(0.0394002 -0.163543 0)
(0.0341374 -0.168217 0)
(0.0283775 -0.172614 0)
(0.0221441 -0.176716 0)
(0.0154623 -0.18051 0)
(0.00835824 -0.183989 0)
(0.000858226 -0.187146 0)
(-0.0070121 -0.189981 0)
(-0.0152287 -0.192496 0)
(-0.0237695 -0.194692 0)
(-0.0326133 -0.196576 0)
(-0.0417397 -0.198153 0)
(-0.0511289 -0.199433 0)
(-0.0607614 -0.200424 0)
(-0.0706181 -0.201135 0)
(-0.0806795 -0.201577 0)
(-0.0909258 -0.201759 0)
(-0.101336 -0.201692 0)
(-0.11189 -0.201387 0)
(-0.122563 -0.200853 0)
(-0.133332 -0.200099 0)
(-0.144169 -0.199135 0)
(-0.155043 -0.197967 0)
(-0.165922 -0.196605 0)
(-0.176766 -0.195053 0)
(-0.187531 -0.193316 0)
(-0.198161 -0.191399 0)
(-0.208572 -0.189303 0)
(-0.218656 -0.187029 0)
(-0.228352 -0.184579 0)
(-0.237713 -0.181961 0)
(-0.246634 -0.17919 0)
(-0.253248 -0.17629 0)
(-0.253844 -0.172824 0)
(-0.247293 -0.168757 0)
(-0.237214 -0.164312 0)
(-0.22617 -0.159551 0)
(-0.214539 -0.154476 0)
(-0.202301 -0.149098 0)
(-0.18954 -0.143438 0)
(-0.176403 -0.137529 0)
(-0.163045 -0.131409 0)
(-0.149621 -0.125125 0)
(-0.136286 -0.118737 0)
(-0.123232 -0.112316 0)
(-0.11076 -0.105956 0)
(-0.0992828 -0.0997736 0)
(-0.0892629 -0.0939061 0)
(-0.0811361 -0.0884937 0)
(-0.0752139 -0.0836473 0)
(-0.0715742 -0.0794041 0)
(-0.0700125 -0.0757011 0)
(-0.0701063 -0.072394 0)
(-0.071357 -0.0693124 0)
(-0.0733176 -0.0663112 0)
(-0.0756515 -0.063291 0)
(-0.0781333 -0.0601938 0)
(-0.0806253 -0.0569909 0)
(-0.0830488 -0.053671 0)
(-0.0853598 -0.0502323 0)
(-0.087533 -0.0466779 0)
(-0.0895535 -0.0430136 0)
(-0.0914112 -0.0392467 0)
(-0.0930993 -0.0353849 0)
(-0.0946122 -0.0314368 0)
(-0.0959454 -0.0274111 0)
(-0.0970954 -0.023317 0)
(-0.0980595 -0.0191637 0)
(-0.0988343 -0.0149608 0)
(-0.0994137 -0.0107179 0)
(-0.0997922 -0.00644487 0)
(-0.099987 -0.00215179 0)
(0.0999813 -0.00304426 0)
(0.099699 -0.00910096 0)
(0.0991408 -0.0151084 0)
(0.0982902 -0.0210493 0)
(0.0971608 -0.0269073 0)
(0.0957656 -0.0326667 0)
(0.0941169 -0.0383133 0)
(0.0922303 -0.0438345 0)
(0.0901268 -0.0492202 0)
(0.0878352 -0.0544638 0)
(0.0853924 -0.0595635 0)
(0.0828457 -0.064524 0)
(0.0802526 -0.0693577 0)
(0.0776793 -0.074087 0)
(0.0751958 -0.0787436 0)
(0.0728669 -0.0833676 0)
(0.07074 -0.0880032 0)
(0.0688318 -0.0926919 0)
(0.0671181 -0.0974651 0)
(0.0655311 -0.102338 0)
(0.0639674 -0.107307 0)
(0.0623031 -0.11235 0)
(0.0604124 -0.117433 0)
(0.0581836 -0.122512 0)
(0.0555288 -0.127545 0)
(0.0523873 -0.132485 0)
(0.0487238 -0.137294 0)
(0.0445238 -0.141934 0)
(0.039789 -0.146376 0)
(0.0345315 -0.150594 0)
(0.0287703 -0.154566 0)
(0.0225283 -0.158278 0)
(0.0158299 -0.161718 0)
(0.00870063 -0.164876 0)
(0.00116616 -0.167749 0)
(-0.00674828 -0.170335 0)
(-0.0150191 -0.172634 0)
(-0.0236242 -0.174648 0)
(-0.0325429 -0.176382 0)
(-0.0417548 -0.177841 0)
(-0.05124 -0.179031 0)
(-0.0609789 -0.179959 0)
(-0.0709518 -0.180634 0)
(-0.0811387 -0.181064 0)
(-0.0915193 -0.181257 0)
(-0.102072 -0.181221 0)
(-0.112774 -0.180966 0)
(-0.123602 -0.180499 0)
(-0.134528 -0.179827 0)
(-0.145525 -0.17896 0)
(-0.15656 -0.177902 0)
(-0.167598 -0.17666 0)
(-0.178597 -0.17524 0)
(-0.189511 -0.173645 0)
(-0.20028 -0.171879 0)
(-0.21082 -0.169944 0)
(-0.221019 -0.167841 0)
(-0.230829 -0.165571 0)
(-0.240317 -0.163142 0)
(-0.249312 -0.160565 0)
(-0.255542 -0.157888 0)
(-0.25543 -0.154655 0)
(-0.248392 -0.150892 0)
(-0.23816 -0.146798 0)
(-0.226999 -0.142429 0)
(-0.215222 -0.137788 0)
(-0.202825 -0.132887 0)
(-0.189909 -0.127747 0)
(-0.176625 -0.122397 0)
(-0.163134 -0.116873 0)
(-0.149594 -0.111218 0)
(-0.136162 -0.105485 0)
(-0.123041 -0.0997383 0)
(-0.110548 -0.0940618 0)
(-0.0991008 -0.0885604 0)
(-0.0891628 -0.0833553 0)
(-0.0811599 -0.0785686 0)
(-0.0753835 -0.0742931 0)
(-0.0718845 -0.0705539 0)
(-0.0704335 -0.0672874 0)
(-0.0705955 -0.0643615 0)
(-0.071873 -0.0616257 0)
(-0.0738278 -0.0589544 0)
(-0.0761344 -0.0562627 0)
(-0.0785765 -0.0535016 0)
(-0.081023 -0.0506471 0)
(-0.0833993 -0.0476897 0)
(-0.0856636 -0.0446281 0)
(-0.0877922 -0.0414652 0)
(-0.0897708 -0.038206 0)
(-0.0915899 -0.0348568 0)
(-0.0932428 -0.0314243 0)
(-0.0947242 -0.0279161 0)
(-0.0960297 -0.0243397 0)
(-0.0971558 -0.0207032 0)
(-0.0980999 -0.0170146 0)