/*--------------------------------*- C++ -*----------------------------------*\
  =========                 |
  \\      /  F ield         | OpenFOAM: The Open Source CFD Toolbox
   \\    /   O peration     | Website:  https://openfoam.org
    \\  /    A nd           | Version:  8
     \\/     M anipulation  |
\*---------------------------------------------------------------------------*/
FoamFile
{
    version     2.0;
    format      ascii;
    class       volScalarField;
    location    "180/fluid";
    object      CH4;
}
// * * * * * * * * * * * * * * * * * * * * * * * * * * * * * * * * * * * * * //

dimensions      [0 0 0 0 0 0 0];

internalField   nonuniform List<scalar> 
4000
(
0.999997
0.999988
0.999973
0.999948
0.999906
0.999836
0.999723
0.999539
0.999243
0.998772
0.998035
0.996898
0.995174
0.992615
0.988908
0.983678
0.976518
0.967029
0.954874
0.939824
0.921795
0.900851
0.877182
0.851077
0.822883
0.792976
0.761735
0.729529
0.6967
0.663563
0.630398
0.59745
0.564931
0.533018
0.501858
0.471567
0.442236
0.413934
0.386713
0.360604
0.335624
0.311775
0.289053
0.267441
0.246919
0.22746
0.209033
0.191605
0.17514
0.159601
0.14495
0.131151
0.118165
0.105956
0.0944877
0.0837265
0.0736395
0.0641963
0.0553683
0.04713
0.0394588
0.0323437
0.0258772
0.0198223
0.0143028
0.00932986
0.00493397
0.0026853
0.00188307
0.00129973
0.00088116
0.000585402
0.000380155
0.000240712
0.000148345
8.90602e-05
5.26187e-05
3.18221e-05
2.18201e-05
1.64681e-05
1.21452e-05
8.47045e-06
5.51481e-06
3.31979e-06
1.84182e-06
9.46606e-07
4.57285e-07
2.12496e-07
9.5956e-08
4.24126e-08
1.84448e-08
7.92218e-09
3.36944e-09
1.4213e-09
5.94613e-10
2.46001e-10
9.96739e-11
3.84689e-11
1.29335e-11
2.27466e-12
0.999997
0.999988
0.999973
0.999947
0.999904
0.999832
0.999716
0.999526
0.999221
0.998736
0.997977
0.996809
0.995042
0.992428
0.988652
0.983346
0.976106
0.966543
0.954324
0.939227
0.921167
0.900205
0.876524
0.850405
0.82219
0.79225
0.760964
0.7287
0.695803
0.662592
0.629349
0.596325
0.563732
0.531752
0.500531
0.470188
0.440814
0.412479
0.385233
0.359109
0.334122
0.310274
0.287559
0.265961
0.245457
0.226022
0.207623
0.190225
0.173794
0.158291
0.143678
0.129917
0.11697
0.104801
0.0933737
0.0826533
0.0726074
0.0632054
0.0544193
0.0462238
0.0385972
0.031533
0.0251356
0.0191246
0.0136283
0.00864697
0.00419925
0.00255421
0.00178523
0.00122755
0.000828671
0.000547868
0.000353834
0.000222675
0.000136333
8.13624e-05
4.79795e-05
2.94075e-05
2.08232e-05
1.56279e-05
1.12822e-05
7.66657e-06
4.84738e-06
2.83245e-06
1.53155e-06
7.73406e-07
3.71566e-07
1.7284e-07
7.84686e-08
3.49565e-08
1.53389e-08
6.64887e-09
2.85316e-09
1.21372e-09
5.11821e-10
2.13328e-10
8.70263e-11
3.37849e-11
1.14076e-11
2.01061e-12
0.999997
0.999988
0.999972
0.999945
0.999901
0.999827
0.999707
0.999511
0.999196
0.998697
0.997917
0.996717
0.994907
0.992236
0.988389
0.982995
0.975658
0.965988
0.953663
0.938465
0.920313
0.899268
0.875515
0.849328
0.821045
0.791033
0.759667
0.727314
0.69432
0.661004
0.627653
0.594518
0.561818
0.529735
0.498418
0.46799
0.438541
0.410143
0.382848
0.356687
0.331675
0.307815
0.285099
0.26351
0.243027
0.223619
0.205255
0.1879
0.171517
0.156066
0.14151
0.12781
0.114926
0.102822
0.0914607
0.0808082
0.0708313
0.0614992
0.0527841
0.0446607
0.0371078
0.0301546
0.0238175
0.0178889
0.0125027
0.00765762
0.00340063
0.00237364
0.00164477
0.00112199
0.000751508
0.000492894
0.000315687
0.000196965
0.000119605
7.09939e-05
4.20625e-05
2.66457e-05
1.94978e-05
1.44788e-05
1.02546e-05
6.82624e-06
4.23099e-06
2.43198e-06
1.30102e-06
6.53947e-07
3.14161e-07
1.46404e-07
6.66329e-08
2.97581e-08
1.30858e-08
5.68132e-09
2.44053e-09
1.03881e-09
4.3819e-10
1.82672e-10
7.4537e-11
2.8946e-11
9.77722e-12
1.72378e-12
0.999997
0.999987
0.999971
0.999944
0.999898
0.999823
0.999699
0.999499
0.999177
0.998666
0.997869
0.996645
0.994801
0.992083
0.988174
0.982703
0.975272
0.965496
0.953053
0.937729
0.919448
0.898274
0.874392
0.848077
0.819667
0.789527
0.758033
0.72555
0.692425
0.658979
0.625497
0.592236
0.559412
0.527212
0.495788
0.465262
0.435727
0.407256
0.379902
0.353695
0.328651
0.304773
0.282052
0.260471
0.240006
0.220629
0.202304
0.184997
0.168669
0.153281
0.138793
0.125165
0.112359
0.100335
0.0890569
0.0784899
0.0686006
0.0593584
0.0507356
0.0427078
0.0352554
0.0285133
0.0222916
0.0164799
0.0112707
0.00670168
0.00303975
0.00212931
0.0014691
0.000996384
0.000662785
0.000431329
0.000273932
0.000169443
0.000102122
6.04734e-05
3.63518e-05
2.42883e-05
1.80751e-05
1.32149e-05
9.1703e-06
5.9697e-06
3.61759e-06
2.03772e-06
1.07317e-06
5.33931e-07
2.55556e-07
1.19011e-07
5.42325e-08
2.42787e-08
1.07095e-08
4.66572e-09
2.01131e-09
8.58981e-10
3.6343e-10
1.51899e-10
6.2112e-11
2.41595e-11
8.16888e-12
1.44123e-12
0.999997
0.999987
0.99997
0.999942
0.999896
0.999819
0.999693
0.999487
0.999158
0.998637
0.997823
0.996574
0.994694
0.991928
0.987954
0.9824
0.974867
0.964972
0.952396
0.936929
0.918499
0.897174
0.873139
0.846672
0.81811
0.787819
0.756174
0.723541
0.690268
0.656675
0.623051
0.589652
0.556698
0.524376
0.492839
0.462211
0.432587
0.404041
0.376625
0.350372
0.325295
0.301398
0.278672
0.2571
0.236655
0.21731
0.199028
0.181773
0.165506
0.150187
0.135774
0.122227
0.109506
0.0975722
0.0863882
0.0759182
0.0661286
0.0569883
0.0484687
0.0405444
0.0332028
0.0265794
0.0203631
0.0147069
0.00960076
0.00507895
0.0027366
0.00189823
0.00129797
0.000872765
0.000575576
0.000371296
0.000233708
0.000143324
8.58168e-05
5.08548e-05
3.13126e-05
2.21317e-05
1.65246e-05
1.19032e-05
8.11136e-06
5.17786e-06
3.07894e-06
1.70722e-06
8.89279e-07
4.39679e-07
2.10093e-07
9.78526e-08
4.46385e-08
2.00132e-08
8.84199e-09
3.85799e-09
1.66541e-09
7.12107e-10
3.01586e-10
1.26147e-10
5.16097e-11
2.0081e-11
6.79054e-12
1.19843e-12
0.999997
0.999987
0.99997
0.999941
0.999894
0.999815
0.999686
0.999477
0.999142
0.99861
0.997781
0.996509
0.994597
0.991784
0.987748
0.982112
0.974477
0.964458
0.951741
0.936118
0.917523
0.896026
0.871817
0.845176
0.816442
0.785981
0.754169
0.721373
0.687941
0.654194
0.620423
0.586884
0.553799
0.521356
0.48971
0.458984
0.429276
0.400658
0.373186
0.346889
0.321784
0.297872
0.275145
0.253584
0.233164
0.213854
0.195619
0.17842
0.162218
0.146972
0.132638
0.119177
0.106548
0.0947102
0.0836265
0.0732609
0.0635798
0.0545531
0.0461538
0.03836
0.0311893
0.0246974
0.0185859
0.0130232
0.00799758
0.00354981
0.00242504
0.0016728
0.00113658
0.000758882
0.00049668
0.000317836
0.000198432
0.000120798
7.20559e-05
4.30342e-05
2.75343e-05
2.02146e-05
1.5015e-05
1.06618e-05
7.14192e-06
4.47545e-06
2.6143e-06
1.4281e-06
7.35868e-07
3.61422e-07
1.72291e-07
8.01976e-08
3.66033e-08
1.64304e-08
7.27068e-09
3.17804e-09
1.37437e-09
5.88654e-10
2.49671e-10
1.04557e-10
4.28138e-11
1.66673e-11
5.63722e-12
9.95298e-13
0.999997
0.999987
0.999969
0.99994
0.999892
0.999812
0.999681
0.999468
0.999126
0.998585
0.99774
0.996447
0.994502
0.991643
0.987544
0.981825
0.974086
0.963942
0.951079
0.935295
0.916527
0.894851
0.870459
0.843636
0.81472
0.784081
0.752095
0.71913
0.685535
0.651633
0.617716
0.584039
0.550827
0.518268
0.486518
0.455701
0.425915
0.397234
0.369711
0.343378
0.318251
0.29433
0.271608
0.250064
0.229673
0.210403
0.192218
0.175079
0.158946
0.143775
0.129525
0.116152
0.103616
0.091877
0.0808952
0.0706344
0.0610606
0.0521425
0.0438524
0.036167
0.0292135
0.0228604
0.0168989
0.011552
0.00685773
0.00306058
0.00213629
0.00146917
0.000993848
0.000659941
0.000429182
0.000272738
0.000169085
0.000102347
6.1029e-05
3.70425e-05
2.49828e-05
1.86703e-05
1.37196e-05
9.59518e-06
6.31845e-06
3.88999e-06
2.23561e-06
1.20535e-06
6.1536e-07
3.00945e-07
1.43151e-07
6.65791e-08
3.03876e-08
1.3647e-08
6.04365e-09
2.64413e-09
1.14456e-09
4.90672e-10
2.08275e-10
8.72732e-11
3.57496e-11
1.39191e-11
4.70723e-12
8.31413e-13
0.999997
0.999986
0.999969
0.999939
0.99989
0.999809
0.999675
0.999459
0.999111
0.99856
0.997702
0.996387
0.994411
0.991507
0.987346
0.981546
0.973703
0.963433
0.950424
0.934477
0.915534
0.893674
0.869096
0.842086
0.812985
0.782166
0.750005
0.716872
0.683117
0.649063
0.615003
0.581195
0.547863
0.515196
0.48335
0.452451
0.422597
0.393861
0.366297
0.339936
0.314795
0.290873
0.268161
0.24664
0.226282
0.207056
0.188925
0.171849
0.155786
0.140693
0.126526
0.113243
0.100802
0.0891614
0.0782821
0.0681271
0.0586616
0.0498538
0.0416747
0.034099
0.0273193
0.0209369
0.0151335
0.00990733
0.00529966
0.00277432
0.00191802
0.00130855
0.000878844
0.000579584
0.000374378
0.000236321
0.000145599
8.77598e-05
5.24492e-05
3.25467e-05
2.30705e-05
1.73218e-05
1.25862e-05
8.67646e-06
5.62181e-06
3.40465e-06
1.92791e-06
1.02732e-06
5.2011e-07
2.5336e-07
1.20259e-07
5.58771e-08
2.5497e-08
1.14534e-08
5.07501e-09
2.22194e-09
9.62564e-10
4.1296e-10
1.75403e-10
7.35336e-11
3.01294e-11
1.17313e-11
3.96665e-12
7.00922e-13
0.999997
0.999986
0.999968
0.999938
0.999888
0.999806
0.99967
0.99945
0.999097
0.998537
0.997665
0.99633
0.994323
0.991376
0.987154
0.981275
0.97333
0.962936
0.949782
0.933675
0.914558
0.892517
0.867755
0.84056
0.811278
0.780281
0.747949
0.714652
0.680742
0.646544
0.612349
0.578418
0.544975
0.51221
0.480279
0.449307
0.419394
0.390612
0.363016
0.336636
0.311486
0.28757
0.264874
0.243381
0.223061
0.203883
0.185808
0.168796
0.152804
0.137788
0.123705
0.110511
0.0981629
0.0866197
0.075842
0.0657929
0.0564386
0.0477486
0.0396971
0.0322675
0.0256158
0.0193184
0.0135755
0.00837582
0.00376219
0.00247257
0.00171024
0.00116517
0.000780372
0.000512699
0.000329693
0.00020712
0.000127066
7.64731e-05
4.60354e-05
2.94442e-05
2.15839e-05
1.61666e-05
1.16178e-05
7.9005e-06
5.04252e-06
3.00853e-06
1.68145e-06
8.86936e-07
4.45831e-07
2.16439e-07
1.02532e-07
4.75912e-08
2.17066e-08
9.75033e-09
4.32131e-09
1.89267e-09
8.20293e-10
3.52081e-10
1.49601e-10
6.27325e-11
2.57058e-11
1.0008e-11
3.38301e-12
5.98096e-13
0.999997
0.999986
0.999968
0.999937
0.999887
0.999803
0.999665
0.999442
0.999083
0.998516
0.99763
0.996275
0.994239
0.99125
0.986971
0.981014
0.972971
0.962457
0.949164
0.9329
0.913616
0.8914
0.866458
0.839085
0.809628
0.778461
0.745965
0.712513
0.678457
0.644122
0.609803
0.575759
0.542215
0.509361
0.477355
0.446321
0.416358
0.38754
0.359919
0.333527
0.308377
0.284471
0.261798
0.240335
0.220057
0.200928
0.18291
0.165962
0.150041
0.135101
0.121099
0.10799
0.0957312
0.0842799
0.0735968
0.0636445
0.0543889
0.0457991
0.0378487
0.0306011
0.0240521
0.0178922
0.0123354
0.00739554
0.00318557
0.00223147
0.00154104
0.00104775
0.000699979
0.00045853
0.000293894
0.000184026
0.000112638
6.78912e-05
4.1399e-05
2.75e-05
2.05457e-05
1.52761e-05
1.08481e-05
7.27695e-06
4.57764e-06
2.6934e-06
1.48752e-06
7.77491e-07
3.88275e-07
1.87884e-07
8.88242e-08
4.11778e-08
1.87685e-08
8.42797e-09
3.73506e-09
1.6361e-09
7.0925e-10
3.04493e-10
1.29406e-10
5.42695e-11
2.22372e-11
8.65617e-12
2.92506e-12
5.1744e-13
0.999997
0.999986
0.999967
0.999937
0.999885
0.9998
0.999661
0.999434
0.999071
0.998495
0.997598
0.996223
0.99416
0.991131
0.986796
0.980766
0.97263
0.962003
0.948577
0.932165
0.912721
0.890338
0.865228
0.837686
0.808063
0.776735
0.744086
0.710489
0.676298
0.641838
0.607404
0.573258
0.539623
0.506692
0.47462
0.443533
0.413529
0.384683
0.357045
0.330647
0.305503
0.281612
0.258964
0.237535
0.217299
0.19822
0.180259
0.163374
0.147521
0.132655
0.118731
0.105703
0.0935272
0.0821619
0.0715666
0.0617036
0.0525385
0.0440407
0.0361848
0.0291495
0.0227145
0.0166753
0.0112746
0.00654009
0.00299451
0.00208164
0.001429
0.000966623
0.000642792
0.000419244
0.000267621
0.000166982
0.000102001
6.16364e-05
3.81524e-05
2.63896e-05
1.98349e-05
1.4603e-05
1.02445e-05
6.78098e-06
4.20767e-06
2.44433e-06
1.33561e-06
6.92426e-07
3.43774e-07
1.65846e-07
7.82475e-08
3.62264e-08
1.64975e-08
7.40437e-09
3.28053e-09
1.43685e-09
6.22873e-10
2.6742e-10
1.13653e-10
4.76609e-11
1.95266e-11
7.59924e-12
2.56694e-12
4.54395e-13
0.999997
0.999986
0.999967
0.999936
0.999884
0.999798
0.999656
0.999427
0.999059
0.998476
0.997567
0.996175
0.994085
0.99102
0.986634
0.980535
0.972311
0.961578
0.948028
0.931478
0.911885
0.889347
0.864079
0.836381
0.806604
0.775129
0.742339
0.708609
0.674294
0.63972
0.605184
0.570946
0.537232
0.504232
0.472105
0.440973
0.410937
0.382069
0.35442
0.328022
0.302887
0.279015
0.256393
0.235001
0.214807
0.195777
0.177872
0.161048
0.14526
0.130464
0.116612
0.10366
0.0915621
0.0802764
0.0697617
0.0599794
0.050894
0.0424732
0.0346919
0.0277385
0.0213773
0.0154016
0.0100217
0.00526613
0.00278177
0.00193628
0.00132903
0.000898031
0.00059616
0.000388008
0.000247116
0.000153877
9.39309e-05
5.69541e-05
3.57884e-05
2.54886e-05
1.92051e-05
1.40283e-05
9.74149e-06
6.37407e-06
3.90837e-06
2.24556e-06
1.21582e-06
6.25943e-07
3.09209e-07
1.48771e-07
7.00616e-08
3.23946e-08
1.47394e-08
6.6113e-09
2.92803e-09
1.28216e-09
5.55737e-10
2.38574e-10
1.01384e-10
4.25102e-11
1.74128e-11
6.77479e-12
2.28754e-12
4.05242e-13
0.999997
0.999985
0.999967
0.999935
0.999882
0.999795
0.999652
0.99942
0.999048
0.998458
0.997539
0.996131
0.994018
0.990918
0.986485
0.980323
0.972019
0.961188
0.947525
0.930848
0.911119
0.88844
0.863029
0.835187
0.805271
0.773662
0.740744
0.706894
0.672468
0.637793
0.603166
0.568848
0.535064
0.502007
0.469831
0.438664
0.408601
0.379717
0.352062
0.325667
0.300545
0.276693
0.2541
0.232742
0.21259
0.193608
0.175755
0.158988
0.143262
0.12853
0.114747
0.101865
0.0898405
0.0786296
0.0681913
0.0584867
0.0494807
0.0411469
0.0334552
0.0265614
0.0202574
0.0143337
0.00899216
0.00428008
0.00263933
0.00183136
0.00125375
0.000845202
0.000559899
0.000363691
0.00023123
0.000143823
8.78442e-05
5.35405e-05
3.42135e-05
2.48826e-05
1.87189e-05
1.35698e-05
9.3361e-06
6.04609e-06
3.66863e-06
2.08779e-06
1.12156e-06
5.73971e-07
2.82438e-07
1.35564e-07
6.37326e-08
2.94318e-08
1.33793e-08
5.99741e-09
2.65495e-09
1.16222e-09
5.03639e-10
2.16172e-10
9.18492e-11
3.85049e-11
1.57685e-11
6.13336e-12
2.07014e-12
3.67026e-13
0.999997
0.999985
0.999966
0.999934
0.999881
0.999793
0.999649
0.999415
0.999038
0.998442
0.997513
0.996091
0.993957
0.990826
0.986351
0.980133
0.971757
0.960839
0.947074
0.930284
0.910433
0.887628
0.862088
0.834119
0.804079
0.77235
0.739319
0.705363
0.670839
0.636076
0.601369
0.566982
0.533139
0.500032
0.467817
0.436619
0.406536
0.377641
0.349984
0.323595
0.298486
0.274655
0.252089
0.230765
0.210652
0.191714
0.17391
0.157196
0.141526
0.126854
0.113133
0.100316
0.0883579
0.0772165
0.0668501
0.0572206
0.0482972
0.0400464
0.0324351
0.0256567
0.019259
0.013435
0.00819137
0.00361527
0.00248444
0.00172749
0.00118418
0.000798858
0.000529339
0.000343851
0.000218628
0.000136066
8.33085e-05
5.11573e-05
3.33102e-05
2.45814e-05
1.84182e-05
1.32499e-05
9.03608e-06
5.79614e-06
3.48374e-06
1.96579e-06
1.04873e-06
5.33861e-07
2.61894e-07
1.25424e-07
5.88693e-08
2.71526e-08
1.23319e-08
5.52405e-09
2.44415e-09
1.06953e-09
4.63343e-10
1.98831e-10
8.44636e-11
3.54011e-11
1.44941e-11
5.63614e-12
1.90162e-12
3.37425e-13
0.999997
0.999985
0.999966
0.999934
0.99988
0.999792
0.999646
0.999409
0.99903
0.998429
0.997491
0.996056
0.993903
0.990746
0.986234
0.979966
0.971528
0.960533
0.94668
0.929791
0.909834
0.886918
0.861267
0.833187
0.803039
0.771206
0.738077
0.70403
0.669422
0.634583
0.599808
0.565361
0.531468
0.49832
0.466073
0.434851
0.404752
0.37585
0.348193
0.321811
0.296715
0.272905
0.250364
0.229071
0.208994
0.190096
0.172335
0.155668
0.140048
0.125428
0.111761
0.0990006
0.0871012
0.0760196
0.0657146
0.0561488
0.0472879
0.0390942
0.0315964
0.0248947
0.0185631
0.0128341
0.00771491
0.00331455
0.00233974
0.00163066
0.00112028
0.000757304
0.000502751
0.000327159
0.000208399
0.000130015
7.99451e-05
4.955e-05
3.28859e-05
2.45067e-05
1.82856e-05
1.30615e-05
8.83415e-06
5.61714e-06
3.3472e-06
1.87438e-06
9.93795e-07
5.03494e-07
2.46298e-07
1.17709e-07
5.51606e-08
2.54112e-08
1.15301e-08
5.16118e-09
2.28234e-09
9.98304e-10
4.32345e-10
1.8548e-10
7.87742e-11
3.30093e-11
1.35117e-11
5.25291e-12
1.77173e-12
3.14631e-13
0.999997
0.999985
0.999966
0.999933
0.999879
0.99979
0.999643
0.999405
0.999023
0.998417
0.997473
0.996027
0.993858
0.990678
0.986135
0.979826
0.971334
0.960275
0.946347
0.929374
0.909328
0.886319
0.860573
0.8324
0.802161
0.770241
0.73703
0.702906
0.668227
0.633324
0.598493
0.563997
0.530063
0.496881
0.464608
0.433367
0.403256
0.374349
0.346693
0.320318
0.295236
0.271443
0.248926
0.22766
0.207614
0.18875
0.171027
0.1544
0.138822
0.124247
0.110626
0.0979133
0.0860631
0.0750318
0.0647784
0.0552656
0.0464523
0.0383126
0.030938
0.0242913
0.018029
0.0123866
0.00737572
0.00315828
0.00223465
0.00156058
0.00107419
0.000727524
0.000483907
0.000315532
0.000201457
0.00012607
7.79088e-05
4.87485e-05
3.2937e-05
2.46602e-05
1.83064e-05
1.29908e-05
8.72007e-06
5.5001e-06
3.2522e-06
1.80876e-06
9.53686e-07
4.8109e-07
2.34706e-07
1.1194e-07
5.23743e-08
2.40977e-08
1.09235e-08
4.88593e-09
2.15934e-09
9.44074e-10
4.08715e-10
1.75294e-10
7.44308e-11
3.11828e-11
1.27616e-11
4.96029e-12
1.67256e-12
2.97247e-13
0.999997
0.999985
0.999966
0.999933
0.999879
0.999789
0.999641
0.999402
0.999017
0.998408
0.997458
0.996003
0.993822
0.990624
0.986055
0.979712
0.971178
0.960067
0.946078
0.929038
0.90892
0.885835
0.860013
0.831765
0.801452
0.769461
0.736183
0.701997
0.667262
0.632307
0.597431
0.562897
0.52893
0.495721
0.463428
0.432173
0.402053
0.373142
0.345489
0.31912
0.294049
0.270272
0.247774
0.22653
0.20651
0.187674
0.169981
0.153387
0.137843
0.123303
0.109719
0.0970436
0.0852314
0.0742385
0.0640242
0.0545493
0.0457785
0.0376816
0.030417
0.0238131
0.0175983
0.0120109
0.00706408
0.00307683
0.00217566
0.00151974
0.00104697
0.000710026
0.00047308
0.000309124
0.000197879
0.00012425
7.7158e-05
4.86667e-05
3.33284e-05
2.49969e-05
1.84614e-05
1.30177e-05
8.67926e-06
5.43534e-06
3.19177e-06
1.76443e-06
9.25686e-07
4.65131e-07
2.26339e-07
1.07734e-07
5.03271e-08
2.31269e-08
1.04731e-08
4.68081e-09
2.06743e-09
9.03471e-10
3.90998e-10
1.6765e-10
7.11699e-11
2.98113e-11
1.21984e-11
4.74071e-12
1.59817e-12
2.84219e-13
0.999997
0.999985
0.999965
0.999933
0.999878
0.999788
0.99964
0.999399
0.999013
0.9984
0.997446
0.995986
0.993795
0.990583
0.985995
0.979627
0.971061
0.95991
0.945876
0.928785
0.908612
0.88547
0.859591
0.831285
0.800917
0.768872
0.735544
0.701311
0.666532
0.631539
0.596629
0.562066
0.528074
0.494846
0.462537
0.431272
0.401146
0.372233
0.344581
0.318218
0.293156
0.269391
0.246907
0.225681
0.20568
0.186866
0.169197
0.152627
0.13711
0.122596
0.10904
0.0963932
0.08461
0.0736469
0.0634622
0.0540157
0.0452743
0.0372071
0.0300124
0.0234364
0.0172475
0.0116833
0.00675393
0.00301376
0.00213463
0.00149379
0.00103119
0.000700896
0.000468155
0.000306737
0.000196948
0.000124116
7.74499e-05
4.92008e-05
3.40384e-05
2.55015e-05
1.87323e-05
1.31286e-05
8.69716e-06
5.41235e-06
3.15905e-06
1.73703e-06
9.07305e-07
4.54293e-07
2.20541e-07
1.04779e-07
4.88742e-08
2.24329e-08
1.01494e-08
4.53287e-09
2.00098e-09
8.74066e-10
3.78156e-10
1.62107e-10
6.8806e-11
2.88178e-11
1.17908e-11
4.58189e-12
1.54439e-12
2.74812e-13
0.999997
0.999985
0.999965
0.999933
0.999878
0.999787
0.999639
0.999397
0.99901
0.998396
0.997439
0.995974
0.993777
0.990556
0.985955
0.979571
0.970983
0.959806
0.945741
0.928617
0.908407
0.885227
0.859309
0.830964
0.800558
0.768478
0.735115
0.70085
0.666043
0.631024
0.596091
0.561508
0.527501
0.49426
0.461941
0.430668
0.400538
0.371623
0.343972
0.317614
0.292557
0.2688
0.246327
0.225113
0.205126
0.186326
0.168673
0.15212
0.13662
0.122126
0.108588
0.0959605
0.0841967
0.0732525
0.0630861
0.0536599
0.0449388
0.0368923
0.0297257
0.0231661
0.0169877
0.0114262
0.00648616
0.00296038
0.00210425
0.0014774
0.00102309
0.000697534
0.000467344
0.000307182
0.000197912
0.000125205
7.84844e-05
5.01324e-05
3.48891e-05
2.60655e-05
1.90475e-05
1.32782e-05
8.74882e-06
5.41558e-06
3.14567e-06
1.72229e-06
8.96385e-07
4.47538e-07
2.16836e-07
1.02861e-07
4.79224e-08
2.19755e-08
9.93526e-09
4.43478e-09
1.95687e-09
8.54542e-10
3.69632e-10
1.58432e-10
6.72404e-11
2.81607e-11
1.15217e-11
4.47722e-12
1.509e-12
2.68627e-13
0.999997
0.999985
0.999965
0.999932
0.999878
0.999787
0.999638
0.999396
0.999008
0.998394
0.997435
0.995969
0.993768
0.990543
0.985936
0.979544
0.970946
0.959757
0.945677
0.928536
0.908308
0.88511
0.859172
0.830809
0.800383
0.768285
0.734905
0.700624
0.665802
0.630769
0.595825
0.561232
0.527217
0.49397
0.461646
0.430369
0.400235
0.371319
0.343669
0.317312
0.292259
0.268506
0.246038
0.224829
0.204849
0.186057
0.168411
0.151867
0.136376
0.12189
0.108362
0.0957439
0.0839897
0.0730554
0.0628995
0.0534837
0.0447733
0.0367377
0.0295777
0.0230258
0.0168508
0.0112867
0.00633386
0.00292994
0.00208963
0.00147153
0.0010218
0.000698442
0.000469128
0.00030914
0.000199702
0.000126697
7.96613e-05
5.10294e-05
3.55509e-05
2.64742e-05
1.9272e-05
1.33868e-05
8.79091e-06
5.42456e-06
3.14184e-06
1.71591e-06
8.91208e-07
4.44215e-07
2.14982e-07
1.01894e-07
4.74407e-08
2.17437e-08
9.82673e-09
4.38509e-09
1.93454e-09
8.44671e-10
3.65328e-10
1.56578e-10
6.6452e-11
2.78303e-11
1.13866e-11
4.42475e-12
1.49128e-12
2.65528e-13
0.999997
0.999985
0.999965
0.999932
0.999878
0.999787
0.999638
0.999396
0.999008
0.998394
0.997435
0.995968
0.993768
0.990542
0.985936
0.979543
0.970945
0.959756
0.945676
0.928534
0.908306
0.885108
0.85917
0.830806
0.800381
0.768282
0.734902
0.70062
0.665798
0.630766
0.595822
0.561229
0.527213
0.493966
0.461642
0.430365
0.400231
0.371316
0.343665
0.317308
0.292255
0.268502
0.246034
0.224826
0.204846
0.186054
0.168409
0.151864
0.136373
0.121888
0.10836
0.095742
0.0839878
0.0730535
0.0628975
0.0534815
0.044771
0.0367357
0.0295755
0.0230236
0.0168492
0.0112858
0.00633258
0.00292964
0.0020897
0.00147173
0.00102199
0.00069857
0.000469202
0.000309177
0.000199719
0.000126703
7.96633e-05
5.10299e-05
3.55513e-05
2.64737e-05
1.92709e-05
1.33857e-05
8.79004e-06
5.42402e-06
3.14155e-06
1.71578e-06
8.91154e-07
4.44197e-07
2.14978e-07
1.01894e-07
4.74413e-08
2.17442e-08
9.82699e-09
4.3852e-09
1.93459e-09
8.44683e-10
3.6533e-10
1.56577e-10
6.6451e-11
2.78296e-11
1.13862e-11
4.42457e-12
1.49122e-12
2.65515e-13
0.999997
0.999985
0.999965
0.999933
0.999878
0.999787
0.999639
0.999397
0.99901
0.998396
0.997439
0.995974
0.993776
0.990555
0.985954
0.979569
0.970981
0.959804
0.945738
0.928613
0.908402
0.885222
0.859303
0.830957
0.80055
0.768469
0.735106
0.700841
0.666033
0.631014
0.596081
0.561497
0.52749
0.494249
0.46193
0.430657
0.400526
0.371612
0.343962
0.317603
0.292547
0.268791
0.246318
0.225104
0.205117
0.186318
0.168665
0.152113
0.136613
0.122119
0.108582
0.0959546
0.0841909
0.0732468
0.0630802
0.0536537
0.0449325
0.0368868
0.0297194
0.0231602
0.0169837
0.0114239
0.00648262
0.00295937
0.00210428
0.00147778
0.00102344
0.000697745
0.000467436
0.000307201
0.000197896
0.000125178
7.84593e-05
5.01133e-05
3.48784e-05
2.60586e-05
1.90422e-05
1.32743e-05
8.74624e-06
5.41398e-06
3.14473e-06
1.7218e-06
8.96135e-07
4.47416e-07
2.16778e-07
1.02834e-07
4.79101e-08
2.19699e-08
9.93271e-09
4.43362e-09
1.95634e-09
8.54302e-10
3.69524e-10
1.58383e-10
6.7219e-11
2.81515e-11
1.15178e-11
4.47572e-12
1.50851e-12
2.68528e-13
0.999997
0.999985
0.999965
0.999933
0.999878
0.999788
0.99964
0.999399
0.999012
0.9984
0.997446
0.995985
0.993794
0.990582
0.985993
0.979625
0.971058
0.959906
0.94587
0.928778
0.908603
0.885461
0.85958
0.831273
0.800903
0.768858
0.735528
0.701294
0.666515
0.631521
0.596611
0.562047
0.528055
0.494827
0.462518
0.431252
0.401127
0.372214
0.344563
0.3182
0.293139
0.269374
0.246891
0.225666
0.205666
0.186852
0.169184
0.152615
0.137098
0.122586
0.10903
0.0963834
0.0846007
0.0736377
0.0634531
0.0540065
0.0452652
0.0371992
0.0300039
0.023429
0.0172428
0.0116808
0.00674948
0.00301227
0.00213448
0.00149405
0.00103138
0.000700936
0.000468084
0.000306618
0.000196829
0.000124018
7.7378e-05
4.91524e-05
3.40109e-05
2.54848e-05
1.87211e-05
1.31214e-05
8.69264e-06
5.40963e-06
3.15763e-06
1.73624e-06
9.06894e-07
4.5409e-07
2.20443e-07
1.04732e-07
4.88523e-08
2.24227e-08
1.01446e-08
4.53066e-09
1.99996e-09
8.73601e-10
3.77945e-10
1.62013e-10
6.87644e-11
2.87998e-11
1.17833e-11
4.57896e-12
1.54343e-12
2.74622e-13
0.999997
0.999985
0.999966
0.999933
0.999879
0.999789
0.999641
0.999402
0.999017
0.998407
0.997457
0.996003
0.993821
0.990622
0.986052
0.979709
0.971174
0.960061
0.94607
0.929028
0.908908
0.885821
0.859998
0.831747
0.801433
0.769441
0.736161
0.701974
0.667237
0.632282
0.597405
0.56287
0.528903
0.495694
0.463401
0.432145
0.402026
0.373116
0.345462
0.319095
0.294025
0.270248
0.247751
0.226508
0.206489
0.187654
0.169963
0.153369
0.137827
0.123288
0.109704
0.09703
0.0852186
0.0742263
0.0640124
0.0545377
0.0457675
0.0376717
0.030408
0.0238059
0.0175938
0.0120083
0.0070595
0.00307516
0.00217541
0.00151983
0.00104699
0.000709915
0.000472903
0.000308938
0.000197717
0.000124124
7.70689e-05
4.86089e-05
3.32966e-05
2.49783e-05
1.84489e-05
1.30094e-05
8.67394e-06
5.4323e-06
3.18991e-06
1.76339e-06
9.25133e-07
4.64844e-07
2.2619e-07
1.07659e-07
5.02903e-08
2.31091e-08
1.04646e-08
4.67681e-09
2.06558e-09
9.02626e-10
3.90617e-10
1.6748e-10
7.10958e-11
2.97796e-11
1.21852e-11
4.73557e-12
1.59647e-12
2.83892e-13
0.999997
0.999985
0.999966
0.999933
0.999879
0.99979
0.999643
0.999405
0.999022
0.998417
0.997472
0.996026
0.993857
0.990676
0.986132
0.979822
0.971329
0.960268
0.946337
0.929362
0.909313
0.886301
0.860553
0.832377
0.802136
0.770214
0.737
0.702875
0.668195
0.63329
0.598459
0.563963
0.530028
0.496845
0.464572
0.433332
0.403221
0.374314
0.346659
0.320285
0.295204
0.271412
0.248896
0.227631
0.207586
0.188724
0.171002
0.154376
0.1388
0.124226
0.110606
0.0978947
0.0860455
0.0750153
0.0647629
0.0552511
0.0464393
0.0383014
0.0309297
0.0242848
0.0180244
0.0123834
0.00737055
0.00315572
0.00223405
0.00156049
0.00107427
0.000727614
0.000483962
0.000315549
0.000201448
0.000126049
7.7886e-05
4.87304e-05
3.29287e-05
2.46549e-05
1.83006e-05
1.29854e-05
8.71614e-06
5.49722e-06
3.25033e-06
1.80764e-06
9.53031e-07
4.80721e-07
2.34504e-07
1.11834e-07
5.23201e-08
2.40709e-08
1.09106e-08
4.8798e-09
2.15649e-09
9.42769e-10
4.08127e-10
1.75033e-10
7.43168e-11
3.11339e-11
1.27413e-11
4.9524e-12
1.66995e-12
2.96753e-13
0.999997
0.999985
0.999966
0.999934
0.99988
0.999791
0.999646
0.999409
0.99903
0.998428
0.997491
0.996055
0.993902
0.990743
0.98623
0.979961
0.971521
0.960524
0.946668
0.929775
0.909815
0.886896
0.861241
0.833159
0.803008
0.771172
0.738041
0.703992
0.669382
0.634541
0.599766
0.565318
0.531425
0.498276
0.466029
0.434807
0.404708
0.375807
0.34815
0.321769
0.296675
0.272866
0.250327
0.229036
0.20896
0.190063
0.172304
0.155639
0.140021
0.125402
0.111737
0.0989785
0.0870811
0.0760016
0.0656989
0.0561357
0.0472764
0.039083
0.0315854
0.02488
0.0185506
0.0128289
0.00771123
0.00331345
0.00233951
0.00162899
0.00111859
0.000756037
0.000501929
0.000326669
0.000208124
0.000129868
7.98694e-05
4.9514e-05
3.28749e-05
2.45036e-05
1.82822e-05
1.30581e-05
8.83096e-06
5.61455e-06
3.34533e-06
1.8731e-06
9.92974e-07
5.03005e-07
2.46022e-07
1.17561e-07
5.50845e-08
2.53732e-08
1.15117e-08
5.15242e-09
2.27825e-09
9.96434e-10
4.31502e-10
1.85106e-10
7.86107e-11
3.29393e-11
1.34827e-11
5.24158e-12
1.76796e-12
3.13931e-13
0.999997
0.999985
0.999966
0.999934
0.999881
0.999793
0.999649
0.999414
0.999038
0.998442
0.997513
0.99609
0.993955
0.990823
0.986346
0.980127
0.971749
0.960828
0.94706
0.930266
0.910411
0.887601
0.862057
0.834085
0.804041
0.772309
0.739275
0.705317
0.670791
0.636026
0.601319
0.56693
0.533086
0.499979
0.467764
0.436566
0.406483
0.377589
0.349933
0.323545
0.298438
0.274608
0.252044
0.230722
0.210611
0.191675
0.173873
0.157161
0.141493
0.126823
0.113103
0.100288
0.0883327
0.0771934
0.0668293
0.0572023
0.0482815
0.0400321
0.0324227
0.0256461
0.0192491
0.0134257
0.0081833
0.0036128
0.00248462
0.00172524
0.0011818
0.000797086
0.000528216
0.000343205
0.000218281
0.000135888
8.32206e-05
5.11167e-05
3.32992e-05
2.45842e-05
1.842e-05
1.32493e-05
9.03403e-06
5.79376e-06
3.48161e-06
1.96416e-06
1.04764e-06
5.33199e-07
2.61516e-07
1.25222e-07
5.87647e-08
2.71005e-08
1.23065e-08
5.51198e-09
2.43852e-09
1.06695e-09
4.62179e-10
1.98314e-10
8.42375e-11
3.53042e-11
1.44538e-11
5.62041e-12
1.89637e-12
3.36463e-13
0.999997
0.999985
0.999967
0.999935
0.999882
0.999795
0.999652
0.99942
0.999048
0.998458
0.997538
0.996129
0.994015
0.990914
0.98648
0.980316
0.97201
0.961175
0.947508
0.930827
0.911094
0.88841
0.862993
0.835147
0.805227
0.773614
0.740693
0.70684
0.672412
0.637735
0.603106
0.568787
0.535003
0.501945
0.469769
0.438602
0.408539
0.379656
0.352003
0.325609
0.300488
0.276638
0.254047
0.232691
0.212542
0.193561
0.175711
0.158946
0.143222
0.128493
0.114711
0.101832
0.0898087
0.0785993
0.0681622
0.0584585
0.0494535
0.0411211
0.0334325
0.0265491
0.0202449
0.0143151
0.00897438
0.00427132
0.00264116
0.00183237
0.00125443
0.000845692
0.000560246
0.000363921
0.000231369
0.000143899
8.78806e-05
5.35573e-05
3.42302e-05
2.48998e-05
1.8727e-05
1.35712e-05
9.33421e-06
6.04315e-06
3.66583e-06
2.08563e-06
1.12011e-06
5.73085e-07
2.81933e-07
1.35292e-07
6.35923e-08
2.93616e-08
1.33451e-08
5.98109e-09
2.64732e-09
1.15871e-09
5.02057e-10
2.15469e-10
9.15414e-11
3.83729e-11
1.57136e-11
6.11188e-12
2.06296e-12
3.65725e-13
0.999997
0.999986
0.999967
0.999936
0.999884
0.999798
0.999656
0.999427
0.999058
0.998475
0.997566
0.996173
0.994083
0.991016
0.986628
0.980527
0.9723
0.961563
0.948009
0.931454
0.911855
0.889312
0.864039
0.836335
0.806554
0.775074
0.74228
0.708547
0.674229
0.639653
0.605115
0.570876
0.537161
0.504161
0.472033
0.440902
0.410866
0.381999
0.354352
0.327955
0.302822
0.278952
0.256333
0.234942
0.214751
0.195724
0.177821
0.160999
0.145214
0.13042
0.116571
0.103622
0.0915266
0.0802433
0.0697308
0.0599502
0.0508662
0.0424465
0.0346665
0.027715
0.0213571
0.0153838
0.0100052
0.00524669
0.00278039
0.00193544
0.00132838
0.000897538
0.000595814
0.000387778
0.000246967
0.000153781
9.38687e-05
5.69153e-05
3.57714e-05
2.54856e-05
1.9199e-05
1.402e-05
9.7337e-06
6.36778e-06
3.90375e-06
2.24242e-06
1.21383e-06
6.24764e-07
3.08551e-07
1.48416e-07
6.98769e-08
3.23016e-08
1.46937e-08
6.58944e-09
2.91777e-09
1.27744e-09
5.53601e-10
2.37624e-10
1.00968e-10
4.23314e-11
1.73384e-11
6.74565e-12
2.27778e-12
4.03491e-13
0.999997
0.999986
0.999967
0.999936
0.999885
0.9998
0.99966
0.999434