/*--------------------------------*- C++ -*----------------------------------*\
  =========                 |
  \\      /  F ield         | OpenFOAM: The Open Source CFD Toolbox
   \\    /   O peration     | Website:  https://openfoam.org
    \\  /    A nd           | Version:  8
     \\/     M anipulation  |
\*---------------------------------------------------------------------------*/
FoamFile
{
    version     2.0;
    format      ascii;
    class       volScalarField;
    location    "180/fluid";
    object      CO2;
}
// * * * * * * * * * * * * * * * * * * * * * * * * * * * * * * * * * * * * * //

dimensions      [0 0 0 0 0 0 0];

internalField   nonuniform List<scalar> 
4000
(
3.82899e-07
1.67184e-06
3.83306e-06
7.44108e-06
1.34337e-05
2.33263e-05
3.95395e-05
6.58859e-05
0.000108274
0.000175682
0.000281443
0.000444807
0.000692632
0.00106083
0.00159497
0.00234917
0.00338261
0.00475349
0.00651136
0.0086898
0.0113018
0.0143389
0.0177739
0.0215658
0.0256646
0.030016
0.034565
0.0392586
0.0440467
0.048884
0.0537296
0.0585478
0.0633078
0.0679837
0.0725541
0.0770017
0.0813133
0.0854783
0.0894894
0.0933415
0.0970323
0.100561
0.103927
0.107134
0.110182
0.113076
0.115819
0.118415
0.120867
0.123179
0.125354
0.127396
0.129306
0.131085
0.132734
0.13425
0.135629
0.136865
0.137948
0.138864
0.139592
0.140104
0.140358
0.140312
0.139887
0.138978
0.137429
0.130654
0.120141
0.109537
0.0989765
0.0885724
0.0784195
0.0685997
0.0591855
0.0502436
0.0418378
0.0340449
0.0269043
0.0205084
0.0149417
0.0102872
0.00661326
0.00393191
0.0021553
0.00109502
0.000523259
0.000240736
0.000107718
4.72144e-05
2.03762e-05
8.69061e-06
3.67268e-06
1.54023e-06
6.41008e-07
2.63974e-07
1.06535e-07
4.09863e-08
1.37473e-08
2.41361e-09
3.89957e-07
1.70372e-06
3.91054e-06
7.60295e-06
1.37497e-05
2.39179e-05
4.06111e-05
6.77691e-05
0.000111485
0.00018099
0.000289931
0.000457905
0.000712081
0.00108855
0.00163279
0.00239847
0.00344395
0.00482635
0.00659416
0.00878032
0.0113977
0.0144384
0.0178763
0.021671
0.0257736
0.0301305
0.0346868
0.0393893
0.0441877
0.0490361
0.0538932
0.0587227
0.0634935
0.0681792
0.0727584
0.0772135
0.0815312
0.0857011
0.0897156
0.0935698
0.0972614
0.100789
0.104155
0.107359
0.110404
0.113294
0.116033
0.118623
0.121069
0.123375
0.125544
0.127579
0.129481
0.131251
0.13289
0.134396
0.135762
0.136984
0.138051
0.138947
0.139652
0.140139
0.14037
0.140309
0.139894
0.139053
0.137701
0.129086
0.118468
0.107783
0.0971581
0.086702
0.0765085
0.0666597
0.0572296
0.0482875
0.0399016
0.0321758
0.025115
0.0188468
0.0134616
0.00904549
0.00565479
0.00326728
0.00174753
0.00087346
0.000415699
0.000191738
8.6387e-05
3.82194e-05
1.66658e-05
7.18269e-06
3.06613e-06
1.29812e-06
5.45071e-07
2.26333e-07
9.204e-08
3.56437e-08
1.20153e-08
2.11516e-09
4.00619e-07
1.75097e-06
4.02188e-06
7.82645e-06
1.41672e-05
2.46651e-05
4.19065e-05
6.99538e-05
0.000115074
0.000186733
0.000298874
0.00047144
0.000731966
0.00111686
0.00167179
0.00245039
0.00351066
0.00490902
0.00669308
0.00889488
0.0115267
0.0145804
0.01803
0.0218358
0.0259495
0.030318
0.034887
0.0396034
0.044417
0.0492814
0.054155
0.0590011
0.063788
0.0684891
0.0730825
0.0775504
0.0818791
0.0860582
0.0900799
0.0939395
0.0976345
0.101164
0.104529
0.107731
0.110774
0.113659
0.116391
0.118975
0.121413
0.12371
0.125868
0.127891
0.12978
0.131537
0.133159
0.134646
0.135991
0.137186
0.138219
0.139072
0.139722
0.140133
0.140266
0.14007
0.139473
0.138398
0.13679
0.126385
0.115691
0.104941
0.0942715
0.0837956
0.0736092
0.0637964
0.0544336
0.0455933
0.0373475
0.0298078
0.022978
0.0169922
0.0119344
0.00787487
0.00483732
0.0027557
0.00146137
0.000728405
0.00034716
0.000160583
7.25779e-05
3.22018e-05
1.4074e-05
6.07563e-06
2.59623e-06
1.0998e-06
4.61935e-07
1.91855e-07
7.80433e-08
3.02368e-08
1.01976e-08
1.7959e-09
4.10958e-07
1.79626e-06
4.12639e-06
8.03082e-06
1.45384e-05
2.53109e-05
4.2997e-05
7.17512e-05
0.000117972
0.000191307
0.000305942
0.000482125
0.000747749
0.0011396
0.00170369
0.00249386
0.00356812
0.00498267
0.00678466
0.00900557
0.0116572
0.0147309
0.0182005
0.0220263
0.02616
0.0305484
0.0351376
0.0398743
0.0447083
0.0495931
0.0544869
0.0593527
0.0641587
0.0688778
0.0734878
0.0779708
0.0823128
0.0865032
0.090534
0.0944006
0.0981005
0.101633
0.104999
0.1082
0.111239
0.114119
0.116845
0.119421
0.121849
0.124135
0.126281
0.12829
0.130164
0.131903
0.133505
0.134969
0.136286
0.137449
0.138441
0.139243
0.139823
0.140133
0.140126
0.139706
0.138739
0.137018
0.133841
0.123167
0.112345
0.101525
0.0908345
0.0803803
0.0702556
0.0605435
0.0513204
0.04266
0.034637
0.0273214
0.020794
0.0151421
0.010443
0.00675129
0.00406091
0.00226986
0.00118617
0.000585646
0.000278246
0.000128673
5.82487e-05
2.59148e-05
1.13649e-05
4.92451e-06
2.11232e-06
8.98048e-07
3.78432e-07
1.57621e-07
6.4268e-08
2.49449e-08
8.42289e-09
1.48456e-09
4.20614e-07
1.83847e-06
4.22346e-06
8.22007e-06
1.48814e-05
2.59083e-05
4.40096e-05
7.34317e-05
0.000120709
0.00019568
0.000312794
0.000492634
0.000763499
0.00116262
0.0017364
0.00253899
0.00362849
0.00506092
0.006883
0.00912562
0.0118
0.014897
0.0183901
0.0222395
0.0263967
0.0308087
0.0354213
0.0401815
0.0450386
0.0499463
0.0548623
0.0597496
0.064576
0.0693142
0.0739418
0.0784406
0.0827966
0.0869988
0.0910393
0.0949133
0.0986185
0.102154
0.105521
0.10872
0.111756
0.114632
0.117351
0.119917
0.122336
0.124609
0.126741
0.128735
0.130591
0.13231
0.133891
0.135329
0.136618
0.137748
0.138702
0.13946
0.13999
0.140246
0.140185
0.139726
0.138765
0.137155
0.130282
0.119536
0.108667
0.0978363
0.0871739
0.0767881
0.066771
0.0572041
0.0481625
0.0397182
0.0319739
0.024939
0.0187315
0.0134287
0.00909657
0.00576842
0.00340574
0.00187444
0.000969044
0.000475543
0.000225587
0.000104344
4.72883e-05
2.10704e-05
9.25537e-06
4.01675e-06
1.72544e-06
7.34505e-07
3.09854e-07
1.29171e-07
5.27037e-08
2.04655e-08
6.91189e-09
1.2187e-09
4.29435e-07
1.87698e-06
4.31183e-06
8.39186e-06
1.5192e-05
2.6448e-05
4.49232e-05
7.49474e-05
0.000123179
0.000199636
0.000319013
0.000502224
0.000777975
0.00118397
0.0017671
0.00258192
0.00368678
0.00513769
0.00698105
0.00924722
0.0119467
0.0150699
0.0185896
0.0224657
0.0266495
0.0310879
0.0357265
0.040512
0.0453939
0.0503255
0.0552646
0.0601738
0.0650207
0.069778
0.0744228
0.0789371
0.0833065
0.08752
0.0915697
0.0954507
0.0991607
0.102699
0.106066
0.109264
0.112296
0.115166
0.117877
0.120434
0.122841
0.125102
0.127219
0.129196
0.131033
0.132731
0.134287
0.135698
0.136955
0.138046
0.138955
0.139659
0.140123
0.140308
0.140171
0.139649
0.138679
0.137249
0.126812
0.115919
0.104982
0.0941472
0.0835332
0.0732416
0.0633597
0.0539655
0.0451313
0.0369269
0.0294553
0.0227197
0.0168391
0.0118829
0.00790552
0.0049178
0.00285076
0.00154511
0.000789942
0.000385001
0.00018218
8.42079e-05
3.81799e-05
1.7032e-05
7.49352e-06
3.25808e-06
1.40218e-06
5.97966e-07
2.52658e-07
1.05468e-07
4.30759e-08
1.6738e-08
5.65462e-09
9.97497e-10
4.37646e-07
1.91284e-06
4.39417e-06
8.55214e-06
1.54824e-05
2.69538e-05
4.57827e-05
7.63799e-05
0.000125526
0.000203417
0.000324998
0.000511518
0.000792104
0.00120495
0.00179745
0.00262463
0.0037451
0.00521488
0.0070801
0.00937062
0.0120963
0.0152468
0.0187944
0.0226986
0.0269104
0.0313763
0.0360418
0.0408535
0.0457608
0.0507166
0.0556787
0.0606094
0.0654764
0.0702519
0.0749133
0.0794421
0.0838239
0.0880476
0.0921054
0.0959925
0.0997063
0.103246
0.106613
0.109808
0.112836
0.115699
0.118402
0.120949
0.123344
0.125591
0.127693
0.129652
0.131469
0.133144
0.134674
0.136054
0.137275
0.138323
0.139176
0.139807
0.140163
0.1402
0.139823
0.138896
0.137213
0.134183
0.123328
0.112338
0.101373
0.0905653
0.0800272
0.0698533
0.0601263
0.0509211
0.0423079
0.0343561
0.0271292
0.0206991
0.0151413
0.0105201
0.00687759
0.00420184
0.00239569
0.00128132
0.000648954
0.000314923
0.000148697
6.86773e-05
3.11401e-05
1.38995e-05
6.12066e-06
2.66393e-06
1.14772e-06
4.89964e-07
2.07217e-07
8.65642e-08
3.53732e-08
1.37485e-08
4.6447e-09
8.19691e-10
4.45346e-07
1.94648e-06
4.47141e-06
8.70257e-06
1.57551e-05
2.74295e-05
4.65921e-05
7.77315e-05
0.000127746
0.000207004
0.000330695
0.000520398
0.000805662
0.00122517
0.00182688
0.00266625
0.00380223
0.00529089
0.00717813
0.00949328
0.0122455
0.0154238
0.019
0.0229328
0.0271729
0.0316666
0.0363592
0.0411971
0.0461293
0.0511088
0.0560931
0.0610446
0.0659305
0.0707231
0.0753997
0.0799416
0.0843345
0.0885672
0.0926319
0.0965238
0.10024
0.103781
0.107146
0.110338
0.11336
0.116217
0.118911
0.121447
0.123829
0.126062
0.128147
0.130088
0.131885
0.133537
0.135041
0.136392
0.13758
0.13859
0.139401
0.139985
0.140289
0.140276
0.139855
0.138909
0.137264
0.13073
0.119854
0.108861
0.0979239
0.0871804
0.0767411
0.0666989
0.0571339
0.0481181
0.0397192
0.032029
0.0250581
0.0189104
0.0136532
0.0093427
0.00600618
0.0036079
0.00202613
0.00107076
0.000537731
0.000259906
0.000122457
5.65044e-05
2.56164e-05
1.1438e-05
5.04016e-06
2.19557e-06
9.46828e-07
4.04579e-07
1.71247e-07
7.15839e-08
2.9264e-08
1.1376e-08
3.84287e-09
6.78518e-10
4.52614e-07
1.97823e-06
4.54439e-06
8.84481e-06
1.60133e-05
2.78806e-05
4.73609e-05
7.90183e-05
0.000129864
0.000210437
0.000336163
0.000528948
0.000818756
0.00124477
0.00185545
0.00270677
0.00385798
0.00536523
0.00727417
0.00961363
0.0123921
0.015598
0.0192023
0.0231633
0.0274314
0.0319524
0.0366715
0.0415347
0.046491
0.0514932
0.0564986
0.0614694
0.0663729
0.0711812
0.0758714
0.080425
0.0848274
0.0890677
0.093138
0.0970334
0.100751
0.104291
0.107654
0.110842
0.113859
0.116707
0.119392
0.121917
0.124286
0.126504
0.128572
0.130494
0.13227
0.133898
0.135375
0.136695
0.137847
0.138817
0.139583
0.140117
0.140379
0.140339
0.139938
0.139119
0.137859
0.127732
0.116719
0.105677
0.094754
0.0840718
0.0737326
0.0638229
0.0544185
0.0455882
0.0373971
0.0299427
0.0232189
0.0173378
0.0123608
0.00833613
0.00527547
0.00312047
0.00172904
0.000904342
0.000450865
0.000217177
0.000102129
4.70806e-05
2.13377e-05
9.52869e-06
4.20052e-06
1.83086e-06
7.90068e-07
3.37815e-07
1.43069e-07
5.98308e-08
2.4465e-08
9.5108e-09
3.21217e-09
5.67465e-10
4.59466e-07
2.00818e-06
4.61323e-06
8.97906e-06
1.62571e-05
2.83069e-05
4.80885e-05
8.02376e-05
0.000131875
0.0002137
0.000341371
0.000537106
0.000831273
0.00126354
0.00188288
0.00274573
0.00391166
0.00543689
0.00736686
0.00972988
0.0125338
0.0157664
0.0193979
0.0233863
0.0276812
0.0322285
0.0369728
0.0418601
0.0468392
0.0518626
0.0568876
0.0618762
0.0667957
0.0716181
0.0763204
0.0808841
0.0852947
0.0895411
0.0936156
0.0975134
0.101232
0.10477
0.10813
0.111313
0.114323
0.117163
0.119838
0.122351
0.124708
0.12691
0.128962
0.130865
0.132619
0.134223
0.135671
0.136956
0.138065
0.13898
0.139675
0.140106
0.14023
0.13998
0.139256
0.137925
0.135834
0.124875
0.113786
0.10273
0.0918417
0.0812344
0.0710024
0.0612275
0.0519821
0.0433326
0.0353431
0.0280801
0.0215959
0.0159655
0.0112476
0.00748279
0.00466749
0.00272289
0.00149107
0.000772903
0.000382912
0.000183893
8.63259e-05
3.97582e-05
1.80121e-05
8.04352e-06
3.5467e-06
1.54652e-06
6.67695e-07
2.85632e-07
1.21021e-07
5.06257e-08
2.07038e-08
8.04833e-09
2.71757e-09
4.80382e-10
4.65892e-07
2.03626e-06
4.67781e-06
9.10506e-06
1.64861e-05
2.87076e-05
4.8773e-05
8.13857e-05
0.000133771
0.00021678
0.000346292
0.000544825
0.000843132
0.00128134
0.00190891
0.00278274
0.00396269
0.00550504
0.00745502
0.00984046
0.0126686
0.0159265
0.0195838
0.023598
0.0279184
0.0324904
0.0372584
0.0421682
0.0471683
0.0522113
0.0572542
0.062259
0.0671927
0.0720276
0.0767404
0.0813128
0.0857301
0.0899814
0.094059
0.0979579
0.101676
0.105212
0.108568
0.111746
0.114748
0.11758
0.120245
0.122747
0.12509
0.127278
0.129314
0.131199
0.132933
0.134514
0.135936
0.137191
0.138264
0.139135
0.139772
0.140121
0.14014
0.13973
0.138751
0.137001
0.133117
0.122146
0.111062
0.100037
0.0892069
0.078684
0.0685606
0.0589157
0.0498196
0.0413371
0.0335309
0.0264593
0.0201889
0.0147843
0.0102994
0.00676622
0.00416557
0.00240046
0.00130114
0.000669285
0.000329791
0.000157974
7.40422e-05
3.40702e-05
1.54285e-05
6.88898e-06
3.03795e-06
1.32502e-06
5.72251e-07
2.44885e-07
1.03787e-07
4.34242e-08
1.77595e-08
6.90306e-09
2.33018e-09
4.12188e-10
4.71859e-07
2.06234e-06
4.73778e-06
9.22208e-06
1.66989e-05
2.908e-05
4.94096e-05
8.24543e-05
0.000135536
0.000219651
0.000350884
0.000552032
0.000854212
0.00129798
0.00193326
0.00281736
0.00401044
0.00556882
0.00753749
0.00994389
0.0127946
0.0160761
0.0197575
0.0237957
0.0281397
0.0327345
0.0375243
0.0424546
0.047474
0.0525347
0.0575937
0.0626128
0.0675592
0.0724049
0.0771268
0.0817064
0.0861291
0.0903842
0.0944637
0.0983631
0.10208
0.105613
0.108965
0.112136
0.115132
0.117955
0.12061
0.1231
0.125431
0.127605
0.129626
0.131494
0.13321
0.134771
0.136172
0.137405
0.138456
0.139304
0.139923
0.140262
0.140288
0.139921
0.139063
0.137579
0.130768
0.119734
0.10864
0.0976421
0.0868696
0.0764281
0.0664065
0.0568813
0.0479205
0.0395873
0.031957
0.0250595
0.0189793
0.0137763
0.00949859
0.00616904
0.00375375
0.00214006
0.00114983
0.000587585
0.000288206
0.000137748
6.44721e-05
2.96414e-05
1.34167e-05
5.98956e-06
2.64134e-06
1.15219e-06
4.97714e-07
2.13036e-07
9.03046e-08
3.77869e-08
1.54537e-08
6.00597e-09
2.02671e-09
3.58782e-10
4.7732e-07
2.08621e-06
4.79268e-06
9.32924e-06
1.68938e-05
2.94213e-05
4.9993e-05
8.34342e-05
0.000137156
0.000222287
0.0003551
0.000558653
0.000864394
0.00131327
0.00195565
0.0028492
0.00405433
0.00562742
0.00761327
0.0100389
0.0129103
0.0162133
0.0199167
0.0239768
0.0283422
0.0329576
0.0377671
0.0427161
0.0477526
0.0528291
0.0579023
0.0629341
0.0678915
0.0727464
0.0774759
0.0820614
0.0864885
0.0907462
0.094827
0.0987259
0.102441
0.105971
0.109317
0.112483
0.115471
0.118286
0.12093
0.12341
0.125728
0.127889
0.129894
0.131746
0.133443
0.134985
0.136365
0.137576
0.138603
0.13943
0.14003
0.140359
0.14039
0.140055
0.139269
0.137935
0.128653
0.117599
0.10651
0.0955437
0.084826
0.0744597
0.0645308
0.0551135
0.0462736
0.0380727
0.0305917
0.0238455
0.0179397
0.0129193
0.00882587
0.00567407
0.00341733
0.0019303
0.00102938
0.000523085
0.000255678
0.000121959
5.70084e-05
2.61885e-05
1.1848e-05
5.28798e-06
2.33178e-06
1.0172e-06
4.39451e-07
1.88122e-07
7.97516e-08
3.33722e-08
1.36474e-08
5.30312e-09
1.78896e-09
3.16949e-10
4.82228e-07
2.10766e-06
4.84201e-06
9.42554e-06
1.70689e-05
2.97281e-05
5.05177e-05
8.43155e-05
0.000138613
0.000224658
0.000358895
0.000564614
0.000873564
0.00132705
0.00197581
0.00287786
0.00409384
0.00568016
0.00768141
0.0101242
0.0130142
0.0163365
0.0200595
0.0241391
0.0285236
0.0331575
0.0379844
0.0429497
0.0480014
0.0530917
0.0581773
0.0632199
0.0681867
0.0730494
0.0777852
0.0823755
0.0868059
0.0910655
0.0951466
0.0990446
0.102757
0.106283
0.109625
0.112785
0.115766
0.118572
0.121207
0.123675
0.125981
0.128128
0.130118
0.131952
0.13363
0.135149
0.136504
0.137685
0.138679
0.139466
0.140021
0.140297
0.140266
0.139858
0.138989
0.137576
0.126891
0.115783
0.104682
0.0937353
0.0830631
0.0727631
0.0629177
0.0535983
0.0448688
0.0367891
0.0294326
0.0228357
0.0170696
0.0122029
0.00826806
0.00526783
0.0031444
0.00176203
0.000933658
0.000472186
0.000230211
0.000109622
5.11824e-05
2.34941e-05
1.06238e-05
4.74027e-06
2.09e-06
9.11712e-07
3.93894e-07
1.6863e-07
7.14919e-08
2.99158e-08
1.2233e-08
4.75274e-09
1.6028e-09
2.84199e-10
4.86533e-07
2.12647e-06
4.88529e-06
9.51001e-06
1.72225e-05
2.99971e-05
5.09779e-05
8.50887e-05
0.000139892
0.00022674
0.000362227
0.000569848
0.000881614
0.00133915
0.00199351
0.00290302
0.00412851
0.00572641
0.00774115
0.010199
0.0131052
0.0164444
0.0201845
0.0242811
0.0286822
0.0333319
0.038174
0.0431534
0.0482182
0.0533202
0.0584163
0.0634682
0.0684427
0.0733119
0.0780527
0.0826468
0.0870796
0.0913403
0.0954214
0.0993179
0.103028
0.106551
0.109888
0.113041
0.116015
0.118813
0.121438
0.123896
0.12619
0.128323
0.130297
0.132114
0.133771
0.135266
0.136593
0.137739
0.138691
0.139424
0.139905
0.140091
0.139934
0.139349
0.138228
0.136459
0.125403
0.114233
0.103116
0.0921867
0.0815556
0.0713157
0.061546
0.0523157
0.0436884
0.0357267
0.0284981
0.0220282
0.0163867
0.0116269
0.00781438
0.00493848
0.00292477
0.0016278
0.000857882
0.000432129
0.000210235
9.99662e-05
4.66286e-05
2.13897e-05
9.66814e-06
4.31276e-06
1.90128e-06
8.2936e-07
3.58323e-07
1.53409e-07
6.50408e-08
2.72161e-08
1.11283e-08
4.32296e-09
1.45746e-09
2.58634e-10
4.9019e-07
2.14245e-06
4.92204e-06
9.58174e-06
1.7353e-05
3.02257e-05
5.13688e-05
8.57454e-05
0.000140978
0.000228508
0.000365056
0.000574293
0.000888452
0.00134942
0.00200854
0.00292438
0.00415793
0.00576566
0.00779183
0.0102625
0.0131823
0.0165358
0.0202904
0.0244013
0.0288163
0.0334796
0.0383343
0.0433256
0.0484011
0.053513
0.0586178
0.0636772
0.0686581
0.0735325
0.0782772
0.0828741
0.0873086
0.0915699
0.0956504
0.0995454
0.103253
0.106772
0.110104
0.113252
0.116219
0.119009
0.121626
0.124074
0.126357
0.128477
0.130437
0.132236
0.133874
0.135346
0.136645
0.137757
0.138667
0.139347
0.139756
0.139854
0.139576
0.138826
0.137478
0.135275
0.124133
0.112923
0.1018
0.0908882
0.0802938
0.0701051
0.0603983
0.0512413
0.0426971
0.034824
0.0276723
0.0213014
0.0157762
0.0111499
0.00744422
0.00467166
0.0027489
0.00152138
0.000798274
0.000400794
0.000194654
9.24483e-05
4.3087e-05
1.97543e-05
8.92582e-06
3.98082e-06
1.75477e-06
7.65443e-07
3.3072e-07
1.41599e-07
6.00367e-08
2.51226e-08
1.0272e-08
3.98995e-09
1.34488e-09
2.38836e-10
4.93159e-07
2.15543e-06
4.95188e-06
9.63996e-06
1.74589e-05
3.04111e-05
5.16859e-05
8.62783e-05
0.000141859
0.000229942
0.000367353
0.000577901
0.000894002
0.00135776
0.00202074
0.00294172
0.00418181
0.0057975
0.00783294
0.0103139
0.0132449
0.0166099
0.0203762
0.0244987
0.0289251
0.0335991
0.0384641
0.0434648
0.0485491
0.0536688
0.0587805
0.0638458
0.0688316
0.07371
0.0784576
0.0830565
0.0874921
0.0917535
0.0958332
0.0997266
0.103431
0.106947
0.110276
0.113419
0.11638
0.119163
0.121772
0.124211
0.126484
0.128593
0.13054
0.132325
0.133946
0.135398
0.136674
0.13776
0.138637
0.139278
0.139636
0.139677
0.139325
0.138481
0.137012
0.134211
0.12305
0.111836
0.100723
0.0898359
0.0792789
0.0691386
0.0594896
0.0503971
0.0419201
0.034111
0.0270252
0.0207318
0.0152922
0.0107557
0.00715316
0.00446331
0.00261194
0.00143898
0.000752347
0.000376737
0.000182712
8.66928e-05
4.03777e-05
1.85038e-05
8.35844e-06
3.72719e-06
1.64288e-06
7.16644e-07
3.09654e-07
1.32591e-07
5.62219e-08
2.35276e-08
9.62002e-09
3.73658e-09
1.25928e-09
2.23785e-10
4.95408e-07
2.16526e-06
4.97447e-06
9.68406e-06
1.75391e-05
3.05515e-05
5.19261e-05
8.66817e-05
0.000142526
0.000231028
0.000369092
0.000580633
0.000898206
0.00136407
0.00202998
0.00295485
0.00419991
0.00582163
0.0078641
0.0103529
0.0132923
0.016666
0.0204412
0.0245725
0.0290074
0.0336897
0.0385624
0.0435703
0.0486611
0.0537866
0.0589034
0.0639731
0.0689625
0.0738436
0.0785933
0.0831935
0.0876296
0.0918909
0.0959698
0.0998617
0.103564
0.107077
0.110402
0.113541
0.116497
0.119275
0.121877
0.124309
0.126574
0.128674
0.13061
0.132384
0.133992
0.13543
0.136689
0.137758
0.138615
0.139236
0.139571
0.139593
0.139224
0.138369
0.1369
0.133431
0.122238
0.111014
0.0999089
0.0890428
0.078516
0.0684119
0.0588009
0.0497478
0.0413114
0.0335536
0.0265292
0.0202999
0.0149271
0.0104597
0.00692605
0.00430769
0.00251046
0.00137797
0.000718384
0.00035897
0.000173901
8.24484e-05
3.83807e-05
1.75827e-05
7.94073e-06
3.54059e-06
1.56061e-06
6.80794e-07
2.94192e-07
1.25985e-07
5.34275e-08
2.23606e-08
9.14354e-09
3.55159e-09
1.19683e-09
2.12809e-10
4.96913e-07
2.17183e-06
4.98959e-06
9.71354e-06
1.75927e-05
3.06453e-05
5.20864e-05
8.69509e-05
0.000142971
0.000231753
0.000370251
0.000582454
0.000901008
0.00136828
0.00203614
0.00296362
0.00421199
0.00583776
0.00788494
0.010379
0.013324
0.0167037
0.0204848
0.0246221
0.0290628
0.0337505
0.0386284
0.0436411
0.0487363
0.0538657
0.0589858
0.0640583
0.0690499
0.0739326
0.0786835
0.0832845
0.087721
0.091982
0.0960601
0.0999508
0.103652
0.107163
0.110485
0.11362
0.116573
0.119346
0.121944
0.124371
0.126629
0.128722
0.130651
0.132417
0.134016
0.135444
0.136694
0.137752
0.1386
0.139214
0.139546
0.139572
0.139221
0.138403
0.137002
0.132948
0.121712
0.11047
0.0993628
0.0885051
0.0779926
0.0679071
0.0583212
0.0492985
0.0408983
0.0331786
0.0261947
0.0200086
0.0146811
0.0102604
0.00677351
0.00419855
0.0024407
0.00133651
0.000695372
0.000346941
0.000167938
7.95782e-05
3.70316e-05
1.69611e-05
7.65923e-06
3.41502e-06
1.50534e-06
6.56745e-07
2.83838e-07
1.21569e-07
5.15632e-08
2.15836e-08
8.82689e-09
3.42887e-09
1.15546e-09
2.0554e-10
4.97658e-07
2.17508e-06
4.99705e-06
9.72804e-06
1.76189e-05
3.06911e-05
5.21644e-05
8.70816e-05
0.000143187
0.000232102
0.00037081
0.00058333
0.000902354
0.00137031
0.0020391
0.00296783
0.0042178
0.00584553
0.007895
0.0103916
0.0133394
0.016722
0.0205061
0.0246463
0.0290899
0.0337804
0.0386609
0.0436761
0.0487734
0.0539048
0.0590265
0.0641003
0.0690928
0.0739762
0.0787277
0.0833291
0.0877658
0.0920267
0.0961044
0.0999944
0.103694
0.107204
0.110525
0.113658
0.116609
0.11938
0.121975
0.124399
0.126654
0.128743
0.130668
0.132428
0.134022
0.135445
0.136689
0.137742
0.138587
0.139198
0.139531
0.139566
0.139232
0.138449
0.137105
0.132719
0.121449
0.110192
0.0990806
0.0882265
0.077723
0.0676504
0.0580795
0.0490735
0.0406916
0.0329915
0.0260284
0.0198642
0.0145597
0.0101626
0.00669911
0.00414588
0.00240631
0.001316
0.000684002
0.000341004
0.000164998
7.81646e-05
3.63678e-05
1.66554e-05
7.52081e-06
3.35326e-06
1.47814e-06
6.44907e-07
2.78737e-07
1.19393e-07
5.06433e-08
2.11998e-08
8.67038e-09
3.36817e-09
1.13498e-09
2.01939e-10
4.97665e-07
2.17511e-06
4.99711e-06
9.72817e-06
1.76192e-05
3.06915e-05
5.21652e-05
8.70828e-05
0.000143189
0.000232106
0.000370815
0.000583338
0.000902366
0.00137032
0.00203913
0.00296786
0.00421784
0.00584557
0.00789504
0.0103917
0.0133395
0.0167221
0.0205061
0.0246463
0.0290899
0.0337804
0.038661
0.0436761
0.0487734
0.0539048
0.0590266
0.0641003
0.0690928
0.0739762
0.0787277
0.0833291
0.0877657
0.0920266
0.0961043
0.0999943
0.103694
0.107204
0.110524
0.113658
0.116609
0.11938
0.121975
0.124398
0.126653
0.128742
0.130667
0.132427
0.134021
0.135444
0.136688
0.137741
0.138585
0.139196
0.13953
0.139564
0.139232
0.138449
0.137105
0.132715
0.121446
0.11019
0.0990791
0.0882253
0.0777219
0.0676494
0.0580785
0.0490725
0.0406907
0.0329906
0.0260275
0.0198634
0.0145589
0.0101619
0.00669856
0.00414547
0.00240604
0.00131584
0.000683913
0.000340957
0.000164974
7.81529e-05
3.63622e-05
1.66528e-05
7.51965e-06
3.35275e-06
1.47792e-06
6.44811e-07
2.78696e-07
1.19375e-07
5.06361e-08
2.11969e-08
8.66917e-09
3.3677e-09
1.13482e-09
2.01907e-10
4.96933e-07
2.17192e-06
4.98979e-06
9.71393e-06
1.75934e-05
3.06466e-05
5.20885e-05
8.69545e-05
0.000142977
0.000231762
0.000370266
0.000582476
0.000901041
0.00136833
0.00203621
0.0029637
0.0042121
0.00583788
0.00788508
0.0103791
0.0133242
0.0167038
0.0204849
0.0246222
0.0290628
0.0337506
0.0386285
0.0436412
0.0487363
0.0538657
0.0589859
0.0640583
0.0690499
0.0739326
0.0786835
0.0832844
0.0877208
0.0919818
0.0960599
0.0999505
0.103651
0.107162
0.110484
0.11362
0.116572
0.119346
0.121943
0.12437
0.126628
0.128721
0.13065
0.132414
0.134013
0.135441
0.13669
0.137748
0.138596
0.139209
0.139542
0.139569
0.13922
0.138404
0.137001
0.132938
0.121705
0.110464
0.099358
0.0885008
0.0779887
0.0679034
0.0583177
0.0492951
0.0408951
0.0331756
0.0261918
0.0200058
0.0146786
0.0102583
0.00677183
0.00419739
0.00244001
0.00133611
0.000695169
0.000346841
0.00016789
7.95563e-05
3.70217e-05
1.69567e-05
7.65727e-06
3.41416e-06
1.50497e-06
6.56585e-07
2.83769e-07
1.2154e-07
5.15503e-08
2.15781e-08
8.82456e-09
3.42794e-09
1.15514e-09
2.05471e-10
4.95442e-07
2.1654e-06
4.97482e-06
9.68473e-06
1.75403e-05
3.05537e-05
5.19299e-05
8.66881e-05
0.000142537
0.000231046
0.000369119
0.000580674
0.000898267
0.00136416
0.0020301
0.00295502
0.00420012
0.00582188
0.00786439
0.0103532
0.0132926
0.0166664
0.0204415
0.0245729
0.0290077
0.0336899
0.0385626
0.0435705
0.0486613
0.0537868
0.0589036
0.0639732
0.0689626
0.0738437
0.0785934
0.0831935
0.0876296
0.0918908
0.0959696
0.0998614
0.103564
0.107077
0.110401
0.11354
0.116496
0.119274
0.121876
0.124308
0.126572
0.128672
0.130608
0.132381
0.133988
0.135425
0.136684
0.137752
0.138609
0.139229
0.139566
0.139589
0.139222
0.138369
0.136895
0.133414
0.122226
0.111005
0.0999004
0.089035
0.0785086
0.0684048
0.0587942
0.0497414
0.0413055
0.033548
0.026524
0.0202951
0.0149228
0.010456
0.00692318
0.00430566
0.00250909
0.00137719
0.000717982
0.000358776
0.00017381
8.24071e-05
3.83623e-05
1.75746e-05
7.9372e-06
3.53907e-06
1.55996e-06
6.80514e-07
2.94072e-07
1.25933e-07
5.34054e-08
2.23512e-08
9.13959e-09
3.55002e-09
1.1963e-09
2.12693e-10
4.93206e-07
2.15564e-06
4.95236e-06
9.64091e-06
1.74606e-05
3.04142e-05
5.16913e-05
8.62873e-05
0.000141874
0.000229966
0.000367391
0.000577959
0.00089409
0.00135788
0.00202091
0.00294195
0.00418212
0.00579787
0.00783339
0.0103144
0.0132454
0.0166104
0.0203767
0.0244993
0.0289256
0.0335996
0.0384645
0.0434652
0.0485495
0.0536691
0.0587808
0.0638461
0.0688319
0.0737102
0.0784578
0.0830566
0.0874922
0.0917535
0.0958332
0.0997265
0.103431
0.106947
0.110275
0.113418
0.116379
0.119162
0.121771
0.12421
0.126482
0.128591
0.130537
0.132322
0.133942
0.135394
0.136669
0.137754
0.138631
0.139271
0.13963
0.139672
0.139321
0.138478
0.137003
0.134191
0.123035
0.111823
0.100711
0.0898251
0.0792684
0.0691285
0.0594798
0.0503875
0.0419109
0.0341024
0.0270173
0.0207246
0.0152858
0.0107504
0.00714914
0.00446041
0.00261013
0.00143795
0.000751808
0.000376476
0.000182591
8.6638e-05
4.03534e-05
1.84933e-05
8.35387e-06
3.72523e-06
1.64204e-06
7.16286e-07
3.09501e-07
1.32525e-07
5.61936e-08
2.35156e-08
9.61493e-09
3.73454e-09
1.25859e-09
2.23633e-10
4.90251e-07
2.14272e-06
4.92266e-06
9.58296e-06
1.73553e-05
3.02296e-05
5.13756e-05
8.5757e-05
0.000140997
0.000228539
0.000365106
0.000574369
0.000888566
0.00134958
0.00200877
0.0029247
0.00415834
0.00576616
0.00779244
0.0102631
0.0131831
0.0165366
0.0202912
0.0244021
0.0288171
0.0334803
0.038335
0.0433262
0.0484018
0.0535136
0.0586183
0.0636777
0.0686585
0.0735329
0.0782776
0.0828744
0.0873089
0.0915701
0.0956505
0.0995454
0.103253
0.106772
0.110104
0.113252
0.116219
0.119009
0.121625
0.124073
0.126355
0.128475
0.130435
0.132234
0.133871
0.135343
0.136641
0.137753
0.138662
0.139342
0.139751
0.139849
0.139571
0.13882
0.137466
0.135258
0.12412
0.112911
0.101787
0.0908749
0.0802801
0.0700912
0.0603843
0.0512272
0.0426834
0.0348111
0.0276608
0.0212914
0.0157678
0.0111431
0.00743877
0.0046679
0.00274654
0.00152002
0.000797566
0.000400455
0.000194497
9.23781e-05
4.30562e-05
1.97409e-05
8.92008e-06
3.97837e-06
1.75374e-06
7.65002e-07
3.30531e-07
1.41518e-07
6.00021e-08
2.51078e-08
1.02657e-08
3.98745e-09
1.34404e-09
2.38648e-10
4.86608e-07
2.1268e-06
4.88605e-06
9.51151e-06
1.72253e-05
3.0002e-05
5.09863e-05
8.51029e-05
0.000139915
0.000226778
0.000362287
0.000569941
0.000881755
0.00133935
0.0019938
0.00290342
0.00412902
0.00572705
0.00774192
0.0101999
0.0131062
0.0164454
0.0201856
0.0242822
0.0286832
0.033333
0.038175
0.0431544
0.048219
0.0533211
0.0584171
0.0634689
0.0684434
0.0733126
0.0780534
0.0826474
0.0870802
0.0913408
0.0954217
0.0993182
0.103028
0.106551
0.109888
0.113041
0.116015
0.118812
0.121438
0.123895
0.126189
0.128322
0.130296
0.132113
0.13377
0.135265
0.136591
0.137738
0.138689
0.139423
0.139904
0.140089
0.139931
0.139343
0.138217
0.136448
0.12539
0.114215
0.103097
0.0921671
0.0815367
0.0712976
0.0615287
0.0522996
0.0436733
0.0357125
0.0284843
0.0220158
0.0163759
0.0116179
0.00780761
0.00493366
0.00292166
0.00162601
0.000856956
0.000431688
0.000210033
9.98761e-05
4.65892e-05
2.13728e-05
9.66096e-06
4.30973e-06
1.9e-06
8.28821e-07
3.58095e-07
1.53312e-07
6.49993e-08
2.71984e-08
1.11209e-08
4.32e-09
1.45645e-09
2.58409e-10
4.82318e-07
2.10805e-06
4.84292e-06
9.42733e-06
1.70722e-05
2.97339e-05
5.05277e-05
8.43323e-05
0.000138641
0.000224703
0.000358967
0.000564726
0.000873733
0.0013273
0.00197616
0.00287834
0.00409447
0.00568094
0.00768236
0.0101253
0.0130154
0.0163378
0.0200609
0.0241405
0.028525
0.0331588
0.0379857
0.042951
0.0480026
0.0530928
0.0581784
0.063221
0.0681877
0.0730504
0.0777861
0.0823764
0.0868067
0.0910662
0.0951473
0.0990451
0.102757
0.106284
0.109626
0.112785
0.115766
0.118571
0.121206
0.123675
0.125981
0.128127
0.130117
0.131952
0.13363
0.135149
0.136504
0.137686
0.13868
0.139468
0.140022
0.140296
0.140263
0.139851
0.138976
0.137564
0.126874
0.115758
0.104655
0.0937093
0.0830384
0.0727399
0.062896
0.053578
0.0448498
0.036771
0.0294152
0.0228194
0.0170554
0.0121915
0.00825922
0.00526147
0.0031403
0.00175969
0.000932445
0.00047161
0.000229948
0.000109506
5.11321e-05
2.34727e-05
1.06148e-05
4.73652e-06
2.08844e-06
9.1106e-07
3.93621e-07
1.68515e-07
7.14433e-08
2.98952e-08
1.22243e-08
4.7493e-09
1.60163e-09
2.83938e-10
4.77424e-07
2.08666e-06
4.79374e-06
9.33132e-06
1.68976e-05
2.9428e-05
5.00046e-05
8.34538e-05
0.000137188
0.000222339
0.000355184
0.000558783
0.000864591
0.00131356
0.00195606
0.00284976
0.00405507
0.00562835
0.00761439
0.0100402
0.0129118
0.0162149
0.0199184
0.0239785
0.0283439
0.0329593
0.0377688
0.0427177
0.0477542
0.0528306
0.0579038
0.0629355
0.0678928
0.0727478
0.0774772
0.0820627
0.0864897
0.0907473
0.094828
0.0987268
0.102441
0.105971
0.109318
0.112484
0.115472
0.118286
0.120931
0.12341
0.125728
0.127889
0.129894
0.131746
0.133444
0.134985
0.136365
0.137576
0.138604
0.13943
0.140028
0.140355
0.140383
0.140044
0.139258
0.137933
0.12863
0.117572
0.106482
0.095516
0.0847988
0.0744334
0.0645056
0.0550895
0.0462511
0.0380517
0.0305725
0.0238284
0.0179243
0.012906
0.00881508
0.0056662
0.0034122
0.00192732
0.00102782
0.000522343
0.000255342
0.000121811
5.69449e-05
2.61618e-05
1.18369e-05
5.28341e-06
2.3299e-06
1.01643e-06
4.39133e-07
1.8799e-07
7.96963e-08
3.3349e-08
1.36377e-08
5.29926e-09
1.78764e-09
3.16654e-10
4.71978e-07
2.06286e-06
4.73899e-06
9.22446e-06
1.67033e-05
2.90877e-05
4.94228e-05
8.24766e-05
0.000135573
0.000219711
0.000350979
0.00055218
0.000854436
0.00129831
0.00193373
0.00281801
0.00401129
0.00556989
0.0075388
0.00994541
0.0127964
0.016078
0.0197595
0.0237978
0.0281418
0.0327365
0.0375263
0.0424567
0.047476
0.0525366
0.0575955
0.0626146
0.067561
0.0724066
0.0771285