/*--------------------------------*- C++ -*----------------------------------*\
  =========                 |
  \\      /  F ield         | OpenFOAM: The Open Source CFD Toolbox
   \\    /   O peration     | Website:  https://openfoam.org
    \\  /    A nd           | Version:  8
     \\/     M anipulation  |
\*---------------------------------------------------------------------------*/
FoamFile
{
    version     2.0;
    format      ascii;
    class       volScalarField;
    location    "180/fluid";
    object      N2;
}
// * * * * * * * * * * * * * * * * * * * * * * * * * * * * * * * * * * * * * //

dimensions      [0 0 0 0 0 0 0];

internalField   nonuniform List<scalar> 
4000
(
1.99538e-06
8.71054e-06
1.99618e-05
3.87254e-05
6.98516e-05
0.000121166
0.000205149
0.000341426
0.000560363
0.000908034
0.00145275
0.00229296
0.00356582
0.00545436
0.00819032
0.0120483
0.0173278
0.0243222
0.0332795
0.0443659
0.0576425
0.0730615
0.0904805
0.109687
0.130425
0.152416
0.175381
0.199049
0.223167
0.247504
0.271855
0.296038
0.319898
0.343306
0.366153
0.388353
0.409841
0.430566
0.450491
0.469591
0.487856
0.505283
0.521876
0.537647
0.552612
0.566791
0.580206
0.592884
0.604851
0.616136
0.626765
0.636769
0.646176
0.655015
0.663314
0.6711
0.6784
0.685239
0.691644
0.697638
0.703245
0.708482
0.713291
0.717864
0.722129
0.726108
0.729822
0.733329
0.736749
0.740027
0.743167
0.746168
0.74903
0.75175
0.754322
0.756739
0.758992
0.761067
0.762957
0.764643
0.766106
0.767326
0.768286
0.768984
0.769445
0.769719
0.769866
0.769939
0.769973
0.769988
0.769995
0.769998
0.769999
0.77
0.77
0.77
0.77
0.77
0.77
0.77
2.03068e-06
8.86982e-06
2.03487e-05
3.95336e-05
7.14294e-05
0.00012412
0.000210499
0.000350827
0.000576387
0.000934501
0.00149502
0.00235808
0.00366231
0.0055915
0.0083768
0.0122904
0.0176275
0.0246758
0.0336782
0.0447979
0.0580955
0.0735263
0.0909528
0.110168
0.130919
0.152933
0.17593
0.199639
0.223807
0.248198
0.272605
0.296844
0.320759
0.344216
0.367107
0.389346
0.410866
0.431616
0.451558
0.47067
0.48894
0.506367
0.522955
0.538716
0.553667
0.567829
0.581224
0.59388
0.605822
0.617081
0.627683
0.637659
0.647038
0.655848
0.664118
0.671875
0.679146
0.685957
0.692333
0.698299
0.703876
0.70908
0.713841
0.718382
0.722626
0.726594
0.730299
0.733848
0.737271
0.740551
0.743691
0.746694
0.749557
0.752277
0.754848
0.75726
0.759505
0.761559
0.763426
0.765077
0.766492
0.767649
0.768535
0.769156
0.76955
0.769776
0.769894
0.769951
0.769978
0.76999
0.769996
0.769998
0.769999
0.77
0.77
0.77
0.77
0.77
0.77
0.77
2.08363e-06
9.10465e-06
2.09024e-05
4.0646e-05
7.35092e-05
0.000127845
0.000216959
0.000361722
0.000594282
0.00096312
0.00153955
0.0024254
0.00376105
0.00573179
0.00856958
0.0125463
0.017955
0.0250799
0.0341593
0.0453519
0.0587153
0.074204
0.0916818
0.110944
0.131743
0.153808
0.176862
0.200635
0.224873
0.249339
0.273825
0.298144
0.322136
0.345668
0.368629
0.390931
0.412505
0.433301
0.45328
0.472419
0.490707
0.508142
0.524731
0.540485
0.555422
0.569563
0.582933
0.595557
0.607465
0.618684
0.629245
0.639178
0.648511
0.657275
0.665497
0.673206
0.68043
0.687194
0.693525
0.699447
0.704983
0.710122
0.714864
0.719379
0.723587
0.727515
0.731145
0.734706
0.738118
0.741387
0.744517
0.747507
0.750354
0.753054
0.755599
0.757978
0.760181
0.762183
0.763987
0.765563
0.766891
0.767954
0.768747
0.769288
0.769624
0.769813
0.769911
0.769959
0.769982
0.769992
0.769996
0.769998
0.769999
0.77
0.77
0.77
0.77
0.77
0.77
0.77
2.13474e-06
9.32857e-06
2.14192e-05
4.1657e-05
7.53456e-05
0.00013104
0.000222356
0.000370616
0.000608616
0.000985732
0.00157445
0.00247811
0.00383879
0.00584361
0.0087261
0.012759
0.0182354
0.0254381
0.0346031
0.045886
0.0593422
0.0749239
0.092494
0.111848
0.132738
0.154894
0.17804
0.201905
0.226236
0.250797
0.275375
0.299786
0.323866
0.347482
0.37052
0.392892
0.414529
0.435377
0.455398
0.47457
0.49288
0.510328
0.52692
0.542668
0.557591
0.57171
0.58505
0.597639
0.609506
0.62068
0.631191
0.641071
0.650348
0.659054
0.667217
0.674867
0.682029
0.688733
0.695003
0.700864
0.706342
0.711347
0.716037
0.720523
0.724698
0.72859
0.732195
0.735742
0.739137
0.742387
0.745494
0.748458
0.751273
0.753934
0.756433
0.758759
0.760898
0.762837
0.76456
0.766047
0.76728
0.768246
0.768948
0.769414
0.769695
0.76985
0.769929
0.769967
0.769985
0.769993
0.769997
0.769999
0.769999
0.77
0.77
0.77
0.77
0.77
0.77
0.77
2.18228e-06
9.5364e-06
2.18973e-05
4.25894e-05
7.70367e-05
0.000133986
0.000227351
0.000378909
0.000622122
0.00100731
0.00160825
0.00252992
0.00391636
0.0059568
0.00888673
0.0129802
0.0185306
0.0258196
0.035081
0.0464675
0.0600313
0.0757224
0.0934021
0.112865
0.133864
0.156128
0.179382
0.203355
0.227792
0.252457
0.277138
0.301646
0.325821
0.349524
0.372643
0.395087
0.416787
0.437689
0.457754
0.476958
0.495292
0.512752
0.529346
0.545087
0.559994
0.574089
0.587398
0.599948
0.61177
0.622893
0.63335
0.643171
0.652386
0.661027
0.669124
0.676705
0.683798
0.690432
0.696633
0.702427
0.707834
0.712764
0.717464
0.721844
0.725939
0.729766
0.733372
0.736882
0.740243
0.74346
0.746531
0.749454
0.752225
0.754836
0.757278
0.75954
0.761601
0.763463
0.7651
0.766495
0.767632
0.768502
0.769118
0.769516
0.769751
0.769878
0.769942
0.769973
0.769988
0.769995
0.769998
0.769999
0.77
0.77
0.77
0.77
0.77
0.77
0.77
0.77
2.22553e-06
9.72521e-06
2.23307e-05
4.34321e-05
7.85612e-05
0.000136637
0.00023184
0.000386358
0.000634264
0.00102676
0.00163882
0.00257703
0.00398744
0.00606154
0.00903712
0.0131902
0.0188152
0.0261936
0.0355575
0.0470568
0.0607405
0.0765553
0.0943603
0.113949
0.135071
0.157457
0.18083
0.20492
0.229471
0.254246
0.279032
0.303641
0.327908
0.351698
0.374895
0.397409
0.419169
0.440121
0.460226
0.479461
0.497814
0.515284
0.531877
0.547609
0.562497
0.576564
0.589838
0.602347
0.614121
0.625191
0.635589
0.645348
0.654497
0.66307
0.671095
0.678602
0.685621
0.692177
0.698297
0.704005
0.709298
0.714147
0.718788
0.723113
0.727151
0.73088
0.734526
0.73801
0.741342
0.744523
0.747554
0.750433
0.753153
0.755707
0.758087
0.76028
0.762266
0.764046
0.765596
0.766899
0.767942
0.768723
0.769262
0.769601
0.769797
0.769901
0.769954
0.769979
0.76999
0.769996
0.769998
0.769999
0.77
0.77
0.77
0.77
0.77
0.77
0.77
0.77
2.26565e-06
9.90049e-06
2.27332e-05
4.42161e-05
7.99824e-05
0.000139114
0.000236052
0.000393384
0.000645782
0.00104532
0.00166821
0.00262265
0.00405676
0.0061644
0.00918581
0.0133991
0.0190999
0.0265698
0.0360391
0.0476552
0.0614637
0.0774083
0.0953451
0.115065
0.136318
0.158833
0.18233
0.206541
0.231208
0.256094
0.280985
0.305692
0.33005
0.353922
0.377193
0.399772
0.421587
0.442584
0.462724
0.481983
0.500351
0.517825
0.534414
0.550132
0.564997
0.579035
0.592271
0.604735
0.616459
0.627473
0.637812
0.647506
0.656588
0.66509
0.673044
0.680478
0.687423
0.693908
0.699959
0.705604
0.71076
0.715542
0.720133
0.724404
0.728384
0.732054
0.735662
0.73911
0.742404
0.745545
0.748532
0.751362
0.754028
0.756524
0.758838
0.76096
0.762878
0.764577
0.766041
0.767256
0.76821
0.76891
0.76938
0.76967
0.769833
0.769919
0.769962
0.769983
0.769992
0.769996
0.769998
0.769999
0.77
0.77
0.77
0.77
0.77
0.77
0.77
0.77
2.30319e-06
1.00645e-05
2.311e-05
4.49503e-05
8.13143e-05
0.00014144
0.000240012
0.0004
0.000656655
0.00106289
0.00169613
0.00266617
0.00412319
0.00626345
0.00932975
0.0136025
0.0193786
0.0269399
0.0365155
0.0482499
0.0621854
0.0782623
0.0963338
0.116189
0.137575
0.160218
0.183842
0.208173
0.232955
0.25795
0.282942
0.307742
0.332186
0.356135
0.379473
0.40211
0.423973
0.445008
0.465177
0.484455
0.502831
0.520306
0.536885
0.552585
0.567425
0.581429
0.594625
0.607043
0.618715
0.629673
0.63995
0.649579
0.658593
0.667025
0.674907
0.682268
0.689139
0.695549
0.701527
0.707101
0.71214
0.716957
0.721441
0.725626
0.72953
0.733185
0.736747
0.740152
0.743403
0.7465
0.749441
0.752222
0.754835
0.757273
0.759526
0.761575
0.763422
0.765046
0.76643
0.767563
0.768437
0.769064
0.769476
0.769724
0.769862
0.769933
0.769969
0.769986
0.769994
0.769997
0.769999
0.769999
0.77
0.77
0.77
0.77
0.77
0.77
0.77
0.77
2.33855e-06
1.0219e-05
2.34653e-05
4.56432e-05
8.2573e-05
0.00014364
0.000243767
0.000406289
0.000667017
0.00107969
0.00172289
0.00270802
0.00418726
0.00635929
0.00946941
0.0138003
0.0196504
0.0273017
0.0369819
0.048833
0.0628941
0.0791019
0.0973065
0.117294
0.138811
0.161582
0.185329
0.209777
0.23467
0.259768
0.284857
0.309745
0.334268
0.358286
0.381685
0.404372
0.426277
0.447344
0.467534
0.486824
0.505205
0.522674
0.53924
0.554918
0.569729
0.583698
0.596852
0.609223
0.620842
0.631743
0.64196
0.651525
0.660473
0.668836
0.676646
0.683934
0.690728
0.697059
0.70295
0.708426
0.713379
0.718138
0.72257
0.726703
0.730513
0.734203
0.737731
0.741101
0.744315
0.747372
0.750269
0.753002
0.755564
0.757947
0.76014
0.762124
0.763905
0.765458
0.766768
0.767826
0.768627
0.76919
0.769553
0.769767
0.769884
0.769944
0.769974
0.769988
0.769995
0.769998
0.769999
0.77
0.77
0.77
0.77
0.77
0.77
0.77
0.77
0.77
2.37183e-06
1.03645e-05
2.37998e-05
4.6296e-05
8.37597e-05
0.000145717
0.000247314
0.000412238
0.000676835
0.00109563
0.00174834
0.00274789
0.00424842
0.00645094
0.00960324
0.0139902
0.0199117
0.0276499
0.0374314
0.0493956
0.0635783
0.0799128
0.0982464
0.118363
0.140006
0.162899
0.186763
0.211323
0.23632
0.261516
0.286693
0.311662
0.336256
0.360337
0.383789
0.40652
0.428459
0.449551
0.469757
0.489055
0.507434
0.524894
0.541443
0.557097
0.571877
0.585809
0.598921
0.611244
0.622812
0.633658
0.643816
0.65332
0.662205
0.670504
0.678248
0.685471
0.692202
0.69847
0.704304
0.709669
0.714581
0.719293
0.723672
0.727747
0.731478
0.735139
0.738634
0.741968
0.745145
0.748162
0.751016
0.753703
0.756216
0.758546
0.760683
0.762614
0.76433
0.765817
0.767059
0.768048
0.768785
0.769293
0.769614
0.769801
0.769902
0.769953
0.769978
0.76999
0.769995
0.769998
0.769999
0.77
0.77
0.77
0.77
0.77
0.77
0.77
0.77
0.77
2.40298e-06
1.05006e-05
2.4113e-05
4.69074e-05
8.48718e-05
0.000147665
0.000250644
0.000417829
0.000686072
0.00111065
0.00177234
0.00278554
0.00430626
0.0065377
0.00973003
0.0141702
0.0201596
0.0279805
0.0378582
0.0499298
0.0642279
0.0806827
0.0991384
0.119376
0.141139
0.164147
0.188121
0.212785
0.237879
0.263164
0.288423
0.313464
0.338123
0.362258
0.385756
0.408525
0.430492
0.451603
0.47182
0.49112
0.509494
0.526941
0.543471
0.559099
0.573847
0.587742
0.600811
0.613088
0.624606
0.635399
0.645501
0.654948
0.663773
0.672011
0.679695
0.686857
0.693528
0.699738
0.705516
0.710742
0.715595
0.720258
0.724588
0.728621
0.732334
0.735969
0.739435
0.742739
0.745882
0.748863
0.751679
0.754325
0.756793
0.759075
0.761161
0.763039
0.764699
0.766125
0.767306
0.768235
0.768916
0.769377
0.769663
0.769827
0.769915
0.76996
0.769981
0.769991
0.769996
0.769998
0.769999
0.77
0.77
0.77
0.77
0.77
0.77
0.77
0.77
0.77
2.43183e-06
1.06267e-05
2.44031e-05
4.7474e-05
8.59026e-05
0.000149471
0.000253734
0.00042302
0.000694654
0.00112462
0.00179468
0.0028206
0.00436015
0.00661861
0.00984832
0.0143383
0.020391
0.028289
0.0382565
0.0504283
0.064834
0.0814008
0.09997
0.120321
0.142193
0.165309
0.189384
0.214143
0.239326
0.264691
0.290023
0.31513
0.339844
0.364028
0.387565
0.410365
0.432354
0.453479
0.473703
0.493002
0.511368
0.5288
0.545309
0.56091
0.575626
0.589484
0.602513
0.614746
0.626216
0.636958
0.647008
0.6564
0.665171
0.673353
0.68098
0.688086
0.694702
0.700859
0.706585
0.711751
0.716547
0.72115
0.725433
0.729411
0.733114
0.736715
0.74015
0.743422
0.746533
0.749481
0.752261
0.754869
0.757297
0.759537
0.761575
0.763406
0.765015
0.766389
0.767515
0.76839
0.769023
0.769444
0.769702
0.769848
0.769926
0.769965
0.769984
0.769992
0.769997
0.769998
0.769999
0.77
0.77
0.77
0.77
0.77
0.77
0.77
0.77
0.77
2.45816e-06
1.07418e-05
2.46679e-05
4.79911e-05
8.68438e-05
0.00015112
0.000256557
0.000427765
0.000702502
0.00113739
0.00181513
0.00285271
0.00440952
0.00669274
0.00995674
0.0144923
0.0206031
0.0285717
0.0386214
0.0508847
0.0653887
0.0820577
0.10073
0.121184
0.143157
0.166369
0.190535
0.21538
0.240642
0.26608
0.291477
0.31664
0.341404
0.365629
0.389199
0.412024
0.434031
0.455166
0.475393
0.494688
0.513044
0.53046
0.546948
0.562523
0.577208
0.591031
0.604021
0.616212
0.627638
0.638333
0.648335
0.657677
0.666396
0.674526
0.6821
0.689153
0.695714
0.70181
0.707473
0.712596
0.717346
0.721899
0.726134
0.730043
0.733776
0.737355
0.740767
0.744014
0.747098
0.750017
0.752766
0.755341
0.757734
0.759937
0.761933
0.763724
0.765287
0.766612
0.767691
0.768519
0.76911
0.769499
0.769733
0.769865
0.769934
0.769969
0.769985
0.769993
0.769997
0.769999
0.769999
0.77
0.77
0.77
0.77
0.77
0.77
0.77
0.77
0.77
2.48172e-06
1.08448e-05
2.49049e-05
4.8454e-05
8.76863e-05
0.000152597
0.000259084
0.000432015
0.000709533
0.00114884
0.00183345
0.0028815
0.00445379
0.00675923
0.010054
0.0146304
0.0207932
0.0288252
0.0389484
0.0512936
0.0658854
0.0826456
0.101411
0.121956
0.144018
0.167316
0.191563
0.216484
0.241816
0.267318
0.292771
0.317983
0.342789
0.367049
0.390646
0.413492
0.435512
0.456655
0.476882
0.496172
0.514517
0.531917
0.548384
0.563934
0.57859
0.59238
0.605335
0.617488
0.628873
0.639526
0.649484
0.658781
0.667453
0.675536
0.683063
0.690066
0.696573
0.702617
0.708231
0.713281
0.71812
0.722621
0.726804
0.730631
0.734355
0.73791
0.741299
0.744524
0.747584
0.750477
0.753199
0.755744
0.758106
0.760275
0.762237
0.763988
0.765514
0.766799
0.767836
0.768624
0.769181
0.769542
0.769758
0.769878
0.769941
0.769972
0.769987
0.769994
0.769997
0.769999
0.769999
0.77
0.77
0.77
0.77
0.77
0.77
0.77
0.77
0.77
2.50229e-06
1.09347e-05
2.51118e-05
4.88579e-05
8.84214e-05
0.000153886
0.00026129
0.000435724
0.00071567
0.00115883
0.00184945
0.00290664
0.00449246
0.0068173
0.0101389
0.014751
0.0209593
0.0290464
0.0392337
0.0516503
0.0663186
0.0831583
0.102004
0.122629
0.144769
0.16814
0.192458
0.217445
0.242837
0.268393
0.293894
0.319148
0.34399
0.368278
0.391899
0.41476
0.436791
0.457938
0.478164
0.497449
0.515783
0.533168
0.549615
0.565142
0.579772
0.593534
0.606457
0.618576
0.629926
0.640542
0.650462
0.65972
0.668354
0.676397
0.683884
0.690848
0.69732
0.703335
0.708882
0.713897
0.71872
0.723198
0.727357
0.731148
0.734855
0.738391
0.741759
0.744963
0.748001
0.75087
0.753567
0.756085
0.758417
0.760554
0.762482
0.764199
0.765692
0.766949
0.767954
0.76871
0.769238
0.769577
0.769778
0.769888
0.769946
0.769974
0.769988
0.769995
0.769998
0.769999
0.77
0.77
0.77
0.77
0.77
0.77
0.77
0.77
0.77
0.77
2.51965e-06
1.10106e-05
2.52863e-05
4.91987e-05
8.90416e-05
0.000154973
0.000263151
0.000438852
0.000720846
0.00116726
0.00186295
0.00292784
0.00452507
0.00686628
0.0102105
0.0148527
0.0210993
0.029233
0.0394744
0.0519512
0.066684
0.0835908
0.102504
0.123196
0.145401
0.168836
0.193213
0.218255
0.243697
0.269298
0.29484
0.320129
0.344999
0.369311
0.39295
0.415824
0.437863
0.459013
0.479238
0.498516
0.51684
0.534211
0.550642
0.566149
0.580756
0.594493
0.607389
0.61948
0.6308
0.641385
0.651273
0.660499
0.669099
0.67711
0.684565
0.691497
0.697944
0.703932
0.709406
0.714405
0.719208
0.723666
0.727805
0.731576
0.735268
0.738788
0.74214
0.745326
0.748346
0.751197
0.753873
0.756369
0.758678
0.76079
0.762697
0.764388
0.765851
0.767073
0.76805
0.768779
0.769283
0.769604
0.769793
0.769896
0.76995
0.769976
0.769989
0.769995
0.769998
0.769999
0.77
0.77
0.77
0.77
0.77
0.77
0.77
0.77
0.77
0.77
2.53363e-06
1.10717e-05
2.54268e-05
4.9473e-05
8.95405e-05
0.000155847
0.000264647
0.000441367
0.000725008
0.00117404
0.0018738
0.0029449
0.00455131
0.00690569
0.0102682
0.0149346
0.0212121
0.0293833
0.0396682
0.0521935
0.0669785
0.0839393
0.102908
0.123654
0.145912
0.169397
0.193822
0.218908
0.244391
0.270029
0.295602
0.320919
0.345813
0.370143
0.393796
0.416681
0.438725
0.459877
0.480099
0.499372
0.517688
0.535048
0.551464
0.566954
0.581544
0.59526
0.608135
0.620203
0.631499
0.64206
0.651923
0.661124
0.6697
0.677687
0.685118
0.692028
0.698451
0.704417
0.709821
0.714803
0.719591
0.724032
0.728156
0.731915
0.735596
0.739104
0.742443
0.745616
0.748621
0.751455
0.754113
0.756591
0.758881
0.760976
0.762865
0.764536
0.765977
0.767175
0.768125
0.768833
0.769319
0.769626
0.769805
0.769903
0.769953
0.769978
0.76999
0.769995
0.769998
0.769999
0.77
0.77
0.77
0.77
0.77
0.77
0.77
0.77
0.77
0.77
2.54412e-06
1.11175e-05
2.55322e-05
4.96785e-05
8.99143e-05
0.000156502
0.000265767
0.000443249
0.000728121
0.00117911
0.00188192
0.00295766
0.00457094
0.0069352
0.0103114
0.014996
0.0212966
0.029496
0.0398137
0.0523757
0.0671999
0.0842016
0.103211
0.123999
0.146297
0.16982
0.194282
0.219401
0.244915
0.27058
0.296178
0.321516
0.346426
0.370771
0.394434
0.417326
0.439375
0.460528
0.480749
0.500017
0.518326
0.535677
0.552082
0.56756
0.582136
0.595836
0.608695
0.620745
0.632024
0.642566
0.652411
0.661593
0.67015
0.678118
0.685531
0.692425
0.69883
0.704779
0.710136
0.715102
0.719874
0.724301
0.728412
0.732166
0.735839
0.739339
0.742668
0.74583
0.748824
0.751646
0.754294
0.756761
0.75904
0.761121
0.762994
0.764648
0.766071
0.767252
0.768184
0.768873
0.769345
0.769641
0.769813
0.769907
0.769955
0.769979
0.76999
0.769996
0.769998
0.769999
0.77
0.77
0.77
0.77
0.77
0.77
0.77
0.77
0.77
0.77
2.55107e-06
1.11478e-05
2.56018e-05
4.98143e-05
9.01608e-05
0.000156933
0.000266504
0.000444486
0.000730166
0.00118244
0.00188725
0.00296603
0.00458384
0.00695459
0.0103398
0.0150364
0.0213524
0.0295705
0.03991
0.0524963
0.0673469
0.084376
0.103414
0.124229
0.146554
0.170104
0.194589
0.219732
0.245266
0.27095
0.296564
0.321916
0.346838
0.371191
0.394862
0.417759
0.439811
0.460964
0.481184
0.50045
0.518754
0.536099
0.552497
0.567966
0.582532
0.596222
0.60907
0.621109
0.632375
0.642905
0.652737
0.661907
0.670452
0.678408
0.685809
0.69269
0.699082
0.705018
0.710354
0.715306
0.720065
0.724479
0.72858
0.732331
0.735999
0.739493
0.742817
0.745974
0.748961
0.751778
0.754418
0.756877
0.759146
0.761217
0.76308
0.764723
0.766134
0.767303
0.768223
0.768901
0.769363
0.769652
0.769819
0.76991
0.769957
0.76998
0.76999
0.769996
0.769998
0.769999
0.77
0.77
0.77
0.77
0.77
0.77
0.77
0.77
0.77
0.77
2.55447e-06
1.11627e-05
2.56358e-05
4.98802e-05
9.02799e-05
0.00015714
0.000266857
0.000445076
0.000731139
0.00118402
0.00188977
0.00296999
0.00458992
0.00696374
0.0103532
0.0150555
0.0213788
0.0296058
0.0399559
0.052554
0.0674174
0.08446
0.103511
0.124341
0.146679
0.170242
0.19474
0.219894
0.245439
0.271133
0.296755
0.322114
0.347042
0.3714
0.395074
0.417974
0.440028
0.461182
0.481401
0.500666
0.518968
0.53631
0.552704
0.56817
0.58273
0.596416
0.609258
0.621291
0.632551
0.643075
0.652901
0.662065
0.670604
0.678554
0.685949
0.692824
0.699209
0.705137
0.710467
0.715411
0.720162
0.724569
0.728664
0.732413
0.736079
0.73957
0.742892
0.746046
0.74903
0.751843
0.75448
0.756934
0.759199
0.761265
0.763122
0.76476
0.766165
0.767328
0.768242
0.768914
0.769371
0.769657
0.769822
0.769912
0.769957
0.76998
0.769991
0.769996
0.769998
0.769999
0.77
0.77
0.77
0.77
0.77
0.77
0.77
0.77
0.77
0.77
2.55452e-06
1.11629e-05
2.56362e-05
4.98811e-05
9.02816e-05
0.000157143
0.000266862
0.000445085
0.000731153
0.00118404
0.00188981
0.00297006
0.00459003
0.00696391
0.0103534
0.0150559
0.0213793
0.0296066
0.0399569
0.0525553
0.067419
0.0844619
0.103514
0.124343
0.146682
0.170245
0.194743
0.219897
0.245443
0.271136
0.296759
0.322117
0.347046
0.371404
0.395078
0.417978
0.440032
0.461186
0.481405
0.50067
0.518971
0.536313
0.552708
0.568173
0.582734
0.596419
0.609261
0.621294
0.632554
0.643078
0.652904
0.662068
0.670607
0.678557
0.685952
0.692827
0.699212
0.70514
0.71047
0.715414
0.720164
0.72457
0.728666
0.732415
0.73608
0.739571
0.742893
0.746046
0.749031
0.751844
0.75448
0.756935
0.759199
0.761265
0.763123
0.76476
0.766166
0.767329
0.768242
0.768915
0.769371
0.769657
0.769822
0.769912
0.769957
0.76998
0.769991
0.769996
0.769998
0.769999
0.77
0.77
0.77
0.77
0.77
0.77
0.77
0.77
0.77
0.77
2.55122e-06
1.11485e-05
2.56034e-05
4.98173e-05
9.01663e-05
0.000156943
0.00026652
0.000444514
0.000730214
0.00118252
0.00188738
0.00296624
0.00458417
0.00695509
0.0103405
0.0150375
0.0213539
0.0295726
0.0399128
0.0524999
0.0673513
0.0843813
0.10342
0.124236
0.146562
0.170112
0.194598
0.219741
0.245276
0.27096
0.296575
0.321926
0.346849
0.371203
0.394873
0.41777
0.439822
0.460976
0.481195
0.500461
0.518765
0.536109
0.552507
0.567976
0.582541
0.596231
0.609079
0.621117
0.632383
0.642913
0.652744
0.661914
0.670459
0.678415
0.685818
0.692699
0.699091
0.705026
0.710362
0.715313
0.72007
0.724482
0.728585
0.732337
0.736003
0.739496
0.742819
0.745976
0.748963
0.751779
0.75442
0.756878
0.759148
0.761219
0.763081
0.764724
0.766135
0.767304
0.768224
0.768901
0.769363
0.769652
0.769819
0.76991
0.769957
0.76998
0.76999
0.769996
0.769998
0.769999
0.77
0.77
0.77
0.77
0.77
0.77
0.77
0.77
0.77
0.77
2.5444e-06
1.11187e-05
2.55349e-05
4.96839e-05
8.99242e-05
0.000156519
0.000265797
0.0004433
0.000728207
0.00117926
0.00188216
0.00295803
0.00457153
0.0069361
0.0103127
0.014998
0.0212994
0.0294998
0.0398187
0.0523819
0.0672076
0.0842107
0.103222
0.124011
0.14631
0.169835
0.194297
0.219417
0.244932
0.270598
0.296196
0.321534
0.346445
0.37079
0.394453
0.417345
0.439394
0.460547
0.480767
0.500036
0.518344
0.535694
0.552099
0.567577
0.582151
0.595852
0.608709
0.620759
0.632037
0.642579
0.652423
0.661605
0.670162
0.67813
0.685543
0.692437
0.698843
0.704791
0.710148
0.715112
0.719881
0.724305
0.728419
0.732175
0.735845
0.739343
0.742673
0.745834
0.748827
0.75165
0.754297
0.756764
0.759042
0.761123
0.762996
0.764649
0.766072
0.767253
0.768185
0.768874
0.769345
0.769641
0.769814
0.769907
0.769955
0.769979
0.76999
0.769996
0.769998
0.769999
0.77
0.77
0.77
0.77
0.77
0.77
0.77
0.77
0.77
0.77
2.53404e-06
1.10734e-05
2.54309e-05
4.94809e-05
8.95551e-05
0.000155873
0.000264692
0.000441442
0.000725134
0.00117425
0.00187414
0.00294544
0.00455215
0.00690698
0.0102701
0.0149374
0.021216
0.0293885
0.0396751
0.0522023
0.0669892
0.0839521
0.102922
0.123671
0.14593
0.169417
0.193844
0.218931
0.244415
0.270053
0.295628
0.320945
0.345839
0.37017
0.393823
0.416708
0.438752
0.459904
0.480126
0.499398
0.517713
0.535072
0.551488
0.566977
0.581566
0.595281
0.608155
0.620222
0.631517
0.642078
0.65194
0.66114
0.669716
0.677702
0.685133
0.692044
0.698466
0.704432
0.709834
0.714814
0.719599
0.724038
0.728166
0.731926
0.735604
0.73911
0.742449
0.745621
0.748626
0.751459
0.754118
0.756595
0.758885
0.760979
0.762868
0.764538
0.765979
0.767177
0.768126
0.768834
0.769319
0.769626
0.769805
0.769903
0.769953
0.769978
0.76999
0.769995
0.769998
0.769999
0.77
0.77
0.77
0.77
0.77
0.77
0.77
0.77
0.77
0.77
2.52019e-06
1.10129e-05
2.52917e-05
4.92093e-05
8.90609e-05
0.000155007
0.00026321
0.000438952
0.000721013
0.00116754
0.0018634
0.00292855
0.00452617
0.00686796
0.010213
0.0148563
0.0211043
0.0292398
0.0394832
0.0519624
0.0666979
0.0836073
0.102523
0.123218
0.145425
0.168862
0.193241
0.218284
0.243728
0.26933
0.294873
0.320163
0.345034
0.369346
0.392985
0.41586
0.437898
0.459048
0.479272
0.498549
0.516872
0.534243
0.550672
0.566178
0.580785
0.59452
0.607416
0.619505
0.630824
0.641408
0.651295
0.66052
0.66912
0.67713
0.684584
0.691516
0.697961
0.703948
0.709419
0.714416
0.719217
0.723674
0.727817
0.731587
0.735276
0.738795
0.742147
0.745333
0.748352
0.751202
0.753879
0.756375
0.758683
0.760795
0.762701
0.764391
0.765854
0.767075
0.768051
0.76878
0.769284
0.769605
0.769793
0.769896
0.76995
0.769976
0.769989
0.769995
0.769998
0.769999
0.77
0.77
0.77
0.77
0.77
0.77
0.77
0.77
0.77
0.77
2.50296e-06
1.09376e-05
2.51186e-05
4.88712e-05
8.84457e-05
0.000153929
0.000261364
0.000435849
0.000715878
0.00115918
0.00185
0.00290751
0.00449381
0.00681935
0.0101419
0.0147554
0.0209654
0.0290547
0.0392445
0.0516641
0.0663356
0.0831786
0.102028
0.122656
0.144798
0.168173
0.192493
0.217482
0.242875
0.268433
0.293935
0.31919
0.344032
0.368321
0.391942
0.414804
0.436835
0.457981
0.478206
0.49749
0.515823
0.533207
0.549653
0.565179
0.579808
0.593567
0.606489
0.618607
0.629955
0.64057
0.650488
0.659745
0.668376
0.676418
0.683903
0.690864
0.697335
0.703349
0.708897
0.713917
0.718737
0.723208
0.727368
0.731157
0.734863
0.738402
0.74177
0.744973
0.74801
0.750878
0.753574
0.756092
0.758423
0.760559
0.762486
0.764203
0.765696
0.766952
0.767956
0.768711
0.769239
0.769577
0.769778
0.769888
0.769946
0.769974
0.769988
0.769995
0.769998
0.769999
0.77
0.77
0.77
0.77
0.77
0.77
0.77
0.77
0.77
0.77
2.48253e-06
1.08484e-05
2.49131e-05
4.84701e-05
8.77156e-05
0.000152649
0.000259173
0.000432165
0.000709783
0.00114925
0.00183411
0.00288254
0.00445541
0.00676167
0.0100576
0.0146356
0.0208005
0.028835
0.0389612
0.0513099
0.0659055
0.0826696
0.101439
0.121988
0.144054
0.167354
0.191605
0.216528
0.241862
0.267365
0.29282
0.318033
0.34284
0.3671
0.390698
0.413543
0.435564
0.456705
0.476932
0.496221
0.514565
0.531964
0.548429
0.563977
0.578632
0.592421
0.605374
0.617525
0.628908
0.63956
0.649515
0.65881
0.667481
0.675561
0.683086
0.690086
0.696591
0.702634
0.708246
0.713295
0.718135
0.722636
0.72682
0.730642
0.734365
0.737924
0.741314
0.744538
0.747596
0.750488
0.753208
0.755752
0.758113
0.760281
0.762243
0.763993
0.765519
0.766803
0.767838
0.768626
0.769182
0.769543
0.769758
0.769878
0.769941
0.769972
0.769987
0.769994
0.769997
0.769999
0.769999
0.77
0.77
0.77
0.77
0.77
0.77
0.77
0.77
0.77
2.45911e-06
1.0746e-05
2.46776e-05
4.801e-05
8.68783e-05
0.000151181
0.000256661
0.000427941
0.000702794
0.00113787
0.00181589
0.00285393
0.0044114
0.00669558
0.00996092
0.0144983
0.0206115
0.0285831
0.0386362
0.0509036
0.0654119
0.0820855
0.100763
0.121221
0.143198
0.166413
0.190583
0.215431
0.240696
0.266136
0.291534
0.316699
0.341463
0.365689
0.389259
0.412084
0.434091
0.455225
0.475451
0.494745
0.513099
0.530514
0.547
0.562573
0.577257
0.591078
0.604066
0.616255
0.627679
0.638372
0.648372
0.657712
0.666429
0.674558
0.682132
0.689183
0.695744
0.701839
0.707499
0.712612
0.717364
0.721926
0.72616
0.730057
0.733787
0.737367
0.740779
0.744026
0.74711
0.750028
0.752776
0.75535
0.757742
0.759944
0.76194
0.76373
0.765292
0.766616
0.767694
0.768521
0.769112
0.7695
0.769734
0.769865
0.769934
0.769969
0.769985
0.769993
0.769997
0.769999
0.769999
0.77
0.77
0.77
0.77
0.77
0.77
0.77
0.77
0.77
2.43293e-06
1.06315e-05
2.44142e-05
4.74957e-05
8.59424e-05
0.000149541
0.000253854
0.000423223
0.000694989
0.00112516
0.00179556
0.00282199
0.00436229
0.00662184
0.00985309
0.0143451
0.0204005
0.0283019
0.0382734
0.0504497
0.0648603
0.0814324
0.100007
0.120363
0.14224
0.16536
0.189439
0.214201
0.239387
0.264755
0.290089
0.315196
0.339912
0.364096
0.387634
0.410433
0.432422
0.453547
0.473769
0.493067
0.511431
0.528862
0.545368
0.560968
0.575682
0.589538
0.602564
0.614795
0.626262
0.637002
0.64705
0.65644
0.665208
0.673388
0.681014
0.688118
0.694733
0.700888
0.706613
0.711777
0.716569
0.72117
0.72545
0.729431
0.733136
0.736735
0.740168
0.743439
0.746548
0.749495
0.752274
0.754881
0.757308
0.759546
0.761583
0.763413
0.765021
0.766394
0.767519
0.768393
0.769025
0.769445
0.769703
0.769849
0.769926
0.769965
0.769984
0.769992
0.769997
0.769998
0.769999
0.77
0.77
0.77
0.77
0.77
0.77
0.77
0.77
0.77
2.40422e-06
1.05061e-05
2.41256e-05
4.69321e-05
8.49168e-05
0.000147744
0.000250779
0.000418058
0.00068645
0.00111127
0.00177333
0.0027871
0.00430866
0.00654133
0.00973537
0.0141779
0.0201703
0.0279949
0.037877
0.0499537
0.0642574
0.0807181
0.0991798
0.119424
0.141191
0.164205
0.188183
0.212851
0.237949
0.263236
0.288497
0.31354
0.338199
0.362336
0.385834
0.408602
0.430568
0.451679
0.471894
0.491193
0.509565
0.52701
0.543538
0.559164
0.57391
0.587802
0.600869
0.613144
0.624659
0.635449
0.645549
0.654993
0.663816
0.672052
0.679734
0.686894
0.693563
0.699771
0.705546
0.710773
0.715618
0.720275
0.724604
0.72865
0.732369
0.735996
0.739459
0.742759
0.7459
0.748879
0.751694
0.754338
0.756804
0.759085
0.76117
0.763048
0.764706
0.766131
0.767311
0.768238
0.768918
0.769378
0.769664
0.769828
0.769915
0.76996
0.769981
0.769991
0.769996
0.769998
0.769999
0.77
0.77
0.77
0.77
0.77
0.77
0.77
0.77
0.77
2.37322e-06
1.03705e-05
2.38138e-05
4.63235e-05
8.38098e-05
0.000145805
0.000247465
0.000412493
0.000677256
0.00109632
0.00174944
0.00274962
0.00425109
0.00645496
0.00960915
0.0139986
0.0199235
0.0276658
0.0374522
0.0494221
0.063611
0.0799521
0.0982923
0.118415
0.140064
0.162964
0.186832
0.211397
0.236398
0.261596
0.286775
0.311746
0.336341
0.360423
0.383875
0.406606
0.428544
0.449635
0.46984
0.489136
0.507513
0.524971
0.541518
0.557169
0.571947
0.585876
0.598985
0.611306
0.622871
0.633714
0.643869
0.653371
0.662253
0.670549
0.678292
0.685512
0.69224
0.698505
0.704336
0.709695
0.714608
0.719318
0.723696
0.727775
0.7315
0.735155
0.738652
0.741987
0.745162
0.748178
0.751032
0.753718
0.756229
0.758558
0.760694
0.762624
0.764339
0.765824
0.767065
0.768052
0.768788
0.769295
0.769615
0.769801
0.769902
0.769953
0.769978
0.76999
0.769995
0.769998
0.769999
0.77
0.77
0.77
0.77
0.77
0.77
0.77
0.77
0.77
2.34008e-06
1.02257e-05
2.34807e-05
4.56735e-05
8.26283e-05
0.000143737
0.000243933
0.000406569
0.000667481
0.00108045
0.0017241
0.00270992
0.00419019
0.0063637
0.00947589
0.0138096
0.0196633
0.0273191
0.0370047
0.0488621
0.06293
0.0791449
0.097357
0.117352
0.138876
0.161653
0.185405
0.209858
0.234755
0.259857
0.284947
0.309837
0.334361
0.35838
0.381779
0.404467
0.426371
0.447436
0.467625
0.486914
0.505292
0.522758
0.539322
0.554998
0.569806
0.583772
0.596923
0.609291
0.620907
0.631805
0.642019
0.651581
0.660527
0.668887
0.676695
0.68398
0.690774
0.697103
0.702995
0.708468
0.71342
0.718178
0.722608
0.726736
0.730531
0.734216
0.737748
0.74112
0.744333
0.74739
0.750286
0.753018
0.755579
0.75796
0.760153
0.762135
0.763914
0.765466
0.766775
0.76783
0.768631
0.769192
0.769554
0.769767
0.769884
0.769944
0.769974
0.769988
0.769995
0.769998
0.769999
0.77
0.77
0.77
0.77
0.77
0.77
0.77
0.77
0.77
2.30486e-06
1.00718e-05
2.31269e-05
4.49833e-05
8.13746e-05
0.000141545
0.000240193
0.000400305
0.00065716
0.00106371
0.00169744
0.00266824
0.00412636
0.00626824
0.00933678
0.0136125
0.0193927
0.0269589
0.0365404
0.0482815
0.0622245
0.0783093
0.0963888
0.116251
0.137645
0.160296
0.183925
0.208262
0.233048
0.258046
0.283041
0.307844
0.332289
0.356238
0.379577
0.402213
0.424075
0.445109
0.465276
0.484552
0.502926
0.520398
0.536975
0.552672
0.567508
0.581509
0.594702
0.607117
0.618785
0.62974
0.640013