/*--------------------------------*- C++ -*----------------------------------*\
  =========                 |
  \\      /  F ield         | OpenFOAM: The Open Source CFD Toolbox
   \\    /   O peration     | Website:  https://openfoam.org
    \\  /    A nd           | Version:  8
     \\/     M anipulation  |
\*---------------------------------------------------------------------------*/
FoamFile
{
    version     2.0;
    format      ascii;
    class       volScalarField;
    location    "180/fluid";
    object      O2;
}
// * * * * * * * * * * * * * * * * * * * * * * * * * * * * * * * * * * * * * //

dimensions      [0 0 0 0 0 0 0];

internalField   nonuniform List<scalar> 
4000
(
3.09047e-10
1.34908e-09
3.09137e-09
5.99554e-09
1.08084e-08
1.87301e-08
3.16641e-08
5.2583e-08
8.60464e-08
1.38898e-07
2.21147e-07
3.46989e-07
5.35787e-07
8.12734e-07
1.20867e-06
1.75854e-06
2.49809e-06
3.45889e-06
4.66275e-06
6.11711e-06
7.813e-06
9.72595e-06
1.18195e-05
1.40497e-05
1.63692e-05
1.87313e-05
2.10918e-05
2.3411e-05
2.56543e-05
2.77928e-05
2.98033e-05
3.16696e-05
3.33833e-05
3.49481e-05
3.63853e-05
3.77433e-05
3.91096e-05
4.06228e-05
4.24829e-05
4.49625e-05
4.84135e-05
5.32726e-05
6.00723e-05
6.9458e-05
8.22134e-05
9.92982e-05
0.0001219
0.000151503
0.000189977
0.000239689
0.000303649
0.000385685
0.000490676
0.000624843
0.000796122
0.00101465
0.00129337
0.0016489
0.00210253
0.00268176
0.00342219
0.00436935
0.00556415
0.00713007
0.00915713
0.0118042
0.0153037
0.0263664
0.0428682
0.0594593
0.0759445
0.0921607
0.107969
0.123248
0.137889
0.151794
0.164865
0.176984
0.188091
0.198042
0.206708
0.213956
0.219681
0.223862
0.226633
0.228288
0.229182
0.229623
0.229831
0.229926
0.229968
0.229986
0.229994
0.229998
0.229999
0.23
0.23
0.23
0.23
0.23
3.1819e-10
1.3902e-09
3.19062e-09
6.20105e-09
1.1206e-08
1.94688e-08
3.29948e-08
5.49166e-08
9.00329e-08
1.45529e-07
2.31879e-07
3.63858e-07
5.6151e-07
8.50732e-07
1.26301e-06
1.83375e-06
2.59884e-06
3.5897e-06
4.82771e-06
6.31974e-06
8.05616e-06
1.00119e-05
1.21499e-05
1.44255e-05
1.67907e-05
1.91978e-05
2.16018e-05
2.3962e-05
2.62429e-05
2.8415e-05
3.04547e-05
3.23455e-05
3.40794e-05
3.56611e-05
3.7114e-05
3.84902e-05
3.9883e-05
4.14387e-05
4.33668e-05
4.59508e-05
4.9554e-05
5.46256e-05
6.17106e-05
7.14687e-05
8.4701e-05
0.000102391
0.000125756
0.000156326
0.000196027
0.000247309
0.000313287
0.000397937
0.00050633
0.000644945
0.000822058
0.00104824
0.00133701
0.00170562
0.0021761
0.00277652
0.00354256
0.00451775
0.00573346
0.00731351
0.00932108
0.011865
0.015066
0.028831
0.0454872
0.062198
0.0787797
0.095074
0.110944
0.126267
0.140933
0.154838
0.167879
0.179894
0.190877
0.200631
0.209014
0.215892
0.221176
0.224899
0.22727
0.228635
0.22935
0.2297
0.229865
0.22994
0.229974
0.229989
0.229995
0.229998
0.229999
0.23
0.23
0.23
0.23
0.23
3.31866e-10
1.45071e-09
3.3327e-09
6.48501e-09
1.17343e-08
2.04112e-08
3.46265e-08
5.76717e-08
9.45782e-08
1.52859e-07
2.43431e-07
3.81642e-07
5.88232e-07
8.89904e-07
1.319e-06
1.91174e-06
2.70473e-06
3.72981e-06
5.00854e-06
6.54769e-06
8.33732e-06
1.03518e-05
1.25534e-05
1.48964e-05
1.73318e-05
1.98106e-05
2.22863e-05
2.47168e-05
2.70652e-05
2.93006e-05
3.13983e-05
3.33411e-05
3.51213e-05
3.67445e-05
3.8237e-05
3.96566e-05
4.11055e-05
4.27423e-05
4.47913e-05
4.75538e-05
5.14122e-05
5.68354e-05
6.43902e-05
7.47607e-05
8.87785e-05
0.000107466
0.000132098
0.000164276
0.000206031
0.00025995
0.000329342
0.000418441
0.00053268
0.00067903
0.000866456
0.00110649
0.00141401
0.00180819
0.00231384
0.00296306
0.00379741
0.00486353
0.00621798
0.00798858
0.010251
0.0131241
0.016676
0.033065
0.0498307
0.0666355
0.0832809
0.0996019
0.115458
0.130723
0.145284
0.159031
0.171853
0.183579
0.194204
0.203519
0.211394
0.217717
0.222451
0.225697
0.227717
0.228861
0.229457
0.229749
0.229886
0.22995
0.229978
0.22999
0.229996
0.229998
0.229999
0.23
0.23
0.23
0.23
0.23
3.46081e-10
1.51302e-09
3.47659e-09
6.76683e-09
1.22474e-08
2.13077e-08
3.61497e-08
6.02039e-08
9.87078e-08
1.59473e-07
2.53835e-07
3.97708e-07
6.12573e-07
9.26036e-07
1.37148e-06
1.98622e-06
2.8079e-06
3.86924e-06
5.19238e-06
6.78433e-06
8.63504e-06
1.07184e-05
1.29958e-05
1.54206e-05
1.79422e-05
2.05101e-05
2.30762e-05
2.55966e-05
2.80326e-05
3.03518e-05
3.2528e-05
3.45431e-05
3.63891e-05
3.80729e-05
3.96243e-05
4.1108e-05
4.26373e-05
4.43859e-05
4.65966e-05
4.95933e-05
5.37819e-05
5.96559e-05
6.78085e-05
7.89539e-05
9.39614e-05
0.000113903
0.00014012
0.000174304
0.000218608
0.000275787
0.000349372
0.000443904
0.000565232
0.000720905
0.000920686
0.00117724
0.00150707
0.00193174
0.00247961
0.0031883
0.00410816
0.00528182
0.00682572
0.00891474
0.0117074
0.015514
0.0213503
0.0381268
0.0550737
0.0719736
0.0886429
0.104924
0.12068
0.135786
0.150129
0.163596
0.176072
0.18745
0.197605
0.206401
0.213718
0.219469
0.223663
0.226456
0.228147
0.229084
0.229565
0.229799
0.229909
0.229959
0.229982
0.229992
0.229997
0.229999
0.229999
0.23
0.23
0.23
0.23
0.23
3.60207e-10
1.57482e-09
3.61888e-09
7.04467e-09
1.27522e-08
2.21892e-08
3.76501e-08
6.2708e-08
1.02816e-07
1.66101e-07
2.64348e-07
4.14088e-07
6.37603e-07
9.63496e-07
1.4263e-06
2.06457e-06
2.91714e-06
4.01774e-06
5.38924e-06
7.03901e-06
8.95696e-06
1.11166e-05
1.34786e-05
1.59952e-05
1.86146e-05
2.12845e-05
2.39552e-05
2.65807e-05
2.91205e-05
3.15402e-05
3.3812e-05
3.59166e-05
3.78456e-05
3.96072e-05
4.12354e-05
4.2803e-05
4.44368e-05
4.6328e-05
4.87418e-05
5.20279e-05
5.66191e-05
6.30367e-05
7.19043e-05
8.39711e-05
0.00010015
0.000121571
0.000149651
0.000186182
0.000233456
0.000294404
0.000372793
0.000473475
0.000602699
0.000768537
0.00098142
0.00125486
0.00160638
0.00205877
0.00264171
0.003394
0.00436521
0.00559341
0.00721971
0.00933122
0.0120893
0.0157117
0.0269482
0.0438202
0.0608269
0.0777338
0.0943513
0.110521
0.126106
0.140984
0.155044
0.168174
0.180217
0.191158
0.200816
0.20907
0.215816
0.221002
0.224685
0.227073
0.228486
0.229257
0.229647
0.229837
0.229926
0.229967
0.229985
0.229994
0.229997
0.229999
0.23
0.23
0.23
0.23
0.23
0.23
3.73977e-10
1.635e-09
3.75721e-09
7.31427e-09
1.32411e-08
2.30421e-08
3.91012e-08
6.51307e-08
1.06795e-07
1.72538e-07
2.74596e-07
4.30131e-07
6.62271e-07
1.00069e-06
1.48121e-06
2.1438e-06
3.02871e-06
4.17096e-06
5.59436e-06
7.30682e-06
9.29829e-06
1.1542e-05
1.39977e-05
1.66166e-05
1.93455e-05
2.21306e-05
2.49199e-05
2.76657e-05
3.03253e-05
3.28621e-05
3.52465e-05
3.74578e-05
3.94872e-05
4.13444e-05
4.30683e-05
4.47416e-05
4.65061e-05
4.85738e-05
5.12356e-05
5.48697e-05
5.99386e-05
6.69945e-05
7.66946e-05
8.98276e-05
0.000107357
0.000130477
0.000160693
0.000199916
0.000250588
0.000315849
0.000399738
0.000507463
0.000645747
0.000823283
0.00105132
0.00134442
0.00172147
0.0022069
0.00283229
0.00363827
0.00467174
0.00597929
0.00769799
0.00988608
0.0126368
0.0159568
0.032418
0.0494958
0.0665912
0.0834936
0.100028
0.116046
0.131417
0.146025
0.159761
0.172518
0.184137
0.194613
0.203764
0.211479
0.217673
0.222328
0.225551
0.227587
0.228766
0.229398
0.229715
0.229868
0.22994
0.229973
0.229988
0.229995
0.229998
0.229999
0.23
0.23
0.23
0.23
0.23
0.23
3.87493e-10
1.69408e-09
3.89304e-09
7.57912e-09
1.3722e-08
2.38822e-08
4.05335e-08
6.75292e-08
1.1075e-07
1.78961e-07
2.84869e-07
4.46296e-07
6.87259e-07
1.03858e-06
1.53744e-06
2.22537e-06
3.14421e-06
4.33043e-06
5.80898e-06
7.5885e-06
9.65921e-06
1.19941e-05
1.45522e-05
1.72838e-05
2.01342e-05
2.30477e-05
2.59706e-05
2.88529e-05
3.16496e-05
3.43217e-05
3.68377e-05
3.91751e-05
4.13246e-05
4.32981e-05
4.51402e-05
4.69452e-05
4.88721e-05
5.11557e-05
5.41169e-05
5.81647e-05
6.37936e-05
7.1589e-05
8.22447e-05
9.65933e-05
0.000115654
0.000140695
0.000173319
0.000215566
0.000270054
0.000340148
0.000430193
0.000545809
0.000694276
0.00088506
0.0011305
0.00144674
0.00185503
0.00238351
0.00306973
0.00396434
0.00511277
0.00661723
0.00867309
0.0114347
0.0152097
0.0208491
0.037907
0.0551135
0.0722372
0.0890851
0.105494
0.121324
0.136452
0.150764
0.164156
0.176519
0.187758
0.19776
0.206408
0.213602
0.219275
0.223445
0.226261
0.227999
0.228986
0.229508
0.229767
0.229892
0.229951
0.229978
0.22999
0.229996
0.229998
0.229999
0.23
0.23
0.23
0.23
0.23
0.23
4.00764e-10
1.75208e-09
4.02641e-09
7.83923e-09
1.41944e-08
2.47082e-08
4.19436e-08
6.98941e-08
1.14657e-07
1.85324e-07
2.95081e-07
4.62428e-07
7.12306e-07
1.07674e-06
1.59439e-06
2.30848e-06
3.2626e-06
4.49489e-06
6.03168e-06
7.88257e-06
1.00382e-05
1.24715e-05
1.51411e-05
1.79962e-05
2.09807e-05
2.40372e-05
2.711e-05
3.01468e-05
3.31e-05
3.59283e-05
3.85976e-05
4.10838e-05
4.33771e-05
4.54918e-05
4.74795e-05
4.94477e-05
5.15752e-05
5.41218e-05
5.74418e-05
6.19775e-05
6.82568e-05
7.69004e-05
8.86411e-05
0.00010436
0.000125136
0.000152318
0.000187614
0.000233202
0.000291875
0.00036723
0.000463904
0.000587884
0.000746917
0.000951039
0.00121328
0.00155059
0.00198509
0.00254579
0.0032709
0.00421106
0.00539769
0.00698672
0.00907197
0.0118338
0.0155303
0.0262839
0.0433581
0.0605559
0.077625
0.094366
0.110616
0.126237
0.141111
0.155128
0.168185
0.180142
0.190982
0.200545
0.208726
0.215437
0.220634
0.224371
0.226837
0.228328
0.22916
0.229594
0.229808
0.229912
0.22996
0.229982
0.229992
0.229997
0.229999
0.229999
0.23
0.23
0.23
0.23
0.23
0.23
4.13781e-10
1.80898e-09
4.15727e-09
8.09455e-09
1.46585e-08
2.55204e-08
4.33319e-08
7.2227e-08
1.1852e-07
1.91634e-07
3.05239e-07
4.78531e-07
7.3741e-07
1.11515e-06
1.65199e-06
2.39294e-06
3.38353e-06
4.66376e-06
6.2616e-06
8.18786e-06
1.04339e-05
1.29729e-05
1.57631e-05
1.87528e-05
2.18848e-05
2.51001e-05
2.83408e-05
3.15522e-05
3.46842e-05
3.76928e-05
4.05412e-05
4.32032e-05
4.5669e-05
4.79552e-05
5.01219e-05
5.22916e-05
5.46654e-05
5.75326e-05
6.12815e-05
6.6389e-05
7.34182e-05
8.30265e-05
9.59886e-05
0.000113237
0.00013592
0.000165474
0.000203724
0.000253003
0.000316305
0.000397488
0.000501528
0.000634845
0.000805734
0.00102491
0.0013062
0.00166745
0.00213163
0.00272815
0.00349446
0.0044771
0.00569992
0.00730971
0.00935018
0.0119062
0.0150015
0.0310195
0.0482818
0.0655394
0.0825766
0.0992149
0.115304
0.130717
0.145338
0.159066
0.1718
0.18339
0.193845
0.202994
0.21074
0.217006
0.221773
0.225132
0.227301
0.228588
0.229295
0.22966
0.22984
0.229926
0.229967
0.229985
0.229993
0.229997
0.229999
0.229999
0.23
0.23
0.23
0.23
0.23
0.23
4.26474e-10
1.86447e-09
4.28489e-09
8.34361e-09
1.51114e-08
2.63137e-08
4.46896e-08
7.45119e-08
1.22312e-07
1.97841e-07
3.1526e-07
4.94473e-07
7.62357e-07
1.15349e-06
1.70974e-06
2.47804e-06
3.50602e-06
4.83578e-06
6.49716e-06
8.50248e-06
1.08442e-05
1.34958e-05
1.64158e-05
1.95518e-05
2.28455e-05
2.62364e-05
2.96648e-05
3.30734e-05
3.64096e-05
3.96263e-05
4.26842e-05
4.5555e-05
4.82283e-05
5.07242e-05
5.31123e-05
5.55321e-05
5.82089e-05
6.14649e-05
6.57234e-05
7.14967e-05
7.93833e-05
9.00778e-05
0.000104398
0.000123331
0.000148095
0.000180222
0.00022166
0.000274908
0.000343182
0.000430638
0.000542654
0.00068621
0.000870379
0.00110699
0.00141148
0.0018041
0.00231144
0.00296858
0.00382195
0.0049205
0.00633277
0.00823523
0.0107299
0.0140151
0.0182966
0.0355204
0.0528841
0.0701503
0.0871236
0.10364
0.119558
0.134759
0.149132
0.162577
0.174997
0.186289
0.196373
0.205132
0.212474
0.218336
0.222721
0.225752
0.227673
0.228793
0.229402
0.229712
0.229865
0.229938
0.229972
0.229987
0.229994
0.229998
0.229999
0.23
0.23
0.23
0.23
0.23
0.23
0.23
4.38739e-10
1.91808e-09
4.40822e-09
8.58438e-09
1.55494e-08
2.70816e-08
4.60055e-08
7.67299e-08
1.25999e-07
2.03893e-07
3.2506e-07
5.10114e-07
7.86927e-07
1.19141e-06
1.76712e-06
2.56302e-06
3.62899e-06
5.00944e-06
6.73637e-06
8.82394e-06
1.1266e-05
1.40369e-05
1.70956e-05
2.03894e-05
2.38593e-05
2.74437e-05
3.10809e-05
3.47116e-05
3.82805e-05
4.17377e-05
4.50408e-05
4.81596e-05
5.10835e-05
5.38368e-05
5.65e-05
5.92315e-05
6.22823e-05
6.60101e-05
7.08742e-05
7.74221e-05
8.62869e-05
9.81995e-05
0.000114021
0.00013479
0.000161796
0.000196658
0.000241439
0.000298783
0.000372096
0.000465778
0.00058553
0.000738761
0.000935126
0.00118726
0.00151176
0.00193057
0.00247282
0.00317755
0.00409746
0.00527179
0.006819
0.00894117
0.0117918
0.0156766
0.022573
0.0398028
0.0571483
0.0743587
0.0912354
0.107616
0.123363
0.138359
0.152499
0.165684
0.177819
0.188813
0.198564
0.206972
0.213952
0.219453
0.223504
0.226255
0.227969
0.228955
0.229485
0.229753
0.229884
0.229947
0.229976
0.229989
0.229995
0.229998
0.229999
0.23
0.23
0.23
0.23
0.23
0.23
0.23
4.50444e-10
1.96925e-09
4.52593e-09
8.81423e-09
1.59678e-08
2.78156e-08
4.72647e-08
7.88557e-08
1.29541e-07
2.09719e-07
3.34523e-07
5.25269e-07
8.10826e-07
1.22845e-06
1.82344e-06
2.64687e-06
3.75099e-06
5.18273e-06
6.97653e-06
9.14874e-06
1.1695e-05
1.4591e-05
1.77965e-05
2.1259e-05
2.49195e-05
2.87153e-05
3.25834e-05
3.64627e-05
4.02955e-05
4.40291e-05
4.76187e-05
5.10318e-05
5.42583e-05
5.73277e-05
6.03334e-05
6.34542e-05
6.69679e-05
7.12706e-05
7.68574e-05
8.43108e-05
9.4298e-05
0.000107587
0.000125082
0.000147879
0.000177331
0.000215143
0.00026348
0.000325111
0.000403588
0.000503478
0.000630672
0.000792773
0.000999628
0.00126401
0.00160255
0.00203694
0.00259558
0.00331582
0.0042466
0.0054179
0.00693596
0.00897425
0.0116326
0.0151098
0.0262772
0.043589
0.0609391
0.078099
0.0948817
0.111132
0.126718
0.141527
0.155456
0.168409
0.180269
0.190993
0.200448
0.208542
0.2152
0.220384
0.224146
0.226661
0.228205
0.229082
0.22955
0.229785
0.229899
0.229954
0.229979
0.229991
0.229996
0.229998
0.229999
0.23
0.23
0.23
0.23
0.23
0.23
0.23
4.61435e-10
2.0173e-09
4.63648e-09
9.03016e-09
1.63611e-08
2.85062e-08
4.84507e-08
8.08613e-08
1.32889e-07
2.15242e-07
3.43519e-07
5.39727e-07
8.33716e-07
1.26409e-06
1.87789e-06
2.72835e-06
3.87023e-06
5.35311e-06
7.21417e-06
9.47224e-06
1.21252e-05
1.51506e-05
1.85093e-05
2.21501e-05
2.60139e-05
3.0038e-05
3.41586e-05
3.83134e-05
4.24427e-05
4.64917e-05
5.04132e-05
5.41733e-05
5.77629e-05
6.12182e-05
6.46474e-05
6.82517e-05
7.23392e-05
7.7342e-05
8.37915e-05
9.23054e-05
0.000103587
0.000118444
0.000137831
0.000162904
0.000195094
0.000236198
0.000288498
0.000354896
0.000439102
0.000545865
0.000681268
0.000853112
0.00107141
0.00134904
0.00170255
0.00215323
0.00272848
0.00346279
0.00440166
0.00557311
0.00707067
0.00905026
0.0115864
0.0148159
0.0296054
0.0469381
0.064271
0.0813761
0.0980696
0.1142
0.129641
0.144281
0.158021
0.170767
0.182396
0.192883
0.202068
0.209878
0.216249
0.221156
0.224671
0.226989
0.228393
0.229183
0.229601
0.229809
0.229911
0.229959
0.229981
0.229992
0.229996
0.229998
0.229999
0.23
0.23
0.23
0.23
0.23
0.23
0.23
4.71551e-10
2.06152e-09
4.73823e-09
9.22895e-09
1.67233e-08
2.91428e-08
4.95456e-08
8.27158e-08
1.35992e-07
2.20372e-07
3.51903e-07
5.5325e-07
8.55214e-07
1.29771e-06
1.92952e-06
2.80603e-06
3.98454e-06
5.51746e-06
7.44483e-06
9.78835e-06
1.25485e-05
1.57051e-05
1.9221e-05
2.30464e-05
2.71233e-05
3.13897e-05
3.57819e-05
4.0237e-05
4.46944e-05
4.90982e-05
5.33996e-05
5.75642e-05
6.15853e-05
6.55077e-05
6.94563e-05
7.36555e-05
7.84438e-05
8.42887e-05
9.17572e-05
0.000101503
0.000114267
0.000130906
0.000152432
0.000180074
0.000215357
0.000260195
0.000317014
0.000388897
0.000479779
0.000594685
0.000740041
0.000924072
0.00115732
0.00145328
0.00182927
0.00230749
0.00291566
0.00369029
0.00467991
0.00590579
0.00752009
0.00958576
0.0122267
0.0155459
0.0323845
0.0497896
0.0671331
0.0842013
0.10082
0.116845
0.132154
0.146641
0.160209
0.172766
0.184201
0.194456
0.203423
0.210994
0.217118
0.221789
0.225097
0.227251
0.228543
0.229263
0.22964
0.229829
0.22992
0.229963
0.229983
0.229993
0.229997
0.229999
0.229999
0.23
0.23
0.23
0.23
0.23
0.23
0.23
4.80622e-10
2.10117e-09
4.82949e-09
9.40731e-09
1.70485e-08
2.97149e-08
5.05306e-08
8.43871e-08
1.38794e-07
2.25019e-07
3.5952e-07
5.65581e-07
8.74897e-07
1.32863e-06
1.97723e-06
2.8782e-06
4.09137e-06
5.67196e-06
7.66307e-06
1.00894e-05
1.29543e-05
1.62406e-05
1.99133e-05
2.3925e-05
2.82197e-05
3.27367e-05
3.74136e-05
4.21883e-05
4.70007e-05
5.17948e-05
5.65219e-05
6.11488e-05
6.56733e-05
7.0151e-05
7.47252e-05
7.96415e-05
8.52668e-05
9.21015e-05
0.000100747
0.000111892
0.000126322
0.000144946
0.000168843
0.000199329
0.000238039
0.000287026
0.000348889
0.000426936
0.000525383
0.000649622
0.000806558
0.00100505
0.00125648
0.00157552
0.00198108
0.00249755
0.00315645
0.00400107
0.00507713
0.00642583
0.00821964
0.0105346
0.013534
0.0173597
0.0347355
0.0522238
0.069584
0.0866207
0.103172
0.119101
0.134292
0.148639
0.162047
0.174421
0.185656
0.195714
0.204487
0.211892
0.217825
0.222303
0.22544
0.227461
0.228661
0.229325
0.229672
0.229844
0.229927
0.229967
0.229985
0.229993
0.229997
0.229999
0.229999
0.23
0.23
0.23
0.23
0.23
0.23
0.23
4.88485e-10
2.13555e-09
4.9086e-09
9.56199e-09
1.73307e-08
3.02117e-08
5.13872e-08
8.58431e-08
1.41241e-07
2.29087e-07
3.66209e-07
5.76449e-07
8.92316e-07
1.35612e-06
2.01986e-06
2.94301e-06
4.1878e-06
5.81225e-06
7.86241e-06
1.03661e-05
1.33299e-05
1.67394e-05
2.0563e-05
2.47558e-05
2.92646e-05
3.40313e-05
3.89959e-05
4.40987e-05
4.92817e-05
5.44909e-05
5.968e-05
6.48194e-05
6.99143e-05
7.50343e-05
8.03411e-05
8.60948e-05
9.26865e-05
0.000100645
0.000110602
0.000123283
0.000139516
0.000160269
0.000186695
0.000220205
0.000262549
0.000315931
0.000383134
0.000467704
0.000574158
0.000708279
0.00087748
0.00109129
0.00136198
0.00170543
0.00214221
0.00269881
0.00341165
0.00432554
0.00548295
0.00695195
0.00891628
0.0114656
0.0147901
0.0192431
0.0367374
0.0542789
0.0716436
0.0886484
0.10514
0.120988
0.13608
0.150313
0.163591
0.175827
0.186943
0.196847
0.205439
0.212636
0.218403
0.222719
0.225714
0.227627
0.228754
0.229374
0.229696
0.229856
0.229933
0.229969
0.229986
0.229994
0.229997
0.229999
0.229999
0.23
0.23
0.23
0.23
0.23
0.23
0.23
4.94985e-10
2.16396e-09
4.97402e-09
9.68992e-09
1.75642e-08
3.06232e-08
5.20976e-08
8.70527e-08
1.43278e-07
2.32482e-07
3.71811e-07
5.85582e-07
9.07011e-07
1.37941e-06
2.05613e-06
2.99843e-06
4.2707e-06
5.93348e-06
8.03562e-06
1.0608e-05
1.36601e-05
1.71808e-05
2.11416e-05
2.55009e-05
3.02089e-05
3.52109e-05
4.04507e-05
4.58723e-05
5.14218e-05
5.70497e-05
6.27153e-05
6.83962e-05
7.41093e-05
7.9942e-05
8.60722e-05
9.27616e-05
0.000100419
0.000109593
0.000120942
0.000135224
0.000153313
0.000176233
0.000205212
0.000241751
0.000287711
0.000345432
0.000417866
0.000508762
0.000622895
0.000766364
0.000946979
0.00117477
0.00146267
0.00182736
0.00229039
0.00288001
0.00363308
0.00459772
0.00580728
0.00735438
0.00942148
0.0121023
0.0155971
0.0209195
0.0384381
0.0559817
0.0733261
0.0902903
0.106723
0.122495
0.137496
0.151628
0.164802
0.176938
0.187951
0.197734
0.206193
0.21325
0.218857
0.223044
0.225928
0.227756
0.228826
0.229412
0.229715
0.229865
0.229937
0.229971
0.229987
0.229994
0.229997
0.229999
0.23
0.23
0.23
0.23
0.23
0.23
0.23
0.23
4.99984e-10
2.18582e-09
5.02435e-09
9.78838e-09
1.77441e-08
3.09404e-08
5.26457e-08
8.79875e-08
1.44855e-07
2.35119e-07
3.76172e-07
5.92717e-07
9.18534e-07
1.39774e-06
2.08481e-06
3.04244e-06
4.33682e-06
6.03061e-06
8.17506e-06
1.08036e-05
1.39285e-05
1.75415e-05
2.16172e-05
2.61172e-05
3.09952e-05
3.62006e-05
4.16813e-05
4.73864e-05
5.32677e-05
5.92828e-05
6.53992e-05
7.16066e-05
7.79389e-05
8.45076e-05
9.15033e-05
9.91741e-05
0.000107931
0.000118336
0.000131064
0.000146905
0.000166775
0.000191753
0.000223132
0.000262495
0.0003118
0.000373496
0.000450668
0.000547217
0.000668093
0.000819595
0.00100976
0.00124884
0.00154999
0.00193011
0.00241099
0.00302133
0.00379733
0.00478679
0.0060146
0.00758533
0.0096729
0.0123653
0.0158561
0.0221512
0.0397124
0.0572665
0.0745969
0.0915272
0.107912
0.123627
0.138568
0.152639
0.16575
0.177807
0.188724
0.198408
0.206763
0.213712
0.219211
0.223287
0.226086
0.227851
0.228879
0.22944
0.229728
0.229871
0.22994
0.229972
0.229988
0.229994
0.229998
0.229999
0.23
0.23
0.23
0.23
0.23
0.23
0.23
0.23
5.03368e-10
2.20062e-09
5.05841e-09
9.85501e-09
1.78658e-08
3.11551e-08
5.3017e-08
8.86211e-08
1.45926e-07
2.36911e-07
3.79144e-07
5.97592e-07
9.26431e-07
1.41035e-06
2.10461e-06
3.07293e-06
4.38282e-06
6.09847e-06
8.27287e-06
1.09414e-05
1.41184e-05
1.77978e-05
2.19567e-05
2.65594e-05
3.15626e-05
3.6919e-05
4.25809e-05
4.85019e-05
5.46399e-05
6.09594e-05
6.74375e-05
7.40767e-05
8.0929e-05
8.81265e-05
9.58974e-05
0.000104534
0.000114331
0.000125856
0.000139805
0.000156995
0.000178382
0.000205092
0.000238476
0.000280181
0.000332238
0.00039718
0.000478183
0.000579248
0.00070543
0.000863132
0.00106048
0.0013078
0.00161827
0.00200872
0.00250075
0.00312178
0.00390728
0.00490304
0.00612924
0.00768915
0.00974764
0.0123819
0.0157694
0.0229167
0.0405401
0.0581187
0.0754493
0.0923655
0.108727
0.124413
0.139316
0.153339
0.166394
0.178391
0.189245
0.198862
0.207146
0.214023
0.219449
0.223458
0.226195
0.227916
0.228915
0.229458
0.229738
0.229876
0.229942
0.229973
0.229988
0.229995
0.229998
0.229999
0.23
0.23
0.23
0.23
0.23
0.23
0.23
0.23
5.05048e-10
2.20795e-09
5.07526e-09
9.88788e-09
1.79256e-08
3.12603e-08
5.31984e-08
8.89298e-08
1.46446e-07
2.37781e-07
3.80585e-07
5.99955e-07
9.30261e-07
1.41647e-06
2.11423e-06
3.08779e-06
4.4053e-06
6.13172e-06
8.32098e-06
1.10094e-05
1.42125e-05
1.79255e-05
2.21267e-05
2.6782e-05
3.18498e-05
3.7285e-05
4.30422e-05
4.90782e-05
5.53545e-05
6.18403e-05
6.85191e-05
7.54017e-05
8.2551e-05
9.01215e-05
9.83738e-05
0.000107641
0.000118257
0.000130577
0.000145342
0.000163407
0.000185761
0.000213567
0.000248212
0.000291387
0.00034517
0.000412146
0.000495549
0.000599439
0.000728934
0.000890494
0.00109229
0.00134466
0.00166074
0.00205718
0.00255517
0.00318171
0.00397129
0.00496808
0.00619034
0.00773681
0.00976682
0.0123494
0.0156506
0.0232826
0.0409538
0.0585537
0.0758891
0.0927991
0.109146
0.124812
0.139692
0.15369
0.166716
0.178683
0.189505
0.199087
0.207336
0.214176
0.219565
0.22354
0.226249
0.227948
0.228933
0.229468
0.229742
0.229878
0.229943
0.229974
0.229988
0.229995
0.229998
0.229999
0.23
0.23
0.23
0.23
0.23
0.23
0.23
0.23
5.05036e-10
2.2079e-09
5.07513e-09
9.88759e-09
1.7925e-08
3.1259e-08
5.31958e-08
8.89246e-08
1.46435e-07
2.37759e-07
3.80543e-07
5.99875e-07
9.30113e-07
1.41621e-06
2.11378e-06
3.08704e-06
4.40411e-06
6.1299e-06
8.31831e-06
1.10056e-05
1.42074e-05
1.79189e-05
2.21183e-05
2.67717e-05
3.18377e-05
3.7271e-05
4.30265e-05
4.90609e-05
5.5336e-05
6.18211e-05
6.84996e-05
7.53824e-05
8.25325e-05
9.01041e-05
9.83581e-05
0.000107628
0.000118248
0.000130573
0.000145346
0.000163421
0.000185788
0.000213611
0.00024828
0.000291485
0.000345307
0.000412335
0.000495804
0.00059978
0.000729385
0.000891083
0.00109305
0.00134563
0.00166195
0.00205868
0.00255698
0.00318382
0.00397366
0.0049706
0.00619275
0.00773863
0.00976758
0.012349
0.0156507
0.0232873
0.040957
0.0585561
0.075891
0.0928007
0.109148
0.124814
0.139693
0.153691
0.166717
0.178684
0.189506
0.199088
0.207337
0.214177
0.219566
0.223541
0.22625
0.227948
0.228933
0.229468
0.229742
0.229878
0.229943
0.229974
0.229988
0.229995
0.229998
0.229999
0.23
0.23
0.23
0.23
0.23
0.23
0.23
0.23
5.03334e-10
2.20047e-09
5.05805e-09
9.85423e-09
1.78641e-08
3.11517e-08
5.30101e-08
8.86069e-08
1.45897e-07
2.36853e-07
3.79031e-07
5.97377e-07
9.26034e-07
1.40964e-06
2.10338e-06
3.07089e-06
4.37956e-06
6.09345e-06
8.26548e-06
1.09309e-05
1.41041e-05
1.77791e-05
2.1933e-05
2.65303e-05
3.15279e-05
3.68787e-05
4.25353e-05
4.84516e-05
5.45856e-05
6.09023e-05
6.7379e-05
7.40183e-05
8.08724e-05
8.80731e-05
9.58488e-05
0.000104492
0.0001143
0.00012584
0.000139807
0.000157023
0.000178444
0.000205199
0.000238643
0.000280426
0.000332587
0.000397663
0.000478842
0.000580133
0.000706604
0.00086467
0.00106247
0.00131034
0.00162146
0.00201264
0.00250546
0.00312726
0.00391337
0.0049094
0.00613527
0.00769346
0.0097491
0.0123805
0.0157703
0.0229308
0.04055
0.0581263
0.0754556
0.0923711
0.108732
0.124418
0.13932
0.153344
0.166398
0.178395
0.18925
0.198866
0.20715
0.214026
0.219452
0.223459
0.226196
0.227916
0.228915
0.229459
0.229738
0.229876
0.229942
0.229973
0.229988
0.229995
0.229998
0.229999
0.23
0.23
0.23
0.23
0.23
0.23
0.23
0.23
4.99933e-10
2.18559e-09
5.0238e-09
9.78723e-09
1.77417e-08
3.09356e-08
5.26358e-08
8.79671e-08
1.44813e-07
2.35035e-07
3.76007e-07
5.92401e-07
9.17947e-07
1.39669e-06
2.08298e-06
3.03938e-06
4.33191e-06
6.02304e-06
8.16386e-06
1.07877e-05
1.39067e-05
1.75129e-05
2.15807e-05
2.60723e-05
3.09415e-05
3.61379e-05
4.16101e-05
4.73073e-05
5.31819e-05
5.91916e-05
6.53047e-05
7.1511e-05
7.78449e-05
8.44175e-05
9.14196e-05
9.90996e-05
0.00010787
0.000118292
0.000131044
0.000146916
0.000166827
0.000191859
0.000223312
0.00026277
0.000312201
0.000374063
0.00045145
0.000548277
0.000669509
0.00082146
0.00101218
0.00125195
0.00155392
0.00193497
0.00241685
0.00302814
0.0038049
0.00479462
0.00602191
0.00759048
0.00967466
0.0123644
0.0158606
0.0221735
0.0397288
0.0572796
0.0746082
0.0915377
0.107921
0.123637
0.138578
0.152648
0.165759
0.177814
0.188731
0.198415
0.206769
0.213718
0.219215
0.22329
0.226089
0.227852
0.22888
0.22944
0.229729
0.229871
0.22994
0.229973
0.229988
0.229994
0.229998
0.229999
0.23
0.23
0.23
0.23
0.23
0.23
0.23
0.23
4.94918e-10
2.16367e-09
4.97333e-09
9.68848e-09
1.75613e-08
3.06174e-08
5.20857e-08
8.70282e-08
1.43228e-07
2.32381e-07
3.71611e-07
5.85197e-07
9.06291e-07
1.37811e-06
2.05386e-06
2.99462e-06
4.26454e-06
5.92392e-06
8.0214e-06
1.05876e-05
1.36321e-05
1.71438e-05
2.10943e-05
2.54424e-05
3.01386e-05
3.51286e-05
4.03568e-05
4.57675e-05
5.13074e-05
5.69275e-05
6.25874e-05
6.82653e-05
7.39783e-05
7.9814e-05
8.59496e-05
9.2647e-05
0.000100315
0.000109504
0.000120872
0.000135179
0.000153301
0.000176266
0.000205305
0.000241923
0.000287989
0.000345849
0.000418467
0.000509602
0.000624044
0.000767906
0.000949016
0.00117742
0.00146605
0.00183158
0.00229554
0.00288611
0.00363998
0.00460504
0.00581438
0.00736012
0.00942516
0.0121054
0.0156086
0.0209461
0.0384577
0.0559981
0.0733412
0.0903048
0.106737
0.122508
0.137509
0.151641
0.164815
0.17695
0.187963
0.197745
0.206203
0.213258
0.218863
0.223049
0.225931
0.227757
0.228827
0.229412
0.229715
0.229865
0.229937
0.229971
0.229987
0.229994
0.229997
0.229999
0.23
0.23
0.23
0.23
0.23
0.23
0.23
0.23
4.88404e-10
2.13519e-09
4.90779e-09
9.56034e-09
1.73275e-08
3.02053e-08
5.13743e-08
8.58169e-08
1.41187e-07
2.28978e-07
3.65993e-07
5.7603e-07
8.91527e-07
1.35468e-06
2.01733e-06
2.93873e-06
4.18085e-06
5.80139e-06
7.84615e-06
1.03427e-05
1.32976e-05
1.66965e-05
2.05078e-05
2.46872e-05
2.91818e-05
3.3934e-05
3.88845e-05
4.39738e-05
4.91447e-05
5.43435e-05
5.95246e-05
6.46586e-05
6.9751e-05
7.48712e-05
8.01805e-05
8.59382e-05
9.25354e-05
0.000100501
0.000110467
0.000123158
0.000139405
0.000160177
0.000186629
0.000220174
0.000262567
0.000316013
0.000383305
0.000467991
0.000574599
0.000708921
0.00087838
0.00109252
0.00136362
0.00170757
0.00214492
0.00270219
0.0034157
0.00433021
0.00548804
0.00695709
0.00892157
0.0114726
0.014805
0.019264
0.0367543
0.0542953
0.0716604
0.0886661
0.105159
0.121008
0.1361
0.150333
0.163611
0.175846
0.18696
0.196861
0.205451
0.212646
0.218411
0.222725
0.225718
0.227629
0.228755
0.229375
0.229696
0.229856
0.229933
0.229969
0.229986
0.229994
0.229997
0.229999
0.229999
0.23
0.23
0.23
0.23
0.23
0.23
0.23
4.80527e-10
2.10076e-09
4.82856e-09
9.40549e-09
1.70451e-08
2.97083e-08
5.05176e-08
8.43611e-08
1.38741e-07
2.24912e-07
3.59305e-07
5.6516e-07
8.74098e-07
1.32716e-06
1.97463e-06
2.87375e-06
4.08407e-06
5.66049e-06
7.64577e-06
1.00644e-05
1.29196e-05
1.61941e-05
1.98534e-05
2.38502e-05
2.8129e-05
3.26297e-05
3.72905e-05
4.20497e-05
4.6848e-05
5.16296e-05
5.63464e-05
6.09655e-05
6.54848e-05
6.99595e-05
7.45325e-05
7.94481e-05
8.50724e-05
9.19053e-05
0.000100547
0.000111687
0.00012611
0.000144724
0.000168609
0.000199081
0.000237776
0.000286745
0.00034859
0.000426615
0.000525038
0.000649251
0.000806157
0.00100461
0.00125601
0.00157501
0.00198053
0.00249689
0.00315576
0.00400025
0.00507621
0.00642495
0.00822066
0.0105401
0.0135466
0.0173727
0.0347509
0.052247
0.0696099
0.0866472
0.103198
0.119127
0.134316
0.148662
0.162069
0.174442
0.185677
0.195733
0.204503
0.211906
0.217836
0.22231
0.225444
0.227464
0.228663
0.229326
0.229672
0.229844
0.229927
0.229967
0.229985
0.229993
0.229997
0.229999
0.229999
0.23
0.23
0.23
0.23
0.23
0.23
0.23
4.71441e-10
2.06105e-09
4.73718e-09
9.22696e-09
1.67197e-08
2.91362e-08
4.95331e-08
8.26914e-08
1.35943e-07
2.20273e-07
3.51703e-07
5.52855e-07
8.54454e-07
1.2963e-06
1.92699e-06
2.80166e-06
3.97732e-06
5.50602e-06
7.42746e-06
9.76305e-06
1.25131e-05
1.56576e-05
1.91594e-05
2.29691e-05
2.70293e-05
3.12783e-05
3.56532e-05
4.00915e-05
4.45335e-05
4.89233e-05
5.32127e-05
5.73676e-05
6.13814e-05
6.52982e-05
6.92425e-05
7.34373e-05
7.82198e-05
8.4056e-05
9.1512e-05
0.00010124
0.00011398
0.000130587
0.000152071
0.00017966
0.000214875
0.000259628
0.000316337
0.00038808
0.000478783
0.000593457
0.000738516
0.000922173
0.00115495
0.00145035
0.0018257
0.00230324
0.00291078
0.00368515
0.00467521
0.00590282
0.007521
0.00959297
0.0122411
0.0155582
0.0324054
0.0498217
0.0671688
0.084237
0.100854
0.116878
0.132185
0.14667
0.160236
0.172793
0.184226
0.194481
0.203445
0.211011
0.217132
0.221799
0.225103
0.227255
0.228545
0.229264
0.229641
0.229829
0.22992
0.229963
0.229983
0.229993
0.229997
0.229999
0.229999
0.23
0.23
0.23
0.23
0.23
0.23
0.23
4.61308e-10
2.01675e-09
4.63529e-09
9.02795e-09
1.63572e-08
2.84995e-08
4.84388e-08
8.0839e-08
1.32846e-07
2.15154e-07
3.43342e-07
5.39375e-07
8.33033e-07
1.2628e-06
1.87556e-06
2.72429e-06
3.86344e-06
5.34225e-06
7.19753e-06
9.44784e-06
1.20908e-05
1.51042e-05
1.84488e-05
2.20738e-05
2.59207e-05
2.99272e-05
3.40302e-05
3.81678e-05
4.2281e-05
4.63154e-05
5.02242e-05
5.39736e-05
5.75547e-05
6.10031e-05
6.44264e-05
6.80245e-05
7.21039e-05
7.70952e-05
8.35281e-05
9.20189e-05
0.000103269
0.000118085
0.000137419
0.000162424
0.000194528
0.000235526
0.000287692
0.000353925
0.000437927
0.00054444
0.000679543
0.000851036
0.00106894
0.00134617
0.00169931
0.00214982
0.00272524
0.00346042
0.00440147
0.00557646
0.00707826
0.00906165
0.0115986
0.0148143
0.0296336
0.046973
0.0643086
0.0814142
0.0981073
0.114237
0.129676
0.144315
0.158053
0.170798
0.182424
0.192909
0.202091
0.209898
0.216265
0.221168
0.224679
0.226993
0.228396
0.229184
0.229601
0.22981
0.229911
0.229959
0.229981
0.229992
0.229996
0.229998
0.229999
0.23
0.23
0.23
0.23
0.23
0.23