/*--------------------------------*- C++ -*----------------------------------*\
  =========                 |
  \\      /  F ield         | OpenFOAM: The Open Source CFD Toolbox
   \\    /   O peration     | Website:  https://openfoam.org
    \\  /    A nd           | Version:  8
     \\/     M anipulation  |
\*---------------------------------------------------------------------------*/
FoamFile
{
    version     2.0;
    format      ascii;
    class       surfaceScalarField;
    location    "180/fluid";
    object      phi;
}
// * * * * * * * * * * * * * * * * * * * * * * * * * * * * * * * * * * * * * //

dimensions      [1 0 -1 0 0 0 0];

internalField   nonuniform List<scalar> 
7860
(
6.57472e-07
-1.70511e-08
6.55229e-07
-5.12287e-08
6.52035e-07
-8.52513e-08
6.47799e-07
-1.19016e-07
6.42413e-07
-1.52587e-07
6.35739e-07
-1.85978e-07
6.2762e-07
-2.19129e-07
6.17885e-07
-2.51927e-07
6.06356e-07
-2.84223e-07
5.92859e-07
-3.15825e-07
5.77228e-07
-3.46492e-07
5.59326e-07
-3.75918e-07
5.39068e-07
-4.03711e-07
5.1647e-07
-4.29388e-07
4.9174e-07
-4.52372e-07
4.65118e-07
-4.7198e-07
4.36936e-07
-4.87534e-07
4.07621e-07
-4.98481e-07
3.77669e-07
-5.04538e-07
3.47596e-07
-5.05788e-07
3.17882e-07
-5.02673e-07
2.88922e-07
-4.95905e-07
2.61013e-07
-4.86308e-07
2.34354e-07
-4.74685e-07
2.09091e-07
-4.6172e-07
1.85289e-07
-4.47947e-07
1.62929e-07
-4.33751e-07
1.41948e-07
-4.19412e-07
1.22264e-07
-4.05126e-07
1.03792e-07
-3.91035e-07
8.64455e-08
-3.77242e-07
7.01415e-08
-3.63826e-07
5.48022e-08
-3.5085e-07
4.03544e-08
-3.38362e-07
2.67292e-08
-3.26404e-07
1.38619e-08
-3.1501e-07
1.69082e-09
-3.04206e-07
-9.8353e-09
-2.94001e-07
-2.07617e-08
-2.84373e-07
-3.11372e-08
-2.75328e-07
-4.10086e-08
-2.6687e-07
-5.04198e-08
-2.58997e-07
-5.94118e-08
-2.51703e-07
-6.8023e-08
-2.44979e-07
-7.6289e-08
-2.38813e-07
-8.42432e-08
-2.33191e-07
-9.19163e-08
-2.28099e-07
-9.9337e-08
-2.23521e-07
-1.06531e-07
-2.19442e-07
-1.13523e-07
-2.15844e-07
-1.20335e-07
-2.12713e-07
-1.26986e-07
-2.10034e-07
-1.33495e-07
-2.07792e-07
-1.39877e-07
-2.05975e-07
-1.46149e-07
-2.04568e-07
-1.52322e-07
-2.03562e-07
-1.5841e-07
-2.02946e-07
-1.64425e-07
-2.02715e-07
-1.70382e-07
-2.02864e-07
-1.76296e-07
-2.03394e-07
-1.82188e-07
-2.04311e-07
-1.88085e-07
-2.0563e-07
-1.94022e-07
-2.07408e-07
-2.00051e-07
-2.09625e-07
-2.0627e-07
-2.12413e-07
-2.12953e-07
-2.15922e-07
-2.17013e-07
-2.20153e-07
-2.29104e-07
-2.32837e-07
-2.38813e-07
-2.50249e-07
-2.49858e-07
-2.69459e-07
-2.62082e-07
-2.90454e-07
-2.75617e-07
-3.13326e-07
-2.90691e-07
-3.38202e-07
-3.0759e-07
-3.65219e-07
-3.26674e-07
-3.94516e-07
-3.48406e-07
-4.26234e-07
-3.73388e-07
-4.60501e-07
-4.02376e-07
-4.97524e-07
-4.36328e-07
-5.37536e-07
-4.76335e-07
-5.80086e-07
-5.23372e-07
-6.23624e-07
-5.77615e-07
-6.64962e-07
-6.38429e-07
-6.98706e-07
-7.04186e-07
-7.18304e-07
-7.71882e-07
-7.19321e-07
-8.37834e-07
-7.02164e-07
-8.98997e-07
-6.71028e-07
-9.5364e-07
-6.30891e-07
-1.00118e-06
-5.85539e-07
-1.04158e-06
-5.37133e-07
-1.07495e-06
-4.86867e-07
-1.10212e-06
-4.35385e-07
-1.12398e-06
-3.83284e-07
-1.14133e-06
-3.31072e-07
-1.15491e-06
-2.79136e-07
-1.16533e-06
-2.27708e-07
-1.17311e-06
-1.76785e-07
-1.17865e-06
-1.26068e-07
-1.18227e-06
-7.5234e-08
-2.4757e-08
6.58009e-07
-1.65265e-08
6.56216e-07
-4.94359e-08
6.53087e-07
-8.21216e-08
6.48619e-07
-1.14548e-07
6.42755e-07
-1.46724e-07
6.35408e-07
-1.78631e-07
6.26473e-07
-2.10194e-07
6.15844e-07
-2.41298e-07
6.03418e-07
-2.71796e-07
5.89107e-07
-3.01514e-07
5.72848e-07
-3.30232e-07
5.54606e-07
-3.57674e-07
5.34388e-07
-3.83489e-07
5.12256e-07
-4.0725e-07
4.88353e-07
-4.28458e-07
4.62862e-07
-4.46471e-07
4.36033e-07
-4.60677e-07
4.08193e-07
-4.70599e-07
3.79726e-07
-4.76014e-07
3.51044e-07
-4.77029e-07
3.2254e-07
-4.74073e-07
2.94556e-07
-4.67806e-07
2.67361e-07
-4.5898e-07
2.41148e-07
-4.48324e-07
2.16056e-07
-4.36467e-07
1.92166e-07
-4.23887e-07
1.69505e-07
-4.10914e-07
1.48065e-07
-3.97793e-07
1.27817e-07
-3.84696e-07
1.08716e-07
-3.71752e-07
9.07086e-08
-3.59055e-07
7.37377e-08
-3.46679e-07
5.77426e-08
-3.34682e-07
4.26616e-08
-3.23113e-07
2.84331e-08
-3.12013e-07
1.49963e-08
-3.01417e-07
2.29152e-09
-2.91351e-07
-9.73523e-09
-2.81826e-07
-2.11325e-08
-2.72823e-07
-3.19507e-08
-2.64351e-07
-4.22388e-08
-2.56417e-07
-5.20434e-08
-2.49022e-07
-6.14085e-08
-2.42162e-07
-7.03756e-08
-2.35831e-07
-7.89838e-08
-2.30019e-07
-8.72695e-08
-2.24715e-07
-9.52669e-08
-2.19907e-07
-1.03008e-07
-2.15581e-07
-1.10522e-07
-2.11724e-07
-1.17836e-07
-2.08322e-07
-1.24977e-07
-2.05361e-07
-1.31967e-07
-2.02829e-07
-1.3883e-07
-2.00712e-07
-1.45585e-07
-1.98999e-07
-1.52252e-07
-1.97679e-07
-1.58851e-07
-1.9674e-07
-1.65399e-07
-1.96174e-07
-1.71918e-07
-1.95973e-07
-1.78428e-07
-1.96132e-07
-1.84955e-07
-1.96647e-07
-1.91531e-07
-1.97518e-07
-1.98191e-07
-1.98758e-07
-2.04992e-07
-2.00397e-07
-2.11999e-07
-2.02395e-07
-2.19366e-07
-2.04794e-07
-2.27439e-07
-2.07529e-07
-2.32661e-07
-2.106e-07
-2.44079e-07
-2.24736e-07
-2.54303e-07
-2.41239e-07
-2.65935e-07
-2.59308e-07
-2.79044e-07
-2.79116e-07
-2.93746e-07
-3.00717e-07
-3.10248e-07
-3.24163e-07
-3.28822e-07
-3.49533e-07
-3.49802e-07
-3.76918e-07
-3.73588e-07
-4.06407e-07
-4.00638e-07
-4.38077e-07
-4.31425e-07
-4.72144e-07
-4.66511e-07
-5.08717e-07
-5.06498e-07
-5.47192e-07
-5.51858e-07
-5.85963e-07
-6.02623e-07
-6.21993e-07
-6.58249e-07
-6.50185e-07
-7.17352e-07
-6.64831e-07
-7.77595e-07
-6.62897e-07
-8.36341e-07
-6.45662e-07
-8.91522e-07
-6.17014e-07
-9.41947e-07
-5.81033e-07
-9.87144e-07
-5.40605e-07
-1.02697e-06
-4.97424e-07
-1.0614e-06
-4.52486e-07
-1.09067e-06
-4.06142e-07
-1.1151e-06
-3.58858e-07
-1.13511e-06
-3.11066e-07
-1.15113e-06
-2.6312e-07
-1.16358e-06
-2.1526e-07
-1.17283e-06
-1.67538e-07
-1.17916e-06
-1.1974e-07
-1.18273e-06
-7.16588e-08
-2.36669e-08
6.57754e-07
-1.57471e-08
6.55492e-07
-4.71734e-08
6.51751e-07
-7.83809e-08
6.465e-07
-1.09296e-07
6.39696e-07
-1.3992e-07
6.31292e-07
-1.70226e-07
6.21234e-07
-2.00137e-07
6.09478e-07
-2.29541e-07
5.9599e-07
-2.58308e-07
5.80754e-07
-2.86278e-07
5.63777e-07
-3.13254e-07
5.45094e-07
-3.38989e-07
5.24765e-07
-3.63157e-07
5.02869e-07
-3.85347e-07
4.79481e-07
-4.05059e-07
4.54761e-07
-4.21733e-07
4.28939e-07
-4.34827e-07
4.02302e-07
-4.43921e-07
3.75179e-07
-4.48834e-07
3.47907e-07
-4.49683e-07
3.2081e-07
-4.46883e-07
2.94162e-07
-4.41048e-07
2.68184e-07
-4.32875e-07
2.43029e-07
-4.23027e-07
2.18782e-07
-4.12068e-07
1.95488e-07
-4.00433e-07
1.73182e-07
-3.88442e-07
1.5188e-07
-3.76321e-07
1.31584e-07
-3.64228e-07
1.12281e-07
-3.52278e-07
9.39485e-08
-3.40553e-07
7.65564e-08
-3.29119e-07
6.00667e-08
-3.18029e-07
4.4437e-08
-3.07325e-07
2.96218e-08
-2.97045e-07
1.5573e-08
-2.87221e-07
2.2417e-09
-2.77879e-07
-1.04189e-08
-2.69026e-07
-2.24511e-08
-2.60646e-07
-3.39008e-08
-2.52751e-07
-4.48141e-08
-2.45347e-07
-5.52356e-08
-2.38438e-07
-6.52088e-08
-2.32021e-07
-7.4775e-08
-2.26091e-07
-8.3974e-08
-2.20641e-07
-9.28435e-08
-2.15661e-07
-1.01419e-07
-2.11141e-07
-1.09735e-07
-2.0707e-07
-1.17824e-07
-2.03436e-07
-1.25715e-07
-2.00227e-07
-1.33438e-07
-1.9743e-07
-1.41021e-07
-1.95035e-07
-1.4849e-07
-1.9303e-07
-1.5587e-07
-1.91403e-07
-1.63187e-07
-1.90144e-07
-1.70465e-07
-1.89244e-07
-1.77729e-07
-1.88693e-07
-1.85005e-07
-1.88484e-07
-1.92317e-07
-1.88612e-07
-1.99692e-07
-1.89073e-07
-2.07158e-07
-1.8987e-07
-2.1473e-07
-1.91035e-07
-2.22448e-07
-1.92568e-07
-2.30333e-07
-1.94477e-07
-2.3837e-07
-1.96851e-07
-2.4649e-07
-1.99725e-07
-2.6148e-07
-2.03443e-07
-2.70544e-07
-2.171e-07
-2.80875e-07
-2.32384e-07
-2.9265e-07
-2.49219e-07
-3.06029e-07
-2.67683e-07
-3.21169e-07
-2.87831e-07
-3.38241e-07
-3.09709e-07
-3.57443e-07
-3.33375e-07
-3.78999e-07
-3.58905e-07
-4.03149e-07
-3.86376e-07
-4.3011e-07
-4.15899e-07
-4.60048e-07
-4.47747e-07
-4.93187e-07
-4.81907e-07
-5.2979e-07
-5.17603e-07
-5.70213e-07
-5.52929e-07
-6.15045e-07
-5.84356e-07
-6.64516e-07
-6.06975e-07
-7.17718e-07
-6.16369e-07
-7.72601e-07
-6.11116e-07
-8.26774e-07
-5.93272e-07
-8.78353e-07
-5.66356e-07
-9.26233e-07
-5.336e-07
-9.69928e-07
-4.97118e-07
-1.00933e-06
-4.58118e-07
-1.04454e-06
-4.1732e-07
-1.07549e-06
-3.75205e-07
-1.1022e-06
-3.32155e-07
-1.12477e-06
-2.88498e-07
-1.14338e-06
-2.44515e-07
-1.15823e-06
-2.00408e-07
-1.16954e-06
-1.56228e-07
-1.17749e-06
-1.11793e-07
-1.18223e-06
-6.69207e-08
-2.20718e-08
6.57757e-07
-1.49705e-08
6.55402e-07
-4.48184e-08
6.5146e-07
-7.44392e-08
6.45925e-07
-1.03761e-07
6.38781e-07
-1.32776e-07
6.30008e-07
-1.61454e-07
6.19588e-07
-1.89717e-07
6.07505e-07
-2.17458e-07
5.93749e-07
-2.44551e-07
5.78319e-07
-2.70847e-07
5.61228e-07
-2.96162e-07
5.42503e-07
-3.20261e-07
5.22193e-07
-3.42844e-07
5.00379e-07
-3.63526e-07
4.77179e-07
-3.81847e-07
4.52758e-07
-3.97294e-07
4.27333e-07
-4.09374e-07
4.01162e-07
-4.17712e-07
3.74539e-07
-4.22156e-07
3.47762e-07
-4.22836e-07
3.21117e-07
-4.20151e-07
2.94856e-07
-4.14682e-07
2.69177e-07
-4.07077e-07
2.44231e-07
-3.97949e-07
2.20118e-07
-3.87812e-07
1.969e-07
-3.77064e-07
1.74609e-07
-3.65996e-07
1.53259e-07
-3.54811e-07
1.32847e-07
-3.43655e-07
1.13358e-07
-3.32629e-07
9.47712e-08
-3.21808e-07
7.70598e-08
-3.11252e-07
6.01912e-08
-3.01008e-07
4.41296e-08
-2.91115e-07
2.88362e-08
-2.81609e-07
1.42701e-08
-2.72518e-07
3.88912e-10
-2.63868e-07
-1.2848e-08
-2.55659e-07
-2.54765e-08
-2.47881e-07
-3.75386e-08
-2.40546e-07
-4.90761e-08
-2.33661e-07
-6.01308e-08
-2.27228e-07
-7.07434e-08
-2.21247e-07
-8.09537e-08
-2.15713e-07
-9.08001e-08
-2.10621e-07
-1.0032e-07
-2.05962e-07
-1.09549e-07
-2.01727e-07
-1.18522e-07
-1.97907e-07
-1.27272e-07
-1.94491e-07
-1.35831e-07
-1.91468e-07
-1.4423e-07
-1.88827e-07
-1.52499e-07
-1.86558e-07
-1.60667e-07
-1.84651e-07
-1.68762e-07
-1.83094e-07
-1.76815e-07
-1.81877e-07
-1.84852e-07
-1.80991e-07
-1.92905e-07
-1.80427e-07
-2.01002e-07
-1.80177e-07
-2.09176e-07
-1.80234e-07
-2.17459e-07
-1.80596e-07
-2.25887e-07
-1.81264e-07
-2.34493e-07
-1.82283e-07
-2.43342e-07
-1.83612e-07
-2.52456e-07
-1.85308e-07
-2.61777e-07
-1.87573e-07
-2.71159e-07
-1.90687e-07
-2.88461e-07
-1.96853e-07
-2.97686e-07
-2.09195e-07
-3.08434e-07
-2.23158e-07
-3.20663e-07
-2.38749e-07
-3.34468e-07
-2.55912e-07
-3.50002e-07
-2.74653e-07
-3.67425e-07
-2.95015e-07
-3.86907e-07
-3.17055e-07
-4.08634e-07
-3.40841e-07
-4.32803e-07
-3.66446e-07
-4.59572e-07
-3.94027e-07
-4.89122e-07
-4.23825e-07
-5.21738e-07
-4.55629e-07
-5.57767e-07
-4.88459e-07
-5.97584e-07
-5.20168e-07
-6.41432e-07
-5.47127e-07
-6.89042e-07
-5.64868e-07
-7.39307e-07
-5.70076e-07
-7.90456e-07
-5.62462e-07
-8.40685e-07
-5.44436e-07
-8.88636e-07
-5.19114e-07
-9.33475e-07
-4.89103e-07
-9.74753e-07
-4.55999e-07
-1.01226e-06
-4.20687e-07
-1.04591e-06
-3.83697e-07
-1.07572e-06
-3.45411e-07
-1.10172e-06
-3.0616e-07
-1.12398e-06
-2.66241e-07
-1.14258e-06
-2.25911e-07
-1.15763e-06
-1.85363e-07
-1.1692e-06
-1.44653e-07
-1.17739e-06
-1.03612e-07
-1.18223e-06
-6.20738e-08
-2.04833e-08
6.57691e-07
-1.4128e-08
6.55179e-07
-4.23064e-08
6.51004e-07
-7.02643e-08
6.45167e-07
-9.79234e-08
6.37664e-07
-1.25273e-07
6.28492e-07
-1.52282e-07
6.17651e-07
-1.78875e-07
6.05143e-07
-2.0495e-07
5.9098e-07
-2.30388e-07
5.75182e-07
-2.55049e-07
5.57783e-07
-2.78762e-07
5.38832e-07
-3.01308e-07
5.18398e-07
-3.22406e-07
4.96575e-07
-3.41697e-07
4.73489e-07
-3.58751e-07
4.49301e-07
-3.73089e-07
4.24212e-07
-3.8426e-07
3.9846e-07
-3.91923e-07
3.72306e-07
-3.95952e-07
3.46019e-07
-3.96483e-07
3.19851e-07
-3.93901e-07
2.94024e-07
-3.88758e-07
2.68718e-07
-3.81659e-07
2.44065e-07
-3.73173e-07
2.20161e-07
-3.63775e-07
1.97066e-07
-3.53829e-07
1.74815e-07
-3.436e-07
1.53424e-07
-3.33272e-07
1.32896e-07
-3.22977e-07
1.13222e-07
-3.12806e-07
9.43858e-08
-3.02825e-07
7.63662e-08
-2.93088e-07
5.91361e-08
-2.83637e-07
4.26648e-08
-2.74508e-07
2.69185e-08
-2.65732e-07
1.18614e-08
-2.57336e-07
-2.54389e-09
-2.49343e-07
-1.63321e-08
-2.41749e-07
-2.95361e-08
-2.34549e-07
-4.2194e-08
-2.27753e-07
-5.43444e-08
-2.21369e-07
-6.6026e-08
-2.15398e-07
-7.7277e-08
-2.09841e-07
-8.81352e-08
-2.04694e-07
-9.86376e-08
-1.99951e-07
-1.0882e-07
-1.95605e-07
-1.18718e-07
-1.91649e-07
-1.28366e-07
-1.88073e-07
-1.37797e-07
-1.84869e-07
-1.47043e-07
-1.82025e-07
-1.56136e-07
-1.79533e-07
-1.65107e-07
-1.77382e-07
-1.73987e-07
-1.75562e-07
-1.82807e-07
-1.74063e-07
-1.91598e-07
-1.72875e-07
-2.0039e-07
-1.71987e-07
-2.09218e-07
-1.7139e-07
-2.18115e-07
-1.71074e-07
-2.27118e-07
-1.7103e-07
-2.36269e-07
-1.71251e-07
-2.45613e-07
-1.71736e-07
-2.5521e-07
-1.72505e-07
-2.65145e-07
-1.73487e-07
-2.75523e-07
-1.74715e-07
-2.8658e-07
-1.76199e-07
-2.95825e-07
-1.78031e-07
-3.10595e-07
-1.87641e-07
-3.21573e-07
-1.99519e-07
-3.33591e-07
-2.12691e-07
-3.46842e-07
-2.27314e-07
-3.6149e-07
-2.43373e-07
-3.77703e-07
-2.60879e-07
-3.95657e-07
-2.79881e-07
-4.15525e-07
-3.00445e-07
-4.37478e-07
-3.22645e-07
-4.61681e-07
-3.46567e-07
-4.88247e-07
-3.72431e-07
-5.17336e-07
-4.00389e-07
-5.49178e-07
-4.30055e-07
-5.84046e-07
-4.60256e-07
-6.22226e-07
-4.88615e-07
-6.63872e-07
-5.11457e-07
-7.08684e-07
-5.24808e-07
-7.55655e-07
-5.26392e-07
-8.03283e-07
-5.16831e-07
-8.50108e-07
-4.98702e-07
-8.95043e-07
-4.74729e-07
-9.37406e-07
-4.47005e-07
-9.76792e-07
-4.16735e-07
-1.01296e-06
-3.84578e-07
-1.04574e-06
-3.50936e-07
-1.07505e-06
-3.16114e-07
-1.10083e-06
-2.80385e-07
-1.12307e-06
-2.44003e-07
-1.14179e-06
-2.07194e-07
-1.15702e-06
-1.70131e-07
-1.16881e-06
-1.32866e-07
-1.17718e-06
-9.524e-08
-1.18217e-06
-5.70832e-08
-1.88306e-08
6.57673e-07
-1.32675e-08
6.55092e-07
-3.97252e-08
6.50797e-07
-6.59695e-08
6.44798e-07
-9.19242e-08
6.37102e-07
-1.17577e-07
6.27716e-07
-1.42897e-07
6.16652e-07
-1.67811e-07
6.03923e-07
-1.92222e-07
5.89553e-07
-2.16017e-07
5.73569e-07
-2.39066e-07
5.56014e-07
-2.61205e-07
5.36941e-07
-2.82233e-07
5.16421e-07
-3.01883e-07
4.94552e-07
-3.19822e-07
4.71458e-07
-3.35647e-07
4.47302e-07
-3.48918e-07
4.22282e-07
-3.59216e-07
3.96631e-07
-3.66238e-07
3.70603e-07
-3.69877e-07
3.44457e-07
-3.70276e-07
3.18434e-07
-3.67803e-07
2.92745e-07
-3.62979e-07
2.67557e-07
-3.56368e-07
2.42995e-07
-3.48498e-07
2.19146e-07
-3.39803e-07
1.96065e-07
-3.30618e-07
1.73782e-07
-3.21183e-07
1.52311e-07
-3.11666e-07
1.31655e-07
-3.02183e-07
1.11803e-07
-2.92818e-07
9.27422e-08
-2.83629e-07
7.44507e-08
-2.74665e-07
5.69044e-08
-2.65962e-07
4.00752e-08
-2.57555e-07
2.39325e-08
-2.4947e-07
8.44317e-09
-2.41733e-07
-6.42521e-09
-2.34365e-07
-2.07039e-08
-2.27358e-07
-3.44237e-08
-2.20709e-07
-4.76197e-08
-2.1443e-07
-6.03276e-08
-2.08527e-07
-7.25834e-08
-2.03001e-07
-8.44229e-08
-1.97853e-07
-9.58818e-08
-1.9308e-07
-1.06995e-07
-1.88675e-07
-1.17798e-07
-1.84634e-07
-1.28323e-07
-1.80949e-07
-1.38605e-07
-1.7761e-07
-1.48676e-07
-1.74611e-07
-1.58568e-07
-1.71941e-07
-1.68312e-07
-1.69592e-07
-1.77939e-07
-1.67554e-07
-1.87479e-07
-1.65817e-07
-1.96964e-07
-1.64371e-07
-2.06423e-07
-1.63208e-07
-2.15885e-07
-1.62317e-07
-2.25381e-07
-1.61688e-07
-2.34939e-07
-1.61315e-07
-2.44588e-07
-1.61191e-07
-2.54352e-07
-1.61313e-07
-2.64243e-07
-1.61702e-07
-2.74284e-07
-1.62361e-07
-2.84467e-07
-1.63264e-07
-2.94777e-07
-1.64475e-07
-3.05258e-07
-1.65973e-07
-3.21805e-07
-1.67861e-07
-3.33182e-07
-1.77996e-07
-3.44871e-07
-1.89303e-07
-3.57512e-07
-2.01722e-07
-3.71351e-07
-2.15385e-07
-3.86562e-07
-2.30353e-07
-4.03288e-07
-2.4667e-07
-4.21677e-07
-2.64386e-07
-4.41883e-07
-2.83566e-07
-4.64062e-07
-3.04285e-07
-4.88351e-07
-3.26653e-07
-5.14869e-07
-3.50913e-07
-5.43801e-07
-3.77081e-07
-5.75387e-07
-4.04609e-07
-6.09902e-07
-4.32125e-07
-6.47593e-07
-4.5708e-07
-6.8848e-07
-4.75912e-07
-7.32051e-07
-4.85309e-07
-7.77169e-07
-4.83985e-07
-8.22422e-07
-4.73176e-07
-8.66592e-07
-4.55387e-07
-9.0883e-07
-4.32918e-07
-9.4863e-07
-4.0741e-07
-9.8569e-07
-3.79771e-07
-1.01981e-06
-3.50496e-07
-1.05087e-06
-3.19899e-07
-1.07876e-06
-2.88231e-07
-1.10342e-06
-2.5573e-07
-1.1248e-06
-2.22622e-07
-1.14289e-06
-1.89107e-07
-1.15768e-06
-1.55343e-07
-1.16917e-06
-1.2138e-07
-1.17734e-06
-8.70617e-08
-1.18222e-06
-5.22109e-08
-1.72259e-08
6.57649e-07
-1.23829e-08
6.55002e-07
-3.70781e-08
6.50603e-07
-6.15705e-08
6.44465e-07
-8.57861e-08
6.36601e-07
-1.09713e-07
6.27024e-07
-1.3332e-07
6.15752e-07
-1.56539e-07
6.02808e-07
-1.79278e-07
5.88222e-07
-2.01431e-07
5.72031e-07
-2.22874e-07
5.54284e-07
-2.43458e-07
5.35043e-07
-2.6299e-07
5.14388e-07
-2.81224e-07
4.92419e-07
-2.97849e-07
4.69268e-07
-3.12488e-07
4.45097e-07
-3.24733e-07
4.20103e-07
-3.34201e-07
3.94512e-07
-3.40617e-07
3.6857e-07
-3.43893e-07
3.42523e-07
-3.44173e-07
3.166e-07
-3.41812e-07
2.91001e-07
-3.37298e-07
2.65883e-07
-3.31157e-07
2.41364e-07
-3.23874e-07
2.17524e-07
-3.15851e-07
1.94416e-07
-3.07391e-07
1.72068e-07
-2.98712e-07
1.50492e-07
-2.89966e-07
1.29691e-07
-2.81256e-07
1.09656e-07
-2.72657e-07
9.03717e-08
-2.64222e-07
7.18203e-08
-2.55993e-07
5.39783e-08
-2.48003e-07
3.68196e-08
-2.40283e-07
2.03153e-08
-2.32858e-07
4.43461e-09
-2.25751e-07
-1.08503e-08
-2.18979e-07
-2.55688e-08
-2.12533e-07
-3.97507e-08
-2.06414e-07
-5.34286e-08
-2.00632e-07
-6.66358e-08
-1.95192e-07
-7.94061e-08
-1.90096e-07
-9.17735e-08
-1.85344e-07
-1.03772e-07
-1.80933e-07
-1.15434e-07
-1.76857e-07
-1.26793e-07
-1.73112e-07
-1.37881e-07
-1.69691e-07
-1.48731e-07
-1.66585e-07
-1.59373e-07
-1.63787e-07
-1.69838e-07
-1.61288e-07
-1.80156e-07
-1.59081e-07
-1.90358e-07
-1.57155e-07
-2.00471e-07
-1.55502e-07
-2.10525e-07
-1.54113e-07
-2.20549e-07
-1.52979e-07
-2.3057e-07
-1.5209e-07
-2.40619e-07
-1.51438e-07
-2.50722e-07
-1.51016e-07
-2.60909e-07
-1.50817e-07
-2.7121e-07
-1.50842e-07
-2.81648e-07
-1.5113e-07
-2.92278e-07
-1.5164e-07
-3.03095e-07
-1.52419e-07
-3.14017e-07
-1.53637e-07
-3.24871e-07
-1.55528e-07
-3.44131e-07
-1.59586e-07
-3.54864e-07
-1.68584e-07
-3.66828e-07
-1.78834e-07
-3.79914e-07
-1.90338e-07
-3.94214e-07
-2.0303e-07
-4.09868e-07
-2.16926e-07
-4.27013e-07
-2.32077e-07
-4.45787e-07
-2.4854e-07
-4.6633e-07
-2.66379e-07
-4.88786e-07
-2.85667e-07
-5.13273e-07
-3.06552e-07
-5.39921e-07
-3.29245e-07
-5.68917e-07
-3.53625e-07
-6.00471e-07
-3.79006e-07
-6.34791e-07
-4.03852e-07
-6.72002e-07
-4.25523e-07
-7.11947e-07
-4.40694e-07
-7.53975e-07
-4.46747e-07
-7.96986e-07
-4.43202e-07
-8.39792e-07
-4.31653e-07
-8.81433e-07
-4.14416e-07
-9.21255e-07
-3.9343e-07
-9.58848e-07
-3.69976e-07
-9.93948e-07
-3.44744e-07
-1.02637e-06
-3.18112e-07
-1.05596e-06
-2.90322e-07
-1.08261e-06
-2.61583e-07
-1.10624e-06
-2.32102e-07
-1.12679e-06
-2.02076e-07
-1.14422e-06
-1.71683e-07
-1.15849e-06
-1.41065e-07
-1.16961e-06
-1.10267e-07
-1.17753e-06
-7.91353e-08
-1.18226e-06
-4.74818e-08
-1.56668e-08
6.57635e-07
-1.14845e-08
6.54944e-07
-3.43866e-08
6.50471e-07
-5.70978e-08
6.44233e-07
-7.95481e-08
6.36246e-07
-1.01726e-07
6.26528e-07
-1.23602e-07
6.15102e-07
-1.45112e-07
6.01994e-07
-1.6617e-07
5.87239e-07
-1.86676e-07
5.70881e-07
-2.06516e-07
5.52971e-07
-2.25548e-07
5.33576e-07
-2.43594e-07
5.12778e-07
-2.60425e-07
4.90684e-07
-2.7575e-07
4.67425e-07
-2.89221e-07
4.43166e-07
-3.00463e-07
4.18107e-07
-3.09124e-07
3.92473e-07
-3.14956e-07
3.66507e-07
-3.17889e-07
3.40452e-07
-3.18068e-07
3.14531e-07
-3.15829e-07
2.88934e-07
-3.11627e-07
2.63812e-07
-3.0595e-07
2.39276e-07
-2.99243e-07
2.154e-07
-2.91873e-07
1.92232e-07
-2.84115e-07
1.69798e-07
-2.76166e-07
1.48108e-07
-2.68161e-07
1.27161e-07
-2.60195e-07
1.0695e-07
-2.52331e-07
8.74598e-08
-2.44619e-07
6.86722e-08
-2.37096e-07
5.05651e-08
-2.2979e-07
3.31136e-08
-2.2273e-07
1.62904e-08
-2.15939e-07
6.64163e-11
-2.09436e-07
-1.55848e-08
-2.03237e-07
-3.06881e-08
-1.97332e-07
-4.52731e-08
-1.91724e-07
-5.93709e-08
-1.86421e-07
-7.30131e-08
-1.81429e-07
-8.62316e-08
-1.7675e-07
-9.90585e-08
-1.72382e-07
-1.11526e-07
-1.68323e-07
-1.23665e-07
-1.64568e-07
-1.35508e-07
-1.61112e-07
-1.47085e-07
-1.57949e-07
-1.58426e-07
-1.55072e-07
-1.69563e-07
-1.52473e-07
-1.80523e-07
-1.50145e-07
-1.91336e-07
-1.48079e-07
-2.02031e-07
-1.46267e-07
-2.12635e-07
-1.44701e-07
-2.23177e-07
-1.43372e-07
-2.33684e-07
-1.4227e-07
-2.44184e-07
-1.41388e-07
-2.54707e-07
-1.40716e-07
-2.65281e-07
-1.40245e-07
-2.75939e-07
-1.39968e-07
-2.86717e-07
-1.39878e-07
-2.97664e-07
-1.4e-07
-3.08861e-07
-1.40251e-07
-3.20394e-07
-1.40671e-07
-3.32385e-07
-1.4135e-07
-3.42771e-07
-1.42472e-07
-3.59335e-07
-1.49173e-07
-3.71445e-07
-1.5775e-07
-3.84396e-07
-1.67362e-07
-3.98345e-07
-1.78089e-07
-4.13424e-07
-1.89899e-07
-4.29775e-07
-2.02808e-07
-4.4754e-07
-2.16869e-07
-4.66868e-07
-2.32142e-07
-4.87902e-07
-2.48695e-07
-5.10787e-07
-2.66603e-07
-5.35643e-07
-2.86049e-07
-5.62618e-07
-3.07176e-07
-5.91899e-07
-3.29744e-07
-6.23667e-07
-3.52947e-07
-6.58069e-07
-3.7512e-07
-6.95106e-07
-3.93631e-07
-7.34454e-07
-4.05498e-07
-7.75342e-07
-4.08797e-07
-8.16702e-07
-4.03676e-07
-8.5751e-07
-3.91879e-07
-8.96997e-07
-3.75463e-07
-9.3466e-07
-3.56031e-07
-9.70184e-07
-3.34577e-07
-1.00336e-06
-3.11629e-07
-1.03402e-06
-2.87474e-07
-1.06205e-06
-2.62307e-07
-1.08733e-06
-2.36306e-07
-1.10978e-06
-2.09652e-07
-1.12934e-06
-1.82521e-07
-1.14595e-06
-1.55072e-07
-1.15959e-06
-1.27431e-07
-1.17021e-06
-9.96402e-08
-1.1778e-06
-7.15462e-08
-1.18233e-06
-4.29528e-08
-1.41762e-08
6.57622e-07
-1.05726e-08
6.54891e-07
-3.16558e-08
6.50354e-07
-5.2561e-08
6.44029e-07
-7.32231e-08
6.35935e-07
-9.36311e-08
6.26091e-07
-1.13758e-07
6.14523e-07
-1.33544e-07
6.01261e-07
-1.52909e-07
5.86345e-07
-1.7176e-07
5.69819e-07
-1.8999e-07
5.51742e-07
-2.0747e-07
5.32182e-07
-2.24033e-07
5.11227e-07
-2.39468e-07
4.88985e-07
-2.53505e-07
4.65595e-07
-2.65825e-07
4.41223e-07
-2.76082e-07
4.16071e-07
-2.83956e-07
3.90364e-07
-2.89226e-07
3.64344e-07
-2.91836e-07
3.38249e-07
-2.91929e-07
3.12297e-07
-2.89821e-07
2.86671e-07
-2.85934e-07
2.61516e-07
-2.80717e-07
2.36936e-07
-2.74578e-07
2.13002e-07
-2.67846e-07
1.89758e-07
-2.60772e-07
1.67225e-07
-2.53532e-07
1.45415e-07
-2.46247e-07
1.24324e-07
-2.38999e-07
1.03944e-07
-2.31848e-07
8.42611e-08
-2.24835e-07
6.52572e-08
-2.17993e-07
4.69107e-08
-2.11349e-07
2.91977e-08
-2.04927e-07
1.20917e-08
-1.98747e-07
-4.43373e-09
-1.92829e-07
-2.04017e-08
-1.87185e-07
-3.58381e-08
-1.81804e-07
-5.07713e-08
-1.76692e-07
-6.52307e-08
-1.71856e-07
-7.92463e-08
-1.673e-07
-9.28487e-08
-1.63026e-07
-1.06068e-07
-1.59033e-07
-1.18935e-07
-1.55319e-07
-1.31481e-07
-1.51879e-07
-1.43733e-07
-1.48708e-07
-1.55723e-07
-1.45801e-07
-1.6748e-07
-1.43151e-07
-1.79031e-07
-1.40751e-07
-1.90404e-07
-1.38593e-07
-2.01629e-07
-1.36671e-07
-2.12731e-07
-1.34977e-07
-2.23738e-07
-1.33503e-07
-2.34675e-07
-1.3224e-07
-2.45568e-07
-1.31182e-07
-2.56443e-07
-1.30319e-07
-2.67323e-07
-1.29646e-07
-2.78231e-07
-1.29156e-07
-2.89187e-07
-1.28844e-07
-3.00205e-07
-1.28714e-07
-3.11304e-07
-1.28782e-07
-3.22482e-07
-1.28994e-07
-3.3377e-07
-1.29364e-07
-3.4538e-07
-1.29802e-07
-3.59597e-07
-1.3021e-07
-3.7314e-07
-1.37793e-07
-3.86063e-07
-1.46123e-07
-3.99732e-07
-1.55176e-07
-4.14378e-07
-1.65141e-07
-4.30141e-07
-1.76081e-07
-4.47148e-07
-1.88028e-07
-4.65537e-07
-2.01029e-07
-4.85452e-07
-2.15141e-07
-5.0704e-07
-2.30433e-07
-5.3044e-07
-2.4699e-07
-5.55784e-07
-2.65005e-07
-5.83231e-07
-2.84541e-07
-6.12947e-07
-3.05263e-07
-6.45068e-07
-3.26272e-07
-6.79644e-07
-3.45832e-07
-7.16531e-07
-3.61405e-07
-7.55251e-07
-3.70417e-07
-7.94976e-07
-3.71568e-07
-8.34734e-07
-3.65437e-07
-8.73685e-07
-3.53771e-07
-9.11228e-07
-3.38351e-07
-9.46976e-07
-3.20495e-07
-9.80678e-07
-3.00977e-07
-1.01215e-06
-2.80201e-07
-1.04126e-06
-2.58389e-07
-1.06788e-06
-2.35699e-07
-1.0919e-06
-2.12283e-07
-1.11326e-06
-1.88302e-07
-1.13187e-06
-1.63911e-07
-1.14769e-06
-1.39251e-07
-1.16068e-06
-1.14436e-07
-1.17082e-06
-8.95019e-08
-1.17807e-06
-6.42986e-08
-1.1824e-06
-3.86243e-08
-1.27523e-08
6.57611e-07
-9.64983e-09
6.54847e-07
-2.88919e-08
6.50256e-07
-4.79695e-08
6.43856e-07
-6.68232e-08
6.35667e-07
-8.54427e-08
6.25713e-07
-1.03804e-07
6.14019e-07
-1.2185e-07
6.00619e-07
-1.39509e-07
5.85553e-07
-1.56694e-07
5.68871e-07
-1.73308e-07
5.50632e-07
-1.8923e-07
5.30908e-07
-2.04309e-07
5.09791e-07
-2.18349e-07
4.87393e-07
-2.31104e-07
4.63854e-07
-2.42282e-07
4.39347e-07
-2.51566e-07
4.14074e-07
-2.5867e-07
3.88264e-07
-2.63396e-07
3.62159e-07
-2.65702e-07
3.35993e-07
-2.65724e-07
3.09981e-07
-2.63759e-07
2.843e-07
-2.60194e-07
2.5909e-07
-2.55438e-07
2.3445e-07
-2.4986e-07
2.10446e-07
-2.43757e-07
1.87117e-07
-2.37354e-07
1.64485e-07
-2.30807e-07
1.42556e-07
-2.24224e-07
1.21329e-07
-2.17678e-07
1.00794e-07
-2.1122e-07
8.09365e-08
-2.04886e-07
6.17392e-08
-1.98707e-07
4.31811e-08
-1.92706e-07
2.52389e-08
-1.86904e-07
7.88725e-09
-1.8132e-07
-8.89756e-09
-1.75971e-07
-2.51382e-08
-1.70867e-07
-4.08598e-08
-1.65998e-07
-5.60895e-08
-1.6137e-07
-7.08557e-08
-1.5699e-07
-8.5187e-08
-1.52861e-07
-9.91127e-08
-1.48986e-07
-1.12662e-07
-1.45362e-07
-1.25863e-07
-1.41987e-07
-1.38746e-07
-1.38859e-07
-1.51339e-07
-1.35971e-07
-1.6367e-07
-1.33318e-07
-1.75766e-07
-1.30896e-07
-1.87654e-07
-1.28696e-07
-1.99362e-07
-1.26714e-07
-2.10914e-07
-1.24941e-07
-2.22337e-07
-1.23372e-07
-2.33655e-07
-1.21999e-07
-2.44892e-07
-1.20814e-07
-2.56071e-07
-1.19813e-07
-2.67215e-07
-1.18988e-07
-2.78344e-07
-1.18335e-07
-2.89477e-07
-1.17851e-07
-3.0063e-07
-1.17536e-07
-3.11814e-07
-1.17415e-07
-3.23047e-07
-1.17482e-07
-3.3432e-07
-1.1774e-07
-3.456e-07
-1.18245e-07
-3.56833e-07
-1.18982e-07
-3.76217e-07
-1.20297e-07
-3.88061e-07
-1.27031e-07
-4.00939e-07
-1.34516e-07
-4.14784e-07
-1.42803e-07
-4.29688e-07
-1.51929e-07
-4.45771e-07
-1.61939e-07
-4.6315e-07
-1.7287e-07
-4.8195e-07
-1.84768e-07
-5.02302e-07
-1.97688e-07
-5.24343e-07
-2.11692e-07
-5.48206e-07
-2.26879e-07
-5.74023e-07
-2.43427e-07
-6.01954e-07
-2.61319e-07
-6.32132e-07
-2.80151e-07
-6.6463e-07
-2.98957e-07
-6.99396e-07
-3.1599e-07
-7.36141e-07
-3.28879e-07
-7.74268e-07
-3.35486e-07
-8.12933e-07
-3.35034e-07
-8.51272e-07
-3.28369e-07
-8.88596e-07
-3.17141e-07
-9.24435e-07
-3.02865e-07
-9.5849e-07
-2.86613e-07
-9.9056e-07
-2.68989e-07
-1.0205e-06
-2.50304e-07
-1.04817e-06
-2.30731e-07
-1.07348e-06
-2.10399e-07
-1.09633e-06
-1.8944e-07
-1.11663e-06
-1.67997e-07
-1.13434e-06
-1.46208e-07
-1.14939e-06
-1.24196e-07
-1.16176e-06
-1.02064e-07
-1.17142e-06
-7.98431e-08
-1.17833e-06
-5.73875e-08
-1.18246e-06
-3.44942e-08
-1.13944e-08
6.57601e-07
-8.71681e-09
6.54806e-07
-2.60975e-08
6.50165e-07
-4.33281e-08
6.43696e-07
-6.03547e-08
6.35422e-07
-7.71682e-08
6.25365e-07
-9.37465e-08
6.13553e-07
-1.10039e-07
6.00022e-07
-1.25978e-07
5.84814e-07
-1.41486e-07
5.6798e-07
-1.56474e-07
5.49582e-07
-1.70833e-07
5.29697e-07
-1.84423e-07
5.08416e-07
-1.97068e-07
4.85857e-07
-2.08544e-07
4.62165e-07
-2.18586e-07
4.37515e-07
-2.2691e-07
4.12113e-07
-2.33258e-07
3.86191e-07
-2.37457e-07
3.5999e-07
-2.39475e-07
3.33742e-07
-2.39443e-07
3.0766e-07
-2.37632e-07
2.81915e-07
-2.34395e-07
2.56642e-07
-2.30102e-07
2.31935e-07
-2.25082e-07
2.07856e-07
-2.19602e-07
1.84443e-07
-2.1386e-07
1.61713e-07
-2.07994e-07
1.39673e-07
-2.02099e-07
1.1832e-07
-1.96239e-07
9.76434e-08
-1.90459e-07
7.76295e-08
-1.8479e-07
5.82609e-08
-1.79259e-07
3.95172e-08
-1.73887e-07
2.13757e-08
-1.68692e-07
3.81181e-09
-1.63691e-07
-1.31954e-08
-1.58899e-07
-2.96681e-08
-1.54324e-07
-4.56312e-08
-1.49957e-07
-6.1111e-08
-1.45805e-07
-7.61347e-08
-1.41873e-07
-9.073e-08
-1.38165e-07
-1.04925e-07
-1.34682e-07
-1.18747e-07
-1.31423e-07
-1.32225e-07
-1.28386e-07
-1.45386e-07
-1.25567e-07
-1.58257e-07
-1.22961e-07
-1.70865e-07
-1.20564e-07
-1.83237e-07
-1.18371e-07
-1.95398e-07
-1.16376e-07
-2.07374e-07
-1.14572e-07
-2.19191e-07
-1.12954e-07
-2.30872e-07
-1.11514e-07
-2.42442e-07
-1.10248e-07
-2.53925e-07
-1.09148e-07
-2.65345e-07
-1.08208e-07
-2.76725e-07
-1.07422e-07
-2.88089e-07
-1.06787e-07
-2.9946e-07
-1.063e-07
-3.10862e-07
-1.05962e-07
-3.22317e-07
-1.05807e-07
-3.33853e-07
-1.05814e-07
-3.45476e-07
-1.06013e-07
-3.57105e-07
-1.06561e-07
-3.68554e-07
-1.0757e-07
-3.87648e-07
-1.1027e-07
-3.99767e-07
-1.16075e-07
-4.12945e-07
-1.22652e-07
-4.27162e-07
-1.30078e-07
-4.42478e-07
-1.38314e-07
-4.58997e-07
-1.47361e-07
-4.76833e-07
-1.57249e-07
-4.96107e-07
-1.68021e-07
-5.16948e-07
-1.79727e-07
-5.39488e-07
-1.92422e-07
-5.63859e-07
-2.06217e-07
-5.90205e-07
-2.21258e-07
-6.18666e-07
-2.3746e-07
-6.49339e-07
-2.54371e-07
-6.82229e-07
-2.70995e-07
-7.1717e-07
-2.8563e-07
-7.53744e-07
-2.9613e-07
-7.91271e-07
-3.0078e-07
-8.28932e-07
-2.9921e-07
-8.6598e-07
-2.92398e-07
-9.01859e-07
-2.81842e-07
-9.36204e-07
-2.68814e-07
-9.6878e-07
-2.5418e-07
-9.99425e-07
-2.38412e-07
-1.02801e-06
-2.21751e-07
-1.05442e-06
-2.04331e-07
-1.07857e-06
-1.86259e-07
-1.10036e-06
-1.67652e-07
-1.11973e-06
-1.48634e-07
-1.13661e-06
-1.29327e-07
-1.15096e-06
-1.09841e-07
-1.16276e-06
-9.02658e-08
-1.17198e-06
-7.06273e-08
-1.17858e-06
-5.07874e-08
-1.18252e-06
-3.05465e-08
-1.00966e-08
6.57591e-07
-7.77449e-09
6.54769e-07
-2.32752e-08
6.50082e-07
-3.86409e-08
6.43551e-07
-5.38233e-08
6.35197e-07
-6.88145e-08
6.25045e-07
-8.35946e-08
6.13124e-07
-9.81182e-08
5.99471e-07
-1.12325e-07
5.84128e-07
-1.26144e-07
5.67151e-07
-1.39497e-07
5.48601e-07
-1.52283e-07
5.28558e-07
-1.64381e-07
5.07119e-07
-1.75629e-07
4.84402e-07
-1.85827e-07
4.60557e-07
-1.94739e-07
4.35763e-07
-2.02112e-07
4.10231e-07
-2.07717e-07
3.84193e-07
-2.11405e-07
3.57892e-07
-2.13152e-07
3.31559e-07
-2.1308e-07
3.05401e-07
-2.11435e-07
2.79589e-07
-2.08535e-07
2.5425e-07
-2.04707e-07
2.29476e-07
-2.00244e-07
2.05324e-07
-1.95382e-07
1.8183e-07
-1.90292e-07
1.5901e-07
-1.85098e-07
1.36868e-07
-1.7988e-07
1.154e-07
-1.74695e-07
9.45979e-08
-1.69581e-07
7.44462e-08
-1.64565e-07
5.4928e-08
-1.59671e-07
3.60236e-08
-1.54916e-07
1.7711e-08
-1.50317e-07
-3.34958e-11
-1.45889e-07
-1.72304e-08
-1.41645e-07
-3.38992e-08
-1.37591e-07
-5.00652e-08
-1.33719e-07
-6.5754e-08
-1.30037e-07
-8.09918e-08
-1.26548e-07
-9.58056e-08
-1.23257e-07
-1.10222e-07
-1.20164e-07
-1.24269e-07
-1.17267e-07
-1.37972e-07
-1.14566e-07
-1.51358e-07
-1.12055e-07
-1.64453e-07
-1.09733e-07
-1.77284e-07
-1.07594e-07
-1.89875e-07
-1.05634e-07
-2.02252e-07
-1.03846e-07
-2.14438e-07
-1.02227e-07
-2.26459e-07
-1.00769e-07
-2.38337e-07
-9.94669e-08
-2.50098e-07
-9.83146e-08
-2.61765e-07
-9.73052e-08
-2.73363e-07
-9.64322e-08
-2.84919e-07
-9.5689e-08
-2.96459e-07
-9.50693e-08