/*--------------------------------*- C++ -*----------------------------------*\
  =========                 |
  \\      /  F ield         | OpenFOAM: The Open Source CFD Toolbox
   \\    /   O peration     | Website:  https://openfoam.org
    \\  /    A nd           | Version:  8
     \\/     M anipulation  |
\*---------------------------------------------------------------------------*/
FoamFile
{
    version     2.0;
    format      ascii;
    class       volScalarField;
    location    "180/fluid";
    object      Qdot;
}
// * * * * * * * * * * * * * * * * * * * * * * * * * * * * * * * * * * * * * //

dimensions      [1 -1 -3 0 0 0 0];

internalField   nonuniform List<scalar> 
4000
(
0
-1.56212e-12
-1.46445e-12
-6.79861e-12
-6.33291e-12
-2.74848e-20
2.70752e-11
-5.57535e-11
-7.03567e-11
0
2.39484e-10
-2.99906e-10
-1.03997e-18
0
1.25455e-09
6.03728e-14
2.09364e-09
-4.26523e-16
-5.27454e-09
1.93563e-08
3.71624e-07
4.28488e-06
5.12704e-05
0.000528984
0.00462102
0.0335366
0.202254
1.02215
4.38527
16.2079
52.3697
149.962
385.171
896.377
1905.37
3721.45
6706.68
11242.4
17770.5
26682.6
38396.9
53461.8
72629.9
96915.9
127734
167000
217276
281936
365359
473211
612809
793622
1.02793e+06
1.33168e+06
1.72565e+06
2.2369e+06
2.90086e+06
3.76393e+06
4.88718e+06
6.35139e+06
8.26416e+06
1.07668e+07
1.40081e+07
1.83598e+07
2.41569e+07
3.19716e+07
2.53253e+08
1.79349e+08
2.33177e+07
1.70879e+07
1.23288e+07
8.7346e+06
6.06122e+06
4.10951e+06
2.71727e+06
1.75357e+06
1.11514e+06
722948
272077
28939.5
868.201
11.7208
0.0933604
0.000722372
1.01793e-05
3.91516e-07
3.95464e-08
8.10974e-09
2.27785e-09
8.543e-10
3.68359e-10
1.36954e-10
7.44565e-11
2.64393e-11
1.12857e-11
4.93652e-12
1.89742e-12
6.33741e-13
2.31984e-13
4.23883e-14
-3.71962e-13
-2.04286e-17
-1.79468e-12
-8.86726e-17
-1.44149e-12
-2.72528e-20
-5.61377e-20
0
-6.92358e-11
2.56484e-10
0
6.95895e-15
-1.01354e-18
0
-2.07928e-18
-8.41769e-18
-2.4981e-09
5.05817e-09
-5.1008e-15
3.76075e-08
4.18282e-07
4.66928e-06
5.6952e-05
0.000586304
0.00508392
0.0366896
0.220308
1.10965
4.74797
17.509
56.4593
161.357
413.601
960.369
2035.87
3962.56
7108.3
11848.8
18623.2
27815.6
39827.2
55207.9
74720.1
99414.8
130762
170744
222016
288059
373398
483891
627121
812923
1.05408e+06
1.36724e+06
1.7741e+06
2.303e+06
2.991e+06
3.88657e+06
5.05326e+06
6.5744e+06
8.55952e+06
1.11491e+07
1.44687e+07
1.88794e+07
2.46678e+07
3.22765e+07
3.61398e+08
1.06207e+08
2.25168e+07
1.6405e+07
1.17692e+07
8.28953e+06
5.71579e+06
3.84811e+06
2.52519e+06
1.61784e+06
1.02501e+06
656203
179892
12190.7
267.474
2.80265
0.0197651
0.000169537
3.23038e-06
1.76017e-07
2.35149e-08
5.76148e-09
1.7528e-09
6.52134e-10
2.99395e-10
1.2056e-10
5.91195e-11
2.27375e-11
7.78943e-12
4.28251e-12
7.34494e-12
-4.83291e-12
-5.69339e-13
3.70207e-14
-4.86736e-18
-8.5673e-13
-6.08421e-21
-2.9919e-07
3.09216e-07
-3.74404e-16
-3.27153e-07
0
6.76931e-11
0
0
-9.69489e-19
9.81772e-19
0
2.19541e-10
-1.93819e-09
2.40984e-09
-5.82373e-16
4.01923e-09
3.62869e-08
2.87572e-07
5.81532e-06
6.63933e-05
0.00067631
0.00582276
0.0417672
0.249542
1.25181
5.33865
19.6337
63.1605
180.109
460.618
1066.77
2254.04
4367.82
7786.98
12886.2
20115.6
29845.1
42470.5
58561.6
78917.7
104669
137394
179217
232978
302392
392297
508970
660577
857754
1.1144e+06
1.4487e+06
1.88453e+06
2.45327e+06
3.19619e+06
4.16775e+06
5.43976e+06
7.10703e+06
9.29455e+06
1.2154e+07
1.58555e+07
2.07969e+07
2.7233e+07
3.55238e+07
4.19039e+08
3.16028e+07
2.12764e+07
1.53506e+07
1.09034e+07
7.60219e+06
5.18746e+06
3.4551e+06
2.24353e+06
1.42566e+06
904104
521646
90581.3
3948.27
67.4787
0.615949
0.00455589
5.02031e-05
1.35299e-06
1.00724e-07
1.5165e-08
4.4759e-09
1.70795e-09
6.10151e-10
2.63632e-10
1.11814e-10
4.59219e-11
1.90073e-11
9.46587e-12
3.43394e-12
1.4062e-12
5.43107e-13
1.98621e-13
3.16869e-14
4.86139e-18
8.53849e-13
0
0
6.16147e-12
2.65519e-20
0
0
6.64708e-11
0
0
0
9.57384e-19
0
-1.95331e-18
3.65417e-07
5.54861e-14
-6.77645e-16
-4.78743e-09
4.39392e-08
7.62314e-07
6.54152e-06
7.8264e-05
0.000793274
0.00680115
0.0485828
0.289127
1.44525
6.14429
22.5336
72.3058
205.685
524.679
1211.47
2549.66
4913.17
8688.99
14260.2
22112.7
32559.5
46013.2
63077.4
84608.2
111845
146507
190907
248124
322179
418318
543370
706254
918646
1.19589e+06
1.55819e+06
2.03227e+06
2.6536e+06
3.46939e+06
4.54287e+06
5.9592e+06
7.8339e+06
1.03252e+07
1.35931e+07
1.79904e+07
2.40594e+07
3.23512e+07
6.28782e+07
3.44271e+08
2.71759e+07
1.96913e+07
1.40715e+07
9.89001e+06
6.81776e+06
4.59703e+06
3.02507e+06
1.94279e+06
1.22704e+06
785244
334784
35819.1
1081.34
14.726
0.121258
0.000986055
1.44263e-05
5.54354e-07
5.44161e-08
1.1178e-08
3.07485e-09
1.24121e-09
4.87048e-10
1.76562e-10
8.94933e-11
3.79646e-11
1.72739e-11
6.08698e-12
1.78905e-12
1.20208e-12
4.49355e-13
-4.31844e-12
2.6362e-14
2.64396e-07
2.75163e-07
0
5.92487e-12
0
1.53695e-11
0
0
-1.21485e-11
2.25557e-19
-3.38342e-07
-2.2019e-10
-9.31669e-19
1.87934e-18
-2.01552e-09
2.24231e-09
-3.5982e-07
-4.57625e-09
-8.31171e-15
4.24601e-08
6.77358e-07
7.97267e-06
9.30612e-05
0.000943507
0.00805965
0.0573472
0.339989
1.69354
7.17722
26.2474
84.004
238.356
606.359
1395.39
2923.32
5595.42
9809.36
15965.2
24553.4
35854.1
50296.3
68524
91475.5
120521
157546
205084
266488
346134
449736
584745
760917
991050
1.292e+06
1.68598e+06
2.20244e+06
2.8804e+06
3.7718e+06
4.94602e+06
6.49608e+06
8.54744e+06
1.1268e+07
1.48132e+07
1.96426e+07
2.61541e+07
3.50039e+07
2.61695e+08
1.83981e+08
2.50903e+07
1.79661e+07
1.2692e+07
8.81869e+06
6.00869e+06
4.00381e+06
2.60451e+06
1.65679e+06
1.04378e+06
663777
178699
12018.2
272.177
3.1005
0.0247966
0.000239398
4.81981e-06
2.59941e-07
3.26894e-08
7.81685e-09
2.49221e-09
9.59149e-10
4.27293e-10
1.81334e-10
7.43402e-11
3.10041e-11
1.31102e-11
5.27064e-12
2.42739e-12
1.02943e-13
4.04326e-13
1.36141e-13
2.09817e-14
-3.70163e-13
6.89612e-13
0
0
-1.76164e-16
-3.60584e-16
3.13072e-07
-5.12846e-11
-3.23356e-07
0
-2.13027e-10
0
-4.33067e-10
0
-3.68172e-18
1.76969e-09
5.20103e-14
3.54133e-07
4.47472e-09
6.10966e-08
8.28547e-07
9.76771e-06
0.000112051
0.00113172
0.0096393
0.0683532
0.403818
2.00475
8.46991
30.8878
98.5963
279.034
707.797
1622.84
3381.86
6420.95
11150.1
17999.6
27425.1
39695.1
55258.5
74806.3
99382.7
130507
170249
221391
287585
373606
485686
631975
823161
1.0733e+06
1.40092e+06
1.8305e+06
2.39447e+06
3.13575e+06
4.11132e+06
5.39669e+06
7.09174e+06
9.32799e+06
1.2268e+07
1.60755e+07
2.11759e+07
2.78171e+07
3.63136e+07
4.4231e+08
4.07811e+07
2.24442e+07
1.59938e+07
1.12208e+07
7.73207e+06
5.21963e+06
3.44402e+06
2.21945e+06
1.40316e+06
888205
503807
84447.7
3690.73
66.2017
0.660281
0.00543895
6.51613e-05
1.81064e-06
1.3283e-07
2.01578e-08
5.8791e-09
1.96186e-09
7.88737e-10
2.96262e-10
1.35217e-10
6.15557e-11
2.76325e-11
1.12945e-11
4.47054e-12
2.03393e-12
7.17583e-13
3.10519e-13
1.08586e-13
5.07657e-12
-4.84301e-18
-2.87977e-21
0
0
-7.33443e-12
1.21883e-11
-2.48209e-11
-6.19546e-11
-1.13808e-10
0
0
2.09573e-10
4.21576e-10
0
-1.89942e-09
-2.10718e-09
3.84871e-09
4.27944e-09
7.83343e-09
7.90911e-08
9.73709e-07
1.17817e-05
0.000135235
0.0013637
0.0115877
0.0819206
0.482435
2.38766
10.0589
36.5862
116.499
328.878
831.819
1899.7
3935.03
7399.64
12716
20366.9
30725
44061.9
60854.8
81854.9
108230
141660
184420
239551
311029
404054
525417
684020
891569
1.1635e+06
1.52027e+06
1.989e+06
2.60588e+06
3.4193e+06
4.49438e+06
5.91916e+06
7.81364e+06
1.03429e+07
1.36811e+07
1.81508e+07
2.43699e+07
3.28812e+07
5.93077e+07
3.59522e+08
2.80452e+07
2.01324e+07
1.42495e+07
9.92166e+06
6.78018e+06
4.53674e+06
2.96691e+06
1.89743e+06
1.19655e+06
766731
322812
35008.1
1108.69
16.4093
0.150583
0.00135101
2.07244e-05
7.84424e-07
7.6097e-08
1.36144e-08
4.19718e-09
1.435e-09
6.03221e-10
2.65973e-10
1.08337e-10
5.38401e-11
2.10047e-11
4.60885e-12
3.67578e-12
1.44338e-12
7.2319e-13
2.65019e-13
8.61701e-14
5.0673e-12
6.94283e-22
0
0
0
0
2.98876e-07
-5.12339e-20
0
0
0
-3.15685e-07
-3.17252e-07
0
-2.40406e-14
3.20745e-07
-1.39145e-17
4.86018e-14
3.30291e-07
7.55062e-09
-7.85844e-08
1.1664e-06
1.38979e-05
0.000163171
0.00164585
0.0139584
0.0984289
0.578041
2.85307
11.9893
43.5074
138.238
389.365
982.044
2233.45
4594.64
8541.06
14513.6
23080.5
34455.5
48943.4
67053.5
89616.8
117939
153866
199892
259319
336458
436939
568114
739627
964155
1.25842e+06
1.64452e+06
2.15178e+06
2.81914e+06
3.69856e+06
4.85958e+06
6.39573e+06
8.43369e+06
1.11465e+07
1.46759e+07
1.95262e+07
2.61082e+07
3.51256e+07
2.40284e+08
2.0306e+08
2.56118e+07
1.82112e+07
1.27776e+07
8.82227e+06
5.97848e+06
3.96688e+06
2.57367e+06
1.63605e+06
1.03208e+06
660894
186806
13664.9
338.623
4.29599
0.0380287
0.000387427
7.6848e-06
3.87238e-07
4.63227e-08
1.00204e-08
3.1714e-09
1.17581e-09
5.21132e-10
2.1315e-10
9.5118e-11
4.81058e-11
1.77586e-11
7.77692e-12
4.49196e-12
1.45162e-12
5.32072e-13
2.19213e-13
7.53633e-14
1.31436e-14
-3.68669e-13
-2.70942e-07
-8.17088e-17
0
0
-2.64549e-11
0
0
0
9.87809e-11
5.79434e-15
0
-8.35847e-19
0
1.78357e-09
-2.35408e-17
3.5903e-09
3.23841e-09
7.26505e-09
1.13763e-07
1.41355e-06
1.67435e-05
0.000196573
0.00198402
0.0168035
0.118247
0.692854
3.4122
14.3099
51.8346
164.414
462.223
1162.75
2632.8
5373.34
9881.22
16627
26149.5
38613.3
54321.8
73817.2
98035.3
128428
167012
216510
280489
363606
471934
613414
798460
1.04077e+06
1.35839e+06
1.77516e+06
2.32254e+06
3.04213e+06
3.9889e+06
5.23532e+06
6.87676e+06
9.03793e+06
1.18801e+07
1.55136e+07
2.0401e+07
2.67528e+07
3.49011e+07
4.4089e+08
6.01985e+07
2.2851e+07
1.62572e+07
1.13854e+07
7.83371e+06
5.28405e+06
3.48757e+06
2.2512e+06
1.42713e+06
905044
537981
104480
5296.85
108.058
1.22006
0.0108718
0.000129444
3.30642e-06
2.13967e-07
3.03923e-08
7.85611e-09
2.76315e-09
1.11616e-09
4.17205e-10
2.12379e-10
7.21038e-11
3.51188e-11
1.52647e-11
6.54479e-12
2.89892e-12
1.20631e-12
-4.03941e-12
1.97033e-13
5.85288e-14
1.04382e-14
0
0
0
0
-2.86757e-07
-1.17065e-11
2.36814e-11
0
-2.9876e-07
0
0
1.13132e-14
0
-1.62273e-18
-7.73978e-10
-4.52578e-14
3.01283e-07
-1.652e-15
1.39542e-08
-3.03086e-08
1.38451e-06
2.01382e-05
0.000235967
0.00238353
0.0201704
0.141731
0.829071
4.07658
17.0725
61.7688
195.709
549.45
1378.93
3107.71
6283.82
11418.2
19029.4
29578.1
43187
60164.8
81099.1
107045
139598
180958
234063
302744
392005
508368
660383
859292
1.11993e+06
1.46193e+06
1.91133e+06
2.50276e+06
3.28241e+06
4.31193e+06
5.67394e+06
7.47934e+06
9.87737e+06
1.30418e+07
1.71937e+07
2.28815e+07
3.04717e+07
4.12015e+07
4.13645e+08
2.89352e+07
2.07769e+07
1.47163e+07
1.02617e+07
7.02905e+06
4.71937e+06
3.10072e+06
1.99435e+06
1.26446e+06
810837
405272
55385.2
2128.68
37.0131
0.384638
0.00356694
5.03414e-05
1.62784e-06
1.32077e-07
2.27341e-08
6.06429e-09
2.15509e-09
8.66621e-10
3.37786e-10
1.67814e-10
6.71683e-11
2.87134e-11
1.2957e-11
6.55018e-12
2.31528e-12
1.01551e-12
4.41212e-13
1.50855e-13
4.74427e-14
9.84866e-15
0
2.68744e-07
-2.7443e-07
0
2.83467e-07
-2.86826e-07
2.89456e-07
0
1.15732e-10
-3.95449e-19
0
0
-4.61876e-10
-1.57095e-18
-3.13429e-18
-2.81681e-17
-2.00309e-16
-1.89342e-15
6.68669e-09
-2.15551e-09
1.55838e-06
2.39807e-05
0.000281776
0.00284781
0.0240926
0.169153
0.988539
4.85661
20.3268
73.5133
232.839
653.22
1636.06
3668.48
7335.29
13153.7
21724.2
33356.4
48155.3
66432.9
88849.1
116583
151368
195578
252345
325741
421066
545233
707306
919213
1.19672e+06
1.56073e+06
2.03909e+06
2.66897e+06
3.5003e+06
4.6004e+06
6.06056e+06
8.00547e+06
1.06068e+07
1.40221e+07
1.86226e+07
2.50609e+07
3.39035e+07
9.9244e+07
3.23596e+08
2.69383e+07
1.92287e+07
1.35492e+07
9.40178e+06
6.40936e+06
4.28341e+06
2.80247e+06
1.79746e+06
1.14128e+06
739741
278233
29071
905.334
13.8132
0.136142
0.00134597
2.25827e-05
9.045e-07
8.87234e-08
1.58735e-08
4.88986e-09
1.76009e-09
7.09749e-10
3.38435e-10
1.35256e-10
6.16923e-11
3.25662e-11
1.13711e-11
4.97341e-12
2.12358e-12
8.78307e-13
3.47339e-13
1.28266e-13
4.78882e-14
5.0361e-12
-2.6189e-07
3.93201e-17
2.72568e-07
-1.24132e-11
0
1.13788e-11
0
0
0
0
2.25808e-10
0
4.4763e-10
-8.90663e-10
-1.60765e-09
1.43711e-09
2.78338e-07
-2.16284e-15
1.27886e-08
2.99582e-08
2.06647e-06
2.82627e-05
0.000333644
0.0033771
0.0285802
0.200642
1.17237
5.75976
24.1131
87.2501
276.492
775.698
1939.54
4324
8528.03
15072.7
24694.6
37448.9
53466.7
73072.1
97021.2
126618
163731
210896
271414
349567
450899
582628
754184
977938
1.27017e+06
1.65238e+06
2.15304e+06
2.80993e+06
3.67345e+06
4.81097e+06
6.313e+06
8.30165e+06
1.09424e+07
1.43661e+07
1.89332e+07
2.52349e+07
3.37226e+07
2.69025e+08
2.00496e+08
2.49575e+07
1.7796e+07
1.25167e+07
8.66497e+06
5.89096e+06
3.92549e+06
2.5614e+06
1.64055e+06
1.04449e+06
676450
199742
15565.5
411.577
5.65663
0.0542422
0.000580634
1.15109e-05
5.58457e-07
6.35741e-08
1.28485e-08
4.10598e-09
1.55676e-09
6.56327e-10
2.88106e-10
1.15484e-10
5.60677e-11
3.06654e-11
1.05642e-11
4.195e-12
1.73934e-12
7.84005e-13
3.01129e-13
5.27938e-12
4.24138e-14
-7.31475e-13
4.80204e-18
0
2.70694e-07
0
2.76733e-07
0
-9.43986e-20
1.31714e-15
-2.63176e-15
-2.00253e-10
0
0
-1.02962e-14
0
-5.82398e-18
-2.89403e-17
-2.47743e-16
-2.43007e-15
1.22006e-08
2.01127e-07
2.46149e-06
3.30778e-05
0.000391329
0.00396688
0.0336048
0.236072
1.38032
6.7875
28.45
103.094
327.18
918.624
2293.52
5077.77
9879.3
17234.3
27880.6
41768.1
59011.2
79971.9
105522
137082
176670
226968
291451
374599
482200
621761
803051
1.03883e+06
1.34579e+06
1.74583e+06
2.26769e+06
2.94916e+06
3.83999e+06
5.00574e+06
6.53282e+06
8.53374e+06
1.11577e+07
1.45254e+07
1.8928e+07
2.48905e+07
3.27294e+07
3.88607e+08
9.62743e+07
2.33032e+07
1.65982e+07
1.1656e+07
8.05414e+06
5.46472e+06
3.63425e+06
2.36766e+06
1.51634e+06
969433
610401
142771
8683.6
201.461
2.55113
0.0242772
0.000283542
6.56954e-06
3.74972e-07
4.88658e-08
1.13019e-08
3.69886e-09
1.35503e-09
5.507e-10
2.60884e-10
1.0407e-10
4.8864e-11
2.58904e-11
8.99543e-12
4.18299e-12
1.7374e-12
6.68326e-13
3.01793e-13
1.17745e-13
3.68715e-14
7.22056e-15
2.61137e-07
0
0
0
2.73345e-07
0
2.71947e-11
0
1.84629e-19
-3.67112e-19
-2.69879e-07
0
0
-2.82843e-18
-5.6005e-18
2.57032e-07
3.81095e-14
-2.72401e-15
1.16106e-08
2.19843e-07
2.76977e-06
3.8217e-05
0.000453351
0.0046061
0.0390823
0.274934
1.60997
7.93096
33.3148
121.02
385.006
1082.62
2698.85
5921.72
11330.4
19500.2
31152
46144.9
64581
86908.9
114120
147758
189986
243639
312376
400904
515291
663400
855444
1.10474e+06
1.42866e+06
1.84994e+06
2.39834e+06
3.11284e+06
4.04454e+06
5.26046e+06
6.8468e+06
8.91831e+06
1.16309e+07
1.50858e+07
1.96048e+07
2.56619e+07
3.35321e+07
4.40334e+08
4.05106e+07
2.17411e+07
1.55049e+07
1.08928e+07
7.52579e+06
5.1038e+06
3.39235e+06
2.20981e+06
1.41745e+06
911913
541210
102331
5127.59
106.922
1.27089
0.0121692
0.000155213
4.13932e-06
2.734e-07
3.92946e-08
9.59312e-09
3.11292e-09
1.33887e-09
5.49235e-10
2.29653e-10
9.63642e-11
4.62244e-11
1.97255e-11
8.94462e-12
3.78821e-12
1.54459e-12
6.41989e-13
-4.98797e-13
1.06389e-13
3.41649e-14
6.55105e-15
-3.65534e-13
0
5.62918e-21
0
-3.17253e-16
-3.17729e-16
0
0
0
0
3.76286e-10
-9.7406e-15
0
-2.72338e-18
1.42949e-09
-3.9852e-17
-2.99824e-16
3.05886e-09
1.65293e-08
1.3267e-07
3.20114e-06
4.34718e-05
0.000517859
0.0052747
0.044852
0.316171
1.85562
9.1651
38.6166
140.755
449.283
1265.98
3149.35
6824.22
12783.1
21705.5
34269.1
50265.8
69819.2
93489.9
122379
158163
203143
260311
333526
427745
549368
706679
910452
1.17473e+06
1.51788e+06
1.96392e+06
2.54439e+06
3.30068e+06
4.28729e+06
5.5755e+06
7.25967e+06
9.46971e+06
1.23574e+07
1.60602e+07
2.10769e+07
2.77046e+07
3.64509e+07
4.32583e+08
2.83128e+07
2.04362e+07
1.45652e+07
1.02312e+07
7.06937e+06
4.7956e+06
3.18926e+06
2.08011e+06
1.33843e+06
867980
478651
74828.9
3227.18
61.7167
0.699333
0.00679793
9.43049e-05
2.84284e-06
2.10624e-07
3.3308e-08
8.22187e-09
2.89057e-09
1.13962e-09
4.51084e-10
2.31653e-10
1.01082e-10
4.28313e-11
1.88955e-11
8.13909e-12
3.7665e-12
2.19655e-12
5.94143e-13
2.55161e-13
9.49608e-14
7.73446e-13
5.51561e-15
4.78173e-18
-2.63082e-07
0
0
0
-2.6618e-07
0
-9.44865e-11
0
0
3.65164e-10
0
-9.27211e-15
0
-5.15279e-18
1.21092e-09
-3.30605e-16
-3.27832e-15
1.79819e-08
3.91389e-07
3.62953e-06
4.86305e-05
0.000581742
0.00594316
0.0506612
0.358032
2.10726
10.4421
44.163
161.64
518.009
1462.94
3626.23
7712.53
14049.5
23567.1
36860
53664.4
74185.1
99091.6
129585
167463
215146
275783
353427
453294
582121
748641
964221
1.24369e+06
1.60648e+06
2.07806e+06
2.69194e+06
3.49232e+06
4.53752e+06
5.90402e+06
7.69858e+06
1.00564e+07
1.3127e+07
1.71111e+07
2.25404e+07
2.97421e+07
4.54742e+07
4.11287e+08
2.6568e+07
1.92282e+07
1.37325e+07
9.66251e+06
6.68628e+06
4.54219e+06
3.0256e+06
1.9779e+06
1.27802e+06
836032
421508
56829.4
2181.95
38.8714
0.425062
0.004212
6.303e-05
2.1065e-06
1.71742e-07
2.87423e-08
7.73904e-09
2.83935e-09
1.12037e-09
4.88444e-10
2.0576e-10
9.40552e-11
4.3676e-11
2.22406e-11
7.33982e-12
3.37261e-12
1.25418e-12
5.92233e-13
2.31676e-13
9.49943e-14
3.43462e-14
7.40874e-13
0
0
5.54846e-21
2.63461e-07
-2.63089e-07
2.35036e-11
0
2.57644e-07
2.54686e-07
0
2.46637e-07
6.95151e-10
-6.81698e-10
-2.33355e-07
-4.92925e-18
-1.41875e-09
-1.13515e-09
-2.7491e-09
2.45964e-08
4.16516e-07
4.0269e-06
5.3583e-05
0.000641367
0.00657041
0.0561565
0.397973
2.34968
11.6855
49.6279
182.47
587.257
1661.47
4090.58
8447.46
14815
24659.1
38383.2
55714.7
76961.4
102876
134752
174472
224553
288273
369850
474722
609909
784517
1.01039e+06
1.303e+06
1.68257e+06
2.17564e+06
2.81715e+06
3.65309e+06
4.74413e+06
6.17221e+06
8.04463e+06
1.05054e+07
1.36859e+07
1.78453e+07
2.35151e+07
3.10381e+07
6.89541e+07
3.82409e+08
2.53799e+07
1.83637e+07
1.31201e+07
9.23903e+06
6.40047e+06
4.35437e+06
2.90597e+06
1.90466e+06
1.23565e+06
813765
380625
45188.5
1588.99
26.7722
0.285175
0.00288208
4.59933e-05
1.6723e-06
1.47144e-07
2.59127e-08
7.24772e-09
2.70612e-09
1.09887e-09
4.36283e-10
2.03133e-10
8.45697e-11
3.89538e-11
2.05476e-11
7.99283e-12
2.98264e-12
1.24696e-12
1.32889e-12
2.31102e-13
8.34596e-14
2.86614e-14
7.39851e-13
0
0
-7.67327e-17
0
-3.05186e-16
2.57796e-07
2.55233e-07
-8.50363e-20
7.99008e-11
0
0
0
0
-2.40871e-18
-5.61334e-10
-3.21079e-14
1.32197e-09
4.7061e-09
2.52014e-08
4.30549e-07
4.26633e-06
5.74926e-05
0.000692212
0.00710782
0.0609006
0.432738
2.56265
12.7894
54.5357
201.393
650.625
1840.9
4473.56
8786.33
14599.2
24420
38182
55670.8
77283
103830
136665
177714
229562
295569
380069
488647
628518
809026
1.04231e+06
1.34417e+06
1.73524e+06
2.2425e+06
2.90133e+06
3.75822e+06
4.87474e+06
6.33296e+06
8.23965e+06
1.07383e+07
1.39384e+07
1.81332e+07
2.38298e+07
3.13585e+07
1.03314e+08
3.54147e+08
2.43975e+07
1.76708e+07
1.26405e+07
8.91421e+06
6.18564e+06
4.21608e+06
2.81979e+06
1.85325e+06
1.20698e+06
799329
347591
37998.1
1252.19
20.2156
0.211264
0.0021709
3.64263e-05
1.41228e-06
1.30619e-07
2.43084e-08
6.75389e-09
2.55416e-09
1.03798e-09
4.27745e-10
1.92849e-10
8.56849e-11
3.83975e-11
1.54375e-11
7.19312e-12
2.23075e-12
1.32868e-12
5.8639e-13
-5.28176e-13
8.33255e-14
2.86688e-14
4.85736e-15
6.83359e-22
2.73761e-21
5.46727e-21
-1.51677e-16
2.29869e-11
0
-2.50363e-07
0
2.41974e-07
2.22575e-15
-1.82977e-10
0
2.19656e-07
-1.22538e-09
-5.34881e-10
-4.80432e-17
-1.0163e-09
4.42766e-09
2.36074e-08
3.39313e-07
4.42569e-06
6.04292e-05
0.000729208
0.00750355
0.0644148
0.458674
2.72282
13.6271
58.2945
215.993
699.289
1970.87
4665.16
9240.13
15385.6
22173.1
35566.9
52769.5
74242.9
100847
133947
175482
228051
295044
380840
491085
633065
816205
1.05272e+06
1.35848e+06
1.75413e+06
2.26658e+06
2.93104e+06
3.79361e+06
4.91481e+06
6.37358e+06
8.27428e+06
1.07548e+07
1.39084e+07
1.8031e+07
2.35962e+07
3.09037e+07
1.37819e+08
3.30887e+08
2.34828e+07
1.70548e+07
1.22302e+07
8.64499e+06
6.01247e+06
4.1076e+06
2.7542e+06
1.8154e+06
1.18651e+06
788946
324918
33906.3
1069.47
16.7556
0.172796
0.00179608
3.11863e-05
1.26283e-06
1.22116e-07
2.30222e-08
6.57379e-09
2.48988e-09
1.00531e-09
4.30037e-10
1.84308e-10
8.4174e-11
3.35379e-11
1.6616e-11
6.40358e-12
3.00655e-12
1.2282e-12
5.48954e-12
2.06576e-13
8.31016e-14
2.58048e-14
5.21782e-15
-2.58822e-07
2.58445e-07
-7.5606e-17
0
-2.26789e-11
-2.49463e-07
4.40349e-11
0
0
2.2979e-07
-1.43934e-10
0
0
-1.1004e-18
-8.52749e-18
-4.75368e-17
-1.17668e-09
4.15086e-09
2.04278e-07
3.54302e-07
4.65931e-06
6.20398e-05
0.000748138
0.0077064
0.066228
0.472144
2.80658
14.0683
60.2848
223.68
723.486
2015.27
4810.04
9631.49
16025.9
22723.8
30008.1
46397.5
67055
92871.5
125198
165944
217670
283727
368456
477457
617959
799310
1.03361e+06
1.33657e+06
1.72855e+06
2.23609e+06
2.8937e+06
3.74638e+06
4.85285e+06
6.28987e+06
8.15792e+06
1.05889e+07
1.36672e+07
1.76781e+07
2.30679e+07
3.01089e+07
1.58351e+08
3.17942e+08
2.26868e+07
1.65182e+07
1.18708e+07
8.40668e+06
5.85692e+06
4.00816e+06
2.69225e+06
1.77793e+06
1.16442e+06
775636
313873
32108.5
991.437
15.2956
0.156684
0.00163798
2.89227e-05
1.19456e-06
1.18064e-07
2.22896e-08
6.3769e-09
2.26524e-09
9.43755e-10
4.1989e-10
1.90751e-10
8.25442e-11
3.29546e-11
1.63632e-11
6.31869e-12
3.60325e-12
1.2167e-12
5.33521e-13
2.15514e-13
7.71445e-14
2.57584e-14
4.86372e-15
0
2.58444e-07
0
-1.07733e-20
0
-4.20857e-20
0
0
0
7.39563e-11
-2.23641e-07
0
0
-1.10034e-18
-5.08513e-10
-1.21187e-09
-2.13393e-09
4.15057e-09
2.42499e-08
4.3563e-07
4.6513e-06
6.19213e-05
0.000747561
0.00770073
0.0661782
0.471784
2.80443
14.0576
60.2403
223.521
723
2014.01
4807.41
9626.95
16019.6
22716.7
30002.6
46391
67048.8
92867.7
125199
165955
217696
283778
368544
477598
618177
799638
1.03409e+06
1.33725e+06
1.72951e+06
2.23741e+06
2.89547e+06
3.7487e+06
4.85583e+06
6.29354e+06
8.16224e+06
1.05936e+07
1.36719e+07
1.76816e+07
2.30693e+07
3.01079e+07
1.58511e+08
3.17791e+08
2.2687e+07
1.65199e+07
1.18725e+07
8.408e+06
5.85777e+06
4.00865e+06
2.69249e+06
1.77803e+06
1.16444e+06
775628
313772
32092.3
990.737
15.2826
0.156538
0.00163651
2.89006e-05
1.19705e-06
1.16905e-07
2.22955e-08
6.51419e-09
2.41659e-09
9.43811e-10
4.17822e-10
1.90754e-10
8.78485e-11
3.44431e-11
1.49929e-11
7.01333e-12
2.89383e-12
1.21672e-12
5.33527e-13
-4.73859e-12
7.7145e-14
2.57579e-14
5.21803e-15
3.63368e-13
0
0
1.15775e-11
3.01138e-16
-2.53606e-07
8.44653e-20
0
-2.27349e-15
-7.6211e-11
-1.82967e-10
0
-8.25021e-15
-1.60529e-14
-2.07622e-07
-2.03251e-07
-3.79134e-16
4.42707e-09
1.9272e-08
4.36262e-07
4.51074e-06
6.0395e-05
0.000727725
0.00748792
0.0642764
0.457668
2.71678
13.5969
58.1675
215.535
697.871
1967.13
4657.08
9226.78
15367.1
22155.2
35543.3
52742.5
74216.4
100826
133940
175500
228111
295168
381062
491450
633636
817067
1.05399e+06
1.36029e+06
1.75667e+06
2.27009e+06
2.93575e+06
3.79977e+06
4.92263e+06
6.38317e+06
8.28548e+06
1.0767e+07
1.39203e+07
1.80397e+07
2.35993e+07
3.09015e+07
1.38265e+08
3.30456e+08
2.34833e+07
1.70586e+07
1.22339e+07
8.64747e+06
6.01386e+06
4.10827e+06
2.75445e+06
1.81544e+06
1.18648e+06
788893
324606
33855.3
1067.22
16.7132
0.172327
0.00179154
3.1126e-05
1.26185e-06
1.22144e-07
2.30261e-08
6.57485e-09
2.33058e-09
1.05044e-09
4.18602e-10
1.78474e-10
8.4181e-11
3.38217e-11
1.66177e-11
7.10795e-12
2.11135e-12
5.04824e-13
-3.68664e-12
2.06584e-13
8.31065e-14
2.58048e-14
-4.98339e-12
3.63912e-13
-1.31194e-12
0
-2.60773e-07
-2.59646e-07
0
0
0
0
-1.74934e-10
1.89072e-10
-6.3092e-19
-2.94135e-10
-2.40846e-18
5.61287e-10
1.09787e-09
1.07548e-09
5.79329e-14
2.51979e-08
3.27411e-07
4.25275e-06
5.72309e-05
0.000690053
0.00708545
0.0606999
0.43127
2.55381
12.745
54.3472
200.708
648.48
1835.13
4460.57
8763.48
14568.8
24381.7
38132.6
55613.1
77221.9
103772
136619
177695
229589
295669
380281
489027
629141
809993
1.04375e+06
1.34627e+06
1.73822e+06
2.24663e+06
2.90692e+06
3.7656e+06
4.88419e+06
6.34456e+06
8.25323e+06
1.0753e+07
1.39529e+07
1.81443e+07
2.38348e+07
3.13596e+07
1.03837e+08
3.53564e+08
2.43979e+07
1.7674e+07
1.26425e+07
8.91433e+06
6.18459e+06
4.21456e+06
2.8183e+06
1.85202e+06
1.20607e+06
798704
346933
37892.9
1247.68
20.131
0.210326
0.00216189
3.63075e-05
1.41025e-06
1.31215e-07
2.33981e-08
7.07651e-09
2.55453e-09
9.92068e-10
4.27801e-10
1.98846e-10
8.56939e-11
3.84015e-11
1.68507e-11
7.91365e-12
3.03727e-12
1.32878e-12
5.48633e-12
2.07514e-13
-4.92123e-12
3.15171e-14
4.85758e-15
3.64455e-13
0
5.54838e-21
1.11128e-20
0
0
-6.1152e-16
0
-1.82656e-10
-1.79998e-10
0
0
-2.378e-07
-1.33632e-09
-2.28216e-07
-2.24042e-07
2.22846e-07
-3.5157e-15
2.45928e-08
3.01041e-07
3.90287e-06
5.33578e-05
0.000638969
0.00654344
0.0559151
0.396199
2.33895
11.6315
49.3977
181.63
584.611
1654.25
4073.87
8416.01
14768.5
24597.1
38301.2
55614.9
76847.6
102753
134627
174353
224455
288217
369866
474851
610212
785076
1.01132e+06
1.30444e+06
1.68471e+06
2.17872e+06
2.82144e+06
3.65889e+06
4.75173e+06
6.18173e+06
8.05602e+06
1.05181e+07
1.36988e+07
1.78567e+07
2.35241e+07
3.10487e+07
6.93091e+07
3.8181e+08
2.53812e+07
1.8366e+07
1.31198e+07
9.23677e+06
6.39753e+06
4.35158e+06
2.9037e+06
1.90298e+06
1.23449e+06
813032
379822
45022.5
1581.22
26.6197
0.283454
0.00286599
4.57864e-05
1.6666e-06
1.46029e-07
2.58524e-08
7.2492e-09
2.68938e-09
1.0607e-09
4.79823e-10
2.0247e-10
8.70944e-11
3.89597e-11
1.56328e-11
7.2717e-12
3.16477e-12
1.98429e-12
1.28322e-12
-5.09056e-13
7.77442e-14
3.15193e-14
5.39777e-15
-2.60371e-07
0
-2.64993e-07
-2.66132e-07
-2.24834e-20
-3.12774e-16
0
2.63277e-07
0
0
2.54367e-07
-6.76331e-19
2.465e-07
-1.30902e-18
-7.72833e-18
-3.80668e-17
1.19478e-09
-3.26798e-15
1.56405e-08
1.6646e-07
3.49617e-06
4.84152e-05
0.000579262
0.00591475
0.0504052
0.356142
2.09579
10.3841
43.9153
160.734
515.14
1455.04
3607.49
7675.42
13990.2
23483.2
36744.9
53518.4
74009
98886.3
129351
167201
214856
275469
353095
452954
581788
748340
963985
1.24357e+06
1.60653e+06
2.07837e+06
2.6926e+06
3.49344e+06
4.53918e+06
5.90645e+06
7.7017e+06
1.00602e+07
1.31316e+07
1.71168e+07
2.25486e+07
2.97573e+07
4.56254e+07
4.10924e+08
2.65628e+07
1.9226e+07
1.37313e+07
9.66157e+06
6.68537e+06
4.54132e+06
3.02482e+06
1.97726e+06
1.27752e+06
835695
420828
56597.4
2169.19
38.5994
0.42187
0.00418216
6.26702e-05
2.10063e-06
1.71806e-07
2.87505e-08
7.55442e-09
2.74527e-09
1.12059e-09
4.88543e-10
2.05793e-10
9.40724e-11
3.94669e-11
1.7909e-11
7.34109e-12
3.37315e-12
-3.715e-12
5.92339e-13
2.31719e-13
8.92572e-14
3.14881e-14
5.18499e-15
6.87429e-22
0
0
0
0
-1.3372e-11
0
-2.68916e-07
0
-2.6491e-07
3.76263e-10
-9.73979e-15
3.29183e-10
-1.44798e-09
2.48931e-07
-3.98473e-17
2.46326e-07
2.41511e-07
1.6527e-08
2.51832e-07
3.30814e-06
4.32709e-05
0.000515391
0.00524757
0.0446042
0.314332
1.8444
9.10814
38.3726
139.86
446.434
1258.07
3130.25
6784.91
12716.3
21606.3
34128.3
50080.3
69586.9
93207.1
122040
157759
202660
259735
332838
426921
548377
705485
909011
1.17299e+06
1.51576e+06
1.96135e+06
2.54127e+06
3.29692e+06
4.28283e+06
5.57021e+06
7.25387e+06
9.46371e+06
1.23525e+07
1.6059e+07
2.10832e+07
2.77242e+07
3.64895e+07
4.32537e+08
2.8311e+07
2.04193e+07
1.45479e+07
1.02183e+07
7.06118e+06
4.79089e+06
3.18676e+06
2.07887e+06
1.33786e+06
867759
477721
74500.3
3205.33
61.2066
0.692992
0.00673888
9.3634e-05
2.82621e-06
2.10096e-07
3.26327e-08
8.57077e-09
3.06695e-09
1.09988e-09
4.76115e-10
2.08798e-10
9.77742e-11
4.28414e-11
2.39554e-11
8.14064e-12
2.64616e-12
2.2899e-12
5.9428e-13
-4.94114e-13
8.34295e-14
3.1416e-14
-7.30157e-13
0
2.79836e-21
-7.89853e-17
0
0
-3.226e-16
0
0
0
-2.55721e-15
0
0
-2.65424e-07
-2.62581e-07
-5.5999e-18
-3.60775e-17
-2.75515e-16
2.61459e-09
2.0614e-08
3.54714e-07
2.88325e-06
3.77784e-05
0.00045123
0.00458169
0.0388599
0.273272
1.59977
7.87894
33.091
120.195
382.373
1075.26
2680.85
5883.6
11262.7
19395.5
30998.8
45937.3
64314.1
86576.2
113711
147257
189372
242882
311440
399738
513833
661564
853122
1.10179e+06
1.42491e+06
1.84518e+06
2.39231e+06
3.10528e+06
4.03522e+06
5.2493e+06
6.83399e+06
8.90486e+06
1.16189e+07
1.50785e+07
1.96086e+07
2.56843e+07
3.35749e+07
4.40216e+08
4.02635e+07
2.17149e+07
1.54762e+07
1.08712e+07
7.5123e+06
5.09642e+06
3.38877e+06
2.2083e+06
1.41693e+06
911842
540802
101876
5088.63
105.898
1.25726
0.0120416
0.000153855
4.1076e-06
2.71491e-07
3.89937e-08
9.24146e-09
3.03329e-09
1.2067e-09
5.03286e-10
2.47566e-10
1.08164e-10
4.4109e-11
2.05537e-11
8.9472e-12
3.03126e-12
1.545e-12
-1.61405e-13
2.78633e-13
5.2078e-12
3.41735e-14
5.84009e-15
0
-2.66505e-07
0
0
0
0
0
0
0
0
0
0
0
-1.46651e-18
-8.73506e-18
2.67978e-07
2.69808e-07
-2.42976e-15
1.82985e-08
1.95005e-07
2.4733e-06
3.29392e-05
0.000389516
0.00394671
0.0334185
0.234666
1.37163
6.74288
28.2571
102.38
324.893
912.198
2277.65
5043.52
9816.37
17134.1
27730.4
41560.4
58740
79629.9
105098
136561
176028
226176
290469
373379
480679
619862
800681
1.03588e+06
1.34214e+06
1.74134e+06
2.26226e+06
2.94275e+06
3.83269e+06
4.99789e+06
6.52513e+06
8.52759e+06
1.11556e+07
1.45295e+07
1.89427e+07
2.49165e+07
3.27571e+07
3.89289e+08
9.53611e+07
2.33126e+07
1.66039e+07
1.16602e+07
8.05753e+06
5.46738e+06
3.63621e+06
2.369e+06
1.51719e+06
969965
609982
142151
8609.64
199.246
2.51919
0.0239733
0.00028049
6.51539e-06
3.72289e-07
4.81658e-08
1.09431e-08
3.61777e-09
1.44897e-09
5.55906e-10
2.60973e-10
1.03873e-10
4.96405e-11
2.22151e-11
8.99853e-12
4.01414e-12
1.73801e-12
-7.30423e-14
3.01899e-13
1.17781e-13
-7.12342e-13
6.50925e-15
0
0
2.72569e-07
0
1.12735e-11
2.82712e-07
5.10633e-11
-1.02535e-10
-2.05394e-10
9.20865e-11
-1.83707e-10
0
2.83208e-07
-2.81299e-07
2.79959e-07
-3.01186e-17
-2.16377e-16
-2.15657e-15
1.27869e-08
3.18635e-07
2.05335e-06
2.8156e-05
0.000332439
0.00336145
0.0284335
0.199523
1.16538
5.72362
23.9559
86.6662
274.612
770.397
1926.37
4295.2
8473.89
14984.6
24560.5
37261.3
53220.1
72761.3
96638.5
126152
163167
210214
270590
348572
449700
581190
752468
975906
1.26779e+06
1.64962e+06
2.14988e+06
2.80638e+06
3.66948e+06
4.80656e+06
6.30802e+06
8.29584e+06
1.09352e+07
1.43572e+07
1.89197e+07
2.52129e+07
3.36856e+07
2.72339e+08
1.9805e+08
2.49517e+07
1.7792e+07
1.25127e+07
8.66116e+06
5.88778e+06
3.92306e+06
2.55965e+06
1.63935e+06
1.04372e+06
675847
198715
15405.5
406.177
5.5725
0.0534281
0.000573016
1.13961e-05
5.55853e-07
6.36059e-08
1.28546e-08
4.2947e-09
1.55737e-09
6.56536e-10
2.87452e-10
1.10074e-10
5.60888e-11
2.23409e-11
1.05686e-11
4.19678e-12
1.74014e-12
5.92064e-12
3.01259e-13
1.29031e-13
4.38358e-12
7.87955e-15
3.67646e-13
0
0
0
0
0
0
0
0
0
2.92932e-07
0
-8.37607e-10
-2.90938e-07
-3.13399e-18
-2.81652e-17
-3.32814e-09
-1.88693e-15
6.68586e-09
2.90629e-07
1.6986e-06