/*--------------------------------*- C++ -*----------------------------------*\
  =========                 |
  \\      /  F ield         | OpenFOAM: The Open Source CFD Toolbox
   \\    /   O peration     | Website:  https://openfoam.org
    \\  /    A nd           | Version:  8
     \\/     M anipulation  |
\*---------------------------------------------------------------------------*/
FoamFile
{
    version     2.0;
    format      ascii;
    class       volScalarField;
    location    "180/fluid";
    object      rDeltaT;
}
// * * * * * * * * * * * * * * * * * * * * * * * * * * * * * * * * * * * * * //

dimensions      [0 0 -1 0 0 0 0];

internalField   nonuniform List<scalar> 
4000
(
512.999
538.189
562.325
585.572
607.949
629.394
649.793
669.011
686.92
703.415
718.44
732.008
744.22
755.285
765.524
775.35
785.077
794.86
804.627
814.051
822.586
829.565
834.326
836.319
835.177
830.755
823.076
812.259
798.512
782.103
763.341
742.551
720.06
696.181
671.209
645.413
619.034
611.477
627.268
646.963
666.851
687.051
707.672
728.813
750.564
773.007
796.212
820.24
845.146
870.97
897.746
925.495
954.227
983.939
1014.61
1046.21
1078.69
1111.97
1145.96
1180.55
1215.61
1250.96
1286.33
1321.64
1356.72
1391.79
8784.94
8278.53
1447.59
1440.14
1426.44
1406.02
1378.67
1344.21
1302.51
1253.61
1197.81
1135.68
1068.08
996.869
925.033
856.417
795.768
747.714
714.615
695.124
685.035
679.601
675.037
669.179
660.97
650.238
637.246
622.395
606.094
588.691
570.432
551.393
531.486
510.64
512.601
537.234
560.697
582.979
604.122
624.081
642.768
660.086
675.96
690.352
703.287
714.871
725.301
734.875
743.982
752.979
762.148
771.62
781.295
790.816
799.608
806.972
812.207
814.723
814.118
810.18
802.862
792.264
778.598
762.153
743.258
722.261
699.506
675.323
650.015
623.859
597.1
589.036
605.297
626.57
647.989
669.671
691.725
714.253
737.347
761.092
785.566
810.837
836.966
864.004
891.994
920.969
950.95
981.947
1013.96
1046.96
1080.92
1115.79
1151.48
1187.89
1224.9
1262.35
1299.91
1337.62
1375.22
1412.8
13106.5
5092.35
1454.79
1441.88
1423.64
1399.2
1367.96
1329.53
1283.63
1230.19
1169.46
1101.88
1028.49
951.793
875.733
805.467
746.424
702.655
674.943
660.312
653.925
651.217
649.057
645.746
640.48
632.906
623.086
611.249
597.682
582.655
566.377
548.912
530.157
510.176
512.008
535.321
557.306
577.98
597.35
615.382
632.013
647.192
660.898
673.157
684.061
693.781
702.571
710.763
718.724
726.788
735.237
744.205
753.595
763.047
771.982
779.687
785.444
788.632
788.787
785.616
779.005
769.014
755.832
739.736
721.05
700.121
677.295
652.906
627.264
600.651
573.32
566.054
584.469
607.794
631.291
655.064
679.215
703.838
729.023
754.854
781.409
808.758
836.967
866.091
896.181
927.278
959.413
992.608
1026.87
1062.19
1098.55
1135.9
1174.15
1213.2
1252.87
1292.88
1332.87
1372.67
1411.55
1448.68
16803.6
1625.72
1481
1459.42
1432.49
1399.67
1360.36
1314.07
1260.5
1199.62
1131.8
1057.63
978.779
898.501
821.399
753.022
698.443
660.354
637.89
627.213
623.571
622.937
622.653
621.306
618.279
613.278
606.243
597.259
586.478
574.069
560.171
544.818
527.92
509.496
511.417
533.533
554.244
573.557
591.492
608.029
623.132
636.776
648.965
659.749
669.237
677.608
685.118
692.094
698.909
705.934
713.463
721.626
730.318
739.169
747.585
754.849
760.233
763.106
763
759.633
752.897
742.841
729.627
713.502
694.762
673.726
650.72
626.059
600.04
572.936
544.992
542.015
566.199
591.596
617.239
643.217
669.622
696.539
724.05
752.236
781.168
810.917
841.546
873.113
905.668
939.253
973.905
1009.64
1046.48
1084.41
1123.4
1163.4
1204.32
1246.03
1288.31
1330.71
1373
1414.62
1454.33
2144.01
14413.4
1528.83
1502.87
1472.35
1436.51
1394.85
1346.93
1292.41
1231.16
1163.39
1089.7
1011.04
929.74
849.559
775.236
711.846
663.446
631.436
613.865
606.537
605.022
605.803
606.667
606.42
604.499
600.696
594.994
587.471
578.241
567.423
555.107
541.291
525.856
508.819
510.776
531.573
550.904
568.778
585.219
600.219
613.751
625.81
636.419
645.648
653.628
660.559
666.716
672.443
678.121
684.126
690.747
698.103
706.076
714.285
722.134
728.897
733.846
736.344
735.915
732.268
725.288
715.007
701.576
685.223
666.228
644.893
621.528
596.431
569.887
542.156
518.266
521.784
548.971
576.412
604.188
632.377
661.059
690.31
720.204
750.813
782.206
814.446
847.593
881.7
916.817
952.982
990.226
1028.57
1068.02
1108.56
1150.15
1192.73
1236.2
1280.41
1325.12
1369.85
1414.54
1458.5
1501.14
8850.14
8308.92
1540.52
1509.55
1472.88
1430.27
1381.51
1326.46
1265.08
1197.52
1124.29
1046.14
964.469
882.136
803.157
732.252
674.02
631.514
604.899
591.379
586.666
586.744
588.609
590.427
591.202
590.443
587.943
583.66
577.636
569.951
560.691
549.925
537.636
523.699
508.115
510.121
529.597
547.575
564.065
579.096
592.666
604.761
615.386
624.578
632.419
639.05
644.68
649.59
654.127
658.674
663.604
669.202
675.58
682.616
689.926
696.913
702.861
707.046
708.84
707.771
703.548
696.048
685.297
671.428
654.654
635.237
613.46
589.613
563.98
536.828
508.404
491.465
503.386
532.373
561.721
591.497
621.769
652.605
684.073
716.239
749.167
782.916
817.545
853.105
889.645
927.205
965.818
1005.51
1046.28
1088.13
1131.04
1174.93
1219.71
1265.24
1311.29
1357.52
1403.39
1448.69
1492.47
1534.12
17663.2
2064.75
1543.01
1506.35
1463.55
1414.77
1359.93
1299.03
1232.21
1159.86
1082.72
1001.7
918.704
836.984
760.687
694.359
641.968
605.509
584.054
574.218
571.781
573.155
575.783
578.167
579.5
579.386
577.66
574.284
569.291
562.738
554.689
545.193
534.221
521.638
507.429
509.448
527.566
544.165
559.256
572.871
585.012
595.675
604.872
612.649
619.099
624.373
628.689
632.335
635.664
639.061
642.896
647.449
652.825
658.89
665.255
671.322
676.376
679.701
680.678
678.839
673.896
665.727
654.35
639.89
622.547
602.568
580.221
555.781
529.514
501.674
472.494
463.588
484.989
515.629
546.727
578.34
610.526
643.345
676.853
711.109
746.167
782.079
818.894
856.655
895.401
935.163
975.96
1017.8
1060.69
1104.59
1149.45
1195.18
1241.66
1288.69
1335.99
1383
1429.29
1474.32
1516.42
2067.73
15041.1
1579.31
1541.68
1498.42
1449.37
1394.62
1334.21
1268.22
1196.95
1120.94
1041.04
958.362
875.232
795.134
722.216
660.727
613.934
582.841
565.669
558.727
558.022
560.381
563.636
566.54
568.421
568.944
567.963
565.444
561.408
555.9
548.968
540.653
530.922
519.635
506.762
508.763
525.508
540.722
554.418
566.629
577.363
586.62
594.42
600.817
605.911
609.86
612.885
615.282
617.403
619.633
622.34
625.795
630.096
635.102
640.421
645.454
649.494
651.834
651.864
649.126
643.338
634.376
622.256
607.096
589.083
568.452
545.457
520.356
493.404
464.838
434.881
434.673
466.167
498.292
530.961
564.222
598.125
632.719
668.053
704.176
741.134
778.97
817.723
857.43
898.117
939.806
982.507
1026.22
1070.92
1116.57
1163.11
1210.42
1258.37
1306.73
1355.23
1403.17
1450.57
1496.51
1540.05
8198.02
9114.73
1565.45
1524.76
1477.96
1425.18
1366.61
1302.49
1233.1
1158.9
1080.65
999.236
916.083
833.888
756.257
687.272
630.814
589.429
563.234
549.802
545.312
546.053
549.217
552.971
556.278
558.582
559.604
559.224
557.413
554.187
549.583
543.641
536.391
527.8
517.725
506.122
508.068
523.421
537.235
549.525
560.326
569.649
577.499
583.903
588.921
592.658
595.277
597.008
598.145
599.045
600.091
601.647
603.979
607.173
611.083
615.311
619.258
622.224
623.511
622.522
618.808
612.093
602.257
589.315
573.377
554.624
533.277
509.58
483.776
456.107
426.798
404.68
413.671
446.53
479.972
514.034
548.753
584.171
620.327
657.264
695.021
733.635
773.141
813.569
854.945
897.288
940.607
984.901
1030.15
1076.34
1123.39
1171.22
1219.72
1268.7
1317.92
1367.06
1415.44
1463.06
1508.99
1552.92
17347.4
2998.94
1542.07
1499.36
1450.11
1394.77
1333.66
1267.1
1195.54
1119.6
1040.18
958.247
875.555
795.06
720.425
655.601
604.055
567.632
545.696
535.378
532.875
534.781
538.617
542.822
546.522
549.247
550.76
550.96
549.822
547.36
543.604
538.588
532.339
524.823
515.899
505.51
507.365
521.31
533.712
544.589
553.975
561.884
568.327
573.336
576.976
579.359
580.65
581.083
580.957
580.626
580.474
580.858
582.036
584.089
586.862
589.952
592.763
594.601
594.781
592.715
587.968
580.27
569.507
555.691
538.929
519.395
497.3
472.876
446.354
417.964
387.919
373.767
391.881
425.823
460.421
495.7
531.691
568.426
605.937
644.257
683.418
723.448
764.373
806.214
848.986
892.698
937.345
982.914
1029.37
1076.67
1124.73
1173.43
1222.62
1272.06
1321.44
1370.24
1417.85
1463.91
1507
1569.55
17010.5
1564.38
1523.59
1476.4
1423.28
1364.56
1300.55
1231.6
1158.16
1080.94
1000.84
918.936
837.248
758.879
687.485
626.831
579.94
548.005
529.772
522.085
521.241
524.132
528.559
533.186
537.265
540.399
542.386
543.139
542.638
540.896
537.939
533.796
528.49
521.99
514.157
504.924
506.654
519.176
530.154
539.606
547.568
554.057
559.088
562.697
564.956
565.979
565.938
565.068
563.67
562.1
560.736
559.932
559.938
560.828
562.436
564.36
566.004
566.682
565.72
562.543
556.728
548.014
536.292
521.574
503.964
483.63
460.774
435.617
408.381
379.283
348.525
342.091
368.989
403.871
439.47
475.802
512.891
550.758
589.43
628.93
669.282
710.507
752.622
795.64
839.567
884.401
930.13
976.729
1024.16
1072.35
1121.22
1170.64
1220.42
1270.34
1320.05
1368.79
1416.22
1461.67
1503.42
3329.41
13723
1544.02
1499.11
1448.68
1392.81
1331.72
1265.71
1195.17
1120.61
1042.79
962.627
881.3
801.086
725.155
657.116
600.519
557.945
530
514.948
509.474
510.024
513.763
518.737
523.785
528.261
531.824
534.298
535.608
535.739
534.702
532.518
529.214
524.812
519.281
512.489
504.363
505.935
517.021
526.564
534.582
541.112
546.173
549.786
551.991
552.864
552.525
551.149
548.972
546.298
543.48
540.895
538.891
537.71
537.417
537.841
538.576
539.031
538.526
536.399
532.091
525.189
515.443
502.748
487.117
468.653
447.517
423.904
398.026
370.094
340.315
309.096
309.95
344.877
380.566
417.024
454.258
492.283
531.115
570.77
611.265
652.617
694.838
737.937
781.92
826.783
872.517
919.101
966.501
1014.67
1063.53
1112.99
1162.92
1213.15
1263.45
1313.52
1362.61
1410.55
1456.86
1500.45
9503.86
8986.08
1511.41
1466.1
1414.85
1358.02
1295.97
1229.1
1157.9
1083.01
1005.26
925.578
845.309
766.924
693.629
628.96
576.234
537.612
513.196
500.885
497.297
499.049
503.551
509.052
514.533
519.431
523.446
526.425
528.304
529.068
528.728
527.302
524.813
521.283
516.684
510.89
503.825
505.21
514.848
522.943
529.518
534.609
538.236
540.425
541.221
540.706
539.001
536.287
532.801
528.847
524.778
520.966
517.753
515.375
513.887
513.114
512.647
511.898
510.198
506.897
501.449
493.455
482.672
469.003
452.462
433.15
411.224
386.871
360.294
331.696
301.272
276.143
283.919
319.477
355.851
393.037
431.035
469.852
509.495
549.975
591.3
633.48
676.519
720.421
765.182
810.792
857.231
904.471
952.467
1001.16
1050.47
1100.29
1150.47
1200.84
1251.14
1301.07
1349.96
1397.57
1443.62
1487.21
14953.8
4518.05
1477.43
1431.59
1379.61
1322.07
1259.42
1192.13
1120.76
1046
968.741
889.918
811.037
734.7
664.117
602.735
553.632
518.582
497.266
487.318
485.352
488.161
493.369
499.394
505.33
510.681
515.18
518.692
521.158
522.565
522.924
522.25
520.562
517.881
514.182
509.349
503.306
504.479
512.657
519.296
524.42
528.064
530.252
531.013
530.398
528.492
525.422
521.369
516.574
511.34
506.017
500.975
496.549
492.967
490.277
488.298
486.621
484.663
481.763
477.286
470.699
461.616
449.804
435.171
417.734
397.592
374.897
349.831
322.587
293.359
262.335
242.684
256.674
292.758
329.704
367.5
406.138
445.616
485.936
527.099
569.108
611.966
655.671
700.219
745.598
791.79
838.77
886.499
934.924
983.975
1033.56
1083.56
1133.81
1184.11
1234.2
1283.76
1332.06
1378.93
1423.9
1465.85
17623.4
2000.75
1444.92
1397.8
1344.79
1286.48
1223.33
1155.81
1084.49
1010.11
933.583
855.839
778.526
704.331
636.438
578.187
532.421
500.57
481.965
474.06
473.506
477.267
483.144
489.7
496.119
501.956
506.972
511.045
514.121
516.188
517.252
517.329
516.433
514.584
511.761
507.86
502.803
503.743
510.451
515.626
519.292
521.484
522.229
521.56
519.533
516.237
511.802
506.413
500.311
493.798
487.223
480.952
475.312
470.523
466.628
463.44
460.55
457.382
453.285
447.638
439.921
429.76
416.934
401.355
383.044
362.097
338.663
312.916
285.044
255.231
223.656
208.79
228.205
264.717
302.132
340.43
379.595
419.619
460.494
502.216
544.784
588.19
632.43
677.491
723.356
770.001
817.391
865.482
914.209
963.494
1013.23
1063.28
1113.47
1163.57
1213.3
1262.23
1309.7
1355.74
1399.21
1438.86
17449.1
1456.51
1414.16
1365.49
1311.26
1252.05
1188.33
1120.6
1049.42
975.544
899.867
823.329
747.686
675.653
610.371
555.058
512.336
483.328
467.089
460.955
461.646
466.283
472.81
479.912
486.845
493.205
498.774
503.439
507.15
509.895
511.677
512.507
512.401
511.373
509.408
506.413
502.315
503.001
508.232
511.937
514.14
514.877
514.177
512.078
508.64
503.956
498.16
491.438
484.034
476.248
468.425
460.927
454.074
448.08
442.979
438.583
434.484
430.11
424.825
418.017
409.185
397.966
384.147
367.647
348.489
326.768
302.63
276.243
247.786
217.436
185.363
174.53
198.52
235.368
273.158
311.859
351.45
391.913
433.236
475.408
518.421
562.264
606.925
652.388
698.631
745.623
793.326
841.688
890.641
940.098
989.947
1040.04
1090.2
1140.18
1189.67
1238.14
1285.02
1330.11
1372.09
1632.31
16822.7
1427.19
1382.61
1332.46
1277.25
1217.45
1153.5
1085.86
1015.1
941.971
867.344
792.173
718.297
648.433
585.667
533.095
493.134
466.647
452.48
447.872
449.677
455.137
462.313
469.984
477.467
484.387
490.544
495.834
500.209
503.652
506.166
507.759
508.441
508.229
507.108
505
501.839
502.256
506.002
508.232
508.97
508.25
506.106
502.578
497.733
491.665
484.514
476.467
467.767
458.714
449.651
440.931
432.87
425.674
419.372
413.772
408.469
402.899
396.436
388.485
378.556
366.301
351.516
334.125
314.153
291.696
266.894
239.91
210.915
180.08
147.565
139.97
167.641
204.74
242.816
281.829
321.75
362.556
404.228
446.75
490.108
534.286
579.268
625.034
671.557
718.804
766.732
815.286
864.394
913.964
963.879
1013.99
1064.11
1113.98
1163.29
1211.38
1257.88
1302.38
1343.55
2326.07
15847.6
1394.83
1349.22
1298.34
1242.67
1182.68
1118.81
1051.54
981.446
909.271
835.869
762.207
690.169
622.459
562.1
512.071
474.606
450.356
438.02
434.724
437.54
443.786
451.616
459.883
467.949
475.467
482.249
488.197
493.262
497.427
500.69
503.056
504.533
505.134
504.849
503.614
501.371
501.508
503.765
504.517
503.788
501.613
498.026
493.074
486.826
479.383
470.885
461.521
451.534
441.224
430.927
420.994
411.731
403.34
395.842
389.045
382.547
375.793
368.169
359.094
348.092
334.828
319.107
300.859
280.111
256.957
231.535
204.001
174.52
143.255
110.357
105.174
135.602
172.871
211.147
250.386
290.549
331.607
373.534
416.311
459.917
504.335
549.543
595.517
642.229
689.643
737.713
786.381
835.574
885.201
935.143
985.251
1035.34
1085.15
1134.37
1182.28
1228.64
1272.98
1313.99
3398.18
14871.6
1358.9
1313.24
1262.4
1206.92
1147.28
1083.94
1017.4
948.265
877.288
805.297
733.273
663.132
597.547
539.473
491.784
456.562
434.302
423.614
421.49
425.225
432.221
440.704
449.588
458.268
466.417
473.857
480.494
486.278
491.189
495.221
498.374
500.654
502.071
502.618
502.248
500.911
500.758
501.523
500.795
498.601
494.973
489.948
483.578
475.936
467.125
457.289
446.619
435.357
423.799
412.28
401.142
390.687
381.107
372.422
364.438
356.756
348.833
340.065
329.888
317.84
303.597
286.973
267.905
246.421
222.615
196.618
168.585
138.671
107.032
100
100
102.443
139.803
178.2
217.58
257.899
299.12
341.213
384.153
427.916
472.479
517.819
563.909
610.719
658.209
706.333
755.034
804.237
853.851
903.761
953.819
1003.84
1053.58
1102.72
1150.53
1196.85
1241.2
1282.35
4535.48
14079.7
1320.81
1275.55
1225.22
1170.35
1111.43
1048.96
983.457
915.533
845.959
775.543
705.271
637.064
573.553
517.627
472.064
438.829
418.322
409.105
408.122
412.71
420.423
429.558
439.073
448.393
457.203
465.333
472.69
479.223
484.906
489.728
493.686
496.782
499.022
500.403
500.894
500.455
500.007
499.279
497.073
493.416
488.34
481.884
474.103
465.075
454.907
443.746
431.781
419.256
406.463
393.732
381.4
369.762
359.003
349.139
339.978
331.126
322.048
312.157
300.902
287.836
272.647
255.157
235.309
213.133
188.72
162.201
133.721
103.431
100
100
100
100
105.59
144.029
183.469
223.859
265.156
307.326
350.338
394.164
438.78
484.157
530.268
577.078
624.55
672.636
721.276
770.397
819.91
869.699
919.62
969.487
1019.07
1068.05
1115.7
1161.91
1206.21
1247.42
5242.98
13642.4
1282.15
1237.44
1187.77
1133.69
1075.69
1014.28
949.984
883.437
815.407
746.686
678.248
611.99
550.487
496.554
452.885
421.365
402.34
394.353
394.49
399.92
408.333
418.119
428.284
438.271
447.777
456.634
464.748
472.062
478.548
484.187
488.971
492.9
495.975
498.195
499.546
500.001
500.006
499.277
497.07
493.411
488.333
481.875
474.093
465.063
454.894
443.73
431.764
419.238
406.443
393.711
381.378
369.739
358.98
349.115
339.954
331.101
322.024
312.133
300.879
287.814
272.625
255.137
235.29
213.115
188.704
162.186
133.707
103.417
100
100
100
100
105.599
144.039
183.479
223.869
265.166
307.336
350.347
394.173
438.787
484.163
530.273
577.083
624.553
672.637
721.275
770.396
819.907
869.694
919.613
969.479
1019.06
1068.04
1115.69
1161.9
1206.21
1247.41
5248.23
13637
1282.13
1237.43
1187.76
1133.68
1075.69
1014.28
949.992
883.449
815.423
746.706
678.271
612.015
550.514
496.582
452.914
421.394
402.369
394.381
394.515
399.946
408.356
418.14
428.303
438.289
447.793
456.648
464.76
472.073
478.558
484.195
488.979
492.906
495.98
498.199
499.547
500
500.756
501.518
500.788
498.59
494.959
489.931
483.557
475.911
467.097
457.258
446.585
435.32
423.759
412.237
401.097
390.64
381.059
372.372
364.387
356.705
348.781
340.014
329.838
317.791
303.55
286.928
267.862
246.38
222.576
196.581
168.549
138.637
106.998
100
100
102.47
139.832
178.231
217.612
257.931
299.152
341.245
384.184
427.946
472.508
517.846
563.934
610.741
658.229
706.35
755.048
804.248
853.859
903.765
953.819
1003.83
1053.57
1102.71
1150.52
1196.84
1241.21
1282.35
4549.74
14064.6
1320.77
1275.53
1225.2
1170.34
1111.43
1048.96
983.466
915.548
845.98
775.569
705.302
637.1
573.594
517.671
472.113
438.882
418.379
409.162
408.175
412.761
420.471
429.602
439.113
448.428
457.235
465.362
472.716
479.245
484.926
489.745
493.701
496.794
499.033
500.41
500.895
500.453
501.506
503.761
504.509
503.777
501.598
498.008
493.053
486.801
479.354
470.853
461.485
451.496
441.182
430.882
420.946
411.682
403.288
395.788
388.99
382.491
375.737
368.112
359.037
348.036
334.772
319.052
300.805
280.058
256.905
231.483
203.95
174.47
143.204
110.306
105.172
135.651
172.922
211.201
250.441
290.605
331.664
373.592
416.368
459.974
504.391
549.598
595.57
642.281
689.692
737.759
786.424
835.614
885.237
935.175
985.279
1035.36
1085.17
1134.39
1182.3
1228.66
1273.01
1314
3414.13
14851.5
1358.88
1313.23
1262.4
1206.92
1147.27
1083.93
1017.39
948.26
877.286
805.298
733.277
663.14
597.56
539.493
491.813
456.601
434.349
423.666
421.543
425.277
432.27
440.75
449.629
458.305
466.45
473.887
480.52
486.301
491.209
495.238
498.388
500.666
502.081
502.625
502.249
500.909
502.255
505.998
508.225
508.959
508.236
506.088
502.557
497.707
491.636
484.482
476.431
467.727
458.671
449.604
440.881
432.818
425.619
419.315
413.713
408.409
402.837
396.373
388.422
378.493
366.237
351.452
334.061
314.089
291.632
266.829
239.844
210.849
180.013
147.496
139.968
167.712
204.814
242.893
281.908
321.832
362.639
404.312
446.835
490.192
534.37
579.352
625.116
671.638
718.883
766.809
815.36
864.464
914.031
963.942
1014.05
1064.16
1114.03
1163.33
1211.42
1257.9
1302.4
1343.55
2336.16
15826.6
1394.85
1349.24
1298.34
1242.66
1182.66
1118.78
1051.51
981.408
909.234
835.834
762.174
690.141
622.439
562.091
512.077
474.629
450.392
438.067
434.776
437.592
443.836
451.663
459.926
467.988
475.501
482.28
488.224
493.285
497.447
500.708
503.071
504.546
505.145
504.855
503.615
501.37
503
508.227
511.93
514.13
514.863
514.159
512.056
508.614
503.926
498.127
491.401
483.993
476.203
468.377
460.875
454.02
448.023
442.92
438.522
434.42
430.045
424.757
417.948
409.114
397.894
384.074
367.573
348.413
326.692
302.552
276.163
247.704
217.352
185.277
174.53
198.613
235.466
273.259
311.964
351.557
392.023
433.347
475.521
518.535
562.378
607.04
652.502
698.744
745.735
793.436
841.795
890.746
940.2
990.045
1040.14
1090.29
1140.26
1189.75
1238.21
1285.08
1330.15
1372.1
1636.21
16815.9
1427.23
1382.61
1332.42
1277.19
1217.38
1153.42
1085.77
1015.02
941.887
867.263
792.098
718.229
648.376
585.626
533.075
493.137
466.672
452.521
447.922
449.73
455.188
462.36
470.028
477.506
484.422
490.575
495.861
500.232
503.672
506.183
507.773
508.454
508.239
507.114
505.001
501.837
503.741
510.447
515.62
519.283
521.471
522.212
521.539
519.508
516.207
511.769
506.375
500.269
493.752
487.174
480.899
475.256
470.464
466.566
463.375
460.483
457.312
453.213
447.563
439.844
429.681
416.853
401.272
382.958
362.009
338.572
312.823
284.948
255.132
223.553
208.793
228.322
264.839
302.259
340.561
379.73
419.756
460.634
502.359
544.927
588.335
632.576
677.637
723.502
770.146
817.536
865.625
914.352
963.635
1013.37
1063.42
1113.6
1163.7
1213.43
1262.36
1309.82
1355.84
1399.27
1438.88
17449
1456.47
1414.07
1365.38
1311.15
1251.93
1188.21
1120.47
1049.3
975.422
899.748
823.213
747.577
675.557
610.295
555.009
512.318
483.338
467.122
461.001
461.697
466.334
472.858
479.956
486.885
493.24
498.805
503.466
507.174
509.915
511.694
512.522
512.413
511.383
509.414
506.413
502.314
504.478
512.653
519.29
524.411
528.051
530.235
530.993
530.374
528.463
525.389
521.331
516.532
511.294
505.967
500.922
496.492
492.907
490.214
488.232
486.551
484.59
481.687
477.207
470.617
461.53
449.715
435.078
417.638
397.493
374.794
349.724
322.476
293.244
262.215
242.689
256.815
292.905
329.857
367.657
406.3
445.782
486.105
527.271
569.283
612.143
655.85
700.398
745.778
791.971
838.951
886.68
935.105
984.155
1033.74
1083.74
1133.99
1184.29
1234.38
1283.94
1332.21
1379.06
1424
1465.91
17621.9
1988.2
1444.78
1397.65
1344.63
1286.32
1223.17
1155.65
1084.34
1009.95
933.425
855.682
778.375
704.193
636.323
578.104
532.377
500.563
481.987
474.1
473.555
477.317
483.192
489.744
496.158
501.991
507.003
511.072
514.144
516.207
517.269
517.342
516.444
514.593
511.766
507.86
502.802
505.209
514.844
522.938
529.51
534.597
538.221
540.405
541.198
540.678
538.969
536.25
532.76
528.801
524.727
520.912
517.695
515.313
513.822
513.046
512.575
511.822
510.118
506.813
501.361
493.362
482.576
468.902
452.357
433.041
411.11
386.752
360.17
331.566
301.136
276.152
284.085
319.65
356.03
393.222
431.226
470.047
509.695
550.178
591.507
633.689
676.732
720.636
765.398
811.009
857.449
904.689
952.686
1001.38
1050.69
1100.51
1150.69
1201.05
1251.35
1301.27
1350.15
1397.73
1443.76
1487.33
14992.3
4471.88
1477.25
1431.39
1379.4
1321.86
1259.21
1191.92
1120.55
1045.79
968.53
889.71
810.835
734.514
663.957
602.613
553.555
518.552
497.274
487.35
485.397
488.21
493.417
499.438
505.37
510.716
515.21
518.718
521.18
522.584
522.94
522.263
520.573
517.889
514.186
509.35
503.305
505.934
517.019
526.559
534.574
541.102
546.159
549.768
551.969
552.837
552.494
551.112
548.931
546.252
543.43
540.841
538.832
537.648
537.351
537.772
538.503
538.953
538.443
536.312
531.999
525.092
515.34
502.639
487.003
468.533
447.391
423.773
397.888
369.949
340.163
309.109
310.142
345.076
380.773
417.237
454.478
492.509
531.345
571.005
611.504
652.86
695.084
738.186
782.171
827.037
872.772
919.357
966.758
1014.92
1063.79
1113.25
1163.18
1213.41
1263.71
1313.78
1362.89
1410.84
1457.17
1500.82
9644.73
8878.17
1511.07
1465.81
1414.59
1357.78
1295.73
1228.86
1157.66
1082.76
1005.01
925.325
845.058
766.688
693.419
628.792
576.119
537.553
513.185
500.907
497.337
499.095
503.598
509.096
514.572
519.465
523.476
526.451
528.326
529.086
528.743
527.314
524.823
521.29
516.687
510.89
503.824
506.653
519.174
530.15
539.6
547.559
554.045
559.072
562.677
564.931
565.949
565.903
565.029
563.626
562.05
560.682
559.874
559.876
560.762
562.366
564.285
565.925
566.598
565.63
562.447
556.625
547.906
536.177
521.452
503.835
483.494
460.631
435.466
408.223
379.116
348.35
342.109
369.215
404.105
439.711
476.051
513.146
551.019
589.696
629.201
669.558
710.787
752.906
795.926
839.855
884.691
930.421
977.02
1024.45
1072.64
1121.5
1170.92
1220.7
1270.61
1320.31
1369.05
1416.48
1461.92
1503.64
3392.01
13627.1
1543.97
1499.02
1448.56
1392.65
1331.52
1265.48
1194.91
1120.33
1042.5
962.326
880.996
800.792
724.888
656.895
600.359
557.852
529.966
514.957
509.507
510.067
513.808
518.781
523.824
528.296
531.854
534.323
535.63
535.756
534.716
532.53
529.222
524.817
519.284
512.49
504.363
507.365
521.308
533.709
544.584
553.967
561.873
568.313
573.318
576.953
579.331
580.617
581.045
580.914
580.578
580.421
580.801
581.975
584.024
586.792
589.877
592.683
594.516
594.689
592.616
587.861
580.156
569.385
555.561
538.792
519.25
497.147
472.713
446.183
417.783
387.728
373.79
392.135
426.085
460.691
495.978
531.976
568.717
606.234
644.56
683.726
723.761
764.69
806.534
849.31
893.023
937.671
983.241
1029.7
1077
1125.05
1173.75
1222.92
1272.35
1321.72
1370.49
1418.06
1464.08
1507.1
1574.85
16983.1
1564.48
1523.56
1476.29
1423.11
1364.34
1300.3
1231.31
1157.84
1080.6
1000.49
918.573
836.891
758.549
687.203
626.617
579.804
547.942
529.764
522.11
521.282
524.176
528.603
533.225
537.3
540.429
542.411
543.16
542.655
540.91
537.95
533.803
528.494
521.992
514.157
504.924
508.068
523.42
537.233
549.521
560.32
569.64
577.487
583.887
588.9
592.633
595.247
596.972
598.104
598.999
600.041
601.592
603.919
607.109
611.014
615.237
619.178
622.138
623.418
622.42
618.698
611.975
602.131
589.179
573.232
554.469
533.114
509.406
483.592
455.913
426.593
404.709
413.951
446.819
480.27
514.34
549.067
584.492
620.655
657.598
695.36
733.979
773.49
813.923
855.303
897.649
940.97
985.266
1030.52
1076.7
1123.75
1171.58
1220.07
1269.04
1318.24
1367.34
1415.67
1463.23
1509.07
1552.89
17375.8
2948.37
1541.92
1499.15
1449.86
1394.49
1333.34
1266.76
1195.17
1119.21
1039.77
957.822
875.133
794.663
720.077
655.327
603.87
567.534
545.667
535.393
532.912
534.826
538.661
542.863
546.558
549.277
550.786
550.981
549.838
547.373
543.614
538.594
532.342
524.825
515.9
505.51
508.763
525.508
540.721
554.416
566.625
577.356
586.61
594.406
600.799
605.889
609.832
612.853
615.244
617.359
619.585
622.287
625.737
630.034
635.035
640.348
645.375
649.408
651.74
651.761
649.014
643.216
634.245
622.115
606.944
588.921
568.279
545.273
520.161
493.197
464.619
434.788
434.848
466.483
498.617
531.294
564.564
598.474
633.075
668.416
704.544
741.508
779.349
818.107
857.818
898.509
940.201
982.904
1026.62
1071.32
1116.97
1163.5
1210.82
1258.76
1307.13
1355.63
1403.59
1451.01
1496.97
1540.57
8406.26
8961.35
1564.93
1524.31
1477.55
1424.79
1366.22
1302.09
1232.68
1158.46
1080.18
998.753
915.598
833.424
755.841
686.933
630.574
589.291
563.182
549.806
545.346
546.099
549.263
553.014
556.315
558.613
559.63
559.245
557.429
554.199
549.591
543.646
536.393
527.801
517.726
506.123
509.448
527.567
544.165
559.256
572.869
585.009
595.669
604.862
612.635
619.08
624.349
628.659
632.3
635.623
639.015
642.846
647.395
652.766
658.825
665.185
671.245
676.291
679.608
680.575
678.726
673.772
665.592
654.204
639.732
622.378
602.387
580.028
555.575
529.296
501.443
472.25
463.627
485.331
515.98
547.087
578.708
610.901
643.727
677.242
711.504
746.568
782.486
819.305
857.071
895.821
935.585
976.386
1018.23
1061.11
1105.01
1149.87
1195.6
1242.07
1289.08
1336.37
1383.36
1429.64
1474.66
1516.72
2113.05
14940.8
1579.23
1541.49
1498.17
1449.08
1394.29
1333.83
1267.8
1196.49
1120.45
1040.52
957.831
874.712
794.656
721.814
660.43
613.751
582.761
565.661
558.759
558.069
560.431
563.682
566.58
568.455
568.971
567.985
565.46
561.42
555.907
548.972
540.654
530.922
519.636
506.763
510.122
529.599
547.578
564.067
579.097
592.665
604.758
615.38
624.568
632.404
639.03
644.655
649.56
654.091
658.633
663.558
669.151
675.525
682.555
689.859
696.839
702.778
706.954
708.738
707.658
703.422
695.911
685.146
671.265
654.479
635.048
613.258
589.398
563.751
536.586
508.149
491.51
503.752
532.749
562.105
591.888
622.168
653.011
684.486
716.658
749.592
783.347
817.98
853.545
890.089
927.653
966.269
1005.96
1046.74
1088.59
1131.49
1175.37
1220.15
1265.66
1311.68
1357.87
1403.69
1448.91
1492.59
1534.08
17658.6
2030.88
1542.89
1506.14
1463.25
1414.41
1359.53
1298.58
1231.72
1159.33
1082.16
1001.13
918.133
836.448
760.223
694.001
641.736
605.396
584.031
574.248
571.832
573.21
575.834
578.211
579.536
579.415
577.681
574.3
569.301
562.744
554.691
545.192
534.22
521.638
507.431
510.778
531.576
550.908
568.782
585.223
600.221
613.752
625.807
636.412
645.638
653.613
660.539
666.691
672.411
678.085
684.085
690.701
698.052
706.019
714.223
722.063
728.818
733.756
736.243
735.802
732.143
725.149
714.854
701.409
685.042
666.033
644.684
621.304
596.193
569.635
541.89
518.317
522.173
549.369
576.818
604.602
632.798
661.486
690.743
720.643
751.258
782.655
814.9
848.051
882.163
917.283
953.451
990.698
1029.04
1068.49
1109.03
1150.63
1193.21
1236.68
1280.89
1325.6
1370.34
1415.04
1459.03
1501.75
9090.33
8151.41
1539.93
1509.03
1472.4
1429.8
1381.04
1325.97
1264.56
1196.97
1123.71
1045.54
963.859
881.55
802.633
731.832
673.732
631.362
604.856
591.404
586.721
586.806
588.666
590.475
591.242
590.473
587.965
583.674
577.645
569.955
560.691
549.922
537.633
523.699
508.116
511.419
533.537
554.25
573.563
591.498
608.035
623.137
636.778
648.964
659.744
669.228
677.594
685.099
692.069
698.879
705.899
713.423
721.582
730.268
739.111
747.52
754.774
760.147
763.008
762.889
759.507
752.757
742.686
729.457
713.317
694.561
673.509
650.488
625.812
599.779
572.66
544.701
542.069
566.617
592.022
617.671
643.656
670.067
696.989
724.506
752.695
781.632
811.386
842.018
873.588
906.146
939.734
974.387
1010.13
1046.97
1084.9
1123.89
1163.89
1204.81
1246.52
1288.8
1331.2
1373.44
1415.02
1454.66
2204.15
14290.6
1528.7
1502.65
1472.05
1436.16
1394.45
1346.48
1291.91
1230.62
1162.81
1089.08
1010.41
929.116
848.983
774.754
711.498
663.247
631.366
613.881
606.595
605.088
605.865
606.718
606.46
604.528
600.716
595.006
587.477
578.242
567.42
555.102
541.287
525.856
508.821
512.01
535.326
557.313
577.988
597.36
615.391
632.022
647.199
660.902
673.158
684.058
693.773
702.558
710.745
718.701
726.76
735.204
744.167
753.551
762.997
771.922
779.618
785.363
788.538