/*--------------------------------*- C++ -*----------------------------------*\
  =========                 |
  \\      /  F ield         | OpenFOAM: The Open Source CFD Toolbox
   \\    /   O peration     | Website:  https://openfoam.org
    \\  /    A nd           | Version:  8
     \\/     M anipulation  |
\*---------------------------------------------------------------------------*/
FoamFile
{
    version     2.0;
    format      ascii;
    class       volScalarField;
    location    "180/fluid";
    object      rho;
}
// * * * * * * * * * * * * * * * * * * * * * * * * * * * * * * * * * * * * * //

dimensions      [1 -3 0 0 0 0 0];

internalField   nonuniform List<scalar> 
4000
(
0.658527
0.658505
0.658469
0.658408
0.658307
0.65814
0.657867
0.657424
0.656713
0.655587
0.653829
0.651135
0.647099
0.641211
0.632891
0.62157
0.60682
0.588505
0.566899
0.542689
0.516863
0.490497
0.464559
0.439782
0.416626
0.395315
0.375888
0.358274
0.342335
0.327906
0.314818
0.30291
0.292038
0.282073
0.272907
0.264448
0.256618
0.249345
0.242542
0.236156
0.230146
0.224474
0.219112
0.214031
0.20921
0.20463
0.200272
0.196125
0.192175
0.188414
0.184833
0.181427
0.178189
0.175117
0.172209
0.169466
0.166888
0.16448
0.162249
0.160206
0.158366
0.156751
0.155415
0.154353
0.153653
0.153408
0.153768
0.159007
0.168669
0.18005
0.193437
0.209213
0.227879
0.250095
0.276727
0.308907
0.348114
0.396319
0.456137
0.530246
0.620498
0.726119
0.840916
0.951983
1.04403
1.10828
1.14646
1.16634
1.17594
1.18036
1.18232
1.18318
1.18355
1.18371
1.18377
1.1838
1.18381
1.18382
1.18382
1.18382
0.658527
0.658505
0.658468
0.658405
0.658302
0.65813
0.657849
0.657393
0.65666
0.655499
0.653689
0.650922
0.646787
0.640776
0.632316
0.620852
0.605978
0.587578
0.565939
0.54175
0.515985
0.489702
0.463852
0.439155
0.416065
0.394802
0.375412
0.357822
0.3419
0.327483
0.314404
0.302502
0.291635
0.281676
0.272515
0.264061
0.256237
0.248968
0.242168
0.235786
0.22978
0.224113
0.218755
0.213679
0.208863
0.204287
0.199935
0.195793
0.19185
0.188095
0.18452
0.18112
0.17789
0.174827
0.171928
0.169195
0.166628
0.164234
0.162019
0.159994
0.158174
0.156583
0.155273
0.154227
0.15352
0.153218
0.153409
0.160353
0.170343
0.182116
0.195988
0.21238
0.23184
0.255094
0.283097
0.317108
0.358767
0.410306
0.474548
0.554141
0.650426
0.761107
0.877421
0.984404
1.06782
1.12275
1.15394
1.16985
1.17749
1.18101
1.1826
1.18329
1.1836
1.18373
1.18378
1.1838
1.18381
1.18382
1.18382
1.18382
0.658527
0.658504
0.658466
0.658402
0.658295
0.658118
0.657828
0.657357
0.6566
0.655404
0.653542
0.650701
0.646468
0.640332
0.631723
0.620098
0.605064
0.586529
0.564795
0.540564
0.514807
0.488572
0.462792
0.438173
0.415159
0.393963
0.374627
0.357082
0.341193
0.326802
0.313742
0.301855
0.290999
0.281048
0.271894
0.263447
0.255629
0.248364
0.241568
0.235189
0.229186
0.223523
0.218169
0.213097
0.208286
0.203716
0.19937
0.195234
0.191298
0.187551
0.183986
0.180597
0.177378
0.174328
0.171444
0.168728
0.166183
0.163813
0.161627
0.15964
0.157868
0.156348
0.155119
0.154186
0.153636
0.153543
0.153996
0.162755
0.173222
0.185593
0.200211
0.217534
0.238168
0.262913
0.292823
0.329274
0.374057
0.429618
0.498747
0.583678
0.68467
0.797465
0.911243
1.01095
1.08519
1.13244
1.15876
1.1721
1.1785
1.18146
1.18279
1.18338
1.18363
1.18374
1.18379
1.18381
1.18382
1.18382
1.18382
1.18382
0.658527
0.658503
0.658464
0.658398
0.658289
0.658107
0.65781
0.657327
0.656552
0.655328
0.653426
0.650528
0.646216
0.639976
0.631241
0.619469
0.604281
0.585598
0.563742
0.539425
0.513623
0.48738
0.461622
0.437044
0.414079
0.392936
0.37365
0.356149
0.340299
0.32594
0.312906
0.30104
0.290201
0.280264
0.271121
0.262683
0.254875
0.247615
0.240822
0.234447
0.228447
0.222787
0.217437
0.212369
0.207563
0.202998
0.198658
0.19453
0.190602
0.186864
0.18331
0.179933
0.176728
0.173694
0.170829
0.168134
0.165614
0.163274
0.161126
0.159185
0.157475
0.156062
0.154953
0.154207
0.153976
0.154453
0.156359
0.165747
0.176863
0.189998
0.205535
0.223984
0.246012
0.2725
0.304601
0.343813
0.392101
0.452074
0.526372
0.616681
0.721977
0.83593
0.945957
1.03755
1.10245
1.14214
1.16365
1.17441
1.17954
1.18192
1.18299
1.18346
1.18367
1.18376
1.18379
1.18381
1.18382
1.18382
1.18382
1.18382
0.658527
0.658503
0.658462
0.658395
0.658283
0.658097
0.657793
0.657299
0.656507
0.655256
0.653314
0.650357
0.645964
0.639617
0.630746
0.618817
0.60346
0.584614
0.562616
0.538195
0.512333
0.486072
0.460329
0.435788
0.412873
0.391783
0.37255
0.355098
0.339291
0.324968
0.311965
0.300125
0.289307
0.279387
0.270259
0.261834
0.254037
0.246783
0.239995
0.233624
0.227627
0.221971
0.216624
0.211561
0.206759
0.202199
0.197866
0.193745
0.189825
0.186098
0.182556
0.179192
0.176003
0.172987
0.170142
0.167471
0.164977
0.162669
0.160556
0.158656
0.156994
0.155632
0.154555
0.153858
0.153631
0.154017
0.159353
0.16929
0.181084
0.195043
0.211584
0.231264
0.254815
0.283198
0.317668
0.359837
0.411873
0.476438
0.555878
0.651123
0.759596
0.872923
0.977466
1.0603
1.11647
1.14975
1.16741
1.17618
1.18035
1.18227
1.18314
1.18353
1.18369
1.18377
1.1838
1.18381
1.18382
1.18382
1.18382
1.18382
0.658526
0.658502
0.658461
0.658392
0.658278
0.658088
0.657778
0.657274
0.656466
0.655191
0.653212
0.650202
0.645733
0.639284
0.630284
0.618199
0.602671
0.583652
0.561499
0.536957
0.511017
0.48472
0.458978
0.434464
0.411594
0.390555
0.371376
0.353974
0.338213
0.323931
0.310963
0.299153
0.28836
0.27846
0.26935
0.260941
0.253156
0.245912
0.23913
0.232763
0.226771
0.221119
0.215777
0.210718
0.205921
0.201367
0.19704
0.192927
0.189017
0.185301
0.181771
0.178422
0.17525
0.172253
0.169431
0.166787
0.164324
0.162052
0.159983
0.158136
0.156543
0.15525
0.154241
0.153602
0.15339
0.153659
0.16238
0.172994
0.185555
0.200412
0.218028
0.239014
0.26417
0.294541
0.331484
0.37674
0.432663
0.501853
0.586263
0.685885
0.79646
0.907787
1.0059
1.08004
1.12831
1.15608
1.17053
1.17765
1.18102
1.18257
1.18327
1.18358
1.18372
1.18378
1.1838
1.18381
1.18382
1.18382
1.18382
1.18382
0.658526
0.658501
0.65846
0.65839
0.658273
0.65808
0.657763
0.65725
0.656427
0.655128
0.653114
0.650051
0.645508
0.638958
0.629827
0.617586
0.601883
0.582688
0.560376
0.535708
0.509683
0.483346
0.457602
0.433113
0.410285
0.389298
0.370172
0.352822
0.33711
0.32287
0.30994
0.298161
0.287395
0.277519
0.268429
0.260037
0.252268
0.245032
0.238258
0.231898
0.225912
0.220265
0.214928
0.209874
0.205083
0.200535
0.196216
0.192112
0.188212
0.184507
0.180991
0.177657
0.174504
0.171528
0.16873
0.166114
0.163685
0.161454
0.159435
0.157652
0.156169
0.155005
0.154201
0.153913
0.154334
0.156092
0.165607
0.176885
0.190214
0.205981
0.22469
0.247008
0.273802
0.306204
0.345665
0.394082
0.453932
0.527648
0.616687
0.719932
0.831399
0.939441
1.03051
1.09641
1.13782
1.16104
1.17296
1.17878
1.18153
1.1828
1.18337
1.18363
1.18374
1.18379
1.18381
1.18382
1.18382
1.18382
1.18382
1.18382
0.658526
0.658501
0.658458
0.658387
0.658268
0.658072
0.65775
0.657227
0.65639
0.655069
0.65302
0.649907
0.645292
0.638643
0.629385
0.616989
0.601114
0.581743
0.559271
0.534473
0.508362
0.481981
0.456231
0.431766
0.408978
0.388042
0.36897
0.351673
0.33601
0.321814
0.308922
0.297177
0.28644
0.276589
0.26752
0.259147
0.251395
0.244169
0.237404
0.231052
0.225072
0.219432
0.214101
0.209054
0.204269
0.199729
0.195418
0.191323
0.187433
0.183741
0.180239
0.176922
0.173787
0.170833
0.16806
0.165472
0.163075
0.160879
0.158901
0.157161
0.155739
0.154597
0.153845
0.153584
0.153979
0.158985
0.168988
0.180871
0.194934
0.211588
0.231378
0.25502
0.283449
0.317877
0.359851
0.411434
0.475144
0.553168
0.646366
0.752401
0.863651
0.967502
1.05144
1.10985
1.14544
1.16495
1.17486
1.17967
1.18194
1.18298
1.18345
1.18366
1.18375
1.18379
1.18381
1.18382
1.18382
1.18382
1.18382
1.18382
0.658526
0.6585
0.658457
0.658385
0.658264
0.658064
0.657737
0.657206
0.656355
0.655013
0.652931
0.649769
0.645084
0.638339
0.628956
0.61641
0.600366
0.580822
0.558192
0.533268
0.507072
0.480649
0.454893
0.43045
0.407703
0.386817
0.367798
0.350553
0.334938
0.320787
0.307934
0.296223
0.285515
0.275689
0.266643
0.258291
0.250555
0.243341
0.236586
0.230242
0.224271
0.218637
0.213313
0.208273
0.203496
0.198964
0.194662
0.190577
0.186699
0.18302
0.179533
0.176233
0.173118
0.170186
0.167439
0.164881
0.162519
0.160364
0.158432
0.156746
0.15537
0.154255
0.153491
0.153127
0.153221
0.161561
0.172164
0.184703
0.199518
0.217061
0.23792
0.262867
0.292905
0.329323
0.37377
0.428462
0.495873
0.577899
0.674705
0.782684
0.892758
0.991852
1.06891
1.12071
1.15146
1.16801
1.17634
1.18036
1.18225
1.18312
1.18351
1.18369
1.18376
1.1838
1.18381
1.18382
1.18382
1.18382
1.18382
1.18382
0.658526
0.6585
0.658456
0.658383
0.65826
0.658057
0.657725
0.657186
0.656322
0.654959
0.652846
0.649637
0.644885
0.638048
0.628546
0.615855
0.599648
0.579939
0.557157
0.532111
0.505833
0.47937
0.453609
0.429187
0.40648
0.385643
0.366675
0.349482
0.333915
0.319808
0.306993
0.295315
0.284637
0.274837
0.265814
0.257481
0.249763
0.242561
0.235816
0.229481
0.223518
0.217893
0.212577
0.207545
0.202775
0.198252
0.193959
0.189885
0.186019
0.182353
0.178881
0.175599
0.172504
0.169596
0.166876
0.164351
0.162028
0.159922
0.158053
0.156469
0.155209
0.154275
0.153793
0.153884
0.154762
0.164164
0.175299
0.188446
0.203972
0.222361
0.244246
0.270449
0.302037
0.340374
0.38722
0.444898
0.515786
0.601439
0.701261
0.810393
0.918554
1.01266
1.08334
1.12944
1.15622
1.17041
1.17749
1.1809
1.1825
1.18323
1.18356
1.18371
1.18377
1.1838
1.18381
1.18382
1.18382
1.18382
1.18382
1.18382
0.658526
0.658499
0.658455
0.65838
0.658256
0.658051
0.657714
0.657167
0.656291
0.654908
0.652765
0.649512
0.644696
0.637772
0.628157
0.615328
0.598967
0.579101
0.556177
0.531017
0.504663
0.478162
0.452397
0.427998
0.405328
0.384538
0.365621
0.348476
0.332955
0.318889
0.306112
0.294467
0.283817
0.274042
0.265041
0.25673
0.249027
0.241837
0.235103
0.228778
0.222825
0.217208
0.2119
0.206876
0.202115
0.197601
0.193318
0.189254
0.1854
0.181748
0.178291
0.175025
0.171949
0.169062
0.166367
0.16387
0.161581
0.159515
0.157697
0.156205
0.155039
0.154245
0.153985
0.15445
0.156994
0.166762
0.178347
0.192035
0.208213
0.227393
0.250243
0.277635
0.310692
0.35085
0.399983
0.46048
0.534569
0.623438
0.725693
0.835298
0.941046
1.03021
1.09514
1.13643
1.15997
1.17228
1.17839
1.18132
1.18269
1.18331
1.1836
1.18372
1.18378
1.1838
1.18381
1.18382
1.18382
1.18382
1.18382
1.18382
0.658526
0.658499
0.658454
0.658378
0.658253
0.658044
0.657703
0.657149
0.656261
0.654861
0.65269
0.649396
0.644521
0.637515
0.627794
0.614836
0.598332
0.578321
0.555264
0.529999
0.503575
0.47704
0.451274
0.426896
0.404263
0.383516
0.364646
0.347548
0.33207
0.318044
0.305301
0.293687
0.283065
0.273314
0.264334
0.256042
0.248355
0.241178
0.234454
0.228139
0.222195
0.216587
0.211287
0.206271
0.20152
0.197014
0.192741
0.188689
0.184846
0.181207
0.177765
0.174515
0.171456
0.168588
0.165913
0.163438
0.161171
0.159126
0.157327
0.155849
0.154682
0.153855
0.153495
0.15373
0.158975
0.169135
0.181161
0.195361
0.21215
0.232067
0.255818
0.28432
0.318751
0.36061
0.411887
0.474987
0.551975
0.643638
0.747789
0.857324
0.960388
1.04487
1.10475
1.14201
1.16293
1.17375
1.17909
1.18164
1.18283
1.18338
1.18363
1.18374
1.18379
1.18381
1.18382
1.18382
1.18382
1.18382
1.18382
1.18382
0.658526
0.658499
0.658453
0.658377
0.658249
0.658039
0.657693
0.657133
0.656235
0.654818
0.652622
0.649289
0.644359
0.637279
0.62746
0.614386
0.59775
0.577606
0.554429
0.529069
0.502582
0.476019
0.450251
0.425893
0.403294
0.382589
0.363762
0.346707
0.331269
0.317279
0.304569
0.292984
0.282386
0.272658
0.263699
0.255425
0.247752
0.240586
0.233873
0.227568
0.221633
0.216033
0.210742
0.205735
0.200992
0.196496
0.192233
0.188191
0.184361
0.180734
0.177306
0.174073
0.171031
0.168183
0.165529
0.163075
0.160832
0.158812
0.157036
0.155569
0.154403
0.153558
0.153143
0.153272
0.160796
0.171295
0.183717
0.198387
0.215736
0.236332
0.260914
0.290438
0.326136
0.369567
0.42282
0.488286
0.567855
0.661903
0.767475
0.876541
0.976837
1.05701
1.11254
1.14646
1.16526
1.1749
1.17964
1.1819
1.18295
1.18343
1.18365
1.18375
1.18379
1.18381
1.18382
1.18382
1.18382
1.18382
1.18382
1.18382
0.658526
0.658498
0.658452
0.658375
0.658247
0.658034
0.657685
0.657118
0.656211
0.654779
0.65256
0.649193
0.644214
0.637066
0.627161
0.61398
0.597228
0.576965
0.553681
0.528237
0.501695
0.475106
0.449339
0.425
0.402432
0.381764
0.362976
0.345959
0.330558
0.3166
0.30392
0.292361
0.281786
0.272079
0.263138
0.254881
0.247221
0.240066
0.233363
0.227068
0.221141
0.215549
0.210266
0.205268
0.200533
0.196047
0.191793
0.187762
0.183944
0.180331
0.176918
0.173701
0.170678
0.167851
0.165222
0.162797
0.160587
0.158606
0.156873
0.155463
0.154323
0.153548
0.153215
0.153446
0.162354
0.173187
0.185985
0.201089
0.218952
0.240167
0.265503
0.295958
0.332806
0.377668
0.432713
0.500295
0.582122
0.678168
0.784763
0.893092
0.990683
1.067
1.11883
1.15001
1.16709
1.1758
1.18006
1.1821
1.18304
1.18347
1.18367
1.18375
1.18379
1.18381
1.18382
1.18382
1.18382
1.18382
1.18382
1.18382
0.658526
0.658498
0.658452
0.658374
0.658244
0.658029
0.657677
0.657105
0.65619
0.654745
0.652505
0.649109
0.644087
0.63688
0.626898
0.613626
0.59677
0.576404
0.553027
0.527511
0.500922
0.474312
0.448546
0.424224
0.401683
0.381048
0.362295
0.345312
0.329942
0.316013
0.303358
0.291822
0.281268
0.271579
0.262655
0.254413
0.246765
0.23962
0.232926
0.226639
0.22072
0.215136
0.209861
0.20487
0.200144
0.195666
0.191422
0.187402
0.183595
0.179995
0.176596
0.173396
0.170393
0.167588
0.164985
0.162592
0.16042
0.158484
0.156823
0.155492
0.154458
0.153836
0.153726
0.154295
0.163711
0.174851
0.187987
0.203479
0.221799
0.243563
0.26957
0.30085
0.338718
0.384857
0.441492
0.510926
0.594694
0.692381
0.799676
0.907122
1.00219
1.07514
1.12387
1.15282
1.16854
1.17651
1.1804
1.18225
1.18311
1.18351
1.18368
1.18376
1.1838
1.18381
1.18382
1.18382
1.18382
1.18382
1.18382
1.18382
0.658526
0.658498
0.658451
0.658373
0.658242
0.658025
0.657671
0.657095
0.656172
0.654716
0.652459
0.649038
0.643979
0.636722
0.626675
0.613325
0.596383
0.57593
0.552475
0.526898
0.50027
0.473643
0.447877
0.42357
0.401053
0.380446
0.361722
0.344768
0.329424
0.31552
0.302888
0.291371
0.280835
0.271161
0.262251
0.254022
0.246384
0.239248
0.232562
0.226282
0.220371
0.214794
0.209526
0.204542
0.199824
0.195354
0.191119
0.187108
0.183312
0.179723
0.176339
0.173154
0.170169
0.167385
0.164807
0.162444
0.160308
0.158418
0.15683
0.155572
0.154642
0.154165
0.15426
0.15524
0.164896
0.176294
0.189717
0.20554
0.224251
0.246487
0.273071
0.305062
0.34381
0.391053
0.449056
0.52007
0.605465
0.704473
0.812223
0.918752
1.01156
1.08167
1.12786
1.15503
1.16966
1.17706
1.18066
1.18237
1.18317
1.18353
1.18369
1.18377
1.1838
1.18381
1.18382
1.18382
1.18382
1.18382
1.18382
1.18382
0.658526
0.658498
0.65845
0.658372
0.65824
0.658022
0.657665
0.657086
0.656157
0.654692
0.652422
0.64898
0.643891
0.636594
0.626495
0.613081
0.59607
0.575546
0.552029
0.526403
0.499743
0.473102
0.447338
0.423043
0.400545
0.37996
0.36126
0.344329
0.329008
0.315124
0.302509
0.291009
0.280486
0.270825
0.261927
0.25371
0.246079
0.238951
0.232272
0.225999
0.220093
0.214523
0.20926
0.204283
0.199571
0.195108
0.19088
0.186878
0.183091
0.179513
0.17614
0.172968
0.169998
0.167232
0.164674
0.162334
0.160226
0.15837
0.156836
0.155628
0.154761
0.154367
0.154573
0.156115
0.165933
0.177521
0.191167
0.207254
0.226283
0.248905
0.275962
0.30854
0.348016
0.396174
0.455308
0.527616
0.614326
0.714363
0.822394
0.928067
1.01897
1.08677
1.13095
1.15672
1.17052
1.17748
1.18086
1.18246
1.18321
1.18355
1.1837
1.18377
1.1838
1.18381
1.18382
1.18382
1.18382
1.18382
1.18382
1.18382
0.658525
0.658497
0.65845
0.658371
0.658239
0.65802
0.657661
0.657079
0.656146
0.654674
0.652394
0.648936
0.643825
0.636497
0.626358
0.612897
0.595833
0.575256
0.551691
0.526028
0.499346
0.472694
0.446931
0.422645
0.400162
0.379594
0.360912
0.343999
0.328694
0.314825
0.302224
0.290736
0.280225
0.270573
0.261685
0.253476
0.245852
0.238729
0.232055
0.225787
0.219886
0.214321
0.209064
0.204091
0.199384
0.194927
0.190706
0.18671
0.182931
0.179361
0.175997
0.172836
0.169877
0.167123
0.16458
0.162255
0.160163
0.158325
0.156818
0.155627
0.154776
0.154394
0.154602
0.156766
0.166723
0.178465
0.192286
0.208578
0.227852
0.250771
0.278195
0.311225
0.351263
0.400132
0.460143
0.533449
0.621162
0.721964
0.830162
0.935121
1.02453
1.09056
1.13323
1.15797
1.17116
1.17779
1.18101
1.18253
1.18324
1.18356
1.18371
1.18377
1.1838
1.18381
1.18382
1.18382
1.18382
1.18382
1.18382
1.18382
0.658525
0.658497
0.65845
0.65837
0.658238
0.658019
0.657659
0.657075
0.656139
0.654662
0.652375
0.648907
0.643781
0.636432
0.626267
0.612774
0.595675
0.575063
0.551466
0.525778
0.49908
0.472421
0.446659
0.422379
0.399905
0.379349
0.360679
0.343777
0.328484
0.314625
0.302033
0.290554
0.28005
0.270406
0.261523
0.253319
0.2457
0.238582
0.231912
0.225647
0.21975
0.214188
0.208934
0.203966
0.199263
0.19481
0.190593
0.186602
0.182828
0.179265
0.175907
0.172753
0.169802
0.167057
0.164521
0.162205
0.160122
0.15829
0.156788
0.155595
0.15473
0.154317
0.154466
0.15717
0.167241
0.179099
0.193046
0.209482
0.228925
0.252049
0.279724
0.313066
0.353491
0.40285
0.463467
0.537458
0.625857
0.727174
0.835467
0.939917
1.02829
1.09312
1.13478
1.15881
1.17159
1.17799
1.1811
1.18258
1.18326
1.18357
1.18371
1.18377
1.1838
1.18381
1.18382
1.18382
1.18382
1.18382
1.18382
1.18382
0.658525
0.658497
0.65845
0.65837
0.658237
0.658018
0.657657
0.657072
0.656135
0.654657
0.652366
0.648892
0.64376
0.636401
0.626224
0.612716
0.595599
0.57497
0.551358
0.525658
0.498951
0.472289
0.446526
0.422249
0.39978
0.379229
0.360565
0.343668
0.32838
0.314527
0.301939
0.290464
0.279964
0.270324
0.261444
0.253243
0.245626
0.23851
0.231842
0.225579
0.219684
0.214123
0.208871
0.203905
0.199204
0.194753
0.190539
0.186551
0.18278
0.17922
0.175866
0.172716
0.169769
0.167028
0.164498
0.162186
0.160106
0.158277
0.156774
0.155575
0.154696
0.154254
0.154352
0.157363
0.167501
0.179422
0.193436
0.209946
0.229476
0.252703
0.280504
0.314002
0.35462
0.404225
0.465141
0.539471
0.628206
0.729769
0.838095
0.942279
1.03013
1.09437
1.13553
1.15923
1.1718
1.1781
1.18115
1.1826
1.18327
1.18358
1.18371
1.18377
1.1838
1.18381
1.18382
1.18382
1.18382
1.18382
1.18382
1.18382
0.658525
0.658497
0.65845
0.65837
0.658237
0.658018
0.657657
0.657072
0.656135
0.654657
0.652366
0.648892
0.643759
0.636401
0.626223
0.612715
0.595598
0.574969
0.551357
0.525657
0.498951
0.472288
0.446526
0.422249
0.399779
0.379228
0.360564
0.343668
0.32838
0.314526
0.301939
0.290463
0.279964
0.270323
0.261444
0.253242
0.245626
0.238509
0.231841
0.225579
0.219683
0.214123
0.208871
0.203904
0.199204
0.194753
0.190539
0.18655
0.18278
0.17922
0.175866
0.172716
0.16977
0.167029
0.164498
0.162187
0.160107
0.158278
0.156775
0.155575
0.154696
0.154253
0.154352
0.157365
0.167503
0.179424
0.193438
0.209948
0.229478
0.252706
0.280507
0.314006
0.354626
0.404232
0.465151
0.539484
0.628222
0.729787
0.838115
0.942298
1.03015
1.09438
1.13554
1.15923
1.1718
1.1781
1.18115
1.1826
1.18327
1.18358
1.18371
1.18377
1.1838
1.18381
1.18382
1.18382
1.18382
1.18382
1.18382
1.18382
0.658525
0.658497
0.65845
0.65837
0.658238
0.658018
0.657659
0.657075
0.656139
0.654662
0.652375
0.648906
0.64378
0.636431
0.626266
0.612773
0.595673
0.57506
0.551463
0.525776
0.499077
0.472419
0.446657
0.422377
0.399903
0.379347
0.360678
0.343776
0.328482
0.314624
0.302032
0.290552
0.280049
0.270405
0.261522
0.253318
0.245699
0.238581
0.231911
0.225646
0.219749
0.214187
0.208933
0.203965
0.199262
0.194809
0.190592
0.186601
0.182828
0.179265
0.175907
0.172754
0.169803
0.167058
0.164523
0.162207
0.160124
0.158293
0.15679
0.155596
0.15473
0.154315
0.154466
0.157179
0.167248
0.179105
0.193052
0.209489
0.228933
0.252059
0.279735
0.313081
0.353509
0.402874
0.463498
0.537499
0.625908
0.727233
0.835529
0.939973
1.02833
1.09315
1.13479
1.15882
1.17159
1.178
1.18111
1.18258
1.18326
1.18357
1.18371
1.18377
1.1838
1.18381
1.18382
1.18382
1.18382
1.18382
1.18382
1.18382
0.658525
0.658497
0.65845
0.658371
0.658239
0.65802
0.657661
0.657079
0.656146
0.654674
0.652393
0.648935
0.643824
0.636495
0.626356
0.612894
0.595829
0.575252
0.551687
0.526024
0.499341
0.472689
0.446927
0.422642
0.400158
0.379591
0.360909
0.343996
0.328691
0.314823
0.302222
0.290734
0.280222
0.270571
0.261682
0.253473
0.245849
0.238727
0.232053
0.225785
0.219884
0.214319
0.209062
0.204089
0.199383
0.194926
0.190705
0.186709
0.18293
0.179361
0.175997
0.172836
0.169878
0.167125
0.164581
0.162257
0.160166
0.158328
0.15682
0.155628
0.154776
0.154392
0.154604
0.156779
0.166734
0.178475
0.192297
0.20859
0.227866
0.250788
0.278215
0.311251
0.351295
0.400173
0.460197
0.533517
0.621246
0.722062
0.830265
0.935215
1.0246
1.09061
1.13326
1.15799
1.17117
1.17779
1.18101
1.18253
1.18324
1.18356
1.18371
1.18377
1.1838
1.18381
1.18382
1.18382
1.18382
1.18382
1.18382
1.18382
0.658526
0.658498
0.65845
0.658372
0.65824
0.658022
0.657665
0.657086
0.656157
0.654692
0.652421
0.648978
0.643889
0.636591
0.626491
0.613077
0.596064
0.57554
0.552022
0.526395
0.499736
0.473095
0.447332
0.423037
0.40054
0.379956
0.361256
0.344325
0.329004
0.31512
0.302506
0.291005
0.280483
0.270822
0.261924
0.253707
0.246076
0.238948
0.232269
0.225995
0.22009
0.21452
0.209257
0.20428
0.199568
0.195105
0.190878
0.186876
0.183089
0.179512
0.176139
0.172968
0.169998
0.167232
0.164675
0.162335
0.160227
0.158372
0.156838
0.155629
0.154762
0.154368
0.154578
0.15613
0.165946
0.177534
0.191181
0.20727
0.226303
0.248929
0.275992
0.308577
0.348062
0.396233
0.455383
0.527711
0.614443
0.714499
0.822536
0.928197
1.01907
1.08683
1.13099
1.15674
1.17053
1.17748
1.18086
1.18246
1.18321
1.18355
1.1837
1.18377
1.1838
1.18381
1.18382
1.18382
1.18382
1.18382
1.18382
1.18382
0.658526
0.658498
0.658451
0.658372
0.658242
0.658025
0.65767
0.657094
0.656171
0.654715
0.652458
0.649036
0.643976
0.636719
0.626671
0.613319
0.596376
0.575921
0.552466
0.526888
0.500261
0.473633
0.447869
0.423562
0.401046
0.380439
0.361716
0.344762
0.329419
0.315516
0.302883
0.291367
0.28083
0.271156
0.262246
0.254018
0.246379
0.239243
0.232558
0.226278
0.220366
0.21479
0.209522
0.204538
0.19982
0.19535
0.191115
0.187104
0.183308
0.17972
0.176336
0.173151
0.170167
0.167383
0.164806
0.162443
0.160307
0.158419
0.15683
0.155574
0.154644
0.154168
0.154267
0.155252
0.164907
0.176306
0.189732
0.205559
0.224275
0.246517
0.273108
0.305109
0.34387
0.391129
0.449154
0.520193
0.605616
0.704647
0.812406
0.918919
1.01169
1.08175
1.12791
1.15505
1.16967
1.17706
1.18066
1.18237
1.18317
1.18353
1.18369
1.18377
1.1838
1.18381
1.18382
1.18382
1.18382
1.18382
1.18382
1.18382
0.658526
0.658498
0.658452
0.658374
0.658244
0.658029
0.657677
0.657105
0.656189
0.654744
0.652504
0.649107
0.644084
0.636876
0.626892
0.613618
0.596761
0.576394
0.553016
0.527499
0.50091
0.474301
0.448535
0.424214
0.401674
0.38104
0.362287
0.345305
0.329935
0.316007
0.303352
0.291817
0.281263
0.271573
0.262649
0.254408
0.246759
0.239614
0.232921
0.226633
0.220714
0.215131
0.209856
0.204865
0.200139
0.195661
0.191417
0.187397
0.18359
0.17999
0.176592
0.173391
0.170389
0.167584
0.164981
0.162589
0.160417
0.158482
0.15682
0.155489
0.154456
0.153838
0.153732
0.154302
0.16372
0.174868
0.18801
0.203507
0.221833
0.243604
0.269619
0.30091
0.338793
0.384951
0.441611
0.511077
0.594879
0.692595
0.799902
0.907331
1.00235
1.07525
1.12393
1.15285
1.16855
1.17651
1.1804
1.18225
1.18311
1.18351
1.18368
1.18376
1.1838
1.18381
1.18382
1.18382
1.18382
1.18382
1.18382
1.18382
0.658526
0.658498
0.658452
0.658375
0.658246
0.658034
0.657684
0.657118
0.65621
0.654778
0.652558
0.649191
0.644211
0.637061
0.627154
0.613972
0.597217
0.576952
0.553667
0.528222
0.501681
0.475092
0.449326
0.424988
0.402421
0.381754
0.362967
0.345951
0.33055
0.316593
0.303912
0.292353
0.281779
0.272072
0.263131
0.254874
0.247214
0.240059
0.233357
0.227061
0.221134
0.215543
0.21026
0.205261
0.200527
0.19604
0.191787
0.187756
0.183937
0.180324
0.176911
0.173694
0.170672
0.167844
0.165215
0.16279
0.160581
0.158599
0.156867
0.155459
0.154321
0.15355
0.153222
0.153453
0.162368
0.17321
0.186015
0.201125
0.218995
0.240217
0.265564
0.296031
0.332895
0.37778
0.432854
0.500472
0.58234
0.678422
0.785033
0.893346
0.990886
1.06714
1.1189
1.15005
1.16711
1.17581
1.18007
1.1821
1.18304
1.18347
1.18367
1.18375
1.18379
1.18381
1.18382
1.18382
1.18382
1.18382
1.18382
1.18382
0.658526
0.658499
0.658453
0.658377
0.658249
0.658039
0.657693
0.657132
0.656234
0.654817
0.65262
0.649287
0.644355
0.637273
0.627453
0.614376
0.597738
0.577591
0.554412
0.529052
0.502565
0.476002
0.450235
0.425878
0.40328
0.382576
0.363751
0.346696
0.331259
0.317269
0.30456
0.292975
0.282378
0.272649
0.26369
0.255417
0.247744
0.240578
0.233865
0.22756
0.221624
0.216025
0.210734
0.205727
0.200984
0.196488
0.192225
0.188183
0.184353
0.180727
0.177299
0.174065
0.171024
0.168175
0.165521
0.163068
0.160824
0.158805
0.157031
0.155568
0.154404
0.15356
0.153146
0.15327
0.160812
0.171319
0.183748
0.198425
0.215782
0.236387
0.26098
0.29052
0.326238
0.369695
0.422981
0.488489
0.568104
0.662196
0.767792
0.876844
0.977085
1.05718
1.11264
1.14651
1.16528
1.17491
1.17964
1.1819
1.18295
1.18343
1.18365
1.18375
1.18379
1.18381
1.18382
1.18382
1.18382
1.18382
1.18382
1.18382
0.658526
0.658499
0.658454
0.658378
0.658253
0.658044
0.657703
0.657149
0.656261
0.65486
0.652688
0.649393
0.644516
0.637509
0.627785
0.614825
0.598318
0.578304
0.555245
0.529979
0.503555
0.477021
0.451255
0.426878
0.404247
0.383502
0.364633
0.347536
0.332059
0.318033
0.305291
0.293677
0.283055
0.273304
0.264325
0.256033
0.248345
0.241168
0.234444
0.22813
0.222185
0.216577
0.211277
0.206262
0.20151
0.197005
0.192732
0.188679
0.184837
0.181198
0.177756
0.174506
0.171447
0.16858
0.165905
0.16343
0.161163
0.159118
0.157319
0.155841
0.154674
0.153846
0.153484
0.153712
0.159009
0.169174
0.181204
0.195411
0.212207
0.232133
0.255897
0.284415
0.318868
0.360755
0.412069
0.475215
0.552256
0.643971
0.748153
0.85768
0.960686
1.04508
1.10487
1.14207
1.16295
1.17376
1.17909
1.18164
1.18284
1.18338
1.18363
1.18374
1.18379
1.18381
1.18382
1.18382
1.18382
1.18382
1.18382
1.18382
0.658526
0.658499
0.658455
0.65838
0.658256
0.65805
0.657713
0.657166
0.65629
0.654907
0.652763
0.649509
0.644692
0.637765
0.628147
0.615315
0.598951
0.579082
0.556156
0.530995
0.50464
0.478139
0.452376
0.427978
0.40531
0.384521
0.365605
0.348462
0.332942
0.318877
0.3061
0.294455
0.283806
0.274031
0.26503
0.256718
0.249016
0.241826
0.235092
0.228767
0.222813
0.217197
0.211889
0.206865
0.202104
0.19759
0.193307
0.189244
0.18539
0.181738
0.178281
0.175015
0.171939
0.169053
0.166358
0.163861
0.161571
0.159505
0.157687
0.156193
0.155027
0.154235
0.153978
0.154454
0.157046
0.166812
0.178399
0.192092
0.208277
0.227467
0.250331
0.27774
0.310821
0.351009
0.400182
0.46073
0.534878
0.623807
0.726104
0.835709
0.9414
1.03047
1.0953
1.13651
1.16001
1.17229
1.17839
1.18132
1.18269
1.18332
1.1836
1.18372
1.18378
1.1838
1.18381
1.18382
1.18382
1.18382
1.18382
1.18382
0.658526
0.6585
0.658456
0.658382
0.65826
0.658057
0.657725
0.657185
0.656321
0.654958
0.652843
0.649634
0.644879
0.63804
0.628535
0.615841
0.59963
0.579918
0.557133
0.532086
0.505807
0.479344
0.453585
0.429165
0.406459
0.385623
0.366658
0.349466
0.3339
0.319793
0.306979
0.295302
0.284624
0.274824
0.265801
0.257469
0.24975
0.242548
0.235803
0.229469
0.223506
0.217881
0.212564
0.207532
0.202763
0.19824
0.193947
0.189873
0.186008
0.182342
0.17887
0.175589
0.172494
0.169586
0.166867
0.164342
0.16202
0.159915
0.158047
0.156465
0.155206
0.154275
0.153798
0.153902
0.154791
0.164195
0.175341
0.188497
0.204033
0.222435
0.244336
0.270559
0.302172
0.340542
0.38743
0.445164
0.516117
0.60184
0.701716
0.81086
0.918969
1.01297
1.08353
1.12955
1.15627
1.17043
1.1775
1.1809
1.1825
1.18323
1.18356
1.18371
1.18377
1.1838
1.18381
1.18382
1.18382
1.18382
1.18382
1.18382
0.658526
0.6585
0.658457
0.658385
0.658264
0.658064
0.657737
0.657205
0.656354
0.655011
0.652928
0.649765
0.645078
0.638331
0.628945
0.616395
0.600347
0.580799
0.558166
0.53324
0.507043
0.48062
0.454866
0.430424
0.407679
0.386795
0.367778
0.350535
0.334921
0.320771
0.307918
0.296208
0.2855
0.275675
0.266629
0.258277
0.250541
0.243327
0.236572
0.230228
0.224257
0.218623
0.213299
0.208259
0.203482
0.19895
0.194648
0.190564
0.186686
0.183007
0.17952
0.176221
0.173106
0.170175
0.167428
0.164871
0.16251
0.160356
0.158425
0.156741
0.155368
0.154257
0.153497
0.153137
0.153226
0.161587
0.172203
0.184754
0.199582
0.217139
0.238015
0.262983
0.293047
0.329499
0.373991
0.428741
0.496224
0.578328
0.675201
0.783208
0.893241
0.992226
1.06915
1.12084
1.15152
1.16804
1.17635
1.18037
1.18225
1.18312
1.18351
1.18369
1.18376
1.1838
1.18381
1.18382
1.18382
1.18382
1.18382
1.18382
0.658526
0.658501
0.658458
0.658387
0.658268
0.658072
0.657749
0.657227
0.656389
0.655068
0.653018
0.649903
0.645286
0.638634
0.629372
0.616973
0.601093
0.581718
0.559242
0.534442
0.50833
0.48195
0.456201
0.431737
0.408952
0.388018
0.368948
0.351653
0.33599
0.321796
0.308905
0.29716
0.286423
0.276573
0.267504
0.259131
0.251379
0.244154
0.237388
0.231036
0.225057
0.219416
0.214085
0.209038
0.204254
0.199714
0.195403
0.191308
0.187419
0.183727
0.180225
0.176909
0.173774
0.17082
0.168047
0.16546
0.163063
0.160867
0.158889
0.157149
0.155726
0.154584
0.15383
0.153565
0.15395
0.159035
0.169046
0.180938
0.195011
0.211676
0.231481
0.255143
0.283598
0.318061
0.36008
0.411724
0.475509
0.553619
0.646898
0.752979
0.864204
0.967949
1.05174
1.11001
1.14552
1.16499
1.17487
1.17968
1.18194
1.18298
1.18345
1.18366
1.18375
1.18379
1.18381
1.18382
1.18382
1.18382
1.18382
1.18382
0.658526
0.658501
0.65846
0.65839
0.658273
0.65808
0.657763
0.657249
0.656426
0.655127
0.653111
0.650047
0.645501
0.638948
0.629813
0.617568
0.60186
0.582661
0.560345
0.535674
0.509649
0.483312
0.457569
0.433082
0.410256
0.389271
0.370147
0.3528
0.337088
0.32285
0.30992
0.298143
0.287377
0.277501
0.268411
0.260019
0.252251
0.245015
0.238241
0.231881
0.225895
0.220248
0.21491
0.209857
0.205066
0.200519
0.196199
0.192095
0.188196
0.184491
0.180975
0.177642
0.174489
0.171513
0.168716
0.1661
0.163671
0.161439
0.15942
0.157636
0.156153
0.15499
0.154188
0.153907