/*--------------------------------*- C++ -*----------------------------------*\
  =========                 |
  \\      /  F ield         | OpenFOAM: The Open Source CFD Toolbox
   \\    /   O peration     | Website:  https://openfoam.org
    \\  /    A nd           | Version:  8
     \\/     M anipulation  |
\*---------------------------------------------------------------------------*/
FoamFile
{
    version     2.0;
    format      ascii;
    class       volScalarField;
    location    "180/fluid";
    object      T;
}
// * * * * * * * * * * * * * * * * * * * * * * * * * * * * * * * * * * * * * //

dimensions      [0 0 0 1 0 0 0];

internalField   nonuniform List<scalar> 
4000
(
293.003
293.014
293.032
293.062
293.112
293.195
293.331
293.551
293.906
294.469
295.352
296.716
298.783
301.851
306.298
312.566
321.135
332.467
346.934
364.76
385.983
410.462
437.919
467.999
500.325
534.548
570.365
607.532
645.858
685.198
725.443
766.507
808.319
850.815
893.931
937.596
981.732
1026.28
1071.3
1116.75
1162.57
1208.71
1255.13
1301.74
1348.51
1395.36
1442.22
1489.02
1535.69
1582.13
1628.25
1673.96
1719.15
1763.68
1807.42
1850.22
1891.89
1932.22
1970.96
2007.79
2042.33
2074.08
2101.95
2126.14
2145.05
2157.16
2160.3
2096.71
1983.69
1864.72
1741.44
1615.27
1487.5
1359.33
1231.93
1106.49
984.284
866.531
754.462
650.228
556.556
476.249
411.677
363.934
332.022
312.871
302.5
297.37
294.955
293.856
293.369
293.157
293.066
293.028
293.012
293.005
293.002
293.001
293
293
293.003
293.014
293.033
293.064
293.115
293.2
293.34
293.567
293.932
294.513
295.422
296.824
298.944
302.08
306.61
312.971
321.638
333.061
347.604
365.486
386.745
411.244
438.714
468.807
501.158
535.42
571.294
608.537
646.958
686.408
726.777
767.976
809.932
852.578
895.848
939.67
983.961
1028.67
1073.85
1119.46
1165.44
1211.74
1258.3
1305.06
1351.96
1398.94
1445.93
1492.85
1539.63
1586.17
1632.38
1678.16
1723.41
1767.98
1811.75
1854.55
1896.19
1936.46
1975.09
2011.76
2046.09
2077.55
2105.04
2129.01
2148
2160.93
2166.4
2080.24
1965.27
1844.58
1719.72
1592.08
1462.92
1333.45
1204.89
1078.49
955.597
837.448
725.57
622.492
531.178
454.521
394.661
352.016
324.663
308.857
300.549
296.481
294.568
293.693
293.302
293.13
293.055
293.023
293.01
293.004
293.002
293.001
293
293
293.003
293.015
293.034
293.066
293.119
293.206
293.351
293.585
293.962
294.56
295.496
296.936
299.108
302.314
306.931
313.398
322.185
333.735
348.406
366.408
387.773
412.365
439.916
470.085
502.512
536.861
572.836
610.199
648.76
688.373
728.924
770.326
812.502
855.383
898.901
942.978
987.531
1032.51
1077.97
1123.86
1170.13
1216.7
1263.54
1310.57
1357.74
1404.97
1452.2
1499.34
1546.33
1593.06
1639.45
1685.38
1730.75
1775.41
1819.23
1862.04
1903.63
1943.77
1982.17
2018.49
2052.3
2082.83
2109.3
2131.71
2148.47
2158.38
2160.03
2051.38
1934.33
1811.63
1684.94
1555.71
1425.27
1294.88
1165.83
1039.46
917.218
800.356
690.796
591.312
504.836
433.947
380.104
342.826
319.494
306.228
299.306
295.916
294.317
293.584
293.255
293.11
293.047
293.02
293.008
293.003
293.001
293.001
293
293
293.003
293.015
293.035
293.067
293.122
293.212
293.36
293.6
293.986
294.598
295.555
297.024
299.238
302.502
307.194
313.755
322.655
334.336
349.148
367.298
388.813
413.553
441.25
471.563
504.137
538.637
574.773
612.309
651.059
690.878
731.656
773.303
815.745
858.909
902.725
947.113
991.984
1037.31
1083.12
1129.36
1175.98
1222.92
1270.11
1317.49
1365
1412.57
1460.11
1507.56
1554.83
1601.82
1648.44
1694.57
1740.1
1784.89
1828.78
1871.6
1913.13
1953.11
1991.24
2027.11
2060.21
2089.23
2114.07
2133.91
2146.18
2148.06
2129.74
2016.56
1896.56
1771.52
1643.01
1512.46
1381.2
1250.53
1121.77
996.356
875.701
761.151
654.959
559.968
478.959
414.116
366.238
334.083
314.518
303.639
298.055
295.337
294.057
293.47
293.206
293.089
293.038
293.016
293.007
293.003
293.001
293
293
293
293.004
293.015
293.035
293.069
293.124
293.217
293.368
293.614
294.008
294.634
295.611
297.111
299.368
302.691
307.463
314.126
323.149
334.973
349.945
368.264
389.952
414.866
442.735
473.22
505.968
540.646
576.971
614.707
653.673
693.726
734.756
776.676
819.41
862.885
907.028
951.755
996.976
1042.67
1088.87
1135.51
1182.53
1229.87
1277.47
1325.25
1373.14
1421.09
1468.99
1516.79
1564.37
1611.66
1658.54
1704.9
1750.62
1795.54
1839.52
1882.35
1923.81
1963.64
2001.52
2037.02
2069.62
2097.98
2122.58
2141.63
2153.73
2156.74
2092.31
1976.72
1854.53
1727.68
1597.82
1466.42
1334.86
1204.47
1076.62
952.805
834.31
722.729
620.567
530.615
455.418
396.681
354.501
326.953
310.587
301.641
297.099
294.895
293.858
293.382
293.168
293.073
293.031
293.013
293.006
293.002
293.001
293
293
293
293.004
293.016
293.036
293.07
293.127
293.221
293.375
293.626
294.029
294.667
295.663
297.19
299.488
302.867
307.715
314.478
323.627
335.599
350.74
369.242
391.123
416.233
444.298
474.98
507.925
542.805
579.338
617.293
656.491
696.793
738.089
780.294
823.331
867.128
911.608
956.686
1002.27
1048.35
1094.95
1142
1189.44
1237.2
1285.21
1333.4
1381.71
1430.05
1478.33
1526.48
1574.41
1622
1669.15
1715.74
1761.64
1806.69
1850.73
1893.54
1934.9
1974.5
2012
2046.95
2078.64
2106.1
2129.78
2147.99
2159.8
2164.24
2055.79
1936.72
1811.97
1683.31
1552.3
1420.38
1288.89
1159.18
1032.67
910.798
794.805
686.573
588.73
503.95
434.491
381.541
344.537
321.008
307.343
299.996
296.31
294.529
293.693
293.309
293.136
293.059
293.025
293.011
293.005
293.002
293.001
293
293
293
293.004
293.016
293.037
293.072
293.129
293.225
293.383
293.638
294.048
294.698
295.712
297.267
299.604
303.04
307.965
314.829
324.104
336.228
351.542
370.235
392.316
417.631
445.903
476.792
509.945
545.036
581.787
619.969
659.406
699.962
741.529
784.021
827.364
871.482
916.298
961.725
1007.67
1054.14
1101.14
1148.6
1196.45
1244.62
1293.04
1341.65
1390.36
1439.08
1487.75
1536.25
1584.5
1632.39
1679.8
1726.61
1772.67
1817.83
1861.9
1904.67
1945.88
1985.21
2022.26
2056.52
2086.69
2112.42
2133.26
2146.51
2149.35
2133.14
2018.17
1896.34
1769.59
1639.59
1507.86
1375.8
1244.73
1116.03
991.118
871.37
758.078
653.394
559.964
480.309
416.357
368.763
336.352
316.241
304.788
298.721
295.701
294.247
293.565
293.252
293.111
293.048
293.021
293.009
293.004
293.002
293.001
293
293
293
293.004
293.016
293.037
293.073
293.132
293.229
293.389
293.649
294.067
294.728
295.759
297.34
299.716
303.207
308.207
315.17
324.571
336.847
352.336
371.221
393.506
419.03
447.513
478.613
511.978
547.283
584.253
622.663
662.339
703.147
744.98
787.756
831.396
875.828
920.971
966.734
1013.02
1059.87
1107.25
1155.1
1203.35
1251.92
1300.75
1349.75
1398.84
1447.94
1496.95
1545.79
1594.35
1642.51
1690.16
1737.16
1783.37
1828.61
1872.69
1915.4
1956.45
1995.53
2032.23
2066.04
2095.37
2121.03
2141.05
2153.81
2156.85
2096.82
1980.06
1856.61
1728.59
1597.78
1465.72
1333.81
1203.43
1075.93
952.769
835.187
724.673
623.575
534.484
459.74
400.912
358.13
329.693
312.431
302.771
297.723
295.224
294.026
293.465
293.207
293.091
293.04
293.017
293.007
293.003
293.001
293.001
293
293
293
293.004
293.017
293.038
293.074
293.134
293.233
293.396
293.66
294.084
294.756
295.804
297.411
299.824
303.368
308.442
315.503
325.027
337.452
353.114
372.189
394.675
420.405
449.097
480.405
513.979
549.496
586.681
625.314
665.222
706.273
748.364
791.411
835.338
880.068
925.521
971.602
1018.22
1065.42
1113.17
1161.39
1210.01
1258.96
1308.15
1357.52
1406.97
1456.41
1505.75
1554.9
1603.73
1652.14
1699.99
1747.16
1793.47
1838.75
1882.81
1925.39
1966.22
2004.95
2041.15
2074.29
2103
2128.31
2148.48
2162.63
2169.72
2065.62
1945.57
1819.94
1690.53
1558.97
1426.7
1295.1
1165.51
1039.3
917.908
802.484
694.752
597.164
512.229
442.083
387.924
349.388
324.333
309.418
301.194
296.947
294.855
293.855
293.387
293.173
293.076
293.033
293.014
293.006
293.003
293.001
293
293
293
293
293.004
293.017
293.039
293.075
293.136
293.236
293.402
293.67
294.101
294.783
295.847
297.478
299.927
303.522
308.667
315.822
325.466
338.036
353.864
373.123
395.803
421.734
450.628
482.138
515.913
551.632
589.024
627.87
667.999
709.283
751.618
794.921
839.116
884.126
929.869
976.246
1023.18
1070.71
1118.79
1167.35
1216.31
1265.6
1315.14
1364.84
1414.61
1464.37
1514
1563.42
1612.5
1661.12
1709.15
1756.44
1802.82
1848.12
1892.1
1934.52
1975.05
2013.31
2048.82
2080.57
2107.74
2130.55
2146.71
2154.33
2150.29
2034.89
1912.61
1785.44
1655.1
1523.1
1390.88
1259.75
1131.07
1006.22
886.558
773.257
668.246
574.022
492.992
427.074
377.097
342.249
320.037
307.037
299.961
296.342
294.568
293.722
293.327
293.146
293.064
293.028
293.012
293.005
293.002
293.001
293
293
293
293
293.004
293.017
293.039
293.076
293.138
293.24
293.407
293.679
294.116
294.808
295.888
297.541
300.024
303.669
308.881
316.126
325.883
338.59
354.577
374.01
396.876
422.997
452.082
483.783
517.748
553.659
591.245
630.291
670.627
712.127
754.689
798.23
842.673
887.942
933.95
980.6
1027.82
1075.65
1124.03
1172.9
1222.18
1271.77
1321.62
1371.62
1421.68
1471.71
1521.61
1571.26
1620.55
1669.35
1717.52
1764.92
1811.36
1856.65
1900.57
1942.84
1983.12
2021
2055.94
2086.35
2112.24
2133.08
2146.06
2148.4
2121.65
2004.96
1881.55
1753.53
1622.67
1490.54
1358.52
1227.98
1100.26
976.748
858.722
747.444
645.031
553.958
476.527
414.428
368.138
336.45
316.604
305.158
298.996
295.871
294.345
293.619
293.28
293.125
293.055
293.024
293.01
293.004
293.002
293.001
293
293
293
293
293.004
293.017
293.04
293.077
293.139
293.243
293.412
293.688
294.131
294.832
295.925
297.601
300.116
303.806
309.081
316.409
326.273
339.109
355.243
374.84
397.878
424.176
453.439
485.317
519.459
555.547
593.313
632.542
673.07
714.768
757.538
801.296
845.965
891.468
937.717
984.611
1032.09
1080.18
1128.84
1177.99
1227.54
1277.42
1327.53
1377.79
1428.1
1478.37
1528.49
1578.34
1627.81
1676.76
1725.05
1772.52
1819
1864.29
1908.16
1950.33
1990.49
2028.22
2063.01
2093.27
2119.18
2140.45
2154.79
2160.23
2096.94
1978.39
1853.74
1724.93
1593.68
1461.49
1329.76
1199.83
1073.04
950.796
834.286
724.911
624.911
536.73
462.555
403.851
360.768
331.756
313.865
303.675
298.239
295.503
294.171
293.538
293.243
293.109
293.048
293.021
293.009
293.004
293.002
293.001
293
293
293
293
293.004
293.017
293.04
293.078
293.141
293.246
293.417
293.696
294.144
294.854
295.96
297.655
300.199
303.931
309.265
316.67
326.631
339.585
355.855
375.601
398.797
425.256
454.681
486.721
521.023
557.272
595.201
634.597
675.297
717.174
760.131
804.083
848.956
894.668
941.131
988.241
1035.95
1084.28
1133.19
1182.57
1232.37
1282.48
1332.83
1383.31
1433.85
1484.32
1534.62
1584.64
1634.24
1683.3
1731.67
1779.19
1825.67
1870.92
1914.69
1956.73
1996.69
2034.17
2068.68
2098.83
2124.74
2146.26
2161.32
2168.1
2074.66
1954.79
1829.15
1699.71
1568.15
1435.95
1304.51
1175.16
1049.25
928.162
813.037
705.417
607.62
522.051
450.779
395.055
354.728
327.966
311.679
302.502
297.645
295.215
294.035
293.475
293.215
293.096
293.042
293.018
293.008
293.003
293.001
293.001
293
293
293
293
293.004
293.018
293.04
293.079
293.142
293.248
293.422
293.703
294.156
294.873
295.991
297.704
300.275
304.044
309.43
316.905
326.953
340.013
356.405
376.284
399.621
426.225
455.795
487.978
522.424
558.816
596.889
636.434
677.286
719.322
762.443
806.567
851.618
897.513
944.162
991.462
1039.37
1087.91
1137.02
1186.62
1236.62
1286.94
1337.48
1388.16
1438.87
1489.51
1539.96
1590.11
1639.82
1688.96
1737.36
1784.88
1831.31
1876.46
1920.06
1961.85
2001.45
2038.47
2072.43
2101.74
2127.53
2147.98
2161.79
2166.97
2056.01
1934.57
1807.89
1677.8
1545.93
1413.74
1282.57
1153.75
1028.64
908.594
794.718
688.688
592.879
509.637
440.921
387.78
349.798
324.911
309.936
301.574
297.18
294.989
293.928
293.426
293.192
293.086
293.038
293.016
293.007
293.003
293.001
293.001
293
293
293
293
293.004
293.018
293.041
293.079
293.144
293.25
293.425
293.71
294.167
294.89
296.019
297.747
300.341
304.144
309.575
317.11
327.235
340.388
356.886
376.882
400.342
427.072
456.768
489.077
523.647
560.163
598.362
638.034
679.019
721.192
764.455
808.727
853.93
899.982
946.792
994.252
1042.33
1091.05
1140.34
1190.11
1240.29
1290.77
1341.48
1392.32
1443.18
1493.95
1544.52
1594.76
1644.54
1693.72
1742.14
1789.62
1835.98
1880.98
1924.37
1965.85
2005.03
2041.51
2074.46
2102.68
2127
2145.25
2155.85
2156.22
2040.06
1917.15
1789.51
1658.87
1526.78
1394.62
1263.73
1135.42
1011.03
891.898
779.127
674.516
580.461
499.259
432.756
381.819
345.806
322.463
308.552
300.841
296.814
294.813
293.845
293.387
293.175
293.078
293.034
293.015
293.006
293.003
293.001
293
293
293
293
293
293.004
293.018
293.041
293.08
293.145
293.252
293.429
293.715
294.175
294.905
296.042
297.784
300.397
304.228
309.698
317.284
327.475
340.706
357.294
377.389
400.953
427.789
457.591
490.005
524.68
561.301
599.606
639.386
680.482
722.769
766.152
810.547
855.877
902.06
949.002
996.595
1044.82
1093.68
1143.11
1193.03
1243.35
1293.97
1344.82
1395.78
1446.75
1497.62
1548.28
1598.59
1648.42
1697.62
1746.03
1793.46
1839.72
1884.58
1927.75
1968.91
2007.69
2043.6
2075.49
2102.69
2125.54
2141.72
2149.41
2144.06
2026.28
1902.27
1773.92
1642.89
1510.65
1378.57
1247.95
1120.09
996.346
877.997
766.186
662.798
570.236
490.758
426.117
377.015
342.619
320.527
307.465
300.269
296.53
294.676
293.781
293.358
293.161
293.072
293.032
293.014
293.006
293.003
293.001
293
293
293
293
293
293.004
293.018
293.041
293.08
293.146
293.254
293.431
293.72
294.183
294.917
296.061
297.813
300.442
304.296
309.798
317.426
327.669
340.963
357.624
377.799
401.447
428.369
458.257
490.756
525.516
562.222
600.612
640.479
681.664
724.043
767.522
812.016
857.448
903.735
950.781
998.48
1046.81
1095.79
1145.34
1195.37
1245.8
1296.53
1347.48
1398.53
1449.59
1500.54
1551.26
1601.62
1651.48
1700.69
1749.08
1796.47
1842.64
1887.37
1930.36
1971.29
2009.74
2045.23
2076.28
2102.8
2124.74
2139.73
2145.85
2132.83
2014.33
1889.77
1761.05
1629.82
1497.54
1365.56
1235.2
1107.74
984.529
866.828
755.808
653.427
562.091
484.019
420.882
373.254
340.141
319.032
306.63
299.831
296.313
294.571
293.731
293.335
293.151
293.067
293.03
293.013
293.006
293.002
293.001
293
293
293
293
293
293.004
293.018
293.042
293.081
293.146
293.255
293.433
293.723
294.188
294.925
296.075
297.836
300.477
304.347
309.873
317.533
327.815
341.158
357.874
378.109
401.821
428.808
458.761
491.325
526.148
562.918
601.373
641.305
682.557
725.007
768.557
813.125
858.633
904.997
952.122
999.899
1048.32
1097.38
1147.01
1197.12
1247.63
1298.45
1349.46
1400.59
1451.71
1502.71
1553.47
1603.86
1653.74
1702.94
1751.31
1798.66
1844.76
1889.39
1932.25
1973.03
2011.3
2046.55
2077.19
2103.46
2125.16
2139.97
2146.01
2124.53
2005.3
1880.24
1751.23
1619.85
1487.56
1355.68
1225.53
1098.38
975.599
858.392
747.973
646.363
555.964
478.965
416.972
370.455
338.306
317.928
306.015
299.509
296.153
294.494
293.695
293.318
293.144
293.064
293.028
293.012
293.005
293.002
293.001
293
293
293
293
293
293.004
293.018
293.042
293.081
293.147
293.256
293.434
293.725
294.192
294.931
296.084
297.85
300.5
304.382
309.923
317.604
327.913
341.288
358.041
378.316
402.071
429.101
459.098
491.706
526.572
563.385
601.883
641.86
683.157
725.653
769.251
813.868
859.426
905.841
953.017
1000.85
1049.32
1098.44
1148.13
1198.29
1248.85
1299.72
1350.78
1401.95
1453.11
1504.14
1554.93
1605.33
1655.21
1704.4
1752.75
1800.06
1846.12
1890.68
1933.47
1974.15
2012.33
2047.5
2078.05
2104.34
2126.22
2141.43
2148.29
2119.44
1999.43
1873.9
1744.61
1613.11
1480.8
1349.01
1219
1092.07
969.566
852.691
742.682
641.595
551.832
475.561
414.343
368.577
337.075
317.187
305.601
299.292
296.045
294.442
293.671
293.307
293.139
293.062
293.027
293.012
293.005
293.002
293.001
293
293
293
293
293
293.004
293.018
293.042
293.081
293.147
293.256
293.435
293.726
294.194
294.934
296.089
297.858
300.51
304.398
309.947
317.638
327.96
341.35
358.121
378.416
402.192
429.244
459.262
491.891
526.78
563.614
602.134
642.133
683.453
725.972
769.594
814.235
859.817
906.256
953.458
1001.32
1049.82
1098.96
1148.68
1198.87
1249.46
1300.34
1351.43
1402.62
1453.79
1504.84
1555.63
1606.04
1655.92
1705.11
1753.44
1800.72
1846.75
1891.27
1934.02
1974.65
2012.77
2047.91
2078.48
2104.84
2126.91
2142.51
2150.06
2117.04
1996.51
1870.68
1741.23
1609.67
1477.36
1345.61
1215.69
1088.88
966.534
849.837
740.043
639.227
549.788
473.884
413.052
367.659
336.475
316.826
305.399
299.186
295.993
294.417
293.659
293.302
293.136
293.061
293.027
293.012
293.005
293.002
293.001
293
293
293
293
293
293.004
293.018
293.042
293.081
293.147
293.256
293.435
293.726
294.194
294.934
296.089
297.858
300.511
304.398
309.947
317.638
327.961
341.351
358.122
378.417
402.192
429.245
459.263
491.893
526.781
563.616
602.136
642.135
683.455
725.975
769.596
814.238
859.82
906.26
953.462
1001.32
1049.82
1098.97
1148.68
1198.87
1249.46
1300.35
1351.44
1402.62
1453.8
1504.84
1555.64
1606.04
1655.92
1705.11
1753.44
1800.72
1846.75
1891.27
1934.01
1974.64
2012.77
2047.9
2078.47
2104.83
2126.91
2142.52
2150.07
2117.01
1996.49
1870.66
1741.22
1609.65
1477.35
1345.6
1215.68
1088.87
966.52
849.823
740.029
639.213
549.775
473.872
413.043
367.651
336.47
316.823
305.397
299.185
295.992
294.417
293.659
293.302
293.136
293.061
293.027
293.012
293.005
293.002
293.001
293
293
293
293
293
293.004
293.018
293.042
293.081
293.147
293.256
293.434
293.725
294.192
294.931
296.085
297.851
300.5
304.382
309.924
317.605
327.915
341.289
358.043
378.319
402.074
429.105
459.102
491.71
526.577
563.39
601.888
641.866
683.163
725.66
769.258
813.876
859.435
905.85
953.028
1000.86
1049.33
1098.45
1148.14
1198.31
1248.87
1299.73
1350.8
1401.96
1453.12
1504.16
1554.94
1605.34
1655.22
1704.41
1752.76
1800.06
1846.12
1890.67
1933.46
1974.14
2012.31
2047.48
2078.03
2104.34
2126.22
2141.46
2148.3
2119.34
1999.36
1873.84
1744.56
1613.06
1480.75
1348.96
1218.95
1092.02
969.516
852.641
742.632
641.547
551.788
475.523
414.312
368.555
337.061
317.179
305.597
299.29
296.044
294.442
293.671
293.307
293.139
293.062
293.027
293.012
293.005
293.002
293.001
293
293
293
293
293
293.004
293.018
293.042
293.081
293.146
293.255
293.433
293.723
294.188
294.926
296.075
297.836
300.477
304.348
309.874
317.534
327.818
341.161
357.878
378.114
401.826
428.814
458.767
491.332
526.156
562.926
601.382
641.315
682.568
725.019
768.57
813.139
858.649
905.014
952.14
999.918
1048.34
1097.4
1147.03
1197.15
1247.66
1298.47
1349.49
1400.62
1451.74
1502.74
1553.5
1603.89
1653.76
1702.96
1751.33
1798.67
1844.77
1889.39
1932.25
1973.02
2011.28
2046.53
2077.18
2103.46
2125.17
2139.99
2146
2124.38
2005.18
1880.14
1751.13
1619.76
1487.47
1355.6
1225.44
1098.3
975.511
858.305
747.888
646.281
555.889
478.901
416.921
370.418
338.282
317.914
306.007
299.506
296.151
294.493
293.695
293.318
293.144
293.064
293.028
293.012
293.005
293.002
293.001
293
293
293
293
293
293.004
293.018
293.041
293.08
293.146
293.254
293.431
293.72
294.183
294.917
296.061
297.814
300.443
304.297
309.8
317.428
327.672
340.968
357.63
377.806
401.455
428.378
458.267
490.767
525.528
562.234
600.625
640.494
681.68
724.061
767.54
812.036
857.47
903.759
950.807
998.508
1046.84
1095.82
1145.37
1195.4
1245.83
1296.57
1347.52
1398.57
1449.63
1500.58
1551.3
1601.66
1651.52
1700.72
1749.11
1796.49
1842.66
1887.38
1930.37
1971.29
2009.74
2045.22
2076.28
2102.8
2124.74
2139.72
2145.78
2132.64
2014.18
1889.63
1760.92
1629.69
1497.41
1365.43
1235.07
1107.61
984.4
866.701
755.685
653.309
561.984
483.928
420.81
373.202
340.108
319.013
306.62
299.827
296.31
294.57
293.731
293.335
293.151
293.067
293.03
293.013
293.006
293.002
293.001
293
293
293
293
293
293.004
293.018
293.041
293.08
293.145
293.252
293.429
293.715
294.176
294.905
296.042
297.784
300.398
304.23
309.701
317.288
327.48
340.712
357.302
377.398
400.963
427.801
457.604
490.019
524.696
561.318
599.624
639.406
680.503
722.792
766.177
810.574
855.907
902.092
949.036
996.632
1044.85
1093.72
1143.16
1193.08
1243.4
1294.02
1344.87
1395.83
1446.8
1497.68
1548.33
1598.65
1648.48
1697.68
1746.08
1793.51
1839.77
1884.62
1927.78
1968.94
2007.72
2043.61
2075.49
2102.68
2125.53
2141.69
2149.32
2143.92
2026.16
1902.14
1773.79
1642.74
1510.49
1378.4
1247.78
1119.92
996.177
877.83
766.022
662.642
570.095
490.638
426.021
376.947
342.575
320.502
307.452
300.263
296.527
294.675
293.78
293.357
293.161
293.072
293.032
293.014
293.006
293.003
293.001
293
293
293
293
293
293.004
293.018
293.041
293.079
293.144
293.25
293.425
293.71
294.167
294.891
296.019
297.748
300.342
304.146
309.578
317.114
327.241
340.395
356.896
376.893
400.355
427.087
456.784
489.095
523.666
560.184
598.385
638.059
679.046
721.221
764.487
808.761
853.967
900.022
946.835
994.298
1042.38
1091.1
1140.39
1190.17
1240.35
1290.84
1341.55
1392.39
1443.25
1494.02
1544.59
1594.83
1644.62
1693.8
1742.21
1789.7
1836.05
1881.05
1924.44
1965.9
2005.09
2041.56
2074.51
2102.74
2127.04
2145.24
2155.78
2156.13
2039.94
1916.98
1789.31
1658.66
1526.55
1394.39
1263.5
1135.19
1010.81
891.683
778.919
674.319
580.282
499.106
432.634
381.731
345.749
322.431
308.535
300.833
296.811
294.811
293.844
293.387
293.175
293.078
293.034
293.015
293.006
293.003
293.001
293
293
293
293
293
293.004
293.018
293.04
293.079
293.143
293.248
293.422
293.704
294.156
294.874
295.992
297.705
300.277
304.047
309.434
316.91
326.96
340.022
356.416
376.298
399.637
426.243
455.815
488
522.448
558.842
596.918
636.464
677.319
719.357
762.482
806.609
851.663
897.561
944.215
991.518
1039.43
1087.98
1137.09
1186.69
1236.7
1287.02
1337.57
1388.25
1438.96
1489.6
1540.05
1590.2
1639.91
1689.05
1737.46
1784.98
1831.41
1876.56
1920.17
1961.95
2001.55
2038.57
2072.52
2101.81
2127.58
2147.98
2161.72
2166.88
2055.84
1934.33
1807.61
1677.51
1545.64
1413.45
1282.28
1153.47
1028.37
908.33
794.463
688.447
592.659
509.448
440.77
387.67
349.727
324.869
309.914
301.563
297.175
294.987
293.927
293.425
293.192
293.086
293.038
293.016
293.007
293.003
293.001
293.001
293
293
293
293
293.004
293.017
293.04
293.078
293.141
293.246
293.417
293.696
294.144
294.854
295.961
297.657
300.201
303.934
309.269
316.676
326.639
339.595
355.868
375.617
398.815
425.277
454.705
486.746
521.052
557.303
595.234
634.633
675.336
717.216
760.176
804.133
849.009
894.725
941.192
988.307
1036.02
1084.36
1133.26
1182.66
1232.45
1282.57
1332.92
1383.41
1433.95
1484.42
1534.73
1584.75
1634.36
1683.42
1731.79
1779.31
1825.79
1871.04
1914.82
1956.86
1996.82
2034.29
2068.79
2098.88
2124.76
2146.27
2161.31
2168.14
2074.45
1954.52
1828.86
1699.4
1567.83
1435.63
1304.19
1174.83
1048.93
927.848
812.732
705.127
607.356
521.822
450.594
394.919
354.638
327.913
311.652
302.489
297.639
295.212
294.034
293.475
293.215
293.096
293.042
293.018
293.008
293.003
293.001
293.001
293
293
293
293
293.004
293.017
293.04
293.077
293.139
293.243
293.413
293.688
294.131
294.833
295.926
297.602
300.118
303.809
309.086
316.416
326.282
339.121
355.258
374.858
397.899
424.2
453.466
485.347
519.491
555.582
593.351
632.584
673.115
714.817
757.59
801.352
846.027
891.534
937.788
984.687
1032.17
1080.27
1128.94
1178.09
1227.64
1277.52
1327.64
1377.9
1428.22
1478.5
1528.62
1578.47
1627.94
1676.89
1725.18
1772.66
1819.14
1864.43
1908.29
1950.47
1990.62
2028.35
2063.14
2093.41
2119.32
2140.6
2154.97
2160.5
2096.52
1977.97
1853.31
1724.51
1593.27
1461.09
1329.36
1199.43
1072.65
950.422
833.924
724.568
624.596
536.456
462.331
403.685
360.656
331.69
313.83
303.658
298.232
295.5
294.17
293.537
293.243
293.108
293.048
293.021
293.009
293.004
293.002
293.001
293
293
293
293
293.004
293.017
293.039
293.076
293.138
293.24
293.407
293.68
294.117
294.809
295.889
297.543
300.027
303.673
308.887
316.133
325.893
338.604
354.594
374.031
396.9
423.024
452.113
483.817
517.785
553.699
591.289
630.338
670.679
712.183
754.749
798.295
842.743
888.017
934.031
980.686
1027.91
1075.74
1124.14
1173.01
1222.29
1271.9
1321.74
1371.75
1421.81
1471.85
1521.75
1571.4
1620.69
1669.5
1717.67
1765.07
1811.51
1856.81
1900.72
1942.99
1983.28
2021.17
2056.12
2086.57
2112.43
2133.25
2146.18
2148.38
2120.99
2004.39
1881.02
1753.03
1622.19
1490.06
1358.06
1227.53
1099.82
976.315
858.302
747.044
644.662
553.634
476.259
414.225
368.001
336.367
316.559
305.137
298.986
295.867
294.343
293.618
293.28
293.125
293.055
293.024
293.01
293.004
293.002
293.001
293
293
293
293
293.004
293.017
293.039
293.075
293.136
293.237
293.402
293.67
294.101
294.784
295.848
297.48
299.93
303.527
308.673
315.831
325.477
338.051
353.883
373.145
395.83
421.765
450.662
482.176
515.955
551.678
589.073
627.923
668.057
709.345
751.685
794.993
839.194
884.21
929.959
976.343
1023.28
1070.82
1118.9
1167.47
1216.44
1265.74
1315.28
1364.98
1414.76
1464.52
1514.16
1563.58
1612.66
1661.28
1709.31
1756.6
1802.99
1848.28
1892.26
1934.67
1975.2
2013.45
2048.94
2080.65
2107.81
2130.58
2146.66
2154.12
2149.91
2034.52
1912.18
1784.98
1654.62
1522.61
1390.38
1259.26
1130.58
1005.74
886.084
772.802
667.822
573.644
492.675
426.83
376.928
342.145
319.98
307.009
299.949
296.337
294.566
293.721
293.326
293.146
293.064
293.028
293.012
293.005
293.002
293.001
293
293
293
293
293.004
293.017
293.038
293.074
293.134
293.233
293.396
293.66
294.085
294.757
295.805
297.413
299.827
303.372
308.449
315.512
325.04
337.469
353.134
372.214
394.704
420.439
449.135
480.448
514.025
549.546
586.735
625.373
665.286
706.342
748.439
791.492
835.424
880.161
925.621
971.709
1018.34
1065.55
1113.3
1161.52
1210.15
1259.1
1308.31
1357.68
1407.13
1456.58
1505.93
1555.07
1603.91
1652.32
1700.18
1747.34
1793.65
1838.94
1882.99
1925.57
1966.39
2005.11
2041.3
2074.41
2103.07
2128.34
2148.45
2162.55
2169.66
2065.29
1945.15
1819.45
1690.01
1558.42
1426.15
1294.54
1164.95
1038.76
917.375
801.969
694.267
596.726
511.856
441.79
387.715
349.257
324.261
309.382
301.179
296.94
294.853
293.854
293.387
293.173
293.076
293.033
293.014
293.006
293.003
293.001
293
293
293
293
293.004
293.016
293.037
293.073
293.132
293.229
293.389
293.65
294.067
294.729
295.761
297.342
299.719
303.212
308.214
315.181
324.585
336.865
352.359
371.249
393.538
419.067
447.555
478.659
512.028
547.339
584.313
622.728
662.41
703.222
745.062
787.844
831.491
875.93
921.08
966.851
1013.15
1060
1107.39
1155.25
1203.51
1252.09
1300.92
1349.92
1399.02
1448.12
1497.14
1545.99
1594.55
1642.71
1690.36
1737.37
1783.57
1828.82
1872.9
1915.6
1956.65
1995.73
2032.43
2066.24
2095.57
2121.24
2141.28
2154.1
2157.29
2096.21
1979.42
1855.95
1727.94
1597.14
1465.09
1333.19
1202.81
1075.32
952.173
834.609
724.124
623.073
534.049
459.39
400.657
357.966
329.599
312.384
302.75
297.714
295.221
294.025
293.464
293.207
293.091
293.04
293.017
293.007
293.003
293.001
293.001
293
293
293
293.004
293.016
293.037
293.072
293.129
293.225
293.383
293.638
294.049
294.699
295.714
297.269
299.608
303.045
307.973
314.84
324.118
336.247
351.567
370.265
392.351
417.671
445.948
476.842
510
545.097
581.852
620.04
659.483
700.045
741.618
784.118
827.467
871.593
916.417
961.852
1007.8
1054.28
1101.29
1148.76
1196.61
1244.8
1293.23
1341.84
1390.55
1439.29
1487.95
1536.46
1584.72
1632.61
1680.02
1726.84
1772.9
1818.06
1862.14
1904.91
1946.11
1985.45
2022.5
2056.78
2086.95
2112.66
2133.47
2146.62
2149.23
2132.39
2017.49
1895.65
1768.9
1638.91
1507.18
1375.12
1244.06
1115.36
990.462
870.73
757.463
652.823
559.46
479.895
416.048
368.557
336.232
316.18
304.761
298.71
295.696
294.245
293.564
293.252
293.111
293.048
293.021
293.009
293.004
293.002
293.001
293
293
293
293.004
293.016
293.036
293.07
293.127
293.221
293.376
293.627
294.029
294.668
295.664
297.193
299.491
302.873
307.724
314.49
323.642
335.62
350.766
369.274
391.161
416.276
444.347
475.035
507.985
542.871
579.409
617.37
656.574
696.882
738.186
780.398
823.443
867.248
911.736
956.823
1002.42
1048.51
1095.12
1142.18
1189.62
1237.39
1285.41
1333.61
1381.92
1430.27
1478.56
1526.72
1574.64
1622.24
1669.39
1715.99
1761.89
1806.94
1850.98
1893.79
1935.14
1974.74
2012.23
2047.16
2078.82
2106.22
2129.81
2147.92
2159.6
2164.01
2055.4
1936.23
1811.4
1682.68
1551.64
1419.69
1288.19
1158.47
1031.96
910.096
794.122
685.93
588.153
503.464
434.117
381.285
344.383
320.928
307.306
299.982
296.304
294.527
293.692
293.309
293.136
293.059
293.025
293.011
293.005
293.002
293.001
293
293
293
293.004
293.015
293.035
293.069
293.125
293.217
293.368
293.614
294.009
294.635
295.613
297.114
299.372
302.697
307.472
314.138
323.166
334.995
349.973
368.298
389.993
414.913
442.788
473.279
506.032
540.717
577.047
614.79
653.763
693.823
734.861
776.789
819.53
863.014
907.166
951.903
997.134
1042.84
1089.05
1135.7
1182.73
1230.08
1277.68
1325.47
1373.38
1421.32
1469.24
1517.04
1564.63
1611.92
1658.81
1705.17
1750.89
1795.82
1839.8
1882.63
1924.09
1963.93
2001.79
2037.29
2069.87
2098.24
2122.84
2141.92
2154.07
2157.3
2091.73
1976.07
1853.81
1726.93
1597.05
1465.65
1334.08
1203.68
1075.84
952.027
833.55
722.004
619.906
530.046
454.969
396.363
354.303
326.848
310.539
301.622
297.092
294.893
293.858
293.382
293.168
293.073
293.031
293.013
293.006
293.002
293.001
293
293
293
293.003
293.015
293.035
293.067
293.122
293.212
293.36
293.6
293.987
294.599
295.557
297.027
299.243
302.508
307.203
313.768
322.673
334.359
349.178
367.335
388.856
413.603
441.306
471.626
504.206
538.712
574.855
612.398
651.155
690.982
731.767
773.423
815.874
859.048
902.873
947.271
992.153
1037.49
1083.31
1129.56
1176.19
1223.14
1270.34
1317.74
1365.25
1412.83
1460.38
1507.83
1555.11
1602.1
1648.73
1694.86
1740.4
1785.19
1829.09
1871.91
1913.44
1953.44
1991.58
2027.47
2060.61
2089.67
2114.47
2134.24
2146.37
2147.97
2128.81
2015.71
1895.7
1770.65
1642.15
1511.6
1380.33
1249.66
1120.9
995.495
874.857
760.339
654.206
559.308
478.423
413.724
365.986
333.944
314.453
303.613
298.046
295.334
294.056
293.47
293.206
293.089
293.038
293.016
293.007
293.003
293.001
293
293
293
293.003
293.015
293.034
293.066
293.119
293.207
293.351
293.585
293.963
294.561
295.498
296.939
299.113
302.321
306.941
313.412
322.204
333.76
348.438
366.447
387.819
412.418
439.976
470.152
502.586
536.941
572.924
610.294
648.863
688.483
729.043
770.454
812.639
855.531
899.059
943.147
987.71
1032.71
1078.18
1124.08
1170.35
1216.94
1263.79
1310.83
1358.01
1405.25
1452.48
1499.64
1546.63
1593.37
1639.76
1685.7
1731.07
1775.74
1819.56
1862.37
1903.96
1944.1
1982.5
2018.81
2052.59
2083.07
2109.49
2131.81
2148.43
2158.12
2159.6
2050.8
1933.67
1810.9
1684.15
1554.87
1424.4
1293.98
1164.91
1038.53
916.297
799.458
689.95