/*--------------------------------*- C++ -*----------------------------------*\
  =========                 |
  \\      /  F ield         | OpenFOAM: The Open Source CFD Toolbox
   \\    /   O peration     | Website:  https://openfoam.org
    \\  /    A nd           | Version:  8
     \\/     M anipulation  |
\*---------------------------------------------------------------------------*/
FoamFile
{
    version     2.0;
    format      ascii;
    class       volVectorField;
    location    "180/fluid";
    object      U;
}
// * * * * * * * * * * * * * * * * * * * * * * * * * * * * * * * * * * * * * //

dimensions      [0 1 -1 0 0 0 0];

internalField   nonuniform List<vector> 
4000
(
(0.0999544 -0.00673323 0)
(0.0997067 -0.0200849 0)
(0.0993065 -0.0333385 0)
(0.0987535 -0.0465184 0)
(0.0980414 -0.059664 0)
(0.0971554 -0.0727961 0)
(0.0960777 -0.0859091 0)
(0.0947914 -0.0989819 0)
(0.0932822 -0.111986 0)
(0.0915411 -0.124893 0)
(0.0895667 -0.137675 0)
(0.0873685 -0.15031 0)
(0.0849692 -0.162785 0)
(0.0824091 -0.175087 0)
(0.0797501 -0.187192 0)
(0.0770649 -0.199138 0)
(0.0744113 -0.21093 0)
(0.0718257 -0.222549 0)
(0.0693152 -0.233933 0)
(0.0668544 -0.244981 0)
(0.0643898 -0.255556 0)
(0.0618522 -0.265501 0)
(0.0591715 -0.274662 0)
(0.0562916 -0.282902 0)
(0.0531831 -0.290103 0)
(0.0498424 -0.296206 0)
(0.0462783 -0.301214 0)
(0.0425068 -0.305155 0)
(0.0385492 -0.308082 0)
(0.0344302 -0.310069 0)
(0.0301756 -0.31121 0)
(0.02581 -0.311607 0)
(0.0213559 -0.311367 0)
(0.016833 -0.310601 0)
(0.0122578 -0.309415 0)
(0.00764357 -0.307912 0)
(0.00300085 -0.306188 0)
(-0.00166087 -0.304331 0)
(-0.00633335 -0.302421 0)
(-0.0110119 -0.300534 0)
(-0.0156952 -0.298737 0)
(-0.0203838 -0.297089 0)
(-0.0250792 -0.295641 0)
(-0.029784 -0.294437 0)
(-0.0345011 -0.293515 0)
(-0.0392341 -0.292905 0)
(-0.0439868 -0.292635 0)
(-0.0487626 -0.292726 0)
(-0.0535651 -0.293197 0)
(-0.0583971 -0.29406 0)
(-0.0632607 -0.295327 0)
(-0.0681574 -0.297005 0)
(-0.0730871 -0.299099 0)
(-0.0780489 -0.301608 0)
(-0.0830398 -0.304533 0)
(-0.0880552 -0.307867 0)
(-0.0930882 -0.311603 0)
(-0.0981298 -0.31573 0)
(-0.103168 -0.320234 0)
(-0.108189 -0.3251 0)
(-0.113171 -0.330309 0)
(-0.118086 -0.335841 0)
(-0.122905 -0.341668 0)
(-0.12764 -0.34779 0)
(-0.132349 -0.354273 0)
(-0.136781 -0.361281 0)
(-0.139113 -0.368615 0)
(-0.139758 -0.375529 0)
(-0.138682 -0.381685 0)
(-0.135694 -0.385666 0)
(-0.132119 -0.387352 0)
(-0.128228 -0.386721 0)
(-0.123955 -0.383659 0)
(-0.119281 -0.378017 0)
(-0.114233 -0.36966 0)
(-0.108859 -0.358519 0)
(-0.103211 -0.344609 0)
(-0.0973455 -0.32806 0)
(-0.0913611 -0.309137 0)
(-0.085463 -0.28829 0)
(-0.0799806 -0.266204 0)
(-0.0753308 -0.243759 0)
(-0.0719884 -0.222197 0)
(-0.0704017 -0.202666 0)
(-0.0707476 -0.185661 0)
(-0.0727771 -0.170923 0)
(-0.0759321 -0.157732 0)
(-0.0795966 -0.145358 0)
(-0.0832833 -0.133292 0)
(-0.0866867 -0.121253 0)
(-0.0896437 -0.109125 0)
(-0.0921191 -0.0970114 0)
(-0.0941444 -0.0849791 0)
(-0.0957724 -0.0730952 0)
(-0.0970597 -0.061413 0)
(-0.0980599 -0.0499573 0)
(-0.0988195 -0.038704 0)
(-0.0993749 -0.0275667 0)
(-0.0997511 -0.0164593 0)
(-0.0999683 -0.00543482 0)
(0.0999999 -0.00636762 0)
(0.0998273 -0.0190822 0)
(0.0994697 -0.0317218 0)
(0.0989068 -0.044266 0)
(0.0981399 -0.0567241 0)
(0.097165 -0.0690945 0)
(0.0959731 -0.0813559 0)
(0.0945562 -0.0934768 0)
(0.0929104 -0.105424 0)
(0.0910392 -0.117166 0)
(0.0889561 -0.12868 0)
(0.0866864 -0.139956 0)
(0.0842688 -0.151001 0)
(0.0817548 -0.161852 0)
(0.0792075 -0.172584 0)
(0.0766878 -0.183206 0)
(0.0742448 -0.193731 0)
(0.0719047 -0.204162 0)
(0.0696625 -0.214467 0)
(0.0674796 -0.224575 0)
(0.0652895 -0.234371 0)
(0.0630107 -0.243717 0)
(0.0605628 -0.252466 0)
(0.0578805 -0.260486 0)
(0.054922 -0.267692 0)
(0.0516728 -0.274002 0)
(0.04814 -0.279351 0)
(0.0443433 -0.283722 0)
(0.0403117 -0.287139 0)
(0.0360789 -0.289656 0)
(0.0316791 -0.291349 0)
(0.0271452 -0.29231 0)
(0.0225062 -0.292637 0)
(0.0177876 -0.292432 0)
(0.0130101 -0.291796 0)
(0.00819062 -0.290826 0)
(0.00334222 -0.289613 0)
(-0.00152437 -0.288239 0)
(-0.0064007 -0.286785 0)
(-0.0112818 -0.285323 0)
(-0.0161663 -0.28392 0)
(-0.0210545 -0.282634 0)
(-0.0259486 -0.281515 0)
(-0.0308515 -0.280607 0)
(-0.0357672 -0.279947 0)
(-0.0407002 -0.279567 0)
(-0.0456554 -0.279495 0)
(-0.0506376 -0.279753 0)
(-0.0556517 -0.28036 0)
(-0.0607021 -0.281331 0)
(-0.0657927 -0.282679 0)
(-0.0709266 -0.284413 0)
(-0.0761063 -0.286538 0)
(-0.0813328 -0.289059 0)
(-0.0866059 -0.291974 0)
(-0.091924 -0.29528 0)
(-0.0972833 -0.298968 0)
(-0.102678 -0.303026 0)
(-0.108102 -0.307436 0)
(-0.113543 -0.312174 0)
(-0.118988 -0.317207 0)
(-0.124406 -0.32249 0)
(-0.129785 -0.327972 0)
(-0.13516 -0.33359 0)
(-0.140649 -0.339269 0)
(-0.14609 -0.34487 0)
(-0.148733 -0.350212 0)
(-0.14854 -0.355772 0)
(-0.146297 -0.359658 0)
(-0.142723 -0.361772 0)
(-0.138766 -0.361978 0)
(-0.134531 -0.360012 0)
(-0.129924 -0.355614 0)
(-0.124897 -0.348578 0)
(-0.119457 -0.338759 0)
(-0.113624 -0.326092 0)
(-0.107416 -0.310623 0)
(-0.100854 -0.292551 0)
(-0.0940337 -0.27229 0)
(-0.0872091 -0.250559 0)
(-0.0808106 -0.228444 0)
(-0.075402 -0.207373 0)
(-0.0715864 -0.188471 0)
(-0.0697948 -0.172313 0)
(-0.0700625 -0.158848 0)
(-0.0720014 -0.147433 0)
(-0.0750057 -0.137217 0)
(-0.0784929 -0.127508 0)
(-0.0820374 -0.117889 0)
(-0.0853856 -0.108189 0)
(-0.0884083 -0.0983551 0)
(-0.0910422 -0.0882703 0)
(-0.0932799 -0.0779817 0)
(-0.095138 -0.0675759 0)
(-0.0966464 -0.0571348 0)
(-0.0978392 -0.0467176 0)
(-0.0987485 -0.0363393 0)
(-0.0993964 -0.0259556 0)
(-0.0997988 -0.0155186 0)
(-0.0999945 -0.00511695 0)
(0.0999823 -0.00613304 0)
(0.0997592 -0.0183686 0)
(0.099321 -0.0305256 0)
(0.0986513 -0.0425819 0)
(0.0977529 -0.0545425 0)
(0.0966254 -0.0664043 0)
(0.0952669 -0.0781479 0)
(0.093678 -0.0897468 0)
(0.0918652 -0.101175 0)
(0.0898428 -0.112411 0)
(0.087635 -0.123441 0)
(0.0852779 -0.134261 0)
(0.0828193 -0.144878 0)
(0.0803159 -0.155306 0)
(0.0778251 -0.165572 0)
(0.0754014 -0.175706 0)
(0.0730907 -0.185735 0)
(0.0709169 -0.195667 0)
(0.0688719 -0.205479 0)
(0.0669119 -0.215104 0)
(0.0649642 -0.22444 0)
(0.0629402 -0.233357 0)
(0.060752 -0.241718 0)
(0.0583254 -0.249393 0)
(0.0556059 -0.256279 0)
(0.0525621 -0.262306 0)
(0.0491873 -0.267436 0)
(0.0454964 -0.271668 0)
(0.0415174 -0.275025 0)
(0.0372858 -0.277556 0)
(0.0328393 -0.27933 0)
(0.0282146 -0.280424 0)
(0.0234456 -0.280928 0)
(0.018562 -0.280933 0)
(0.0135893 -0.280529 0)
(0.00854828 -0.279806 0)
(0.00345602 -0.278845 0)
(-0.00167355 -0.277726 0)
(-0.00682931 -0.276521 0)
(-0.012004 -0.2753 0)
(-0.0171943 -0.274125 0)
(-0.0223993 -0.273052 0)
(-0.02762 -0.272128 0)
(-0.0328588 -0.271395 0)
(-0.0381193 -0.27089 0)
(-0.0434062 -0.270644 0)
(-0.0487245 -0.270683 0)
(-0.0540796 -0.27103 0)
(-0.0594772 -0.271703 0)
(-0.0649227 -0.272717 0)
(-0.0704214 -0.274085 0)
(-0.0759781 -0.275815 0)
(-0.081597 -0.277913 0)
(-0.0872813 -0.280382 0)
(-0.0930332 -0.283221 0)
(-0.0988535 -0.286423 0)
(-0.104741 -0.289978 0)
(-0.110692 -0.293871 0)
(-0.116699 -0.298078 0)
(-0.122752 -0.302568 0)
(-0.128825 -0.307297 0)
(-0.134882 -0.312208 0)
(-0.140876 -0.317229 0)
(-0.146766 -0.322269 0)
(-0.152552 -0.327177 0)
(-0.158273 -0.331717 0)
(-0.163086 -0.335671 0)
(-0.163672 -0.339579 0)
(-0.15942 -0.342041 0)
(-0.154316 -0.342802 0)
(-0.149168 -0.34171 0)
(-0.143806 -0.338529 0)
(-0.138066 -0.333027 0)
(-0.13191 -0.325036 0)
(-0.125325 -0.314465 0)
(-0.118315 -0.301326 0)
(-0.110879 -0.285765 0)
(-0.103054 -0.268091 0)
(-0.0949979 -0.248827 0)
(-0.0870707 -0.228739 0)
(-0.079819 -0.208803 0)
(-0.0739135 -0.19008 0)
(-0.0699709 -0.173473 0)
(-0.0682891 -0.159416 0)
(-0.0687065 -0.147697 0)
(-0.0707105 -0.137635 0)
(-0.073681 -0.128464 0)
(-0.0770827 -0.1196 0)
(-0.0805456 -0.110704 0)
(-0.0838581 -0.101625 0)
(-0.0869166 -0.0923262 0)
(-0.0896682 -0.0828387 0)
(-0.0920827 -0.0732098 0)
(-0.0941523 -0.0634944 0)
(-0.0958835 -0.0537447 0)
(-0.0972912 -0.0439995 0)
(-0.0983921 -0.0342651 0)
(-0.0991978 -0.0244978 0)
(-0.0997163 -0.0146558 0)
(-0.0999806 -0.00483331 0)
(0.099986 -0.0058324 0)
(0.0997555 -0.0174678 0)
(0.0992956 -0.0290195 0)
(0.098589 -0.0404597 0)
(0.0976424 -0.0517888 0)
(0.0964605 -0.0629998 0)
(0.0950463 -0.0740714 0)
(0.0934054 -0.0849761 0)
(0.0915486 -0.0956887 0)
(0.0894936 -0.106189 0)
(0.0872664 -0.116466 0)
(0.084903 -0.12652 0)
(0.0824497 -0.136362 0)
(0.0799623 -0.146018 0)
(0.0775016 -0.155526 0)
(0.0751264 -0.164924 0)
(0.0728829 -0.174248 0)
(0.070792 -0.18351 0)
(0.0688407 -0.192696 0)
(0.0669797 -0.201748 0)
(0.0651303 -0.210571 0)
(0.0631985 -0.219044 0)
(0.061091 -0.227038 0)
(0.0587298 -0.234428 0)
(0.0560599 -0.241114 0)
(0.053052 -0.247022 0)
(0.0496994 -0.252111 0)
(0.0460139 -0.256371 0)
(0.0420199 -0.259819 0)
(0.0377491 -0.262498 0)
(0.0332366 -0.264466 0)
(0.0285173 -0.265796 0)
(0.0236242 -0.266567 0)
(0.0185871 -0.266862 0)
(0.0134319 -0.266765 0)
(0.00818062 -0.266357 0)
(0.00285166 -0.265715 0)
(-0.00253918 -0.264911 0)
(-0.00797907 -0.264013 0)
(-0.0134595 -0.263086 0)
(-0.0189757 -0.26219 0)
(-0.0245254 -0.261376 0)
(-0.0301085 -0.260689 0)
(-0.0357264 -0.26017 0)
(-0.0413823 -0.259853 0)
(-0.04708 -0.259768 0)
(-0.0528244 -0.25994 0)
(-0.0586209 -0.260391 0)
(-0.0644752 -0.261138 0)
(-0.0703932 -0.262197 0)
(-0.0763807 -0.263578 0)
(-0.082443 -0.265291 0)
(-0.0885852 -0.267339 0)
(-0.0948116 -0.269725 0)
(-0.101125 -0.272444 0)
(-0.107528 -0.27549 0)
(-0.114019 -0.27885 0)
(-0.120596 -0.282504 0)
(-0.127251 -0.286426 0)
(-0.13397 -0.290581 0)
(-0.14072 -0.294922 0)
(-0.147458 -0.299388 0)
(-0.15414 -0.303909 0)
(-0.160685 -0.308408 0)
(-0.166982 -0.312831 0)
(-0.172799 -0.317015 0)
(-0.177313 -0.319983 0)
(-0.177057 -0.321514 0)
(-0.171622 -0.321907 0)
(-0.165327 -0.320913 0)
(-0.158997 -0.318245 0)
(-0.152413 -0.313645 0)
(-0.145418 -0.306918 0)
(-0.137988 -0.297929 0)
(-0.130135 -0.286628 0)
(-0.12188 -0.273073 0)
(-0.113252 -0.257458 0)
(-0.104348 -0.240143 0)
(-0.0954292 -0.221697 0)
(-0.0869529 -0.20291 0)
(-0.0795186 -0.184736 0)
(-0.0737571 -0.168145 0)
(-0.070144 -0.153843 0)
(-0.0687993 -0.141999 0)
(-0.069432 -0.132208 0)
(-0.0714922 -0.123754 0)
(-0.0743941 -0.115949 0)
(-0.0776615 -0.108313 0)
(-0.0809734 -0.100577 0)
(-0.0841436 -0.0926191 0)
(-0.0870744 -0.0844062 0)
(-0.0897198 -0.0759534 0)
(-0.0920601 -0.0673051 0)
(-0.0940898 -0.0585164 0)
(-0.0958109 -0.0496409 0)
(-0.0972297 -0.0407206 0)
(-0.0983525 -0.0317677 0)
(-0.0991806 -0.0227466 0)
(-0.099714 -0.0136227 0)
(-0.0999834 -0.00449406 0)
(0.0999833 -0.00552582 0)
(0.0997362 -0.0165479 0)
(0.0992471 -0.0274872 0)
(0.0984997 -0.0383156 0)
(0.0975027 -0.0490324 0)
(0.0962631 -0.0596304 0)
(0.0947868 -0.0700892 0)
(0.0930822 -0.0803834 0)
(0.0911634 -0.0904902 0)
(0.0890513 -0.100392 0)
(0.0867754 -0.110081 0)
(0.0843752 -0.119557 0)
(0.0819003 -0.128834 0)
(0.0794089 -0.137936 0)
(0.0769637 -0.146897 0)
(0.0746235 -0.155754 0)
(0.0724328 -0.164538 0)
(0.0704096 -0.173264 0)
(0.0685371 -0.181917 0)
(0.0667617 -0.190445 0)
(0.0650002 -0.198762 0)
(0.0631537 -0.206759 0)
(0.0611246 -0.214315 0)
(0.0588305 -0.221318 0)
(0.056213 -0.227675 0)
(0.0532395 -0.233317 0)
(0.049901 -0.238208 0)
(0.0462075 -0.242336 0)
(0.0421816 -0.245719 0)
(0.0378541 -0.248392 0)
(0.0332587 -0.25041 0)
(0.02843 -0.251837 0)
(0.0234005 -0.252745 0)
(0.0181998 -0.253211 0)
(0.0128542 -0.253309 0)
(0.00738601 -0.253114 0)
(0.0018147 -0.252697 0)
(-0.00384315 -0.252123 0)
(-0.00957386 -0.251455 0)
(-0.015368 -0.250755 0)
(-0.0212199 -0.250076 0)
(-0.0271265 -0.249465 0)
(-0.0330866 -0.248966 0)
(-0.039101 -0.248616 0)
(-0.0451719 -0.248445 0)
(-0.0513026 -0.248482 0)
(-0.0574976 -0.248751 0)
(-0.0637618 -0.249271 0)
(-0.0701005 -0.250059 0)
(-0.0765194 -0.251128 0)
(-0.0830242 -0.252488 0)
(-0.0896202 -0.254147 0)
(-0.0963123 -0.256107 0)
(-0.103105 -0.258368 0)
(-0.110001 -0.260924 0)
(-0.117002 -0.263767 0)
(-0.124107 -0.266878 0)
(-0.131314 -0.270236 0)
(-0.138614 -0.273807 0)
(-0.145992 -0.27755 0)
(-0.153412 -0.281407 0)
(-0.160838 -0.285307 0)
(-0.168281 -0.289165 0)
(-0.175808 -0.292885 0)
(-0.183213 -0.296441 0)
(-0.188264 -0.299804 0)
(-0.189726 -0.302274 0)
(-0.186901 -0.302379 0)
(-0.180942 -0.301263 0)
(-0.17416 -0.298933 0)
(-0.167018 -0.295092 0)
(-0.159427 -0.289489 0)
(-0.151337 -0.281967 0)
(-0.142773 -0.27244 0)
(-0.133782 -0.260904 0)
(-0.124416 -0.247467 0)
(-0.114743 -0.232365 0)
(-0.104931 -0.215995 0)
(-0.0953307 -0.198947 0)
(-0.0864633 -0.18198 0)
(-0.0789472 -0.165951 0)
(-0.073365 -0.151632 0)
(-0.0700721 -0.139474 0)
(-0.0690379 -0.129423 0)
(-0.0698636 -0.120993 0)
(-0.0719737 -0.11354 0)
(-0.0748167 -0.106516 0)
(-0.0779702 -0.0995578 0)
(-0.081159 -0.0924702 0)
(-0.0842237 -0.0851671 0)
(-0.0870771 -0.0776286 0)
(-0.089673 -0.0698736 0)
(-0.0919874 -0.0619414 0)
(-0.0940095 -0.0538792 0)
(-0.0957362 -0.0457327 0)
(-0.097169 -0.0375377 0)
(-0.0983098 -0.0293044 0)
(-0.0991557 -0.0209979 0)
(-0.0997034 -0.0125824 0)
(-0.0999817 -0.00415127 0)
(0.0999835 -0.00520131 0)
(0.0997298 -0.015576 0)
(0.0992267 -0.0258698 0)
(0.0984579 -0.036054 0)
(0.0974339 -0.0461267 0)
(0.0961635 -0.0560801 0)
(0.0946542 -0.0658939 0)
(0.0929168 -0.0755437 0)
(0.0909669 -0.0850075 0)
(0.0888273 -0.0942697 0)
(0.0865291 -0.103323 0)
(0.0841127 -0.11217 0)
(0.0816288 -0.120824 0)
(0.079136 -0.129313 0)
(0.0766971 -0.13767 0)
(0.0743707 -0.145934 0)
(0.0722001 -0.15414 0)
(0.070202 -0.162304 0)
(0.0683574 -0.170413 0)
(0.0666105 -0.178422 0)
(0.0648756 -0.186248 0)
(0.0630518 -0.19379 0)
(0.0610394 -0.200936 0)
(0.0587544 -0.20758 0)
(0.0561365 -0.213633 0)
(0.0531512 -0.21903 0)
(0.049788 -0.223737 0)
(0.0460546 -0.227741 0)
(0.041972 -0.231057 0)
(0.0375691 -0.233718 0)
(0.0328781 -0.235772 0)
(0.0279323 -0.237277 0)
(0.0227631 -0.238301 0)
(0.0173996 -0.23891 0)
(0.0118673 -0.239176 0)
(0.0061889 -0.239166 0)
(0.00038398 -0.238943 0)
(-0.0055303 -0.23857 0)
(-0.0115402 -0.238104 0)
(-0.017636 -0.237602 0)
(-0.0238114 -0.237112 0)
(-0.0300627 -0.23668 0)
(-0.036388 -0.236343 0)
(-0.0427874 -0.236137 0)
(-0.0492624 -0.236089 0)
(-0.0558156 -0.236225 0)
(-0.0624506 -0.236567 0)
(-0.0691717 -0.237134 0)
(-0.0759836 -0.237938 0)
(-0.0828911 -0.238993 0)
(-0.0898991 -0.240306 0)
(-0.097012 -0.241883 0)
(-0.104234 -0.243725 0)
(-0.111567 -0.245829 0)
(-0.119012 -0.248188 0)
(-0.126569 -0.250789 0)
(-0.134231 -0.253612 0)
(-0.141991 -0.256631 0)
(-0.14983 -0.259809 0)
(-0.157716 -0.263099 0)
(-0.165587 -0.26644 0)
(-0.173392 -0.269752 0)
(-0.181082 -0.272927 0)
(-0.18868 -0.27583 0)
(-0.196093 -0.278307 0)
(-0.201764 -0.280192 0)
(-0.202037 -0.28135 0)
(-0.196302 -0.280922 0)
(-0.189095 -0.279167 0)
(-0.181495 -0.276097 0)
(-0.173434 -0.271536 0)
(-0.164833 -0.26533 0)
(-0.155711 -0.257376 0)
(-0.146126 -0.247633 0)
(-0.136145 -0.236145 0)
(-0.125843 -0.223053 0)
(-0.115332 -0.208622 0)
(-0.104857 -0.193266 0)
(-0.0948461 -0.177569 0)
(-0.0858655 -0.162246 0)
(-0.0785273 -0.148056 0)
(-0.0733385 -0.135619 0)
(-0.0705143 -0.125206 0)
(-0.0698759 -0.116633 0)
(-0.0709378 -0.10939 0)
(-0.0731172 -0.102897 0)
(-0.0759041 -0.0966938 0)
(-0.0789285 -0.0904914 0)
(-0.0819583 -0.0841362 0)
(-0.0848618 -0.0775623 0)
(-0.0875673 -0.070757 0)
(-0.0900357 -0.0637393 0)
(-0.0922458 -0.0565465 0)
(-0.0941862 -0.0492223 0)
(-0.0958515 -0.0418089 0)
(-0.09724 -0.0343407 0)
(-0.0983502 -0.0268282 0)
(-0.099176 -0.0192386 0)
(-0.0997112 -0.0115356 0)
(-0.0999828 -0.0038064 0)
(0.0999828 -0.00487 0)
(0.0997224 -0.0145834 0)
(0.0992066 -0.0242194 0)
(0.0984195 -0.0337504 0)
(0.0973723 -0.0431739 0)
(0.0960748 -0.0524827 0)
(0.0945358 -0.0616574 0)
(0.0927671 -0.070675 0)
(0.0907859 -0.0795153 0)
(0.0886165 -0.0881638 0)
(0.0862913 -0.0966143 0)
(0.0838524 -0.10487 0)
(0.0813517 -0.112946 0)
(0.0788492 -0.120867 0)
(0.0764082 -0.128667 0)
(0.0740872 -0.136382 0)
(0.0719289 -0.144045 0)
(0.0699479 -0.151672 0)
(0.0681228 -0.159252 0)
(0.0663948 -0.166741 0)
(0.0646754 -0.174067 0)
(0.0628612 -0.181134 0)
(0.0608505 -0.187839 0)
(0.0585577 -0.194085 0)
(0.0559211 -0.19979 0)
(0.0529053 -0.204896 0)
(0.0494985 -0.209367 0)
(0.0457074 -0.213194 0)
(0.0415519 -0.216389 0)
(0.0370595 -0.218981 0)
(0.0322617 -0.221014 0)
(0.0271906 -0.222541 0)
(0.021877 -0.223623 0)
(0.0163491 -0.224322 0)
(0.0106321 -0.224702 0)
(0.00474828 -0.224823 0)
(-0.00128213 -0.224745 0)
(-0.00744175 -0.224524 0)
(-0.0137172 -0.224214 0)
(-0.0200989 -0.223867 0)
(-0.02658 -0.223526 0)
(-0.0331563 -0.223232 0)
(-0.0398255 -0.223022 0)
(-0.0465869 -0.222924 0)
(-0.0534413 -0.222966 0)
(-0.0603906 -0.223171 0)
(-0.0674375 -0.223558 0)
(-0.0745853 -0.224142 0)
(-0.0818375 -0.224938 0)
(-0.0891979 -0.225953 0)
(-0.0966698 -0.227196 0)
(-0.104256 -0.228669 0)
(-0.111958 -0.230373 0)
(-0.119777 -0.232303 0)
(-0.12771 -0.23445 0)
(-0.135753 -0.2368 0)
(-0.143896 -0.239333 0)
(-0.152125 -0.242021 0)
(-0.160416 -0.24483 0)
(-0.168719 -0.247717 0)
(-0.176967 -0.250624 0)
(-0.185091 -0.253485 0)
(-0.193008 -0.25622 0)
(-0.200545 -0.258766 0)
(-0.20737 -0.260977 0)
(-0.212234 -0.261997 0)
(-0.211359 -0.261518 0)
(-0.204327 -0.260071 0)
(-0.196061 -0.257579 0)
(-0.187525 -0.253855 0)
(-0.178529 -0.248755 0)
(-0.168982 -0.242173 0)
(-0.158927 -0.234039 0)
(-0.148445 -0.224342 0)
(-0.137619 -0.213153 0)
(-0.126545 -0.200635 0)
(-0.115381 -0.18707 0)
(-0.104443 -0.17288 0)
(-0.0942131 -0.158629 0)
(-0.0852795 -0.144977 0)
(-0.0782232 -0.132571 0)
(-0.0734584 -0.121875 0)
(-0.0710659 -0.112996 0)
(-0.070751 -0.105653 0)
(-0.0719799 -0.0993469 0)
(-0.0741856 -0.0935824 0)
(-0.0769025 -0.0879958 0)
(-0.0798065 -0.082367 0)
(-0.0826984 -0.0765823 0)
(-0.0854659 -0.0705946 0)
(-0.0880466 -0.0643975 0)
(-0.0904053 -0.05801 0)
(-0.092522 -0.051466 0)
(-0.0943849 -0.0448046 0)
(-0.0959876 -0.038063 0)
(-0.0973271 -0.0312719 0)
(-0.0984003 -0.0244407 0)
(-0.0992001 -0.0175366 0)
(-0.0997194 -0.0105208 0)
(-0.0999832 -0.0034721 0)
(0.0999827 -0.00453124 0)
(0.0997179 -0.0135688 0)
(0.0991934 -0.022533 0)
(0.0983932 -0.0313975 0)
(0.0973292 -0.0401598 0)
(0.096012 -0.0488129 0)
(0.0944511 -0.0573383 0)
(0.0926592 -0.0657144 0)
(0.0906543 -0.0739222 0)
(0.0884617 -0.0819485 0)
(0.0861149 -0.089788 0)
(0.0836568 -0.0974445 0)
(0.0811402 -0.104932 0)
(0.0786257 -0.112276 0)
(0.0761769 -0.119509 0)
(0.0738522 -0.126666 0)
(0.0716933 -0.133779 0)
(0.0697137 -0.140864 0)
(0.0678898 -0.147912 0)
(0.0661608 -0.154882 0)
(0.064436 -0.161707 0)
(0.0626102 -0.168298 0)
(0.0605804 -0.174561 0)
(0.0582599 -0.180406 0)
(0.0555864 -0.185756 0)
(0.0525235 -0.190558 0)
(0.0490586 -0.194779 0)
(0.0451977 -0.19841 0)
(0.0409595 -0.201461 0)
(0.0363708 -0.203958 0)
(0.0314621 -0.205942 0)
(0.0262645 -0.20746 0)
(0.0208082 -0.208568 0)
(0.0151207 -0.209323 0)
(0.0092268 -0.209781 0)
(0.00314783 -0.209999 0)
(-0.00309443 -0.210031 0)
(-0.0094824 -0.209927 0)
(-0.0160042 -0.20974 0)
(-0.0226499 -0.209513 0)
(-0.0294125 -0.209289 0)
(-0.0362872 -0.209104 0)
(-0.0432714 -0.208989 0)
(-0.0503636 -0.208972 0)
(-0.0575642 -0.209078 0)
(-0.064874 -0.209326 0)
(-0.072295 -0.209733 0)
(-0.0798294 -0.210314 0)
(-0.0874797 -0.211079 0)
(-0.095248 -0.212038 0)
(-0.103136 -0.213194 0)
(-0.111146 -0.21455 0)
(-0.119276 -0.216104 0)
(-0.127526 -0.217852 0)
(-0.13589 -0.219783 0)
(-0.144362 -0.221882 0)
(-0.152928 -0.224129 0)
(-0.161573 -0.226495 0)
(-0.170265 -0.228944 0)
(-0.17895 -0.231432 0)
(-0.187566 -0.233897 0)
(-0.196126 -0.236275 0)
(-0.204658 -0.238509 0)
(-0.212871 -0.24063 0)
(-0.218445 -0.242595 0)
(-0.219977 -0.243491 0)
(-0.216454 -0.242014 0)
(-0.209014 -0.239679 0)
(-0.200493 -0.236516 0)
(-0.191442 -0.232288 0)
(-0.181804 -0.226832 0)
(-0.17157 -0.220061 0)
(-0.160823 -0.21193 0)
(-0.149663 -0.202448 0)
(-0.138198 -0.191704 0)
(-0.126549 -0.179873 0)
(-0.114929 -0.167242 0)
(-0.103719 -0.154227 0)
(-0.0934457 -0.14136 0)
(-0.0847009 -0.129237 0)
(-0.0780223 -0.118402 0)
(-0.0737251 -0.109184 0)
(-0.0717659 -0.101574 0)
(-0.071757 -0.095246 0)
(-0.0731369 -0.0897362 0)
(-0.0753613 -0.0846244 0)
(-0.0780071 -0.0796176 0)
(-0.080791 -0.0745441 0)
(-0.0835436 -0.0693164 0)
(-0.08617 -0.0638998 0)
(-0.0886172 -0.0582917 0)
(-0.0908551 -0.0525111 0)
(-0.0928656 -0.0465894 0)
(-0.0946377 -0.0405621 0)
(-0.0961647 -0.0344629 0)
(-0.0974429 -0.0283199 0)
(-0.0984686 -0.0221417 0)
(-0.099234 -0.015896 0)
(-0.0997315 -0.00954217 0)
(-0.0999841 -0.00314991 0)
(0.0999824 -0.00418753 0)
(0.0997137 -0.0125392 0)
(0.0991816 -0.0208222 0)
(0.0983701 -0.0290118 0)
(0.0972915 -0.0371058 0)
(0.0959569 -0.0450974 0)
(0.0943762 -0.0529696 0)
(0.0925628 -0.0607021 0)
(0.0905355 -0.0682774 0)
(0.0883202 -0.0756835 0)
(0.0859513 -0.0829155 0)
(0.0834727 -0.0899777 0)
(0.0809379 -0.0968839 0)
(0.0784082 -0.103658 0)
(0.0759478 -0.11033 0)
(0.0736149 -0.116935 0)
(0.0714505 -0.123502 0)
(0.0694665 -0.130046 0)
(0.0676375 -0.136559 0)
(0.0659003 -0.143004 0)
(0.0641622 -0.14932 0)
(0.0623162 -0.155424 0)
(0.0602581 -0.16123 0)
(0.0579006 -0.166656 0)
(0.0551806 -0.171632 0)
(0.0520617 -0.176107 0)
(0.0485308 -0.180054 0)
(0.0445933 -0.183461 0)
(0.0402673 -0.186339 0)
(0.0355791 -0.188712 0)
(0.0305583 -0.190615 0)
(0.0252356 -0.192092 0)
(0.0196405 -0.193193 0)
(0.0138 -0.19397 0)
(0.0077386 -0.194473 0)
(0.00147839 -0.194755 0)
(-0.00496009 -0.194863 0)
(-0.0115595 -0.194846 0)
(-0.018307 -0.194748 0)
(-0.0251932 -0.194613 0)
(-0.0322109 -0.194476 0)
(-0.0393551 -0.19437 0)
(-0.0466225 -0.194324 0)
(-0.0540115 -0.194363 0)
(-0.0615213 -0.194507 0)
(-0.0691523 -0.194776 0)
(-0.0769054 -0.195183 0)
(-0.0847816 -0.195742 0)
(-0.0927823 -0.19646 0)
(-0.100908 -0.197345 0)
(-0.10916 -0.1984 0)
(-0.117536 -0.199625 0)
(-0.126034 -0.201019 0)
(-0.134651 -0.202574 0)
(-0.143377 -0.20428 0)
(-0.152201 -0.206119 0)
(-0.161106 -0.208069 0)
(-0.170066 -0.210101 0)
(-0.17904 -0.212178 0)
(-0.187948 -0.214248 0)
(-0.196743 -0.216247 0)
(-0.205429 -0.21809 0)
(-0.214086 -0.219668 0)
(-0.222291 -0.220885 0)
(-0.227627 -0.221699 0)
(-0.227068 -0.222006 0)
(-0.220714 -0.220692 0)
(-0.212546 -0.218353 0)
(-0.203684 -0.215089 0)
(-0.194156 -0.210783 0)
(-0.183954 -0.205336 0)
(-0.173149 -0.198688 0)
(-0.161843 -0.190822 0)
(-0.150152 -0.181775 0)
(-0.138194 -0.171651 0)
(-0.12612 -0.160638 0)
(-0.114198 -0.149025 0)
(-0.102861 -0.137217 0)
(-0.0926637 -0.125709 0)
(-0.0841909 -0.11503 0)
(-0.0779248 -0.105623 0)
(-0.0740806 -0.097704 0)
(-0.072507 -0.0911779 0)
(-0.0727497 -0.0857032 0)
(-0.0742396 -0.0808626 0)
(-0.0764621 -0.0763076 0)
(-0.0790341 -0.0718059 0)
(-0.0817068 -0.0672249 0)
(-0.0843339 -0.0624984 0)
(-0.086834 -0.057601 0)
(-0.0891613 -0.0525332 0)
(-0.091289 -0.0473133 0)
(-0.0932011 -0.0419704 0)
(-0.0948873 -0.0365362 0)
(-0.0963413 -0.0310409 0)
(-0.0975592 -0.0255095 0)
(-0.0985373 -0.0199497 0)
(-0.099268 -0.0143297 0)
(-0.0997434 -0.00860699 0)
(-0.0999849 -0.00284217 0)
(0.0999822 -0.00383919 0)
(0.0997103 -0.0114958 0)
(0.0991717 -0.0190887 0)
(0.0983505 -0.0265951 0)
(0.0972593 -0.0340128 0)
(0.0959095 -0.0413357 0)
(0.0943115 -0.048548 0)
(0.0924789 -0.055631 0)
(0.0904313 -0.0625686 0)
(0.088195 -0.0693497 0)
(0.0858051 -0.0759701 0)
(0.0833063 -0.0824342 0)
(0.0807529 -0.088755 0)
(0.0782066 -0.0949548 0)
(0.075732 -0.101063 0)
(0.0733872 -0.107112 0)
(0.0712125 -0.113128 0)
(0.0692184 -0.119126 0)
(0.0673779 -0.1251 0)
(0.0656257 -0.131014 0)
(0.0638671 -0.136813 0)
(0.0619937 -0.142423 0)
(0.0599005 -0.147764 0)
(0.0574995 -0.152759 0)
(0.0547276 -0.157348 0)
(0.0515479 -0.161483 0)
(0.0479473 -0.165138 0)
(0.0439308 -0.168304 0)
(0.0395164 -0.17099 0)
(0.0347296 -0.173216 0)
(0.0295998 -0.175015 0)
(0.0241571 -0.176427 0)
(0.0184304 -0.177496 0)
(0.0124466 -0.178268 0)
(0.00622971 -0.178791 0)
(-0.000197709 -0.17911 0)
(-0.00681516 -0.179269 0)
(-0.0136057 -0.179312 0)
(-0.0205567 -0.17928 0)
(-0.0276586 -0.179211 0)
(-0.0349041 -0.179137 0)
(-0.0422878 -0.179088 0)
(-0.0498061 -0.17909 0)
(-0.0574566 -0.179164 0)
(-0.065238 -0.179329 0)
(-0.0731497 -0.179601 0)
(-0.0811915 -0.179993 0)
(-0.0893636 -0.180515 0)
(-0.0976656 -0.181175 0)
(-0.106097 -0.181977 0)
(-0.114656 -0.182925 0)
(-0.123339 -0.184018 0)
(-0.132142 -0.185253 0)
(-0.141056 -0.186622 0)
(-0.150071 -0.188115 0)
(-0.159168 -0.189715 0)
(-0.168324 -0.191403 0)
(-0.177505 -0.193152 0)
(-0.18665 -0.194926 0)
(-0.19567 -0.196679 0)
(-0.204486 -0.198354 0)
(-0.213032 -0.199878 0)
(-0.221216 -0.201113 0)
(-0.228788 -0.201839 0)
(-0.234209 -0.201739 0)
(-0.233196 -0.201283 0)
(-0.225361 -0.199836 0)
(-0.216191 -0.197474 0)
(-0.206618 -0.194191 0)
(-0.19645 -0.18993 0)
(-0.185633 -0.184626 0)
(-0.174254 -0.17824 0)
(-0.162421 -0.170774 0)
(-0.150253 -0.16228 0)
(-0.137877 -0.152872 0)
(-0.125468 -0.142743 0)
(-0.113341 -0.132177 0)
(-0.101969 -0.121558 0)
(-0.0919216 -0.111342 0)
(-0.0837637 -0.101987 0)
(-0.0779157 -0.0938485 0)
(-0.074497 -0.0870509 0)
(-0.0732653 -0.0814461 0)
(-0.0737196 -0.0766993 0)
(-0.0752937 -0.0724451 0)
(-0.0775044 -0.0683956 0)
(-0.0800041 -0.064366 0)
(-0.0825731 -0.0602527 0)
(-0.0850845 -0.0560049 0)
(-0.0874679 -0.0516038 0)
(-0.0896834 -0.0470516 0)
(-0.0917078 -0.0423662 0)
(-0.0935267 -0.0375739 0)
(-0.0951308 -0.0327037 0)
(-0.0965143 -0.0277823 0)
(-0.0976736 -0.0228322 0)
(-0.0986051 -0.0178602 0)
(-0.0993015 -0.0128352 0)
(-0.0997552 -0.00771412 0)
(-0.0999856 -0.00254849 0)
(0.099982 -0.00348687 0)
(0.0997071 -0.0104405 0)
(0.0991626 -0.0173357 0)
(0.0983325 -0.0241515 0)
(0.0972298 -0.0308862 0)
(0.095866 -0.0375343 0)
(0.0942518 -0.0440811 0)
(0.0924013 -0.0505097 0)
(0.0903343 -0.0568053 0)
(0.0880778 -0.0629579 0)
(0.0856674 -0.068964 0)
(0.0831485 -0.0748275 0)
(0.0805759 -0.080561 0)
(0.0780122 -0.0861851 0)
(0.0755221 -0.091727 0)
(0.0731635 -0.0972163 0)
(0.0709763 -0.102679 0)
(0.0689696 -0.108127 0)
(0.0671147 -0.113555 0)
(0.0653443 -0.118932 0)
(0.0635621 -0.124206 0)
(0.0616583 -0.129312 0)
(0.0595271 -0.134176 0)
(0.0570802 -0.13873 0)
(0.0542544 -0.142918 0)
(0.0510129 -0.146698 0)
(0.0473424 -0.150045 0)
(0.0432479 -0.152953 0)
(0.0387473 -0.155427 0)
(0.0338657 -0.157488 0)
(0.0286322 -0.159163 0)
(0.0230766 -0.160488 0)
(0.0172275 -0.161504 0)
(0.0111113 -0.16225 0)
(0.00475223 -0.162771 0)
(-0.00182703 -0.163105 0)
(-0.00860573 -0.163294 0)
(-0.0155674 -0.163376 0)
(-0.0226997 -0.163389 0)
(-0.0299928 -0.163366 0)
(-0.0374392 -0.163337 0)
(-0.0450334 -0.163327 0)
(-0.0527709 -0.163359 0)
(-0.0606491 -0.163452 0)
(-0.0686659 -0.163624 0)
(-0.0768199 -0.163886 0)
(-0.0851101 -0.164252 0)
(-0.0935353 -0.164729 0)
(-0.102094 -0.165324 0)
(-0.110785 -0.16604 0)
(-0.119604 -0.16688 0)
(-0.128546 -0.167843 0)
(-0.137606 -0.168924 0)
(-0.146773 -0.170117 0)
(-0.156033 -0.171413 0)
(-0.165367 -0.172796 0)
(-0.17475 -0.17425 0)
(-0.184142 -0.175753 0)
(-0.193473 -0.177276 0)
(-0.202648 -0.17878 0)
(-0.211598 -0.180227 0)
(-0.220235 -0.181601 0)
(-0.228332 -0.182886 0)
(-0.235063 -0.183907 0)
(-0.238846 -0.183778 0)
(-0.236426 -0.182412 0)
(-0.228084 -0.180361 0)
(-0.218468 -0.177695 0)
(-0.208426 -0.174288 0)
(-0.197794 -0.170045 0)
(-0.186532 -0.164899 0)
(-0.174727 -0.158818 0)
(-0.1625 -0.151808 0)
(-0.149974 -0.143925 0)
(-0.137287 -0.135284 0)
(-0.124647 -0.126069 0)
(-0.112411 -0.116553 0)
(-0.101082 -0.107094 0)
(-0.0912354 -0.0980985 0)
(-0.0834117 -0.0899608 0)
(-0.0779671 -0.0829549 0)
(-0.0749336 -0.0771359 0)
(-0.0739951 -0.0723257 0)
(-0.0746206 -0.0682106 0)
(-0.0762552 -0.0644763 0)
(-0.0784461 -0.0608874 0)
(-0.0808772 -0.0572969 0)
(-0.0833527 -0.053624 0)
(-0.0857613 -0.0498294 0)
(-0.0880412 -0.0458991 0)
(-0.0901576 -0.0418369 0)
(-0.0920897 -0.0376593 0)
(-0.0938248 -0.0333905 0)
(-0.0953545 -0.0290562 0)
(-0.0966736 -0.0246802 0)
(-0.0977791 -0.0202826 0)
(-0.0986676 -0.0158691 0)
(-0.0993324 -0.0114098 0)
(-0.0997659 -0.00686173 0)
(-0.0999863 -0.00226817 0)
(0.0999818 -0.00313085 0)
(0.0997042 -0.00937414 0)
(0.0991543 -0.0155644 0)
(0.0983161 -0.0216829 0)
(0.0972027 -0.0277282 0)
(0.0958261 -0.0336951 0)
(0.094197 -0.0395706 0)
(0.0923297 -0.0453393 0)
(0.0902445 -0.0509879 0)
(0.0879688 -0.0565075 0)
(0.0855388 -0.061895 0)
(0.0830004 -0.0671541 0)
(0.0804091 -0.0722965 0)
(0.0778279 -0.077341 0)
(0.0753217 -0.0823126 0)
(0.0729485 -0.0872383 0)
(0.0707475 -0.0921414 0)
(0.0687267 -0.0970339 0)
(0.0668556 -0.10191 0)
(0.0650653 -0.106743 0)
(0.063258 -0.111485 0)
(0.0613227 -0.116078 0)
(0.0591529 -0.120456 0)
(0.0566601 -0.124558 0)
(0.053781 -0.128335 0)
(0.0504791 -0.131747 0)
(0.0467411 -0.134775 0)
(0.0425722 -0.13741 0)
(0.03799 -0.139658 0)
(0.0330195 -0.141537 0)
(0.0276897 -0.143072 0)
(0.0220301 -0.144294 0)
(0.0160691 -0.145239 0)
(0.00983296 -0.145943 0)
(0.00334519 -0.146443 0)
(-0.00336996 -0.146776 0)
(-0.0102917 -0.146978 0)
(-0.0174048 -0.147083 0)
(-0.0246966 -0.147125 0)
(-0.0321573 -0.147133 0)
(-0.0397791 -0.147133 0)
(-0.0475558 -0.147147 0)
(-0.0554829 -0.147197 0)
(-0.063557 -0.147298 0)
(-0.0717754 -0.147465 0)
(-0.0801359 -0.14771 0)
(-0.0886366 -0.148042 0)
(-0.0972753 -0.148469 0)
(-0.106049 -0.148995 0)
(-0.114955 -0.149624 0)
(-0.123989 -0.150356 0)
(-0.133144 -0.151189 0)
(-0.142412 -0.152119 0)
(-0.151782 -0.153139 0)
(-0.161239 -0.154238 0)
(-0.170764 -0.155401 0)
(-0.180334 -0.15661 0)
(-0.189909 -0.157841 0)
(-0.199417 -0.159067 0)
(-0.208782 -0.160253 0)
(-0.217998 -0.161374 0)
(-0.227124 -0.162435 0)
(-0.235758 -0.163482 0)
(-0.241089 -0.164415 0)
(-0.241857 -0.16449 0)
(-0.237399 -0.162887 0)
(-0.229008 -0.160674 0)
(-0.219446 -0.157983 0)
(-0.209244 -0.154668 0)
(-0.198357 -0.150623 0)
(-0.186814 -0.145786 0)
(-0.174723 -0.140136 0)
(-0.162217 -0.133686 0)
(-0.149435 -0.126496 0)
(-0.136528 -0.118677 0)
(-0.123738 -0.110407 0)
(-0.111463 -0.101943 0)
(-0.100229 -0.0936074 0)
(-0.0906126 -0.0857631 0)
(-0.0831234 -0.0787407 0)
(-0.0780556 -0.072747 0)
(-0.0753643 -0.0677872 0)
(-0.0746752 -0.063672 0)
(-0.0754397 -0.0601173 0)
(-0.077118 -0.056857 0)
(-0.0792857 -0.0536993 0)
(-0.0816536 -0.0505273 0)
(-0.0840459 -0.0472776 0)
(-0.0863639 -0.0439196 0)
(-0.0885527 -0.0404428 0)
(-0.0905815 -0.0368518 0)
(-0.0924318 -0.0331617 0)
(-0.0940924 -0.0293946 0)
(-0.0955557 -0.0255733 0)
(-0.0968172 -0.0217185 0)
(-0.0978742 -0.0178482 0)
(-0.0987239 -0.0139671 0)