/*--------------------------------*- C++ -*----------------------------------*\
  =========                 |
  \\      /  F ield         | OpenFOAM: The Open Source CFD Toolbox
   \\    /   O peration     | Website:  https://openfoam.org
    \\  /    A nd           | Version:  8
     \\/     M anipulation  |
\*---------------------------------------------------------------------------*/
FoamFile
{
    version     2.0;
    format      ascii;
    class       volScalarField;
    location    "240/fluid";
    object      CH4;
}
// * * * * * * * * * * * * * * * * * * * * * * * * * * * * * * * * * * * * * //

dimensions      [0 0 0 0 0 0 0];

internalField   nonuniform List<scalar> 
4000
(
0.999997
0.999988
0.999973
0.999947
0.999905
0.999835
0.99972
0.999534
0.999233
0.998754
0.998002
0.996839
0.995073
0.992448
0.988636
0.98325
0.97587
0.96608
0.953533
0.937993
0.919374
0.897741
0.873288
0.846311
0.817165
0.786237
0.753919
0.720594
0.686622
0.652337
0.618037
0.583986
0.550411
0.517505
0.485427
0.454304
0.424235
0.395295
0.367538
0.340996
0.315685
0.291606
0.26875
0.247098
0.226623
0.207293
0.18907
0.171915
0.155785
0.140636
0.126426
0.11311
0.100644
0.0889884
0.0781016
0.067946
0.0584858
0.0496886
0.0415249
0.0339694
0.0271498
0.0207612
0.0149487
0.00971771
0.00509066
0.00286262
0.00199795
0.00137266
0.00092674
0.000613615
0.000397565
0.000251489
0.000155068
9.32977e-05
5.53296e-05
3.36086e-05
2.30815e-05
1.74124e-05
1.28556e-05
8.99894e-06
5.90001e-06
3.59016e-06
2.02083e-06
1.0568e-06
5.18609e-07
2.44316e-07
1.11702e-07
4.9906e-08
2.18964e-08
9.46955e-09
4.04803e-09
1.71419e-09
7.20231e-10
3.0052e-10
1.24484e-10
5.10364e-11
2.0513e-11
7.86509e-12
2.63251e-12
4.61933e-13
0.999997
0.999988
0.999972
0.999946
0.999903
0.999831
0.999713
0.999521
0.999211
0.998719
0.997946
0.996753
0.994947
0.992269
0.988396
0.982944
0.975499
0.965656
0.953072
0.937518
0.918905
0.897292
0.872867
0.845916
0.816786
0.785858
0.753524
0.720167
0.686149
0.651806
0.617441
0.583321
0.549676
0.516703
0.484561
0.45338
0.42326
0.394277
0.366484
0.339915
0.314584
0.290493
0.267631
0.245979
0.225509
0.206188
0.187979
0.170841
0.154732
0.139606
0.125421
0.112131
0.0996931
0.0880661
0.0772093
0.0670847
0.0576568
0.0488932
0.0407653
0.0332484
0.02649
0.0201412
0.0143553
0.00913497
0.00451649
0.00277762
0.00192363
0.00131296
0.000881184
0.000580125
0.000373701
0.000234979
0.000144005
8.6174e-05
5.10097e-05
3.13264e-05
2.21167e-05
1.66281e-05
1.20772e-05
8.2895e-06
5.31819e-06
3.16741e-06
1.75164e-06
9.06251e-07
4.43511e-07
2.09685e-07
9.65184e-08
4.3483e-08
1.92452e-08
8.39227e-09
3.61431e-09
1.54043e-09
6.50786e-10
2.72813e-10
1.13463e-10
4.66843e-11
1.8824e-11
7.2375e-12
2.42747e-12
4.26463e-13
0.999997
0.999988
0.999972
0.999945
0.9999
0.999826
0.999705
0.999507
0.999188
0.998682
0.997888
0.996666
0.99482
0.992091
0.988153
0.982627
0.975099
0.965171
0.952508
0.936885
0.918217
0.896565
0.872112
0.845138
0.815986
0.785032
0.752661
0.719256
0.685178
0.650764
0.61632
0.582114
0.548382
0.515321
0.483095
0.451834
0.421641
0.392593
0.364746
0.338132
0.312767
0.288651
0.265775
0.244117
0.223651
0.204341
0.18615
0.169036
0.152956
0.137864
0.123716
0.110468
0.0980745
0.0864941
0.0756862
0.0656125
0.0562377
0.0475297
0.0394602
0.0320261
0.0253148
0.0190303
0.0133195
0.00817712
0.00365723
0.00255134
0.00175863
0.00119474
0.000797921
0.000522523
0.000334651
0.000209135
0.000127414
7.59705e-05
4.51756e-05
2.85196e-05
2.07999e-05
1.55525e-05
1.11383e-05
7.52696e-06
4.75577e-06
2.79653e-06
1.53373e-06
7.9084e-07
3.8733e-07
1.83598e-07
8.48037e-08
3.83485e-08
1.70345e-08
7.45251e-09
3.21841e-09
1.37467e-09
5.81687e-10
2.44113e-10
1.01598e-10
4.18209e-11
1.68687e-11
6.48771e-12
2.17655e-12
3.82476e-13
0.999997
0.999987
0.999971
0.999944
0.999898
0.999822
0.999698
0.999496
0.99917
0.998653
0.997845
0.996602
0.994726
0.991957
0.987968
0.982378
0.974776
0.964766
0.952014
0.936301
0.917545
0.895806
0.87127
0.844216
0.814985
0.78395
0.751497
0.718006
0.683838
0.649332
0.614791
0.580488
0.546659
0.513503
0.481186
0.44984
0.419569
0.390453
0.362547
0.335884
0.310481
0.286339
0.263447
0.241784
0.221321
0.202025
0.183855
0.166771
0.150726
0.135677
0.121576
0.108379
0.0960415
0.0845204
0.0737748
0.0637665
0.0544604
0.0458255
0.0378355
0.0305703
0.0239511
0.0177672
0.0122091
0.00730261
0.00318891
0.0022435
0.0015521
0.00105483
0.000703112
0.000458772
0.00029241
0.000181751
0.000110204
6.56627e-05
3.95511e-05
2.61096e-05
1.94673e-05
1.44113e-05
1.01651e-05
6.75339e-06
4.1934e-06
2.4273e-06
1.31509e-06
6.72818e-07
3.28602e-07
1.55746e-07
7.20518e-08
3.26658e-08
1.4556e-08
6.39022e-09
2.76943e-09
1.18696e-09
5.03855e-10
2.12048e-10
8.84669e-11
3.64893e-11
1.47419e-11
5.67676e-12
1.90601e-12
3.35103e-13
0.999997
0.999987
0.99997
0.999942
0.999896
0.999819
0.999692
0.999485
0.999154
0.998627
0.997805
0.99654
0.994634
0.991824
0.987781
0.982123
0.97444
0.964336
0.951482
0.935662
0.916797
0.89495
0.870307
0.843147
0.813811
0.782671
0.750113
0.716516
0.682242
0.647628
0.612981
0.578573
0.544641
0.511388
0.478979
0.447547
0.4172
0.388016
0.360053
0.333344
0.307906
0.283739
0.260834
0.239169
0.218714
0.199435
0.181292
0.164242
0.148239
0.133238
0.119193
0.106056
0.0937825
0.0823297
0.0716557
0.0617214
0.0524908
0.0439308
0.0360125
0.0288901
0.0223934
0.0163192
0.0108684
0.00607857
0.00297448
0.00206339
0.001411
0.000949239
0.000626862
0.000405427
0.000256233
0.000158025
9.52553e-05
5.67634e-05
3.48324e-05
2.42319e-05
1.81865e-05
1.32946e-05
9.23658e-06
6.03894e-06
3.6921e-06
2.10929e-06
1.13215e-06
5.76108e-07
2.80966e-07
1.33213e-07
6.17075e-08
2.80253e-08
1.25121e-08
5.50337e-09
2.38934e-09
1.02571e-09
4.36022e-10
1.83721e-10
7.67242e-11
3.16704e-11
1.28025e-11
4.93192e-12
1.65626e-12
2.91261e-13
0.999997
0.999987
0.99997
0.999941
0.999894
0.999815
0.999686
0.999477
0.99914
0.998605
0.997769
0.996486
0.994553
0.991705
0.987612
0.981888
0.974123
0.963923
0.950959
0.935019
0.916028
0.894052
0.86928
0.841991
0.812528
0.781263
0.748582
0.714863
0.68047
0.64574
0.610981
0.576465
0.542431
0.509081
0.476583
0.445071
0.414651
0.385406
0.357392
0.330643
0.305176
0.280991
0.258079
0.236417
0.215976
0.19672
0.178609
0.161599
0.145645
0.130699
0.116715
0.103645
0.0914436
0.080068
0.069476
0.0596285
0.05049
0.0420283
0.0342157
0.0272257
0.0207993
0.0147816
0.00935612
0.00455246
0.00277437
0.00190015
0.00128514
0.000856048
0.000560141
0.000359122
0.000225095
0.000137803
8.26741e-05
4.94134e-05
3.10699e-05
2.24656e-05
1.68708e-05
1.22012e-05
8.36503e-06
5.38988e-06
3.24821e-06
1.83277e-06
9.74582e-07
4.92899e-07
2.39811e-07
1.13617e-07
5.26482e-08
2.39358e-08
1.07021e-08
4.71534e-09
2.05094e-09
8.82042e-10
3.75594e-10
1.58503e-10
6.62804e-11
2.73885e-11
1.10804e-11
4.27084e-12
1.43464e-12
2.52357e-13
0.999997
0.999987
0.999969
0.999941
0.999892
0.999813
0.999682
0.999469
0.999126
0.998584
0.997736
0.996435
0.994475
0.99159
0.987446
0.981657
0.973809
0.963509
0.950432
0.934366
0.915241
0.893127
0.868214
0.840786
0.811184
0.779783
0.746969
0.713121
0.678603
0.643753
0.60888
0.574256
0.540122
0.50668
0.474098
0.442511
0.412027
0.382728
0.35467
0.327889
0.3024
0.278205
0.255292
0.23364
0.213219
0.193992
0.175919
0.158955
0.143054
0.128168
0.114249
0.10125
0.0891253
0.0778308
0.0673246
0.0575682
0.0485269
0.0401703
0.0325055
0.0256153
0.0191512
0.0132949
0.00805001
0.00349919
0.0024398
0.00167756
0.00113584
0.000755908
0.00049343
0.00031526
0.000196816
0.000120075
7.20268e-05
4.35056e-05
2.83742e-05
2.10723e-05
1.57406e-05
1.12567e-05
7.61676e-06
4.83946e-06
2.87771e-06
1.60557e-06
8.46754e-07
4.25947e-07
2.06776e-07
9.78759e-08
4.53499e-08
2.06263e-08
9.22919e-09
4.0702e-09
1.77219e-09
7.62978e-10
3.25234e-10
1.37383e-10
5.74962e-11
2.37743e-11
9.62276e-12
3.71006e-12
1.24636e-12
2.19292e-13
0.999997
0.999987
0.999969
0.99994
0.999891
0.99981
0.999677
0.999461
0.999114
0.998564
0.997705
0.996386
0.994402
0.991481
0.987288
0.981433
0.973504
0.963104
0.949911
0.933716
0.914453
0.892195
0.867136
0.839562
0.809815
0.778273
0.745322
0.711343
0.676699
0.64173
0.606745
0.572018
0.537788
0.50426
0.471601
0.439948
0.409407
0.380062
0.35197
0.325164
0.299661
0.275462
0.252557
0.230922
0.210526
0.191334
0.173304
0.15639
0.140545
0.125721
0.11187
0.0989446
0.086897
0.0756833
0.0652613
0.0555921
0.0466409
0.038378
0.0309
0.0241521
0.0178205
0.012138
0.00715008
0.00313318
0.00218762
0.0015044
0.00101757
0.000675822
0.000439891
0.000280086
0.000174237
0.000106038
6.37298e-05
3.90781e-05
2.66003e-05
2.00079e-05
1.48174e-05
1.04713e-05
6.99165e-06
4.38149e-06
2.57204e-06
1.41976e-06
7.42822e-07
3.71636e-07
1.79953e-07
8.50643e-08
3.9392e-08
1.79163e-08
8.01957e-09
3.53894e-09
1.54208e-09
6.64487e-10
2.83499e-10
1.19853e-10
5.01959e-11
2.07676e-11
8.40912e-12
3.24288e-12
1.08947e-12
1.9174e-13
0.999997
0.999986
0.999969
0.999939
0.999889
0.999808
0.999673
0.999454
0.999103
0.998546
0.997676
0.996341
0.994332
0.991376
0.987135
0.981217
0.973206
0.962708
0.9494
0.933078
0.913677
0.891275
0.866069
0.838347
0.808456
0.776773
0.743686
0.709577
0.674811
0.639727
0.604634
0.569809
0.535491
0.501883
0.469156
0.437444
0.406855
0.377473
0.349353
0.322531
0.297022
0.272827
0.249934
0.228321
0.207957
0.188803
0.170819
0.153958
0.138172
0.123412
0.10963
0.0967773
0.084806
0.073671
0.0633296
0.0537417
0.0448711
0.0366856
0.0293195
0.0226508
0.0164044
0.0108015
0.00585155
0.00296119
0.00204976
0.00139926
0.000940271
0.000620724
0.000401733
0.000254419
0.00015752
9.55767e-05
5.75587e-05
3.58844e-05
2.53788e-05
1.91413e-05
1.40396e-05
9.80641e-06
6.46481e-06
3.99943e-06
2.32029e-06
1.26855e-06
6.59e-07
3.28078e-07
1.5848e-07
7.48081e-08
3.46166e-08
1.57398e-08
7.04563e-09
3.11002e-09
1.35578e-09
5.84527e-10
2.49531e-10
1.05553e-10
4.4229e-11
1.83061e-11
7.41438e-12
2.85965e-12
9.60711e-13
1.69129e-13
0.999997
0.999986
0.999968
0.999938
0.999888
0.999805
0.999669
0.999448
0.999092
0.998528
0.997648
0.996297
0.994265
0.991276
0.986989
0.98101
0.972921
0.962327
0.948907
0.93246
0.912924
0.890381
0.865031
0.837166
0.807134
0.775315
0.742096
0.707862
0.672978
0.637785
0.602593
0.567677
0.533277
0.499599
0.466811
0.435049
0.40442
0.375008
0.346869
0.320037
0.294528
0.270342
0.247468
0.225882
0.205551
0.18644
0.168503
0.151696
0.13597
0.121275
0.107562
0.0947819
0.0828867
0.0718309
0.0615711
0.0520674
0.0432833
0.0352006
0.0279452
0.0213576
0.0151674
0.00960013
0.00469952
0.00283854
0.00194706
0.00131876
0.000880081
0.000577412
0.000371614
0.000234165
0.000144386
8.74377e-05
5.28571e-05
3.35724e-05
2.43736e-05
1.83673e-05
1.33591e-05
9.23599e-06
6.02022e-06
3.68208e-06
2.11419e-06
1.14619e-06
5.91711e-07
2.93267e-07
1.41341e-07
6.66204e-08
3.08001e-08
1.39975e-08
6.26451e-09
2.76532e-09
1.20576e-09
5.2001e-10
2.22073e-10
9.39738e-11
3.93905e-11
1.63078e-11
6.60607e-12
2.54807e-12
8.56005e-13
1.50744e-13
0.999997
0.999986
0.999968
0.999938
0.999887
0.999803
0.999665
0.999442
0.999082
0.998512
0.997622
0.996256
0.994202
0.991182
0.986851
0.980813
0.972649
0.961964
0.948438
0.931871
0.912206
0.889528
0.864041
0.836039
0.805873
0.773923
0.74058
0.706229
0.671236
0.635941
0.600657
0.565659
0.531187
0.497446
0.464605
0.4328
0.402139
0.372704
0.344552
0.317716
0.292212
0.26804
0.245188
0.223631
0.203337
0.184268
0.166381
0.149628
0.13396
0.119329
0.105683
0.0929729
0.0811514
0.0701722
0.0599919
0.0505705
0.0418715
0.0338636
0.02672
0.0201844
0.0140656
0.00857757
0.00379948
0.00263
0.00180413
0.00122144
0.000814423
0.000533665
0.000342943
0.000215774
0.000132931
8.06172e-05
4.91301e-05
3.19422e-05
2.3637e-05
1.77541e-05
1.28126e-05
8.77576e-06
5.66184e-06
3.42757e-06
1.95005e-06
1.04934e-06
5.38667e-07
2.65882e-07
1.27856e-07
6.01699e-08
2.77875e-08
1.26192e-08
5.64504e-09
2.49126e-09
1.08618e-09
4.68461e-10
2.00083e-10
8.4682e-11
3.55008e-11
1.46989e-11
5.95458e-12
2.29673e-12
7.71509e-13
1.35917e-13
0.999997
0.999986
0.999968
0.999937
0.999886
0.999801
0.999662
0.999436
0.999073
0.998497
0.997598
0.996218
0.994144
0.991094
0.986722
0.98063
0.972396
0.961625
0.947998
0.931319
0.911533
0.888729
0.863114
0.834984
0.804692
0.772621
0.739164
0.704704
0.66961
0.634224
0.598857
0.563784
0.529249
0.495453
0.462567
0.430727
0.40004
0.370588
0.342428
0.315593
0.290098
0.265943
0.243114
0.221587
0.201331
0.182304
0.164464
0.147764
0.132153
0.117582
0.103999
0.0913565
0.0796049
0.0686986
0.0585945
0.049253
0.0406387
0.0327649
0.0257481
0.0191545
0.013201
0.00790023
0.0033678
0.00236507
0.00163675
0.00111515
0.000746939
0.00049103
0.000316281
0.000199378
0.000123119
7.50254e-05
4.62803e-05
3.09244e-05
2.31725e-05
1.73274e-05
1.24134e-05
8.42985e-06
5.38793e-06
3.23155e-06
1.82331e-06
9.74514e-07
4.97648e-07
2.44715e-07
1.17406e-07
5.51563e-08
2.54387e-08
1.15411e-08
5.15897e-09
2.27556e-09
9.91782e-10
4.27654e-10
1.82631e-10
7.72899e-11
3.24e-11
1.34141e-11
5.43357e-12
2.09552e-12
7.03815e-13
1.2405e-13
0.999997
0.999986
0.999967
0.999936
0.999885
0.999799
0.999659
0.999431
0.999064
0.998483
0.997575
0.996183
0.99409
0.991013
0.986604
0.980461
0.972162
0.961312
0.947594
0.930811
0.910914
0.887994
0.862261
0.834014
0.803608
0.771428
0.737865
0.703308
0.668124
0.632655
0.597214
0.562077
0.527486
0.493644
0.46072
0.42885
0.398142
0.368679
0.340515
0.313683
0.2882
0.264063
0.241259
0.219762
0.199541
0.180556
0.162761
0.146109
0.130551
0.116035
0.102511
0.0899287
0.0782398
0.0673984
0.0573614
0.0480898
0.0395494
0.0318199
0.0248747
0.0183559
0.0125108
0.00735718
0.00316516
0.00221937
0.0015356
0.00104673
0.000701657
0.000461679
0.000297673
0.000187892
0.000116288
7.12206e-05
4.44678e-05
3.04852e-05
2.30139e-05
1.71307e-05
1.21827e-05
8.20244e-06
5.19581e-06
3.08922e-06
1.72956e-06
9.18549e-07
4.66719e-07
2.28772e-07
1.09485e-07
5.13345e-08
2.36387e-08
1.07108e-08
4.78296e-09
2.10801e-09
9.18179e-10
3.95724e-10
1.68931e-10
7.147e-11
2.99523e-11
1.23977e-11
5.0207e-12
1.93587e-12
6.5006e-13
1.14632e-13
0.999997
0.999986
0.999967
0.999936
0.999884
0.999798
0.999656
0.999426
0.999057
0.998471
0.997556
0.996152
0.994042
0.99094
0.986497
0.980308
0.971952
0.961031
0.94723
0.930355
0.910358
0.887334
0.861495
0.833143
0.802635
0.770356
0.736702
0.702058
0.666794
0.631253
0.595748
0.560555
0.525915
0.492034
0.459078
0.427185
0.396462
0.36699
0.338825
0.311999
0.286528
0.26241
0.239629
0.218162
0.197975
0.179027
0.161274
0.144667
0.129156
0.11469
0.101217
0.0886879
0.0770533
0.0662669
0.0562851
0.0470683
0.0385811
0.0309362
0.0240506
0.0175812
0.0117804
0.00665908
0.00305912
0.00214143
0.00148006
0.00100827
0.000675723
0.000444664
0.000286839
0.000181242
0.000112424
6.92093e-05
4.37277e-05
3.06949e-05
2.31831e-05
1.71414e-05
1.21016e-05
8.08111e-06
5.07475e-06
2.9927e-06
1.6635e-06
8.78227e-07
4.4411e-07
2.17002e-07
1.0359e-07
4.84691e-08
2.22807e-08
1.00808e-08
4.49619e-09
1.97962e-09
8.61532e-10
3.71051e-10
1.58306e-10
6.69415e-11
2.80422e-11
1.16025e-11
4.697e-12
1.8105e-12
6.07816e-13
1.07232e-13
0.999997
0.999986
0.999967
0.999935
0.999883
0.999796
0.999654
0.999422
0.99905
0.99846
0.997538
0.996125
0.993999
0.990877
0.986403
0.980175
0.971767
0.960784
0.94691
0.929954
0.90987
0.886755
0.860824
0.832381
0.801784
0.76942
0.735685
0.700966
0.665634
0.630031
0.594471
0.559231
0.524551
0.490636
0.457655
0.425743
0.395008
0.365531
0.337367
0.310548
0.285089
0.260988
0.238231
0.21679
0.196633
0.177719
0.160003
0.143435
0.127966
0.113544
0.100116
0.0876332
0.0760455
0.0653065
0.0553722
0.0462026
0.037762
0.0301424
0.0232971
0.0168602
0.0110705
0.00593273
0.00299694
0.00209867
0.00145091
0.000988712
0.000662889
0.000436479
0.000281811
0.00017831
0.000110862
6.854e-05
4.36773e-05
3.1096e-05
2.34934e-05
1.72788e-05
1.21183e-05
8.03581e-06
5.00848e-06
2.93186e-06
1.61926e-06
8.50301e-07
4.28109e-07
2.08549e-07
9.93055e-08
4.6367e-08
2.12762e-08
9.6116e-09
4.28125e-09
1.88285e-09
8.18623e-10
3.52277e-10
1.50188e-10
6.34685e-11
2.65723e-11
1.09888e-11
4.44661e-12
1.71336e-12
5.75051e-13
1.01494e-13
0.999997
0.999985
0.999967
0.999935
0.999882
0.999795
0.999652
0.999419
0.999044
0.99845
0.997523
0.996101
0.993963
0.990822
0.986324
0.980061
0.971611
0.960575
0.946639
0.929614
0.909456
0.886264
0.860256
0.831736
0.801064
0.768628
0.734825
0.700044
0.664654
0.629
0.593395
0.558115
0.523402
0.489461
0.456459
0.424532
0.393788
0.364308
0.336146
0.309334
0.283887
0.259802
0.237064
0.215647
0.195517
0.176632
0.158948
0.142414
0.126981
0.112595
0.099206
0.0867619
0.0752136
0.064514
0.054619
0.0454885
0.0370869
0.0294984
0.0226908
0.0162869
0.0105302
0.00542397
0.00296427
0.00207661
0.00143665
0.000979896
0.000657725
0.000433666
0.000280434
0.000177785
0.000110835
6.88256e-05
4.41959e-05
3.17662e-05
2.39634e-05
1.75336e-05
1.22227e-05
8.05124e-06
4.98534e-06
2.89985e-06
1.59232e-06
8.32162e-07
4.17318e-07
2.02713e-07
9.62958e-08
4.48701e-08
2.05531e-08
9.27076e-09
4.12394e-09
1.81156e-09
7.86827e-10
3.38291e-10
1.44112e-10
6.0858e-11
2.54633e-11
1.05243e-11
4.25656e-12
1.63947e-12
5.50097e-13
9.71266e-14
0.999997
0.999985
0.999966
0.999935
0.999882
0.999794
0.99965
0.999416
0.99904
0.998443
0.997511
0.996082
0.993934
0.990778
0.986259
0.979969
0.971484
0.960405
0.946419
0.929339
0.909121
0.885867
0.859795
0.831213
0.80048
0.767987
0.73413
0.699298
0.663862
0.628167
0.592526
0.557215
0.522476
0.488514
0.455496
0.423558
0.392808
0.363326
0.335166
0.308361
0.282924
0.258852
0.236131
0.214734
0.194625
0.175765
0.158107
0.141601
0.126197
0.111842
0.0984842
0.086072
0.074556
0.0638892
0.0540276
0.0449306
0.0365616
0.0290075
0.0222286
0.0158513
0.0101202
0.00506239
0.00293028
0.00205737
0.00142655
0.000975231
0.000656138
0.000433675
0.000281183
0.000178794
0.000111868
6.98014e-05
4.5129e-05
3.26446e-05
2.45639e-05
1.78842e-05
1.23978e-05
8.11776e-06
4.99583e-06
2.88977e-06
1.57895e-06
8.21623e-07
4.10557e-07
1.98909e-07
9.42812e-08
4.38496e-08
2.00536e-08
9.03289e-09
4.01324e-09
1.76103e-09
7.64143e-10
3.28253e-10
1.39724e-10
5.89619e-11
2.46537e-11
1.01837e-11
4.11671e-12
1.58493e-12
5.31643e-13
9.38991e-14
0.999997
0.999985
0.999966
0.999935
0.999881
0.999793
0.999649
0.999414
0.999036
0.998437
0.997502
0.996068
0.993912
0.990745
0.98621
0.9799
0.971387
0.960276
0.946253
0.92913
0.908867
0.885566
0.859447
0.830817
0.800039
0.767502
0.733604
0.698734
0.663264
0.627538
0.591869
0.556535
0.521777
0.4878
0.45477
0.422824
0.392069
0.362586
0.334429
0.307629
0.2822
0.258139
0.235431
0.214049
0.193958
0.175116
0.157478
0.140994
0.125613
0.111281
0.0979476
0.0855604
0.07407
0.0634291
0.0535928
0.0445196
0.0361725
0.028643
0.0218849
0.0155268
0.00981218
0.00478344
0.00289034
0.00203757
0.00141812
0.000972898
0.000656808
0.000435608
0.000283432
0.0001809
0.00011366
7.12693e-05
4.6349e-05
3.36458e-05
2.52379e-05
1.82893e-05
1.26149e-05
8.21656e-06
5.03006e-06
2.89505e-06
1.575e-06
8.16541e-07
4.06724e-07
1.96636e-07
9.30401e-08
4.32071e-08
1.97338e-08
8.87857e-09
3.94063e-09
1.72759e-09
7.49014e-10
3.21512e-10
1.3676e-10
5.76738e-11
2.40999e-11
9.94916e-12
4.01978e-12
1.54688e-12
5.1872e-13
9.16391e-14
0.999997
0.999985
0.999966
0.999934
0.999881
0.999793
0.999648
0.999413
0.999034
0.998433
0.997496
0.996058
0.993897
0.990723
0.986177
0.979853
0.971323
0.96019
0.946142
0.928991
0.908697
0.885365
0.859214
0.830553
0.799744
0.767178
0.733252
0.698357
0.662863
0.627117
0.59143
0.55608
0.521309
0.487322
0.454284
0.422333
0.391575
0.362092
0.333936
0.307139
0.281716
0.257663
0.234964
0.213592
0.193513
0.174685
0.157061
0.140592
0.125226
0.110911
0.0975939
0.0852238
0.0737504
0.0631259
0.0533056
0.0442483
0.0359178
0.0284095
0.0216674
0.015324
0.00962271
0.00461595
0.00286891
0.00202884
0.00141654
0.000974942
0.000660338
0.000439413
0.000286901
0.000183789
0.000115933
7.30025e-05
4.76645e-05
3.46303e-05
2.58842e-05
1.86779e-05
1.28275e-05
8.31918e-06
5.07174e-06
2.90775e-06
1.57641e-06
8.14866e-07
4.04888e-07
1.95439e-07
9.23515e-08
4.28388e-08
1.95464e-08
8.78675e-09
3.89694e-09
1.70729e-09
7.39768e-10
3.1737e-10
1.3493e-10
5.68754e-11
2.3756e-11
9.80317e-12
3.95935e-12
1.52302e-12
5.10581e-13
9.02167e-14
0.999997
0.999985
0.999966
0.999934
0.999881
0.999793
0.999648
0.999412
0.999033
0.998432
0.997493
0.996054
0.99389
0.990712
0.986162
0.979831
0.971292
0.960149
0.946088
0.928924
0.908615
0.885267
0.859101
0.830424
0.7996
0.767019
0.733079
0.698171
0.662666
0.626909
0.591213
0.555855
0.521078
0.487085
0.454044
0.42209
0.39133
0.361846
0.333691
0.306896
0.281476
0.257426
0.234732
0.213365
0.193292
0.17447
0.156853
0.140391
0.125033
0.110726
0.0974177
0.0850559
0.0735911
0.0629754
0.0531642
0.0441162
0.0357946
0.0282996
0.0215657
0.01523
0.00953517
0.00453774
0.00286064
0.00202824
0.00141961
0.000979386
0.000664923
0.000443531
0.000290314
0.000186464
0.000117946
7.44697e-05
4.87048e-05
3.53313e-05
2.63191e-05
1.89309e-05
1.29635e-05
8.385e-06
5.09943e-06
2.91731e-06
1.5786e-06
8.14654e-07
4.04226e-07
1.9495e-07
9.20533e-08
4.26744e-08
1.94612e-08
8.74446e-09
3.87665e-09
1.6978e-09
7.35425e-10
3.15417e-10
1.34065e-10
5.64967e-11
2.35923e-11
9.7336e-12
3.93047e-12
1.51159e-12
5.06671e-13
8.95362e-14
0.999997
0.999985
0.999966
0.999934
0.999881
0.999793
0.999648
0.999412
0.999033
0.998432
0.997493
0.996054
0.99389
0.990712
0.986161
0.97983
0.971292
0.960148
0.946087
0.928922
0.908614
0.885266
0.859099
0.830422
0.799598
0.767017
0.733077
0.698169
0.662663
0.626906
0.59121
0.555852
0.521075
0.487082
0.454041
0.422087
0.391327
0.361843
0.333688
0.306894
0.281473
0.257424
0.234729
0.213363
0.19329
0.174468
0.156851
0.14039
0.125032
0.110725
0.097416
0.0850544
0.0735896
0.0629741
0.053163
0.0441151
0.0357936
0.0282988
0.021565
0.0152293
0.00953457
0.00453727
0.00286053
0.00202812
0.00141952
0.00097933
0.000664892
0.000443516
0.000290306
0.00018646
0.000117943
7.44679e-05
4.87037e-05
3.53305e-05
2.63183e-05
1.89302e-05
1.2963e-05
8.38467e-06
5.09923e-06
2.9172e-06
1.57855e-06
8.14632e-07
4.04217e-07
1.94945e-07
9.20516e-08
4.26737e-08
1.94609e-08
8.74434e-09
3.87659e-09
1.69778e-09
7.35414e-10
3.15411e-10
1.34062e-10
5.64955e-11
2.35918e-11
9.73335e-12
3.93036e-12
1.51153e-12
5.06646e-13
8.95377e-14
0.999997
0.999985
0.999966
0.999934
0.999881
0.999793
0.999648
0.999413
0.999034
0.998433
0.997496
0.996058
0.993897
0.990722
0.986177
0.979852
0.971321
0.960188
0.946139
0.928987
0.908693
0.88536
0.859208
0.830547
0.799737
0.767171
0.733244
0.698349
0.662855
0.627108
0.591421
0.556071
0.5213
0.487313
0.454276
0.422324
0.391567
0.362083
0.333927
0.307131
0.281708
0.257655
0.234957
0.213585
0.193506
0.174678
0.157055
0.140586
0.12522
0.110906
0.097589
0.0852191
0.073746
0.0631216
0.0533014
0.0442446
0.0359143
0.0284068
0.021665
0.0153218
0.00962077
0.00461451
0.00286875
0.0020287
0.00141645
0.000974883
0.000660303
0.000439391
0.000286886
0.000183777
0.000115924
7.2996e-05
4.76604e-05
3.46282e-05
2.58824e-05
1.86764e-05
1.28263e-05
8.31836e-06
5.0712e-06
2.90744e-06
1.57624e-06
8.14775e-07
4.04844e-07
1.95419e-07
9.23419e-08
4.28344e-08
1.95444e-08
8.78583e-09
3.89653e-09
1.7071e-09
7.39683e-10
3.17332e-10
1.34913e-10
5.68679e-11
2.37527e-11
9.80178e-12
3.95875e-12
1.52276e-12
5.10475e-13
9.02153e-14
0.999997
0.999985
0.999966
0.999935
0.999881
0.999793
0.999649
0.999414
0.999036
0.998437
0.997502
0.996067
0.993911
0.990744
0.986209
0.979898
0.971384
0.960273
0.946248
0.929124
0.90886
0.885557
0.859437
0.830807
0.800028
0.76749
0.733591
0.69872
0.66325
0.627523
0.591854
0.55652
0.521762
0.487784
0.454755
0.422809
0.392054
0.362572
0.334414
0.307615
0.282186
0.258126
0.235418
0.214037
0.193946
0.175105
0.157468
0.140984
0.125603
0.111273
0.0979394
0.0855529
0.0740632
0.063423
0.0535874
0.0445144
0.0361676
0.0286387
0.021881
0.0155232
0.00980901
0.00478096
0.00289007
0.00203732
0.00141795
0.000972797
0.000656757
0.000435584
0.000283421
0.000180894
0.000113656
7.12667e-05
4.63481e-05
3.36464e-05
2.52377e-05
1.82885e-05
1.26139e-05
8.21567e-06
5.02938e-06
2.89459e-06
1.57472e-06
8.16394e-07
4.06646e-07
1.96597e-07
9.30217e-08
4.31985e-08
1.97298e-08
8.87672e-09
3.93979e-09
1.7272e-09
7.4884e-10
3.21434e-10
1.36725e-10
5.76585e-11
2.40933e-11
9.94634e-12
4.01859e-12
1.54636e-12
5.18516e-13
9.16311e-14
0.999997
0.999985
0.999966
0.999935
0.999882
0.999794
0.99965
0.999416
0.99904
0.998443
0.997511
0.996082
0.993933
0.990777
0.986257
0.979966
0.97148
0.9604
0.946413
0.92933
0.909111
0.885855
0.859782
0.831198
0.800464
0.767969
0.734111
0.699278
0.663842
0.628146
0.592504
0.557193
0.522454
0.488492
0.455475
0.423537
0.392787
0.363305
0.335146
0.308341
0.282905
0.258834
0.236114
0.214717
0.194609
0.17575
0.158092
0.141588
0.126184
0.11183
0.0984727
0.0860612
0.074546
0.0638799
0.0540192
0.044923
0.0365546
0.0290015
0.0222232
0.0158465
0.0101161
0.00505956
0.00293009
0.00205698
0.00142619
0.000974975
0.000655972
0.000433578
0.000281127
0.000178763
0.000111851
6.9793e-05
4.51264e-05
3.26457e-05
2.45646e-05
1.7884e-05
1.2397e-05
8.11685e-06
4.99502e-06
2.88915e-06
1.57858e-06
8.21401e-07
4.10437e-07
1.98849e-07
9.42516e-08
4.38354e-08
2.00468e-08
9.02974e-09
4.01178e-09
1.76036e-09
7.63839e-10
3.28116e-10
1.39663e-10
5.89349e-11
2.46419e-11
1.01786e-11
4.11456e-12
1.58401e-12
5.31297e-13
9.38757e-14
0.999997
0.999985
0.999967
0.999935
0.999882
0.999795
0.999652
0.999419
0.999044
0.99845
0.997523
0.9961
0.993962
0.99082
0.986321
0.980058
0.971606
0.960568
0.946631
0.929603
0.909443
0.886249
0.860238
0.831716
0.801042
0.768605
0.734801
0.700018
0.664628
0.628973
0.593367
0.558087
0.523374
0.489433
0.456431
0.424505
0.393761
0.364282
0.33612
0.309309
0.283863
0.259779
0.237042
0.215626
0.195496
0.176613
0.158929
0.142397
0.126964
0.112579
0.0991911
0.0867479
0.0752004
0.0645016
0.0546074
0.0454775
0.0370765
0.0294892
0.0226823
0.0162791
0.0105229
0.00541812
0.00296362
0.00207602
0.00143614
0.000979488
0.000657427
0.00043346
0.000280302
0.000177704
0.000110788
6.87993e-05
4.41835e-05
3.1763e-05
2.39621e-05
1.75324e-05
1.22214e-05
8.04995e-06
4.98421e-06
2.89907e-06
1.5918e-06
8.3185e-07
4.17151e-07
2.02627e-07
9.62528e-08
4.48489e-08
2.05428e-08
9.26586e-09
4.12164e-09
1.81049e-09
7.86341e-10
3.38072e-10
1.44014e-10
6.08149e-11
2.54446e-11
1.05163e-11
4.2532e-12
1.63806e-12
5.49576e-13
9.70815e-14
0.999997
0.999986
0.999967
0.999935
0.999883
0.999796
0.999654
0.999422
0.99905
0.998459
0.997537
0.996124
0.993998
0.990874
0.9864
0.98017
0.971761
0.960776
0.9469
0.929941
0.909854
0.886736
0.860803
0.832357
0.801758
0.769392
0.735655
0.700935
0.665601
0.629998
0.594437
0.559196
0.524516
0.490602
0.457621
0.425709
0.394974
0.365498
0.337335
0.310517
0.285059
0.260959
0.238203
0.216763
0.196608
0.177695
0.15998
0.143414
0.127945
0.113524
0.100098
0.0876157
0.0760289
0.0652906
0.055357
0.046188
0.0377481
0.0301293
0.0232851
0.0168493
0.0110609
0.00592403
0.00299719
0.00209892
0.00145102
0.00098867
0.000662768
0.000436341
0.000281689
0.000178218
0.000110799
6.85011e-05
4.36569e-05
3.10873e-05
2.34872e-05
1.72739e-05
1.21146e-05
8.03302e-06
5.00663e-06
2.93062e-06
1.6185e-06
8.49875e-07
4.27881e-07
2.0843e-07
9.92449e-08
4.63369e-08
2.12615e-08
9.60455e-09
4.27793e-09
1.88131e-09
8.17917e-10
3.51958e-10
1.50046e-10
6.3406e-11
2.65453e-11
1.09773e-11
4.44181e-12
1.71137e-12
5.74329e-13
1.01421e-13
0.999997
0.999986
0.999967
0.999936
0.999884
0.999798
0.999656
0.999426
0.999056
0.99847
0.997555
0.996151
0.99404
0.990938
0.986493
0.980303
0.971944
0.961021
0.947217
0.930339
0.910339
0.887311
0.86147
0.833115
0.802604
0.770323
0.736666
0.70202
0.666755
0.631213
0.595707
0.560514
0.525874
0.491992
0.459037
0.427144
0.396422
0.366951
0.338787
0.311962
0.286492
0.262375
0.239596
0.218131
0.197945
0.178998
0.161246
0.144641
0.129131
0.114666
0.101195
0.0886672
0.0770338
0.0662485
0.0562679
0.0470523
0.0385664
0.0309217
0.0240373
0.0175694
0.0117696
0.00664634
0.00305791
0.00214099
0.00147979
0.00100798
0.000675427
0.000444401
0.000286631
0.000181091
0.000112323
6.91465e-05
4.36938e-05
3.06822e-05
2.31746e-05
1.71347e-05
1.20965e-05
8.07757e-06
5.07225e-06
2.99109e-06
1.66253e-06
8.77676e-07
4.43808e-07
2.16842e-07
1.03507e-07
4.84277e-08
2.22603e-08
1.00711e-08
4.49157e-09
1.97747e-09
8.60548e-10
3.70607e-10
1.58109e-10
6.68551e-11
2.80048e-11
1.15866e-11
4.69041e-12
1.80782e-12
6.06852e-13
1.07123e-13
0.999997
0.999986
0.999967
0.999936
0.999885
0.999799
0.999659
0.999431
0.999064
0.998482
0.997575
0.996182
0.994088
0.99101
0.986599
0.980454
0.972154
0.961301
0.947579
0.930793
0.910892
0.887969
0.862232
0.833982
0.803572
0.771389
0.737824
0.703265
0.668079
0.632609
0.597167
0.56203
0.527438
0.493596
0.460672
0.428803
0.398096
0.368633
0.34047
0.31364
0.288158
0.264023
0.24122
0.219726
0.199506
0.180522
0.162729
0.146079
0.130522
0.116008
0.102486
0.0899049
0.0782175
0.0673774
0.0573419
0.0480718
0.0395332
0.0318051
0.0248616
0.0183451
0.0125018
0.0073472
0.00316238
0.00221808
0.00153486
0.00104627
0.00070134
0.000461456
0.000297515
0.000187782
0.000116214
7.11729e-05
4.44406e-05
3.04764e-05
2.301e-05
1.71267e-05
1.21789e-05
8.19919e-06
5.1933e-06
3.08746e-06
1.72842e-06
9.17861e-07
4.66329e-07
2.2856e-07
1.09375e-07
5.12784e-08
2.3611e-08
1.06974e-08
4.77664e-09
2.10507e-09
9.16836e-10
3.9512e-10
1.68663e-10
7.13531e-11
2.9902e-11
1.23764e-11
5.01187e-12
1.9323e-12
6.48797e-13
1.14475e-13
0.999997
0.999986
0.999968
0.999937
0.999886
0.999801
0.999662
0.999436
0.999072
0.998496
0.997597
0.996217
0.994142
0.99109
0.986717
0.980622
0.972386
0.961612
0.947982
0.931298
0.911508
0.888699
0.86308
0.834946
0.804651
0.772577
0.739117
0.704655
0.669559
0.634171
0.598803
0.56373
0.529194
0.495399
0.462513
0.430673
0.399987
0.370536
0.342377
0.315544
0.29005
0.265897
0.24307
0.221545
0.20129
0.182266
0.164428
0.147729
0.13212
0.117551
0.10397
0.091329
0.0795789
0.0686739
0.058571
0.0492306
0.0406175
0.0327466
0.0257325
0.0191415
0.0131909
0.00789214
0.0033641
0.00236336
0.00163518
0.00111396
0.000746117
0.0004905
0.000315953
0.000199182
0.000123004
7.496e-05
4.62457e-05
3.09118e-05
2.31681e-05
1.73234e-05
1.24093e-05
8.42622e-06
5.385e-06
3.22939e-06
1.82186e-06
9.7362e-07
4.97134e-07
2.44433e-07
1.17257e-07
5.50809e-08
2.54014e-08
1.1523e-08
5.15044e-09
2.2716e-09
9.8998e-10
4.26846e-10
1.82274e-10
7.71342e-11
3.23331e-11
1.33859e-11
5.42192e-12
2.09086e-12
7.02179e-13
1.23833e-13