/*--------------------------------*- C++ -*----------------------------------*\
  =========                 |
  \\      /  F ield         | OpenFOAM: The Open Source CFD Toolbox
   \\    /   O peration     | Website:  https://openfoam.org
    \\  /    A nd           | Version:  8
     \\/     M anipulation  |
\*---------------------------------------------------------------------------*/
FoamFile
{
    version     2.0;
    format      ascii;
    class       volScalarField;
    location    "240/fluid";
    object      CO2;
}
// * * * * * * * * * * * * * * * * * * * * * * * * * * * * * * * * * * * * * //

dimensions      [0 0 0 0 0 0 0];

internalField   nonuniform List<scalar> 
4000
(
3.98581e-07
1.74059e-06
3.99203e-06
7.75364e-06
1.40073e-05
2.43419e-05
4.12988e-05
6.88875e-05
0.00011333
0.000184098
0.000295277
0.000467236
0.000728427
0.00111694
0.00168109
0.00247824
0.00357102
0.00502076
0.00687936
0.00918162
0.0119406
0.0151467
0.0187713
0.0227707
0.0270925
0.0316794
0.0364734
0.0414178
0.0464591
0.0515484
0.0566412
0.0616986
0.0666868
0.0715773
0.0763466
0.0809756
0.0854498
0.0897576
0.093891
0.097845
0.101617
0.105206
0.108613
0.111841
0.114892
0.11777
0.12048
0.123027
0.125414
0.127646
0.129725
0.131656
0.133438
0.135073
0.136556
0.137884
0.139048
0.140034
0.140823
0.141389
0.141688
0.141682
0.141294
0.140424
0.138931
0.13162
0.120974
0.110222
0.0995158
0.0889799
0.0787173
0.0688138
0.0593432
0.0503707
0.0419574
0.0341743
0.0270561
0.0206872
0.0151439
0.0105006
0.00681857
0.00410865
0.00228988
0.00118579
0.000576349
0.000269062
0.00012198
5.4075e-05
2.35569e-05
1.01217e-05
4.30144e-06
1.81189e-06
7.57686e-07
3.14825e-07
1.29932e-07
5.31031e-08
2.12884e-08
8.14591e-09
2.72261e-09
4.77295e-10
4.05498e-07
1.77184e-06
4.0681e-06
7.91285e-06
1.43187e-05
2.49257e-05
4.23573e-05
7.07481e-05
0.000116501
0.000189329
0.000303612
0.000480027
0.000747271
0.00114349
0.00171677
0.00252382
0.00362622
0.00508408
0.00694819
0.00925282
0.0120111
0.0152145
0.0188352
0.0228311
0.0271509
0.0317379
0.0365344
0.0414838
0.0465323
0.0516303
0.0567329
0.0618007
0.0667993
0.0717
0.0764787
0.0811164
0.0855981
0.0899124
0.094051
0.0980089
0.101784
0.105374
0.108782
0.112009
0.115059
0.117935
0.120643
0.123186
0.125568
0.127795
0.129869
0.131793
0.133568
0.135194
0.136667
0.137984
0.139133
0.140103
0.140873
0.141417
0.141694
0.141668
0.141269
0.140409
0.138975
0.130184
0.119489
0.108682
0.0979243
0.0873446
0.077048
0.0671218
0.0576412
0.0486735
0.0402831
0.0325647
0.0255207
0.0192662
0.0138815
0.00944261
0.00600084
0.00353914
0.00193805
0.00099314
0.000481654
0.000225837
0.000103176
4.61697e-05
2.0311e-05
8.80919e-06
3.77561e-06
1.60231e-06
6.74392e-07
2.81791e-07
1.16874e-07
4.7978e-08
1.93112e-08
7.41535e-09
2.48518e-09
4.36374e-10
4.15801e-07
1.81753e-06
4.17582e-06
8.12923e-06
1.47231e-05
2.56496e-05
4.36118e-05
7.28612e-05
0.000119965
0.000194854
0.000312178
0.000492917
0.000766062
0.00116998
0.00175282
0.00257109
0.00368584
0.00515634
0.00703242
0.00934744
0.012114
0.0153236
0.0189488
0.0229484
0.0272716
0.031863
0.0366653
0.0416222
0.0466799
0.0517887
0.0569034
0.061984
0.066996
0.0719098
0.0767012
0.0813509
0.0858435
0.0901673
0.094314
0.0982784
0.102058
0.105652
0.109061
0.112289
0.115337
0.118211
0.120914
0.123452
0.125829
0.128048
0.130113
0.132026
0.133789
0.1354
0.136856
0.138151
0.139274
0.140209
0.140936
0.141422
0.141627
0.14151
0.141003
0.140033
0.138544
0.127993
0.117158
0.10625
0.0954263
0.0848142
0.074516
0.0646178
0.0551951
0.0463166
0.0380486
0.0304968
0.0236519
0.01764
0.0125353
0.00840113
0.00526285
0.00306789
0.00166804
0.000852879
0.000414351
0.000194923
8.94032e-05
4.01664e-05
1.77361e-05
7.71761e-06
3.31674e-06
1.41057e-06
5.94632e-07
2.48742e-07
1.03248e-07
4.24097e-08
1.70791e-08
6.56173e-09
2.20011e-09
3.86468e-10
4.25496e-07
1.85997e-06
4.27366e-06
8.3203e-06
1.50694e-05
2.62506e-05
4.46232e-05
7.45209e-05
0.000122626
0.000199028
0.000318578
0.000502503
0.000780074
0.00118994
0.00178043
0.00260815
0.00373401
0.00521693
0.00710625
0.0094348
0.0122148
0.0154374
0.0190752
0.0230871
0.0274227
0.0320265
0.0368415
0.0418116
0.0468832
0.0520063
0.0571358
0.0622314
0.0672582
0.0721866
0.0769919
0.0816546
0.0861591
0.0904932
0.0946488
0.0986204
0.102405
0.106003
0.109414
0.112642
0.115689
0.11856
0.121259
0.12379
0.126159
0.128368
0.130422
0.132323
0.13407
0.135663
0.137098
0.138366
0.139455
0.140346
0.141012
0.141408
0.141488
0.14117
0.140339
0.13883
0.136364
0.125425
0.114365
0.103332
0.0924554
0.0818431
0.0715886
0.0617731
0.0524696
0.0437463
0.0356704
0.0283148
0.02173
0.0160051
0.011208
0.00738975
0.00455221
0.00261357
0.00140443
0.000712757
0.000345408
0.000162517
7.4674e-05
3.36428e-05
1.49057e-05
6.50994e-06
2.80826e-06
1.19869e-06
5.0703e-07
2.12742e-07
8.85375e-08
3.64482e-08
1.4705e-08
5.65763e-09
1.89878e-09
3.33732e-10
4.34264e-07
1.89827e-06
4.36161e-06
8.49142e-06
1.53789e-05
2.67878e-05
4.55308e-05
7.60215e-05
0.000125059
0.000202895
0.000324602
0.000511681
0.000793724
0.0012097
0.00180825
0.00264611
0.00378415
0.00528104
0.00718567
0.00953033
0.0123268
0.0155657
0.0192198
0.0232478
0.0275993
0.0322192
0.0370504
0.0420368
0.0471248
0.0522645
0.0574104
0.0625222
0.0675648
0.0725082
0.0773277
0.0820035
0.0865197
0.0908641
0.0950283
0.0990069
0.102797
0.106398
0.109811
0.113038
0.116083
0.11895
0.121643
0.124167
0.126527
0.128726
0.130768
0.132653
0.134384
0.135957
0.137369
0.138611
0.139668
0.140523
0.141145
0.141484
0.141498
0.141097
0.140154
0.138479
0.133209
0.122243
0.111154
0.100113
0.0892592
0.0787041
0.0685413
0.0588511
0.0497054
0.041171
0.0333304
0.0262102
0.0199023
0.0144767
0.00999321
0.00648726
0.00393602
0.00223082
0.00118778
0.000599635
0.000290209
0.000136607
6.2857e-05
2.83717e-05
1.25956e-05
5.51197e-06
2.38222e-06
1.01858e-06
4.31497e-07
1.81287e-07
7.55296e-08
3.11211e-08
1.25646e-08
4.83665e-09
1.62374e-09
2.8547e-10
4.42008e-07
1.93204e-06
4.43895e-06
8.64138e-06
1.56492e-05
2.72558e-05
4.63198e-05
7.73246e-05
0.000127172
0.000206262
0.000329865
0.000519747
0.000805821
0.00122742
0.00183354
0.0026812
0.00383141
0.00534277
0.00726383
0.00962645
0.0124418
0.0157002
0.0193739
0.0234213
0.0277922
0.0324311
0.0372812
0.0422862
0.0473924
0.0525499
0.0577132
0.0628416
0.0679
0.0728583
0.0776915
0.0823798
0.086907
0.0912609
0.0954328
0.0994174
0.103212
0.106815
0.110228
0.113454
0.116496
0.119358
0.122045
0.124561
0.126911
0.129098
0.131125
0.132995
0.134707
0.136259
0.137646
0.138859
0.139885
0.140703
0.141287
0.141593
0.141591
0.141215
0.140389
0.139035
0.129967
0.118989
0.107897
0.0968769
0.0860749
0.0756046
0.065559
0.0560169
0.0470481
0.0387174
0.0311234
0.0242539
0.0182216
0.0130889
0.00890636
0.00569312
0.00340254
0.00190362
0.00100377
0.000503524
0.000243083
0.000114336
5.26289e-05
2.37813e-05
1.05743e-05
4.63591e-06
2.0075e-06
8.60024e-07
3.65003e-07
1.53607e-07
6.40898e-08
2.64388e-08
1.06839e-08
4.11534e-09
1.38205e-09
2.43056e-10
4.4901e-07
1.96259e-06
4.50896e-06
8.77733e-06
1.58947e-05
2.76823e-05
4.7042e-05
7.85239e-05
0.00012913
0.000209404
0.000334818
0.000527406
0.000817413
0.00124456
0.00185821
0.00271574
0.00387833
0.00540453
0.00734266
0.00972411
0.0125595
0.0158388
0.0195336
0.0236023
0.0279941
0.0326538
0.0375241
0.0425488
0.0476742
0.0528501
0.0580308
0.0631758
0.0682497
0.0732222
0.0780685
0.0827682
0.0873054
0.0916676
0.0958462
0.0998356
0.103633
0.107238
0.11065
0.113874
0.116912
0.119768
0.122447
0.124954
0.127292
0.129466
0.131478
0.13333
0.135021
0.136549
0.137906
0.139084
0.140065
0.140826
0.141334
0.141543
0.141408
0.140849
0.139776
0.138122
0.127158
0.115993
0.10482
0.0937948
0.0830417
0.0726631
0.0627447
0.0533604
0.0445766
0.0364558
0.0290818
0.0224658
0.0167039
0.0118527
0.00795416
0.00501074
0.00295356
0.00163351
0.000854147
0.000426164
0.000205297
9.64883e-05
4.44169e-05
2.00826e-05
8.93787e-06
3.92284e-06
1.70077e-06
7.29511e-07
3.09979e-07
1.30593e-07
5.45389e-08
2.25159e-08
9.10376e-09
3.50792e-09
1.17822e-09
2.07263e-10
4.5542e-07
1.99056e-06
4.5731e-06
8.90196e-06
1.61201e-05
2.80742e-05
4.77067e-05
7.96305e-05
0.000130942
0.000212323
0.000339441
0.000534591
0.000828353
0.00126084
0.00188183
0.00274905
0.00392394
0.00546506
0.00742051
0.00982125
0.0126774
0.0159783
0.0196952
0.0237859
0.0281996
0.0328807
0.0377718
0.0428166
0.0479612
0.0531553
0.0583533
0.0635143
0.0686028
0.0735887
0.0784468
0.0831569
0.0877028
0.092072
0.0962559
0.100249
0.104048
0.107653
0.111064
0.114284
0.117317
0.120166
0.122837
0.125333
0.12766
0.12982
0.131816
0.13365
0.13532
0.136823
0.138151
0.139292
0.140227
0.140928
0.141346
0.141433
0.141104
0.140223
0.13859
0.135565
0.124383
0.113105
0.101897
0.0908928
0.0802062
0.0699306
0.060146
0.0509223
0.0423232
0.0344095
0.0272363
0.0208649
0.0153589
0.0107706
0.00713304
0.00443227
0.0025794
0.00141161
0.000732417
0.000363533
0.000174729
8.2033e-05
3.77519e-05
1.70732e-05
7.60312e-06
3.33981e-06
1.44941e-06
6.22342e-07
2.64714e-07
1.11629e-07
4.66577e-08
1.92748e-08
7.79692e-09
3.00518e-09
1.00943e-09
1.77621e-10
4.61361e-07
2.0165e-06
4.63262e-06
9.01773e-06
1.63297e-05
2.84395e-05
4.83281e-05
8.06681e-05
0.000132647
0.000215079
0.000343824
0.000541434
0.00083882
0.00127648
0.00190462
0.00278134
0.00396832
0.00552418
0.0074968
0.00991675
0.0127936
0.0161162
0.0198551
0.0239681
0.0284037
0.0331061
0.0380178
0.0430824
0.0482458
0.0534576
0.0586719
0.063848
0.0689502
0.0739482
0.0788169
0.0835361
0.0880894
0.0924644
0.0966523
0.100648
0.104447
0.108051
0.111459
0.114675
0.117702
0.120544
0.123205
0.125691
0.128005
0.130151
0.132132
0.133948
0.135598
0.137078
0.138382
0.139495
0.140401
0.14107
0.141455
0.141515
0.141173
0.140319
0.138806
0.132696
0.121535
0.110284
0.0991197
0.0881835
0.0775887
0.0674282
0.0577801
0.0487125
0.0402871
0.0325799
0.0256091
0.0194585
0.0141853
0.00983609
0.00643361
0.00394743
0.00227091
0.00123123
0.000634475
0.000313465
0.00015035
7.05091e-05
3.24337e-05
1.46679e-05
6.5339e-06
2.8716e-06
1.24702e-06
5.35827e-07
2.28081e-07
9.62476e-08
4.02524e-08
1.66363e-08
6.73158e-09
2.59494e-09
8.71627e-10
1.53414e-10
4.66886e-07
2.04063e-06
4.68801e-06
9.12558e-06
1.65252e-05
2.87807e-05
4.89093e-05
8.16404e-05
0.000134248
0.000217675
0.000347963
0.000547914
0.000848759
0.00129138
0.0019264
0.00281229
0.00401098
0.00558115
0.0075705
0.0100092
0.0129063
0.01625
0.0200106
0.0241452
0.0286021
0.0333253
0.038257
0.0433406
0.0485218
0.0537502
0.0589799
0.0641699
0.0692845
0.0742935
0.0791716
0.0838985
0.088458
0.0928374
0.0970282
0.101025
0.104824
0.108426
0.11183
0.115041
0.118061
0.120895
0.123547
0.126021
0.128322
0.130454
0.132418
0.134215
0.135845
0.137303
0.138582
0.139669
0.140546
0.141188
0.14155
0.141602
0.141273
0.140473
0.13909
0.130035
0.118911
0.1077
0.0965911
0.0857286
0.0752273
0.0651795
0.055662
0.0467413
0.0384778
0.0309575
0.0241748
0.0182273
0.0131669
0.00903433
0.00584182
0.00354348
0.00201769
0.00108496
0.000555738
0.000273422
0.000130887
6.13125e-05
2.81873e-05
1.27452e-05
5.67806e-06
2.49623e-06
1.0845e-06
4.66239e-07
1.98569e-07
8.3837e-08
3.50774e-08
1.45021e-08
5.86911e-09
2.26261e-09
7.59962e-10
1.33799e-10
4.72016e-07
2.06303e-06
4.73948e-06
9.22586e-06
1.67072e-05
2.90987e-05
4.94517e-05
8.25492e-05
0.000135747
0.00022011
0.000351853
0.000554017
0.000858141
0.00130548
0.00194704
0.00284166
0.00405152
0.00563536
0.00764069
0.0100973
0.0130138
0.0163778
0.020159
0.0243142
0.0287915
0.0335343
0.0384849
0.0435863
0.0487842
0.054028
0.0592717
0.0644744
0.0696001
0.0746187
0.0795049
0.0842384
0.0888027
0.0931855
0.0973781
0.101375
0.105173
0.108772
0.112172
0.115377
0.11839
0.121215
0.123857
0.126319
0.128607
0.130723
0.13267
0.134448
0.136055
0.137487
0.138734
0.139785
0.14062
0.141212
0.141516
0.141504
0.141105
0.140239
0.138834
0.127909
0.116703
0.105466
0.0943739
0.083563
0.0731403
0.063193
0.0537941
0.0450071
0.0368902
0.0295206
0.0229097
0.0171515
0.012287
0.00835053
0.00534429
0.00320892
0.00181086
0.000966816
0.000492636
0.000241491
0.000115398
5.39983e-05
2.48093e-05
1.12146e-05
4.99593e-06
2.19665e-06
9.54594e-07
4.10529e-07
1.74907e-07
7.38722e-08
3.09168e-08
1.27844e-08
5.17438e-09
1.99475e-09
6.69931e-10
1.17991e-10
4.76744e-07
2.08369e-06
4.78695e-06
9.31838e-06
1.68752e-05
2.93925e-05
4.99534e-05
8.33909e-05
0.000137137
0.000222371
0.00035547
0.0005597
0.000866888
0.00131863
0.00196632
0.00286913
0.00408948
0.00568614
0.00770648
0.0101799
0.0131146
0.0164975
0.0202981
0.0244726
0.0289688
0.0337299
0.0386979
0.0438157
0.0490289
0.0542867
0.0595431
0.0647569
0.0698925
0.0749194
0.0798125
0.0845513
0.0891195
0.0935047
0.0976981
0.101694
0.10549
0.109086
0.112482
0.115681
0.118686
0.121502
0.124134
0.126585
0.12886
0.130961
0.13289
0.134648
0.136231
0.137634
0.138846
0.139853
0.14063
0.141141
0.14134
0.141177
0.140558
0.139366
0.13748
0.12621
0.114838
0.103533
0.0924374
0.0816651
0.0713114
0.0614558
0.052166
0.0435016
0.0355175
0.0282671
0.0218187
0.0162217
0.011535
0.0077748
0.00493101
0.00293456
0.00164315
0.000871859
0.00044222
0.000216109
0.000103101
4.81929e-05
2.21272e-05
9.99833e-06
4.45333e-06
1.95806e-06
8.51e-07
3.66044e-07
1.55987e-07
6.58947e-08
2.75824e-08
1.14065e-08
4.61665e-09
1.7796e-09
5.97587e-10
1.05297e-10
4.8105e-07
2.1025e-06
4.83019e-06
9.40272e-06
1.70285e-05
2.96607e-05
5.04117e-05
8.41604e-05
0.000138409
0.000224442
0.000358787
0.000564914
0.00087492
0.00133072
0.00198405
0.00289441
0.0041244
0.00573287
0.00776702
0.0102559
0.0132073
0.0166076
0.020426
0.0246181
0.0291315
0.0339092
0.038893
0.0440257
0.0492525
0.0545229
0.0597904
0.0650141
0.0701582
0.0751922
0.0800909
0.0848341
0.0894052
0.093792
0.0979856
0.101981
0.105774
0.109366
0.112757
0.11595
0.118948
0.121756
0.124378
0.126818
0.12908
0.131167
0.13308
0.13482
0.136381
0.137759
0.138941
0.139909
0.140637
0.141079
0.141192
0.1409
0.140088
0.138598
0.135854
0.124508
0.113097
0.101788
0.0907188
0.079998
0.0697163
0.0599498
0.0507647
0.0422209
0.0343768
0.0272928
0.020985
0.0155121
0.0109389
0.00730817
0.0045955
0.00271275
0.00150838
0.000795957
0.000402064
0.000196039
9.33801e-05
4.36016e-05
2.00043e-05
9.03467e-06
4.02295e-06
1.76858e-06
7.68625e-07
3.30626e-07
1.40905e-07
5.95281e-08
2.49184e-08
1.03047e-08
4.17039e-09
1.60737e-09
5.39665e-10
9.51369e-11
4.84906e-07
2.11935e-06
4.86892e-06
9.47828e-06
1.71658e-05
2.99011e-05
5.08229e-05
8.48514e-05
0.000139552
0.000226304
0.00036177
0.000569608
0.000882155
0.00134162
0.00200004
0.00291719
0.00415588
0.00577499
0.00782156
0.0103244
0.0132907
0.0167067
0.020541
0.0247489
0.0292777
0.0340702
0.039068
0.0442137
0.0494526
0.0547338
0.0600111
0.0652432
0.0703945
0.0754344
0.0803378
0.0850843
0.0896576
0.0940452
0.0982386
0.102232
0.106023
0.109611
0.112997
0.116184
0.119176
0.121976
0.124589
0.127019
0.12927
0.131345
0.133245
0.134969
0.136515
0.137875
0.139038
0.139985
0.140691
0.14111
0.141202
0.140895
0.140081
0.138616
0.134273
0.122917
0.111515
0.100235
0.0892098
0.0785481
0.0683389
0.0586565
0.0495656
0.0411259
0.0333901
0.0263991
0.0202138
0.0148903
0.0104522
0.00692703
0.00432097
0.00253288
0.0014
0.000735321
0.000370133
0.000180121
8.56805e-05
3.99673e-05
1.83241e-05
8.27184e-06
3.68208e-06
1.61841e-06
7.0329e-07
3.0251e-07
1.28921e-07
5.44652e-08
2.27984e-08
9.42726e-09
3.81482e-09
1.4701e-09
4.93496e-10
8.70392e-11
4.8828e-07
2.1341e-06
4.90282e-06
9.54443e-06
1.72861e-05
3.01118e-05
5.11834e-05
8.54572e-05
0.000140555
0.000227938
0.00036439
0.000573731
0.000888511
0.00135119
0.00201408
0.0029372
0.00418354
0.00581198
0.00786945
0.0103845
0.0133639
0.0167936
0.0206417
0.0248634
0.0294056
0.0342109
0.0392208
0.0443778
0.0496271
0.0549176
0.060203
0.0654423
0.0705995
0.0756443
0.0805513
0.0853004
0.0898751
0.0942631
0.0984557
0.102448
0.106236
0.10982
0.113202
0.116383
0.119368
0.122161
0.124766
0.127188
0.129429
0.131494
0.133383
0.135096
0.136631
0.137979
0.139132
0.140071
0.140773
0.141198
0.14131
0.141048
0.140326
0.13903
0.132866
0.121521
0.110147
0.0989069
0.0879327
0.0773323
0.0671946
0.0575917
0.048586
0.0402325
0.0325742
0.0256601
0.0195632
0.0143333
0.0100093
0.00661103
0.00409679
0.00238649
0.00131277
0.000686922
0.000344793
0.000167526
7.95991e-05
3.70999e-05
1.69992e-05
7.67039e-06
3.41332e-06
1.49997e-06
6.5174e-07
2.80315e-07
1.19457e-07
5.04642e-08
2.11221e-08
8.73319e-09
3.53347e-09
1.36145e-09
4.56958e-10
8.06317e-11
4.91142e-07
2.1466e-06
4.93158e-06
9.60055e-06
1.73882e-05
3.02907e-05
5.14894e-05
8.59719e-05
0.000141407
0.000229327
0.000366617
0.000577237
0.000893917
0.00135933
0.00202602
0.00295423
0.00420706
0.00584342
0.00791014
0.0104355
0.0134261
0.0168673
0.0207271
0.0249604
0.0295139
0.03433
0.0393501
0.0445165
0.0497743
0.0550725
0.0603647
0.0656098
0.0707718
0.0758203
0.0807302
0.085481
0.0900566
0.0944445
0.0986362
0.102626
0.106412
0.109993
0.11337
0.116547
0.119526
0.122312
0.12491
0.127324
0.129557
0.131613
0.133493
0.135197
0.136721
0.13806
0.139204
0.140135
0.140833
0.141256
0.141373
0.141124
0.140422
0.139154
0.131665
0.120342
0.108999
0.0978009
0.086878
0.0763376
0.066258
0.056712
0.0477617
0.0394614
0.0318725
0.0250427
0.0190311
0.0138886
0.00965391
0.00634253
0.00391919
0.00227178
0.00124404
0.000648925
0.000324964
0.000157686
7.48528e-05
3.48634e-05
1.59662e-05
7.20162e-06
3.20387e-06
1.40768e-06
6.11565e-07
2.63015e-07
1.12077e-07
4.73434e-08
1.98141e-08
8.19145e-09
3.31381e-09
1.27661e-09
4.28427e-10
7.56302e-11
4.93465e-07
2.15675e-06
4.95492e-06
9.64611e-06
1.74711e-05
3.04359e-05
5.1738e-05
8.639e-05
0.0001421
0.000230456
0.000368428
0.000580088
0.000898312
0.00136595
0.00203574
0.00296806
0.00422617
0.00586897
0.00794319
0.0104769
0.0134765
0.0169271
0.0207964
0.025039
0.0296016
0.0344264
0.0394547
0.0446286
0.0498933
0.0551976
0.0604951
0.0657446
0.0709102
0.0759616
0.0808734
0.0856255
0.0902015
0.094589
0.0987796
0.102768
0.106551
0.110129
0.113502
0.116674
0.119649
0.12243
0.125021
0.127428
0.129654
0.131702
0.133574
0.135269
0.136784
0.138114
0.139248
0.140171
0.14086
0.141277
0.141387
0.141132
0.140425
0.139155
0.130744
0.119416
0.108086
0.0969123
0.086024
0.0755157
0.0654772
0.0559793
0.0470836
0.0388464
0.0313211
0.0245572
0.018614
0.0135416
0.00937786
0.00613521
0.00377381
0.00218305
0.00119172
0.000619904
0.000309815
0.000150174
7.12325e-05
3.31596e-05
1.51804e-05
6.84546e-06
3.04492e-06
1.33769e-06
5.81113e-07
2.49902e-07
1.06482e-07
4.49756e-08
1.88212e-08
7.78001e-09
3.14691e-09
1.21212e-09
4.06732e-10
7.18284e-11
4.95225e-07
2.16445e-06
4.97261e-06
9.68065e-06
1.75339e-05
3.0546e-05
5.19266e-05
8.67072e-05
0.000142625
0.000231313
0.000369802
0.000582252
0.000901649
0.00137098
0.00204311
0.00297857
0.00424067
0.00588835
0.00796826
0.0105083
0.0135147
0.0169724
0.0208489
0.0250986
0.029668
0.0344994
0.0395338
0.0447134
0.0499831
0.0552919
0.0605933
0.0658461
0.0710143
0.0760676
0.0809807
0.0857334
0.0903094
0.0946964
0.0988859
0.102872
0.106653
0.110229
0.113599
0.116767
0.119737
0.122514
0.1251
0.127501
0.129721
0.131762
0.133627
0.135314
0.136821
0.138142
0.139268
0.140182
0.140863
0.141273
0.141378
0.141124
0.140425
0.139183
0.130096
0.118743
0.107411
0.0962501
0.0853794
0.0749008
0.0648967
0.0554372
0.0465834
0.0383911
0.0309129
0.0241979
0.0183057
0.0132859
0.00917512
0.0059837
0.00366831
0.00211482
0.00115295
0.000598649
0.000298704
0.00014469
6.86026e-05
3.19268e-05
1.46135e-05
6.58912e-06
2.93071e-06
1.28747e-06
5.59285e-07
2.40509e-07
1.02475e-07
4.32807e-08
1.81097e-08
7.48479e-09
3.02693e-09
1.16566e-09
3.91083e-10
6.90862e-11
4.96406e-07
2.1696e-06
4.98448e-06
9.70381e-06
1.75761e-05
3.06199e-05
5.2053e-05
8.69197e-05
0.000142977
0.000231887
0.000370722
0.0005837
0.000903882
0.00137434
0.00204804
0.0029856
0.00425038
0.00590133
0.00798505
0.0105294
0.0135403
0.0170028
0.020884
0.0251385
0.0297126
0.0345483
0.0395868
0.0447702
0.0500433
0.0553551
0.0606591
0.0659139
0.0710837
0.0761381
0.0810519
0.0858048
0.0903807
0.0947671
0.0989556
0.102941
0.10672
0.110293
0.113661
0.116827
0.119794
0.122566
0.125148
0.127545
0.12976
0.131796
0.133654
0.135335
0.136835
0.138149
0.139267
0.140173
0.140846
0.141248
0.141348
0.141089
0.140389
0.139155
0.129652
0.118284
0.10695
0.0957967
0.084943
0.0744861
0.0645069
0.0550746
0.0462497
0.038088
0.0306415
0.0239594
0.0181015
0.0131168
0.00904152
0.0058843
0.00359951
0.00207067
0.00112645
0.000584326
0.000291303
0.000141072
6.6876e-05
3.11198e-05
1.42432e-05
6.42194e-06
2.85633e-06
1.2548e-06
5.451e-07
2.34411e-07
9.98773e-08
4.21824e-08
1.76493e-08
7.29394e-09
2.94946e-09
1.1356e-09
3.80942e-10
6.73098e-11
4.96993e-07
2.17217e-06
4.99035e-06
9.71524e-06
1.75968e-05
3.06561e-05
5.21147e-05
8.70233e-05
0.000143148
0.000232165
0.000371167
0.000584399
0.000904959
0.00137596
0.00205041
0.00298898
0.00425505
0.00590757
0.00799314
0.0105395
0.0135527
0.0170175
0.0209012
0.025158
0.0297344
0.0345723
0.0396128
0.0447981
0.0500729
0.0553862
0.0606914
0.0659473
0.0711178
0.0761727
0.0810868
0.0858397
0.0904154
0.0948014
0.0989893
0.102974
0.106752
0.110324
0.11369
0.116854
0.119819
0.12259
0.12517
0.127564
0.129776
0.131808
0.133663
0.135339
0.136835
0.138144
0.139256
0.140157
0.140824
0.141219
0.141313
0.14105
0.14035
0.139124
0.129421
0.118041
0.106707
0.0955606
0.0847177
0.0742737
0.0643088
0.0548916
0.0460825
0.0379369
0.0305071
0.023842
0.0180015
0.0130346
0.00897689
0.00583656
0.00356673
0.00204985
0.00111412
0.000577423
0.000287709
0.000139316
6.60403e-05
3.07302e-05
1.40647e-05
6.34146e-06
2.82054e-06
1.23909e-06
5.38275e-07
2.31476e-07
9.86254e-08
4.16526e-08
1.7427e-08
7.20167e-09
2.91193e-09
1.121e-09
3.76009e-10
6.64471e-11
4.97003e-07
2.17221e-06
4.99045e-06
9.71543e-06
1.75971e-05
3.06567e-05
5.21158e-05
8.7025e-05
0.000143151
0.000232169
0.000371174
0.00058441
0.000904975
0.00137598
0.00205045
0.00298903
0.00425511
0.00590766
0.00799325
0.0105397
0.0135529
0.0170177
0.0209013
0.0251582
0.0297346
0.0345725
0.0396131
0.0447983
0.0500732
0.0553865
0.0606917
0.0659476
0.0711181
0.076173
0.0810871
0.08584
0.0904156
0.0948017
0.0989896
0.102974
0.106752
0.110324
0.113691
0.116855
0.11982
0.12259
0.12517
0.127564
0.129776
0.131808
0.133663
0.13534
0.136835
0.138144
0.139257
0.140157
0.140824
0.141219
0.141313
0.141051
0.14035
0.139124
0.12942
0.11804
0.106706
0.0955595
0.0847166
0.0742727
0.0643079
0.0548908
0.0460817
0.0379362
0.0305064
0.0238414
0.018001
0.0130341
0.0089765
0.00583625
0.00356651
0.0020497
0.00111403
0.000577375
0.000287685
0.000139304
6.60345e-05
3.07274e-05
1.40634e-05
6.34088e-06
2.82028e-06
1.23897e-06
5.38227e-07
2.31455e-07
9.86168e-08
4.1649e-08
1.74255e-08
7.20106e-09
2.91168e-09
1.1209e-09
3.75968e-10
6.64438e-11
4.96435e-07
2.16973e-06
4.98477e-06
9.70438e-06
1.75771e-05
3.06217e-05
5.2056e-05
8.69247e-05
0.000142985
0.0002319
0.000370743
0.000583733
0.000903931
0.00137441
0.00204815
0.00298574
0.00425057
0.00590158
0.00798536
0.0105298
0.0135408
0.0170033
0.0208846
0.0251392
0.0297133
0.0345491
0.0395876
0.0447709
0.0500441
0.0553559
0.0606599
0.0659148
0.0710846
0.076139
0.0810527
0.0858056
0.0903815
0.0947679
0.0989564
0.102942
0.106721
0.110294
0.113662
0.116827
0.119794
0.122567
0.125149
0.127546
0.129761
0.131796
0.133655
0.135335
0.136836
0.13815
0.139267
0.140174
0.140847
0.141248
0.141347
0.141088
0.140389
0.139155
0.129649
0.11828
0.106947
0.0957936
0.08494
0.0744832
0.0645042
0.055072
0.0462473
0.0380857
0.0306395
0.0239576
0.0180999
0.0131154
0.00904034
0.00588341
0.00359888
0.00207028
0.00112623
0.000584219
0.000291246
0.000141044
6.68627e-05
3.11136e-05
1.42403e-05
6.42067e-06
2.85577e-06
1.25456e-06
5.44995e-07
2.34367e-07
9.98583e-08
4.21744e-08
1.76459e-08
7.29253e-09
2.94886e-09
1.13533e-09
3.80837e-10
6.7303e-11
4.95275e-07
2.16466e-06
4.97311e-06
9.68162e-06
1.75357e-05
3.05491e-05
5.19318e-05
8.67159e-05
0.000142639
0.000231336
0.000369838
0.000582309
0.000901735
0.0013711
0.00204329
0.00297882
0.00424101
0.0058888
0.00796882
0.010509
0.0135155
0.0169733
0.0208499
0.0250997
0.0296693
0.0345007
0.0395351
0.0447148
0.0499846
0.0552934
0.0605948
0.0658476
0.0710158
0.0760691
0.0809822
0.0857349
0.0903109
0.0946979
0.0988873
0.102874
0.106655
0.11023
0.1136
0.116769
0.119739
0.122515
0.125101
0.127502
0.129722
0.131763
0.133628
0.135315
0.136822
0.138143
0.139269
0.140183
0.140864
0.141273
0.141379
0.141124
0.140424
0.139183
0.130089
0.118736
0.107404
0.0962439
0.0853736
0.0748954
0.0648917
0.0554325
0.0465791
0.0383871
0.0309092
0.0241946
0.0183028
0.0132834
0.00917307
0.00598213
0.00366721
0.00211413
0.00115255
0.000598422
0.000298592
0.000144637
6.85777e-05
3.19153e-05
1.46083e-05
6.58682e-06
2.9297e-06
1.28704e-06
5.59099e-07
2.4043e-07
1.02442e-07
4.32666e-08
1.81038e-08
7.48234e-09
3.02591e-09
1.16521e-09
3.90907e-10
6.90747e-11
4.93534e-07
2.15706e-06
4.95562e-06
9.64747e-06
1.74736e-05
3.04402e-05
5.17454e-05
8.64022e-05
0.00014212
0.000230488
0.000368479
0.000580167
0.000898433
0.00136613
0.00203599
0.00296842
0.00422665
0.0058696
0.00794398
0.0104779
0.0134776
0.0169284
0.0207978
0.0250406
0.0296033
0.0344283
0.0394566
0.0446306
0.0498953
0.0551996
0.0604972
0.0657467
0.0709124
0.0759637
0.0808756
0.0856276
0.0902036
0.0945911
0.0987816
0.10277
0.106553
0.110131
0.113504
0.116676
0.11965
0.122431
0.125023
0.12743
0.129656
0.131704
0.133575
0.13527
0.136786
0.138116
0.13925
0.140173
0.140862
0.141278
0.141388
0.141133
0.140425
0.139155
0.130734
0.119406
0.108076
0.0969028
0.086015
0.0755074
0.0654696
0.0559723
0.0470772
0.0388406
0.0313159
0.0245525
0.0186098
0.013538
0.00937495
0.006133
0.00377228
0.0021821
0.00119117
0.000619612
0.000309668
0.000150103
7.11989e-05
3.31442e-05
1.51734e-05
6.8424e-06
3.04358e-06
1.33711e-06
5.80867e-07
2.49797e-07
1.06437e-07
4.4957e-08
1.88133e-08
7.77676e-09
3.14555e-09
1.21153e-09
4.06502e-10
7.18147e-11
4.91231e-07
2.14699e-06
4.93248e-06
9.60231e-06
1.73914e-05
3.02962e-05
5.14989e-05
8.59876e-05
0.000141433
0.000229369
0.000366683
0.000577339
0.000894072
0.00135956
0.00202636
0.00295469
0.00420768
0.00584423
0.00791117
0.0104367
0.0134275
0.016869
0.020729
0.0249625
0.0295161
0.0343324
0.0393526
0.0445191
0.049777
0.0550752
0.0603675
0.0656126
0.0707746
0.0758231
0.080733
0.0854838
0.0900594
0.0944472
0.0986388
0.102629
0.106414
0.109995
0.113372
0.116549
0.119528
0.122314
0.124912
0.127326
0.129559
0.131615
0.133495
0.135198
0.136723
0.138062
0.139205
0.140137
0.140834
0.141257
0.141373
0.141123
0.140421
0.139155
0.131653
0.120329
0.108986
0.0977876
0.0868655
0.0763262
0.0662476
0.0567027
0.0477533
0.0394538
0.0318656
0.0250366
0.0190257
0.0138839
0.00965011
0.00633968
0.00391724
0.00227053
0.00124333
0.000648548
0.000324775
0.000157595
7.48105e-05
3.48441e-05
1.59576e-05
7.19781e-06
3.20221e-06
1.40696e-06
6.11259e-07
2.62885e-07
1.12022e-07
4.73204e-08
1.98046e-08
8.18754e-09
3.31217e-09
1.2759e-09
4.28148e-10
7.56152e-11
4.88389e-07
2.13457e-06
4.90392e-06
9.54657e-06
1.729e-05
3.01186e-05
5.11949e-05
8.54764e-05
0.000140587
0.000227989
0.00036447
0.000573856
0.0008887
0.00135147
0.00201448
0.00293777
0.0041843
0.00581297
0.00787071
0.010386
0.0133657
0.0167957
0.020644
0.0248659
0.0294083
0.0342139
0.0392239
0.0443811
0.0496304
0.054921
0.0602065
0.0654458
0.070603
0.0756478
0.0805548
0.0853039
0.0898786
0.0942665
0.098459
0.102451
0.106239
0.109823
0.113205
0.116386
0.119371
0.122164
0.124769
0.12719
0.129431
0.131496
0.133385
0.135098
0.136632
0.13798
0.139132
0.140072
0.140774
0.141198
0.14131
0.141049
0.140328
0.139036
0.132849
0.121505
0.110131
0.0988914
0.0879182
0.0773187
0.0671821
0.0575803
0.0485756
0.0402228
0.0325654
0.0256522
0.0195562
0.0143273
0.0100045
0.00660753
0.00409439
0.00238497
0.0013119
0.000686454
0.000344559
0.000167415
7.95476e-05
3.70765e-05
1.69888e-05
7.66581e-06
3.41133e-06
1.49912e-06
6.51377e-07
2.80162e-07
1.19393e-07
5.04374e-08
2.1111e-08
8.72866e-09
3.53157e-09
1.36062e-09
4.56633e-10
8.06149e-11
4.85035e-07
2.11992e-06
4.87022e-06
9.48081e-06
1.71704e-05
2.99092e-05
5.08366e-05
8.48741e-05
0.00013959
0.000226364
0.000361865
0.000569756
0.000882379
0.00134195
0.00200051
0.00291785
0.00415679
0.00577617
0.00782305
0.0103262
0.0132929
0.0167092
0.0205437
0.0247519
0.029281
0.0340737
0.0390717
0.0442176
0.0494566
0.0547379
0.0600152
0.0652474
0.0703987
0.0754387
0.080342
0.0850885
0.0896618
0.0940493
0.0982425
0.102236
0.106027
0.109615
0.113001
0.116188
0.119179
0.121979
0.124591
0.127021
0.129272
0.131347
0.133247
0.134971
0.136517
0.137876
0.139039
0.139986
0.140692
0.141111
0.141204
0.140899
0.140086
0.138622
0.134245
0.122894
0.111495
0.100216
0.0891924
0.0785319
0.0683237
0.0586422
0.0495522
0.0411136
0.033379
0.026389
0.0202049
0.0148829
0.0104463
0.00692268
0.00431789
0.00253095
0.00139888
0.000734728
0.000369841
0.000179983
8.56171e-05
3.99388e-05
1.83115e-05
8.26633e-06
3.67971e-06
1.6174e-06
7.02864e-07
3.02332e-07
1.28847e-07
5.44345e-08
2.27857e-08
9.42212e-09
3.81268e-09
1.46916e-09
4.93128e-10
8.70204e-11
4.81199e-07
2.10316e-06
4.83169e-06
9.40564e-06
1.70338e-05
2.96699e-05
5.04274e-05
8.41867e-05
0.000138452
0.000224511
0.000358896
0.000565085
0.00087518
0.00133111
0.00198461
0.00289518
0.00412545
0.00573424
0.00776874
0.010258
0.0132098
0.0166105
0.0204292
0.0246217
0.0291354
0.0339133
0.0388974
0.0440302
0.0492572
0.0545276
0.0597953
0.065019
0.0701631
0.0751972
0.0800959
0.084839
0.0894101
0.0937968
0.0979903
0.101985
0.105779
0.10937
0.112761
0.115954
0.118952
0.12176
0.124381
0.126821
0.129083
0.13117
0.133083
0.134822
0.136383
0.13776
0.138942
0.13991
0.140638
0.141081
0.141193
0.140901
0.140087
0.138589
0.135823
0.124483
0.113073
0.101767
0.0906986
0.0799786
0.0696977
0.0599321
0.050748
0.0422054
0.0343625
0.0272801
0.020974
0.0155026
0.0109312
0.00730234
0.00459147
0.0027102
0.00150692
0.000795193
0.000401692
0.000195866
9.33013e-05
4.35665e-05
1.99889e-05
9.02808e-06
4.02014e-06
1.7674e-06
7.68134e-07
3.30423e-07
1.40821e-07
5.94937e-08
2.49044e-08
1.0299e-08
4.16803e-09
1.60634e-09
5.39259e-10
9.51162e-11
4.76913e-07
2.08443e-06
4.78865e-06
9.3217e-06
1.68813e-05
2.9403e-05
4.99713e-05
8.34207e-05
0.000137186
0.00022245
0.000355595
0.000559894
0.000867182
0.00131907
0.00196695
0.00287001
0.00409067
0.00568769
0.00770844
0.0101823
0.0131174
0.0165008
0.0203018
0.0244767
0.0289732
0.0337346