/*--------------------------------*- C++ -*----------------------------------*\
  =========                 |
  \\      /  F ield         | OpenFOAM: The Open Source CFD Toolbox
   \\    /   O peration     | Website:  https://openfoam.org
    \\  /    A nd           | Version:  8
     \\/     M anipulation  |
\*---------------------------------------------------------------------------*/
FoamFile
{
    version     2.0;
    format      ascii;
    class       volScalarField;
    location    "240/fluid";
    object      H2O;
}
// * * * * * * * * * * * * * * * * * * * * * * * * * * * * * * * * * * * * * //

dimensions      [0 0 0 0 0 0 0];

internalField   nonuniform List<scalar> 
4000
(
3.26315e-07
1.425e-06
3.26824e-06
6.34784e-06
1.14676e-05
1.99285e-05
3.3811e-05
5.63976e-05
9.27824e-05
0.000150719
0.000241741
0.000382522
0.000596357
0.000914426
0.00137629
0.00202892
0.00292356
0.00411045
0.00563207
0.00751691
0.00977563
0.0124005
0.0153679
0.0186422
0.0221804
0.0259357
0.0298605
0.0339084
0.0380357
0.0422022
0.0463716
0.0505121
0.0545959
0.0585997
0.0625043
0.066294
0.069957
0.0734837
0.0768677
0.0801048
0.0831928
0.0861311
0.0889205
0.0915629
0.0940607
0.0964173
0.0986362
0.100721
0.102675
0.104502
0.106205
0.107785
0.109245
0.110583
0.111797
0.112884
0.113837
0.114644
0.115291
0.115754
0.115999
0.115994
0.115676
0.114964
0.113742
0.107756
0.0990406
0.0902379
0.0814727
0.0728471
0.0644451
0.0563372
0.0485837
0.0412381
0.0343501
0.0279782
0.0221506
0.0169365
0.0123982
0.00859675
0.0055823
0.00336371
0.00187471
0.000970794
0.000471852
0.000220278
9.98642e-05
4.42707e-05
1.92858e-05
8.28655e-06
3.52155e-06
1.48337e-06
6.20311e-07
2.57745e-07
1.06374e-07
4.34751e-08
1.74286e-08
6.66899e-09
2.22898e-09
3.90757e-10
3.31978e-07
1.45059e-06
3.33052e-06
6.47818e-06
1.17226e-05
2.04064e-05
3.46776e-05
5.79208e-05
9.53781e-05
0.000155002
0.000248564
0.000392994
0.000611785
0.000936168
0.00140551
0.00206623
0.00296876
0.00416229
0.00568842
0.0075752
0.00983339
0.0124559
0.0154202
0.0186917
0.0222282
0.0259835
0.0299104
0.0339624
0.0380956
0.0422692
0.0464467
0.0505957
0.054688
0.0587001
0.0626124
0.0664093
0.0700784
0.0736105
0.0769987
0.080239
0.0833293
0.086269
0.0890589
0.0917009
0.0941977
0.0965526
0.0987691
0.100851
0.102802
0.104625
0.106323
0.107898
0.109351
0.110682
0.111888
0.112966
0.113907
0.114701
0.115332
0.115777
0.116003
0.115982
0.115655
0.114951
0.113778
0.106581
0.0978248
0.0889771
0.0801697
0.0715083
0.0630785
0.0549521
0.0471903
0.0398486
0.0329794
0.0266604
0.0208936
0.0157731
0.0113647
0.00773058
0.00491283
0.00289746
0.00158666
0.000813075
0.000394326
0.000184891
8.44693e-05
3.77987e-05
1.66284e-05
7.212e-06
3.09105e-06
1.3118e-06
5.52119e-07
2.307e-07
9.56833e-08
3.92792e-08
1.58099e-08
6.07088e-09
2.0346e-09
3.57256e-10
3.40413e-07
1.48799e-06
3.4187e-06
6.65533e-06
1.20537e-05
2.09991e-05
3.57046e-05
5.96508e-05
9.82142e-05
0.000159525
0.000255578
0.000403547
0.000627169
0.000957855
0.00143502
0.00210493
0.00301757
0.00422145
0.00575738
0.00765267
0.00991766
0.0125453
0.0155132
0.0187876
0.022327
0.026086
0.0300176
0.0340757
0.0382164
0.0423989
0.0465863
0.0507458
0.054849
0.0588719
0.0627946
0.0666013
0.0702794
0.0738192
0.077214
0.0804596
0.0835539
0.0864962
0.0892875
0.0919297
0.0944255
0.0967783
0.0989916
0.101069
0.103015
0.104832
0.106522
0.108089
0.109532
0.110851
0.112043
0.113103
0.114022
0.114788
0.115383
0.115781
0.115949
0.115853
0.115438
0.114644
0.113425
0.104786
0.0959163
0.0869856
0.0781246
0.0694366
0.0610056
0.0529021
0.0451877
0.037919
0.0311501
0.0249675
0.0193636
0.0144417
0.0102625
0.00687793
0.00430865
0.00251165
0.00136561
0.000698245
0.000339226
0.000159582
7.31936e-05
3.28839e-05
1.45204e-05
6.31834e-06
2.71538e-06
1.15482e-06
4.8682e-07
2.03643e-07
8.45279e-08
3.47204e-08
1.39825e-08
5.37203e-09
1.80121e-09
3.16398e-10
3.4835e-07
1.52274e-06
3.49881e-06
6.81176e-06
1.23372e-05
2.14911e-05
3.65326e-05
6.10096e-05
0.000100393
0.000162942
0.000260817
0.000411395
0.00063864
0.00097419
0.00145762
0.00213527
0.003057
0.00427105
0.00581782
0.00772419
0.0100002
0.0126384
0.0156167
0.0189012
0.0224507
0.0262198
0.0301618
0.0342308
0.0383829
0.0425771
0.0467766
0.0509483
0.0550637
0.0590985
0.0630326
0.0668499
0.0705377
0.074086
0.0774881
0.0807396
0.0838383
0.0867837
0.0895766
0.0922189
0.0947135
0.0970638
0.0992733
0.101346
0.103285
0.105094
0.106776
0.108332
0.109762
0.111066
0.112241
0.113279
0.11417
0.1149
0.115445
0.11577
0.115835
0.115575
0.114894
0.113659
0.11164
0.102684
0.0936294
0.0845973
0.0756925
0.0670042
0.0586089
0.0505731
0.0429564
0.0358147
0.029203
0.0231811
0.0177902
0.0131032
0.00917593
0.00604992
0.00372686
0.00213971
0.0011498
0.000583528
0.000282782
0.000133051
6.11349e-05
2.75431e-05
1.22032e-05
5.32963e-06
2.2991e-06
9.81356e-07
4.15101e-07
1.7417e-07
7.24849e-08
2.98398e-08
1.20388e-08
4.63185e-09
1.55451e-09
2.73224e-10
3.55528e-07
1.5541e-06
3.57081e-06
6.95185e-06
1.25905e-05
2.1931e-05
3.72757e-05
6.22381e-05
0.000102385
0.000166109
0.000265749
0.000418909
0.000649815
0.000990374
0.0014804
0.00216634
0.00309805
0.00432354
0.00588284
0.0078024
0.0100918
0.0127435
0.0157351
0.0190328
0.0225953
0.0263775
0.0303328
0.0344152
0.0385807
0.0427885
0.0470014
0.0511864
0.0553147
0.0593618
0.0633075
0.0671355
0.0708329
0.0743897
0.0777988
0.081056
0.0841589
0.087107
0.0899011
0.0925432
0.0950361
0.0973832
0.0995881
0.101655
0.103587
0.105387
0.107058
0.108602
0.110019
0.111307
0.112463
0.113479
0.114345
0.115045
0.115554
0.115832
0.115843
0.115515
0.114743
0.113372
0.109057
0.10008
0.0910007
0.0819618
0.0730758
0.0644343
0.0561141
0.0481809
0.0406934
0.0337064
0.0272873
0.021458
0.0162938
0.0118519
0.00818135
0.00531106
0.00322238
0.00182635
0.000972425
0.000490916
0.000237592
0.000111839
5.14605e-05
2.32276e-05
1.03119e-05
4.5126e-06
1.95031e-06
8.33899e-07
3.53263e-07
1.48418e-07
6.18355e-08
2.54786e-08
1.02865e-08
3.95972e-09
1.32934e-09
2.33712e-10
3.61868e-07
1.58174e-06
3.63413e-06
7.07462e-06
1.28118e-05
2.23141e-05
3.79216e-05
6.3305e-05
0.000104115
0.000168865
0.000270058
0.000425512
0.000659719
0.00100488
0.0015011
0.00219507
0.00313674
0.00437408
0.00594684
0.00788109
0.010186
0.0128536
0.0158612
0.0191748
0.0227532
0.0265511
0.0305218
0.0346193
0.0387998
0.0430222
0.0472493
0.0514479
0.0555891
0.0596484
0.0636054
0.0674436
0.07115
0.0747145
0.07813
0.0813921
0.0844985
0.0874485
0.0902431
0.0928841
0.0953745
0.0977177
0.0999172
0.101977
0.103901
0.105691
0.107351
0.108882
0.110283
0.111554
0.112689
0.113683
0.114522
0.115192
0.115671
0.115921
0.11592
0.115611
0.114935
0.113827
0.106402
0.0974157
0.088334
0.0793122
0.0704687
0.0618968
0.0536726
0.0458606
0.0385179
0.0316976
0.0254804
0.0198565
0.0149179
0.0107157
0.00729156
0.00466091
0.00278563
0.00155848
0.000821775
0.000412231
0.00019901
9.36057e-05
4.30868e-05
1.94695e-05
8.65707e-06
3.79538e-06
1.64353e-06
7.04094e-07
2.98825e-07
1.25757e-07
5.24698e-08
2.16452e-08
8.74685e-09
3.36919e-09
1.13147e-09
1.98988e-10
3.67601e-07
1.60676e-06
3.69145e-06
7.18593e-06
1.30129e-05
2.26632e-05
3.85128e-05
6.42868e-05
0.000105718
0.000171437
0.000274113
0.000431782
0.000669209
0.00101891
0.0015213
0.00222335
0.00317515
0.00442464
0.00601137
0.00796104
0.0102824
0.0129671
0.015992
0.019323
0.0229186
0.0267333
0.0307206
0.0348343
0.0390304
0.0432679
0.0475093
0.0517215
0.0558754
0.0599464
0.063914
0.0677616
0.0714762
0.0750475
0.0784684
0.0817345
0.0848434
0.0877944
0.0905885
0.0932277
0.0957147
0.0980531
0.100246
0.102299
0.104213
0.105993
0.10764
0.109156
0.110541
0.111791
0.112903
0.113867
0.11467
0.115293
0.115709
0.11588
0.115769
0.115312
0.114434
0.113079
0.104103
0.0949621
0.0858152
0.076789
0.0679855
0.0594887
0.0513685
0.0436857
0.0364945
0.029846
0.023809
0.0183926
0.0136754
0.00970368
0.006512
0.00410225
0.00241805
0.00133734
0.000699283
0.000348897
0.000168075
7.89941e-05
3.63637e-05
1.64414e-05
7.31735e-06
3.21159e-06
1.3924e-06
5.97244e-07
2.53777e-07
1.06915e-07
4.46505e-08
1.84335e-08
7.45317e-09
2.8719e-09
9.64601e-10
1.69685e-10
3.72849e-07
1.62966e-06
3.74396e-06
7.28795e-06
1.31973e-05
2.29841e-05
3.90571e-05
6.51928e-05
0.000107201
0.000173827
0.000277897
0.000437665
0.000678165
0.00103224
0.00154064
0.00225063
0.00321249
0.0044742
0.00607511
0.00804057
0.0103789
0.0130813
0.0161243
0.0194733
0.0230868
0.0269191
0.0309234
0.0350536
0.0392654
0.0435178
0.0477733
0.0519986
0.0561645
0.0602464
0.0642237
0.0680798
0.0718015
0.0753785
0.0788038
0.0820729
0.0851832
0.0881343
0.090927
0.0935634
0.0960463
0.098379
0.100565
0.102609
0.104514
0.106282
0.107917
0.109418
0.110785
0.112016
0.113103
0.114037
0.114803
0.115376
0.115718
0.11579
0.115521
0.114799
0.113462
0.110986
0.101831
0.0925983
0.0834219
0.0744131
0.0656641
0.0572516
0.049241
0.0416897
0.0346496
0.0281707
0.0222981
0.0170819
0.0125742
0.00881776
0.00583975
0.00362866
0.00211173
0.00115567
0.000599623
0.000297621
0.000143049
6.71597e-05
3.09071e-05
1.39777e-05
6.22461e-06
2.73427e-06
1.18662e-06
5.09506e-07
2.16719e-07
9.13898e-08
3.81982e-08
1.57801e-08
6.38327e-09
2.46032e-09
8.26415e-10
1.45417e-10
3.77712e-07
1.65089e-06
3.79268e-06
7.38274e-06
1.3369e-05
2.32832e-05
3.95658e-05
6.60423e-05
0.000108597
0.000176084
0.000281486
0.000443268
0.000686734
0.00104504
0.0015593
0.00227706
0.00324883
0.0045226
0.00613757
0.00811876
0.010474
0.0131942
0.0162552
0.0196224
0.0232538
0.0271036
0.0311249
0.0352712
0.0394984
0.0437652
0.0480342
0.0522718
0.0564489
0.0605407
0.0645267
0.0683903
0.072118
0.0756998
0.0791284
0.0823993
0.0855102
0.0884604
0.0912509
0.0938837
0.0963616
0.0986882
0.100867
0.102902
0.104797
0.106554
0.108175
0.109662
0.111013
0.112225
0.113292
0.114204
0.114945
0.115492
0.115808
0.115857
0.115577
0.114878
0.113639
0.108637
0.0994999
0.0902885
0.0811484
0.0721951
0.0635212
0.0552029
0.047304
0.0398805
0.0329827
0.0266729
0.020966
0.0159305
0.0116134
0.00805272
0.00526714
0.00323172
0.00185917
0.00100799
0.00051944
0.000256631
0.00012309
5.77252e-05
2.65532e-05
1.20085e-05
5.34925e-06
2.35095e-06
1.02093e-06
4.38677e-07
1.86728e-07
7.8797e-08
3.29542e-08
1.362e-08
5.51109e-09
2.12446e-09
7.13594e-10
1.25599e-10
3.82236e-07
1.67064e-06
3.83803e-06
7.47103e-06
1.35291e-05
2.35625e-05
4.00416e-05
6.68383e-05
0.000109908
0.000178208
0.000284874
0.000448572
0.000694872
0.00105724
0.00157713
0.0023024
0.00328376
0.00456924
0.0061979
0.00819444
0.0105663
0.0133038
0.0163825
0.0197675
0.0234163
0.0272831
0.0313207
0.0354825
0.0397244
0.0440048
0.0482863
0.0525353
0.0567226
0.0608234
0.0648171
0.068687
0.0724198
0.0760052
0.0794361
0.082708
0.0858185
0.0887671
0.0915546
0.0941831
0.0966556
0.0989755
0.101146
0.103172
0.105056
0.106801
0.108409
0.109881
0.111215
0.112409
0.113456
0.114346
0.115064
0.115589
0.115886
0.115928
0.115659
0.115004
0.113872
0.106458
0.0973516
0.0881734
0.0790783
0.0701852
0.0615879
0.0533619
0.04557
0.0382667
0.0315015
0.0253446
0.0197917
0.0149225
0.0107796
0.00739633
0.00478264
0.00290102
0.00165186
0.000888249
0.000454978
0.000223848
0.000107156
5.0196e-05
2.30767e-05
1.04344e-05
4.64858e-06
2.04365e-06
8.87871e-07
3.81706e-07
1.62567e-07
6.86366e-08
2.87175e-08
1.18727e-08
4.80499e-09
1.85238e-09
6.22174e-10
1.0954e-10
3.86435e-07
1.68899e-06
3.88017e-06
7.55313e-06
1.36781e-05
2.38228e-05
4.04857e-05
6.75823e-05
0.000111135
0.000180202
0.000288059
0.000453569
0.000702552
0.00106878
0.00159402
0.00232644
0.00331695
0.00461362
0.00625537
0.00826659
0.0106543
0.0134083
0.016504
0.0199059
0.0235713
0.0274542
0.0315072
0.0356837
0.0399392
0.0442323
0.0485253
0.0527846
0.056981
0.0610897
0.06509
0.0689652
0.072702
0.0762902
0.0797226
0.0829946
0.0861041
0.0890503
0.0918343
0.0944582
0.0969248
0.0992376
0.1014
0.103417
0.10529
0.107022
0.108616
0.110071
0.111387
0.112559
0.113581
0.114441
0.115124
0.115609
0.115858
0.115848
0.115521
0.114813
0.113662
0.104718
0.0955434
0.0863439
0.0772631
0.0684123
0.0598793
0.0517356
0.0440408
0.0368469
0.0302017
0.0241682
0.018756
0.0140418
0.0100593
0.00683651
0.00437532
0.00262711
0.00148253
0.000791524
0.000403317
0.000197707
9.44756e-05
4.4208e-05
2.03112e-05
9.1813e-06
4.09013e-06
1.79838e-06
7.81518e-07
3.36097e-07
1.43194e-07
6.04785e-08
2.53114e-08
1.04665e-08
4.23622e-09
1.63309e-09
5.48467e-10
9.65983e-11
3.90306e-07
1.7059e-06
3.91903e-06
7.62888e-06
1.38156e-05
2.40634e-05
4.08964e-05
6.82714e-05
0.000112273
0.000182053
0.00029102
0.000458221
0.000709713
0.00107955
0.00160981
0.00234893
0.00334802
0.00465519
0.00630923
0.00833421
0.0107368
0.0135064
0.0166179
0.0200355
0.0237165
0.0276143
0.0316816
0.0358715
0.0401395
0.044444
0.0487474
0.0530159
0.0572204
0.0613359
0.0653418
0.0692214
0.0729614
0.0765515
0.0799846
0.0832562
0.0863641
0.0893076
0.0920877
0.0947066
0.0971672
0.0994729
0.101627
0.103634
0.105496
0.107216
0.108796
0.110235
0.111531
0.112679
0.113672
0.114496
0.115132
0.115551
0.115714
0.115581
0.115074
0.114098
0.112554
0.103327
0.0940167
0.0847619
0.0756777
0.0668585
0.058382
0.0503133
0.0427078
0.0356144
0.0290779
0.023142
0.0178628
0.0132806
0.00944361
0.00636516
0.00403698
0.0024025
0.00134523
0.000713783
0.000362041
0.000176927
8.44082e-05
3.94551e-05
1.81153e-05
8.18554e-06
3.64591e-06
1.60304e-06
6.96706e-07
2.99677e-07
1.27705e-07
5.39474e-08
2.25814e-08
9.33839e-09
3.77961e-09
1.45694e-09
4.89239e-10
8.62059e-11
3.93832e-07
1.7213e-06
3.95443e-06
7.69792e-06
1.39411e-05
2.42829e-05
4.12716e-05
6.89014e-05
0.000113315
0.000183748
0.000293735
0.00046249
0.00071629
0.00108945
0.00162433
0.00236962
0.00337661
0.00469345
0.00635879
0.00839644
0.0108127
0.0135965
0.0167226
0.0201546
0.0238497
0.0277612
0.0318414
0.0360434
0.0403226
0.0446374
0.0489499
0.0532265
0.0574379
0.0615592
0.0655697
0.0694529
0.0731953
0.0767867
0.0802199
0.0834907
0.0865965
0.089537
0.0923132
0.0949272
0.0973818
0.0996805
0.101827
0.103825
0.105677
0.107385
0.108952
0.110376
0.111654
0.112782
0.11375
0.114542
0.115138
0.1155
0.115593
0.115353
0.114689
0.113469
0.111222
0.101934
0.0925911
0.0833331
0.0742707
0.0654937
0.0570761
0.0490804
0.0415606
0.0345659
0.028144
0.0223443
0.0171803
0.0126996
0.00895559
0.00598313
0.00376229
0.0022209
0.0012349
0.000651643
0.000329166
0.000160496
7.64495e-05
3.56962e-05
1.63773e-05
7.39661e-06
3.29355e-06
1.44792e-06
6.29267e-07
2.7068e-07
1.15357e-07
4.87351e-08
2.04005e-08
8.43636e-09
3.41426e-09
1.31594e-09
4.41819e-10
7.78878e-11
3.96988e-07
1.73509e-06
3.98614e-06
7.75978e-06
1.40535e-05
2.44798e-05
4.16083e-05
6.94671e-05
0.00011425
0.000185273
0.000296178
0.000466333
0.000722212
0.00109837
0.00163741
0.00238827
0.00340238
0.00472793
0.00640344
0.00845249
0.010881
0.0136777
0.0168167
0.0202617
0.0239694
0.027893
0.0319846
0.0361974
0.0404864
0.0448101
0.0491305
0.0534141
0.0576314
0.0617575
0.0657719
0.0696578
0.0734019
0.076994
0.080427
0.0836965
0.0868002
0.0897377
0.0925099
0.0951191
0.0975681
0.0998604
0.102
0.103989
0.105832
0.107531
0.109086
0.110498
0.111764
0.112877
0.113829
0.114605
0.115183
0.115525
0.115601
0.115349
0.114683
0.113484
0.109929
0.100631
0.0912964
0.0820614
0.0730353
0.0643067
0.0559485
0.0480216
0.040579
0.0336694
0.0273362
0.0216128
0.0165488
0.0121906
0.0085571
0.0056711
0.00353754
0.00207365
0.00114617
0.000602001
0.000303025
0.000147463
7.01459e-05
3.27209e-05
1.50018e-05
6.77208e-06
3.01449e-06
1.32498e-06
5.75777e-07
2.47662e-07
1.05547e-07
4.45902e-08
1.86648e-08
7.71802e-09
3.12316e-09
1.20356e-09
4.04021e-10
7.12582e-11
3.9975e-07
1.74717e-06
4.0139e-06
7.81394e-06
1.4152e-05
2.46523e-05
4.19034e-05
6.99631e-05
0.000115071
0.000186611
0.000298323
0.000469709
0.000727416
0.00110621
0.00164891
0.00240466
0.00342503
0.00475822
0.00644265
0.00850168
0.0109409
0.0137488
0.0168992
0.0203554
0.0240741
0.0280082
0.0321098
0.0363317
0.0406292
0.0449605
0.0492877
0.053577
0.0577992
0.0619293
0.0659467
0.0698347
0.07358
0.0771724
0.0806048
0.0838729
0.0869743
0.0899088
0.0926773
0.095282
0.0977258
0.100012
0.102145
0.104127
0.105963
0.107653
0.1092
0.110602
0.111858
0.112962
0.113906
0.114675
0.11525
0.115598
0.115689
0.115475
0.114884
0.113823
0.108776
0.0994885
0.0901762
0.0809742
0.0719898
0.0633112
0.0550117
0.0471498
0.0397769
0.032938
0.0266682
0.0210077
0.0160163
0.0117345
0.00819453
0.00541239
0.00335401
0.0019538
0.00107476
0.000562377
0.000282279
0.000137152
6.51671e-05
3.03734e-05
1.39171e-05
6.27968e-06
2.79445e-06
1.22801e-06
5.33574e-07
2.29492e-07
9.77983e-08
4.13146e-08
1.72925e-08
7.14979e-09
2.89282e-09
1.11461e-09
3.74107e-10
6.60125e-11
4.02094e-07
1.7574e-06
4.03744e-06
7.85989e-06
1.42356e-05
2.47987e-05
4.2154e-05
7.03844e-05
0.000115769
0.000187748
0.000300146
0.000472579
0.000731842
0.00111287
0.00165869
0.0024186
0.00344428
0.00478396
0.00647597
0.00854345
0.0109918
0.0138091
0.0169691
0.0204349
0.0241628
0.0281057
0.0322156
0.0364453
0.0407498
0.0450874
0.0494201
0.0537141
0.0579402
0.0620734
0.0660931
0.0699826
0.0737286
0.0773209
0.0807526
0.0840191
0.0871184
0.09005
0.0928151
0.0954157
0.0978549
0.100136
0.102263
0.104239
0.106068
0.107751
0.10929
0.110684
0.111932
0.113029
0.113965
0.114728
0.115298
0.115645
0.11574
0.115537
0.114962
0.113924
0.107793
0.0985226
0.0892364
0.0800688
0.0711262
0.062497
0.0542448
0.0464296
0.0391021
0.0323067
0.0260937
0.0205022
0.0155806
0.0113704
0.00790357
0.00519258
0.00320861
0.00185988
0.00101848
0.000531269
0.000266045
0.000129096
6.12813e-05
2.85424e-05
1.30714e-05
5.8959e-06
2.62298e-06
1.15245e-06
5.00683e-07
2.15328e-07
9.17565e-08
3.87596e-08
1.62216e-08
6.70627e-09
2.71299e-09
1.04515e-09
3.50749e-10
6.19178e-11
4.03995e-07
1.76571e-06
4.05655e-06
7.89718e-06
1.43034e-05
2.49176e-05
4.23575e-05
7.07267e-05
0.000116336
0.000188672
0.000301629
0.000474913
0.00073544
0.00111829
0.00166664
0.00242993
0.00345993
0.00480487
0.00650302
0.00857737
0.0110331
0.0138581
0.0170258
0.0204992
0.0242346
0.0281846
0.0323012
0.0365371
0.0408472
0.0451898
0.0495268
0.0538245
0.0580536
0.0621891
0.0662104
0.0701008
0.0738472
0.0774392
0.08087
0.0841351
0.0872323
0.0901614
0.0929233
0.0955203
0.0979554
0.100232
0.102354
0.104324
0.106147
0.107824
0.109356
0.110743
0.111984
0.113073
0.114001
0.114757
0.115321
0.115662
0.115752
0.115544
0.114965
0.113925
0.107039
0.0977651
0.0884889
0.0793413
0.0704271
0.0618241
0.0536056
0.0458297
0.0385469
0.0318032
0.0256423
0.0201048
0.0152391
0.0110864
0.00767757
0.00502284
0.00308958
0.00178724
0.000975652
0.00050751
0.000253643
0.000122946
5.83175e-05
2.71475e-05
1.2428e-05
5.60432e-06
2.49285e-06
1.09515e-06
4.75752e-07
2.04592e-07
8.71757e-08
3.68212e-08
1.54087e-08
6.36943e-09
2.57635e-09
9.92356e-10
3.32988e-10
5.88053e-11
4.05436e-07
1.77201e-06
4.07103e-06
7.92546e-06
1.43549e-05
2.50078e-05
4.25118e-05
7.09864e-05
0.000116766
0.000189374
0.000302754
0.000476684
0.000738172
0.00112241
0.00167267
0.00243853
0.0034718
0.00482074
0.00652354
0.00860308
0.0110644
0.0138952
0.0170688
0.020548
0.024289
0.0282444
0.032366
0.0366064
0.0409207
0.045267
0.0496072
0.0539076
0.0581388
0.0622759
0.0662982
0.0701892
0.0739356
0.0775271
0.080957
0.0842208
0.0873163
0.0902431
0.0930024
0.0955964
0.098028
0.100301
0.102418
0.104384
0.106202
0.107873
0.109399
0.11078
0.112014
0.113096
0.114017
0.114766
0.115324
0.115659
0.115745
0.115537
0.114964
0.113948
0.106508
0.0972135
0.0879363
0.0787991
0.0698994
0.0613206
0.0531304
0.0453859
0.0381374
0.0314305
0.0253081
0.0198106
0.0149868
0.010877
0.00751159
0.0048988
0.00300321
0.00173139
0.000943907
0.000490108
0.000244546
0.000118456
5.61643e-05
2.61382e-05
1.19639e-05
5.39445e-06
2.39935e-06
1.05404e-06
4.57882e-07
1.96903e-07
8.38957e-08
3.54336e-08
1.48263e-08
6.12773e-09
2.47812e-09
9.54316e-10
3.20176e-10
5.65603e-11
4.06403e-07
1.77624e-06
4.08075e-06
7.94442e-06
1.43894e-05
2.50682e-05
4.26153e-05
7.11604e-05
0.000117054
0.000189844
0.000303507
0.00047787
0.000740001
0.00112516
0.00167671
0.00244428
0.00347975
0.00483136
0.00653729
0.00862031
0.0110854
0.01392
0.0170976
0.0205807
0.0243254
0.0282844
0.0324094
0.0366529
0.04097
0.0453187
0.049661
0.0539631
0.0581956
0.0623336
0.0663565
0.0702476
0.0739939
0.077585
0.0810141
0.0842768
0.0873708
0.090296
0.0930533
0.0956449
0.0980739
0.100344
0.102458
0.10442
0.106233
0.1079
0.109421
0.110797
0.112026
0.113101
0.114017
0.114759
0.11531
0.115639
0.11572
0.115508
0.114935
0.113925
0.106145
0.0968377
0.087559
0.0784279
0.0695421
0.0609811
0.0528112
0.0450891
0.0378643
0.0311823
0.0250859
0.0196154
0.0148196
0.0107386
0.00740221
0.00481743
0.00294688
0.00169524
0.000922216
0.000478382
0.000238487
0.000115494
5.47508e-05
2.54775e-05
1.16608e-05
5.25759e-06
2.33845e-06
1.0273e-06
4.46269e-07
1.91911e-07
8.17687e-08
3.45344e-08
1.44493e-08
5.97148e-09
2.4147e-09
9.29703e-10
3.11873e-10
5.51059e-11
4.06884e-07
1.77833e-06
4.08556e-06
7.95378e-06
1.44063e-05
2.50979e-05
4.26659e-05
7.12452e-05
0.000117194
0.000190071
0.000303871
0.000478443
0.000740882
0.00112649
0.00167866
0.00244705
0.00348357
0.00483648
0.00654392
0.00862864
0.0110955
0.0139321
0.0171116
0.0205966
0.0243433
0.028304
0.0324307
0.0366758
0.0409943
0.0453442
0.0496875
0.0539905
0.0582236
0.0623619
0.066385
0.0702762
0.0740223
0.0776131
0.0810417
0.0843037
0.087397
0.0903212
0.0930774
0.0956677
0.0980951
0.100363
0.102475
0.104435
0.106246
0.10791
0.109429
0.110801
0.112026
0.113097
0.114008
0.114745
0.115291
0.115615
0.115692
0.115477
0.114904
0.1139
0.105956
0.0966389
0.08736
0.0782347
0.0693576
0.0608072
0.0526491
0.0449393
0.0377273
0.0310586
0.0249759
0.0195192
0.0147377
0.0106713
0.0073493
0.00477834
0.00292005
0.00167819
0.000912118
0.000472731
0.000235545
0.000114057
5.40666e-05
2.51585e-05
1.15147e-05
5.1917e-06
2.30915e-06
1.01443e-06
4.40681e-07
1.89507e-07
8.07438e-08
3.41007e-08
1.42673e-08
5.89594e-09
2.38397e-09
9.17756e-10
3.07835e-10
5.43997e-11
4.06892e-07
1.77837e-06
4.08564e-06
7.95394e-06
1.44066e-05
2.50984e-05
4.26667e-05
7.12466e-05
0.000117196
0.000190075
0.000303877
0.000478452
0.000740895
0.00112651
0.00167869
0.00244709
0.00348362
0.00483655
0.006544
0.00862874
0.0110956
0.0139322
0.0171117
0.0205968
0.0243434
0.0283042
0.0324309
0.036676
0.0409945
0.0453444
0.0496878
0.0539907
0.0582238
0.0623622
0.0663853
0.0702765
0.0740225
0.0776133
0.0810419
0.084304
0.0873972
0.0903214
0.0930776
0.0956679
0.0980953
0.100363
0.102476
0.104436
0.106246
0.10791
0.109429
0.110801
0.112026
0.113098
0.114008
0.114745
0.115291
0.115615
0.115692
0.115477
0.114904
0.1139
0.105955
0.0966379
0.087359
0.0782337
0.0693568
0.0608064
0.0526483
0.0449386
0.0377267
0.0310581
0.0249753
0.0195188
0.0147373
0.0106709
0.00734898
0.00477809
0.00291987
0.00167807
0.000912046
0.000472692
0.000235525
0.000114047
5.40618e-05
2.51562e-05
1.15136e-05
5.19122e-06
2.30894e-06
1.01434e-06
4.40641e-07
1.8949e-07
8.07367e-08
3.40977e-08
1.42661e-08
5.89545e-09
2.38377e-09
9.17668e-10
3.07802e-10
5.4397e-11
4.06427e-07
1.77634e-06
4.08099e-06
7.94489e-06
1.43902e-05
2.50697e-05
4.26178e-05
7.11645e-05
0.000117061
0.000189854
0.000303524
0.000477897
0.000740041
0.00112522
0.0016768
0.0024444
0.0034799
0.00483157
0.00653755
0.00862062
0.0110857
0.0139205
0.0170981
0.0205812
0.024326
0.028285
0.03241
0.0366536
0.0409707
0.0453194
0.0496617
0.0539638
0.0581963
0.0623343
0.0663572
0.0702483
0.0739945
0.0775856
0.0810147
0.0842774
0.0873715
0.0902966
0.0930539
0.0956455
0.0980745
0.100344
0.102458
0.104421
0.106234
0.107901
0.109422
0.110798
0.112026
0.113102
0.114017
0.114759
0.11531
0.115639
0.11572
0.115508
0.114935
0.113925
0.106142
0.096835
0.0875563
0.0784254
0.0695397
0.0609787
0.052809
0.0450869
0.0378623
0.0311805
0.0250843
0.0196138
0.0148182
0.0107375
0.00740125
0.00481669
0.00294637
0.00169492
0.000922035
0.000478295
0.000238441
0.000115472
5.47399e-05
2.54724e-05
1.16584e-05
5.25655e-06
2.33799e-06
1.0271e-06
4.46183e-07
1.91874e-07
8.17531e-08
3.45278e-08
1.44466e-08
5.97033e-09
2.41421e-09
9.29485e-10
3.11788e-10
5.51004e-11
4.05477e-07
1.77219e-06
4.07144e-06
7.92626e-06
1.43563e-05
2.50103e-05
4.25161e-05
7.09936e-05
0.000116778
0.000189393
0.000302784
0.000476731
0.000738243
0.00112251
0.00167282
0.00243874
0.00347208
0.00482111
0.006524
0.00860364
0.011065
0.0138959
0.0170696
0.0205489
0.02429
0.0282454
0.0323671
0.0366076
0.0409219
0.0452682
0.0496084
0.0539088
0.05814
0.0622771
0.0662994
0.0701904
0.0739367
0.0775283
0.0809582
0.0842219
0.0873174
0.0902442
0.0930035
0.0955974
0.098029
0.100302
0.102419
0.104385
0.106202
0.107874
0.1094
0.110781
0.112015
0.113097
0.114018
0.114767
0.115324
0.115659
0.115745
0.115537
0.114964
0.113947
0.106503
0.0972081
0.0879311
0.0787941
0.0698946
0.0613162
0.0531263
0.0453821
0.0381339
0.0314272
0.0253051
0.0198079
0.0149844
0.010875
0.00750991
0.00489752
0.00300231
0.00173082
0.000943581
0.000489923
0.000244455
0.000118413
5.61439e-05
2.61288e-05
1.19597e-05
5.39257e-06
2.39852e-06
1.05369e-06
4.57729e-07
1.96838e-07
8.38684e-08
3.5422e-08
1.48214e-08
6.12572e-09
2.47728e-09
9.53947e-10
3.20032e-10
5.65509e-11
4.04052e-07
1.76596e-06
4.05712e-06
7.8983e-06
1.43055e-05
2.49211e-05
4.23635e-05
7.07368e-05
0.000116352
0.000188699
0.00030167
0.000474978
0.000735539
0.00111844
0.00166685
0.00243022
0.00346032
0.00480539
0.00650367
0.00857815
0.011034
0.0138591
0.017027
0.0205006
0.024236
0.0281861
0.0323028
0.0365387
0.0408489
0.0451915
0.0495285
0.0538263
0.0580553
0.0621908
0.0662121
0.0701026
0.0738489
0.0774409
0.0808716
0.0841367
0.0872339
0.0901629
0.0929248
0.0955217
0.0979568
0.100233
0.102355
0.104326
0.106148
0.107825
0.109357
0.110745
0.111985
0.113074
0.114003
0.114758
0.115322
0.115663
0.115753
0.115544
0.114965
0.113925
0.10703
0.0977566
0.0884805
0.0793335
0.0704197
0.0618173
0.0535994
0.045824
0.0385417
0.0317985
0.025638
0.0201009
0.0152357
0.0110835
0.00767519
0.00502103
0.00308833
0.00178647
0.000975198
0.000507271
0.000253523
0.000122888
5.82899e-05
2.71348e-05
1.24224e-05
5.60181e-06
2.49175e-06
1.09468e-06
4.7555e-07
2.04506e-07
8.71394e-08
3.68059e-08
1.54023e-08
6.36677e-09
2.57523e-09
9.91869e-10
3.32799e-10
5.87941e-11
4.02167e-07
1.75772e-06
4.03818e-06
7.86132e-06
1.42382e-05
2.48033e-05
4.21617e-05
7.03973e-05
0.00011579
0.000187782
0.0003002
0.000472663
0.000731969
0.00111306
0.00165896
0.00241898
0.00344479
0.00478462
0.0064768
0.00854447
0.010993
0.0138105
0.0169707
0.0204366
0.0241646
0.0281076
0.0322176
0.0364474
0.040752
0.0450896
0.0494223
0.0537164
0.0579425
0.0620757
0.0660954
0.0699849
0.0737308
0.0773231
0.0807547
0.0840212
0.0871205
0.090052
0.092817
0.0954175
0.0978566
0.100138
0.102265
0.104241
0.106069
0.107752
0.109291
0.110686
0.111934
0.11303
0.113966
0.114729
0.115299
0.115646
0.115741
0.115537
0.114962
0.113925
0.107783
0.0985121
0.0892255
0.0800578
0.071116
0.0624876
0.0542363
0.046422
0.0390952
0.0323005
0.0260881
0.0204972
0.0155762
0.0113666
0.00790046
0.00519024
0.00320701
0.00185886
0.0010179
0.000530961
0.00026589
0.000129022
6.12467e-05
2.85266e-05
1.30643e-05
5.89279e-06
2.62162e-06
1.15187e-06
5.00432e-07
2.15221e-07
9.17116e-08
3.87408e-08
1.62138e-08
6.70307e-09
2.71165e-09
1.04457e-09
3.50521e-10
6.19055e-11
3.9984e-07
1.74756e-06
4.0148e-06
7.81569e-06
1.41552e-05
2.46578e-05
4.19128e-05
6.99788e-05
0.000115097
0.000186652
0.000298388
0.000469811
0.000727571
0.00110644
0.00164924
0.00240512
0.00342565
0.00475903
0.00644368
0.00850293
0.0109424
0.0137505
0.0169011
0.0203575
0.0240763
0.0280106
0.0321123
0.0363344
0.040632
0.0449633
0.0492905
0.0535799
0.0578021
0.0619322
0.0659495
0.0698375
0.0735828
0.0771751
0.0806075
0.0838755
0.0869769
0.0899113
0.0926796
0.0952842
0.097728
0.100014
0.102147
0.104129
0.105964
0.107655
0.109201
0.110604
0.111859
0.112963
0.113907
0.114675
0.11525
0.115598
0.115689
0.115476
0.114886
0.113828
0.108762
0.0994747
0.0901629
0.0809615
0.0719778
0.0633001
0.0550014
0.0471405
0.0397684
0.03293
0.026661
0.0210012
0.0160105
0.0117296
0.00819063
0.00540952
0.00335204
0.00195255
0.00107404
0.000561994
0.000282088
0.000137061
6.51249e-05
3.03542e-05
1.39086e-05
6.27594e-06
2.79283e-06
1.22731e-06
5.33277e-07
2.29366e-07
9.77457e-08
4.12927e-08
1.72834e-08
7.14608e-09
2.89127e-09
1.11393e-09
3.73842e-10
6.59987e-11
3.97094e-07
1.73556e-06
3.98721e-06
7.76186e-06
1.40573e-05
2.44864e-05
4.16194e-05
6.94857e-05
0.000114281
0.000185322
0.000296256
0.000466454
0.000722396
0.00109864
0.0016378
0.00238882
0.00340313
0.0047289
0.00640466
0.00845398
0.0108828
0.0136797
0.016819
0.0202642
0.0239721
0.0278958
0.0319877
0.0362005
0.0404897
0.0448134
0.0491339
0.0534175
0.0576348
0.061761
0.0657753
0.0696612
0.0734053
0.0769973
0.0804303
0.0836997
0.0868033
0.0897407
0.0925128
0.0951218
0.0975707
0.0998629
0.102002
0.103991
0.105834
0.107533
0.109088
0.1105
0.111765
0.112878
0.11383
0.114606
0.115183
0.115526
0.115603
0.115353
0.114687
0.113489
0.109906
0.100612
0.0912797
0.0820461
0.073021
0.0642934
0.055936
0.0480099
0.0405679
0.0336593
0.0273271
0.0216044
0.0165415
0.0121845
0.00855231
0.00566753
0.00353502
0.00207207
0.00114525
0.000601515
0.000302785
0.000147351
7.0094e-05
3.26975e-05
1.49915e-05
6.76757e-06
3.01255e-06
1.32415e-06
5.75429e-07
2.47516e-07
1.05486e-07
4.4565e-08
1.86545e-08
7.7138e-09
3.12141e-09
1.20279e-09
4.0372e-10
7.12428e-11
3.93954e-07
1.72184e-06
3.95566e-06
7.70032e-06
1.39454e-05
2.42905e-05
4.12845e-05
6.89229e-05
0.00011335
0.000183805
0.000293825
0.00046263
0.000716502
0.00108977
0.00162478
0.00237026
0.00337747
0.00469457
0.0063602
0.00839817
0.0108147
0.0135989
0.0167252
0.0201576
0.0238529
0.0277646
0.0318449
0.0360471
0.0403264
0.0446413
0.0489539
0.0532305
0.0574419
0.0615632
0.0655738
0.0694569
0.0731993
0.0767906
0.0802238
0.0834944
0.0866002
0.0895406
0.0923166
0.0949304
0.0973849
0.0996835
0.10183
0.103827
0.105679
0.107387
0.108954
0.110377
0.111656
0.112783
0.113751
0.114543
0.115139
0.115501
0.115594
0.115355
0.114688
0.113461
0.111197
0.101913
0.0925723
0.0833156
0.0742541
0.0654778
0.0570609
0.0490659
0.041547
0.0345532
0.0281323
0.022334
0.0171712
0.0126919
0.00894929
0.00597836
0.003759
0.00221882
0.0012337
0.000651018
0.000328862
0.000160353
7.63849e-05
3.56675e-05
1.63648e-05
7.39121e-06
3.29126e-06
1.44695e-06
6.28865e-07
2.70514e-07
1.15289e-07
4.8707e-08
2.0389e-08
8.43171e-09
3.41233e-09
1.3151e-09
4.41487e-10