/*--------------------------------*- C++ -*----------------------------------*\
  =========                 |
  \\      /  F ield         | OpenFOAM: The Open Source CFD Toolbox
   \\    /   O peration     | Website:  https://openfoam.org
    \\  /    A nd           | Version:  8
     \\/     M anipulation  |
\*---------------------------------------------------------------------------*/
FoamFile
{
    version     2.0;
    format      ascii;
    class       volScalarField;
    location    "240/fluid";
    object      N2;
}
// * * * * * * * * * * * * * * * * * * * * * * * * * * * * * * * * * * * * * //

dimensions      [0 0 0 0 0 0 0];

internalField   nonuniform List<scalar> 
4000
(
1.97665e-06
8.63146e-06
1.97939e-05
3.84387e-05
6.94259e-05
0.000120617
0.000204583
0.000341143
0.000561047
0.000911082
0.0014608
0.00231073
0.00360125
0.00552018
0.00830571
0.0122405
0.0176327
0.0247844
0.0339504
0.0453015
0.058901
0.0747013
0.0925592
0.11226
0.133543
0.156127
0.179724
0.204055
0.228855
0.253882
0.278918
0.30377
0.328271
0.352281
0.375684
0.398387
0.420318
0.441422
0.46166
0.481008
0.499455
0.517
0.53365
0.549421
0.56433
0.578403
0.591667
0.604151
0.615888
0.62691
0.63725
0.646941
0.656016
0.664507
0.672447
0.679866
0.686795
0.693261
0.699295
0.704922
0.710057
0.714945
0.719496
0.723735
0.727684
0.731414
0.735026
0.738483
0.74179
0.744947
0.747954
0.750806
0.7535
0.756029
0.758384
0.760551
0.762525
0.764287
0.76582
0.767103
0.76812
0.768868
0.76937
0.769674
0.769842
0.769926
0.769967
0.769985
0.769994
0.769997
0.769999
0.77
0.77
0.77
0.77
0.77
0.77
0.77
0.77
0.77
2.01042e-06
8.78419e-06
2.01661e-05
3.92186e-05
7.09527e-05
0.000123482
0.000209779
0.000350281
0.000576622
0.000936777
0.00150174
0.00237355
0.00369377
0.0056505
0.00848069
0.0124637
0.0179028
0.0250935
0.0342856
0.0456471
0.0592418
0.0750264
0.0928637
0.112545
0.133817
0.156399
0.180007
0.204361
0.229194
0.254263
0.279347
0.304248
0.3288
0.35286
0.376309
0.399054
0.421022
0.442157
0.462421
0.481789
0.500251
0.517805
0.53446
0.550231
0.565136
0.579202
0.592456
0.604929
0.616651
0.627657
0.637979
0.647651
0.656707
0.665179
0.673098
0.680497
0.687404
0.693849
0.69986
0.705463
0.710557
0.715419
0.719953
0.724181
0.728109
0.731876
0.735493
0.738954
0.742264
0.745425
0.748433
0.751286
0.753979
0.756503
0.758849
0.760997
0.762949
0.764679
0.766168
0.767395
0.768345
0.769025
0.769466
0.769727
0.769868
0.769938
0.769972
0.769987
0.769994
0.769998
0.769999
0.77
0.77
0.77
0.77
0.77
0.77
0.77
0.77
0.77
2.06119e-06
9.00927e-06
2.06966e-05
4.02841e-05
7.29438e-05
0.000127045
0.000215952
0.000360675
0.000593657
0.000963938
0.00154383
0.00243686
0.003786
0.00578043
0.00865737
0.0126952
0.0181944
0.0254466
0.0346965
0.0461077
0.0597417
0.0755549
0.0934123
0.113109
0.134396
0.156997
0.180631
0.205019
0.229896
0.255016
0.280157
0.30512
0.329736
0.353858
0.377369
0.400172
0.422194
0.443376
0.463679
0.48308
0.501567
0.519139
0.535805
0.551579
0.566483
0.580541
0.593782
0.606238
0.617939
0.628921
0.639216
0.64886
0.657885
0.666324
0.674211
0.681576
0.68845
0.694862
0.70084
0.706396
0.711474
0.716312
0.720818
0.725017
0.728885
0.732655
0.736263
0.739717
0.743018
0.746167
0.749162
0.751997
0.754666
0.757161
0.75947
0.761569
0.763465
0.765128
0.76654
0.767682
0.768549
0.769155
0.769541
0.769765
0.769886
0.769946
0.769975
0.769989
0.769995
0.769998
0.769999
0.77
0.77
0.77
0.77
0.77
0.77
0.77
0.77
0.77
2.10887e-06
9.21802e-06
2.11778e-05
4.12235e-05
7.46459e-05
0.000129998
0.00022092
0.000368825
0.000606721
0.000984415
0.00157521
0.00248383
0.00385463
0.00587808
0.00879242
0.0128763
0.0184295
0.025742
0.0350559
0.0465324
0.0602306
0.0761059
0.0940231
0.113778
0.135122
0.157781
0.181474
0.205924
0.230865
0.256052
0.281261
0.306294
0.33098
0.355171
0.378747
0.401612
0.423689
0.444921
0.465267
0.484703
0.503217
0.520808
0.537486
0.553264
0.568165
0.582214
0.59544
0.607874
0.61955
0.630502
0.640765
0.650372
0.659358
0.667757
0.675602
0.682924
0.689755
0.696123
0.702056
0.707507
0.712549
0.717366
0.721845
0.726013
0.729841
0.733597
0.737191
0.740629
0.743911
0.747036
0.750002
0.752803
0.755431
0.757878
0.76013
0.762172
0.763995
0.765579
0.766906
0.767961
0.768745
0.76928
0.769613
0.769804
0.769905
0.769955
0.769979
0.769991
0.769996
0.769998
0.769999
0.77
0.77
0.77
0.77
0.77
0.77
0.77
0.77
0.77
2.15195e-06
9.40617e-06
2.16098e-05
4.20638e-05
7.61654e-05
0.000132635
0.000225374
0.000376186
0.00061865
0.00100337
0.00160473
0.00252879
0.00392145
0.00597482
0.00892845
0.0130618
0.0186744
0.0260547
0.0354429
0.0469972
0.0607745
0.0767285
0.094723
0.114554
0.135974
0.158708
0.182477
0.207003
0.232021
0.257285
0.282571
0.30768
0.332438
0.3567
0.380342
0.403268
0.425401
0.446681
0.467068
0.486537
0.505076
0.522685
0.539372
0.555152
0.570047
0.584084
0.597291
0.6097
0.621347
0.632264
0.642488
0.652053
0.660994
0.669346
0.677142
0.684415
0.691196
0.697517
0.703409
0.708766
0.713733
0.718489
0.722917
0.727042
0.730876
0.734612
0.738185
0.741598
0.744851
0.747943
0.750871
0.753627
0.756205
0.758595
0.760778
0.762754
0.7645
0.766001
0.767241
0.76821
0.768914
0.769385
0.769673
0.769835
0.76992
0.769962
0.769983
0.769992
0.769997
0.769998
0.769999
0.77
0.77
0.77
0.77
0.77
0.77
0.77
0.77
0.77
2.18995e-06
9.57186e-06
2.19892e-05
4.27993e-05
7.74907e-05
0.000134929
0.00022924
0.00038257
0.000629
0.00101986
0.00163049
0.00256825
0.00398061
0.00606142
0.00905199
0.0132331
0.018905
0.0263556
0.0358236
0.0474648
0.0613335
0.0773809
0.0954693
0.115394
0.136905
0.15973
0.183587
0.2082
0.233304
0.258651
0.284018
0.309205
0.334037
0.358368
0.382074
0.405058
0.427242
0.448566
0.46899
0.488488
0.507048
0.52467
0.541361
0.557139
0.572024
0.586044
0.599227
0.611608
0.62322
0.634098
0.644279
0.653797
0.662688
0.670986
0.678726
0.68594
0.692659
0.698914
0.704735
0.71
0.714917
0.719623
0.724
0.728049
0.731923
0.735634
0.739179
0.742561
0.74578
0.748833
0.751717
0.754424
0.756948
0.759277
0.76139
0.763294
0.764964
0.766384
0.767541
0.768429
0.769062
0.769475
0.769724
0.769861
0.769933
0.769969
0.769986
0.769993
0.769997
0.769999
0.769999
0.77
0.77
0.77
0.77
0.77
0.77
0.77
0.77
0.77
2.22426e-06
9.72156e-06
2.23322e-05
4.34653e-05
7.86933e-05
0.000137017
0.000232775
0.000388439
0.000638579
0.00103522
0.00165471
0.00260569
0.00403726
0.00614513
0.00917249
0.0134017
0.0191338
0.0266567
0.0362075
0.04794
0.0619058
0.0780536
0.0962436
0.116269
0.137881
0.160804
0.184757
0.209464
0.234657
0.260091
0.28554
0.310803
0.335708
0.360105
0.383871
0.406908
0.429139
0.450502
0.470956
0.490477
0.509053
0.526682
0.543373
0.559143
0.574014
0.588013
0.601169
0.613517
0.625091
0.635927
0.646061
0.655529
0.664367
0.672611
0.680293
0.687447
0.694104
0.700295
0.706023
0.711239
0.716222
0.720855
0.725163
0.729102
0.732952
0.736631
0.740142
0.743488
0.746668
0.749678
0.752515
0.755171
0.757637
0.759905
0.761954
0.763788
0.765383
0.766725
0.767803
0.768617
0.769185
0.76955
0.769765
0.769883
0.769944
0.769973
0.769988
0.769994
0.769998
0.769999
0.77
0.77
0.77
0.77
0.77
0.77
0.77
0.77
0.77
0.77
2.25564e-06
9.85845e-06
2.2646e-05
4.40749e-05
7.97955e-05
0.000138934
0.000236026
0.000393849
0.000647436
0.00104949
0.0016773
0.00264079
0.0040907
0.00622462
0.00928776
0.0135642
0.0193562
0.0269517
0.0365866
0.0484127
0.0624787
0.0787309
0.0970269
0.117159
0.138874
0.1619
0.185952
0.210753
0.236037
0.261556
0.287086
0.312424
0.337397
0.361856
0.385677
0.408762
0.431033
0.452428
0.472908
0.492446
0.511031
0.528662
0.545348
0.561106
0.575958
0.589932
0.603058
0.61537
0.626903
0.637695
0.647781
0.657198
0.665982
0.67417
0.681796
0.688893
0.695494
0.701629
0.707239
0.71238
0.717315
0.721905
0.726171
0.730082
0.733908
0.737558
0.741038
0.744349
0.74749
0.750459
0.753249
0.755853
0.758265
0.760472
0.762464
0.76423
0.765754
0.767024
0.76803
0.768776
0.769288
0.769611
0.769798
0.7699
0.769952
0.769977
0.76999
0.769995
0.769998
0.769999
0.77
0.77
0.77
0.77
0.77
0.77
0.77
0.77
0.77
0.77
2.28468e-06
9.98522e-06
2.29369e-05
4.46407e-05
8.08199e-05
0.000140719
0.000239061
0.000398917
0.00065576
0.00106295
0.0016987
0.0026742
0.00414178
0.00630096
0.00939896
0.0137217
0.0195726
0.0272397
0.036958
0.0488772
0.0630435
0.0794002
0.0978027
0.118041
0.139861
0.162988
0.187139
0.212033
0.237406
0.263008
0.288615
0.314024
0.33906
0.363575
0.387446
0.410573
0.432878
0.4543
0.474798
0.494348
0.512937
0.530566
0.547242
0.562984
0.577813
0.591759
0.604852
0.617126
0.628618
0.639363
0.649401
0.658767
0.667498
0.675632
0.683202
0.690245
0.696792
0.702878
0.708412
0.713499
0.718373
0.722895
0.7271
0.731005
0.734798
0.738416
0.741862
0.745138
0.748241
0.751168
0.753914
0.756471
0.758831
0.760979
0.762914
0.764618
0.766078
0.767282
0.768223
0.76891
0.769373
0.76966
0.769825
0.769914
0.769959
0.769981
0.769991
0.769996
0.769998
0.769999
0.77
0.77
0.77
0.77
0.77
0.77
0.77
0.77
0.77
0.77
2.31164e-06
1.0103e-05
2.32073e-05
4.5167e-05
8.1774e-05
0.000142384
0.000241897
0.000403661
0.000663572
0.00107561
0.00171889
0.00270581
0.00419026
0.00637364
0.00950515
0.0138726
0.0197804
0.0275171
0.0373167
0.0493267
0.0635909
0.0800499
0.0985565
0.118899
0.140821
0.164047
0.188293
0.213277
0.238735
0.264415
0.290094
0.315568
0.340662
0.365228
0.389142
0.412305
0.434638
0.456082
0.476594
0.49615
0.514739
0.53236
0.549023
0.564745
0.57955
0.593466
0.606524
0.618759
0.630209
0.640909
0.650897
0.660212
0.668891
0.67697
0.684485
0.691469
0.697958
0.703972
0.709427
0.714455
0.719282
0.723763
0.727895
0.731831
0.735599
0.739189
0.742605
0.745848
0.748915
0.751803
0.754507
0.75702
0.759333
0.761427
0.763309
0.764957
0.766359
0.767503
0.768386
0.769021
0.769443
0.769701
0.769847
0.769925
0.769964
0.769983
0.769992
0.769996
0.769998
0.769999
0.77
0.77
0.77
0.77
0.77
0.77
0.77
0.77
0.77
0.77
2.33665e-06
1.02122e-05
2.34581e-05
4.56557e-05
8.26608e-05
0.000143933
0.00024454
0.00040809
0.000670878
0.00108748
0.00173785
0.00273555
0.00423599
0.00644232
0.00960569
0.0140156
0.0199778
0.0277809
0.0376581
0.049755
0.0641129
0.0806697
0.0992759
0.119717
0.141737
0.165057
0.189392
0.214462
0.239998
0.265751
0.291496
0.317029
0.342175
0.366786
0.390738
0.413931
0.436288
0.457747
0.478268
0.497827
0.516412
0.534023
0.55067
0.566371
0.581149
0.595034
0.608057
0.620254
0.631662
0.642317
0.652259
0.661526
0.670154
0.678182
0.685644
0.692576
0.699012
0.704983
0.710368
0.715374
0.720166
0.724604
0.728649
0.732575
0.736316
0.739879
0.743266
0.746478
0.749512
0.752365
0.755031
0.757503
0.759773
0.761825
0.763659
0.765254
0.766602
0.767691
0.768523
0.769114
0.7695
0.769733
0.769864
0.769933
0.769968
0.769985
0.769993
0.769997
0.769999
0.769999
0.77
0.77
0.77
0.77
0.77
0.77
0.77
0.77
0.77
0.77
2.35966e-06
1.03127e-05
2.36891e-05
4.6106e-05
8.34785e-05
0.000145363
0.000246982
0.000412187
0.000677646
0.00109849
0.00175546
0.00276323
0.00427858
0.00650638
0.00969957
0.0141493
0.0201625
0.0280279
0.0379779
0.0501563
0.064602
0.0812504
0.0999498
0.120484
0.142594
0.166002
0.19042
0.215567
0.241176
0.266996
0.2928
0.318386
0.343578
0.368228
0.392212
0.415431
0.437806
0.459277
0.479803
0.499361
0.517939
0.535538
0.552168
0.567846
0.582598
0.596453
0.609442
0.621602
0.632969
0.643583
0.65348
0.662701
0.671282
0.679261
0.686675
0.693558
0.699945
0.705836
0.711154
0.716246
0.720973
0.725359
0.72935
0.733245
0.736957
0.740492
0.743851
0.747033
0.750036
0.752856
0.755487
0.757922
0.760153
0.762171
0.763959
0.765511
0.766809
0.76785
0.768637
0.769189
0.769546
0.769759
0.769878
0.76994
0.769972
0.769987
0.769994
0.769997
0.769999
0.769999
0.77
0.77
0.77
0.77
0.77
0.77
0.77
0.77
0.77
0.77
2.38058e-06
1.04041e-05
2.38992e-05
4.65157e-05
8.42231e-05
0.000146666
0.000249209
0.000415928
0.000683831
0.00110856
0.00177159
0.00278859
0.00431765
0.00656519
0.00978582
0.0142722
0.0203323
0.028255
0.0382719
0.0505252
0.0650516
0.0817841
0.100569
0.121187
0.143381
0.166868
0.191361
0.216579
0.242253
0.268132
0.293989
0.319622
0.344854
0.369538
0.393548
0.416788
0.439177
0.460657
0.481186
0.500741
0.51931
0.536896
0.553508
0.569165
0.583891
0.597716
0.610673
0.622798
0.634129
0.644703
0.654561
0.66374
0.672279
0.680216
0.687586
0.694427
0.70077
0.706569
0.711856
0.716927
0.721625
0.725981
0.72995
0.733823
0.737513
0.741024
0.744358
0.747514
0.750489
0.753279
0.755878
0.758278
0.760469
0.762439
0.764189
0.765706
0.766973
0.767979
0.76873
0.76925
0.769583
0.76978
0.769889
0.769946
0.769974
0.769988
0.769994
0.769998
0.769999
0.77
0.77
0.77
0.77
0.77
0.77
0.77
0.77
0.77
0.77
0.77
2.39928e-06
1.04858e-05
2.4087e-05
4.68821e-05
8.48891e-05
0.000147833
0.000251204
0.00041928
0.000689379
0.0011176
0.00178608
0.00281139
0.00435279
0.00661811
0.00986345
0.0143829
0.0204851
0.0284594
0.0385365
0.0508572
0.0654559
0.0822639
0.101125
0.12182
0.144087
0.167645
0.192205
0.217486
0.243217
0.269148
0.295051
0.320724
0.345991
0.370702
0.394736
0.417992
0.440392
0.461877
0.482407
0.501957
0.520518
0.53809
0.554685
0.570321
0.585023
0.598821
0.611749
0.623842
0.635139
0.645679
0.6555
0.664642
0.673144
0.681044
0.688378
0.695182
0.701491
0.707232
0.712479
0.717516
0.722181
0.726506
0.730466
0.73432
0.737991
0.741481
0.744793
0.747926
0.750877
0.75364
0.756211
0.758581
0.760741
0.762685
0.764401
0.765877
0.767107
0.768084
0.768805
0.7693
0.769613
0.769797
0.769898
0.76995
0.769976
0.769989
0.769995
0.769998
0.769999
0.77
0.77
0.77
0.77
0.77
0.77
0.77
0.77
0.77
0.77
0.77
2.4156e-06
1.05571e-05
2.4251e-05
4.72021e-05
8.54711e-05
0.000148852
0.000252949
0.000422214
0.000694236
0.00112552
0.00179878
0.00283138
0.00438362
0.00666454
0.00993157
0.0144799
0.0206193
0.0286388
0.0387686
0.0511482
0.0658103
0.0826841
0.101612
0.122373
0.144704
0.168323
0.192942
0.218277
0.244057
0.270032
0.295975
0.321682
0.346978
0.371713
0.395765
0.419034
0.441443
0.462932
0.483461
0.503006
0.521558
0.539117
0.555696
0.571312
0.585993
0.599766
0.612668
0.624733
0.636001
0.64651
0.656299
0.665409
0.673879
0.681745
0.689045
0.695815
0.702089
0.707808
0.713019
0.718019
0.72265
0.726942
0.7309
0.734737
0.738389
0.741861
0.745155
0.748267
0.751195
0.753936
0.756482
0.758827
0.760966
0.762888
0.76458
0.76603
0.767229
0.768171
0.768867
0.76934
0.769637
0.76981
0.769905
0.769954
0.769978
0.76999
0.769995
0.769998
0.769999
0.77
0.77
0.77
0.77
0.77
0.77
0.77
0.77
0.77
0.77
0.77
2.4294e-06
1.06175e-05
2.43897e-05
4.74729e-05
8.59637e-05
0.000149715
0.000254427
0.0004247
0.000698354
0.00113223
0.00180955
0.00284834
0.00440978
0.00670395
0.0099894
0.0145624
0.0207331
0.0287909
0.0389655
0.0513949
0.0661106
0.0830402
0.102024
0.122841
0.145226
0.168898
0.193565
0.218945
0.244766
0.270779
0.296754
0.322489
0.347809
0.372563
0.39663
0.41991
0.442325
0.463816
0.484343
0.503883
0.522426
0.539974
0.556539
0.572139
0.5868
0.600553
0.613432
0.625473
0.636715
0.647198
0.656961
0.666044
0.674486
0.682325
0.689597
0.696339
0.702585
0.708281
0.713462
0.718433
0.723033
0.727293
0.731255
0.735078
0.738716
0.742172
0.745449
0.748543
0.751454
0.754178
0.756708
0.759039
0.761158
0.763057
0.764726
0.766152
0.767327
0.768244
0.768916
0.769372
0.769656
0.769821
0.76991
0.769956
0.769979
0.76999
0.769996
0.769998
0.769999
0.77
0.77
0.77
0.77
0.77
0.77
0.77
0.77
0.77
0.77
0.77
2.44057e-06
1.06662e-05
2.45019e-05
4.76919e-05
8.63623e-05
0.000150414
0.000255623
0.000426713
0.00070169
0.00113768
0.00181828
0.00286209
0.00443099
0.00673591
0.0100363
0.0146292
0.0208254
0.0289143
0.039125
0.0515948
0.0663539
0.0833284
0.102358
0.12322
0.145649
0.169362
0.194068
0.219484
0.245339
0.271382
0.297383
0.32314
0.348478
0.373248
0.397326
0.420614
0.443034
0.464526
0.485052
0.504587
0.523123
0.540661
0.557214
0.5728
0.587445
0.601181
0.614041
0.626063
0.637285
0.647747
0.657488
0.666549
0.674968
0.682784
0.690034
0.696753
0.702976
0.708648
0.713809
0.718761
0.723343
0.727566
0.731534
0.735347
0.738974
0.74242
0.745684
0.748769
0.751668
0.754379
0.756894
0.759207
0.761309
0.76319
0.76484
0.766248
0.767402
0.768301
0.768956
0.769396
0.769671
0.769829
0.769914
0.769959
0.76998
0.769991
0.769996
0.769998
0.769999
0.77
0.77
0.77
0.77
0.77
0.77
0.77
0.77
0.77
0.77
0.77
2.449e-06
1.07031e-05
2.45866e-05
4.78573e-05
8.66632e-05
0.000150942
0.000256527
0.000428235
0.000704211
0.00114179
0.00182489
0.0028725
0.00444704
0.00676009
0.0100718
0.0146798
0.0208952
0.0290076
0.0392456
0.051746
0.0665378
0.0835464
0.102611
0.123506
0.145968
0.169713
0.194449
0.219892
0.245772
0.271837
0.297857
0.323632
0.348984
0.373764
0.397851
0.421145
0.443568
0.465061
0.485585
0.505117
0.523647
0.541178
0.557721
0.573296
0.58793
0.601652
0.614498
0.626505
0.637711
0.648157
0.657881
0.666925
0.675327
0.683126
0.690358
0.697062
0.70327
0.708925
0.714071
0.719009
0.723577
0.72777
0.731742
0.735547
0.739166
0.742604
0.745861
0.748936
0.751826
0.754526
0.75703
0.759331
0.76142
0.763288
0.764924
0.766317
0.767458
0.768343
0.768985
0.769415
0.769681
0.769835
0.769917
0.76996
0.769981
0.769991
0.769996
0.769998
0.769999
0.77
0.77
0.77
0.77
0.77
0.77
0.77
0.77
0.77
0.77
0.77
2.45463e-06
1.07277e-05
2.46432e-05
4.79677e-05
8.68641e-05
0.000151294
0.00025713
0.000429249
0.000705892
0.00114453
0.00182929
0.00287943
0.00445774
0.00677621
0.0100954
0.0147135
0.0209418
0.0290698
0.0393262
0.0518469
0.0666607
0.083692
0.102779
0.123697
0.146182
0.169948
0.194704
0.220166
0.246062
0.272142
0.298175
0.323961
0.349322
0.37411
0.398202
0.4215
0.443925
0.465419
0.485942
0.505471
0.523998
0.541523
0.55806
0.573628
0.588253
0.601966
0.614803
0.626799
0.637995
0.648429
0.658143
0.667175
0.675566
0.683354
0.690576
0.69727
0.703468
0.709109
0.714244
0.719172
0.72373
0.727904
0.73188
0.735679
0.739294
0.742727
0.745978
0.749047
0.75193
0.754623
0.75712
0.759413
0.761494
0.763353
0.76498
0.766364
0.767494
0.76837
0.769003
0.769427
0.769688
0.769838
0.76992
0.769961
0.769982
0.769991
0.769996
0.769998
0.769999
0.77
0.77
0.77
0.77
0.77
0.77
0.77
0.77
0.77
0.77
0.77
2.45742e-06
1.07398e-05
2.46711e-05
4.80219e-05
8.69624e-05
0.000151466
0.000257423
0.000429741
0.000706704
0.00114585
0.0018314
0.00288276
0.00446286
0.00678393
0.0101067
0.0147296
0.0209641
0.0290997
0.0393649
0.0518955
0.0667199
0.0837625
0.102861
0.123791
0.146286
0.170062
0.194828
0.2203
0.246205
0.272292
0.298332
0.324123
0.349489
0.374281
0.398376
0.421676
0.444103
0.465597
0.486119
0.505648
0.524172
0.541695
0.558229
0.573793
0.588414
0.602123
0.614955
0.626946
0.638137
0.648566
0.658274
0.667301
0.675687
0.683469
0.690687
0.697374
0.703567
0.7092
0.714331
0.719254
0.723807
0.727972
0.73195
0.735746
0.739358
0.742788
0.746037
0.749102
0.751982
0.754671
0.757164
0.759453
0.76153
0.763384
0.765007
0.766386
0.767512
0.768383
0.769012
0.769433
0.769692
0.76984
0.76992
0.769962
0.769982
0.769992
0.769996
0.769998
0.769999
0.77
0.77
0.77
0.77
0.77
0.77
0.77
0.77
0.77
0.77
0.77
2.45747e-06
1.07401e-05
2.46716e-05
4.80229e-05
8.69643e-05
0.000151469
0.000257429
0.00042975
0.000706719
0.00114588
0.00183144
0.00288282
0.00446296
0.00678407
0.010107
0.0147299
0.0209645
0.0291002
0.0393656
0.0518964
0.066721
0.0837638
0.102863
0.123792
0.146288
0.170064
0.194831
0.220302
0.246207
0.272294
0.298335
0.324126
0.349492
0.374283
0.398379
0.421679
0.444105
0.465599
0.486122
0.50565
0.524174
0.541697
0.558231
0.573795
0.588416
0.602125
0.614956
0.626948
0.638138
0.648567
0.658275
0.667302
0.675688
0.68347
0.690687
0.697375
0.703568
0.709201
0.714331
0.719254
0.723807
0.727972
0.73195
0.735747
0.739359
0.742788
0.746037
0.749103
0.751982
0.754672
0.757165
0.759454
0.76153
0.763385
0.765007
0.766386
0.767512
0.768383
0.769012
0.769433
0.769692
0.76984
0.76992
0.769962
0.769982
0.769992
0.769996
0.769998
0.769999
0.77
0.77
0.77
0.77
0.77
0.77
0.77
0.77
0.77
0.77
0.77
2.45478e-06
1.07284e-05
2.46447e-05
4.79707e-05
8.68696e-05
0.000151304
0.000257147
0.000429277
0.000705938
0.00114461
0.00182941
0.00287962
0.00445803
0.00677664
0.0100961
0.0147144
0.020943
0.0290715
0.0393283
0.0518496
0.0666639
0.0836959
0.102784
0.123702
0.146187
0.169953
0.19471
0.220172
0.246069
0.272149
0.298183
0.323968
0.34933
0.374117
0.39821
0.421508
0.443933
0.465426
0.485949
0.505478
0.524004
0.541529
0.558066
0.573633
0.588258
0.601971
0.614808
0.626804
0.637999
0.648433
0.658147
0.667179
0.675569
0.683357
0.69058
0.697273
0.703471
0.709111
0.714246
0.719174
0.723731
0.727905
0.731881
0.73568
0.739295
0.742728
0.745979
0.749048
0.751931
0.754624
0.757121
0.759414
0.761494
0.763353
0.76498
0.766364
0.767495
0.76837
0.769004
0.769427
0.769688
0.769838
0.76992
0.769961
0.769982
0.769991
0.769996
0.769998
0.769999
0.77
0.77
0.77
0.77
0.77
0.77
0.77
0.77
0.77
0.77
0.77
2.44927e-06
1.07043e-05
2.45893e-05
4.78626e-05
8.66729e-05
0.000150959
0.000256556
0.000428284
0.000704292
0.00114192
0.0018251
0.00287283
0.00444755
0.00676086
0.0100729
0.0146813
0.0208974
0.0290105
0.0392494
0.0517507
0.0665434
0.083553
0.102618
0.123515
0.145978
0.169723
0.19446
0.219904
0.245784
0.271849
0.29787
0.323644
0.348996
0.373777
0.397863
0.421157
0.44358
0.465073
0.485597
0.505128
0.523658
0.541188
0.557731
0.573306
0.587939
0.601661
0.614507
0.626513
0.637719
0.648164
0.657888
0.666931
0.675333
0.683131
0.690363
0.697066
0.703274
0.708929
0.714075
0.719012
0.723579
0.727772
0.731744
0.735549
0.739168
0.742606
0.745863
0.748938
0.751827
0.754527
0.757031
0.759332
0.761421
0.763289
0.764925
0.766318
0.767458
0.768343
0.768985
0.769415
0.769681
0.769835
0.769918
0.76996
0.769981
0.769991
0.769996
0.769998
0.769999
0.77
0.77
0.77
0.77
0.77
0.77
0.77
0.77
0.77
0.77
0.77
2.44095e-06
1.06679e-05
2.45058e-05
4.76995e-05
8.63761e-05
0.000150438
0.000255665
0.000426783
0.000701805
0.00113786
0.00181858
0.00286257
0.00443172
0.00673699
0.0100379
0.0146314
0.0208285
0.0289184
0.0391302
0.0516014
0.0663618
0.0833378
0.102369
0.123232
0.145662
0.169376
0.194084
0.219501
0.245356
0.271399
0.2974
0.323158
0.348496
0.373266
0.397344
0.420632
0.443051
0.464543
0.485068
0.504603
0.523139
0.540676
0.557228
0.572813
0.587458
0.601193
0.614053
0.626074
0.637295
0.647757
0.657497
0.666557
0.674976
0.682791
0.69004
0.696759
0.702981
0.708652
0.713813
0.718765
0.723347
0.727569
0.731537
0.73535
0.738978
0.742423
0.745687
0.748771
0.751671
0.754381
0.756896
0.759209
0.761311
0.763192
0.764841
0.766249
0.767403
0.768302
0.768956
0.769396
0.769671
0.769829
0.769914
0.769959
0.76998
0.769991
0.769996
0.769998
0.769999
0.77
0.77
0.77
0.77
0.77
0.77
0.77
0.77
0.77
0.77
0.77
2.42991e-06
1.06197e-05
2.43947e-05
4.74827e-05
8.59817e-05
0.000149747
0.000254481
0.000424791
0.000698504
0.00113248
0.00180994
0.00284895
0.00441072
0.00670535
0.00999144
0.0145653
0.0207371
0.0287962
0.0389723
0.0514034
0.0661208
0.0830522
0.102038
0.122856
0.145243
0.168916
0.193585
0.218965
0.244788
0.270801
0.296777
0.322512
0.347832
0.372586
0.396652
0.419932
0.442347
0.463838
0.484364
0.503904
0.522446
0.539994
0.556557
0.572156
0.586817
0.600569
0.613447
0.625487
0.636729
0.647211
0.656973
0.666056
0.674496
0.682334
0.689607
0.696348
0.702594
0.708289
0.713469
0.71844
0.72304
0.727298
0.731259
0.735082
0.73872
0.742177
0.745453
0.748546
0.751457
0.754181
0.756711
0.759041
0.76116
0.763059
0.764727
0.766154
0.767328
0.768245
0.768916
0.769372
0.769656
0.769821
0.76991
0.769957
0.769979
0.76999
0.769996
0.769998
0.769999
0.77
0.77
0.77
0.77
0.77
0.77
0.77
0.77
0.77
0.77
0.77
2.41622e-06
1.05599e-05
2.42572e-05
4.72143e-05
8.54934e-05
0.000148891
0.000253016
0.000422326
0.000694421
0.00112582
0.00179926
0.00283213
0.00438477
0.00666626
0.00993408
0.0144835
0.0206242
0.0286453
0.038777
0.0511586
0.0658229
0.0826989
0.101629
0.122392
0.144725
0.168346
0.192966
0.218302
0.244083
0.27006
0.296003
0.32171
0.347006
0.371741
0.395793
0.419062
0.44147
0.462959
0.483487
0.503031
0.521582
0.539141
0.555718
0.571334
0.586013
0.599786
0.612686
0.624751
0.636017
0.646525
0.656314
0.665424
0.673892
0.681758
0.689057
0.695827
0.702101
0.70782
0.71303
0.718028
0.722658
0.726947
0.730905
0.734742
0.738394
0.741866
0.745159
0.748271
0.751199
0.753939
0.756485
0.75883
0.760968
0.76289
0.764582
0.766032
0.76723
0.768172
0.768867
0.769341
0.769637
0.76981
0.769905
0.769954
0.769978
0.76999
0.769995
0.769998
0.769999
0.77
0.77
0.77
0.77
0.77
0.77
0.77
0.77
0.77
0.77
0.77
2.40002e-06
1.04891e-05
2.40945e-05
4.68967e-05
8.49157e-05
0.000147879
0.000251284
0.000419414
0.000689599
0.00111796
0.00178665
0.00281228
0.00435416
0.00662016
0.00986644
0.0143871
0.020491
0.0284672
0.0385465
0.0508695
0.0654709
0.0822815
0.101145
0.121842
0.144112
0.167671
0.192234
0.217516
0.243248
0.26918
0.295084
0.320757
0.346024
0.370736
0.394769
0.418025
0.440425
0.461909
0.482438
0.501987
0.520547
0.538118
0.554712
0.570346
0.585047
0.598844
0.611771
0.623863
0.635159
0.645697
0.655518
0.664659
0.67316
0.681059
0.688392
0.695195
0.701503
0.707243
0.712489
0.717525
0.722188
0.726515
0.730476
0.734328
0.737997
0.741487
0.744799
0.747931
0.750882
0.753645
0.756215
0.758584
0.760744
0.762688
0.764404
0.765879
0.767109
0.768085
0.768806
0.7693
0.769614
0.769797
0.769898
0.76995
0.769976
0.769989
0.769995
0.769998
0.769999
0.77
0.77
0.77
0.77
0.77
0.77
0.77
0.77
0.77
0.77
0.77
2.38145e-06
1.04079e-05
2.39079e-05
4.65328e-05
8.42541e-05
0.00014672
0.000249302
0.000416083
0.000684087
0.00110897
0.00177226
0.00278963
0.00431924
0.00656757
0.00978929
0.0142771
0.020339
0.028264
0.0382834
0.0505396
0.0650689
0.0818045
0.100592
0.121214
0.14341
0.166899
0.191395
0.216614
0.24229
0.26817
0.294027
0.319661
0.344893
0.369576
0.393587
0.416826
0.439215
0.460693
0.481222
0.500775
0.519344
0.536928
0.553539
0.569194
0.583919
0.597743
0.610699
0.622822
0.634152
0.644725
0.654581
0.663759
0.672297
0.680232
0.687602
0.694441
0.700783
0.706581
0.711866
0.716935
0.721632
0.725993
0.729963
0.733832
0.737521
0.741031
0.744365
0.74752
0.750495
0.753284
0.755883
0.758282
0.760473
0.762443
0.764192
0.765709
0.766975
0.76798
0.768731
0.769251
0.769584
0.769781
0.769889
0.769946
0.769974
0.769988
0.769995
0.769998
0.769999
0.77
0.77
0.77
0.77
0.77
0.77
0.77
0.77
0.77
0.77
0.77
2.36066e-06
1.03171e-05
2.36991e-05
4.61255e-05
8.3514e-05
0.000145425
0.000247088
0.000412365
0.000677939
0.00109896
0.00175622
0.00276441
0.00428039
0.00650909
0.00970353
0.0141549
0.0201702
0.0280381
0.037991
0.0501727
0.0646218
0.0812737
0.0999765
0.120514
0.142627
0.166037
0.190458
0.215607
0.241217
0.267038
0.292843
0.31843
0.343623
0.368272
0.392256
0.415474
0.437848
0.459318
0.479844
0.4994
0.517977
0.535575
0.552203
0.56788
0.58263
0.596483
0.609471
0.621629
0.632995
0.643607
0.653503
0.662723
0.671303
0.679281
0.686694
0.693577
0.699963
0.705851
0.711167
0.716258
0.720983
0.72537
0.729358
0.733252
0.736965
0.7405
0.743858
0.74704
0.750042
0.752861
0.755492
0.757927
0.760158
0.762175
0.763963
0.765514
0.766811
0.767852
0.768638
0.76919
0.769547
0.76976
0.769878
0.76994
0.769972
0.769987
0.769994
0.769997
0.769999
0.769999
0.77
0.77
0.77
0.77
0.77
0.77
0.77
0.77
0.77
0.77
2.33777e-06
1.02171e-05
2.34694e-05
4.56777e-05
8.27008e-05
0.000144003
0.000244659
0.000408289
0.000671207
0.00108801
0.0017387
0.00273688
0.00423802
0.00644537
0.00961013
0.0140219
0.0199865
0.0277924
0.0376729
0.0497735
0.0641352
0.0806959
0.0993059
0.119751
0.141774
0.165097
0.189435
0.214506
0.240044
0.265799
0.291545
0.317078
0.342225
0.366836
0.390787
0.41398
0.436336
0.457794
0.478314
0.497871
0.516454
0.534064
0.550709
0.566408
0.581185
0.595068
0.608089
0.620284
0.63169
0.642344
0.652284
0.661548
0.670175
0.678201
0.685662
0.692592
0.699026
0.704996
0.71038
0.715385
0.720177
0.724615
0.728656
0.732582
0.736325
0.739888
0.743274
0.746485
0.749519
0.752371
0.755037
0.757508
0.759778
0.761829
0.763662
0.765258
0.766604
0.767694
0.768525
0.769115
0.769501
0.769734
0.769864
0.769934
0.769968
0.769985
0.769993
0.769997
0.769999
0.769999
0.77
0.77
0.77
0.77
0.77
0.77
0.77
0.77
0.77
0.77
2.3129e-06
1.01084e-05
2.32198e-05
4.51915e-05
8.18184e-05
0.000142461
0.000242029
0.000403882
0.000663936
0.0010762
0.00171983
0.00270728
0.00419252
0.00637702
0.00951008
0.0138795
0.01979
0.0275299
0.0373331
0.0493473
0.0636158
0.0800791
0.09859
0.118936
0.140862
0.164092
0.18834
0.213327
0.238786
0.264469
0.290148
0.315622
0.340717
0.365283
0.389197
0.412359
0.434692
0.456134
0.476644
0.496199
0.514786
0.532405
0.549066
0.564787
0.579589
0.593503
0.606559
0.618793
0.63024
0.640938
0.650925
0.660238
0.668915
0.676992
0.684506
0.691489
0.697978
0.703991
0.709444
0.714471
0.719297
0.723775
0.727902
0.731837
0.735607
0.739197
0.742613
0.745855
0.748922
0.75181
0.754514
0.757026
0.759338
0.761432
0.763314
0.764961
0.766362
0.767505
0.768388
0.769023
0.769444
0.769701
0.769847
0.769925
0.769964
0.769983
0.769992
0.769997
0.769998
0.769999
0.77
0.77
0.77
0.77
0.77
0.77
0.77
0.77
0.77
0.77
2.28605e-06
9.99124e-06
2.29507e-05
4.46676e-05
8.08688e-05
0.000140804
0.000239206
0.00039916
0.000656161
0.0010636
0.00169973
0.00267582
0.00414426
0.00630467
0.00940437
0.0137294
0.0195832
0.0272538
0.0369762
0.0488999
0.0630709
0.0794324
0.0978396
0.118082
0.139907
0.163037
0.187191
0.212088
0.237463
0.263067
0.288674
0.314084
0.339121
0.363636
0.387506
0.410632
0.432936
0.454357
0.474854
0.494402
0.512989
0.530615
0.54729
0.563029
0.577856
0.5918
0.60489
0.617162
0.628652
0.639395
0.649431
0.658794
0.667524
0.675655
0.683224
0.690264
0.696809
0.702892
0.708424
0.713509
0.718382
0.722904
0.727111
0.731018
0.73481
0.738427
0.741872
0.745147
0.74825
0.751176
0.753921
0.756477
0.758837
0.760984
0.762919
0.764622
0.766082
0.767285
0.768225
0.768912
0.769374
0.769661
0.769825
0.769914
0.769959
0.769981
0.769991
0.769996
0.769998
0.769999
0.77
0.77
0.77
0.77
0.77
0.77
0.77
0.77
0.77
0.77
2.25714e-06
9.86502e-06
2.26611e-05
4.41043e-05
7.98488e-05
0.000139027
0.000236184
0.000394114
0.000647871
0.00105019
0.00167842
0.00264255
0.00409339
0.00622865
0.00929365
0.0135726
0.0193678
0.0269671
0.0366065
0.0484375
0.0625087
0.0787662
0.0970674
0.117204
0.138924
0.161953
0.186009
0.210813
0.236099
0.26162
0.287151
0.31249
0.337463
0.361922
0.385742
0.408827
0.431096
0.45249
0.472968
0.492504
0.511087
0.528716
0.5454
0.561155
0.576005
0.589976
0.6031
0.615409
0.62694
0.637729
0.647813
0.657228
0.666011
0.674196
0.68182
0.688915
0.695513
0.701646
0.707253
0.71239
0.717323
0.721914
0.726187
0.7301
0.733921
0.737569
0.741048
0.744358