/*--------------------------------*- C++ -*----------------------------------*\
  =========                 |
  \\      /  F ield         | OpenFOAM: The Open Source CFD Toolbox
   \\    /   O peration     | Website:  https://openfoam.org
    \\  /    A nd           | Version:  8
     \\/     M anipulation  |
\*---------------------------------------------------------------------------*/
FoamFile
{
    version     2.0;
    format      ascii;
    class       volScalarField;
    location    "240/fluid";
    object      O2;
}
// * * * * * * * * * * * * * * * * * * * * * * * * * * * * * * * * * * * * * //

dimensions      [0 0 0 0 0 0 0];

internalField   nonuniform List<scalar> 
4000
(
3.53695e-10
1.54409e-09
3.53868e-09
6.86436e-09
1.23775e-08
2.14544e-08
3.62784e-08
6.02597e-08
9.86276e-08
1.59228e-07
2.5353e-07
3.97771e-07
6.1406e-07
9.3105e-07
1.38362e-06
2.01094e-06
2.85242e-06
3.9419e-06
5.30122e-06
6.93508e-06
8.82907e-06
1.09512e-05
1.32562e-05
1.56906e-05
1.8198e-05
2.07228e-05
2.32133e-05
2.56229e-05
2.79119e-05
3.00475e-05
3.20045e-05
3.3767e-05
3.53308e-05
3.67089e-05
3.79409e-05
3.91046e-05
4.03304e-05
4.18128e-05
4.38237e-05
4.6719e-05
5.09477e-05
5.70646e-05
6.57539e-05
7.78611e-05
9.44392e-05
0.000116812
0.000146655
0.000186113
0.000237935
0.000305661
0.000393855
0.000508407
0.000656916
0.000849191
0.0010979
0.00141943
0.00183498
0.0023721
0.00306665
0.00396562
0.00510625
0.00661729
0.00858427
0.0111587
0.0145519
0.0263475
0.0429616
0.0596843
0.0762948
0.0926121
0.108486
0.123791
0.138418
0.152269
0.165253
0.177263
0.188245
0.198071
0.206625
0.21379
0.219473
0.223656
0.226464
0.228169
0.22911
0.229584
0.229812
0.229916
0.229964
0.229984
0.229993
0.229997
0.229999
0.23
0.23
0.23
0.23
0.23
0.23
0.23
3.64485e-10
1.59262e-09
3.65591e-09
7.1073e-09
1.2848e-08
2.23296e-08
3.78577e-08
6.30341e-08
1.03377e-07
1.67146e-07
2.66375e-07
4.18019e-07
6.45026e-07
9.76942e-07
1.44948e-06
2.10241e-06
2.97546e-06
4.10237e-06
5.50455e-06
7.18607e-06
9.13183e-06
1.1309e-05
1.36716e-05
1.61651e-05
1.8732e-05
2.13156e-05
2.3863e-05
2.63264e-05
2.8665e-05
3.08451e-05
3.28412e-05
3.46371e-05
3.62294e-05
3.76329e-05
3.88904e-05
4.00859e-05
4.13578e-05
4.2912e-05
4.50333e-05
4.80931e-05
5.25565e-05
5.89961e-05
6.81153e-05
8.0782e-05
9.80771e-05
0.00012136
0.000152359
0.000193281
0.000246966
0.000317076
0.000408333
0.000526838
0.000680466
0.000879384
0.00113671
0.00146935
0.00189911
0.00245406
0.00317033
0.00409435
0.00525567
0.00678897
0.00876736
0.0113236
0.0146209
0.0285819
0.0452694
0.0620735
0.0787603
0.0951425
0.111067
0.126405
0.141046
0.154889
0.167838
0.179747
0.190615
0.200265
0.208573
0.215424
0.220736
0.224535
0.227007
0.228466
0.229256
0.229651
0.229841
0.229929
0.229969
0.229986
0.229994
0.229998
0.229999
0.23
0.23
0.23
0.23
0.23
0.23
0.23
3.8051e-10
1.66355e-09
3.82253e-09
7.44063e-09
1.34689e-08
2.34389e-08
3.97815e-08
6.62889e-08
1.08759e-07
1.75848e-07
2.8013e-07
4.39262e-07
6.77063e-07
1.02409e-06
1.51715e-06
2.19713e-06
3.10468e-06
4.27424e-06
5.72754e-06
7.46866e-06
9.48208e-06
1.17343e-05
1.41783e-05
1.67582e-05
1.94151e-05
2.20906e-05
2.47296e-05
2.72828e-05
2.97074e-05
3.19683e-05
3.40386e-05
3.59017e-05
3.75545e-05
3.90141e-05
4.03283e-05
4.15894e-05
4.29494e-05
4.4631e-05
4.69399e-05
5.02717e-05
5.51179e-05
6.20796e-05
7.1892e-05
8.54608e-05
0.000103914
0.000128675
0.000161553
0.000204874
0.000261633
0.000335705
0.000432106
0.000557338
0.000719834
0.00093053
0.00120362
0.00155751
0.00201609
0.0026103
0.00338016
0.0043744
0.00563519
0.00729373
0.00942082
0.0121293
0.0154891
0.0320148
0.0489037
0.0658533
0.082633
0.0990592
0.114982
0.130274
0.144824
0.158528
0.171287
0.182939
0.193499
0.202775
0.210651
0.217031
0.221875
0.225263
0.227424
0.228683
0.22936
0.229699
0.229862
0.229938
0.229973
0.229988
0.229995
0.229998
0.229999
0.23
0.23
0.23
0.23
0.23
0.23
0.23
3.97112e-10
1.73633e-09
3.99075e-09
7.77044e-09
1.40702e-08
2.44914e-08
4.15738e-08
6.9276e-08
1.13644e-07
1.83698e-07
2.9252e-07
4.58469e-07
7.06278e-07
1.06764e-06
1.58069e-06
2.28772e-06
3.23075e-06
4.4454e-06
5.95424e-06
7.76169e-06
9.85211e-06
1.21914e-05
1.47313e-05
1.74145e-05
2.01803e-05
2.29681e-05
2.57207e-05
2.83866e-05
3.09207e-05
3.32861e-05
3.54544e-05
3.74081e-05
3.91444e-05
4.06828e-05
4.2077e-05
4.34301e-05
4.49102e-05
4.67611e-05
4.93145e-05
5.29955e-05
5.83273e-05
6.59453e-05
7.66232e-05
9.13119e-05
0.000111197
0.000137778
0.000172966
0.000219222
0.000279729
0.000358614
0.000461241
0.00059459
0.00076777
0.000992683
0.00128493
0.00166502
0.00216006
0.00280602
0.00365098
0.00474485
0.00617708
0.008122
0.0107127
0.0141962
0.0189664
0.0360503
0.0532625
0.070387
0.0872384
0.103658
0.119508
0.134669
0.149032
0.162496
0.174957
0.186306
0.196465
0.205298
0.2127
0.218593
0.222972
0.225965
0.227831
0.228899
0.229466
0.229749
0.229885
0.229948
0.229977
0.22999
0.229996
0.229998
0.229999
0.23
0.23
0.23
0.23
0.23
0.23
0.23
4.13562e-10
1.80832e-09
4.15662e-09
8.09469e-09
1.46602e-08
2.55238e-08
4.33353e-08
7.22238e-08
1.18495e-07
1.91551e-07
3.05023e-07
4.78023e-07
7.36281e-07
1.11274e-06
1.64698e-06
2.38288e-06
3.36402e-06
4.62737e-06
6.19647e-06
8.07624e-06
1.0251e-05
1.2686e-05
1.5332e-05
1.81303e-05
2.10182e-05
2.39329e-05
2.68151e-05
2.96107e-05
3.22724e-05
3.47609e-05
3.7046e-05
3.91091e-05
4.09477e-05
4.2584e-05
4.40788e-05
4.55479e-05
4.71782e-05
4.92377e-05
5.20885e-05
5.61888e-05
6.20968e-05
7.0486e-05
8.21719e-05
9.81561e-05
0.000119688
0.00014835
0.000186165
0.000235738
0.000300445
0.000384661
0.000494077
0.000636099
0.000820381
0.00105954
0.00137008
0.00177373
0.00229913
0.00298436
0.00388041
0.00502805
0.00653251
0.00858011
0.0113179
0.0150289
0.0238843
0.0410012
0.0582494
0.0753782
0.0921873
0.108513
0.124218
0.139183
0.153301
0.166471
0.178569
0.189554
0.199286
0.207657
0.214575
0.219986
0.223923
0.226556
0.228166
0.229074
0.229552
0.229789
0.229903
0.229956
0.229981
0.229991
0.229996
0.229998
0.229999
0.23
0.23
0.23
0.23
0.23
0.23
0.23
4.2958e-10
1.87836e-09
4.31775e-09
8.40914e-09
1.52316e-08
2.65228e-08
4.50395e-08
7.5078e-08
1.232e-07
1.99189e-07
3.1723e-07
4.97213e-07
7.65912e-07
1.1576e-06
1.71349e-06
2.47925e-06
3.50028e-06
4.81519e-06
6.44875e-06
8.40654e-06
1.06729e-05
1.32126e-05
1.59751e-05
1.89003e-05
2.19235e-05
2.49796e-05
2.80069e-05
3.09488e-05
3.37554e-05
3.63849e-05
3.88052e-05
4.09961e-05
4.29556e-05
4.47095e-05
4.63264e-05
4.79372e-05
4.97501e-05
5.20603e-05
5.52641e-05
5.98554e-05
6.64302e-05
7.57019e-05
8.85315e-05
0.000105976
0.000129355
0.000160343
0.000201085
0.00025435
0.00032372
0.000413846
0.000530765
0.000682323
0.000878714
0.00113318
0.00146293
0.00189029
0.00244416
0.0031619
0.00409155
0.00526058
0.00677271
0.00876857
0.0113198
0.0145373
0.0289339
0.0460604
0.063305
0.0803936
0.0971162
0.113306
0.128826
0.14356
0.157404
0.170259
0.181975
0.192573
0.20188
0.209799
0.216253
0.221212
0.224747
0.227061
0.22845
0.229222
0.229625
0.229823
0.229919
0.229963
0.229984
0.229993
0.229997
0.229999
0.229999
0.23
0.23
0.23
0.23
0.23
0.23
0.23
4.45316e-10
1.94717e-09
4.47612e-09
8.71843e-09
1.57943e-08
2.75084e-08
4.67248e-08
7.79093e-08
1.27884e-07
2.06826e-07
3.29494e-07
5.16588e-07
7.9598e-07
1.20337e-06
1.78168e-06
2.57854e-06
3.64135e-06
5.01056e-06
6.71237e-06
8.75323e-06
1.11177e-05
1.37701e-05
1.66589e-05
1.97223e-05
2.28937e-05
2.61058e-05
2.92943e-05
3.23999e-05
3.537e-05
3.816e-05
4.07356e-05
4.30752e-05
4.51772e-05
4.70711e-05
4.88356e-05
5.06186e-05
5.26525e-05
5.52635e-05
5.88841e-05
6.40463e-05
7.13855e-05
8.1657e-05
9.57699e-05
0.000114841
0.000140267
0.000173826
0.000217801
0.000275143
0.000349686
0.000446412
0.000571816
0.000734366
0.000945121
0.00121853
0.00157351
0.00203478
0.00263474
0.00341572
0.0044288
0.00572286
0.0074498
0.00968935
0.0125771
0.0161977
0.0333469
0.0507368
0.0680867
0.0851723
0.101812
0.117855
0.133175
0.147663
0.16122
0.17375
0.185126
0.195333
0.204222
0.211707
0.217723
0.222265
0.22544
0.227478
0.228681
0.229342
0.229683
0.229851
0.229931
0.229969
0.229986
0.229994
0.229997
0.229999
0.23
0.23
0.23
0.23
0.23
0.23
0.23
0.23
4.6081e-10
2.01493e-09
4.6321e-09
9.02315e-09
1.63489e-08
2.84808e-08
4.83899e-08
8.07114e-08
1.3253e-07
2.14421e-07
3.41727e-07
5.35983e-07
8.26203e-07
1.24958e-06
1.85087e-06
2.67979e-06
3.78595e-06
5.21186e-06
6.98539e-06
9.11408e-06
1.15829e-05
1.43559e-05
1.73805e-05
2.05937e-05
2.39268e-05
2.73103e-05
3.06772e-05
3.39655e-05
3.71196e-05
4.00923e-05
4.28464e-05
4.53591e-05
4.76294e-05
4.96915e-05
5.16354e-05
5.36286e-05
5.59306e-05
5.89018e-05
6.30133e-05
6.88364e-05
7.7047e-05
8.84431e-05
0.000103983
0.000124846
0.000152509
0.000188854
0.000236304
0.000297994
0.000378001
0.000481636
0.000615841
0.000789703
0.00101516
0.00130796
0.00168892
0.0021858
0.00283575
0.00368902
0.00479651
0.00624432
0.00824002
0.010935
0.0146266
0.0202341
0.0376903
0.0552341
0.0726261
0.0896693
0.1062
0.122079
0.13719
0.151429
0.164699
0.176909
0.187975
0.197804
0.206298
0.213377
0.21899
0.223158
0.226018
0.227821
0.228869
0.229439
0.22973
0.229873
0.229942
0.229974
0.229988
0.229995
0.229998
0.229999
0.23
0.23
0.23
0.23
0.23
0.23
0.23
0.23
4.76074e-10
2.08169e-09
4.78582e-09
9.32363e-09
1.68963e-08
2.94415e-08
5.00371e-08
8.34884e-08
1.37144e-07
2.21982e-07
3.5394e-07
5.55406e-07
8.56571e-07
1.29617e-06
1.92089e-06
2.78267e-06
3.93349e-06
5.41812e-06
7.26635e-06
9.48708e-06
1.20659e-05
1.49669e-05
1.81368e-05
2.15113e-05
2.50198e-05
2.85908e-05
3.21546e-05
3.56464e-05
3.90076e-05
4.2188e-05
4.51478e-05
4.78626e-05
5.03324e-05
5.25971e-05
5.476e-05
5.70109e-05
5.96385e-05
6.30411e-05
6.77301e-05
7.43176e-05
8.35203e-05
9.61803e-05
0.000113308
0.000136146
0.000166253
0.000205617
0.000256793
0.000323082
0.00040877
0.000519423
0.000662288
0.000846821
0.00108538
0.00139417
0.00179449
0.00231444
0.00299129
0.00387465
0.00500667
0.0064769
0.00847159
0.0111063
0.0146042
0.0247004
0.0421167
0.0596123
0.0769292
0.0938627
0.110247
0.125947
0.140845
0.154841
0.167842
0.179733
0.190486
0.199974
0.208109
0.21482
0.22007
0.223907
0.226494
0.228099
0.22902
0.229516
0.229768
0.229891
0.22995
0.229977
0.22999
0.229996
0.229998
0.229999
0.23
0.23
0.23
0.23
0.23
0.23
0.23
0.23
4.91042e-10
2.14716e-09
4.9366e-09
9.61844e-09
1.74337e-08
3.03852e-08
5.1657e-08
8.62227e-08
1.41695e-07
2.29453e-07
3.66035e-07
5.74693e-07
8.86816e-07
1.34273e-06
1.99111e-06
2.88624e-06
4.08262e-06
5.6275e-06
7.55285e-06
9.8692e-06
1.25632e-05
1.5599e-05
1.89232e-05
2.24702e-05
2.61682e-05
2.99434e-05
3.37237e-05
3.74416e-05
4.10354e-05
4.44519e-05
4.76485e-05
5.05994e-05
5.33058e-05
5.58148e-05
5.8245e-05
6.08107e-05
6.38324e-05
6.77491e-05
7.31141e-05
8.05814e-05
9.09099e-05
0.000104988
0.000123884
0.00014891
0.000181717
0.000224409
0.000279687
0.000351035
0.000442958
0.000561287
0.000713575
0.000909608
0.00116208
0.00148744
0.00190706
0.00244869
0.00314835
0.00405076
0.00519182
0.00665796
0.00861872
0.011161
0.0144431
0.0288375
0.0461908
0.0636181
0.0808454
0.0976612
0.113898
0.129421
0.144116
0.157885
0.170635
0.182237
0.1927
0.201874
0.209681
0.216057
0.220984
0.22453
0.226885
0.228325
0.229142
0.229578
0.229798
0.229905
0.229956
0.22998
0.229991
0.229996
0.229998
0.229999
0.23
0.23
0.23
0.23
0.23
0.23
0.23
0.23
5.05601e-10
2.21085e-09
5.08328e-09
9.9053e-09
1.79568e-08
3.13045e-08
5.32363e-08
8.88917e-08
1.46144e-07
2.3677e-07
3.77905e-07
5.93664e-07
9.16646e-07
1.38879e-06
2.06082e-06
2.98942e-06
4.23178e-06
5.83782e-06
7.84195e-06
1.02567e-05
1.30699e-05
1.62466e-05
1.97333e-05
2.34637e-05
2.73649e-05
3.13613e-05
3.53787e-05
3.93467e-05
4.3201e-05
4.68851e-05
5.03538e-05
5.35799e-05
5.65663e-05
5.93686e-05
6.21232e-05
6.5071e-05
6.85645e-05
7.3087e-05
7.92334e-05
8.76996e-05
9.92878e-05
0.000114938
0.000135778
0.000163205
0.000198976
0.000245331
0.000305154
0.000382161
0.000481159
0.000608365
0.000771831
0.000981985
0.00125233
0.00160037
0.00204874
0.00262671
0.00337209
0.00433256
0.00553793
0.00708967
0.00914193
0.0117663
0.0150558
0.0321671
0.0496336
0.0670902
0.0842827
0.101014
0.117126
0.132491
0.147001
0.160562
0.173086
0.184455
0.194652
0.203535
0.211039
0.217113
0.221752
0.225047
0.227205
0.228507
0.229239
0.229627
0.229822
0.229917
0.229962
0.229983
0.229992
0.229997
0.229999
0.229999
0.23
0.23
0.23
0.23
0.23
0.23
0.23
0.23
5.19594e-10
2.27205e-09
5.22427e-09
1.01811e-08
1.84598e-08
3.2189e-08
5.47569e-08
9.14641e-08
1.50436e-07
2.43841e-07
3.89399e-07
6.12077e-07
9.45674e-07
1.43374e-06
2.12907e-06
3.09084e-06
4.379e-06
6.04634e-06
8.12996e-06
1.06447e-05
1.35801e-05
1.69024e-05
2.05585e-05
2.44822e-05
2.85995e-05
3.28337e-05
3.71089e-05
4.13522e-05
4.54967e-05
4.94828e-05
5.32629e-05
5.68083e-05
6.01246e-05
6.32769e-05
6.64217e-05
6.98273e-05
7.38799e-05
7.91047e-05
8.61371e-05
9.57124e-05
0.000108676
0.000126018
0.000148933
0.000178904
0.0002178
0.000268013
0.000332623
0.000415609
0.000522127
0.000658872
0.000834544
0.00106048
0.00135145
0.00172681
0.00221185
0.00283985
0.00365456
0.00470828
0.00604394
0.00784129
0.0101932
0.0132767
0.0172481
0.0348524
0.0525513
0.0700974
0.0872871
0.103952
0.119954
0.135176
0.149516
0.162887
0.175205
0.186389
0.196336
0.20497
0.2122
0.218002
0.22239
0.22547
0.227463
0.228654
0.229317
0.229666
0.229841
0.229926
0.229966
0.229985
0.229993
0.229997
0.229999
0.229999
0.23
0.23
0.23
0.23
0.23
0.23
0.23
0.23
5.32835e-10
2.32997e-09
5.35767e-09
1.0442e-08
1.89359e-08
3.30265e-08
5.61978e-08
9.39038e-08
1.54513e-07
2.50566e-07
4.00349e-07
6.29656e-07
9.73457e-07
1.4769e-06
2.19482e-06
3.1889e-06
4.52195e-06
6.24975e-06
8.41234e-06
1.10272e-05
1.40861e-05
1.75568e-05
2.13874e-05
2.5512e-05
2.98568e-05
3.43442e-05
3.8897e-05
4.34408e-05
4.79062e-05
5.22313e-05
5.63658e-05
6.02804e-05
6.39838e-05
6.7552e-05
7.11631e-05
7.51127e-05
7.98192e-05
8.5845e-05
9.38617e-05
0.00010464
0.000119063
0.000138169
0.000163215
0.000195762
0.000237783
0.000291806
0.000361081
0.000449815
0.000563463
0.000709115
0.00089601
0.00113622
0.00144557
0.00184486
0.00236157
0.00303214
0.00390517
0.00503123
0.00648462
0.00846376
0.0110872
0.0145947
0.0198086
0.0375152
0.0552636
0.0728076
0.0899506
0.106532
0.122421
0.137503
0.151681
0.164864
0.176966
0.187893
0.197623
0.206065
0.21312
0.218722
0.222908
0.225813
0.227672
0.228771
0.229379
0.229697
0.229856
0.229933
0.229969
0.229986
0.229994
0.229997
0.229999
0.229999
0.23
0.23
0.23
0.23
0.23
0.23
0.23
0.23
5.45115e-10
2.38368e-09
5.48138e-09
1.06841e-08
1.93776e-08
3.38037e-08
5.75355e-08
9.61705e-08
1.58304e-07
2.56829e-07
4.10565e-07
6.46091e-07
9.99498e-07
1.51746e-06
2.25683e-06
3.28176e-06
4.6579e-06
6.44415e-06
8.68367e-06
1.13969e-05
1.45782e-05
1.81975e-05
2.22046e-05
2.65349e-05
3.11151e-05
3.5868e-05
4.0716e-05
4.55837e-05
5.04004e-05
5.51022e-05
5.96375e-05
6.39764e-05
6.81321e-05
7.21934e-05
7.63604e-05
8.09522e-05
8.6415e-05
9.33424e-05
0.000102435
0.000114492
0.000130431
0.00015133
0.000178497
0.000213556
0.000258561
0.000316134
0.000389642
0.000483428
0.000603109
0.000755965
0.00095145
0.00120188
0.00152334
0.00193689
0.00247022
0.00315991
0.00405445
0.00519735
0.00666775
0.00865829
0.0112749
0.0147348
0.0222731
0.0399895
0.0577176
0.0752143
0.0922857
0.108774
0.124549
0.1395
0.153532
0.166555
0.178489
0.189272
0.198813
0.207025
0.213872
0.21931
0.223331
0.226091
0.227839
0.228865
0.229429
0.229722
0.229868
0.229938
0.229972
0.229987
0.229994
0.229997
0.229999
0.23
0.23
0.23
0.23
0.23
0.23
0.23
0.23
0.23
5.56214e-10
2.43222e-09
5.59318e-09
1.09028e-08
1.97767e-08
3.45063e-08
5.87454e-08
9.8222e-08
1.61738e-07
2.6251e-07
4.19846e-07
6.61052e-07
1.02326e-06
1.55459e-06
2.31378e-06
3.36736e-06
4.78379e-06
6.62506e-06
8.93756e-06
1.17449e-05
1.50444e-05
1.88088e-05
2.29902e-05
2.75259e-05
3.23444e-05
3.73697e-05
4.2525e-05
4.77355e-05
5.293e-05
5.80445e-05
6.30268e-05
6.78487e-05
7.25293e-05
7.7172e-05
8.19983e-05
8.73434e-05
9.36737e-05
0.000101607
0.000111866
0.000125272
0.000142773
0.000165479
0.000194742
0.000232237
0.000280074
0.000340936
0.000418255
0.000516437
0.000641147
0.000799688
0.00100148
0.00125872
0.00158717
0.00200729
0.00254566
0.00323687
0.00412598
0.00525368
0.00668473
0.00859705
0.0110696
0.0142728
0.0244606
0.0421546
0.0598367
0.0772687
0.09426
0.110653
0.126316
0.141145
0.155045
0.167934
0.179748
0.190413
0.199817
0.207885
0.214555
0.219798
0.223677
0.226317
0.227974
0.22894
0.229468
0.229741
0.229877
0.229943
0.229974
0.229988
0.229995
0.229998
0.229999
0.23
0.23
0.23
0.23
0.23
0.23
0.23
0.23
0.23
5.65911e-10
2.47463e-09
5.69084e-09
1.10938e-08
2.01254e-08
3.51201e-08
5.98027e-08
1.00016e-07
1.64744e-07
2.67487e-07
4.27988e-07
6.74201e-07
1.04419e-06
1.58738e-06
2.36424e-06
3.4435e-06
4.89625e-06
6.78748e-06
9.16678e-06
1.2061e-05
1.54708e-05
1.93718e-05
2.37192e-05
2.84531e-05
3.35047e-05
3.88003e-05
4.42656e-05
4.98276e-05
5.54171e-05
6.09717e-05
6.64414e-05
7.1802e-05
7.70816e-05
8.24009e-05
8.79994e-05
9.42154e-05
0.000101527
0.000110567
0.000122075
0.000136894
0.000155996
0.000180526
0.000211873
0.000251756
0.000302332
0.000366331
0.000447232
0.000549476
0.00067875
0.000842349
0.00104964
0.00131268
0.00164699
0.0020726
0.00261542
0.00330896
0.00419671
0.00531833
0.00673387
0.00861951
0.0110524
0.0142047
0.0263234
0.0439813
0.0616124
0.0789781
0.0958895
0.112189
0.127763
0.142503
0.156317
0.169124
0.180831
0.191366
0.200638
0.208571
0.215104
0.220213
0.223952
0.226494
0.22808
0.228998
0.229498
0.229757
0.229884
0.229946
0.229975
0.229989
0.229995
0.229998
0.229999
0.23
0.23
0.23
0.23
0.23
0.23
0.23
0.23
0.23
5.73989e-10
2.50996e-09
5.7722e-09
1.1253e-08
2.04159e-08
3.56314e-08
6.06836e-08
1.01511e-07
1.6725e-07
2.7164e-07
4.34791e-07
6.85204e-07
1.06174e-06
1.61494e-06
2.40678e-06
3.50792e-06
4.9918e-06
6.92612e-06
9.36346e-06
1.23338e-05
1.58411e-05
1.98643e-05
2.43618e-05
2.92772e-05
3.4545e-05
4.00954e-05
4.58576e-05
5.17626e-05
5.77455e-05
6.37485e-05
6.97272e-05
7.56657e-05
8.16059e-05
8.76896e-05
9.41676e-05
0.000101362
0.000109751
0.000119978
0.000132796
0.000149067
0.000169791
0.000196148
0.000229566
0.000271809
0.000325079
0.000392156
0.000476563
0.000582782
0.000716531
0.000885121
0.00109791
0.00136691
0.00170754
0.00213964
0.00268882
0.00338822
0.00428104
0.005406
0.006824
0.00871144
0.0111464
0.0142906
0.027754
0.0454146
0.0630245
0.0803512
0.0972082
0.113458
0.128968
0.143634
0.157364
0.170074
0.181682
0.192115
0.201282
0.209107
0.21553
0.220533
0.224176
0.226631
0.228161
0.229043
0.229522
0.229768
0.22989
0.229949
0.229977
0.229989
0.229995
0.229998
0.229999
0.23
0.23
0.23
0.23
0.23
0.23
0.23
0.23
0.23
5.80252e-10
2.53734e-09
5.83527e-09
1.13764e-08
2.0641e-08
3.60277e-08
6.13665e-08
1.0267e-07
1.69193e-07
2.74863e-07
4.40074e-07
6.93759e-07
1.07541e-06
1.63645e-06
2.44006e-06
3.55846e-06
5.06703e-06
7.03573e-06
9.5197e-06
1.25517e-05
1.61386e-05
2.02624e-05
2.4885e-05
2.99533e-05
3.54057e-05
4.11767e-05
4.72003e-05
5.34129e-05
5.97559e-05
6.61792e-05
7.26482e-05
7.91606e-05
8.57791e-05
9.26722e-05
0.000100094
0.000108329
0.000117843
0.00012928
0.000143405
0.000161103
0.000183402
0.000211521
0.000246932
0.000291445
0.000347314
0.00041737
0.000505189
0.000615305
0.000753483
0.00092707
0.00114544
0.00142059
0.00176789
0.00220707
0.00276362
0.0034705
0.00437045
0.00550043
0.00692035
0.00880358
0.0112221
0.0143159
0.0287635
0.0464597
0.0640687
0.0813743
0.0982034
0.114407
0.129864
0.14447
0.158136
0.170776
0.182312
0.19267
0.201758
0.209501
0.215843
0.220766
0.224339
0.226736
0.22822
0.229076
0.229539
0.229777
0.229894
0.229951
0.229977
0.22999
0.229995
0.229998
0.229999
0.23
0.23
0.23
0.23
0.23
0.23
0.23
0.23
0.23
5.84524e-10
2.55603e-09
5.87831e-09
1.14605e-08
2.07946e-08
3.62981e-08
6.18321e-08
1.0346e-07
1.70518e-07
2.77058e-07
4.43672e-07
6.99588e-07
1.08473e-06
1.65113e-06
2.46282e-06
3.5931e-06
5.11875e-06
7.11135e-06
9.62792e-06
1.27033e-05
1.63467e-05
2.05425e-05
2.52553e-05
3.0435e-05
3.60236e-05
4.19592e-05
4.81805e-05
5.46296e-05
6.12545e-05
6.80137e-05
7.48838e-05
8.18785e-05
8.90833e-05
9.66897e-05
0.000104974
0.000114256
0.000124854
0.000137415
0.000152719
0.000171679
0.000195357
0.000225011
0.000262157
0.000308652
0.0003668
0.000439485
0.000530341
0.000643961
0.000786169
0.000964372
0.001188
0.00146911
0.0018231
0.00226978
0.00283453
0.00355005
0.00445844
0.00559518
0.00702075
0.00890694
0.0113232
0.0144004
0.0294539
0.0471706
0.0647807
0.0820738
0.0988763
0.115046
0.130465
0.145029
0.15865
0.171244
0.182731
0.193038
0.202073
0.209762
0.216049
0.22092
0.224445
0.226804
0.228261
0.229098
0.22955
0.229782
0.229897
0.229952
0.229978
0.22999
0.229996
0.229998
0.229999
0.23
0.23
0.23
0.23
0.23
0.23
0.23
0.23
0.23
5.8666e-10
2.56536e-09
5.89976e-09
1.15024e-08
2.08708e-08
3.64318e-08
6.20618e-08
1.03848e-07
1.71167e-07
2.78131e-07
4.45427e-07
7.02424e-07
1.08925e-06
1.65825e-06
2.47386e-06
3.60993e-06
5.14391e-06
7.14824e-06
9.68092e-06
1.27779e-05
1.64495e-05
2.06817e-05
2.54404e-05
3.06774e-05
3.63365e-05
4.23584e-05
4.86845e-05
5.52603e-05
6.20384e-05
6.89829e-05
7.6078e-05
8.33482e-05
9.08921e-05
9.89171e-05
0.000107743
0.000117736
0.000129227
0.000142612
0.000158728
0.000178528
0.000203111
0.000233768
0.00027205
0.00031985
0.000379509
0.000453955
0.000546868
0.000662892
0.000807911
0.000989394
0.00121684
0.00150237
0.00186145
0.00231387
0.00288501
0.00360747
0.00452326
0.00566659
0.00709844
0.00898884
0.0114041
0.0144671
0.0298129
0.0475456
0.0651553
0.0824372
0.0992231
0.115373
0.13077
0.145311
0.158908
0.171477
0.182938
0.193219
0.202227
0.209889
0.216149
0.220994
0.224496
0.226836
0.22828
0.229109
0.229556
0.229785
0.229898
0.229953
0.229978
0.22999
0.229996
0.229998
0.229999
0.23
0.23
0.23
0.23
0.23
0.23
0.23
0.23
0.23
5.86644e-10
2.5653e-09
5.89963e-09
1.15022e-08
2.08706e-08
3.64317e-08
6.2062e-08
1.0385e-07
1.7117e-07
2.78139e-07
4.45442e-07
7.02452e-07
1.0893e-06
1.65834e-06
2.47399e-06
3.61013e-06
5.1442e-06
7.14866e-06
9.68148e-06
1.27786e-05
1.64504e-05
2.06828e-05
2.54417e-05
3.06788e-05
3.6338e-05
4.236e-05
4.8686e-05
5.52618e-05
6.20398e-05
6.8984e-05
7.60788e-05
8.33485e-05
9.08919e-05
9.89164e-05
0.000107742
0.000117734
0.000129224
0.000142608
0.000158722
0.00017852
0.000203101
0.000233755
0.000272033
0.000319827
0.000379479
0.000453917
0.000546818
0.000662828
0.000807829
0.000989291
0.00121671
0.00150221
0.00186126
0.00231364
0.00288474
0.00360717
0.00452294
0.00566627
0.0070982
0.00898876
0.0114042
0.0144671
0.0298145
0.0475474
0.0651571
0.082439
0.0992248
0.115375
0.130771
0.145313
0.158909
0.171478
0.182939
0.19322
0.202228
0.20989
0.216149
0.220994
0.224496
0.226837
0.228281
0.229109
0.229556
0.229785
0.229898
0.229953
0.229978
0.22999
0.229996
0.229998
0.229999
0.23
0.23
0.23
0.23
0.23
0.23
0.23
0.23
0.23
5.84479e-10
2.55584e-09
5.87794e-09
1.146e-08
2.0794e-08
3.62977e-08
6.18328e-08
1.03463e-07
1.70527e-07
2.77079e-07
4.43714e-07
6.99667e-07
1.08487e-06
1.65136e-06
2.46319e-06
3.59368e-06
5.1196e-06
7.11255e-06
9.62954e-06
1.27054e-05
1.63493e-05
2.05457e-05
2.52589e-05
3.04392e-05
3.60281e-05
4.19639e-05
4.81853e-05
5.46342e-05
6.12588e-05
6.80173e-05
7.48866e-05
8.18801e-05
8.90835e-05
9.66883e-05
0.000104971
0.00011425
0.000124845
0.000137403
0.000152703
0.000171657
0.000195328
0.000224974
0.00026211
0.000308592
0.000366723
0.000439389
0.000530221
0.000643812
0.000785988
0.000964156
0.00118775
0.00146883
0.00182282
0.00226952
0.00283435
0.0035499
0.00445842
0.00559536
0.0070213
0.00890791
0.0113244
0.0144008
0.0294589
0.0471757
0.0647857
0.0820785
0.0988808
0.115051
0.130469
0.145033
0.158654
0.171247
0.182734
0.193041
0.202076
0.209764
0.216051
0.220921
0.224446
0.226805
0.228262
0.229098
0.22955
0.229782
0.229897
0.229952
0.229978
0.22999
0.229996
0.229998
0.229999
0.23
0.23
0.23
0.23
0.23
0.23
0.23
0.23
0.23
5.80176e-10
2.53703e-09
5.83465e-09
1.13754e-08
2.06399e-08
3.60271e-08
6.13676e-08
1.02676e-07
1.69209e-07
2.74898e-07
4.40145e-07
6.93893e-07
1.07565e-06
1.63685e-06
2.4407e-06
3.55944e-06
5.06847e-06
7.03777e-06
9.52247e-06
1.25553e-05
1.61431e-05
2.02679e-05
2.48914e-05
2.99606e-05
3.54138e-05
4.11853e-05
4.72092e-05
5.34219e-05
5.97646e-05
6.61873e-05
7.26552e-05
7.91661e-05
8.57828e-05
9.26738e-05
0.000100093
0.000108325
0.000117836
0.000129269
0.000143389
0.00016108
0.000183372
0.000211482
0.000246881
0.000291379
0.000347229
0.00041726
0.00050505
0.00061513
0.000753266
0.000926803
0.00114512
0.0014202
0.00176742
0.00220651
0.00276297
0.0034699
0.00436994
0.00550006
0.00692035
0.00880416
0.0112233
0.014317
0.0287733
0.0464695
0.0640783
0.0813835
0.0982121
0.114415
0.129871
0.144477
0.158142
0.170782
0.182318
0.192675
0.201762
0.209505
0.215846
0.220769
0.224341
0.226737
0.228221
0.229076
0.229539
0.229777
0.229894
0.229951
0.229977
0.22999
0.229995
0.229998
0.229999
0.23
0.23
0.23
0.23
0.23
0.23
0.23
0.23
0.23
5.73878e-10
2.5095e-09
5.77128e-09
1.12516e-08
2.04141e-08
3.56299e-08
6.0684e-08
1.01517e-07
1.67268e-07
2.71682e-07
4.34878e-07
6.85372e-07
1.06204e-06
1.61545e-06
2.4076e-06
3.50918e-06
4.99367e-06
6.92877e-06
9.36707e-06
1.23385e-05
1.58471e-05
1.98715e-05
2.43703e-05
2.92869e-05
3.45558e-05
4.0107e-05
4.58697e-05
5.1775e-05
5.77577e-05
6.37601e-05
6.97378e-05
7.56748e-05
8.16132e-05
8.76947e-05
9.41703e-05
0.000101362
0.000109748
0.000119972
0.000132786
0.000149053
0.000169771
0.00019612
0.000229528
0.000271758
0.000325011
0.000392064
0.000476439
0.000582615
0.000716308
0.000884823
0.00109751
0.00136639
0.00170686
0.00213877
0.00268774
0.00338695
0.00427966
0.00540465
0.00682305
0.00871137
0.0111476
0.0142922
0.0277688
0.0454303
0.0630399
0.0803655
0.0972219
0.11347
0.128979
0.143644
0.157373
0.170082
0.18169
0.192122
0.201289
0.209112
0.215534
0.220536
0.224178
0.226632
0.228161
0.229044
0.229522
0.229768
0.22989
0.229949
0.229977
0.229989
0.229995
0.229998
0.229999
0.23
0.23
0.23
0.23
0.23
0.23
0.23
0.23
0.23
5.65758e-10
2.474e-09
5.68955e-09
1.10918e-08
2.01226e-08
3.51172e-08
5.98014e-08
1.0002e-07
1.64761e-07
2.67531e-07
4.28083e-07
6.74388e-07
1.04453e-06
1.58796e-06
2.36519e-06
3.44498e-06
4.89846e-06
6.79063e-06
9.17108e-06
1.20666e-05
1.54779e-05
1.93805e-05
2.37295e-05
2.8465e-05
3.35179e-05
3.88146e-05
4.42807e-05
4.98431e-05
5.54327e-05
6.0987e-05
6.6456e-05
7.18155e-05
7.70936e-05
8.24113e-05
8.80082e-05
9.42227e-05
0.000101532
0.000110572
0.000122079
0.000136898
0.000155999
0.000180529
0.000211875
0.000251756
0.000302327
0.00036632
0.000447209
0.000549436
0.000678684
0.000842247
0.00104949
0.00131247
0.0016467
0.00207225
0.00261504
0.00330861
0.00419651
0.00531844
0.00673459
0.00862098
0.0110542
0.0142045
0.026341
0.0440008
0.0616326
0.0789984
0.0959084
0.112206
0.127778
0.142517
0.15633
0.169136
0.180842
0.191375
0.200647
0.208578
0.21511
0.220217
0.223955
0.226496
0.228081
0.228999
0.229499
0.229757
0.229884
0.229946
0.229975
0.229989
0.229995
0.229998
0.229999
0.23
0.23
0.23
0.23
0.23
0.23
0.23
0.23
0.23
5.56016e-10
2.43139e-09
5.59146e-09
1.08999e-08
1.97727e-08
3.45014e-08
5.87413e-08
9.82225e-08
1.61751e-07
2.62551e-07
4.1994e-07
6.61244e-07
1.02362e-06
1.55521e-06
2.31481e-06
3.36898e-06
4.78622e-06
6.62855e-06
8.94237e-06
1.17512e-05
1.50525e-05
1.88187e-05
2.30019e-05
2.75394e-05
3.23595e-05
3.73862e-05
4.25426e-05
4.77537e-05
5.29486e-05
5.8063e-05
6.3045e-05
6.78662e-05
7.25458e-05
7.71877e-05
8.20134e-05
8.73583e-05
9.36893e-05
0.000101624
0.000111886
0.000125298
0.000142805
0.00016552
0.000194795
0.000232304
0.000280158
0.000341042
0.000418388
0.000516604
0.000641356
0.000799949
0.00100181
0.00125914
0.0015877
0.00200798
0.00254655
0.00323801
0.00412739
0.00525532
0.00668625
0.00859765
0.0110674
0.0142648
0.024487
0.0421801
0.0598614
0.0772922
0.0942821
0.110673
0.126335
0.141162
0.15506
0.167949
0.179762
0.190425
0.199828
0.207894
0.214562
0.219803
0.223681
0.226319
0.227975
0.22894
0.229468
0.229741
0.229877
0.229943
0.229974
0.229988
0.229995
0.229998
0.229999
0.23
0.23
0.23
0.23
0.23
0.23
0.23
0.23
0.23
5.44866e-10
2.38263e-09
5.47916e-09
1.06803e-08
1.9372e-08
3.37964e-08
5.75277e-08
9.61657e-08
1.58309e-07
2.5686e-07
4.10648e-07
6.46272e-07
9.99848e-07
1.51809e-06
2.25789e-06
3.28343e-06
4.66044e-06
6.44782e-06
8.68876e-06
1.14036e-05
1.45868e-05
1.82081e-05
2.22172e-05
2.65494e-05
3.11314e-05
3.58858e-05
4.07351e-05
4.56037e-05
5.04209e-05
5.51229e-05
5.9658e-05
6.39965e-05
6.81517e-05
7.22127e-05
7.63798e-05
8.09727e-05
8.64379e-05
9.33696e-05
0.000102469
0.000114536
0.000130488
0.000151405
0.000178595
0.000213686
0.000258732
0.000316358
0.000389933
0.000483806
0.000603595
0.000756583
0.000952226
0.00120284
0.00152449
0.00193821
0.00247166
0.0031613
0.00405549
0.00519763
0.00666636
0.00865437
0.0112682
0.0147275
0.022315
0.0400244
0.0577484
0.0752425
0.092312
0.108799
0.124572
0.139522
0.153553
0.166574
0.178506
0.189288
0.198827
0.207036
0.21388
0.219317
0.223336
0.226094
0.227841
0.228866
0.229429
0.229722
0.229868
0.229938
0.229972
0.229987
0.229994
0.229998
0.229999
0.23
0.23
0.23
0.23
0.23
0.23
0.23
0.23
0.23
5.32532e-10
2.32869e-09
5.35493e-09
1.04373e-08
1.89286e-08
3.30164e-08
5.61856e-08
9.3892e-08
1.54508e-07
2.50582e-07
4.00412e-07
6.2981e-07
9.73773e-07
1.47748e-06
2.19583e-06
3.19054e-06
4.52446e-06
6.25342e-06
8.41745e-06
1.1034e-05
1.40948e-05
1.75676e-05
2.14003e-05
2.55269e-05
2.98735e-05
3.43625e-05
3.89166e-05
4.34613e-05
4.79272e-05
5.22524e-05
5.63867e-05
6.03008e-05
6.40036e-05
6.75714e-05
7.11827e-05
7.51333e-05
7.98424e-05
8.58728e-05
9.38967e-05
0.000104685
0.000119123
0.000138249
0.000163322
0.000195905
0.000237974
0.000292059
0.000361415
0.000450255
0.000564037
0.000709856
0.000896954
0.0011374
0.001447
0.00184654
0.00236344
0.00303406
0.0039069
0.0050324
0.00648498
0.00846391
0.0110902
0.01461
0.0198552
0.037554
0.0552986
0.0728401
0.0899814
0.106562
0.122449
0.13753
0.151706
0.164888
0.176988
0.187913
0.19764
0.20608
0.213132
0.218731
0.222914
0.225817
0.227674
0.228772
0.22938
0.229698
0.229856
0.229933
0.229969
0.229986
0.229994
0.229997
0.229999
0.229999
0.23
0.23
0.23
0.23
0.23
0.23
0.23
0.23
5.19238e-10
2.27054e-09
5.221e-09
1.01753e-08
1.84506e-08
3.21758e-08
5.47396e-08
9.14442e-08
1.50419e-07
2.43838e-07
3.89433e-07
6.12189e-07
9.45932e-07
1.43425e-06
2.12998e-06
3.09235e-06
4.38136e-06
6.04981e-06
8.13484e-06
1.06512e-05
1.35886e-05
1.69129e-05
2.0571e-05
2.44966e-05