/*--------------------------------*- C++ -*----------------------------------*\
  =========                 |
  \\      /  F ield         | OpenFOAM: The Open Source CFD Toolbox
   \\    /   O peration     | Website:  https://openfoam.org
    \\  /    A nd           | Version:  8
     \\/     M anipulation  |
\*---------------------------------------------------------------------------*/
FoamFile
{
    version     2.0;
    format      ascii;
    class       surfaceScalarField;
    location    "240/fluid";
    object      phi;
}
// * * * * * * * * * * * * * * * * * * * * * * * * * * * * * * * * * * * * * //

dimensions      [1 0 -1 0 0 0 0];

internalField   nonuniform List<scalar> 
7860
(
6.57456e-07
-1.70644e-08
6.55179e-07
-5.12339e-08
6.51939e-07
-8.52902e-08
6.47644e-07
-1.19125e-07
6.42181e-07
-1.52726e-07
6.35415e-07
-1.86055e-07
6.2719e-07
-2.19052e-07
6.17335e-07
-2.51622e-07
6.05675e-07
-2.83632e-07
5.92035e-07
-3.14901e-07
5.76252e-07
-3.45189e-07
5.5819e-07
-3.74183e-07
5.37768e-07
-4.01483e-07
5.14998e-07
-4.26595e-07
4.90098e-07
-4.48943e-07
4.63329e-07
-4.67868e-07
4.35035e-07
-4.82737e-07
4.0565e-07
-4.93077e-07
3.75669e-07
-4.98712e-07
3.45594e-07
-4.99836e-07
3.15876e-07
-4.9699e-07
2.8688e-07
-4.90939e-07
2.58864e-07
-4.82515e-07
2.31995e-07
-4.72481e-07
2.06393e-07
-4.61451e-07
1.82102e-07
-4.49867e-07
1.59091e-07
-4.38023e-07
1.37298e-07
-4.26109e-07
1.16649e-07
-4.14239e-07
9.70682e-08
-4.02486e-07
7.84847e-08
-3.90898e-07
6.08322e-08
-3.79509e-07
4.40503e-08
-3.68354e-07
2.80835e-08
-3.57463e-07
1.28799e-08
-3.46873e-07
-1.60872e-09
-3.36618e-07
-1.54202e-08
-3.26728e-07
-2.85899e-08
-3.17195e-07
-4.1158e-08
-3.08034e-07
-5.31622e-08
-2.9927e-07
-6.4638e-08
-2.90926e-07
-7.56191e-08
-2.83015e-07
-8.61375e-08
-2.75549e-07
-9.62231e-08
-2.68536e-07
-1.05904e-07
-2.61979e-07
-1.15208e-07
-2.55876e-07
-1.24158e-07
-2.50225e-07
-1.32779e-07
-2.45018e-07
-1.41089e-07
-2.40249e-07
-1.49111e-07
-2.35905e-07
-1.56859e-07
-2.31976e-07
-1.64351e-07
-2.28447e-07
-1.71602e-07
-2.25307e-07
-1.78623e-07
-2.22542e-07
-1.85428e-07
-2.2014e-07
-1.92028e-07
-2.18092e-07
-1.98436e-07
-2.16391e-07
-2.04666e-07
-2.15038e-07
-2.10735e-07
-2.14038e-07
-2.16669e-07
-2.13407e-07
-2.225e-07
-2.13223e-07
-2.28272e-07
-2.13455e-07
-2.34082e-07
-2.14252e-07
-2.40215e-07
-2.15769e-07
-2.45784e-07
-2.18069e-07
-2.55924e-07
-2.28898e-07
-2.65254e-07
-2.4377e-07
-2.75753e-07
-2.6012e-07
-2.87311e-07
-2.77931e-07
-3.00035e-07
-2.97317e-07
-3.14105e-07
-3.18442e-07
-3.29753e-07
-3.41507e-07
-3.47277e-07
-3.6676e-07
-3.67068e-07
-3.945e-07
-3.89644e-07
-4.25083e-07
-4.15667e-07
-4.58999e-07
-4.4599e-07
-4.96842e-07
-4.81608e-07
-5.38641e-07
-5.23478e-07
-5.83418e-07
-5.7202e-07
-6.2853e-07
-6.2689e-07
-6.68936e-07
-6.86946e-07
-6.9777e-07
-7.49761e-07
-7.09426e-07
-8.12084e-07
-7.02829e-07
-8.7099e-07
-6.81362e-07
-9.24638e-07
-6.49786e-07
-9.72267e-07
-6.12265e-07
-1.01369e-06
-5.71305e-07
-1.04882e-06
-5.28278e-07
-1.0782e-06
-4.83816e-07
-1.10252e-06
-4.38374e-07
-1.12245e-06
-3.92305e-07
-1.13862e-06
-3.45888e-07
-1.15158e-06
-2.99352e-07
-1.1618e-06
-2.52848e-07
-1.1697e-06
-2.06443e-07
-1.17562e-06
-1.60163e-07
-1.17985e-06
-1.14061e-07
-1.18263e-06
-6.81826e-08
-2.26299e-08
6.57995e-07
-1.65254e-08
6.56161e-07
-4.94003e-08
6.52967e-07
-8.20964e-08
6.48412e-07
-1.1457e-07
6.42436e-07
-1.4675e-07
6.34955e-07
-1.78573e-07
6.25867e-07
-2.09963e-07
6.15068e-07
-2.40821e-07
6.02458e-07
-2.7102e-07
5.87952e-07
-3.00393e-07
5.71491e-07
-3.28723e-07
5.53047e-07
-3.5573e-07
5.32633e-07
-3.81056e-07
5.10322e-07
-4.04262e-07
4.86271e-07
-4.2486e-07
4.60679e-07
-4.4223e-07
4.33808e-07
-4.55804e-07
4.05991e-07
-4.65178e-07
3.77606e-07
-4.70226e-07
3.49045e-07
-4.71156e-07
3.20673e-07
-4.68482e-07
2.92794e-07
-4.62911e-07
2.65635e-07
-4.55201e-07
2.39356e-07
-4.46042e-07
2.14065e-07
-4.35999e-07
1.89822e-07
-4.25464e-07
1.66642e-07
-4.14687e-07
1.44513e-07
-4.03828e-07
1.23409e-07
-3.92989e-07
1.03296e-07
-3.82232e-07
8.41345e-08
-3.71601e-07
6.5883e-08
-3.61129e-07
4.84994e-08
-3.50847e-07
3.19409e-08
-3.40787e-07
1.61648e-08
-3.30985e-07
1.12807e-09
-3.21475e-07
-1.3208e-08
-3.12288e-07
-2.68802e-08
-3.03415e-07
-3.99271e-08
-2.94876e-07
-5.2387e-08
-2.86696e-07
-6.42971e-08
-2.78897e-07
-7.56935e-08
-2.71497e-07
-8.66106e-08
-2.64507e-07
-9.70817e-08
-2.57937e-07
-1.07138e-07
-2.51791e-07
-1.16811e-07
-2.46069e-07
-1.26127e-07
-2.40772e-07
-1.35113e-07
-2.35893e-07
-1.43795e-07
-2.31425e-07
-1.52196e-07
-2.27361e-07
-1.60337e-07
-2.2369e-07
-1.6824e-07
-2.204e-07
-1.75922e-07
-2.1748e-07
-1.83403e-07
-2.14916e-07
-1.90701e-07
-2.12699e-07
-1.97835e-07
-2.10819e-07
-2.04825e-07
-2.09267e-07
-2.11693e-07
-2.08041e-07
-2.18468e-07
-2.07142e-07
-2.25187e-07
-2.06581e-07
-2.31904e-07
-2.0641e-07
-2.38709e-07
-2.0657e-07
-2.45761e-07
-2.07137e-07
-2.53348e-07
-2.08133e-07
-2.61414e-07
-2.09587e-07
-2.71283e-07
-2.21174e-07
-2.80964e-07
-2.34917e-07
-2.91974e-07
-2.50067e-07
-3.04323e-07
-2.66684e-07
-3.18091e-07
-2.84817e-07
-3.33425e-07
-3.04567e-07
-3.50529e-07
-3.26083e-07
-3.69652e-07
-3.49569e-07
-3.91099e-07
-3.7528e-07
-4.15224e-07
-4.0352e-07
-4.42392e-07
-4.34784e-07
-4.73051e-07
-4.69566e-07
-5.0772e-07
-5.07767e-07
-5.46889e-07
-5.48348e-07
-5.90852e-07
-5.88724e-07
-6.39566e-07
-6.24049e-07
-6.92375e-07
-6.48055e-07
-7.47599e-07
-6.5636e-07
-8.02869e-07
-6.48868e-07
-8.56014e-07
-6.28925e-07
-9.05586e-07
-6.00567e-07
-9.50905e-07
-5.67113e-07
-9.91712e-07
-5.30574e-07
-1.02786e-06
-4.92161e-07
-1.05943e-06
-4.5226e-07
-1.08662e-06
-4.11191e-07
-1.10971e-06
-3.69226e-07
-1.129e-06
-3.26598e-07
-1.14484e-06
-2.8351e-07
-1.15757e-06
-2.40118e-07
-1.1675e-06
-1.96512e-07
-1.1749e-06
-1.52759e-07
-1.18e-06
-1.08966e-07
-1.18291e-06
-6.52675e-08
-2.17234e-08
6.57737e-07
-1.57285e-08
6.55426e-07
-4.70892e-08
6.51607e-07
-7.82778e-08
6.4625e-07
-1.09212e-07
6.39315e-07
-1.39815e-07
6.30756e-07
-1.70014e-07
6.20525e-07
-1.99732e-07
6.08581e-07
-2.28876e-07
5.94893e-07
-2.5733e-07
5.79449e-07
-2.84945e-07
5.6226e-07
-3.11529e-07
5.43368e-07
-3.36829e-07
5.22842e-07
-3.60518e-07
5.00777e-07
-3.82178e-07
4.7726e-07
-4.01315e-07
4.5246e-07
-4.1739e-07
4.26615e-07
-4.29904e-07
4.00016e-07
-4.38508e-07
3.72986e-07
-4.43106e-07
3.45845e-07
-4.43909e-07
3.18889e-07
-4.41405e-07
2.92361e-07
-4.36252e-07
2.66443e-07
-4.29145e-07
2.41258e-07
-4.20714e-07
2.16864e-07
-4.1146e-07
1.93288e-07
-4.01745e-07
1.70552e-07
-3.91811e-07
1.48668e-07
-3.81807e-07
1.27636e-07
-3.71825e-07
1.07451e-07
-3.61919e-07
8.80999e-08
-3.52126e-07
6.95635e-08
-3.42474e-07
5.182e-08
-3.3299e-07
3.48434e-08
-3.23703e-07
1.86049e-08
-3.14644e-07
3.07356e-09
-3.05847e-07
-1.17808e-08
-2.97338e-07
-2.59881e-08
-2.8911e-07
-3.95806e-08
-2.81181e-07
-5.25924e-08
-2.73578e-07
-6.50578e-08
-2.66321e-07
-7.70112e-08
-2.59429e-07
-8.84865e-08
-2.52914e-07
-9.95168e-08
-2.46785e-07
-1.10135e-07
-2.41048e-07
-1.20372e-07
-2.35704e-07
-1.3026e-07
-2.30753e-07
-1.39827e-07
-2.26192e-07
-1.49102e-07
-2.22014e-07
-1.58113e-07
-2.18212e-07
-1.66887e-07
-2.14776e-07
-1.75451e-07
-2.11696e-07
-1.8383e-07
-2.0896e-07
-1.9205e-07
-2.06555e-07
-2.0014e-07
-2.04471e-07
-2.08126e-07
-2.02697e-07
-2.1604e-07
-2.01224e-07
-2.23912e-07
-2.00047e-07
-2.31779e-07
-1.99167e-07
-2.39669e-07
-1.98605e-07
-2.47639e-07
-1.98382e-07
-2.55732e-07
-1.98469e-07
-2.63988e-07
-1.98948e-07
-2.72467e-07
-1.99837e-07
-2.84874e-07
-2.01207e-07
-2.9409e-07
-2.12715e-07
-3.04369e-07
-2.25507e-07
-3.15864e-07
-2.39571e-07
-3.28716e-07
-2.54977e-07
-3.43048e-07
-2.71797e-07
-3.58989e-07
-2.9013e-07
-3.76683e-07
-3.10113e-07
-3.96287e-07
-3.31942e-07
-4.17967e-07
-3.55868e-07
-4.41866e-07
-3.82218e-07
-4.68083e-07
-4.1154e-07
-4.96781e-07
-4.44231e-07
-5.28208e-07
-4.80043e-07
-5.62782e-07
-5.17676e-07
-6.01234e-07
-5.54101e-07
-6.44261e-07
-5.84415e-07
-6.91636e-07
-6.0332e-07
-7.41886e-07
-6.07894e-07
-7.92813e-07
-5.99003e-07
-8.4241e-07
-5.79897e-07
-8.8931e-07
-5.53951e-07
-9.32814e-07
-5.23744e-07
-9.72659e-07
-4.90791e-07
-1.0089e-06
-4.55943e-07
-1.0415e-06
-4.19681e-07
-1.0704e-06
-3.82289e-07
-1.09567e-06
-3.43965e-07
-1.11739e-06
-3.04874e-07
-1.13573e-06
-2.65175e-07
-1.15085e-06
-2.24999e-07
-1.16293e-06
-1.8443e-07
-1.17214e-06
-1.43546e-07
-1.17863e-06
-1.02478e-07
-1.18251e-06
-6.13862e-08
-2.0412e-08
6.57739e-07
-1.49335e-08
6.55333e-07
-4.46833e-08
6.51309e-07
-7.42543e-08
6.45663e-07
-1.03565e-07
6.38381e-07
-1.32533e-07
6.29449e-07
-1.61082e-07
6.18853e-07
-1.89135e-07
6.06581e-07
-2.16603e-07
5.92628e-07
-2.43376e-07
5.76999e-07
-2.69313e-07
5.59711e-07
-2.94237e-07
5.40799e-07
-3.1791e-07
5.20322e-07
-3.40029e-07
4.9837e-07
-3.60209e-07
4.75072e-07
-3.77992e-07
4.50607e-07
-3.92889e-07
4.25197e-07
-4.04446e-07
3.99107e-07
-4.12354e-07
3.72619e-07
-4.16539e-07
3.46016e-07
-4.17214e-07
3.19557e-07
-4.14841e-07
2.93459e-07
-4.10038e-07
2.67887e-07
-4.03451e-07
2.4296e-07
-3.9566e-07
2.18751e-07
-3.87124e-07
1.95306e-07
-3.78173e-07
1.72645e-07
-3.69024e-07
1.50776e-07
-3.59815e-07
1.29697e-07
-3.50627e-07
1.094e-07
-3.41507e-07
8.98739e-08
-3.32489e-07
7.11028e-08
-3.23596e-07
5.30686e-08
-3.14854e-07
3.57507e-08
-3.06287e-07
1.91259e-08
-2.97926e-07
3.16892e-09
-2.89802e-07
-1.21458e-08
-2.81938e-07
-2.68431e-08
-2.74323e-07
-4.09508e-08
-2.6698e-07
-5.44992e-08
-2.59932e-07
-6.75196e-08
-2.53199e-07
-8.00437e-08
-2.46799e-07
-9.2104e-08
-2.40744e-07
-1.03733e-07
-2.35043e-07
-1.14962e-07
-2.29701e-07
-1.25825e-07
-2.24721e-07
-1.36351e-07
-2.20102e-07
-1.46573e-07
-2.15842e-07
-1.56522e-07
-2.11935e-07
-1.66227e-07
-2.08374e-07
-1.75719e-07
-2.05149e-07
-1.85029e-07
-2.0225e-07
-1.94186e-07
-1.99666e-07
-2.03222e-07
-1.97383e-07
-2.12169e-07
-1.95389e-07
-2.21061e-07
-1.93672e-07
-2.29934e-07
-1.92223e-07
-2.38827e-07
-1.91034e-07
-2.4778e-07
-1.90103e-07
-2.56825e-07
-1.89473e-07
-2.66019e-07
-1.89129e-07
-2.75391e-07
-1.89081e-07
-2.84908e-07
-1.89493e-07
-2.94459e-07
-1.90515e-07
-3.08592e-07
-1.93506e-07
-3.18089e-07
-2.03976e-07
-3.28812e-07
-2.15666e-07
-3.40767e-07
-2.28632e-07
-3.54037e-07
-2.42873e-07
-3.68734e-07
-2.58436e-07
-3.84968e-07
-2.75424e-07
-4.02851e-07
-2.93978e-07
-4.22499e-07
-3.14293e-07
-4.44029e-07
-3.36619e-07
-4.67529e-07
-3.61319e-07
-4.93097e-07
-3.88929e-07
-5.2095e-07
-4.19684e-07
-5.51426e-07
-4.5315e-07
-5.85019e-07
-4.87774e-07
-6.2231e-07
-5.20324e-07
-6.63627e-07
-5.46098e-07
-7.08527e-07
-5.60665e-07
-7.55638e-07
-5.6225e-07
-8.03168e-07
-5.52325e-07
-8.49557e-07
-5.33956e-07
-8.93724e-07
-5.10005e-07
-9.35056e-07
-4.82518e-07
-9.73236e-07
-4.5266e-07
-1.00813e-06
-4.21071e-07
-1.03971e-06
-3.88113e-07
-1.06798e-06
-3.54017e-07
-1.093e-06
-3.18951e-07
-1.11481e-06
-2.83064e-07
-1.13348e-06
-2.46501e-07
-1.1491e-06
-2.09384e-07
-1.16173e-06
-1.71796e-07
-1.17146e-06
-1.33818e-07
-1.17835e-06
-9.55863e-08
-1.18246e-06
-5.72785e-08
-1.90511e-08
6.57674e-07
-1.40734e-08
6.55113e-07
-4.21227e-08
6.5086e-07
-7.00011e-08
6.44916e-07
-9.76207e-08
6.37281e-07
-1.24899e-07
6.27959e-07
-1.51759e-07
6.16952e-07
-1.78128e-07
6.0427e-07
-2.03921e-07
5.89929e-07
-2.29033e-07
5.73953e-07
-2.53336e-07
5.56383e-07
-2.76663e-07
5.37274e-07
-2.98796e-07
5.16705e-07
-3.1945e-07
4.94779e-07
-3.38268e-07
4.71632e-07
-3.54824e-07
4.47437e-07
-3.68663e-07
4.22401e-07
-3.79368e-07
3.96761e-07
-3.8666e-07
3.70773e-07
-3.90483e-07
3.44686e-07
-3.91046e-07
3.18728e-07
-3.88791e-07
2.93088e-07
-3.84298e-07
2.67915e-07
-3.78171e-07
2.43313e-07
-3.70947e-07
2.19351e-07
-3.6305e-07
1.96072e-07
-3.54782e-07
1.735e-07
-3.46342e-07
1.51647e-07
-3.37854e-07
1.30515e-07
-3.29389e-07
1.10102e-07
-3.20991e-07
9.03992e-08
-3.12687e-07
7.13966e-08
-3.04498e-07
5.30805e-08
-2.96446e-07
3.54343e-08
-2.88554e-07
1.84391e-08
-2.80849e-07
2.07323e-09
-2.73358e-07
-1.36843e-08
-2.66103e-07
-2.88554e-08
-2.59071e-07
-4.34649e-08
-2.52285e-07
-5.75397e-08
-2.45767e-07
-7.11087e-08
-2.39536e-07
-8.42015e-08
-2.33608e-07
-9.68488e-08
-2.27994e-07
-1.09082e-07
-2.22703e-07
-1.20931e-07
-2.1774e-07
-1.3243e-07
-2.13107e-07
-1.43609e-07
-2.08805e-07
-1.54499e-07
-2.04829e-07
-1.65133e-07
-2.01176e-07
-1.75542e-07
-1.97837e-07
-1.85758e-07
-1.94804e-07
-1.95812e-07
-1.92065e-07
-2.05736e-07
-1.89609e-07
-2.15563e-07
-1.87423e-07
-2.25326e-07
-1.85494e-07
-2.3506e-07
-1.83808e-07
-2.44802e-07
-1.82353e-07
-2.54591e-07
-1.8112e-07
-2.64472e-07
-1.80101e-07
-2.74488e-07
-1.79339e-07
-2.84712e-07
-1.78784e-07
-2.95212e-07
-1.78446e-07
-3.06044e-07
-1.78479e-07
-3.16428e-07
-1.79025e-07
-3.29919e-07
-1.84875e-07
-3.40276e-07
-1.94412e-07
-3.51712e-07
-2.05137e-07
-3.64285e-07
-2.17095e-07
-3.78079e-07
-2.30261e-07
-3.93195e-07
-2.4467e-07
-4.09732e-07
-2.60427e-07
-4.27787e-07
-2.77678e-07
-4.47455e-07
-2.96625e-07
-4.68823e-07
-3.17523e-07
-4.91941e-07
-3.40783e-07
-5.16897e-07
-3.66886e-07
-5.43888e-07
-3.95909e-07
-5.73227e-07
-4.27237e-07
-6.0538e-07
-4.59067e-07
-6.40878e-07
-4.88006e-07
-6.79983e-07
-5.09613e-07
-7.22228e-07
-5.2031e-07
-7.66371e-07
-5.19308e-07
-8.10886e-07
-5.08494e-07
-8.54489e-07
-4.90708e-07
-8.96294e-07
-4.68375e-07
-9.35776e-07
-4.4312e-07
-9.72623e-07
-4.15851e-07
-1.00665e-06
-3.87062e-07
-1.03774e-06
-3.5703e-07
-1.06583e-06
-3.25932e-07
-1.09088e-06
-2.93899e-07
-1.11289e-06
-2.61053e-07
-1.13188e-06
-2.27519e-07
-1.14786e-06
-1.93405e-07
-1.16086e-06
-1.58788e-07
-1.17093e-06
-1.23749e-07
-1.1781e-06
-8.84218e-08
-1.18239e-06
-5.2987e-08
-1.76186e-08
6.57657e-07
-1.31971e-08
6.55033e-07
-3.9498e-08
6.50668e-07
-6.56359e-08
6.44572e-07
-9.1525e-08
6.36757e-07
-1.17084e-07
6.27237e-07
-1.42239e-07
6.16026e-07
-1.66917e-07
6.03146e-07
-1.9104e-07
5.88624e-07
-2.14509e-07
5.72493e-07
-2.37203e-07
5.54801e-07
-2.58967e-07
5.35607e-07
-2.79597e-07
5.14993e-07
-2.98828e-07
4.93063e-07
-3.16326e-07
4.69953e-07
-3.31696e-07
4.45834e-07
-3.44517e-07
4.20909e-07
-3.54407e-07
3.95411e-07
-3.61115e-07
3.69585e-07
-3.64599e-07
3.43672e-07
-3.65064e-07
3.17889e-07
-3.62928e-07
2.92414e-07
-3.58737e-07
2.67386e-07
-3.5305e-07
2.429e-07
-3.46366e-07
2.19022e-07
-3.39074e-07
1.95788e-07
-3.3145e-07
1.7322e-07
-3.23677e-07
1.51328e-07
-3.15866e-07
1.30112e-07
-3.0808e-07
1.0957e-07
-3.00358e-07
8.96938e-08
-2.92724e-07
7.04752e-08
-2.85196e-07
5.19017e-08
-2.77792e-07
3.39587e-08
-2.70535e-07
1.66298e-08
-2.63447e-07
-1.04231e-10
-2.56556e-07
-1.62642e-08
-2.49874e-07
-3.18667e-08
-2.43395e-07
-4.69348e-08
-2.37139e-07
-6.14936e-08
-2.31126e-07
-7.55695e-08
-2.25374e-07
-8.91903e-08
-2.19896e-07
-1.02385e-07
-2.14704e-07
-1.15183e-07
-2.09805e-07
-1.27614e-07
-2.05204e-07
-1.3971e-07
-2.00904e-07
-1.515e-07
-1.96902e-07
-1.63017e-07
-1.93197e-07
-1.74291e-07
-1.89783e-07
-1.85353e-07
-1.86653e-07
-1.96234e-07
-1.83798e-07
-2.06965e-07
-1.81207e-07
-2.17579e-07
-1.78868e-07
-2.28106e-07
-1.76769e-07
-2.38577e-07
-1.74897e-07
-2.49024e-07
-1.73238e-07
-2.59477e-07
-1.71781e-07
-2.6997e-07
-1.70516e-07
-2.80533e-07
-1.69439e-07
-2.91203e-07
-1.68579e-07
-3.0203e-07
-1.67881e-07
-3.1305e-07
-1.67361e-07
-3.24459e-07
-1.67014e-07
-3.36197e-07
-1.66796e-07
-3.4842e-07
-1.74611e-07
-3.59893e-07
-1.83731e-07
-3.72155e-07
-1.93782e-07
-3.85392e-07
-2.04896e-07
-3.99725e-07
-2.17112e-07
-4.15257e-07
-2.30488e-07
-4.32088e-07
-2.45134e-07
-4.50311e-07
-2.61204e-07
-4.70017e-07
-2.78905e-07
-4.91285e-07
-2.98505e-07
-5.14172e-07
-3.20443e-07
-5.38805e-07
-3.45101e-07
-5.65415e-07
-3.72406e-07
-5.94353e-07
-4.01553e-07
-6.26094e-07
-4.30522e-07
-6.61094e-07
-4.55869e-07
-6.99417e-07
-4.73567e-07
-7.40397e-07
-4.80921e-07
-7.82763e-07
-4.77925e-07
-8.25152e-07
-4.66655e-07
-8.665e-07
-4.49644e-07
-9.06106e-07
-4.28909e-07
-9.43555e-07
-4.05737e-07
-9.78601e-07
-3.80836e-07
-1.01109e-06
-3.54589e-07
-1.04091e-06
-3.27213e-07
-1.068e-06
-2.98849e-07
-1.09229e-06
-2.69606e-07
-1.11376e-06
-2.39588e-07
-1.13237e-06
-2.08905e-07
-1.14812e-06
-1.77657e-07
-1.16099e-06
-1.45912e-07
-1.171e-06
-1.13747e-07
-1.17813e-06
-8.12892e-08
-1.1824e-06
-4.87146e-08
-1.61971e-08
6.57636e-07
-1.22993e-08
6.54952e-07
-3.68146e-08
6.50495e-07
-6.11779e-08
6.44275e-07
-8.53057e-08
6.36311e-07
-1.09119e-07
6.26622e-07
-1.32549e-07
6.15231e-07
-1.55526e-07
6.02166e-07
-1.77975e-07
5.87462e-07
-1.99804e-07
5.71162e-07
-2.20902e-07
5.5332e-07
-2.41122e-07
5.34003e-07
-2.60276e-07
5.13299e-07
-2.78117e-07
4.91317e-07
-2.94334e-07
4.68196e-07
-3.0856e-07
4.44107e-07
-3.20406e-07
4.19249e-07
-3.2952e-07
3.93848e-07
-3.35675e-07
3.68139e-07
-3.38841e-07
3.42352e-07
-3.39217e-07
3.16691e-07
-3.372e-07
2.91326e-07
-3.33298e-07
2.66386e-07
-3.28031e-07
2.41963e-07
-3.2186e-07
2.18115e-07
-3.15142e-07
1.94879e-07
-3.08129e-07
1.72274e-07
-3.00987e-07
1.50307e-07
-2.93816e-07
1.28982e-07
-2.86673e-07
1.08293e-07
-2.79591e-07
8.82365e-08
-2.7259e-07
6.88019e-08
-2.65688e-07
4.99788e-08
-2.58899e-07
3.1754e-08
-2.52243e-07
1.4112e-08
-2.45741e-07
-2.96436e-09
-2.39419e-07
-1.9492e-08
-2.33285e-07
-3.54884e-08
-2.27333e-07
-5.09746e-08
-2.21583e-07
-6.59737e-08
-2.16052e-07
-8.05103e-08
-2.10758e-07
-9.46104e-08
-2.05712e-07
-1.08301e-07
-2.00925e-07
-1.21611e-07
-1.96403e-07
-1.34568e-07
-1.9215e-07
-1.47202e-07
-1.88168e-07
-1.59542e-07
-1.84456e-07
-1.71618e-07
-1.81012e-07
-1.83459e-07
-1.77829e-07
-1.95097e-07
-1.749e-07
-2.06559e-07
-1.72217e-07
-2.17876e-07
-1.6977e-07
-2.29077e-07
-1.67546e-07
-2.4019e-07
-1.65534e-07
-2.51245e-07
-1.63722e-07
-2.62268e-07
-1.62098e-07
-2.73285e-07
-1.60654e-07
-2.84318e-07
-1.59383e-07
-2.95379e-07
-1.58299e-07
-3.0649e-07
-1.57417e-07
-3.17662e-07
-1.56704e-07
-3.28851e-07
-1.56243e-07
-3.40039e-07
-1.56021e-07
-3.55015e-07
-1.56237e-07
-3.66233e-07
-1.6398e-07
-3.78184e-07
-1.7252e-07
-3.90933e-07
-1.81914e-07
-4.0461e-07
-1.92244e-07
-4.19331e-07
-2.0357e-07
-4.35191e-07
-2.15974e-07
-4.52284e-07
-2.29573e-07
-4.70697e-07
-2.44529e-07
-4.90518e-07
-2.61051e-07
-5.11824e-07
-2.79422e-07
-5.34688e-07
-3.00081e-07
-5.59267e-07
-3.23296e-07
-5.858e-07
-3.48861e-07
-6.14623e-07
-3.75804e-07
-6.46147e-07
-4.01945e-07
-6.80681e-07
-4.23896e-07
-7.18101e-07
-4.38119e-07
-7.57651e-07
-4.42707e-07
-7.98164e-07
-4.38219e-07
-8.38496e-07
-4.26768e-07
-8.77785e-07
-4.10581e-07
-9.15465e-07
-3.9134e-07
-9.51184e-07
-3.70071e-07
-9.84716e-07
-3.47329e-07
-1.0159e-06
-3.23413e-07
-1.04463e-06
-2.98492e-07
-1.0708e-06
-2.72677e-07
-1.09435e-06
-2.46055e-07
-1.11523e-06
-2.18716e-07
-1.13338e-06
-1.90755e-07
-1.14877e-06
-1.62261e-07
-1.16139e-06
-1.33297e-07
-1.17121e-06
-1.03929e-07
-1.17822e-06
-7.42784e-08
-1.18242e-06
-4.4511e-08
-1.47972e-08
6.57625e-07
-1.13904e-08
6.54906e-07
-3.40953e-08
6.50387e-07
-5.66596e-08
6.44086e-07
-7.90042e-08
6.36021e-07
-1.01055e-07
6.26217e-07
-1.22745e-07
6.14701e-07
-1.4401e-07
6.01507e-07
-1.6478e-07
5.86673e-07
-1.8497e-07
5.70247e-07
-2.04474e-07
5.52286e-07
-2.23159e-07
5.32863e-07
-2.40849e-07
5.12065e-07
-2.57314e-07
4.90006e-07
-2.72267e-07
4.66826e-07
-2.85368e-07
4.42696e-07
-2.96257e-07
4.17816e-07
-3.04615e-07
3.9241e-07
-3.10236e-07
3.6671e-07
-3.131e-07
3.40941e-07
-3.13399e-07
3.15302e-07
-3.11505e-07
2.89956e-07
-3.0789e-07
2.65028e-07
-3.03035e-07
2.40601e-07
-2.97363e-07
2.16732e-07
-2.912e-07
1.93453e-07
-2.84777e-07
1.70781e-07
-2.78242e-07
1.48721e-07
-2.71684e-07
1.27275e-07
-2.65156e-07
1.06439e-07
-2.58686e-07
8.62063e-08
-2.52291e-07
6.65683e-08
-2.45985e-07
4.75147e-08
-2.39783e-07
2.90329e-08
-2.33702e-07
1.11085e-08
-2.27762e-07
-6.27377e-09
-2.21984e-07
-2.31304e-08
-2.16374e-07
-3.94773e-08
-2.10927e-07
-5.53341e-08
-2.05662e-07
-7.07223e-08
-2.00596e-07
-8.5665e-08
-1.95742e-07
-1.00187e-07
-1.91113e-07
-1.14313e-07
-1.86716e-07
-1.2807e-07
-1.82559e-07
-1.41486e-07
-1.78643e-07
-1.54587e-07
-1.74971e-07
-1.67402e-07
-1.71542e-07
-1.79958e-07
-1.68352e-07
-1.92284e-07
-1.65395e-07
-2.04408e-07
-1.62666e-07
-2.16358e-07
-1.60155e-07
-2.28161e-07
-1.57851e-07
-2.39845e-07
-1.55745e-07
-2.51438e-07
-1.53825e-07
-2.62965e-07
-1.52079e-07
-2.74454e-07
-1.50496e-07
-2.8593e-07
-1.49069e-07
-2.9742e-07
-1.47792e-07
-3.08939e-07
-1.46695e-07
-3.20518e-07
-1.45773e-07
-3.32164e-07
-1.45029e-07
-3.43808e-07
-1.44621e-07
-3.5532e-07
-1.44674e-07
-3.71021e-07
-1.46595e-07
-3.82247e-07
-1.53468e-07
-3.94416e-07
-1.61161e-07
-4.07486e-07
-1.69766e-07
-4.21506e-07
-1.79271e-07
-4.36557e-07
-1.89708e-07
-4.52721e-07
-2.01157e-07
-4.7008e-07
-2.13739e-07
-4.8872e-07
-2.27614e-07
-5.08728e-07
-2.42986e-07
-5.3018e-07
-2.60158e-07
-5.5318e-07
-2.79531e-07
-5.77905e-07
-3.0126e-07
-6.04603e-07
-3.25023e-07
-6.33591e-07
-3.49706e-07
-6.65206e-07
-3.73037e-07
-6.99603e-07
-3.91785e-07
-7.36481e-07
-4.0295e-07
-7.75e-07
-4.05314e-07
-8.14071e-07
-3.99816e-07
-8.52715e-07
-3.88486e-07
-8.90228e-07
-3.73252e-07
-9.26159e-07
-3.555e-07
-9.60221e-07
-3.36051e-07
-9.92228e-07
-3.15342e-07
-1.02204e-06
-2.9361e-07
-1.04955e-06
-2.70987e-07
-1.07467e-06
-2.47562e-07
-1.09731e-06
-2.23409e-07
-1.11743e-06
-1.98604e-07
-1.13495e-06
-1.73232e-07
-1.14984e-06
-1.47371e-07
-1.16206e-06
-1.21076e-07
-1.17158e-06
-9.44078e-08
-1.17838e-06
-6.74743e-08
-1.18246e-06
-4.04313e-08
-1.34398e-08
6.57615e-07
-1.04714e-08
6.54865e-07
-3.13459e-08
6.50298e-07
-5.2092e-08
6.43929e-07
-7.26352e-08
6.3578e-07
-9.29059e-08
6.25878e-07
-1.12843e-07
6.14254e-07
-1.32385e-07
6.00943e-07
-1.51469e-07
5.85988e-07
-1.70014e-07
5.69439e-07
-1.87925e-07
5.51358e-07
-2.05077e-07
5.31819e-07
-2.21307e-07
5.10914e-07
-2.36405e-07
4.88759e-07
-2.50105e-07
4.65496e-07
-2.62095e-07
4.41297e-07
-2.72045e-07
4.16365e-07
-2.79664e-07
3.90922e-07
-2.84767e-07
3.65196e-07
-2.87342e-07
3.3941e-07
-2.87573e-07
3.13757e-07
-2.85806e-07
2.88396e-07
-2.82476e-07
2.63445e-07
-2.78028e-07
2.38985e-07
-2.72844e-07
2.15068e-07
-2.67222e-07
1.91723e-07
-2.6137e-07
1.68966e-07
-2.55422e-07
1.46802e-07
-2.49458e-07
1.2523e-07
-2.43523e-07
1.04246e-07
-2.37642e-07
8.38432e-08
-2.3183e-07
6.40138e-08
-2.261e-07
4.47473e-08
-2.20464e-07
2.60317e-08
-2.14936e-07
7.85325e-09
-2.09536e-07
-9.80193e-09
-2.04282e-07
-2.69494e-08
-1.99177e-07
-4.36043e-08
-1.94219e-07
-5.97852e-08
-1.89423e-07
-7.55121e-08
-1.84806e-07
-9.0807e-08
-1.80381e-07
-1.05693e-07
-1.76156e-07
-1.20194e-07
-1.7214e-07
-1.34334e-07
-1.68337e-07
-1.4814e-07
-1.64752e-07
-1.61638e-07
-1.61385e-07
-1.74852e-07
-1.58234e-07
-1.87811e-07
-1.55296e-07
-2.00539e-07
-1.52566e-07
-2.13064e-07
-1.50037e-07
-2.25409e-07
-1.47702e-07
-2.37603e-07
-1.45549e-07
-2.49668e-07
-1.43569e-07
-2.61631e-07
-1.4175e-07
-2.73517e-07
-1.40081e-07
-2.85351e-07
-1.38551e-07
-2.9716e-07
-1.3715e-07
-3.08971e-07
-1.35872e-07
-3.20813e-07
-1.34743e-07
-3.32723e-07
-1.33746e-07
-3.44729e-07
-1.32883e-07
-3.56896e-07
-1.32269e-07
-3.68109e-07
-1.31951e-07
-3.82914e-07
-1.35889e-07
-3.94936e-07
-1.42182e-07
-4.07708e-07
-1.49217e-07
-4.21306e-07
-1.57102e-07
-4.35804e-07
-1.65828e-07
-4.51283e-07
-1.75419e-07
-4.67829e-07
-1.85954e-07
-4.85531e-07
-1.97551e-07
-5.04479e-07
-2.1037e-07
-5.24771e-07
-2.24609e-07
-5.46496e-07
-2.4058e-07
-5.69786e-07
-2.5863e-07
-5.9483e-07
-2.78815e-07
-6.21866e-07
-3.00716e-07
-6.5117e-07
-3.23112e-07
-6.82969e-07
-3.43717e-07
-7.17257e-07
-3.59536e-07
-7.53586e-07
-3.68102e-07
-7.911e-07
-3.68755e-07
-8.28823e-07
-3.62648e-07
-8.65939e-07
-3.51669e-07
-9.01876e-07
-3.37465e-07
-9.36266e-07
-3.21184e-07
-9.68872e-07
-3.0348e-07
-9.99527e-07
-2.84703e-07
-1.02811e-06
-2.65039e-07
-1.0545e-06
-2.44594e-07
-1.07863e-06
-2.23438e-07
-1.1004e-06
-2.01634e-07
-1.11976e-06
-1.79245e-07
-1.13665e-06
-1.56348e-07
-1.15101e-06
-1.33011e-07
-1.1628e-06
-1.09282e-07
-1.172e-06
-8.52128e-08
-1.17857e-06
-6.0901e-08
-1.18251e-06
-3.64897e-08
-1.21285e-08
6.57607e-07
-9.54469e-09
6.54834e-07
-2.85729e-08
6.50227e-07
-4.74846e-08
6.43803e-07
-6.62111e-08
6.35585e-07
-8.46882e-08
6.25601e-07
-1.02859e-07
6.13885e-07
-1.20669e-07
6.00473e-07
-1.38057e-07
5.8541e-07
-1.54951e-07
5.6875e-07
-1.71264e-07
5.50554e-07
-1.8688e-07
5.309e-07
-2.01651e-07
5.09883e-07
-2.15385e-07
4.8762e-07
-2.27837e-07
4.64256e-07
-2.38724e-07
4.39966e-07
-2.47744e-07
4.14953e-07
-2.54635e-07
3.8944e-07
-2.59233e-07
3.63656e-07
-2.61532e-07
3.37819e-07
-2.61704e-07
3.12121e-07
-2.6007e-07
2.86716e-07
-2.57028e-07
2.61717e-07
-2.52982e-07
2.37203e-07
-2.48279e-07
2.13221e-07
-2.43188e-07
1.898e-07
-2.37895e-07
1.66951e-07
-2.3252e-07
1.4468e-07
-2.27133e-07
1.22985e-07
-2.21775e-07
1.0186e-07
-2.16466e-07
8.13001e-08
-2.1122e-07
6.12959e-08
-2.06048e-07
4.18378e-08
-2.0096e-07
2.2914e-08
-1.95969e-07
4.5114e-09
-1.91093e-07
-1.33831e-08
-1.86348e-07
-3.07834e-08
-1.81734e-07
-4.77046e-08
-1.7725e-07
-6.41641e-08
-1.72912e-07
-8.01811e-08
-1.68733e-07
-9.57759e-08
-1.64725e-07
-1.10971e-07
-1.60895e-07
-1.25788e-07
-1.57252e-07
-1.4025e-07
-1.538e-07
-1.54383e-07
-1.5054e-07
-1.6821e-07
-1.47475e-07
-1.81755e-07
-1.44601e-07
-1.95043e-07
-1.41917e-07
-2.08097e-07
-1.39417e-07
-2.20942e-07
-1.37095e-07
-2.336e-07
-1.34943e-07
-2.46095e-07
-1.32952e-07
-2.58448e-07
-1.31114e-07
-2.7068e-07
-1.29416e-07
-2.82812e-07
-1.27849e-07
-2.94864e-07
-1.26401e-07
-3.0686e-07
-1.25064e-07
-3.18822e-07
-1.23829e-07
-3.30779e-07
-1.2272e-07
-3.42765e-07
-1.21704e-07
-3.54835e-07
-1.20768e-07
-3.6712e-07
-1.19955e-07
-3.79713e-07
-1.193e-07
-3.93265e-07
-1.24339e-07
-4.05954e-07
-1.30238e-07
-4.19253e-07
-1.36751e-07
-4.33302e-07
-1.43992e-07
-4.48205e-07
-1.51979e-07
-4.64057e-07
-1.60753e-07
-4.80949e-07
-1.70394e-07
-4.98977e-07
-1.81021e-07
-5.18241e-07
-1.92787e-07
-5.38846e-07
-2.05886e-07
-5.60899e-07
-2.2063e-07
-5.84554e-07
-2.373e-07
-6.10002e-07
-2.55872e-07
-6.37466e-07
-2.75851e-07
-6.67161e-07
-2.95952e-07
-6.99203e-07
-3.13944e-07
-7.33433e-07
-3.27124e-07
-7.69296e-07
-3.33529e-07
-8.05943e-07
-3.32922e-07
-8.42507e-07
-3.2655e-07
-8.78304e-07
-3.1612e-07
-9.12866e-07
-3.03027e-07
-9.45895e-07
-2.88215e-07
-9.77193e-07
-2.72211e-07
-1.00662e-06
-2.55294e-07
-1.03405e-06
-2.37611e-07
-1.0594e-06
-2.19247e-07
-1.08258e-06
-2.0026e-07
-1.10351e-06
-1.80701e-07
-1.12213e-06
-1.60626e-07
-1.13838e-06
-1.401e-07
-1.15221e-06
-1.19185e-07
-1.16357e-06
-9.7921e-08
-1.17243e-06
-7.63529e-08
-1.17876e-06
-5.45666e-08
-1.18256e-06
-3.26919e-08
-1.08656e-08
6.576e-07
-8.61109e-09
6.54806e-07
-2.5779e-08
6.50164e-07
-4.28423e-08
6.43691e-07
-5.97384e-08
6.35412e-07
-7.64088e-08
6.25355e-07
-9.28018e-08
6.13553e-07
-1.08867e-07
6.00048e-07
-1.24551e-07
5.84883e-07
-1.39787e-07
5.68115e-07
-1.54494e-07
5.49806e-07
-1.68571e-07
5.30038e-07
-1.81881e-07
5.08905e-07
-1.9425e-07
4.86529e-07
-2.05458e-07
4.63057e-07
-2.15246e-07
4.38666e-07
-2.23345e-07
4.1356e-07
-2.29519e-07
3.87965e-07
-2.33622e-07
3.62109e-07
-2.35655e-07
3.36209e-07
-2.35778e-07
3.10452e-07
-2.34283e-07
2.8499e-07
-2.31531e-07
2.59933e-07
-2.27886e-07
2.35356e-07
-2.2366e-07
2.11303e-07
-2.19092e-07
1.87801e-07
-2.14348e-07
1.64861e-07
-2.09534e-07
1.42485e-07
-2.04712e-07
1.20673e-07
-1.99917e-07
9.9418e-08
-1.95167e-07
7.87141e-08
-1.90474e-07
5.85527e-08
-1.85845e-07
3.89241e-08
-1.81292e-07
1.98172e-08
-1.76825e-07
1.21908e-09
-1.7246e-07
-1.68825e-08
-1.68212e-07
-3.45003e-08
-1.64078e-07
-5.16491e-08
-1.60059e-07
-6.83454e-08
-1.56169e-07
-8.46076e-08
-1.5242e-07
-1.00455e-07
-1.48821e-07
-1.15908e-07
-1.45382e-07
-1.30989e-07
-1.42107e-07
-1.4572e-07
-1.39e-07
-1.60123e-07
-1.36064e-07
-1.7422e-07
-1.33299e-07
-1.88036e-07
-1.30703e-07
-2.01593e-07
-1.28274e-07
-2.14912e-07
-1.26008e-07
-2.28016e-07
-1.23898e-07
-2.40927e-07
-1.21938e-07
-2.53663e-07
-1.2012e-07
-2.66243e-07
-1.18436e-07
-2.78687e-07
-1.16877e-07
-2.91008e-07
-1.15435e-07
-3.03221e-07
-1.14102e-07
-3.15338e-07
-1.1287e-07
-3.27366e-07
-1.11737e-07
-3.39329e-07
-1.10726e-07
-3.51247e-07
-1.09794e-07
-3.63144e-07
-1.08937e-07
-3.75102e-07
-1.08147e-07
-3.90092e-07
-1.07475e-07
-4.02649e-07
-1.12468e-07
-4.1566e-07
-1.17964e-07
-4.29267e-07
-1.23967e-07
-4.43623e-07
-1.30558e-07
-4.58839e-07
-1.378e-07
-4.75005e-07
-1.45751e-07
-4.92213e-07
-1.54495e-07
-5.10559e-07
-1.64143e-07
-5.30147e-07
-1.74842e-07
-5.51088e-07
-1.8678e-07
-5.73509e-07
-2.00254e-07
-5.97576e-07
-2.1548e-07
-6.23478e-07
-2.32372e-07
-6.51407e-07
-2.50383e-07
-6.81511e-07
-2.68212e-07
-7.13787e-07
-2.83742e-07
-7.47945e-07
-2.94591e-07
-7.83357e-07
-2.99244e-07
-8.19211e-07
-2.97767e-07
-8.54745e-07
-2.91411e-07
-8.89389e-07
-2.81685e-07
-9.22758e-07
-2.69763e-07
-9.54604e-07
-2.5642e-07
-9.8476e-07
-2.42079e-07
-1.0131e-06
-2.26965e-07
-1.03952e-06
-2.11195e-07
-1.06394e-06
-1.94836e-07
-1.08626e-06
-1.77936e-07
-1.10642e-06
-1.60536e-07
-1.12436e-06
-1.42687e-07
-1.14002e-06
-1.24444e-07
-1.15335e-06
-1.0586e-07
-1.1643e-06
-8.697e-08
-1.17284e-06
-6.78117e-08
-1.17894e-06
-4.84601e-08
-1.1826e-06
-2.90314e-08
-9.64854e-09
6.57594e-07
-7.67136e-09
6.54781e-07
-2.29664e-08
6.50108e-07
-3.81686e-08
6.43591e-07
-5.32219e-08
6.35256e-07
-6.80737e-08
6.25132e-07
-8.26776e-08
6.13253e-07
-9.69886e-08
5.9966e-07
-1.10958e-07
5.84401e-07
-1.24527e-07
5.6753e-07
-1.37623e-07
5.49113e-07
-1.50154e-07
5.29233e-07
-1.62e-07
5.07986e-07
-1.73003e-07
4.85497e-07
-1.82966e-07
4.61914e-07
-1.9166e-07
4.37417e-07
-1.98844e-07
4.12215e-07
-2.04308e-07
3.86531e-07
-2.07928e-07
3.60596e-07
-2.09705e-07
3.34625e-07
-2.09787e-07
3.08803e-07
-2.08438e-07
2.83279e-07
-2.0598e-07
2.5816e-07
-2.02736e-07
2.33516e-07
-1.98983e-07
2.09393e-07
-1.94932e-07
1.85812e-07
-1.9073e-07
1.62784e-07
-1.86468e-07
1.40312e-07
-1.82201e-07
1.18392e-07
-1.77959e-07
9.70189e-08
-1.73757e-07
7.61867e-08
-1.69605e-07
5.58865e-08
-1.6551e-07
3.6109e-08
-1.61481e-07
1.68433e-08
-1.57529e-07
-1.923e-09
-1.53665e-07
-2.02011e-08
-1.49904e-07
-3.80035e-08
-1.46241e-07
-5.53444e-08
-1.4268e-07
-7.22397e-08
-1.39231e-07
-8.87067e-08
-1.35906e-07
-1.04764e-07
-1.32713e-07
-1.20432e-07
-1.29659e-07
-1.3573e-07
-1.26749e-07
-1.50679e-07
-1.23986e-07
-1.65302e-07
-1.21372e-07
-1.79619e-07
-1.18908e-07
-1.93653e-07
-1.16592e-07
-2.07424e-07
-1.14422e-07
-2.20954e-07
-1.12393e-07
-2.34263e-07
-1.10501e-07
-2.4737e-07
-1.08741e-07
-2.60295e-07
-1.07104e-07
-2.73054e-07
-1.05585e-07
-2.85666e-07
-1.04175e-07
-2.98144e-07
-1.02869e-07
-3.10503e-07
-1.01661e-07
-3.22757e-07
-1.00546e-07
-3.34914e-07
-9.95324e-08
-3.4699e-07
-9.86309e-08
-3.59002e-07
-9.78084e-08
-3.7094e-07