/*--------------------------------*- C++ -*----------------------------------*\
  =========                 |
  \\      /  F ield         | OpenFOAM: The Open Source CFD Toolbox
   \\    /   O peration     | Website:  https://openfoam.org
    \\  /    A nd           | Version:  8
     \\/     M anipulation  |
\*---------------------------------------------------------------------------*/
FoamFile
{
    version     2.0;
    format      ascii;
    class       volScalarField;
    location    "240/fluid";
    object      Qdot;
}
// * * * * * * * * * * * * * * * * * * * * * * * * * * * * * * * * * * * * * //

dimensions      [1 -1 -3 0 0 0 0];

internalField   nonuniform List<scalar> 
4000
(
2.6553e-07
8.61216e-13
-3.59956e-12
6.98632e-13
1.8491e-16
0
-5.6723e-20
1.24172e-10
3.5519e-07
-2.45333e-19
0
3.78529e-07
-1.10288e-09
0
-2.13233e-18
-1.29572e-17
-2.08673e-09
4.10289e-07
-7.54079e-15
5.80251e-08
6.74428e-07
8.43599e-06
0.00010113
0.00105837
0.00925486
0.0668036
0.398639
1.98588
8.37432
30.3522
95.9745
268.386
671.602
1518.4
3124.53
5885.06
10240.5
16692.4
25696.4
37782.4
53646
74260.8
100930
135422
180126
238242
314036
413114
542801
712634
935037
1.22621e+06
1.60728e+06
2.10589e+06
2.75817e+06
3.61152e+06
4.72822e+06
6.19048e+06
8.10732e+06
1.06245e+07
1.38743e+07
1.82477e+07
2.40532e+07
3.18273e+07
2.80587e+08
1.66218e+08
2.55393e+07
1.84815e+07
1.31697e+07
9.22158e+06
6.33125e+06
4.25313e+06
2.79146e+06
1.79218e+06
1.1369e+06
737396
279107
30154.8
940.553
13.5081
0.116058
0.000955336
1.3733e-05
5.10783e-07
5.0326e-08
9.91265e-09
2.98463e-09
9.54706e-10
4.56836e-10
1.84311e-10
7.61907e-11
2.88417e-11
1.4154e-11
5.71588e-12
2.4877e-12
9.67893e-13
-5.22265e-12
1.53325e-13
4.67522e-14
8.6031e-15
-6.99459e-22
0
0
3.03613e-12
1.40248e-11
0
2.67609e-11
0
-5.62355e-11
-2.55918e-10
0
3.69168e-07
-5.92185e-10
0
2.88429e-14
-1.25721e-17
2.02406e-09
-7.99291e-16
-8.65768e-15
5.63287e-08
7.60761e-07
9.07208e-06
0.000111322
0.00115596
0.0100414
0.0721504
0.429225
2.13401
8.98742
32.5458
102.84
287.388
718.548
1622.6
3332.88
6258.22
10839.1
17581.8
26938.7
39421
55718.2
76812.3
104027
139186
184759
244055
321480
422818
555635
729797
958188
1.25764e+06
1.65015e+06
2.16451e+06
2.83842e+06
3.72124e+06
4.87767e+06
6.39258e+06
8.37748e+06
1.09793e+07
1.43105e+07
1.87838e+07
2.46792e+07
3.2479e+07
3.54352e+08
1.03153e+08
2.49401e+07
1.78907e+07
1.26541e+07
8.80068e+06
6.00253e+06
4.0053e+06
2.61081e+06
1.66557e+06
1.05321e+06
677492
195909
14526.8
350.484
4.11166
0.0321453
0.000288565
5.32104e-06
2.65436e-07
3.15245e-08
7.67199e-09
2.4147e-09
9.27396e-10
3.76871e-10
1.56461e-10
6.32214e-11
2.80177e-11
1.21876e-11
4.79067e-12
-3.72227e-12
8.61539e-13
3.24145e-13
-5.29216e-12
3.77208e-14
-5.06787e-12
0
0
0
0
7.64478e-12
0
-5.86341e-11
5.38463e-11
5.49603e-11
0
3.5297e-07
-2.30412e-10
5.73299e-10
0
-3.99795e-18
1.92863e-09
-1.0634e-16
3.88419e-07
4.92282e-09
5.83717e-08
8.80685e-07
1.06709e-05
0.000127368
0.00131212
0.011326
0.0809575
0.479731
2.37838
9.99688
36.1517
114.119
318.631
795.882
1794.69
3677.97
6880.65
11850.4
19099.7
29093.9
42327.2
59500.9
81624
110088
146831
194477
256553
337738
444187
583964
767632
1.00905e+06
1.32641e+06
1.74367e+06
2.29237e+06
3.01407e+06
3.96362e+06
5.21339e+06
6.85878e+06
9.02544e+06
1.18729e+07
1.55463e+07
2.04615e+07
2.68846e+07
3.51994e+07
4.37137e+08
3.24883e+07
2.34309e+07
1.66946e+07
1.17231e+07
8.09105e+06
5.47386e+06
3.62143e+06
2.34063e+06
1.48337e+06
938752
562819
111004
5579.51
108.752
1.13083
0.00909442
9.95015e-05
2.45143e-06
1.59872e-07
2.38607e-08
5.86482e-09
2.11077e-09
7.32463e-10
3.13826e-10
1.30446e-10
5.86187e-11
2.39547e-11
1.0338e-11
-9.23908e-13
1.93621e-12
7.55055e-13
3.01643e-13
1.23978e-13
3.80054e-14
7.28004e-15
0
2.7609e-07
-2.8679e-07
7.34011e-12
6.1577e-12
0
3.18676e-11
0
1.57528e-15
3.40604e-07
4.65955e-19
0
-9.53085e-19
-3.56504e-07
-2.06657e-09
-3.65373e-07
4.21955e-09
-3.75649e-07
1.25307e-08
7.88966e-08
1.22364e-06
1.27533e-05
0.000147083
0.00151156
0.0130015
0.0926354
0.547427
2.70796
11.3622
41.0331
129.382
360.867
900.245
2026.23
4139.78
7705.55
13182.5
21103.4
31926.9
46138.1
64462
87951.1
118099
156997
207471
273325
359589
472889
621925
818149
1.07666e+06
1.41741e+06
1.86688e+06
2.46024e+06
3.24445e+06
4.28239e+06
5.65863e+06
7.48764e+06
9.92528e+06
1.31485e+07
1.74497e+07
2.33844e+07
3.14261e+07
4.59038e+07
4.00616e+08
2.94587e+07
2.12593e+07
1.51138e+07
1.05651e+07
7.24657e+06
4.8661e+06
3.19331e+06
2.04835e+06
1.29335e+06
826227
403308
52232.7
1882.5
30.1824
0.284833
0.0024342
3.32542e-05
1.09906e-06
9.26002e-08
1.62147e-08
4.47422e-09
1.63534e-09
6.67512e-10
2.39335e-10
1.21327e-10
4.70541e-11
2.22181e-11
1.02851e-11
3.87018e-12
1.60894e-12
6.53459e-13
2.88876e-13
9.00969e-13
3.4026e-14
5.9119e-15
0
0
0
7.27798e-12
-6.09162e-12
0
-3.17193e-07
-5.20437e-11
-6.50126e-11
-1.31842e-10
-4.54996e-19
0
9.27316e-19
0
3.50057e-07
-1.90171e-17
1.83254e-09
3.70584e-09
3.7706e-07
8.4705e-08
1.21817e-06
1.45589e-05
0.000172611
0.00176484
0.0151348
0.107514
0.633679
3.12769
13.0998
47.239
148.766
414.42
1032.26
2317.92
4717.17
8723.08
14806.2
23534
35327.8
50672.5
70326.4
95403.2
127526
168962
222776
293076
385282
506531
666205
876677
1.15429e+06
1.52068e+06
2.00462e+06
2.6444e+06
3.49119e+06
4.6137e+06
6.10462e+06
8.08991e+06
1.07423e+07
1.4224e+07
1.88963e+07
2.54025e+07
3.43401e+07
1.72802e+08
2.701e+08
2.77424e+07
1.97646e+07
1.38878e+07
9.60073e+06
6.51385e+06
4.32747e+06
2.81092e+06
1.78787e+06
1.12593e+06
725156
241509
21661.6
599.614
8.18595
0.0737218
0.000707117
1.2419e-05
5.50373e-07
5.98324e-08
1.22541e-08
3.42918e-09
1.45438e-09
5.18451e-10
2.52454e-10
8.54452e-11
4.3705e-11
1.77741e-11
7.68277e-12
3.43853e-12
1.42218e-12
-2.35906e-13
2.26336e-13
-7.00714e-13
-7.3491e-13
5.25958e-15
0
1.53652e-12
0
0
-1.34343e-11
-2.74881e-11
-2.51559e-11
-5.11701e-11
1.51581e-15
-3.26288e-07
-3.29539e-07
-5.25987e-10
1.25873e-14
1.06656e-09
-1.07371e-09
-2.2137e-17
-3.46403e-07
-1.42836e-15
9.00363e-14
1.10891e-07
1.42428e-06
1.70589e-05
0.000203385
0.00207732
0.0177763
0.125976
0.740776
3.64876
15.2554
54.9311
172.762
480.612
1194.99
2675.66
5418.49
9937.28
16716.6
26382.4
39263.5
55865.3
76985.2
103820
138144
182418
239971
315232
414043
544082
715459
941505
1.23983e+06
1.63376e+06
2.15416e+06
2.84201e+06
3.75163e+06
4.95509e+06
6.54794e+06
8.65669e+06
1.14485e+07
1.50463e+07
1.98041e+07
2.62218e+07
3.463e+07
3.82398e+08
1.02812e+08
2.59648e+07
1.82943e+07
1.27178e+07
8.70065e+06
5.84275e+06
3.84271e+06
2.47279e+06
1.56193e+06
984036
610613
140697
8363.97
187.415
2.25094
0.0201435
0.000224021
5.08388e-06
2.92205e-07
3.86158e-08
9.23378e-09
2.98926e-09
1.17025e-09
4.90584e-10
1.83713e-10
8.58575e-11
3.82317e-11
1.11352e-11
7.28735e-12
3.02034e-12
1.19792e-12
5.04412e-13
2.27358e-13
7.38814e-14
2.70474e-14
-7.38088e-13
-2.63657e-07
2.72958e-07
0
5.82133e-12
-2.96244e-07
-1.21716e-11
3.04511e-11
0
-1.01826e-10
1.02848e-10
-4.34602e-19
0
0
1.76779e-18
1.04195e-09
-2.5026e-17
3.33511e-07
-3.3647e-07
1.21117e-08
-5.34366e-08
1.33711e-06
2.02068e-05
0.000240514
0.0024573
0.0209921
0.148465
0.871264
4.28366
17.8817
64.3017
201.987
561.159
1392.57
3107.74
6256.11
11374
18963.6
29650.5
43718.5
61680.1
84371.5
113103
149814
197175
258791
339433
445388
584926
768958
1.01191e+06
1.33291e+06
1.75737e+06
2.31907e+06
3.06305e+06
4.04933e+06
5.358e+06
7.09588e+06
9.4052e+06
1.24656e+07
1.64587e+07
2.18783e+07
2.90356e+07
3.83984e+07
4.50345e+08
3.26749e+07
2.33112e+07
1.6409e+07
1.13749e+07
7.74887e+06
5.17609e+06
3.38441e+06
2.16622e+06
1.36529e+06
867222
470685
73929.4
3188.77
59.9881
0.65548
0.0060592
8.01216e-05
2.34264e-06
1.71135e-07
2.64166e-08
6.73036e-09
2.46116e-09
9.51054e-10
4.05792e-10
1.67944e-10
7.30169e-11
3.32233e-11
1.34959e-11
5.53964e-12
-2.14758e-12
1.00766e-12
5.90746e-12
9.68417e-13
7.16978e-14
5.19046e-12
4.29247e-15
0
0
5.89915e-21
-2.86747e-07
0
1.47632e-11
-2.43987e-11
-6.07432e-11
0
0
0
0
0
0
8.22245e-10
2.0301e-09
4.83153e-14
-9.96421e-14
1.5058e-08
-2.52509e-08
1.98063e-06
2.40102e-05
0.000285298
0.00291268
0.0248519
0.175488
1.02816
5.04741
21.0428
75.5873
237.203
658.213
1630.22
3624.5
7244.48
13041.3
21543.7
33345.5
48684.6
68086.7
92440.2
123187
162438
213082
278997
365288
478676
628003
824959
1.08503e+06
1.42882e+06
1.88382e+06
2.48681e+06
3.28723e+06
4.35176e+06
5.77084e+06
7.66786e+06
1.02125e+07
1.35932e+07
1.81073e+07
2.444e+07
3.31498e+07
6.32243e+07
3.83874e+08
2.94188e+07
2.09993e+07
1.47679e+07
1.02136e+07
6.93363e+06
4.61169e+06
3.0016e+06
1.91424e+06
1.20724e+06
776389
329377
36854.2
1244.45
20.235
0.207547
0.00204167
3.24481e-05
1.19999e-06
1.07832e-07
1.96978e-08
5.7244e-09
1.94922e-09
8.42885e-10
3.33051e-10
1.53933e-10
6.60167e-11
2.65589e-11
1.18271e-11
5.16685e-12
7.71099e-12
1.00844e-12
3.58138e-13
1.48845e-13
8.27995e-13
1.93081e-14
3.61732e-15
0
0
-3.43666e-12
-1.19882e-20
0
2.94464e-07
2.9522e-11
3.01577e-07
2.05194e-19
0
-3.07315e-07
0
0
0
1.77581e-09
-2.67891e-17
1.97184e-09
-2.16504e-15
1.05013e-08
8.99221e-09
2.01491e-06
2.84006e-05
0.000337725
0.00345051
0.0294209
0.207516
1.21433
5.95491
24.8046
89.0402
279.249
774.187
1913.82
4237.2
8397.14
14948.6
24465.7
37463
54142.7
75048.1
101143
134016
175951
230063
300483
392636
513633
672822
882531
1.15907e+06
1.52408e+06
2.00636e+06
2.64432e+06
3.48937e+06
4.61054e+06
6.10088e+06
8.08646e+06
1.0739e+07
1.42253e+07
1.88662e+07
2.53041e+07
3.40415e+07
2.29648e+08
2.41662e+08
2.76132e+07
1.95533e+07
1.36532e+07
9.38024e+06
6.32746e+06
4.18276e+06
2.70724e+06
1.71976e+06
1.08572e+06
700576
217045
18177
507.03
7.31652
0.0724979
0.000776075
1.48421e-05
6.82593e-07
7.40077e-08
1.49757e-08
4.68556e-09
1.82575e-09
6.63481e-10
3.05351e-10
1.27406e-10
5.84077e-11
2.50003e-11
1.09817e-11
4.3552e-12
1.80282e-12
7.12243e-13
3.23622e-13
1.38597e-13
-7.12656e-13
1.73455e-14
-7.37226e-13
-1.6513e-13
-2.69706e-07
6.19201e-12
0
-2.41651e-20
0
0
-9.99367e-20
0
0
0
0
-4.74289e-10
-2.99407e-07
-6.46445e-18
-3.23494e-17
-2.52944e-16
-3.81936e-09
1.3935e-08
1.93271e-07
2.43265e-06
3.34222e-05
0.000398881
0.00407681
0.0347515
0.24496
1.43243
7.02042
29.2327
104.92
329.012
911.675
2249.61
4956.97
9722.41
17092.6
27721.4
41972.6
60041.6
82490.5
110395
145501
190274
248057
323240
421567
550545
720019
942934
1.23635e+06
1.62281e+06
2.13209e+06
2.80363e+06
3.68965e+06
4.85937e+06
6.40466e+06
8.44753e+06
1.11448e+07
1.46443e+07
1.92341e+07
2.54987e+07
3.38067e+07
3.74681e+08
1.10821e+08
2.61636e+07
1.8387e+07
1.27486e+07
8.70137e+06
5.83347e+06
3.83425e+06
2.46955e+06
1.56431e+06
990221
619488
146127
9113.95
218.313
2.8668
0.0281324
0.000332429
7.60385e-06
4.22996e-07
5.35152e-08
1.14753e-08
3.87956e-09
1.51712e-09
5.86886e-10
2.72666e-10
1.26458e-10
5.17277e-11
2.06787e-11
8.55818e-12
4.74279e-12
1.6043e-12
6.15298e-13
2.86569e-13
1.08439e-13
4.29395e-14
5.13281e-12
2.60581e-15
-4.81545e-18
0
-8.05758e-17
0
0
3.36607e-16
0
1.04327e-10
0
0
0
0
1.09393e-14
0
-9.37313e-18
-3.43276e-17
3.32044e-09
-6.65693e-09
2.00518e-08
2.32099e-07
2.90594e-06
3.90793e-05
0.000468457
0.00479337
0.0408721
0.288076
1.68434
8.25526
34.3837
123.466
387.348
1073.24
2643.63
5792.67
11216.8
19446.1
31269.6
46797.1
66261.4
90264.6
120018
157427
205156
266777
346954
451781
589213
769685
1.00692e+06
1.31898e+06
1.72974e+06
2.27069e+06
2.98343e+06
3.92291e+06
5.16159e+06
6.79495e+06
8.94848e+06
1.17833e+07
1.54327e+07
2.02235e+07
2.66667e+07
3.50484e+07
4.58997e+08
3.48329e+07
2.41353e+07
1.69543e+07
1.17411e+07
7.99955e+06
5.35161e+06
3.50981e+06
2.2569e+06
1.43046e+06
911983
530503
96174.8
4762.75
100.692
1.22951
0.0121787
0.000159911
4.32328e-06
2.84186e-07
3.99766e-08
9.53274e-09
3.27686e-09
1.31061e-09
5.27835e-10
2.45681e-10
1.13012e-10
3.89756e-11
1.98576e-11
1.00874e-11
3.93324e-12
1.60072e-12
6.63596e-13
2.62781e-13
1.08761e-13
4.02007e-14
-7.35253e-13
2.62812e-15
0
2.99987e-12
0
2.76501e-07
0
-1.13656e-11
0
2.85242e-07
-9.19674e-11
2.68301e-15
0
0
0
-1.51502e-18
-7.19488e-10
-4.20831e-17
2.77924e-07
-3.16428e-15
1.91958e-08
4.09281e-07
3.55472e-06
4.55362e-05
0.000546352
0.00559837
0.0477727
0.336876
1.97066
9.66531
40.2955
144.864
454.988
1261.14
3100.79
6747.89
12881.2
22014.3
35021.7
51802.9
72611.1
98127.3
129706
169408
220094
285549
370713
482026
627914
819445
1.07121e+06
1.40249e+06
1.83882e+06
2.41413e+06
3.17345e+06
4.17682e+06
5.50423e+06
7.26262e+06
9.59506e+06
1.26816e+07
1.66813e+07
2.21567e+07
2.94568e+07
3.91628e+07
4.44126e+08
3.04948e+07
2.18312e+07
1.54073e+07
1.07039e+07
7.30796e+06
4.89518e+06
3.21343e+06
2.0692e+06
1.31652e+06
848636
435990
63495.8
2630.01
50.1583
0.580207
0.00588075
8.58295e-05
2.69579e-06
2.03882e-07
3.28574e-08
8.34384e-09
3.05483e-09
1.10783e-09
5.22617e-10
2.43735e-10
8.77104e-11
4.1716e-11
1.81784e-11
1.22029e-11
3.52782e-12
1.44579e-12
5.66492e-13
1.0072e-12
9.70855e-14
5.18132e-12
1.39214e-14
2.36863e-15
2.61467e-07
2.80905e-21
-7.94869e-17
0
-2.76521e-07
-1.37681e-11
-5.01326e-11
0
2.00556e-10
0
0
-7.90256e-10
0
-2.92796e-18
-8.72224e-18
-4.62517e-17
3.06215e-09
-2.66147e-07
-2.4166e-07
3.05851e-07
3.8485e-06
5.23944e-05
0.00063128
0.0064822
0.0553864
0.390996
2.28994
11.2473
46.9716
169.192
532.368
1476.86
3623.61
7816.62
14680.1
24724.1
38831
56781.1
78827.4
105759
139061
180939
234417
303459
393234
510471
663987
865375
1.12994e+06
1.47797e+06
1.9364e+06
2.54113e+06
3.34012e+06
4.39768e+06
5.8003e+06
7.66483e+06
1.01498e+07
1.34358e+07
1.77725e+07
2.37841e+07
3.19121e+07
6.21192e+07
4.03595e+08
2.82731e+07
2.02376e+07
1.42876e+07
9.93112e+06
6.78393e+06
4.5466e+06
2.98686e+06
1.92645e+06
1.23096e+06
801881
362817
42940.7
1548.49
27.1483
0.302082
0.00315936
5.10074e-05
1.83123e-06
1.57352e-07
2.68386e-08
7.16301e-09
2.64846e-09
1.09336e-09
4.21931e-10
2.16343e-10
8.67596e-11
3.31688e-11
1.65121e-11
6.89285e-12
2.36065e-12
1.30155e-12
5.64908e-13
2.38599e-13
9.12592e-14
5.15501e-12
-7.33754e-13
2.30233e-15
-3.66002e-13
0
-2.68662e-07
-2.71303e-07
0
-2.74242e-07
6.45499e-16
0
0
0
3.8688e-10
7.66671e-10
0
-2.82561e-18
-8.39527e-18
1.62731e-09
-2.56964e-07
7.2565e-14
2.91198e-08
2.1067e-07
4.31234e-06
5.97633e-05
0.000721844
0.0074262
0.0635694
0.449532
2.63768
12.9833
54.3584
196.339
619.372
1720.37
4209.83
8975.71
16518.7
27393.6
42482.3
61451.4
84585.5
112789
147650
191495
247457
319623
413304
535407
694965
903837
1.17766e+06
1.53711e+06
2.00959e+06
2.63155e+06
3.45158e+06
4.53462e+06
5.96787e+06
7.86874e+06
1.03962e+07
1.37104e+07
1.80858e+07
2.41313e+07
3.22684e+07
1.45124e+08
3.30326e+08
2.6889e+07
1.92163e+07
1.35527e+07
9.41433e+06
6.42882e+06
4.3086e+06
2.83201e+06
1.82966e+06
1.17441e+06
771857
287392
30372.8
979.465
16.0139
0.173459
0.00187878
3.32678e-05
1.34053e-06
1.26702e-07
2.36175e-08
6.50673e-09
2.42679e-09
9.35691e-10
4.36094e-10
1.7864e-10
7.98257e-11
3.49226e-11
1.63472e-11
6.8346e-12
2.91616e-12
1.10657e-12
5.15588e-13
-4.93158e-12
9.12007e-14
-7.17587e-13
1.11978e-14
2.13446e-15
4.78739e-18
3.88066e-17
0
0
0
2.70172e-07
6.34176e-16
-1.81353e-19
0
0
4.92592e-15
6.98687e-19
1.37947e-18
-2.52176e-07
-8.06773e-18
-5.31884e-17
2.45276e-07
-7.72151e-14
2.76775e-08
3.74805e-07
4.91532e-06
6.71545e-05
0.000814419
0.00840139
0.072077
0.510853
3.00502
14.8342
62.3125
225.87
714.876
1988.68
4848.08
10171.2
18244.4
29788
45676.4
65458.4
89501.4
118806
155040
200611
258709
333490
430328
556198
720194
934212
1.21387e+06
1.57972e+06
2.05885e+06
2.68705e+06
3.51167e+06
4.59542e+06
6.02154e+06
7.90068e+06
1.03801e+07
1.36082e+07
1.78129e+07
2.35462e+07
3.11339e+07
2.45951e+08
2.47771e+08
2.58497e+07
1.84845e+07
1.30412e+07
9.06173e+06
6.19028e+06
4.15105e+06
2.73109e+06
1.76775e+06
1.13907e+06
750873
248909
22518.9
665.494
10.2822
0.109341
0.0012271
2.35738e-05
1.0461e-06
1.07314e-07
2.08662e-08
6.417e-09
2.38123e-09
9.67245e-10
4.08618e-10
1.75861e-10
7.29595e-11
3.7375e-11
1.46972e-11
6.03097e-12
-2.37621e-12
1.19243e-12
4.66484e-13
5.29752e-12
8.34299e-13
3.174e-14
1.0899e-14
1.8844e-15
0
0
2.64903e-07
1.12217e-20
0
0
2.64951e-07
9.44448e-11
0
0
0
2.50575e-07
-3.90397e-10
-6.25112e-10
-7.74001e-18
-5.59591e-17
-2.34156e-07
-4.65623e-15
2.91269e-08
5.30084e-07
5.50471e-06
7.44514e-05
0.000905206
0.00936373
0.0805428
0.572404
3.37733
16.7303
70.5562
256.844
816.062
2273.59
5510.54
11295.8
19600.3
31554.2
47979
68336
93089.7
123303
160710
207747
267635
344549
443879
572604
739792
957267
1.24049e+06
1.6097e+06
2.09149e+06
2.72077e+06
3.54351e+06
4.62023e+06
6.03083e+06
7.88075e+06
1.03095e+07
1.34597e+07
1.75371e+07
2.30733e+07
3.03719e+07
3.0775e+08
1.88265e+08
2.50888e+07
1.79472e+07
1.26689e+07
8.80927e+06
6.02311e+06
4.04323e+06
2.66388e+06
1.72791e+06
1.11758e+06
735806
220789
17578.6
484.93
7.16493
0.0752934
0.000873149
1.79771e-05
8.64941e-07
9.475e-08
1.94626e-08
5.7598e-09
2.16116e-09
9.04616e-10
3.79039e-10
1.7281e-10
7.7449e-11
3.34282e-11
1.66792e-11
5.9654e-12
2.59952e-12
1.09127e-12
4.63716e-13
5.25805e-12
8.50025e-14
2.8843e-14
9.80033e-15
1.79203e-15
-4.77352e-18
0
0
0
-2.219e-20
0
0
0
-1.82677e-10
-2.35853e-15
0
-6.54209e-19
-3.06203e-10
2.33178e-07
-7.24408e-10
2.2626e-07
-1.40161e-09
2.76579e-09
2.70159e-08
4.51325e-07
5.93422e-06
8.11239e-05
0.000988699
0.0102577
0.0884715
0.630593
3.73302
18.5633
78.629
287.576
917.489
2558.35
6141.63
12154.8
20179
32199.1
48827
69483
94707.6
125604
163936
212142
273444
352015
453235
584059
753501
973285
1.25869e+06
1.62968e+06
2.11237e+06
2.74099e+06
3.56046e+06
4.6298e+06
6.02669e+06
7.85359e+06
1.02465e+07
1.33434e+07
1.73465e+07
2.27782e+07
2.99383e+07
3.48705e+08
1.48873e+08
2.43464e+07
1.74492e+07
1.23403e+07
8.59668e+06
5.88885e+06
3.9612e+06
2.61595e+06
1.70178e+06
1.10514e+06
725582
200455
14488
378.896
5.40694
0.0563833
0.000672293
1.4634e-05
7.48519e-07
8.61414e-08
1.83372e-08
5.61712e-09
2.10998e-09
8.84469e-10
3.49828e-10
1.58646e-10
7.05798e-11
3.19105e-11
1.43105e-11
6.77692e-12
3.38249e-12
1.17263e-12
5.47612e-12
1.77355e-13
7.8967e-14
2.88007e-14
7.47509e-13
1.79589e-15
0
-2.60732e-07
2.61122e-07
-2.60758e-07
0
2.31303e-11
0
0
0
7.85497e-11
-4.49803e-15
-6.32001e-19
3.62328e-10
5.76234e-10
-1.25588e-09
-6.01207e-17
-5.03538e-16
4.74243e-09
3.47879e-08
5.78971e-07
6.39522e-06
8.65319e-05
0.00105935
0.0110166
0.0952599
0.680876
4.04366
20.1834
85.8579
315.449
1010.12
2813.6
6642.07
12415.6
19385
31053.5
47527.6
68161.7
93540.6
124797
163681
212616
274805
354398
456753
588784
759441
980340
1.26658e+06
1.63785e+06
2.11984e+06
2.74612e+06
3.56067e+06
4.62115e+06
6.00348e+06
7.80786e+06
1.01667e+07
1.32118e+07
1.71408e+07
2.24571e+07
2.94416e+07
3.81619e+08
1.21974e+08
2.35504e+07
1.69372e+07
1.20165e+07
8.39632e+06
5.76858e+06
3.89185e+06
2.57821e+06
1.6831e+06
1.09759e+06
717689
186816
12605
316.817
4.40494
0.0456981
0.000556727
1.26316e-05
6.76947e-07
8.12674e-08
1.74804e-08
5.46405e-09
2.05545e-09
8.63154e-10
3.7447e-10
1.61272e-10
7.22498e-11
3.21949e-11
1.40944e-11
4.90693e-12
1.90255e-12
1.70733e-12
4.11601e-13
-5.57483e-13
-6.62817e-13
2.87304e-14
9.08674e-15
1.62061e-15
-3.63352e-13
0
0
0
-2.29912e-11
1.02111e-11
0
3.96926e-11
0
0
-2.31769e-07
6.09847e-19
-2.83423e-10
2.15477e-07
6.6061e-10
-3.06777e-14
2.93778e-14
-5.41324e-15
3.94508e-08
4.90449e-07
6.54656e-06
9.063e-05
0.00111059
0.0115714
0.100258
0.718204
4.27643
21.4102
91.3924
336.964
1081.08
2994.52
6850.16
12536.6
19553.6
27371.5
43347.5
63563.1
88654.2
119755
158581
207520
269731
349326
451610
583438
753675
973806
1.25875e+06
1.62791e+06
2.10659e+06
2.72779e+06
3.5347e+06
4.58394e+06
5.94969e+06
7.72948e+06
1.00514e+07
1.30414e+07
1.68916e+07
2.20883e+07
2.88952e+07
3.99393e+08
1.05113e+08
2.28544e+07
1.64839e+07
1.17278e+07
8.21758e+06
5.66167e+06
3.83071e+06
2.54536e+06
1.66701e+06
1.0908e+06
712350
178655
11547.7
282.538
3.85895
0.039896
0.000493136
1.15025e-05
6.34474e-07
7.74833e-08
1.69367e-08
5.45459e-09
1.99815e-09
8.98645e-10
3.83833e-10
1.68153e-10
7.31869e-11
2.95888e-11
1.28633e-11
5.88726e-12
2.41376e-12
1.05982e-12
5.33127e-12
1.75065e-13
7.25596e-14
2.86385e-14
9.39381e-15
1.62157e-15
0
0
-3.18237e-12
6.31867e-12
0
-4.21111e-20
2.43005e-11
2.41102e-07
1.59166e-19
2.16416e-15
0
0
2.11859e-07
-2.21184e-18
-1.14058e-09
-6.66395e-17
2.15388e-09
4.1979e-09
3.46201e-08
4.17163e-07
6.73874e-06
9.26892e-05
0.00113667
0.0118555
0.102834
0.737586
4.39825
22.0573
94.3272
348.27
1115.59
3045.45
6912.55
13041.1
20326.4
27235
35727.8
55025.9
79167.3
109284
147054
194799
255608
333509
433713
562960
729970
946042
1.22585e+06
1.58847e+06
2.05877e+06
2.66915e+06
3.46199e+06
4.49267e+06
5.83374e+06
7.58042e+06
9.85779e+06
1.27872e+07
1.65564e+07
2.16362e+07
2.82775e+07
4.08217e+08
9.72309e+07
2.22316e+07
1.60653e+07
1.14508e+07
8.03756e+06
5.54738e+06
3.76015e+06
2.50315e+06
1.64254e+06
1.07672e+06
703455
174625
11097.4
267.89
3.62593
0.0374228
0.00046588
1.10088e-05
6.17583e-07
7.66242e-08
1.66124e-08
5.1297e-09
1.97189e-09
8.56192e-10
3.73991e-10
1.58571e-10
7.44935e-11
3.02055e-11
1.33213e-11
5.64271e-12
2.28538e-12
1.75757e-12
4.28513e-13
9.07429e-13
6.96094e-14
2.56988e-14
4.98888e-12
1.53267e-15
0
0
-2.57331e-07
0
2.52901e-07
2.23918e-11
0
0
-2.35832e-07
7.41071e-11
-1.77347e-10
-5.87747e-19
0
-5.27608e-10
-5.1167e-10
-6.66357e-17
9.66216e-10
4.19768e-09
3.46178e-08
5.04256e-07
6.57601e-06
9.26294e-05
0.00113687
0.0118579
0.102854
0.737719
4.39898
22.0606
94.3402
348.312
1115.7
3045.66
6912.99
13041.6
20326.8
27235.1
35726.8
55024.4
79164.8
109280
147047
194789
255593
333485
433679
562911
729900
945944
1.22571e+06
1.58829e+06
2.05852e+06
2.66884e+06
3.46159e+06
4.49219e+06
5.83321e+06
7.57987e+06
9.8573e+06
1.27868e+07
1.65565e+07
2.16369e+07
2.82785e+07
4.08256e+08
9.71923e+07
2.22305e+07
1.60643e+07
1.14499e+07
8.0369e+06
5.54694e+06
3.75986e+06
2.50298e+06
1.64245e+06
1.07666e+06
703412
174589
11093.5
267.775
3.62415
0.0374036
0.000465664
1.1005e-05
6.17116e-07
7.72548e-08
1.66728e-08
5.27857e-09
1.94194e-09
8.17253e-10
3.65046e-10
1.58578e-10
6.92802e-11
2.90133e-11
1.32519e-11
5.64277e-12
2.28546e-12
1.00816e-12
4.23962e-13
1.84889e-13
6.65079e-14
2.72567e-14
9.05645e-15
-4.98248e-12
0
0
0
1.51686e-16
-2.56258e-07
-2.276e-11
-5.88705e-16
2.46534e-07
0
-1.70126e-10
-2.31605e-07
2.25888e-07
-2.20037e-07
2.15457e-07
-6.60559e-10
1.04815e-09
-1.25852e-09
4.46899e-09
3.50627e-08
4.95123e-07
6.54558e-06
9.06132e-05
0.00111131
0.0115784
0.100316
0.718592
4.27857
21.42
91.4306
337.09
1081.43
2995.27
6851.03
12538.3
19554.9
27372.2
43347.7
63561.9
88650.5
119747
158566
207496
269694
349268
451526
583317
753504
973570
1.25843e+06
1.62749e+06
2.10605e+06
2.72713e+06
3.53393e+06
4.58311e+06
5.94889e+06
7.72888e+06
1.00513e+07
1.3042e+07
1.68935e+07
2.20918e+07
2.88996e+07
3.99531e+08
1.04977e+08
2.28544e+07
1.6484e+07
1.17279e+07
8.2176e+06
5.66162e+06
3.83064e+06
2.54528e+06
1.66694e+06
1.09075e+06
712269
178550
11535.5
282.167
3.85319
0.0398351
0.000492462
1.14877e-05
6.35736e-07
7.74922e-08
1.69382e-08
5.3018e-09
1.99828e-09
8.80762e-10
3.74683e-10
1.62403e-10
7.02579e-11
2.95906e-11
1.38658e-11
6.07943e-12
1.60567e-12
1.05983e-12
4.07993e-13
1.75066e-13
7.25597e-14
2.86384e-14
9.07534e-15
1.62161e-15
0
-2.60733e-07
0
-2.60753e-07
1.04503e-11
0
-2.52555e-11
0
0
2.43936e-07
0
6.31955e-19
-8.60696e-15
-7.08158e-10
-2.18704e-07
-6.01141e-17
1.08199e-09
4.74184e-09
3.26884e-08
4.78688e-07
6.29464e-06
8.66482e-05
0.00106049
0.0110285
0.0953573
0.68153
4.04727
20.2001
85.9231
315.666
1010.73
2815.05
6644.53
12417.2
19386.5
31059.4
47533.9
68167.5
93544.7
124798
163676
212602
274779
354353
456682
588676
759284
980116
1.26627e+06
1.63743e+06
2.11927e+06
2.74536e+06
3.5597e+06
4.61992e+06
6.00202e+06
7.80623e+06
1.01651e+07
1.32103e+07
1.71403e+07
2.24584e+07
2.9445e+07
3.8187e+08
1.21702e+08
2.3546e+07
1.69337e+07
1.20141e+07
8.39486e+06
5.76773e+06
3.89139e+06
2.57797e+06
1.68298e+06
1.09754e+06
717612
186649
12583.6
316.133
4.39402
0.0455811
0.000555437
1.26072e-05
6.77066e-07
8.12828e-08
1.71426e-08
5.29128e-09
2.055e-09
8.63209e-10
3.74492e-10
1.66066e-10
6.92629e-11
3.09619e-11
1.33252e-11
5.62022e-12
1.72432e-12
1.0713e-12
4.11612e-13
1.76289e-13
-6.62814e-13
3.03022e-14
9.08719e-15
7.3552e-13
3.64421e-13
0
-2.63011e-07
0
0
0
0
-2.57619e-07
2.39312e-15
0
-2.47101e-07
6.54161e-19
-8.94137e-15
-2.34496e-07
5.8934e-10
3.3759e-14
1.14023e-09
-2.76539e-09
3.19699e-08
4.51263e-07
5.94306e-06
8.1151e-05
0.0009904
0.0102728
0.0885969
0.631434
3.73767
18.5848
78.713
287.857
918.296
2560.31
6145.4
12159.4
20184.7
32210.5
48840.6
69497.9
94723
125619
163949
212151
273447
352007
453209
584006
753408
973131
1.25845e+06
1.6293e+06
2.11181e+06
2.74017e+06
3.55929e+06
4.62817e+06
6.02449e+06
7.85077e+06
1.02432e+07
1.33398e+07
1.73437e+07
2.27775e+07
2.99408e+07
3.49029e+08
1.48485e+08
2.43388e+07
1.74427e+07
1.23357e+07
8.59368e+06
5.88709e+06
3.96023e+06
2.61545e+06
1.70153e+06
1.10504e+06
725454
200216
14454
377.759
5.38832
0.0561831
0.00067014
1.45995e-05
7.47981e-07
8.61557e-08
1.83353e-08
5.61775e-09
2.11017e-09
8.84567e-10
3.71259e-10
1.63543e-10
6.68381e-11
3.06569e-11
1.43116e-11
6.61664e-12
-2.4875e-12
1.08185e-12
4.60497e-13
1.88809e-13
4.36828e-12
2.88016e-14
9.80461e-15
1.79604e-15
-2.01222e-13
0
-7.78383e-17
1.12215e-20
0
-4.48864e-20
-8.9404e-20
2.63163e-07
2.45163e-15
0
-3.65089e-10
7.19334e-10
0
2.42653e-07
-7.5634e-10
-1.21342e-09
-2.3413e-07
-4.66561e-15
2.62306e-08
4.16636e-07
5.5246e-06
7.47463e-05
0.000906953
0.00938144
0.0806883
0.573378
3.38272
16.7553
70.6537
257.171
817.013
2275.95
5515.4
11303.2
19610.6
31571.9
48001.6
68363.6
93122.6
123342
160756
207801
267698
344624
443966
572704
739904
957389
1.24061e+06
1.60983e+06
2.09161e+06
2.72089e+06
3.54363e+06
4.62041e+06
6.03117e+06
7.88145e+06
1.03109e+07
1.3462e+07
1.75409e+07
2.30786e+07
3.03763e+07
3.08207e+08
1.87737e+08
2.50874e+07
1.79452e+07
1.26667e+07
8.80731e+06
6.02156e+06
4.04213e+06
2.66316e+06
1.72747e+06
1.11735e+06
735646
220449
17524.4
483.03
7.13284
0.0749456
0.000869495
1.7918e-05
8.6516e-07
9.47689e-08
1.97587e-08
5.76056e-09
2.16142e-09
9.04716e-10
3.91137e-10
1.61724e-10
7.18229e-11
3.11402e-11
1.45945e-11
6.69922e-12
2.49896e-12
1.09137e-12
-2.80334e-13
1.89801e-13
7.92488e-14
2.88449e-14
9.80126e-15
1.97004e-15
3.65475e-13
3.88036e-17
2.66783e-07
-1.13325e-20
1.33455e-11
0
0
0
0
2.48888e-15
4.92561e-15
-2.59538e-07
-4.04416e-10
-2.72283e-18
-8.06696e-18
2.47815e-07
-4.26821e-16
-4.31121e-15
3.32088e-08
2.5478e-07
5.04505e-06
6.73351e-05
0.000816307
0.00842023
0.0722334
0.511902
3.01083
14.861
62.4175
226.224
715.907
1991.28
4853.65
10180.7
18258.8
29811.4
45708
65499.1
89553.1
118871
155123
200718
258847
333670
430561
556503
720591
934729
1.21454e+06
1.58059e+06
2.05999e+06
2.68853e+06
3.51359e+06
4.5979e+06
6.02472e+06
7.90462e+06
1.03847e+07
1.36133e+07
1.7817e+07
2.35467e+07
3.11254e+07
2.47177e+08
2.4667e+08
2.5853e+07
1.84867e+07
1.30416e+07
9.06081e+06
6.18882e+06
4.14957e+06
2.72986e+06
1.76685e+06
1.13848e+06
750503
248410
22428.9
662.144
10.2236
0.1087
0.0012206
2.3476e-05
1.04494e-06
1.07336e-07
2.15413e-08
6.38375e-09
2.38156e-09
9.67349e-10
4.08665e-10
1.75886e-10
7.37801e-11
3.44826e-11
1.46985e-11
6.03157e-12
2.70715e-12
1.09972e-12
4.66549e-13
9.41296e-13
7.36487e-14
7.77765e-13
1.05047e-14
1.78654e-15
-2.61092e-07
0
0
1.5943e-16
-2.30428e-20
-4.627e-20
0
0
2.73212e-07
8.74535e-11
0
0
0
2.61649e-07
-1.4879e-09
-4.99483e-17
-1.31533e-09
-3.93627e-15
2.65039e-08
3.37215e-07
4.44973e-06
5.99516e-05
0.000723615
0.00744591
0.0637288
0.450599
2.64357
13.0105
54.4648
196.697
620.417
1723.03
4215.66
8986.26
16535.5
27420.7
42520.2
61502.2
84652.1
112876
147765
191649
247663
319901
413679
535912
695644
904748
1.17887e+06
1.53871e+06
2.01167e+06
2.63422e+06
3.45489e+06
4.5386e+06
5.97237e+06
7.87338e+06
1.04001e+07
1.37125e+07
1.80835e+07
2.41227e+07
3.22542e+07
1.4697e+08
3.28683e+08
2.68823e+07
1.92126e+07
1.35491e+07
9.41072e+06
6.42552e+06
4.3059e+06
2.82999e+06
1.82827e+06
1.17353e+06
771347
286253
30233.6
973.672
15.9058
0.172248
0.00186678
3.30971e-05
1.33672e-06
1.26734e-07
2.40021e-08
6.70019e-09
2.42791e-09
9.45048e-10
4.61263e-10
1.90199e-10
8.56706e-11
3.78729e-11
1.6349e-11
6.83547e-12
2.91658e-12
1.10671e-12
5.1567e-13
2.14574e-13
-5.04142e-12
3.17318e-14
1.19189e-14
1.95673e-15
-6.89305e-22
0
7.94919e-17
1.60965e-16
0
2.78315e-07
0
0
0
-8.96731e-11
2.7706e-07
-1.03523e-14
0
-1.46386e-18
-5.81431e-18
-4.62473e-17
-3.5701e-16
-3.5518e-15
2.44445e-08
3.05815e-07
3.86025e-06
5.26985e-05
0.000633384
0.00650093
0.0555412
0.39203
2.29564
11.2735
47.0738
169.535
533.365
1479.4
3629.21
7827.06
14697.2
24751.3
38869.5
56832.9
78895.8
105849
139181
181099
234633
303751
393630
511010
664719
866366
1.13128e+06
1.47975e+06
1.93875e+06
2.54418e+06
3.34399e+06
4.40244e+06
5.8059e+06
7.67103e+06
1.01561e+07
1.34414e+07
1.77766e+07
2.37884e+07
3.19252e+07
6.29044e+07
4.02445e+08
2.82588e+07
2.02288e+07
1.42818e+07
9.92697e+06
6.78083e+06
4.54425e+06
2.98512e+06
1.92522e+06
1.23015e+06
801398
361850
42734
1538.46
26.944
0.299684
0.00313603
5.07056e-05
1.82471e-06
1.58811e-07
2.71618e-08
7.16446e-09
2.6489e-09
1.09281e-09
4.68435e-10
1.92884e-10
9.27071e-11
4.1304e-11
1.6515e-11
6.89398e-12
-2.08046e-12
4.41036e-13
5.17644e-13
2.38639e-13
5.24376e-12
3.45881e-14
1.18829e-14
2.12443e-15
2.61838e-07
-2.67495e-07
0
0
1.12624e-11
1.13654e-11
9.58926e-20
2.85233e-07
0
0
2.84783e-07
-1.06604e-14
-2.82032e-07
2.11017e-14
-9.04753e-18
-3.6068e-17
4.14845e-14
-3.17596e-15
1.91937e-08
2.69529e-07
3.42704e-06
4.58382e-05
0.000548179
0.00561605
0.0479169
0.33784
1.97595
9.68956
40.3895
145.176
455.89
1263.41
3105.79
6757.26
12896.5
22038.3
35054.9
51846.6
72667.2
98199.1
129799
169529
220255
285763
371002
482417
628444
820164
1.07218e+06
1.40381e+06
1.84062e+06
2.41656e+06
3.17674e+06
4.18122e+06
5.5101e+06
7.27038e+06
9.6053e+06
1.2695e+07
1.66991e+07
2.21806e+07
2.94928e+07
3.92262e+07
4.43845e+08
3.04759e+07
2.18124e+07
1.53927e+07
1.06939e+07
7.30161e+06
4.89136e+06
3.2112e+06
2.06793e+06
1.31583e+06
848304
435253
63191.4
2611.81
49.7455
0.575064
0.00583121
8.5238e-05
2.68401e-06
2.03954e-07
3.17431e-08
8.35052e-09
2.87003e-09
1.10804e-09
5.21971e-10
2.19108e-10
9.97942e-11
4.17242e-11
1.74107e-11
7.70749e-12
3.52845e-12
1.49893e-12
5.66607e-13
2.15168e-13
-5.08175e-12
-7.18714e-13