/*--------------------------------*- C++ -*----------------------------------*\
  =========                 |
  \\      /  F ield         | OpenFOAM: The Open Source CFD Toolbox
   \\    /   O peration     | Website:  https://openfoam.org
    \\  /    A nd           | Version:  8
     \\/     M anipulation  |
\*---------------------------------------------------------------------------*/
FoamFile
{
    version     2.0;
    format      ascii;
    class       volScalarField;
    location    "240/fluid";
    object      rDeltaT;
}
// * * * * * * * * * * * * * * * * * * * * * * * * * * * * * * * * * * * * * //

dimensions      [0 0 -1 0 0 0 0];

internalField   nonuniform List<scalar> 
4000
(
512.965
538.124
562.296
585.585
607.935
629.263
649.469
668.441
686.066
702.256
716.964
730.217
742.129
752.928
762.964
772.698
782.509
792.62
803.022
813.441
823.37
832.158
839.134
843.708
845.448
844.122
839.636
831.987
821.257
807.594
791.196
772.293
751.135
727.979
703.082
679.242
681.845
709.57
737.059
764.422
791.764
819.186
846.783
874.642
902.838
931.433
960.478
990.01
1020.05
1050.6
1081.64
1113.16
1145.09
1177.38
1209.93
1242.63
1275.35
1307.94
1340.23
1372.03
1402.98
1433.11
1462.18
1490.52
10499.4
7287.52
1511.56
1490.17
1462.39
1428.21
1387.81
1341.4
1289.27
1231.83
1169.71
1103.73
1034.83
964.748
896.096
832.095
776.537
733.103
703.626
686.871
679.113
676.115
674.373
671.779
667.199
660.291
651.148
640.02
627.207
613
597.664
581.399
564.346
546.632
528.381
509.585
512.556
537.141
560.617
582.909
603.985
623.783
642.231
659.255
674.795
688.83
701.398
712.616
722.698
731.965
740.841
749.735
758.989
768.796
779.12
789.658
799.87
809.072
816.549
821.669
823.963
823.121
818.986
811.535
800.856
787.117
770.542
751.383
729.911
706.401
681.125
654.344
652.137
678.549
707.516
736.357
765.174
794.063
823.118
852.426
882.065
912.103
942.597
973.591
1005.11
1037.18
1069.8
1102.94
1136.58
1170.65
1205.09
1239.81
1274.68
1309.57
1344.32
1378.74
1412.45
1445.59
1477.93
1509.48
13595
4621.66
1518.9
1492.56
1460.67
1422.87
1379.03
1329.14
1273.35
1211.95
1145.49
1074.63
1000.45
925.209
852.297
785.989
730.759
689.923
664.149
650.926
645.94
645.084
645.302
644.862
642.894
638.937
632.893
624.846
614.961
603.438
590.481
576.262
560.906
544.536
527.267
509.201
511.952
535.192
557.161
577.812
597.083
614.922
631.287
646.145
659.493
671.372
681.888
691.224
699.651
707.524
715.249
723.201
731.717
740.987
750.974
761.371
771.633
781.065
788.938
794.594
797.507
797.295
793.74
786.789
776.512
763.068
746.674
727.586
706.075
682.42
656.896
629.769
624.378
648.509
679.129
709.71
740.336
771.094
802.068
833.341
864.987
897.075
929.663
962.8
996.524
1030.86
1065.82
1101.39
1137.57
1174.31
1211.56
1249.24
1287.25
1325.46
1363.69
1401.7
1439.06
1475.74
1511.07
1544.45
17414.4
1565.27
1538.2
1504.93
1465.97
1421.27
1370.73
1314.32
1252.15
1184.57
1112.2
1035.82
956.972
878.542
804.436
739.248
687.221
650.677
628.999
618.928
616.157
616.943
618.614
619.672
619.422
617.506
613.772
608.2
600.845
591.814
581.23
569.206
555.831
541.206
525.45
508.645
511.348
533.367
554.037
573.301
591.112
607.437
622.256
635.565
647.387
657.787
666.888
674.882
682.042
688.715
695.308
702.232
709.834
718.3
727.582
737.356
747.067
756.007
763.44
768.697
771.248
770.726
766.926
759.785
749.354
735.771
719.23
699.967
678.235
654.298
628.418
600.853
595.784
621.274
653.527
685.863
718.353
751.072
784.096
817.498
851.348
885.711
920.643
956.193
992.401
1029.29
1066.88
1105.18
1144.16
1183.79
1224.02
1264.77
1305.92
1347.32
1388.74
1429.74
1469.95
1508.94
1545.46
1710.37
16334.3
1590.1
1554.05
1512.82
1466.17
1414.01
1356.3
1293.08
1224.62
1151.42
1074.3
994.253
913.371
834.927
762.924
701.609
654.435
622.746
605.068
597.803
596.844
598.843
601.498
603.513
604.229
603.35
600.772
596.483
590.523
582.962
573.882
563.352
551.424
538.17
523.689
508.068
510.696
531.374
550.642
568.448
584.751
599.528
612.772
624.496
634.743
643.598
651.204
657.775
663.601
669.046
674.523
680.445
687.151
694.813
703.365
712.476
721.576
729.957
736.877
741.664
743.783
742.862
738.691
731.198
720.426
706.501
689.608
669.968
647.823
623.423
597.019
568.858
566.328
595.521
629.376
663.445
697.789
732.472
767.561
803.12
839.212
875.895
913.221
951.235
989.972
1029.46
1069.7
1110.7
1152.43
1194.87
1237.93
1281.53
1325.52
1369.72
1413.87
1457.38
1499.95
1541.14
1579.75
6059.32
11480.9
1599.87
1558
1510.68
1457.8
1399.4
1335.62
1266.72
1193.12
1115.57
1034.97
952.606
870.984
793.551
724.275
667.042
624.572
597.282
582.996
577.96
578.359
581.241
584.645
587.466
589.122
589.329
587.961
584.98
580.394
574.246
566.591
557.476
546.935
535.026
521.84
507.461
510.03
529.369
547.267
563.675
578.558
591.903
603.713
614.013
622.857
630.342
636.622
641.919
646.527
650.814
655.19
660.066
665.771
672.471
680.092
688.295
696.511
704.035
710.129
714.131
715.509
713.894
709.074
700.974
689.627
675.15
657.714
637.526
614.816
589.819
562.773
533.912
535.943
570.923
606.269
641.961
678.049
714.588
751.632
789.239
827.462
866.351
905.95
946.297
987.418
1029.33
1072.03
1115.52
1159.75
1204.67
1250.19
1296.2
1342.52
1388.93
1435.12
1480.43
1524.7
1567.57
1608.34
14789.8
4607.79
1595.52
1550.17
1498.41
1440.73
1377.45
1308.93
1235.66
1158.28
1077.71
994.965
911.667
830.629
755.377
689.745
637.17
599.614
576.656
565.59
562.622
564.235
567.824
571.724
575.008
577.189
578.027
577.41
575.295
571.676
566.578
560.037
552.08
542.726
532.018
520.034
506.858
509.349
527.315
543.822
558.822
572.286
584.208
594.596
603.486
610.938
617.06
622.015
626.032
629.414
632.529
635.792
639.606
644.296
650.012
656.672
663.925
671.2
677.79
682.965
686.067
686.575
684.123
678.502
669.635
657.554
642.367
624.236
603.358
579.949
554.235
526.439
502.378
510.402
546.683
583.398
620.581
658.272
696.515
735.356
774.843
815.019
855.925
897.595
940.056
983.323
1027.4
1072.28
1117.94
1164.31
1211.33
1258.87
1306.79
1354.86
1402.78
1450.13
1496.21
1540.86
1582.86
1620.97
18109.6
1630.18
1587.27
1537.2
1480.82
1418.66
1351.17
1278.83
1202.23
1122.18
1039.68
955.853
872.628
793.005
720.501
658.739
610.674
577.559
558.294
549.839
548.49
551.043
555.205
559.55
563.282
565.98
567.427
567.517
566.201
563.467
559.325
553.799
546.906
538.658
529.087
518.263
506.265
508.659
525.242
540.355
553.955
566.019
576.542
585.543
593.059
599.16
603.96
607.626
610.394
612.567
614.518
616.655
619.379
623.004
627.671
633.287
639.495
645.721
651.262
655.396
657.474
656.982
653.565
647.015
637.259
624.325
608.314
589.383
567.719
543.527
517.021
488.414
470.074
484.95
522.337
560.277
598.793
637.916
677.681
718.126
759.286
801.196
843.885
887.378
931.689
976.823
1022.77
1069.51
1116.99
1165.14
1213.88
1263.05
1312.48
1361.92
1411.01
1459.11
1505.64
1550.12
1590.86
2276.26
15768.9
1621.89
1573.19
1518.49
1458.02
1392.15
1321.34
1246.13
1167.2
1085.45
1001.93
917.87
835.494
757.89
688.518
630.756
587.075
558.081
542.125
535.958
536.013
539.378
544.028
548.735
552.82
555.924
557.856
558.521
557.871
555.887
552.575
547.948
542.017
534.784
526.275
516.552
505.69
507.961
523.146
536.856
549.05
559.711
568.839
576.455
582.604
587.36
590.841
593.22
594.736
595.697
596.472
597.47
599.084
601.62
605.209
609.745
614.865
619.992
624.426
627.451
628.431
626.861
622.394
614.831
604.1
590.227
573.314
553.509
530.991
505.959
478.614
449.159
436.976
459.106
497.464
536.478
576.165
616.545
657.645
699.491
742.111
785.528
829.761
874.823
920.717
967.434
1014.95
1063.23
1112.21
1161.81
1211.9
1262.34
1312.92
1363.38
1413.37
1462.19
1509.4
1554.59
1596.57
8376.31
10315.8
1600.56
1549.64
1492.53
1429.65
1361.46
1288.55
1211.56
1131.29
1048.74
964.974
881.389
800.441
725.243
659.165
605.321
565.709
540.376
527.252
522.996
524.218
528.273
533.364
538.423
542.863
546.369
548.773
549.987
549.965
548.686
546.15
542.365
537.338
531.066
523.569
514.902
505.134
507.257
521.034
533.332
544.117
553.374
561.108
567.343
572.13
575.546
577.714
578.81
579.076
578.82
578.412
578.257
578.743
580.163
582.64
586.057
590.044
594.022
597.295
599.156
598.979
596.272
590.697
582.061
570.297
555.433
537.567
516.844
493.438
467.535
439.332
409.021
403.129
432.591
471.783
511.723
552.419
593.883
636.131
679.182
723.053
767.757
813.304
859.693
906.917
954.954
1003.77
1053.3
1103.49
1154.21
1205.33
1256.68
1308.03
1359.09
1409.47
1458.51
1505.81
1551.12
1593.47
14519.8
4871.48
1573.64
1521.59
1462.89
1398.33
1328.56
1254.27
1176.22
1095.3
1012.57
929.119
846.517
767.37
694.789
632.034
581.944
546.079
524.006
513.346
510.738
512.974
517.65
523.16
528.567
533.357
537.256
540.114
541.852
542.425
541.813
540.01
537.023
532.853
527.497
520.968
513.313
504.599
506.548
518.907
529.785
539.153
547.001
553.336
558.189
561.611
563.685
564.538
564.349
563.36
561.881
560.282
558.963
558.303
558.589
559.931
562.203
565.028
567.825
569.903
570.565
569.194
565.312
558.59
548.846
536.015
520.129
501.283
479.621
455.309
428.529
399.467
368.309
368.593
405.197
445.092
485.816
527.368
569.751
612.974
657.046
701.974
747.763
794.412
841.913
890.245
939.376
989.259
1039.83
1090.98
1142.61
1194.55
1246.61
1298.52
1349.96
1400.51
1449.37
1496.25
1540.65
1581.38
18217.1
1633.57
1545.36
1491.57
1431.23
1365.25
1294.34
1219.21
1140.67
1059.64
977.232
894.522
813.27
736.167
666.297
606.794
560.225
527.756
508.553
500.022
498.831
501.96
507.21
513.136
518.907
524.07
528.379
531.703
533.967
535.13
535.17
534.082
531.868
528.527
524.054
518.459
511.782
504.083
505.834
516.765
526.216
534.16
540.593
545.526
548.992
551.048
551.779
551.314
549.836
547.589
544.883
542.085
539.591
537.774
536.909
537.098
538.203
539.842
541.435
542.294
541.731
539.142
534.062
526.173
515.3
501.386
484.465
464.631
442.025
416.81
389.16
359.256
330.959
337.237
376.792
417.266
458.639
500.904
544.055
588.092
633.015
678.824
725.514
773.075
821.489
870.728
920.748
971.491
1022.88
1074.8
1127.13
1179.69
1232.26
1284.56
1336.22
1386.73
1435.27
1481.74
1524.72
1562.69
17833.7
1566.03
1516.85
1460.83
1398.84
1331.6
1259.81
1184.17
1105.49
1024.72
942.944
861.272
781.602
706.669
639.51
583.122
539.816
510.403
493.727
487.051
487.104
491.04
496.841
503.193
509.351
514.912
519.655
523.46
526.26
528.016
528.706
528.322
526.866
524.335
520.722
516.033
510.302
503.585
505.116
514.611
522.626
529.14
534.152
537.678
539.755
540.44
539.825
538.04
535.271
531.763
527.826
523.823
520.147
517.163
515.136
514.158
514.081
514.519
514.891
514.515
512.714
508.896
502.607
493.543
481.536
466.537
448.581
427.764
404.224
378.121
349.623
318.904
295.457
307.345
347.293
388.23
430.13
472.976
516.756
561.461
607.083
653.615
701.043
749.35
798.51
848.486
899.228
950.668
1002.72
1055.27
1108.18
1161.26
1214.28
1266.94
1318.87
1369.38
1417.82
1463.81
1505.71
2234.66
16458.2
1536.92
1485.39
1427.78
1364.71
1296.79
1224.64
1148.98
1070.6
990.474
909.653
829.276
751.372
678.681
614.184
560.742
520.427
493.747
479.294
474.241
475.399
480.087
486.427
493.223
499.8
505.791
510.997
515.309
518.663
521.024
522.368
522.689
521.985
520.252
517.481
513.677
508.868
503.104
504.394
512.446
519.018
524.096
527.682
529.797
530.48
529.793
527.83
524.725
520.663
515.893
510.721
505.511
500.649
496.491
493.294
491.139
489.87
489.097
488.239
486.62
483.575
478.524
471.026
460.789
447.654
431.577
412.598
390.814
366.361
339.394
310.078
278.58
259.495
276.419
316.658
357.951
400.265
443.573
487.856
533.098
579.284
626.397
674.418
723.323
773.078
823.639
874.949
926.935
979.503
1032.53
1085.88
1139.36
1192.72
1245.68
1297.84
1348.49
1397.09
1443.25
1485.49
5165.07
13753.9
1503
1450.74
1392.61
1329.24
1261.23
1189.23
1113.96
1036.24
957.053
877.415
798.522
722.489
652.046
590.114
539.422
501.826
477.581
465.082
461.461
463.619
469.017
475.901
483.166
490.195
496.652
502.353
507.198
511.129
514.11
516.12
517.15
517.197
516.255
514.316
511.38
507.473
502.636
503.669
510.27
515.394
519.031
521.187
521.888
521.176
519.115
515.804
511.377
506.024
499.991
493.586
487.168
481.116
475.781
471.409
468.071
465.605
463.615
461.523
458.661
454.372
448.093
439.394
427.993
413.744
396.606
376.625
353.897
328.558
300.76
270.663
238.428
223.136
244.438
284.876
326.427
369.05
412.711
457.384
503.044
549.671
597.241
645.727
695.099
745.317
796.333
848.082
900.487
953.449
1006.85
1060.53
1114.3
1167.93
1221.13
1273.52
1324.43
1373.33
1419.97
1463.15
9225.62
10479.7
1465.66
1413.67
1355.79
1292.74
1225.16
1153.76
1079.25
1002.5
924.495
846.236
768.962
694.855
626.626
567.134
518.983
483.841
461.752
450.97
448.617
451.69
457.773
465.211
472.975
480.492
487.45
493.68
499.088
503.62
507.24
509.93
511.677
512.477
512.325
511.21
509.132
506.11
502.179
502.94
508.085
511.756
513.948
514.672
513.957
511.849
508.415
503.756
498.011
491.368
484.075
476.438
468.812
461.572
455.059
449.511
444.988
441.321
438.114
434.789
430.687
425.163
417.665
407.778
395.231
379.887
361.712
340.755
317.114
290.922
262.33
231.494
198.569
186.44
211.405
251.955
293.673
336.51
380.425
425.384
471.358
518.316
566.231
615.069
664.794
715.361
766.717
818.793
871.507
924.758
978.419
1032.34
1086.32
1140.14
1193.49
1246.01
1297.07
1346.12
1392.98
1436.4
11843.6
7997.88
1427.8
1376.2
1318.75
1256.22
1189.29
1118.69
1045.16
969.563
892.901
816.136
740.554
668.379
602.294
545.096
499.279
466.348
446.175
436.891
435.644
439.566
446.321
454.329
462.621
470.661
478.156
484.948
490.949
496.106
500.386
503.771
506.246
507.806
508.445
508.151
506.923
504.774
501.732
502.209
505.894
508.107
508.852
508.143
506.012
502.508
497.704
491.7
484.639
476.711
468.162
459.297
450.468
442.042
434.352
427.628
421.92
417.055
412.632
408.079
402.746
395.997
387.296
376.24
362.569
346.155
326.972
305.07
280.55
253.545
224.201
192.67
159.105
149.471
177.34
217.921
259.721
302.684
346.762
391.914
438.103
485.294
533.453
582.542
632.518
683.334
734.93
787.237
840.168
893.62
947.465
1001.55
1055.68
1109.63
1163.11
1215.75
1266.93
1316.11
1363.12
1406.71
13536.5
6359.46
1389.67
1338.53
1281.65
1219.82
1153.75
1084.14
1011.76
937.459
862.249
787.063
713.215
642.949
578.916
523.852
480.156
449.21
430.773
422.843
422.545
427.251
434.661
443.251
452.097
460.69
468.753
476.136
482.757
488.563
493.525
497.62
500.837
503.165
504.598
505.125
504.742
503.457
501.293
501.476
503.697
504.451
503.747
501.605
498.06
493.163
486.991
479.648
471.276
462.068
452.27
442.183
432.155
422.548
413.685
405.788
398.898
392.838
387.206
381.434
374.88
366.923
357.038
344.834
330.066
312.611
292.451
269.64
244.281
216.503
186.453
154.277
120.122
112.286
142.273
182.809
224.612
267.619
311.774
357.032
403.348
450.681
498.992
548.239
598.374
649.346
701.092
753.54
806.603
860.174
914.127
968.307
1022.52
1076.55
1130.1
1182.83
1234.11
1283.43
1330.64
1374.52
14859.3
5260.95
1351.3
1300.76
1244.63
1183.69
1118.63
1050.17
979.067
906.185
832.515
758.966
686.87
618.47
556.38
503.277
461.481
432.279
415.39
408.75
409.327
414.764
422.809
431.982
441.397
450.566
459.223
467.225
474.49
480.97
486.633
491.458
495.429
498.536
500.77
502.12
502.58
502.155
500.859
500.742
501.496
500.791
498.639
495.065
490.108
483.824
476.289
467.612
457.937
447.457
436.416
425.115
413.895
403.112
393.082
384.016
375.951
368.701
361.868
354.888
347.129
337.981
326.933
313.609
297.772
279.309
258.208
234.527
208.368
179.863
149.153
116.383
100
100
106.246
146.665
188.395
231.368
275.522
320.802
367.16
414.55
462.927
512.243
562.45
613.491
665.302
717.808
770.921
824.534
878.519
932.723
986.959
1041
1094.56
1147.29
1198.55
1247.86
1295.05
1338.86
15620
4559.17
1313.79
1263.68
1208.23
1148.16
1084.16
1016.92
947.173
875.774
803.692
731.813
661.463
594.871
534.608
483.293
443.175
415.471
399.886
394.426
395.925
402.07
410.731
420.49
430.49
440.257
449.536
458.183
466.12
473.299
479.686
485.259
490.001
493.9
496.944
499.123
500.43
500.861
500.428
500.007
499.295
497.13
493.532
488.53
482.166
474.499
465.609
455.605
444.635
432.891
420.617
408.109
395.706
383.755
372.564
362.337
353.101
344.671
336.646
328.471
319.523
309.205
297.02
282.603
265.728
246.292
224.289
199.778
172.865
143.679
112.359
100
100
100
100
109.539
151.125
193.989
238.063
283.288
329.607
376.971
425.33
474.633
524.828
575.856
627.651
680.138
733.226
786.811
840.766
894.937
949.14
1003.15
1056.68
1109.4
1160.67
1210.03
1257.29
1301.25
15965.7
4223.39
1276.4
1226.91
1172.27
1113.18
1050.33
984.374
916.053
846.192
775.74
705.553
636.941
572.098
513.551
463.865
425.231
398.812
384.266
379.705
382.138
389.009
398.313
408.689
419.31
429.714
439.649
448.977
457.617
465.523
472.66
479.004
484.536
489.241
493.108
496.124
498.281
499.572
500
500.006
499.293
497.127
493.528
488.524
482.159
474.49
465.599
455.594
444.622
432.876
420.601
408.092
395.687
383.735
372.543
362.315
353.078
344.647
336.621
328.446
319.497
309.179
296.994
282.577
265.702
246.267
224.264
199.754
172.842
143.656
112.337
100
100
100
100
109.536
151.123
193.987
238.062
283.287
329.607
376.971
425.33
474.633
524.827
575.855
627.65
680.136
733.224
786.808
840.762
894.933
949.136
1003.14
1056.68
1109.4
1160.67
1210.02
1257.29
1301.24
15967.6
4221.8
1276.38
1226.89
1172.26
1113.17
1050.32
984.372
916.054
846.195
775.745
705.56
636.949
572.108
513.562
463.876
425.243
398.826
384.279
379.719
382.152
389.021
398.325
408.7
419.32
429.723
439.658
448.984
457.624
465.529
472.665
479.008
484.539
489.243
493.109
496.124
498.28
499.571
500.001
500.741
501.492
500.784
498.63
495.053
490.094
483.806
476.269
467.589
457.911
447.427
436.384
425.08
413.857
403.071
393.039
383.971
375.903
368.652
361.817
354.835
347.075
337.926
326.878
313.554
297.717
279.255
258.154
234.474
208.316
179.812
149.103
116.333
100
100
106.246
146.668
188.4
231.375
275.53
320.811
367.17
414.561
462.938
512.254
562.46
613.501
665.311
717.817
770.929
824.541
878.526
932.729
986.964
1041
1094.56
1147.29
1198.55
1247.86
1295.05
1338.86
15626
4553.22
1313.75
1263.64
1208.19
1148.14
1084.14
1016.9
947.165
875.77
803.693
731.817
661.47
594.88
534.62
483.308
443.194
415.494
399.911
394.452
395.951
402.095
410.755
420.512
430.51
440.276
449.553
458.199
466.134
473.311
479.696
485.268
490.008
493.904
496.947
499.124
500.428
500.86
500.429
501.475
503.693
504.445
503.738
501.593
498.045
493.146
486.971
479.624
471.249
462.038
452.236
442.147
432.116
422.505
413.64
405.74
398.848
392.786
387.152
381.378
374.823
366.864
356.978
344.773
330.004
312.549
292.389
269.578
244.219
216.441
186.391
154.215
120.06
112.262
142.291
182.83
224.636
267.645
311.803
357.062
403.379
450.714
499.026
548.273
598.409
649.38
701.127
753.575
806.637
860.208
914.16
968.339
1022.56
1076.58
1130.13
1182.86
1234.14
1283.46
1330.67
1374.54
14869.5
5249.77
1351.25
1300.71
1244.58
1183.64
1118.59
1050.14
979.04
906.163
832.496
758.95
686.857
618.46
556.374
503.277
461.488
432.293
415.409
408.772
409.351
414.788
422.833
432.004
441.418
450.585
459.24
467.24
474.504
480.982
486.644
491.466
495.435
498.54
500.772
502.12
502.579
502.153
500.86
502.208
505.89
508.101
508.843
508.131
505.997
502.49
497.683
491.676
484.611
476.679
468.127
459.26
450.427
441.998
434.305
427.578
421.868
417
412.575
408.02
402.685
395.934
387.231
376.173
362.501
346.086
326.902
304.999
280.479
253.472
224.128
192.596
159.029
149.449
177.375
217.96
259.763
302.729
346.81
391.965
438.156
485.35
533.51
582.6
632.577
683.393
734.99
787.297
840.228
893.68
947.525
1001.61
1055.74
1109.69
1163.16
1215.8
1266.98
1316.16
1363.17
1406.74
13549.5
6343.88
1389.61
1338.46
1281.59
1219.76
1153.69
1084.09
1011.71
937.415
862.209
787.025
713.181
642.919
578.892
523.836
480.15
449.214
430.787
422.862
422.569
427.275
434.686
443.274
452.119
460.709
468.77
476.152
482.77
488.575
493.535
497.628
500.842
503.169
504.6
505.125
504.74
503.456
501.294
502.939
508.082
511.749
513.939
514.661
513.943
511.831
508.394
503.732
497.983
491.336
484.04
476.4
468.771
461.527
455.011
449.46
444.934
441.265
438.055
434.727
430.623
425.096
417.596
407.707
395.158
379.812
361.635
340.676
317.033
290.84
262.246
231.408
198.481
186.42
211.458
252.013
293.735
336.576
380.494
425.457
471.433
518.394
566.31
615.15
664.877
715.446
766.802
818.879
871.593
924.844
978.505
1032.42
1086.41
1140.22
1193.57
1246.09
1297.15
1346.19
1393.04
1436.46
11864.4
7975.13
1427.73
1376.12
1318.67
1256.14
1189.22
1118.62
1045.09
969.496
892.837
816.074
740.496
668.326
602.25
545.064
499.26
466.344
446.183
436.907
435.667
439.59
446.345
454.352
462.643
470.681
478.174
484.964
490.962
496.117
500.397
503.779
506.252
507.81
508.447
508.152
506.921
504.773
501.734
503.668
510.267
515.388
519.022
521.176
521.874
521.158
519.095
515.779
511.349
505.992
499.956
493.547
487.125
481.07
475.732
471.357
468.016
465.547
463.555
461.46
458.594
454.303
448.021
439.318
427.915
413.663
396.523
376.538
353.808
328.467
300.666
270.566
238.328
223.118
244.51
284.953
326.509
369.136
412.801
457.478
503.142
549.771
597.344
645.832
695.206
745.426
796.442
848.193
900.598
953.561
1006.96
1060.64
1114.41
1168.05
1221.24
1273.63
1324.54
1373.44
1420.09
1463.28
9280.65
10431.8
1465.54
1413.56
1355.68
1292.64
1225.07
1153.66
1079.16
1002.41
924.408
846.151
768.881
694.78
626.562
567.084
518.951
483.827
461.755
450.985
448.638
451.715
457.799
465.235
472.997
480.512
487.468
493.696
499.102
503.632
507.25
509.938
511.683
512.481
512.327
511.211
509.131
506.11
502.181
504.393
512.443
519.012
524.088
527.672
529.784
530.464
529.773
527.806
524.697
520.632
515.857
510.682
505.469
500.603
496.441
493.242
491.083
489.812
489.036
488.174
486.552
483.503
478.449
470.947
460.706
447.568
431.487
412.505
390.717
366.261
339.29
309.97
278.469
259.481
276.509
316.755
358.053
400.372
443.685
487.972
533.218
579.407
626.523
674.547
723.454
773.21
823.772
875.084
927.07
979.639
1032.67
1086.02
1139.49
1192.86
1245.81
1297.98
1348.63
1397.24
1443.42
1485.69
5233.85
13690.3
1502.87
1450.64
1392.52
1329.15
1261.13
1189.14
1113.86
1036.14
956.949
877.312
798.42
722.394
651.962
590.047
539.375
501.802
477.577
465.094
461.481
463.644
469.043
475.925
483.189
490.216
496.67
502.369
507.212
511.141
514.12
516.128
517.156
517.201
516.257
514.317
511.38
507.473
502.637
505.116
514.609
522.621
529.133
534.143
537.666
539.739
540.421
539.802
538.014
535.241
531.729
527.787
523.781
520.101
517.113
515.084
514.102
514.023
514.458
514.826
514.446
512.64
508.818
502.525
493.456
481.445
466.441
448.481
427.66
404.116
378.008
349.505
318.782
295.447
307.455
347.409
388.352
430.258
473.109
516.894
561.603
607.229
653.764
701.195
749.504
798.666
848.643
899.386
950.826
1002.88
1055.43
1108.33
1161.41
1214.43
1267.09
1319.01
1369.52
1417.96
1463.94
1505.83
2260.5
16419.2
1536.93
1485.37
1427.75
1364.65
1296.71
1224.55
1148.88
1070.49
990.358
909.534
829.157
751.258
678.578
614.099
560.68
520.391
493.736
479.302
474.26
475.424
480.113
486.452
493.247
499.821
505.81
511.013
515.323
518.675
521.033
522.376
522.695
521.989
520.254
517.482
513.676
508.868
503.105
505.834
516.763
526.211
534.154
540.584
545.514
548.978
551.03
551.757
551.288
549.806
547.555
544.846
542.044
539.546
537.725
536.858
537.043
538.145
539.781
541.369
542.224
541.656
539.063
533.977
526.083
515.205
501.286
484.358
464.52
441.909
416.688
389.033
359.124
330.952
337.367
376.929
417.409
458.788
501.058
544.214
588.256
633.183
678.995
725.688
773.252
821.668
870.908
920.929
971.672
1023.06
1074.98
1127.31
1179.86
1232.43
1284.72
1336.38
1386.88
1435.41
1481.85
1524.81
1562.71
17826.2
1566.06
1516.83
1460.79
1398.77
1331.52
1259.72
1184.06
1105.37
1024.59
942.811
861.137
781.471
706.548
639.407
583.045
539.768
510.383
493.73
487.068
487.128
491.067
496.867
503.216
509.373
514.931
519.671
523.474
526.272
528.025
528.713
528.328
526.87
524.338
520.723
516.032
510.302
503.586
506.548
518.905
529.782
539.148
546.993
553.326
558.175
561.594
563.665
564.514
564.32
563.327
561.845
560.242
558.918
558.255
558.538
559.877
562.145
564.967
567.76
569.834
570.49
569.114
565.225
558.497
548.747
535.91
520.017
501.166
479.497
455.179
428.392
399.324
368.16
368.592
405.355
445.256
485.986
527.544
569.932
613.16
657.236
702.168
747.96
794.611
842.114
890.447
939.579
989.461
1040.03
1091.18
1142.81
1194.75
1246.8
1298.71
1350.14
1400.68
1449.53
1496.38
1540.74
1581.43
18221.7
1617.93
1545.32
1491.5
1431.14
1365.15
1294.22
1219.09
1140.53
1059.49
977.082
894.369
813.119
736.026
666.175
606.699
560.163
527.726
508.55
500.036
498.855
501.986
507.236
513.16
518.929
524.089
528.395
531.716
533.978
535.139
535.177
534.087
531.871
528.53
524.056
518.459
511.782
504.083
507.257
521.033
533.33
544.113
553.368
561.099
567.332
572.115
575.527
577.691
578.783
579.045
578.785
578.373
578.215
578.697
580.114
582.587
586.001
589.984
593.958
597.225
599.081
598.898
596.184
590.601
581.959
570.188
555.316
537.443
516.713
493.299
467.39
439.179
408.861
403.132
432.77
471.968
511.915
552.617
594.086
636.339
679.395
723.269
767.976
813.524
859.915
907.14
955.177
1003.99
1053.52
1103.7
1154.42
1205.54
1256.88
1308.22
1359.27
1409.65
1458.67
1505.97
1551.27
1593.59
14555.5
4827.94
1573.56
1521.5
1462.79
1398.21
1328.43
1254.13
1176.07
1095.13
1012.41
928.946
846.345
767.207
694.644
631.918
581.863
546.036
523.995
513.357
510.76
513.001
517.677
523.184
528.589
533.376
537.272
540.128
541.863
542.434
541.819
540.015
537.026
532.855
527.498
520.968
513.314
504.599
507.961
523.146
536.854
549.048
559.706
568.832
576.445
582.591
587.343
590.82
593.196
594.708
595.664
596.435
597.429
599.041
601.573
605.159
609.691
614.807
619.929
624.357
627.377
628.349
626.772
622.297
614.726
603.986
590.106
573.184
553.371
530.845
505.805
478.451
448.989
436.984
459.306
497.671
536.692
576.385
616.77
657.875
699.725
742.348
785.768
830.003
875.067
920.961
967.677
1015.19
1063.47
1112.45
1162.04
1212.13
1262.56
1313.14
1363.59
1413.57
1462.39
1509.59
1554.78
1596.78
8496.3
10216.5
1600.46
1549.54
1492.42
1429.52
1361.33
1288.4
1211.4
1131.11
1048.55
964.78
881.193
800.252
725.071
659.023
605.218
565.649
540.353
527.256
523.016
524.244
528.3
533.389
538.446
542.883
546.385
548.786
549.998
549.973
548.693
546.154
542.368
537.34
531.067
523.57
514.902
505.134
508.659
525.242
540.355
553.954
566.016
576.537
585.535
593.048
599.146
603.942
607.604
610.368
612.537
614.484
616.617
619.338
622.959
627.624
633.236
639.439
645.661
651.196
655.322
657.392
656.893
653.466
646.908
637.143
624.199
608.179
589.238
567.565
543.364
516.849
488.233
470.087
485.172
522.567
560.513
599.035
638.163
677.933
718.382
759.545
801.457
844.148
887.642
931.952
977.084
1023.03
1069.76
1117.24
1165.38
1214.11
1263.27
1312.69
1362.11
1411.2
1459.29
1505.82
1550.28
1590.99
2311.97
15699.8
1621.93
1573.18
1518.44
1457.94
1392.04
1321.2
1245.96
1167.01
1085.24
1001.71
917.643
835.272
757.685
688.344
630.626
586.994
558.045
542.122
535.975
536.039
539.406
544.055
548.759
552.841
555.941
557.87
558.531
557.879
555.893
552.579
547.951
542.018
534.785
526.277
516.553
505.689
509.349
527.316
543.823
558.822
572.285
584.205
594.591
603.477
610.926
617.045
621.996
626.009
629.386
632.498
635.757
639.568
644.254
649.968
656.624
663.872
671.142
677.725
682.893
685.987
686.485
684.024
678.392
669.516
657.424
642.226
624.085
603.197
579.778
554.053
526.248
502.397
510.647
546.935
583.657
620.846
658.542
696.789
735.634
775.123
815.302
856.209
897.879
940.339
983.605
1027.68
1072.56
1118.2
1164.57
1211.58
1259.12
1307.02
1355.08
1402.99
1450.31
1496.36
1540.98
1582.94
1620.97
18100.7
1630.26
1587.26
1537.14
1480.71
1418.52
1351
1278.63
1202.01
1121.94
1039.43
955.59
872.367
792.761
720.288
658.574
610.565
577.505
558.282
549.853
548.516
551.072
555.234
559.575
563.304
565.998
567.441
567.528
566.209
563.472
559.328
553.801
546.908
538.659
529.089
518.264
506.265
510.031
529.371
547.27
563.677
578.559
591.902
603.71
614.008
622.848
630.33
636.606
641.899
646.503
650.786
655.159
660.031
665.734
672.43
680.048
688.246
696.457
703.973
710.06
714.052
715.42
713.794
708.963
700.851
689.493
675.005
657.557
637.358
614.636
589.628
562.571
533.876
536.148
571.198
606.551
642.249
678.342
714.884
751.932
789.542
827.766
866.656
906.256
946.601
987.72
1029.63
1072.33
1115.81
1160.03
1204.95
1250.46
1296.46
1342.77
1389.16
1435.32
1480.6
1524.85
1567.67
1608.38
14837
4548.29
1595.44
1550.05
1498.27
1440.55
1377.24
1308.71
1235.41
1158.01
1077.42
994.665
911.366
830.342
755.122
689.541
637.03
599.538
576.632
565.599
562.649
564.267
567.855
571.751
575.031
577.209
578.042
577.421
575.302
571.682
566.582
560.039
552.081
542.727
532.02
520.036
506.858
510.696
531.377
550.646
568.452
584.754
599.53
612.772
624.494
634.738
643.589
651.192
657.759
663.581
669.022
674.496
680.415
687.118
694.776
703.325
712.431
721.526
729.899
736.81
741.587
743.695
742.763
738.578
731.073
720.288
706.351
689.445
669.792
647.634
623.222
596.806
568.633
566.357
595.821
629.681
663.756
698.105
732.792
767.883
803.445
839.538
876.221
913.547
951.559
990.293
1029.77
1070.01
1111.01
1152.74
1195.16
1238.22
1281.81
1325.79
1369.99
1414.13
1457.64
1500.21
1541.41
1580.06
6219.83
11356.1
1599.63
1557.79
1510.47
1457.58
1399.16
1335.36
1266.44
1192.82
1115.25
1034.63
952.267
870.656
793.254
724.03
666.866
624.471
597.244
583.001
577.987
578.394
581.275
584.676
587.492
589.143
589.345
587.972
584.987
580.399
574.249
566.592
557.476
546.936
535.028
521.841
507.46
511.349
533.37
554.042
573.307
591.118
607.442
622.26
635.567
647.386
657.783
666.881
674.871
682.027
688.697
695.286
702.207
709.806
718.269
727.547
737.316
747.021
755.953
763.376
768.622
771.161
770.626
766.813
759.658
749.213
735.615
719.06
699.783
678.037
654.086
628.193
600.615
595.818
621.597
653.857
686.198
718.692
751.414
784.44
817.844
851.695
886.057
920.988
956.536
992.74
1029.63
1067.21
1105.5
1144.47
1184.1
1224.32
1265.05
1306.19
1347.58
1388.98
1429.97
1470.17
1509.13
1545.62
1728.92
16274.9
1590.11
1553.98
1512.69
1466
1413.8
1356.05
1292.8
1224.31
1151.08
1073.94
993.887
913.01
834.593
762.641
701.398
654.306
622.692
605.068
597.832
596.883
598.882
601.533
603.541
604.25
603.366
600.782
596.489
590.526
582.963
573.882
563.351
551.424
538.171
523.69
508.067
511.953
535.196
557.168
577.819
597.091
614.93
631.294
646.15
659.496
671.373
681.885
691.218
699.641
707.511
715.232
723.182
731.694