/*--------------------------------*- C++ -*----------------------------------*\
  =========                 |
  \\      /  F ield         | OpenFOAM: The Open Source CFD Toolbox
   \\    /   O peration     | Website:  https://openfoam.org
    \\  /    A nd           | Version:  8
     \\/     M anipulation  |
\*---------------------------------------------------------------------------*/
FoamFile
{
    version     2.0;
    format      ascii;
    class       volScalarField;
    location    "240/fluid";
    object      rho;
}
// * * * * * * * * * * * * * * * * * * * * * * * * * * * * * * * * * * * * * //

dimensions      [1 -3 0 0 0 0 0];

internalField   nonuniform List<scalar> 
4000
(
0.658527
0.658505
0.658467
0.658404
0.6583
0.658127
0.657844
0.657384
0.656645
0.655472
0.65364
0.650829
0.646614
0.640461
0.631768
0.619949
0.604578
0.585544
0.563174
0.538223
0.511738
0.484838
0.458504
0.43346
0.410145
0.388753
0.369301
0.351697
0.335788
0.3214
0.308357
0.296495
0.285667
0.275746
0.266625
0.258214
0.250434
0.243188
0.236408
0.230048
0.224065
0.218425
0.213098
0.208058
0.203283
0.198755
0.194458
0.19038
0.186509
0.182836
0.179355
0.176061
0.172949
0.170019
0.16727
0.164706
0.162332
0.160158
0.158197
0.15647
0.155037
0.153879
0.153085
0.152744
0.152988
0.158596
0.168275
0.17971
0.193182
0.209065
0.227853
0.250192
0.276928
0.309169
0.348344
0.396356
0.455719
0.528973
0.617862
0.721665
0.83462
0.944638
1.03706
1.10286
1.143
1.1644
1.17494
1.17987
1.1821
1.18308
1.18351
1.18369
1.18377
1.1838
1.18381
1.18382
1.18382
1.18382
1.18382
1.18382
0.658527
0.658504
0.658466
0.658401
0.658294
0.658117
0.657826
0.657353
0.656593
0.655386
0.653503
0.650622
0.646313
0.640046
0.631229
0.619291
0.603828
0.584749
0.562389
0.537499
0.511108
0.484313
0.458077
0.433113
0.409856
0.388502
0.369073
0.351479
0.335573
0.321183
0.308135
0.296267
0.285433
0.275507
0.266381
0.257966
0.250183
0.242933
0.236151
0.229788
0.223804
0.218163
0.212836
0.207796
0.203022
0.198495
0.1942
0.190124
0.186256
0.182587
0.17911
0.175821
0.172715
0.169792
0.167052
0.164497
0.162135
0.159975
0.158031
0.156323
0.154915
0.153776
0.152993
0.152644
0.152848
0.159818
0.169746
0.181506
0.195395
0.211813
0.23129
0.254525
0.282441
0.316241
0.357489
0.408294
0.471325
0.549078
0.642864
0.750745
0.864936
0.971707
1.05714
1.11523
1.1495
1.16747
1.1763
1.18044
1.18233
1.18318
1.18354
1.1837
1.18377
1.1838
1.18381
1.18382
1.18382
1.18382
1.18382
1.18382
0.658527
0.658503
0.658464
0.658398
0.658288
0.658105
0.657805
0.657318
0.656535
0.655295
0.653363
0.650413
0.646013
0.639634
0.630685
0.618611
0.60302
0.583844
0.561432
0.536539
0.510191
0.483468
0.457318
0.432439
0.409257
0.387965
0.368581
0.351021
0.335138
0.320762
0.307722
0.295858
0.285025
0.275098
0.265971
0.257554
0.249768
0.242514
0.235727
0.229361
0.223374
0.217731
0.212402
0.207362
0.202587
0.198061
0.193768
0.189694
0.18583
0.182166
0.178695
0.175413
0.172317
0.169405
0.166679
0.164142
0.161802
0.15967
0.157762
0.156107
0.154755
0.153691
0.152999
0.152747
0.153023
0.161723
0.172118
0.184434
0.198995
0.216239
0.236743
0.261272
0.290828
0.326715
0.370612
0.424806
0.491941
0.574175
0.671972
0.781843
0.894306
0.995333
1.07309
1.12442
1.15418
1.16968
1.1773
1.18088
1.18252
1.18326
1.18358
1.18372
1.18378
1.1838
1.18381
1.18382
1.18382
1.18382
1.18382
1.18382
0.658527
0.658503
0.658462
0.658395
0.658282
0.658095
0.657789
0.657291
0.656491
0.655226
0.653258
0.650258
0.64579
0.639323
0.63027
0.618079
0.60237
0.583089
0.560597
0.535658
0.509297
0.482591
0.456477
0.431644
0.408511
0.387264
0.367922
0.350396
0.334539
0.320185
0.307161
0.295308
0.284482
0.27456
0.265436
0.257021
0.249235
0.241979
0.23519
0.228821
0.222831
0.217186
0.211856
0.206814
0.202039
0.197514
0.193222
0.189151
0.185291
0.181632
0.178169
0.174896
0.171811
0.168914
0.166205
0.163691
0.16138
0.159285
0.157428
0.155862
0.154615
0.153716
0.153299
0.153516
0.154693
0.164033
0.175076
0.188106
0.203493
0.221725
0.243436
0.269461
0.300882
0.3391
0.385931
0.4438
0.515238
0.60198
0.703508
0.814715
0.924599
1.01925
1.08914
1.13375
1.159
1.17201
1.17837
1.18136
1.18273
1.18334
1.18362
1.18373
1.18378
1.18381
1.18381
1.18382
1.18382
1.18382
1.18382
1.18382
0.658526
0.658502
0.658461
0.658392
0.658277
0.658086
0.657774
0.657266
0.656451
0.655163
0.65316
0.650109
0.645573
0.639016
0.629852
0.617535
0.601695
0.582292
0.559701
0.534698
0.508309
0.481606
0.45552
0.430728
0.407642
0.386442
0.367143
0.349655
0.333831
0.319503
0.3065
0.294663
0.28385
0.273937
0.26482
0.256411
0.248627
0.241371
0.234581
0.228211
0.22222
0.216574
0.211242
0.206199
0.201425
0.196901
0.192611
0.188544
0.184689
0.181037
0.177582
0.17432
0.171248
0.168366
0.165676
0.163183
0.160898
0.158834
0.157014
0.155506
0.154322
0.153497
0.153178
0.15354
0.157273
0.167046
0.178648
0.192371
0.208609
0.227884
0.250881
0.278498
0.311898
0.352572
0.402489
0.464144
0.539847
0.630782
0.735279
0.846603
0.952652
1.04035
1.10272
1.1414
1.1629
1.17388
1.17922
1.18174
1.1829
1.18342
1.18365
1.18375
1.18379
1.18381
1.18382
1.18382
1.18382
1.18382
1.18382
1.18382
0.658526
0.658501
0.65846
0.658389
0.658272
0.658078
0.65776
0.657244
0.656416
0.655107
0.653074
0.649979
0.645381
0.638741
0.629473
0.617033
0.601061
0.581527
0.558823
0.533736
0.507298
0.48058
0.454505
0.429744
0.406698
0.385543
0.366287
0.348839
0.33305
0.318752
0.305774
0.293958
0.283161
0.273262
0.264155
0.255755
0.247976
0.240722
0.233933
0.227564
0.221573
0.215927
0.210595
0.205553
0.20078
0.196258
0.191972
0.187909
0.18406
0.180416
0.176971
0.173721
0.170664
0.167799
0.165131
0.162664
0.160408
0.158378
0.156594
0.155127
0.153958
0.153116
0.152703
0.152809
0.160015
0.170257
0.182448
0.196894
0.214014
0.234367
0.258691
0.287947
0.323376
0.366562
0.419629
0.48506
0.564884
0.659628
0.76638
0.87689
0.978397
1.05911
1.11452
1.14798
1.16624
1.17549
1.17997
1.18208
1.18305
1.18348
1.18367
1.18376
1.18379
1.18381
1.18382
1.18382
1.18382
1.18382
1.18382
1.18382
0.658526
0.658501
0.658458
0.658387
0.658268
0.658071
0.657748
0.657224
0.656384
0.655055
0.652993
0.649855
0.645197
0.638476
0.629104
0.61654
0.600433
0.580764
0.557942
0.532763
0.506268
0.479528
0.453459
0.428724
0.405716
0.384603
0.365392
0.347985
0.332233
0.317967
0.305016
0.293223
0.282445
0.272562
0.263469
0.25508
0.247308
0.240058
0.233273
0.226905
0.220916
0.215271
0.209941
0.204902
0.200131
0.195612
0.191331
0.187274
0.183432
0.179797
0.176363
0.173127
0.170087
0.167244
0.164601
0.162166
0.15995
0.157971
0.156262
0.154877
0.153794
0.153116
0.152924
0.153335
0.162468
0.173343
0.186218
0.201442
0.219477
0.240932
0.266597
0.297503
0.334968
0.380678
0.436887
0.505992
0.589685
0.687735
0.795945
0.904744
1.00119
1.07513
1.12431
1.15334
1.16894
1.17678
1.18057
1.18235
1.18317
1.18353
1.1837
1.18377
1.1838
1.18381
1.18382
1.18382
1.18382
1.18382
1.18382
1.18382
0.658526
0.6585
0.658457
0.658385
0.658264
0.658065
0.657737
0.657206
0.656354
0.655007
0.652918
0.649739
0.645023
0.638224
0.628751
0.616066
0.599823
0.580019
0.557074
0.5318
0.505243
0.478475
0.452407
0.427695
0.404723
0.383652
0.364484
0.347119
0.331405
0.317173
0.304251
0.292483
0.281726
0.27186
0.262782
0.254407
0.246644
0.239399
0.232619
0.226255
0.22027
0.214628
0.209301
0.204264
0.199498
0.194983
0.190707
0.186657
0.182824
0.179199
0.175778
0.172557
0.169535
0.166713
0.164096
0.161692
0.159517
0.15759
0.155972
0.154697
0.15378
0.153378
0.153677
0.155347
0.165015
0.176466
0.189989
0.205964
0.224892
0.247424
0.274407
0.306933
0.346393
0.39459
0.453861
0.526456
0.61368
0.714482
0.823408
0.929824
1.02103
1.08865
1.1324
1.15771
1.17113
1.17783
1.18106
1.18257
1.18326
1.18358
1.18372
1.18378
1.1838
1.18381
1.18382
1.18382
1.18382
1.18382
1.18382
1.18382
0.658526
0.6585
0.658456
0.658383
0.658261
0.658059
0.657727
0.657189
0.656326
0.654962
0.652846
0.649629
0.644857
0.637982
0.628411
0.615607
0.599232
0.579294
0.556227
0.530857
0.504237
0.47744
0.451372
0.426681
0.403743
0.382714
0.363588
0.346265
0.330589
0.316391
0.3035
0.291757
0.281022
0.271175
0.262113
0.253752
0.245999
0.238762
0.231987
0.225629
0.219648
0.21401
0.208688
0.203656
0.198894
0.194386
0.190116
0.186074
0.18225
0.178636
0.175228
0.172022
0.169017
0.166214
0.163619
0.16124
0.159091
0.157192
0.155609
0.154358
0.153456
0.153036
0.153235
0.157717
0.167749
0.179659
0.193745
0.210406
0.230171
0.253728
0.281972
0.316055
0.357434
0.408038
0.470228
0.546069
0.636442
0.739434
0.848418
0.951986
1.03801
1.09991
1.139
1.16123
1.17288
1.17866
1.18144
1.18275
1.18334
1.18361
1.18373
1.18378
1.1838
1.18381
1.18382
1.18382
1.18382
1.18382
1.18382
1.18382
0.658526
0.6585
0.658455
0.658381
0.658258
0.658053
0.657718
0.657173
0.656299
0.65492
0.652779
0.649525
0.6447
0.637752
0.628086
0.615168
0.598665
0.578596
0.555412
0.529948
0.503267
0.476441
0.450372
0.425701
0.402796
0.381807
0.362723
0.34544
0.329803
0.315638
0.302776
0.291059
0.280347
0.270519
0.261475
0.253129
0.245385
0.238157
0.231389
0.225037
0.219062
0.21343
0.208112
0.203086
0.19833
0.193828
0.189567
0.185533
0.181719
0.178118
0.174723
0.171533
0.168546
0.165764
0.163192
0.160838
0.158716
0.156847
0.155293
0.154058
0.15315
0.15269
0.1528
0.159979
0.170355
0.182699
0.197316
0.214626
0.235184
0.259713
0.289155
0.324716
0.367922
0.420811
0.485729
0.564537
0.657654
0.762308
0.87082
0.971287
1.05239
1.10922
1.14437
1.16407
1.17428
1.17933
1.18175
1.18289
1.1834
1.18364
1.18374
1.18379
1.18381
1.18382
1.18382
1.18382
1.18382
1.18382
1.18382
1.18382
0.658526
0.658499
0.658455
0.65838
0.658255
0.658048
0.657709
0.657158
0.656274
0.65488
0.652715
0.649426
0.644551
0.637534
0.627779
0.614752
0.598127
0.577935
0.554638
0.529086
0.502346
0.475493
0.449423
0.424771
0.401898
0.380947
0.361904
0.34466
0.329059
0.314928
0.302095
0.290403
0.279713
0.269904
0.260877
0.252545
0.244813
0.237593
0.230834
0.224489
0.218519
0.212893
0.207582
0.202561
0.197812
0.193318
0.189065
0.185041
0.181239
0.17765
0.17427
0.171098
0.168131
0.165373
0.16283
0.160509
0.158426
0.1566
0.155104
0.15392
0.153073
0.152675
0.152838
0.161828
0.17262
0.185428
0.20058
0.218521
0.239835
0.265284
0.295855
0.332804
0.377728
0.432757
0.500185
0.581658
0.677118
0.782961
0.890606
0.987896
1.06444
1.11687
1.14871
1.16634
1.1754
1.17987
1.182
1.183
1.18345
1.18366
1.18375
1.18379
1.18381
1.18382
1.18382
1.18382
1.18382
1.18382
1.18382
1.18382
0.658526
0.658499
0.658454
0.658378
0.658252
0.658043
0.6577
0.657144
0.656251
0.654842
0.652656
0.649335
0.644413
0.637331
0.627492
0.614363
0.597625
0.577317
0.553916
0.528281
0.501487
0.474608
0.448539
0.423905
0.401062
0.380147
0.361142
0.343936
0.328369
0.314269
0.301464
0.289796
0.279127
0.269338
0.260327
0.25201
0.244288
0.237078
0.230326
0.223988
0.218026
0.212406
0.207101
0.202087
0.197345
0.192859
0.188614
0.1846
0.180809
0.177233
0.173869
0.170715
0.16777
0.165038
0.162526
0.160246
0.158214
0.156467
0.155066
0.153981
0.153331
0.153223
0.153837
0.163338
0.174591
0.187872
0.203544
0.222082
0.244103
0.270407
0.302021
0.340251
0.386767
0.443763
0.513461
0.597287
0.694704
0.801336
0.907849
1.00203
1.07448
1.12312
1.15222
1.16816
1.1763
1.18029
1.1822
1.18309
1.18349
1.18368
1.18376
1.18379
1.18381
1.18382
1.18382
1.18382
1.18382
1.18382
1.18382
1.18382
0.658526
0.658499
0.658453
0.658377
0.658249
0.658039
0.657693
0.657131
0.65623
0.654808
0.652602
0.649251
0.644286
0.637145
0.627229
0.614007
0.597164
0.57675
0.553253
0.527543
0.5007
0.473799
0.44773
0.423113
0.400299
0.379418
0.360448
0.343276
0.327742
0.313671
0.300892
0.289247
0.278598
0.268825
0.25983
0.251528
0.243816
0.236614
0.22987
0.22354
0.217584
0.211971
0.206672
0.201665
0.19693
0.192451
0.188215
0.184211
0.180431
0.176867
0.173518
0.170379
0.167454
0.164745
0.162261
0.160014
0.158026
0.15635
0.155024
0.154047
0.153563
0.153719
0.155126
0.164916
0.1765
0.19016
0.206274
0.225335
0.247986
0.275057
0.307612
0.347
0.394961
0.453733
0.525448
0.611312
0.710331
0.817429
0.922667
1.01393
1.08276
1.1282
1.15504
1.16961
1.17701
1.18063
1.18236
1.18316
1.18353
1.18369
1.18377
1.1838
1.18381
1.18382
1.18382
1.18382
1.18382
1.18382
1.18382
1.18382
0.658526
0.658498
0.658452
0.658375
0.658247
0.658035
0.657686
0.65712
0.656212
0.654778
0.652554
0.649175
0.644171
0.636977
0.626992
0.613685
0.596749
0.57624
0.552658
0.52688
0.499994
0.473074
0.447006
0.422406
0.399617
0.378767
0.359829
0.342688
0.327183
0.313139
0.300383
0.288759
0.278128
0.268372
0.259392
0.251102
0.243399
0.236206
0.22947
0.223146
0.217197
0.21159
0.206298
0.201297
0.196569
0.192097
0.187869
0.183874
0.180103
0.17655
0.173212
0.170087
0.167176
0.164484
0.162017
0.15979
0.157822
0.156173
0.154868
0.153906
0.153427
0.153563
0.156427
0.166442
0.17829
0.192261
0.208748
0.228259
0.251459
0.279203
0.312588
0.352999
0.402243
0.462581
0.53605
0.623651
0.723957
0.831277
0.935207
1.02382
1.08953
1.1323
1.1573
1.17076
1.17757
1.1809
1.18248
1.18322
1.18355
1.1837
1.18377
1.1838
1.18381
1.18382
1.18382
1.18382
1.18382
1.18382
1.18382
1.18382
0.658526
0.658498
0.658452
0.658374
0.658245
0.658031
0.65768
0.657109
0.656195
0.654751
0.652511
0.649109
0.644071
0.63683
0.626784
0.613404
0.596385
0.575794
0.552136
0.526301
0.499377
0.472441
0.446375
0.421789
0.399023
0.3782
0.35929
0.342177
0.326698
0.312677
0.299942
0.288336
0.277722
0.26798
0.259013
0.250735
0.243041
0.235855
0.229126
0.222809
0.216866
0.211265
0.205978
0.200984
0.196262
0.191797
0.187576
0.183588
0.179825
0.176282
0.172954
0.169839
0.166939
0.164257
0.161801
0.159583
0.15762
0.155967
0.154649
0.153653
0.1531
0.153094
0.157618
0.16782
0.179887
0.194121
0.210923
0.230818
0.254488
0.282811
0.316912
0.358208
0.408561
0.470243
0.545208
0.634257
0.735577
0.842952
0.945627
1.03191
1.095
1.13557
1.15909
1.17167
1.17802
1.18111
1.18258
1.18326
1.18357
1.18371
1.18377
1.1838
1.18381
1.18382
1.18382
1.18382
1.18382
1.18382
1.18382
1.18382
0.658526
0.658498
0.658451
0.658373
0.658243
0.658028
0.657675
0.657101
0.656181
0.654728
0.652475
0.649052
0.643985
0.636705
0.626607
0.613164
0.596076
0.575415
0.551695
0.52581
0.498855
0.471905
0.445841
0.421268
0.398522
0.377722
0.358837
0.341747
0.32629
0.312289
0.299572
0.287982
0.277382
0.267653
0.258697
0.250429
0.242742
0.235563
0.22884
0.222529
0.216591
0.210996
0.205714
0.200725
0.196009
0.19155
0.187335
0.183354
0.179599
0.176063
0.172744
0.169638
0.166747
0.164075
0.161628
0.159418
0.157462
0.155811
0.154494
0.153492
0.152927
0.152903
0.158644
0.168999
0.181248
0.1957
0.212766
0.232982
0.257045
0.285853
0.320554
0.362591
0.413877
0.476685
0.552889
0.643116
0.745218
0.852546
0.954086
1.03839
1.09933
1.13815
1.16049
1.17238
1.17836
1.18127
1.18265
1.18329
1.18359
1.18372
1.18378
1.1838
1.18381
1.18382
1.18382
1.18382
1.18382
1.18382
1.18382
1.18382
0.658526
0.658498
0.658451
0.658373
0.658242
0.658026
0.657671
0.657094
0.65617
0.65471
0.652445
0.649007
0.643916
0.636603
0.626463
0.61297
0.595825
0.575107
0.551337
0.525413
0.498433
0.471473
0.44541
0.420847
0.398117
0.377336
0.358471
0.341401
0.325962
0.311977
0.299274
0.287698
0.277109
0.26739
0.258444
0.250184
0.242504
0.235331
0.228613
0.222307
0.216374
0.210783
0.205506
0.200522
0.19581
0.191356
0.187147
0.183172
0.179424
0.175895
0.172583
0.169486
0.166603
0.16394
0.161502
0.159301
0.157354
0.155712
0.154403
0.153408
0.152849
0.15284
0.159433
0.169928
0.182334
0.196969
0.214251
0.234727
0.259108
0.288308
0.323493
0.36613
0.41817
0.481883
0.559074
0.650226
0.752912
0.860144
0.960725
1.04343
1.10267
1.14012
1.16156
1.17292
1.17863
1.1814
1.18271
1.18332
1.1836
1.18372
1.18378
1.1838
1.18381
1.18382
1.18382
1.18382
1.18382
1.18382
1.18382
1.18382
0.658526
0.658498
0.658451
0.658372
0.658241
0.658024
0.657668
0.657089
0.656161
0.654696
0.652423
0.648972
0.643864
0.636526
0.626354
0.612823
0.595635
0.574874
0.551065
0.525112
0.498114
0.471145
0.445084
0.420529
0.397812
0.377045
0.358195
0.34114
0.325714
0.311742
0.299051
0.287484
0.276904
0.267194
0.258255
0.250002
0.242327
0.235158
0.228445
0.222142
0.216213
0.210626
0.205353
0.200372
0.195665
0.191215
0.187011
0.183041
0.179298
0.175776
0.17247
0.16938
0.166505
0.16385
0.16142
0.159227
0.157288
0.155654
0.15435
0.153357
0.152795
0.152771
0.159984
0.170606
0.183144
0.197924
0.215374
0.236051
0.260674
0.290171
0.325723
0.368815
0.421425
0.48582
0.563752
0.655587
0.758689
0.865814
0.965646
1.04715
1.10512
1.14157
1.16234
1.17332
1.17882
1.18149
1.18275
1.18334
1.18361
1.18373
1.18378
1.1838
1.18381
1.18382
1.18382
1.18382
1.18382
1.18382
1.18382
1.18382
0.658526
0.658498
0.658451
0.658372
0.65824
0.658023
0.657665
0.657085
0.656155
0.654686
0.652408
0.648949
0.643828
0.636474
0.626282
0.612724
0.595508
0.574719
0.550884
0.524911
0.4979
0.470926
0.444866
0.420317
0.397608
0.376851
0.358011
0.340965
0.325549
0.311585
0.298901
0.287341
0.276768
0.267063
0.25813
0.249881
0.24221
0.235045
0.228334
0.222034
0.216108
0.210523
0.205253
0.200276
0.195571
0.191125
0.186924
0.182959
0.17922
0.175702
0.172402
0.169317
0.166449
0.1638
0.161377
0.159192
0.15726
0.155635
0.154337
0.153349
0.152789
0.152767
0.160364
0.17107
0.183698
0.198578
0.216142
0.236954
0.26174
0.291437
0.327235
0.370634
0.423628
0.488479
0.566906
0.659192
0.76256
0.869594
0.968906
1.0496
1.10673
1.14252
1.16285
1.17358
1.17895
1.18155
1.18278
1.18335
1.18361
1.18373
1.18378
1.1838
1.18381
1.18382
1.18382
1.18382
1.18382
1.18382
1.18382
1.18382
0.658526
0.658498
0.65845
0.658372
0.65824
0.658022
0.657664
0.657084
0.656152
0.654682
0.652401
0.648937
0.643811
0.63645
0.626247
0.612677
0.595447
0.574644
0.550797
0.524814
0.497797
0.47082
0.44476
0.420213
0.397508
0.376756
0.35792
0.340879
0.325467
0.311507
0.298828
0.287271
0.276701
0.266999
0.258068
0.249822
0.242153
0.234989
0.22828
0.221982
0.216057
0.210474
0.205205
0.200229
0.195527
0.191083
0.186884
0.18292
0.179184
0.17567
0.172373
0.169291
0.166427
0.163782
0.161365
0.159184
0.157258
0.155639
0.154346
0.153363
0.152804
0.152779
0.160561
0.171315
0.18399
0.19892
0.216541
0.23742
0.262287
0.292082
0.328001
0.371549
0.42473
0.489803
0.568467
0.660966
0.764451
0.871427
0.970473
1.05076
1.10749
1.14297
1.1631
1.1737
1.17901
1.18158
1.18279
1.18336
1.18362
1.18373
1.18378
1.1838
1.18381
1.18382
1.18382
1.18382
1.18382
1.18382
1.18382
1.18382
0.658526
0.658498
0.65845
0.658372
0.65824
0.658022
0.657664
0.657084
0.656152
0.654682
0.652401
0.648937
0.643811
0.636449
0.626246
0.612676
0.595446
0.574643
0.550796
0.524812
0.497795
0.470819
0.444759
0.420212
0.397507
0.376754
0.357919
0.340878
0.325466
0.311507
0.298827
0.287271
0.2767
0.266998
0.258068
0.249822
0.242152
0.234989
0.22828
0.221982
0.216057
0.210474
0.205205
0.200229
0.195526
0.191082
0.186883
0.18292
0.179184
0.175669
0.172372
0.169291
0.166426
0.163782
0.161364
0.159184
0.157258
0.155639
0.154346
0.153363
0.152804
0.152778
0.160561
0.171316
0.183992
0.198922
0.216543
0.237422
0.262289
0.292085
0.328005
0.371554
0.424736
0.48981
0.568475
0.660976
0.764463
0.871439
0.970484
1.05077
1.1075
1.14297
1.1631
1.1737
1.17901
1.18158
1.18279
1.18336
1.18362
1.18373
1.18378
1.1838
1.18381
1.18382
1.18382
1.18382
1.18382
1.18382
1.18382
1.18382
0.658526
0.658498
0.658451
0.658372
0.65824
0.658023
0.657665
0.657085
0.656155
0.654686
0.652408
0.648948
0.643827
0.636473
0.62628
0.612722
0.595505
0.574715
0.55088
0.524907
0.497896
0.470922
0.444862
0.420313
0.397604
0.376848
0.358008
0.340962
0.325546
0.311582
0.298899
0.287339
0.276766
0.267061
0.258128
0.24988
0.242208
0.235043
0.228333
0.222033
0.216107
0.210522
0.205252
0.200274
0.19557
0.191124
0.186923
0.182957
0.179218
0.175701
0.172401
0.169316
0.166448
0.163799
0.161376
0.159191
0.157259
0.155634
0.154336
0.153349
0.152789
0.152767
0.160366
0.171074
0.183702
0.198583
0.216148
0.23696
0.261748
0.291447
0.327247
0.370648
0.423646
0.488502
0.566933
0.659225
0.762596
0.86963
0.968937
1.04962
1.10675
1.14253
1.16286
1.17358
1.17895
1.18155
1.18278
1.18335
1.18361
1.18373
1.18378
1.1838
1.18381
1.18382
1.18382
1.18382
1.18382
1.18382
1.18382
1.18382
0.658526
0.658498
0.658451
0.658372
0.658241
0.658024
0.657667
0.657089
0.656161
0.654695
0.652422
0.648971
0.643862
0.636524
0.626352
0.612819
0.59563
0.574869
0.551059
0.525105
0.498107
0.471138
0.445077
0.420523
0.397806
0.37704
0.35819
0.341135
0.32571
0.311738
0.299047
0.28748
0.276901
0.267191
0.258252
0.249999
0.242324
0.235156
0.228442
0.22214
0.216211
0.210623
0.20535
0.20037
0.195663
0.191213
0.187009
0.183039
0.179296
0.175773
0.172468
0.169378
0.166503
0.163848
0.161418
0.159226
0.157287
0.155653
0.154349
0.153357
0.152794
0.152771
0.15999
0.170613
0.183152
0.197933
0.215385
0.236063
0.260688
0.290188
0.325743
0.36884
0.421456
0.485858
0.563799
0.655642
0.758751
0.865876
0.965699
1.04719
1.10515
1.14158
1.16235
1.17332
1.17882
1.18149
1.18275
1.18334
1.18361
1.18373
1.18378
1.1838
1.18381
1.18382
1.18382
1.18382
1.18382
1.18382
1.18382
1.18382
0.658526
0.658498
0.658451
0.658373
0.658242
0.658026
0.657671
0.657094
0.656169
0.654709
0.652444
0.649005
0.643914
0.6366
0.626459
0.612965
0.595819
0.575099
0.551328
0.525403
0.498423
0.471463
0.4454
0.420838
0.398109
0.377329
0.358464
0.341394
0.325956
0.311971
0.299269
0.287693
0.277104
0.267386
0.25844
0.25018
0.2425
0.235327
0.228609
0.222303
0.21637
0.210779
0.205503
0.200518
0.195807
0.191353
0.187144
0.183169
0.17942
0.175892
0.17258
0.169483
0.1666
0.163937
0.161499
0.159298
0.157351
0.15571
0.154401
0.153406
0.152849
0.15284
0.159442
0.169939
0.182347
0.196983
0.214266
0.234745
0.259129
0.288333
0.323523
0.366167
0.418215
0.481937
0.559141
0.650304
0.752999
0.86023
0.9608
1.04349
1.10271
1.14014
1.16157
1.17293
1.17863
1.1814
1.18271
1.18332
1.1836
1.18372
1.18378
1.1838
1.18381
1.18382
1.18382
1.18382
1.18382
1.18382
1.18382
1.18382
0.658526
0.658498
0.658451
0.658373
0.658243
0.658028
0.657675
0.657101
0.656181
0.654728
0.652474
0.649051
0.643983
0.636701
0.626602
0.613157
0.596067
0.575404
0.551683
0.525797
0.498843
0.471893
0.445829
0.421256
0.398511
0.377712
0.358828
0.341739
0.326282
0.312282
0.299565
0.287976
0.277375
0.267647
0.258691
0.250424
0.242737
0.235558
0.228835
0.222524
0.216587
0.210991
0.20571
0.200721
0.196005
0.191546
0.187331
0.18335
0.179595
0.17606
0.17274
0.169635
0.166744
0.164072
0.161625
0.159415
0.157459
0.155809
0.154492
0.153491
0.152925
0.152901
0.158654
0.169012
0.181263
0.195718
0.212786
0.233006
0.257073
0.285886
0.320593
0.362639
0.413935
0.476757
0.552976
0.643218
0.74533
0.852658
0.954184
1.03847
1.09938
1.13817
1.1605
1.17239
1.17837
1.18127
1.18265
1.18329
1.18359
1.18372
1.18378
1.1838
1.18381
1.18382
1.18382
1.18382
1.18382
1.18382
1.18382
1.18382
0.658526
0.658498
0.658452
0.658374
0.658245
0.658031
0.65768
0.657109
0.656195
0.65475
0.65251
0.649107
0.644068
0.636825
0.626778
0.613395
0.596374
0.575781
0.552122
0.526285
0.499361
0.472425
0.446359
0.421774
0.39901
0.378187
0.359279
0.342167
0.326688
0.312668
0.299933
0.288328
0.277714
0.267973
0.259006
0.250729
0.243035
0.235849
0.22912
0.222803
0.21686
0.211259
0.205973
0.200978
0.196256
0.191792
0.187571
0.183583
0.179821
0.176277
0.172949
0.169835
0.166935
0.164254
0.161798
0.15958
0.157617
0.155964
0.154646
0.15365
0.153096
0.153087
0.157632
0.167836
0.179906
0.194142
0.210948
0.230847
0.254522
0.282852
0.316961
0.358267
0.408633
0.470332
0.545315
0.634384
0.735717
0.843091
0.945749
1.032
1.09506
1.13561
1.1591
1.17168
1.17802
1.18111
1.18258
1.18326
1.18357
1.18371
1.18377
1.1838
1.18381
1.18382
1.18382
1.18382
1.18382
1.18382
1.18382
1.18382
0.658526
0.658498
0.658452
0.658375
0.658247
0.658034
0.657686
0.657119
0.656211
0.654777
0.652552
0.649173
0.644167
0.636972
0.626985
0.613676
0.596736
0.576226
0.552641
0.526862
0.499975
0.473055
0.446988
0.422388
0.399601
0.378752
0.359815
0.342675
0.327171
0.313128
0.300373
0.288749
0.278119
0.268363
0.259383
0.251094
0.243392
0.236198
0.229462
0.223139
0.21719
0.211583
0.206291
0.201291
0.196563
0.192091
0.187863
0.183868
0.180097
0.176545
0.173207
0.170083
0.167172
0.16448
0.162013
0.159786
0.157818
0.156169
0.154863
0.153901
0.15342
0.153556
0.156451
0.166465
0.178314
0.192288
0.208778
0.228294
0.2515
0.279251
0.312645
0.353069
0.402328
0.462685
0.536176
0.6238
0.724122
0.831444
0.935355
1.02393
1.08961
1.13234
1.15732
1.17077
1.17758
1.1809
1.18248
1.18322
1.18355
1.1837
1.18377
1.1838
1.18381
1.18382
1.18382
1.18382
1.18382
1.18382
1.18382
1.18382
0.658526
0.658499
0.658453
0.658377
0.658249
0.658038
0.657692
0.65713
0.65623
0.654807
0.6526
0.649248
0.644281
0.637139
0.62722
0.613995
0.597149
0.576733
0.553233
0.527521
0.500678
0.473777
0.447709
0.423093
0.40028
0.3794
0.360432
0.343261
0.327728
0.313658
0.30088
0.289235
0.278587
0.268815
0.259821
0.251519
0.243807
0.236605
0.229862
0.223531
0.217576
0.211963
0.206664
0.201658
0.196923
0.192444
0.188208
0.184205
0.180424
0.176861
0.173512
0.170374
0.167449
0.16474
0.162257
0.160011
0.158023
0.156347
0.15502
0.154044
0.153562
0.153725
0.155151
0.164941
0.176526
0.190188
0.206306
0.225373
0.24803
0.275109
0.307675
0.347077
0.395056
0.45385
0.52559
0.611481
0.71052
0.817622
0.922841
1.01406
1.08285
1.12825
1.15506
1.16962
1.17701
1.18063
1.18236
1.18316
1.18353
1.18369
1.18377
1.1838
1.18381
1.18382
1.18382
1.18382
1.18382
1.18382
1.18382
1.18382
0.658526
0.658499
0.658454
0.658378
0.658252
0.658043
0.6577
0.657143
0.656251
0.654841
0.652654
0.649331
0.644408
0.637324
0.627483
0.61435
0.597609
0.577298
0.553893
0.528256
0.501462
0.474583
0.448515
0.423882
0.401041
0.380127
0.361124
0.343918
0.328353
0.314254
0.30145
0.289783
0.279115
0.269326
0.260315
0.252
0.244278
0.237067
0.230316
0.223978
0.218016
0.212397
0.207092
0.202078
0.197337
0.19285
0.188606
0.184593
0.180802
0.177226
0.173863
0.170709
0.167764
0.165033
0.162521
0.160241
0.15821
0.156464
0.155064
0.153981
0.153333
0.153231
0.15385
0.163355
0.174614
0.1879
0.203578
0.222122
0.244151
0.270464
0.30209
0.340335
0.38687
0.44389
0.513616
0.597473
0.694915
0.801555
0.908049
1.00219
1.07458
1.12318
1.15225
1.16817
1.1763
1.1803
1.1822
1.18309
1.1835
1.18368
1.18376
1.18379
1.18381
1.18382
1.18382
1.18382
1.18382
1.18382
1.18382
1.18382
0.658526
0.658499
0.658455
0.65838
0.658255
0.658048
0.657708
0.657157
0.656273
0.654878
0.652713
0.649423
0.644546
0.637526
0.627768
0.614737
0.598109
0.577913
0.554613
0.529059
0.502318
0.475465
0.449396
0.424745
0.401874
0.380924
0.361883
0.344641
0.329041
0.314911
0.302079
0.290388
0.279699
0.269891
0.260864
0.252533
0.244801
0.237582
0.230822
0.224478
0.218509
0.212883
0.207572
0.202552
0.197803
0.193309
0.189056
0.185032
0.18123
0.177642
0.174262
0.17109
0.168124
0.165366
0.162823
0.160503
0.15842
0.156596
0.155101
0.153919
0.153075
0.15268
0.152845
0.161845
0.172644
0.185458
0.200617
0.218564
0.239886
0.265346
0.295929
0.332894
0.377839
0.432894
0.500353
0.58186
0.677349
0.783205
0.890833
0.988077
1.06457
1.11694
1.14875
1.16636
1.17541
1.17987
1.182
1.183
1.18346
1.18366
1.18375
1.18379
1.18381
1.18382
1.18382
1.18382
1.18382
1.18382
1.18382
1.18382
0.658526
0.6585
0.658455
0.658381
0.658258
0.658053
0.657717
0.657172
0.656298
0.654918
0.652776
0.649521
0.644694
0.637743
0.628074
0.615152
0.598645
0.578572
0.555384
0.529918
0.503236
0.47641
0.450342
0.425671
0.402769
0.381781
0.3627
0.345418
0.329782
0.315619
0.302759
0.291043
0.280331
0.270504
0.26146
0.253115
0.245372
0.238144
0.231377
0.225025
0.21905
0.213418
0.208101
0.203075
0.198319
0.193818
0.189556
0.185523
0.18171
0.178108
0.174714
0.171524
0.168538
0.165756
0.163185
0.160831
0.158709
0.156842
0.15529
0.154056
0.15315
0.152691
0.152798
0.159997
0.170381
0.18273
0.197354
0.214671
0.235237
0.259777
0.289232
0.32481
0.368038
0.420955
0.485907
0.564753
0.657905
0.762576
0.871077
0.971497
1.05253
1.10931
1.14441
1.16409
1.17429
1.17934
1.18176
1.18289
1.18341
1.18364
1.18374
1.18379
1.18381
1.18382
1.18382
1.18382
1.18382
1.18382
1.18382
1.18382
0.658526
0.6585
0.658456
0.658383
0.658261
0.658059
0.657727
0.657188
0.656324
0.65496
0.652843
0.649625
0.64485
0.637972
0.628398
0.615589
0.59921
0.579267
0.556196
0.530823
0.504203
0.477406
0.451339
0.426648
0.403713
0.382685
0.363562
0.34624
0.330567
0.31637
0.30348
0.291738
0.281004
0.271158
0.262097
0.253737
0.245984
0.238747
0.231973
0.225615
0.219635
0.213997
0.208675
0.203643
0.198882
0.194374
0.190105
0.186063
0.182239
0.178626
0.175218
0.172012
0.169007
0.166205
0.16361
0.161232
0.159083
0.157184
0.155601
0.15435
0.153447
0.153026
0.153221
0.157749
0.167783
0.179697
0.193788
0.210457
0.23023
0.253797
0.282055
0.316155
0.357557
0.40819
0.470416
0.546299
0.636712
0.739729
0.848707
0.952229
1.03818
1.10002
1.13906
1.16126
1.17289
1.17867
1.18145
1.18275
1.18334
1.18361
1.18373
1.18378
1.1838
1.18381
1.18382
1.18382
1.18382
1.18382
1.18382
1.18382
0.658526
0.6585
0.658457
0.658385
0.658264
0.658065
0.657737
0.657205
0.656352
0.655005
0.652914
0.649735
0.645016
0.638214
0.628737
0.616047
0.599799
0.57999
0.55704
0.531763
0.505205
0.478437
0.45237
0.427659
0.404689
0.383621
0.364455
0.347092
0.33138
0.31715
0.30423
0.292462
0.281707
0.271842
0.262764
0.254389
0.246627
0.239383
0.232603
0.22624
0.220255
0.214613
0.209287
0.204251
0.199484
0.19497
0.190695
0.186645
0.182812
0.179188
0.175767
0.172546
0.169524
0.166703
0.164086
0.161683
0.159507
0.157581
0.155964
0.154689
0.153773
0.153375
0.153685
0.155385
0.165052
0.176506
0.190033
0.206015
0.224952
0.247495
0.274493
0.307037
0.34652
0.394749
0.454059
0.526698
0.613969
0.714803
0.823731
0.930106
1.02124
1.08878
1.13247
1.15774
1.17114
1.17783
1.18106
1.18257
1.18326
1.18358
1.18372
1.18378
1.1838
1.18381
1.18382
1.18382
1.18382
1.18382
1.18382
1.18382
0.658526
0.658501
0.658458
0.658387
0.658268
0.658071
0.657748
0.657223
0.656382
0.655053
0.65299
0.64985
0.645189
0.638465
0.629089
0.61652
0.600406
0.580733
0.557905
0.532723
0.506227
0.479487
0.453419
0.428685
0.405679
0.384569
0.36536
0.347955
0.332206
0.317941
0.304992
0.2932
0.282424
0.272541
0.263449
0.255061
0.24729
0.24004
0.233255
0.226889
0.2209
0.215256
0.209926
0.204887
0.200116
0.195598
0.191317
0.18726
0.183419
0.179784
0.176351
0.173116
0.170076
0.167234
0.164592
0.162157
0.159942
0.157964
0.156256
0.154873
0.153793
0.153119
0.152935
0.153351
0.162489
0.173374
0.186258
0.201491
0.219536
0.241003
0.266684
0.29761
0.335099
0.380841
0.437092