/*--------------------------------*- C++ -*----------------------------------*\
  =========                 |
  \\      /  F ield         | OpenFOAM: The Open Source CFD Toolbox
   \\    /   O peration     | Website:  https://openfoam.org
    \\  /    A nd           | Version:  8
     \\/     M anipulation  |
\*---------------------------------------------------------------------------*/
FoamFile
{
    version     2.0;
    format      ascii;
    class       volScalarField;
    location    "240/fluid";
    object      T;
}
// * * * * * * * * * * * * * * * * * * * * * * * * * * * * * * * * * * * * * //

dimensions      [0 0 0 1 0 0 0];

internalField   nonuniform List<scalar> 
4000
(
293.003
293.014
293.033
293.064
293.116
293.201
293.342
293.57
293.937
294.522
295.441
296.862
299.019
302.226
306.877
313.439
322.414
334.281
349.426
368.073
390.252
415.811
444.458
475.826
509.536
545.238
582.636
621.491
661.619
702.88
745.168
788.395
832.487
877.367
922.956
969.161
1015.89
1063.19
1111.01
1159.31
1207.99
1257
1306.25
1355.66
1405.15
1454.63
1504
1553.18
1602.04
1650.48
1698.37
1745.58
1791.95
1837.33
1881.51
1924.27
1965.36
2004.46
2041.19
2075.05
2104.77
2130.85
2151.56
2165.47
2170.57
2101.68
1988.03
1868.08
1743.67
1616.41
1487.71
1358.86
1231.09
1105.6
983.671
866.469
755.159
651.784
558.914
479.168
414.764
366.748
334.242
314.401
303.414
297.864
295.205
293.978
293.426
293.183
293.078
293.033
293.014
293.006
293.002
293.001
293
293
293
293
293.003
293.015
293.034
293.065
293.118
293.206
293.35
293.585
293.963
294.566
295.51
296.968
299.175
302.444
307.17
313.812
322.865
334.796
349.982
368.644
390.813
416.344
444.955
476.291
509.983
545.685
583.104
622.003
662.195
703.539
745.927
789.268
833.484
878.499
924.229
970.58
1017.46
1064.91
1112.89
1161.34
1210.18
1259.34
1308.74
1358.3
1407.93
1457.54
1507.05
1556.34
1605.31
1653.85
1701.83
1749.11
1795.54
1840.94
1885.13
1927.87
1968.9
2007.89
2044.46
2078.1
2107.48
2133.28
2153.85
2167.87
2173.49
2086.59
1971.75
1850.48
1724.76
1596.22
1466.33
1336.39
1207.66
1081.41
958.973
841.527
730.479
628.177
537.374
460.749
400.321
356.59
327.927
310.93
301.705
297.083
294.865
293.835
293.367
293.159
293.068
293.029
293.012
293.005
293.002
293.001
293
293
293
293
293.003
293.015
293.035
293.067
293.122
293.212
293.361
293.603
293.992
294.611
295.581
297.074
299.329
302.662
307.466
314.2
323.352
335.384
350.664
369.403
391.632
417.204
445.843
477.2
510.914
546.65
584.117
623.084
663.366
704.823
747.346
790.843
835.236
880.444
926.382
972.953
1020.07
1067.76
1116
1164.71
1213.81
1263.23
1312.89
1362.7
1412.58
1462.44
1512.17
1561.68
1610.86
1659.58
1707.72
1755.14
1801.67
1847.14
1891.34
1934.04
1974.94
2013.7
2049.89
2082.88
2111.56
2136.35
2155.61
2168.22
2172.7
2063.64
1946.1
1822.52
1694.86
1564.74
1433.63
1302.83
1173.67
1047.46
925.614
809.302
700.246
601.003
514.298
442.557
387.258
348.174
323.078
308.403
300.489
296.524
294.617
293.726
293.321
293.139
293.06
293.025
293.011
293.004
293.002
293.001
293
293
293
293
293.004
293.015
293.035
293.069
293.125
293.217
293.369
293.616
294.014
294.646
295.633
297.153
299.445
302.826
307.693
314.503
323.745
335.877
351.26
370.105
392.434
418.102
446.831
478.277
512.081
547.912
585.484
624.568
664.983
706.592
749.285
792.973
837.577
883.014
929.199
976.03
1023.42
1071.41
1119.96
1168.99
1218.41
1268.15
1318.14
1368.27
1418.47
1468.63
1518.67
1568.46
1617.9
1666.86
1715.2
1762.8
1809.46
1855.02
1899.24
1941.88
1982.61
2021.05
2056.69
2088.43
2115.73
2138.24
2153.61
2159.51
2151.32
2036.52
1915.02
1788.62
1658.92
1527.4
1395.42
1264.3
1135.35
1009.96
889.488
775.155
668.956
573.517
491.434
424.826
374.648
340.047
318.339
305.877
299.244
295.939
294.35
293.608
293.269
293.118
293.051
293.022
293.009
293.004
293.002
293.001
293
293
293
293
293.004
293.016
293.036
293.07
293.127
293.222
293.377
293.629
294.034
294.677
295.683
297.228
299.557
302.989
307.921
314.814
324.155
336.398
351.903
370.871
393.325
419.114
447.962
479.524
513.447
549.401
587.106
626.334
666.909
708.694
751.582
795.484
840.321
886.011
932.464
979.578
1027.27
1075.59
1124.47
1173.84
1223.62
1273.73
1324.07
1374.56
1425.11
1475.62
1525.98
1576.08
1625.81
1675.04
1723.62
1771.4
1818.21
1863.86
1908.12
1950.71
1991.32
2029.53
2064.85
2095.81
2122.23
2143.68
2157.62
2161.41
2118.24
2001.86
1878.64
1750.69
1619.8
1487.5
1355.23
1224.32
1096.13
972.093
853.475
741.632
638.801
547.573
470.366
408.932
363.681
333.188
314.44
303.836
298.247
295.47
294.137
293.513
293.228
293.1
293.043
293.018
293.008
293.003
293.001
293.001
293
293
293
293
293.004
293.016
293.037
293.071
293.129
293.225
293.383
293.639
294.051
294.705
295.726
297.295
299.656
303.134
308.128
315.101
324.54
336.9
352.534
371.643
394.241
420.175
449.166
480.872
514.939
551.041
588.901
628.294
669.046
711.023
754.121
798.25
843.332
889.284
936.016
983.422
1031.43
1080.08
1129.31
1179.04
1229.18
1279.65
1330.36
1381.23
1432.14
1483
1533.7
1584.12
1634.14
1683.63
1732.43
1780.4
1827.34
1873.06
1917.31
1959.82
2000.24
2038.16
2073.08
2103.5
2129.75
2151.45
2166.68
2173.95
2084.16
1966.14
1841.38
1712.17
1580.4
1447.68
1315.46
1185.12
1058.05
935.66
819.138
710.056
610.785
523.838
451.42
394.9
354.166
327.318
311.127
302.102
297.396
295.068
293.952
293.43
293.191
293.084
293.036
293.016
293.007
293.003
293.001
293
293
293
293
293
293.004
293.016
293.037
293.073
293.131
293.229
293.389
293.649
294.068
294.731
295.767
297.358
299.752
303.275
308.331
315.384
324.923
337.402
353.171
372.426
395.178
421.267
450.415
482.278
516.502
552.765
590.791
630.36
671.299
713.478
756.791
801.153
846.484
892.7
939.71
987.406
1035.73
1084.71
1134.28
1184.36
1234.86
1285.7
1336.78
1388
1439.26
1490.47
1541.49
1592.22
1642.52
1692.26
1741.27
1789.4
1836.44
1882.18
1926.37
1968.69
2008.78
2046.16
2080.12
2109.48
2134.78
2154.11
2166.08
2168.79
2054.83
1933.1
1805.87
1675.1
1542.47
1409.47
1277.51
1147.95
1022.17
901.557
787.246
681.034
585.355
502.611
434.773
382.818
346.149
322.469
308.432
300.706
296.713
294.745
293.803
293.363
293.162
293.071
293.031
293.013
293.006
293.002
293.001
293
293
293
293
293
293.004
293.016
293.038
293.074
293.133
293.232
293.394
293.658
294.082
294.755
295.805
297.417
299.842
303.409
308.525
315.657
325.295
337.893
353.8
373.206
396.115
422.367
451.678
483.704
518.093
554.522
592.72
632.469
673.598
715.978
759.507
804.1
849.676
896.151
943.433
991.41
1040.04
1089.34
1139.24
1189.66
1240.5
1291.69
1343.11
1394.67
1446.28
1497.8
1549.13
1600.15
1650.71
1700.66
1749.86
1798.12
1845.24
1890.99
1935.1
1977.23
2016.97
2053.8
2086.49
2114.33
2137.31
2152.69
2157.65
2142.84
2025.08
1900.69
1771.66
1639.78
1506.61
1373.59
1242.1
1113.47
989.102
870.286
758.209
654.867
562.687
483.947
420.373
372.555
339.46
318.482
306.238
299.576
296.161
294.484
293.683
293.309
293.138
293.06
293.026
293.011
293.005
293.002
293.001
293
293
293
293
293
293.004
293.017
293.038
293.075
293.135
293.235
293.4
293.667
294.097
294.778
295.841
297.473
299.928
303.537
308.711
315.921
325.658
338.374
354.417
373.971
397.04
423.454
452.929
485.119
519.672
556.268
594.637
634.564
675.88
718.458
762.197
807.013
852.825
899.549
947.089
995.334
1044.25
1093.85
1144.07
1194.8
1245.97
1297.47
1349.22
1401.1
1453.01
1504.83
1556.44
1607.71
1658.49
1708.65
1758
1806.37
1853.55
1899.31
1943.36
1985.37
2024.93
2061.52
2093.78
2121.31
2144.08
2159.63
2165.9
2112.61
1993.89
1868.55
1738.79
1606.46
1473.2
1340.45
1209.61
1082.03
959.114
842.051
732.164
631.603
542.748
467.744
408.064
363.934
333.936
315.238
304.473
298.672
295.721
294.276
293.587
293.265
293.118
293.052
293.023
293.01
293.004
293.002
293.001
293
293
293
293
293
293.004
293.017
293.039
293.075
293.137
293.238
293.404
293.675
294.11
294.799
295.875
297.526
300.009
303.659
308.89
316.174
326.006
338.837
355.012
374.713
397.935
424.509
454.144
486.494
521.208
557.966
596.502
636.6
678.096
720.863
764.803
809.83
855.865
902.822
950.605
999.099
1048.28
1098.17
1148.67
1199.7
1251.16
1302.96
1355
1407.16
1459.35
1511.43
1563.28
1614.77
1665.75
1716.06
1765.53
1813.98
1861.18
1906.9
1950.85
1992.69
2032.02
2068.28
2100.14
2127.48
2150.33
2166.42
2173.81
2084.49
1964.98
1838.91
1708.61
1576.03
1442.8
1310.42
1180.29
1053.77
932.264
816.875
709.093
611.16
525.398
453.815
397.635
356.744
329.399
312.606
303.052
297.948
295.369
294.11
293.51
293.231
293.103
293.045
293.02
293.008
293.004
293.002
293.001
293
293
293
293
293
293.004
293.017
293.039
293.076
293.138
293.241
293.409
293.682
294.122
294.819
295.907
297.577
300.086
303.775
309.059
316.415
326.336
339.277
355.578
375.419
398.79
425.515
455.304
487.807
522.673
559.586
598.279
638.539
680.205
723.15
767.277
812.501
858.743
905.916
953.921
1002.65
1052.08
1102.22
1152.98
1204.27
1256
1308.07
1360.36
1412.78
1465.21
1517.52
1569.58
1621.26
1672.39
1722.82
1772.37
1820.84
1868.01
1913.62
1957.38
1998.93
2037.84
2073.6
2104.67
2131.33
2153.31
2168.47
2174.93
2062.22
1940.62
1813.13
1681.96
1548.95
1415.7
1283.65
1154.19
1028.68
908.478
794.656
688.852
593.355
510.426
441.932
388.857
350.781
325.688
310.477
301.913
297.371
295.089
293.977
293.449
293.203
293.09
293.04
293.017
293.007
293.003
293.001
293.001
293
293
293
293
293
293.004
293.017
293.04
293.077
293.14
293.243
293.413
293.689
294.133
294.838
295.937
297.623
300.158
303.883
309.217
316.639
326.646
339.689
356.109
376.081
399.59
426.458
456.39
489.036
524.046
561.102
599.941
640.352
682.173
725.282
769.581
814.985
861.415
908.785
956.992
1005.92
1055.58
1105.95
1156.94
1208.47
1260.44
1312.74
1365.26
1417.91
1470.54
1523.05
1575.29
1627.12
1678.38
1728.9
1778.49
1826.95
1874.05
1919.5
1962.99
2004.13
2042.44
2077.12
2106.82
2132.33
2151.42
2162.35
2162.34
2044.55
1919.97
1790.66
1658.46
1524.98
1391.69
1259.98
1131.16
1006.61
887.601
775.23
671.254
577.986
497.614
431.87
381.518
345.859
322.662
308.758
300.998
296.91
294.865
293.872
293.4
293.181
293.081
293.035
293.015
293.007
293.003
293.001
293
293
293
293
293
293
293.004
293.017
293.04
293.078
293.141
293.245
293.417
293.696
294.144
294.855
295.964
297.666
300.224
303.982
309.363
316.846
326.93
340.068
356.598
376.689
400.326
427.325
457.388
490.165
525.305
562.492
601.464
642.011
683.974
727.231
771.684
817.251
863.85
911.394
959.781
1008.9
1058.75
1109.32
1160.52
1212.26
1264.43
1316.93
1369.66
1422.49
1475.31
1527.99
1580.37
1632.33
1683.69
1734.27
1783.9
1832.34
1879.37
1924.67
1967.93
2008.72
2046.52
2080.17
2108.86
2132.87
2149.57
2156.72
2145.67
2026.18
1900.28
1770.08
1637.37
1503.71
1370.55
1239.22
1111.05
987.394
869.473
758.409
656.099
564.841
486.751
423.426
375.427
341.823
320.206
307.374
300.266
296.544
294.688
293.788
293.362
293.163
293.073
293.032
293.014
293.006
293.003
293.001
293
293
293
293
293
293
293.004
293.018
293.04
293.078
293.142
293.247
293.42
293.701
294.153
294.87
295.989
297.705
300.284
304.072
309.493
317.032
327.187
340.41
357.038
377.237
400.988
428.104
458.285
491.179
526.435
563.74
602.83
643.498
685.587
728.974
773.564
819.273
866.021
913.718
962.261
1011.54
1061.56
1112.31
1163.69
1215.61
1267.95
1320.63
1373.53
1426.52
1479.49
1532.31
1584.82
1636.88
1688.32
1738.96
1788.62
1837.06
1884.04
1929.27
1972.4
2013.03
2050.62
2083.89
2112.3
2136.08
2152.68
2160.06
2128.94
2008.62
1882.13
1751.56
1618.69
1485.08
1352.16
1221.28
1093.75
970.921
853.976
744.095
643.266
553.766
477.657
416.418
370.423
338.54
318.226
306.267
299.683
296.253
294.548
293.722
293.331
293.149
293.066
293.029
293.013
293.005
293.002
293.001
293
293
293
293
293
293
293.004
293.018
293.041
293.079
293.143
293.249
293.423
293.706
294.162
294.883
296.01
297.739
300.336
304.15
309.608
317.196
327.412
340.71
357.424
377.718
401.569
428.787
459.071
492.067
527.424
564.83
604.023
644.797
686.994
730.494
775.201
821.033
867.907
915.736
964.412
1013.83
1064
1114.9
1166.43
1218.49
1270.99
1323.81
1376.85
1429.98
1483.07
1536
1588.61
1640.75
1692.26
1742.96
1792.63
1841.08
1888.04
1933.23
1976.31
2016.88
2054.45
2087.84
2116.43
2140.68
2158.3
2167.64
2113.79
1992.98
1866.18
1735.46
1602.59
1469.14
1336.51
1206.07
1079.13
957.05
840.969
732.126
632.58
544.593
470.172
410.689
366.365
335.9
316.646
305.388
299.222
296.024
294.437
293.67
293.307
293.138
293.062
293.027
293.012
293.005
293.002
293.001
293
293
293
293
293
293
293.004
293.018
293.041
293.079
293.144
293.25
293.426
293.711
294.169
294.895
296.029
297.767
300.38
304.217
309.706
317.335
327.604
340.965
357.752
378.126
402.062
429.367
459.737
492.819
528.262
565.753
605.032
645.894
688.182
731.776
776.582
822.515
869.496
917.432
966.22
1015.75
1066.04
1117.06
1168.71
1220.9
1273.52
1326.46
1379.61
1432.84
1486.04
1539.05
1591.74
1643.95
1695.51
1746.23
1795.93
1844.37
1891.31
1936.46
1979.49
2020.01
2057.52
2090.91
2119.48
2143.81
2161.58
2171.11
2100.87
1979.76
1852.78
1722
1589.19
1455.91
1323.57
1193.53
1067.12
945.691
830.335
722.361
623.888
537.161
464.137
406.099
363.136
333.814
315.405
304.7
298.863
295.845
294.351
293.629
293.288
293.13
293.058
293.025
293.011
293.005
293.002
293.001
293
293
293
293
293
293
293.004
293.018
293.041
293.08
293.144
293.252
293.428
293.714
294.174
294.904
296.043
297.791
300.416
304.271
309.786
317.448
327.759
341.172
358.018
378.457
402.461
429.836
460.276
493.428
528.94
566.5
605.848
646.781
689.142
732.812
777.696
823.711
870.775
918.798
967.672
1017.29
1067.68
1118.79
1170.54
1222.82
1275.54
1328.57
1381.8
1435.12
1488.39
1541.47
1594.22
1646.47
1698.06
1748.8
1798.49
1846.91
1893.82
1938.92
1981.88
2022.31
2059.72
2092.99
2121.47
2145.69
2163.34
2172.61
2091.07
1969.48
1842.24
1711.35
1578.57
1445.42
1313.33
1183.62
1057.63
936.714
821.941
714.67
617.06
531.341
459.431
402.536
360.641
332.209
314.454
304.175
298.589
295.709
294.285
293.598
293.274
293.123
293.055
293.024
293.01
293.005
293.002
293.001
293
293
293
293
293
293
293.004
293.018
293.041
293.08
293.145
293.252
293.429
293.717
294.179
294.911
296.055
297.808
300.443
304.312
309.846
317.534
327.877
341.329
358.22
378.708
402.764
430.192
460.685
493.889
529.453
567.065
606.465
647.452
689.867
733.594
778.536
824.612
871.739
919.825
968.764
1018.45
1068.9
1120.09
1171.91
1224.26
1277.04
1330.14
1383.44
1436.81
1490.13
1543.26
1596.04
1648.31
1699.92
1750.66
1800.33
1848.73
1895.58
1940.62
1983.51
2023.85
2061.18
2094.35
2122.75
2146.93
2164.63
2174.03
2084.31
1962.07
1834.46
1703.42
1570.62
1437.57
1305.65
1176.2
1050.54
930.017
815.687
708.951
611.994
527.035
455.959
399.917
358.815
331.037
313.76
303.792
298.389
295.61
294.237
293.576
293.263
293.119
293.053
293.023
293.01
293.004
293.002
293.001
293
293
293
293
293
293
293.004
293.018
293.041
293.08
293.145
293.253
293.43
293.718
294.181
294.916
296.062
297.82
300.462
304.34
309.886
317.591
327.956
341.434
358.355
378.876
402.967
430.43
460.959
494.198
529.797
567.443
606.879
647.901
690.353
734.118
779.099
825.215
872.383
920.51
969.49
1019.22
1069.72
1120.95
1172.82
1225.21
1278.03
1331.17
1384.51
1437.92
1491.27
1544.42
1597.22
1649.5
1701.1
1751.83
1801.49
1849.85
1896.66
1941.64
1984.45
2024.72
2061.95
2095
2123.29
2147.39
2165.04
2174.39
2079.67
1957
1829.16
1698.02
1565.23
1432.25
1300.47
1171.21
1045.78
925.533
811.51
705.139
608.625
524.178
453.663
398.19
357.615
330.27
313.306
303.541
298.258
295.545
294.206
293.561
293.257
293.116
293.051
293.023
293.01
293.004
293.002
293.001
293
293
293
293
293
293
293.004
293.018
293.041
293.08
293.145
293.253
293.431
293.719
294.183
294.918
296.066
297.826
300.471
304.353
309.906
317.618
327.994
341.484
358.42
378.957
403.065
430.545
461.092
494.348
529.964
567.629
607.082
648.122
690.592
734.375
779.376
825.512
872.7
920.848
969.848
1019.59
1070.12
1121.37
1173.26
1225.68
1278.52
1331.68
1385.03
1438.46
1491.82
1544.98
1597.78
1650.07
1701.66
1752.38
1802.02
1850.35
1897.13
1942.06
1984.82
2025.02
2062.18
2095.13
2123.35
2147.38
2164.99
2174.37
2077.27
1954.34
1826.38
1695.21
1562.44
1429.52
1297.83
1168.68
1043.39
923.292
809.434
703.258
606.971
522.784
452.549
397.358
357.04
329.905
313.091
303.422
298.196
295.514
294.191
293.554
293.253
293.114
293.051
293.022
293.01
293.004
293.002
293.001
293
293
293
293
293
293
293.004
293.018
293.041
293.08
293.145
293.253
293.431
293.719
294.183
294.918
296.066
297.826
300.471
304.353
309.906
317.619
327.995
341.485
358.421
378.958
403.066
430.547
461.093
494.35
529.967
567.631
607.084
648.124
690.595
734.378
779.38
825.515
872.703
920.851
969.852
1019.6
1070.12
1121.38
1173.26
1225.68
1278.53
1331.68
1385.04
1438.46
1491.83
1544.99
1597.79
1650.07
1701.67
1752.39
1802.03
1850.36
1897.13
1942.07
1984.83
2025.03
2062.19
2095.13
2123.35
2147.38
2165
2174.37
2077.26
1954.33
1826.36
1695.19
1562.42
1429.51
1297.82
1168.67
1043.38
923.281
809.424
703.248
606.962
522.776
452.542
397.353
357.036
329.903
313.09
303.421
298.195
295.514
294.191
293.554
293.253
293.114
293.051
293.022
293.01
293.004
293.002
293.001
293
293
293
293
293
293
293.004
293.018
293.041
293.08
293.145
293.253
293.43
293.718
294.181
294.916
296.062
297.821
300.462
304.34
309.887
317.592
327.958
341.436
358.357
378.88
402.971
430.434
460.964
494.203
529.803
567.45
606.886
647.908
690.361
734.126
779.108
825.225
872.393
920.521
969.502
1019.23
1069.73
1120.96
1172.83
1225.23
1278.05
1331.19
1384.53
1437.94
1491.29
1544.44
1597.23
1649.52
1701.12
1751.85
1801.51
1849.87
1896.68
1941.66
1984.47
2024.73
2061.97
2095.01
2123.3
2147.4
2165.04
2174.39
2079.64
1956.96
1829.12
1697.98
1565.19
1432.21
1300.43
1171.17
1045.75
925.497
811.476
705.108
608.596
524.152
453.641
398.174
357.603
330.263
313.302
303.539
298.256
295.545
294.206
293.561
293.256
293.116
293.051
293.023
293.01
293.004
293.002
293.001
293
293
293
293
293
293
293.004
293.018
293.041
293.08
293.145
293.253
293.429
293.717
294.179
294.911
296.055
297.809
300.444
304.313
309.848
317.536
327.88
341.333
358.224
378.714
402.771
430.2
460.694
493.899
529.464
567.076
606.478
647.465
689.881
733.609
778.552
824.629
871.757
919.844
968.783
1018.47
1068.93
1120.11
1171.93
1224.29
1277.07
1330.16
1383.46
1436.84
1490.16
1543.29
1596.07
1648.35
1699.95
1750.69
1800.37
1848.76
1895.62
1940.65
1983.54
2023.88
2061.21
2094.37
2122.77
2146.94
2164.63
2174.03
2084.24
1961.99
1834.38
1703.34
1570.54
1437.5
1305.58
1176.13
1050.48
929.955
815.628
708.896
611.943
526.991
455.923
399.889
358.795
331.025
313.753
303.788
298.387
295.609
294.237
293.575
293.263
293.119
293.053
293.023
293.01
293.004
293.002
293.001
293
293
293
293
293
293
293.004
293.018
293.041
293.08
293.144
293.252
293.428
293.714
294.174
294.904
296.044
297.791
300.417
304.273
309.788
317.451
327.763
341.177
358.025
378.466
402.471
429.847
460.289
493.442
528.955
566.516
605.866
646.8
689.162
732.833
777.718
823.734
870.8
918.824
967.7
1017.32
1067.71
1118.82
1170.57
1222.86
1275.57
1328.6
1381.84
1435.16
1488.43
1541.51
1594.26
1646.51
1698.1
1748.84
1798.54
1846.96
1893.86
1938.96
1981.92
2022.35
2059.77
2093.03
2121.5
2145.72
2163.36
2172.61
2090.97
1969.37
1842.12
1711.24
1578.45
1445.31
1313.22
1183.52
1057.54
936.623
821.855
714.59
616.987
531.278
459.379
402.496
360.614
332.191
314.443
304.17
298.586
295.708
294.285
293.598
293.274
293.123
293.055
293.024
293.01
293.005
293.002
293.001
293
293
293
293
293
293
293.004
293.018
293.041
293.079
293.144
293.25
293.426
293.711
294.169
294.895
296.029
297.768
300.381
304.219
309.709
317.339
327.609
340.972
357.761
378.137
402.075
429.381
459.753
492.837
528.281
565.774
605.055
645.918
688.207
731.803
776.61
822.546
869.528
917.466
966.255
1015.78
1066.08
1117.1
1168.76
1220.94
1273.56
1326.51
1379.66
1432.89
1486.09
1539.11
1591.8
1644.01
1695.57
1746.29
1795.98
1844.42
1891.36
1936.51
1979.55
2020.06
2057.57
2090.95
2119.52
2143.84
2161.61
2171.15
2100.75
1979.63
1852.64
1721.86
1589.05
1455.76
1323.43
1193.4
1066.99
945.569
830.22
722.254
623.791
537.076
464.068
406.046
363.099
333.79
315.391
304.693
298.859
295.844
294.35
293.629
293.288
293.13
293.058
293.025
293.011
293.005
293.002
293.001
293
293
293
293
293
293
293.004
293.018
293.041
293.079
293.143
293.249
293.423
293.706
294.162
294.884
296.011
297.74
300.337
304.153
309.612
317.201
327.419
340.719
357.435
377.731
401.585
428.805
459.091
492.089
527.449
564.856
604.051
644.826
687.025
730.527
775.236
821.07
867.947
915.777
964.457
1013.87
1064.05
1114.95
1166.48
1218.55
1271.04
1323.87
1376.91
1430.04
1483.13
1536.06
1588.68
1640.82
1692.33
1743.02
1792.7
1841.14
1888.1
1933.29
1976.38
2016.94
2054.51
2087.9
2116.48
2140.73
2158.37
2167.74
2113.61
1992.8
1865.99
1735.28
1602.41
1468.96
1336.34
1205.9
1078.97
956.896
840.823
731.99
632.457
544.486
470.084
410.621
366.318
335.871
316.629
305.379
299.218
296.022
294.436
293.669
293.307
293.138
293.062
293.027
293.012
293.005
293.002
293.001
293
293
293
293
293
293
293.004
293.018
293.04
293.078
293.142
293.247
293.42
293.702
294.154
294.87
295.99
297.706
300.286
304.075
309.498
317.038
327.195
340.42
357.051
377.253
401.007
428.125
458.309
491.205
526.464
563.771
602.863
643.534
685.625
729.014
773.606
819.318
866.068
913.768
962.314
1011.59
1061.62
1112.37
1163.76
1215.67
1268.02
1320.7
1373.6
1426.6
1479.57
1532.38
1584.89
1636.95
1688.4
1739.04
1788.69
1837.13
1884.11
1929.34
1972.47
2013.1
2050.69
2083.97
2112.38
2136.17
2152.79
2160.18
2128.63
2008.36
1881.89
1751.32
1618.46
1484.86
1351.95
1221.07
1093.55
970.734
853.799
743.93
643.116
553.635
477.549
416.335
370.365
338.503
318.205
306.256
299.678
296.251
294.546
293.721
293.331
293.149
293.066
293.029
293.013
293.005
293.002
293.001
293
293
293
293
293
293
293.004
293.017
293.04
293.078
293.141
293.245
293.417
293.696
294.144
294.855
295.965
297.668
300.226
303.986
309.367
316.853
326.939
340.08
356.613
376.708
400.348
427.349
457.416
490.195
525.338
562.528
601.503
642.053
684.018
727.278
771.734
817.303
863.905
911.452
959.842
1008.96
1058.82
1109.39
1160.6
1212.34
1264.51
1317.02
1369.74
1422.58
1475.4
1528.07
1580.46
1632.42
1683.78
1734.36
1783.99
1832.43
1879.45
1924.76
1968.01
2008.8
2046.59
2080.24
2108.93
2132.93
2149.61
2156.67
2145.35
2025.9
1900.02
1769.83
1637.12
1503.47
1370.31
1238.99
1110.83
987.18
869.269
758.217
655.923
564.687
486.622
423.326
375.357
341.778
320.18
307.361
300.26
296.541
294.687
293.788
293.361
293.163
293.073
293.032
293.014
293.006
293.003
293.001
293
293
293
293
293
293
293.004
293.017
293.04
293.077
293.14
293.243
293.413
293.69
294.134
294.838
295.938
297.625
300.161
303.887
309.223
316.647
326.656
339.702
356.126
376.101
399.614
426.486
456.421
489.071
524.084
561.143
599.985
640.399
682.223
725.335
769.637
815.045
861.479
908.851
957.062
1006
1055.66
1106.03
1157.03
1208.56
1260.53
1312.83
1365.36
1418
1470.64
1523.15
1575.39
1627.22
1678.48
1729
1778.59
1827.05
1874.14
1919.59
1963.08
2004.22
2042.52
2077.19
2106.87
2132.36
2151.41
2162.25
2162.16
2044.35
1919.73
1790.4
1658.2
1524.72
1391.43
1259.72
1130.91
1006.36
887.369
775.011
671.052
577.808
497.464
431.754
381.434
345.806
322.631
308.742
300.99
296.906
294.864
293.871
293.4
293.181
293.08
293.035
293.015
293.007
293.003
293.001
293
293
293
293
293
293
293.004
293.017
293.039
293.076
293.138
293.241
293.409
293.683
294.122
294.82
295.908
297.578
300.089
303.779
309.065
316.423
326.348
339.292
355.597
375.442
398.817
425.547
455.339
487.846
522.716
559.633
598.329
638.593
680.261
723.21
767.34
812.568
858.814
905.991
954
1002.73
1052.16
1102.31
1153.07
1204.37
1256.1
1308.17
1360.47
1412.9
1465.32
1517.64
1569.7
1621.38
1672.51
1722.94
1772.49
1820.96
1868.13
1913.74
1957.49
1999.03
2037.94
2073.69
2104.73
2131.36
2153.3
2168.41
2174.84
2062.03
1940.37
1812.84
1681.66
1548.65
1415.4
1283.36
1153.91
1028.41
908.218
794.409
688.623
593.152
510.254
441.795
388.759
350.717
325.65
310.458
301.903
297.366
295.087
293.976
293.449
293.203
293.09
293.04
293.017
293.007
293.003
293.001
293.001
293
293
293
293
293
293.004
293.017
293.039
293.075
293.137
293.238
293.405
293.675
294.11
294.8
295.877
297.528
300.012
303.664
308.897
316.184
326.018
338.853
355.033
374.738
397.966
424.544
454.184
486.538
521.256
558.018
596.557
636.659
678.159
720.93
764.874
809.905
855.944
902.906
950.693
999.191
1048.38
1098.27
1148.78
1199.81
1251.27
1303.08
1355.12
1407.29
1459.47
1511.56
1563.41
1614.9
1665.88
1716.2
1765.67
1814.11
1861.31
1907.03
1950.98
1992.82
2032.14
2068.39
2100.23
2127.54
2150.36
2166.43
2173.84
2084.26
1964.71
1838.61
1708.3
1575.71
1442.48
1310.11
1179.98
1053.47
931.975
816.599
708.836
610.928
525.2
453.656
397.519
356.667
329.354
312.582
303.041
297.943
295.367
294.109
293.51
293.23
293.103
293.045
293.02
293.008
293.004
293.002
293.001
293
293
293
293
293
293.004
293.017
293.038
293.075
293.135
293.235
293.4
293.667
294.097
294.779
295.843
297.475
299.931
303.542
308.719
315.931
325.672
338.392
354.44
374
397.073
423.493
452.972
485.167
519.724
556.325
594.698
634.629
675.949
718.532
762.276
807.096
852.912
899.641
947.186
995.435
1044.36
1093.96
1144.18
1194.92
1246.09
1297.6
1349.35
1401.24
1453.15
1504.97
1556.58
1607.85
1658.64
1708.79
1758.15
1806.52
1853.7
1899.45
1943.5
1985.51
2025.06
2061.65
2093.91
2121.44
2144.22
2159.8
2166.12
2112.2
1993.5
1868.16
1738.41
1606.09
1472.83
1340.1
1209.26
1081.69
958.79
841.741
731.874
631.34
542.521
467.559
407.926
363.842
333.881
315.209
304.458
298.665
295.718
294.275
293.586
293.265
293.118
293.052
293.023
293.01
293.004
293.002
293.001
293
293
293
293
293
293.004
293.016
293.038
293.074
293.133
293.232
293.395
293.659
294.083
294.756
295.807
297.419
299.845
303.414
308.533
315.668
325.311
337.913
353.825
373.236
396.152
422.409
451.726
483.757
518.15
554.584
592.787
632.54
673.674
716.059
759.593
804.19
849.771
896.252
943.539
991.522
1040.15
1089.46
1139.37
1189.79
1240.64
1291.83
1343.25
1394.82
1446.43
1497.96
1549.29
1600.31
1650.87
1700.82
1750.02
1798.28
1845.4
1891.15
1935.25
1977.38
2017.12
2053.95
2086.63
2114.46
2137.42
2152.75
2157.57
2142.34
2024.66
1900.28
1771.27
1639.39
1506.22
1373.21
1241.72
1113.1
988.744
869.942
757.884
654.568
562.426
483.732
420.209
372.443
339.392
318.445
306.221
299.568
296.158
294.483
293.682
293.309
293.137
293.06
293.026
293.011
293.005
293.002
293.001
293
293
293
293
293
293.004
293.016
293.037
293.073
293.132
293.229
293.389
293.65
294.068
294.732
295.769
297.36
299.756
303.281
308.34
315.396
324.94
337.423
353.198
372.46
395.217
421.313
450.467
482.335
516.565
552.832
590.864
630.437
671.382
713.565
756.884
801.252
846.588
892.81
939.826
987.527
1035.85
1084.84
1134.42
1184.51
1235.01
1285.85
1336.93
1388.16
1439.43
1490.63
1541.66
1592.39
1642.7
1692.43
1741.45
1789.57
1836.61
1882.35
1926.53
1968.85
2008.93
2046.31
2080.25
2109.57
2134.83
2154.09
2165.95
2168.59
2054.59
1932.78
1805.51
1674.72
1542.07
1409.06
1277.1
1147.55
1021.78
901.176
786.883
680.697
585.056
502.359
434.578
382.682
346.065
322.422
308.409
300.696
296.709
294.744
293.803
293.363
293.162
293.071
293.031
293.013
293.006
293.002
293.001
293
293
293
293
293
293.004
293.016
293.037
293.072
293.13
293.226
293.383
293.64
294.052
294.706
295.728
297.298
299.661
303.141
308.138
315.115
324.558
336.923
352.564
371.678
394.283
420.224
449.222
480.934
515.007
551.114
588.979
628.378
669.135
711.118
754.221
798.357
843.445
889.403
936.141
983.553
1031.57
1080.22
1129.46
1179.19
1229.34
1279.82
1330.54
1381.4
1432.32
1483.18
1533.88
1584.3
1634.33
1683.81
1732.62
1780.59
1827.53
1873.24
1917.49
1959.98
2000.39
2038.3
2073.2
2103.6
2129.82
2151.49
2166.7
2174
2083.86
1965.77
1840.97
1711.74
1579.96
1447.24
1315.02
1184.68
1057.61
935.239
818.734
709.676
610.443
523.545
451.188
394.733
354.061
327.259
311.098
302.089
297.391
295.066
293.951
293.43
293.191
293.084
293.036
293.016
293.007
293.003
293.001
293
293
293
293
293
293.004
293.016
293.036
293.07
293.127
293.222
293.377
293.629
294.035
294.679
295.685
297.231
299.562
302.996
307.931
314.828
324.173
336.423
351.934
370.91
393.371
419.167
448.021
479.591
513.52
549.48
587.191
626.425
667.006
708.796
751.69
795.599
840.442
886.139
932.598
979.719
1027.42
1075.74
1124.63
1174.01
1223.8
1273.9
1324.25
1374.75
1425.3
1475.81
1526.18
1576.28
1626.01
1675.24
1723.82
1771.6
1818.41
1864.06
1908.31
1950.9
1991.5
2029.71
2065.02
2095.99
2122.42
2143.89
2157.87
2161.75
2117.73
2001.36
1878.15
1750.21
1619.32
1487.03
1354.75
1223.85
1095.67
971.633
853.028
741.207
638.411
547.233
470.09
408.73
363.549
333.113
314.403
303.82
298.24
295.468
294.136
293.513
293.228
293.1
293.043
293.018
293.008
293.003
293.001
293.001
293
293
293
293
293.004
293.015
293.035
293.069
293.125
293.217
293.369
293.617
294.015
294.647
295.636
297.156
299.45
302.834
307.703
314.518
323.765
335.903
351.294
370.146
392.483
418.158
446.894
478.348
512.159
547.996
585.574
624.665
665.086
706.701
749.401
793.096
837.707
883.151
929.343
976.181
1023.58
1071.58
1120.13
1169.17
1218.6
1268.35
1318.33
1368.47
1418.68
1468.84
1518.88
1568.67
1618.11
1667.07
1715.42
1763.01
1809.68
1855.23
1899.45
1942.09
1982.81
2021.25
2056.88
2088.62
2115.9
2138.38
2153.67
2159.38
2150.8
2036.04
1914.55
1788.13
1658.43
1526.9
1394.91
1263.79
1134.84
1009.45
888.993
774.68
668.513
573.124
491.109
424.58
374.483
339.951
318.29
305.855
299.235
295.935
294.349
293.608
293.269
293.118
293.051
293.022
293.009
293.004
293.002
293.001
293
293
293
293
293.003
293.015
293.035
293.067
293.122
293.212
293.361
293.603
293.993
294.613
295.583
297.077
299.335
302.67
307.477
314.216
323.373
335.412
350.699
369.447
391.684
417.264
445.91
477.276
510.997
546.739
584.214
623.187
663.476
704.941
747.47
790.975
835.375
880.59
926.536
973.114
1020.24
1067.94
1116.19
1164.9
1214.01
1263.44
1313.1
1362.92
1412.8
1462.66
1512.4
1561.92
1611.09
1659.82
1707.96
1755.37
1801.9
1847.37
1891.57
1934.26
1975.16
2013.9
2050.08
2083.05
2111.7
2136.44
2155.62
2168.12
2172.53
2063.39
1945.74
1822.09
1694.38
1564.24
1433.09
1302.29
1173.12
1046.91
925.069
808.772
699.746
600.552
513.916
442.261
387.054
348.051
323.014
308.374
300.478
296.52
294.615
293.726
293.321
293.14
293.06
293.025
293.011
293.004
293.002
293.001
293
293
293
293
293.003
293.015
293.034
293.066
293.119
293.206
293.351
293.586
293.964
294.567
295.512
296.971
299.18
302.452
307.182