/*--------------------------------*- C++ -*----------------------------------*\
  =========                 |
  \\      /  F ield         | OpenFOAM: The Open Source CFD Toolbox
   \\    /   O peration     | Website:  https://openfoam.org
    \\  /    A nd           | Version:  8
     \\/     M anipulation  |
\*---------------------------------------------------------------------------*/
FoamFile
{
    version     2.0;
    format      ascii;
    class       volVectorField;
    location    "240/fluid";
    object      U;
}
// * * * * * * * * * * * * * * * * * * * * * * * * * * * * * * * * * * * * * //

dimensions      [0 1 -1 0 0 0 0];

internalField   nonuniform List<vector> 
4000
(
(0.0999538 -0.0067424 0)
(0.0997023 -0.0200967 0)
(0.0992963 -0.0333675 0)
(0.0987357 -0.0465792 0)
(0.0980137 -0.0597418 0)
(0.0971157 -0.0728567 0)
(0.0960244 -0.0859176 0)
(0.0947232 -0.0989109 0)
(0.0931986 -0.111816 0)
(0.0914427 -0.124609 0)
(0.0894553 -0.137265 0)
(0.0872478 -0.149766 0)
(0.0848452 -0.162098 0)
(0.0822896 -0.174257 0)
(0.0796455 -0.186224 0)
(0.076989 -0.198047 0)
(0.0743807 -0.209763 0)
(0.0718562 -0.221384 0)
(0.069419 -0.232894 0)
(0.0670359 -0.244237 0)
(0.0646432 -0.255323 0)
(0.0621591 -0.266036 0)
(0.0595009 -0.276249 0)
(0.0566004 -0.285837 0)
(0.0534177 -0.294674 0)
(0.0499397 -0.302684 0)
(0.0461673 -0.309829 0)
(0.042111 -0.316088 0)
(0.0377888 -0.32146 0)
(0.0332241 -0.325961 0)
(0.0284429 -0.329629 0)
(0.0234717 -0.332512 0)
(0.0183356 -0.334674 0)
(0.0130582 -0.336185 0)
(0.00766038 -0.337123 0)
(0.00216118 -0.337567 0)
(-0.00342079 -0.337598 0)
(-0.00906889 -0.337297 0)
(-0.0147711 -0.336744 0)
(-0.0205186 -0.336015 0)
(-0.0263043 -0.335181 0)
(-0.0321225 -0.334307 0)
(-0.0379684 -0.333454 0)
(-0.0438381 -0.332672 0)
(-0.0497282 -0.33201 0)
(-0.0556356 -0.331505 0)
(-0.0615571 -0.331191 0)
(-0.0674893 -0.331094 0)
(-0.073428 -0.331234 0)
(-0.0793684 -0.331624 0)
(-0.0853043 -0.332274 0)
(-0.0912284 -0.333187 0)
(-0.0971316 -0.334358 0)
(-0.103003 -0.335783 0)
(-0.108828 -0.33745 0)
(-0.114592 -0.339345 0)
(-0.120275 -0.341452 0)
(-0.125855 -0.343754 0)
(-0.131301 -0.346236 0)
(-0.136572 -0.348887 0)
(-0.141628 -0.351698 0)
(-0.146473 -0.354694 0)
(-0.15116 -0.357979 0)
(-0.155495 -0.361782 0)
(-0.15793 -0.366176 0)
(-0.157691 -0.37023 0)
(-0.154883 -0.37279 0)
(-0.150443 -0.373157 0)
(-0.145498 -0.37135 0)
(-0.140183 -0.367474 0)
(-0.134459 -0.361561 0)
(-0.128334 -0.353613 0)
(-0.121861 -0.343656 0)
(-0.115108 -0.331756 0)
(-0.108147 -0.318041 0)
(-0.101057 -0.302693 0)
(-0.0939598 -0.285959 0)
(-0.0870787 -0.268176 0)
(-0.080754 -0.249811 0)
(-0.0754043 -0.231439 0)
(-0.0714811 -0.213846 0)
(-0.0693893 -0.19783 0)
(-0.0692835 -0.183725 0)
(-0.0709245 -0.171331 0)
(-0.073781 -0.160109 0)
(-0.0772575 -0.149508 0)
(-0.080869 -0.139133 0)
(-0.0843002 -0.128761 0)
(-0.0873657 -0.118259 0)
(-0.0900046 -0.107694 0)
(-0.0922266 -0.0971086 0)
(-0.0940688 -0.0865401 0)
(-0.0955759 -0.0760232 0)
(-0.0967928 -0.0655879 0)
(-0.0977613 -0.0552517 0)
(-0.0985185 -0.0450142 0)
(-0.0990963 -0.0348675 0)
(-0.0995205 -0.02481 0)
(-0.0998088 -0.0148386 0)
(-0.099976 -0.00493786 0)
(0.0999997 -0.00636992 0)
(0.0998228 -0.0190768 0)
(0.0994576 -0.0317255 0)
(0.0988836 -0.0442926 0)
(0.098102 -0.0567576 0)
(0.0971091 -0.0691008 0)
(0.0958967 -0.0813011 0)
(0.0944573 -0.0933347 0)
(0.0927882 -0.105175 0)
(0.090894 -0.116797 0)
(0.0887896 -0.12818 0)
(0.0865025 -0.139315 0)
(0.0840742 -0.15021 0)
(0.0815592 -0.160905 0)
(0.0790246 -0.171485 0)
(0.0765349 -0.181976 0)
(0.0741416 -0.192415 0)
(0.071871 -0.202833 0)
(0.0697149 -0.213239 0)
(0.0676279 -0.223602 0)
(0.0655336 -0.23385 0)
(0.0633388 -0.243879 0)
(0.0609499 -0.253568 0)
(0.058289 -0.262799 0)
(0.0553025 -0.271481 0)
(0.0519655 -0.279511 0)
(0.0482759 -0.286792 0)
(0.0442468 -0.293268 0)
(0.0399025 -0.298913 0)
(0.0352738 -0.303732 0)
(0.0303943 -0.307748 0)
(0.0252977 -0.311006 0)
(0.0200156 -0.31356 0)
(0.014577 -0.315477 0)
(0.00900751 -0.316827 0)
(0.00332958 -0.317687 0)
(-0.00243621 -0.318132 0)
(-0.00827237 -0.31824 0)
(-0.0141657 -0.318088 0)
(-0.0201064 -0.317751 0)
(-0.0260867 -0.317296 0)
(-0.0321008 -0.316789 0)
(-0.0381444 -0.316286 0)
(-0.044214 -0.31584 0)
(-0.0503074 -0.315497 0)
(-0.0564224 -0.315294 0)
(-0.0625573 -0.315266 0)
(-0.0687102 -0.31544 0)
(-0.0748787 -0.315835 0)
(-0.08106 -0.316469 0)
(-0.08725 -0.317351 0)
(-0.0934438 -0.318484 0)
(-0.0996348 -0.319869 0)
(-0.105815 -0.321499 0)
(-0.111973 -0.323364 0)
(-0.118098 -0.325449 0)
(-0.124173 -0.327736 0)
(-0.130181 -0.3302 0)
(-0.136098 -0.332816 0)
(-0.14188 -0.33555 0)
(-0.147501 -0.338365 0)
(-0.152991 -0.341223 0)
(-0.158487 -0.344073 0)
(-0.163826 -0.346847 0)
(-0.167031 -0.349364 0)
(-0.166533 -0.351323 0)
(-0.162735 -0.351652 0)
(-0.157676 -0.350339 0)
(-0.152296 -0.347272 0)
(-0.146603 -0.342319 0)
(-0.140503 -0.335383 0)
(-0.13399 -0.326414 0)
(-0.127089 -0.315413 0)
(-0.119841 -0.302439 0)
(-0.112291 -0.287621 0)
(-0.104484 -0.271182 0)
(-0.0965412 -0.253468 0)
(-0.0887286 -0.23501 0)
(-0.0814729 -0.21657 0)
(-0.0753156 -0.199129 0)
(-0.0708245 -0.183505 0)
(-0.0684096 -0.170049 0)
(-0.0681198 -0.158704 0)
(-0.0695995 -0.148984 0)
(-0.0722694 -0.140232 0)
(-0.0755549 -0.131895 0)
(-0.0790174 -0.123628 0)
(-0.0823818 -0.115277 0)
(-0.0855041 -0.106822 0)
(-0.0883026 -0.0981353 0)
(-0.0907528 -0.0892085 0)
(-0.0928579 -0.0800824 0)
(-0.0946353 -0.0708084 0)
(-0.0961096 -0.061436 0)
(-0.0973087 -0.0520045 0)
(-0.0982599 -0.0425368 0)
(-0.0989872 -0.0330485 0)
(-0.0995076 -0.0235619 0)
(-0.0998335 -0.0141018 0)
(-0.0999945 -0.0046867 0)
(0.0999819 -0.00612935 0)
(0.0997538 -0.0183462 0)
(0.0993064 -0.030502 0)
(0.0986231 -0.0425711 0)
(0.0977069 -0.0545293 0)
(0.0965583 -0.0663556 0)
(0.0951762 -0.0780309 0)
(0.0935619 -0.0895359 0)
(0.0917229 -0.100851 0)
(0.0896748 -0.111961 0)
(0.0874432 -0.122855 0)
(0.0850664 -0.13353 0)
(0.0825948 -0.143995 0)
(0.0800888 -0.154269 0)
(0.0776099 -0.164386 0)
(0.0752152 -0.174389 0)
(0.0729524 -0.184328 0)
(0.0708452 -0.194239 0)
(0.0688826 -0.204135 0)
(0.067015 -0.213992 0)
(0.0651608 -0.223747 0)
(0.0632207 -0.233304 0)
(0.0610954 -0.242549 0)
(0.0586989 -0.251365 0)
(0.0559658 -0.259643 0)
(0.0528549 -0.267295 0)
(0.0493518 -0.274253 0)
(0.0454641 -0.280475 0)
(0.0412149 -0.285939 0)
(0.0366359 -0.290646 0)
(0.0317628 -0.294616 0)
(0.0266321 -0.297884 0)
(0.0212788 -0.300497 0)
(0.0157352 -0.302514 0)
(0.0100304 -0.303997 0)
(0.00419034 -0.305017 0)
(-0.00176166 -0.305641 0)
(-0.00780563 -0.305943 0)
(-0.013926 -0.305993 0)
(-0.0201108 -0.305861 0)
(-0.0263511 -0.305612 0)
(-0.0326399 -0.305307 0)
(-0.0389721 -0.305001 0)
(-0.0453441 -0.304742 0)
(-0.0517537 -0.304576 0)
(-0.0581991 -0.304539 0)
(-0.0646796 -0.304663 0)
(-0.0711943 -0.304975 0)
(-0.0777425 -0.305494 0)
(-0.0843235 -0.306236 0)
(-0.0909356 -0.307209 0)
(-0.097577 -0.308417 0)
(-0.104244 -0.309858 0)
(-0.110934 -0.311525 0)
(-0.117639 -0.313404 0)
(-0.124352 -0.315478 0)
(-0.131061 -0.317721 0)
(-0.137754 -0.320103 0)
(-0.144403 -0.322586 0)
(-0.150969 -0.325122 0)
(-0.157404 -0.327649 0)
(-0.163729 -0.330089 0)
(-0.169999 -0.332329 0)
(-0.176064 -0.334206 0)
(-0.180059 -0.335443 0)
(-0.179271 -0.335848 0)
(-0.174018 -0.334811 0)
(-0.167918 -0.332254 0)
(-0.161621 -0.328068 0)
(-0.15498 -0.322132 0)
(-0.147905 -0.31436 0)
(-0.140393 -0.304724 0)
(-0.132468 -0.293258 0)
(-0.124159 -0.28007 0)
(-0.115502 -0.265357 0)
(-0.106558 -0.249413 0)
(-0.0975034 -0.232654 0)
(-0.0886944 -0.215639 0)
(-0.0806555 -0.199042 0)
(-0.074014 -0.183574 0)
(-0.0693541 -0.169825 0)
(-0.0669849 -0.158077 0)
(-0.0667913 -0.148165 0)
(-0.0683049 -0.139578 0)
(-0.070925 -0.131718 0)
(-0.0741112 -0.124114 0)
(-0.0774698 -0.11648 0)
(-0.0807617 -0.10868 0)
(-0.083866 -0.100671 0)
(-0.0867225 -0.0924637 0)
(-0.0892958 -0.0840771 0)
(-0.0915715 -0.0755338 0)
(-0.0935485 -0.0668597 0)
(-0.0952349 -0.0580838 0)
(-0.0966433 -0.0492311 0)
(-0.0977889 -0.0403169 0)
(-0.0986855 -0.0313553 0)
(-0.0993426 -0.0223706 0)
(-0.0997666 -0.0133941 0)
(-0.099984 -0.0044525 0)
(0.0999855 -0.00582182 0)
(0.0997499 -0.0174261 0)
(0.0992803 -0.0289648 0)
(0.0985593 -0.0404066 0)
(0.0975941 -0.0517231 0)
(0.0963901 -0.06289 0)
(0.0949515 -0.0738861 0)
(0.0932847 -0.0846913 0)
(0.0914017 -0.0952869 0)
(0.0893214 -0.105658 0)
(0.0870715 -0.115797 0)
(0.0846903 -0.125704 0)
(0.0822266 -0.135395 0)
(0.0797394 -0.144898 0)
(0.0772928 -0.154256 0)
(0.0749489 -0.163524 0)
(0.0727556 -0.172754 0)
(0.0707343 -0.181989 0)
(0.0688693 -0.191246 0)
(0.0671061 -0.200505 0)
(0.0653578 -0.209709 0)
(0.0635201 -0.218769 0)
(0.0614885 -0.227576 0)
(0.0591735 -0.236018 0)
(0.0565096 -0.243991 0)
(0.0534573 -0.251404 0)
(0.0500019 -0.258188 0)
(0.0461484 -0.264296 0)
(0.041916 -0.269706 0)
(0.0373329 -0.274413 0)
(0.0324321 -0.278432 0)
(0.0272481 -0.281794 0)
(0.0218148 -0.284542 0)
(0.0161639 -0.286727 0)
(0.0103248 -0.288407 0)
(0.00432384 -0.289645 0)
(-0.00181487 -0.290505 0)
(-0.00807059 -0.291053 0)
(-0.0144267 -0.291357 0)
(-0.0208705 -0.291479 0)
(-0.0273918 -0.291482 0)
(-0.033983 -0.291423 0)
(-0.0406385 -0.291352 0)
(-0.0473544 -0.291316 0)
(-0.0541283 -0.291357 0)
(-0.0609587 -0.29151 0)
(-0.0678452 -0.291804 0)
(-0.0747877 -0.292265 0)
(-0.0817864 -0.292911 0)
(-0.0888418 -0.293755 0)
(-0.0959537 -0.294804 0)
(-0.103122 -0.29606 0)
(-0.110345 -0.297518 0)
(-0.11762 -0.299167 0)
(-0.124944 -0.300991 0)
(-0.13231 -0.302965 0)
(-0.139707 -0.305059 0)
(-0.14712 -0.307235 0)
(-0.154515 -0.309444 0)
(-0.161836 -0.311628 0)
(-0.169037 -0.313714 0)
(-0.176078 -0.315621 0)
(-0.18291 -0.317273 0)
(-0.189147 -0.318503 0)
(-0.192898 -0.318707 0)
(-0.191305 -0.31741 0)
(-0.184934 -0.314878 0)
(-0.177731 -0.311008 0)
(-0.170356 -0.305655 0)
(-0.162617 -0.298709 0)
(-0.154417 -0.290117 0)
(-0.145768 -0.279873 0)
(-0.136708 -0.268036 0)
(-0.127288 -0.254741 0)
(-0.117566 -0.24021 0)
(-0.107656 -0.224755 0)
(-0.0978195 -0.20881 0)
(-0.0884969 -0.192932 0)
(-0.0802582 -0.177765 0)
(-0.073704 -0.163951 0)
(-0.0693067 -0.151959 0)
(-0.0672252 -0.141908 0)
(-0.0672272 -0.133507 0)
(-0.0688019 -0.12622 0)
(-0.071371 -0.119498 0)
(-0.0744433 -0.112939 0)
(-0.0776705 -0.106307 0)
(-0.0808395 -0.0994876 0)
(-0.0838349 -0.0924379 0)
(-0.0865993 -0.0851513 0)
(-0.089107 -0.0776404 0)
(-0.091348 -0.0699278 0)
(-0.0933205 -0.0620414 0)
(-0.0950271 -0.0540115 0)
(-0.096473 -0.0458653 0)
(-0.0976649 -0.0376213 0)
(-0.0986084 -0.0292975 0)
(-0.0993051 -0.0209231 0)
(-0.0997554 -0.0125352 0)
(-0.0999852 -0.00416808 0)
(0.0999828 -0.00550836 0)
(0.0997308 -0.0164871 0)
(0.0992325 -0.0274017 0)
(0.0984712 -0.0382204 0)
(0.0974564 -0.0489145 0)
(0.0961958 -0.0594603 0)
(0.0946963 -0.0698373 0)
(0.0929676 -0.0800272 0)
(0.0910247 -0.0900136 0)
(0.0888899 -0.0997841 0)
(0.0865943 -0.109333 0)
(0.0841793 -0.118664 0)
(0.0816972 -0.127791 0)
(0.0792093 -0.136741 0)
(0.0767812 -0.145555 0)
(0.074475 -0.154283 0)
(0.0723371 -0.162973 0)
(0.0703859 -0.171667 0)
(0.0686024 -0.18038 0)
(0.0669281 -0.189097 0)
(0.0652721 -0.197765 0)
(0.0635262 -0.206304 0)
(0.0615821 -0.214617 0)
(0.0593464 -0.2226 0)
(0.0567503 -0.230156 0)
(0.0537515 -0.237202 0)
(0.0503329 -0.243673 0)
(0.0464975 -0.249528 0)
(0.0422627 -0.254741 0)
(0.0376553 -0.259309 0)
(0.0327071 -0.263244 0)
(0.0274517 -0.266573 0)
(0.0219222 -0.269332 0)
(0.0161501 -0.27157 0)
(0.0101643 -0.273338 0)
(0.00399136 -0.274693 0)
(-0.00234433 -0.275694 0)
(-0.0088218 -0.276401 0)
(-0.0154244 -0.276875 0)
(-0.0221388 -0.277176 0)
(-0.0289544 -0.27736 0)
(-0.0358633 -0.277478 0)
(-0.0428595 -0.27758 0)
(-0.0499387 -0.277707 0)
(-0.0570985 -0.277897 0)
(-0.0643372 -0.278183 0)
(-0.0716545 -0.278592 0)
(-0.0790504 -0.279145 0)
(-0.0865254 -0.279859 0)
(-0.0940802 -0.280745 0)
(-0.101715 -0.281806 0)
(-0.10943 -0.283042 0)
(-0.117223 -0.284445 0)
(-0.125092 -0.286001 0)
(-0.133033 -0.287689 0)
(-0.141036 -0.289481 0)
(-0.149091 -0.291341 0)
(-0.157176 -0.293224 0)
(-0.165245 -0.295076 0)
(-0.173239 -0.29683 0)
(-0.181138 -0.298414 0)
(-0.188978 -0.299777 0)
(-0.196595 -0.300909 0)
(-0.202418 -0.30167 0)
(-0.204307 -0.301167 0)
(-0.200848 -0.298499 0)
(-0.193728 -0.294697 0)
(-0.185815 -0.28978 0)
(-0.177561 -0.283573 0)
(-0.16884 -0.275966 0)
(-0.159614 -0.266924 0)
(-0.149925 -0.256468 0)
(-0.139839 -0.244684 0)
(-0.129431 -0.231731 0)
(-0.11879 -0.217845 0)
(-0.108086 -0.203349 0)
(-0.0976529 -0.188675 0)
(-0.0879842 -0.174344 0)
(-0.0796641 -0.160924 0)
(-0.0732545 -0.14892 0)
(-0.0691311 -0.138634 0)
(-0.0673266 -0.130029 0)
(-0.0675106 -0.122753 0)
(-0.0691409 -0.116311 0)
(-0.0716632 -0.110253 0)
(-0.0746321 -0.104269 0)
(-0.0777419 -0.0981832 0)
(-0.0808076 -0.0919126 0)
(-0.083726 -0.0854281 0)
(-0.0864416 -0.0787275 0)
(-0.0889253 -0.0718215 0)
(-0.0911626 -0.064727 0)
(-0.0931469 -0.0574657 0)
(-0.0948763 -0.0500626 0)
(-0.0963518 -0.0425405 0)
(-0.0975759 -0.0349154 0)
(-0.0985504 -0.0272039 0)
(-0.0992735 -0.0194348 0)
(-0.0997431 -0.0116456 0)
(-0.0999838 -0.00387246 0)
(0.0999831 -0.00517748 0)
(0.099725 -0.0154975 0)
(0.0992135 -0.0257557 0)
(0.0984323 -0.0359198 0)
(0.0973921 -0.0459608 0)
(0.0961028 -0.0558549 0)
(0.094573 -0.0655819 0)
(0.0928143 -0.0751241 0)
(0.0908438 -0.0844661 0)
(0.0886854 -0.0935966 0)
(0.0863716 -0.102511 0)
(0.083945 -0.111215 0)
(0.0814584 -0.119722 0)
(0.0789736 -0.128064 0)
(0.0765563 -0.136279 0)
(0.0742681 -0.144418 0)
(0.0721545 -0.152532 0)
(0.0702325 -0.160661 0)
(0.0684817 -0.168822 0)
(0.0668414 -0.177 0)
(0.065219 -0.185149 0)
(0.0635044 -0.193192 0)
(0.0615876 -0.201036 0)
(0.0593739 -0.208586 0)
(0.0567925 -0.21575 0)
(0.0537996 -0.222449 0)
(0.0503763 -0.228622 0)
(0.0465234 -0.234229 0)
(0.0422567 -0.239247 0)
(0.0376009 -0.24367 0)
(0.0325864 -0.247508 0)
(0.0272451 -0.250786 0)
(0.0216091 -0.253536 0)
(0.0157089 -0.255802 0)
(0.00957255 -0.25763 0)
(0.00322558 -0.259073 0)
(-0.00330633 -0.260184 0)
(-0.0100024 -0.261018 0)
(-0.0168478 -0.261632 0)
(-0.0238284 -0.262079 0)
(-0.0309334 -0.262412 0)
(-0.0381546 -0.262678 0)
(-0.0454856 -0.262921 0)
(-0.0529222 -0.263179 0)
(-0.0604612 -0.263487 0)
(-0.068101 -0.263873 0)
(-0.0758406 -0.264363 0)
(-0.0836798 -0.264974 0)
(-0.0916184 -0.26572 0)
(-0.0996566 -0.266609 0)
(-0.107794 -0.267643 0)
(-0.116028 -0.268818 0)
(-0.124358 -0.270124 0)
(-0.132777 -0.271544 0)
(-0.141279 -0.273053 0)
(-0.149849 -0.274621 0)
(-0.158473 -0.276208 0)
(-0.167117 -0.277764 0)
(-0.17572 -0.279229 0)
(-0.184218 -0.280532 0)
(-0.192644 -0.281596 0)
(-0.201102 -0.282349 0)
(-0.209301 -0.282718 0)
(-0.214401 -0.282552 0)
(-0.2139 -0.281183 0)
(-0.208226 -0.277909 0)
(-0.200482 -0.273481 0)
(-0.192053 -0.267978 0)
(-0.183059 -0.261294 0)
(-0.173478 -0.253356 0)
(-0.163352 -0.244161 0)
(-0.152764 -0.233756 0)
(-0.141807 -0.222249 0)
(-0.130582 -0.20981 0)
(-0.119213 -0.196678 0)
(-0.107931 -0.183173 0)
(-0.0971346 -0.169704 0)
(-0.0873538 -0.156749 0)
(-0.0791692 -0.144803 0)
(-0.0730862 -0.134272 0)
(-0.0693714 -0.125346 0)
(-0.0679327 -0.11791 0)
(-0.0683557 -0.111594 0)
(-0.0700803 -0.105945 0)
(-0.0725802 -0.100575 0)
(-0.0754532 -0.0952303 0)
(-0.0784328 -0.0897662 0)
(-0.0813608 -0.0841165 0)
(-0.0841499 -0.0782574 0)
(-0.0867526 -0.0721871 0)
(-0.0891434 -0.0659146 0)
(-0.0913081 -0.059455 0)
(-0.0932385 -0.052828 0)
(-0.0949302 -0.0460568 0)
(-0.0963812 -0.0391628 0)
(-0.0975908 -0.0321616 0)
(-0.0985575 -0.0250698 0)
(-0.0992769 -0.0179156 0)
(-0.0997446 -0.0107368 0)
(-0.0999842 -0.00357031 0)
(0.0999825 -0.00484061 0)
(0.0997184 -0.0144896 0)
(0.0991957 -0.0240806 0)
(0.0983981 -0.0335821 0)
(0.0973372 -0.0429661 0)
(0.0960239 -0.0522097 0)
(0.0944679 -0.061294 0)
(0.0926822 -0.0702021 0)
(0.090685 -0.0789201 0)
(0.0885017 -0.0874379 0)
(0.0861663 -0.0957522 0)
(0.0837226 -0.103868 0)
(0.0812249 -0.111802 0)
(0.0787357 -0.11958 0)
(0.0763213 -0.127243 0)
(0.0740433 -0.134838 0)
(0.0719464 -0.142411 0)
(0.0700459 -0.150002 0)
(0.0683192 -0.157626 0)
(0.0667032 -0.165271 0)
(0.0651028 -0.172893 0)
(0.0634058 -0.180422 0)
(0.0615004 -0.187773 0)
(0.0592906 -0.194858 0)
(0.0567045 -0.201591 0)
(0.053697 -0.207901 0)
(0.0502482 -0.213731 0)
(0.0463577 -0.219043 0)
(0.0420399 -0.223814 0)
(0.0373186 -0.22804 0)
(0.0322227 -0.231729 0)
(0.0267831 -0.234902 0)
(0.021031 -0.237589 0)
(0.0149958 -0.239829 0)
(0.00870534 -0.241665 0)
(0.00218525 -0.243143 0)
(-0.0045408 -0.244311 0)
(-0.0114525 -0.245222 0)
(-0.0185336 -0.245927 0)
(-0.0257709 -0.246474 0)
(-0.0331535 -0.24691 0)
(-0.0406732 -0.247278 0)
(-0.0483232 -0.247619 0)
(-0.0560989 -0.247966 0)
(-0.0639968 -0.24835 0)
(-0.0720146 -0.248797 0)
(-0.0801505 -0.249329 0)
(-0.0884036 -0.24996 0)
(-0.0967725 -0.250702 0)
(-0.105256 -0.25156 0)
(-0.113852 -0.252533 0)
(-0.122557 -0.253615 0)
(-0.131364 -0.254794 0)
(-0.140267 -0.256052 0)
(-0.149252 -0.257362 0)
(-0.158301 -0.258693 0)
(-0.167385 -0.260004 0)
(-0.176461 -0.261246 0)
(-0.185444 -0.262356 0)
(-0.194269 -0.263263 0)
(-0.202907 -0.263891 0)
(-0.211391 -0.264135 0)
(-0.219332 -0.263806 0)
(-0.224093 -0.262654 0)
(-0.222355 -0.260395 0)
(-0.214974 -0.256821 0)
(-0.206284 -0.252139 0)
(-0.197101 -0.246391 0)
(-0.187325 -0.239533 0)
(-0.176931 -0.23155 0)
(-0.166002 -0.222467 0)
(-0.154641 -0.212357 0)
(-0.142961 -0.201341 0)
(-0.13108 -0.189597 0)
(-0.119156 -0.177362 0)
(-0.107477 -0.164946 0)
(-0.0964867 -0.152735 0)
(-0.086735 -0.14116 0)
(-0.0787805 -0.13064 0)
(-0.0730606 -0.121486 0)
(-0.0697356 -0.113783 0)
(-0.0686109 -0.10735 0)
(-0.0692179 -0.101817 0)
(-0.0709987 -0.0967847 0)
(-0.073461 -0.091938 0)
(-0.0762422 -0.087076 0)
(-0.0791074 -0.0820902 0)
(-0.0819187 -0.0769309 0)
(-0.0845988 -0.0715809 0)
(-0.0871053 -0.0660392 0)
(-0.0894137 -0.0603135 0)
(-0.0915098 -0.054416 0)
(-0.0933846 -0.0483634 0)
(-0.0950323 -0.042176 0)
(-0.0964493 -0.0358725 0)
(-0.0976334 -0.0294668 0)
(-0.0985817 -0.0229737 0)
(-0.0992885 -0.0164195 0)
(-0.0997485 -0.0098404 0)
(-0.0999844 -0.0032721 0)
(0.0999824 -0.00449734 0)
(0.0997148 -0.0134628 0)
(0.099185 -0.0223742 0)
(0.0983767 -0.0312015 0)
(0.097302 -0.039918 0)
(0.0959725 -0.0485017 0)
(0.0943987 -0.0569346 0)
(0.0925944 -0.0652011 0)
(0.0905787 -0.073288 0)
(0.0883779 -0.0811864 0)
(0.0860267 -0.0888935 0)
(0.0835699 -0.096415 0)
(0.0810623 -0.103766 0)
(0.0785669 -0.110975 0)
(0.0761504 -0.118077 0)
(0.073874 -0.12512 0)
(0.0717816 -0.132147 0)
(0.0698876 -0.139196 0)
(0.0681674 -0.146282 0)
(0.0665564 -0.153394 0)
(0.0649575 -0.16049 0)
(0.0632571 -0.167506 0)
(0.0613424 -0.174364 0)
(0.0591162 -0.18098 0)
(0.0565059 -0.187278 0)
(0.0534658 -0.19319 0)
(0.0499749 -0.198663 0)
(0.0460321 -0.203663 0)
(0.0416507 -0.208168 0)
(0.0368535 -0.212173 0)
(0.0316683 -0.215685 0)
(0.0261251 -0.218724 0)
(0.0202542 -0.221317 0)
(0.0140842 -0.223498 0)
(0.00764226 -0.225306 0)
(0.000953884 -0.226783 0)
(-0.00595794 -0.227975 0)
(-0.0130735 -0.228926 0)
(-0.0203765 -0.229685 0)
(-0.0278541 -0.230295 0)
(-0.0354953 -0.230799 0)
(-0.0432916 -0.231235 0)
(-0.051236 -0.231639 0)
(-0.0593234 -0.232042 0)
(-0.0675496 -0.232471 0)
(-0.0759116 -0.232949 0)
(-0.0844067 -0.233493 0)
(-0.0930325 -0.234117 0)
(-0.101786 -0.234829 0)
(-0.110666 -0.235632 0)
(-0.119665 -0.236523 0)
(-0.12878 -0.237495 0)
(-0.138001 -0.238534 0)
(-0.147317 -0.239621 0)
(-0.15671 -0.240729 0)
(-0.166158 -0.241826 0)
(-0.175626 -0.242875 0)
(-0.185051 -0.243829 0)
(-0.194343 -0.244628 0)
(-0.203423 -0.245215 0)
(-0.212233 -0.245547 0)
(-0.220637 -0.245586 0)
(-0.227902 -0.245163 0)
(-0.231548 -0.243594 0)
(-0.228601 -0.240462 0)
(-0.220264 -0.236352 0)
(-0.210781 -0.231368 0)
(-0.200864 -0.225447 0)
(-0.190373 -0.218548 0)
(-0.179281 -0.210669 0)
(-0.167681 -0.20185 0)
(-0.15569 -0.192171 0)
(-0.143433 -0.181758 0)
(-0.131044 -0.170785 0)
(-0.118719 -0.159482 0)
(-0.106792 -0.148141 0)
(-0.0957456 -0.137118 0)
(-0.0861334 -0.126797 0)
(-0.0784849 -0.11753 0)
(-0.0731652 -0.109547 0)
(-0.0702356 -0.102863 0)
(-0.0694152 -0.0972627 0)
(-0.0701968 -0.0923961 0)
(-0.0720313 -0.0879151 0)
(-0.0744593 -0.083558 0)
(-0.0771535 -0.0791635 0)
(-0.079907 -0.0746458 0)
(-0.0825998 -0.0699665 0)
(-0.0851652 -0.065112 0)
(-0.0875659 -0.0600824 0)
(-0.0897801 -0.0548839 0)
(-0.0917942 -0.0495272 0)
(-0.0935992 -0.0440273 0)
(-0.0951886 -0.0384022 0)
(-0.0965581 -0.0326688 0)
(-0.0977044 -0.0268397 0)
(-0.0986237 -0.0209281 0)
(-0.0993094 -0.0149584 0)
(-0.099756 -0.0089646 0)
(-0.0999849 -0.00298074 0)
(0.0999821 -0.00415028 0)
(0.0997116 -0.0124244 0)
(0.099176 -0.0206488 0)
(0.0983589 -0.0287953 0)
(0.0972728 -0.0368387 0)
(0.0959298 -0.0447585 0)
(0.0943409 -0.0525377 0)
(0.0925202 -0.060162 0)
(0.0904876 -0.0676193 0)
(0.0882701 -0.0749015 0)
(0.0859032 -0.0820064 0)
(0.0834322 -0.0889397 0)
(0.0809127 -0.0957164 0)
(0.0784083 -0.102362 0)
(0.075986 -0.108912 0)
(0.0737068 -0.115409 0)
(0.071614 -0.121895 0)
(0.0697208 -0.128404 0)
(0.0680008 -0.134951 0)
(0.0663875 -0.141524 0)
(0.0647821 -0.148087 0)
(0.0630694 -0.154581 0)
(0.0611355 -0.160932 0)
(0.0588827 -0.167065 0)
(0.0562378 -0.172909 0)
(0.0531548 -0.178402 0)
(0.0496122 -0.183497 0)
(0.0456083 -0.18816 0)
(0.0411559 -0.192372 0)
(0.0362769 -0.196128 0)
(0.0309985 -0.199435 0)
(0.02535 -0.202309 0)
(0.0193607 -0.204775 0)
(0.0130589 -0.206863 0)
(0.00647119 -0.20861 0)
(-0.000377305 -0.210054 0)
(-0.00746389 -0.211234 0)
(-0.0147693 -0.212192 0)
(-0.0222778 -0.212972 0)
(-0.0299762 -0.213612 0)
(-0.0378537 -0.214151 0)
(-0.0459013 -0.214623 0)
(-0.0541119 -0.215061 0)
(-0.0624797 -0.215491 0)
(-0.0709998 -0.215938 0)
(-0.0796681 -0.216421 0)
(-0.088481 -0.216955 0)
(-0.0974346 -0.217551 0)
(-0.106525 -0.218215 0)
(-0.115746 -0.218947 0)
(-0.125093 -0.219745 0)
(-0.134556 -0.220599 0)
(-0.144123 -0.221494 0)
(-0.153781 -0.222409 0)
(-0.163508 -0.223318 0)
(-0.173278 -0.224189 0)
(-0.183053 -0.224984 0)
(-0.192761 -0.225656 0)
(-0.202315 -0.226153 0)
(-0.211683 -0.226428 0)
(-0.220904 -0.226469 0)
(-0.229718 -0.226297 0)
(-0.235873 -0.225788 0)
(-0.237023 -0.224116 0)
(-0.232133 -0.220524 0)
(-0.22342 -0.216087 0)
(-0.213652 -0.210961 0)
(-0.203295 -0.205048 0)
(-0.192293 -0.198286 0)
(-0.180681 -0.190678 0)
(-0.168572 -0.182271 0)
(-0.156101 -0.173149 0)
(-0.14341 -0.163436 0)
(-0.13065 -0.1533 0)
(-0.118054 -0.142958 0)
(-0.106 -0.132687 0)
(-0.0949961 -0.122809 0)
(-0.085592 -0.113662 0)
(-0.0782805 -0.105538 0)
(-0.0733543 -0.0985961 0)
(-0.0707857 -0.0927973 0)
(-0.0702265 -0.0879104 0)
(-0.0711477 -0.083613 0)
(-0.0730167 -0.0796067 0)
(-0.0754059 -0.0756776 0)
(-0.0780191 -0.0716977 0)
(-0.080672 -0.0676004 0)
(-0.0832592 -0.0633564 0)
(-0.0857216 -0.0589557 0)
(-0.0880261 -0.0543985 0)
(-0.0901528 -0.0496904 0)
(-0.0920889 -0.0448406 0)
(-0.0938257 -0.0398618 0)
(-0.0953566 -0.0347701 0)
(-0.0966768 -0.0295804 0)
(-0.0977828 -0.0243036 0)
(-0.0986704 -0.0189513 0)
(-0.0993328 -0.0135454 0)
(-0.0997643 -0.00811736 0)
(-0.0999855 -0.00269889 0)
(0.099982 -0.00379983 0)
(0.0997092 -0.0113757 0)
(0.099169 -0.0189064 0)
(0.0983448 -0.0263656 0)
(0.0972494 -0.0337298 0)
(0.0958953 -0.0409801 0)
(0.0942936 -0.0481008 0)
(0.092459 -0.0550787 0)
(0.0904117 -0.0619027 0)
(0.0881793 -0.0685655 0)
(0.0857978 -0.0750653 0)
(0.0833131 -0.0814078 0)
(0.0807812 -0.0876072 0)
(0.0782664 -0.0936874 0)
(0.0758357 -0.0996817 0)
(0.0735501 -0.10563 0)
(0.0714523 -0.11157 0)
(0.0695542 -0.117536 0)
(0.0678281 -0.123539 0)
(0.0662056 -0.12957 0)
(0.0645863 -0.135594 0)
(0.0628538 -0.141557 0)
(0.0608934 -0.147394 0)
(0.0586068 -0.153034 0)
(0.0559207 -0.158413 0)
(0.0527887 -0.163475 0)
(0.0491892 -0.168176 0)
(0.0451201 -0.172485 0)
(0.0405939 -0.176385 0)
(0.0356318 -0.179872 0)
(0.0302607 -0.182951 0)
(0.0245091 -0.185636 0)
(0.0184059 -0.187951 0)
(0.0119789 -0.189922 0)
(0.00525415 -0.191582 0)
(-0.00174331 -0.192964 0)
(-0.00899101 -0.194105 0)
(-0.0164701 -0.195044 0)
(-0.0241651 -0.195817 0)
(-0.0320628 -0.196461 0)
(-0.0401524 -0.197009 0)
(-0.0484244 -0.197493 0)
(-0.0568714 -0.197941 0)
(-0.0654868 -0.198376 0)
(-0.0742652 -0.19882 0)
(-0.0832013 -0.199289 0)
(-0.0922902 -0.199797 0)
(-0.101527 -0.200351 0)
(-0.110904 -0.200957 0)
(-0.120416 -0.201614 0)
(-0.130053 -0.202317 0)
(-0.139803 -0.203056 0)
(-0.149651 -0.203817 0)
(-0.159578 -0.204577 0)
(-0.169559 -0.205313 0)
(-0.179563 -0.20599 0)
(-0.189541 -0.206571 0)
(-0.199417 -0.207009 0)
(-0.209101 -0.20725 0)
(-0.218606 -0.207251 0)
(-0.228033 -0.206982 0)
(-0.237058 -0.206412 0)
(-0.242433 -0.205461 0)
(-0.241503 -0.20353 0)
(-0.234823 -0.200051 0)
(-0.225716 -0.19576 0)
(-0.215708 -0.190804 0)
(-0.204973 -0.185121 0)
(-0.193532 -0.178676 0)
(-0.181479 -0.171489 0)
(-0.168951 -0.163615 0)
(-0.156097 -0.155142 0)
(-0.143068 -0.146193 0)
(-0.130033 -0.136927 0)
(-0.11726 -0.12755 0)
(-0.105164 -0.118318 0)
(-0.0942669 -0.109519 0)
(-0.0851094 -0.101449 0)
(-0.0781443 -0.0943454 0)
(-0.0735943 -0.0883138 0)
(-0.0713545 -0.0832787 0)
(-0.0710243 -0.0790086 0)
(-0.0720632 -0.0752132 0)
(-0.0739574 -0.0716389 0)
(-0.0763087 -0.0681104 0)
(-0.0788473 -0.0645251 0)
(-0.0814085 -0.0608308 0)
(-0.0838986 -0.0570046 0)
(-0.0862656 -0.0530392 0)
(-0.0884799 -0.0489349 0)
(-0.0905234 -0.0446965 0)
(-0.0923845 -0.040332 0)
(-0.0940547 -0.0358526 0)
(-0.0955276 -0.0312724 0)
(-0.0967985 -0.0266047 0)
(-0.0978636 -0.0218589 0)
(-0.0987188 -0.017045 0)
(-0.0993571 -0.0121825 0)
(-0.0997729 -0.00730018 0)
(-0.099986 -0.00242709 0)
(0.0999819 -0.00344667 0)
(0.099707 -0.0103188 0)
(0.0991627 -0.0171502 0)
(0.0983323 -0.0239167 0)
(0.0972287 -0.0305968 0)
(0.0958645 -0.0371731 0)
(0.0942513 -0.0436313 0)
(0.0924039 -0.0499594 0)
(0.0903429 -0.0561474 0)
(0.0880962 -0.0621887 0)
(0.0857004 -0.0680819 0)
(0.0832018 -0.0738323 0)
(0.0806572 -0.0794533 0)
(0.0781309 -0.084967 0)
(0.0756903 -0.0904041 0)
(0.0733963 -0.0958009 0)
(0.071291 -0.101194 0)
(0.0693853 -0.106611 0)
(0.0676499 -0.112065 0)
(0.0660148 -0.117547 0)
(0.0643781 -0.123025 0)
(0.0626223 -0.12845 0)
(0.060632 -0.133762 0)
(0.0583084 -0.138898 0)
(0.0555781 -0.143799 0)
(0.0523948 -0.148415 0)
(0.0487368 -0.152707 0)
(0.044602 -0.156646 0)
(0.0400023 -0.160218 0)
(0.0349591 -0.163417 0)
(0.0294984 -0.166248 0)
(0.0236487 -0.168725 0)
(0.0174383 -0.170867 0)
(0.0108946 -0.172699 0)
(0.00404349 -0.174249 0)
(-0.00309011 -0.175548 0)
(-0.0104839 -0.176629 0)
(-0.0181194 -0.177525 0)
(-0.0259814 -0.17827 0)
(-0.0340565 -0.178896 0)
(-0.0423336 -0.179433 0)
(-0.0508033 -0.179908 0)
(-0.0594574 -0.180346 0)
(-0.0682888 -0.180769 0)
(-0.0772913 -0.181194 0)
(-0.0864586 -0.181636 0)
(-0.0957848 -0.182106 0)
(-0.105263 -0.18261 0)
(-0.114885 -0.183153 0)
(-0.124643 -0.183732 0)
(-0.134523 -0.184342 0)
(-0.144512 -0.184974 0)
(-0.154591 -0.185613 0)
(-0.164735 -0.18624 0)
(-0.174916 -0.186831 0)
(-0.185092 -0.187356 0)
(-0.19521 -0.187778 0)
(-0.205167 -0.188054 0)
(-0.214886 -0.188132 0)
(-0.224342 -0.18796 0)
(-0.23367 -0.187463 0)
(-0.242481 -0.186532 0)
(-0.247504 -0.18511 0)
(-0.245349 -0.182941 0)
(-0.237295 -0.179743 0)
(-0.227614 -0.175765 0)
(-0.217224 -0.171104 0)
(-0.206102 -0.165759 0)
(-0.19426 -0.159734 0)
(-0.181832 -0.153061 0)
(-0.168961 -0.145799 0)
(-0.155804 -0.138038 0)
(-0.142516 -0.129894 0)
(-0.129285 -0.121518 0)
(-0.116409 -0.113101 0)
(-0.104332 -0.104875 0)
(-0.0935821 -0.0970995 0)
(-0.0846875 -0.0900266 0)
(-0.0780593 -0.0838474 0)
(-0.0738555 -0.0786253 0)
(-0.0719053 -0.0742623 0)
(-0.071769 -0.0705363 0)
(-0.0729027 -0.0671909 0)
(-0.0748126 -0.0640126 0)
(-0.0771269 -0.0608582 0)
(-0.0795985 -0.057646 0)
(-0.0820785 -0.0543349 0)
(-0.084483 -0.0509071 0)
(-0.0867655 -0.0473571 0)
(-0.0888992 -0.0436855 0)
(-0.090868 -0.0398963 0)
(-0.0926609 -0.0359964 0)
(-0.09427 -0.0319955 0)
(-0.0956892 -0.0279061 0)
(-0.0969139 -0.0237398 0)
(-0.0979406 -0.0195044 0)
(-0.098765 -0.0152087 0)
(-0.0993804 -0.0108695 0)
(-0.0997812 -0.00651296 0)
(-0.0999865 -0.00216528 0)
(0.0999818 -0.00309104 0)
(0.0997051 -0.00925442 0)
(0.0991572 -0.0153814 0)
(0.0983211 -0.0214502 0)
(0.0972102 -0.0274414 0)
(0.0958369 -0.0333391 0)
(0.0942131 -0.0391307 0)
(0.0923539 -0.0448051 0)
(0.0902801 -0.0503535 0)
(0.08802 -0.05577 0)
(0.0856105 -0.0610534 0)
(0.0830984 -0.0662088 0)
(0.0805409 -0.0712484 0)
(0.0780027 -0.0761926 0)
(0.0755515 -0.0810692 0)
(0.0732479 -0.0859112 0)
(0.0711336 -0.0907515 0)
(0.0692184 -0.0956157 0)
(0.0674717 -0.100515 0)
(0.065822 -0.105441 0)
(0.064166 -0.110365 0)
(0.0623852 -0.115243 0)
(0.0603635 -0.120021 0)
(0.058002 -0.124644 0)
(0.0552273 -0.129057 0)
(0.0519931 -0.133217 0)
(0.0482777 -0.137087 0)
(0.0440791 -0.140644 0)
(0.0394092 -0.143872 0)
(0.034289 -0.146768 0)
(0.0287444 -0.149336 0)
(0.0228035 -0.151588 0)
(0.0164945 -0.15354 0)
(0.00984432 -0.155216 0)
(0.00287897 -0.156639 0)
(-0.00437684 -0.157836 0)
(-0.011901 -0.158838 0)
(-0.0196754 -0.159674 0)
(-0.0276846 -0.160373 0)
(-0.0359154 -0.160965 0)
(-0.0443563 -0.161474 0)
(-0.0529975 -0.161925 0)
(-0.0618306 -0.16234 0)
(-0.0708478 -0.162738 0)
(-0.0800421 -0.163133 0)
(-0.0894064 -0.163538 0)
(-0.0989333 -0.163962 0)
(-0.108615 -0.164412 0)
(-0.118442 -0.164888 0)
(-0.128402 -0.16539 0)
(-0.138483 -0.165912 0)
(-0.148667 -0.166446 0)
(-0.158932 -0.166977 0)
(-0.16925 -0.167489 0)
(-0.179587 -0.16796 0)
(-0.189899 -0.168363 0)
(-0.200115 -0.168666 0)
(-0.210136 -0.16883 0)
(-0.219857 -0.168808 0)
(-0.229255 -0.168548 0)
(-0.23833 -0.167952 0)
(-0.246657 -0.166889 0)
(-0.251139 -0.165262 0)
(-0.24826 -0.162943 0)
(-0.239431 -0.159929 0)
(-0.229173 -0.15624 0)
(-0.218344 -0.151905 0)
(-0.206833 -0.146956 0)
(-0.19464 -0.141414 0)
(-0.181891 -0.135316 0)
(-0.168738 -0.128719 0)
(-0.155338 -0.12171 0)
(-0.14185 -0.114395 0)
(-0.12848 -0.106915 0)
(-0.115554 -0.0994438 0)
(-0.103533 -0.0921895 0)
(-0.0929514 -0.0853801 0)
(-0.0843196 -0.0792301 0)
(-0.078008 -0.0738904 0)
(-0.0741161 -0.0693924 0)
(-0.072418 -0.0656277 0)
(-0.0724456 -0.0623905 0)
(-0.0736565 -0.0594581 0)
(-0.0755763 -0.0566521 0)
(-0.0778563 -0.053856 0)
(-0.0802686 -0.0510042 0)
(-0.0826773 -0.0480643 0)
(-0.0850068 -0.0450226 0)
(-0.087215 -0.0418747 0)
(-0.0892777 -0.0386214 0)
(-0.09118 -0.0352661 0)
(-0.0929119 -0.0318146 0)
(-0.0944661 -0.0282753 0)
(-0.0958368 -0.0246592 0)
(-0.0970197 -0.0209762 0)