/*--------------------------------*- C++ -*----------------------------------*\
  =========                 |
  \\      /  F ield         | OpenFOAM: The Open Source CFD Toolbox
   \\    /   O peration     | Website:  https://openfoam.org
    \\  /    A nd           | Version:  8
     \\/     M anipulation  |
\*---------------------------------------------------------------------------*/
FoamFile
{
    version     2.0;
    format      ascii;
    class       volScalarField;
    location    "640/fluid";
    object      CH4;
}
// * * * * * * * * * * * * * * * * * * * * * * * * * * * * * * * * * * * * * //

dimensions      [0 0 0 0 0 0 0];

internalField   nonuniform List<scalar> 
4000
(
0.999997
0.999986
0.999968
0.999938
0.999889
0.999806
0.999669
0.999446
0.999085
0.998509
0.9976
0.996191
0.99405
0.990867
0.986258
0.979779
0.970965
0.959388
0.944718
0.926775
0.905547
0.881184
0.85396
0.824236
0.792424
0.758952
0.724249
0.688723
0.652758
0.616701
0.580863
0.545515
0.510886
0.477166
0.444509
0.413034
0.382834
0.353973
0.326489
0.300401
0.275708
0.252395
0.230436
0.209794
0.190426
0.172283
0.155311
0.139458
0.124668
0.110886
0.0980552
0.0861245
0.0750429
0.0647628
0.0552402
0.0464355
0.0383139
0.0309464
0.024282
0.0180475
0.0124298
0.00744135
0.00329982
0.00231419
0.00160248
0.00109362
0.000734112
0.00048368
0.000312088
0.000196795
0.000121152
7.30341e-05
4.37899e-05
2.75539e-05
2.00485e-05
1.53787e-05
1.14005e-05
8.01057e-06
5.28007e-06
3.24052e-06
1.84843e-06
9.84781e-07
4.94619e-07
2.38039e-07
1.11193e-07
5.07193e-08
2.26895e-08
9.98751e-09
4.33687e-09
1.86156e-09
7.91236e-10
3.33487e-10
1.39531e-10
5.79872e-11
2.39248e-11
9.77085e-12
3.91356e-12
1.49668e-12
5.00485e-13
8.78135e-14
0.999997
0.999986
0.999968
0.999938
0.999888
0.999805
0.999667
0.999443
0.99908
0.998501
0.99759
0.996182
0.994049
0.990889
0.986328
0.979934
0.971251
0.959858
0.94542
0.927746
0.906806
0.882727
0.855763
0.826259
0.794615
0.761257
0.726611
0.691091
0.655084
0.618947
0.582997
0.547511
0.512728
0.478844
0.446015
0.414368
0.383998
0.354972
0.327331
0.301095
0.276264
0.252825
0.23075
0.210004
0.190543
0.172315
0.155271
0.139355
0.12451
0.11068
0.0978092
0.0858449
0.0747353
0.0644323
0.0548914
0.0460722
0.0379396
0.0305668
0.0239001
0.0176606
0.0120386
0.00705387
0.00323366
0.00226737
0.00156849
0.00106862
0.000715688
0.000470195
0.000302369
0.000189954
0.000116505
7.00534e-05
4.2086e-05
2.68675e-05
1.98349e-05
1.5121e-05
1.1087e-05
7.69773e-06
5.01411e-06
3.04687e-06
1.72784e-06
9.20233e-07
4.64591e-07
2.25262e-07
1.06163e-07
4.88713e-08
2.20524e-08
9.7805e-09
4.27315e-09
1.84279e-09
7.8579e-10
3.31834e-10
1.38955e-10
5.77448e-11
2.38083e-11
9.71263e-12
3.88535e-12
1.4841e-12
4.95831e-13
8.7011e-14
0.999997
0.999986
0.999968
0.999938
0.999887
0.999804
0.999665
0.99944
0.999076
0.998495
0.997583
0.996176
0.994049
0.990905
0.986378
0.980044
0.971458
0.960202
0.945948
0.9285
0.907817
0.884012
0.857322
0.828076
0.796658
0.763484
0.728972
0.693535
0.657558
0.621403
0.585391
0.549806
0.514892
0.480852
0.44785
0.416018
0.385456
0.356236
0.328404
0.301982
0.276973
0.253366
0.231135
0.210243
0.190646
0.172301
0.155151
0.13914
0.124212
0.11031
0.0973774
0.0853606
0.0742072
0.0638684
0.0542989
0.0454578
0.0373095
0.0299344
0.0232682
0.0170335
0.0114309
0.00646407
0.00318572
0.00222157
0.00152868
0.001036
0.000690102
0.000450871
0.000288289
0.000180081
0.000109896
6.592e-05
3.98286e-05
2.60646e-05
1.95159e-05
1.4762e-05
1.07056e-05
7.3518e-06
4.74172e-06
2.85982e-06
1.61507e-06
8.59644e-07
4.35026e-07
2.11685e-07
1.00218e-07
4.63673e-08
2.10311e-08
9.37449e-09
4.11483e-09
1.7818e-09
7.62414e-10
3.22846e-10
1.35465e-10
5.63698e-11
2.32583e-11
9.49041e-12
3.79591e-12
1.44942e-12
4.84057e-13
8.49582e-14
0.999997
0.999986
0.999968
0.999938
0.999887
0.999803
0.999665
0.99944
0.999077
0.998499
0.997592
0.996196
0.994087
0.990975
0.986496
0.980234
0.971748
0.960625
0.946534
0.929276
0.908802
0.885215
0.85874
0.829696
0.79846
0.765437
0.731042
0.695682
0.659743
0.623585
0.587533
0.551873
0.516854
0.482683
0.449531
0.417533
0.386795
0.357394
0.329378
0.302775
0.27759
0.253813
0.231419
0.210375
0.190644
0.172173
0.154909
0.138797
0.123779
0.1098
0.0968004
0.0847271
0.0735271
0.0631508
0.0535524
0.0446904
0.0365288
0.0291661
0.0225208
0.016305
0.0107124
0.00575783
0.00314418
0.00217744
0.0014877
0.00100104
0.000662071
0.000429496
0.000272713
0.000169232
0.00010272
6.15075e-05
3.74806e-05
2.52671e-05
1.90853e-05
1.43056e-05
1.0258e-05
6.96337e-06
4.44224e-06
2.65476e-06
1.48984e-06
7.90574e-07
4.00034e-07
1.95038e-07
9.26225e-08
4.3012e-08
1.95871e-08
8.76643e-09
3.86335e-09
1.67928e-09
7.21065e-10
3.06294e-10
1.28869e-10
5.37472e-11
2.22171e-11
9.07851e-12
3.6349e-12
1.38884e-12
4.64007e-13
8.14814e-14
0.999997
0.999986
0.999968
0.999938
0.999888
0.999804
0.999666
0.999442
0.99908
0.998505
0.997604
0.996218
0.994126
0.99104
0.986603
0.980401
0.972
0.960987
0.947032
0.929932
0.909631
0.886223
0.859927
0.83105
0.799963
0.767064
0.732765
0.697468
0.66156
0.625399
0.589312
0.553588
0.518479
0.484196
0.450913
0.41877
0.387877
0.358314
0.330134
0.303367
0.27802
0.254084
0.231542
0.210364
0.190504
0.171915
0.154545
0.138338
0.123237
0.109185
0.0961242
0.084
0.072759
0.062351
0.0527294
0.0438518
0.0356909
0.0283653
0.0217243
0.0155019
0.00992514
0.00503984
0.00309963
0.00212494
0.00143842
0.000959628
0.000629643
0.000405416
0.000255627
0.000157633
9.52276e-05
5.69933e-05
3.51511e-05
2.45135e-05
1.85516e-05
1.3777e-05
9.78061e-06
6.57492e-06
4.15779e-06
2.4678e-06
1.37905e-06
7.30645e-07
3.69948e-07
1.80739e-07
8.60638e-08
4.00843e-08
1.83078e-08
8.21688e-09
3.63051e-09
1.58173e-09
6.80566e-10
2.89599e-10
1.22026e-10
5.09555e-11
2.10838e-11
8.62177e-12
3.45376e-12
1.31998e-12
4.41063e-13
7.74941e-14
0.999997
0.999986
0.999968
0.999938
0.999888
0.999805
0.999668
0.999445
0.999086
0.998515
0.997621
0.996246
0.994172
0.991114
0.986717
0.980573
0.972247
0.961329
0.947488
0.930517
0.910354
0.887088
0.860929
0.83218
0.801204
0.768398
0.734167
0.698913
0.663021
0.62685
0.590726
0.554943
0.519752
0.48537
0.451972
0.419702
0.388673
0.358969
0.330646
0.303734
0.278243
0.254174
0.231507
0.210207
0.190234
0.171542
0.154079
0.13779
0.122617
0.108504
0.0953928
0.0832282
0.0719569
0.0615283
0.0518956
0.0430161
0.0348556
0.0275509
0.0209045
0.0146987
0.00914674
0.00432626
0.00296246
0.00201296
0.00135325
0.00089767
0.00058605
0.00037563
0.000235857
0.000144924
8.73753e-05
5.24149e-05
3.2791e-05
2.34641e-05
1.78204e-05
1.31704e-05
9.29189e-06
6.20407e-06
3.89733e-06
2.30029e-06
1.28041e-06
6.76961e-07
3.42585e-07
1.67517e-07
7.98862e-08
3.72754e-08
1.70593e-08
7.67249e-09
3.397e-09
1.48294e-09
6.39244e-10
2.72476e-10
1.14983e-10
4.8077e-11
1.99142e-11
8.15039e-12
3.26685e-12
1.24895e-12
4.17401e-13
7.33823e-14
0.999997
0.999986
0.999968
0.999939
0.999889
0.999806
0.99967
0.999449
0.999092
0.998525
0.997638
0.996274
0.994216
0.991183
0.986822
0.980727
0.972466
0.961629
0.947883
0.931017
0.910967
0.887813
0.861762
0.833111
0.802219
0.769478
0.735293
0.700065
0.664175
0.627985
0.591822
0.55598
0.520713
0.48624
0.45274
0.420358
0.389211
0.359384
0.330934
0.303896
0.27829
0.254107
0.23133
0.209927
0.18986
0.171082
0.153541
0.137184
0.121954
0.107792
0.0946422
0.0824486
0.0711579
0.0607197
0.0510877
0.0422201
0.0340802
0.0268624
0.0200826
0.01395
0.00846689
0.0037297
0.0026065
0.00179519
0.00121765
0.000812382
0.000532263
0.000341859
0.000214898
0.000132176
7.98713e-05
4.82505e-05
3.07761e-05
2.25438e-05
1.71673e-05
1.26513e-05
8.88828e-06
5.90413e-06
3.68916e-06
2.16723e-06
1.20219e-06
6.34292e-07
3.20702e-07
1.56849e-07
7.48451e-08
3.4953e-08
1.6012e-08
7.20897e-09
3.19515e-09
1.39628e-09
6.02494e-10
2.57055e-10
1.08571e-10
4.54309e-11
1.88306e-11
7.71081e-12
3.09167e-12
1.18208e-12
3.95098e-13
6.95108e-14
0.999997
0.999986
0.999969
0.999939
0.999889
0.999807
0.999672
0.999452
0.999098
0.998535
0.997655
0.9963
0.994259
0.991248
0.986919
0.980867
0.972661
0.961892
0.948225
0.931445
0.911484
0.888418
0.862449
0.83387
0.803038
0.770343
0.736186
0.700967
0.66507
0.628855
0.592649
0.556749
0.521412
0.486857
0.453265
0.420785
0.389533
0.359598
0.331043
0.303905
0.278197
0.253917
0.231048
0.209559
0.189414
0.170565
0.152963
0.136553
0.121277
0.107078
0.0938998
0.0816861
0.0703833
0.0599412
0.050313
0.041457
0.0333651
0.0261749
0.019429
0.0133654
0.00799191
0.00342754
0.00239344
0.00164959
0.00112028
0.000748374
0.000490867
0.000315562
0.000198551
0.000122306
7.41789e-05
4.52473e-05
2.95421e-05
2.20582e-05
1.68068e-05
1.23389e-05
8.62387e-06
5.69634e-06
3.53872e-06
2.06788e-06
1.1422e-06
6.00782e-07
3.03133e-07
1.48125e-07
7.06545e-08
3.29939e-08
1.51174e-08
6.80861e-09
3.01917e-09
1.32013e-09
5.69988e-10
2.43341e-10
1.02842e-10
4.30588e-11
1.78564e-11
7.31476e-12
2.93354e-12
1.12168e-12
3.74899e-13
6.60235e-14
0.999997
0.999986
0.999969
0.999939
0.99989
0.999808
0.999674
0.999456
0.999104
0.998545
0.99767
0.996325
0.994296
0.991305
0.987004
0.980989
0.97283
0.962117
0.948514
0.931804
0.911914
0.888916
0.86301
0.834485
0.803695
0.771028
0.736885
0.701665
0.665752
0.629507
0.593258
0.557303
0.521899
0.48727
0.453597
0.421029
0.389686
0.359663
0.331021
0.303794
0.278001
0.25364
0.230695
0.209137
0.188928
0.170024
0.152373
0.135921
0.120611
0.106385
0.0931872
0.0809607
0.069652
0.0592104
0.0495893
0.0407466
0.0327113
0.0255495
0.0188337
0.0128092
0.00748147
0.00326644
0.0022775
0.00156752
0.00106329
0.000709633
0.000465128
0.00029887
0.00018803
0.000115923
7.05445e-05
4.34718e-05
2.90525e-05
2.19547e-05
1.67017e-05
1.22138e-05
8.48912e-06
5.56981e-06
3.43795e-06
1.99728e-06
1.0979e-06
5.75344e-07
2.89507e-07
1.41246e-07
6.73009e-08
3.14058e-08
1.43835e-08
6.47676e-09
2.87192e-09
1.25587e-09
5.42356e-10
2.31609e-10
9.79145e-11
4.10091e-11
1.70115e-11
6.97029e-12
2.79568e-12
1.06897e-12
3.5725e-13
6.299e-14
0.999997
0.999987
0.999969
0.99994
0.999891
0.999809
0.999676
0.999459
0.999109
0.998553
0.997684
0.996346
0.99433
0.991356
0.987078
0.981094
0.972974
0.962308
0.948757
0.932102
0.912268
0.889323
0.863463
0.834976
0.804214
0.771563
0.737424
0.702196
0.666263
0.629984
0.593693
0.557685
0.522221
0.487524
0.453778
0.421134
0.389717
0.359619
0.3309
0.3036
0.277736
0.253308
0.230302
0.208688
0.188429
0.169481
0.151793
0.135309
0.119974
0.10573
0.0925198
0.0802864
0.0689762
0.0585382
0.0489253
0.0400954
0.0320846
0.0249527
0.0182617
0.012254
0.00693655
0.00320395
0.00222838
0.00153065
0.0010366
0.000690902
0.000452375
0.000290471
0.000182715
0.000112748
6.88456e-05
4.27997e-05
2.9126e-05
2.21625e-05
1.67991e-05
1.22197e-05
8.44601e-06
5.50695e-06
3.37547e-06
1.94894e-06
1.06579e-06
5.56221e-07
2.7899e-07
1.35839e-07
6.46261e-08
3.01234e-08
1.37849e-08
6.20368e-09
2.74985e-09
1.20227e-09
5.19187e-10
2.21728e-10
9.37502e-11
3.92717e-11
1.62936e-11
6.67743e-12
2.67813e-12
1.02414e-12
3.42139e-13
6.04144e-14
0.999997
0.999987
0.999969
0.99994
0.999891
0.99981
0.999678
0.999461
0.999113
0.998561
0.997696
0.996365
0.994359
0.991399
0.987141
0.981183
0.973095
0.962467
0.948958
0.932347
0.912556
0.889652
0.863826
0.835365
0.80462
0.771977
0.737835
0.702593
0.666636
0.630325
0.593992
0.557935
0.522417
0.487659
0.45385
0.421144
0.389662
0.359498
0.330715
0.303354
0.277432
0.252951
0.229894
0.208236
0.187939
0.168957
0.15124
0.134734
0.119382
0.105126
0.0919081
0.0796723
0.0683641
0.0579321
0.0483287
0.0395118
0.0315266
0.0244157
0.0177397
0.0117528
0.00645891
0.00317587
0.0022062
0.00151386
0.00102437
0.000682335
0.000446598
0.000286747
0.000180456
0.000111514
6.83296e-05
4.28389e-05
2.96794e-05
2.26519e-05
1.70877e-05
1.23536e-05
8.48004e-06
5.49117e-06
3.34348e-06
1.91817e-06
1.04344e-06
5.42239e-07
2.71057e-07
1.31677e-07
6.25352e-08
2.91086e-08
1.33063e-08
5.98355e-09
2.65076e-09
1.1585e-09
5.00171e-10
2.13584e-10
9.03058e-11
3.78307e-11
1.5697e-11
6.43363e-12
2.58014e-12
9.87096e-13
3.29595e-13
5.82836e-14
0.999997
0.999987
0.999969
0.99994
0.999892
0.999811
0.999679
0.999464
0.999117
0.998567
0.997706
0.996381
0.994383
0.991436
0.987194
0.981257
0.973195
0.962598
0.949123
0.932547
0.912789
0.889914
0.864113
0.83567
0.804934
0.772292
0.738143
0.702885
0.666903
0.63056
0.594189
0.558088
0.522519
0.48771
0.453848
0.421087
0.389549
0.35933
0.330494
0.303082
0.277113
0.252589
0.229493
0.2078
0.187473
0.168465
0.150728
0.134206
0.118842
0.104579
0.0913587
0.0791241
0.0678208
0.0573973
0.0478069
0.0390083
0.0310442
0.0239466
0.0172893
0.0113219
0.00604722
0.00315288
0.00219185
0.00150496
0.00101895
0.000679128
0.000444777
0.000285783
0.000180031
0.000111453
6.85637e-05
4.33679e-05
3.0559e-05
2.33217e-05
1.74966e-05
1.25694e-05
8.56968e-06
5.51027e-06
3.33322e-06
1.90083e-06
1.02864e-06
5.32339e-07
2.65221e-07
1.28543e-07
6.09341e-08
2.83214e-08
1.29314e-08
5.80965e-09
2.57194e-09
1.12349e-09
4.84887e-10
2.07013e-10
8.75173e-11
3.66608e-11
1.52118e-11
6.23484e-12
2.50027e-12
9.56886e-13
3.19345e-13
5.65548e-14
0.999997
0.999987
0.999969
0.99994
0.999892
0.999812
0.99968
0.999466
0.999121
0.998572
0.997714
0.996395
0.994404
0.991466
0.987238
0.981318
0.973278
0.962704
0.949256
0.932707
0.912974
0.890121
0.864337
0.835905
0.805174
0.772529
0.738369
0.703094
0.667089
0.630716
0.594309
0.558168
0.522557
0.487704
0.453796
0.420987
0.389403
0.359138
0.330258
0.302806
0.276799
0.252239
0.229113
0.207393
0.187043
0.168017
0.150264
0.133731
0.118361
0.104094
0.0908739
0.0786427
0.0673462
0.0569343
0.0473585
0.0385705
0.0306234
0.023544
0.0169044
0.0109556
0.00570378
0.00313373
0.00218178
0.00150025
0.00101727
0.000679031
0.000445429
0.000286718
0.000181008
0.000112379
6.94356e-05
4.42478e-05
3.15261e-05
2.4043e-05
1.79509e-05
1.28238e-05
8.69029e-06
5.55279e-06
3.33844e-06
1.89398e-06
1.02019e-06
5.25854e-07
2.6116e-07
1.26293e-07
5.97591e-08
2.77342e-08
1.2648e-08
5.67685e-09
2.51123e-09
1.09633e-09
4.72958e-10
2.01858e-10
8.53206e-11
3.57358e-11
1.48273e-11
6.07684e-12
2.43675e-12
9.3279e-13
3.11161e-13
5.51849e-14
0.999997
0.999987
0.999969
0.999941
0.999892
0.999813
0.999681
0.999467
0.999123
0.998577
0.997722
0.996406
0.994421
0.991491
0.987273
0.981367
0.973344
0.96279
0.949362
0.932833
0.91312
0.890283
0.86451
0.836085
0.805355
0.772704
0.738533
0.703241
0.667213
0.630813
0.594375
0.5582
0.522553
0.487661
0.453714
0.420865
0.389242
0.35894
0.330025
0.30254
0.276503
0.251916
0.228766
0.207025
0.186657
0.167618
0.149855
0.133315
0.117941
0.103673
0.0904551
0.0782295
0.0669424
0.0565399
0.0469704
0.0381932
0.0302674
0.0232039
0.0165791
0.0106446
0.00542377
0.00311809
0.00217504
0.00149845
0.00101796
0.000680792
0.000447478
0.000288661
0.000182688
0.000113776
7.06069e-05
4.52925e-05
3.25298e-05
2.47964e-05
1.84411e-05
1.31113e-05
8.83812e-06
5.61593e-06
3.35808e-06
1.89563e-06
1.01705e-06
5.22471e-07
2.58686e-07
1.24831e-07
5.89619e-08
2.73235e-08
1.24453e-08
5.58015e-09
2.46641e-09
1.07605e-09
4.63973e-10
1.97946e-10
8.36445e-11
3.50263e-11
1.45319e-11
5.95461e-12
2.38779e-12
9.14103e-13
3.04806e-13
5.41305e-14
0.999997
0.999987
0.99997
0.999941
0.999893
0.999813
0.999682
0.999469
0.999126
0.998581
0.997727
0.996415
0.994434
0.991511
0.987302
0.981407
0.973397
0.962858
0.949446
0.932932
0.913233
0.890407
0.864642
0.83622
0.805488
0.772831
0.738649
0.703341
0.667293
0.630869
0.594404
0.5582
0.522522
0.487598
0.453618
0.420738
0.389083
0.358751
0.329808
0.302296
0.276235
0.251628
0.228459
0.206703
0.186322
0.167273
0.149503
0.132959
0.117583
0.103317
0.0901041
0.0778855
0.0666033
0.0562055
0.0466459
0.0378803
0.0299728
0.0229231
0.0163114
0.0103893
0.00519518
0.00310496
0.00217133
0.00149968
0.00102143
0.000684947
0.000451467
0.000292096
0.000185461
0.000115934
7.22781e-05
4.66415e-05
3.3681e-05
2.56319e-05
1.89876e-05
1.34395e-05
9.01524e-06
5.69956e-06
3.39135e-06
1.90582e-06
1.01847e-06
5.21554e-07
2.57575e-07
1.24046e-07
5.84896e-08
2.70637e-08
1.23112e-08
5.51415e-09
2.4351e-09
1.06164e-09
4.57498e-10
1.95098e-10
8.24141e-11
3.45013e-11
1.43144e-11
5.86258e-12
2.35155e-12
9.00085e-13
3.00047e-13
5.33476e-14
0.999997
0.999987
0.99997
0.999941
0.999893
0.999813
0.999683
0.99947
0.999128
0.998583
0.997732
0.996422
0.994445
0.991527
0.987324
0.981438
0.973438
0.96291
0.94951
0.933008
0.913319
0.890501
0.864741
0.83632
0.805585
0.772922
0.738729
0.703407
0.667342
0.630898
0.594411
0.558183
0.52248
0.48753
0.453523
0.420617
0.388938
0.358582
0.329616
0.302084
0.276005
0.251381
0.228198
0.206431
0.186041
0.166985
0.149211
0.132665
0.117291
0.103028
0.089817
0.0776001
0.0663236
0.0559345
0.0463843
0.0376288
0.0297354
0.0226972
0.0160965
0.0101857
0.00501416
0.00309628
0.00217058
0.00150302
0.00102646
0.000690265
0.000456341
0.00029621
0.000188749
0.000118472
7.42177e-05
4.81615e-05
3.4927e-05
2.65321e-05
1.9583e-05
1.38035e-05
9.21794e-06
5.8008e-06
3.43613e-06
1.92309e-06
1.02402e-06
5.22762e-07
2.57495e-07
1.23756e-07
5.82581e-08
2.69205e-08
1.22314e-08
5.4728e-09
2.41469e-09
1.052e-09
4.53079e-10
1.93124e-10
8.1552e-11
3.41267e-11
1.41646e-11
5.79638e-12
2.3267e-12
8.90082e-13
2.96657e-13
5.27961e-14
0.999997
0.999987
0.99997
0.999941
0.999893
0.999814
0.999683
0.999471
0.999129
0.998586
0.997735
0.996427
0.994453
0.991539
0.987341
0.981461
0.973468
0.962949
0.949558
0.933065
0.913383
0.89057
0.864813
0.836392
0.805654
0.772985
0.738783
0.703449
0.66737
0.63091
0.594405
0.558158
0.522435
0.487464
0.453438
0.420512
0.388813
0.358439
0.329457
0.301909
0.275816
0.25118
0.227988
0.206212
0.185817
0.166757
0.148981
0.132435
0.11706
0.102797
0.0895883
0.0773764
0.0661059
0.0557241
0.0461819
0.037435
0.0295486
0.0225182
0.0159223
0.0100122
0.00484635
0.00308758
0.00217138
0.00150837
0.00103345
0.000697283
0.000462578
0.000301356
0.000192785
0.000121529
7.64962e-05
4.98817e-05
3.62654e-05
2.74846e-05
2.0213e-05
1.41915e-05
9.43764e-06
5.91389e-06
3.48876e-06
1.94524e-06
1.03241e-06
5.25547e-07
2.5823e-07
1.23868e-07
5.82131e-08
2.68618e-08
1.21911e-08
5.44994e-09
2.40258e-09
1.04609e-09
4.5026e-10
1.91849e-10
8.09873e-11
3.3876e-11
1.40667e-11
5.75237e-12
2.31067e-12
8.83397e-13
2.94382e-13
5.24334e-14
0.999997
0.999987
0.99997
0.999941
0.999893
0.999814
0.999684
0.999471
0.99913
0.998587
0.997738
0.996431
0.994459
0.991547
0.987353
0.981478
0.973491
0.962977
0.949592
0.933105
0.913427
0.890618
0.864862
0.836441
0.805701
0.773026
0.738818
0.703475
0.667385
0.630913
0.594395
0.558133
0.522396
0.48741
0.453369
0.420428
0.388716
0.358329
0.329335
0.301776
0.275674
0.25103
0.227831
0.20605
0.185651
0.166588
0.14881
0.132261
0.116887
0.102626
0.0894207
0.0772133
0.065948
0.055572
0.0460361
0.0372955
0.0294164
0.0223923
0.0158014
0.00989511
0.004739
0.00308238
0.00217452
0.00151541
0.00104172
0.00070528
0.000469567
0.000307074
0.000197243
0.000124885
7.89695e-05
5.17048e-05
3.76283e-05
2.84389e-05
2.08402e-05
1.45773e-05
9.65718e-06
6.02848e-06
3.54346e-06
1.96915e-06
1.04202e-06
5.29084e-07
2.59401e-07
1.2422e-07
5.82919e-08
2.68662e-08
1.21799e-08
5.44063e-09
2.39664e-09
1.04323e-09
4.48695e-10
1.91224e-10
8.06609e-11
3.37335e-11
1.40105e-11
5.72576e-12
2.30168e-12
8.79263e-13
2.9299e-13
5.22187e-14
0.999997
0.999987
0.99997
0.999941
0.999893
0.999814
0.999684
0.999472
0.999131
0.998588
0.99774
0.996434
0.994463
0.991553
0.987361
0.981488
0.973505
0.962995
0.949614
0.93313
0.913455
0.890649
0.864894
0.836472
0.80573
0.773052
0.738838
0.703489
0.667392
0.630912
0.594385
0.558114
0.522367
0.487372
0.453321
0.420371
0.38865
0.358255
0.329253
0.301688
0.27558
0.25093
0.227727
0.205942
0.18554
0.166474
0.148695
0.132148
0.116774
0.102515
0.089313
0.077109
0.0658476
0.055476
0.0459448
0.037209
0.0293353
0.0223155
0.0157275
0.00982221
0.00466906
0.00307903
0.00217929
0.00152369
0.00105084
0.000713815
0.000476876
0.000312969
0.000201788
0.00012827
8.14272e-05
5.34655e-05
3.88837e-05
2.92929e-05
2.13908e-05
1.49114e-05
9.84594e-06
6.12697e-06
3.59078e-06
1.99011e-06
1.05061e-06
5.32356e-07
2.6054e-07
1.24652e-07
5.84061e-08
2.6913e-08
1.2184e-08
5.44329e-09
2.39491e-09
1.04279e-09
4.4807e-10
1.91021e-10
8.05206e-11
3.36672e-11
1.39856e-11
5.71232e-12
2.29749e-12
8.77111e-13
2.92257e-13
5.21101e-14
0.999997
0.999987
0.99997
0.999941
0.999893
0.999814
0.999684
0.999472
0.999131
0.998589
0.99774
0.996435
0.994464
0.991555
0.987365
0.981493
0.973511
0.963004
0.949624
0.933142
0.913469
0.890663
0.864908
0.836486
0.805743
0.773063
0.738847
0.703496
0.667395
0.630911
0.59438
0.558104
0.522352
0.487353
0.453297
0.420343
0.388617
0.358218
0.329212
0.301644
0.275532
0.25088
0.227675
0.205888
0.185485
0.166419
0.14864
0.132093
0.11672
0.102463
0.0892618
0.0770598
0.0658007
0.0554317
0.0459032
0.0371702
0.0292998
0.0222822
0.0156954
0.0097894
0.00463475
0.00307736
0.00218425
0.00153112
0.00105858
0.00072082
0.000482737
0.000317619
0.00020533
0.000130879
8.32948e-05
5.47605e-05
3.97428e-05
2.98453e-05
2.17325e-05
1.51123e-05
9.95681e-06
6.18388e-06
3.6179e-06
2.00211e-06
1.05556e-06
5.34275e-07
2.61217e-07
1.24924e-07
5.84863e-08
2.69475e-08
1.21907e-08
5.4466e-09
2.39488e-09
1.04293e-09
4.47903e-10
1.90976e-10
8.04749e-11
3.36426e-11
1.39773e-11
5.70717e-12
2.29592e-12
8.76246e-13
2.91959e-13
5.20668e-14
0.999997
0.999987
0.99997
0.999941
0.999893
0.999814
0.999684
0.999472
0.999131
0.998589
0.99774
0.996435
0.994464
0.991555
0.987365
0.981493
0.973511
0.963003
0.949624
0.933141
0.913468
0.890662
0.864908
0.836486
0.805742
0.773063
0.738847
0.703495
0.667395
0.630911
0.594379
0.558104
0.522352
0.487352
0.453297
0.420342
0.388617
0.358218
0.329212
0.301643
0.275532
0.25088
0.227674
0.205888
0.185485
0.166419
0.14864
0.132093
0.11672
0.102463
0.0892618
0.0770597
0.0658007
0.0554317
0.0459032
0.0371702
0.0292997
0.0222822
0.0156954
0.00978938
0.00463476
0.00307736
0.00218424
0.00153111
0.00105856
0.000720792
0.000482707
0.000317588
0.000205302
0.000130856
8.3278e-05
5.47495e-05
3.97372e-05
2.9843e-05
2.17319e-05
1.51123e-05
9.95694e-06
6.184e-06
3.61797e-06
2.00216e-06
1.05557e-06
5.34281e-07
2.61236e-07
1.2492e-07
5.84873e-08
2.69466e-08
1.21908e-08
5.44647e-09
2.39489e-09
1.04291e-09
4.47906e-10
1.9097e-10
8.04766e-11
3.36404e-11
1.39773e-11
5.70731e-12
2.29577e-12
8.76238e-13
2.91954e-13
5.20647e-14
0.999997
0.999987
0.99997
0.999941
0.999893
0.999814
0.999684
0.999472
0.999131
0.998588
0.99774
0.996434
0.994463
0.991553
0.987361
0.981488
0.973504
0.962995
0.949613
0.933129
0.913455
0.890648
0.864893
0.836471
0.805729
0.773051
0.738837
0.703488
0.667391
0.630911
0.594384
0.558113
0.522366
0.487371
0.45332
0.420371
0.388649
0.358254
0.329252
0.301687
0.275579
0.25093
0.227726
0.205942
0.185539
0.166474
0.148695
0.132147
0.116774
0.102515
0.0893126
0.0771086
0.0658473
0.0554757
0.0459445
0.0372087
0.0293351
0.0223153
0.0157274
0.00982218
0.0046691
0.00307905
0.00217929
0.00152369
0.00105085
0.000713838
0.000476906
0.000313
0.000201815
0.00012829
8.14418e-05
5.34745e-05
3.88882e-05
2.92952e-05
2.13921e-05
1.49123e-05
9.84656e-06
6.12736e-06
3.59101e-06
1.99023e-06
1.05067e-06
5.32387e-07
2.60556e-07
1.2465e-07
5.84087e-08
2.69123e-08
1.21845e-08
5.44309e-09
2.39499e-09
1.04275e-09
4.48087e-10
1.91006e-10
8.05253e-11
3.36636e-11
1.39862e-11
5.71296e-12
2.29697e-12
8.77133e-13
2.9225e-13
5.21036e-14
0.999997
0.999987
0.99997
0.999941
0.999893
0.999814
0.999684
0.999471
0.99913
0.998587
0.997738
0.996431
0.994459
0.991547
0.987353
0.981477
0.97349
0.962977
0.949591
0.933104
0.913426
0.890617
0.864861
0.83644
0.805699
0.773025
0.738816
0.703473
0.667383
0.630911
0.594393
0.558131
0.522394
0.487409
0.453367
0.420427
0.388714
0.358327
0.329333
0.301775
0.275672
0.251029
0.22783
0.206049
0.18565
0.166587
0.148809
0.132261
0.116886
0.102625
0.0894201
0.0772127
0.0659475
0.0555716
0.0460357
0.0372952
0.0294161
0.022392
0.0158013
0.00989508
0.00473911
0.00308243
0.0021745
0.00151534
0.00104163
0.000705179
0.000469476
0.000307002
0.000197191
0.000124851
7.89496e-05
5.16948e-05
3.7625e-05
2.84387e-05
2.08411e-05
1.45783e-05
9.65803e-06
6.02906e-06
3.5438e-06
1.96933e-06
1.04211e-06
5.29126e-07
2.59418e-07
1.24228e-07
5.82954e-08
2.68673e-08
1.21806e-08
5.44074e-09
2.39677e-09
1.04323e-09
4.48721e-10
1.91212e-10
8.06692e-11
3.37315e-11
1.40117e-11
5.72682e-12
2.30097e-12
8.79238e-13
2.92983e-13
5.22067e-14
0.999997
0.999987
0.99997
0.999941
0.999893
0.999814
0.999683
0.999471
0.999129
0.998586
0.997735
0.996427
0.994453
0.991538
0.987341
0.981461
0.973468
0.962948
0.949557
0.933063
0.913381
0.890568
0.864811
0.83639
0.805652
0.772982
0.73878
0.703447
0.667367
0.630907
0.594402
0.558155
0.522432
0.487462
0.453435
0.420509
0.388811
0.358437
0.329455
0.301907
0.275814
0.251178
0.227986
0.206211
0.185815
0.166755
0.14898
0.132434
0.117059
0.102797
0.0895878
0.077376
0.0661055
0.0557237
0.0461815
0.0374346
0.0295482
0.0225179
0.0159221
0.0100121
0.00484648
0.00308768
0.00217142
0.00150839
0.00103348
0.000697308
0.000462599
0.000301372
0.000192795
0.000121536
7.65e-05
4.98838e-05
3.62667e-05
2.7486e-05
2.02146e-05
1.41929e-05
9.43872e-06
5.9146e-06
3.48918e-06
1.94546e-06
1.03252e-06
5.25597e-07
2.58252e-07
1.23878e-07
5.82174e-08
2.68636e-08
1.21918e-08
5.45027e-09
2.40273e-09
1.04615e-09
4.50288e-10
1.91856e-10
8.09975e-11
3.38773e-11
1.40676e-11
5.75351e-12
2.31024e-12
8.8311e-13
2.94368e-13
5.24141e-14
0.999997
0.999987
0.99997
0.999941
0.999893
0.999813
0.999683
0.99947
0.999127
0.998583
0.997732
0.996422
0.994445
0.991526
0.987324
0.981437
0.973437
0.962909
0.949509
0.933007
0.913317
0.890499
0.864738
0.836317
0.805583
0.772919
0.738726
0.703404
0.667338
0.630895
0.594407
0.55818
0.522477
0.487527
0.45352
0.420614
0.388935
0.358579
0.329614
0.302081
0.276002
0.251379
0.228196
0.206429
0.186039
0.166983
0.149209
0.132664
0.117289
0.103027
0.0898159
0.0775991
0.0663225
0.0559336
0.0463834
0.037628
0.0297347
0.0226966
0.0160961
0.0101856
0.00501425
0.0030968
0.00217083
0.00150313
0.00102651
0.000690285
0.00045635
0.000296213
0.00018875
0.000118473
7.42187e-05
4.81625e-05
3.49281e-05
2.65337e-05
1.95847e-05
1.3805e-05
9.21909e-06
5.80156e-06
3.43657e-06
1.92333e-06
1.02414e-06
5.22816e-07
2.57519e-07
1.23767e-07
5.82626e-08
2.69226e-08
1.22324e-08
5.47323e-09
2.41489e-09
1.05208e-09
4.53114e-10
1.93138e-10
8.15589e-11
3.41292e-11
1.41648e-11
5.79764e-12
2.32677e-12
8.89523e-13
2.9664e-13
5.27685e-14
0.999997
0.999987
0.99997
0.999941
0.999893
0.999813
0.999682
0.999469
0.999126
0.99858
0.997727
0.996415
0.994434
0.991511
0.987301
0.981406
0.973396
0.962856
0.949444
0.93293
0.913231
0.890405
0.864639
0.836217
0.805485
0.772827
0.738645
0.703337
0.667289
0.630865
0.594399
0.558196
0.522518
0.487594
0.453615
0.420734
0.38908
0.358748
0.329805
0.302293
0.276233
0.251625
0.228457
0.206701
0.18632
0.167271
0.149502
0.132958
0.117582
0.103316
0.0901032
0.0778849
0.0666029
0.0562053
0.0466458
0.0378803
0.0299727
0.0229229
0.0163112
0.0103892
0.00519523
0.00310499
0.00217126
0.00149955
0.00102128
0.000684797
0.00045134
0.000291999
0.000185395
0.000115892
7.22544e-05
4.66301e-05
3.36774e-05
2.5632e-05
1.89889e-05
1.34408e-05
9.01631e-06
5.70028e-06
3.39177e-06
1.90604e-06
1.01858e-06
5.21605e-07
2.57598e-07
1.24057e-07
5.84948e-08
2.70661e-08
1.23123e-08
5.51467e-09
2.43533e-09
1.06174e-09
4.57539e-10
1.95115e-10
8.24213e-11
3.45041e-11
1.43152e-11
5.86363e-12
2.35223e-12
8.99249e-13
3.00028e-13
5.33114e-14
0.999997
0.999987
0.999969
0.999941
0.999892
0.999813
0.999681
0.999467
0.999123
0.998577
0.997721
0.996406
0.99442
0.991491
0.987273
0.981367
0.973343
0.962789
0.94936
0.932831
0.913117
0.89028
0.864507
0.836081
0.80535
0.7727
0.738528
0.703236
0.667208
0.630808
0.59437
0.558195
0.522548
0.487657
0.453709
0.420861
0.389238
0.358936
0.330022
0.302536
0.276499
0.251913
0.228763
0.207023
0.186655
0.167615
0.149853
0.133313
0.117939
0.103672
0.0904534
0.0782277
0.0669405
0.0565378
0.046968
0.0381913
0.0302659
0.0232028
0.0165784
0.0106442
0.00542359
0.00311812
0.00217507
0.00149852
0.00101806
0.00068091
0.000447587
0.00028875
0.000182755
0.000113821
7.06348e-05
4.53078e-05
3.25364e-05
2.47995e-05
1.8443e-05
1.31127e-05
8.8391e-06
5.61655e-06
3.35843e-06
1.89582e-06
1.01714e-06
5.22517e-07
2.58708e-07
1.24843e-07
5.89675e-08
2.73262e-08
1.24465e-08
5.58073e-09
2.46667e-09
1.07616e-09
4.64019e-10
1.97966e-10
8.36525e-11
3.50296e-11
1.45332e-11
5.95548e-12
2.38874e-12
9.13095e-13
3.04784e-13
5.40885e-14
0.999997
0.999987
0.999969
0.99994
0.999892
0.999812
0.99968
0.999466
0.999121
0.998572
0.997714
0.996394
0.994403
0.991466
0.987237
0.981317
0.973276
0.962703
0.949254
0.932704
0.912971
0.890118
0.864333
0.835901
0.805169
0.772524
0.738364
0.703089
0.667083
0.63071
0.594303
0.558162
0.522552
0.487699
0.453791
0.420982
0.389398
0.359133
0.330254
0.302802
0.276795
0.252236
0.22911
0.20739
0.18704
0.168014
0.150262
0.13373
0.118359
0.104093
0.0908728
0.0786419
0.0673458
0.0569343
0.0473589
0.0385706
0.0306234
0.0235437
0.016904
0.0109552
0.00570351
0.00313378
0.00218178
0.00150021
0.00101719
0.000678934
0.000445329
0.000286627
0.000180936
0.000112326
6.94011e-05
4.42285e-05
3.15188e-05
2.40416e-05
1.79514e-05
1.28247e-05
8.69104e-06
5.55328e-06
3.33873e-06
1.89414e-06
1.02026e-06
5.25895e-07
2.61181e-07
1.26305e-07
5.97648e-08
2.7737e-08
1.26493e-08
5.67746e-09
2.51151e-09
1.09645e-09
4.73009e-10
2.01879e-10
8.53292e-11
3.57395e-11
1.48289e-11
6.07756e-12
2.43793e-12
9.31688e-13
3.11136e-13
5.51408e-14
0.999997
0.999987
0.999969
0.99994
0.999892
0.999811
0.999679
0.999464
0.999117
0.998567
0.997706
0.996381
0.994383
0.991435
0.987193
0.981256
0.973194
0.962596
0.94912
0.932544
0.912785
0.88991
0.864108
0.835665
0.804929
0.772286
0.738137
0.702879
0.666897
0.630554
0.594182
0.558081
0.522513
0.487704
0.453843
0.421081
0.389544
0.359325
0.330489
0.303078
0.277109
0.252585
0.22949
0.207797
0.187469
0.168462
0.150725
0.134203
0.11884
0.104577
0.0913564
0.0791218
0.0678185
0.057395
0.0478049
0.0390064
0.0310426
0.0239453
0.0172881
0.011321
0.00604666
0.00315281
0.00219175
0.00150487
0.00101889
0.000679102
0.000444777
0.000285799
0.000180055
0.000111478
6.85845e-05
4.33829e-05
3.05675e-05
2.33258e-05
1.74988e-05
1.25706e-05
8.57038e-06
5.51066e-06
3.33344e-06
1.90094e-06
1.0287e-06
5.32375e-07
2.65241e-07
1.28554e-07
6.09397e-08
2.83242e-08
1.29327e-08
5.81027e-09
2.57222e-09
1.12361e-09
4.84939e-10