/*--------------------------------*- C++ -*----------------------------------*\
  =========                 |
  \\      /  F ield         | OpenFOAM: The Open Source CFD Toolbox
   \\    /   O peration     | Website:  https://openfoam.org
    \\  /    A nd           | Version:  8
     \\/     M anipulation  |
\*---------------------------------------------------------------------------*/
FoamFile
{
    version     2.0;
    format      ascii;
    class       volScalarField;
    location    "640/fluid";
    object      CO2;
}
// * * * * * * * * * * * * * * * * * * * * * * * * * * * * * * * * * * * * * //

dimensions      [0 0 0 0 0 0 0];

internalField   nonuniform List<scalar> 
4000
(
4.70868e-07
2.05745e-06
4.72475e-06
9.19457e-06
1.66526e-05
2.90276e-05
4.94194e-05
8.27393e-05
0.000136637
0.000222786
0.000358556
0.000569018
0.000888998
0.00136461
0.00205329
0.00302141
0.00433846
0.00606859
0.00826106
0.0109429
0.0141157
0.0177573
0.0218268
0.0262701
0.0310258
0.0360297
0.041218
0.0465294
0.0519067
0.0572979
0.0626565
0.067942
0.0731201
0.0781623
0.0830457
0.0877522
0.0922679
0.096583
0.100691
0.10459
0.108279
0.11176
0.115035
0.11811
0.12099
0.123681
0.126188
0.128517
0.130673
0.13266
0.134479
0.136132
0.137614
0.13892
0.140039
0.140953
0.141637
0.142049
0.142149
0.141871
0.141118
0.139762
0.137309
0.126753
0.11602
0.105292
0.0947082
0.0843781
0.0743892
0.0648125
0.0557083
0.0471294
0.0391255
0.0317825
0.0250737
0.0191046
0.0139395
0.00964169
0.0062581
0.00378318
0.00212639
0.00111688
0.000553417
0.000262975
0.000121405
5.478e-05
2.42631e-05
1.0583e-05
4.55721e-06
1.9413e-06
8.19439e-07
3.43223e-07
1.42803e-07
5.90525e-08
2.42587e-08
9.87064e-09
3.9416e-09
1.50393e-09
5.02134e-10
8.80406e-11
4.72031e-07
2.06308e-06
4.74011e-06
9.23098e-06
1.6732e-05
2.91887e-05
4.9724e-05
8.32737e-05
0.000137498
0.000224032
0.0003601
0.00057041
0.000889107
0.00136127
0.00204284
0.00299839
0.00429588
0.00599864
0.00815638
0.0107979
0.0139277
0.0175269
0.0215575
0.0259679
0.0306983
0.0356852
0.0408648
0.0461753
0.0515587
0.0569618
0.0623371
0.0676431
0.0728442
0.077911
0.0828199
0.0875522
0.0920933
0.096433
0.100565
0.104486
0.108195
0.111694
0.114987
0.118077
0.12097
0.123673
0.126191
0.128529
0.130692
0.132685
0.134509
0.136165
0.137651
0.138959
0.140079
0.140994
0.141678
0.142089
0.142189
0.14191
0.141154
0.139794
0.136454
0.12582
0.115028
0.104253
0.0936319
0.083272
0.0732606
0.0636695
0.0545599
0.0459866
0.0380021
0.0306975
0.0240489
0.0181688
0.0131233
0.00897429
0.00575778
0.00344693
0.00192672
0.00101227
0.000504626
0.000241846
0.000112777
5.14166e-05
2.29968e-05
1.01172e-05
4.38781e-06
1.8796e-06
7.96666e-07
3.34618e-07
1.39457e-07
5.77156e-08
2.37139e-08
9.64699e-09
3.85084e-09
1.46872e-09
4.90232e-10
8.59957e-11
4.74068e-07
2.07227e-06
4.76248e-06
9.27731e-06
1.68201e-05
2.93455e-05
4.99864e-05
8.36891e-05
0.000138117
0.000224881
0.000361115
0.000571324
0.000889214
0.00135897
0.00203546
0.00298199
0.00426517
0.00594725
0.00807756
0.0106854
0.0137768
0.017335
0.0213245
0.0256963
0.0303927
0.0353521
0.0405114
0.0458095
0.0511882
0.0565939
0.0619784
0.0672991
0.0725197
0.0776097
0.0825444
0.0873043
0.091874
0.0962425
0.100403
0.104351
0.108087
0.111611
0.114926
0.118038
0.120951
0.12367
0.126203
0.128553
0.130728
0.13273
0.134562
0.136223
0.137713
0.139024
0.140145
0.14106
0.141742
0.14215
0.142244
0.141956
0.141187
0.139807
0.134921
0.124235
0.113398
0.102586
0.0919402
0.0815695
0.071563
0.0619941
0.0529261
0.0444161
0.0365191
0.0293149
0.0228103
0.0171019
0.0122508
0.00830799
0.00529125
0.00315155
0.00175818
0.000924848
0.00046277
0.000222781
0.00010441
4.78496e-05
2.15113e-05
9.50964e-06
4.14248e-06
1.78134e-06
7.57447e-07
3.18956e-07
1.33181e-07
5.51887e-08
2.26928e-08
9.23479e-09
3.68648e-09
1.40585e-09
4.69144e-10
8.23179e-11
4.74577e-07
2.07448e-06
4.76749e-06
9.2867e-06
1.68354e-05
2.93657e-05
5.00019e-05
8.36628e-05
0.000137949
0.000224352
0.000359798
0.00056845
0.000883534
0.00134867
0.00201793
0.00295373
0.0042219
0.00588424
0.00799012
0.0105695
0.0136296
0.0171552
0.0211125
0.0254539
0.0301232
0.0350598
0.0402016
0.0454879
0.0508608
0.0562668
0.0616571
0.0669889
0.0722251
0.0773345
0.0822917
0.0870762
0.0916721
0.0960676
0.100255
0.10423
0.107992
0.111541
0.11488
0.118014
0.120946
0.123683
0.126231
0.128595
0.130781
0.132792
0.134631
0.136298
0.13779
0.139102
0.140222
0.141133
0.14181
0.142208
0.142289
0.141983
0.14119
0.139777
0.133006
0.122303
0.111447
0.100623
0.0899774
0.0796233
0.0696521
0.0601394
0.0511499
0.0427422
0.0349727
0.0278934
0.0215628
0.016045
0.0113959
0.00765771
0.00483343
0.00285687
0.00158537
0.000831884
0.000416312
0.000200809
9.43909e-05
4.341e-05
1.95893e-05
8.69359e-06
3.80154e-06
1.64075e-06
7.00044e-07
2.9569e-07
1.23798e-07
5.14175e-08
2.11819e-08
8.63283e-09
3.45007e-09
1.31668e-09
4.39563e-10
7.71793e-11
4.73797e-07
2.07099e-06
4.75913e-06
9.26929e-06
1.68006e-05
2.92969e-05
4.9866e-05
8.33966e-05
0.000137436
0.000223378
0.000357991
0.000565186
0.000877812
0.00133897
0.00200207
0.00292882
0.00418441
0.00583026
0.00791582
0.0104716
0.0135058
0.0170044
0.020935
0.0252513
0.0298982
0.034816
0.0399434
0.0452201
0.0505883
0.0559945
0.0613899
0.0667312
0.0719807
0.0771067
0.0820833
0.0868894
0.0915084
0.0959279
0.10014
0.104139
0.107924
0.111497
0.114857
0.11801
0.12096
0.123713
0.126275
0.128651
0.130847
0.132866
0.13471
0.136379
0.137872
0.139181
0.140296
0.141198
0.141861
0.14224
0.142301
0.141967
0.141137
0.13968
0.130968
0.120285
0.109431
0.09861
0.0879782
0.0776551
0.0677349
0.0582941
0.0493979
0.0411043
0.0334834
0.0265552
0.0203975
0.0150677
0.0106155
0.00707284
0.00442821
0.0026
0.0014365
0.000752305
0.000376539
0.000181896
8.5686e-05
3.95041e-05
1.78721e-05
7.95111e-06
3.48494e-06
1.5073e-06
6.44331e-07
2.72613e-07
1.14301e-07
4.75311e-08
1.96006e-08
7.9947e-09
3.19688e-09
1.22046e-09
4.07484e-10
7.15863e-11
4.71877e-07
2.06247e-06
4.739e-06
9.22848e-06
1.67228e-05
2.9153e-05
4.96043e-05
8.29267e-05
0.000136602
0.000221922
0.00035549
0.000560976
0.000870894
0.00132791
0.00198495
0.00290321
0.00414751
0.00577912
0.00784766
0.0103842
0.0133977
0.0168751
0.0207851
0.0250822
0.0297123
0.0346162
0.0397332
0.0450033
0.0503689
0.0557765
0.0611771
0.0665272
0.0717887
0.0769295
0.0819231
0.086748
0.0913871
0.0958275
0.10006
0.104081
0.107888
0.111479
0.114857
0.118027
0.120993
0.123759
0.126333
0.128719
0.130922
0.132945
0.134791
0.13646
0.137949
0.13925
0.140353
0.141238
0.14188
0.142231
0.14226
0.141888
0.141017
0.139536
0.12925
0.118498
0.107588
0.0967363
0.086102
0.0758038
0.0659339
0.0565668
0.0477652
0.0395854
0.0321092
0.0253279
0.0193353
0.0141834
0.00991474
0.00655126
0.0040684
0.00237188
0.00130353
0.000680392
0.000340009
0.000164255
7.74406e-05
3.57515e-05
1.62018e-05
7.22161e-06
3.17143e-06
1.37439e-06
5.88623e-07
2.49482e-07
1.04769e-07
4.36286e-08
1.80128e-08
7.35419e-09
2.94283e-09
1.12393e-09
3.75311e-10
6.59761e-11
4.69419e-07
2.05165e-06
4.71375e-06
9.17823e-06
1.66292e-05
2.89844e-05
4.93067e-05
8.24091e-05
0.000135714
0.000220418
0.000352981
0.000556869
0.000864311
0.00131762
0.00196931
0.00288019
0.00411479
0.00573433
0.00778865
0.0103093
0.013306
0.0167665
0.0206603
0.0249427
0.0295601
0.034454
0.039564
0.0448302
0.0501952
0.0556054
0.0610118
0.0663704
0.0716431
0.0767973
0.0818061
0.0866476
0.0913041
0.0957627
0.100014
0.104053
0.107877
0.111484
0.114878
0.118062
0.12104
0.123817
0.1264
0.128793
0.131
0.133026
0.134871
0.136536
0.138016
0.139305
0.140388
0.141246
0.141851
0.142153
0.142118
0.141663
0.140692
0.139111
0.128218
0.117124
0.106025
0.0950788
0.0844124
0.0741259
0.0643005
0.0550033
0.0462916
0.0382169
0.0308606
0.0242097
0.0183732
0.0133916
0.00929679
0.00609677
0.00375808
0.00217683
0.0011905
0.000619437
0.000309026
0.000149241
7.0384e-05
3.25166e-05
1.47499e-05
6.5817e-06
2.89382e-06
1.2556e-06
5.38395e-07
2.28456e-07
9.60431e-08
4.00339e-08
1.65426e-08
6.75856e-09
2.70576e-09
1.03362e-09
3.45169e-10
6.0718e-11
4.66753e-07
2.03994e-06
4.68657e-06
9.12448e-06
1.65299e-05
2.88071e-05
4.8997e-05
8.18768e-05
0.000134812
0.000218912
0.000350509
0.000552885
0.000858032
0.00130797
0.00195489
0.00285932
0.00408562
0.00569502
0.00773759
0.0102454
0.0132286
0.0166759
0.0205573
0.0248287
0.029437
0.0343241
0.0394296
0.0446941
0.0500602
0.055474
0.0608865
0.0662536
0.0715367
0.076703
0.0817253
0.0865813
0.0912532
0.0957276
0.0999948
0.104048
0.107886
0.111507
0.114913
0.118109
0.121097
0.123883
0.126472
0.12887
0.13108
0.133105
0.134948
0.136606
0.138076
0.139349
0.140409
0.141234
0.141788
0.142021
0.141882
0.141267
0.14004
0.138049
0.126952
0.115713
0.104524
0.0935361
0.0828658
0.0726069
0.0628352
0.0536139
0.0449972
0.0370339
0.0298018
0.0232986
0.0175915
0.0127334
0.00877201
0.00571033
0.0034943
0.00201102
0.00109425
0.00056732
0.000282378
0.000136249
6.42404e-05
2.96838e-05
1.34715e-05
6.01555e-06
2.64717e-06
1.14967e-06
4.93457e-07
2.09593e-07
8.81962e-08
3.6795e-08
1.52158e-08
6.22028e-09
2.49128e-09
9.51844e-10
3.17859e-10
5.59539e-11
4.64122e-07
2.02841e-06
4.6599e-06
9.07199e-06
1.64334e-05
2.86361e-05
4.87007e-05
8.1372e-05
0.000133965
0.000217512
0.000348235
0.000549261
0.00085238
0.00129937
0.00194218
0.00284111
0.00406041
0.00566135
0.00769426
0.0101916
0.0131642
0.0166012
0.020473
0.0247363
0.0293383
0.0342209
0.0393242
0.0445886
0.0499568
0.0553749
0.0607937
0.0661689
0.0714617
0.0766389
0.0816732
0.086542
0.0912274
0.0957147
0.0999943
0.10406
0.10791
0.111542
0.114959
0.118163
0.121159
0.123951
0.126545
0.128946
0.131157
0.133181
0.135021
0.136673
0.138134
0.139393
0.140436
0.141238
0.141761
0.141956
0.141766
0.141085
0.139774
0.136844
0.125636
0.114326
0.103101
0.0921053
0.0814529
0.0712341
0.0615223
0.0523795
0.0438608
0.0360199
0.028925
0.0225515
0.0169697
0.0122247
0.00834662
0.00538338
0.00327055
0.0018705
0.00101282
0.000523255
0.000259833
0.000125238
5.90196e-05
2.72687e-05
1.23778e-05
5.52935e-06
2.43454e-06
1.058e-06
4.54433e-07
1.93159e-07
8.13392e-08
3.39573e-08
1.40508e-08
5.74674e-09
2.30232e-09
8.79759e-10
2.93783e-10
5.17525e-11
4.61657e-07
2.01762e-06
4.63497e-06
9.02307e-06
1.63438e-05
2.8478e-05
4.84279e-05
8.09095e-05
0.000133193
0.000216246
0.000346191
0.000546028
0.000847379
0.00129183
0.00193112
0.00282541
0.00403886
0.00563282
0.00765788
0.0101469
0.0131111
0.0165401
0.0204048
0.0246623
0.0292599
0.0341399
0.0392424
0.0445079
0.049879
0.0553018
0.0607268
0.0661096
0.0714112
0.0765983
0.0816432
0.0865233
0.0912194
0.0957175
0.100008
0.104085
0.107944
0.111585
0.11501
0.118221
0.121223
0.12402
0.126617
0.129019
0.13123
0.133253
0.135089
0.136736
0.13819
0.13944
0.140472
0.141261
0.141769
0.141952
0.141753
0.141074
0.139789
0.135544
0.124318
0.113001
0.101782
0.0908061
0.0801876
0.0700162
0.0603646
0.0512943
0.0428612
0.0351119
0.0280549
0.0217662
0.0162952
0.0116842
0.00796424
0.00510326
0.00307666
0.00174995
0.0009434
0.000485827
0.000240707
0.000115897
5.45862e-05
2.52147e-05
1.14458e-05
5.11416e-06
2.25257e-06
9.79394e-07
4.20901e-07
1.79012e-07
7.54267e-08
3.15067e-08
1.30432e-08
5.33684e-09
2.13866e-09
8.17301e-10
2.72958e-10
4.81178e-11
4.5943e-07
2.00787e-06
4.6125e-06
8.97906e-06
1.62634e-05
2.83365e-05
4.81847e-05
8.04991e-05
0.000132512
0.000215132
0.000344405
0.000543219
0.000843061
0.00128535
0.00192169
0.00281211
0.00402073
0.005609
0.00762771
0.01011
0.0130677
0.0164906
0.0203502
0.0246035
0.0291984
0.0340771
0.0391798
0.0444471
0.0498214
0.0552489
0.0606798
0.0660697
0.0713793
0.0765752
0.0816293
0.0865184
0.0912238
0.0957313
0.100031
0.104116
0.107983
0.111631
0.115062
0.118279
0.121284
0.124084
0.126683
0.129086
0.131296
0.133317
0.135149
0.136791
0.138239
0.139482
0.140505
0.141285
0.141783
0.141958
0.141753
0.141072
0.139791
0.134314
0.123088
0.111783
0.100586
0.0896435
0.0790709
0.0689563
0.0593702
0.0503723
0.0419964
0.0342882
0.0273103
0.0211094
0.0157341
0.0112234
0.00760307
0.00486282
0.00291371
0.00164783
0.000884858
0.000454354
0.000224647
0.000108054
5.08616e-05
2.34871e-05
1.06608e-05
4.7639e-06
2.0988e-06
9.12844e-07
3.92463e-07
1.66993e-07
7.0396e-08
2.94188e-08
1.21839e-08
4.98696e-09
1.99883e-09
7.6407e-10
2.55182e-10
4.50181e-11
4.5747e-07
1.9993e-06
4.59277e-06
8.94047e-06
1.61931e-05
2.8213e-05
4.7973e-05
8.01429e-05
0.000131922
0.000214173
0.000342873
0.000540821
0.000839391
0.00127988
0.00191377
0.00280099
0.00400567
0.00558933
0.00760298
0.0100801
0.0130326
0.016451
0.0203067
0.0245573
0.0291505
0.0340288
0.0391325
0.044402
0.0497797
0.0552117
0.0606481
0.0660443
0.071361
0.0765645
0.0816261
0.0865231
0.0912364
0.0957516
0.100058
0.10415
0.108024
0.111677
0.115113
0.118333
0.121341
0.124143
0.126742
0.129144
0.131353
0.133371
0.1352
0.136837
0.138278
0.139514
0.140529
0.1413
0.141789
0.141955
0.141743
0.141057
0.139775
0.133233
0.122006
0.110713
0.0995431
0.0886418
0.0781167
0.0680447
0.0584971
0.0495299
0.0412059
0.0335709
0.0266685
0.0205482
0.0152575
0.0108339
0.00730014
0.00464051
0.00277814
0.00156237
0.000835597
0.00042799
0.000211225
0.000101505
4.77516e-05
2.2044e-05
1.00046e-05
4.47082e-06
1.96998e-06
8.57029e-07
3.68583e-07
1.56888e-07
6.61611e-08
2.76592e-08
1.1459e-08
4.69158e-09
1.88075e-09
7.19109e-10
2.40146e-10
4.24037e-11
4.55786e-07
1.99194e-06
4.57582e-06
8.90737e-06
1.61328e-05
2.81074e-05
4.77925e-05
7.98398e-05
0.000131422
0.000213363
0.000341583
0.000538808
0.000836324
0.00127533
0.00190721
0.00279183
0.00399332
0.0055733
0.00758293
0.0100559
0.0130046
0.0164196
0.0202726
0.0245214
0.0291138
0.0339923
0.0390973
0.044369
0.0497501
0.0551863
0.0606276
0.0660295
0.0713522
0.0765619
0.0816301
0.0865336
0.0912535
0.0957749
0.100088
0.104185
0.108063
0.111721
0.115159
0.118382
0.121392
0.124194
0.126793
0.129194
0.1314
0.133415
0.135239
0.136871
0.138305
0.139533
0.14054
0.141302
0.141782
0.14194
0.141721
0.141029
0.139748
0.132307
0.121073
0.10979
0.0986418
0.0877587
0.0772491
0.0672077
0.0577031
0.048793
0.0405288
0.0329574
0.0261215
0.0200719
0.0148548
0.010507
0.0070481
0.00445817
0.00265478
0.00149367
0.000795604
0.000406198
0.000200118
9.60923e-05
4.51823e-05
2.08516e-05
9.46207e-06
4.2283e-06
1.86327e-06
8.1074e-07
3.48753e-07
1.48487e-07
6.26358e-08
2.61928e-08
1.08544e-08
4.44498e-09
1.78212e-09
6.81521e-10
2.27571e-10
4.02189e-11
4.54366e-07
1.98574e-06
4.56156e-06
8.87953e-06
1.60822e-05
2.80189e-05
4.76414e-05
7.95869e-05
0.000131006
0.000212689
0.000340514
0.000537147
0.000833802
0.0012716
0.00190185
0.00278439
0.00398334
0.0055604
0.0075669
0.0100368
0.0129825
0.0163949
0.0202461
0.0244937
0.0290858
0.033965
0.0390713
0.0443454
0.0497295
0.0551694
0.0606151
0.0660217
0.0713495
0.0765644
0.081638
0.0865469
0.091272
0.0957983
0.100115
0.104217
0.108098
0.111759
0.1152
0.118423
0.121434
0.124236
0.126834
0.129233
0.131436
0.133447
0.135266
0.136892
0.13832
0.139541
0.140539
0.141293
0.141764
0.141914
0.141687
0.140991
0.139714
0.131525
0.120277
0.108997
0.097853
0.0869885
0.0765106
0.066505
0.0570409
0.0481762
0.0399614
0.032443
0.0256632
0.0196732
0.0145187
0.010235
0.00683979
0.00430888
0.00255529
0.00143165
0.000763395
0.000388942
0.00019114
9.16889e-05
4.309e-05
1.98795e-05
9.01915e-06
4.03001e-06
1.77589e-06
7.72777e-07
3.32466e-07
1.41577e-07
5.97334e-08
2.49842e-08
1.03557e-08
4.24143e-09
1.7007e-09
6.50465e-10
2.17184e-10
3.84137e-11
4.53197e-07
1.98063e-06
4.54982e-06
8.85664e-06
1.60407e-05
2.79463e-05
4.75176e-05
7.938e-05
0.000130666
0.000212141
0.000339646
0.000535801
0.000831764
0.0012686
0.00189755
0.00277843
0.00397539
0.00555018
0.00755425
0.0100217
0.0129653
0.0163759
0.0202258
0.0244728
0.0290649
0.0339447
0.0390525
0.0443287
0.0497155
0.0551586
0.0606079
0.0660184
0.0713503
0.0765695
0.0816475
0.0865606
0.0912896
0.0958196
0.10014
0.104244
0.108128
0.11179
0.115233
0.118457
0.121467
0.124268
0.126865
0.129261
0.131461
0.133468
0.135282
0.136902
0.138324
0.139537
0.140528
0.141274
0.141736
0.141879
0.141645
0.140946
0.139675
0.130873
0.119611
0.108327
0.0971948
0.0863497
0.0758976
0.0659225
0.0564929
0.0476662
0.0394926
0.0320181
0.0252849
0.0193445
0.014242
0.0100118
0.00666944
0.00418753
0.00247515
0.00138244
0.000734866
0.000374819
0.000184136
8.82189e-05
4.14164e-05
1.90976e-05
8.66213e-06
3.86985e-06
1.70519e-06
7.4201e-07
3.1925e-07
1.35964e-07
5.73733e-08
2.40005e-08
9.95007e-09
4.07566e-09
1.63449e-09
6.25174e-10
2.08725e-10
3.69434e-11
4.52258e-07
1.97653e-06
4.5404e-06
8.83828e-06
1.60074e-05
2.78881e-05
4.74187e-05
7.92149e-05
0.000130395
0.000211705
0.000338957
0.000534736
0.000830156
0.00126623
0.00189418
0.00277378
0.00396919
0.00554224
0.00754448
0.0100101
0.0129521
0.0163614
0.0202105
0.0244571
0.0290494
0.03393
0.0390391
0.044317
0.0497061
0.0551518
0.0606041
0.0660176
0.0713528
0.0765754
0.0816566
0.0865728
0.0913048
0.0958374
0.10016
0.104266
0.108152
0.111815
0.115258
0.118482
0.121492
0.124291
0.126885
0.129279
0.131475
0.133478
0.135287
0.136901
0.138317
0.139523
0.140507
0.141246
0.141702
0.14184
0.141604
0.140904
0.139638
0.130339
0.119065
0.107781
0.0966578
0.0858291
0.0753985
0.065449
0.0560482
0.0472529
0.039113
0.0316745
0.0249792
0.0190791
0.0140188
0.00983207
0.0065327
0.00409047
0.00241139
0.00134359
0.000712657
0.000362666
0.000178281
8.54776e-05
4.01099e-05
1.84808e-05
8.37804e-06
3.74204e-06
1.64869e-06
7.17419e-07
3.08681e-07
1.31473e-07
5.54846e-08
2.32125e-08
9.62706e-09
3.94326e-09
1.58198e-09
6.05022e-10
2.01979e-10
3.57712e-11
4.51532e-07
1.97335e-06
4.53311e-06
8.82409e-06
1.59816e-05
2.78433e-05
4.73425e-05
7.90878e-05
0.000130187
0.00021137
0.000338429
0.000533921
0.000828927
0.00126443
0.00189161
0.00277025
0.00396451
0.00553626
0.00753714
0.0100015
0.0129423
0.0163508
0.0201992
0.0244457
0.0290383
0.0339195
0.0390297
0.0443091
0.0496999
0.0551476
0.0606021
0.066018
0.0713556
0.0765806
0.081664
0.0865824
0.0913163
0.0958508
0.100175
0.104282
0.108168
0.111832
0.115274
0.118498
0.121507
0.124304
0.126896
0.129287
0.131479
0.133478
0.135282
0.136891
0.1383
0.139501
0.140479
0.141213
0.141666
0.141805
0.141577
0.140896
0.139673
0.129931
0.118637
0.107349
0.0962326
0.085417
0.0750041
0.0650755
0.0556981
0.0469281
0.0388153
0.0314054
0.0247401
0.0188719
0.0138449
0.00969227
0.00642656
0.00401532
0.00236213
0.00131367
0.000695637
0.000353437
0.0001734
8.30857e-05
3.90289e-05
1.79955e-05
8.15676e-06
3.64244e-06
1.60451e-06
6.98205e-07
3.00425e-07
1.27974e-07
5.40164e-08
2.26013e-08
9.37751e-09
3.84126e-09
1.54162e-09
5.89504e-10
1.96782e-10
3.48687e-11
4.51002e-07
1.97104e-06
4.5278e-06
8.81375e-06
1.59629e-05
2.78106e-05
4.72869e-05
7.89953e-05
0.000130036
0.000211127
0.000338046
0.000533331
0.000828039
0.00126313
0.00188976
0.00276771
0.00396115
0.00553198
0.00753191
0.00999536
0.0129354
0.0163432
0.0201914
0.0244377
0.0290306
0.0339124
0.0390234
0.0443038
0.0496959
0.0551451
0.0606011
0.0660187
0.0713579
0.0765843
0.0816692
0.0865889
0.0913239
0.0958593
0.100184
0.104292
0.108178
0.111842
0.115284
0.118506
0.121513
0.124309
0.126898
0.129286
0.131475
0.133469
0.135269
0.136873
0.138276
0.139471
0.140443
0.141172
0.141621
0.141758
0.14153
0.140855
0.139644
0.12963
0.118317
0.107024
0.0959117
0.0851062
0.0747073
0.0647953
0.0554363
0.046686
0.038594
0.0312058
0.0245631
0.0187188
0.0137167
0.00958955
0.00634884
0.00396047
0.00232628
0.00129192
0.000683294
0.000346811
0.000169995
8.13985e-05
3.82013e-05
1.76098e-05
7.98751e-06
3.56836e-06
1.57238e-06
6.84369e-07
2.94504e-07
1.2549e-07
5.2968e-08
2.21632e-08
9.1981e-09
3.76782e-09
1.51265e-09
5.78307e-10
1.9303e-10
3.42176e-11
4.50657e-07
1.96953e-06
4.52434e-06
8.80701e-06
1.59507e-05
2.77894e-05
4.72508e-05
7.89352e-05
0.000129938
0.00021097
0.000337798
0.000532949
0.000827465
0.00126229
0.00188857
0.00276608
0.00395899
0.00552924
0.00752856
0.00999144
0.0129309
0.0163384
0.0201864
0.0244327
0.0290257
0.0339079
0.0390194
0.0443006
0.0496935
0.0551436
0.0606006
0.0660191
0.0713593
0.0765865
0.0816721
0.0865923
0.0913277
0.0958634
0.100189
0.104296
0.108182
0.111845
0.115287
0.118508
0.121514
0.124308
0.126895
0.129279
0.131466
0.133456
0.135251
0.13685
0.138248
0.139438
0.140405
0.141128
0.141574
0.141708
0.141483
0.140815
0.139621
0.129432
0.118099
0.106801
0.0956909
0.0848929
0.0745045
0.0646049
0.0552593
0.0465232
0.0384459
0.0310728
0.0244457
0.0186176
0.0136323
0.00952218
0.0062981
0.00392486
0.00230311
0.00127789
0.00067533
0.000342541
0.000167809
8.03439e-05
3.76929e-05
1.73757e-05
7.87754e-06
3.52051e-06
1.55129e-06
6.75473e-07
2.90678e-07
1.23899e-07
5.22964e-08
2.18828e-08
9.08365e-09
3.72086e-09
1.49415e-09
5.71139e-10
1.90623e-10
3.38002e-11
4.50489e-07
1.9688e-06
4.52266e-06
8.80375e-06
1.59448e-05
2.77791e-05
4.72335e-05
7.89065e-05
0.000129891
0.000210895
0.00033768
0.000532768
0.000827194
0.00126189
0.00188801
0.00276531
0.00395797
0.00552795
0.00752699
0.00998959
0.0129289
0.0163362
0.020184
0.0244304
0.0290235
0.0339058
0.0390176
0.0442991
0.0496924
0.0551429
0.0606003
0.0660193
0.0713599
0.0765875
0.0816733
0.0865936
0.0913288
0.0958644
0.10019
0.104297
0.108183
0.111845
0.115286
0.118507
0.121511
0.124304
0.126889
0.129272
0.131456
0.133444
0.135236
0.136832
0.138226
0.139412
0.140375
0.141095
0.141537
0.14167
0.141446
0.140786
0.139609
0.129334
0.117985
0.106681
0.0955732
0.0847801
0.0743985
0.0645065
0.0551688
0.0464407
0.0383716
0.0310068
0.024388
0.0185683
0.0135915
0.0094899
0.00627399
0.00390808
0.00229229
0.00127139
0.000671649
0.000340566
0.000166809
7.98655e-05
3.7462e-05
1.727e-05
7.8281e-06
3.49833e-06
1.54125e-06
6.71189e-07
2.88821e-07
1.23126e-07
5.19702e-08
2.17467e-08
9.02827e-09
3.69813e-09
1.48518e-09
5.6766e-10
1.89452e-10
3.35973e-11
4.50491e-07
1.96881e-06
4.52268e-06
8.80378e-06
1.59449e-05
2.77792e-05
4.72337e-05
7.89068e-05
0.000129891
0.000210895
0.000337682
0.00053277
0.000827197
0.0012619
0.00188802
0.00276532
0.00395798
0.00552796
0.00752701
0.00998961
0.0129289
0.0163362
0.0201841
0.0244304
0.0290235
0.0339059
0.0390177
0.0442991
0.0496924
0.0551429
0.0606004
0.0660194
0.0713599
0.0765876
0.0816734
0.0865936
0.0913289
0.0958645
0.10019
0.104297
0.108183
0.111845
0.115286
0.118507
0.121511
0.124304
0.126889
0.129272
0.131456
0.133444
0.135236
0.136832
0.138226
0.139412
0.140375
0.141095
0.141537
0.14167
0.141446
0.140786
0.139609
0.129334
0.117985
0.106681
0.0955732
0.0847801
0.0743985
0.0645065
0.0551688
0.0464408
0.0383716
0.0310068
0.0243881
0.0185684
0.0135915
0.00948992
0.006274
0.00390809
0.00229229
0.0012714
0.00067165
0.000340565
0.000166813
7.98647e-05
3.74619e-05
1.72697e-05
7.82802e-06
3.49828e-06
1.54124e-06
6.71178e-07
2.88817e-07
1.23123e-07
5.19693e-08
2.1746e-08
9.02818e-09
3.69811e-09
1.48513e-09
5.67646e-10
1.89442e-10
3.35961e-11
4.50662e-07
1.96955e-06
4.52439e-06
8.8071e-06
1.59509e-05
2.77897e-05
4.72513e-05
7.89361e-05
0.000129939
0.000210972
0.000337802
0.000532955
0.000827474
0.0012623
0.00188859
0.0027661
0.00395902
0.00552928
0.00752862
0.00999151
0.012931
0.0163385
0.0201865
0.0244329
0.0290259
0.033908
0.0390196
0.0443007
0.0496936
0.0551437
0.0606007
0.0660193
0.0713594
0.0765867
0.0816722
0.0865924
0.0913278
0.0958635
0.100189
0.104296
0.108182
0.111845
0.115287
0.118508
0.121514
0.124308
0.126895
0.129279
0.131466
0.133456
0.135251
0.13685
0.138248
0.139438
0.140405
0.141128
0.141574
0.141708
0.141483
0.140815
0.139621
0.129431
0.118099
0.106801
0.0956909
0.0848929
0.0745046
0.064605
0.0552594
0.0465232
0.038446
0.0310729
0.0244458
0.0186177
0.0136324
0.00952224
0.00629814
0.00392488
0.00230312
0.0012779
0.000675333
0.000342543
0.000167811
8.03427e-05
3.76926e-05
1.73752e-05
7.8774e-06
3.52039e-06
1.55124e-06
6.75445e-07
2.90669e-07
1.23891e-07
5.22938e-08
2.18816e-08
9.08359e-09
3.72086e-09
1.49399e-09
5.71108e-10
1.90595e-10
3.37967e-11
4.51011e-07
1.97108e-06
4.52788e-06
8.81391e-06
1.59632e-05
2.78111e-05
4.72878e-05
7.89968e-05
0.000130038
0.000211131
0.000338052
0.000533341
0.000828054
0.00126315
0.0018898
0.00276776
0.00396121
0.00553206
0.00753201
0.00999548
0.0129355
0.0163434
0.0201916
0.024438
0.0290308
0.0339126
0.0390236
0.0443041
0.0496961
0.0551453
0.0606013
0.0660189
0.0713581
0.0765846
0.0816694
0.0865891
0.0913241
0.0958594
0.100184
0.104292
0.108178
0.111842
0.115284
0.118506
0.121513
0.124309
0.126899
0.129286
0.131475
0.133469
0.135269
0.136873
0.138276
0.139471
0.140443
0.141172
0.141621
0.141758
0.14153
0.140855
0.139643
0.12963
0.118317
0.107024
0.0959117
0.0851063
0.0747074
0.0647954
0.0554364
0.0466861
0.0385941
0.031206
0.0245632
0.0187189
0.0137168
0.00958963
0.00634889
0.0039605
0.00232629
0.00129193
0.000683297
0.000346812
0.000169995
8.13982e-05
3.82011e-05
1.76096e-05
7.9874e-06
3.56827e-06
1.57233e-06
6.84345e-07
2.94495e-07
1.25481e-07
5.29651e-08
2.21625e-08
9.19818e-09
3.76785e-09
1.51243e-09
5.78253e-10
1.92982e-10
3.42115e-11
4.51544e-07
1.9734e-06
4.53323e-06
8.82432e-06
1.5982e-05
2.7844e-05
4.73437e-05
7.90898e-05
0.000130191
0.000211376
0.000338437
0.000533934
0.000828947
0.00126446
0.00189165
0.00277031
0.00396459
0.00553637
0.00753728
0.0100017
0.0129425
0.016351
0.0201995
0.024446
0.0290386
0.0339199
0.0390301
0.0443094
0.0497002
0.055148
0.0606024
0.0660184
0.0713559
0.0765809
0.0816643
0.0865827
0.0913166
0.095851
0.100175
0.104282
0.108168
0.111832
0.115275
0.118498
0.121507
0.124304
0.126896
0.129287
0.131479
0.133478
0.135282
0.136891
0.1383
0.139501
0.140479
0.141213
0.141666
0.141805
0.141576
0.140896
0.139673
0.129931
0.118637
0.107349
0.0962325
0.085417
0.0750042
0.0650756
0.0556982
0.0469283
0.0388155
0.0314056
0.0247402
0.018872
0.013845
0.00969235
0.00642662
0.00401536
0.00236215
0.00131368
0.000695639
0.000353437
0.0001734
8.30851e-05
3.90285e-05
1.79953e-05
8.15661e-06
3.64238e-06
1.60449e-06
6.98192e-07
3.00419e-07
1.27971e-07
5.40158e-08
2.26013e-08
9.37749e-09
3.84124e-09
1.54146e-09
5.89392e-10
1.96707e-10
3.48588e-11
4.52273e-07
1.97659e-06
4.54055e-06
8.83857e-06
1.60079e-05
2.7889e-05
4.74202e-05
7.92174e-05
0.0001304
0.000211712
0.000338967
0.000534752
0.00083018
0.00126627
0.00189423
0.00277385
0.00396929
0.00554237
0.00754465
0.0100104
0.0129523
0.0163617
0.0202108
0.0244575
0.0290498
0.0339304
0.0390396
0.0443175
0.0497065
0.0551522
0.0606045
0.0660181
0.0713532
0.0765758
0.0816569
0.0865732
0.0913051
0.0958377
0.100161
0.104266
0.108152
0.111815
0.115258
0.118482
0.121492
0.124291
0.126885
0.129279
0.131475
0.133478
0.135287
0.136901
0.138317
0.139523
0.140507
0.141246
0.141702
0.14184
0.141604
0.140904
0.139638
0.130337
0.119065
0.10778
0.0966575
0.0858289
0.0753985
0.0654491
0.0560483
0.047253
0.0391132
0.0316747
0.0249793
0.0190792
0.0140189
0.00983215
0.00653275
0.0040905
0.0024114
0.0013436
0.000712657
0.000362664
0.000178279
8.54767e-05
4.01093e-05
1.84805e-05
8.37788e-06
3.74196e-06
1.64866e-06
7.17402e-07
3.08673e-07
1.3147e-07
5.54833e-08
2.32122e-08
9.62665e-09
3.94322e-09
1.58195e-09
6.04844e-10
2.01873e-10
3.57564e-11
4.53215e-07
1.9807e-06
4.55e-06
8.85699e-06
1.60413e-05
2.79473e-05
4.75194e-05
7.9383e-05
0.000130671
0.000212149
0.000339658
0.000535821
0.000831794
0.00126864
0.00189761
0.00277853
0.00397551
0.00555034
0.00755446
0.010022
0.0129656
0.0163763
0.0202262
0.0244732
0.0290654
0.0339452
0.0390531
0.0443292
0.049716
0.0551591
0.0606085
0.0660189
0.0713508
0.07657
0.0816479
0.086561
0.09129
0.09582
0.10014
0.104244
0.108128
0.111791
0.115233
0.118457
0.121468
0.124269
0.126865
0.129261
0.131461
0.133468
0.135282
0.136902
0.138324
0.139537
0.140528
0.141273
0.141736
0.141878
0.141645
0.140946
0.139675
0.130873
0.119611
0.108327
0.0971946
0.0863496
0.0758975
0.0659225
0.056493
0.0476663
0.0394927
0.0320182
0.025285
0.0193446
0.0142421
0.0100118
0.00666947
0.00418754
0.00247516
0.00138244
0.000734863
0.000374816
0.000184134
8.82174e-05
4.14155e-05
1.90972e-05
8.6619e-06
3.86974e-06
1.70514e-06
7.41987e-07
3.1924e-07
1.3596e-07
5.73715e-08
2.39999e-08
9.94967e-09
4.07556e-09
1.63462e-09
6.2493e-10
2.08588e-10
3.69239e-11
4.54388e-07
1.98583e-06
4.56177e-06
8.87995e-06
1.6083e-05
2.80202e-05
4.76436e-05
7.95905e-05
0.000131012
0.000212699
0.000340529
0.00053717
0.000833837
0.00127165
0.00190192
0.00278449
0.00398348
0.00556059
0.00756714
0.0100371
0.0129829
0.0163954
0.0202466
0.0244942
0.0290864
0.0339655
0.039072
0.044346
0.0497302
0.05517
0.0606157
0.0660224
0.0713501
0.076565
0.0816386
0.0865474
0.0912724
0.0957987
0.100116
0.104217
0.108098
0.111759
0.1152
0.118424
0.121434
0.124236
0.126834
0.129233
0.131436
0.133447
0.135266
0.136892
0.13832
0.139541
0.140539
0.141293
0.141764
0.141914
0.141687
0.140991
0.139714
0.131524
0.120276
0.108996
0.0978525
0.0869881
0.0765104
0.066505
0.0570411
0.0481764
0.0399616
0.0324431
0.0256633
0.0196733
0.0145187
0.0102351
0.0068398
0.00430888
0.00255529
0.00143165
0.000763389
0.000388939
0.000191137
9.1687e-05
4.30891e-05
1.9879e-05
9.01889e-06
4.02988e-06
1.77583e-06
7.7275e-07
3.32454e-07
1.41572e-07
5.97312e-08
2.49834e-08
1.03554e-08
4.24134e-09
1.70089e-09
6.50173e-10
2.17025e-10
3.83908e-11
4.5581e-07
1.99204e-06
4.57607e-06
8.90784e-06
1.61337e-05
2.81089e-05
4.7795e-05
7.9844e-05
0.000131429
0.000213374
0.0003416
0.000538835
0.000836365
0.00127539
0.00190729
0.00279195
0.00399349
0.00557352
0.00758322
0.0100563
0.013005
0.01642
0.0202732
0.024522
0.0291144
0.033993
0.039098
0.0443698
0.0497508
0.055187
0.0606284
0.0660302
0.0713529
0.0765625
0.0816307
0.0865342
0.091254
0.0957754
0.100088
0.104185
0.108063
0.111721
0.11516
0.118382
0.121392
0.124194
0.126793
0.129194
0.1314
0.133415
0.135239
0.136871
0.138305
0.139533
0.14054
0.141302
0.141782
0.14194
0.14172
0.141029
0.139748
0.132306
0.121072
0.109789
0.0986412
0.0877586
0.0772494
0.0672086
0.0577045
0.0487946
0.0405299
0.032958
0.0261218
0.020072
0.0148549
0.010507
0.00704809
0.00445816
0.00265477
0.00149365
0.000795598
0.000406191
0.000200114
9.609e-05
4.51811e-05
2.0851e-05
9.46175e-06
4.22815e-06
1.8632e-06
8.10708e-07
3.48739e-07
1.4848e-07
6.26332e-08
2.61918e-08
1.0854e-08
4.44486e-09
1.78235e-09
6.81201e-10
2.27401e-10
4.01943e-11
4.57498e-07
1.99942e-06
4.59305e-06
8.94101e-06
1.61941e-05
2.82147e-05
4.79759e-05
8.01476e-05
0.00013193
0.000214186
0.000342893
0.000540852
0.000839437
0.00127995
0.00191387
0.00280113
0.00400586
0.00558959
0.0076033
0.0100805
0.0130331
0.0164515
0.0203073