/*--------------------------------*- C++ -*----------------------------------*\
  =========                 |
  \\      /  F ield         | OpenFOAM: The Open Source CFD Toolbox
   \\    /   O peration     | Website:  https://openfoam.org
    \\  /    A nd           | Version:  8
     \\/     M anipulation  |
\*---------------------------------------------------------------------------*/
FoamFile
{
    version     2.0;
    format      ascii;
    class       volScalarField;
    location    "640/fluid";
    object      H2O;
}
// * * * * * * * * * * * * * * * * * * * * * * * * * * * * * * * * * * * * * //

dimensions      [0 0 0 0 0 0 0];

internalField   nonuniform List<scalar> 
4000
(
3.85496e-07
1.68441e-06
3.86811e-06
7.52751e-06
1.36334e-05
2.37646e-05
4.04592e-05
6.77379e-05
0.000111864
0.000182393
0.000293547
0.00046585
0.000727815
0.00111719
0.00168101
0.0024736
0.00355186
0.0049683
0.00676326
0.00895884
0.0115564
0.0145378
0.0178694
0.0215071
0.0254006
0.0294972
0.0337448
0.0380932
0.0424956
0.0469093
0.0512963
0.0556235
0.0598628
0.0639908
0.0679888
0.071842
0.0755389
0.0790717
0.0824352
0.0856272
0.0886472
0.0914967
0.0941783
0.0966958
0.0990536
0.101256
0.103309
0.105216
0.106981
0.108608
0.110097
0.11145
0.112663
0.113733
0.114649
0.115397
0.115957
0.116294
0.116376
0.116149
0.115532
0.114422
0.112414
0.103771
0.0949846
0.0862017
0.0775368
0.0690796
0.0609017
0.0530615
0.0456079
0.0385844
0.0320317
0.0260201
0.0205276
0.0156408
0.0114121
0.00789357
0.00512345
0.00309726
0.00174086
0.000914382
0.000453078
0.000215295
9.93929e-05
4.48479e-05
1.9864e-05
8.66422e-06
3.73095e-06
1.58932e-06
6.70868e-07
2.80994e-07
1.16911e-07
4.83458e-08
1.98604e-08
8.08101e-09
3.22695e-09
1.23126e-09
4.11093e-10
7.2078e-11
3.86447e-07
1.68903e-06
3.88069e-06
7.55732e-06
1.36984e-05
2.38965e-05
4.07086e-05
6.81755e-05
0.000112568
0.000183413
0.000294811
0.00046699
0.000727904
0.00111446
0.00167245
0.00245475
0.003517
0.00491103
0.00667755
0.00884015
0.0114025
0.0143491
0.0176489
0.0212597
0.0251324
0.0292152
0.0334556
0.0378033
0.0422107
0.0466342
0.0510349
0.0553788
0.0596369
0.063785
0.067804
0.0716782
0.075396
0.0789488
0.0823315
0.0855415
0.0885782
0.091443
0.0941385
0.0966685
0.0990373
0.10125
0.103311
0.105225
0.106996
0.108628
0.110121
0.111477
0.112693
0.113764
0.114681
0.11543
0.11599
0.116327
0.116409
0.11618
0.115562
0.114448
0.111713
0.103007
0.0941725
0.0853513
0.0766556
0.068174
0.0599778
0.0521257
0.0446677
0.0376488
0.031112
0.0251317
0.0196886
0.0148746
0.0107439
0.00734717
0.00471385
0.00282197
0.00157739
0.000828736
0.000413133
0.000197997
9.23299e-05
4.20943e-05
1.88273e-05
8.2829e-06
3.59226e-06
1.53882e-06
6.52223e-07
2.73949e-07
1.14172e-07
4.72512e-08
1.94143e-08
7.89791e-09
3.15265e-09
1.20243e-09
4.01348e-10
7.04039e-11
3.88115e-07
1.69655e-06
3.899e-06
7.59526e-06
1.37705e-05
2.40249e-05
4.09234e-05
6.85155e-05
0.000113076
0.000184108
0.000295642
0.000467738
0.000727991
0.00111257
0.00166641
0.00244133
0.00349185
0.00486896
0.00661303
0.00874806
0.0112789
0.014192
0.0174582
0.0210373
0.0248823
0.0289424
0.0331664
0.0375038
0.0419073
0.0463329
0.0507412
0.0550972
0.0593712
0.0635384
0.0675784
0.0714753
0.0752164
0.0787929
0.0821989
0.0854314
0.0884897
0.0913748
0.0940891
0.0966364
0.0990213
0.101248
0.103321
0.105246
0.107026
0.108665
0.110164
0.111525
0.112744
0.113818
0.114736
0.115484
0.116043
0.116377
0.116454
0.116218
0.115589
0.114458
0.110458
0.10171
0.0928377
0.0839864
0.0752706
0.0667803
0.058588
0.0507541
0.0433302
0.0363631
0.0298979
0.0239999
0.0186746
0.0140012
0.0100296
0.00680168
0.0043319
0.00258014
0.00143941
0.000757165
0.000378866
0.000182389
8.54795e-05
3.91741e-05
1.76111e-05
7.78546e-06
3.39141e-06
1.45837e-06
6.20115e-07
2.61126e-07
1.09034e-07
4.51825e-08
1.85784e-08
7.56044e-09
3.01809e-09
1.15095e-09
3.84084e-10
6.7393e-11
3.88532e-07
1.69836e-06
3.9031e-06
7.60294e-06
1.3783e-05
2.40415e-05
4.09361e-05
6.8494e-05
0.000112938
0.000183675
0.000294563
0.000465385
0.000723342
0.00110414
0.00165206
0.0024182
0.00345643
0.00481737
0.00654144
0.00865319
0.0111585
0.0140448
0.0172846
0.0208389
0.0246616
0.0287031
0.0329127
0.0372405
0.0416393
0.0460651
0.0504781
0.0548433
0.0591301
0.0633131
0.0673715
0.0712885
0.0750511
0.0786497
0.082078
0.0853325
0.0884121
0.0913175
0.0940512
0.0966167
0.0990173
0.101258
0.103344
0.10528
0.107069
0.108716
0.110221
0.111586
0.112808
0.113882
0.114799
0.115545
0.116098
0.116424
0.11649
0.11624
0.115591
0.114434
0.108891
0.100128
0.0912403
0.0823793
0.0736637
0.0651869
0.0570236
0.0492356
0.0418759
0.0349927
0.0286319
0.0228361
0.0176532
0.0131359
0.00932971
0.0062693
0.00395709
0.00233889
0.00129793
0.000681056
0.000340831
0.000164401
7.7277e-05
3.55394e-05
1.60376e-05
7.11737e-06
3.11229e-06
1.34326e-06
5.7312e-07
2.42079e-07
1.01352e-07
4.20951e-08
1.73414e-08
7.06762e-09
2.82454e-09
1.07796e-09
3.59867e-10
6.3186e-11
3.87893e-07
1.6955e-06
3.89626e-06
7.58869e-06
1.37545e-05
2.39851e-05
4.08249e-05
6.82761e-05
0.000112517
0.000182878
0.000293084
0.000462713
0.000718657
0.0010962
0.00163908
0.0023978
0.00342574
0.00477318
0.00648061
0.00857303
0.0110571
0.0139214
0.0171393
0.020673
0.0244774
0.0285036
0.0327013
0.0370213
0.0414162
0.0458422
0.0502594
0.0546322
0.05893
0.0631266
0.0672009
0.0711356
0.0749171
0.0785353
0.0819835
0.0852578
0.0883568
0.0912812
0.0940326
0.0966136
0.0990289
0.101283
0.10338
0.105326
0.107123
0.108776
0.110286
0.111653
0.112875
0.113946
0.114859
0.115597
0.11614
0.116451
0.1165
0.116227
0.115547
0.114355
0.107222
0.0984765
0.0895901
0.0807311
0.072027
0.0635756
0.055454
0.0477249
0.0404416
0.0336518
0.0274125
0.0217405
0.0166992
0.0123358
0.0086908
0.00579047
0.00362534
0.00212859
0.00117605
0.000615906
0.000308269
0.000148917
7.01504e-05
3.23417e-05
1.46317e-05
6.5095e-06
2.85309e-06
1.23401e-06
5.27508e-07
2.23186e-07
9.35773e-08
3.89133e-08
1.60468e-08
6.54519e-09
2.61726e-09
9.9918e-10
3.33603e-10
5.8607e-11
3.86322e-07
1.68853e-06
3.87978e-06
7.55527e-06
1.36908e-05
2.38673e-05
4.06106e-05
6.78914e-05
0.000111835
0.000181686
0.000291036
0.000459266
0.000712994
0.00108715
0.00162506
0.00237684
0.00339553
0.00473131
0.00642481
0.00850146
0.0109686
0.0138155
0.0170165
0.0205346
0.0243252
0.02834
0.0325292
0.0368438
0.0412366
0.0456637
0.0500852
0.0544652
0.0587728
0.0629815
0.0670697
0.0710199
0.0748178
0.0784531
0.0819186
0.0852104
0.0883266
0.0912669
0.0940327
0.0966277
0.0990556
0.101321
0.103428
0.105381
0.107184
0.108841
0.110353
0.111719
0.112938
0.114003
0.114906
0.11563
0.116156
0.116443
0.116467
0.116162
0.115449
0.114237
0.105816
0.0970136
0.0880813
0.0791972
0.0704909
0.0620599
0.0539795
0.0463107
0.0391049
0.0324082
0.0262875
0.0207357
0.0158296
0.0116118
0.00811711
0.00536346
0.00333076
0.00194184
0.00106718
0.000557031
0.000278362
0.000134474
6.34e-05
2.92694e-05
1.32643e-05
5.91227e-06
2.59642e-06
1.1252e-06
4.819e-07
2.04248e-07
8.57736e-08
3.57184e-08
1.47469e-08
6.02081e-09
2.40927e-09
9.20154e-10
3.07264e-10
5.40141e-11
3.84309e-07
1.67967e-06
3.8591e-06
7.51413e-06
1.36142e-05
2.37293e-05
4.03669e-05
6.74676e-05
0.000111108
0.000180454
0.000288983
0.000455904
0.000707604
0.00107872
0.00161225
0.00235799
0.00336874
0.00469465
0.0063765
0.00844015
0.0108935
0.0137266
0.0169144
0.0204203
0.0242006
0.0282072
0.0323907
0.0367021
0.0410944
0.0455237
0.0499498
0.0543369
0.0586536
0.0628733
0.0669739
0.0709376
0.0747499
0.0784
0.0818809
0.0851877
0.0883176
0.091271
0.0940495
0.096656
0.0990942
0.101368
0.103483
0.105442
0.107249
0.108907
0.110418
0.111781
0.112993
0.114048
0.114934
0.115637
0.116132
0.116379
0.116351
0.115979
0.115183
0.113889
0.104971
0.0958881
0.0868014
0.0778402
0.0691077
0.0606862
0.0526423
0.0450307
0.0378985
0.0312878
0.0252653
0.0198202
0.015042
0.0109636
0.0076112
0.00499137
0.0030767
0.00178215
0.000974653
0.000507128
0.000252997
0.000122182
5.76228e-05
2.66211e-05
1.20756e-05
5.38838e-06
2.36915e-06
1.02795e-06
4.40779e-07
1.87035e-07
7.86296e-08
3.27754e-08
1.35433e-08
5.53317e-09
2.21518e-09
8.46217e-10
2.82587e-10
4.97093e-11
3.82126e-07
1.67008e-06
3.83685e-06
7.47013e-06
1.35328e-05
2.35841e-05
4.01134e-05
6.70318e-05
0.000110369
0.000179221
0.000286959
0.000452642
0.000702463
0.00107082
0.00160045
0.0023409
0.00334486
0.00466246
0.00633469
0.0083878
0.0108302
0.0136524
0.0168301
0.020327
0.0240998
0.0281008
0.0322807
0.0365907
0.0409838
0.0454161
0.0498473
0.0542412
0.0585665
0.0627961
0.0669078
0.0708833
0.0747082
0.0783714
0.0818648
0.0851834
0.0883251
0.0912897
0.0940787
0.0966945
0.0991409
0.101422
0.103542
0.105504
0.107314
0.108972
0.110481
0.111838
0.113042
0.114083
0.114951
0.115627
0.116081
0.116272
0.116158
0.115654
0.11465
0.11302
0.103935
0.094733
0.0855731
0.0765772
0.0678415
0.0594426
0.0514427
0.0438932
0.0368388
0.0303193
0.0243985
0.0190744
0.014402
0.0104247
0.00718157
0.004675
0.00286076
0.0016464
0.000895855
0.00046446
0.000231181
0.000111546
5.2593e-05
2.43018e-05
1.1029e-05
4.92488e-06
2.16721e-06
9.41222e-07
4.03989e-07
1.71592e-07
7.22055e-08
3.01237e-08
1.24571e-08
5.09249e-09
2.03959e-09
7.79267e-10
2.60229e-10
4.5809e-11
3.79973e-07
1.66064e-06
3.81502e-06
7.42716e-06
1.34539e-05
2.34442e-05
3.98709e-05
6.66185e-05
0.000109676
0.000178075
0.000285097
0.000449675
0.000697836
0.00106378
0.00159004
0.00232599
0.00332422
0.0046349
0.00629922
0.00834378
0.0107774
0.0135912
0.0167611
0.0202514
0.024019
0.0280163
0.0321943
0.0365043
0.0408992
0.045335
0.0497713
0.0541719
0.058505
0.0627436
0.0668651
0.0708512
0.074687
0.0783608
0.0818645
0.0851934
0.0883449
0.0913187
0.094116
0.0967393
0.0991919
0.101478
0.103602
0.105567
0.107377
0.109034
0.11054
0.111893
0.113089
0.11412
0.114974
0.11563
0.116058
0.116218
0.116062
0.115505
0.114432
0.112033
0.102857
0.0935977
0.0844078
0.0754058
0.0666848
0.0583187
0.0503678
0.0428826
0.0359085
0.0294892
0.0236806
0.0184627
0.013893
0.0100083
0.0068333
0.00440732
0.00267757
0.00153136
0.000829183
0.000428384
0.000212723
0.000102531
4.83188e-05
2.23247e-05
1.01336e-05
4.52683e-06
1.99313e-06
8.66176e-07
3.7204e-07
1.58138e-07
6.65917e-08
2.78005e-08
1.15032e-08
4.70481e-09
1.88489e-09
7.20251e-10
2.40518e-10
4.23693e-11
3.77955e-07
1.6518e-06
3.79461e-06
7.38711e-06
1.33805e-05
2.33147e-05
3.96475e-05
6.62399e-05
0.000109044
0.000177038
0.000283424
0.000447028
0.000693742
0.00105761
0.00158099
0.00231314
0.00330658
0.00461154
0.00626944
0.00830715
0.0107339
0.0135412
0.0167053
0.0201908
0.0239548
0.02795
0.0321274
0.0364382
0.0408355
0.0452751
0.0497165
0.0541233
0.0584637
0.0627103
0.0668406
0.0708358
0.0746805
0.0783631
0.0818757
0.0852132
0.0883728
0.0913539
0.0941577
0.0967867
0.099244
0.101534
0.10366
0.105626
0.107437
0.109093
0.110596
0.111944
0.113135
0.114158
0.115003
0.115649
0.116065
0.116215
0.116052
0.115496
0.114444
0.110969
0.101778
0.0925128
0.083328
0.0743422
0.0656489
0.0573216
0.04942
0.0419942
0.0350901
0.0287458
0.0229683
0.0178198
0.0133407
0.00956575
0.00652025
0.00417799
0.00251883
0.00143267
0.000772353
0.000397743
0.000197065
9.48839e-05
4.46892e-05
2.0643e-05
9.37057e-06
4.18692e-06
1.84416e-06
8.01821e-07
3.44588e-07
1.46555e-07
6.17512e-08
2.57942e-08
1.06784e-08
4.36922e-09
1.7509e-09
6.69117e-10
2.23468e-10
3.93936e-11
3.76131e-07
1.64383e-06
3.77622e-06
7.35108e-06
1.33147e-05
2.31989e-05
3.94484e-05
6.59039e-05
0.000108486
0.000176127
0.000281962
0.000444729
0.000690206
0.00105231
0.00157327
0.00230225
0.00329174
0.00459204
0.00624474
0.00827701
0.0106984
0.0135007
0.0166605
0.0201427
0.0239044
0.0278986
0.0320762
0.0363884
0.0407884
0.0452318
0.0496781
0.0540907
0.0584376
0.0626914
0.0668292
0.0708318
0.0746841
0.0783744
0.0818944
0.0852388
0.0884048
0.0913917
0.0942006
0.0968338
0.0992945
0.101587
0.103714
0.105681
0.107491
0.109145
0.110645
0.11199
0.113175
0.114193
0.11503
0.115669
0.116077
0.11622
0.116052
0.115494
0.114446
0.109961
0.100771
0.0915156
0.0823486
0.0733904
0.0647347
0.056454
0.0486059
0.0412394
0.0343821
0.0280715
0.0223587
0.0172821
0.0128813
0.00918852
0.00622457
0.00398115
0.00238543
0.00134906
0.000724425
0.000371976
0.000183917
8.84631e-05
4.16399e-05
1.92287e-05
8.7279e-06
3.90016e-06
1.71827e-06
7.47338e-07
3.21306e-07
1.36716e-07
5.76326e-08
2.40849e-08
9.97483e-09
4.08278e-09
1.63643e-09
6.25537e-10
2.08915e-10
3.6856e-11
3.74527e-07
1.63681e-06
3.76006e-06
7.31948e-06
1.32571e-05
2.30977e-05
3.92751e-05
6.56122e-05
0.000108004
0.000175342
0.000280707
0.000442765
0.000687202
0.00104783
0.00156679
0.00229315
0.00327941
0.00457594
0.00622449
0.00825247
0.0106697
0.0134683
0.0166249
0.0201048
0.0238653
0.0278591
0.0320374
0.0363515
0.0407542
0.0452013
0.0496521
0.0540699
0.0584226
0.0626826
0.0668266
0.0708357
0.0746944
0.078391
0.081917
0.085267
0.088438
0.0914294
0.094242
0.0968782
0.0993411
0.101635
0.103763
0.105729
0.107538
0.10919
0.110687
0.112027
0.113207
0.114219
0.115049
0.115681
0.116081
0.116218
0.116044
0.115482
0.114432
0.109077
0.0998851
0.0906397
0.0814951
0.0725703
0.0639534
0.0557076
0.0478911
0.0405497
0.0337349
0.0274842
0.0218332
0.0168227
0.0124912
0.00886965
0.00597656
0.00379914
0.00227444
0.0012791
0.000684096
0.000350391
0.000172928
8.31012e-05
3.90938e-05
1.80472e-05
8.19067e-06
3.66022e-06
1.61281e-06
7.01642e-07
3.01755e-07
1.28443e-07
5.41655e-08
2.26444e-08
9.3814e-09
3.84096e-09
1.53975e-09
5.88728e-10
1.96605e-10
3.47155e-11
3.73148e-07
1.63078e-06
3.74619e-06
7.29238e-06
1.32078e-05
2.30113e-05
3.91273e-05
6.53642e-05
0.000107594
0.000174678
0.000279651
0.000441118
0.000684691
0.0010441
0.00156141
0.00228565
0.0032693
0.00456281
0.00620808
0.00823272
0.0106468
0.0134426
0.016597
0.0200754
0.0238352
0.0278292
0.0320086
0.0363245
0.04073
0.0451805
0.0496353
0.0540577
0.0584154
0.0626805
0.0668298
0.0708443
0.0747084
0.0784101
0.0819408
0.0852951
0.08847
0.0914646
0.0942799
0.0969181
0.0993823
0.101676
0.103804
0.10577
0.107576
0.109226
0.110719
0.112055
0.113229
0.114235
0.115059
0.115683
0.116076
0.116205
0.116025
0.115459
0.11441
0.108319
0.0991217
0.0898838
0.0807571
0.0718473
0.0632432
0.0550224
0.047241
0.0399464
0.0331806
0.0269819
0.0213854
0.0164327
0.0121615
0.00860195
0.00577022
0.00364987
0.00217345
0.00122285
0.000651354
0.000332551
0.000163835
7.86699e-05
3.69904e-05
1.70711e-05
7.74651e-06
3.46167e-06
1.52545e-06
6.63746e-07
2.85521e-07
1.21565e-07
5.12794e-08
2.14438e-08
8.88638e-09
3.63906e-09
1.459e-09
5.57956e-10
1.8631e-10
3.29268e-11
3.71986e-07
1.6257e-06
3.73451e-06
7.2696e-06
1.31664e-05
2.29388e-05
3.90036e-05
6.51571e-05
0.000107253
0.000174127
0.000278776
0.000439758
0.000682626
0.00104105
0.00155703
0.00227955
0.00326112
0.00455225
0.00619495
0.00821701
0.0106287
0.0134224
0.0165753
0.0200528
0.0238123
0.0278068
0.0319874
0.0363052
0.0407131
0.0451667
0.0496251
0.0540514
0.0584132
0.0626826
0.0668363
0.0708552
0.0747235
0.0784292
0.0819636
0.0853212
0.0884989
0.0914959
0.0943129
0.0969522
0.099417
0.101711
0.103838
0.105802
0.107606
0.109252
0.110741
0.112072
0.113242
0.114241
0.115058
0.115676
0.116061
0.116184
0.115998
0.115428
0.114383
0.107678
0.0984698
0.089235
0.0801114
0.0712167
0.0626386
0.0544471
0.0466989
0.0394414
0.032716
0.0265608
0.0210102
0.0161063
0.0118863
0.00837933
0.00559968
0.00352764
0.002092
0.00117208
0.000624985
0.000318423
0.000156485
7.50649e-05
3.52774e-05
1.62752e-05
7.3839e-06
3.29933e-06
1.45391e-06
6.32666e-07
2.72187e-07
1.15908e-07
4.89032e-08
2.04544e-08
8.47813e-09
3.47242e-09
1.39235e-09
5.3253e-10
1.77806e-10
3.14489e-11
3.71028e-07
1.62152e-06
3.7249e-06
7.25085e-06
1.31324e-05
2.28794e-05
3.89022e-05
6.49877e-05
0.000106975
0.000173678
0.000278065
0.000438656
0.000680958
0.00103859
0.00155351
0.00227468
0.00325462
0.00454388
0.0061846
0.00820469
0.0106146
0.0134068
0.0165587
0.0200356
0.0237952
0.0277903
0.031972
0.0362915
0.0407016
0.0451578
0.0496192
0.0540487
0.0584139
0.0626868
0.0668441
0.0708664
0.074738
0.0784467
0.0819839
0.0853438
0.0885235
0.0915219
0.0943399
0.0969797
0.0994443
0.101737
0.103863
0.105825
0.107626
0.109269
0.110754
0.112081
0.113244
0.114238
0.115049
0.115659
0.116038
0.116155
0.115964
0.115391
0.114351
0.107145
0.0979246
0.0886864
0.0795725
0.0706938
0.0621367
0.0539702
0.0462503
0.0390239
0.0323322
0.026213
0.0207005
0.0158372
0.0116598
0.00819655
0.00546021
0.00342829
0.00202639
0.00113179
0.000601629
0.000306861
0.000150751
7.2224e-05
3.39073e-05
1.56351e-05
7.09161e-06
3.16821e-06
1.39602e-06
6.07477e-07
2.61367e-07
1.11313e-07
4.6971e-08
1.9649e-08
8.14603e-09
3.3367e-09
1.33814e-09
5.11825e-10
1.70881e-10
3.02452e-11
3.7026e-07
1.61816e-06
3.71718e-06
7.23582e-06
1.31051e-05
2.28318e-05
3.88213e-05
6.48526e-05
0.000106754
0.000173321
0.000277501
0.000437784
0.000679641
0.00103665
0.00155075
0.00227087
0.00324954
0.00453738
0.0061766
0.00819522
0.0106038
0.013395
0.0165462
0.0200228
0.0237825
0.0277782
0.031961
0.036282
0.0406939
0.0451523
0.049616
0.0540481
0.0584159
0.0626916
0.0668515
0.0708764
0.0747504
0.0784613
0.0820003
0.0853619
0.0885428
0.091542
0.0943604
0.0970001
0.0994641
0.101756
0.10388
0.105839
0.107638
0.109277
0.110758
0.11208
0.113239
0.114227
0.115032
0.115637
0.11601
0.116123
0.11593
0.115357
0.114321
0.106707
0.0974779
0.0882391
0.0791329
0.0702675
0.0617281
0.0535826
0.0458862
0.0386855
0.0320215
0.0259317
0.0204502
0.0156199
0.0114771
0.00804943
0.00534826
0.00334883
0.00197418
0.00109999
0.000583446
0.000296911
0.000145957
6.99798e-05
3.28377e-05
1.51301e-05
6.85902e-06
3.06358e-06
1.34977e-06
5.87344e-07
2.52715e-07
1.07636e-07
4.54248e-08
1.90039e-08
7.88159e-09
3.22831e-09
1.29515e-09
4.95326e-10
1.65358e-10
2.92855e-11
3.69665e-07
1.61557e-06
3.71122e-06
7.22421e-06
1.3084e-05
2.27951e-05
3.87589e-05
6.47485e-05
0.000106583
0.000173047
0.000277069
0.000437117
0.000678636
0.00103518
0.00154865
0.00226798
0.00324571
0.00453249
0.00617059
0.00818814
0.0105957
0.0133862
0.0165369
0.0200135
0.0237734
0.0277696
0.0319533
0.0362755
0.0406889
0.0451489
0.0496144
0.0540484
0.0584182
0.0626958
0.0668576
0.0708843
0.0747599
0.0784722
0.0820124
0.0853749
0.0885564
0.0915559
0.0943742
0.0970133
0.0994763
0.101767
0.103889
0.105846
0.107641
0.109277
0.110754
0.112072
0.113225
0.114208
0.115009
0.11561
0.115981
0.116095
0.115907
0.115351
0.114349
0.106373
0.0971269
0.0878856
0.0787848
0.0699302
0.0614052
0.0532768
0.0455995
0.0384196
0.0317778
0.0257113
0.0202545
0.0154502
0.0113347
0.00793497
0.00526137
0.00328731
0.00193386
0.00107549
0.000569512
0.000289356
0.000141961
6.80215e-05
3.19526e-05
1.47328e-05
6.67787e-06
2.98203e-06
1.3136e-06
5.71614e-07
2.45956e-07
1.04772e-07
4.42228e-08
1.85035e-08
7.67728e-09
3.1448e-09
1.26211e-09
4.82622e-10
1.61103e-10
2.85467e-11
3.69232e-07
1.61367e-06
3.70687e-06
7.21574e-06
1.30687e-05
2.27683e-05
3.87134e-05
6.46728e-05
0.000106459
0.000172848
0.000276756
0.000436634
0.000677909
0.00103411
0.00154713
0.0022659
0.00324296
0.00452899
0.00616631
0.00818311
0.0105901
0.0133801
0.0165305
0.020007
0.0237671
0.0277638
0.0319481
0.0362711
0.0406856
0.0451468
0.0496136
0.0540489
0.0584201
0.0626989
0.0668619
0.0708895
0.0747661
0.0784791
0.08202
0.0853828
0.0885645
0.0915639
0.0943817
0.09702
0.0994818
0.101771
0.103891
0.105845
0.107638
0.10927
0.110743
0.112056
0.113206
0.114184
0.11498
0.115576
0.115944
0.116056
0.11587
0.115317
0.114325
0.106127
0.0968649
0.0876195
0.078522
0.0696757
0.0611622
0.0530474
0.0453852
0.0382214
0.0315966
0.0255479
0.0201096
0.0153249
0.0112297
0.00785088
0.00519774
0.0032424
0.0019045
0.00105769
0.000559407
0.000283931
0.000139173
6.66402e-05
3.12751e-05
1.4417e-05
6.53931e-06
2.92138e-06
1.28729e-06
5.60287e-07
2.41108e-07
1.02737e-07
4.33645e-08
1.81448e-08
7.5304e-09
3.08468e-09
1.23839e-09
4.73455e-10
1.58032e-10
2.80136e-11
3.68949e-07
1.61244e-06
3.70403e-06
7.21022e-06
1.30587e-05
2.27509e-05
3.86838e-05
6.46236e-05
0.000106379
0.000172719
0.000276553
0.000436321
0.000677439
0.00103342
0.00154616
0.00226456
0.00324119
0.00452674
0.00616357
0.0081799
0.0105864
0.0133761
0.0165264
0.0200029
0.0237631
0.0277601
0.0319449
0.0362685
0.0406836
0.0451456
0.0496131
0.0540493
0.0584212
0.0627007
0.0668642
0.0708923
0.0747692
0.0784825
0.0820235
0.0853864
0.0885678
0.0915669
0.0943841
0.0970215
0.0994822
0.10177
0.103888
0.10584
0.10763
0.109259
0.110729
0.112038
0.113183
0.114157
0.114948
0.115541
0.115905
0.116016
0.115831
0.115284
0.114307
0.105964
0.0966869
0.0874367
0.0783413
0.0695011
0.0609962
0.0528915
0.0452403
0.0380881
0.0314753
0.025439
0.0200135
0.0152421
0.0111606
0.00779573
0.0051562
0.00321325
0.00188553
0.0010462
0.000552887
0.000280435
0.000137384
6.57769e-05
3.08589e-05
1.42253e-05
6.44927e-06
2.88221e-06
1.27003e-06
5.53004e-07
2.37975e-07
1.01435e-07
4.28146e-08
1.79152e-08
7.4367e-09
3.04624e-09
1.22325e-09
4.67586e-10
1.56062e-10
2.76719e-11
3.68812e-07
1.61184e-06
3.70266e-06
7.20755e-06
1.30539e-05
2.27425e-05
3.86697e-05
6.46e-05
0.000106341
0.000172658
0.000276456
0.000436173
0.000677216
0.0010331
0.0015457
0.00226393
0.00324036
0.00452568
0.00616228
0.00817839
0.0105847
0.0133743
0.0165245
0.0200009
0.0237612
0.0277584
0.0319434
0.0362673
0.0406827
0.045145
0.049613
0.0540494
0.0584217
0.0627015
0.0668653
0.0708934
0.0747701
0.0784834
0.0820243
0.085387
0.0885682
0.0915669
0.0943836
0.0970204
0.0994802
0.101767
0.103883
0.105834
0.107622
0.109249
0.110716
0.112023
0.113165
0.114135
0.114924
0.115513
0.115875
0.115984
0.1158
0.11526
0.114297
0.105884
0.0965934
0.0873392
0.0782449
0.0694087
0.0609094
0.0528109
0.0451662
0.0380206
0.0314145
0.025385
0.0199663
0.0152017
0.0111273
0.0077693
0.00513646
0.00319951
0.00187668
0.00104088
0.000549873
0.000278818
0.000136565
6.53852e-05
3.06698e-05
1.41388e-05
6.4088e-06
2.86405e-06
1.26181e-06
5.49496e-07
2.36455e-07
1.00802e-07
4.25475e-08
1.78038e-08
7.39137e-09
3.02763e-09
1.21591e-09
4.64738e-10
1.55103e-10
2.75058e-11
3.68813e-07
1.61185e-06
3.70267e-06
7.20758e-06
1.30539e-05
2.27426e-05
3.86698e-05
6.46003e-05
0.000106341
0.000172658
0.000276457
0.000436174
0.000677219
0.0010331
0.0015457
0.00226394
0.00324037
0.00452569
0.00616229
0.00817841
0.0105848
0.0133743
0.0165245
0.020001
0.0237613
0.0277584
0.0319434
0.0362673
0.0406827
0.045145
0.049613
0.0540495
0.0584217
0.0627016
0.0668653
0.0708934
0.0747701
0.0784834
0.0820243
0.085387
0.0885682
0.0915669
0.0943836
0.0970204
0.0994802
0.101767
0.103883
0.105834
0.107622
0.109249
0.110716
0.112023
0.113165
0.114135
0.114924
0.115513
0.115875
0.115984
0.1158
0.11526
0.114297
0.105884
0.0965934
0.0873392
0.0782449
0.0694087
0.0609094
0.0528109
0.0451662
0.0380207
0.0314145
0.025385
0.0199663
0.0152018
0.0111273
0.00776932
0.00513647
0.00319952
0.00187668
0.00104088
0.000549874
0.000278818
0.000136568
6.53845e-05
3.06697e-05
1.41386e-05
6.40873e-06
2.86401e-06
1.2618e-06
5.49488e-07
2.36452e-07
1.008e-07
4.25468e-08
1.78032e-08
7.39129e-09
3.02761e-09
1.21587e-09
4.64727e-10
1.55095e-10
2.75048e-11
3.68953e-07
1.61246e-06
3.70408e-06
7.2103e-06
1.30588e-05
2.27511e-05
3.86843e-05
6.46243e-05
0.00010638
0.000172721
0.000276555
0.000436325
0.000677445
0.00103343
0.00154617
0.00226459
0.00324122
0.00452678
0.00616362
0.00817996
0.0105865
0.0133762
0.0165265
0.020003
0.0237632
0.0277602
0.031945
0.0362686
0.0406837
0.0451457
0.0496133
0.0540494
0.0584213
0.0627008
0.0668643
0.0708924
0.0747693
0.0784826
0.0820236
0.0853864
0.0885679
0.0915669
0.0943841
0.0970216
0.0994822
0.10177
0.103888
0.10584
0.10763
0.109259
0.110729
0.112038
0.113183
0.114157
0.114948
0.115541
0.115905
0.116015
0.11583
0.115284
0.114307
0.105964
0.0966869
0.0874367
0.0783413
0.0695011
0.0609963
0.0528915
0.0452404
0.0380882
0.0314754
0.0254391
0.0200136
0.0152421
0.0111607
0.00779577
0.00515623
0.00321327
0.00188554
0.00104621
0.00055289
0.000280437
0.000137385
6.57759e-05
3.08586e-05
1.4225e-05
6.44916e-06
2.88211e-06
1.26999e-06
5.52981e-07
2.37968e-07
1.01429e-07
4.28125e-08
1.79143e-08
7.43666e-09
3.04623e-09
1.22312e-09
4.67561e-10
1.56039e-10
2.76691e-11
3.69238e-07
1.6137e-06
3.70694e-06
7.21587e-06
1.30689e-05
2.27687e-05
3.87141e-05
6.4674e-05
0.000106461
0.000172851
0.000276761
0.000436641
0.00067792
0.00103413
0.00154716
0.00226594
0.00324301
0.00452905
0.00616639
0.00818321
0.0105902
0.0133802
0.0165307
0.0200071
0.0237672
0.027764
0.0319483
0.0362713
0.0406858
0.045147
0.0496138
0.0540491
0.0584203
0.0626991
0.066862
0.0708897
0.0747662
0.0784793
0.0820201
0.0853829
0.0885646
0.0915639
0.0943817
0.09702
0.0994818
0.101771
0.103891
0.105845
0.107638
0.10927
0.110743
0.112056
0.113206
0.114184
0.11498
0.115576
0.115944
0.116056
0.115869
0.115317
0.114325
0.106127
0.0968648
0.0876194
0.078522
0.0696757
0.0611623
0.0530475
0.0453853
0.0382215
0.0315967
0.025548
0.0201097
0.015325
0.0112298
0.00785094
0.00519778
0.00324243
0.00190452
0.00105769
0.000559409
0.000283932
0.000139173
6.664e-05
3.12749e-05
1.44168e-05
6.53921e-06
2.92131e-06
1.28726e-06
5.60267e-07
2.411e-07
1.0273e-07
4.33621e-08
1.81443e-08
7.53047e-09
3.0847e-09
1.23821e-09
4.7341e-10
1.57992e-10
2.80086e-11
3.69675e-07
1.61561e-06
3.71131e-06
7.22439e-06
1.30844e-05
2.27956e-05
3.87598e-05
6.47501e-05
0.000106586
0.000173051
0.000277076
0.000437127
0.000678652
0.0010352
0.00154868
0.00226803
0.00324577
0.00453258
0.0061707
0.00818828
0.0105959
0.0133864
0.0165372
0.0200137
0.0237736
0.0277699
0.0319536
0.0362757
0.0406891
0.0451491
0.0496147
0.0540487
0.0584185
0.0626961
0.0668579
0.0708845
0.0747601
0.0784724
0.0820126
0.085375
0.0885565
0.091556
0.0943743
0.0970134
0.0994764
0.101767
0.103889
0.105846
0.107641
0.109277
0.110754
0.112072
0.113225
0.114208
0.115009
0.11561
0.115981
0.116094
0.115907
0.115351
0.114349
0.106373
0.0971268
0.0878855
0.0787847
0.0699302
0.0614053
0.0532769
0.0455996
0.0384198
0.0317779
0.0257115
0.0202546
0.0154503
0.0113348
0.00793504
0.00526142
0.00328734
0.00193387
0.0010755
0.000569513
0.000289355
0.000141961
6.80211e-05
3.19523e-05
1.47326e-05
6.67775e-06
2.98199e-06
1.31358e-06
5.71603e-07
2.4595e-07
1.04769e-07
4.42223e-08
1.85035e-08
7.67727e-09
3.14479e-09
1.26198e-09
4.8253e-10
1.61042e-10
2.85386e-11
3.70272e-07
1.61822e-06
3.7173e-06
7.23606e-06
1.31055e-05
2.28325e-05
3.88225e-05
6.48546e-05
0.000106757
0.000173326
0.00027751
0.000437797
0.000679661
0.00103668
0.00155079
0.00227093
0.00324963
0.00453749
0.00617674
0.00819539
0.010604
0.0133952
0.0165464
0.0200231
0.0237828
0.0277785
0.0319613
0.0362823
0.0406943
0.0451527
0.0496164
0.0540484
0.0584163
0.0626919
0.0668518
0.0708767
0.0747507
0.0784615
0.0820006
0.0853621
0.0885429
0.0915422
0.0943605
0.0970002
0.0994642
0.101756
0.10388
0.105839
0.107638
0.109277
0.110758
0.11208
0.113239
0.114227
0.115032
0.115637
0.11601
0.116123
0.11593
0.115357
0.114321
0.106706
0.0974772
0.0882387
0.0791326
0.0702674
0.0617281
0.0535826
0.0458862
0.0386856
0.0320216
0.0259318
0.0204503
0.01562
0.0114772
0.00804949
0.0053483
0.00334886
0.00197419
0.00109999
0.000583446
0.00029691
0.000145956
6.9979e-05
3.28372e-05
1.51298e-05
6.8589e-06
3.06351e-06
1.34974e-06
5.87331e-07
2.52708e-07
1.07633e-07
4.54237e-08
1.90036e-08
7.88125e-09
3.22828e-09
1.29513e-09
4.9518e-10
1.65271e-10
2.92735e-11
3.71043e-07
1.62159e-06
3.72504e-06
7.25114e-06
1.31329e-05
2.28802e-05
3.89038e-05
6.49902e-05
0.000106979
0.000173684
0.000278075
0.000438672
0.000680983
0.00103862
0.00155356
0.00227475
0.00325472
0.00454402
0.00618477
0.0082049
0.0106148
0.0134071
0.016559
0.020036
0.0237956
0.0277907
0.0319724
0.0362919
0.0407021
0.0451583
0.0496196
0.0540491
0.0584143
0.0626872
0.0668444
0.0708667
0.0747383
0.078447
0.0819841
0.085344
0.0885237
0.0915221
0.0943401
0.0969798
0.0994444
0.101738
0.103863
0.105825
0.107626
0.109269
0.110754
0.112081
0.113244
0.114238
0.115049
0.115659
0.116038
0.116155
0.115964
0.115391
0.114351
0.107145
0.0979245
0.0886862
0.0795724
0.0706936
0.0621366
0.0539702
0.0462503
0.039024
0.0323323
0.026213
0.0207006
0.0158373
0.0116598
0.00819659
0.00546024
0.00342831
0.00202639
0.00113179
0.000601626
0.000306858
0.000150749
7.22228e-05
3.39065e-05
1.56347e-05
7.09142e-06
3.16812e-06
1.39598e-06
6.07459e-07
2.61359e-07
1.11309e-07
4.69695e-08
1.96485e-08
8.14571e-09
3.33663e-09
1.33825e-09
5.11624e-10
1.7077e-10
3.02293e-11
3.72003e-07
1.62578e-06
3.73468e-06
7.26993e-06
1.3167e-05
2.29399e-05
3.90054e-05
6.516e-05
0.000107258
0.000174135
0.000278788
0.000439777
0.000682655
0.00104109
0.00155709
0.00227964
0.00326124
0.00455241
0.00619515
0.00821725
0.010629
0.0134227
0.0165757
0.0200532
0.0238128
0.0278073
0.0319879
0.0363057
0.0407136
0.0451672
0.0496256
0.0540519
0.0584137
0.0626831
0.0668368
0.0708556
0.0747239
0.0784296
0.081964
0.0853215
0.0884992
0.0914961
0.0943131
0.0969524
0.0994171
0.101711
0.103838
0.105802
0.107606
0.109252
0.110741
0.112072
0.113241
0.114241
0.115058
0.115675
0.116061
0.116183
0.115998
0.115428
0.114383
0.107678
0.098469
0.0892344
0.080111
0.0712164
0.0626384
0.0544471
0.046699
0.0394416
0.0327162
0.0265609
0.0210103
0.0161064
0.0118864
0.00837936
0.00559969
0.00352765
0.00209199
0.00117208
0.000624979
0.000318421
0.000156482
7.50634e-05
3.52767e-05
1.62748e-05
7.38368e-06
3.29923e-06
1.45386e-06
6.32644e-07
2.72178e-07
1.15904e-07
4.89014e-08
2.04537e-08
8.47783e-09
3.47234e-09
1.39251e-09
5.32291e-10
1.77677e-10
3.14302e-11
3.73168e-07
1.63087e-06
3.74639e-06
7.29277e-06
1.32085e-05
2.30125e-05
3.91293e-05
6.53676e-05
0.0001076
0.000174687
0.000279665
0.00044114
0.000684725
0.00104415
0.00156148
0.00228575
0.00326944
0.004563
0.00620831
0.008233
0.0106471
0.0134429
0.0165975
0.0200759
0.0238357
0.0278298
0.0320092
0.0363251
0.0407306
0.0451811
0.0496359
0.0540583
0.058416
0.0626811
0.0668303
0.0708448
0.0747089
0.0784105
0.0819412
0.0852955
0.0884703
0.0914649
0.0942801
0.0969183
0.0993825
0.101677
0.103804
0.10577
0.107576
0.109226
0.110719
0.112055
0.113229
0.114235
0.115059
0.115683
0.116076
0.116205
0.116025
0.115459
0.11441
0.108318
0.0991209
0.0898829
0.0807567
0.0718472
0.0632434
0.0550231
0.0472421
0.0399477
0.0331815
0.0269824
0.0213857
0.0164328
0.0121616
0.00860196
0.00577021
0.00364985
0.00217343
0.00122284
0.000651349
0.000332545
0.000163832
7.8668e-05
3.69894e-05
1.70705e-05
7.74625e-06
3.46155e-06
1.52539e-06
6.6372e-07
2.85509e-07
1.2156e-07
5.12772e-08
2.1443e-08