/*--------------------------------*- C++ -*----------------------------------*\
  =========                 |
  \\      /  F ield         | OpenFOAM: The Open Source CFD Toolbox
   \\    /   O peration     | Website:  https://openfoam.org
    \\  /    A nd           | Version:  8
     \\/     M anipulation  |
\*---------------------------------------------------------------------------*/
FoamFile
{
    version     2.0;
    format      ascii;
    class       volScalarField;
    location    "640/fluid";
    object      N2;
}
// * * * * * * * * * * * * * * * * * * * * * * * * * * * * * * * * * * * * * //

dimensions      [0 0 0 0 0 0 0];

internalField   nonuniform List<scalar> 
4000
(
2.2953e-06
1.00292e-05
2.30311e-05
4.4819e-05
8.11724e-05
0.000141492
0.000240886
0.000403291
0.000665991
0.00108587
0.00174758
0.00277329
0.00433269
0.00665042
0.0100064
0.0147237
0.0211408
0.0295701
0.0402512
0.0533154
0.0687703
0.0865081
0.106329
0.127969
0.15113
0.175498
0.200763
0.226627
0.25281
0.27906
0.305151
0.330886
0.356096
0.380644
0.40442
0.427334
0.44932
0.470332
0.490341
0.509334
0.527312
0.544286
0.560275
0.575306
0.589411
0.602626
0.61499
0.626543
0.637326
0.647381
0.65675
0.665473
0.67359
0.681139
0.688157
0.69468
0.700742
0.7063
0.711403
0.716282
0.720819
0.725041
0.728918
0.73264
0.736201
0.739604
0.742851
0.745944
0.74888
0.751656
0.75427
0.756715
0.758984
0.761058
0.762947
0.764626
0.766079
0.767288
0.768239
0.768936
0.769402
0.769686
0.769844
0.769926
0.769966
0.769985
0.769993
0.769997
0.769999
0.769999
0.77
0.77
0.77
0.77
0.77
0.77
0.77
0.77
0.77
0.77
2.3007e-06
1.00555e-05
2.31033e-05
4.49914e-05
8.15502e-05
0.000142261
0.000242343
0.00040585
0.000670108
0.00109182
0.00175492
0.00277979
0.0043328
0.0066336
0.00995466
0.0146105
0.0209321
0.0292278
0.0397395
0.0526074
0.067853
0.0853841
0.105015
0.126496
0.149533
0.173819
0.199043
0.224902
0.251116
0.277425
0.303598
0.329431
0.354754
0.379423
0.403323
0.426363
0.448473
0.469604
0.489728
0.508829
0.526907
0.543973
0.560046
0.575153
0.589326
0.602603
0.61502
0.62662
0.637443
0.647533
0.656931
0.665679
0.673816
0.681382
0.688415
0.694949
0.701019
0.70658
0.711686
0.716569
0.72111
0.72533
0.729209
0.732938
0.736505
0.739914
0.743168
0.746265
0.749204
0.751982
0.754596
0.757038
0.759301
0.761363
0.763235
0.764889
0.766308
0.767475
0.76838
0.76903
0.769458
0.769715
0.769858
0.769932
0.769968
0.769986
0.769994
0.769997
0.769999
0.769999
0.77
0.77
0.77
0.77
0.77
0.77
0.77
0.77
0.77
0.77
2.31039e-06
1.00993e-05
2.32099e-05
4.52127e-05
8.19716e-05
0.000143012
0.000243601
0.000407844
0.000673083
0.00109589
0.00175976
0.00278407
0.00433307
0.00662197
0.00991811
0.0145298
0.0207815
0.0289762
0.0393542
0.052058
0.0671164
0.0844479
0.10388
0.125172
0.148045
0.172198
0.197323
0.223123
0.249315
0.275637
0.301855
0.327761
0.353179
0.377961
0.401987
0.425162
0.447412
0.468684
0.488947
0.508184
0.526392
0.54358
0.559767
0.57498
0.589252
0.602615
0.61511
0.626778
0.637662
0.647805
0.657249
0.666035
0.674205
0.681798
0.688852
0.695403
0.701486
0.70705
0.712157
0.717039
0.721568
0.725781
0.729676
0.733418
0.736993
0.740407
0.743662
0.746757
0.749691
0.75246
0.75506
0.757482
0.759719
0.761752
0.763582
0.765188
0.766553
0.767662
0.768511
0.769113
0.769505
0.76974
0.76987
0.769937
0.769971
0.769987
0.769994
0.769997
0.769999
0.769999
0.77
0.77
0.77
0.77
0.77
0.77
0.77
0.77
0.77
0.77
2.31266e-06
1.01091e-05
2.32324e-05
4.52546e-05
8.20391e-05
0.000143099
0.000243656
0.000407679
0.000672203
0.00109322
0.00175319
0.00276985
0.00430508
0.00657137
0.00983216
0.0143914
0.0205698
0.0286683
0.0389271
0.0514924
0.0663986
0.0835717
0.102847
0.123992
0.146733
0.170775
0.195816
0.221559
0.247724
0.274048
0.300295
0.326257
0.351751
0.376628
0.400764
0.424059
0.446437
0.467842
0.488239
0.507607
0.525944
0.543255
0.559561
0.574886
0.589255
0.60271
0.615288
0.627031
0.63798
0.648181
0.657674
0.666502
0.674707
0.682329
0.689405
0.695973
0.702068
0.707626
0.71272
0.717592
0.722121
0.726333
0.730246
0.733994
0.737573
0.740985
0.744234
0.74732
0.750239
0.752989
0.755564
0.757955
0.760155
0.762151
0.763933
0.765485
0.766793
0.767845
0.76864
0.769196
0.769554
0.769766
0.769883
0.769943
0.769973
0.769988
0.769994
0.769998
0.769999
0.77
0.77
0.77
0.77
0.77
0.77
0.77
0.77
0.77
0.77
0.77
2.30863e-06
1.00911e-05
2.31893e-05
4.51653e-05
8.18616e-05
0.00014275
0.000242972
0.000406347
0.000669646
0.00108839
0.00174427
0.00275378
0.00427695
0.00652375
0.00975441
0.0142695
0.0203865
0.0284045
0.0385644
0.0510147
0.0657947
0.0828366
0.101982
0.123005
0.145639
0.16959
0.194561
0.220259
0.246401
0.272727
0.299
0.325008
0.350569
0.375527
0.399758
0.423159
0.44565
0.467173
0.487689
0.507177
0.525631
0.543059
0.559474
0.574896
0.589359
0.6029
0.615556
0.627368
0.63838
0.648633
0.658172
0.667039
0.675276
0.682923
0.690018
0.696601
0.702699
0.708233
0.71333
0.718215
0.722742
0.726913
0.730852
0.734601
0.738176
0.741582
0.74482
0.747891
0.750791
0.753516
0.756061
0.758418
0.760574
0.762527
0.76426
0.76576
0.767013
0.76801
0.768754
0.769268
0.769596
0.769788
0.769894
0.769949
0.769976
0.769989
0.769995
0.769998
0.769999
0.77
0.77
0.77
0.77
0.77
0.77
0.77
0.77
0.77
0.77
0.77
2.29907e-06
1.00487e-05
2.30892e-05
4.49625e-05
8.14758e-05
0.000142037
0.000241678
0.000404028
0.000665541
0.00108123
0.00173198
0.00273311
0.00424304
0.00646961
0.00967065
0.0141443
0.0202062
0.0281548
0.0382318
0.0505884
0.0652678
0.082207
0.101252
0.122183
0.144735
0.168619
0.193541
0.219207
0.245338
0.271672
0.297971
0.324022
0.349642
0.374674
0.398988
0.422482
0.445072
0.466697
0.487317
0.506911
0.52547
0.542995
0.5595
0.575012
0.589558
0.603174
0.615898
0.627772
0.638836
0.649135
0.658713
0.667611
0.675872
0.683537
0.690644
0.697233
0.703337
0.708863
0.713973
0.718855
0.723375
0.727502
0.73144
0.735189
0.738759
0.742156
0.745381
0.748433
0.751311
0.75401
0.756525
0.758848
0.760962
0.762872
0.764559
0.766009
0.76721
0.768156
0.768855
0.769332
0.769633
0.769808
0.769904
0.769954
0.769978
0.76999
0.769995
0.769998
0.769999
0.77
0.77
0.77
0.77
0.77
0.77
0.77
0.77
0.77
0.77
0.77
2.28691e-06
9.9952e-06
2.29644e-05
4.47144e-05
8.10139e-05
0.000141206
0.000240212
0.000401482
0.000661174
0.00107384
0.00171967
0.00271298
0.0042108
0.00641923
0.00959414
0.0140318
0.0200464
0.0279363
0.037944
0.0502234
0.0648213
0.0816784
0.100645
0.121505
0.143996
0.167832
0.19272
0.218369
0.244497
0.270845
0.297173
0.323268
0.348943
0.37404
0.398429
0.422004
0.444681
0.466396
0.487109
0.506794
0.525438
0.543046
0.559632
0.575218
0.589834
0.603513
0.616294
0.628217
0.639325
0.649661
0.659268
0.66819
0.676468
0.684144
0.691257
0.697844
0.703942
0.709415
0.714645
0.719495
0.723989
0.728081
0.732003
0.735742
0.739302
0.742687
0.745896
0.74893
0.751786
0.754459
0.756945
0.759235
0.761314
0.763187
0.764829
0.766231
0.767384
0.768284
0.768942
0.769387
0.769665
0.769826
0.769913
0.769958
0.76998
0.769991
0.769996
0.769998
0.769999
0.77
0.77
0.77
0.77
0.77
0.77
0.77
0.77
0.77
0.77
0.77
2.27377e-06
9.9375e-06
2.28305e-05
4.44497e-05
8.05251e-05
0.000140334
0.000238691
0.000398868
0.000656749
0.00106646
0.00170756
0.00269348
0.00418008
0.00637205
0.0095237
0.0139299
0.0199041
0.0277445
0.0376952
0.049912
0.0644449
0.081238
0.100145
0.120952
0.143399
0.167203
0.192071
0.217712
0.243846
0.270213
0.296572
0.322708
0.348435
0.373592
0.398048
0.421695
0.444447
0.466241
0.487031
0.506789
0.525507
0.543186
0.559839
0.575488
0.590161
0.603892
0.616719
0.628682
0.639825
0.650189
0.659819
0.668758
0.677048
0.684731
0.691847
0.698435
0.70451
0.709981
0.715214
0.720056
0.724538
0.728611
0.732522
0.73625
0.739798
0.743169
0.746362
0.749377
0.752209
0.754857
0.757312
0.75957
0.761612
0.763443
0.765049
0.766416
0.767531
0.768393
0.769016
0.769434
0.769692
0.76984
0.76992
0.769962
0.769982
0.769992
0.769996
0.769998
0.769999
0.77
0.77
0.77
0.77
0.77
0.77
0.77
0.77
0.77
0.77
0.77
2.26083e-06
9.8808e-06
2.26993e-05
4.41918e-05
8.00514e-05
0.000139495
0.000237237
0.000396393
0.000652598
0.0010596
0.00169643
0.00267576
0.00415245
0.00633006
0.00946165
0.013841
0.0197811
0.0275805
0.0374842
0.0496505
0.0641317
0.0808749
0.0997364
0.120504
0.142921
0.166705
0.191562
0.217204
0.24335
0.269739
0.296129
0.322306
0.348081
0.373293
0.397808
0.421518
0.444337
0.466195
0.487048
0.506871
0.525651
0.54339
0.560099
0.575799
0.590518
0.604291
0.617154
0.629148
0.640316
0.650701
0.660347
0.669298
0.677595
0.685282
0.692397
0.698981
0.705021
0.710481
0.715705
0.720536
0.725006
0.729074
0.732981
0.736702
0.740241
0.7436
0.746778
0.749775
0.752586
0.755208
0.757634
0.759856
0.761858
0.763653
0.765224
0.766559
0.767651
0.768485
0.769079
0.769473
0.769715
0.769853
0.769927
0.769965
0.769983
0.769992
0.769997
0.769998
0.769999
0.77
0.77
0.77
0.77
0.77
0.77
0.77
0.77
0.77
0.77
0.77
2.24872e-06
9.82778e-06
2.2577e-05
4.39517e-05
7.96118e-05
0.000138719
0.0002359
0.000394128
0.000648821
0.00105341
0.00168644
0.00265996
0.00412803
0.00629325
0.00940773
0.0137645
0.0196762
0.0274417
0.0373073
0.0494331
0.0638738
0.0805787
0.0994064
0.120146
0.142543
0.166315
0.19117
0.216818
0.242979
0.269391
0.295813
0.322029
0.347848
0.373109
0.397677
0.421443
0.444315
0.466229
0.487138
0.507015
0.525846
0.543633
0.560387
0.576128
0.590885
0.60469
0.617581
0.629598
0.640785
0.651185
0.660842
0.669799
0.6781
0.685786
0.692898
0.699476
0.705501
0.710941
0.716149
0.720966
0.725421
0.729486
0.733389
0.737102
0.740632
0.743979
0.747143
0.750123
0.752915
0.755515
0.757916
0.760111
0.762102
0.763873
0.765413
0.766711
0.767758
0.768563
0.769134
0.769507
0.769734
0.769863
0.769932
0.769967
0.769985
0.769993
0.769997
0.769999
0.769999
0.77
0.77
0.77
0.77
0.77
0.77
0.77
0.77
0.77
0.77
0.77
2.23779e-06
9.77997e-06
2.24668e-05
4.37359e-05
7.9218e-05
0.000138027
0.00023471
0.00039212
0.000645489
0.00104797
0.00167772
0.00264625
0.00410697
0.0062617
0.0093618
0.0136998
0.019588
0.0273259
0.0371608
0.0492545
0.0636637
0.0803396
0.0991424
0.119863
0.142248
0.166014
0.190871
0.216529
0.242708
0.269144
0.295596
0.321847
0.347706
0.373011
0.397625
0.421437
0.444357
0.466318
0.487274
0.507196
0.52607
0.543896
0.560686
0.57646
0.591245
0.605075
0.617988
0.630023
0.641223
0.651633
0.661296
0.670257
0.678558
0.686241
0.693348
0.699918
0.705927
0.711353
0.716551
0.721352
0.725788
0.729853
0.733751
0.737457
0.740977
0.744312
0.747461
0.750423
0.753196
0.755775
0.758159
0.760342
0.762311
0.764057
0.76557
0.76684
0.767859
0.768631
0.76918
0.769536
0.769751
0.769872
0.769937
0.76997
0.769986
0.769993
0.769997
0.769999
0.769999
0.77
0.77
0.77
0.77
0.77
0.77
0.77
0.77
0.77
0.77
0.77
2.22819e-06
9.738e-06
2.23701e-05
4.3547e-05
7.88737e-05
0.000137422
0.000233675
0.000390379
0.00064261
0.00104329
0.00167024
0.00263456
0.00408909
0.00623506
0.00932325
0.0136457
0.0195149
0.0272305
0.037041
0.0491095
0.0634944
0.0801486
0.0989336
0.119642
0.142019
0.165785
0.190648
0.216317
0.242514
0.268974
0.295454
0.321737
0.347633
0.372975
0.397628
0.42148
0.444441
0.466442
0.487437
0.507395
0.526304
0.544162
0.560981
0.576781
0.591589
0.605438
0.618366
0.630413
0.641623
0.652039
0.661705
0.670666
0.678965
0.686644
0.693744
0.700302
0.706297
0.711715
0.716901
0.721688
0.726109
0.730174
0.734066
0.737764
0.741274
0.744595
0.74773
0.75068
0.753441
0.756011
0.75838
0.760543
0.76249
0.764214
0.765704
0.766949
0.767944
0.768693
0.769218
0.76956
0.769765
0.769879
0.769941
0.769971
0.769987
0.769994
0.769997
0.769999
0.769999
0.77
0.77
0.77
0.77
0.77
0.77
0.77
0.77
0.77
0.77
0.77
2.21995e-06
9.70196e-06
2.22872e-05
4.33851e-05
7.85792e-05
0.000136907
0.000232793
0.000388901
0.000640172
0.00103934
0.00166396
0.00262476
0.00407417
0.00621293
0.00929137
0.0136013
0.019455
0.0271529
0.0369441
0.0489931
0.0633596
0.0799978
0.0987704
0.119471
0.141845
0.165613
0.190483
0.216166
0.24238
0.268861
0.295368
0.32168
0.347606
0.372981
0.397668
0.421554
0.444549
0.466584
0.487611
0.507599
0.526536
0.544419
0.561261
0.577081
0.591906
0.605769
0.618708
0.630765
0.641981
0.6524
0.662068
0.671027
0.679323
0.686995
0.694086
0.700638
0.706623
0.712029
0.717203
0.721978
0.726381
0.730449
0.734335
0.738027
0.741528
0.744843
0.747973
0.750914
0.753663
0.756217
0.75857
0.760715
0.762643
0.764347
0.765816
0.767041
0.768015
0.768744
0.769252
0.769579
0.769776
0.769886
0.769944
0.769973
0.769987
0.769994
0.769997
0.769999
0.769999
0.77
0.77
0.77
0.77
0.77
0.77
0.77
0.77
0.77
0.77
0.77
2.21302e-06
9.67166e-06
2.22176e-05
4.32492e-05
7.83323e-05
0.000136475
0.000232057
0.000387669
0.000638145
0.00103606
0.00165876
0.00261669
0.00406193
0.00619483
0.0092654
0.0135652
0.0194067
0.0270906
0.0368668
0.0489008
0.0632535
0.0798802
0.0986445
0.11934
0.141714
0.165486
0.190364
0.216059
0.24229
0.268791
0.29532
0.321658
0.34761
0.373013
0.397729
0.421644
0.444668
0.46673
0.487782
0.507795
0.526754
0.544658
0.561518
0.577353
0.592191
0.606065
0.619012
0.631074
0.642294
0.652715
0.662382
0.671339
0.67963
0.687297
0.694385
0.700931
0.706902
0.712299
0.717463
0.722228
0.726606
0.73068
0.734564
0.738251
0.741749
0.745058
0.748179
0.75111
0.753848
0.756389
0.758728
0.760858
0.762771
0.764458
0.76591
0.767117
0.768073
0.768786
0.76928
0.769597
0.769785
0.76989
0.769946
0.769974
0.769988
0.769994
0.769997
0.769999
0.769999
0.77
0.77
0.77
0.77
0.77
0.77
0.77
0.77
0.77
0.77
0.77
2.20731e-06
9.64674e-06
2.21603e-05
4.31376e-05
7.81298e-05
0.000136121
0.000231455
0.000386663
0.000636494
0.0010334
0.00165455
0.00261017
0.00405205
0.00618029
0.00924461
0.0135365
0.0193684
0.0270413
0.0368061
0.0488288
0.0631713
0.0797898
0.0985486
0.119242
0.141617
0.165394
0.190281
0.215987
0.242233
0.268752
0.2953
0.321659
0.347634
0.373061
0.3978
0.421739
0.444786
0.46687
0.487943
0.507975
0.526952
0.544871
0.561745
0.577592
0.59244
0.606321
0.619275
0.631341
0.642563
0.652984
0.662648
0.671602
0.67989
0.687555
0.694638
0.701178
0.707137
0.712525
0.717681
0.722437
0.726793
0.730873
0.734753
0.738438
0.741931
0.745234
0.748348
0.75127
0.753999
0.75653
0.758858
0.760976
0.762876
0.76455
0.765987
0.767179
0.768121
0.76882
0.769303
0.76961
0.769793
0.769894
0.769948
0.769975
0.769988
0.769995
0.769998
0.769999
0.77
0.77
0.77
0.77
0.77
0.77
0.77
0.77
0.77
0.77
0.77
0.77
2.20274e-06
9.6268e-06
2.21145e-05
4.30484e-05
7.7968e-05
0.000135839
0.000230975
0.000385862
0.000635183
0.00103129
0.00165122
0.00260501
0.00404428
0.00616887
0.00922835
0.013514
0.0193386
0.0270033
0.0367594
0.0487737
0.0631089
0.0797217
0.0984771
0.11917
0.141547
0.165328
0.190223
0.21594
0.242198
0.268731
0.295296
0.321672
0.347666
0.373112
0.397871
0.421829
0.444894
0.466996
0.488085
0.508133
0.527123
0.545055
0.561939
0.577795
0.59265
0.606537
0.619494
0.631562
0.642784
0.653204
0.662868
0.671822
0.680107
0.687768
0.694845
0.701379
0.707329
0.712709
0.717858
0.722605
0.726943
0.73103
0.734907
0.738589
0.742078
0.745376
0.748484
0.7514
0.754122
0.756645
0.758963
0.761072
0.762961
0.764624
0.76605
0.767229
0.768159
0.768847
0.76932
0.769621
0.769799
0.769898
0.76995
0.769976
0.769989
0.769995
0.769998
0.769999
0.77
0.77
0.77
0.77
0.77
0.77
0.77
0.77
0.77
0.77
0.77
0.77
2.19922e-06
9.61141e-06
2.20792e-05
4.29796e-05
7.78434e-05
0.000135622
0.000230606
0.000385248
0.000634177
0.00102967
0.00164867
0.00260109
0.00403837
0.00616021
0.00921603
0.0134971
0.0193162
0.0269747
0.0367245
0.0487328
0.0630628
0.0796718
0.0984251
0.119118
0.141497
0.165283
0.190184
0.21591
0.242178
0.268724
0.295302
0.321692
0.347701
0.373161
0.397935
0.421908
0.444987
0.467102
0.488204
0.508263
0.527264
0.545205
0.562096
0.577959
0.592818
0.606709
0.619668
0.631737
0.64296
0.653382
0.663046
0.671997
0.680279
0.687936
0.695009
0.701538
0.707483
0.712857
0.718
0.722741
0.727062
0.731151
0.735027
0.738706
0.742192
0.745486
0.74859
0.751501
0.754217
0.756733
0.759045
0.761146
0.763027
0.764681
0.766098
0.767268
0.768189
0.768868
0.769334
0.76963
0.769804
0.7699
0.769951
0.769977
0.769989
0.769995
0.769998
0.769999
0.77
0.77
0.77
0.77
0.77
0.77
0.77
0.77
0.77
0.77
0.77
0.77
2.19666e-06
9.60022e-06
2.20535e-05
4.29297e-05
7.77529e-05
0.000135464
0.000230338
0.000384802
0.000633449
0.0010285
0.00164683
0.00259825
0.00403411
0.00615398
0.00920719
0.013485
0.0193002
0.0269544
0.0366997
0.0487038
0.0630304
0.0796369
0.0983891
0.119082
0.141463
0.165253
0.190159
0.215891
0.242167
0.268722
0.29531
0.321711
0.34773
0.373202
0.397987
0.42197
0.44506
0.467185
0.488296
0.508363
0.527371
0.545318
0.562215
0.578081
0.592944
0.606838
0.6198
0.631871
0.643095
0.653516
0.663179
0.672128
0.680408
0.688062
0.695131
0.701657
0.707597
0.712967
0.718106
0.722843
0.727153
0.73124
0.735114
0.738791
0.742275
0.745567
0.748668
0.751575
0.754287
0.756799
0.759105
0.7612
0.763076
0.764723
0.766133
0.767297
0.76821
0.768884
0.769344
0.769636
0.769807
0.769902
0.769952
0.769977
0.769989
0.769995
0.769998
0.769999
0.77
0.77
0.77
0.77
0.77
0.77
0.77
0.77
0.77
0.77
0.77
0.77
2.195e-06
9.59297e-06
2.20368e-05
4.28973e-05
7.76943e-05
0.000135362
0.000230165
0.000384515
0.000632979
0.00102775
0.00164564
0.00259643
0.00403137
0.00614998
0.00920153
0.0134773
0.01929
0.0269415
0.036684
0.0486855
0.0630099
0.079615
0.0983666
0.11906
0.141443
0.165235
0.190145
0.215881
0.242163
0.268723
0.295317
0.321725
0.347752
0.373231
0.398023
0.422013
0.445109
0.46724
0.488358
0.50843
0.527442
0.545394
0.562294
0.578164
0.59303
0.606926
0.619889
0.631961
0.643185
0.653605
0.663267
0.672215
0.680493
0.688145
0.695212
0.701736
0.707673
0.71304
0.718176
0.72291
0.727213
0.731298
0.735171
0.738848
0.74233
0.745621
0.748719
0.751624
0.754333
0.756842
0.759145
0.761236
0.763108
0.764751
0.766157
0.767315
0.768224
0.768893
0.769351
0.76964
0.76981
0.769903
0.769953
0.769977
0.769989
0.769995
0.769998
0.769999
0.77
0.77
0.77
0.77
0.77
0.77
0.77
0.77
0.77
0.77
0.77
0.77
2.19419e-06
9.58947e-06
2.20288e-05
4.28817e-05
7.76662e-05
0.000135314
0.000230083
0.000384378
0.000632757
0.00102739
0.00164509
0.00259557
0.00403009
0.0061481
0.00919888
0.0134736
0.0192852
0.0269354
0.0366766
0.048677
0.0630003
0.0796048
0.0983562
0.11905
0.141433
0.165226
0.190138
0.215877
0.242161
0.268724
0.295322
0.321733
0.347763
0.373246
0.398041
0.422035
0.445134
0.467269
0.488389
0.508464
0.527479
0.545432
0.562335
0.578206
0.593073
0.606969
0.619933
0.632005
0.643229
0.653649
0.66331
0.672258
0.680535
0.688187
0.695253
0.701775
0.707711
0.713077
0.718211
0.722944
0.727243
0.731327
0.7352
0.738875
0.742357
0.745647
0.748744
0.751648
0.754356
0.756863
0.759165
0.761254
0.763123
0.764765
0.766168
0.767324
0.768231
0.768898
0.769354
0.769642
0.769811
0.769904
0.769953
0.769977
0.769989
0.769995
0.769998
0.769999
0.77
0.77
0.77
0.77
0.77
0.77
0.77
0.77
0.77
0.77
0.77
0.77
2.19421e-06
9.58953e-06
2.2029e-05
4.2882e-05
7.76667e-05
0.000135314
0.000230084
0.00038438
0.00063276
0.0010274
0.0016451
0.00259559
0.00403011
0.00614813
0.00919892
0.0134737
0.0192853
0.0269355
0.0366768
0.0486771
0.0630005
0.079605
0.0983564
0.11905
0.141433
0.165227
0.190138
0.215877
0.242161
0.268725
0.295322
0.321733
0.347764
0.373246
0.398041
0.422035
0.445135
0.467269
0.488389
0.508464
0.527479
0.545432
0.562335
0.578206
0.593073
0.606969
0.619933
0.632005
0.643229
0.653649
0.66331
0.672258
0.680535
0.688187
0.695253
0.701775
0.707711
0.713077
0.718211
0.722944
0.727243
0.731327
0.7352
0.738876
0.742357
0.745647
0.748744
0.751648
0.754356
0.756863
0.759165
0.761254
0.763123
0.764765
0.766168
0.767324
0.768231
0.768898
0.769354
0.769642
0.769811
0.769904
0.769953
0.769977
0.769989
0.769995
0.769998
0.769999
0.77
0.77
0.77
0.77
0.77
0.77
0.77
0.77
0.77
0.77
0.77
0.77
2.19504e-06
9.59316e-06
2.20373e-05
4.28981e-05
7.76958e-05
0.000135365
0.000230169
0.000384521
0.00063299
0.00102777
0.00164567
0.00259647
0.00403143
0.00615007
0.00920166
0.0134774
0.0192902
0.0269418
0.0366844
0.048686
0.0630104
0.0796156
0.0983673
0.119061
0.141443
0.165235
0.190145
0.215882
0.242163
0.268724
0.295318
0.321726
0.347753
0.373232
0.398023
0.422014
0.44511
0.467241
0.488358
0.50843
0.527443
0.545394
0.562295
0.578164
0.59303
0.606926
0.619889
0.631961
0.643185
0.653605
0.663267
0.672215
0.680493
0.688145
0.695213
0.701736
0.707673
0.713041
0.718176
0.722911
0.727213
0.731298
0.735172
0.738848
0.74233
0.745621
0.748719
0.751624
0.754333
0.756842
0.759145
0.761236
0.763108
0.764751
0.766157
0.767315
0.768224
0.768893
0.769351
0.76964
0.76981
0.769903
0.769953
0.769977
0.769989
0.769995
0.769998
0.769999
0.77
0.77
0.77
0.77
0.77
0.77
0.77
0.77
0.77
0.77
0.77
0.77
2.19673e-06
9.60054e-06
2.20542e-05
4.29311e-05
7.77554e-05
0.000135469
0.000230345
0.000384814
0.000633468
0.00102853
0.00164688
0.00259832
0.00403421
0.00615413
0.0092074
0.0134853
0.0193006
0.0269549
0.0367003
0.0487046
0.0630312
0.0796379
0.0983902
0.119083
0.141464
0.165254
0.190161
0.215893
0.242169
0.268723
0.295311
0.321712
0.347732
0.373203
0.397988
0.421971
0.445061
0.467186
0.488297
0.508364
0.527372
0.545319
0.562216
0.578082
0.592945
0.606839
0.619801
0.631872
0.643096
0.653517
0.663179
0.672129
0.680408
0.688062
0.695132
0.701657
0.707598
0.712968
0.718106
0.722843
0.727153
0.73124
0.735114
0.738792
0.742276
0.745568
0.748668
0.751575
0.754287
0.756799
0.759106
0.7612
0.763076
0.764723
0.766133
0.767297
0.76821
0.768884
0.769344
0.769636
0.769807
0.769902
0.769952
0.769977
0.769989
0.769995
0.769998
0.769999
0.77
0.77
0.77
0.77
0.77
0.77
0.77
0.77
0.77
0.77
0.77
0.77
2.19932e-06
9.61185e-06
2.20802e-05
4.29816e-05
7.78469e-05
0.000135628
0.000230616
0.000385264
0.000634203
0.00102971
0.00164873
0.00260118
0.00403851
0.00616041
0.00921632
0.0134975
0.0193167
0.0269754
0.0367253
0.0487338
0.0630639
0.0796731
0.0984266
0.119119
0.141499
0.165285
0.190186
0.215912
0.24218
0.268725
0.295303
0.321694
0.347703
0.373163
0.397937
0.42191
0.444989
0.467104
0.488206
0.508265
0.527265
0.545206
0.562098
0.57796
0.592819
0.60671
0.619669
0.631738
0.642961
0.653382
0.663046
0.671998
0.68028
0.687937
0.695009
0.701538
0.707483
0.712858
0.718
0.722742
0.727062
0.731151
0.735027
0.738706
0.742192
0.745487
0.74859
0.751501
0.754217
0.756733
0.759045
0.761146
0.763027
0.764681
0.766098
0.767268
0.768189
0.768868
0.769334
0.76963
0.769804
0.7699
0.769951
0.769977
0.769989
0.769995
0.769998
0.769999
0.77
0.77
0.77
0.77
0.77
0.77
0.77
0.77
0.77
0.77
0.77
0.77
2.20287e-06
9.62736e-06
2.21158e-05
4.30509e-05
7.79724e-05
0.000135847
0.000230987
0.000385883
0.000635215
0.00103134
0.00165129
0.00260514
0.00404446
0.00616913
0.00922871
0.0135145
0.0193393
0.0270041
0.0367604
0.048775
0.0631104
0.0797234
0.098479
0.119172
0.141549
0.16533
0.190225
0.215942
0.2422
0.268734
0.295299
0.321675
0.347669
0.373115
0.397873
0.421831
0.444896
0.466998
0.488087
0.508135
0.527125
0.545057
0.56194
0.577796
0.592651
0.606538
0.619496
0.631564
0.642785
0.653205
0.662869
0.671823
0.680108
0.687769
0.694846
0.70138
0.70733
0.71271
0.717859
0.722606
0.726943
0.73103
0.734907
0.738589
0.742078
0.745376
0.748484
0.7514
0.754122
0.756645
0.758964
0.761072
0.762961
0.764624
0.76605
0.767229
0.768159
0.768847
0.76932
0.769621
0.769799
0.769898
0.76995
0.769976
0.769989
0.769995
0.769998
0.769999
0.77
0.77
0.77
0.77
0.77
0.77
0.77
0.77
0.77
0.77
0.77
0.77
2.20747e-06
9.64742e-06
2.21619e-05
4.31406e-05
7.81351e-05
0.00013613
0.00023147
0.000386687
0.000636533
0.00103346
0.00165464
0.00261031
0.00405227
0.0061806
0.00924505
0.0135371
0.0193692
0.0270424
0.0368074
0.0488304
0.0631732
0.0797919
0.0985509
0.119244
0.14162
0.165396
0.190284
0.21599
0.242236
0.268755
0.295304
0.321662
0.347637
0.373064
0.397803
0.421742
0.444788
0.466872
0.487945
0.507978
0.526954
0.544874
0.561747
0.577594
0.592441
0.606323
0.619276
0.631342
0.642564
0.652985
0.662649
0.671603
0.67989
0.687556
0.694638
0.701178
0.707137
0.712525
0.717682
0.722438
0.726793
0.730874
0.734754
0.738438
0.741931
0.745235
0.748348
0.751271
0.754
0.756531
0.758859
0.760976
0.762876
0.76455
0.765987
0.767179
0.768121
0.76882
0.769303
0.76961
0.769793
0.769894
0.769948
0.769975
0.769988
0.769995
0.769998
0.769999
0.77
0.77
0.77
0.77
0.77
0.77
0.77
0.77
0.77
0.77
0.77
0.77
2.2132e-06
9.67244e-06
2.22194e-05
4.32526e-05
7.83384e-05
0.000136485
0.000232074
0.000387697
0.000638191
0.00103613
0.00165887
0.00261686
0.00406217
0.00619519
0.0092659
0.0135659
0.0194076
0.0270917
0.0368683
0.0489026
0.0632556
0.0798826
0.0986471
0.119343
0.141717
0.165489
0.190368
0.216063
0.242293
0.268795
0.295324
0.321661
0.347614
0.373017
0.397732
0.421648
0.444671
0.466733
0.487785
0.507798
0.526757
0.54466
0.56152
0.577355
0.592193
0.606067
0.619014
0.631076
0.642296
0.652717
0.662384
0.671341
0.679632
0.687299
0.694387
0.700933
0.706904
0.7123
0.717464
0.722229
0.726607
0.730681
0.734564
0.738251
0.741749
0.745058
0.748179
0.75111
0.753848
0.756389
0.758728
0.760858
0.762771
0.764458
0.76591
0.767117
0.768073
0.768786
0.76928
0.769597
0.769785
0.76989
0.769946
0.769974
0.769988
0.769994
0.769997
0.769999
0.769999
0.77
0.77
0.77
0.77
0.77
0.77
0.77
0.77
0.77
0.77
0.77
2.22015e-06
9.70284e-06
2.22892e-05
4.33889e-05
7.8586e-05
0.000136918
0.000232813
0.000388933
0.000640223
0.00103942
0.00166408
0.00262495
0.00407445
0.00621333
0.00929194
0.013602
0.0194561
0.0271542
0.0369458
0.0489951
0.063362
0.0800005
0.0987735
0.119474
0.141848
0.165617
0.190487
0.21617
0.242384
0.268866
0.295372
0.321684
0.34761
0.372985
0.397672
0.421558
0.444553
0.466587
0.487614
0.507602
0.526538
0.544422
0.561264
0.577083
0.591908
0.605771
0.61871
0.630766
0.641982
0.652401
0.662069
0.671028
0.679323
0.686995
0.694086
0.700638
0.706623
0.71203
0.717204
0.721979
0.726382
0.73045
0.734336
0.738028
0.741529
0.744844
0.747973
0.750914
0.753663
0.756217
0.75857
0.760715
0.762643
0.764347
0.765816
0.767041
0.768015
0.768744
0.769252
0.769579
0.769776
0.769886
0.769944
0.769973
0.769987
0.769994
0.769997
0.769999
0.769999
0.77
0.77
0.77
0.77
0.77
0.77
0.77
0.77
0.77
0.77
0.77
2.22842e-06
9.73897e-06
2.23723e-05
4.35512e-05
7.88812e-05
0.000137435
0.000233696
0.000390415
0.000642667
0.00104338
0.00167038
0.00263477
0.0040894
0.00623551
0.00932388
0.0136466
0.019516
0.027232
0.0370429
0.0491118
0.0634971
0.0801517
0.0989371
0.119646
0.142023
0.165789
0.190652
0.216322
0.242518
0.268978
0.295459
0.321742
0.347637
0.37298
0.397632
0.421484
0.444445
0.466446
0.487441
0.507399
0.526307
0.544166
0.560984
0.576784
0.591591
0.60544
0.618368
0.630415
0.641625
0.652041
0.661707
0.670668
0.678967
0.686646
0.693746
0.700304
0.706299
0.711717
0.716902
0.721689
0.72611
0.730175
0.734066
0.737765
0.741274
0.744596
0.74773
0.750679
0.75344
0.756008
0.758379
0.760543
0.76249
0.764214
0.765704
0.766949
0.767944
0.768693
0.769218
0.76956
0.769765
0.769879
0.769941
0.769971
0.769987
0.769994
0.769997
0.769999
0.769999
0.77
0.77
0.77
0.77
0.77
0.77
0.77
0.77
0.77
0.77
0.77
2.23804e-06
9.78102e-06
2.24692e-05
4.37405e-05
7.92261e-05
0.000138041
0.000234733
0.000392158
0.00064555
0.00104806
0.00167787
0.00264648
0.00410731
0.00626219
0.0093625
0.0137007
0.0195893
0.0273275
0.0371629
0.049257
0.0636667
0.080343
0.0991462
0.119867
0.142252
0.166019
0.190876
0.216534
0.242713
0.269149
0.295601
0.321852
0.347711
0.373016
0.39763
0.421442
0.444362
0.466323
0.487278
0.5072
0.526074
0.5439
0.56069
0.576463
0.591248
0.605078
0.61799
0.630025
0.641225
0.651635
0.661298
0.670258
0.678559
0.686242
0.69335
0.699919
0.705928
0.711354
0.716552
0.721353
0.725789
0.729854
0.733752
0.737458
0.740978
0.744312
0.747462
0.750424
0.753197
0.755778
0.75816
0.760343
0.762311
0.764057
0.76557
0.76684
0.767859
0.768631
0.76918
0.769536
0.769751
0.769872
0.769937
0.76997
0.769986
0.769993
0.769997
0.769999
0.769999
0.77
0.77
0.77
0.77
0.77
0.77
0.77
0.77
0.77
0.77
0.77
2.24898e-06
9.8289e-06
2.25795e-05
4.39565e-05
7.96205e-05
0.000138734
0.000235925
0.000394168
0.000648887
0.00105351
0.0016866
0.0026602
0.0041284
0.00629378
0.00940848
0.0137655
0.0196776
0.0274435
0.0373096
0.0494358
0.063877
0.0805824
0.0994105
0.120151
0.142548
0.16632
0.191175
0.216823
0.242985
0.269397
0.295819
0.322034
0.347854
0.373114
0.397682
0.421448
0.444321
0.466234
0.487143
0.507019
0.525851
0.543637
0.560391
0.576132
0.590888
0.604693
0.617584
0.629601
0.640788
0.651188
0.660844
0.669801
0.678102
0.685788
0.6929
0.699477
0.705503
0.710943
0.716151
0.720968
0.725422
0.729487
0.73339
0.737104
0.740633
0.74398
0.747144
0.750124
0.752916
0.755516
0.757917
0.760112
0.762103
0.763873
0.765413
0.766711
0.767758
0.768563
0.769134
0.769507
0.769734
0.769863
0.769932
0.769967
0.769985
0.769993
0.769997
0.769999
0.769999
0.77
0.77
0.77
0.77
0.77
0.77
0.77
0.77
0.77
0.77
0.77
2.2611e-06
9.88197e-06
2.2702e-05
4.41969e-05
8.00605e-05
0.000139511
0.000237263
0.000396436
0.000652667
0.00105971
0.0016966
0.00267601
0.00415284
0.00633062
0.00946245
0.0138421
0.0197826
0.0275824
0.0374867
0.0496534
0.0641352
0.080879
0.099741
0.120509
0.142927
0.16671
0.191568
0.21721
0.243356
0.269745
0.296136
0.322313
0.348087
0.373299
0.397814
0.421524
0.444343
0.466201
0.487054
0.506876
0.525656
0.543394
0.560103
0.575803
0.590522
0.604294
0.617157
0.629151
0.640319
0.650704
0.660349
0.6693
0.677597
0.685283
0.692399
0.698982
0.705022
0.710482
0.715706
0.720536
0.725006
0.729074
0.732981
0.736702
0.740241
0.7436
0.746778
0.749775
0.752586
0.755208
0.757634
0.759856
0.761859
0.763653
0.765224
0.766559
0.767651
0.768485
0.769079
0.769473
0.769715
0.769853
0.769927
0.769965
0.769983
0.769992
0.769997
0.769998
0.769999
0.77
0.77
0.77
0.77
0.77
0.77
0.77
0.77
0.77
0.77
0.77
2.27405e-06
9.93871e-06
2.28332e-05
4.4455e-05
8.05346e-05
0.00014035
0.000238718
0.000398912
0.000656821
0.00106657
0.00170774
0.00269375
0.00418049
0.00637264
0.00952455
0.0139311
0.0199057
0.0277466
0.0376978
0.0499152
0.0644487
0.0812423
0.10015
0.120957
0.143405
0.167209
0.192077
0.217719
0.243853
0.27022
0.296579
0.322715
0.348442
0.373599
0.398055
0.421701
0.444453
0.466247
0.487037
0.506795
0.525512
0.543191
0.559844
0.575493
0.590166
0.603896
0.616723
0.628686
0.639828
0.650192
0.659821
0.66876
0.67705
0.684733
0.691849
0.698436
0.704512
0.709982
0.715216
0.720057
0.724539
0.728612
0.732523
0.736251
0.739799
0.743169
0.746363
0.749377
0.75221
0.754857
0.757313
0.75957
0.761613
0.763444
0.765049
0.766416
0.767531
0.768393
0.769016
0.769434
0.769692
0.76984
0.769921