/*--------------------------------*- C++ -*----------------------------------*\
  =========                 |
  \\      /  F ield         | OpenFOAM: The Open Source CFD Toolbox
   \\    /   O peration     | Website:  https://openfoam.org
    \\  /    A nd           | Version:  8
     \\/     M anipulation  |
\*---------------------------------------------------------------------------*/
FoamFile
{
    version     2.0;
    format      ascii;
    class       volScalarField;
    location    "640/fluid";
    object      O2;
}
// * * * * * * * * * * * * * * * * * * * * * * * * * * * * * * * * * * * * * //

dimensions      [0 0 0 0 0 0 0];

internalField   nonuniform List<scalar> 
4000
(
4.54499e-10
1.98447e-09
4.54952e-09
8.82963e-09
1.59307e-08
2.76304e-08
4.67467e-08
7.76733e-08
1.27128e-07
2.05136e-07
3.26227e-07
5.10706e-07
7.85709e-07
1.18554e-06
1.75085e-06
2.52478e-06
3.54718e-06
4.84727e-06
6.43681e-06
8.30616e-06
1.04245e-05
1.27436e-05
1.52044e-05
1.77422e-05
2.02924e-05
2.27939e-05
2.51912e-05
2.74365e-05
2.94901e-05
3.13213e-05
3.29101e-05
3.42507e-05
3.53572e-05
3.62742e-05
3.70894e-05
3.79486e-05
3.90677e-05
4.07442e-05
4.33674e-05
4.74347e-05
5.35805e-05
6.26201e-05
7.5609e-05
9.39194e-05
0.000119341
0.000154211
0.000201474
0.000265319
0.00035105
0.000465654
0.000618317
0.000821112
0.00108988
0.00144542
0.00191498
0.00253434
0.00335049
0.00441095
0.00578914
0.0076506
0.010101
0.0133346
0.018059
0.034522
0.0511922
0.0678089
0.0841696
0.100115
0.115517
0.130273
0.144293
0.157498
0.169815
0.181112
0.191432
0.200613
0.208558
0.215169
0.220374
0.224181
0.226729
0.228282
0.229149
0.229595
0.229813
0.229916
0.229963
0.229984
0.229993
0.229997
0.229999
0.229999
0.23
0.23
0.23
0.23
0.23
0.23
0.23
0.23
4.62108e-10
2.0191e-09
4.63477e-09
9.01018e-09
1.62877e-08
2.83058e-08
4.7979e-08
7.98443e-08
1.3084e-07
2.113e-07
3.36144e-07
5.26108e-07
8.08601e-07
1.21738e-06
1.79509e-06
2.58499e-06
3.62734e-06
4.95214e-06
6.57227e-06
8.47931e-06
1.06435e-05
1.30172e-05
1.5541e-05
1.81494e-05
2.07763e-05
2.33584e-05
2.58384e-05
2.8166e-05
3.02993e-05
3.22059e-05
3.38643e-05
3.52676e-05
3.64299e-05
3.73966e-05
3.82589e-05
3.91682e-05
4.03498e-05
4.21138e-05
4.48642e-05
4.91147e-05
5.55163e-05
6.49001e-05
7.83363e-05
9.72109e-05
0.000123332
0.000158892
0.000207098
0.000272043
0.000359032
0.000475053
0.000629294
0.000833821
0.00110447
0.001462
0.00193367
0.00255523
0.00337369
0.00443618
0.00581628
0.00768105
0.0101357
0.0133739
0.0193903
0.0359677
0.0527257
0.0694122
0.0858292
0.101819
0.117255
0.132032
0.14606
0.159256
0.171543
0.182781
0.193008
0.202053
0.209814
0.216196
0.221143
0.224698
0.227036
0.228443
0.229224
0.229628
0.229827
0.229921
0.229965
0.229984
0.229993
0.229997
0.229999
0.229999
0.23
0.23
0.23
0.23
0.23
0.23
0.23
0.23
4.72586e-10
2.06531e-09
4.74249e-09
9.22298e-09
1.66765e-08
2.89806e-08
4.90996e-08
8.16188e-08
1.3368e-07
2.15799e-07
3.43187e-07
5.37126e-07
8.26231e-07
1.2473e-06
1.83997e-06
2.64879e-06
3.71546e-06
5.07157e-06
6.73172e-06
8.68917e-06
1.09154e-05
1.33638e-05
1.59747e-05
1.86819e-05
2.14177e-05
2.41167e-05
2.67189e-05
2.91713e-05
3.1429e-05
3.34569e-05
3.5231e-05
3.67426e-05
3.80049e-05
3.90648e-05
4.00175e-05
4.10232e-05
4.23212e-05
4.42405e-05
4.72082e-05
5.17639e-05
5.85847e-05
6.85273e-05
8.2685e-05
0.000102446
0.000129476
0.00016629
0.000216212
0.000283091
0.000372289
0.000490835
0.000647953
0.00085574
0.00113006
0.00149172
0.00196804
0.00259488
0.00341948
0.00448823
0.00587648
0.00775368
0.0102251
0.0134905
0.0217589
0.0384147
0.0552425
0.0719839
0.0884371
0.104442
0.11987
0.134611
0.148574
0.161673
0.173824
0.184908
0.194913
0.203694
0.211156
0.217221
0.221861
0.225152
0.227296
0.228577
0.229288
0.229657
0.229839
0.229926
0.229967
0.229985
0.229994
0.229997
0.229999
0.23
0.23
0.23
0.23
0.23
0.23
0.23
0.23
0.23
4.82853e-10
2.11006e-09
4.84544e-09
9.4252e-09
1.70502e-08
2.96557e-08
5.03195e-08
8.38648e-08
1.37476e-07
2.21932e-07
3.52766e-07
5.5159e-07
8.47183e-07
1.27584e-06
1.88023e-06
2.70622e-06
3.79716e-06
5.18667e-06
6.89149e-06
8.90682e-06
1.12057e-05
1.3742e-05
1.64561e-05
1.92806e-05
2.21461e-05
2.49848e-05
2.77339e-05
3.03373e-05
3.27472e-05
3.49253e-05
3.68449e-05
3.84951e-05
3.98885e-05
4.10733e-05
4.21503e-05
4.32904e-05
4.47507e-05
4.68838e-05
5.01464e-05
5.51099e-05
6.24852e-05
7.31647e-05
8.82233e-05
0.000109002
0.000137482
0.000176305
0.000228391
0.000297878
0.000390189
0.000512431
0.000673921
0.000886872
0.00116729
0.00153616
0.00202105
0.00265816
0.00349522
0.00457657
0.00598032
0.00788021
0.0103854
0.0136986
0.0247137
0.0413972
0.0582529
0.0750112
0.0914623
0.10744
0.122812
0.137467
0.151308
0.164248
0.176203
0.187094
0.196832
0.20532
0.212471
0.218221
0.222565
0.225606
0.227561
0.22872
0.22936
0.229691
0.229855
0.229933
0.22997
0.229987
0.229994
0.229997
0.229999
0.23
0.23
0.23
0.23
0.23
0.23
0.23
0.23
0.23
4.94144e-10
2.15982e-09
4.96125e-09
9.6536e-09
1.74673e-08
3.03811e-08
5.15271e-08
8.57735e-08
1.40525e-07
2.26777e-07
3.60388e-07
5.63434e-07
8.65356e-07
1.30336e-06
1.9214e-06
2.76691e-06
3.88524e-06
5.31222e-06
7.06691e-06
9.14665e-06
1.1526e-05
1.41598e-05
1.69881e-05
1.99428e-05
2.29524e-05
2.59471e-05
2.88609e-05
3.16347e-05
3.42175e-05
3.65676e-05
3.86554e-05
4.04678e-05
4.20165e-05
4.33522e-05
4.45825e-05
4.58916e-05
4.75576e-05
4.99619e-05
5.35956e-05
5.90685e-05
6.71183e-05
7.86119e-05
9.47079e-05
0.000116963
0.000147507
0.000188593
0.000243467
0.000316373
0.000412866
0.000540217
0.000707951
0.000928534
0.00121829
0.00159862
0.00209759
0.0027521
0.00360926
0.0047102
0.00614488
0.00808932
0.010649
0.0140125
0.0278584
0.0445124
0.0613645
0.0781171
0.0945447
0.110473
0.125765
0.140307
0.154004
0.166768
0.178495
0.189153
0.198624
0.206823
0.213671
0.21912
0.223188
0.226001
0.22779
0.228843
0.229421
0.22972
0.229868
0.229939
0.229973
0.229988
0.229995
0.229998
0.229999
0.23
0.23
0.23
0.23
0.23
0.23
0.23
0.23
0.23
5.03895e-10
2.20232e-09
5.05842e-09
9.84149e-09
1.78047e-08
3.09628e-08
5.25049e-08
8.73896e-08
1.43167e-07
2.31055e-07
3.67248e-07
5.74324e-07
8.82454e-07
1.32989e-06
1.96201e-06
2.82811e-06
3.97581e-06
5.4435e-06
7.25284e-06
9.40342e-06
1.18715e-05
1.46125e-05
1.75666e-05
2.06644e-05
2.38328e-05
2.69991e-05
3.00949e-05
3.30575e-05
3.58324e-05
3.83746e-05
4.06515e-05
4.26476e-05
4.43743e-05
4.5885e-05
4.72963e-05
4.88082e-05
5.07233e-05
5.34555e-05
5.75351e-05
6.35819e-05
7.23083e-05
8.47289e-05
0.000102276
0.000126516
0.000159246
0.000203062
0.000261344
0.000338501
0.000440304
0.000574302
0.000750376
0.000981448
0.00128442
0.00168141
0.00220134
0.00288214
0.00377217
0.00491163
0.00639683
0.00839619
0.0110123
0.0143987
0.0305314
0.0472865
0.0642186
0.0810131
0.0974405
0.113328
0.12854
0.142967
0.156517
0.169106
0.180609
0.19104
0.200258
0.208183
0.214749
0.219923
0.223742
0.226352
0.227995
0.228953
0.229477
0.229747
0.229881
0.229945
0.229975
0.229989
0.229995
0.229998
0.229999
0.23
0.23
0.23
0.23
0.23
0.23
0.23
0.23
0.23
5.12749e-10
2.24093e-09
5.1468e-09
1.0013e-08
1.81146e-08
3.15024e-08
5.34241e-08
8.89326e-08
1.45728e-07
2.35263e-07
3.74092e-07
5.85335e-07
8.99965e-07
1.35737e-06
2.00449e-06
2.89266e-06
4.07197e-06
5.58362e-06
7.45204e-06
9.67934e-06
1.22436e-05
1.51011e-05
1.81919e-05
2.14456e-05
2.47871e-05
2.81414e-05
3.14367e-05
3.46071e-05
3.75944e-05
4.03499e-05
4.28378e-05
4.50401e-05
4.69679e-05
4.86789e-05
5.03e-05
5.20508e-05
5.42616e-05
5.73778e-05
6.19307e-05
6.85705e-05
7.82224e-05
9.20831e-05
0.000111262
0.000137394
0.00017256
0.000219465
0.000281645
0.000363729
0.000471778
0.000613741
0.00080003
0.00104429
0.00136441
0.00178382
0.0023332
0.00305276
0.00399482
0.00519068
0.00680328
0.0089132
0.0116682
0.0151901
0.0322018
0.049451
0.0666542
0.0835821
0.100052
0.115916
0.131057
0.145375
0.158785
0.171212
0.18253
0.192761
0.201738
0.209401
0.2157
0.220622
0.224219
0.226652
0.228169
0.229047
0.229525
0.22977
0.229892
0.22995
0.229977
0.22999
0.229996
0.229998
0.229999
0.23
0.23
0.23
0.23
0.23
0.23
0.23
0.23
0.23
5.21153e-10
2.27761e-09
5.23097e-09
1.01768e-08
1.84119e-08
3.20227e-08
5.43158e-08
9.04396e-08
1.48247e-07
2.39435e-07
3.80934e-07
5.96442e-07
9.17789e-07
1.3856e-06
2.0485e-06
2.96006e-06
4.17307e-06
5.73175e-06
7.66362e-06
9.97347e-06
1.26413e-05
1.56247e-05
1.88635e-05
2.22863e-05
2.58164e-05
2.93759e-05
3.289e-05
3.62891e-05
3.95112e-05
4.25037e-05
4.52271e-05
4.76609e-05
4.9816e-05
5.17547e-05
5.36165e-05
5.56424e-05
5.81774e-05
6.1669e-05
6.67357e-05
7.41771e-05
8.50308e-05
0.000100214
0.000121073
0.000149309
0.000187108
0.000237311
0.000303629
0.000390926
0.000505587
0.000655998
0.000853189
0.00111168
0.00145061
0.00189529
0.00247922
0.00324697
0.00425622
0.00555103
0.0073169
0.00965809
0.01278
0.0168923
0.0341975
0.0516548
0.0689844
0.0859696
0.10244
0.118258
0.133314
0.147514
0.160778
0.173032
0.184158
0.194162
0.202941
0.210413
0.216507
0.221216
0.224625
0.226907
0.228317
0.229127
0.229566
0.22979
0.229901
0.229954
0.229979
0.229991
0.229996
0.229998
0.229999
0.23
0.23
0.23
0.23
0.23
0.23
0.23
0.23
0.23
5.29362e-10
2.31348e-09
5.31342e-09
1.03377e-08
1.87048e-08
3.25376e-08
5.52024e-08
9.19458e-08
1.5078e-07
2.43654e-07
3.87897e-07
6.07818e-07
9.36154e-07
1.41484e-06
2.09433e-06
3.03056e-06
4.27923e-06
5.88783e-06
7.88719e-06
1.02851e-05
1.30639e-05
1.61822e-05
1.95804e-05
2.31861e-05
2.69208e-05
3.07043e-05
3.44582e-05
3.81096e-05
4.15921e-05
4.48492e-05
4.78372e-05
5.05328e-05
5.2947e-05
5.51471e-05
5.72867e-05
5.96024e-05
6.24269e-05
6.63268e-05
7.21237e-05
8.06074e-05
9.25741e-05
0.000109162
0.000131775
0.000162183
0.000202663
0.000256168
0.000326558
0.000418887
0.000539787
0.000697969
0.000904886
0.00117562
0.00153005
0.00199446
0.00260367
0.00340396
0.00444869
0.00579533
0.00763262
0.0100661
0.0133071
0.0187837
0.0362489
0.0538065
0.0711867
0.0881793
0.104619
0.120374
0.135336
0.149414
0.162526
0.174592
0.185507
0.195311
0.203897
0.211196
0.217161
0.221719
0.224969
0.227123
0.228442
0.229195
0.2296
0.229807
0.229909
0.229958
0.229981
0.229991
0.229996
0.229998
0.229999
0.23
0.23
0.23
0.23
0.23
0.23
0.23
0.23
0.23
5.37459e-10
2.34888e-09
5.39489e-09
1.0497e-08
1.89955e-08
3.30497e-08
5.60871e-08
9.34542e-08
1.53326e-07
2.47915e-07
3.94961e-07
6.19411e-07
9.54956e-07
1.44492e-06
2.14167e-06
3.10367e-06
4.38971e-06
6.05078e-06
8.12133e-06
1.06124e-05
1.3509e-05
1.67714e-05
2.03403e-05
2.4143e-05
2.80994e-05
3.21268e-05
3.61439e-05
4.00738e-05
4.38463e-05
4.74002e-05
5.06879e-05
5.36831e-05
5.6397e-05
5.89041e-05
6.13426e-05
6.39454e-05
6.72165e-05
7.18702e-05
7.84698e-05
8.78509e-05
0.000100983
0.000119037
0.000143456
0.000176068
0.000219218
0.000275948
0.000350226
0.000447234
0.000573758
0.000738686
0.000953671
0.001234
0.00159978
0.00207743
0.00270178
0.00351883
0.00457984
0.00593903
0.00778405
0.0102107
0.01341
0.0207968
0.0382877
0.0558532
0.0732215
0.0901818
0.106568
0.122249
0.137118
0.151084
0.164064
0.175989
0.186845
0.196519
0.204934
0.212027
0.217749
0.22215
0.225267
0.227308
0.228549
0.229253
0.22963
0.229822
0.229916
0.229961
0.229982
0.229992
0.229997
0.229998
0.229999
0.23
0.23
0.23
0.23
0.23
0.23
0.23
0.23
0.23
5.45441e-10
2.38379e-09
5.4753e-09
1.06544e-08
1.92832e-08
3.3558e-08
5.69674e-08
9.49598e-08
1.55877e-07
2.52197e-07
4.02087e-07
6.31147e-07
9.74061e-07
1.47559e-06
2.1901e-06
3.17871e-06
4.50347e-06
6.21911e-06
8.36396e-06
1.09527e-05
1.39733e-05
1.73881e-05
2.11388e-05
2.51525e-05
2.9348e-05
3.36405e-05
3.7946e-05
4.21838e-05
4.62795e-05
5.01676e-05
5.37961e-05
5.71356e-05
6.01977e-05
6.30295e-05
6.577e-05
6.88227e-05
7.27726e-05
7.80963e-05
8.55361e-05
9.59579e-05
0.000110372
0.000129988
0.000156291
0.000191161
0.000237001
0.000296925
0.00037498
0.000476442
0.000608192
0.000779219
0.00100127
0.0012897
0.00166463
0.00215244
0.00278775
0.00361606
0.00468622
0.0060532
0.00790403
0.0103287
0.0135161
0.0226959
0.0401836
0.0577305
0.0750642
0.0919719
0.108287
0.12388
0.138648
0.152502
0.165394
0.177255
0.18799
0.197529
0.205797
0.212736
0.218305
0.22252
0.225518
0.227465
0.228639
0.229301
0.229654
0.229834
0.229922
0.229964
0.229984
0.229993
0.229997
0.229999
0.229999
0.23
0.23
0.23
0.23
0.23
0.23
0.23
0.23
0.23
5.53242e-10
2.41791e-09
5.55396e-09
1.08085e-08
1.95655e-08
3.40574e-08
5.78343e-08
9.64461e-08
1.58401e-07
2.56448e-07
4.09183e-07
6.42873e-07
9.93211e-07
1.50643e-06
2.23896e-06
3.25466e-06
4.61899e-06
6.39063e-06
8.61205e-06
1.1302e-05
1.44517e-05
1.80262e-05
2.19687e-05
2.62069e-05
3.06586e-05
3.52379e-05
3.98581e-05
4.44354e-05
4.88915e-05
5.31565e-05
5.71743e-05
6.0913e-05
6.43541e-05
6.75409e-05
7.07618e-05
7.44844e-05
7.90684e-05
8.51661e-05
9.3556e-05
0.000105136
0.000120949
0.000142237
0.000170528
0.000207747
0.000256354
0.000319525
0.000401378
0.000507263
0.00064414
0.000821069
0.00104986
0.00134591
0.00172934
0.00222646
0.00287152
0.0037094
0.00478884
0.00616547
0.00802342
0.0104516
0.0136366
0.0243635
0.0418516
0.0593782
0.0766691
0.0935134
0.109755
0.125282
0.139991
0.153798
0.16661
0.178358
0.188977
0.198392
0.20653
0.213335
0.218771
0.222862
0.225727
0.227597
0.228715
0.229342
0.229675
0.229844
0.229927
0.229966
0.229985
0.229993
0.229997
0.229999
0.229999
0.23
0.23
0.23
0.23
0.23
0.23
0.23
0.23
0.23
5.60751e-10
2.45077e-09
5.62975e-09
1.09572e-08
1.9838e-08
3.45405e-08
5.86746e-08
9.789e-08
1.6086e-07
2.606e-07
4.16131e-07
6.54388e-07
1.01207e-06
1.5369e-06
2.28739e-06
3.33019e-06
4.73427e-06
6.56241e-06
8.86151e-06
1.16546e-05
1.4937e-05
1.86767e-05
2.28192e-05
2.72933e-05
3.20172e-05
3.6904e-05
4.18655e-05
4.68152e-05
5.16714e-05
5.63601e-05
6.0821e-05
6.50061e-05
6.88695e-05
7.25889e-05
7.65094e-05
8.08803e-05
8.62233e-05
9.32264e-05
0.0001027
0.000115572
0.000132914
0.000156004
0.000186409
0.000226101
0.000277597
0.000344135
0.000429899
0.000540312
0.000682406
0.000865313
0.0011009
0.0014046
0.00179648
0.00230248
0.00295684
0.00380559
0.00489542
0.0062809
0.00814634
0.0105779
0.0137566
0.0257919
0.0432881
0.0607994
0.0780559
0.0948717
0.111089
0.126569
0.141212
0.154931
0.167651
0.179302
0.189818
0.199124
0.207149
0.213838
0.219158
0.223142
0.225916
0.227702
0.228776
0.229375
0.229692
0.229852
0.22993
0.229968
0.229985
0.229993
0.229997
0.229999
0.229999
0.23
0.23
0.23
0.23
0.23
0.23
0.23
0.23
0.23
5.6783e-10
2.48176e-09
5.70125e-09
1.10976e-08
2.00957e-08
3.49979e-08
5.94715e-08
9.92622e-08
1.63202e-07
2.64564e-07
4.22784e-07
6.65443e-07
1.03023e-06
1.56633e-06
2.33432e-06
3.40363e-06
4.84679e-06
6.73074e-06
9.10702e-06
1.20034e-05
1.54194e-05
1.93269e-05
2.36743e-05
2.83927e-05
3.34014e-05
3.86139e-05
4.39414e-05
4.9296e-05
5.45933e-05
5.97556e-05
6.47147e-05
6.93778e-05
7.38477e-05
7.83133e-05
8.29253e-05
8.80848e-05
9.43352e-05
0.000102395
0.000113102
0.00012741
0.000146423
0.000171452
0.000204108
0.000246414
0.000300941
0.000370991
0.000460816
0.00057591
0.000723375
0.000912414
0.00115494
0.00146631
0.00186644
0.00238176
0.00304717
0.00390674
0.00500573
0.00640012
0.00827319
0.0107085
0.0138729
0.0269982
0.0445146
0.0620186
0.0792688
0.096056
0.112225
0.12765
0.14223
0.15588
0.168524
0.180093
0.190523
0.199737
0.207666
0.214256
0.219479
0.223372
0.226069
0.227798
0.228826
0.229402
0.229706
0.229859
0.229934
0.229969
0.229986
0.229994
0.229997
0.229999
0.229999
0.23
0.23
0.23
0.23
0.23
0.23
0.23
0.23
0.23
5.74321e-10
2.51018e-09
5.76685e-09
1.12265e-08
2.03325e-08
3.54189e-08
6.02063e-08
1.0053e-07
1.65369e-07
2.68242e-07
4.28972e-07
6.75754e-07
1.04722e-06
1.59394e-06
2.3785e-06
3.47302e-06
4.9535e-06
6.89109e-06
9.34199e-06
1.23388e-05
1.58859e-05
1.99596e-05
2.4512e-05
2.94772e-05
3.47773e-05
4.03278e-05
4.60411e-05
5.18304e-05
5.76121e-05
6.331e-05
6.88491e-05
7.4203e-05
7.93932e-05
8.45711e-05
9.001e-05
9.61176e-05
0.000103441
0.000112721
0.000124817
0.000140708
0.000161529
0.000188631
0.00022367
0.000268722
0.000326415
0.000400112
0.000494133
0.000614039
0.000766973
0.000962117
0.00121127
0.00152996
0.0019389
0.00246419
0.00313937
0.00400891
0.00511661
0.00651903
0.00839844
0.010836
0.0139858
0.028004
0.0455396
0.0630492
0.0802805
0.0970376
0.113167
0.128545
0.143072
0.156663
0.169244
0.180746
0.191105
0.200243
0.208092
0.214599
0.219741
0.223558
0.226193
0.227873
0.22887
0.229423
0.229717
0.229864
0.229936
0.229971
0.229987
0.229994
0.229997
0.229999
0.23
0.23
0.23
0.23
0.23
0.23
0.23
0.23
0.23
0.23
5.80059e-10
2.5353e-09
5.82487e-09
1.13405e-08
2.05423e-08
3.57923e-08
6.0859e-08
1.01658e-07
1.67302e-07
2.71528e-07
4.34513e-07
6.85011e-07
1.06251e-06
1.61888e-06
2.41853e-06
3.53612e-06
5.05095e-06
7.03815e-06
9.55851e-06
1.26496e-05
1.63207e-05
2.05529e-05
2.53028e-05
3.05087e-05
3.60964e-05
4.19844e-05
4.8088e-05
5.4322e-05
6.06032e-05
6.68535e-05
7.29773e-05
7.90361e-05
8.50733e-05
9.11644e-05
9.76267e-05
0.000104875
0.000113452
0.000124115
0.000137745
0.00015535
0.000178097
0.000207381
0.000244909
0.000292809
0.000353776
0.000431219
0.000529496
0.000654166
0.000812366
0.0010134
0.00126966
0.00159661
0.00201392
0.00254759
0.00323131
0.00410904
0.00522328
0.00663049
0.008512
0.0109475
0.0140843
0.0288276
0.046379
0.0638887
0.0811053
0.0978371
0.113933
0.129272
0.143755
0.157299
0.169828
0.181274
0.191575
0.200651
0.208435
0.214875
0.219951
0.223708
0.226291
0.227933
0.228904
0.229442
0.229726
0.229869
0.229938
0.229972
0.229987
0.229994
0.229997
0.229999
0.23
0.23
0.23
0.23
0.23
0.23
0.23
0.23
0.23
0.23
5.84878e-10
2.5564e-09
5.87363e-09
1.14365e-08
2.07189e-08
3.6107e-08
6.14096e-08
1.02611e-07
1.68938e-07
2.74315e-07
4.39224e-07
6.929e-07
1.07558e-06
1.64025e-06
2.45294e-06
3.59056e-06
5.13533e-06
7.16604e-06
9.74774e-06
1.29226e-05
1.67049e-05
2.10806e-05
2.60113e-05
3.14403e-05
3.72983e-05
4.35091e-05
4.99935e-05
5.66726e-05
6.34704e-05
7.03162e-05
7.71652e-05
8.39984e-05
9.08656e-05
9.79442e-05
0.000105563
0.000114103
0.000124073
0.000136243
0.00015151
0.00017091
0.000195651
0.000227171
0.000267225
0.000317991
0.000382196
0.000463288
0.000565691
0.000695083
0.000858958
0.00106663
0.00132983
0.00166398
0.00208889
0.00263017
0.00332098
0.00420427
0.00532118
0.00672527
0.00859397
0.0109994
0.0140689
0.0294569
0.0470382
0.0645515
0.0817576
0.0984693
0.114538
0.129845
0.144293
0.157797
0.170285
0.181688
0.191942
0.200969
0.208702
0.21509
0.220114
0.223823
0.226366
0.227979
0.22893
0.229456
0.229733
0.229872
0.22994
0.229972
0.229987
0.229994
0.229998
0.229999
0.23
0.23
0.23
0.23
0.23
0.23
0.23
0.23
0.23
0.23
5.88631e-10
2.57284e-09
5.91162e-09
1.15112e-08
2.08566e-08
3.63526e-08
6.184e-08
1.03357e-07
1.7022e-07
2.76503e-07
4.42929e-07
6.99118e-07
1.08591e-06
1.65717e-06
2.48027e-06
3.63394e-06
5.20282e-06
7.26875e-06
9.90036e-06
1.31439e-05
1.7018e-05
2.15132e-05
2.6596e-05
3.22145e-05
3.83051e-05
4.47973e-05
5.16184e-05
5.86963e-05
6.59622e-05
7.33544e-05
8.08684e-05
8.84647e-05
9.62263e-05
0.000104372
0.000113249
0.000123176
0.000134609
0.000148314
0.000165209
0.000186362
0.000213022
0.000246676
0.000289123
0.000342607
0.000409935
0.00049467
0.000601402
0.000735869
0.000905225
0.00111882
0.0013886
0.00172988
0.00216235
0.00271136
0.00340965
0.00429956
0.00542108
0.00682682
0.00869289
0.0110896
0.0141393
0.0299214
0.0475298
0.0650498
0.0822493
0.0989455
0.114993
0.130275
0.144695
0.158169
0.170625
0.181994
0.192214
0.201204
0.208899
0.215248
0.220233
0.223908
0.226421
0.228013
0.228949
0.229466
0.229738
0.229875
0.229941
0.229973
0.229988
0.229995
0.229998
0.229999
0.23
0.23
0.23
0.23
0.23
0.23
0.23
0.23
0.23
0.23
5.91192e-10
2.58405e-09
5.93754e-09
1.15623e-08
2.09506e-08
3.65202e-08
6.21339e-08
1.03866e-07
1.71097e-07
2.78e-07
4.45467e-07
7.03382e-07
1.093e-06
1.66882e-06
2.49913e-06
3.66395e-06
5.24965e-06
7.34025e-06
1.0007e-05
1.32992e-05
1.72388e-05
2.18198e-05
2.70127e-05
3.277e-05
3.90326e-05
4.57357e-05
5.28132e-05
6.02014e-05
6.78429e-05
7.56933e-05
8.3725e-05
9.19553e-05
0.000100493
0.000109594
0.000119594
0.000130861
0.000143685
0.000158805
0.000177165
0.000199871
0.000228222
0.000263765
0.00030838
0.000364372
0.000434617
0.000522739
0.000633223
0.000771857
0.00094598
0.00116495
0.00144071
0.00178856
0.00222807
0.0027844
0.00348992
0.0043864
0.0055127
0.00692026
0.00878316
0.0111682
0.0141898
0.0302271
0.0478629
0.0653912
0.0825868
0.0992716
0.115303
0.130567
0.144966
0.158419
0.170852
0.182198
0.192394
0.20136
0.209029
0.215352
0.220311
0.223962
0.226457
0.228034
0.228961
0.229473
0.229742
0.229876
0.229942
0.229973
0.229988
0.229995
0.229998
0.229999
0.23
0.23
0.23
0.23
0.23
0.23
0.23
0.23
0.23
0.23
5.92473e-10
2.58965e-09
5.95046e-09
1.15876e-08
2.09972e-08
3.66031e-08
6.22786e-08
1.04117e-07
1.71527e-07
2.78733e-07
4.46706e-07
7.05463e-07
1.09646e-06
1.67451e-06
2.50835e-06
3.67864e-06
5.27264e-06
7.37547e-06
1.00598e-05
1.33764e-05
1.7349e-05
2.19739e-05
2.72234e-05
3.30526e-05
3.94054e-05
4.62203e-05
5.34351e-05
6.09911e-05
6.88363e-05
7.69313e-05
8.52595e-05
9.38533e-05
0.000102842
0.000112487
0.000123184
0.000135366
0.00014941
0.000165627
0.000185042
0.000208826
0.000238331
0.000275149
0.000321194
0.000378812
0.000450912
0.00054114
0.000654084
0.000795558
0.000972946
0.00119564
0.00147561
0.00182815
0.00227279
0.00283458
0.00354566
0.00444736
0.00557763
0.00698685
0.00884703
0.0112211
0.0142163
0.030378
0.0480374
0.0655728
0.082766
0.0994434
0.115465
0.130717
0.145104
0.158545
0.170966
0.1823
0.192483
0.201435
0.209092
0.215401
0.220348
0.223988
0.226474
0.228044
0.228967
0.229476
0.229743
0.229877
0.229942
0.229973
0.229988
0.229995
0.229998
0.229999
0.23
0.23
0.23
0.23
0.23
0.23
0.23
0.23
0.23
0.23
5.92475e-10
2.58966e-09
5.95048e-09
1.15877e-08
2.09973e-08
3.66032e-08
6.22789e-08
1.04117e-07
1.71527e-07
2.78734e-07
4.46708e-07
7.05466e-07
1.09646e-06
1.67452e-06
2.50836e-06
3.67866e-06
5.27266e-06
7.37551e-06
1.00598e-05
1.33765e-05
1.73492e-05
2.19741e-05
2.72237e-05
3.3053e-05
3.94059e-05
4.6221e-05
5.3436e-05
6.09921e-05
6.88374e-05
7.69321e-05
8.52598e-05
9.3853e-05
0.000102841
0.000112486
0.000123183
0.000135365
0.000149409
0.000165626
0.000185041
0.000208825
0.000238329
0.000275147
0.000321191
0.000378809
0.000450908
0.000541135
0.000654077
0.00079555
0.000972936
0.00119563
0.0014756
0.00182813
0.00227277
0.00283456
0.00354563
0.00444733
0.00557761
0.00698682
0.00884701
0.0112211
0.0142162
0.0303779
0.0480374
0.0655727
0.0827659
0.0994433
0.115465
0.130717
0.145104
0.158545
0.170966
0.182299
0.192483
0.201435
0.209092
0.215401
0.220348
0.223988
0.226474
0.228044
0.228967
0.229476
0.229743
0.229877
0.229942
0.229973
0.229988
0.229995
0.229998
0.229999
0.23
0.23
0.23
0.23
0.23
0.23
0.23
0.23
0.23
0.23
5.91197e-10
2.58408e-09
5.93759e-09
1.15624e-08
2.09508e-08
3.65206e-08
6.21345e-08
1.03867e-07
1.71099e-07
2.78003e-07
4.45471e-07
7.0339e-07
1.09301e-06
1.66884e-06
2.49916e-06
3.664e-06
5.24972e-06
7.34036e-06
1.00072e-05
1.32995e-05
1.72391e-05
2.18203e-05
2.70134e-05
3.2771e-05
3.9034e-05
4.57377e-05
5.2816e-05
6.02052e-05
6.78475e-05
7.56971e-05
8.37271e-05
9.19526e-05
0.00010049
0.000109591
0.000119592
0.000130859
0.000143682
0.000158802
0.000177161
0.000199867
0.000228217
0.000263759
0.000308373
0.000364364
0.000434607
0.000522725
0.000633206
0.000771835
0.000945951
0.00116491
0.00144067
0.0017885
0.00222801
0.00278433
0.00348985
0.00438633
0.00551263
0.00692019
0.00878311
0.0111682
0.0141898
0.030227
0.0478628
0.0653911
0.0825866
0.0992714
0.115303
0.130566
0.144965
0.158418
0.170852
0.182198
0.192394
0.20136
0.209029
0.215352
0.220311
0.223962
0.226457
0.228034
0.228961
0.229473
0.229742
0.229876
0.229942
0.229973
0.229988
0.229995
0.229998
0.229999
0.23
0.23
0.23
0.23
0.23
0.23
0.23
0.23
0.23
0.23
5.88638e-10
2.57287e-09
5.91168e-09
1.15114e-08
2.08569e-08
3.63529e-08
6.18406e-08
1.03358e-07
1.70222e-07
2.76505e-07
4.42932e-07
6.99122e-07
1.08591e-06
1.65718e-06
2.48029e-06
3.63396e-06
5.20285e-06
7.26878e-06
9.90041e-06
1.3144e-05
1.70181e-05
2.15134e-05
2.65962e-05
3.22149e-05
3.83056e-05
4.47979e-05
5.16191e-05
5.86971e-05
6.59633e-05
7.33567e-05
8.08718e-05
8.84722e-05
9.6233e-05
0.000104378
0.000113253
0.00012318
0.000134611
0.000148314
0.000165208
0.00018636
0.000213018
0.000246669
0.000289113
0.000342592
0.000409916
0.000494646
0.000601371
0.00073583
0.000905177
0.00111876
0.00138853
0.0017298
0.00216225
0.00271125
0.00340952
0.00429942
0.00542095
0.0068267
0.00869278
0.0110896
0.0141392
0.0299213
0.0475297
0.0650497
0.0822491
0.0989452
0.114993
0.130275
0.144694
0.158169
0.170625
0.181994
0.192214
0.201204
0.208899
0.215248
0.220233
0.223907
0.226421
0.228013
0.228949
0.229466
0.229738
0.229875
0.229941
0.229973
0.229988
0.229995
0.229998
0.229999
0.23
0.23
0.23
0.23
0.23
0.23
0.23
0.23
0.23
0.23
5.84887e-10
2.55644e-09
5.87372e-09
1.14366e-08
2.07192e-08
3.61075e-08
6.14105e-08
1.02612e-07
1.6894e-07
2.74318e-07
4.39228e-07
6.92906e-07
1.07559e-06
1.64026e-06
2.45296e-06
3.59058e-06
5.13536e-06
7.16608e-06
9.74779e-06
1.29227e-05
1.6705e-05
2.10808e-05
2.60116e-05
3.14406e-05
3.72988e-05
4.35099e-05
4.99948e-05
5.66747e-05
6.34743e-05
7.03245e-05
7.71719e-05
8.40031e-05
9.08693e-05
9.79474e-05
0.000105566
0.000114105
0.000124075
0.000136244
0.00015151
0.000170908
0.000195646
0.000227163
0.000267214
0.000317975
0.000382174
0.000463258
0.000565654
0.000695035
0.000858898
0.00106656
0.00132974
0.00166387
0.00208876
0.00263003
0.00332081
0.00420409
0.005321
0.00672508
0.00859378
0.0109992
0.0140687
0.0294569
0.0470382
0.0645514
0.0817574
0.098469
0.114538
0.129845
0.144292
0.157797
0.170285
0.181687
0.191942
0.200969
0.208702
0.21509
0.220114
0.223823
0.226366
0.227979
0.22893
0.229456
0.229733
0.229872
0.22994
0.229972
0.229987
0.229994
0.229998
0.229999
0.23
0.23
0.23
0.23
0.23
0.23
0.23
0.23
0.23
0.23
5.8007e-10
2.53534e-09
5.82498e-09
1.13407e-08
2.05427e-08
3.57929e-08
6.086e-08
1.01659e-07
1.67305e-07
2.71531e-07
4.34519e-07
6.8502e-07
1.06253e-06
1.6189e-06
2.41855e-06
3.53615e-06
5.05098e-06
7.03818e-06
9.55855e-06
1.26496e-05
1.63207e-05
2.05529e-05
2.53028e-05
3.05087e-05
3.60963e-05
4.19841e-05
4.80872e-05
5.43202e-05
6.05994e-05
6.68455e-05
7.29695e-05
7.90293e-05
8.50682e-05
9.1161e-05
9.76245e-05
0.000104873
0.00011345
0.000124113
0.000137742
0.000155345
0.00017809
0.000207371
0.000244894
0.00029279
0.00035375
0.000431186
0.000529453
0.000654112
0.000812298
0.00101332
0.00126956
0.00159648
0.00201377
0.00254742
0.00323112
0.00410883
0.00522307
0.00663026
0.00851174
0.0109472
0.0140838
0.0288294
0.0463799
0.063889
0.0811053
0.097837
0.113933
0.129272
0.143755
0.157298
0.169827
0.181274
0.191574
0.20065
0.208435
0.214875
0.219951
0.223708
0.226291
0.227933
0.228904
0.229442
0.229726
0.229869
0.229938
0.229972
0.229987
0.229994
0.229997
0.229999
0.23
0.23
0.23
0.23
0.23
0.23
0.23
0.23
0.23
0.23
5.74334e-10
2.51023e-09
5.76698e-09
1.12267e-08
2.0333e-08
3.54196e-08
6.02075e-08
1.00532e-07
1.65372e-07
2.68246e-07
4.28978e-07
6.75763e-07
1.04723e-06
1.59396e-06
2.37852e-06
3.47304e-06
4.95353e-06
6.89111e-06
9.34198e-06
1.23388e-05
1.58859e-05
1.99594e-05
2.45117e-05
2.94768e-05
3.47768e-05
4.03269e-05
4.60396e-05
5.1828e-05
5.76081e-05
6.33032e-05
6.88374e-05
7.41768e-05
7.93805e-05
8.45647e-05
9.00064e-05
9.6115e-05
0.000103439
0.000112718
0.000124812
0.000140702
0.00016152
0.000188618
0.000223654
0.000268699
0.000326386
0.000400075
0.000494086
0.000613981
0.000766902
0.000962032
0.00121116
0.00152985
0.00193876
0.00246403
0.0031392
0.00400872
0.00511644
0.00651887
0.0083983
0.0108359
0.0139857
0.0280037
0.0455394
0.0630492
0.0802805
0.0970375
0.113166
0.128545
0.143072
0.156663
0.169244
0.180746
0.191104
0.200242
0.208092
0.214599
0.21974
0.223558
0.226192
0.227873
0.22887
0.229423
0.229717
0.229864
0.229936
0.229971
0.229987
0.229994
0.229997
0.229999
0.23
0.23
0.23
0.23
0.23
0.23
0.23
0.23
0.23
0.23
5.67845e-10
2.48182e-09
5.70139e-09
1.10979e-08
2.00962e-08
3.49987e-08
5.94729e-08
9.92644e-08
1.63205e-07
2.64569e-07
4.22791e-07
6.65454e-07
1.03025e-06
1.56635e-06
2.33434e-06
3.40365e-06
4.8468e-06
6.73074e-06
9.107e-06
1.20033e-05
1.54192e-05
1.93267e-05
2.3674e-05
2.83922e-05
3.34009e-05
3.86133e-05
4.39408e-05
4.92957e-05
5.45938e-05
5.97582e-05
6.47237e-05
6.94012e-05
7.38583e-05
7.83179e-05
8.29269e-05
8.80847e-05
9.43337e-05
0.000102392
0.000113098
0.000127404
0.000146414
0.00017144
0.000204093
0.000246394
0.000300916
0.000370959
0.000460776
0.000575859
0.000723313
0.000912339
0.00115485
0.00146621
0.00186633
0.00238163
0.00304704
0.00390661
0.00500563
0.00640005
0.00827317
0.0107086
0.013873
0.0269991
0.0445156
0.0620194
0.0792693
0.0960562
0.112225
0.127649
0.142229
0.155879
0.168523
0.180093
0.190523
0.199737
0.207666
0.214256
0.219478
0.223372
0.226069
0.227798
0.228826
0.229402
0.229706
0.229859
0.229934
0.229969
0.229986
0.229994
0.229997
0.229999
0.229999
0.23
0.23
0.23
0.23
0.23
0.23
0.23
0.23
0.23
5.60768e-10
2.45085e-09
5.62991e-09
1.09575e-08
1.98386e-08
3.45415e-08
5.86761e-08
9.78924e-08
1.60863e-07
2.60605e-07
4.1614e-07
6.544e-07
1.01209e-06
1.53692e-06
2.28741e-06
3.33021e-06
4.73428e-06
6.56239e-06
8.86145e-06
1.16545e-05
1.49368e-05
1.86764e-05
2.28188e-05
2.72928e-05
3.20167e-05
3.69036e-05
4.18654e-05
4.68157e-05
5.16728e-05
5.63627e-05
6.08247e-05
6.50124e-05
6.88748e-05
7.25925e-05
7.65113e-05
8.08808e-05
8.62225e-05
9.32242e-05
0.000102696
0.000115566
0.000132906
0.000155993
0.000186395
0.000226084
0.000277575
0.000344107
0.000429864
0.000540269
0.000682355
0.000865251
0.00110082
0.00140452
0.00179639
0.00230238
0.00295674
0.00380549
0.00489534
0.00628085
0.00814636
0.010578
0.0137568
0.0257933
0.0432894
0.0608006
0.0780564
0.0948716
0.111088
0.126568
0.141209
0.154929
0.16765
0.179301
0.189818
0.199124
0.207149
0.213838
0.219158
0.223142
0.225916
0.227702
0.228776
0.229375
0.229692
0.229852
0.22993
0.229968
0.229985
0.229993
0.229997
0.229999
0.229999
0.23
0.23
0.23
0.23
0.23
0.23
0.23
0.23
0.23
5.5326e-10
2.41799e-09
5.55414e-09
1.08089e-08
1.95661e-08
3.40585e-08
5.7836e-08
9.64489e-08
1.58405e-07
2.56455e-07
4.09192e-07
6.42886e-07
9.93228e-07
1.50645e-06
2.23899e-06
3.25468e-06
4.619e-06
6.39061e-06
8.61198e-06
1.13018e-05
1.44515e-05
1.80258e-05
2.19682e-05
2.62061e-05
3.06578e-05
3.52369e-05
3.9857e-05
4.44344e-05
4.88908e-05
5.31563e-05
5.71748e-05
6.09142e-05
6.43564e-05
6.75424e-05
7.07626e-05
7.44845e-05
7.90676e-05
8.51644e-05
9.35532e-05
0.000105132
0.000120943