/*--------------------------------*- C++ -*----------------------------------*\
  =========                 |
  \\      /  F ield         | OpenFOAM: The Open Source CFD Toolbox
   \\    /   O peration     | Website:  https://openfoam.org
    \\  /    A nd           | Version:  8
     \\/     M anipulation  |
\*---------------------------------------------------------------------------*/
FoamFile
{
    version     2.0;
    format      ascii;
    class       surfaceScalarField;
    location    "640/fluid";
    object      phi;
}
// * * * * * * * * * * * * * * * * * * * * * * * * * * * * * * * * * * * * * //

dimensions      [1 0 -1 0 0 0 0];

internalField   nonuniform List<scalar> 
7860
(
6.57275e-07
-1.77298e-08
6.54618e-07
-5.31955e-08
6.50836e-07
-8.84879e-08
6.4582e-07
-1.23499e-07
6.39438e-07
-1.58229e-07
6.31528e-07
-1.92634e-07
6.21908e-07
-2.26635e-07
6.10379e-07
-2.6011e-07
5.96739e-07
-2.92894e-07
5.80795e-07
-3.24768e-07
5.62375e-07
-3.55447e-07
5.41357e-07
-3.84566e-07
5.17711e-07
-4.11672e-07
4.91599e-07
-4.36222e-07
4.633e-07
-4.57581e-07
4.33173e-07
-4.75087e-07
4.01679e-07
-4.88179e-07
3.69358e-07
-4.96555e-07
3.36767e-07
-5.00293e-07
3.04415e-07
-4.99867e-07
2.72711e-07
-4.96055e-07
2.41942e-07
-4.89761e-07
2.12289e-07
-4.81844e-07
1.83885e-07
-4.73003e-07
1.5678e-07
-4.6373e-07
1.3094e-07
-4.54328e-07
1.06298e-07
-4.44962e-07
8.27776e-08
-4.35705e-07
6.03067e-08
-4.26569e-07
3.88228e-08
-4.17538e-07
1.82728e-08
-4.08584e-07
-1.38783e-09
-3.99681e-07
-2.01878e-08
-3.90809e-07
-3.81529e-08
-3.8196e-07
-5.5315e-08
-3.73135e-07
-7.16984e-08
-3.64326e-07
-8.73227e-08
-3.55491e-07
-1.02207e-07
-3.46642e-07
-1.16368e-07
-3.37798e-07
-1.29826e-07
-3.28981e-07
-1.42597e-07
-3.20212e-07
-1.547e-07
-3.11517e-07
-1.66154e-07
-3.02922e-07
-1.76976e-07
-2.94452e-07
-1.87187e-07
-2.86133e-07
-1.96804e-07
-2.77991e-07
-2.05848e-07
-2.70052e-07
-2.14337e-07
-2.62342e-07
-2.22293e-07
-2.54885e-07
-2.29735e-07
-2.47707e-07
-2.36683e-07
-2.40834e-07
-2.4316e-07
-2.34293e-07
-2.49188e-07
-2.28114e-07
-2.54792e-07
-2.22328e-07
-2.6e-07
-2.16974e-07
-2.64844e-07
-2.12095e-07
-2.69368e-07
-2.07746e-07
-2.73623e-07
-2.0402e-07
-2.77668e-07
-2.00988e-07
-2.81575e-07
-1.9871e-07
-2.85465e-07
-1.97428e-07
-2.89763e-07
-1.97326e-07
-2.94796e-07
-1.99255e-07
-3.01694e-07
-2.1036e-07
-3.09649e-07
-2.22781e-07
-3.1846e-07
-2.36485e-07
-3.28175e-07
-2.51651e-07
-3.38915e-07
-2.6852e-07
-3.50838e-07
-2.87365e-07
-3.64162e-07
-3.08513e-07
-3.79178e-07
-3.32359e-07
-3.96282e-07
-3.5937e-07
-4.15999e-07
-3.90082e-07
-4.39015e-07
-4.25219e-07
-4.66191e-07
-4.65442e-07
-4.98505e-07
-5.10779e-07
-5.3686e-07
-5.60165e-07
-5.81556e-07
-6.10679e-07
-6.32356e-07
-6.56848e-07
-6.88078e-07
-6.91562e-07
-7.46372e-07
-7.09186e-07
-8.04302e-07
-7.0863e-07
-8.59344e-07
-6.93127e-07
-9.0993e-07
-6.67351e-07
-9.55392e-07
-6.35331e-07
-9.95545e-07
-5.99673e-07
-1.03027e-06
-5.61814e-07
-1.05991e-06
-5.22443e-07
-1.085e-06
-4.81998e-07
-1.10609e-06
-4.40808e-07
-1.12366e-06
-3.99127e-07
-1.13818e-06
-3.5715e-07
-1.15004e-06
-3.15025e-07
-1.15962e-06
-2.72861e-07
-1.16722e-06
-2.3073e-07
-1.17314e-06
-1.88674e-07
-1.17761e-06
-1.46701e-07
-1.18082e-06
-1.04778e-07
-1.18292e-06
-6.28496e-08
-2.09422e-08
6.57913e-07
-1.71087e-08
6.55794e-07
-5.1077e-08
6.52101e-07
-8.47947e-08
6.46832e-07
-1.1823e-07
6.3992e-07
-1.51316e-07
6.31266e-07
-1.8398e-07
6.20758e-07
-2.16126e-07
6.0828e-07
-2.47632e-07
5.93729e-07
-2.78343e-07
5.77023e-07
-3.08062e-07
5.58116e-07
-3.36539e-07
5.37008e-07
-3.63457e-07
5.13763e-07
-3.88424e-07
4.88536e-07
-4.10992e-07
4.61555e-07
-4.30595e-07
4.33108e-07
-4.46633e-07
4.03557e-07
-4.58618e-07
3.73315e-07
-4.66302e-07
3.42805e-07
-4.69769e-07
3.12412e-07
-4.69459e-07
2.8245e-07
-4.66077e-07
2.53143e-07
-4.60438e-07
2.24638e-07
-4.53322e-07
1.97031e-07
-4.45381e-07
1.70378e-07
-4.37062e-07
1.44689e-07
-4.28625e-07
1.19954e-07
-4.20214e-07
9.61536e-08
-4.11892e-07
7.32641e-08
-4.03668e-07
5.12632e-08
-3.95527e-07
3.01292e-08
-3.87441e-07
9.84171e-09
-3.79385e-07
-9.61866e-09
-3.71341e-07
-2.82696e-08
-3.63301e-07
-4.61291e-08
-3.55268e-07
-6.32119e-08
-3.47235e-07
-7.95322e-08
-3.39163e-07
-9.5105e-08
-3.31062e-07
-1.09946e-07
-3.2295e-07
-1.24072e-07
-3.14847e-07
-1.375e-07
-3.06776e-07
-1.50249e-07
-2.98762e-07
-1.62337e-07
-2.90827e-07
-1.73783e-07
-2.82998e-07
-1.84609e-07
-2.753e-07
-1.94835e-07
-2.67758e-07
-2.04482e-07
-2.60398e-07
-2.13573e-07
-2.53244e-07
-2.22132e-07
-2.4632e-07
-2.30182e-07
-2.39651e-07
-2.37749e-07
-2.33262e-07
-2.44861e-07
-2.27176e-07
-2.51548e-07
-2.21422e-07
-2.57844e-07
-2.16027e-07
-2.6379e-07
-2.11024e-07
-2.69433e-07
-2.06448e-07
-2.74834e-07
-2.02341e-07
-2.80068e-07
-1.98783e-07
-2.85234e-07
-1.95818e-07
-2.90475e-07
-1.93466e-07
-2.96015e-07
-1.91885e-07
-3.02135e-07
-1.91199e-07
-3.08026e-07
-1.93475e-07
-3.15085e-07
-2.03314e-07
-3.23379e-07
-2.14502e-07
-3.32803e-07
-2.27076e-07
-3.43347e-07
-2.41123e-07
-3.55085e-07
-2.56799e-07
-3.68149e-07
-2.7432e-07
-3.82718e-07
-2.93963e-07
-3.99028e-07
-3.1607e-07
-4.17369e-07
-3.41051e-07
-4.38084e-07
-3.69391e-07
-4.61552e-07
-4.01776e-07
-4.88248e-07
-4.38774e-07
-5.18706e-07
-4.80348e-07
-5.53447e-07
-5.25451e-07
-5.92806e-07
-5.71345e-07
-6.36876e-07
-6.12799e-07
-6.85092e-07
-6.43361e-07
-7.35917e-07
-6.58371e-07
-7.87202e-07
-6.5735e-07
-8.3698e-07
-6.43352e-07
-8.8392e-07
-6.20412e-07
-9.2737e-07
-5.91882e-07
-9.67067e-07
-5.59976e-07
-1.00285e-06
-5.26027e-07
-1.03472e-06
-4.90577e-07
-1.06277e-06
-4.53946e-07
-1.08718e-06
-4.16399e-07
-1.10817e-06
-3.78138e-07
-1.12599e-06
-3.39328e-07
-1.14091e-06
-3.00103e-07
-1.15321e-06
-2.60569e-07
-1.16312e-06
-2.20813e-07
-1.1709e-06
-1.809e-07
-1.17673e-06
-1.40872e-07
-1.18076e-06
-1.00742e-07
-1.18309e-06
-6.05231e-08
-2.02107e-08
6.57617e-07
-1.61915e-08
6.54963e-07
-4.84234e-08
6.50584e-07
-8.04159e-08
6.44446e-07
-1.12092e-07
6.36507e-07
-1.43377e-07
6.26719e-07
-1.74192e-07
6.15035e-07
-2.04442e-07
6.01417e-07
-2.34014e-07
5.85847e-07
-2.62772e-07
5.68331e-07
-2.90545e-07
5.48909e-07
-3.17116e-07
5.27656e-07
-3.42203e-07
5.0468e-07
-3.65447e-07
4.80099e-07
-3.86408e-07
4.54085e-07
-4.04577e-07
4.26897e-07
-4.19439e-07
3.98852e-07
-4.30566e-07
3.70302e-07
-4.37743e-07
3.41594e-07
-4.41051e-07
3.13036e-07
-4.40889e-07
2.84872e-07
-4.379e-07
2.57275e-07
-4.32827e-07
2.30348e-07
-4.26381e-07
2.04124e-07
-4.19144e-07
1.78609e-07
-4.11535e-07
1.53812e-07
-4.03817e-07
1.29741e-07
-3.96133e-07
1.06402e-07
-3.88542e-07
8.37972e-08
-3.81054e-07
6.19286e-08
-3.7365e-07
4.0796e-08
-3.66301e-07
2.0398e-08
-3.5898e-07
7.31225e-10
-3.51668e-07
-1.82098e-08
-3.44354e-07
-3.64313e-08
-3.3704e-07
-5.39391e-08
-3.29721e-07
-7.07392e-08
-3.22357e-07
-8.68401e-08
-3.14954e-07
-1.02252e-07
-3.07531e-07
-1.16987e-07
-3.00106e-07
-1.31059e-07
-2.92699e-07
-1.44482e-07
-2.85332e-07
-1.57273e-07
-2.7803e-07
-1.69451e-07
-2.70814e-07
-1.81036e-07
-2.6371e-07
-1.92047e-07
-2.56741e-07
-2.02509e-07
-2.49931e-07
-2.12445e-07
-2.43302e-07
-2.21883e-07
-2.36877e-07
-2.30851e-07
-2.30679e-07
-2.3938e-07
-2.24727e-07
-2.47506e-07
-2.19046e-07
-2.55268e-07
-2.13656e-07
-2.6271e-07
-2.08581e-07
-2.69884e-07
-2.03846e-07
-2.7685e-07
-1.99478e-07
-2.83679e-07
-1.95508e-07
-2.90455e-07
-1.92005e-07
-2.97279e-07
-1.88991e-07
-3.04272e-07
-1.8647e-07
-3.11573e-07
-1.84582e-07
-3.19342e-07
-1.83423e-07
-3.26192e-07
-1.86711e-07
-3.34002e-07
-1.95517e-07
-3.42889e-07
-2.05628e-07
-3.52878e-07
-2.17101e-07
-3.64014e-07
-2.30001e-07
-3.76372e-07
-2.44456e-07
-3.90052e-07
-2.60655e-07
-4.0518e-07
-2.78852e-07
-4.21898e-07
-2.9937e-07
-4.40366e-07
-3.22601e-07
-4.60736e-07
-3.4904e-07
-4.83156e-07
-3.79375e-07
-5.07855e-07
-4.14095e-07
-5.35163e-07
-4.5306e-07
-5.65591e-07
-4.95041e-07
-5.99936e-07
-5.37017e-07
-6.38782e-07
-5.73966e-07
-6.81926e-07
-6.00225e-07
-7.28098e-07
-6.12203e-07
-7.75365e-07
-6.10085e-07
-8.21892e-07
-5.96826e-07
-8.66375e-07
-5.75929e-07
-9.08087e-07
-5.5017e-07
-9.4672e-07
-5.21342e-07
-9.82276e-07
-4.90471e-07
-1.01472e-06
-4.58129e-07
-1.04402e-06
-4.24647e-07
-1.07019e-06
-3.90233e-07
-1.09328e-06
-3.55042e-07
-1.11342e-06
-3.19198e-07
-1.13071e-06
-2.82809e-07
-1.14531e-06
-2.45967e-07
-1.15737e-06
-2.08754e-07
-1.16703e-06
-1.71241e-07
-1.17441e-06
-1.33486e-07
-1.17963e-06
-9.55234e-08
-1.18276e-06
-5.73935e-08
-1.91524e-08
6.57634e-07
-1.52923e-08
6.54913e-07
-4.57022e-08
6.50365e-07
-7.58675e-08
6.43986e-07
-1.05713e-07
6.35768e-07
-1.35159e-07
6.25699e-07
-1.64123e-07
6.13771e-07
-1.92513e-07
5.99979e-07
-2.20222e-07
5.84331e-07
-2.47124e-07
5.66848e-07
-2.73062e-07
5.4757e-07
-2.97837e-07
5.26563e-07
-3.21195e-07
5.03928e-07
-3.42811e-07
4.79807e-07
-3.62285e-07
4.54394e-07
-3.79161e-07
4.27935e-07
-3.92975e-07
4.00715e-07
-4.03341e-07
3.73041e-07
-4.10062e-07
3.4521e-07
-4.13212e-07
3.17487e-07
-4.13157e-07
2.90083e-07
-4.10486e-07
2.63151e-07
-4.05885e-07
2.36789e-07
-4.00009e-07
2.11053e-07
-3.93399e-07
1.85971e-07
-3.86443e-07
1.61551e-07
-3.79388e-07
1.37796e-07
-3.72369e-07
1.14704e-07
-3.65443e-07
9.22733e-08
-3.58616e-07
7.05017e-08
-3.51871e-07
4.93889e-08
-3.45182e-07
2.89341e-08
-3.3852e-07
9.13658e-09
-3.31865e-07
-1.00053e-08
-3.25207e-07
-2.8495e-08
-3.18546e-07
-4.63348e-08
-3.11877e-07
-6.35268e-08
-3.0516e-07
-8.0076e-08
-2.984e-07
-9.59891e-08
-2.91613e-07
-1.11275e-07
-2.84815e-07
-1.25945e-07
-2.78024e-07
-1.40011e-07
-2.71261e-07
-1.53489e-07
-2.64547e-07
-1.66396e-07
-2.57903e-07
-1.78749e-07
-2.51352e-07
-1.90569e-07
-2.44915e-07
-2.01881e-07
-2.38614e-07
-2.1271e-07
-2.32469e-07
-2.23082e-07
-2.26501e-07
-2.33029e-07
-2.20727e-07
-2.42584e-07
-2.15168e-07
-2.51784e-07
-2.09842e-07
-2.60671e-07
-2.04766e-07
-2.6929e-07
-1.99959e-07
-2.77692e-07
-1.9544e-07
-2.85938e-07
-1.91229e-07
-2.94091e-07
-1.87353e-07
-3.02223e-07
-1.83871e-07
-3.10421e-07
-1.8079e-07
-3.18776e-07
-1.78113e-07
-3.27384e-07
-1.75972e-07
-3.3633e-07
-1.74469e-07
-3.44138e-07
-1.78955e-07
-3.5277e-07
-1.86896e-07
-3.62323e-07
-1.96087e-07
-3.72855e-07
-2.06579e-07
-3.84438e-07
-2.18431e-07
-3.97148e-07
-2.31758e-07
-4.11072e-07
-2.46743e-07
-4.26308e-07
-2.63628e-07
-4.42965e-07
-2.82726e-07
-4.61163e-07
-3.04416e-07
-4.81017e-07
-3.292e-07
-5.02679e-07
-3.57727e-07
-5.26421e-07
-3.90365e-07
-5.52644e-07
-4.26849e-07
-5.81895e-07
-4.65799e-07
-6.148e-07
-5.04118e-07
-6.51752e-07
-5.37018e-07
-6.92466e-07
-5.59512e-07
-7.35805e-07
-5.68865e-07
-7.80148e-07
-5.65741e-07
-8.2399e-07
-5.52984e-07
-8.6624e-07
-5.3368e-07
-9.06229e-07
-5.1018e-07
-9.43599e-07
-4.83972e-07
-9.78184e-07
-4.55886e-07
-1.00993e-06
-4.26382e-07
-1.03884e-06
-3.95737e-07
-1.06494e-06
-3.64135e-07
-1.08827e-06
-3.31713e-07
-1.10888e-06
-2.98584e-07
-1.12684e-06
-2.64848e-07
-1.14222e-06
-2.3059e-07
-1.15509e-06
-1.95889e-07
-1.16551e-06
-1.60819e-07
-1.17355e-06
-1.25443e-07
-1.17926e-06
-8.98098e-08
-1.18268e-06
-5.39751e-08
-1.80139e-08
6.57571e-07
-1.433e-08
6.5471e-07
-4.28411e-08
6.49963e-07
-7.11202e-08
6.43335e-07
-9.90849e-08
6.34832e-07
-1.26656e-07
6.24463e-07
-1.53754e-07
6.1224e-07
-1.8029e-07
5.98183e-07
-2.06166e-07
5.82324e-07
-2.31264e-07
5.64706e-07
-2.55444e-07
5.45395e-07
-2.78526e-07
5.24478e-07
-3.00277e-07
5.0207e-07
-3.20402e-07
4.78323e-07
-3.38536e-07
4.53425e-07
-3.54262e-07
4.27604e-07
-3.67151e-07
4.01118e-07
-3.76851e-07
3.74235e-07
-3.83175e-07
3.47219e-07
-3.8619e-07
3.20297e-07
-3.86229e-07
2.93652e-07
-3.83834e-07
2.67416e-07
-3.79641e-07
2.41673e-07
-3.74259e-07
2.16475e-07
-3.68193e-07
1.91847e-07
-3.61807e-07
1.67801e-07
-3.55335e-07
1.44341e-07
-3.48903e-07
1.21469e-07
-3.42565e-07
9.91862e-08
-3.36327e-07
7.7493e-08
-3.30173e-07
5.63909e-08
-3.24075e-07
3.58813e-08
-3.18006e-07
1.59655e-08
-3.11945e-07
-3.35651e-09
-3.05882e-07
-2.20858e-08
-2.99813e-07
-4.02234e-08
-2.93735e-07
-5.77695e-08
-2.8761e-07
-7.4727e-08
-2.81439e-07
-9.11008e-08
-2.75235e-07
-1.06898e-07
-2.69014e-07
-1.22127e-07
-2.62791e-07
-1.368e-07
-2.56584e-07
-1.5093e-07
-2.50413e-07
-1.64531e-07
-2.44298e-07
-1.77621e-07
-2.38257e-07
-1.90222e-07
-2.32311e-07
-2.02354e-07
-2.26479e-07
-2.14042e-07
-2.20778e-07
-2.25313e-07
-2.15226e-07
-2.36197e-07
-2.09841e-07
-2.46724e-07
-2.04637e-07
-2.56931e-07
-1.99632e-07
-2.66855e-07
-1.94839e-07
-2.76537e-07
-1.90274e-07
-2.86023e-07
-1.85951e-07
-2.95361e-07
-1.81889e-07
-3.04606e-07
-1.78106e-07
-3.13812e-07
-1.74663e-07
-3.23052e-07
-1.71548e-07
-3.32394e-07
-1.6877e-07
-3.41917e-07
-1.66448e-07
-3.51689e-07
-1.64694e-07
-3.6047e-07
-1.70196e-07
-3.69916e-07
-1.77457e-07
-3.80116e-07
-1.85895e-07
-3.91159e-07
-1.95544e-07
-4.03132e-07
-2.06466e-07
-4.16119e-07
-2.18779e-07
-4.30206e-07
-2.32664e-07
-4.45483e-07
-2.4836e-07
-4.62044e-07
-2.66173e-07
-4.79995e-07
-2.86472e-07
-4.9943e-07
-3.09771e-07
-5.20496e-07
-3.36667e-07
-5.4345e-07
-3.67415e-07
-5.68666e-07
-4.01635e-07
-5.96652e-07
-4.37813e-07
-6.27972e-07
-4.72797e-07
-6.62963e-07
-5.02024e-07
-7.01346e-07
-5.21127e-07
-7.42103e-07
-5.28105e-07
-7.83845e-07
-5.23997e-07
-8.25295e-07
-5.11533e-07
-8.65526e-07
-4.93448e-07
-9.03952e-07
-4.71754e-07
-9.40226e-07
-4.47698e-07
-9.74144e-07
-4.21967e-07
-1.00558e-06
-3.94943e-07
-1.03447e-06
-3.66851e-07
-1.06076e-06
-3.37839e-07
-1.08446e-06
-3.08021e-07
-1.10555e-06
-2.7749e-07
-1.12407e-06
-2.46333e-07
-1.14003e-06
-2.14628e-07
-1.15347e-06
-1.82448e-07
-1.16442e-06
-1.49868e-07
-1.17291e-06
-1.16951e-07
-1.17897e-06
-8.37533e-08
-1.1826e-06
-5.03377e-08
-1.67961e-08
6.57568e-07
-1.3364e-08
6.54677e-07
-3.99504e-08
6.49874e-07
-6.63172e-08
6.43174e-07
-9.2385e-08
6.34595e-07
-1.18077e-07
6.24157e-07
-1.43316e-07
6.11886e-07
-1.68019e-07
5.97816e-07
-1.92095e-07
5.81986e-07
-2.15435e-07
5.64452e-07
-2.3791e-07
5.45281e-07
-2.59355e-07
5.24563e-07
-2.79558e-07
5.02412e-07
-2.9825e-07
4.78974e-07
-3.15098e-07
4.54432e-07
-3.29718e-07
4.29002e-07
-3.4172e-07
4.0293e-07
-3.50776e-07
3.76474e-07
-3.56715e-07
3.49881e-07
-3.59593e-07
3.23371e-07
-3.59714e-07
2.97118e-07
-3.57576e-07
2.71246e-07
-3.53764e-07
2.45838e-07
-3.48846e-07
2.20939e-07
-3.43289e-07
1.96573e-07
-3.37437e-07
1.72749e-07
-3.31506e-07
1.49468e-07
-3.25618e-07
1.2673e-07
-3.19822e-07
1.04532e-07
-3.14126e-07
8.28746e-08
-3.08512e-07
6.17572e-08
-3.02954e-07
4.11809e-08
-2.97427e-07
2.11467e-08
-2.91908e-07
1.65497e-09
-2.86388e-07
-1.7295e-08
-2.80861e-07
-3.57037e-08
-2.75324e-07
-5.35705e-08
-2.69741e-07
-7.08971e-08
-2.6411e-07
-8.76872e-08
-2.58443e-07
-1.03946e-07
-2.52752e-07
-1.19682e-07
-2.47052e-07
-1.34903e-07
-2.4136e-07
-1.49621e-07
-2.35692e-07
-1.6385e-07
-2.30066e-07
-1.77607e-07
-2.24498e-07
-1.90909e-07
-2.19006e-07
-2.03777e-07
-2.13608e-07
-2.16232e-07
-2.08319e-07
-2.283e-07
-2.03156e-07
-2.40006e-07
-1.98132e-07
-2.51379e-07
-1.93262e-07
-2.6245e-07
-1.88559e-07
-2.73249e-07
-1.84038e-07
-2.83811e-07
-1.7971e-07
-2.94171e-07
-1.75589e-07
-3.04366e-07
-1.71692e-07
-3.14434e-07
-1.68036e-07
-3.24413e-07
-1.64684e-07
-3.34366e-07
-1.61594e-07
-3.4432e-07
-1.58816e-07
-3.54353e-07
-1.56415e-07
-3.64552e-07
-1.54497e-07
-3.7434e-07
-1.6041e-07
-3.8453e-07
-1.67271e-07
-3.953e-07
-1.7513e-07
-4.06786e-07
-1.84064e-07
-4.19091e-07
-1.94165e-07
-4.32307e-07
-2.05567e-07
-4.46523e-07
-2.18452e-07
-4.61828e-07
-2.33058e-07
-4.78321e-07
-2.49683e-07
-4.96105e-07
-2.68689e-07
-5.1529e-07
-2.90587e-07
-5.36049e-07
-3.15905e-07
-5.58665e-07
-3.44796e-07
-5.83529e-07
-3.76765e-07
-6.11147e-07
-4.10187e-07
-6.4202e-07
-4.41916e-07
-6.76356e-07
-4.67679e-07
-7.13748e-07
-4.83726e-07
-7.53157e-07
-4.8869e-07
-7.93293e-07
-4.83858e-07
-8.33035e-07
-4.71789e-07
-8.71593e-07
-4.54888e-07
-9.08475e-07
-4.34872e-07
-9.43388e-07
-4.12784e-07
-9.76157e-07
-3.89198e-07
-1.00667e-06
-3.6443e-07
-1.03485e-06
-3.38669e-07
-1.06065e-06
-3.1204e-07
-1.08403e-06
-2.84641e-07
-1.10497e-06
-2.56554e-07
-1.12345e-06
-2.27854e-07
-1.13946e-06
-1.98613e-07
-1.15301e-06
-1.68899e-07
-1.1641e-06
-1.38783e-07
-1.17272e-06
-1.08328e-07
-1.17888e-06
-7.75902e-08
-1.18258e-06
-4.66353e-08
-1.55594e-08
6.57557e-07
-1.23878e-08
6.54643e-07
-3.70359e-08
6.49807e-07
-6.14807e-08
6.43067e-07
-8.56454e-08
6.34447e-07
-1.09457e-07
6.23974e-07
-1.32843e-07
6.11682e-07
-1.55728e-07
5.97611e-07
-1.78024e-07
5.81811e-07
-1.99634e-07
5.64341e-07
-2.2044e-07
5.45277e-07
-2.4029e-07
5.24712e-07
-2.58993e-07
5.02764e-07
-2.76302e-07
4.79578e-07
-2.91911e-07
4.5533e-07
-3.0547e-07
4.30231e-07
-3.16619e-07
4.04511e-07
-3.25056e-07
3.78416e-07
-3.30618e-07
3.52178e-07
-3.33354e-07
3.26006e-07
-3.3354e-07
3.00065e-07
-3.31632e-07
2.74475e-07
-3.28172e-07
2.49314e-07
-3.23683e-07
2.24629e-07
-3.18601e-07
2.00442e-07
-3.13246e-07
1.7676e-07
-3.07822e-07
1.53586e-07
-3.02441e-07
1.30916e-07
-2.9715e-07
1.08748e-07
-2.91956e-07
8.70805e-08
-2.86842e-07
6.59126e-08
-2.81784e-07
4.52446e-08
-2.76757e-07
2.50768e-08
-2.71739e-07
5.40985e-09
-2.66719e-07
-1.37568e-08
-2.61692e-07
-3.24237e-08
-2.56656e-07
-5.05901e-08
-2.51572e-07
-6.82569e-08
-2.46441e-07
-8.54265e-08
-2.41271e-07
-1.02103e-07
-2.36074e-07
-1.18291e-07
-2.30862e-07
-1.34001e-07
-2.25649e-07
-1.49241e-07
-2.2045e-07
-1.64025e-07
-2.1528e-07
-1.78365e-07
-2.10156e-07
-1.92278e-07
-2.05091e-07
-2.05782e-07
-2.00102e-07
-2.18896e-07
-1.95203e-07
-2.31642e-07
-1.90408e-07
-2.44041e-07
-1.8573e-07
-2.5612e-07
-1.81181e-07
-2.67903e-07
-1.76775e-07
-2.79418e-07
-1.72522e-07
-2.90691e-07
-1.68435e-07
-3.0175e-07
-1.64529e-07
-3.12622e-07
-1.60819e-07
-3.23329e-07
-1.57328e-07
-3.33894e-07
-1.54118e-07
-3.44352e-07
-1.51135e-07
-3.54697e-07
-1.48471e-07
-3.64936e-07
-1.46176e-07
-3.75097e-07
-1.44361e-07
-3.8549e-07
-1.5002e-07
-3.96275e-07
-1.56488e-07
-4.07576e-07
-1.63831e-07
-4.19511e-07
-1.72131e-07
-4.32183e-07
-1.81495e-07
-4.45689e-07
-1.92063e-07
-4.6012e-07
-2.04021e-07
-4.75572e-07
-2.17605e-07
-4.92149e-07
-2.33103e-07
-5.09966e-07
-2.50868e-07
-5.29148e-07
-2.71399e-07
-5.49894e-07
-2.9515e-07
-5.72493e-07
-3.22185e-07
-5.97324e-07
-3.5192e-07
-6.24835e-07
-3.82661e-07
-6.55421e-07
-4.11315e-07
-6.89158e-07
-4.33928e-07
-7.25565e-07
-4.47309e-07
-7.63653e-07
-4.50595e-07
-8.02285e-07
-4.45221e-07
-8.40501e-07
-4.3357e-07
-8.77626e-07
-4.17761e-07
-9.13228e-07
-3.99269e-07
-9.47038e-07
-3.78974e-07
-9.7888e-07
-3.57355e-07
-1.00863e-06
-3.34676e-07
-1.03621e-06
-3.11093e-07
-1.06154e-06
-2.8671e-07
-1.08457e-06
-2.6161e-07
-1.10526e-06
-2.35863e-07
-1.12358e-06
-2.09537e-07
-1.1395e-06
-1.82694e-07
-1.153e-06
-1.55397e-07
-1.16407e-06
-1.27713e-07
-1.1727e-06
-9.97018e-08
-1.17887e-06
-7.1417e-08
-1.18258e-06
-4.2924e-08
-1.43191e-08
6.5756e-07
-1.14136e-08
6.54648e-07
-3.41243e-08
6.49815e-07
-5.66481e-08
6.43083e-07
-7.89131e-08
6.34478e-07
-1.00852e-07
6.2403e-07
-1.22396e-07
6.11778e-07
-1.43476e-07
5.97767e-07
-1.64012e-07
5.82047e-07
-1.83915e-07
5.64684e-07
-2.03076e-07
5.45753e-07
-2.21359e-07
5.25347e-07
-2.38588e-07
5.03583e-07
-2.54537e-07
4.80601e-07
-2.68929e-07
4.56575e-07
-2.81444e-07
4.31705e-07
-2.9175e-07
4.06219e-07
-2.99569e-07
3.80352e-07
-3.0475e-07
3.54333e-07
-3.07334e-07
3.28364e-07
-3.0757e-07
3.02609e-07
-3.05876e-07
2.77185e-07
-3.02747e-07
2.52171e-07
-2.98667e-07
2.2761e-07
-2.94039e-07
2.03524e-07
-2.89159e-07
1.79919e-07
-2.84216e-07
1.56794e-07
-2.79315e-07
1.34147e-07
-2.74501e-07
1.11972e-07
-2.69779e-07
9.02658e-08
-2.65135e-07
6.90274e-08
-2.60545e-07
4.82558e-08
-2.55984e-07
2.7951e-08
-2.51433e-07
8.11294e-09
-2.4688e-07
-1.12587e-08
-2.4232e-07
-3.01645e-08
-2.37749e-07
-4.86036e-08
-2.33132e-07
-6.65758e-08
-2.28468e-07
-8.40821e-08
-2.23764e-07
-1.01125e-07
-2.19029e-07
-1.17711e-07
-2.14275e-07
-1.33845e-07
-2.09514e-07
-1.49536e-07
-2.04758e-07
-1.64793e-07
-2.00022e-07
-1.79629e-07
-1.95318e-07
-1.94058e-07
-1.90662e-07
-2.08093e-07
-1.86066e-07
-2.21753e-07
-1.81543e-07
-2.35055e-07
-1.77105e-07
-2.48019e-07
-1.72765e-07
-2.60666e-07
-1.68533e-07
-2.73019e-07
-1.64421e-07
-2.85099e-07
-1.60441e-07
-2.96931e-07
-1.56603e-07
-3.08538e-07
-1.52921e-07
-3.19945e-07
-1.49412e-07
-3.31167e-07
-1.46105e-07
-3.42236e-07
-1.4305e-07
-3.53163e-07
-1.40208e-07
-3.63941e-07
-1.37693e-07
-3.7453e-07
-1.35589e-07
-3.84649e-07
-1.3426e-07
-3.95192e-07
-1.39479e-07
-4.06236e-07
-1.45445e-07
-4.17842e-07
-1.52225e-07
-4.30084e-07
-1.59889e-07
-4.43042e-07
-1.68535e-07
-4.56801e-07
-1.78302e-07
-4.7145e-07
-1.89369e-07
-4.87085e-07
-2.01964e-07
-5.03818e-07
-2.16363e-07
-5.2177e-07
-2.32906e-07
-5.41089e-07
-2.52069e-07
-5.61995e-07
-2.7423e-07
-5.84784e-07
-2.99378e-07
-6.09824e-07
-3.2686e-07
-6.37514e-07
-3.54949e-07
-6.68148e-07
-3.80659e-07
-7.01677e-07
-4.00381e-07
-7.37532e-07
-4.1144e-07
-7.74742e-07
-4.13375e-07
-8.12269e-07
-4.07688e-07
-8.49272e-07
-3.96564e-07
-8.85173e-07
-3.81859e-07
-9.19602e-07
-3.64839e-07
-9.52328e-07
-3.46248e-07
-9.83197e-07
-3.26487e-07
-1.01209e-06
-3.05779e-07
-1.03893e-06
-2.84255e-07
-1.06364e-06
-2.62003e-07
-1.08615e-06
-2.39095e-07
-1.10643e-06
-2.15592e-07
-1.12441e-06
-1.91553e-07
-1.14007e-06
-1.67034e-07
-1.15337e-06
-1.42092e-07
-1.1643e-06
-1.16788e-07
-1.17282e-06
-9.11788e-08
-1.17893e-06
-6.53135e-08
-1.1826e-06
-3.92541e-08
-1.30933e-08
6.57562e-07
-1.04418e-08
6.54659e-07
-3.12208e-08
6.4984e-07
-5.18298e-08
6.43129e-07
-7.22022e-08
6.34553e-07
-9.22757e-08
6.24146e-07
-1.11989e-07
6.11946e-07
-1.31276e-07
5.98001e-07
-1.50067e-07
5.82364e-07
-1.68278e-07
5.65101e-07
-1.85813e-07
5.46287e-07
-2.02546e-07
5.26018e-07
-2.18318e-07
5.04406e-07
-2.32926e-07
4.81592e-07
-2.46116e-07
4.57744e-07
-2.57595e-07
4.33057e-07
-2.67064e-07
4.07752e-07
-2.74265e-07
3.8206e-07
-2.79058e-07
3.56203e-07
-2.81478e-07
3.30381e-07
-2.81749e-07
3.04754e-07
-2.8025e-07
2.7944e-07
-2.77434e-07
2.54516e-07
-2.73744e-07
2.30026e-07
-2.6955e-07
2.05991e-07
-2.65124e-07
1.82418e-07
-2.60642e-07
1.59303e-07
-2.56201e-07
1.36644e-07
-2.51841e-07
1.14433e-07
-2.47569e-07
9.26678e-08
-2.4337e-07
7.13441e-08
-2.39221e-07
5.0461e-08
-2.35101e-07
3.00179e-08
-2.3099e-07
1.00147e-08
-2.26877e-07
-9.54898e-09
-2.22756e-07
-2.86739e-08
-2.18624e-07
-4.73584e-08
-2.14448e-07
-6.56013e-08
-2.10225e-07
-8.34031e-08
-2.05962e-07
-1.00766e-07
-2.01666e-07
-1.17693e-07
-1.97348e-07
-1.34189e-07
-1.93017e-07
-1.50261e-07
-1.88686e-07
-1.65916e-07
-1.84366e-07
-1.81165e-07
-1.80069e-07
-1.96017e-07
-1.75809e-07
-2.10487e-07
-1.71596e-07
-2.24587e-07
-1.67442e-07
-2.38333e-07
-1.63359e-07
-2.51742e-07
-1.59356e-07
-2.6483e-07
-1.55445e-07
-2.77616e-07
-1.51635e-07
-2.9012e-07
-1.47936e-07
-3.02362e-07
-1.44361e-07
-3.14362e-07
-1.40921e-07
-3.26142e-07
-1.37633e-07
-3.3772e-07
-1.34527e-07
-3.49124e-07
-1.31645e-07
-3.60373e-07
-1.2896e-07
-3.71483e-07
-1.26584e-07
-3.82466e-07
-1.24607e-07
-3.92702e-07
-1.24027e-07
-4.03419e-07
-1.2876e-07
-4.14668e-07
-1.34194e-07
-4.26498e-07
-1.40393e-07
-4.3897e-07
-1.47412e-07
-4.52156e-07
-1.55344e-07
-4.66134e-07
-1.64317e-07
-4.80992e-07
-1.74502e-07
-4.96831e-07
-1.86115e-07
-5.13767e-07
-1.99415e-07
-5.31932e-07
-2.14727e-07
-5.51491e-07
-2.32492e-07
-5.72677e-07
-2.53022e-07
-5.95786e-07
-2.76245e-07
-6.2116e-07
-3.01459e-07
-6.49135e-07
-3.26947e-07
-6.79897e-07
-3.49872e-07
-7.13278e-07
-3.66979e-07
-7.48654e-07
-3.76049e-07
-7.85091e-07
-3.76927e-07
-8.21657e-07
-3.71117e-07
-8.57616e-07
-3.60602e-07
-8.92469e-07
-3.47004e-07
-9.25895e-07
-3.31413e-07
-9.57687e-07
-3.14456e-07
-9.877e-07
-2.96473e-07
-1.01583e-06
-2.77652e-07
-1.04198e-06
-2.58101e-07
-1.06609e-06
-2.37898e-07
-1.08808e-06
-2.17102e-07
-1.1079e-06
-1.95767e-07
-1.12551e-06
-1.73944e-07
-1.14086e-06
-1.51685e-07
-1.15391e-06
-1.2904e-07
-1.16464e-06
-1.06063e-07
-1.17301e-06
-8.28063e-08
-1.17901e-06
-5.93155e-08
-1.18262e-06
-3.56472e-08
-1.18888e-08
6.57567e-07
-9.47497e-09
6.54677e-07
-2.8331e-08
6.49881e-07
-4.70336e-08
6.43201e-07
-6.55223e-08
6.34666e-07
-8.37405e-08
6.24309e-07
-1.01632e-07
6.12172e-07
-1.19139e-07
5.983e-07
-1.36195e-07
5.82749e-07
-1.52727e-07
5.65583e-07
-1.68647e-07
5.4688e-07
-1.83843e-07
5.26731e-07
-1.9817e-07
5.05249e-07
-2.11444e-07
4.8257e-07
-2.23438e-07
4.5886e-07
-2.33885e-07
4.34309e-07
-2.42514e-07
4.09134e-07
-2.49091e-07
3.83562e-07
-2.53487e-07
3.57812e-07
-2.5573e-07
3.32083e-07
-2.56021e-07
3.06533e-07
-2.54702e-07
2.81281e-07
-2.52184e-07
2.56405e-07
-2.48869e-07
2.31947e-07
-2.45094e-07
2.0793e-07
-2.41108e-07
1.84358e-07
-2.37072e-07
1.61229e-07
-2.33073e-07
1.38537e-07
-2.2915e-07
1.16276e-07
-2.25308e-07
9.44398e-08
-2.21534e-07
7.30256e-08
-2.17807e-07
5.20312e-08
-2.14107e-07
3.14556e-08
-2.10415e-07
1.12987e-08
-2.0672e-07
-8.43996e-09
-2.03018e-07
-2.77607e-08
-1.99303e-07
-4.66614e-08
-1.95547e-07
-6.51405e-08
-1.91746e-07
-8.31977e-08
-1.87905e-07
-1.00834e-07
-1.8403e-07
-1.1805e-07
-1.80131e-07
-1.34851e-07
-1.76217e-07
-1.5124e-07
-1.72297e-07
-1.67224e-07
-1.68382e-07
-1.8281e-07
-1.64483e-07
-1.98008e-07
-1.60611e-07
-2.12827e-07
-1.56777e-07
-2.27279e-07
-1.5299e-07
-2.41375e-07
-1.49262e-07
-2.55131e-07
-1.45601e-07
-2.6856e-07
-1.42016e-07
-2.81678e-07
-1.38518e-07
-2.945e-07
-1.35115e-07
-3.07044e-07
-1.31817e-07
-3.19328e-07
-1.28638e-07
-3.31371e-07
-1.25591e-07
-3.43192e-07
-1.22707e-07
-3.54818e-07
-1.2002e-07
-3.66271e-07
-1.17508e-07
-3.77586e-07
-1.15271e-07
-3.88809e-07
-1.1339e-07
-3.99271e-07
-1.13553e-07
-4.10211e-07
-1.17818e-07
-4.21672e-07
-1.22729e-07
-4.33712e-07
-1.28348e-07
-4.46392e-07
-1.34726e-07
-4.59784e-07
-1.41945e-07
-4.73965e-07
-1.50126e-07
-4.89027e-07
-1.59429e-07
-5.05076e-07
-1.70053e-07
-5.22235e-07
-1.8224e-07
-5.40645e-07
-1.96296e-07
-5.6049e-07
-2.12625e-07
-5.82012e-07
-2.31474e-07
-6.05502e-07
-2.52726e-07
-6.31274e-07
-2.75655e-07
-6.596e-07
-2.98589e-07
-6.90566e-07
-3.18877e-07
-7.23901e-07
-3.33619e-07
-7.58934e-07
-3.40999e-07
-7.94768e-07
-3.41082e-07
-8.30553e-07
-3.35326e-07
-8.65642e-07
-3.25509e-07
-8.99599e-07
-3.13045e-07
-9.32145e-07
-2.98866e-07
-9.63096e-07
-2.83504e-07
-9.92323e-07
-2.67246e-07
-1.01972e-06
-2.5025e-07
-1.04522e-06
-2.32608e-07
-1.06873e-06
-2.14386e-07
-1.09019e-06
-1.95636e-07
-1.10956e-06
-1.76405e-07
-1.12676e-06
-1.56737e-07
-1.14177e-06
-1.36676e-07
-1.15454e-06
-1.1627e-07
-1.16504e-06
-9.55651e-08
-1.17324e-06
-7.46091e-08
-1.17911e-06
-5.34421e-08
-1.18264e-06
-3.21155e-08
-1.07098e-08
6.57572e-07
-8.51293e-09
6.54696e-07
-2.54553e-08
6.49923e-07
-4.22608e-08
6.43276e-07
-5.8875e-08
6.34782e-07
-7.52468e-08
6.24476e-07
-9.13264e-08
6.12399e-07
-1.07061e-07
5.98596e-07
-1.22392e-07
5.83124e-07
-1.37255e-07
5.66045e-07
-1.51569e-07
5.47436e-07
-1.65234e-07
5.27389e-07
-1.78123e-07
5.06013e-07
-1.90069e-07
4.83444e-07
-2.00869e-07
4.59841e-07
-2.10284e-07
4.35396e-07
-2.1807e-07
4.10318e-07
-2.24016e-07
3.84833e-07
-2.28004e-07
3.59158e-07
-2.30057e-07
3.33489e-07
-2.30355e-07
3.07987e-07
-2.29203e-07
2.82769e-07
-2.26969e-07
2.57913e-07
-2.24016e-07
2.33464e-07
-2.20648e-07
2.09442e-07
-2.17089e-07
1.85853e-07
-2.13485e-07
1.62694e-07
-2.09916e-07
1.39958e-07
-2.06416e-07
1.17637e-07
-2.02989e-07
9.57268e-08
-1.99625e-07
7.42221e-08
-1.96304e-07
5.31208e-08
-1.93006e-07
3.2422e-08
-1.89717e-07
1.21251e-08
-1.86424e-07
-7.76979e-09
-1.83123e-07
-2.72628e-08
-1.79811e-07
-4.63517e-08
-1.76459e-07
-6.50341e-08
-1.73064e-07
-8.33087e-08
-1.69631e-07
-1.01175e-07
-1.66165e-07
-1.18634e-07
-1.62673e-07
-1.35687e-07
-1.59164e-07
-1.52338e-07
-1.55647e-07
-1.68591e-07
-1.5213e-07
-1.84451e-07
-1.48623e-07
-1.99926e-07
-1.45137e-07
-2.15025e-07
-1.41679e-07
-2.29755e-07
-1.38261e-07
-2.44127e-07
-1.3489e-07
-2.58154e-07
-1.31575e-07
-2.71846e-07
-1.28325e-07
-2.85218e-07
-1.25147e-07
-2.98282e-07
-1.22051e-07
-3.11054e-07
-1.19046e-07
-3.23549e-07
-1.16143e-07
-3.35786e-07
-1.13355e-07
-3.47784e-07
-1.1071e-07
-3.59567e-07
-1.08238e-07
-3.71159e-07
-1.05918e-07
-3.82595e-07
-1.03836e-07
-3.93908e-07
-1.0208e-07
-4.04596e-07
-1.02808e-07
-4.15771e-07
-1.06635e-07
-4.27447e-07
-1.11045e-07
-4.39689e-07
-1.16096e-07
-4.52567e-07
-1.21838e-07
-4.66152e-07
-1.28347e-07
-4.80529e-07
-1.35736e-07
-4.95793e-07
-1.44151e-07
-5.12055e-07
-1.53775e-07
-5.29446e-07
-1.64828e-07
-5.48121e-07
-1.77598e-07
-5.68273e-07
-1.92445e-07
-5.90153e-07
-2.09562e-07
-6.14044e-07
-2.288e-07
-6.40229e-07
-2.49433e-07
-6.68914e-07
-2.69868e-07
-7.00091e-07
-2.87667e-07
-7.33404e-07
-3.0028e-07
-7.6815e-07
-3.06235e-07
-8.03471e-07
-3.0575e-07
-8.38594e-07
-3.00196e-07
-8.72944e-07
-2.91156e-07
-9.06138e-07
-2.7985e-07
-9.37928e-07
-2.67074e-07
-9.68151e-07
-2.53281e-07
-9.96688e-07
-2.38709e-07
-1.02344e-06
-2.23493e-07
-1.04834e-06
-2.07712e-07
-1.07131e-06
-1.91421e-07
-1.09228e-06
-1.74664e-07
-1.1112e-06
-1.57483e-07
-1.12802e-06
-1.39916e-07
-1.14269e-06
-1.22002e-07
-1.15518e-06
-1.03782e-07
-1.16545e-06
-8.52974e-08
-1.17347e-06
-6.65905e-08
-1.17921e-06
-4.76966e-08
-1.18267e-06
-2.8661e-08
-9.55672e-09
6.57577e-07
-7.55564e-09
6.54715e-07
-2.25936e-08
6.49965e-07
-3.75107e-08
6.43348e-07
-5.22588e-08
6.34894e-07
-6.67927e-08
6.24636e-07
-8.10682e-08
6.12614e-07
-9.50385e-08
5.98874e-07
-1.08653e-07
5.83471e-07
-1.21852e-07
5.66468e-07
-1.34566e-07
5.4794e-07
-1.46707e-07
5.27977e-07
-1.58161e-07
5.06688e-07
-1.68781e-07
4.84205e-07
-1.78387e-07
4.60687e-07
-1.86767e-07
4.3632e-07
-1.93705e-07
4.11314e-07
-1.99012e-07
3.85889e-07
-2.02582e-07
3.60263e-07
-2.04435e-07
3.34632e-07
-2.04727e-07
3.09155e-07
-2.03729e-07
2.83951e-07
-2.01769e-07
2.59099e-07
-1.99167e-07
2.34643e-07
-1.96195e-07
2.10604e-07
-1.93054e-07
1.86988e-07
-1.89871e-07
1.63791e-07
-1.86721e-07
1.41005e-07
-1.83632e-07
1.18624e-07
-1.8061e-07
9.66398e-08
-1.77643e-07
7.50494e-08
-1.74715e-07
5.38496e-08
-1.71808e-07
3.30393e-08
-1.68907e-07
1.26182e-08
-1.66004e-07
-7.41342e-09
-1.63092e-07
-2.70557e-08
-1.60169e-07
-4.63057e-08
-1.5721e-07
-6.51604e-08
-1.5421e-07
-8.36177e-08
-1.51174e-07
-1.01676e-07
-1.48107e-07
-1.19335e-07
-1.45015e-07
-1.36596e-07
-1.41904e-07
-1.5346e-07
-1.38784e-07
-1.6993e-07
-1.3566e-07
-1.86011e-07
-1.32543e-07
-2.01708e-07
-1.29441e-07
-2.17027e-07
-1.26361e-07
-2.31977e-07
-1.23313e-07
-2.46565e-07
-1.20303e-07
-2.60801e-07
-1.1734e-07
-2.74696e-07
-1.14431e-07
-2.8826e-07
-1.11584e-07
-3.01507e-07
-1.08806e-07
-3.14449e-07
-1.06106e-07
-3.271e-07
-1.03494e-07
-3.39477e-07
-1.0098e-07
-3.51598e-07
-9.85914e-08
-3.63486e-07
-9.63522e-08