/*--------------------------------*- C++ -*----------------------------------*\
  =========                 |
  \\      /  F ield         | OpenFOAM: The Open Source CFD Toolbox
   \\    /   O peration     | Website:  https://openfoam.org
    \\  /    A nd           | Version:  8
     \\/     M anipulation  |
\*---------------------------------------------------------------------------*/
FoamFile
{
    version     2.0;
    format      ascii;
    class       volScalarField;
    location    "640/fluid";
    object      Qdot;
}
// * * * * * * * * * * * * * * * * * * * * * * * * * * * * * * * * * * * * * //

dimensions      [1 -1 -3 0 0 0 0];

internalField   nonuniform List<scalar> 
4000
(
2.6579e-07
0
0
0
1.85791e-16
1.61891e-11
0
0
3.56234e-07
0
2.93881e-10
-3.78007e-07
0
0
-8.47196e-18
4.55524e-09
-4.60678e-09
-2.9188e-15
2.82992e-08
4.94073e-07
3.76648e-06
5.24694e-05
0.000621324
0.00614557
0.0496429
0.326874
1.7698
7.99254
30.601
100.946
291.167
743.651
1700.34
3516.43
6635.94
11550.3
18788.4
28947
42828.2
61605
86953.5
121106
166972
228400
310510
420193
566232
761195
1.02098e+06
1.36647e+06
1.82506e+06
2.4327e+06
3.2366e+06
4.2988e+06
5.70107e+06
7.55148e+06
9.99359e+06
1.31771e+07
1.73356e+07
2.29895e+07
3.05096e+07
5.72529e+07
3.90847e+08
2.96472e+07
2.13462e+07
1.51837e+07
1.06494e+07
7.35054e+06
4.98304e+06
3.31185e+06
2.15663e+06
1.38065e+06
883033
567609
151492
11359.6
312.051
4.39504
0.0415427
0.000423426
7.96279e-06
3.7519e-07
4.34031e-08
8.70923e-09
2.7536e-09
9.7357e-10
4.59758e-10
1.86281e-10
7.80043e-11
3.3106e-11
1.36122e-11
5.85925e-12
2.46125e-12
1.00079e-12
-4.47125e-13
1.78002e-13
6.67277e-14
2.52071e-14
-7.62143e-13
-7.4413e-13
-2.65546e-07
-1.40198e-12
-8.55322e-17
0
-2.64747e-20
-1.60298e-11
0
-5.50616e-11
0
-3.56434e-07
-4.89057e-19
0
4.7895e-10
0
-9.78259e-10
2.4295e-09
-2.68073e-16
-2.83095e-15
1.82525e-08
4.78424e-07
3.42718e-06
4.80226e-05
0.000569889
0.00567321
0.0463026
0.308648
1.69299
7.74476
30.0179
100.154
291.891
752.446
1733.67
3605.83
6835.74
11930.8
19427.4
29915.9
44179.7
63365.5
89120.8
123646
169850
231600
314078
423765
570216
765737
1.02627e+06
1.37281e+06
1.83296e+06
2.44299e+06
3.25066e+06
4.31891e+06
5.73091e+06
7.59694e+06
1.00639e+07
1.32856e+07
1.75031e+07
2.32549e+07
3.09276e+07
1.00464e+08
3.53669e+08
2.94055e+07
2.11064e+07
1.49681e+07
1.0465e+07
7.19794e+06
4.86026e+06
3.216e+06
2.08452e+06
1.32936e+06
850296
521073
112756
6733.08
159.433
2.01991
0.0186961
0.000209639
4.72445e-06
2.70699e-07
3.50699e-08
8.612e-09
2.74232e-09
1.10715e-09
4.14196e-10
1.62818e-10
7.46148e-11
3.3779e-11
1.32639e-11
6.63136e-12
-3.64909e-12
9.86859e-13
4.37454e-13
1.65055e-13
8.84688e-13
2.82092e-14
8.5166e-15
1.47651e-15
2.65186e-07
0
0
0
3.64086e-16
-3.74776e-16
0
0
0
0
0
3.55284e-07
4.62234e-10
3.62205e-07
2.09849e-09
-3.58531e-17
-2.81749e-16
-4.7748e-09
2.63074e-08
2.48762e-07
3.46554e-06
4.51042e-05
0.000537355
0.00536513
0.0440813
0.296596
1.64469
7.61191
29.8539
100.771
296.989
773.691
1799.07
3768.2
7185.02
12587.9
20531.1
31603.9
46572.5
66556.7
93179.7
128619
175803
238585
321787
432808
581592
779825
1.04375e+06
1.3947e+06
1.86077e+06
2.479e+06
3.29828e+06
4.38327e+06
5.81981e+06
7.72219e+06
1.02434e+07
1.35422e+07
1.78749e+07
2.38022e+07
3.17218e+07
1.74146e+08
2.84155e+08
2.94284e+07
2.09765e+07
1.4772e+07
1.02549e+07
7.00226e+06
4.69271e+06
3.08141e+06
1.9828e+06
1.25812e+06
806754
441815
73878.6
3532.31
73.9869
0.884783
0.00852136
0.000109821
2.98024e-06
2.00206e-07
2.93427e-08
7.58672e-09
2.30657e-09
9.50717e-10
4.19225e-10
1.57358e-10
7.77377e-11
3.28234e-11
1.47062e-11
6.09199e-12
1.49839e-12
1.03071e-12
4.3224e-13
1.63607e-13
6.8825e-14
2.81146e-14
8.84348e-15
1.65855e-15
-3.71244e-13
2.91516e-21
-2.87256e-07
1.25373e-20
0
-3.14623e-07
0
0
-3.34094e-07
1.09119e-10
3.42935e-07
0
1.31378e-14
0
-7.66038e-18
-3.4757e-17
-1.85984e-09
-2.78998e-15
8.48325e-09
2.40586e-07
3.30868e-06
4.3141e-05
0.000513468
0.0051584
0.0427377
0.290413
1.62788
7.61882
30.2184
103.134
307.216
808.495
1897.68
4003.74
7668.28
13481.1
22015.3
33860.8
49767.3
70836.3
98672.3
135468
184082
248257
333678
448162
600630
803672
1.07388e+06
1.4331e+06
1.91018e+06
2.54319e+06
3.38254e+06
4.49505e+06
5.9696e+06
7.9248e+06
1.05197e+07
1.39124e+07
1.83746e+07
2.44911e+07
3.26789e+07
2.62438e+08
1.98643e+08
2.93965e+07
2.07827e+07
1.4511e+07
9.9857e+06
6.75781e+06
4.48826e+06
2.92124e+06
1.86503e+06
1.17814e+06
759143
349671
44758.3
1760.99
32.9037
0.37406
0.00376876
5.5863e-05
1.82185e-06
1.44706e-07
2.35141e-08
6.08961e-09
2.25559e-09
8.16968e-10
4.1511e-10
1.54125e-10
6.0689e-11
2.51618e-11
1.44622e-11
-1.08381e-14
2.22647e-12
9.62176e-13
1.2131e-12
1.68399e-13
6.57929e-14
2.3356e-14
8.10972e-15
1.48274e-15
2.64454e-07
2.02231e-17
0
-2.94463e-07
0
0
0
-3.22332e-07
0
3.11353e-15
-4.51385e-19
0
4.37153e-10
0
-7.42229e-18
-3.73764e-17
-2.21032e-09
-2.76433e-15
1.63852e-08
2.41411e-07
3.21971e-06
4.18107e-05
0.000501234
0.00506292
0.04228
0.289973
1.64176
7.7636
31.1136
107.279
322.741
857.374
2029.8
4310.11
8283.26
14598.8
23847.1
36615.2
53634.9
75998.8
105277
143548
193851
260502
349664
468209
626000
836036
1.11546e+06
1.48689e+06
1.98018e+06
2.63483e+06
3.50316e+06
4.65456e+06
6.18141e+06
8.20698e+06
1.08919e+07
1.43888e+07
1.90099e+07
2.5355e+07
3.38326e+07
3.49406e+08
1.09933e+08
2.90971e+07
2.03672e+07
1.40846e+07
9.60194e+06
6.43913e+06
4.23895e+06
2.73611e+06
1.73481e+06
1.09282e+06
706919
248539
26085.4
873.843
14.84
0.16388
0.00176073
3.02149e-05
1.17389e-06
1.06815e-07
1.9649e-08
5.72033e-09
1.86606e-09
7.9734e-10
3.2701e-10
1.51146e-10
6.26131e-11
2.82158e-11
1.15784e-11
5.6412e-12
2.10642e-12
8.95736e-13
3.74265e-13
1.56198e-13
6.21829e-14
2.50096e-14
8.12138e-15
1.48778e-15
2.64075e-07
0
0
0
0
3.59618e-16
1.05194e-19
0
3.20836e-07
2.32585e-10
-4.6895e-10
-3.29298e-07
-1.24286e-14
0
-3.35596e-07
3.35631e-07
5.05799e-14
-2.77773e-15
1.5839e-08
4.9919e-08
3.19637e-06
4.12183e-05
0.000497316
0.00505654
0.0425705
0.294621
1.68406
8.04119
32.5382
113.256
343.841
921.312
2198.05
4693.82
9042.08
15947.3
26025
39844.8
58115.4
81864.4
112509
152405
205254
275509
368573
492241
656808
875840
1.16724e+06
1.55466e+06
2.06936e+06
2.75271e+06
3.65953e+06
4.86246e+06
6.458e+06
8.57447e+06
1.13788e+07
1.50239e+07
1.98438e+07
2.64187e+07
3.51418e+07
4.242e+08
3.96356e+07
2.77903e+07
1.93131e+07
1.32698e+07
8.99182e+06
5.99471e+06
3.92399e+06
2.51959e+06
1.59148e+06
1.00295e+06
642548
184277
14984.4
440.739
6.91574
0.0752387
0.000868052
1.71637e-05
7.83007e-07
8.18178e-08
1.60428e-08
4.78469e-09
1.64327e-09
7.84062e-10
3.18656e-10
1.48365e-10
5.79305e-11
2.78102e-11
1.06772e-11
4.96985e-12
2.08601e-12
8.42541e-13
3.71922e-13
1.48625e-13
5.58963e-14
7.99608e-13
7.39844e-15
7.43588e-13
3.69649e-13
0
-8.27126e-17
0
0
0
0
3.11083e-07
0
-2.27567e-10
0
-5.07418e-10
-3.21685e-07
1.74226e-18
1.02513e-09
-3.16099e-17
1.68582e-09
-2.78527e-15
1.10806e-08
2.31967e-07
3.19162e-06
4.14622e-05
0.000500793
0.005129
0.0435283
0.303903
1.75296
8.44713
34.4912
121.116
370.826
1001.47
2405.72
5162.95
9959.25
17533.6
28546.5
43519.9
63063.4
88146.9
120527
163012
218668
292107
389461
518873
691118
920433
1.22566e+06
1.63174e+06
2.17177e+06
2.88964e+06
3.84368e+06
5.11136e+06
6.79572e+06
9.03374e+06
1.20068e+07
1.58438e+07
2.10858e+07
2.80469e+07
3.72495e+07
4.51309e+08
3.49191e+07
2.48247e+07
1.74062e+07
1.20242e+07
8.1716e+06
5.45434e+06
3.5706e+06
2.29218e+06
1.44925e+06
918522
571011
133249
8777.63
231.796
3.4102
0.0370281
0.000461493
1.04566e-05
5.50874e-07
6.54712e-08
1.41832e-08
4.10941e-09
1.65124e-09
7.17723e-10
3.0055e-10
1.32719e-10
6.07042e-11
2.41099e-11
1.18263e-11
4.72996e-12
1.86172e-12
8.35988e-13
3.41955e-13
1.35604e-13
5.57759e-14
2.04811e-14
7.41116e-15
1.22889e-15
-6.9416e-22
-2.86686e-21
0
0
0
3.49889e-16
-2.43122e-11
1.03102e-19
0
0
2.00712e-10
0
-3.13151e-07
1.69327e-18
-6.78583e-18
-3.15149e-07
2.0049e-09
-2.83605e-15
2.21484e-08
2.46777e-07
3.23969e-06
4.23129e-05
0.000511314
0.00527284
0.0451085
0.317621
1.84808
8.98309
36.994
130.985
404.226
1099.62
2657.46
5724.63
11038.8
19364.9
31385.9
47496.9
68301.5
94939.2
129420
174043
232359
309197
410987
546246
726234
965860
1.2849e+06
1.70963e+06
2.27505e+06
3.02785e+06
4.03042e+06
5.3664e+06
7.1482e+06
9.52753e+06
1.27046e+07
1.68516e+07
2.25839e+07
3.03017e+07
4.07164e+07
4.38344e+08
3.20099e+07
2.27619e+07
1.59721e+07
1.10418e+07
7.50756e+06
5.01194e+06
3.28109e+06
2.10733e+06
1.33561e+06
853605
500781
96563.2
5361.26
129.201
1.80201
0.0196852
0.000265005
6.80922e-06
4.09359e-07
5.41033e-08
1.25647e-08
3.95372e-09
1.57784e-09
6.54476e-10
2.96468e-10
1.17735e-10
5.62422e-11
2.37945e-11
1.0421e-11
4.45598e-12
1.84499e-12
1.63849e-12
-5.12546e-12
5.51644e-12
5.5637e-14
2.0473e-14
6.68959e-15
1.14387e-15
3.68577e-13
0
5.85683e-21
0
-1.43038e-11
0
0
0
0
1.20138e-10
3.04361e-07
0
3.05182e-07
3.04627e-07
-2.29264e-14
-3.95369e-17
-2.97467e-16
-2.89721e-15
2.13523e-08
2.44051e-07
3.16079e-06
4.33654e-05
0.000527906
0.00548324
0.0472794
0.335661
1.96945
9.65302
40.0788
143.035
444.739
1218.04
2959.32
6390.7
12294.6
21428.9
34442
51669.1
73917.3
102355
138573
185254
246117
326191
432137
572757
759676
1.00829e+06
1.33901e+06
1.77901e+06
2.36448e+06
3.14372e+06
4.18135e+06
5.564e+06
7.40818e+06
9.87103e+06
1.3141e+07
1.74313e+07
2.33672e+07
3.13579e+07
8.29767e+07
3.99169e+08
3.03252e+07
2.15287e+07
1.50847e+07
1.04144e+07
7.07213e+06
4.71611e+06
3.08514e+06
1.98186e+06
1.25963e+06
812582
435009
71210.9
3437.17
76.5695
1.02297
0.0113076
0.000164052
4.72718e-06
3.19119e-07
4.52419e-08
1.10211e-08
3.68376e-09
1.4063e-09
5.98491e-10
2.52403e-10
1.22916e-10
5.25598e-11
2.27601e-11
9.49472e-12
4.00851e-12
1.62877e-12
7.51184e-13
-5.02906e-13
1.27707e-13
8.26671e-13
1.89724e-14
6.69757e-15
1.1478e-15
0
0
0
1.65276e-16
2.85824e-07
0
0
0
-1.39221e-15
0
0
-8.52276e-10
-2.96325e-07
1.59658e-18
-1.69525e-09
-3.82447e-17
-2.97462e-07
-2.96647e-15
2.05571e-08
2.52236e-07
3.2849e-06
4.5079e-05
0.000550382
0.00575683
0.0500247
0.358012
2.1177
10.4636
43.7899
157.485
493.242
1359.62
3318.93
7176.56
13733.5
23700
37828
56518.3
80247.2
110092
147921
196521
259756
342797
452467
597748
790481
1.04632e+06
1.38599e+06
1.83703e+06
2.43603e+06
3.23172e+06
4.28907e+06
5.69484e+06
7.56512e+06
1.00556e+07
1.33478e+07
1.76443e+07
2.35612e+07
3.14741e+07
1.5015e+08
3.38136e+08
2.94304e+07
2.08405e+07
1.45705e+07
1.00402e+07
6.80678e+06
4.53295e+06
2.96267e+06
1.90343e+06
1.21286e+06
788602
387154
53977.2
2324.33
48.3138
0.622381
0.00699029
0.000108814
3.47108e-06
2.58164e-07
4.00271e-08
1.00702e-08
3.51556e-09
1.42414e-09
5.3366e-10
2.72909e-10
1.0722e-10
4.55184e-11
2.15853e-11
9.37932e-12
4.35944e-12
1.6137e-12
7.67127e-13
3.13621e-13
1.21668e-13
4.79719e-14
1.89506e-14
5.97407e-15
1.06157e-15
-2.62167e-07
0
2.73953e-07
1.17532e-20
1.39754e-11
0
0
0
0
2.08376e-10
0
-1.08726e-14
3.70904e-10
-3.09713e-18
-9.25888e-18
2.88458e-07
-3.14015e-16
-8.90147e-14
1.97605e-08
2.487e-07
3.56519e-06
4.68253e-05
0.00057821
0.00609069
0.0533282
0.384662
2.29346
11.4221
48.1754
174.578
550.715
1527.53
3744.2
8085.39
15333.2
26217
41629.4
61608.7
86667.1
117908
157303
207746
273222
359008
472034
621387
819017
1.08068e+06
1.42722e+06
1.88621e+06
2.49426e+06
3.29993e+06
4.36782e+06
5.78392e+06
7.66291e+06
1.01578e+07
1.3442e+07
1.77184e+07
2.35938e+07
3.14224e+07
2.09802e+08
2.81091e+08
2.88326e+07
2.03942e+07
1.42433e+07
9.80519e+06
6.64203e+06
4.42056e+06
2.88859e+06
1.85702e+06
1.18639e+06
776485
343686
42178
1652.39
32.3564
0.404709
0.00462337
7.68416e-05
2.68357e-06
2.16255e-07
3.56516e-08
9.30135e-09
3.44609e-09
1.30157e-09
5.71804e-10
2.19581e-10
9.99754e-11
5.09925e-11
2.05898e-11
8.83266e-12
3.70641e-12
1.70517e-12
6.63661e-13
2.87318e-13
1.21039e-13
4.32012e-14
1.74501e-14
5.97611e-15
1.06404e-15
0
0
0
0
0
0
-5.08144e-11
0
2.03986e-10
0
-1.82064e-10
7.59408e-19
0
-3.00118e-18
1.58697e-09
-4.1447e-14
4.09915e-14
-6.3069e-09
1.61261e-08
1.34681e-07
3.60858e-06
4.9305e-05
0.000610874
0.00648031
0.0571654
0.41554
2.49705
12.534
53.279
194.553
618.172
1725.2
4239.84
9121.67
17140.7
29044.4
45644.4
66863.7
93174.9
125752
166659
218890
286524
374912
491054
644093
846029
1.11265e+06
1.46478e+06
1.92993e+06
2.54452e+06
3.35678e+06
4.43068e+06
5.85122e+06
7.73098e+06
1.02196e+07
1.34885e+07
1.77403e+07
2.35652e+07
3.13083e+07
2.60402e+08
2.32791e+08
2.82675e+07
2.00037e+07
1.39754e+07
9.6237e+06
6.52095e+06
4.34158e+06
2.83885e+06
1.82767e+06
1.17172e+06
771739
299044
34008.4
1231.09
22.8971
0.279698
0.00325353
5.73501e-05
2.16129e-06
1.88195e-07
3.31137e-08
8.58312e-09
3.00695e-09
1.23825e-09
5.13624e-10
2.39343e-10
1.10277e-10
4.7151e-11
2.0974e-11
8.71622e-12
3.66298e-12
7.10395e-13
-4.61002e-12
2.61347e-13
1.20354e-13
4.30414e-14
-7.38489e-13
-7.4199e-13
7.38838e-13
4.80092e-18
-2.80733e-21
-7.94075e-17
1.22678e-11
2.32781e-20
-3.26294e-16
0
1.00028e-10
-2.78449e-07
0
3.95533e-10
2.73539e-07
0
-2.90516e-18
-8.64769e-18
-4.00972e-17
-3.36475e-16
-3.28951e-15
2.42132e-08
2.78927e-07
3.66255e-06
5.1862e-05
0.000647775
0.00691951
0.0614922
0.450419
2.72781
13.8004
59.126
217.589
696.489
1954.63
4810.05
10315.8
19182.4
32000.7
49734.4
72109.9
99591.9
133450
175831
229823
299568
390474
509580
666063
871935
1.14297e+06
1.49993e+06
1.9702e+06
2.58992e+06
3.4069e+06
4.48426e+06
5.90507e+06
7.78048e+06
1.02615e+07
1.35122e+07
1.77299e+07
2.34956e+07
3.11413e+07
3.02735e+08
1.92874e+08
2.7706e+07
1.96312e+07
1.37308e+07
9.46485e+06
6.41966e+06
4.27869e+06
2.80143e+06
1.80714e+06
1.16262e+06
768582
271295
28166.8
955.857
17.0289
0.204252
0.00241974
4.49477e-05
1.8152e-06
1.67664e-07
2.99671e-08
8.22873e-09
2.93905e-09
1.24713e-09
5.03035e-10
2.34709e-10
1.0671e-10
4.33911e-11
2.06541e-11
8.25812e-12
3.61801e-12
-2.88016e-12
6.5178e-13
-5.05538e-13
1.07822e-13
4.28608e-14
1.73713e-14
5.7717e-15
9.78044e-16
-6.8819e-22
0
2.68393e-07
0
-2.30016e-20
-1.10134e-11
6.43828e-16
0
0
2.70578e-07
5.04671e-15
2.65769e-07
0
0
-5.56091e-18
2.5523e-07
-3.504e-16
-3.42337e-15
2.63303e-08
4.20772e-07
3.90118e-06
5.47338e-05
0.000687792
0.00739832
0.066228
0.488789
2.98328
15.213
65.7023
243.709
785.79
2215.7
5470.83
11689.7
21317.2
34905.1
53661.4
77050.6
105603
140681
184503
240234
312052
405405
527349
687074
896580
1.1716e+06
1.53279e+06
2.00736e+06
2.63112e+06
3.45108e+06
4.5292e+06
5.94862e+06
7.82085e+06
1.02899e+07
1.3514e+07
1.76913e+07
2.33905e+07
3.09305e+07
3.37495e+08
1.60591e+08
2.7146e+07
1.92707e+07
1.35034e+07
9.32522e+06
6.33682e+06
4.23177e+06
2.77675e+06
1.79599e+06
1.15973e+06
767918
253897
24010.2
772.628
13.279
0.157049
0.0018932
3.68276e-05
1.57722e-06
1.54273e-07
2.85478e-08
8.17869e-09
2.94617e-09
1.21827e-09
5.37074e-10
2.29919e-10
1.0232e-10
4.1896e-11
1.88498e-11
8.13926e-12
3.40398e-12
1.6405e-12
6.45435e-13
2.57271e-13
1.07129e-13
4.26609e-14
1.44209e-14
5.96356e-15
-7.35527e-13
2.60671e-07
0
0
0
1.58311e-16
0
0
0
0
0
0
0
0
0
2.49439e-07
-4.76596e-17
-3.62003e-16
-7.61379e-14
2.2064e-08
3.07985e-07
4.11834e-06
5.76699e-05
0.000729648
0.00790182
0.0712362
0.529677
3.25803
16.7489
72.9468
272.946
887.164
2521.23
6237.24
13164.3
23365.2
37434
57003.9
81224.9
110727
146941
192160
249579
323404
419092
543708
706427
919213
1.19773e+06
1.56243e+06
2.04011e+06
2.66581e+06
3.48625e+06
4.56431e+06
5.98143e+06
7.84409e+06
1.02951e+07
1.34869e+07
1.76162e+07
2.32387e+07
3.06613e+07
3.65587e+08
1.34667e+08
2.65817e+07
1.89114e+07
1.32798e+07
9.19022e+06
6.25861e+06
4.18914e+06
2.75577e+06
1.78783e+06
1.15901e+06
767528
240272
21079.6
649.477
10.8351
0.126749
0.00155205
3.13913e-05
1.40886e-06
1.44224e-07
2.71143e-08
8.10942e-09
3.04004e-09
1.18844e-09
5.24705e-10
2.24987e-10
9.846e-11
4.47264e-11
1.85358e-11
9.48702e-12
3.54222e-12
1.43592e-12
-1.11163e-13
2.55082e-13
1.0639e-13
4.24435e-14
7.63259e-13
5.43441e-15
8.90325e-16
0
-1.93115e-17
5.93722e-12
-1.56175e-16
2.66115e-07
0
-4.74779e-11
9.43135e-11
0
0
-4.7756e-15
-2.50203e-07
2.46242e-07
-2.61622e-18
-1.36953e-09
-4.57057e-17
-1.19686e-09
2.37075e-09
2.62302e-08
3.23409e-07
4.34147e-06
6.06576e-05
0.000771519
0.00840724
0.0763015
0.571386
3.54093
18.3457
80.5443
303.774
994.361
2843.49
7037.6
14601.7
24981.2
39080.1
59159.4
83980.8
114269
151503
198017
257009
332693
430518
557546
722900
938440
1.21958e+06
1.58646e+06
2.06568e+06
2.69299e+06
3.51435e+06
4.58944e+06
5.998e+06
7.84518e+06
1.02702e+07
1.342e+07
1.7488e+07
2.30163e+07
3.03033e+07
3.87537e+08
1.13882e+08
2.60333e+07
1.85678e+07
1.30718e+07
9.06979e+06
6.19306e+06
4.15679e+06
2.74266e+06
1.78528e+06
1.16189e+06
770101
230376
19056
566.823
9.22833
0.107022
0.00132794
2.77317e-05
1.29396e-06
1.35598e-07
2.66005e-08
7.58505e-09
2.71691e-09
1.20421e-09
5.12016e-10
2.30866e-10
9.64102e-11
4.38736e-11
1.96391e-11
8.611e-12
3.49254e-12
1.4182e-12
5.63366e-12
9.96967e-13
-6.45186e-13
3.93302e-14
-7.27021e-13
5.03701e-12
5.00236e-12
0
2.7605e-21
0
2.63242e-07
-1.54472e-16
2.34835e-11
-8.77214e-20
-9.24088e-11
0
3.38568e-19
-2.46779e-07
-6.54389e-19
3.76529e-10
-1.33975e-09
1.3149e-09
-2.25074e-07
-3.87789e-16
5.02714e-09
2.48767e-08
3.35373e-07
4.44964e-06
6.34663e-05
0.000810687
0.0088842
0.0811297
0.611584
3.81716
19.9293
88.2237
335.64
1108.96
3187.19
7841.18
15807.3
25644.8
39118.9
59339.9
84480.2
115318
153373
200969
261290
338521
438078
566947
734156
951479
1.23429e+06
1.60308e+06
2.08415e+06
2.71136e+06
3.52972e+06
4.59816e+06
5.99417e+06
7.81969e+06
1.02091e+07
1.33033e+07
1.72847e+07
2.26731e+07
2.97401e+07
4.10834e+08
9.56191e+07
2.54633e+07
1.82143e+07
1.28599e+07
8.94874e+06
6.12859e+06
4.12628e+06
2.73153e+06
1.78444e+06
1.16594e+06
773356
223766
17712.8
512.485
8.18288
0.0942495
0.00118167
2.53014e-05
1.21608e-06
1.30002e-07
2.60978e-08
7.81015e-09
2.88789e-09
1.20847e-09
4.99042e-10
2.30249e-10
9.73182e-11
4.10625e-11
1.92856e-11
8.47081e-12
-7.56382e-13
6.36173e-12
5.79551e-13
2.50436e-13
1.04812e-13
4.48311e-14
1.56971e-14
5.2162e-15
8.90203e-16
2.5956e-07
-1.46167e-12
0
1.16935e-11
0
0
2.05521e-11
2.52191e-07
1.16819e-15
-9.66553e-11
0
0
-8.63182e-15
-2.25649e-07
-1.26016e-09
-1.10754e-09
-1.08714e-09
2.62961e-09
2.56301e-08
2.35978e-07
4.63266e-06
6.57002e-05
0.0008442
0.00929531
0.0853263
0.646876
4.06236
21.3514
95.1958
364.869
1214.41
3499.67
8511.2
16378.7
24555.4
36620.7
56599.2
81693.3
112724
151211
199435
260542
338662
439179
569061
737360
955935
1.24005e+06
1.60929e+06
2.08948e+06
2.7143e+06
3.52779e+06
4.58757e+06
5.96915e+06
7.77171e+06
1.01257e+07
1.31669e+07
1.70722e+07
2.23464e+07
2.92519e+07
4.23581e+08
8.42902e+07
2.49035e+07
1.78677e+07
1.26532e+07
8.83163e+06
6.06707e+06
4.09789e+06
2.72179e+06
1.78435e+06
1.17008e+06
776749
219994
16892.5
478.672
7.52998
0.0862686
0.00108976
2.37602e-05
1.16617e-06
1.27827e-07
2.58139e-08
7.55803e-09
2.78395e-09
1.17409e-09
5.06284e-10
2.36166e-10
9.75168e-11
4.33313e-11
2.09974e-11
8.01452e-12
3.31051e-12
1.47049e-12
5.72879e-13
2.48017e-13
1.03981e-13
4.17121e-14
-7.20794e-13
5.20363e-15
8.89753e-16
0
0
0
0
0
0
-8.4587e-20
0
1.13998e-15
0
1.49629e-10
-6.12192e-19
-2.84714e-10
0
-6.64598e-10
-1.29714e-09
-4.02372e-16
4.51063e-09
2.21599e-08
3.48899e-07
4.68323e-06
6.75153e-05
0.000868733
0.00959786
0.0884413
0.673321
4.24817
22.4437
100.64
388.084
1296.87
3729.22
8854.04
15702
23874.3
31405.1
49980.7
74568.6
105253
143528
191632
252658
330714
431141
560865
728862
946625
1.22919e+06
1.59608e+06
2.07268e+06
2.69207e+06
3.49741e+06
4.54504e+06
5.90868e+06
7.68486e+06
1.00002e+07
1.29857e+07
1.6812e+07
2.19671e+07
2.86999e+07
4.32612e+08
7.72758e+07
2.4337e+07
1.75134e+07
1.24385e+07
8.70665e+06
5.99842e+06
4.06335e+06
2.70697e+06
1.78008e+06
1.17063e+06
778128
218268
16469.9
460.079
7.16221
0.0817381
0.0010374
2.28807e-05
1.14023e-06
1.2581e-07
2.51433e-08
7.89321e-09
2.77856e-09
1.13905e-09
4.92289e-10
2.24516e-10
9.5229e-11
4.24021e-11
1.99098e-11
8.18232e-12
3.4329e-12
1.45026e-12
5.90561e-13
2.57882e-13
1.00603e-13
4.01802e-14
1.556e-14
5.34928e-15
8.89129e-16
4.75326e-18
0
1.08563e-20
-1.14644e-11
2.53058e-07
-2.24171e-11
0
8.66873e-11
2.36536e-07
-2.31025e-07
3.23152e-10
5.91043e-19
-2.12634e-07
-2.22852e-18
-8.65379e-18
-2.93464e-14
-9.76933e-10
4.25158e-09
2.07974e-08
2.61735e-07
4.77507e-06
6.83332e-05
0.000881205
0.00975423
0.0900644
0.687218
4.34668
23.0277
103.564
400.385
1338.14
3807.52
8624.81
16211.1
24871.2
32741.9
39289.8
62562.5
92118.7
129194
175977
235477
311702
409886
536816
701284
914667
1.19173e+06
1.55166e+06
2.01939e+06
2.62738e+06
3.41794e+06
4.44625e+06
5.78434e+06
7.5264e+06
9.79572e+06
1.27189e+07
1.64611e+07
2.14936e+07
2.80516e+07
4.37404e+08
7.41769e+07
2.37513e+07
1.71312e+07
1.21923e+07
8.55084e+06
5.90193e+06
4.00521e+06
2.67301e+06
1.76079e+06
1.15953e+06
771931
217143
16322.8
452.726
7.0088
0.0798161
0.00101513
2.25093e-05
1.12745e-06
1.25685e-07
2.50424e-08
7.60887e-09
2.97966e-09
1.10279e-09
5.06236e-10
2.22831e-10
9.8011e-11
4.40649e-11
2.02447e-11
8.03463e-12
3.28323e-12
1.42984e-12
6.03099e-13
2.65199e-13
-6.25854e-13
-6.88578e-13
1.54884e-14
5.37111e-15
-4.98317e-12
0
7.99101e-13
-2.57374e-07
2.55567e-07
-2.53057e-07
2.93681e-16
0
1.13567e-15
0
2.31024e-07
0
0
-2.12907e-07
0
-2.00349e-07
-5.04649e-17
-1.20073e-09
-1.85111e-07
2.30906e-08
3.5227e-07
4.86107e-06
6.82437e-05
0.000881243
0.00975463
0.0900679
0.687246
4.34686
23.0286
103.568
400.398
1338.17
3807.55
8624.86
16211.1
24871.2
32741.9
39289.9
62560.9
92117.1
129193
175975
235475
311700
409883
536812
701278
914658
1.19172e+06
1.55164e+06
2.01936e+06
2.62734e+06
3.41788e+06
4.44617e+06
5.78424e+06
7.52627e+06
9.79554e+06
1.27187e+07
1.64608e+07
2.14933e+07
2.80511e+07
4.37396e+08
7.41755e+07
2.3751e+07
1.7131e+07
1.21922e+07
8.55086e+06
5.90206e+06
4.00539e+06
2.67321e+06
1.76098e+06
1.15969e+06
772041
217169
16324.3
452.754
7.0091
0.0798183
0.00101514
2.25097e-05
1.12742e-06
1.25683e-07
2.50419e-08
7.60874e-09
2.89834e-09
1.17914e-09
4.92938e-10
2.28521e-10
1.00824e-10
4.40645e-11
1.89162e-11
8.03458e-12
3.37776e-12
1.47777e-12
6.03081e-13
2.43009e-13
5.01195e-12
4.11803e-14
4.98233e-12
5.17588e-15
9.32649e-16
0
1.45547e-12
0
-2.58121e-07
0
0
0
-1.66614e-19
-1.14013e-15
-2.23411e-15
-1.49627e-10
2.2677e-07
-3.49916e-10
-2.32567e-18
1.20532e-09
-4.86668e-17
1.26849e-09
4.51053e-09
2.65913e-08
3.44529e-07
4.6831e-06
6.74384e-05
0.000868833
0.00959873
0.0884512
0.673402
4.24872
22.4469
100.655
388.134
1297
3729.27
8853.96
15701.2
23874.5
31405.3
49978.6
74566.3
105251
143525
191629
252655
330710
431134
560854
728846
946600
1.22916e+06
1.59602e+06
2.07259e+06
2.69195e+06
3.49723e+06
4.54481e+06
5.90836e+06
7.68443e+06
9.99967e+06
1.29849e+07
1.6811e+07
2.19659e+07
2.86983e+07
4.32585e+08
7.72718e+07
2.43358e+07
1.75123e+07
1.24375e+07
8.70581e+06
5.99772e+06
4.06281e+06
2.70656e+06
1.7798e+06
1.17046e+06
778041
218263
16470.6
460.108
7.16265
0.0817417
0.00103742
2.28808e-05
1.13892e-06
1.26432e-07
2.48821e-08
7.59616e-09
2.77434e-09
1.18202e-09
5.03293e-10
2.291e-10
9.75686e-11
4.38681e-11
1.85563e-11
8.8758e-12
3.33688e-12
7.39187e-13
-1.27472e-13
2.57879e-13
9.74953e-14
4.14482e-14
1.55598e-14
7.39446e-13
8.89097e-16
-2.00624e-13
-6.55713e-13
0
-2.1991e-20
0
1.03754e-11
-2.55311e-07
2.52189e-07
-1.16818e-15
7.86412e-11
-2.39756e-07
0
-2.29463e-07
5.7793e-10
-2.19468e-07
-1.3612e-09
-1.33613e-09
2.13949e-09
2.35193e-08
3.43864e-07
4.63254e-06
6.58191e-05
0.000844401
0.00929609
0.0853352
0.646943
4.06279
21.3538
95.2085
364.913
1214.55
3500.27
8512.37
16379.9
24556
36621.7
56600.2
81694.1
112724
151210
199433
260537
338653
439163
569036
737320
955875
1.23997e+06
1.60917e+06
2.08933e+06
2.7141e+06
3.52751e+06
4.58716e+06
5.96858e+06
7.77092e+06
1.01246e+07
1.31655e+07
1.70703e+07
2.23439e+07
2.92485e+07
4.23529e+08
8.42833e+07
2.49015e+07
1.78666e+07
1.26529e+07
8.83175e+06
6.06743e+06
4.0983e+06
2.72217e+06
1.78465e+06
1.1703e+06
776886
220030
16895
478.732
7.53068
0.0862733
0.00108978
2.37564e-05
1.1661e-06
1.26638e-07
2.58125e-08
7.55771e-09
2.86596e-09
1.17341e-09
4.94967e-10
2.24615e-10
9.75145e-11
4.48275e-11
1.89237e-11
7.62939e-12
3.38968e-12
1.51047e-12
4.83075e-12
2.48006e-13
1.00847e-13
4.45571e-14
1.56302e-14
5.20381e-15
-7.33018e-13
3.64372e-13
2.61778e-07
2.62875e-07
-6.51073e-12
0
2.61773e-07
0
-2.57499e-07
1.71716e-19
0
0
4.55855e-15
6.82876e-10
0
-9.89129e-18
-2.2507e-07
-1.40363e-09
5.02704e-09
2.48761e-08
2.25787e-07
4.45491e-06
6.33635e-05
0.000810815
0.00888541
0.0811412
0.611674
3.81774
19.9325
88.2387
335.723
1109.21
3187.78
7842.32
15808.8
25646.2
39120.9
59342.1
84482.5
115320
153374
200968
261285
338511
438062
566921
734116
951419
1.2342e+06
1.60295e+06
2.08394e+06
2.71105e+06
3.52928e+06
4.59757e+06
5.99335e+06
7.81857e+06
1.02076e+07
1.33013e+07
1.7282e+07
2.26693e+07
2.97349e+07
4.10775e+08
9.56104e+07
2.54603e+07
1.82121e+07
1.28582e+07
8.94745e+06
6.1277e+06
4.12571e+06
2.73119e+06
1.78427e+06
1.16588e+06
773360
223786
17715.1
512.548
8.18363
0.0942539
0.00118168
2.53023e-05
1.21355e-06
1.30668e-07
2.60963e-08
7.80969e-09
2.95581e-09
1.2084e-09
4.99013e-10
2.25439e-10
9.97614e-11
4.42428e-11
1.85116e-11
7.76124e-12
-1.4798e-12
1.49027e-12
5.79542e-13
-4.86908e-13
5.12909e-12
4.19652e-14
-5.01421e-12
5.57327e-15
-4.26154e-12
-2.60301e-07
1.47405e-12
0
0
0
-2.38387e-11
2.64596e-07
0
0
0
-2.53977e-07
0
0
2.42277e-07
-2.38515e-07
-5.07833e-17
-3.76286e-16
-3.67706e-15
2.62296e-08
3.23401e-07
4.23878e-06
6.06513e-05
0.000771655
0.00840841
0.0763122
0.571461
3.54136
18.3477
80.5526
303.804
994.462
2843.87
7038.54
14603.2
24982.9
39082.6
59162.1
83983.4
114271
151503
198015
257003
332680
430497
557512
722848
938363
1.21947e+06
1.5863e+06
2.06543e+06
2.69262e+06
3.51383e+06
4.58873e+06
5.99703e+06
7.84386e+06
1.02685e+07
1.34177e+07
1.74848e+07
2.30119e+07
3.02973e+07
3.87543e+08
1.13755e+08
2.60322e+07
1.85665e+07
1.30706e+07
9.0689e+06
6.19245e+06
4.15641e+06
2.74245e+06
1.78518e+06
1.16187e+06
770122
230398
19058.4
566.884
9.22896
0.107024
0.00132791
2.77351e-05
1.29248e-06
1.3559e-07
2.69518e-08
7.7304e-09
2.7168e-09
1.24209e-09
4.88273e-10
2.30859e-10
9.64077e-11
4.31602e-11
1.96387e-11
8.61084e-12
3.49248e-12
-3.60541e-12
6.31986e-13
2.75821e-13
1.05618e-13
4.22095e-14
1.57599e-14
5.22787e-15
8.90391e-16
0
1.93901e-17
0
-1.1319e-20
1.5831e-16
2.69697e-07
0
0
-1.79753e-19
2.64186e-07
0
-2.58728e-07
2.54606e-07
-2.71267e-18
-7.85192e-10
-2.81575e-09
-1.53817e-09
-2.46801e-07
2.4538e-08
4.33203e-07
4.12921e-06
5.78043e-05
0.000729779
0.00790313
0.0712468
0.52975
3.25844
16.751
72.9556
272.979
887.364
2521.79
6238.21
13165.7
23367
37436.5
57006.6
81227.3
110728
146941
192156
249569
323386
419063
543661
706354
919107
1.19758e+06
1.56223e+06
2.03985e+06
2.66545e+06
3.48575e+06
4.56363e+06
5.98049e+06
7.84282e+06
1.02934e+07
1.34847e+07
1.76134e+07
2.32349e+07
3.06563e+07
3.65527e+08
1.34666e+08
2.6579e+07
1.89103e+07
1.32797e+07
9.19071e+06
6.25929e+06
4.1898e+06
2.75631e+06
1.78823e+06
1.15928e+06
767699
240315
21082.4
649.531
10.8354
0.126746
0.00155195
3.13896e-05
1.4076e-06
1.4435e-07
2.71128e-08
7.959e-09
2.96363e-09
1.18837e-09
5.25384e-10
2.24977e-10
9.77399e-11
4.47245e-11
1.99861e-11
8.0162e-12
3.54216e-12
1.34332e-12
6.38804e-13
2.55071e-13
-4.24987e-12
4.24431e-14
1.72607e-14
5.23757e-15
-5.00499e-12
0
0
0
-2.70908e-07
-2.72677e-07
4.61693e-20
2.73933e-07
-2.7342e-07
-1.28018e-15
0
-3.85219e-10
7.62993e-10
0
1.49365e-09
-2.58964e-07
1.61607e-09
-3.50394e-16
-3.4124e-15
2.314e-08
2.92293e-07
3.8959e-06
5.47491e-05
0.000688055
0.00739979
0.0662382
0.488856
2.98363
15.2145
65.7069
243.716
785.763
2215.66
5471.07
11690.4
21318.5
34907.4
53664.3
77053.6
105605
140682
184503
240230
312043
405387
527319
687025
896504
1.17148e+06
1.53263e+06
2.00713e+06
2.6308e+06
3.45064e+06
4.5286e+06
5.94784e+06
7.81983e+06
1.02886e+07
1.35124e+07
1.76893e+07
2.33878e+07
3.09271e+07
3.37485e+08
1.60551e+08
2.71424e+07
1.92674e+07
1.35004e+07
9.32268e+06
6.33478e+06
4.23026e+06
2.77569e+06
1.79532e+06
1.15934e+06
767736
253874
24009.8
772.62
13.2784
0.157035
0.00189298
3.68203e-05
1.57565e-06
1.53662e-07
2.85463e-08
7.83473e-09
3.04219e-09
1.21826e-09
5.37058e-10
2.29913e-10
1.06235e-10
4.5556e-11
1.9594e-11
8.13887e-12
3.4038e-12
1.54676e-12
1.40344e-12
2.57268e-13
1.01273e-13
4.26596e-14
-7.33375e-13
5.24517e-15
9.78897e-16
-2.61417e-07
0
6.0612e-12
1.60705e-16
-2.3278e-20
0
4.99784e-11
2.7873e-07
1.30816e-15
2.60566e-15
0
-5.14406e-15
1.46481e-18
-2.69035e-07
2.66942e-07
-4.00965e-17
-3.36469e-16
-6.05228e-09
2.81714e-07
2.78921e-07
3.80691e-06
5.1873e-05
0.000647809
0.00692077
0.0615016
0.450476
2.72808
13.8014
59.1293
217.601
696.537
1954.84
4810.56
10316.8
19184.1
32003.5
49737.9
72113.8
99595.7
133453
175832
229822
299562
390462
509559
666027
871877
1.14288e+06
1.4998e+06
1.97002e+06
2.58967e+06
3.40656e+06
4.48381e+06
5.9045e+06
7.77975e+06
1.02606e+07
1.35111e+07
1.77286e+07
2.34941e+07
3.11395e+07
3.02753e+08
1.92823e+08
2.77043e+07
1.96305e+07
1.37309e+07
9.46543e+06
6.42051e+06
4.2796e+06
2.80224e+06
1.80779e+06
1.16309e+06
768883
271360
28169.2
955.845
17.0274
0.204223
0.00241933
4.49461e-05
1.81514e-06
1.69043e-07
2.99662e-08
8.38658e-09
2.9389e-09
1.15637e-09
5.53945e-10
2.34704e-10
1.02391e-10
4.63654e-11
1.91541e-11
1.34367e-11
3.82666e-12
1.5645e-12
6.04347e-13
5.48654e-12
1.07819e-13
4.28595e-14
1.5914e-14
5.07762e-12
1.06717e-15
0
0
0
0
0
0
0
0
1.33599e-15
-9.13566e-11
-7.6323e-19
0
4.42663e-10
2.77927e-07
1.58693e-09
-4.16057e-17
-3.20232e-16
-3.1668e-15
-2.56229e-07
1.25489e-07
3.74719e-06
4.91647e-05
0.000610912
0.00648176
0.0571766
0.415611
2.49742
12.5357
53.2851
194.573
618.227
1725.32
4240.27
9122.55
17142.3
29047
45647.8
66867.8
93179.3
125757
166663
218892
286523
374907
491043
644073
845996
1.1126e+06
1.4647e+06
1.92983e+06
2.54438e+06
3.3566e+06
4.43045e+06
5.85096e+06
7.7307e+06
1.02194e+07
1.34882e+07
1.77401e+07
2.35651e+07
3.13084e+07
2.60462e+08
2.32724e+08
2.82695e+07
2.0005e+07
1.39761e+07
9.6239e+06
6.52085e+06
4.34132e+06
2.83853e+06
1.82737e+06
1.17148e+06
771578
298982
34003.6
1230.91
22.8932
0.279642
0.00325283
5.73368e-05
2.16412e-06
1.87548e-07
3.27912e-08
8.58275e-09
3.10708e-09
1.18209e-09
5.61354e-10
2.34235e-10
1.10273e-10
4.71492e-11
1.94497e-11
8.37281e-12
3.49083e-12
1.58158e-12
6.09936e-13