/*--------------------------------*- C++ -*----------------------------------*\
  =========                 |
  \\      /  F ield         | OpenFOAM: The Open Source CFD Toolbox
   \\    /   O peration     | Website:  https://openfoam.org
    \\  /    A nd           | Version:  8
     \\/     M anipulation  |
\*---------------------------------------------------------------------------*/
FoamFile
{
    version     2.0;
    format      ascii;
    class       volScalarField;
    location    "640/fluid";
    object      rDeltaT;
}
// * * * * * * * * * * * * * * * * * * * * * * * * * * * * * * * * * * * * * //

dimensions      [0 0 -1 0 0 0 0];

internalField   nonuniform List<scalar> 
4000
(
513.469
539.466
564.285
588.064
610.744
632.227
652.388
671.087
688.194
703.612
717.301
729.316
739.833
749.177
757.833
766.306
774.986
784.061
793.439
802.741
811.372
818.64
823.889
826.591
826.413
823.167
816.74
807.098
794.274
778.351
759.448
740.071
752.631
796.894
840.395
883.026
924.706
965.367
1004.95
1043.42
1080.74
1116.9
1151.87
1185.66
1218.26
1249.67
1279.9
1308.95
1336.83
1363.54
1389.08
1413.47
1436.7
1458.78
1479.7
1499.46
1518.04
1535.31
1551.25
1566.08
1579.69
2251.95
15662.5
1571.5
1535.21
1493.98
1448.28
1398.66
1345.52
1289.26
1230.3
1169.11
1106.27
1042.32
977.983
914.719
854.535
799.858
753.646
718.544
695.536
683.171
678.183
677.043
676.922
676.053
673.454
668.77
662.036
653.437
643.21
631.592
618.803
605.036
590.453
575.19
559.351
543.003
526.181
508.849
512.997
538.342
562.373
585.023
606.263
626.021
644.205
660.728
675.524
688.579
699.952
709.803
718.413
726.204
733.661
741.254
749.365
758.184
767.627
777.315
786.631
794.836
801.202
805.126
806.154
803.979
798.436
789.482
777.16
761.578
742.88
721.24
714.34
741.464
786.121
830.101
873.302
915.639
957.04
997.452
1036.83
1075.15
1112.39
1148.52
1183.56
1217.48
1250.3
1282.02
1312.63
1342.16
1370.61
1397.98
1424.3
1449.56
1473.79
1496.99
1519.16
1540.16
1560.03
1579.07
1597.18
3963.77
14192.9
1582.65
1541.48
1496.68
1448.12
1395.89
1340.18
1281.21
1219.26
1154.72
1088.06
1019.72
950.635
882.674
818.487
761.345
714.52
680.347
659.029
648.356
644.784
644.899
646.163
647.025
646.667
644.637
640.785
635.136
627.798
618.916
608.644
597.136
584.533
570.958
556.515
541.275
525.269
508.54
512.301
536.102
558.418
579.211
598.422
615.994
631.871
646.02
658.444
669.202
678.43
686.358
693.319
699.728
706.036
712.694
720.085
728.409
737.596
747.287
756.881
765.647
772.842
777.804
779.991
779.012
774.654
766.837
755.582
740.982
723.172
702.319
678.608
686.569
730.061
774.626
818.689
862.15
904.927
946.954
988.176
1028.55
1068.06
1106.66
1144.36
1181.14
1217
1251.93
1285.95
1319.07
1351.31
1382.67
1413.19
1442.88
1471.75
1499.83
1527.09
1553.35
1578.57
1602.89
1625.75
6888.94
11430.1
1602.06
1556.07
1506.33
1452.91
1395.9
1335.43
1271.7
1204.98
1135.66
1064.28
991.397
918.32
847.357
781.53
724.342
678.891
646.841
627.64
618.67
616.394
617.587
619.901
621.896
622.866
622.448
620.475
616.901
611.753
605.1
597.028
587.633
577.008
565.244
552.418
538.593
523.809
508.093
511.618
534.05
554.926
574.2
591.831
607.782
622.028
634.564
645.423
654.686
662.501
669.1
674.804
680.026
685.235
690.907
697.428
704.998
713.55
722.726
731.929
740.426
747.466
752.381
754.64
753.865
749.829
742.427
731.651
717.562
700.271
679.922
656.679
649.524
677.23
722.131
766.804
811.147
855.072
898.506
941.391
983.68
1025.34
1066.34
1106.65
1146.27
1185.19
1223.4
1260.91
1297.72
1333.84
1369.28
1404.04
1438.13
1471.53
1504.2
1536.08
1566.85
1596.36
1624.62
1650.86
10406
8013.51
1614.66
1564.72
1510.49
1452.28
1390.35
1324.95
1256.39
1185.09
1111.58
1036.55
960.758
885.89
814.478
749.561
694.346
651.475
622.063
605.085
597.737
596.584
598.632
601.739
604.576
606.435
606.975
606.059
603.653
599.778
594.477
587.809
579.832
570.609
560.199
548.656
536.023
522.331
507.612
510.887
531.829
551.167
568.861
584.878
599.192
611.794
622.7
631.963
639.685
646.035
651.262
655.7
659.768
663.938
668.678
674.366
681.196
689.1
697.726
706.483
714.644
721.458
726.25
728.477
727.752
723.831
716.597
706.026
692.166
675.113
654.996
631.963
612.442
627.279
672.392
717.536
762.607
807.517
852.19
896.566
940.596
984.237
1027.45
1070.21
1112.5
1154.3
1195.6
1236.39
1276.67
1316.41
1355.61
1394.24
1432.27
1469.64
1506.24
1541.92
1576.21
1608.96
1640.04
1668.44
13884.6
4449.92
1618.57
1565.65
1507.74
1445.44
1379.27
1309.67
1237.11
1162.16
1085.5
1007.88
930.27
854.582
783.423
719.787
666.659
626.276
599.253
584.172
578.117
577.796
580.448
584.132
587.643
590.32
591.824
591.996
590.777
588.158
584.159
578.814
572.164
564.249
555.113
544.798
533.339
520.761
507.098
510.154
529.631
547.495
563.705
578.238
591.078
602.229
611.718
619.61
626.016
631.113
635.151
638.465
641.468
644.623
648.392
653.146
659.079
666.129
673.953
681.976
689.481
695.728
700.043
701.885
700.858
696.712
689.316
678.634
664.7
647.596
627.436
604.354
578.499
583.651
625.629
671.141
716.815
762.563
808.31
853.993
899.553
944.942
990.123
1035.06
1079.73
1124.1
1168.15
1211.84
1255.16
1298.06
1340.5
1382.42
1423.75
1464.36
1504.08
1542.7
1579.61
1614.64
1647.49
1677
16893.8
1662.89
1614.49
1559.01
1497.93
1432.22
1362.6
1289.68
1214.08
1136.48
1057.69
978.511
900.089
824.498
754.378
692.636
642.021
604.383
579.893
566.812
562.142
562.711
565.954
570.1
574.065
577.255
579.362
580.241
579.826
578.1
575.069
570.748
565.16
558.333
550.294
541.075
530.7
519.189
506.575
509.413
527.41
543.796
558.535
571.607
583.006
592.741
600.849
607.402
612.52
616.385
619.249
621.45
623.395
625.543
628.347
632.172
637.206
643.387
650.377
657.609
664.375
669.939
673.634
674.918
673.394
668.807
661.019
649.987
635.736
618.337
597.893
574.529
548.382
546.319
581.089
626.893
673.068
719.528
766.195
812.998
859.879
906.788
953.679
1000.51
1047.24
1093.82
1140.23
1186.4
1232.3
1277.87
1323.02
1367.67
1411.69
1454.92
1497.12
1537.99
1576.74
1613.56
1647.28
1676.85
18012.2
1656.41
1604.25
1545.66
1481.74
1413.34
1341.21
1266
1188.41
1109.19
1029.23
949.363
870.884
795.973
727.263
667.56
619.39
584.264
561.994
550.608
547.091
548.409
552.175
556.764
561.185
564.892
567.596
569.154
569.497
568.599
566.453
563.066
558.451
552.625
545.607
537.422
528.087
517.619
506.051
508.673
525.201
540.129
553.428
565.082
575.089
583.465
590.253
595.531
599.421
602.108
603.844
604.963
605.866
607.006
608.823
611.678
615.753
620.987
627.049
633.379
639.278
644.02
646.941
647.501
645.305
640.092
631.724
620.15
605.388
587.504
566.591
542.765
516.154
508.754
538.307
584.318
630.887
677.923
725.346
773.087
821.082
869.273
917.608
966.034
1014.5
1062.95
1111.33
1159.58
1207.62
1255.38
1302.76
1349.62
1395.81
1441.13
1485.3
1527.89
1568.15
1606.03
1640.19
1669.08
17532.6
1642.49
1587.51
1526.54
1460.52
1390.24
1316.41
1239.75
1160.98
1080.91
1000.48
920.536
842.519
768.683
701.635
644.086
598.357
565.662
545.507
535.736
533.33
535.379
539.654
544.654
549.476
553.623
556.828
558.958
559.943
559.755
558.381
555.82
552.078
547.163
541.09
533.874
525.532
516.075
505.534
507.935
522.998
536.478
548.35
558.601
567.236
574.274
579.763
583.784
586.462
587.982
588.597
588.636
588.497
588.62
589.441
591.311
594.406
598.665
603.758
609.133
614.096
617.929
619.974
619.695
616.697
610.722
601.627
589.361
573.937
555.415
533.885
509.455
482.246
470.924
496.757
542.893
589.748
637.231
685.261
733.766
782.675
831.927
881.457
931.205
981.108
1031.1
1081.11
1131.06
1180.85
1230.4
1279.56
1328.19
1376.1
1423.06
1468.76
1512.68
1554.17
1593.1
1628.14
3278.89
15997.4
1622.76
1565.85
1503.25
1435.81
1364.31
1289.45
1211.98
1132.64
1052.31
971.906
892.326
815.131
742.607
677.333
621.92
578.506
548.047
529.797
521.467
520.06
522.787
527.557
532.976
538.211
542.802
546.504
549.19
550.792
551.277
550.631
548.848
545.929
541.877
536.703
530.418
523.033
514.56
505.025
507.201
520.807
532.85
543.307
552.171
559.45
565.168
569.374
572.153
573.632
573.996
573.496
572.457
571.27
570.368
570.177
571.038
573.125
576.371
580.451
584.814
588.777
591.626
592.71
591.497
587.596
580.75
570.817
557.744
541.543
522.272
500.015
474.877
446.974
432.815
456.06
502.233
549.27
597.078
645.574
694.68
744.322
794.43
844.934
895.764
946.846
998.103
1049.45
1100.79
1152.03
1203.03
1253.65
1303.73
1353.05
1401.36
1448.34
1493.45
1536.03
1576
1612.15
5942.96
13576.8
1597.89
1540.1
1476.67
1408.5
1336.37
1261.05
1183.28
1103.85
1023.67
943.669
864.771
788.626
717.548
654.084
600.759
559.54
531.159
514.663
507.662
507.193
510.577
515.842
521.686
527.337
532.371
536.559
539.782
541.974
543.102
543.15
542.108
539.974
536.748
532.437
527.05
520.594
513.078
504.527
506.471
518.627
529.239
538.29
545.775
551.706
556.109
559.039
560.581
560.864
560.072
558.454
556.331
554.087
552.149
550.933
550.77
551.828
554.037
557.071
560.386
563.301
565.11
565.169
562.951
558.069
550.269
539.412
525.446
508.382
488.276
465.212
439.292
410.627
394.426
415.9
462.03
509.152
557.171
606.002
655.563
705.775
756.562
807.847
859.552
911.594
963.886
1016.33
1068.82
1121.24
1173.44
1225.28
1276.56
1327.07
1376.53
1424.6
1470.72
1514.27
1555.16
1592.13
8316.34
11301.5
1569.59
1511.54
1447.84
1379.44
1307.15
1231.78
1154.11
1074.95
995.247
915.907
837.894
762.945
693.381
631.72
580.397
541.231
514.76
499.86
494.073
494.477
498.495
504.26
510.547
516.635
522.129
526.815
530.579
533.359
535.123
535.851
535.533
534.164
531.743
528.273
523.76
518.21
511.63
504.04
505.744
516.457
525.646
533.296
539.407
543.994
547.088
548.744
549.049
548.135
546.184
543.444
540.23
536.922
533.936
531.681
530.479
530.489
531.638
533.6
535.832
537.661
538.386
537.369
534.089
528.167
519.351
507.506
492.582
474.591
453.591
429.663
402.908
373.437
355.767
376.053
422.061
469.176
517.303
566.353
616.238
666.878
718.19
770.091
822.495
875.313
928.446
981.788
1035.22
1088.62
1141.83
1194.68
1246.97
1298.47
1348.9
1397.89
1444.89
1489.25
1530.88
1568.5
10331.4
9373.43
1539.19
1481.18
1417.54
1349.23
1277.12
1202.02
1124.74
1046.13
967.129
888.634
811.652
737.993
669.974
610.077
560.659
523.407
498.692
485.254
480.588
481.817
486.457
492.731
499.48
506.026
511.999
517.197
521.512
524.885
527.283
528.687
529.085
528.471
526.84
524.195
520.539
515.877
510.212
503.563
505.02
514.297
522.066
528.32
533.06
536.306
538.09
538.471
537.539
535.423
532.308
528.439
524.126
519.744
515.702
512.396
510.141
509.088
509.16
510.028
511.153
511.864
511.47
509.338
504.955
497.946
488.068
475.187
459.258
440.296
418.358
393.528
365.906
335.6
316.861
336.348
382.162
429.189
477.33
526.494
576.591
627.536
679.241
731.618
784.574
838.012
891.828
945.906
1000.12
1054.33
1108.38
1162.08
1215.23
1267.58
1318.84
1368.64
1416.41
1461.49
1503.79
1542
12020.2
7774.96
1507.32
1449.57
1386.22
1318.27
1246.59
1172.02
1095.36
1017.49
939.354
861.845
786.004
713.69
647.216
589.029
541.413
505.937
482.834
470.735
467.105
469.118
474.372
481.167
488.399
495.428
501.903
507.633
512.515
516.493
519.533
521.616
522.729
522.865
522.018
520.187
517.377
513.588
508.822
503.097
504.299
512.144
518.498
523.357
526.729
528.633
529.108
528.212
526.038
522.718
518.433
513.427
508.009
502.544
497.434
493.068
489.749
487.622
486.601
486.358
486.354
485.925
484.384
481.107
475.588
467.459
456.483
442.533
425.566
405.601
382.698
356.941
328.431
297.278
277.732
296.667
342.221
389.084
437.157
486.345
536.556
587.7
639.686
692.42
745.805
799.737
854.104
908.785
963.646
1018.54
1073.29
1127.73
1181.61
1234.7
1286.7
1337.23
1385.68
1431.43
1474.37
1513.19
13409.2
6478.96
1474.47
1417.12
1354.24
1286.84
1215.78
1141.9
1066.04
989.063
911.931
835.515
760.89
689.953
625.009
568.47
522.553
488.725
467.1
456.229
453.563
456.327
462.191
469.521
477.259
484.796
491.797
498.081
503.549
508.145
511.838
514.607
516.439
517.325
517.258
516.237
514.263
511.336
507.457
502.638
503.58
509.997
514.939
518.406
520.409
520.972
520.134
517.959
514.54
510.009
504.549
498.401
491.869
485.314
479.129
473.694
469.302
466.089
463.965
462.597
461.448
459.86
457.151
452.706
446.028
436.754
424.656
409.612
391.585
370.597
346.711
320.014
290.607
258.601
238.407
256.93
302.164
348.798
396.729
445.862
496.102
547.355
599.527
652.519
706.23
760.549
815.361
870.536
925.936
981.404
1036.77
1091.83
1146.36
1200.12
1252.78
1303.97
1353.07
1399.47
1443.05
1482.51
14532.8
5437.39
1440.91
1384.08
1321.81
1255.1
1184.81
1111.78
1036.85
960.882
884.852
809.608
736.253
666.709
603.27
548.316
504.002
471.703
451.437
441.69
439.919
443.404
449.877
457.756
466.023
474.094
481.646
488.506
494.579
499.811
504.169
507.634
510.192
511.831
512.546
512.332
511.189
509.116
506.112
502.188
502.863
507.855
511.387
513.463
514.097
513.317
511.166
507.708
503.04
497.294
490.653
483.356
475.704
468.052
460.786
454.274
448.802
444.495
441.258
438.754
436.449
433.687
429.795
424.165
416.309
405.874
392.637
376.483
357.381
335.358
310.48
282.837
252.533
219.678
198.918
217.084
261.946
308.29
356.016
405.026
455.221
506.506
558.783
611.949
665.898
720.518
775.685
831.266
887.116
943.075
998.966
1054.59
1109.7
1164.05
1217.32
1269.14
1318.86
1365.91
1410.15
1450.27
15414.6
4597.48
1406.83
1350.63
1289.09
1223.18
1153.78
1081.71
1007.81
932.957
858.102
784.087
712.036
643.888
581.924
528.492
485.695
454.831
435.832
427.112
426.144
430.324
437.408
445.854
454.672
463.3
471.427
478.886
485.584
491.468
496.506
500.679
503.97
506.369
507.867
508.46
508.146
506.921
504.785
501.743
502.148
505.716
507.839
508.524
507.79
505.665
502.198
497.455
491.533
484.568
476.741
468.291
459.513
450.759
442.405
434.811
428.253
422.846
418.488
414.84
411.369
407.423
402.336
395.51
386.464
374.855
360.467
343.194
323.01
299.947
274.075
245.487
214.289
180.593
159.292
177.102
221.541
267.545
315.01
363.835
413.923
465.172
517.484
570.752
624.868
679.712
735.16
791.075
847.306
903.689
960.04
1016.15
1071.79
1126.69
1180.53
1232.93
1283.28
1330.97
1375.9
1416.82
16345.4
3863.12
1372.32
1316.86
1256.15
1191.16
1122.75
1051.74
978.959
905.281
831.657
758.914
688.187
621.424
560.891
508.908
467.533
438.01
420.23
412.519
412.273
417.113
424.8
433.819
443.204
452.407
461.128
469.205
476.545
483.098
488.831
493.722
497.757
500.923
503.21
504.612
505.125
504.745
503.47
501.303
501.433
503.58
504.295
503.589
501.484
498.014
493.228
487.197
480.019
471.83
462.813
453.204
443.296
433.434
423.988
415.307
407.658
401.146
395.662
390.865
386.22
381.082
374.793
366.762
356.518
343.727
328.183
309.787
288.518
264.415
237.551
208.024
175.941
141.416
119.561
136.97
180.945
226.561
273.714
322.303
372.226
423.382
475.668
528.976
583.193
638.2
693.867
750.053
806.606
863.355
920.114
976.674
1032.8
1088.21
1142.59
1195.57
1246.52
1294.85
1340.47
1382.1
16858.4
3405.53
1337.57
1282.91
1223.11
1159.12
1091.78
1021.9
950.31
877.868
805.519
734.079
664.686
599.291
540.142
489.528
449.467
421.156
404.495
397.801
398.289
403.774
412.055
421.648
431.608
441.401
450.733
459.445
467.445
474.683
481.125
486.749
491.538
495.479
498.561
500.776
502.118
502.583
502.165
500.867
500.719
501.446
500.752
498.655
495.179
490.361
484.254
476.931
468.493
459.077
448.866
438.094
427.052
416.078
405.536
395.765
387.021
379.401
372.787
366.835
361.012
354.677
347.179
337.938
326.491
312.516
295.813
276.292
253.94
228.801
200.952
170.495
137.539
102.202
100
100
140.164
185.35
232.147
280.45
330.158
381.168
433.374
486.666
540.93
596.043
651.871
708.273
765.093
822.157
879.277
936.24
992.806
1048.7
1103.6
1157.13
1208.67
1257.63
1303.92
1346.28
17222.1
3122.27
1302.64
1248.84
1190.03
1127.1
1060.9
992.224
921.874
850.712
779.675
709.562
641.513
577.47
519.659
470.34
431.492
404.275
388.586
382.822
384.116
390.255
399.13
409.303
419.852
430.252
440.215
449.58
458.26
466.2
473.368
479.739
485.295
490.022
493.908
496.942
499.117
500.427
500.867
500.433
500.006
499.312
497.21
493.72
488.872
482.704
475.273
466.655
456.954
446.307
434.897
422.959
410.779
398.691
387.049
376.185
366.344
357.612
349.865
342.756
335.751
328.216
319.506
309.05
296.399
281.237
263.376
242.733
219.303
193.134
164.31
132.935
100
100
100
100
100
143.932
190.331
238.306
287.753
338.568
390.644
443.869
498.127
553.292
609.23
665.796
722.833
780.165
837.601
894.927
951.9
1008.24
1063.64
1117.71
1169.82
1219.4
1266.36
1309.45
17415.1
2997.13
1267.53
1214.69
1156.93
1095.15
1030.14
962.71
893.646
823.802
754.104
685.339
618.64
555.932
499.421
451.335
413.622
387.409
372.556
367.524
369.637
376.449
385.941
396.721
407.884
418.918
429.536
439.58
448.962
457.626
465.538
472.673
479.012
484.538
489.238
493.099
496.113
498.273
499.57
500.001
500.006
499.311
497.209
493.719
488.87
482.702
475.272
466.654
456.952
446.305
434.895
422.956
410.776
398.688
387.046
376.181
366.34
357.608
349.861
342.751
335.746
328.21
319.5
309.045
296.393
281.231
263.37
242.727
219.296
193.127
164.303
132.928
100
100
100
100
100
143.928
190.327
238.302
287.749
338.564
390.641
443.866
498.124
553.289
609.228
665.794
722.83
780.163
837.599
894.925
951.899
1008.24
1063.64
1117.71
1169.82
1219.4
1266.36
1309.45
17415.2
2997.13
1267.54
1214.69
1156.93
1095.15
1030.14
962.709
893.643
823.798
754.099
685.333
618.633
555.924
499.412
451.326
413.613
387.401
372.548
367.517
369.63
376.442
385.935
396.715
407.879
418.913
429.531
439.576
448.958
457.622
465.535
472.67
479.009
484.535
489.235
493.096
496.111
498.27
499.568
500
500.719
501.444
500.751
498.653
495.177
490.358
484.251
476.927
468.489
459.073
448.861
438.088
427.046
416.072
405.529
395.758
387.013
379.392
372.778
366.826
361.002
354.667
347.168
337.926
326.479
312.503
295.8
276.278
253.926
228.786
200.938
170.48
137.524
102.187
100
100
140.155
185.342
232.139
280.443
330.152
381.162
433.368
486.661
540.925
596.038
651.867
708.27
765.089
822.154
879.274
936.236
992.802
1048.7
1103.6
1157.13
1208.67
1257.63
1303.92
1346.28
17222.1
3122.29
1302.65
1248.85
1190.03
1127.11
1060.9
992.222
921.869
850.704
779.664
709.548
641.497
577.452
519.64
470.32
431.471
404.256
388.568
382.805
384.099
390.239
399.115
409.29
419.84
430.241
440.204
449.571
458.251
466.192
473.361
479.732
485.289
490.016
493.902
496.936
499.111
500.421
500.861
500.431
501.433
503.579
504.293
503.587
501.482
498.011
493.225
487.193
480.014
471.825
462.808
453.198
443.29
433.427
423.98
415.3
407.65
401.137
395.653
390.855
386.21
381.071
374.781
366.749
356.505
343.714
328.169
309.772
288.503
264.399
237.535
208.008
175.924
141.399
119.549
136.963
180.939
226.556
273.709
322.298
372.221
423.378
475.664
528.973
583.191
638.198
693.865
750.051
806.603
863.352
920.111
976.67
1032.79
1088.2
1142.59
1195.57
1246.51
1294.85
1340.46
1382.1
16858.3
3405.62
1337.6
1282.93
1223.12
1159.13
1091.78
1021.9
950.307
877.86
805.508
734.063
664.667
599.27
540.119
489.503
449.442
421.133
404.472
397.78
398.268
403.755
412.038
421.632
431.593
441.388
450.721
459.434
467.435
474.674
481.116
486.741
491.531
495.472
498.554
500.77
502.112
502.577
502.16
500.865
502.148
505.715
507.837
508.522
507.787
505.662
502.194
497.451
491.529
484.564
476.736
468.285
459.507
450.752
442.397
434.803
428.244
422.837
418.478
414.83
411.358
407.411
402.324
395.497
386.45
374.84
360.452
343.178
322.994
299.93
274.058
245.469
214.271
180.574
159.281
177.097
221.538
267.542
315.007
363.833
413.921
465.171
517.483
570.752
624.867
679.712
735.16
791.074
847.305
903.688
960.039
1016.15
1071.79
1126.69
1180.52
1232.93
1283.27
1330.96
1375.89
1416.81
16346.2
3863.36
1372.35
1316.88
1256.16
1191.17
1122.75
1051.74
978.956
905.273
831.645
758.897
688.166
621.4
560.865
508.88
467.505
437.983
420.204
412.494
412.25
417.092
424.781
433.801
443.188
452.393
461.115
469.193
476.534
483.088
488.822
493.714
497.749
500.915
503.203
504.605
505.119
504.739
503.465
501.302
502.863
507.853
511.385
513.461
514.095
513.314
511.162
507.704
503.035
497.289
490.648
483.35
475.698
468.045
460.778
454.266
448.793
444.486
441.248
438.744
436.438
433.675
429.782
424.152
416.295
405.859
392.621
376.466
357.363
335.34
310.462
282.818
252.513
219.658
198.906
217.082
261.944
308.289
356.016
405.026
455.222
506.507
558.784
611.951
665.9
720.519
775.686
831.267
887.117
943.076
998.965
1054.58
1109.7
1164.05
1217.32
1269.13
1318.86
1365.9
1410.14
1450.26
15418.5
4592.42
1406.85
1350.65
1289.11
1223.2
1153.79
1081.72
1007.81
932.951
858.09
784.07
712.015
643.863
581.896
528.463
485.666
454.803
435.804
427.086
426.121
430.303
437.388
445.836
454.656
463.285
471.414
478.874
485.572
491.457
496.497
500.67
503.962
506.361
507.861
508.454
508.14
506.916
504.78
501.741
503.58
509.996
514.937
518.404
520.407
520.969
520.131
517.956
514.536
510.004
504.544
498.395
491.862
485.307
479.122
473.685
469.294
466.08
463.955
462.586
461.437
459.848
457.138
452.693
446.013
436.739
424.64
409.595
391.566
370.578
346.691
319.993
290.586
258.58
238.396
256.93
302.166
348.799
396.731
445.865
496.106
547.359
599.531
652.524
706.234
760.554
815.365
870.54
925.939
981.407
1036.77
1091.83
1146.36
1200.12
1252.77
1303.96
1353.06
1399.46
1443.04
1482.5
14532.9
5438.27
1440.93
1384.1
1321.83
1255.11
1184.82
1111.78
1036.84
960.876
884.84
809.591
736.232
666.685
603.243
548.288
503.973
471.675
451.411
441.665
439.896
443.383
449.858
457.739
466.007
474.079
481.633
488.494
494.568
499.801
504.16
507.626
510.184
511.824
512.539
512.326
511.184
509.111
506.108
502.186
504.299
512.143
518.497
523.356
526.727
528.631
529.105
528.209
526.034
522.713
518.427
513.421
508.002
502.537
497.427
493.059
489.741
487.612
486.591
486.348
486.343
485.913
484.371
481.093
475.573
467.443
456.466
442.515
425.547
405.581
382.677
356.92
328.409
297.255
277.721
296.67
342.225
389.089
437.162
486.351
536.563
587.707
639.693
692.428
745.812
799.744
854.111
908.791
963.651
1018.54
1073.3
1127.73
1181.61
1234.7
1286.69
1337.22
1385.67
1431.42
1474.36
1513.18
13410.4
6478.19
1474.49
1417.14
1354.26
1286.85
1215.79
1141.91
1066.04
989.057
911.921
835.5
760.872
689.931
624.984
568.444
522.527
488.699
467.076
456.205
453.542
456.308
462.173
469.504
477.244
484.782
491.784
498.069
503.538
508.135
511.829
514.599
516.432
517.318
517.252
516.232
514.259
511.332
507.454
502.637
505.02
514.296
522.065
528.318
533.058
536.303
538.087
538.468
537.535
535.419
532.303
528.433
524.12
519.737
515.694
512.387
510.132
509.079
509.15
510.018
511.141
511.852
511.457
509.323
504.94
497.93
488.05
475.168
459.238
440.275
418.336
393.505
365.882
335.576
316.851
336.354
382.169
429.196
477.338
526.502
576.601
627.546
679.251
731.628
784.584
838.023
891.838
945.915
1000.13
1054.34
1108.39
1162.09
1215.24
1267.59
1318.84
1368.64
1416.4
1461.49
1503.78
1541.99
12021.6
7773.51
1507.33
1449.58
1386.23
1318.28
1246.6
1172.02
1095.36
1017.48
939.344
861.831
785.987
713.67
647.193
589.005
541.389
505.914
482.812
470.714
467.085
469.1
474.356
481.152
488.385
495.416
501.892
507.623
512.506
516.484
519.525
521.609
522.723
522.859
522.013
520.183
517.373
513.584
508.82
503.096
505.743
516.457
525.645
533.294
539.405
543.992
547.085
548.741
549.046
548.13
546.179
543.438
540.223
536.915
533.929
531.673
530.47
530.48
531.628
533.59
535.821
537.649
538.372
537.354
534.074
528.15
519.333
507.487
492.561
474.57
453.568
429.639
402.883
373.411
355.758
376.061
422.071
469.187
517.315
566.364
616.251
666.891
718.203
770.104
822.509
875.326
928.459
981.801
1035.23
1088.63
1141.84
1194.69
1246.98
1298.48
1348.9
1397.9
1444.89
1489.25
1530.88
1568.49
10333.8
9370.15
1539.19
1481.18
1417.54
1349.23
1277.12
1202.02
1124.74
1046.12
967.117
888.619
811.635
737.974
669.953
610.056
560.638
523.387
498.673
485.236
480.571
481.802
486.443
492.718
499.468
506.015
511.989
517.187
521.503
524.877
527.276
528.681
529.08
528.466
526.836
524.191
520.536
515.875
510.21
503.563
506.47
518.627
529.239
538.289
545.773
551.704
556.107
559.036
560.577
560.859
560.067
558.448
556.325
554.081
552.142
550.925
550.762
551.819
554.027
557.061
560.374
563.289
565.097
565.155
562.935
558.052
550.251
539.392
525.425
508.359
488.252
465.187
439.266
410.599
394.417
415.913
462.043
509.165
557.186
606.018
655.579
705.791
756.578
807.864
859.569
911.611
963.902
1016.35
1068.84
1121.25
1173.46
1225.29
1276.58
1327.08
1376.54
1424.61
1470.73
1514.27
1555.16
1592.14
8319.99
11295.4
1569.57
1511.53
1447.84
1379.43
1307.15
1231.77
1154.1
1074.94
995.232
915.891
837.876
762.926
693.362
631.7
580.378
541.213
514.743
499.845
494.059
494.464
498.483
504.249
510.537
516.626
522.12
526.807
530.571
533.353
535.117
535.845
535.528
534.16
531.74
528.27
523.758
518.209
511.629
504.04
507.201
520.807
532.849
543.306
552.17
559.448
565.165
569.371
572.149
573.628
573.992
573.491
572.451
571.263
570.361
570.169
571.03
573.116
576.362
580.441
584.803
588.765
591.613
592.696
591.482
587.579
580.731
570.796
557.722
541.52
522.247
499.989
474.85
446.946
432.808
456.075
502.25
549.287
597.096
645.592
694.699
744.341
794.449
844.954
895.784
946.866
998.124
1049.47
1100.81
1152.05
1203.05
1253.67
1303.75
1353.07
1401.38
1448.36
1493.47
1536.05
1576.02
1612.16
5945.77
13577.1
1597.88
1540.08
1476.65
1408.48
1336.35
1261.03
1183.26
1103.83
1023.65
943.65
864.752
788.607
717.529
654.066
600.742
559.524
531.145
514.651
507.651
507.183
510.567
515.833
521.678
527.33
532.364
536.553
539.776
541.968
543.097
543.145
542.104
539.97
536.746
532.435
527.049
520.594
513.079
504.527
507.935
522.998
536.478
548.349
558.6
567.234
574.273
579.761
583.781
586.458
587.978
588.593
588.631
588.491
588.614
589.434
591.303
594.398
598.656
603.749
609.122
614.085
617.917
619.96
619.679
616.68
610.703
601.606
589.338
573.913
555.39
533.858
509.427
482.216
470.918
496.776
542.913
589.769
637.252
685.283
733.788
782.698
831.95
881.48
931.228
981.132
1031.12
1081.13
1131.08
1180.88
1230.42
1279.58
1328.21
1376.12
1423.08
1468.78
1512.71
1554.19
1593.12
1628.17
3282.33
15996.9
1622.72
1565.82
1503.22
1435.79
1364.28
1289.43
1211.95
1132.62
1052.28
971.886
892.306
815.112
742.589
677.317
621.906
578.493
548.035
529.787
521.458
520.052
522.78
527.551
532.97
538.205
542.797
546.5
549.185
550.788
551.274
550.628
548.845
545.926
541.876
536.701
530.417
523.034
514.561
505.025
508.673
525.201
540.129
553.428
565.081
575.088
583.464
590.251
595.528
599.418
602.104
603.84
604.958
605.861
606.999
608.817
611.671
615.745
620.979
627.04
633.369
639.267
644.008
646.927
647.486
645.287
640.073
631.703
620.127
605.364
587.477
566.563
542.735
516.122
508.748
538.329
584.341
630.911
677.948
725.372
773.112
821.108
869.3
917.635
966.06
1014.52
1062.98
1111.36
1159.6
1207.65
1255.41
1302.78
1349.64
1395.84
1441.16
1485.33
1527.91
1568.17
1606.06
1640.21
1669.1
17532.4
1642.47
1587.49
1526.52
1460.5
1390.22
1316.39
1239.73
1160.95
1080.89
1000.46
920.517
842.502
768.667
701.621
644.073
598.346
565.653
545.5
535.73
533.325
535.374
539.649
544.65
549.473
553.619
556.825
558.955
559.941
559.753
558.379
555.818
552.076
547.162
541.089
533.875
525.533
516.076
505.534
509.413
527.411
543.796
558.535
571.607
583.005
592.74
600.848
607.4
612.518
616.381
619.245
621.445
623.39
625.538
628.341
632.166
637.199
643.379
650.369
657.6
664.364
669.927
673.621
674.903
673.377
668.788
660.998
649.964
635.71
618.309
597.864
574.498
548.349
546.315
581.116
626.92
673.096
719.556
766.224
813.027
859.909
906.818
953.709
1000.54
1047.27
1093.85
1140.26
1186.43
1232.33
1277.9
1323.05
1367.7
1411.72
1454.94
1497.14
1538.01
1576.76
1613.58
1647.3
1676.86
18011.2
1656.4
1604.23
1545.64
1481.72
1413.33
1341.19
1265.98
1188.39
1109.17
1029.22
949.346
870.868
795.959
727.25
667.549
619.381
584.258
561.989
550.605
547.089
548.406
552.173
556.762
561.183
564.89
567.595
569.153
569.496
568.598
566.452
563.065
558.451
552.625
545.608
537.423
528.089
517.621
506.052
510.154
529.632
547.495
563.706
578.238
591.078
602.228
611.717
619.608
626.014
631.111
635.148
638.461
641.464
644.618
648.386
653.14
659.073
666.122
673.945
681.967
689.471
695.716
700.03
701.869
700.84
696.692
689.294
678.61
664.674
647.567
627.405
604.32
578.464
583.647
625.659
671.172
716.847
762.595
808.343
854.026
899.586
944.975
990.156
1035.1
1079.76
1124.13
1168.18
1211.87
1255.19
1298.09
1340.53
1382.45
1423.77
1464.38
1504.11
1542.72
1579.63
1614.65
1647.5
1677.01
16896.1
1662.88
1614.48
1559
1497.92
1432.2
1362.58
1289.66
1214.06
1136.46
1057.67
978.496
900.074
824.485
754.367
692.627
642.014
604.378
579.89
566.81
562.141
562.711
565.954
570.1
574.065
577.255
579.362
580.241
579.826
578.101
575.069
570.748
565.161
558.334
550.296
541.077
530.703
519.192
506.576
510.888
531.83
551.168
568.862
584.878
599.192
611.794
622.7
631.962
639.684
646.033
651.259
655.696
659.764
663.934
668.673
674.361
681.191
689.094
697.719
706.475
714.635
721.447
726.237
728.462
727.734
723.811
716.574
706.001
692.138
675.083
654.963
631.928
612.44
627.313
672.427
717.572
762.643
807.553
852.227
896.603
940.633
984.273
1027.48
1070.24
1112.53
1154.33
1195.63
1236.42
1276.7
1316.44
1355.64
1394.27
1432.3
1469.66
1506.26
1541.94
1576.22
1608.98
1640.06
1668.45
13890.5
4443.01
1618.55
1565.63
1507.72
1445.42
1379.25
1309.65
1237.1
1162.14
1085.48
1007.87
930.257
854.569
783.413
719.779
666.654
626.274
599.252
584.172
578.119
577.798
580.45
584.134
587.645
590.321
591.825
591.997
590.778
588.159
584.16
578.816
572.165
564.25
555.115
544.8
533.342
520.764
507.099
511.618
534.051
554.928
574.201
591.832
607.783
622.028
634.564
645.423
654.685
662.5
669.098
674.801
680.023
685.232
690.903
697.424
704.993
713.545
722.72
731.922
740.417
747.455
752.368
754.625
753.848
749.809
742.404
731.625
717.533
700.24
679.888
656.642
649.524
677.269
722.17
766.844
811.187
855.112
898.547
941.432
983.72
1025.38
1066.38
1106.69
1146.31
1185.23
1223.44
1260.94
1297.75
1333.87
1369.31
1404.07
1438.15
1471.55
1504.22
1536.1
1566.87
1596.37
1624.63
1650.87
10413.5
8005.58
1614.64
1564.7
1510.48
1452.27
1390.33
1324.93
1256.38
1185.07
1111.57
1036.53
960.744
885.878
814.468
749.553
694.341
651.473
622.064
605.088
597.741
596.588
598.636
601.742
604.58
606.438
606.978
606.061
603.655
599.78
594.479
587.81
579.834
570.612
560.201
548.659
536.027
522.335
507.613
512.301
536.103
558.419
579.212
598.424
615.995
631.872
646.02
658.444
669.202
678.429
686.357
693.317
699.726
706.034
712.691
720.082
728.405
737.592
747.282
756.875
765.639
772.832