/*--------------------------------*- C++ -*----------------------------------*\
  =========                 |
  \\      /  F ield         | OpenFOAM: The Open Source CFD Toolbox
   \\    /   O peration     | Website:  https://openfoam.org
    \\  /    A nd           | Version:  8
     \\/     M anipulation  |
\*---------------------------------------------------------------------------*/
FoamFile
{
    version     2.0;
    format      ascii;
    class       volScalarField;
    location    "640/fluid";
    object      rho;
}
// * * * * * * * * * * * * * * * * * * * * * * * * * * * * * * * * * * * * * //

dimensions      [1 -3 0 0 0 0 0];

internalField   nonuniform List<scalar> 
4000
(
0.658526
0.658499
0.658455
0.65838
0.658256
0.65805
0.657711
0.657158
0.656265
0.654843
0.652618
0.649203
0.644089
0.636661
0.626255
0.61229
0.594443
0.572822
0.548041
0.521127
0.493299
0.465713
0.439269
0.41455
0.391844
0.371215
0.352585
0.335797
0.320662
0.306986
0.294588
0.283307
0.273004
0.263559
0.254877
0.246861
0.239406
0.232449
0.225939
0.219833
0.214094
0.208691
0.203595
0.198786
0.194244
0.189953
0.185899
0.182072
0.178463
0.175065
0.171874
0.168886
0.166103
0.163528
0.161167
0.159033
0.157144
0.15555
0.154278
0.153336
0.152842
0.152912
0.154047
0.162918
0.173406
0.185727
0.200177
0.217149
0.237158
0.260875
0.289172
0.323174
0.364323
0.414574
0.476304
0.551691
0.641885
0.745281
0.855314
0.96003
1.04636
1.10729
1.14459
1.16484
1.17498
1.17982
1.18204
1.18305
1.18349
1.18368
1.18376
1.1838
1.18381
1.18382
1.18382
1.18382
1.18382
1.18382
1.18382
1.18382
0.658526
0.658499
0.658455
0.65838
0.658255
0.658047
0.657706
0.657149
0.65625
0.654823
0.652593
0.64918
0.644088
0.636713
0.62641
0.612613
0.595
0.573659
0.549164
0.522496
0.494842
0.467339
0.440896
0.416114
0.393302
0.372544
0.353778
0.336855
0.321593
0.307801
0.295299
0.283924
0.273537
0.264018
0.25527
0.247197
0.239691
0.232689
0.226139
0.219997
0.214225
0.208792
0.203671
0.198838
0.194275
0.189965
0.185894
0.182052
0.178429
0.175019
0.171817
0.16882
0.166029
0.163447
0.161081
0.158942
0.157049
0.155451
0.154177
0.153233
0.152736
0.152806
0.15473
0.163776
0.174469
0.18704
0.201803
0.219174
0.239696
0.26408
0.293251
0.328401
0.371062
0.423315
0.487581
0.565926
0.659082
0.764538
0.874487
0.976308
1.05784
1.11402
1.14793
1.16634
1.1756
1.18006
1.18214
1.18308
1.1835
1.18368
1.18376
1.1838
1.18381
1.18382
1.18382
1.18382
1.18382
1.18382
1.18382
1.18382
0.658526
0.658499
0.658454
0.658379
0.658253
0.658045
0.657701
0.657142
0.65624
0.654809
0.652576
0.649165
0.644086
0.636748
0.626519
0.612844
0.595403
0.574276
0.550013
0.523565
0.496089
0.468705
0.442318
0.417534
0.394676
0.373842
0.354982
0.337957
0.322592
0.308699
0.296101
0.284637
0.274166
0.26457
0.255751
0.247614
0.24005
0.232994
0.226394
0.220207
0.214393
0.208922
0.203765
0.198899
0.194305
0.189967
0.185872
0.182007
0.178364
0.174936
0.171717
0.168707
0.165904
0.163311
0.160936
0.15879
0.156892
0.155294
0.15402
0.153079
0.152591
0.152675
0.155983
0.165262
0.176252
0.189194
0.204423
0.222376
0.243633
0.268945
0.299288
0.335915
0.380435
0.435009
0.501978
0.583121
0.678563
0.784818
0.893184
0.991087
1.06773
1.1197
1.15082
1.1677
1.17621
1.18032
1.18225
1.18312
1.18352
1.18369
1.18377
1.1838
1.18381
1.18382
1.18382
1.18382
1.18382
1.18382
1.18382
1.18382
0.658526
0.658499
0.658454
0.658379
0.658253
0.658045
0.657701
0.657142
0.656243
0.654818
0.652598
0.649212
0.644176
0.636907
0.62678
0.613242
0.595972
0.575035
0.550959
0.524673
0.497313
0.469994
0.443622
0.418813
0.395899
0.374991
0.356046
0.338934
0.323481
0.309503
0.296824
0.285283
0.27474
0.265076
0.256193
0.247998
0.24038
0.233274
0.226627
0.220396
0.214541
0.20903
0.203837
0.198936
0.194311
0.189944
0.185822
0.181933
0.178268
0.17482
0.171585
0.168559
0.165744
0.163141
0.160759
0.158608
0.156709
0.155116
0.153852
0.152924
0.152452
0.15256
0.157577
0.167115
0.178439
0.191804
0.20756
0.22617
0.248244
0.274572
0.306177
0.344366
0.390827
0.447775
0.517439
0.601301
0.698872
0.805735
0.912367
1.00631
1.07809
1.12582
1.15405
1.16927
1.17694
1.18065
1.18239
1.18318
1.18354
1.1837
1.18377
1.1838
1.18381
1.18382
1.18382
1.18382
1.18382
1.18382
1.18382
1.18382
0.658526
0.658499
0.658454
0.658379
0.658254
0.658046
0.657704
0.657147
0.656251
0.654834
0.652627
0.649264
0.644267
0.637056
0.627015
0.613593
0.596465
0.575686
0.551766
0.525613
0.49835
0.471084
0.444722
0.419889
0.396928
0.375956
0.35694
0.339752
0.324225
0.310175
0.297428
0.285822
0.275218
0.265497
0.256559
0.248313
0.240649
0.233498
0.22681
0.220538
0.214646
0.209099
0.203871
0.198941
0.194286
0.189892
0.185745
0.181833
0.178147
0.174682
0.171431
0.168393
0.165567
0.162958
0.160572
0.158422
0.156528
0.154952
0.153701
0.15279
0.152348
0.152513
0.159303
0.169093
0.180761
0.194566
0.21087
0.23016
0.25307
0.28043
0.313306
0.35305
0.401439
0.460707
0.532931
0.61927
0.71859
0.825584
0.930088
1.02
1.08719
1.13112
1.15684
1.17063
1.17757
1.18093
1.18251
1.18324
1.18357
1.18371
1.18377
1.1838
1.18381
1.18382
1.18382
1.18382
1.18382
1.18382
1.18382
1.18382
0.658526
0.658499
0.658455
0.65838
0.658255
0.658048
0.657708
0.657154
0.656265
0.654858
0.652668
0.649332
0.644376
0.637227
0.62727
0.613955
0.596952
0.576306
0.552509
0.526457
0.49926
0.472023
0.445657
0.420794
0.397784
0.376753
0.357672
0.340419
0.324827
0.310716
0.297911
0.28625
0.275594
0.265825
0.256841
0.248552
0.240848
0.23366
0.226935
0.220629
0.214703
0.209126
0.20387
0.198912
0.194232
0.189814
0.185645
0.181713
0.17801
0.17453
0.171267
0.16822
0.16539
0.162779
0.160396
0.158254
0.156371
0.154815
0.153583
0.152698
0.152287
0.152489
0.160791
0.170892
0.182948
0.197224
0.214095
0.234068
0.257808
0.28618
0.320292
0.361541
0.411789
0.473262
0.547885
0.636479
0.737279
0.844155
0.946445
1.03249
1.09547
1.13597
1.15941
1.1719
1.17817
1.18121
1.18264
1.18329
1.18359
1.18372
1.18378
1.1838
1.18381
1.18382
1.18382
1.18382
1.18382
1.18382
1.18382
1.18382
0.658526
0.6585
0.658455
0.658381
0.658257
0.658051
0.657713
0.657163
0.65628
0.654882
0.652709
0.649399
0.644481
0.637386
0.627503
0.61428
0.597385
0.576849
0.553155
0.527182
0.500035
0.472816
0.44644
0.421544
0.398488
0.377403
0.358264
0.340954
0.325307
0.311143
0.298287
0.28658
0.275881
0.26607
0.257047
0.248722
0.240985
0.233764
0.227009
0.220673
0.21472
0.209118
0.203837
0.198855
0.194154
0.189716
0.185528
0.181581
0.177864
0.174373
0.171102
0.168051
0.16522
0.162614
0.160241
0.158117
0.156261
0.154753
0.153539
0.152727
0.152404
0.152708
0.161649
0.172283
0.184845
0.199647
0.217104
0.237756
0.262301
0.291643
0.326931
0.369614
0.421624
0.485165
0.562002
0.652612
0.754607
0.861113
0.961107
1.04349
1.10264
1.14012
1.16161
1.17299
1.17869
1.18144
1.18274
1.18334
1.18361
1.18373
1.18378
1.1838
1.18381
1.18382
1.18382
1.18382
1.18382
1.18382
1.18382
1.18382
0.658526
0.6585
0.658456
0.658382
0.658258
0.658054
0.657718
0.657172
0.656295
0.654907
0.652749
0.649463
0.64458
0.637535
0.627717
0.614576
0.597771
0.577328
0.553715
0.527803
0.500691
0.47348
0.447088
0.42216
0.39906
0.377926
0.358736
0.341376
0.32568
0.311471
0.298573
0.286827
0.276091
0.266245
0.25719
0.248835
0.241069
0.233821
0.22704
0.220681
0.214706
0.209081
0.20378
0.198779
0.194059
0.189605
0.185403
0.181443
0.177716
0.174217
0.170941
0.167888
0.16506
0.162461
0.160102
0.158
0.156187
0.154732
0.1536
0.152921
0.152816
0.153493
0.162764
0.17376
0.186722
0.201977
0.219958
0.241228
0.266516
0.296758
0.333139
0.377159
0.430814
0.496264
0.575113
0.667497
0.770438
0.876401
0.974126
1.05312
1.10886
1.14372
1.16351
1.17393
1.17914
1.18165
1.18284
1.18338
1.18363
1.18374
1.18379
1.18381
1.18382
1.18382
1.18382
1.18382
1.18382
1.18382
1.18382
1.18382
0.658526
0.6585
0.658456
0.658383
0.65826
0.658057
0.657723
0.65718
0.656309
0.65493
0.652786
0.649521
0.64467
0.637668
0.627907
0.614834
0.598106
0.577738
0.554191
0.528327
0.501239
0.47403
0.447621
0.422661
0.399521
0.378343
0.359109
0.341704
0.325968
0.31172
0.298786
0.287006
0.276239
0.266365
0.257282
0.248902
0.241112
0.233842
0.227041
0.220662
0.214667
0.209025
0.203707
0.19869
0.193956
0.189489
0.185276
0.181306
0.177571
0.174066
0.170787
0.167733
0.164907
0.162314
0.159966
0.15788
0.156096
0.154672
0.15358
0.152956
0.152925
0.154448
0.163979
0.175265
0.18856
0.204203
0.222645
0.244469
0.270429
0.301489
0.33887
0.384123
0.439294
0.506483
0.58714
0.681064
0.784726
0.890018
0.985546
1.06144
1.11418
1.14676
1.16512
1.17473
1.17952
1.18183
1.18292
1.18342
1.18364
1.18374
1.18379
1.18381
1.18382
1.18382
1.18382
1.18382
1.18382
1.18382
1.18382
1.18382
0.658526
0.6585
0.658457
0.658383
0.658261
0.658059
0.657727
0.657188
0.656322
0.654951
0.65282
0.649574
0.644749
0.637785
0.628072
0.615057
0.598392
0.578087
0.554592
0.528764
0.501693
0.474481
0.448053
0.423064
0.399888
0.378671
0.359398
0.341956
0.326184
0.311904
0.29894
0.287132
0.276339
0.266441
0.257336
0.248935
0.241126
0.233838
0.227019
0.220624
0.214614
0.208957
0.203625
0.198596
0.193851
0.189373
0.185151
0.181174
0.177433
0.173924
0.170643
0.167589
0.164764
0.162175
0.159833
0.157755
0.155982
0.154569
0.153485
0.152859
0.152807
0.155513
0.165232
0.176748
0.190319
0.206295
0.22514
0.247454
0.274014
0.30581
0.344096
0.390469
0.447007
0.515761
0.598026
0.693277
0.797475
0.902022
0.995477
1.06859
1.1187
1.14934
1.16648
1.1754
1.17984
1.18198
1.18298
1.18345
1.18366
1.18375
1.18379
1.18381
1.18382
1.18382
1.18382
1.18382
1.18382
1.18382
1.18382
1.18382
0.658526
0.6585
0.658457
0.658384
0.658263
0.658062
0.657732
0.657195
0.656333
0.654969
0.652849
0.649619
0.644818
0.637885
0.628213
0.615246
0.598633
0.578378
0.554925
0.529125
0.502064
0.474847
0.448401
0.423385
0.400177
0.378926
0.35962
0.342147
0.326345
0.312037
0.299048
0.287218
0.276403
0.266485
0.257361
0.248944
0.241119
0.233816
0.226983
0.220574
0.214552
0.208883
0.203541
0.198502
0.193748
0.189263
0.185034
0.181051
0.177307
0.173795
0.170512
0.167458
0.164635
0.16205
0.159712
0.15764
0.155876
0.154468
0.153389
0.152765
0.152711
0.156536
0.166418
0.178131
0.19194
0.208208
0.227408
0.250157
0.277251
0.309707
0.348799
0.396178
0.453948
0.524098
0.607776
0.704155
0.808735
0.912503
1.00404
1.07468
1.12252
1.15151
1.16761
1.17597
1.18011
1.1821
1.18304
1.18347
1.18367
1.18375
1.18379
1.18381
1.18382
1.18382
1.18382
1.18382
1.18382
1.18382
1.18382
1.18382
0.658526
0.6585
0.658457
0.658385
0.658264
0.658064
0.657735
0.657201
0.656343
0.654985
0.652874
0.649658
0.644876
0.63797
0.628331
0.615404
0.598834
0.578619
0.555199
0.529419
0.502365
0.475141
0.448678
0.423638
0.400402
0.379123
0.359789
0.342289
0.326462
0.312132
0.299122
0.287272
0.27644
0.266506
0.257368
0.248936
0.241098
0.233783
0.226939
0.22052
0.214487
0.208809
0.203459
0.198412
0.193652
0.189161
0.184927
0.180941
0.177194
0.17368
0.170398
0.167345
0.164525
0.161943
0.159611
0.157545
0.155789
0.154388
0.153315
0.152697
0.152645
0.157445
0.167478
0.179369
0.193391
0.209916
0.22943
0.252562
0.280127
0.313162
0.352971
0.401248
0.460113
0.531492
0.616399
0.713726
0.818568
0.921566
1.01136
1.07983
1.12573
1.15332
1.16856
1.17644
1.18034
1.18221
1.18309
1.18349
1.18368
1.18376
1.18379
1.18381
1.18382
1.18382
1.18382
1.18382
1.18382
1.18382
1.18382
1.18382
0.658526
0.658501
0.658458
0.658385
0.658265
0.658066
0.657738
0.657206
0.656351
0.654999
0.652895
0.64969
0.644925
0.63804
0.628429
0.615535
0.598999
0.578815
0.555421
0.529656
0.502606
0.475374
0.448896
0.423835
0.400576
0.379272
0.359914
0.342392
0.326546
0.312197
0.29917
0.287304
0.276458
0.266511
0.257361
0.248919
0.24107
0.233746
0.226892
0.220465
0.214425
0.20874
0.203383
0.198331
0.193565
0.18907
0.184833
0.180845
0.177097
0.173583
0.170302
0.167251
0.164434
0.161858
0.159531
0.157471
0.155722
0.154329
0.153262
0.15265
0.152603
0.158228
0.168399
0.180449
0.19466
0.211409
0.231194
0.254661
0.282638
0.316182
0.356619
0.405683
0.465506
0.537955
0.623919
0.722039
0.827049
0.929314
1.01756
1.08416
1.1284
1.15482
1.16935
1.17683
1.18052
1.1823
1.18313
1.18351
1.18369
1.18376
1.1838
1.18381
1.18382
1.18382
1.18382
1.18382
1.18382
1.18382
1.18382
1.18382
0.658526
0.658501
0.658458
0.658386
0.658266
0.658067
0.657741
0.65721
0.656358
0.65501
0.652913
0.649717
0.644965
0.638098
0.628509
0.615641
0.599132
0.578974
0.555598
0.529845
0.502796
0.475557
0.449065
0.423986
0.400708
0.379384
0.360007
0.342467
0.326604
0.31224
0.2992
0.287322
0.276465
0.266507
0.257348
0.248896
0.24104
0.233708
0.226847
0.220413
0.214368
0.208677
0.203315
0.198259
0.19349
0.188993
0.184754
0.180764
0.177016
0.173503
0.170224
0.167176
0.164364
0.161792
0.15947
0.157416
0.155676
0.154289
0.153229
0.152621
0.152578
0.158888
0.169183
0.181373
0.195747
0.21269
0.232712
0.256466
0.284798
0.318781
0.35976
0.409504
0.470151
0.543518
0.63038
0.729152
0.834264
0.935855
1.02274
1.08775
1.13061
1.15605
1.16999
1.17714
1.18067
1.18237
1.18316
1.18353
1.18369
1.18377
1.1838
1.18381
1.18382
1.18382
1.18382
1.18382
1.18382
1.18382
1.18382
1.18382
0.658526
0.658501
0.658458
0.658386
0.658266
0.658068
0.657743
0.657213
0.656364
0.655019
0.652927
0.649739
0.644997
0.638145
0.628574
0.615725
0.599238
0.579099
0.555739
0.529993
0.502944
0.475699
0.449195
0.424102
0.400807
0.379468
0.360075
0.34252
0.326644
0.312268
0.299217
0.28733
0.276463
0.266498
0.257331
0.248873
0.241011
0.233673
0.226807
0.220368
0.214318
0.208624
0.203259
0.1982
0.193429
0.18893
0.18469
0.1807
0.176953
0.173442
0.170165
0.167121
0.164312
0.161744
0.159428
0.15738
0.155647
0.154266
0.153212
0.152607
0.152568
0.159439
0.169842
0.182152
0.196665
0.213774
0.233994
0.257992
0.286624
0.320977
0.362414
0.412734
0.474077
0.548217
0.635828
0.735132
0.8403
0.94129
1.02702
1.09069
1.13241
1.15706
1.17051
1.1774
1.1808
1.18243
1.18319
1.18354
1.1837
1.18377
1.1838
1.18381
1.18382
1.18382
1.18382
1.18382
1.18382
1.18382
1.18382
1.18382
0.658526
0.658501
0.658458
0.658386
0.658267
0.658069
0.657744
0.657216
0.656368
0.655026
0.652938
0.649756
0.645023
0.638181
0.628624
0.615792
0.599321
0.579197
0.555847
0.530107
0.503058
0.475807
0.449294
0.424188
0.400881
0.379528
0.360123
0.342558
0.326671
0.312286
0.299227
0.287332
0.276459
0.266487
0.257315
0.248852
0.240985
0.233643
0.226774
0.220332
0.214278
0.208581
0.203214
0.198153
0.193381
0.188881
0.184642
0.180652
0.176906
0.173397
0.170123
0.167082
0.164277
0.161713
0.159402
0.157359
0.155632
0.154256
0.153205
0.152602
0.152566
0.15989
0.170385
0.182796
0.197424
0.21467
0.235054
0.259252
0.28813
0.322788
0.364603
0.415398
0.477314
0.552088
0.640307
0.740036
0.845229
0.945706
1.03048
1.09306
1.13385
1.15786
1.17093
1.17761
1.1809
1.18247
1.18321
1.18355
1.1837
1.18377
1.1838
1.18381
1.18382
1.18382
1.18382
1.18382
1.18382
1.18382
1.18382
1.18382
0.658526
0.658501
0.658458
0.658387
0.658267
0.65807
0.657746
0.657218
0.656371
0.655031
0.652947
0.649769
0.645042
0.638209
0.628663
0.615842
0.599383
0.579271
0.555929
0.530192
0.503143
0.475887
0.449366
0.424251
0.400934
0.379572
0.360157
0.342583
0.326689
0.312297
0.299232
0.287332
0.276454
0.266478
0.257302
0.248836
0.240966
0.233621
0.226749
0.220304
0.214249
0.20855
0.203181
0.19812
0.193347
0.188847
0.184609
0.180621
0.176876
0.173369
0.170097
0.167059
0.164258
0.161699
0.159392
0.157352
0.155627
0.15425
0.153192
0.152573
0.152506
0.160237
0.170812
0.183308
0.198032
0.215387
0.235903
0.260259
0.289332
0.324231
0.366345
0.417516
0.479885
0.555158
0.643854
0.743906
0.849105
0.949164
1.03318
1.0949
1.13497
1.15848
1.17125
1.17777
1.18097
1.18251
1.18323
1.18356
1.1837
1.18377
1.1838
1.18381
1.18382
1.18382
1.18382
1.18382
1.18382
1.18382
1.18382
1.18382
0.658526
0.658501
0.658458
0.658387
0.658268
0.658071
0.657746
0.65722
0.656374
0.655035
0.652953
0.649779
0.645057
0.63823
0.62869
0.615878
0.599428
0.579323
0.555987
0.530253
0.503203
0.475943
0.449417
0.424295
0.400971
0.379601
0.360181
0.3426
0.326701
0.312304
0.299235
0.287331
0.27645
0.266471
0.257293
0.248825
0.240953
0.233606
0.226732
0.220286
0.21423
0.20853
0.203161
0.198099
0.193326
0.188827
0.184589
0.180602
0.176859
0.173355
0.170086
0.167052
0.164254
0.161699
0.159396
0.15736
0.155638
0.154262
0.153203
0.15258
0.152505
0.160499
0.171138
0.183701
0.198497
0.215935
0.236548
0.261023
0.290242
0.325319
0.367655
0.419105
0.48181
0.557453
0.646497
0.746781
0.851971
0.95171
1.03516
1.09625
1.13579
1.15894
1.17149
1.17788
1.18103
1.18253
1.18324
1.18356
1.18371
1.18377
1.1838
1.18381
1.18382
1.18382
1.18382
1.18382
1.18382
1.18382
1.18382
1.18382
0.658526
0.658501
0.658458
0.658387
0.658268
0.658071
0.657747
0.657221
0.656376
0.655038
0.652957
0.649785
0.645066
0.638243
0.628708
0.615902
0.599457
0.579357
0.556024
0.530292
0.503241
0.475979
0.449449
0.424323
0.400994
0.37962
0.360195
0.342611
0.326708
0.312308
0.299236
0.28733
0.276448
0.266467
0.257288
0.248819
0.240946
0.233598
0.226724
0.220277
0.21422
0.20852
0.203151
0.198089
0.193317
0.188818
0.184581
0.180596
0.176855
0.173353
0.170087
0.167056
0.164262
0.16171
0.159411
0.157379
0.155659
0.154285
0.153225
0.152595
0.152507
0.160672
0.171362
0.183973
0.19882
0.216315
0.236994
0.261547
0.290861
0.326057
0.36854
0.420174
0.4831
0.558983
0.648253
0.748682
0.853855
0.953373
1.03645
1.09713
1.13633
1.15923
1.17164
1.17796
1.18107
1.18255
1.18324
1.18356
1.18371
1.18377
1.1838
1.18381
1.18382
1.18382
1.18382
1.18382
1.18382
1.18382
1.18382
1.18382
0.658526
0.658501
0.658458
0.658387
0.658268
0.658071
0.657747
0.657221
0.656376
0.655039
0.652959
0.649788
0.64507
0.638249
0.628717
0.615913
0.599471
0.579373
0.556042
0.53031
0.503259
0.475996
0.449464
0.424336
0.401005
0.379629
0.360202
0.342616
0.326711
0.31231
0.299237
0.28733
0.276447
0.266466
0.257286
0.248817
0.240944
0.233596
0.226721
0.220274
0.214217
0.208517
0.203148
0.198087
0.193315
0.188817
0.184581
0.180597
0.176857
0.173357
0.170093
0.167064
0.164273
0.161724
0.159428
0.157398
0.155681
0.154308
0.153246
0.152611
0.152509
0.160758
0.17148
0.18412
0.198994
0.216517
0.237228
0.26182
0.29118
0.326433
0.368986
0.420707
0.483736
0.559732
0.649104
0.749596
0.854754
0.954158
1.03705
1.09753
1.13657
1.15937
1.17172
1.178
1.18108
1.18256
1.18325
1.18357
1.18371
1.18377
1.1838
1.18381
1.18382
1.18382
1.18382
1.18382
1.18382
1.18382
1.18382
1.18382
0.658526
0.658501
0.658458
0.658387
0.658268
0.658071
0.657747
0.657221
0.656376
0.655039
0.652959
0.649788
0.64507
0.638249
0.628716
0.615913
0.599471
0.579373
0.556042
0.53031
0.503259
0.475996
0.449464
0.424336
0.401005
0.379628
0.360201
0.342616
0.326711
0.31231
0.299237
0.28733
0.276446
0.266466
0.257286
0.248817
0.240943
0.233596
0.226721
0.220274
0.214217
0.208517
0.203148
0.198087
0.193315
0.188817
0.184581
0.180597
0.176857
0.173357
0.170093
0.167064
0.164273
0.161724
0.159428
0.157398
0.155681
0.154308
0.153246
0.152611
0.152509
0.160758
0.17148
0.18412
0.198994
0.216517
0.237228
0.26182
0.29118
0.326433
0.368985
0.420707
0.483736
0.559731
0.649104
0.749595
0.854753
0.954158
1.03705
1.09753
1.13657
1.15937
1.17172
1.178
1.18108
1.18256
1.18325
1.18357
1.18371
1.18377
1.1838
1.18381
1.18382
1.18382
1.18382
1.18382
1.18382
1.18382
1.18382
1.18382
0.658526
0.658501
0.658458
0.658387
0.658268
0.658071
0.657747
0.657221
0.656376
0.655038
0.652957
0.649785
0.645066
0.638242
0.628708
0.615901
0.599457
0.579356
0.556024
0.530291
0.50324
0.475979
0.449448
0.424323
0.400993
0.379619
0.360194
0.34261
0.326708
0.312308
0.299236
0.28733
0.276447
0.266467
0.257288
0.248819
0.240946
0.233598
0.226724
0.220277
0.21422
0.20852
0.203151
0.198089
0.193317
0.188818
0.184581
0.180596
0.176855
0.173353
0.170087
0.167056
0.164262
0.16171
0.159411
0.157379
0.155659
0.154285
0.153225
0.152595
0.152507
0.160672
0.171362
0.183973
0.19882
0.216315
0.236993
0.261547
0.290861
0.326057
0.368539
0.420173
0.483099
0.558982
0.648251
0.74868
0.853854
0.953371
1.03645
1.09713
1.13633
1.15923
1.17164
1.17796
1.18107
1.18255
1.18324
1.18356
1.18371
1.18377
1.1838
1.18381
1.18382
1.18382
1.18382
1.18382
1.18382
1.18382
1.18382
1.18382
0.658526
0.658501
0.658458
0.658387
0.658268
0.65807
0.657746
0.65722
0.656374
0.655035
0.652953
0.649779
0.645056
0.638229
0.62869
0.615878
0.599428
0.579322
0.555986
0.530252
0.503201
0.475942
0.449416
0.424294
0.40097
0.3796
0.36018
0.3426
0.3267
0.312304
0.299234
0.28733
0.27645
0.266471
0.257293
0.248825
0.240952
0.233606
0.226732
0.220286
0.21423
0.20853
0.203161
0.198099
0.193326
0.188827
0.184589
0.180602
0.176859
0.173355
0.170086
0.167052
0.164254
0.161699
0.159396
0.15736
0.155638
0.154262
0.153203
0.15258
0.152505
0.160499
0.171138
0.183701
0.198497
0.215935
0.236548
0.261023
0.290241
0.325319
0.367654
0.419104
0.481809
0.557451
0.646495
0.746779
0.851969
0.951708
1.03516
1.09625
1.13579
1.15894
1.17149
1.17788
1.18103
1.18253
1.18324
1.18356
1.18371
1.18377
1.1838
1.18381
1.18382
1.18382
1.18382
1.18382
1.18382
1.18382
1.18382
1.18382
0.658526
0.658501
0.658458
0.658387
0.658267
0.65807
0.657746
0.657218
0.656371
0.655031
0.652947
0.649769
0.645042
0.638209
0.628662
0.615841
0.599382
0.579269
0.555927
0.530191
0.503141
0.475885
0.449365
0.42425
0.400932
0.37957
0.360156
0.342582
0.326688
0.312296
0.299231
0.287331
0.276453
0.266477
0.257302
0.248836
0.240965
0.233621
0.226748
0.220304
0.214248
0.20855
0.203181
0.19812
0.193347
0.188847
0.184608
0.18062
0.176876
0.173369
0.170097
0.167059
0.164258
0.161699
0.159392
0.157352
0.155627
0.15425
0.153192
0.152574
0.152506
0.160237
0.170812
0.183309
0.198032
0.215387
0.235903
0.260259
0.289332
0.324231
0.366344
0.417515
0.479883
0.555156
0.643851
0.743904
0.849102
0.949162
1.03318
1.0949
1.13497
1.15848
1.17125
1.17777
1.18097
1.18251
1.18323
1.18356
1.1837
1.18377
1.1838
1.18381
1.18382
1.18382
1.18382
1.18382
1.18382
1.18382
1.18382
1.18382
0.658526
0.658501
0.658458
0.658386
0.658267
0.658069
0.657744
0.657216
0.656368
0.655026
0.652938
0.649756
0.645022
0.638181
0.628623
0.615791
0.599319
0.579195
0.555845
0.530105
0.503056
0.475805
0.449292
0.424186
0.400879
0.379527
0.360122
0.342556
0.32667
0.312285
0.299226
0.287331
0.276458
0.266487
0.257315
0.248852
0.240985
0.233643
0.226773
0.220331
0.214278
0.208581
0.203214
0.198153
0.193381
0.188881
0.184641
0.180652
0.176906
0.173397
0.170123
0.167082
0.164277
0.161713
0.159402
0.157359
0.155632
0.154256
0.153205
0.152602
0.152566
0.159892
0.170386
0.182797
0.197425
0.21467
0.235054
0.259252
0.28813
0.322788
0.364602
0.415397
0.477312
0.552086
0.640305
0.740033
0.845226
0.945704
1.03048
1.09306
1.13385
1.15786
1.17093
1.17761
1.1809
1.18247
1.18321
1.18355
1.1837
1.18377
1.1838
1.18381
1.18382
1.18382
1.18382
1.18382
1.18382
1.18382
1.18382
1.18382
0.658526
0.658501
0.658458
0.658386
0.658266
0.658068
0.657743
0.657213
0.656363
0.655019
0.652927
0.649739
0.644997
0.638144
0.628573
0.615724
0.599236
0.579097
0.555736
0.52999
0.502942
0.475697
0.449193
0.4241
0.400805
0.379466
0.360073
0.342519
0.326643
0.312267
0.299216
0.287328
0.276462
0.266497
0.25733
0.248872
0.24101
0.233672
0.226807
0.220368
0.214318
0.208624
0.203258
0.1982
0.193428
0.188929
0.18469
0.1807
0.176952
0.173442
0.170165
0.167121
0.164312
0.161744
0.159428
0.15738
0.155647
0.154267
0.153212
0.152608
0.152568
0.159439
0.169842
0.182152
0.196665
0.213774
0.233994
0.257992
0.286624
0.320977
0.362414
0.412734
0.474076
0.548216
0.635826
0.735131
0.840298
0.941289
1.02702
1.0907
1.13241
1.15706
1.17051
1.1774
1.1808
1.18243
1.18319
1.18354
1.1837
1.18377
1.1838
1.18381
1.18382
1.18382
1.18382
1.18382
1.18382
1.18382
1.18382
1.18382
0.658526
0.658501
0.658458
0.658386
0.658266
0.658067
0.657741
0.65721
0.656358
0.65501
0.652912
0.649717
0.644964
0.638097
0.628508
0.615639
0.59913
0.578971
0.555596
0.529842
0.502793
0.475554
0.449062
0.423984
0.400705
0.379382
0.360005
0.342465
0.326602
0.312238
0.299198
0.28732
0.276463
0.266506
0.257347
0.248895
0.241039
0.233707
0.226847
0.220413
0.214367
0.208677
0.203315
0.198259
0.19349
0.188992
0.184754
0.180764
0.177016
0.173503
0.170224
0.167176
0.164364
0.161791
0.15947
0.157416
0.155676
0.154289
0.153229
0.152621
0.152578
0.158889
0.169184
0.181374
0.195747
0.212691
0.232712
0.256467
0.284799
0.318782
0.35976
0.409504
0.470151
0.543518
0.630379
0.729152
0.834264
0.935854
1.02274
1.08775
1.13061
1.15605
1.16999
1.17714
1.18067
1.18237
1.18316
1.18353
1.18369
1.18377
1.1838
1.18381
1.18382
1.18382
1.18382
1.18382
1.18382
1.18382
1.18382
1.18382
0.658526
0.658501
0.658458
0.658385
0.658265
0.658066
0.657738
0.657206
0.656351
0.654998
0.652895
0.64969
0.644924
0.638039
0.628428
0.615533
0.598996
0.578813
0.555418
0.529653
0.502602
0.47537
0.448892
0.423831
0.400573
0.37927
0.359912
0.34239
0.326544
0.312195
0.299168
0.287303
0.276457
0.26651
0.25736
0.248918
0.241069
0.233745
0.226892
0.220464
0.214424
0.208739
0.203382
0.19833
0.193565
0.18907
0.184833
0.180845
0.177096
0.173583
0.170301
0.167251
0.164434
0.161858
0.159531
0.157471
0.155722
0.154329
0.153262
0.15265
0.152603
0.158229
0.1684
0.18045
0.194661
0.21141
0.231196
0.254662
0.282639
0.316183
0.35662
0.405684
0.465507
0.537956
0.62392
0.722039
0.82705
0.929315
1.01756
1.08416
1.1284
1.15482
1.16935
1.17683
1.18052
1.1823
1.18313
1.18351
1.18369
1.18376
1.1838
1.18381
1.18382
1.18382
1.18382
1.18382
1.18382
1.18382
1.18382
1.18382
0.658526
0.6585
0.658457
0.658385
0.658264
0.658064
0.657735
0.657201
0.656343
0.654985
0.652874
0.649657
0.644875
0.637969
0.62833
0.615402
0.598832
0.578616
0.555195
0.529415
0.502361
0.475137
0.448674
0.423634
0.400399
0.37912
0.359786
0.342286
0.32646
0.31213
0.29912
0.28727
0.276439
0.266504
0.257366
0.248935
0.241097
0.233782
0.226938
0.220519
0.214487
0.208809
0.203458
0.198412
0.193651
0.18916
0.184927
0.18094
0.177193
0.17368
0.170397
0.167345
0.164525
0.161943
0.159611
0.157545
0.155789
0.154388
0.153315
0.152697
0.152645
0.157446
0.16748
0.17937
0.193393
0.209918
0.229431
0.252564
0.280129
0.313165
0.352973
0.40125
0.460115
0.531494
0.616401
0.713729
0.81857
0.921568
1.01136
1.07984
1.12573
1.15332
1.16856
1.17644
1.18034
1.18221
1.18309
1.18349
1.18368
1.18376
1.18379
1.18381
1.18382
1.18382
1.18382
1.18382
1.18382
1.18382
1.18382
1.18382
0.658526
0.6585
0.658457
0.658384
0.658263
0.658062
0.657731
0.657195
0.656333
0.654969
0.652849
0.649619
0.644817
0.637884
0.628211
0.615244
0.598631
0.578375
0.554921
0.529121
0.50206
0.474842
0.448397
0.423381
0.400173
0.378923
0.359617
0.342144
0.326343
0.312035
0.299046
0.287216
0.276401
0.266483
0.25736
0.248942
0.241118
0.233815
0.226982
0.220573
0.214551
0.208882
0.20354
0.198501
0.193747
0.189262
0.185033
0.181051
0.177306
0.173794
0.170512
0.167458
0.164635
0.16205
0.159712
0.157639
0.155875
0.154468
0.153388
0.152765
0.152711
0.156538
0.16642
0.178132
0.191942
0.20821
0.227409
0.250159
0.277253
0.309708
0.348801
0.396181
0.453951
0.524101
0.60778
0.704158
0.808739
0.912506
1.00404
1.07468
1.12252
1.15151
1.16761
1.17597
1.18011
1.18211
1.18304
1.18347
1.18367
1.18375
1.18379
1.18381
1.18382
1.18382
1.18382
1.18382
1.18382
1.18382
1.18382
1.18382
0.658526
0.6585
0.658456
0.658383
0.658261
0.658059
0.657727
0.657188
0.656322
0.654951
0.652819
0.649573
0.644748
0.637784
0.62807
0.615055
0.598389
0.578083
0.554588
0.52876
0.501688
0.474476
0.448048
0.423059
0.399884
0.378667
0.359394
0.341953
0.326181
0.311901
0.298938
0.28713
0.276337
0.266439
0.257334
0.248933
0.241124
0.233837
0.227018
0.220623
0.214613
0.208956
0.203624
0.198595
0.19385
0.189373
0.185151
0.181173
0.177433
0.173924
0.170642
0.167588
0.164764
0.162175
0.159833
0.157754
0.155982
0.154568
0.153484
0.152858
0.152806
0.155513
0.165233
0.176749
0.19032
0.206296
0.225141
0.247456
0.274016
0.305813
0.344098
0.390472
0.44701
0.515765
0.59803
0.693282
0.79748
0.902026
0.995481
1.06859
1.1187
1.14934
1.16648
1.1754
1.17984
1.18198
1.18298
1.18345
1.18366
1.18375
1.18379
1.18381
1.18382
1.18382
1.18382
1.18382
1.18382
1.18382
1.18382
1.18382
0.658526
0.6585
0.658456
0.658383
0.65826
0.658057
0.657723
0.65718
0.656309
0.65493
0.652786
0.649521
0.644669
0.637667
0.627905
0.614831
0.598103
0.577734
0.554186
0.528322
0.501234
0.474024
0.447615
0.422656
0.399516
0.378338
0.359105
0.341701
0.325964
0.311717
0.298783
0.287004
0.276237
0.266363
0.25728
0.248901
0.241111
0.233841
0.227039
0.220661
0.214666
0.209024
0.203706
0.198689
0.193955
0.189488
0.185275
0.181305
0.177571
0.174066
0.170787
0.167733
0.164907
0.162314
0.159966
0.15788
0.156096
0.154671
0.15358
0.152956
0.152925
0.154448
0.16398
0.175267
0.188561
0.204205
0.222647
0.244472
0.270431
0.301492
0.338873
0.384127
0.439298
0.506488
0.587145
0.681069
0.784733
0.890024
0.985551
1.06145
1.11418
1.14677
1.16512
1.17473
1.17952
1.18183
1.18292
1.18342
1.18364
1.18374
1.18379
1.18381
1.18382
1.18382
1.18382
1.18382
1.18382
1.18382
1.18382
1.18382
0.658526
0.6585
0.658456
0.658382
0.658258
0.658054
0.657718
0.657172
0.656295
0.654907
0.652749
0.649462
0.644579
0.637534
0.627715
0.614573
0.597768
0.577323
0.553709
0.527797
0.500685
0.473474
0.447082
0.422154
0.399055
0.377921
0.358732
0.341372
0.325677
0.311468
0.29857
0.286824
0.276088
0.266243
0.257188
0.248833
0.241067
0.23382
0.227038
0.22068
0.214704
0.20908
0.203778
0.198778
0.194058
0.189604
0.185403
0.181442
0.177716
0.174216
0.170941
0.167888
0.165059
0.16246
0.160102
0.158
0.156187
0.154732
0.1536
0.152921
0.152817
0.153494
0.162765
0.173761
0.186723
0.201979
0.21996
0.241231
0.266519
0.296761
0.333143
0.377164
0.43082
0.49627
0.57512
0.667504
0.770446
0.876408
0.974132
1.05312
1.10887
1.14372
1.16351
1.17393
1.17914
1.18165
1.18284
1.18338
1.18363
1.18374
1.18379
1.18381
1.18382
1.18382
1.18382
1.18382
1.18382
1.18382
1.18382
1.18382
0.658526
0.6585
0.658455
0.658381
0.658257
0.658051
0.657713
0.657163
0.65628
0.654882
0.652708
0.649398
0.644479
0.637384
0.6275
0.614277
0.597381
0.576844
0.553149
0.527175
0.500028
0.472809
0.446433
0.421538
0.398482
0.377397
0.358259
0.340949
0.325302
0.311139
0.298284
0.286577
0.275878
0.266067
0.257045
0.24872
0.240983
0.233762
0.227007
0.220672
0.214719
0.209116
0.203835
0.198854
0.194152
0.189715
0.185527
0.18158
0.177864
0.174372
0.171102
0.16805
0.165219
0.162613
0.160241
0.158116
0.156261
0.154753
0.15354
0.152728
0.152405
0.152709
0.16165
0.172285
0.184847
0.19965
0.217107
0.237759
0.262305
0.291648
0.326936
0.369619
0.421631
0.485173
0.562011
0.652622
0.754617
0.861123