/*--------------------------------*- C++ -*----------------------------------*\
  =========                 |
  \\      /  F ield         | OpenFOAM: The Open Source CFD Toolbox
   \\    /   O peration     | Website:  https://openfoam.org
    \\  /    A nd           | Version:  8
     \\/     M anipulation  |
\*---------------------------------------------------------------------------*/
FoamFile
{
    version     2.0;
    format      ascii;
    class       volScalarField;
    location    "640/fluid";
    object      T;
}
// * * * * * * * * * * * * * * * * * * * * * * * * * * * * * * * * * * * * * //

dimensions      [0 0 0 1 0 0 0];

internalField   nonuniform List<scalar> 
4000
(
293.004
293.017
293.039
293.076
293.137
293.239
293.407
293.682
294.126
294.836
295.954
297.687
300.32
304.232
309.889
317.826
328.593
342.68
360.432
381.991
407.282
436.049
467.924
502.5
539.391
578.261
618.839
660.917
704.336
748.975
794.733
841.521
889.245
937.802
987.07
1036.98
1087.55
1138.71
1190.34
1242.36
1294.65
1347.1
1399.6
1452.03
1504.28
1556.21
1607.69
1658.58
1708.74
1758.01
1806.21
1853.15
1898.6
1942.31
1983.97
2023.2
2059.51
2091.86
2119.61
2142.84
2159.39
2167.41
2159.74
2049.72
1932.61
1810.57
1685.37
1558.5
1431.25
1304.81
1180.26
1058.72
941.326
828.987
722.95
625.24
538.191
464.104
404.797
360.903
331.285
313.148
302.994
297.752
295.194
293.99
293.439
293.191
293.082
293.035
293.015
293.006
293.003
293.001
293
293
293
293
293
293
293.004
293.017
293.039
293.076
293.138
293.241
293.41
293.686
294.133
294.846
295.967
297.698
300.321
304.204
309.803
317.637
328.245
342.112
359.587
380.83
405.79
434.236
465.821
500.153
536.85
575.577
616.062
658.088
701.495
746.153
791.962
838.825
886.649
935.328
984.74
1034.8
1085.54
1136.88
1188.71
1240.92
1293.42
1346.09
1398.81
1451.46
1503.93
1556.08
1607.78
1658.89
1709.26
1758.72
1807.11
1854.23
1899.85
1943.72
1985.52
2024.88
2061.32
2093.75
2121.58
2144.89
2161.51
2169.55
2150.83
2039.59
1921.42
1798.42
1672.32
1544.6
1416.57
1289.4
1164.23
1042.21
924.529
812.122
706.437
609.678
524.271
452.502
395.979
354.92
327.711
311.268
302.115
297.371
295.038
293.929
293.416
293.183
293.079
293.034
293.014
293.006
293.003
293.001
293
293
293
293
293
293
293.004
293.017
293.039
293.076
293.139
293.242
293.412
293.69
294.138
294.853
295.975
297.706
300.322
304.185
309.742
317.503
327.995
341.694
358.95
379.928
404.591
432.724
464.001
498.043
534.48
572.984
613.286
655.171
698.475
743.071
788.855
835.732
883.606
932.371
981.904
1032.11
1083.03
1134.57
1186.62
1239.09
1291.86
1344.81
1397.83
1450.8
1503.6
1556.07
1608.1
1659.54
1710.22
1760
1808.69
1856.09
1901.99
1946.11
1988.14
2027.7
2064.3
2096.84
2124.73
2148.04
2164.54
2172.38
2134.54
2022.21
1902.92
1778.82
1651.71
1523.12
1394.36
1266.69
1141.29
1019.36
902.136
790.606
686.423
591.883
509.35
440.894
387.743
349.658
324.69
309.695
301.36
297.026
294.887
293.865
293.389
293.172
293.075
293.032
293.014
293.006
293.002
293.001
293
293
293
293
293
293
293.004
293.017
293.039
293.077
293.139
293.242
293.412
293.689
294.137
294.849
295.964
297.682
300.275
304.101
309.598
317.271
327.641
341.182
358.244
378.999
403.421
431.309
462.344
496.159
532.389
570.71
610.853
652.608
695.811
740.336
786.08
832.95
880.851
929.679
979.311
1029.65
1080.72
1132.45
1184.73
1237.44
1290.49
1343.74
1397.09
1450.41
1503.55
1556.39
1608.79
1660.59
1711.64
1761.77
1810.8
1858.53
1904.73
1949.12
1991.39
2031.14
2067.88
2100.42
2128.22
2151.39
2167.7
2175.21
2114.14
2000.94
1880.68
1755.64
1627.69
1498.42
1369.23
1241.4
1116.18
994.829
878.543
768.382
666.153
574.163
494.671
429.53
379.641
344.398
321.587
308.02
300.521
296.629
294.706
293.784
293.354
293.157
293.069
293.03
293.013
293.005
293.002
293.001
293
293
293
293
293
293
293.004
293.017
293.039
293.076
293.138
293.241
293.411
293.687
294.132
294.84
295.949
297.655
300.228
304.021
309.468
317.067
327.335
340.743
357.644
378.214
402.436
430.12
460.956
494.584
530.644
568.814
608.829
650.477
693.597
738.064
783.777
830.643
878.57
927.456
977.179
1027.63
1078.86
1130.76
1183.25
1236.21
1289.52
1343.08
1396.75
1450.39
1503.88
1557.08
1609.84
1662.01
1713.42
1763.9
1813.27
1861.3
1907.77
1952.4
1994.87
2034.76
2071.53
2103.89
2131.59
2154.6
2170.5
2177.13
2092.5
1978.73
1857.65
1731.76
1603.08
1473.3
1343.87
1216.12
1091.34
970.818
855.687
747.103
647.007
557.662
481.206
419.274
372.451
339.803
318.91
306.583
299.802
296.286
294.548
293.714
293.323
293.144
293.063
293.027
293.012
293.005
293.002
293.001
293
293
293
293
293
293
293.004
293.017
293.039
293.076
293.138
293.24
293.409
293.683
294.126
294.829
295.929
297.621
300.171
303.93
309.327
316.857
327.034
340.327
357.093
377.513
401.577
429.101
459.784
493.27
529.201
567.26
607.18
648.753
691.817
736.248
781.945
828.821
876.783
925.731
975.544
1026.12
1077.48
1129.56
1182.25
1235.43
1289.01
1342.84
1396.79
1450.75
1504.56
1558.1
1611.2
1663.71
1715.45
1766.25
1815.91
1864.21
1910.9
1955.69
1998.25
2038.16
2074.89
2107.03
2134.57
2157.24
2172.73
2178.74
2074.35
1959.06
1836.51
1709.41
1579.83
1449.49
1319.86
1192.28
1068.04
948.435
834.512
727.541
629.54
542.722
469.104
410.112
366.053
335.712
316.512
305.282
299.14
295.966
294.398
293.645
293.292
293.13
293.057
293.025
293.011
293.004
293.002
293.001
293
293
293
293
293
293
293.004
293.017
293.039
293.076
293.137
293.239
293.406
293.679
294.118
294.816
295.908
297.587
300.117
303.845
309.199
316.669
326.766
339.963
356.616
376.912
400.847
428.245
458.808
492.185
528.021
565.999
605.854
647.377
690.408
734.824
780.525
827.424
875.431
924.447
974.353
1025.04
1076.54
1128.78
1181.66
1235.07
1288.87
1342.95
1397.17
1451.42
1505.53
1559.37
1612.78
1665.59
1717.62
1768.69
1818.6
1867.1
1913.94
1958.81
2001.36
2041.13
2077.58
2109.01
2136.58
2158.19
2172.38
2176.87
2064.5
1944.31
1818.66
1689.56
1558.74
1427.73
1297.88
1170.49
1046.8
928.089
815.339
709.921
613.898
529.428
458.414
402.089
360.501
332.193
314.463
304.175
298.576
295.693
294.27
293.587
293.266
293.119
293.052
293.023
293.01
293.004
293.002
293.001
293
293
293
293
293
293
293.004
293.017
293.039
293.075
293.136
293.237
293.404
293.675
294.111
294.804
295.888
297.554
300.066
303.766
309.08
316.498
326.528
339.643
356.203
376.399
400.232
427.53
458.002
491.298
527.066
564.989
604.802
646.297
689.315
733.732
779.451
826.384
874.445
923.534
973.534
1024.33
1075.97
1128.37
1181.43
1235.02
1289.03
1343.34
1397.81
1452.31
1506.69
1560.8
1614.48
1667.55
1719.84
1771.14
1821.24
1869.9
1916.85
1961.75
2004.23
2043.79
2079.7
2110.46
2136.92
2156.65
2167.7
2166.87
2051.42
1928.77
1801.28
1670.89
1539.25
1407.82
1277.91
1150.78
1027.68
909.834
798.19
694.226
600.038
517.721
449.063
395.12
355.71
329.171
312.707
303.224
298.09
295.456
294.158
293.535
293.243
293.108
293.048
293.021
293.009
293.004
293.002
293.001
293
293
293
293
293
293
293.004
293.017
293.038
293.075
293.135
293.236
293.401
293.671
294.104
294.792
295.869
297.524
300.019
303.695
308.976
316.348
326.322
339.369
355.852
375.967
399.719
426.94
457.343
490.58
526.3
564.187
603.976
645.46
688.478
732.909
778.656
825.633
873.752
922.916
973.009
1023.92
1075.68
1128.23
1181.44
1235.21
1289.41
1343.93
1398.62
1453.35
1507.96
1562.31
1616.22
1669.52
1722.01
1773.51
1823.78
1872.58
1919.61
1964.55
2006.99
2046.43
2081.95
2112.32
2138.23
2157.17
2167.16
2154.47
2037.15
1913.07
1784.51
1653.38
1521.31
1389.71
1259.9
1133.13
1010.63
893.6
782.982
680.367
587.853
507.483
440.94
389.111
351.612
326.603
311.222
302.422
297.681
295.257
294.064
293.491
293.223
293.1
293.044
293.019
293.008
293.003
293.001
293.001
293
293
293
293
293
293
293.004
293.017
293.038
293.074
293.135
293.235
293.399
293.667
294.098
294.782
295.852
297.498
299.978
303.633
308.885
316.22
326.146
339.137
355.558
375.608
399.296
426.458
456.81
490.004
525.693
563.558
603.337
644.82
687.85
732.303
778.084
825.108
873.288
922.527
972.711
1023.73
1075.61
1128.28
1181.64
1235.57
1289.94
1344.64
1399.53
1454.45
1509.27
1563.81
1617.92
1671.41
1724.09
1775.75
1826.17
1875.08
1922.2
1967.18
2009.63
2049.03
2084.44
2114.68
2140.49
2159.46
2169.73
2140.59
2022.52
1897.78
1768.72
1637.25
1505.01
1373.43
1243.84
1117.46
995.571
879.309
769.665
668.279
577.265
498.62
433.939
383.964
348.123
324.43
309.97
301.747
297.336
295.088
293.984
293.454
293.206
293.092
293.041
293.018
293.008
293.003
293.001
293.001
293
293
293
293
293
293
293.004
293.017
293.038
293.074
293.134
293.234
293.397
293.663
294.092
294.773
295.837
297.474
299.942
303.58
308.808
316.111
325.998
338.943
355.314
375.312
398.95
426.068
456.382
489.547
525.215
563.07
602.847
644.339
687.386
731.866
777.685
824.757
872.997
922.309
972.577
1023.69
1075.67
1128.46
1181.95
1236.03
1290.55
1345.41
1400.46
1455.56
1510.55
1565.26
1619.54
1673.19
1726.02
1777.81
1828.34
1877.34
1924.53
1969.56
2012.02
2051.41
2086.73
2116.9
2142.68
2161.61
2171.89
2127.38
2008.84
1883.72
1754.38
1622.75
1490.48
1359.01
1229.66
1103.7
982.39
866.843
758.058
657.773
568.096
490.983
427.943
379.581
345.171
322.601
308.92
301.182
297.048
294.948
293.917
293.423
293.192
293.086
293.038
293.016
293.007
293.003
293.001
293.001
293
293
293
293
293
293
293.004
293.016
293.038
293.074
293.133
293.232
293.395
293.66
294.087
294.765
295.825
297.455
299.912
303.535
308.743
316.02
325.875
338.783
355.114
375.072
398.671
425.755
456.042
489.188
524.845
562.696
602.478
643.982
687.05
731.56
777.417
824.537
872.834
922.213
972.555
1023.75
1075.83
1128.73
1182.34
1236.53
1291.19
1346.19
1401.38
1456.62
1511.75
1566.61
1621.02
1674.8
1727.75
1779.64
1830.26
1879.33
1926.56
1971.61
2014.06
2053.4
2088.64
2118.75
2144.45
2163.3
2173.51
2115.77
1996.75
1871.29
1741.73
1610
1477.75
1346.42
1217.34
1091.78
970.999
856.067
748.039
648.727
560.226
484.453
422.839
375.872
342.687
321.069
308.045
300.712
296.808
294.831
293.861
293.398
293.18
293.081
293.036
293.015
293.007
293.003
293.001
293
293
293
293
293
293
293
293.004
293.016
293.038
293.073
293.133
293.232
293.394
293.658
294.083
294.758
295.814
297.438
299.887
303.498
308.689
315.944
325.774
338.653
354.952
374.878
398.448
425.508
455.775
488.909
524.56
562.413
602.203
643.723
686.813
731.352
777.246
824.41
872.759
922.198
972.609
1023.88
1076.05
1129.04
1182.74
1237.04
1291.82
1346.93
1402.23
1457.59
1512.84
1567.82
1622.34
1676.22
1729.26
1781.24
1831.91
1881.03
1928.28
1973.32
2015.73
2055.03
2090.2
2120.22
2145.82
2164.58
2174.7
2105.87
1986.36
1860.58
1730.83
1599.03
1466.83
1335.64
1206.8
1081.58
961.253
846.856
739.489
641.021
553.538
478.921
418.534
372.758
340.612
319.795
307.318
300.323
296.61
294.734
293.815
293.376
293.171
293.076
293.034
293.015
293.006
293.003
293.001
293
293
293
293
293
293
293
293.004
293.016
293.038
293.073
293.133
293.231
293.393
293.656
294.079
294.752
295.805
297.424
299.866
303.467
308.645
315.883
325.692
338.548
354.822
374.724
398.272
425.313
455.568
488.694
524.344
562.201
602.002
643.537
686.649
731.216
777.143
824.347
872.743
922.234
972.704
1024.04
1076.28
1129.35
1183.14
1237.53
1292.39
1347.6
1403
1458.46
1513.81
1568.87
1623.48
1677.44
1730.54
1782.57
1833.29
1882.42
1929.67
1974.69
2017.08
2056.33
2091.39
2121.32
2146.84
2165.53
2175.54
2097.61
1977.61
1851.52
1721.6
1589.75
1457.57
1326.5
1197.87
1072.95
953.016
839.079
732.28
634.533
547.918
474.286
414.939
370.169
338.893
318.745
306.721
300.004
296.447
294.654
293.777
293.359
293.163
293.073
293.032
293.014
293.006
293.003
293.001
293
293
293
293
293
293
293
293.004
293.016
293.037
293.073
293.132
293.23
293.392
293.654
294.077
294.748
295.798
297.413
299.849
303.442
308.61
315.835
325.627
338.465
354.72
374.603
398.135
425.163
455.409
488.531
524.182
562.045
601.856
643.407
686.538
731.13
777.087
824.325
872.761
922.297
972.818
1024.21
1076.51
1129.65
1183.5
1237.96
1292.9
1348.19
1403.67
1459.2
1514.62
1569.75
1624.42
1678.44
1731.59
1783.65
1834.38
1883.51
1930.76
1975.76
2018.11
2057.3
2092.26
2122.1
2147.54
2166.17
2176.09
2090.77
1970.32
1843.95
1713.88
1581.97
1449.83
1318.87
1190.43
1065.77
946.162
832.613
726.293
629.153
543.267
470.459
411.979
368.044
337.489
317.889
306.236
299.745
296.316
294.59
293.747
293.344
293.156
293.07
293.031
293.013
293.006
293.002
293.001
293
293
293
293
293
293
293
293.004
293.016
293.037
293.073
293.132
293.23
293.391
293.653
294.074
294.744
295.792
297.405
299.836
303.423
308.582
315.796
325.577
338.4
354.641
374.51
398.03
425.049
455.29
488.41
524.063
561.931
601.752
643.316
686.465
731.078
777.059
824.327
872.795
922.368
972.929
1024.37
1076.71
1129.9
1183.81
1238.33
1293.33
1348.67
1404.21
1459.8
1515.27
1570.46
1625.17
1679.22
1732.39
1784.47
1835.21
1884.34
1931.57
1976.53
2018.83
2057.96
2092.85
2122.63
2148.01
2166.6
2176.44
2085.19
1964.34
1837.73
1707.54
1575.59
1443.49
1312.63
1184.35
1059.91
940.583
827.355
721.431
624.79
539.501
467.365
409.593
366.336
336.363
317.204
305.849
299.538
296.211
294.539
293.722
293.333
293.151
293.067
293.03
293.013
293.006
293.002
293.001
293
293
293
293
293
293
293
293.004
293.016
293.037
293.073
293.132
293.229
293.39
293.652
294.073
294.742
295.788
297.398
299.826
303.408
308.561
315.768
325.539
338.352
354.582
374.441
397.952
424.965
455.202
488.322
523.977
561.851
601.68
643.255
686.418
731.048
777.049
824.339
872.832
922.433
973.024
1024.49
1076.88
1130.1
1184.06
1238.62
1293.66
1349.04
1404.62
1460.25
1515.76
1570.98
1625.71
1679.78
1732.97
1785.05
1835.79
1884.91
1932.1
1977.03
2019.28
2058.37
2093.23
2123.02
2148.48
2167.3
2177.55
2080.93
1959.66
1832.81
1702.49
1570.52
1438.45
1307.69
1179.54
1055.29
936.189
823.22
717.615
621.371
536.556
464.952
407.736
365.009
335.489
316.673
305.549
299.378
296.129
294.499
293.704
293.324
293.147
293.066
293.029
293.013
293.005
293.002
293.001
293
293
293
293
293
293
293
293.004
293.016
293.037
293.073
293.132
293.229
293.39
293.651
294.071
294.74
295.785
297.393
299.819
303.397
308.546
315.747
325.511
338.317
354.539
374.391
397.897
424.906
455.14
488.26
523.918
561.796
601.632
643.215
686.388
731.03
777.046
824.352
872.863
922.484
973.096
1024.59
1077
1130.25
1184.23
1238.82
1293.88
1349.3
1404.9
1460.56
1516.09
1571.32
1626.08
1680.15
1733.34
1785.42
1836.13
1885.22
1932.38
1977.26
2019.47
2058.51
2093.32
2123.08
2148.55
2167.42
2177.76
2077.71
1956.1
1829.05
1698.65
1566.67
1434.64
1303.96
1175.93
1051.83
932.91
820.144
714.783
618.841
534.382
463.176
406.373
364.039
334.851
316.286
305.329
299.261
296.07
294.47
293.69
293.318
293.144
293.064
293.028
293.012
293.005
293.002
293.001
293
293
293
293
293
293
293
293.004
293.016
293.037
293.073
293.131
293.229
293.389
293.65
294.071
294.738
295.783
297.39
299.814
303.39
308.536
315.733
325.493
338.295
354.512
374.36
397.862
424.868
455.101
488.222
523.881
561.762
601.602
643.191
686.371
731.021
777.046
824.362
872.884
922.517
973.141
1024.65
1077.07
1130.34
1184.33
1238.94
1294.02
1349.45
1405.07
1460.74
1516.28
1571.52
1626.28
1680.35
1733.53
1785.59
1836.28
1885.33
1932.45
1977.28
2019.43
2058.42
2093.18
2122.91
2148.4
2167.35
2177.86
2075.59
1953.66
1826.45
1695.98
1564
1432.02
1301.41
1173.48
1049.5
930.708
818.088
712.899
617.164
532.947
462.009
405.482
363.407
334.438
316.035
305.186
299.185
296.031
294.451
293.681
293.314
293.142
293.063
293.028
293.012
293.005
293.002
293.001
293
293
293
293
293
293
293
293.004
293.016
293.037
293.073
293.131
293.229
293.389
293.65
294.07
294.738
295.782
297.388
299.812
303.387
308.531
315.727
325.485
338.284
354.499
374.345
397.845
424.85
455.083
488.203
523.863
561.746
601.588
643.18
686.363
731.017
777.046
824.367
872.895
922.533
973.163
1024.67
1077.1
1130.37
1184.37
1238.98
1294.08
1349.51
1405.14
1460.81
1516.35
1571.59
1626.34
1680.41
1733.58
1785.62
1836.29
1885.31
1932.39
1977.19
2019.3
2058.24
2092.96
2122.68
2148.17
2167.2
2177.89
2074.54
1952.36
1825.04
1694.55
1562.58
1430.64
1300.09
1172.22
1048.31
929.603
817.066
711.972
616.347
532.254
461.45
405.059
363.11
334.245
315.918
305.12
299.149
296.013
294.442
293.676
293.312
293.141
293.063
293.028
293.012
293.005
293.002
293.001
293
293
293
293
293
293
293
293.004
293.016
293.037
293.073
293.131
293.229
293.389
293.65
294.07
294.738
295.782
297.388
299.812
303.387
308.531
315.727
325.485
338.284
354.5
374.345
397.846
424.851
455.083
488.204
523.864
561.747
601.589
643.181
686.364
731.017
777.046
824.367
872.895
922.533
973.163
1024.67
1077.1
1130.37
1184.37
1238.99
1294.08
1349.51
1405.14
1460.81
1516.35
1571.59
1626.34
1680.41
1733.58
1785.62
1836.29
1885.31
1932.39
1977.19
2019.3
2058.24
2092.96
2122.67
2148.17
2167.2
2177.89
2074.54
1952.36
1825.04
1694.55
1562.58
1430.64
1300.09
1172.23
1048.31
929.603
817.067
711.973
616.348
532.255
461.45
405.059
363.11
334.245
315.919
305.12
299.149
296.013
294.442
293.676
293.312
293.141
293.063
293.028
293.012
293.005
293.002
293.001
293
293
293
293
293
293
293
293.004
293.016
293.037
293.073
293.131
293.229
293.389
293.65
294.071
294.738
295.783
297.39
299.814
303.39
308.536
315.734
325.494
338.295
354.513
374.361
397.863
424.869
455.102
488.223
523.882
561.763
601.603
643.193
686.372
731.022
777.047
824.363
872.886
922.518
973.143
1024.65
1077.07
1130.34
1184.33
1238.94
1294.02
1349.45
1405.07
1460.74
1516.28
1571.52
1626.28
1680.35
1733.53
1785.59
1836.28
1885.33
1932.45
1977.28
2019.43
2058.42
2093.18
2122.91
2148.4
2167.35
2177.85
2075.59
1953.66
1826.45
1695.98
1564
1432.02
1301.41
1173.48
1049.5
930.709
818.09
712.9
617.165
532.949
462.01
405.483
363.408
334.438
316.035
305.186
299.185
296.031
294.451
293.681
293.314
293.142
293.063
293.028
293.012
293.005
293.002
293.001
293
293
293
293
293
293
293
293.004
293.016
293.037
293.073
293.132
293.229
293.39
293.651
294.072
294.74
295.785
297.393
299.819
303.397
308.546
315.747
325.512
338.317
354.54
374.392
397.898
424.907
455.142
488.262
523.919
561.798
601.634
643.217
686.391
731.032
777.048
824.354
872.866
922.486
973.099
1024.59
1077
1130.25
1184.23
1238.82
1293.89
1349.3
1404.91
1460.56
1516.09
1571.32
1626.08
1680.16
1733.34
1785.42
1836.14
1885.22
1932.38
1977.26
2019.47
2058.51
2093.32
2123.08
2148.55
2167.42
2177.75
2077.71
1956.1
1829.05
1698.65
1566.67
1434.64
1303.96
1175.93
1051.83
932.912
820.146
714.785
618.843
534.384
463.178
406.374
364.039
334.851
316.286
305.329
299.261
296.07
294.47
293.69
293.318
293.144
293.064
293.028
293.012
293.005
293.002
293.001
293
293
293
293
293
293
293
293.004
293.016
293.037
293.073
293.132
293.229
293.39
293.652
294.073
294.742
295.788
297.398
299.826
303.408
308.561
315.768
325.539
338.353
354.583
374.442
397.954
424.967
455.204
488.324
523.979
561.854
601.683
643.258
686.421
731.051
777.052
824.342
872.835
922.436
973.028
1024.5
1076.88
1130.11
1184.06
1238.62
1293.66
1349.04
1404.62
1460.25
1515.76
1570.98
1625.72
1679.78
1732.97
1785.05
1835.79
1884.91
1932.1
1977.03
2019.28
2058.37
2093.23
2123.02
2148.48
2167.29
2177.55
2080.92
1959.65
1832.8
1702.49
1570.52
1438.45
1307.69
1179.55
1055.29
936.191
823.223
717.617
621.373
536.558
464.954
407.737
365.01
335.489
316.674
305.549
299.378
296.129
294.499
293.704
293.324
293.147
293.066
293.029
293.013
293.005
293.002
293.001
293
293
293
293
293
293
293
293.004
293.016
293.037
293.073
293.132
293.23
293.391
293.653
294.074
294.744
295.793
297.405
299.836
303.423
308.582
315.797
325.578
338.401
354.642
374.512
398.032
425.052
455.292
488.413
524.066
561.935
601.756
643.32
686.469
731.082
777.063
824.331
872.799
922.372
972.933
1024.37
1076.72
1129.9
1183.82
1238.33
1293.33
1348.67
1404.21
1459.8
1515.27
1570.46
1625.17
1679.22
1732.39
1784.47
1835.21
1884.34
1931.57
1976.53
2018.83
2057.97
2092.85
2122.63
2148.01
2166.6
2176.44
2085.17
1964.33
1837.72
1707.53
1575.59
1443.49
1312.63
1184.35
1059.91
940.585
827.357
721.434
624.792
539.503
467.367
409.594
366.337
336.363
317.204
305.849
299.538
296.211
294.539
293.722
293.333
293.151
293.067
293.03
293.013
293.006
293.002
293.001
293
293
293
293
293
293
293
293.004
293.016
293.037
293.073
293.132
293.23
293.392
293.654
294.077
294.748
295.798
297.414
299.85
303.443
308.61
315.835
325.628
338.466
354.722
374.605
398.138
425.166
455.412
488.535
524.186
562.049
601.86
643.411
686.543
731.135
777.092
824.33
872.766
922.302
972.823
1024.22
1076.52
1129.65
1183.51
1237.97
1292.91
1348.19
1403.67
1459.2
1514.62
1569.76
1624.43
1678.44
1731.59
1783.65
1834.38
1883.51
1930.76
1975.76
2018.1
2057.3
2092.25
2122.1
2147.53
2166.16
2176.08
2090.76
1970.31
1843.94
1713.87
1581.97
1449.82
1318.87
1190.43
1065.77
946.163
832.614
726.295
629.154
543.268
470.459
411.98
368.045
337.489
317.889
306.236
299.745
296.316
294.59
293.747
293.344
293.156
293.07
293.031
293.013
293.006
293.002
293.001
293
293
293
293
293
293
293
293.004
293.016
293.038
293.073
293.133
293.231
293.393
293.656
294.08
294.752
295.805
297.425
299.866
303.467
308.646
315.884
325.694
338.55
354.824
374.726
398.275
425.317
455.572
488.698
524.348
562.206
602.006
643.542
686.654
731.221
777.149
824.353
872.749
922.24
972.71
1024.05
1076.29
1129.36
1183.15
1237.54
1292.4
1347.61
1403.01
1458.47
1513.81
1568.88
1623.48
1677.44
1730.55
1782.58
1833.29
1882.43
1929.67
1974.69
2017.09
2056.34
2091.4
2121.32
2146.84
2165.53
2175.54
2097.6
1977.6
1851.51
1721.6
1589.74
1457.56
1326.5
1197.87
1072.95
953.014
839.078
732.28
634.533
547.919
474.287
414.939
370.169
338.893
318.745
306.721
300.004
296.447
294.654
293.777
293.359
293.163
293.073
293.032
293.014
293.006
293.003
293.001
293
293
293
293
293
293
293
293.004
293.016
293.038
293.073
293.133
293.232
293.394
293.658
294.083
294.758
295.814
297.438
299.887
303.498
308.69
315.945
325.775
338.655
354.954
374.881
398.452
425.511
455.78
488.914
524.565
562.418
602.209
643.729
686.819
731.359
777.252
824.416
872.766
922.205
972.616
1023.89
1076.05
1129.05
1182.75
1237.05
1291.82
1346.93
1402.24
1457.6
1512.85
1567.82
1622.35
1676.23
1729.26
1781.24
1831.92
1881.03
1928.28
1973.32
2015.73
2055.03
2090.2
2120.22
2145.82
2164.58
2174.7
2105.86
1986.35
1860.57
1730.82
1599.03
1466.82
1335.63
1206.8
1081.58
961.249
846.854
739.487
641.02
553.537
478.921
418.534
372.758
340.611
319.795
307.318
300.323
296.61
294.734
293.815
293.376
293.171
293.076
293.034
293.015
293.006
293.003
293.001
293
293
293
293
293
293
293
293.004
293.016
293.038
293.074
293.133
293.233
293.395
293.66
294.087
294.765
295.825
297.455
299.913
303.536
308.744
316.021
325.876
338.786
355.117
375.075
398.675
425.76
456.047
489.193
524.85
562.702
602.484
643.989
687.057
731.567
777.425
824.544
872.842
922.221
972.563
1023.76
1075.84
1128.74
1182.35
1236.54
1291.2
1346.19
1401.39
1456.62
1511.76
1566.62
1621.03
1674.81
1727.75
1779.65
1830.27
1879.34
1926.57
1971.62
2014.06
2053.4
2088.65
2118.76
2144.45
2163.3
2173.51
2115.75
1996.73
1871.28
1741.72
1609.99
1477.74
1346.41
1217.33
1091.77
970.992
856.062
748.035
648.724
560.224
484.452
422.838
375.871
342.686
321.069
308.044
300.712
296.808
294.83
293.861
293.398
293.18
293.081
293.036
293.015
293.007
293.003
293.001
293
293
293
293
293
293
293
293.004
293.017
293.038
293.074
293.134
293.234
293.397
293.663
294.092
294.773
295.838
297.475
299.943
303.581
308.809
316.112
326
338.946
355.317
375.316
398.955
426.073
456.387
489.553
525.222
563.077
602.855
644.346
687.393
731.875
777.694
824.766
873.006
922.318
972.586
1023.69
1075.68
1128.47
1181.96
1236.03
1290.56
1345.42
1400.47
1455.57
1510.55
1565.27
1619.55
1673.2
1726.02
1777.82
1828.34
1877.35
1924.54
1969.56
2012.02
2051.41
2086.74
2116.9
2142.68
2161.62
2171.89
2127.36
2008.82
1883.7
1754.36
1622.74
1490.47
1359
1229.66
1103.7
982.385
866.838
758.053
657.769
568.093
490.981
427.941
379.579
345.17
322.6
308.92
301.182
297.048
294.948
293.917
293.423
293.192
293.086
293.038
293.016
293.007
293.003
293.001
293.001
293
293
293
293
293
293
293.004
293.017
293.038
293.074
293.135
293.235
293.399
293.667
294.098
294.782
295.852
297.498
299.978
303.634
308.886
316.221
326.148
339.14
355.561
375.612
399.3
426.464
456.816
490.011
525.7
563.566
603.345
644.829
687.858
732.312
778.094
825.118
873.298
922.537
972.721
1023.74
1075.62
1128.29
1181.65
1235.58
1289.95
1344.65
1399.54
1454.46
1509.28
1563.82
1617.93
1671.42
1724.1
1775.76
1826.17
1875.09
1922.2
1967.19
2009.64
2049.04
2084.45
2114.69
2140.5
2159.47
2169.74
2140.59
2022.51
1897.77
1768.71
1637.24
1505
1373.43
1243.83
1117.46
995.565
879.302
769.659
668.274
577.261
498.617
433.937
383.963
348.122
324.429
309.969
301.747
297.336
295.088
293.984
293.454
293.206
293.092
293.041
293.018
293.008
293.003
293.001
293.001
293
293
293
293
293
293
293.004
293.017
293.038
293.075
293.135
293.236
293.401
293.671
294.104
294.792
295.869
297.525
300.02
303.696
308.977
316.35
326.324
339.372
355.856
375.972
399.724
426.946
457.35
490.588
526.308
564.195
603.985
645.469
688.488
732.92
778.667
825.644
873.763
922.928
973.021
1023.93
1075.7
1128.24
1181.45
1235.22
1289.43
1343.94
1398.63
1453.36
1507.98
1562.32
1616.23
1669.53
1722.02
1773.52
1823.79
1872.59
1919.62
1964.56
2007
2046.44
2081.95
2112.32
2138.23
2157.17
2167.16
2154.46
2037.14
1913.05
1784.5
1653.37
1521.29
1389.7
1259.89
1133.12
1010.62
893.591
782.975
680.361
587.848
507.478
440.937
389.109
351.61
326.602
311.221
302.422
297.681
295.257
294.064
293.491
293.223
293.1
293.044
293.019
293.008
293.003
293.001
293.001
293
293
293
293
293
293
293.004
293.017
293.039
293.075
293.136
293.237
293.404
293.675
294.111
294.804
295.888
297.554
300.066
303.767
309.082
316.499
326.531
339.646
356.207
376.404
400.237
427.537
458.01
491.306
527.075
564.998
604.812
646.308
689.326
733.743
779.462
826.396
874.457
923.547
973.547
1024.35
1075.98
1128.39
1181.44
1235.03
1289.04
1343.35
1397.83
1452.33
1506.71
1560.82
1614.49
1667.56
1719.85
1771.15
1821.25
1869.91
1916.86
1961.76
2004.24
2043.8
2079.71
2110.47
2136.93
2156.65
2167.7
2166.86
2051.41
1928.76
1801.26
1670.87
1539.23
1407.8
1277.89
1150.77
1027.67
909.824
798.181
694.218
600.031
517.715
449.058
395.116
355.708
329.17
312.706
303.224
298.09
295.456
294.158
293.535
293.243
293.108
293.048
293.021
293.009
293.004
293.002
293.001
293
293
293
293
293
293
293.004
293.017
293.039
293.076
293.137
293.239
293.406
293.679
294.118
294.816
295.908
297.587
300.118
303.846
309.2
316.67
326.769
339.966
356.62
376.917
400.853
428.252
458.816
492.194
528.031
566.009
605.865
647.389
690.42
734.837
780.538
827.437
875.445
924.462
974.368
1025.06
1076.56
1128.8
1181.68
1235.08
1288.89
1342.96
1397.19
1451.43
1505.55
1559.39
1612.79
1665.6
1717.64
1768.71
1818.61
1867.11
1913.95
1958.82
2001.37
2041.14
2077.58
2109.01
2136.58
2158.19
2172.37
2176.86
2064.48
1944.3
1818.64
1689.54
1558.73
1427.71
1297.87
1170.47
1046.78
928.075
815.326
709.91
613.888
529.42
458.407
402.085
360.498
332.191
314.462
304.174
298.576
295.693
294.27
293.587
293.266
293.119
293.052
293.023
293.01
293.004
293.002
293.001
293
293
293
293
293
293
293.004
293.017
293.039
293.076
293.138
293.24
293.409
293.683
294.126
294.829
295.929
297.621
300.172
303.931
309.329
316.859
327.037
340.331
357.098
377.519
401.584
429.109
459.793
493.279
529.212
567.271
607.192
648.766
691.83
736.261
781.96
828.836
876.798
925.746
975.56
1026.13
1077.5
1129.58
1182.26
1235.45
1289.02
1342.85
1396.81
1450.76
1504.58
1558.12
1611.22
1663.72
1715.47
1766.27
1815.92
1864.22
1910.91
1955.71
1998.26
2038.17
2074.9
2107.04
2134.57
2157.25
2172.73
2178.74
2074.33
1959.04
1836.49
1709.38
1579.81
1449.47
1319.84
1192.26
1068.02
948.417
834.495
727.527
629.528
542.712
469.096
410.107
366.049
335.709
316.51
305.281
299.139
295.966
294.398
293.645
293.292
293.13
293.057
293.025
293.011
293.004
293.002
293.001
293
293
293
293
293
293
293.004
293.017
293.039
293.076
293.138
293.241
293.411
293.687
294.133
294.841
295.95
297.656
300.229
304.022
309.47
317.069
327.338
340.747
357.649
378.221
402.444
430.129
460.966
494.595
530.655
568.827
608.842
650.491
693.612
738.08
783.793
830.659
878.587
927.474
977.197
1027.65
1078.87
1130.78
1183.27
1236.23
1289.54
1343.1
1396.77
1450.41
1503.9
1557.1
1609.86
1662.02
1713.44
1763.92
1813.28
1861.32
1907.79
1952.42
1994.88
2034.77
2071.55
2103.9
2131.6
2154.61
2170.51
2177.13
2092.47
1978.7
1857.62
1731.73
1603.05
1473.27
1343.84
1216.09
1091.31
970.796
855.667
747.085
646.991
557.649
481.195
419.266
372.446
339.799
318.908
306.582
299.801
296.286
294.548
293.713
293.323
293.144
293.063
293.027
293.012
293.005
293.002
293.001
293
293
293
293
293
293
293.004
293.017
293.039
293.077
293.139
293.242
293.412
293.69
294.137
294.849
295.965
297.683
300.276
304.102
309.6
317.274
327.645
341.186
358.25
379.006
403.429
431.318
462.355
496.171
532.402
570.723
610.868
652.623
695.827
740.353
786.097
832.968
880.87
929.698
979.331
1029.67
1080.74
1132.47
1184.75
1237.47
1290.51
1343.77
1397.11
1450.43
1503.58
1556.41
1608.81
1660.61
1711.66
1761.79
1810.82
1858.55
1904.74
1949.13
1991.4
2031.15
2067.9
2100.43
2128.23
2151.4
2167.71
2175.21
2114.1
2000.9
1880.64
1755.6
1627.65
1498.38
1369.19
1241.37
1116.15
994.802
878.518
768.36
666.134
574.147
494.657
429.52
379.634
344.393
321.585
308.018
300.521
296.628
294.706
293.784
293.354
293.157
293.069
293.03
293.013
293.005
293.002
293.001
293
293
293
293
293
293
293.004
293.017
293.039
293.076
293.139
293.242
293.412
293.69
294.138
294.853
295.975
297.707
300.323
304.187
309.744
317.505
327.998
341.699
358.957
379.936
404.6
432.735
464.012
498.055
534.494
572.999
613.301
655.187
698.493
743.09
788.874
835.752
883.627
932.393
981.926
1032.13
1083.05
1134.59
1186.65
1239.11
1291.88
1344.83
1397.86
1450.82
1503.62
1556.1
1608.13
1659.56
1710.25
1760.02
1808.71
1856.12
1902.01
1946.13
1988.16
2027.72
2064.32
2096.85
2124.74
2148.05
2164.55
2172.39
2134.49
2022.17
1902.87
1778.78
1651.67
1523.07
1394.32
1266.65
1141.25
1019.33
902.107
790.579
686.399
591.863
509.333
440.882
387.734
349.652
324.686
309.693
301.359
297.026
294.887
293.865
293.389
293.172
293.075
293.032
293.014
293.006
293.002
293.001
293
293
293
293
293
293
293.004
293.017
293.039
293.076
293.138
293.241
293.41
293.686
294.133
294.846
295.967
297.699
300.322
304.206
309.805
317.64
328.25
342.117
359.594
380.838
405.799
434.247
465.833
500.167
536.865
575.593
616.078
658.106
701.513
746.173
791.982
838.847
886.672