/*--------------------------------*- C++ -*----------------------------------*\
  =========                 |
  \\      /  F ield         | OpenFOAM: The Open Source CFD Toolbox
   \\    /   O peration     | Website:  https://openfoam.org
    \\  /    A nd           | Version:  8
     \\/     M anipulation  |
\*---------------------------------------------------------------------------*/
FoamFile
{
    version     2.0;
    format      ascii;
    class       volVectorField;
    location    "640/fluid";
    object      U;
}
// * * * * * * * * * * * * * * * * * * * * * * * * * * * * * * * * * * * * * //

dimensions      [0 1 -1 0 0 0 0];

internalField   nonuniform List<vector> 
4000
(
(0.099946 -0.0070392 0)
(0.0996525 -0.0209496 0)
(0.0991788 -0.0347472 0)
(0.0985244 -0.0484678 0)
(0.0976814 -0.0621291 0)
(0.0966324 -0.0757336 0)
(0.095357 -0.089271 0)
(0.0938361 -0.102722 0)
(0.0920543 -0.11606 0)
(0.0900034 -0.129255 0)
(0.0876849 -0.142283 0)
(0.0851146 -0.155122 0)
(0.0823259 -0.167764 0)
(0.0793768 -0.180196 0)
(0.076345 -0.192459 0)
(0.073304 -0.204623 0)
(0.0703055 -0.216747 0)
(0.0673681 -0.228874 0)
(0.0644694 -0.241015 0)
(0.061547 -0.253143 0)
(0.0585098 -0.265196 0)
(0.0552571 -0.277084 0)
(0.0516988 -0.288701 0)
(0.0477759 -0.29992 0)
(0.0434616 -0.310645 0)
(0.0387474 -0.320814 0)
(0.0336382 -0.330364 0)
(0.0281502 -0.339239 0)
(0.0223084 -0.347395 0)
(0.0161429 -0.354798 0)
(0.00968673 -0.361424 0)
(0.00297363 -0.367262 0)
(-0.0039599 -0.372311 0)
(-0.0110777 -0.376576 0)
(-0.0183477 -0.380071 0)
(-0.0257403 -0.382815 0)
(-0.0332287 -0.384833 0)
(-0.0407873 -0.386155 0)
(-0.0483919 -0.386816 0)
(-0.0560194 -0.386852 0)
(-0.063648 -0.386305 0)
(-0.071257 -0.385216 0)
(-0.0788266 -0.38363 0)
(-0.0863375 -0.381591 0)
(-0.0937711 -0.379147 0)
(-0.101109 -0.376344 0)
(-0.108334 -0.37323 0)
(-0.115426 -0.369855 0)
(-0.122368 -0.366267 0)
(-0.129141 -0.362518 0)
(-0.135726 -0.35866 0)
(-0.142101 -0.354747 0)
(-0.148246 -0.350836 0)
(-0.154136 -0.346986 0)
(-0.159748 -0.343265 0)
(-0.165051 -0.339744 0)
(-0.170005 -0.336506 0)
(-0.174556 -0.333636 0)
(-0.178676 -0.331233 0)
(-0.182396 -0.329449 0)
(-0.185793 -0.328554 0)
(-0.188312 -0.328913 0)
(-0.187883 -0.330414 0)
(-0.183193 -0.331333 0)
(-0.176244 -0.330524 0)
(-0.168844 -0.328101 0)
(-0.161214 -0.324363 0)
(-0.153286 -0.319459 0)
(-0.145078 -0.313455 0)
(-0.136661 -0.306389 0)
(-0.128113 -0.298295 0)
(-0.11952 -0.289207 0)
(-0.11097 -0.279171 0)
(-0.102556 -0.268233 0)
(-0.0944275 -0.256455 0)
(-0.0868259 -0.243948 0)
(-0.0800807 -0.230913 0)
(-0.0745625 -0.217627 0)
(-0.0706485 -0.20465 0)
(-0.0686356 -0.192495 0)
(-0.0685593 -0.181405 0)
(-0.0701213 -0.171289 0)
(-0.0728064 -0.161837 0)
(-0.076076 -0.152711 0)
(-0.0795013 -0.14367 0)
(-0.0828006 -0.134568 0)
(-0.0858019 -0.125308 0)
(-0.0884377 -0.115934 0)
(-0.0907061 -0.106495 0)
(-0.0926319 -0.0970242 0)
(-0.094249 -0.0875529 0)
(-0.095593 -0.0781081 0)
(-0.0966979 -0.068711 0)
(-0.0975957 -0.0593752 0)
(-0.0983149 -0.0501074 0)
(-0.098881 -0.0409079 0)
(-0.0993159 -0.0317694 0)
(-0.0996368 -0.0226756 0)
(-0.0998554 -0.0136067 0)
(-0.0999821 -0.00454277 0)
(0.0999998 -0.0066053 0)
(0.0997956 -0.0197606 0)
(0.0993735 -0.0328317 0)
(0.0987097 -0.0457986 0)
(0.0978057 -0.0586428 0)
(0.0966573 -0.0713422 0)
(0.0952553 -0.0838692 0)
(0.0935918 -0.0961929 0)
(0.0916648 -0.108281 0)
(0.0894815 -0.120105 0)
(0.0870613 -0.131645 0)
(0.0844383 -0.142898 0)
(0.0816625 -0.153893 0)
(0.0788004 -0.164712 0)
(0.0759248 -0.175418 0)
(0.0731024 -0.186068 0)
(0.0703799 -0.196737 0)
(0.0677702 -0.207489 0)
(0.0652438 -0.218365 0)
(0.0627291 -0.229361 0)
(0.0601235 -0.240434 0)
(0.0573126 -0.251503 0)
(0.0541903 -0.262473 0)
(0.0506741 -0.273262 0)
(0.0467147 -0.28376 0)
(0.0422927 -0.293833 0)
(0.0374097 -0.303381 0)
(0.032084 -0.312326 0)
(0.0263459 -0.320612 0)
(0.0202321 -0.328198 0)
(0.0137824 -0.335059 0)
(0.00703714 -0.341181 0)
(3.58801e-05 -0.346558 0)
(-0.00718287 -0.351198 0)
(-0.0145826 -0.355111 0)
(-0.0221294 -0.358317 0)
(-0.0297928 -0.36084 0)
(-0.0375446 -0.362707 0)
(-0.0453586 -0.363948 0)
(-0.0532101 -0.3646 0)
(-0.0610763 -0.364697 0)
(-0.0689353 -0.36428 0)
(-0.0767668 -0.363388 0)
(-0.0845513 -0.362064 0)
(-0.0922702 -0.36035 0)
(-0.0999052 -0.358291 0)
(-0.107439 -0.355933 0)
(-0.114853 -0.353319 0)
(-0.12213 -0.350498 0)
(-0.129254 -0.347516 0)
(-0.136207 -0.344421 0)
(-0.142971 -0.341264 0)
(-0.149528 -0.338095 0)
(-0.15586 -0.334966 0)
(-0.161948 -0.331932 0)
(-0.16777 -0.329047 0)
(-0.173292 -0.326368 0)
(-0.178472 -0.323949 0)
(-0.183306 -0.321841 0)
(-0.18789 -0.320099 0)
(-0.192343 -0.318778 0)
(-0.195769 -0.31787 0)
(-0.195548 -0.316876 0)
(-0.1904 -0.31518 0)
(-0.182919 -0.312594 0)
(-0.175124 -0.309012 0)
(-0.167192 -0.304388 0)
(-0.15899 -0.2987 0)
(-0.1505 -0.291934 0)
(-0.141769 -0.284086 0)
(-0.132858 -0.275158 0)
(-0.123833 -0.265167 0)
(-0.114757 -0.254155 0)
(-0.105703 -0.242204 0)
(-0.0968197 -0.229469 0)
(-0.0883873 -0.216232 0)
(-0.0808009 -0.202949 0)
(-0.0745253 -0.190253 0)
(-0.0700189 -0.178569 0)
(-0.0675745 -0.168164 0)
(-0.0671643 -0.159044 0)
(-0.068429 -0.150932 0)
(-0.0708362 -0.143417 0)
(-0.0738679 -0.136134 0)
(-0.0771258 -0.128846 0)
(-0.0803514 -0.121448 0)
(-0.0834028 -0.113931 0)
(-0.0861951 -0.10621 0)
(-0.0886932 -0.0982605 0)
(-0.0908914 -0.0901117 0)
(-0.0927978 -0.0818041 0)
(-0.0944289 -0.0733761 0)
(-0.095805 -0.0648611 0)
(-0.0969483 -0.0562862 0)
(-0.0978811 -0.0476725 0)
(-0.0986243 -0.0390353 0)
(-0.0991955 -0.0303834 0)
(-0.0996068 -0.0217181 0)
(-0.0998661 -0.0130386 0)
(-0.0999951 -0.00434851 0)
(0.0999789 -0.0063286 0)
(0.0997168 -0.0189207 0)
(0.0992034 -0.0314261 0)
(0.09842 -0.0438223 0)
(0.0973705 -0.0560871 0)
(0.0960559 -0.0681974 0)
(0.0944756 -0.080129 0)
(0.0926327 -0.0918571 0)
(0.0905372 -0.103359 0)
(0.0882093 -0.114616 0)
(0.0856807 -0.125619 0)
(0.0829974 -0.136366 0)
(0.0802176 -0.146875 0)
(0.0774059 -0.157177 0)
(0.0746281 -0.167326 0)
(0.0719455 -0.177394 0)
(0.0694036 -0.18746 0)
(0.0670154 -0.197595 0)
(0.0647515 -0.207841 0)
(0.06254 -0.218205 0)
(0.060277 -0.228652 0)
(0.057845 -0.239112 0)
(0.0551312 -0.24949 0)
(0.05204 -0.259687 0)
(0.0485013 -0.269601 0)
(0.0444764 -0.279142 0)
(0.0399562 -0.288229 0)
(0.0349534 -0.296795 0)
(0.0294948 -0.304782 0)
(0.0236159 -0.312151 0)
(0.0173559 -0.318869 0)
(0.0107558 -0.324918 0)
(0.0038556 -0.330289 0)
(-0.0033042 -0.334981 0)
(-0.0106859 -0.339002 0)
(-0.018255 -0.342364 0)
(-0.0259792 -0.345087 0)
(-0.0338289 -0.347196 0)
(-0.0417771 -0.348715 0)
(-0.0497981 -0.349677 0)
(-0.0578683 -0.350114 0)
(-0.0659653 -0.350061 0)
(-0.0740685 -0.349555 0)
(-0.0821582 -0.348634 0)
(-0.090216 -0.347338 0)
(-0.0982237 -0.345708 0)
(-0.106164 -0.343784 0)
(-0.114022 -0.341608 0)
(-0.121781 -0.339223 0)
(-0.129427 -0.336672 0)
(-0.136946 -0.333996 0)
(-0.144324 -0.33124 0)
(-0.151547 -0.328445 0)
(-0.158604 -0.325655 0)
(-0.165483 -0.322911 0)
(-0.172167 -0.32025 0)
(-0.178627 -0.31771 0)
(-0.184822 -0.315315 0)
(-0.190767 -0.313086 0)
(-0.196572 -0.311041 0)
(-0.202231 -0.309187 0)
(-0.206277 -0.30746 0)
(-0.205736 -0.305215 0)
(-0.199935 -0.302153 0)
(-0.191933 -0.298392 0)
(-0.183567 -0.293859 0)
(-0.174994 -0.288454 0)
(-0.16611 -0.282117 0)
(-0.156906 -0.27482 0)
(-0.147429 -0.266562 0)
(-0.137731 -0.257363 0)
(-0.127872 -0.247275 0)
(-0.117911 -0.236388 0)
(-0.107937 -0.224837 0)
(-0.0981432 -0.212828 0)
(-0.0888738 -0.20065 0)
(-0.0805947 -0.188672 0)
(-0.0738362 -0.1773 0)
(-0.0690636 -0.166902 0)
(-0.0664976 -0.157681 0)
(-0.0660107 -0.149577 0)
(-0.0671812 -0.142301 0)
(-0.0694658 -0.135477 0)
(-0.072365 -0.128788 0)
(-0.0755038 -0.122027 0)
(-0.0786422 -0.115091 0)
(-0.0816507 -0.10795 0)
(-0.0844635 -0.100613 0)
(-0.0870435 -0.0931004 0)
(-0.0893724 -0.0854316 0)
(-0.0914455 -0.0776279 0)
(-0.0932663 -0.0697101 0)
(-0.0948428 -0.0616982 0)
(-0.0961863 -0.0536098 0)
(-0.0973092 -0.0454606 0)
(-0.098224 -0.0372639 0)
(-0.098942 -0.0290297 0)
(-0.0994698 -0.020763 0)
(-0.0998115 -0.0124694 0)
(-0.0999872 -0.0041595 0)
(0.0999837 -0.00597727 0)
(0.099717 -0.0178705 0)
(0.0991857 -0.0296725 0)
(0.0983707 -0.0413545 0)
(0.0972805 -0.0528893 0)
(0.0959218 -0.0642506 0)
(0.0943001 -0.0754122 0)
(0.0924239 -0.0863489 0)
(0.0903079 -0.0970388 0)
(0.0879748 -0.107465 0)
(0.0854574 -0.117621 0)
(0.0828001 -0.127512 0)
(0.0800589 -0.13716 0)
(0.0772997 -0.146607 0)
(0.0745929 -0.155916 0)
(0.0720033 -0.165162 0)
(0.0695763 -0.174428 0)
(0.0673239 -0.183785 0)
(0.0652152 -0.193282 0)
(0.0631762 -0.202931 0)
(0.0611003 -0.212702 0)
(0.0588662 -0.222534 0)
(0.0563575 -0.23234 0)
(0.0534773 -0.242025 0)
(0.0501563 -0.251491 0)
(0.0463541 -0.260645 0)
(0.0420561 -0.269407 0)
(0.0372683 -0.277708 0)
(0.0320108 -0.285493 0)
(0.0263133 -0.292719 0)
(0.0202105 -0.299355 0)
(0.0137393 -0.305381 0)
(0.0069374 -0.310785 0)
(-0.000158076 -0.315565 0)
(-0.00751087 -0.319724 0)
(-0.0150869 -0.323273 0)
(-0.0228548 -0.326229 0)
(-0.0307857 -0.32861 0)
(-0.038853 -0.33044 0)
(-0.0470316 -0.331745 0)
(-0.0552982 -0.332554 0)
(-0.0636312 -0.332899 0)
(-0.0720103 -0.332812 0)
(-0.0804162 -0.332326 0)
(-0.0888306 -0.331476 0)
(-0.0972364 -0.330299 0)
(-0.105618 -0.328831 0)
(-0.11396 -0.327107 0)
(-0.122248 -0.325164 0)
(-0.130469 -0.323039 0)
(-0.13861 -0.320768 0)
(-0.146659 -0.318383 0)
(-0.154603 -0.315919 0)
(-0.162431 -0.313406 0)
(-0.17013 -0.310872 0)
(-0.177682 -0.30834 0)
(-0.185046 -0.305826 0)
(-0.192173 -0.303336 0)
(-0.199083 -0.30087 0)
(-0.205896 -0.298432 0)
(-0.212444 -0.296016 0)
(-0.21659 -0.293558 0)
(-0.215268 -0.290315 0)
(-0.208705 -0.286223 0)
(-0.200238 -0.28151 0)
(-0.191328 -0.276139 0)
(-0.182072 -0.270017 0)
(-0.172416 -0.263086 0)
(-0.16239 -0.255322 0)
(-0.15206 -0.246732 0)
(-0.141498 -0.237348 0)
(-0.130782 -0.227234 0)
(-0.119997 -0.216491 0)
(-0.109271 -0.205266 0)
(-0.0988597 -0.19377 0)
(-0.0891607 -0.18229 0)
(-0.0806623 -0.171175 0)
(-0.0738654 -0.1608 0)
(-0.0691599 -0.151473 0)
(-0.0666793 -0.143322 0)
(-0.0662298 -0.136232 0)
(-0.0673656 -0.129895 0)
(-0.0695583 -0.123954 0)
(-0.0723395 -0.118119 0)
(-0.0753623 -0.112203 0)
(-0.078402 -0.106109 0)
(-0.0813294 -0.0998 0)
(-0.0840772 -0.0932678 0)
(-0.0866135 -0.086523 0)
(-0.0889246 -0.0795845 0)
(-0.0910061 -0.0724745 0)
(-0.0928585 -0.0652154 0)
(-0.0944853 -0.0578283 0)
(-0.0958914 -0.0503325 0)
(-0.0970826 -0.0427454 0)
(-0.0980654 -0.0350833 0)
(-0.0988446 -0.0273595 0)
(-0.0994214 -0.0195837 0)
(-0.0997956 -0.0117669 0)
(-0.0999874 -0.0039259 0)
(0.0999807 -0.00562475 0)
(0.0996988 -0.0168153 0)
(0.099142 -0.0279176 0)
(0.0982924 -0.0389024 0)
(0.0971608 -0.0497428 0)
(0.0957568 -0.0604132 0)
(0.0940889 -0.0708889 0)
(0.0921688 -0.0811473 0)
(0.0900147 -0.0911692 0)
(0.0876527 -0.100941 0)
(0.0851189 -0.110457 0)
(0.0824605 -0.119723 0)
(0.0797361 -0.128761 0)
(0.0770134 -0.137608 0)
(0.0743635 -0.14632 0)
(0.0718508 -0.154967 0)
(0.0695201 -0.163625 0)
(0.0673827 -0.172362 0)
(0.0654075 -0.181225 0)
(0.06352 -0.190229 0)
(0.0616125 -0.199353 0)
(0.0595617 -0.208544 0)
(0.0572475 -0.217728 0)
(0.0545687 -0.226817 0)
(0.0514511 -0.235725 0)
(0.0478497 -0.244366 0)
(0.0437455 -0.252667 0)
(0.0391401 -0.260563 0)
(0.0340501 -0.268002 0)
(0.0285015 -0.274942 0)
(0.0225262 -0.281353 0)
(0.0161585 -0.287212 0)
(0.00943339 -0.292508 0)
(0.00238585 -0.297234 0)
(-0.00494963 -0.301393 0)
(-0.0125405 -0.304992 0)
(-0.0203569 -0.308043 0)
(-0.0283713 -0.310563 0)
(-0.0365581 -0.312571 0)
(-0.0448935 -0.314089 0)
(-0.0533552 -0.315143 0)
(-0.0619224 -0.315759 0)
(-0.0705752 -0.315965 0)
(-0.0792949 -0.315791 0)
(-0.0880642 -0.315265 0)
(-0.0968668 -0.314419 0)
(-0.105687 -0.313285 0)
(-0.114511 -0.311891 0)
(-0.123323 -0.31027 0)
(-0.13211 -0.30845 0)
(-0.140858 -0.306461 0)
(-0.149554 -0.304327 0)
(-0.158183 -0.302075 0)
(-0.166729 -0.299726 0)
(-0.175174 -0.297296 0)
(-0.183491 -0.294799 0)
(-0.191623 -0.29224 0)
(-0.199509 -0.289613 0)
(-0.207182 -0.286911 0)
(-0.214762 -0.28413 0)
(-0.221891 -0.281259 0)
(-0.225753 -0.278246 0)
(-0.22343 -0.274321 0)
(-0.216141 -0.269609 0)
(-0.207278 -0.26433 0)
(-0.197876 -0.25846 0)
(-0.18798 -0.251929 0)
(-0.177596 -0.244702 0)
(-0.166801 -0.236773 0)
(-0.15569 -0.228163 0)
(-0.144357 -0.218919 0)
(-0.132901 -0.209118 0)
(-0.121428 -0.198868 0)
(-0.110106 -0.188319 0)
(-0.0992313 -0.177676 0)
(-0.0892302 -0.167205 0)
(-0.0805942 -0.157207 0)
(-0.0737977 -0.147986 0)
(-0.0691735 -0.13976 0)
(-0.066783 -0.132574 0)
(-0.0663756 -0.126274 0)
(-0.0674855 -0.120567 0)
(-0.0695972 -0.115148 0)
(-0.0722702 -0.109781 0)
(-0.0751847 -0.104317 0)
(-0.0781347 -0.0986821 0)
(-0.0809995 -0.0928467 0)
(-0.0837126 -0.0868074 0)
(-0.0862385 -0.0805728 0)
(-0.0885591 -0.0741576 0)
(-0.0906656 -0.0675787 0)
(-0.0925548 -0.0608536 0)
(-0.0942262 -0.0539994 0)
(-0.0956812 -0.0470325 0)
(-0.0969222 -0.0399684 0)
(-0.0979523 -0.0328224 0)
(-0.0987735 -0.0256079 0)
(-0.0993841 -0.0183358 0)
(-0.0997817 -0.011019 0)
(-0.0999861 -0.00367646 0)
(0.0999813 -0.00525716 0)
(0.0996967 -0.015717 0)
(0.0991334 -0.0260925 0)
(0.0982737 -0.0363539 0)
(0.0971304 -0.0464742 0)
(0.0957147 -0.056428 0)
(0.0940371 -0.0661915 0)
(0.0921114 -0.075743 0)
(0.0899573 -0.0850645 0)
(0.0876022 -0.0941438 0)
(0.085083 -0.102977 0)
(0.0824472 -0.11157 0)
(0.0797533 -0.119946 0)
(0.0770684 -0.128141 0)
(0.0744634 -0.13621 0)
(0.0720024 -0.144222 0)
(0.0697306 -0.15225 0)
(0.0676604 -0.160362 0)
(0.0657619 -0.168603 0)
(0.0639621 -0.17699 0)
(0.0621544 -0.185505 0)
(0.0602154 -0.1941 0)
(0.0580238 -0.202707 0)
(0.0554763 -0.211246 0)
(0.0524956 -0.219634 0)
(0.049033 -0.227794 0)
(0.0450656 -0.235655 0)
(0.040591 -0.243157 0)
(0.0356219 -0.250251 0)
(0.0301811 -0.256896 0)
(0.0242971 -0.263063 0)
(0.0180013 -0.26873 0)
(0.0113264 -0.273883 0)
(0.00430478 -0.278516 0)
(-0.00303096 -0.28263 0)
(-0.01065 -0.286228 0)
(-0.0185243 -0.289322 0)
(-0.0266276 -0.291923 0)
(-0.0349357 -0.29405 0)
(-0.0434261 -0.295719 0)
(-0.0520774 -0.296954 0)
(-0.0608692 -0.297775 0)
(-0.0697825 -0.298206 0)
(-0.0787993 -0.298274 0)
(-0.0879029 -0.298002 0)
(-0.097077 -0.297418 0)
(-0.106306 -0.296546 0)
(-0.115574 -0.295413 0)
(-0.124865 -0.294043 0)
(-0.134165 -0.29246 0)
(-0.143458 -0.290686 0)
(-0.152726 -0.288741 0)
(-0.16195 -0.286645 0)
(-0.171108 -0.284412 0)
(-0.180174 -0.282053 0)
(-0.189108 -0.279574 0)
(-0.197837 -0.276974 0)
(-0.20629 -0.274243 0)
(-0.214504 -0.271371 0)
(-0.222595 -0.268344 0)
(-0.230023 -0.265132 0)
(-0.233411 -0.261705 0)
(-0.230101 -0.257406 0)
(-0.222172 -0.252403 0)
(-0.212902 -0.246826 0)
(-0.203011 -0.24068 0)
(-0.192518 -0.23394 0)
(-0.181483 -0.226599 0)
(-0.17002 -0.218672 0)
(-0.158244 -0.21019 0)
(-0.146274 -0.201207 0)
(-0.134225 -0.191804 0)
(-0.122225 -0.182084 0)
(-0.110474 -0.17219 0)
(-0.0993072 -0.162312 0)
(-0.089168 -0.152685 0)
(-0.0805447 -0.143578 0)
(-0.07388 -0.135247 0)
(-0.0694479 -0.127864 0)
(-0.0672399 -0.12144 0)
(-0.0669525 -0.115812 0)
(-0.0681013 -0.110702 0)
(-0.0701816 -0.105833 0)
(-0.072777 -0.100994 0)
(-0.0755915 -0.0960556 0)
(-0.0784373 -0.0909495 0)
(-0.0812052 -0.0856491 0)
(-0.0838351 -0.08015 0)
(-0.0862945 -0.0744593 0)
(-0.0885658 -0.0685895 0)
(-0.0906392 -0.0625559 0)
(-0.0925093 -0.0563742 0)
(-0.0941734 -0.0500604 0)
(-0.0956298 -0.0436299 0)
(-0.0968784 -0.037098 0)
(-0.0979194 -0.0304797 0)
(-0.0987522 -0.0237891 0)
(-0.0993732 -0.0170379 0)
(-0.099778 -0.0102403 0)
(-0.0999861 -0.00341663 0)
(0.0999808 -0.00488837 0)
(0.0996936 -0.0146148 0)
(0.0991259 -0.0242624 0)
(0.0982605 -0.0338027 0)
(0.0971106 -0.0432099 0)
(0.0956888 -0.05246 0)
(0.0940064 -0.0615309 0)
(0.0920782 -0.0704024 0)
(0.0899251 -0.0790582 0)
(0.0875756 -0.0874875 0)
(0.0850672 -0.0956869 0)
(0.0824481 -0.103663 0)
(0.0797773 -0.111437 0)
(0.0771222 -0.119043 0)
(0.0745534 -0.126531 0)
(0.0721356 -0.133966 0)
(0.0699138 -0.141415 0)
(0.0679009 -0.148941 0)
(0.0660676 -0.156589 0)
(0.0643415 -0.164375 0)
(0.062616 -0.172287 0)
(0.0607673 -0.180282 0)
(0.058673 -0.188298 0)
(0.0562277 -0.196265 0)
(0.0533516 -0.204105 0)
(0.0499932 -0.211749 0)
(0.0461266 -0.219132 0)
(0.0417465 -0.226196 0)
(0.0368628 -0.232896 0)
(0.0314955 -0.239194 0)
(0.0256708 -0.24506 0)
(0.0194179 -0.250474 0)
(0.0127671 -0.255422 0)
(0.00574918 -0.259896 0)
(-0.00160541 -0.263895 0)
(-0.00926742 -0.267423 0)
(-0.01721 -0.270486 0)
(-0.0254083 -0.273095 0)
(-0.0338396 -0.275264 0)
(-0.042482 -0.277009 0)
(-0.0513146 -0.278346 0)
(-0.0603179 -0.279295 0)
(-0.0694737 -0.279875 0)
(-0.0787643 -0.280109 0)
(-0.0881728 -0.280016 0)
(-0.0976823 -0.279619 0)
(-0.107276 -0.278938 0)
(-0.116938 -0.277995 0)
(-0.126651 -0.27681 0)
(-0.136397 -0.275401 0)
(-0.146157 -0.273788 0)
(-0.15591 -0.271984 0)
(-0.165632 -0.270006 0)
(-0.175294 -0.267862 0)
(-0.184862 -0.265562 0)
(-0.194282 -0.263109 0)
(-0.203465 -0.2605 0)
(-0.212334 -0.257724 0)
(-0.220917 -0.254772 0)
(-0.229283 -0.25162 0)
(-0.236765 -0.248217 0)
(-0.239725 -0.244534 0)
(-0.235631 -0.240067 0)
(-0.227022 -0.234964 0)
(-0.217201 -0.229289 0)
(-0.206795 -0.223072 0)
(-0.195783 -0.216323 0)
(-0.18422 -0.209062 0)
(-0.172231 -0.201314 0)
(-0.159945 -0.193119 0)
(-0.147495 -0.184537 0)
(-0.135008 -0.175646 0)
(-0.122631 -0.166545 0)
(-0.110594 -0.157368 0)
(-0.0992565 -0.148289 0)
(-0.089074 -0.139522 0)
(-0.0805242 -0.131298 0)
(-0.074017 -0.123831 0)
(-0.0697728 -0.117245 0)
(-0.0677258 -0.111514 0)
(-0.0675344 -0.106464 0)
(-0.068707 -0.10184 0)
(-0.0707537 -0.0973998 0)
(-0.0732806 -0.0929661 0)
(-0.0760118 -0.0884313 0)
(-0.0787732 -0.0837407 0)
(-0.0814637 -0.0788724 0)
(-0.0840265 -0.0738226 0)
(-0.0864304 -0.0685974 0)
(-0.0886574 -0.0632069 0)
(-0.090697 -0.0576638 0)
(-0.0925426 -0.0519816 0)
(-0.0941898 -0.046174 0)
(-0.0956358 -0.0402545 0)
(-0.0968786 -0.034237 0)
(-0.0979173 -0.0281355 0)
(-0.0987499 -0.0219635 0)
(-0.0993716 -0.0157323 0)
(-0.0997773 -0.00945592 0)
(-0.099986 -0.00315477 0)
(0.099981 -0.00451777 0)
(0.0996941 -0.0135074 0)
(0.0991267 -0.0224241 0)
(0.098262 -0.031241 0)
(0.0971136 -0.0399336 0)
(0.0956945 -0.0484796 0)
(0.0940166 -0.056858 0)
(0.0920953 -0.0650504 0)
(0.089952 -0.0730418 0)
(0.0876155 -0.0808221 0)
(0.0851236 -0.0883888 0)
(0.0825244 -0.0957484 0)
(0.0798766 -0.10292 0)
(0.0772476 -0.109937 0)
(0.0747077 -0.116845 0)
(0.0723213 -0.123706 0)
(0.0701342 -0.130581 0)
(0.0681598 -0.137531 0)
(0.0663699 -0.144598 0)
(0.0646929 -0.151799 0)
(0.0630232 -0.159123 0)
(0.0612367 -0.166532 0)
(0.0592104 -0.173971 0)
(0.056837 -0.181373 0)
(0.0540349 -0.188671 0)
(0.05075 -0.195798 0)
(0.046954 -0.202694 0)
(0.0426392 -0.209308 0)
(0.0378129 -0.215596 0)
(0.0324931 -0.221522 0)
(0.0267036 -0.227059 0)
(0.0204718 -0.232187 0)
(0.0138264 -0.236891 0)
(0.00679619 -0.241165 0)
(-0.000589683 -0.245005 0)
(-0.0083034 -0.248413 0)
(-0.0163193 -0.251394 0)
(-0.0246136 -0.253958 0)
(-0.0331642 -0.256115 0)
(-0.0419499 -0.257878 0)
(-0.0509507 -0.259261 0)
(-0.0601476 -0.26028 0)
(-0.0695224 -0.260952 0)
(-0.0790574 -0.261294 0)
(-0.0887349 -0.261325 0)
(-0.0985375 -0.26106 0)
(-0.108448 -0.260519 0)
(-0.118447 -0.259718 0)
(-0.128517 -0.258673 0)
(-0.138638 -0.257399 0)
(-0.148786 -0.255911 0)
(-0.158937 -0.254221 0)
(-0.169063 -0.252339 0)
(-0.179129 -0.250275 0)
(-0.189093 -0.248032 0)
(-0.19889 -0.245615 0)
(-0.20842 -0.243019 0)
(-0.217598 -0.240237 0)
(-0.226429 -0.237265 0)
(-0.234929 -0.234092 0)
(-0.242273 -0.230683 0)
(-0.244734 -0.226912 0)
(-0.239928 -0.222363 0)
(-0.230729 -0.217243 0)
(-0.220413 -0.211617 0)
(-0.209551 -0.205506 0)
(-0.198099 -0.198929 0)
(-0.186105 -0.191911 0)
(-0.173698 -0.184486 0)
(-0.161017 -0.176697 0)
(-0.148202 -0.168604 0)
(-0.135391 -0.160282 0)
(-0.122746 -0.151825 0)
(-0.110522 -0.143356 0)
(-0.0990998 -0.135034 0)
(-0.0889413 -0.127051 0)
(-0.0805129 -0.119611 0)
(-0.0741935 -0.112892 0)
(-0.0701555 -0.106988 0)
(-0.0682828 -0.101852 0)
(-0.0682015 -0.0973132 0)
(-0.0694139 -0.0931361 0)
(-0.0714432 -0.0891067 0)
(-0.0739148 -0.0850712 0)
(-0.0765708 -0.0809374 0)
(-0.0792505 -0.0766585 0)
(-0.0818608 -0.0722159 0)
(-0.0843496 -0.0676065 0)
(-0.0866878 -0.062835 0)
(-0.0888582 -0.0579106 0)
(-0.0908501 -0.0528441 0)
(-0.0926565 -0.0476476 0)
(-0.0942723 -0.0423332 0)
(-0.0956935 -0.0369134 0)
(-0.0969174 -0.0314008 0)
(-0.0979418 -0.0258085 0)
(-0.0987641 -0.0201491 0)
(-0.0993786 -0.0144335 0)
(-0.0997798 -0.00867535 0)
(-0.0999862 -0.00289415 0)
(0.099981 -0.00414833 0)
(0.0996948 -0.0124033 0)
(0.0991291 -0.0205916 0)
(0.098267 -0.0286883 0)
(0.0971223 -0.0366706 0)
(0.0957082 -0.0445181 0)
(0.0940369 -0.0522115 0)
(0.0921241 -0.0597339 0)
(0.0899914 -0.0670714 0)
(0.0876677 -0.0742153 0)
(0.0851908 -0.0811632 0)
(0.082609 -0.0879213 0)
(0.0799806 -0.0945072 0)
(0.077373 -0.100951 0)
(0.0748564 -0.107297 0)
(0.0724954 -0.113598 0)
(0.0703359 -0.119915 0)
(0.0683918 -0.126301 0)
(0.0666356 -0.132797 0)
(0.0649967 -0.139419 0)
(0.0633694 -0.146158 0)
(0.0616297 -0.152981 0)
(0.0596536 -0.159839 0)
(0.0573328 -0.166671 0)
(0.0545838 -0.173415 0)
(0.0513508 -0.180011 0)
(0.0476033 -0.186404 0)
(0.0433317 -0.192546 0)
(0.0385416 -0.198397 0)
(0.033249 -0.203923 0)
(0.0274762 -0.209099 0)
(0.0212491 -0.213906 0)
(0.0145947 -0.218329 0)
(0.00754091 -0.222362 0)
(0.000115374 -0.226 0)
(-0.00765511 -0.229244 0)
(-0.0157457 -0.232099 0)
(-0.0241333 -0.23457 0)
(-0.0327964 -0.236666 0)
(-0.0417146 -0.238398 0)
(-0.0508682 -0.239779 0)
(-0.0602383 -0.24082 0)
(-0.0698064 -0.241536 0)
(-0.0795545 -0.241941 0)
(-0.0894642 -0.24205 0)
(-0.0995172 -0.241877 0)
(-0.109695 -0.241436 0)
(-0.119976 -0.240742 0)
(-0.130342 -0.239807 0)
(-0.140767 -0.238644 0)
(-0.151228 -0.237264 0)
(-0.161696 -0.235677 0)
(-0.172137 -0.23389 0)
(-0.182512 -0.23191 0)
(-0.192774 -0.229742 0)
(-0.202848 -0.227387 0)
(-0.212628 -0.224843 0)
(-0.222034 -0.222107 0)
(-0.231084 -0.219185 0)
(-0.239757 -0.21609 0)
(-0.246884 -0.212815 0)
(-0.248673 -0.209047 0)
(-0.243112 -0.20451 0)
(-0.233461 -0.199472 0)
(-0.222773 -0.194008 0)
(-0.211547 -0.188127 0)
(-0.199735 -0.181843 0)
(-0.187394 -0.175183 0)
(-0.174657 -0.168181 0)
(-0.16167 -0.160882 0)
(-0.148579 -0.153345 0)
(-0.135529 -0.145638 0)
(-0.122696 -0.137851 0)
(-0.110356 -0.130097 0)
(-0.0989058 -0.122521 0)
(-0.0888095 -0.115294 0)
(-0.0805208 -0.108595 0)
(-0.0743896 -0.102575 0)
(-0.0705452 -0.0972981 0)
(-0.0688297 -0.0927047 0)
(-0.0688447 -0.0886261 0)
(-0.0700909 -0.0848503 0)
(-0.0721045 -0.08119 0)
(-0.0745286 -0.0775136 0)
(-0.0771204 -0.0737438 0)
(-0.0797298 -0.0698416 0)
(-0.0822703 -0.0657914 0)
(-0.0846933 -0.061591 0)
(-0.0869714 -0.0572445 0)
(-0.0890881 -0.0527597 0)
(-0.091033 -0.0481461 0)
(-0.0927987 -0.043414 0)
(-0.0943799 -0.0385743 0)
(-0.0957723 -0.0336379 0)
(-0.0969724 -0.0286161 0)
(-0.0979779 -0.0235208 0)
(-0.0987855 -0.0183637 0)
(-0.0993893 -0.0131547 0)
(-0.0997836 -0.00790648 0)
(-0.0999865 -0.00263744 0)
(0.0999811 -0.00378028 0)
(0.0996963 -0.0113033 0)
(0.0991332 -0.018766 0)
(0.098275 -0.0261453 0)
(0.0971357 -0.0334205 0)
(0.0957283 -0.0405729 0)
(0.0940654 -0.0475849 0)
(0.0921625 -0.0544412 0)
(0.0900413 -0.0611292 0)
(0.0877306 -0.0676409 0)
(0.0852683 -0.0739742 0)
(0.0827024 -0.080135 0)
(0.080091 -0.0861393 0)
(0.0775012 -0.0920149 0)
(0.0750032 -0.0978014 0)
(0.0726614 -0.103549 0)
(0.0705222 -0.109311 0)
(0.0686 -0.115138 0)
(0.066868 -0.121068 0)
(0.0652561 -0.127116 0)
(0.0636591 -0.133275 0)
(0.0619527 -0.139515 0)
(0.0600124 -0.145792 0)
(0.0577286 -0.152051 0)
(0.0550166 -0.158237 0)
(0.0518189 -0.164294 0)
(0.0481035 -0.170172 0)
(0.043859 -0.175827 0)
(0.0390897 -0.181223 0)
(0.0338101 -0.186329 0)
(0.0280413 -0.19112 0)
(0.0218078 -0.195579 0)
(0.0151357 -0.199693 0)
(0.00805176 -0.203453 0)
(0.000582708 -0.206857 0)
(-0.00724537 -0.209902 0)
(-0.0154082 -0.212593 0)
(-0.0238834 -0.214935 0)
(-0.03265 -0.216933 0)
(-0.0416877 -0.218597 0)
(-0.050977 -0.219937 0)
(-0.0604989 -0.220963 0)
(-0.0702346 -0.221687 0)
(-0.0801654 -0.22212 0)
(-0.0902723 -0.222276 0)
(-0.100536 -0.222165 0)
(-0.110936 -0.221799 0)
(-0.121451 -0.22119 0)
(-0.132058 -0.220349 0)
(-0.142731 -0.219286 0)
(-0.153443 -0.218009 0)
(-0.164161 -0.216527 0)
(-0.174849 -0.214846 0)
(-0.185465 -0.212973 0)
(-0.195956 -0.21091 0)
(-0.206241 -0.208661 0)
(-0.216212 -0.206224 0)
(-0.225804 -0.203599 0)
(-0.235061 -0.200798 0)
(-0.243905 -0.197838 0)
(-0.250673 -0.194733 0)
(-0.251593 -0.191022 0)
(-0.2453 -0.1866 0)
(-0.235351 -0.181747 0)
(-0.22443 -0.176538 0)
(-0.21294 -0.170975 0)
(-0.200853 -0.165067 0)
(-0.188243 -0.15884 0)
(-0.175251 -0.152327 0)
(-0.16203 -0.145572 0)
(-0.148731 -0.138629 0)
(-0.135506 -0.131562 0)
(-0.122541 -0.124452 0)
(-0.110133 -0.117403 0)
(-0.0986904 -0.110546 0)
(-0.088677 -0.104034 0)
(-0.0805354 -0.0980259 0)
(-0.0745882 -0.0926461 0)
(-0.0709269 -0.0879395 0)
(-0.0693577 -0.083839 0)
(-0.069463 -0.0801846 0)
(-0.0707428 -0.0767855 0)
(-0.0727456 -0.0734779 0)
(-0.0751296 -0.0701489 0)
(-0.0776652 -0.0667328 0)
(-0.0802117 -0.0631967 0)
(-0.0826882 -0.0595277 0)
(-0.0850497 -0.0557241 0)
(-0.0872704 -0.0517897 0)
(-0.0893346 -0.0477311 0)
(-0.0912323 -0.0435567 0)
(-0.0929564 -0.0392757 0)
(-0.0945012 -0.0348974 0)
(-0.0958623 -0.0304317 0)
(-0.0970362 -0.0258887 0)
(-0.0980201 -0.0212791 0)
(-0.0988108 -0.0166135 0)
(-0.099402 -0.0119008 0)
(-0.0997881 -0.0071525 0)
(-0.0999868 -0.00238572 0)
(0.0999812 -0.00341414 0)
(0.0996978 -0.0102089 0)
(0.0991375 -0.0169495 0)
(0.0982835 -0.023615 0)
(0.0971496 -0.030187 0)
(0.0957492 -0.0366483 0)
(0.0940944 -0.0429832 0)
(0.092201 -0.0491778 0)
(0.0900904 -0.0552209 0)
(0.0877916 -0.0611053 0)
(0.0853421 -0.0668291 0)
(0.0827897 -0.0723977 0)
(0.0801925 -0.0778255 0)
(0.0776171 -0.0831377 0)
(0.0751338 -0.0883701 0)
(0.0728071 -0.0935678 0)
(0.0706834 -0.0987799 0)
(0.0687778 -0.104052 0)
(0.0670638 -0.109418 0)
(0.0654719 -0.114894 0)
(0.063897 -0.120472 0)
(0.0622147 -0.126128 0)
(0.0603 -0.131822 0)
(0.0580422 -0.137503 0)
(0.0553555 -0.143123 0)
(0.0521812 -0.148631 0)
(0.0484858 -0.153982 0)
(0.0442569 -0.159137 0)
(0.0394975 -0.164061 0)
(0.0342211 -0.168727 0)
(0.0284476 -0.173112 0)
(0.0222008 -0.177201 0)
(0.0155058 -0.18098 0)
(0.00838858 -0.184442 0)
(0.000875317 -0.187583 0)
(-0.00700848 -0.190401 0)
(-0.0152391 -0.192899 0)
(-0.0237945 -0.19508 0)
(-0.032654 -0.196951 0)
(-0.0417975 -0.198516 0)
(-0.0512052 -0.199786 0)
(-0.0608581 -0.200768 0)
(-0.0707369 -0.201473 0)
(-0.0808223 -0.201909 0)
(-0.0910948 -0.202087 0)
(-0.101534 -0.202017 0)
(-0.112118 -0.201708 0)
(-0.122823 -0.201171 0)
(-0.133626 -0.200413 0)
(-0.144499 -0.199443 0)
(-0.155411 -0.19827 0)
(-0.166327 -0.196898 0)
(-0.17721 -0.195335 0)
(-0.188014 -0.193586 0)
(-0.198683 -0.191652 0)
(-0.209131 -0.189538 0)
(-0.219248 -0.187243 0)
(-0.228985 -0.184767 0)
(-0.238405 -0.18212 0)
(-0.247351 -0.179319 0)
(-0.253669 -0.176393 0)
(-0.253715 -0.172835 0)
(-0.246803 -0.168647 0)
(-0.236655 -0.164088 0)
(-0.225578 -0.159222 0)
(-0.213896 -0.15405 0)
(-0.201598 -0.148583 0)
(-0.188781 -0.142846 0)
(-0.175595 -0.13687 0)
(-0.162196 -0.130696 0)
(-0.148742 -0.124373 0)
(-0.135388 -0.117961 0)
(-0.122333 -0.111532 0)
(-0.109889 -0.10518 0)
(-0.0984743 -0.0990252 0)
(-0.088553 -0.0932022 0)
(-0.0805554 -0.0878492 0)
(-0.0747795 -0.083071 0)
(-0.0712837 -0.0788964 0)
(-0.0698443 -0.0752547 0)
(-0.0700285 -0.071997 0)
(-0.0713378 -0.0689537 0)
(-0.0733316 -0.0659822 0)
(-0.0756814 -0.0629865 0)
(-0.0781687 -0.0599109 0)
(-0.0806607 -0.056728 0)
(-0.0830814 -0.0534273 0)
(-0.0853884 -0.0500073 0)
(-0.0875575 -0.0464716 0)
(-0.0895739 -0.042826 0)
(-0.0914279 -0.0390777 0)
(-0.0931126 -0.0352347 0)
(-0.0946225 -0.0313054 0)
(-0.0959532 -0.0272982 0)
(-0.0971011 -0.0232221 0)
(-0.0980633 -0.0190868 0)
(-0.0988367 -0.0149014 0)
(-0.0994151 -0.010674 0)
(-0.0997928 -0.00641484 0)
(-0.0999871 -0.00213948 0)
(0.0999813 -0.00304984 0)
(0.0996993 -0.00911985 0)
(0.0991416 -0.0151418 0)
(0.0982917 -0.021097 0)
(0.0971631 -0.0269689 0)
(0.0957692 -0.0327423 0)
(0.094122 -0.0384033 0)
(0.0922373 -0.0439393 0)
(0.0901364 -0.0493405 0)
(0.087848 -0.0546004 0)
(0.0854096 -0.0597174 0)
(0.0828686 -0.0646963 0)
(0.080283 -0.06955 0)
(0.0777193 -0.0743009 0)
(0.0752475 -0.0789812 0)
(0.0729322 -0.0836312 0)
(0.0708201 -0.0882948 0)
(0.0689265 -0.0930133 0)
(0.0672256 -0.0978172 0)
(0.065648 -0.102721 0)
(0.0640889 -0.107719 0)
(0.0624237 -0.112789 0)
(0.0605267 -0.117895 0)
(0.0582868 -0.122995 0)
(0.0556169 -0.128042 0)
(0.0524573 -0.132993 0)
(0.0487736 -0.137807 0)
(0.0445523 -0.142448 0)
(0.0397955 -0.146887 0)
(0.0345159 -0.151098 0)
(0.0287326 -0.155061 0)
(0.0224686 -0.15876 0)
(0.0157485 -0.162185 0)
(0.00859766 -0.165327 0)
(0.00104182 -0.168183 0)
(-0.00689395 -0.170751 0)
(-0.0151863 -0.173032 0)
(-0.0238134 -0.17503 0)
(-0.0327546 -0.176748 0)
(-0.0419899 -0.178193 0)
(-0.0514993 -0.179369 0)
(-0.0612635 -0.180286 0)
(-0.071263 -0.180951 0)
(-0.0814778 -0.181371 0)
(-0.0918875 -0.181555 0)
(-0.102471 -0.181511 0)
(-0.113205 -0.181248 0)
(-0.124065 -0.180772 0)
(-0.135026 -0.180093 0)
(-0.146058 -0.179215 0)
(-0.157128 -0.178147 0)
(-0.168201 -0.176893 0)
(-0.179236 -0.175458 0)
(-0.190184 -0.173847 0)
(-0.200986 -0.172062 0)
(-0.211555 -0.170106 0)
(-0.221779 -0.167979 0)
(-0.231619 -0.165681 0)
(-0.241154 -0.163221 0)
(-0.250151 -0.16061 0)
(-0.25602 -0.157905 0)
(-0.255288 -0.154583 0)
(-0.247866 -0.150717 0)
(-0.237562 -0.146525 0)
(-0.226369 -0.142063 0)
(-0.214536 -0.137337 0)
(-0.202077 -0.132359 0)
(-0.189102 -0.127152 0)
(-0.175767 -0.121746 0)
(-0.162234 -0.116178 0)
(-0.148663 -0.110492 0)
(-0.135214 -0.104742 0)
(-0.122098 -0.0989939 0)
(-0.10964 -0.0933312 0)
(-0.0982656 -0.0878599 0)
(-0.0884378 -0.0827004 0)
(-0.0805759 -0.0779719 0)
(-0.074956 -0.0737616 0)
(-0.0716079 -0.0700867 0)
(-0.070283 -0.0668765 0)
(-0.0705365 -0.0639956 0)
(-0.0718719 -0.0612942 0)
(-0.0738586 -0.0586497 0)
(-0.0761795 -0.05598 0)
(-0.0786254 -0.0532385 0)
(-0.0810702 -0.0504021 0)
(-0.0834421 -0.0474623 0)
(-0.0857011 -0.044418 0)
(-0.0878242 -0.0412723 0)
(-0.0897975 -0.0380304 0)
(-0.0916117 -0.0346985 0)
(-0.0932602 -0.0312835 0)
(-0.0947377 -0.0277928 0)
(-0.0960398 -0.0242337 0)
(-0.0971632 -0.020614 0)
(-0.0981049 -0.0169423 0)